/*--------------------------------*- C++ -*----------------------------------*\
| =========                 |                                                 |
| \\      /  F ield         | OpenFOAM: The Open Source CFD Toolbox           |
|  \\    /   O peration     | Version:  2206                                  |
|   \\  /    A nd           | Website:  www.openfoam.com                      |
|    \\/     M anipulation  |                                                 |
\*---------------------------------------------------------------------------*/
FoamFile
{
    version     2.0;
    format      ascii;
    arch        "LSB;label=64;scalar=64";
    class       volScalarField;
    location    "4.2/water";
    object      p;
}
// * * * * * * * * * * * * * * * * * * * * * * * * * * * * * * * * * * * * * //

dimensions      [1 -1 -2 0 0 0 0];

internalField   nonuniform List<scalar> 
23300
(
100734.412916
100734.472892
100734.46572
100734.456472
100734.445332
100734.432615
100734.418757
100734.404291
100734.389749
100734.375696
100734.36265
100734.35111
100734.341494
100734.334152
100734.329336
100734.327202
100734.327809
100734.331116
100734.337006
100734.345281
100734.355705
100734.367988
100734.381847
100734.396982
100734.413138
100734.430065
100734.447593
100734.465567
100734.48392
100734.502598
100734.521632
100734.541044
100734.560927
100734.581345
100734.60241
100734.624187
100734.646771
100734.670199
100734.694526
100734.719743
100734.745856
100734.772807
100734.800551
100734.82897
100734.857958
100734.887369
100734.91707
100734.946886
100734.976652
100735.006169
100735.035252
100735.06369
100735.091287
100735.117827
100735.143112
100735.166933
100735.189096
100735.209403
100735.227673
100735.243726
100735.257397
100735.26853
100735.276981
100735.28262
100735.28533
100735.285013
100735.281583
100735.274979
100735.265157
100735.252108
100735.235842
100735.216427
100735.193955
100735.168598
100735.140573
100735.110202
100735.077867
100735.044068
100735.009332
100734.974187
100734.938833
100734.903189
100734.867301
100734.831713
100734.796799
100734.762462
100734.72831
100734.693973
100734.659126
100734.623561
100734.587139
100734.549816
100734.511602
100734.472571
100734.432827
100734.392516
100734.351797
100734.310848
100734.269853
100734.228998
100734.18847
100734.148445
100734.109099
100734.07059
100734.033071
100733.996674
100733.961524
100733.927721
100733.895358
100733.864498
100733.835199
100733.807491
100733.781394
100733.756908
100733.734023
100733.712708
100733.692928
100733.674629
100733.657759
100733.642253
100733.62806
100733.615128
100733.60343
100733.592959
100733.583746
100733.575864
100733.569432
100733.564617
100733.561624
100733.560676
100733.561988
100733.565716
100733.571906
100733.580436
100733.59094
100733.602742
100733.614763
100733.625427
100733.632708
100733.696975
100726.418369
100726.479794
100726.478293
100726.475595
100726.472002
100726.46775
100726.463105
100726.458393
100726.453937
100726.450068
100726.447068
100726.445191
100726.444616
100726.44547
100726.447798
100726.451587
100726.456753
100726.463158
100726.470622
100726.478928
100726.487848
100726.497146
100726.506607
100726.516033
100726.525276
100726.53422
100726.542815
100726.55105
100726.558976
100726.566675
100726.574276
100726.581917
100726.589762
100726.597961
100726.606671
100726.616012
100726.626101
100726.637008
100726.648792
100726.661465
100726.675027
100726.689432
100726.704629
100726.72052
100726.737001
100726.753942
100726.771212
100726.788659
100726.806133
100726.823467
100726.840501
100726.857065
100726.873001
100726.888144
100726.902343
100726.91545
100726.927328
100726.93785
100726.946905
100726.954392
100726.960226
100726.96434
100726.966678
100726.967207
100726.965904
100726.962767
100726.957803
100726.951042
100726.942518
100726.932285
100726.920397
100726.906926
100726.891936
100726.875504
100726.857682
100726.838519
100726.818006
100726.796079
100726.772523
100726.746943
100726.718663
100726.687089
100726.652276
100726.615006
100726.576311
100726.537082
100726.497817
100726.458786
100726.420112
100726.381863
100726.344066
100726.306746
100726.269916
100726.233603
100726.197829
100726.16263
100726.128041
100726.094109
100726.060884
100726.028419
100725.996775
100725.966013
100725.936198
100725.907392
100725.87966
100725.853062
100725.827655
100725.80349
100725.780612
100725.759055
100725.738841
100725.71998
100725.702477
100725.686319
100725.671485
100725.657936
100725.645622
100725.634477
100725.624426
100725.61538
100725.607243
100725.599916
100725.593305
100725.587323
100725.581907
100725.577023
100725.572681
100725.568938
100725.56591
100725.563764
100725.562708
100725.562964
100725.564728
100725.568125
100725.573136
100725.579532
100725.586765
100725.593837
100725.598941
100725.664449
100718.315299
100718.374921
100718.374014
100718.372094
100718.369474
100718.366419
100718.363193
100718.360108
100718.357479
100718.355625
100718.354826
100718.355323
100718.357288
100718.360827
100718.365966
100718.372662
100718.380796
100718.390191
100718.400621
100718.411825
100718.423524
100718.435435
100718.447296
100718.458868
100718.469962
100718.480433
100718.490203
100718.499245
100718.507597
100718.515337
100718.522596
100718.529523
100718.536295
100718.543083
100718.550066
100718.557395
100718.565212
100718.573623
100718.582716
100718.592541
100718.603128
100718.614471
100718.626552
100718.639306
100718.652654
100718.666502
100718.680755
100718.695299
100718.710021
100718.724794
100718.739494
100718.753992
100718.768161
100718.781878
100718.795022
100718.807479
100718.819144
100718.829917
100718.839709
100718.848442
100718.856043
100718.862455
100718.867626
100718.871517
100718.87409
100718.875322
100718.875186
100718.873666
100718.870735
100718.866376
100718.860552
100718.85323
100718.84435
100718.833844
100718.821605
100718.807504
100718.791347
100718.77289
100718.751785
100718.727605
100718.699852
100718.668193
100718.632874
100718.594491
100718.55371
100718.511364
100718.468102
100718.424425
100718.380693
100718.337191
100718.294126
100718.25167
100718.209953
100718.169087
100718.129157
100718.090238
100718.052391
100718.01567
100717.980118
100717.945777
100717.912682
100717.880866
100717.850357
100717.821183
100717.793367
100717.766928
100717.741884
100717.718243
100717.69601
100717.675182
100717.655744
100717.637672
100717.620934
100717.605487
100717.591277
100717.578235
100717.566284
100717.555332
100717.545276
100717.536007
100717.527412
100717.519379
100717.511806
100717.504611
100717.497742
100717.491189
100717.484998
100717.479278
100717.474207
100717.470027
100717.467032
100717.465539
100717.465847
100717.468185
100717.472643
100717.47909
100717.487071
100717.495626
100717.503026
100717.572681
100710.232596
100710.291044
100710.289705
100710.287621
100710.284997
100710.282088
100710.279165
100710.276537
100710.274517
100710.273418
100710.273515
100710.275045
100710.278171
100710.28299
100710.289518
100710.297693
100710.30738
100710.31838
100710.330439
100710.343268
100710.356557
100710.369993
100710.383281
100710.396151
100710.408387
100710.419817
100710.430342
100710.439917
100710.448568
100710.456364
100710.463433
100710.469924
100710.47602
100710.481901
100710.487758
100710.493757
100710.50006
100710.506794
100710.514068
100710.521959
100710.530521
100710.539778
100710.549736
100710.560361
100710.571597
100710.583369
100710.595612
100710.608243
100710.621175
100710.634312
100710.647554
100710.6608
100710.673946
100710.686891
100710.699535
100710.711781
100710.723535
100710.734712
100710.745228
100710.755005
100710.763972
100710.772062
100710.779211
100710.785359
100710.790445
100710.794414
100710.7972
100710.798741
100710.79896
100710.797779
100710.795099
100710.790816
100710.784798
100710.776902
100710.766951
100710.754749
100710.740056
100710.722605
100710.702082
100710.678165
100710.650553
100710.619085
100710.584046
100710.545968
100710.505288
100710.46257
100710.418412
100710.373336
100710.327772
100710.28209
100710.236594
100710.191544
100710.147156
100710.103612
100710.061063
100710.019635
100709.979429
100709.94053
100709.903005
100709.866906
100709.832275
100709.799144
100709.767534
100709.737462
100709.708934
100709.681952
100709.65651
100709.632597
100709.610193
100709.589271
100709.569792
100709.551706
100709.534958
100709.519483
100709.505205
100709.492037
100709.479882
100709.468634
100709.458179
100709.448398
100709.439174
100709.430394
100709.421965
100709.413814
100709.405907
100709.398259
100709.390944
100709.384104
100709.377952
100709.372768
100709.368887
100709.366668
100709.366457
100709.368537
100709.373063
100709.379987
100709.388969
100709.399225
100709.409356
100709.481305
100702.158268
100702.216416
100702.214643
100702.212202
100702.209294
100702.206164
100702.203089
100702.200385
100702.198368
100702.197355
100702.197622
100702.199405
100702.202867
100702.208103
100702.215126
100702.22387
100702.23419
100702.245878
100702.258668
100702.272256
100702.286316
100702.300516
100702.314542
100702.328106
100702.340972
100702.352953
100702.363932
100702.373853
100702.382728
100702.39062
100702.397648
100702.40396
100702.409736
100702.415159
100702.420422
100702.425702
100702.431166
100702.436955
100702.443191
100702.449966
100702.457352
100702.465391
100702.474107
100702.483493
100702.493505
100702.504078
100702.515167
100702.526711
100702.538642
100702.550884
100702.563355
100702.575969
100702.588639
100702.601275
100702.613788
100702.626089
100702.63809
100702.649705
100702.66085
100702.671443
100702.681403
100702.690652
100702.699107
100702.706691
100702.713319
100702.718906
100702.723358
100702.726578
100702.728455
100702.728873
100702.727696
100702.724783
100702.719968
100702.713079
100702.703915
100702.69227
100702.677909
100702.660592
100702.640068
100702.616111
100702.588545
100702.557321
100702.522595
100702.484917
100702.444721
100702.402314
100702.358201
100702.312859
100702.266715
100702.22016
100702.17353
100702.127129
100702.081219
100702.036028
100701.991751
100701.948556
100701.906579
100701.865939
100701.826727
100701.789019
100701.752871
100701.718326
100701.685412
100701.654148
100701.624539
100701.596581
100701.570262
100701.54556
100701.522444
100701.500875
100701.480798
100701.462149
100701.444859
100701.428848
100701.41403
100701.400306
100701.387569
100701.375706
100701.364598
100701.354125
100701.344172
100701.334632
100701.32542
100701.316476
100701.307783
100701.299372
100701.291336
100701.283838
100701.277111
100701.271454
100701.267223
100701.264802
100701.264569
100701.266851
100701.271865
100701.279652
100701.289997
100701.302313
100701.315508
100701.38746
100694.088161
100694.146297
100694.144114
100694.141259
100694.13794
100694.134399
100694.130918
100694.12782
100694.125429
100694.124066
100694.124017
100694.125521
100694.128749
100694.1338
100694.140692
100694.149361
100694.159665
100694.171395
100694.184283
100694.198019
100694.212272
100694.226703
100694.240987
100694.254827
100694.267977
100694.28024
100694.291489
100694.301658
100694.310748
100694.318817
100694.325973
100694.332359
100694.338148
100694.34352
100694.348666
100694.35376
100694.358974
100694.36445
100694.370317
100694.376675
100694.383602
100694.391152
100694.39936
100694.408243
100694.417759
100694.427845
100694.438467
100694.449578
100694.461124
100694.473039
100694.485255
100694.497696
100694.510281
100694.522929
100694.535555
100694.548072
100694.560393
100694.572431
100694.584095
100694.595299
100694.605949
100694.615957
100694.625225
100694.63366
100694.641156
100694.647612
100694.652911
100694.656935
100694.659551
100694.660624
100694.66
100694.65752
100694.653007
100694.646282
100694.637146
100694.625398
100694.610827
100694.59323
100694.572407
100694.548205
100694.520521
100694.489363
100694.454844
100694.417362
100694.377438
100694.335382
100694.291484
100694.246179
100694.199867
100694.15293
100694.10571
100694.058526
100694.011658
100693.965361
100693.919855
100693.875335
100693.831965
100693.789887
100693.749215
100693.710048
100693.672457
100693.636501
100693.602219
100693.569638
100693.538769
100693.50961
100693.48215
100693.456366
100693.432222
100693.409676
100693.388668
100693.369123
100693.350965
100693.33411
100693.318464
100693.303923
100693.290379
100693.277716
100693.265816
100693.25456
100693.24384
100693.233555
100693.223629
100693.214016
100693.20471
100693.195756
100693.187261
100693.179398
100693.172412
100693.166615
100693.162375
100693.160091
100693.16017
100693.162976
100693.168781
100693.177701
100693.189619
100693.204091
100693.220199
100693.290019
100686.020765
100686.078954
100686.076333
100686.072987
100686.069123
100686.064989
100686.060871
100686.057098
100686.054004
100686.051923
100686.051149
100686.051936
100686.054464
100686.058847
100686.06511
100686.073202
100686.08299
100686.094269
100686.106778
100686.12021
100686.134234
100686.148511
100686.162713
100686.176543
100686.189747
100686.202126
100686.213544
100686.22393
100686.233276
100686.24163
100686.249093
100686.255795
100686.261902
100686.267584
100686.273023
100686.278389
100686.283845
100686.289534
100686.295581
100686.302087
100686.309132
100686.316773
100686.325047
100686.333998
100686.343581
100686.353724
100686.364399
100686.375566
100686.387179
100686.399181
100686.411508
100686.424091
100686.436854
100686.449721
100686.462605
100686.475422
100686.488083
100686.500496
100686.512568
100686.524202
100686.535298
100686.545757
100686.555471
100686.564332
100686.572225
100686.579032
100686.584623
100686.588869
100686.591626
100686.592747
100686.592071
100686.589438
100686.584669
100686.577588
100686.568008
100686.555746
100686.540617
100686.522452
100686.501098
100686.476452
100686.44846
100686.417158
100686.382677
100686.345238
100686.305312
100686.263367
100686.219624
100686.174371
100686.127984
100686.080824
100686.033228
100685.985513
100685.937964
100685.890848
100685.844398
100685.798824
100685.754309
100685.711013
100685.669068
100685.628586
100685.589659
100685.552356
100685.516731
100685.482818
100685.450639
100685.420198
100685.391489
100685.36449
100685.33917
100685.315486
100685.293378
100685.272766
100685.253574
100685.235715
100685.219095
100685.20361
100685.189152
100685.175607
100685.162861
100685.150802
100685.139326
100685.128343
100685.117787
100685.10762
100685.097848
100685.088527
100685.079772
100685.071766
100685.064759
100685.05907
100685.055074
100685.053183
100685.053821
100685.05738
100685.064172
100685.07436
100685.087884
100685.104362
100685.122925
100685.189084
100677.955032
100678.013196
100678.010103
100678.006181
100678.001645
100677.996745
100677.991774
100677.987072
100677.982985
100677.97986
100677.97801
100677.977703
100677.97914
100677.98245
100677.987678
100677.994787
100678.003658
100678.014101
100678.025863
100678.038648
100678.05213
100678.065975
100678.07986
100678.093487
100678.106603
100678.119006
100678.130557
100678.141178
100678.150853
100678.15962
100678.167567
100678.174815
100678.181511
100678.187815
100678.193894
100678.199909
100678.20601
100678.212332
100678.218993
100678.226088
100678.233695
100678.24187
100678.250649
100678.260072
100678.270119
100678.280722
100678.291825
100678.303395
100678.315388
100678.327755
100678.340435
100678.353363
100678.366465
100678.379666
100678.392882
100678.406026
100678.419007
100678.431732
100678.4441
100678.456011
100678.467357
100678.478031
100678.487918
100678.496901
100678.504854
100678.511654
100678.517162
100678.521241
100678.523743
100678.524519
100678.523406
100678.520246
100678.514867
100678.507103
100678.496781
100678.48374
100678.467819
100678.448883
100678.426816
100678.40155
100678.373066
100678.34142
100678.306737
100678.269228
100678.229151
100678.187009
100678.143201
100678.097901
100678.051393
100678.004015
100677.956092
100677.907933
100677.859824
100677.812031
100677.764794
100677.718333
100677.67284
100677.628485
100677.585416
100677.543756
100677.503608
100677.465055
100677.428161
100677.392971
100677.359514
100677.327803
100677.297838
100677.269603
100677.243072
100677.218205
100677.194946
100677.173216
100677.152936
100677.134023
100677.116385
100677.099921
100677.084528
100677.070096
100677.056518
100677.043687
100677.031508
100677.019901
100677.008808
100676.998204
100676.988101
100676.978566
100676.969719
100676.961749
100676.95491
100676.949522
100676.945962
100676.94465
100676.946016
100676.950469
100676.958338
100676.969808
100676.984828
100677.00301
100677.023438
100677.085049
100669.89025
100669.948205
100669.944599
100669.940017
100669.934682
100669.928849
100669.922824
100669.916953
100669.911603
100669.907138
100669.903892
100669.902155
100669.902152
100669.904037
100669.907878
100669.91366
100669.921283
100669.930576
100669.941301
100669.953174
100669.965882
100669.979097
100669.992503
100670.005808
100670.018758
100670.031152
100670.042846
100670.053756
100670.063856
100670.073174
100670.08178
100670.089781
100670.097306
100670.104498
100670.111506
100670.118474
100670.125539
100670.132821
100670.140428
100670.148445
100670.156943
100670.165973
100670.175569
100670.185753
100670.196543
100670.207881
100670.219663
100670.231862
100670.244437
100670.257341
100670.270518
100670.283904
100670.297428
100670.311014
100670.324579
100670.338037
100670.351293
100670.364253
100670.376812
100670.388866
100670.400302
100670.411008
100670.420862
100670.429743
100670.43752
100670.444062
100670.449229
100670.452881
100670.454867
100670.45504
100670.453241
100670.449316
100670.443104
100670.43445
100670.423198
100670.409206
100670.39234
100670.37249
100670.349572
100670.323546
100670.294415
100670.262248
100670.227172
100670.189376
100670.149105
100670.106641
100670.062465
100670.016935
100669.970204
100669.92255
100669.874278
100669.825688
100669.77706
100669.728657
100669.680722
100669.633477
100669.58712
100669.54183
100669.49776
100669.455044
100669.413794
100669.374103
100669.336042
100669.299666
100669.265012
100669.232102
100669.20094
100669.171518
100669.143816
100669.117798
100669.093417
100669.070594
100669.049252
100669.029309
100669.010681
100668.993271
100668.976982
100668.96171
100668.947355
100668.93382
100668.921018
100668.908878
100668.897353
100668.886424
100668.876116
100668.866498
100668.857699
100668.849907
100668.843378
100668.838431
100668.835439
100668.834821
100668.837006
100668.842404
100668.851345
100668.864005
100668.88031
100668.899817
100668.921497
100668.978197
100661.825944
100661.88342
100661.879254
100661.873922
100661.867659
100661.860727
100661.853442
100661.846168
100661.839289
100661.833193
100661.828241
100661.824754
100661.822985
100661.823119
100661.825253
100661.829401
100661.835488
100661.843365
100661.852814
100661.863568
100661.875325
100661.887771
100661.900597
100661.913513
100661.92627
100661.938665
100661.950549
100661.961828
100661.972467
100661.982476
100661.99191
100662.000854
100662.009418
100662.017723
100662.025896
100662.034063
100662.04234
100662.050833
100662.059632
100662.068814
100662.078437
100662.088544
100662.099164
100662.110311
100662.122042
100662.13428
100662.146895
100662.159858
100662.173131
100662.186667
100662.200411
100662.214303
100662.228274
100662.242248
100662.256144
100662.269874
100662.283344
100662.296456
100662.309106
100662.321185
100662.332579
100662.343172
100662.352837
100662.36145
100662.368878
100662.374988
100662.379637
100662.382685
100662.383983
100662.383387
100662.380742
100662.375903
100662.368719
100662.359048
100662.34675
100662.331702
100662.313792
100662.292935
100662.26907
100662.242179
100662.212283
100662.179462
100662.143838
100662.105595
100662.064954
100662.022181
100661.977564
100661.931537
100661.884435
100661.836423
100661.787761
100661.738724
100661.689587
100661.640608
100661.592029
100661.544072
100661.496939
100661.450811
100661.405848
100661.362189
100661.319954
100661.27924
100661.240128
100661.20268
100661.166937
100661.13293
100661.100669
100661.070152
100661.041364
100661.014277
100660.988851
100660.965013
100660.942682
100660.921784
100660.902239
100660.883958
100660.866849
100660.850818
100660.835771
100660.821621
100660.808289
100660.795715
100660.783859
100660.772713
100660.762306
100660.752715
100660.74407
100660.736561
100660.730439
100660.726018
100660.723666
100660.72379
100660.72681
100660.733125
100660.743047
100660.75673
100660.77405
100660.794479
100660.816846
100660.868621
100653.761808
100653.818467
100653.813682
100653.807502
100653.800171
100653.79196
100653.7832
100653.774273
100653.765587
100653.757561
100653.750586
100653.745021
100653.741158
100653.739218
100653.739336
100653.741559
100653.745845
100653.752069
100653.760037
100653.769501
100653.780175
100653.791756
100653.80394
100653.816446
100653.829021
100653.84146
100653.853607
100653.865358
100653.876659
100653.887505
100653.897928
100653.90799
100653.917777
100653.927386
100653.936921
100653.946482
100653.956165
100653.966058
100653.976234
100653.986754
100653.997665
100654.009001
100654.020781
100654.033008
100654.045778
100654.059013
100654.072551
100654.086352
100654.100377
100654.114582
100654.128915
100654.143318
100654.157722
100654.172057
100654.186238
100654.200183
100654.213795
100654.226978
100654.239625
100654.251628
100654.262869
100654.273231
100654.282587
100654.29081
100654.297765
100654.303318
100654.307329
100654.309656
100654.310156
100654.308686
100654.3051
100654.299259
100654.291023
100654.280263
100654.266855
100654.250694
100654.231687
100654.209768
100654.184897
100654.157075
100654.126336
100654.092765
100654.056488
100654.017679
100653.976548
100653.933342
100653.888328
100653.841805
100653.794126
100653.745636
100653.696528
100653.647033
100653.597392
100653.547861
100653.498679
100653.45007
100653.402235
100653.355357
100653.309599
100653.265104
100653.221996
100653.180378
100653.140336
100653.101935
100653.065226
100653.030242
100652.997
100652.965503
100652.935741
100652.907691
100652.881326
100652.856579
100652.833364
100652.811613
100652.791251
100652.772198
100652.754369
100652.737676
100652.722035
100652.707368
100652.693605
100652.680693
100652.668602
100652.65733
100652.646913
100652.637432
100652.629016
100652.621854
100652.616192
100652.612333
100652.610635
100652.611488
100652.615296
100652.622435
100652.633193
100652.647682
100652.665722
100652.686686
100652.709253
100652.756292
100645.697668
100645.753112
100645.747636
100645.740493
100645.731936
100645.722246
100645.71177
100645.700913
100645.690115
100645.679827
100645.670485
100645.66249
100645.656183
100645.651831
100645.649614
100645.649619
100645.651841
100645.656187
100645.662488
100645.670516
100645.680001
100645.69065
100645.702167
100645.714269
100645.726705
100645.739259
100645.751765
100645.764103
100645.776202
100645.788032
100645.799601
100645.810945
100645.822122
100645.833202
100645.844261
100645.855376
100645.866619
100645.878056
100645.889744
100645.901728
100645.914041
100645.92671
100645.939744
100645.953149
100645.966946
100645.981161
100645.995688
100646.010363
100646.025158
100646.040036
100646.054945
100646.069832
100646.084633
100646.099278
100646.113689
100646.127781
100646.141462
100646.154635
100646.167195
100646.179033
100646.190031
100646.200071
100646.209026
100646.216769
100646.223165
100646.22808
100646.231374
100646.23291
100646.232546
100646.230144
100646.225566
100646.218681
100646.209359
100646.197483
100646.182944
100646.165652
100646.14553
100646.122531
100646.096633
100646.067848
100646.036224
100646.001851
100645.964857
100645.92541
100645.883711
100645.839994
100645.794514
100645.747542
100645.699375
100645.650277
100645.600633
100645.550665
100645.500523
100645.450469
100645.400727
100645.351524
100645.303058
100645.255513
100645.209054
100645.163826
100645.119955
100645.077549
100645.036696
100644.997468
100644.959918
100644.924083
100644.889986
100644.857633
100644.827021
100644.798129
100644.770943
100644.745406
100644.721424
100644.698935
100644.67787
100644.658156
100644.639714
100644.622465
100644.606332
100644.591246
100644.577145
100644.563984
100644.551741
100644.54042
100644.53006
100644.520745
100644.512603
100644.505819
100644.500629
100644.497327
100644.496251
100644.497774
100644.502276
100644.510104
100644.521514
100644.536573
100644.555039
100644.576186
100644.598555
100644.641144
100637.633464
100637.687238
100637.680985
100637.672744
100637.662774
100637.651372
100637.638903
100637.625799
100637.612535
100637.599608
100637.587505
100637.576682
100637.567539
100637.5604
100637.555499
100637.552972
100637.552856
100637.555094
100637.559545
100637.566002
100637.57421
100637.583884
100637.594729
100637.606463
100637.618824
100637.631587
100637.644568
100637.657626
100637.670667
100637.683634
100637.696507
100637.709291
100637.722013
100637.734713
100637.74744
100637.760242
100637.773167
100637.786261
100637.799559
100637.813091
100637.826877
100637.840932
100637.85526
100637.86986
100637.884725
100637.899956
100637.915448
100637.93098
100637.946523
100637.962041
100637.977487
100637.992812
100638.007955
100638.022852
100638.037426
100638.051597
100638.065276
100638.078366
100638.090765
100638.102365
100638.113049
100638.122699
100638.131189
100638.138392
100638.144173
100638.148401
100638.150938
100638.151648
100638.150393
100638.147043
100638.141462
100638.13353
100638.123126
100638.110144
100638.094488
100638.076081
100638.054863
100638.030801
100638.003886
100637.974144
100637.941631
100637.906443
100637.868709
100637.828594
100637.786293
100637.742028
100637.696044
100637.648602
100637.599965
100637.550421
100637.500209
100637.449695
100637.399102
100637.348531
100637.29829
100637.248558
100637.199536
100637.151409
100637.104342
100637.058482
100637.013957
100636.970877
100636.929332
100636.889398
100636.851131
100636.814572
100636.779746
100636.746665
100636.715328
100636.685718
100636.65783
100636.631621
100636.606993
100636.583885
100636.562234
100636.541971
100636.523024
100636.505323
100636.488797
100636.473384
100636.459031
100636.4457
100636.433374
100636.422062
100636.411807
100636.402692
100636.394843
100636.388438
100636.383704
100636.380918
100636.380401
100636.382502
100636.387574
100636.395933
100636.407795
100636.423186
100636.4418
100636.462824
100636.484679
100636.523135
100629.569248
100629.620843
100629.613708
100629.604205
100629.592604
100629.579213
100629.564419
100629.548689
100629.532542
100629.516529
100629.501201
100629.487085
100629.474649
100629.464291
100629.456307
100629.450895
100629.448138
100629.448021
100629.450432
100629.455185
100629.462035
100629.470703
100629.480894
100629.492314
100629.504689
100629.517776
100629.531367
100629.545297
100629.559439
100629.573707
100629.588045
100629.602428
100629.616847
100629.631312
100629.645837
100629.660445
100629.675159
100629.689999
100629.704983
100629.720124
100629.73543
100629.750903
100629.766539
100629.78233
100629.798253
100629.814474
100629.83089
100629.847249
100629.863502
100629.879614
100629.895545
100629.91125
100629.926675
100629.941759
100629.956431
100629.970616
100629.984226
100629.997171
100630.009349
100630.020654
100630.030973
100630.040187
100630.048173
100630.054804
100630.059947
100630.063472
100630.065243
100630.065128
100630.062993
100630.05871
100630.052153
100630.043207
100630.03176
100630.017717
100630.000994
100629.981525
100629.959263
100629.934189
100629.906304
100629.875646
100629.842279
100629.806302
100629.767846
100629.727075
100629.684178
100629.639372
100629.592889
100629.544981
100629.495905
100629.445924
100629.395299
100629.344327
100629.293212
100629.242225
100629.191532
100629.141342
100629.091853
100629.043233
100628.995656
100628.949267
100628.904195
100628.860552
100628.818432
100628.77791
100628.739047
100628.701885
100628.666455
100628.632769
100628.60083
100628.570627
100628.542141
100628.515364
100628.490215
100628.466606
100628.444481
100628.423777
100628.404429
100628.386373
100628.369545
100628.35389
100628.33936
100628.325925
100628.313571
100628.302311
100628.292191
100628.28329
100628.275733
100628.269687
100628.265369
100628.263039
100628.262996
100628.265564
100628.271067
100628.279787
100628.291904
100628.307398
100628.325908
100628.346548
100628.367643
100628.402284
100621.505184
100621.554043
100621.545897
100621.534936
100621.521437
100621.505723
100621.488206
100621.469394
100621.449859
100621.430221
100621.411109
100621.393137
100621.376864
100621.362771
100621.351236
100621.342526
100621.336782
100621.334031
100621.334192
100621.337099
100621.342515
100621.35016
100621.359728
100621.370911
100621.383413
100621.396964
100621.411325
100621.426299
100621.441722
100621.457471
100621.473452
100621.489603
100621.505877
100621.52225
100621.538704
100621.555233
100621.571832
100621.5885
100621.605234
100621.622033
100621.63889
100621.655801
100621.672754
100621.689739
100621.706742
100621.723801
100621.740992
100621.758173
100621.775099
100621.791757
100621.808116
100621.82414
100621.839781
100621.854988
100621.869694
100621.883831
100621.897317
100621.910064
100621.921975
100621.932947
100621.942869
100621.951626
100621.959094
100621.965148
100621.969659
100621.972497
100621.973527
100621.972622
100621.96965
100621.964489
100621.957018
100621.947127
100621.934714
100621.919692
100621.901986
100621.881543
100621.858326
100621.832326
100621.803556
100621.772061
100621.737911
100621.701212
100621.662094
100621.620721
100621.577278
100621.531975
100621.48504
100621.436714
100621.387247
100621.336896
100621.285919
100621.234565
100621.183109
100621.131707
100621.080655
100621.030138
100620.980221
100620.931214
100620.88323
100620.836414
100620.790904
100620.74681
100620.704227
100620.663234
100620.623891
100620.586244
100620.550324
100620.516148
100620.483721
100620.453032
100620.424064
100620.396831
100620.371269
100620.347264
100620.324767
100620.30372
100620.284065
100620.265741
100620.248692
100620.232867
100620.218225
100620.204738
100620.192398
100620.181221
100620.171251
100620.162566
100620.155283
100620.149563
100620.145607
100620.143658
100620.143994
100620.146911
100620.152702