/*--------------------------------*- C++ -*----------------------------------*\
| =========                 |                                                 |
| \\      /  F ield         | OpenFOAM: The Open Source CFD Toolbox           |
|  \\    /   O peration     | Version:  2206                                  |
|   \\  /    A nd           | Website:  www.openfoam.com                      |
|    \\/     M anipulation  |                                                 |
\*---------------------------------------------------------------------------*/
FoamFile
{
    version     2.0;
    format      ascii;
    arch        "LSB;label=64;scalar=64";
    class       surfaceScalarField;
    location    "4.2/water";
    object      phi;
}
// * * * * * * * * * * * * * * * * * * * * * * * * * * * * * * * * * * * * * //

dimensions      [0 3 -1 0 0 0 0];

oriented        oriented;

internalField   nonuniform List<scalar> 
46280
(
-4.15500578193e-10
4.15473932292e-10
-8.45168854868e-10
4.29664557911e-10
-1.29063725431e-09
4.45424183385e-10
-1.75577659849e-09
4.65141129348e-10
-2.24522247163e-09
4.89398913895e-10
-2.76359891129e-09
5.18383449154e-10
-3.31580855801e-09
5.52153664252e-10
-3.90649191242e-09
5.90695324245e-10
-4.54043406806e-09
6.33884713625e-10
-5.22192426756e-09
6.81510252439e-10
-5.9552004629e-09
7.33223034886e-10
-6.74373344942e-09
7.88561511796e-10
-7.59067976882e-09
8.46898526406e-10
-8.49811737228e-09
9.07472845197e-10
-9.46750421696e-09
9.69342623368e-10
-1.04988980381e-08
1.0314330491e-09
-1.15914460034e-08
1.09250492815e-09
-1.27426306672e-08
1.15122569295e-09
-1.39488317608e-08
1.20615754671e-09
-1.52046428368e-08
1.25585276581e-09
-1.65035457354e-08
1.29885803982e-09
-1.78373298701e-08
1.33382604213e-09
-1.91968996618e-08
1.35952343547e-09
-2.05717996899e-08
1.37494215137e-09
-2.19511396345e-08
1.37929224902e-09
-2.33231902267e-08
1.37209301446e-09
-2.46763720376e-08
1.35313307948e-09
-2.59988566891e-08
1.3225275067e-09
-2.72795449906e-08
1.28063890375e-09
-2.85076034166e-08
1.22810174554e-09
-2.96733683181e-08
1.16571521587e-09
-3.0767776226e-08
1.09445170147e-09
-3.17831691633e-08
1.01534334529e-09
-3.27126208945e-08
9.29495899967e-10
-3.35506577198e-08
8.379876943e-10
-3.42925139581e-08
7.41900678714e-10
-3.49348001234e-08
6.42237852361e-10
-3.54747263173e-08
5.39970724242e-10
-3.59107446317e-08
4.35971143391e-10
-3.62417683677e-08
3.31068186306e-10
-3.6467801884e-08
2.25987768012e-10
-3.65891699566e-08
1.21412212313e-10
-3.66071382001e-08
1.79241353651e-11
-3.65231897857e-08
-8.39047948652e-11
-3.63396319e-08
-1.83600206715e-10
-3.60588714815e-08
-2.80717576726e-10
-3.56840325389e-08
-3.74879419371e-10
-3.52182799805e-08
-4.65710724423e-10
-3.46654275667e-08
-5.52891079514e-10
-3.40292850463e-08
-6.36101955221e-10
-3.33142467748e-08
-7.15075248017e-10
-3.25246655293e-08
-7.89542167735e-10
-3.16654213354e-08
-8.59279675625e-10
-3.07413213645e-08
-9.24062608822e-10
-2.97576466168e-08
-9.83708989285e-10
-2.87195752983e-08
-1.03803584379e-09
-2.76327050169e-08
-1.08690357223e-09
-2.65024962522e-08
-1.13017534124e-09
-2.53347684622e-08
-1.16776043184e-09
-2.41351603477e-08
-1.1995768361e-09
-2.2909599258e-08
-1.22559336728e-09
-2.16637752623e-08
-1.24579493769e-09
-2.04035842605e-08
-1.26022316948e-09
-1.91346137449e-08
-1.26894368524e-09
-1.78625611546e-08
-1.27208485312e-09
-1.65927302757e-08
-1.2698062714e-09
-1.53304275499e-08
-1.26233523491e-09
-1.40804695251e-08
-1.24993557991e-09
-1.28475608041e-08
-1.23294156487e-09
-1.16358138404e-08
-1.21172662076e-09
-1.04491120685e-08
-1.18673498793e-09
-9.29064279566e-09
-1.15845093362e-09
-8.16324640826e-09
-1.12742996635e-09
-7.06895866784e-09
-1.09427131916e-09
-6.00933883967e-09
-1.05965372669e-09
-4.9850058547e-09
-1.02431837074e-09
-3.99591983332e-09
-9.89120162891e-10
-3.04086979193e-09
-9.55037152594e-10
-2.11764283118e-09
-9.23261268415e-10
-1.22237089997e-09
-8.95260673502e-10
-3.49537950418e-10
-8.72867454597e-10
5.08318859756e-10
-8.57847117117e-10
1.35880975512e-09
-8.50525777077e-10
2.20777876683e-09
-8.48960855151e-10
3.05814288407e-09
-8.50399541775e-10
3.91088622049e-09
-8.52736742153e-10
4.76544876002e-09
-8.54598546465e-10
5.62050902292e-09
-8.55055247202e-10
6.47392311166e-09
-8.5345062003e-10
7.32319223522e-09
-8.4926569916e-10
8.16524234165e-09
-8.420870446e-10
8.9968017331e-09
-8.3155753091e-10
9.81415418138e-09
-8.17389638402e-10
1.06134941031e-08
-7.99339587004e-10
1.13906863689e-08
-7.77229535159e-10
1.21416112841e-08
-7.50926036638e-10
1.28619355858e-08
-7.20361472011e-10
1.35474453231e-08
-6.85512242961e-10
1.41938260278e-08
-6.46417601555e-10
1.4796979504e-08
-6.03157273246e-10
1.53528111734e-08
-5.5586812557e-10
1.5857528188e-08
-5.04722012535e-10
1.63074334284e-08
-4.49941099835e-10
1.66992039735e-08
-3.91776639571e-10
1.70296922958e-08
-3.30523441562e-10
1.72961850362e-08
-2.66499832336e-10
1.749621202e-08
-2.00061233493e-10
1.76277849742e-08
-1.31580936308e-10
1.7689213868e-08
-6.14621586359e-11
1.76793253461e-08
9.87974805073e-12
1.75972870121e-08
8.20061527164e-11
1.74428129542e-08
1.54464587551e-10
1.72160136863e-08
2.26768249284e-10
1.69175994954e-08
2.98404100427e-10
1.65487510724e-08
3.68818623635e-10
1.61113133925e-08
4.3742702914e-10
1.56076871385e-08
5.03597707392e-10
1.50410166375e-08
5.66659323289e-10
1.4415102451e-08
6.25886903152e-10
1.37345793098e-08
6.80511444465e-10
1.30048388323e-08
7.29714448268e-10
1.22321772661e-08
7.72649336195e-10
1.14236967434e-08
8.08455732484e-10
1.05873795767e-08
8.36304368259e-10
9.7319158651e-09
8.5544014048e-10
8.86664987719e-09
8.65252564942e-10
8.00128919356e-09
8.6533829942e-10
7.14570153699e-09
8.55573491714e-10
6.30952146715e-09
8.3615876879e-10
5.50185712198e-09
8.07649300853e-10
4.73089423695e-09
7.70942566257e-10
4.00363347182e-09
7.27244806759e-10
3.32560310702e-09
6.78011076684e-10
2.70069090133e-09
6.24895542824e-10
2.13094160782e-09
5.69731146607e-10
1.61633269339e-09
5.14592123608e-10
1.15432557496e-09
4.61991158146e-10
7.39021553534e-10
4.15288854367e-10
3.59669827802e-10
3.79336320746e-10
3.59665489206e-10
-4.51396757469e-10
8.66843330096e-10
-9.08896091534e-10
8.87146835513e-10
-1.37997641411e-09
9.16468358802e-10
-1.87002343834e-09
9.55176237961e-10
-2.38423868987e-09
1.00357775434e-09
-2.92765424435e-09
1.06179201198e-09
-3.50533309132e-09
1.12979491031e-09
-4.12205713191e-09
1.20741743805e-09
-4.78252524627e-09
1.29431823344e-09
-5.49097198325e-09
1.38996150043e-09
-6.25136658778e-09
1.49358775575e-09
-7.06698433575e-09
1.60419077595e-09
-7.94060146325e-09
1.72049058398e-09
-8.87403354519e-09
1.84092137774e-09
-9.8683339763e-09
1.96362079446e-09
-1.09233266875e-08
2.08644478055e-09
-1.20378322112e-08
2.20698892569e-09
-1.32092285466e-08
2.32264187726e-09
-1.44337387603e-08
2.43064560899e-09
-1.57060541105e-08
2.52818792674e-09
-1.70197142328e-08
2.61249486143e-09
-1.83668164342e-08
2.68094776232e-09
-1.97385033927e-08
2.73118588702e-09
-2.11247617302e-08
2.76121979398e-09
-2.25150067106e-08
2.76951176058e-09
-2.38979463024e-08
2.75505187144e-09
-2.52622248933e-08
2.71738553012e-09
-2.65963060795e-08
2.65662810245e-09
-2.78891199215e-08
2.57342629152e-09
-2.91299097427e-08
2.46891124957e-09
-3.03088290844e-08
2.34460808234e-09
-3.14167109183e-08
2.20235357491e-09
-3.24455819605e-08
2.04418820717e-09
-3.3388340497e-08
1.87227485767e-09
-3.42391849664e-08
1.68880651964e-09
-3.49932144887e-08
1.49595099883e-09
-3.56467910883e-08
1.29578960536e-09
-3.61970923193e-08
1.09029308413e-09
-3.66424339751e-08
8.81288927818e-10
-3.69818052307e-08
6.70460832925e-10
-3.72151750268e-08
4.59334843061e-10
-3.73430338592e-08
2.49292591152e-10
-3.7366701586e-08
4.15703687266e-11
-3.72878591588e-08
-1.62725647969e-10
-3.71088391384e-08
-3.62640437066e-10
-3.68322335573e-08
-5.57301720582e-10
-3.64612003251e-08
-7.45931634224e-10
-3.59990669668e-08
-9.27822966626e-10
-3.54496382624e-08
-1.10233762912e-09
-3.48168288535e-08
-1.26889078042e-09
-3.41049681502e-08
-1.42695284795e-09
-3.33184539349e-08
-1.57603654708e-09
-3.24620490205e-08
-1.71570074264e-09
-3.15405520742e-08
-1.84554068805e-09
-3.05590825054e-08
-1.96519423835e-09
-2.9522765123e-08
-2.07433553231e-09
-2.84370005738e-08
-2.17268358527e-09
-2.73071604617e-08
-2.25999911911e-09
-2.61388412509e-08
-2.33609516879e-09
-2.49375667913e-08
-2.40083646665e-09
-2.37090244826e-08
-2.45415148873e-09
-2.24587726451e-08
-2.49603356144e-09
-2.11924586006e-08
-2.52655352748e-09
-1.99155292405e-08
-2.54586150922e-09
-1.86334318869e-08
-2.55419916212e-09
-1.7351327502e-08
-2.55190082435e-09
-1.60742762379e-08
-2.53940421406e-09
-1.48069538562e-08
-2.51724981792e-09
-1.35538246035e-08
-2.48608933622e-09
-1.23188617201e-08
-2.44668300771e-09
-1.11057096382e-08
-2.39990642099e-09
-9.91740824462e-09
-2.34674741298e-09
-8.75654390425e-09
-2.28831446596e-09
-7.62497376973e-09
-2.22583805091e-09
-6.52396106525e-09
-2.1606873774e-09
-5.453893496e-09
-2.09438397736e-09
-4.41440171646e-09
-2.02863362089e-09
-3.40408583335e-09
-1.96535246621e-09
-2.42067468344e-09
-1.90669479966e-09
-1.46092221269e-09
-1.85501394588e-09
-5.21173982847e-10
-1.8126387558e-09
4.02175980608e-10
-1.78119924956e-09
1.31237335439e-09
-1.76074696276e-09
2.21250495879e-09
-1.74909598304e-09
3.10501939081e-09
-1.74293854987e-09
3.99148473034e-09
-1.73920692881e-09
4.87232675331e-09
-1.73546590836e-09
5.7471296546e-09
-1.72986427326e-09
6.61463398633e-09
-1.72098098852e-09
7.47304917515e-09
-1.707688237e-09
8.32000697162e-09
-1.68907149676e-09
9.15281641245e-09
-1.66437547897e-09
9.96838181283e-09
-1.63298219413e-09
1.07634254595e-08
-1.59439282421e-09
1.15343935065e-08
-1.54822512092e-09
1.22776620332e-08
-1.49420515262e-09
1.29894409094e-08
-1.43216813137e-09
1.36659681409e-08
-1.36205097265e-09
1.43034145665e-08
-1.28389192892e-09
1.4898067069e-08
-1.19782208776e-09
1.5446234659e-08
-1.1040635962e-09
1.59444203025e-08
-1.00292068401e-09
1.63892288853e-08
-8.94777419351e-10
1.6777527775e-08
-7.80089172763e-10
1.71063575547e-08
-6.59380683919e-10
1.73730820059e-08
-5.33238441624e-10
1.75753029672e-08
-4.02309271345e-10
1.77110010063e-08
-2.67293547533e-10
1.77784564267e-08
-1.28944154467e-10
1.77763813242e-08
1.1939961143e-11
1.77038427899e-08
1.54518706811e-10
1.75603879689e-08
2.97904289944e-10
1.73459932343e-08
4.4113768598e-10
1.70611920095e-08
5.83190050201e-10
1.67070303451e-08
7.22955730547e-10
1.62851931316e-08
8.59248863119e-10
1.57979709924e-08
9.90796071863e-10
1.5248380035e-08
1.11623482469e-09
1.46401319189e-08
1.23411203759e-09
1.39777345036e-08
1.34289332771e-09
1.32664471206e-08
1.44097963741e-09
1.25123388083e-08
1.52674202195e-09
1.17222013313e-08
1.59857178041e-09
1.09035360322e-08
1.6549539115e-09
1.00643986492e-08
1.6945568359e-09
9.21329712358e-09
1.71633814805e-09
8.35896478546e-09
1.71965063035e-09
7.51018317127e-09
1.70433886308e-09
6.67551620695e-09
1.67080627311e-09
5.86310449368e-09
1.62004431578e-09
5.0804128809e-09
1.5536151596e-09
4.33404232582e-09
1.47359812707e-09
3.62951826593e-09
1.38251655224e-09
2.97111582869e-09
1.28328050378e-09
2.36164097146e-09
1.17918802415e-09
1.8021718982e-09
1.07404386879e-09
1.29168212669e-09
9.72464804438e-10
8.26518134876e-10
8.80437379324e-10
3.99927447202e-10
8.05911502356e-10
7.59588588239e-10
-4.9078709869e-10
1.35759575568e-09
-9.85470667062e-10
1.3818072607e-09
-1.49229173468e-09
1.42324835094e-09
-2.01757737706e-09
1.4804462141e-09
-2.5671299094e-09
1.55309215304e-09
-3.14640032086e-09
1.64105392274e-09
-3.76072676089e-09
1.74408773503e-09
-4.4150568817e-09
1.86174684186e-09
-5.11410240383e-09
1.99333396764e-09
-5.86199887767e-09
2.13786490746e-09
-6.66246865073e-09
2.29403316903e-09
-7.51844453375e-09
2.46017918347e-09
-8.4322345349e-09
2.63425998627e-09
-9.40512994996e-09
2.81383287373e-09
-1.04375805891e-08
2.99605251174e-09
-1.15288099671e-08
3.17769170613e-09
-1.2677024434e-08
3.35518440813e-09
-1.38790625536e-08
3.5246976134e-09
-1.51306638191e-08
3.68222687062e-09
-1.64261763791e-08
3.82371763146e-09
-1.77589052459e-08
3.94520242175e-09
-1.91208922634e-08
4.04295138646e-09
-2.05033507322e-08
4.11362187436e-09
-2.18965161076e-08
4.15440146378e-09
-2.32901558706e-08
4.16312816793e-09
-2.46734704692e-08
4.13838268103e-09
-2.60356477576e-08
4.07953894464e-09
-2.73657768859e-08
3.98677360927e-09
-2.86534028456e-08
3.86102820078e-09
-2.98884088722e-08
3.70393396067e-09
-3.1061526691e-08
3.51770199093e-09
-3.21641521733e-08
3.30499617384e-09
-3.31887828921e-08
3.06879543343e-09
-3.41287536366e-08
2.81226317424e-09
-3.49785970245e-08
2.53862708426e-09
-3.57337094262e-08
2.25108145789e-09
-3.63906503343e-08
1.95270857218e-09
-3.694676373e-08
1.64642497008e-09
-3.74004401334e-08
1.33494444949e-09
-3.77507208529e-08
1.02076043288e-09
-3.79975440708e-08
7.06138359422e-10
-3.81413529396e-08
3.93120610706e-10
-3.81833356402e-08
8.35346184713e-11
-3.81250478727e-08
-2.20994104907e-10
-3.79686498932e-08
-5.1905561628e-10
-3.77165462508e-08
-8.09386077018e-10
-3.7371639146e-08
-1.09085475362e-09
-3.69369990726e-08
-1.36244395416e-09
-3.64161173677e-08
-1.62323430332e-09
-3.58125987733e-08
-1.87239072278e-09
-3.51304128271e-08
-2.10915291226e-09
-3.43736053376e-08
-2.3328260289e-09
-3.35465440005e-08
-2.54277559008e-09
-3.26536447612e-08
-2.73842280707e-09
-3.16996081542e-08
-2.91924401615e-09
-3.06891570861e-08
-3.08477056611e-09
-2.96272613156e-08
-3.23459246799e-09
-2.85188833673e-08
-3.36836232224e-09
-2.73691892915e-08
-3.48580256336e-09
-2.61832998107e-08
-3.58671262734e-09
-2.49664861878e-08
-3.67097887661e-09
-2.3723924063e-08
-3.7385839128e-09
-2.24608740134e-08
-3.78961798499e-09
-2.11824363141e-08
-3.82428903165e-09
-1.98937166494e-08
-3.84293403168e-09
-1.85995808512e-08
-3.8460280781e-09
-1.73048071311e-08
-3.83419403827e-09
-1.60138408833e-08
-3.80820912667e-09
-1.47309355158e-08
-3.76901176782e-09
-1.34599080244e-08
-3.71770513839e-09
-1.2204270838e-08
-3.65556165217e-09
-1.09669895107e-08
-3.58402489264e-09
-9.75060869427e-09
-3.50471430411e-09
-8.55701549869e-09
-3.41942887132e-09
-7.3875676257e-09
-3.33015522193e-09
-6.24287726296e-09
-3.23907339134e-09
-5.1229712304e-09
-3.14856053925e-09
-4.02715139763e-09
-3.06117278491e-09
-2.95428559837e-09
-2.9795823602e-09
-1.90289476981e-09
-2.90640670372e-09
-8.71703342837e-10
-2.84385278857e-09
1.40210992641e-10
-2.79311697858e-09
1.13333539244e-09
-2.75389477077e-09
2.1086295487e-09
-2.72439494989e-09
3.06733213463e-09
-2.70166528646e-09
4.01054748856e-09
-2.68242844566e-09
4.9388203131e-09
-2.66376355003e-09
5.85216610739e-09
-2.64321748405e-09
6.74992392659e-09
-2.6187642054e-09
7.63095814341e-09
-2.5887310412e-09
8.4935935261e-09
-2.55173276153e-09
9.33583022388e-09
-2.50662183715e-09
1.01552794592e-08
-2.45245769577e-09
1.0949361184e-08
-2.38848520063e-09
1.17152318858e-08
-2.31412236681e-09
1.2449965089e-08
-2.22894990232e-09
1.31504744676e-08
-2.1327042255e-09
1.38136804396e-08
-2.02526930279e-09
1.44364316367e-08
-1.90666990319e-09
1.50156597494e-08
-1.77706327343e-09
1.55483013554e-08
-1.63673193291e-09
1.60314424125e-08
-1.48607544218e-09
1.6462241916e-08
-1.32560349813e-09
1.68380671336e-08
-1.15592862078e-09
1.71564204483e-08
-9.77760313062e-10
1.74150665309e-08
-7.91899193989e-10
1.76119638527e-08
-5.99232542696e-10
1.77453851814e-08
-4.0072988651e-10
1.78138551332e-08
-1.9743959303e-10
1.78162645718e-08
9.5152597977e-12
1.77518166448e-08
2.18941701324e-10
1.76201353332e-08
4.29570173819e-10
1.74212222657e-08
6.40026451221e-10
1.71555685508e-08
8.4882823827e-10
1.68241211889e-08
1.05437947732e-09
1.64283897358e-08
1.25496473948e-09
1.59704178516e-08
1.44874505976e-09
1.54528788725e-08
1.63375819608e-09
1.48790430165e-08
1.80792572207e-09
1.42528494356e-08
1.96907126423e-09
1.35788542021e-08
2.11495340556e-09
1.28622627676e-08
2.24331774545e-09
1.21088434761e-08
2.35197028156e-09
1.1324908604e-08
2.43887296311e-09
1.05171878993e-08
2.50225738814e-09
9.69276093977e-09
2.54074910276e-09
8.8589026487e-09
2.55348933004e-09
8.02298604615e-09
2.54023914829e-09
7.19232285484e-09
2.50145029626e-09
6.37405792758e-09
2.43829244077e-09
5.57501949612e-09
2.35263468798e-09
4.80160786185e-09
2.24699241673e-09
4.05964236852e-09
2.12446340223e-09
3.35421283433e-09
1.98869226449e-09
2.68946751588e-09
1.84391521049e-09
2.06833873109e-09
1.69515499497e-09
1.4921280871e-09
1.54865896794e-09
9.59826251202e-10
1.41272343152e-09
4.66521664365e-10
1.29920022886e-09
1.22610584901e-09
-5.29242549658e-10
1.88679704034e-09
-1.06401175871e-09
1.91654809007e-09
-1.61113349798e-09
1.97032397442e-09
-2.1770517295e-09
2.04634418585e-09
-2.76788549994e-09
2.14388587863e-09
-3.38936694516e-09
2.26252703856e-09
-4.04703595962e-09
2.40172249064e-09
-4.74593297685e-09
2.56064519581e-09
-5.49074358721e-09
2.73811805167e-09
-6.28544632858e-09
2.93257636948e-09
-7.1334686769e-09
3.14203364162e-09
-8.03732365076e-09
3.36404852226e-09
-8.99878227346e-09
3.59569975692e-09
-1.00185073231e-08
3.83357500048e-09
-1.10962523595e-08
4.07377955883e-09
-1.22305154423e-08
4.31197249318e-09
-1.34187809849e-08
4.54343127893e-09
-1.46572144893e-08
4.76314833707e-09
-1.59409640456e-08
4.96595636282e-09
-1.72639102439e-08
5.14668024523e-09
-1.86190371293e-08
5.30030778821e-09
-1.99982415856e-08
5.422171595e-09
-2.139277253e-08
5.5081301052e-09
-2.27930920061e-08
5.55473634187e-09
-2.41893679711e-08
5.55938061975e-09
-2.55713659004e-08
5.52039598706e-09
-2.69289668601e-08
5.43711598495e-09
-2.82520574188e-08
5.30987978167e-09
-2.95310365976e-08
5.13998342787e-09
-3.07566696351e-08
4.92958303531e-09
-3.19205506241e-08
4.68155931248e-09
-3.30148957223e-08
4.39935784267e-09
-3.40329428522e-08
4.08681946756e-09
-3.49686781163e-08
3.74801559615e-09
-3.58171724748e-08
3.38709915546e-09
-3.65742526421e-08
3.00817937365e-09
-3.72367887065e-08
2.61522336859e-09
-3.78023306749e-08
2.21198524331e-09
-3.82693661178e-08
1.8019597959e-09
-3.86369444039e-08
1.38835750478e-09
-3.89049208086e-08
9.7409594699e-10
-3.90735845856e-08
5.61803543401e-10
-3.91438990436e-08
1.53831576027e-10
-3.91171454112e-08
-2.47728360275e-10
-3.8995170948e-08
-6.41046283286e-10
-3.87800276484e-08
-1.02450996188e-09
-3.84742223187e-08
-1.3966750936e-09
-3.80804049308e-08
-1.75624210383e-09
-3.76016166721e-08
-2.10203653981e-09
-3.70409964902e-08
-2.43299207636e-09
-3.64020262778e-08
-2.74813629726e-09
-3.56882545868e-08
-3.04657954566e-09
-3.49035359551e-08
-3.3275068483e-09
-3.40517684736e-08
-3.59017300696e-09
-3.31371242786e-08
-3.83390058315e-09
-3.21637978512e-08
-4.05808082727e-09
-3.11362255694e-08
-4.26217715337e-09
-3.00588418675e-08
-4.44573116395e-09
-2.89362863926e-08
-4.60837075004e-09
-2.77731654193e-08
-4.74982019749e-09
-2.657424577e-08
-4.86991178128e-09
-2.53442192075e-08
-4.96859863287e-09
-2.40878828384e-08
-5.04596835326e-09
-2.28099047102e-08
-5.10225693822e-09
-2.15149910813e-08
-5.13786254826e-09
-2.02076521371e-08
-5.1533584381e-09
-1.88923572348e-08
-5.14950481976e-09
-1.75733005988e-08
-5.12725880028e-09
-1.62545465931e-08
-5.08778269519e-09
-1.49397965663e-08
-5.03244978514e-09
-1.36325276319e-08
-4.96284857248e-09
-1.23357642656e-08
-4.88078441443e-09
-1.10522174943e-08
-4.78828011241e-09
-9.78407082666e-09
-4.6875731866e-09
-8.5331359056e-09
-4.58111020433e-09
-7.30067715901e-09
-4.47153125473e-09
-6.08762076768e-09
-4.36163797193e-09
-4.89446930101e-09
-4.25432483911e-09
-3.72162397385e-09
-4.15244966747e-09
-2.5694286058e-09
-4.05860414425e-09
-1.43853994697e-09
-3.97476431425e-09
-3.29796207447e-10
-3.90186427243e-09
7.55666899545e-10
-3.83938156104e-09
1.81720443822e-09
-3.78593747311e-09
2.8547765513e-09
-3.73926179587e-09
3.86859323246e-09
-3.69625145304e-09
4.85875079984e-09
-3.6539461203e-09
5.82515818057e-09
-3.60963242803e-09
6.76731212567e-09
-3.56094364737e-09
7.68441877496e-09
-3.50584638442e-09
8.57527384709e-09
-3.44261371994e-09
9.4384371004e-09
-3.36979481482e-09
1.0272143894e-08
-3.28619065946e-09
1.10744824508e-08
-3.190834416e-09
1.18433106499e-08
-3.08297692187e-09
1.25764232687e-08
-2.96207402362e-09
1.32714685696e-08
-2.82777596882e-09
1.39261038158e-08
-2.67991680679e-09
1.4537911953e-08
-2.51850447498e-09
1.51045464138e-08
-2.34371066109e-09
1.56236493376e-08
-2.15586118633e-09
1.60929870017e-08
-1.95542661461e-09
1.65103709708e-08
-1.74301359854e-09
1.68737853094e-08
-1.51935696167e-09
1.71813118603e-08
-1.28531270095e-09
1.74312503046e-08
-1.04185204502e-09
1.7622048732e-08
-7.90056421088e-10
1.77524175838e-08
-5.3111345975e-10
1.7821266479e-08
-2.6631346177e-10
1.78278130061e-08
2.9537841215e-12
1.77715277516e-08
2.75202542589e-10
1.76522332667e-08
5.48849563262e-10
1.74700560093e-08
8.22179926984e-10
1.72255274448e-08
1.09334162421e-09
1.69195436482e-08
1.36034017226e-09
1.65534590611e-08
1.62103410528e-09
1.61290477387e-08
1.87313398479e-09
1.56485834408e-08
2.11420724222e-09
1.51147948187e-08
2.34169264596e-09
1.45309230468e-08
2.55292773599e-09
1.39006619793e-08
2.74519344378e-09
1.32281856459e-08
2.91577868968e-09
1.25180686962e-08
3.06206682955e-09
1.17752836782e-08
3.18164244674e-09
1.10051074541e-08
3.27241378683e-09
1.02130993003e-08
3.33274149207e-09
9.40500831857e-09
3.36156098331e-09
8.5867475716e-09
3.35848377253e-09
7.76431442875e-09
3.3238644503e-09
6.94376484934e-09
3.25882533799e-09
6.1311407568e-09
3.16523999344e-09
5.33242630273e-09
3.04568948077e-09
4.55345153237e-09
2.90341953636e-09
3.79978332424e-09
2.74234268352e-09
3.07653189606e-09
2.56714830678e-09
2.38805876557e-09
2.38361030903e-09
1.73747209844e-09
2.1992290055e-09
1.12574300604e-09
2.0244364744e-09
5.49985683702e-10
1.87494146079e-09
1.77608710147e-09
-5.68114893908e-10
2.45486482343e-09
-1.14301692836e-09
2.49141678473e-09
-1.73140305118e-09
2.55865889349e-09
-2.33962934723e-09
2.65454917134e-09
-2.97394674761e-09
2.77815975417e-09
-3.64023751821e-09
2.9288079249e-09
-4.34414455765e-09
3.10559643685e-09
-5.09072695848e-09
3.30722923941e-09
-5.88457957614e-09
3.53194388848e-09
-6.72946865157e-09
3.77747613942e-09
-7.62848991846e-09
4.04103420523e-09
-8.58370267749e-09
4.31927678254e-09
-9.59631861087e-09
4.60829770842e-09
-1.06663547324e-08
4.90362874779e-09
-1.17928597842e-08
5.20026691733e-09
-1.29736010799e-08
5.49273152405e-09
-1.42053429646e-08
5.77515431893e-09
-1.54835803866e-08
6.04140263326e-09
-1.68028781572e-08
6.28523362406e-09
-1.81566562759e-08
6.50047422737e-09
-1.95375902346e-08
6.68121966794e-09
-2.09374434424e-08
6.82203992179e-09
-2.2347519126e-08
6.91818252408e-09
-2.37585254435e-08
6.96575744392e-09
-2.51610595636e-08
6.96189075243e-09
-2.65454821615e-08
6.9048334117e-09
-2.79024063808e-08
6.79401593873e-09
-2.92225539781e-08
6.63004255023e-09
-3.04972206188e-08
6.41462591561e-09
-3.17180898574e-08
6.15046798839e-09
-3.2877653912e-08
5.84109966131e-09
-3.39689734662e-08
5.49069377926e-09
-3.49860462225e-08
5.10386924812e-09
-3.59235143892e-08
4.68550086175e-09
-3.67769855819e-08
4.24054834146e-09
-3.75427002768e-08
3.77391188869e-09
-3.82178169797e-08
3.29031922618e-09
-3.88000565228e-08
2.79424327744e-09
-3.92879651995e-08
2.28984893006e-09
-3.96805522001e-08
1.78096358225e-09
-3.99775419371e-08
1.27106752198e-09
-4.01790168582e-08
7.63297992147e-10
-4.02856646437e-08
2.60462596008e-10
-4.02984335931e-08
-2.34939598695e-10
-4.02188056731e-08
-7.20689630655e-10
-4.00484243805e-08
-1.19487137127e-09
-3.97893531202e-08
-1.65576057271e-09
-3.94437735769e-08
-2.10180192644e-09
-3.90142358691e-08
-2.53158745623e-09
-3.85033718596e-08
-2.9438367873e-09
-3.79141410036e-08
-3.33737960232e-09
-3.72495595521e-08
-3.71114237969e-09
-3.65129398603e-08
-4.06413851774e-09
-3.57076325923e-08
-4.39546259476e-09
-3.48372572307e-08
-4.7042877554e-09
-3.39054546916e-08
-4.98986685148e-09
-3.2916107494e-08
-5.25153629583e-09
-3.18731003669e-08
-5.48872313884e-09
-3.07805291476e-08
-5.70095432521e-09
-2.96424672005e-08
-5.88786850176e-09
-2.84631626423e-08
-6.04922934536e-09
-2.72468086519e-08
-6.18494059296e-09
-2.59977290873e-08
-6.29506176492e-09
-2.47201511565e-08
-6.37982450182e-09
-2.34183799647e-08
-6.43964856907e-09
-2.20965725505e-08
-6.47515716193e-09
-2.07589025056e-08
-6.48719076523e-09
-1.94093353074e-08
-6.47681896115e-09
-1.80517851693e-08
-6.44534985087e-09
-1.6689893239e-08
-6.39433629144e-09
-1.53271808372e-08
-6.32557911686e-09
-1.39668353182e-08
-6.24112607132e-09
-1.26118680397e-08
-6.14326663866e-09
-1.1264919051e-08
-6.0345198335e-09
-9.92843630287e-09
-5.91761326382e-09
-8.60452095645e-09
-5.79544574917e-09
-7.29515451589e-09
-5.67102573356e-09
-6.0021114688e-09
-5.54736851614e-09
-4.72724637448e-09
-5.42733703087e-09
-3.47244298725e-09
-5.31340963666e-09
-2.23984377882e-09
-5.20738667119e-09
-1.03162996825e-09
-5.11008164483e-09
1.50094968675e-10
-5.02113043287e-09
1.30329637231e-09
-4.93914383537e-09
2.42650497154e-09
-4.86249499961e-09
3.51914173192e-09
-4.78889448035e-09
4.58062097591e-09
-4.71545051339e-09
5.61046527665e-09
-4.63948419764e-09
6.6080293225e-09
-4.55853326785e-09
7.57258666564e-09
-4.47041229323e-09
8.50316769191e-09
-4.37322063363e-09
9.39869870828e-09
-4.26533538963e-09
1.02578828149e-08
-4.14540086208e-09
1.10793538856e-08
-4.01231594278e-09
1.1861573365e-08
-3.86522260857e-09
1.26029821895e-08
-3.70349410998e-09
1.33019038563e-08
-3.52672386269e-09
1.39566890197e-08
-3.33471395275e-09
1.45656224445e-08
-3.12746405822e-09
1.51270594538e-08
-2.90516028829e-09
1.56393368376e-08
-2.66816457359e-09
1.61009015618e-08
-2.41700450959e-09
1.65102262184e-08
-2.15236401709e-09
1.6865930568e-08
-1.87507494969e-09
1.71667021448e-08
-1.58610971206e-09
1.74114112166e-08
-1.28657513786e-09
1.75990371485e-08
-9.77707373905e-10
1.77287773546e-08
-6.6086798182e-10
1.77999799577e-08
-3.37540589169e-10
1.78122473353e-08
-9.32812085506e-12
1.77653758564e-08
3.22050071985e-10
1.76594452571e-08
6.54765501137e-10
1.74947614553e-08
9.86840417434e-10
1.72719480703e-08
1.31614027142e-09
1.69918960694e-08
1.64036954141e-09
1.66558458873e-08
1.95706950665e-09
1.6265337102e-08
2.26362083188e-09
1.58222762839e-08
2.55725323886e-09
1.53288815562e-08
2.83506611374e-09
1.47877314083e-08
3.09406299288e-09
1.42017005789e-08
3.33120364977e-09
1.35739886876e-08
3.54347556898e-09
1.29080498028e-08
3.72798567686e-09
1.22076074067e-08
3.88206964236e-09
1.14765883076e-08
4.00341337705e-09
1.07191371357e-08
4.09017719298e-09
9.93956820818e-09
4.14111085078e-09
9.14238970555e-09
4.15564638222e-09
8.3322775495e-09
4.13395783369e-09
7.51410405261e-09
4.0769823157e-09
6.69291935378e-09
3.98640601214e-09
5.87396064257e-09
3.86463098095e-09
5.06260802442e-09
3.71475354558e-09
4.26432955176e-09
3.54060327875e-09
3.48454578664e-09
3.34691378494e-09
2.72840582747e-09
3.13973232979e-09
2.00037999699e-09
2.92723802713e-09
1.30352946758e-09
2.72127086051e-09
6.38226438767e-10
2.54022827627e-09
2.41430910528e-09
-6.05903267879e-10
3.06071751347e-09
-1.21978548913e-09
3.10526388763e-09
-1.84843256595e-09
3.18725217183e-09
-2.49829062283e-09
3.30438236911e-09
-3.17572526213e-09
3.45555001886e-09
-3.88673614613e-09
3.63980948176e-09
-4.6370363937e-09
3.8558609439e-09
-5.43166453718e-09
4.10186000835e-09
-6.27510119687e-09
4.37535523631e-09
-7.17088593121e-09
4.67327159053e-09
-8.12177294722e-09
4.99190087701e-09
-9.12937325883e-09
5.32689316295e-09
-1.01943554969e-08
5.67326205354e-09
-1.13161169773e-08
6.02540809418e-09
-1.24930383309e-08
6.37717037768e-09
-1.37221996286e-08
6.72191040685e-09
-1.49996951269e-08
7.052630514e-09
-1.63204015883e-08
7.36212554757e-09
-1.76783539146e-08
7.64316481992e-09
-1.90665617595e-08
7.88869736822e-09
-2.0477437518e-08
8.09207267174e-09
-2.1902647772e-08
8.2472646915e-09
-2.33335764522e-08
8.34908729347e-09
-2.4761190286e-08
8.39338549255e-09
-2.61765135137e-08
8.37718943826e-09
-2.75704825969e-08
8.29881683955e-09
-2.89344070556e-08
8.1579157059e-09
-3.02597910379e-08
7.95544133372e-09
-3.15387602514e-08
7.69357070306e-09
-3.27638374326e-08
7.37556064709e-09
-3.39283263445e-08
7.00556475663e-09
-3.50260404448e-08
6.58842415992e-09
-3.60516456759e-08
6.12945155925e-09
-3.70003507462e-08
5.63422306833e-09
-3.78682165228e-08
5.10839232675e-09
-3.86518202769e-08
4.55753362752e-09
-3.9348541148e-08
3.98701961617e-09
-3.99562110492e-08
3.40193195272e-09
-4.04733849032e-08
2.80700373334e-09
-4.08989894041e-08
2.20658753863e-09
-4.12325848102e-08
1.60464536125e-09
-4.14740203903e-08
1.00475355606e-09
-4.16236929737e-08
4.10119080308e-10
-4.16822043568e-08
-1.76407900264e-10
-4.1650661863e-08
-7.52246847999e-10
-4.15302928613e-08
-1.31521996395e-09
-4.13227175473e-08
-1.86334940027e-09
-4.10296537474e-08
-2.39484548675e-09
-4.06531676818e-08
-2.90808605559e-09
-4.01953928842e-08
-3.40159179454e-09
-3.96587781036e-08
-3.87400621847e-09
-3.90458207317e-08
-4.32408069164e-09
-3.8359307394e-08
-4.75066330328e-09
-3.76020595801e-08
-5.15269234586e-09
-3.6777165379e-08
-5.52919333877e-09
-3.58877352211e-08
-5.87928018197e-09
-3.49371237708e-08
-6.20215937165e-09
-3.39286938062e-08
-6.4971377078e-09
-3.28660278322e-08
-6.76363244778e-09
-3.17526983343e-08
-7.00118418229e-09
-3.05924691676e-08
-7.20947141717e-09
-2.93890706761e-08
-7.38832693932e-09
-2.81463913097e-08
-7.5377549764e-09
-2.68682564166e-08
-7.65794896691e-09
-2.55586109019e-08
-7.74930899609e-09
-2.4221300944e-08
-7.81245841095e-09
-2.28602489606e-08
-7.84825880488e-09
-2.14792383061e-08
-7.857822596e-09
-2.00820827228e-08
-7.84252266397e-09
-1.86724156735e-08
-7.80399796069e-09
-1.72538583613e-08
-7.74415482691e-09
-1.58298183547e-08
-7.66516228176e-09
-1.44036637902e-08
-7.56944073339e-09
-1.29785407418e-08
-7.45964061748e-09
-1.15575660412e-08
-7.33860857194e-09
-1.01436772378e-08
-7.20933378067e-09
-8.73985640978e-09
-7.07486817601e-09
-7.34901698136e-09
-6.93820863819e-09
-5.97424157643e-09
-6.80213497865e-09
-4.61865204458e-09
-6.6690013048e-09
-3.28555986897e-09
-6.54050223038e-09
-1.97818350087e-09
-6.41746155418e-09
-6.99615035926e-10
-6.2997230187e-09
5.47321108993e-10
-6.18608486647e-09
1.75991190094e-09
-6.07511052652e-09
2.93637038447e-09
-5.96535910574e-09
4.07548093763e-09
-5.85458628514e-09
5.17625514625e-09
-5.74026570606e-09
6.23774055086e-09
-5.62004425358e-09
7.25909170905e-09
-5.49177180747e-09