/*--------------------------------*- C++ -*----------------------------------*\
| =========                 |                                                 |
| \\      /  F ield         | OpenFOAM: The Open Source CFD Toolbox           |
|  \\    /   O peration     | Version:  2206                                  |
|   \\  /    A nd           | Website:  www.openfoam.com                      |
|    \\/     M anipulation  |                                                 |
\*---------------------------------------------------------------------------*/
FoamFile
{
    version     2.0;
    format      ascii;
    arch        "LSB;label=64;scalar=64";
    class       volScalarField;
    location    "4.2/water";
    object      reactingEulerHtcModel(T.liquid);
}
// * * * * * * * * * * * * * * * * * * * * * * * * * * * * * * * * * * * * * //

dimensions      [1 0 -3 -1 0 0 0];

internalField   uniform 0;

boundaryField
{
    maxY
    {
        type            calculated;
        value           uniform 0;
    }
    symmetric
    {
        type            symmetry;
    }
    maxX
    {
        type            calculated;
        value           uniform 0;
    }
    minY
    {
        type            calculated;
        value           uniform 0;
    }
    emptyPatch
    {
        type            empty;
    }
    water_to_solid
    {
        type            calculated;
        value           nonuniform List<scalar> 
70
(
-83.6044764063
-83.5978045404
-84.11502244
-85.4271250233
-89.3361064581
-98.2827411401
-120.087592413
-167.386340387
-208.625085201
-230.797038243
-240.823968451
-230.786086378
-229.29415797
-230.555261261
-226.968901522
-230.61159779
-226.418489341
-230.829210333
-226.828536601
-230.873830681
-227.202255073
-231.076927584
-228.898572176
-231.489415545
-231.090563168
-234.228906223
-242.941253547
-245.766284251
-243.434316617
-239.872143345
-237.95942846
-238.996735287
-245.338376342
-184.948125716
-126.223929116
-114.481724568
-122.904719011
-111.42876693
-121.214989537
-110.626298987
-120.784765379
-110.771274635
-120.759534692
-111.741041814
-121.047970381
-113.047097342
-121.305053754
-114.579808498
-121.529039799
-116.462011061
-121.361993898
-117.98838327
-121.460447267
-120.78310019
-123.620823676
-172.114287278
-233.2581953
-243.658247202
-242.334525544
-230.235098698
-231.083107716
-231.54465511
-231.93971695
-232.247873663
-232.356828516
-232.356754901
-232.709291238
-233.695785298
-241.354019953
-230.370063649
)
;
    }
}


// ************************************************************************* //
