/*--------------------------------*- C++ -*----------------------------------*\
| =========                 |                                                 |
| \\      /  F ield         | OpenFOAM: The Open Source CFD Toolbox           |
|  \\    /   O peration     | Version:  2212                                  |
|   \\  /    A nd           | Website:  www.openfoam.com                      |
|    \\/     M anipulation  |                                                 |
\*---------------------------------------------------------------------------*/
FoamFile
{
    version     2.0;
    format      ascii;
    arch        "LSB;label=64;scalar=64";
    class       volScalarField;
    location    "0.25";
    object      alpha.air;
}
// * * * * * * * * * * * * * * * * * * * * * * * * * * * * * * * * * * * * * //

dimensions      [0 0 0 0 0 0 0];

internalField   nonuniform List<scalar> 
32768
(
2.67744e-122
2.61755e-119
9.36188e-117
2.00598e-114
3.0926e-112
3.72549e-110
3.66234e-108
3.01501e-106
2.11097e-104
1.26859e-102
6.58117e-101
2.95855e-99
1.15554e-97
3.92677e-96
1.16098e-94
2.98196e-93
6.635e-92
1.27196e-90
2.08543e-89
2.89715e-88
3.37049e-87
3.23057e-86
2.49821e-85
1.51998e-84
7.02306e-84
2.32371e-83
5.15564e-83
6.95093e-83
4.73567e-83
1.14556e-83
9.1229e-85
4.91265e-86
2.00017e-87
7.05769e-89
3.62813e-88
9.81125e-89
1.17508e-89
1.02134e-90
7.64736e-92
5.15342e-93
3.15873e-94
1.77266e-95
9.11225e-97
4.3093e-98
1.87526e-99
7.51086e-101
2.76548e-102
9.42371e-104
2.94075e-105
8.39762e-107
2.2029e-108
5.23104e-110
1.12621e-111
2.16896e-113
3.70081e-115
5.53199e-117
7.09977e-119
7.64316e-121
6.649e-123
4.45108e-125
2.08962e-127
5.5185e-130
3.87365e-133
3.68435e-134
1.30399e-131
3.23347e-129
5.88738e-127
8.34068e-125
9.5861e-123
9.20625e-121
7.55128e-119
5.38154e-117
3.38182e-115
1.89596e-113
9.55542e-112
4.3745e-110
1.83398e-108
7.08504e-107
2.53188e-105
8.42128e-104
2.6197e-102
7.67458e-101
2.11592e-99
5.52719e-98
1.36755e-96
3.21726e-95
7.19003e-94
1.51963e-92
3.04851e-91
5.79085e-90
1.04323e-88
1.76653e-87
2.61562e-86
2.46996e-85
8.22002e-87
1.50214e-85
4.86575e-84
7.46677e-83
4.10001e-82
8.21871e-82
7.9628e-82
4.44938e-82
1.59949e-82
4.0359e-83
7.56305e-84
1.09765e-84
1.27243e-85
1.20524e-86
9.52049e-88
6.35245e-89
3.62372e-90
1.78097e-91
7.5819e-93
2.80916e-94
9.08494e-96
2.56686e-97
6.33463e-99
1.36395e-100
2.55585e-102
4.15061e-104
5.80518e-106
6.92595e-108
6.93769e-110
5.68259e-112
3.64338e-114
1.68435e-116
4.68292e-119
4.80593e-122
2.60356e-119
3.53577e-116
1.77332e-113
5.46725e-111
1.22838e-108
2.0882e-106
2.644e-104
2.59068e-102
2.08574e-100
1.42836e-98
8.40816e-97
4.2762e-95
1.8862e-93
7.22178e-92
2.39881e-90
6.9064e-89
1.71959e-87
3.68734e-86
6.78463e-85
1.06076e-83
1.39544e-82
1.523e-81
1.35124e-80
9.52042e-80
5.17688e-79
2.06971e-78
5.69438e-78
9.90552e-78
9.6707e-78
4.59056e-78
9.00684e-79
7.99902e-80
5.23257e-81
2.93294e-82
1.94327e-83
1.46024e-84
1.05157e-85
6.8952e-87
4.19143e-88
2.36547e-89
1.24134e-90
6.06356e-92
2.75673e-93
1.16613e-94
4.58969e-96
1.68222e-97
5.7368e-99
1.82543e-100
5.38153e-102
1.46458e-103
3.69499e-105
8.50568e-107
1.78999e-108
3.39066e-110
5.71872e-112
8.52295e-114
1.09392e-115
1.18095e-117
1.03405e-119
6.973e-122
3.3045e-124
8.81984e-127
5.99416e-130
5.26004e-131
1.99883e-128
4.98549e-126
9.06086e-124
1.27961e-121
1.46625e-119
1.40544e-117
1.1529e-115
8.23924e-114
5.20634e-112
2.94431e-110
1.50369e-108
7.00547e-107
3.00566e-105
1.19413e-103
4.41565e-102
1.52952e-100
4.99006e-99
1.54239e-97
4.52488e-96
1.26876e-94
3.39893e-93
8.73275e-92
2.15425e-90
5.10208e-89
1.1702e-87
2.61727e-86
5.81614e-85
1.30665e-83
2.89091e-82
5.7343e-81
8.91296e-80
1.00091e-78
9.0315e-78
4.9934e-77
1.2887e-76
1.62762e-76
1.13722e-76
4.94114e-77
1.45397e-77
3.08765e-78
4.96657e-79
6.27988e-80
6.42101e-81
5.42522e-82
3.84969e-83
2.32213e-84
1.20122e-85
5.36309e-87
2.07618e-88
6.98728e-90
2.04707e-91
5.21817e-93
1.15695e-94
2.22498e-96
3.6952e-98
5.26024e-100
6.34586e-102
6.22768e-104
4.6455e-106
2.53611e-108
1.04591e-110
3.16286e-113
5.94032e-116
4.19097e-119
8.92305e-117
1.47356e-113
9.78943e-111
4.331e-108
1.52268e-105
4.33447e-103
7.99808e-101
9.75508e-99
8.84896e-97
6.42261e-95
3.89186e-93
2.00492e-91
8.86568e-90
3.38378e-88
1.11827e-86
3.20376e-85
7.95129e-84
1.70531e-82
3.14693e-81
4.96394e-80
6.6317e-79
7.41148e-78
6.81306e-77
5.04009e-76
2.91288e-75
1.26319e-74
3.88998e-74
7.88397e-74
9.451e-74
5.79048e-74
1.54192e-74
1.76702e-75
1.22749e-76
7.09522e-78
3.76697e-79
1.91445e-80
9.46818e-82
4.57576e-83
2.15352e-84
9.83353e-86
4.31968e-87
1.81335e-88
7.28571e-90
2.77992e-91
1.00464e-92
3.43925e-94
1.11195e-95
3.38713e-97
9.67856e-99
2.57095e-100
6.37826e-102
1.45104e-103
3.02968e-105
5.71599e-107
9.60914e-109
1.43182e-110
1.84028e-112
1.99227e-114
1.75442e-116
1.19252e-118
5.72834e-121
1.58151e-123
1.1898e-126
6.53682e-128
2.75332e-125
7.16626e-123
1.32925e-120
1.89753e-118
2.18739e-116
2.10466e-114
1.73183e-112
1.24183e-110
7.87798e-109
4.47672e-107
2.30267e-105
1.08282e-103
4.70417e-102
1.89775e-100
7.15886e-99
2.54297e-97
8.55827e-96
2.74353e-94
8.41612e-93
2.48894e-91
7.09235e-90
1.95483e-88
5.22929e-87
1.3623e-85
3.50063e-84
9.01208e-83
2.38991e-81
6.64773e-80
1.86137e-78
4.73758e-77
9.64848e-76
1.38447e-74
1.21133e-73
5.39584e-73
1.11206e-72
1.16032e-72
6.97725e-73
2.69112e-73
7.21101e-74
1.42451e-74
2.16927e-75
2.63407e-76
2.61676e-77
2.16831e-78
1.52056e-79
9.12233e-81
4.71786e-82
2.11468e-83
8.24222e-85
2.79786e-86
8.27013e-88
2.12469e-89
4.72628e-91
9.04852e-93
1.47642e-94
2.01621e-96
2.21478e-98
1.81857e-100
9.65343e-103
3.08323e-105
7.90991e-108
1.62497e-110
2.25832e-113
1.29366e-116
4.97486e-114
8.49151e-111
6.05528e-108
3.00486e-105
1.2395e-102
4.39197e-100
8.26045e-98
9.83565e-96
8.6217e-94
6.11172e-92
3.63563e-90
1.84556e-88
8.07036e-87
3.05691e-85
1.00633e-83
2.88339e-82
7.18811e-81
1.55573e-79
2.91176e-78
4.68438e-77
6.42299e-76
7.42014e-75
7.1122e-74
5.54152e-73
3.41494e-72
1.60388e-71
5.45771e-71
1.25458e-70
1.76623e-70
1.32874e-70
4.52637e-71
6.51679e-72
4.80048e-73
2.50951e-74
1.22289e-75
6.02369e-77
2.97721e-78
1.46321e-79
7.06006e-81
3.30328e-82
1.48648e-83
6.38887e-85
2.60854e-86
1.00765e-87
3.67115e-89
1.25807e-90
4.0446e-92
1.21642e-93
3.41114e-95
8.88394e-97
2.13867e-98
4.73103e-100
9.54916e-102
1.74316e-103
2.84664e-105
4.10194e-107
5.12284e-109
5.41403e-111
4.68126e-113
3.14581e-115
1.50411e-117
4.22748e-120
3.50052e-123
1.42599e-124
6.16096e-122
1.62358e-119
3.03674e-117
4.36649e-115
5.07091e-113
4.91913e-111
4.08498e-109
2.95892e-107
1.8975e-105
1.09053e-103
5.67509e-102
2.69815e-100
1.18134e-98
4.79752e-97
1.81909e-95
6.47959e-94
2.18045e-92
6.96723e-91
2.1233e-89
6.1943e-88
1.73467e-86
4.67318e-85
1.21358e-83
3.05198e-82
7.56414e-81
1.90494e-79
5.04369e-78
1.43089e-76
4.10575e-75
1.05345e-73
2.11038e-72
2.89114e-71
2.32132e-70
9.03113e-70
1.61172e-69
1.48228e-69
8.0256e-70
2.83924e-70
7.08729e-71
1.32131e-71
1.91987e-72
2.24516e-73
2.16509e-74
1.75337e-75
1.20874e-76
7.16502e-78
3.67771e-79
1.64258e-80
6.40261e-82
2.18085e-83
6.48861e-85
1.68282e-86
3.78955e-88
7.36481e-90
1.22347e-91
1.70788e-93
1.93178e-95
1.61979e-97
8.56197e-100
2.33092e-102
5.15763e-105
9.51812e-108
1.24006e-110
6.9069e-114
2.36472e-111
3.96617e-108
2.80659e-105
1.41208e-102
6.20795e-100
2.01939e-97
3.62673e-95
4.21147e-93
3.63037e-91
2.54055e-89
1.49583e-87
7.53393e-86
3.27696e-84
1.23795e-82
4.07621e-81
1.17189e-79
2.94141e-78
6.43408e-77
1.22222e-75
2.00514e-74
2.8187e-73
3.35897e-72
3.34496e-71
2.73089e-70
1.78169e-69
8.97298e-69
3.327e-68
8.50518e-68
1.36689e-67
1.21217e-67
5.00678e-68
8.58206e-69
7.13728e-70
3.82693e-71
1.84913e-72
9.28567e-74
4.83312e-75
2.52041e-76
1.28928e-77
6.40285e-79
3.05935e-80
1.39628e-81
6.05455e-83
2.48467e-84
9.62162e-86
3.50686e-87
1.20004e-88
3.84484e-90
1.14965e-91
3.19563e-93
8.2183e-95
1.94405e-96
4.19991e-98
8.21433e-100
1.43878e-101
2.22629e-103
2.99021e-105
3.40552e-107
3.18255e-109
2.32266e-111
1.21729e-113
3.84293e-116
3.99576e-119
9.21643e-121
3.9429e-118
1.00958e-115
1.81726e-113
2.50118e-111
2.77074e-109
2.55757e-107
2.01713e-105
1.38548e-103
8.4132e-102
4.57258e-100
2.24744e-98
1.00791e-96
4.1572e-95
1.58836e-93
5.6592e-92
1.89199e-90
5.96986e-89
1.78739e-87
5.10216e-86
1.39421e-84
3.65876e-83
9.24366e-82
2.25317e-80
5.31459e-79
1.22093e-77
2.78e-76
6.614e-75
1.78027e-73
5.01237e-72
1.25957e-70
2.4281e-69
3.11027e-68
2.24043e-67
7.49595e-67
1.15302e-66
9.3413e-67
4.55502e-67
1.47858e-67
3.43868e-68
6.04883e-69
8.38053e-70
9.42812e-71
8.81204e-72
6.9606e-73
4.70571e-74
2.74819e-75
1.3954e-76
6.18711e-78
2.40185e-79
8.17148e-81
2.43474e-82
6.33889e-84
1.43619e-85
2.8142e-87
4.72351e-89
6.67699e-91
7.67291e-93
6.58242e-95
3.64046e-97
1.07584e-99
2.30445e-102
4.27262e-105
5.66985e-108
3.22972e-111
8.11718e-109
1.32235e-105
9.08413e-103
4.45096e-100
1.94705e-97
5.86454e-95
1.01314e-92
1.15503e-90
9.82484e-89
6.80113e-87
3.96917e-85
1.98569e-83
8.59826e-82
3.24146e-80
1.06791e-78
3.08085e-77
7.78441e-76
1.72022e-74
3.31439e-73
5.53978e-72
7.9743e-71
9.78743e-70
1.01067e-68
8.62512e-68
5.93947e-67
3.1952e-66
1.28457e-65
3.629e-65
6.60422e-65
6.83704e-65
3.39859e-65
6.97264e-66
6.56994e-67
3.76654e-68
1.89694e-69
1.01001e-70
5.69098e-72
3.21061e-73
1.77743e-74
9.54314e-76
4.92224e-77
2.42176e-78
1.13098e-79
4.99632e-81
2.08261e-82
8.17286e-84
3.01287e-85
1.04068e-86
3.35765e-88
1.00804e-89
2.8028e-91
7.17546e-93
1.67941e-94
3.56213e-96
6.77358e-98
1.13921e-99
1.66546e-101
2.06833e-103
2.11324e-105
1.69321e-107
9.81921e-110
3.49719e-112
4.44343e-115
6.14581e-117
2.5553e-114
6.2725e-112
1.07319e-109
1.39736e-107
1.46005e-105
1.26862e-103
9.40426e-102
6.06403e-100
3.45337e-98
1.75841e-96
8.08836e-95
3.39069e-93
1.30548e-91
4.64897e-90
1.54121e-88
4.7857e-87
1.40002e-85
3.87991e-84
1.02381e-82
2.58397e-81
6.26128e-80
1.46094e-78
3.29036e-77
7.17333e-76
1.52208e-74
3.1873e-73
6.83813e-72
1.64723e-70
4.38856e-69
1.05443e-67
1.91643e-66
2.25177e-65
1.42671e-64
4.06069e-64
5.37422e-64
3.83958e-64
1.68902e-64
5.03914e-65
1.09359e-65
1.81754e-66
2.40392e-67
2.60411e-68
2.36071e-69
1.8197e-70
1.20676e-71
6.94407e-73
3.48752e-74
1.53472e-75
5.93104e-77
2.01426e-78
6.00579e-80
1.56825e-81
3.57104e-83
7.04641e-85
1.1932e-86
1.70468e-88
1.98408e-90
1.73391e-92
9.96975e-95
3.19209e-97
7.00424e-100
1.34998e-102
1.85876e-105
1.09515e-108
2.10623e-106
3.30875e-103
2.19044e-100
1.03293e-97
4.3716e-95
1.23759e-92
2.06994e-90
2.32283e-88
1.95191e-86
1.33729e-84
7.73786e-83
3.84537e-81
1.65751e-79
6.23431e-78
2.0543e-76
5.94397e-75
1.51087e-73
3.3702e-72
6.57968e-71
1.11919e-69
1.64756e-68
2.07971e-67
2.22318e-66
1.97936e-65
1.43537e-64
8.22557e-64
3.57382e-63
1.11128e-62
2.27913e-62
2.74037e-62
1.63564e-62
4.05959e-63
4.39371e-64
2.7576e-65
1.49641e-66
8.70735e-68
5.41728e-69
3.36928e-70
2.05292e-71
1.20985e-72
6.83115e-74
3.67139e-75
1.87033e-76
9.00709e-78
4.09256e-79
1.75152e-80
7.04772e-82
2.66015e-83
9.39102e-85
3.08913e-86
9.42346e-88
2.65012e-89
6.82099e-91
1.59256e-92
3.33637e-94
6.18722e-96
9.98326e-98
1.37012e-99
1.55009e-101
1.38015e-103
8.95795e-106
3.6368e-108
5.70885e-111
4.66002e-113
1.86379e-110
4.35245e-108
7.01212e-106
8.54775e-104
8.33093e-102
6.73509e-100
4.63691e-98
2.77298e-96
1.46289e-94
6.89347e-93
2.93158e-91
1.13504e-89
4.03162e-88
1.32276e-86
4.03413e-85
1.15043e-83
3.0852e-82
7.82361e-81
1.88584e-79
4.3419e-78
9.58884e-77
2.03829e-75
4.18191e-74
8.30383e-73
1.60318e-71
3.04402e-70
5.86256e-69
1.23847e-67
3.03018e-66
6.81372e-65
1.14731e-63
1.21577e-62
6.65643e-62
1.59927e-61
1.82047e-61
1.14888e-61
4.56855e-62
1.25529e-62
2.5469e-63
4.00635e-64
5.06644e-65
5.29214e-66
4.6588e-67
3.5081e-68
2.28409e-69
1.29597e-70
6.4418e-72
2.81484e-73
1.08332e-74
3.67355e-76
1.09626e-77
2.87121e-79
6.57066e-81
1.3054e-82
2.22947e-84
3.21753e-86
3.78907e-88
3.36754e-90
2.00197e-92
6.85623e-95
1.57562e-97
3.18605e-100
4.58092e-103
2.8113e-106
4.36235e-104
6.56367e-101
4.16168e-98
1.87261e-95
7.58219e-93
2.03478e-90
3.31043e-88
3.66065e-86
3.04007e-84
2.0615e-82
1.18247e-80
5.83575e-79
2.50301e-77
9.38811e-76
3.09217e-74
8.96663e-73
2.29082e-71
5.15293e-70
1.01823e-68
1.76039e-67
2.64663e-66
3.43074e-65
3.79023e-64
3.51399e-63
2.67775e-62
1.63063e-61
7.63448e-61
2.60415e-60
5.99562e-60
8.33886e-60
5.96566e-60
1.80868e-60
2.2851e-61
1.60109e-62
9.59855e-64
6.25305e-65
4.36637e-66
3.04077e-67
2.06769e-68
1.35503e-69
8.48349e-71
5.04669e-72
2.84372e-73
1.51499e-74
7.62077e-76
3.61468e-77
1.61391e-78
6.76729e-80
2.6566e-81
9.72427e-83
3.3022e-84
1.03385e-85
2.96177e-87
7.6937e-89
1.79241e-90
3.69481e-92
6.6254e-94
1.0108e-95
1.2728e-97
1.26511e-99
9.2297e-102
4.28808e-104
8.3384e-107
4.01483e-109
1.52394e-106
3.37502e-104
5.09508e-102
5.7808e-100
5.22089e-98
3.89868e-96
2.47309e-94
1.35988e-92
6.58486e-91
2.84358e-89
1.10659e-87
3.91501e-86
1.26884e-84
3.7927e-83
1.05204e-81
2.72381e-80
6.61908e-79
1.51794e-77
3.30261e-76
6.85188e-75
1.36184e-73
2.60327e-72
4.80138e-71
8.56759e-70
1.48482e-68
2.5224e-67
4.30857e-66
7.89774e-65
1.72618e-63
3.5639e-62
5.47364e-61
5.15271e-60
2.39916e-59
4.84055e-59
4.74243e-59
2.64926e-59
9.54524e-60
2.42084e-60
4.60164e-61
6.86433e-62
8.31462e-63
8.38806e-64
7.1811e-65
5.2891e-66
3.38482e-67
1.89557e-68
9.33337e-70
4.05277e-71
1.55436e-72
5.26599e-74
1.5736e-75
4.13553e-77
9.51433e-79
1.90362e-80
3.27949e-82
4.78092e-84
5.69485e-86
5.14126e-88
3.15127e-90
1.1463e-92
2.78459e-95
5.9301e-98
8.94893e-101
5.75776e-104
7.4409e-102
1.06678e-98
6.45592e-96
2.76769e-93
1.06327e-90
2.71645e-88
4.31082e-86
4.70052e-84
3.85808e-82
2.58893e-80
1.47164e-78
7.20948e-77
3.07529e-75
1.14949e-73
3.7816e-72
1.09804e-70
2.81683e-69
6.38225e-68
1.27488e-66
2.23721e-65
3.43004e-64
4.55866e-63
5.19604e-62
5.00685e-61
4.00075e-60
2.58259e-59
1.29935e-58
4.84633e-58
1.24797e-57
1.99994e-57
1.71098e-57
6.3839e-58
9.58232e-59
7.61949e-60
5.15539e-61
3.83619e-62
3.04963e-63
2.40803e-64
1.84817e-65
1.36201e-66
9.56799e-68
6.3819e-69
4.0335e-70
2.41263e-71
1.36425e-72
7.28216e-74
3.66176e-75
1.72962e-76
7.64617e-78
3.14904e-79
1.20158e-80
4.22022e-82
1.35394e-83
3.93218e-85
1.02279e-86
2.35181e-88
4.70329e-90
8.00896e-92
1.12809e-93
1.2598e-95
1.04158e-97
5.59202e-100
1.35484e-102
3.93138e-105
1.3649e-102
2.84624e-100
3.99671e-98
4.19206e-96
3.48718e-94
2.39237e-92
1.39141e-90
7.00234e-89
3.09791e-87
1.22016e-85
4.32304e-84
1.38981e-82
4.08476e-81
1.1048e-79
2.76631e-78
6.44846e-77
1.407e-75
2.88895e-74
5.61208e-73
1.03696e-71
1.83181e-70
3.10805e-69
5.08445e-68
8.0444e-67
1.23515e-65
1.85388e-64
2.77804e-63
4.40724e-62
8.33056e-61
1.55052e-59
2.14002e-58
1.7647e-57
6.88811e-57
1.1634e-56
9.82521e-57
4.8706e-57
1.59409e-57
3.74078e-58
6.67693e-59
9.46521e-60
1.1003e-60
1.07396e-61
8.9556e-63
6.46101e-64
4.06932e-65
2.25187e-66
1.09946e-67
4.74863e-69
1.81647e-70
6.15291e-72
1.84234e-73
4.86116e-75
1.12487e-76
2.26751e-78
3.94175e-80
5.80589e-82
6.99516e-84
6.41191e-86
4.04266e-88
1.55534e-90
4.01248e-93
9.04491e-96
1.4388e-98
9.75945e-102
1.07171e-99
1.45626e-96
8.37364e-94
3.41278e-91
1.2393e-88
3.02283e-86
4.68868e-84
5.04346e-82
4.09063e-80
2.71553e-78
1.52905e-76
7.43179e-75
3.15082e-73
1.17284e-71
3.85067e-70
1.11852e-68
2.87812e-67
6.56071e-66
1.32304e-64
2.35319e-63
3.67344e-62
4.99712e-61
5.86571e-60
5.86281e-59
4.90151e-58
3.34577e-57
1.80377e-56
7.33249e-56
2.104e-55
3.86933e-55
3.9464e-55
1.82078e-55
3.3075e-56
3.03327e-57
2.35946e-58
2.03739e-59
1.86692e-60
1.69057e-61
1.48212e-62
1.2448e-63
9.95861e-65
7.56601e-66
5.44923e-67
3.71513e-68
2.39367e-69
1.45441e-70
8.31131e-72
4.45205e-73
2.22655e-74
1.03484e-75
4.44615e-77
1.75517e-78
6.3218e-80
2.06059e-81
6.01883e-83
1.55659e-84
3.5103e-86
6.76553e-88
1.08402e-89
1.38667e-91
1.32708e-93
8.41352e-96
2.57105e-98
4.98315e-101
1.45445e-98
2.79142e-96
3.56127e-94
3.37605e-92
2.53334e-90
1.56723e-88
8.22289e-87
3.73583e-85
1.49311e-83
5.31536e-82
1.70237e-80
4.94581e-79
1.31252e-77
3.20092e-76
7.21251e-75
1.50906e-73
2.94597e-72
5.392e-71
9.29912e-70
1.51908e-68
2.36324e-67
3.5199e-66
5.04357e-65
6.98048e-64
9.36656e-63
1.22587e-61
1.59186e-60
2.16049e-59
3.46183e-58
5.7019e-57
6.97511e-56
4.96863e-55
1.60561e-54
2.26711e-54
1.65412e-54
7.29736e-55
2.17563e-55
4.73648e-56
7.95812e-57
1.07454e-57
1.20129e-58
1.1366e-59
9.24784e-61
6.54533e-62
4.0628e-63
2.2244e-64
1.07817e-65
4.63659e-67
1.77064e-68
6.00166e-70
1.80203e-71
4.77701e-73
1.11248e-74
2.2605e-76
3.96683e-78
5.90529e-80
7.19792e-82
6.69712e-84
4.33823e-86
1.76101e-88
4.8405e-91
1.15617e-93
1.94567e-96
1.39739e-99
1.31757e-97
1.69188e-94
9.23219e-92
3.57323e-89
1.22316e-86
2.85443e-84
4.33486e-82
4.60098e-80
3.68671e-78
2.42018e-76
1.34925e-74
6.50253e-73
2.73824e-71
1.01426e-69
3.3205e-68
9.63945e-67
2.48515e-65
5.6922e-64
1.15723e-62
2.08296e-61
3.30517e-60
4.59373e-59
5.54227e-58
5.73394e-57
5.00403e-56
3.60255e-55
2.07505e-54
9.16248e-54
2.91822e-53
6.1319e-53
7.42689e-53
4.24632e-53
9.51073e-54
1.02012e-54
9.27297e-56
9.42004e-57
1.00698e-57
1.05951e-58
1.07702e-59
1.04777e-60
9.70057e-62
8.51671e-63
7.07229e-64
5.54254e-65
4.09076e-66
2.83721e-67
1.8447e-68
1.12133e-69
6.35291e-71
3.34266e-72
1.62657e-73
7.2835e-75
2.98304e-76
1.10911e-77
3.70862e-79
1.10208e-80
2.86629e-82
6.39378e-84
1.18997e-85
1.77572e-87
1.99569e-89
1.50736e-91
5.77477e-94
8.9979e-97
2.01332e-94
3.52514e-92
4.02944e-90
3.3901e-88
2.24507e-86
1.22181e-84
5.63086e-83
2.2467e-81
7.89312e-80
2.4742e-78
6.99322e-77
1.79747e-75
4.23041e-74
9.16856e-73
1.83857e-71
3.42537e-70
5.95126e-69
9.67758e-68
1.4785e-66
2.13089e-65
2.91061e-64
3.78675e-63
4.71695e-62
5.65345e-61
6.54978e-60
7.37822e-59
8.19621e-58
9.38984e-57
1.25214e-55
1.79245e-54
1.91538e-53
1.16166e-52
3.07599e-52
3.63175e-52
2.29594e-52
9.04333e-53
2.46366e-53
4.99021e-54
7.91353e-55
1.02025e-55
1.09938e-56
1.01036e-57
8.03569e-59
5.58876e-60
3.42396e-61
1.85724e-62
8.94772e-64
3.83561e-65
1.46377e-66
4.96935e-68
1.49742e-69
3.99092e-71
9.35959e-73
1.91815e-74
3.39966e-76
5.11712e-78
6.31179e-80
5.95905e-82
3.96253e-84
1.693e-86
4.9557e-89
1.25425e-91
2.24103e-94
1.71221e-97
1.40731e-95
1.70202e-92
8.77823e-90
3.21914e-87
1.0365e-84
2.31741e-82
3.45003e-80
3.61361e-78
2.85965e-76
1.85558e-74
1.0237e-72
4.88897e-71
2.04344e-69
7.52605e-68
2.45465e-66
7.11445e-65
1.83562e-63
4.2192e-62
8.63482e-61
1.57031e-59
2.52828e-58
3.58334e-57
4.4344e-56
4.73816e-55
4.30581e-54
3.26049e-53
2.00028e-52
9.55963e-52
3.36563e-51
8.04236e-51
1.15131e-50
8.15439e-51
2.29147e-51
2.91074e-52
3.13799e-53
3.80273e-54
4.81648e-55
5.99298e-56
7.18799e-57
8.21865e-58
8.89489e-59
9.07314e-60
8.70168e-61
7.83688e-62
6.62386e-63
5.25184e-64
3.90366e-65
2.71712e-66
1.76774e-67
1.07194e-68
6.03421e-70
3.13646e-71
1.49503e-72
6.47964e-74
2.5271e-75
8.7566e-77
2.65363e-78
6.89271e-80
1.49388e-81
2.6005e-83
3.42691e-85
3.07502e-87
1.46258e-89
2.09398e-92
3.18292e-90
5.11238e-88
5.26823e-86
3.95952e-84
2.32777e-82
1.11877e-80
4.53208e-79
1.58252e-77
4.84626e-76
1.3197e-74
3.23214e-73
7.18784e-72
1.46321e-70
2.74536e-69
4.7751e-68
7.73649e-67
1.17221e-65
1.66647e-64
2.22924e-63
2.81363e-62
3.36028e-61
3.80987e-60
4.11642e-59
4.25626e-58
4.23048e-57
4.06497e-56
3.82109e-55
3.64844e-54
3.97322e-53
4.85107e-52
4.46147e-51
2.26759e-50
4.88205e-50
4.82768e-50
2.65386e-50
9.36662e-51
2.33956e-51
4.42277e-52
6.63875e-53
8.19379e-54
8.53057e-55
7.63138e-56
5.94443e-57
4.06968e-58
2.46477e-59
1.32645e-60
6.36012e-62
2.72086e-63
1.03876e-64
3.53536e-66
1.07003e-67
2.86937e-69
6.78125e-71
1.40252e-72
2.51188e-74
3.82451e-76
4.77547e-78
4.57357e-80
3.11877e-82
1.40026e-84
4.36947e-87
1.17636e-89
2.23334e-92
1.81627e-95
1.30832e-93
1.48619e-90
7.23033e-88
2.5132e-85
7.61038e-83
1.63298e-80
2.38618e-78
2.46618e-76
1.92671e-74
1.23521e-72
6.73973e-71
3.18765e-69
1.32149e-67
4.83555e-66
1.56982e-64
4.53796e-63
1.17041e-61
2.69608e-60
5.54609e-59
1.01732e-57
1.65887e-56
2.39266e-55
3.03037e-54
3.33615e-53
3.14876e-52
2.50064e-51
1.62865e-50
8.39279e-50
3.25196e-49
8.79198e-49
1.47946e-48
1.29456e-48
4.63135e-49
7.04855e-50
9.15753e-51
1.34807e-51
2.06497e-52
3.09249e-53
4.42412e-54
5.96813e-55
7.54565e-56
8.92759e-57
9.89447e-58
1.02936e-58
1.00725e-59
9.28198e-61
8.05463e-62
6.57138e-63
5.02469e-64
3.5846e-65
2.37246e-66
1.44716e-67
8.07509e-69
4.08697e-70
1.85787e-71
7.4972e-73
2.6469e-74
8.02384e-76
2.03615e-77
4.17104e-79
6.51941e-81
7.03863e-83
4.18673e-85
6.858e-88
5.87242e-86
8.44029e-84
7.66122e-82
5.04476e-80
2.5948e-78
1.09149e-76
3.87324e-75
1.1856e-73
3.183e-72
7.59201e-71
1.6254e-69
3.15012e-68
5.56662e-67
9.02641e-66
1.35082e-64
1.87568e-63
2.42865e-62
2.94604e-61
3.36238e-60
3.62472e-59
3.70357e-58
3.59757e-57
3.33146e-56
2.94857e-55
2.5007e-54
2.0393e-53
1.61236e-52
1.27269e-51
1.11369e-50
1.13555e-49
8.84822e-49
3.70424e-48
6.45204e-48
5.35938e-48
2.57248e-48
8.16848e-49
1.87756e-49
3.32383e-50
4.73704e-51
5.61284e-52
5.6601e-53
4.94008e-54
3.77645e-55
2.54969e-56
1.52906e-57
8.17632e-59
3.90708e-60
1.67009e-61
6.38534e-63
2.1808e-64
6.63538e-66
1.79163e-67
4.26982e-69
8.91756e-71
1.61478e-72
2.48816e-74
3.14632e-76
3.0559e-78
2.1349e-80
1.00557e-82
3.34399e-85
9.56246e-88
1.93426e-90
1.68049e-93
1.06523e-91
1.13385e-88
5.19241e-86
1.70933e-83
4.8762e-81
1.00557e-78
1.44482e-76
1.47284e-74
1.13551e-72
7.18884e-71
3.87731e-69
1.81496e-67
7.45747e-66
2.70897e-64
8.74574e-63
2.51898e-61
6.48685e-60
1.49553e-58
3.08758e-57
5.70259e-56
9.39926e-55
1.37669e-53
1.78033e-52
2.0143e-51
1.9691e-50
1.63505e-49
1.12659e-48
6.23508e-48
2.64646e-47
8.05079e-47
1.5825e-46
1.70259e-46
7.83575e-47
1.44619e-47
2.30874e-48
4.21874e-49
7.94939e-50
1.44321e-50
2.46273e-51
3.91588e-52
5.80334e-53
8.04935e-54
1.04989e-54
1.29225e-55
1.50302e-56
1.65058e-57
1.70713e-58
1.65681e-59
1.50251e-60
1.26746e-61
9.89748e-63
7.1168e-64
4.68332e-65
2.79993e-66
1.50708e-67
7.22107e-69
3.03568e-70
1.0988e-71
3.33864e-73
8.21583e-75
1.55033e-76
2.0412e-78
1.52544e-80
3.21378e-83
1.48026e-81
1.86283e-79
1.44987e-77
8.1075e-76
3.52425e-74
1.25054e-72
3.74511e-71
9.69706e-70
2.21042e-68
4.49735e-67
8.25448e-66
1.37785e-64
2.10477e-63
2.95653e-62
3.83346e-61
4.60276e-60
5.13263e-59
5.33161e-58
5.17641e-57
4.71573e-56
4.04954e-55
3.29472e-54
2.55305e-53
1.89299e-52
1.3475e-51
9.22747e-51
6.10116e-50
3.96991e-49
2.76929e-48
2.30237e-47
1.49583e-46
5.06505e-46
7.12227e-46
4.99017e-46
2.10146e-46
6.02997e-47
1.28059e-47
2.13069e-48
2.89265e-49
3.3002e-50
3.23215e-51
2.75882e-52
2.07416e-53
1.38366e-54
8.23063e-56
4.37986e-57
2.08869e-58
8.93191e-60
3.42374e-61
1.17453e-62
3.59561e-64
9.78318e-66
2.35274e-67
4.96499e-69
9.09494e-71
1.41894e-72
1.81786e-74
1.79003e-76
1.27996e-78
6.3141e-81
2.2358e-83
6.7978e-86
1.46628e-88
1.36236e-91
7.622e-90
7.60854e-87
3.28134e-84
1.02061e-81
2.74374e-79
5.44243e-77
7.6993e-75
7.73932e-73
5.88555e-71
3.67778e-69
1.95966e-67
9.07287e-66
3.69224e-64
1.3304e-62
4.26751e-61
1.22343e-59
3.14209e-58
7.24054e-57
1.49794e-55
2.78075e-54
4.62355e-53
6.8614e-52
9.03761e-51
1.04804e-49
1.05801e-48
9.15567e-48
6.64957e-47
3.93572e-46
1.82084e-45
6.19589e-45
1.41278e-44
1.85654e-44
1.10501e-44
2.51315e-45
5.03653e-46
1.163e-46
2.71066e-47
5.95417e-48
1.21229e-48
2.291e-49
4.04752e-50
6.72999e-51
1.05719e-51
1.57009e-52
2.20163e-53
2.90803e-54
3.60876e-55
4.19638e-56
4.5595e-57
4.61358e-58
4.32956e-59
3.74872e-60
2.97546e-61
2.14795e-62
1.39672e-63
8.08505e-65
4.10553e-66
1.79484e-67
6.58942e-69
1.96207e-70
4.49558e-72
7.24708e-74
6.79641e-76
1.9454e-78
4.92708e-77
5.42117e-75
3.61267e-73
1.71244e-71
6.27026e-70
1.86544e-68
4.66626e-67
1.00603e-65
1.90489e-64
3.21468e-63
4.89253e-62
6.77967e-61
8.62026e-60
1.0119e-58
1.10181e-57
1.11656e-56
1.05543e-55
9.31769e-55
7.68882e-54
5.93522e-53
4.29234e-52
2.91674e-51
1.87139e-50
1.14143e-49
6.66901e-49
3.75615e-48
2.04792e-47
1.09245e-46
6.05476e-46
4.03185e-45
2.15176e-44
5.79037e-44
6.57803e-44
3.90804e-44
1.45166e-44
3.78247e-45
7.45427e-46
1.17025e-46
1.51877e-47
1.6737e-48
1.59646e-49
1.33597e-50
9.90044e-52
6.53865e-53
3.86483e-54
2.04992e-55
9.76969e-57
4.18478e-58
1.60996e-59
5.55294e-61
1.71182e-62
4.69695e-64
1.14062e-65
2.43367e-67
4.51229e-69
7.13142e-71
9.26058e-73
9.24155e-75
6.75701e-77
3.48439e-79
1.31319e-81
4.24247e-84
9.75535e-87
9.6978e-90
4.80908e-88
4.49202e-85
1.82237e-82
5.35822e-80
1.35972e-77
2.59986e-75
3.62897e-73
3.59343e-71
2.69431e-69
1.66096e-67
8.73846e-66
3.99897e-64
1.61064e-62
5.75206e-61
1.8316e-59
5.22125e-58
1.33584e-56
3.07276e-55
6.36047e-54
1.18467e-52
1.98295e-51
2.9746e-50
3.98028e-49
4.71734e-48
4.90247e-47
4.40603e-46
3.35988e-45
2.1172e-44
1.06203e-43
4.01669e-43
1.05434e-42
1.67836e-42
1.29184e-42
3.72897e-43
9.70074e-44
2.86846e-44
8.27409e-45
2.21299e-45
5.47414e-46
1.26079e-46
2.72019e-47
5.51676e-48
1.05337e-48
1.8949e-49
3.21234e-50
5.13114e-51
7.71608e-52
1.09049e-52
1.44448e-53
1.78674e-54
2.0541e-55
2.18216e-56
2.12734e-57
1.88736e-58
1.5087e-59
1.07356e-60
6.69987e-62
3.59878e-63
1.62322e-64
5.94166e-66
1.67729e-67
3.35221e-69
3.97468e-71
1.57767e-73
2.44902e-72
2.31563e-70
1.29618e-68
5.10262e-67
1.54045e-65
3.75909e-64
7.68428e-63
1.35053e-61
2.08173e-60
2.85868e-59
3.54146e-58
3.99801e-57
4.14614e-56
3.97501e-55
3.54063e-54
2.94131e-53
2.28552e-52
1.66463e-51
1.13787e-50
7.30338e-50
4.40089e-49
2.48885e-48
1.32153e-47
6.60489e-47
3.12547e-46
1.41355e-45
6.17799e-45
2.64453e-44
1.15692e-43
6.05855e-43
2.62115e-42
5.52286e-42
5.08641e-42
2.57867e-42
8.49965e-43
2.0218e-43
3.71493e-44
5.52606e-45
6.88169e-46
7.34963e-47
6.84792e-48
5.63303e-49
4.12419e-50
2.70215e-51
1.58992e-52
8.41895e-54
4.01553e-55
1.725e-56
6.66778e-58
2.3144e-59
7.19049e-61
1.99108e-62
4.88584e-64
1.05463e-65
1.98029e-67
3.17203e-69
4.17705e-71
4.2234e-73
3.15314e-75
1.69589e-77
6.79077e-80
2.33234e-82
5.71617e-85
6.0761e-88
2.67263e-86
2.33997e-83
8.94024e-81
2.48237e-78
5.95437e-76
1.09969e-73
1.51744e-71
1.47925e-69
1.09303e-67
6.64418e-66
3.44948e-64
1.55936e-62
6.21144e-61
2.19687e-59
6.93814e-58
1.96472e-56
5.00191e-55
1.14704e-53
2.37207e-52
4.42501e-51
7.44095e-50
1.1256e-48
1.52592e-47
1.84273e-46
1.96489e-45
1.82728e-44
1.45699e-43
9.72816e-43
5.26128e-42
2.19673e-41
6.58277e-41
1.25704e-40
1.24464e-40
4.73928e-41
1.6325e-41
6.15562e-42
2.20451e-42
7.28922e-43
2.22945e-43
6.33768e-44
1.68251e-44
4.19121e-45
9.8389e-46
2.18357e-46
4.58895e-47
9.13247e-48
1.71856e-48
3.04985e-49
5.08488e-50
7.92633e-51
1.14845e-51
1.53613e-52
1.88187e-53
2.09263e-54
2.09041e-55
1.85324e-56
1.43694e-57
9.5678e-59
5.34178e-60
2.41961e-61
8.46607e-63
2.10866e-64
3.16819e-66
1.72584e-68
1.74504e-67
1.40582e-65
6.55594e-64
2.12633e-62
5.24769e-61
1.04e-59
1.71613e-58
2.42066e-57
2.97846e-56
3.2496e-55
3.18709e-54
2.84294e-53
2.32973e-52
1.76877e-51
1.25256e-50
8.31468e-50
5.19055e-49
3.05235e-48
1.69177e-47
8.83601e-47
4.34647e-46
2.01199e-45
8.75549e-45
3.57846e-44
1.37393e-43
4.97264e-43
1.71255e-42
5.71701e-42
1.9355e-41
7.7583e-41
2.68323e-40
4.38324e-40
3.29245e-40
1.43493e-40
4.22489e-41
9.22774e-42
1.58892e-42
2.24964e-43
2.6989e-44
2.80328e-45
2.55924e-46
2.07497e-47
1.50447e-48
9.79932e-50
5.75022e-51
3.04463e-52
1.45533e-53
6.27748e-55
2.44049e-56
8.53249e-58
2.6738e-59
7.47734e-61
1.85528e-62
4.05388e-64
7.71315e-66
1.25281e-67
1.67377e-69
1.71477e-71
1.30403e-73
7.29302e-76
3.09079e-78
1.12327e-80
2.93338e-83
3.3396e-86
1.30842e-84
1.07145e-81
3.85117e-79
1.01426e-76
2.30795e-74
4.1303e-72
5.64382e-70
5.4134e-68
3.94014e-66
2.3605e-64
1.2087e-62
5.39408e-61
2.12352e-59
7.43214e-58
2.326e-56
6.53672e-55
1.65418e-53
3.77707e-52
7.79227e-51
1.45338e-49
2.45021e-48
3.7286e-47
5.10676e-46
6.26388e-45
6.82892e-44
6.54564e-43
5.43337e-42
3.82463e-41
2.21691e-40
1.01448e-39
3.43943e-39
7.79204e-39
9.82845e-39
5.06829e-39
2.31711e-39
1.11808e-39
5.05803e-40
2.10516e-40
8.07191e-41
2.86981e-41
9.53852e-42
2.98615e-42
8.85447e-43
2.49543e-43
6.69505e-44
1.70961e-44
4.14634e-45
9.51341e-46
2.05336e-46
4.14064e-47
7.74093e-48
1.33066e-48
2.08502e-49
2.95045e-50
3.73214e-51
4.1709e-52
4.06083e-53
3.38458e-54
2.36009e-55
1.33376e-56
5.82642e-58
1.81911e-59
3.47203e-61
2.55986e-63
1.86126e-62
1.27137e-60
4.91918e-59
1.30998e-57
2.63514e-56
4.22988e-55
5.61863e-54
6.3391e-53
6.19628e-52
5.33136e-51
4.09204e-50
2.83477e-49
1.79143e-48
1.04304e-47
5.64724e-47
2.86694e-46
1.37414e-45
6.24829e-45
2.70168e-44
1.1107e-43
4.33257e-43
1.59851e-42
5.56002e-42
1.81811e-41
5.5784e-41
1.60482e-40
4.33845e-40
1.11461e-39
2.83964e-39
8.43516e-39
2.28632e-38
2.88599e-38
1.78295e-38
6.73638e-39
1.7847e-39
3.60183e-40
5.84395e-41
7.91308e-42
9.18408e-43
9.31146e-44
8.35604e-45
6.69621e-46
4.81976e-47
3.12751e-48
1.83358e-49
9.72306e-51
4.66401e-52
2.02236e-53
7.91556e-55
2.78998e-56
8.82523e-58
2.49426e-59
6.2618e-61
1.38587e-62
2.67332e-64
4.40523e-66
5.97407e-68
6.19948e-70
4.79353e-72
2.78092e-74
1.24662e-76
4.80661e-79
1.33515e-81
1.62386e-84
5.65233e-83
4.34578e-80
1.47483e-77
3.67387e-75
7.93772e-73
1.38077e-70
1.8713e-68
1.76505e-66
1.26485e-64
7.46457e-63
3.76776e-61
1.65893e-59
6.44999e-58
2.23218e-56
6.91683e-55
1.92726e-53
4.84273e-52
1.0997e-50
2.26016e-49
4.2079e-48
7.09795e-47
1.08398e-45
1.49567e-44
1.85731e-43
2.06259e-42
2.02931e-41
1.74546e-40
1.28841e-39
7.95372e-39
3.95856e-38
1.50383e-37
3.99257e-37
6.32824e-37
4.4792e-37
2.70749e-37
1.68512e-37
9.72461e-38
5.12393e-38
2.48154e-38
1.11881e-38
4.75189e-39
1.91848e-39
7.40903e-40
2.74742e-40
9.79104e-41
3.3448e-41
1.08901e-41
3.35194e-42
9.66425e-43
2.58593e-43
6.36489e-44
1.42901e-44
2.90245e-45
5.28794e-46
8.5615e-47
1.21861e-47
1.50499e-48
1.58611e-49
1.39539e-50
9.93783e-52
5.4733e-53
2.16168e-54
5.27759e-56
5.22491e-58
2.70057e-57
1.55234e-55
4.95096e-54
1.07632e-52
1.75555e-51
2.27136e-50
2.41753e-49
2.17183e-48
1.67877e-47
1.13347e-46
6.7682e-46
3.61305e-45
1.74157e-44
7.65483e-44
3.09925e-43
1.16826e-42
4.14498e-42
1.39832e-41
4.52028e-41
1.40558e-40
4.20074e-40
1.20102e-39
3.26288e-39
8.36694e-39
2.01492e-38
4.54499e-38
9.59731e-38
1.90237e-37
3.6294e-37
7.75787e-37
1.6048e-36
1.57137e-36
8.06932e-37
2.66808e-37
6.41157e-38
1.20383e-38
1.85129e-39
2.40963e-40
2.7175e-41
2.69965e-42
2.38922e-43
1.89777e-44
1.35933e-45
8.80578e-47
5.16726e-48
2.74838e-49
1.32471e-50
5.78066e-52
2.28005e-53
8.10867e-55
2.59105e-56
7.40612e-58
1.88246e-59
4.2225e-61
8.26221e-63