/*--------------------------------*- C++ -*----------------------------------*\
| =========                 |                                                 |
| \\      /  F ield         | OpenFOAM: The Open Source CFD Toolbox           |
|  \\    /   O peration     | Version:  2212                                  |
|   \\  /    A nd           | Website:  www.openfoam.com                      |
|    \\/     M anipulation  |                                                 |
\*---------------------------------------------------------------------------*/
FoamFile
{
    version     2.0;
    format      ascii;
    arch        "LSB;label=64;scalar=64";
    class       surfaceScalarField;
    location    "0.25";
    object      phi;
}
// * * * * * * * * * * * * * * * * * * * * * * * * * * * * * * * * * * * * * //

dimensions      [0 3 -1 0 0 0 0];

oriented        oriented;

internalField   nonuniform List<scalar> 
65152
(
-2.87141e-12
2.87141e-12
-7.61605e-12
4.74463e-12
-1.20066e-11
4.39058e-12
-1.55458e-11
3.53914e-12
-1.84539e-11
2.90812e-12
-2.10224e-11
2.56845e-12
-2.34297e-11
2.40735e-12
-2.57559e-11
2.32617e-12
-2.80287e-11
2.27281e-12
-3.02546e-11
2.22594e-12
-3.24333e-11
2.17866e-12
-3.45619e-11
2.12858e-12
-3.6637e-11
2.07508e-12
-3.8655e-11
2.018e-12
-4.06126e-11
1.95762e-12
-4.2506e-11
1.89343e-12
-4.43318e-11
1.8258e-12
-4.60865e-11
1.7547e-12
-4.77642e-11
1.67768e-12
-4.93635e-11
1.59924e-12
-5.08795e-11
1.51607e-12
-5.23094e-11
1.42992e-12
-5.36464e-11
1.33697e-12
-5.48869e-11
1.24052e-12
-5.60267e-11
1.13973e-12
-5.70627e-11
1.03609e-12
-5.79899e-11
9.27203e-13
-5.88035e-11
8.13601e-13
-5.94991e-11
6.95533e-13
-6.00718e-11
5.72762e-13
-6.0517e-11
4.45165e-13
-6.08263e-11
3.09282e-13
-6.09986e-11
1.72358e-13
-6.10307e-11
3.21074e-14
-6.0919e-11
-1.11766e-13
-6.06598e-11
-2.59208e-13
-6.0252e-11
-4.07769e-13
-5.96949e-11
-5.5703e-13
-5.89882e-11
-7.06755e-13
-5.81278e-11
-8.60408e-13
-5.71158e-11
-1.012e-12
-5.59525e-11
-1.16327e-12
-5.46384e-11
-1.31409e-12
-5.3174e-11
-1.46437e-12
-5.15608e-11
-1.61317e-12
-4.97979e-11
-1.76291e-12
-4.78905e-11
-1.90733e-12
-4.58409e-11
-2.04963e-12
-4.3652e-11
-2.18885e-12
-4.13298e-11
-2.32218e-12
-3.88779e-11
-2.45194e-12
-3.63031e-11
-2.57473e-12
-3.36113e-11
-2.69179e-12
-3.08082e-11
-2.80315e-12
-2.7903e-11
-2.90511e-12
-2.49038e-11
-2.99922e-12
-2.18187e-11
-3.08503e-12
-1.86571e-11
-3.16167e-12
-1.54288e-11
-3.22828e-12
-1.21438e-11
-3.28493e-12
-8.81245e-12
-3.33135e-12
-5.44524e-12
-3.36719e-12
-2.05459e-12
-3.39063e-12
1.34486e-12
-3.39944e-12
4.73809e-12
-3.3932e-12
8.11185e-12
-3.37374e-12
1.14554e-11
-3.34349e-12
1.4759e-11
-3.30364e-12
1.80135e-11
-3.25449e-12
2.12099e-11
-3.19632e-12
2.43388e-11
-3.12892e-12
2.73913e-11
-3.05243e-12
3.03586e-11
-2.96736e-12
3.32325e-11
-2.87389e-12
3.60049e-11
-2.77237e-12
3.86687e-11
-2.66377e-12
4.12175e-11
-2.54881e-12
4.36447e-11
-2.42715e-12
4.59446e-11
-2.29984e-12
4.81121e-11
-2.16753e-12
5.01428e-11
-2.03071e-12
5.20331e-11
-1.89026e-12
5.37797e-11
-1.74654e-12
5.53799e-11
-1.60016e-12
5.68316e-11
-1.45178e-12
5.81338e-11
-1.30211e-12
5.92855e-11
-1.15174e-12
6.02858e-11
-1.00025e-12
6.11341e-11
-8.48345e-13
6.18306e-11
-6.96443e-13
6.23753e-11
-5.44698e-13
6.27686e-11
-3.93311e-13
6.3011e-11
-2.4239e-13
6.31031e-11
-9.21087e-14
6.30469e-11
5.62129e-14
6.28455e-11
2.01478e-13
6.25037e-11
3.41835e-13
6.20271e-11
4.76606e-13
6.14211e-11
6.05962e-13
6.06911e-11
7.29984e-13
5.98402e-11
8.50936e-13
5.88752e-11
9.64982e-13
5.7801e-11
1.07424e-12
5.66215e-11
1.17953e-12
5.53408e-11
1.28069e-12
5.39634e-11
1.37744e-12
5.24916e-11
1.47178e-12
5.09314e-11
1.56017e-12
4.92863e-11
1.64515e-12
4.75604e-11
1.72589e-12
4.57577e-11
1.8027e-12
4.38805e-11
1.87723e-12
4.19333e-11
1.9472e-12
3.99198e-11
2.01342e-12
3.78444e-11
2.07543e-12
3.57087e-11
2.13572e-12
3.35175e-11
2.19123e-12
3.1274e-11
2.24345e-12
2.89811e-11
2.29286e-12
2.66394e-11
2.34177e-12
2.42422e-11
2.3972e-12
2.17613e-11
2.4809e-12
1.9116e-11
2.64531e-12
1.61252e-11
2.99075e-12
1.24897e-11
3.63551e-12
7.97546e-12
4.51424e-12
3.06162e-12
4.91384e-12
3.06162e-12
-2.60033e-12
5.47173e-12
-6.50066e-12
8.64497e-12
-9.28835e-12
7.17826e-12
-1.05985e-11
4.84925e-12
-1.09053e-11
3.21494e-12
-1.07027e-11
2.36584e-12
-1.02826e-11
1.98724e-12
-9.77887e-12
1.82247e-12
-9.24648e-12
1.74042e-12
-8.70591e-12
1.68536e-12
-8.16502e-12
1.63777e-12
-7.62819e-12
1.59175e-12
-7.09874e-12
1.54562e-12
-6.57952e-12
1.49878e-12
-6.07235e-12
1.45045e-12
-5.57972e-12
1.40079e-12
-5.10417e-12
1.35026e-12
-4.64741e-12
1.29794e-12
-4.2145e-12
1.24477e-12
-3.80257e-12
1.18731e-12
-3.41459e-12
1.12809e-12
-3.04882e-12
1.06414e-12
-2.71276e-12
1.00091e-12
-2.40515e-12
9.32908e-13
-2.12611e-12
8.60684e-13
-1.87289e-12
7.82875e-13
-1.6475e-12
7.01815e-13
-1.44975e-12
6.15852e-13
-1.27909e-12
5.24869e-13
-1.13476e-12
4.28441e-13
-1.01629e-12
3.26692e-13
-9.3022e-13
2.23217e-13
-8.69406e-13
1.11549e-13
-8.33452e-13
-3.84134e-15
-8.19799e-13
-1.25412e-13
-8.28517e-13
-2.50482e-13
-8.56911e-13
-3.79366e-13
-9.01138e-13
-5.12794e-13
-9.5779e-13
-6.50091e-13
-1.03137e-12
-7.86815e-13
-1.11353e-12
-9.29828e-13
-1.20011e-12
-1.07666e-12
-1.28863e-12
-1.22555e-12
-1.37698e-12
-1.37601e-12
-1.46258e-12
-1.52755e-12
-1.54914e-12
-1.67634e-12
-1.62899e-12
-1.82746e-12
-1.70046e-12
-1.97814e-12
-1.76491e-12
-2.12438e-12
-1.8179e-12
-2.26918e-12
-1.85956e-12
-2.41025e-12
-1.88808e-12
-2.5462e-12
-1.90311e-12
-2.67674e-12
-1.90768e-12
-2.79856e-12
-1.89777e-12
-2.915e-12
-1.87485e-12
-3.02211e-12
-1.8397e-12
-3.12017e-12
-1.79339e-12
-3.20796e-12
-1.73713e-12
-3.28452e-12
-1.67122e-12
-3.35082e-12
-1.59739e-12
-3.40516e-12
-1.51766e-12
-3.4469e-12
-1.43459e-12
-3.47369e-12
-1.3506e-12
-3.48341e-12
-1.26735e-12
-3.47643e-12
-1.1859e-12
-3.45517e-12
-1.10703e-12
-3.42234e-12
-1.03213e-12
-3.37852e-12
-9.61893e-13
-3.32471e-12
-8.97131e-13
-3.26106e-12
-8.384e-13
-3.18763e-12
-7.86305e-13
-3.1045e-12
-7.41193e-13
-3.01245e-12
-7.026e-13
-2.91246e-12
-6.71219e-13
-2.80373e-12
-6.47028e-13
-2.68794e-12
-6.30132e-13
-2.56569e-12
-6.18825e-13
-2.43844e-12
-6.1287e-13
-2.30578e-12
-6.11607e-13
-2.16878e-12
-6.14065e-13
-2.02823e-12
-6.18329e-13
-1.88598e-12
-6.23737e-13
-1.74112e-12
-6.28502e-13
-1.59538e-12
-6.31251e-13
-1.44901e-12
-6.30044e-13
-1.30329e-12
-6.23279e-13
-1.15849e-12
-6.09186e-13
-1.01433e-12
-5.85857e-13
-8.71659e-13
-5.51736e-13
-7.30548e-13
-5.04717e-13
-5.91702e-13
-4.42885e-13
-4.55128e-13
-3.63909e-13
-3.21352e-13
-2.64974e-13
-1.91029e-13
-1.43497e-13
-6.52505e-14
-8.81559e-16
5.88769e-14
1.65556e-13
1.75411e-13
3.56603e-13
2.85573e-13
5.7142e-13
3.91158e-13
8.11579e-13
4.89838e-13
1.07961e-12
5.82922e-13
1.37307e-12
6.71533e-13
1.69148e-12
7.55835e-13
2.03559e-12
8.35439e-13
2.40491e-12
9.11381e-13
2.79808e-12
9.84281e-13
3.21777e-12
1.0521e-12
3.65936e-12
1.11858e-12
4.12254e-12
1.18198e-12
4.60518e-12
1.24326e-12
5.10527e-12
1.30262e-12
5.62394e-12
1.35857e-12
6.15708e-12
1.41406e-12
6.70218e-12
1.46833e-12
7.25582e-12
1.52178e-12
7.81844e-12
1.5731e-12
8.38481e-12
1.62487e-12
8.95242e-12
1.67584e-12
9.51743e-12
1.72785e-12
1.00712e-11
1.78803e-12
1.05941e-11
1.87428e-12
1.10313e-11
2.04372e-12
1.12468e-11
2.42978e-12
1.09451e-11
3.29239e-12
9.62216e-12
4.9585e-12
6.78413e-12
7.35226e-12
2.76738e-12
8.93059e-12
5.82901e-12
-2.30459e-12
7.77632e-12
-5.26741e-12
1.16078e-11
-6.8031e-12
8.71395e-12
-6.74903e-12
4.79517e-12
-5.66071e-12
2.12661e-12
-4.05527e-12
7.60401e-13
-2.23763e-12
1.69601e-13
-3.50633e-13
-6.45317e-14
1.55011e-12
-1.60325e-13
3.44207e-12
-2.06599e-13
5.31395e-12
-2.34126e-13
7.1586e-12
-2.52899e-13
8.97015e-12
-2.65929e-13
1.07432e-11
-2.74244e-13
1.2472e-11
-2.78391e-13
1.41515e-11
-2.78743e-13
1.57774e-11
-2.75648e-13
1.73449e-11
-2.69543e-13
1.88506e-11
-2.60913e-13
2.02884e-11
-2.50462e-13
2.1655e-11
-2.38588e-13
2.2945e-11
-2.25772e-13
2.41581e-11
-2.12182e-13
2.52897e-11
-1.98705e-13
2.63363e-11
-1.85988e-13
2.72938e-11
-1.7458e-13
2.81604e-11
-1.6475e-13
2.89332e-11
-1.56955e-13
2.96096e-11
-1.51587e-13
3.0187e-11
-1.48949e-13
3.0663e-11
-1.49242e-13
3.10392e-11
-1.53053e-13
3.1311e-11
-1.60183e-13
3.14784e-11
-1.71264e-13
3.15403e-11
-1.87324e-13
3.14978e-11
-2.08007e-13
3.13521e-11
-2.3366e-13
3.11038e-11
-2.64409e-13
3.07531e-11
-2.9939e-13
3.03078e-11
-3.41491e-13
2.9766e-11
-3.88007e-13
2.91271e-11
-4.37834e-13
2.83976e-11
-4.96001e-13
2.75785e-11
-5.56867e-13
2.6672e-11
-6.21055e-13
2.56847e-11
-6.89008e-13
2.46171e-11
-7.59889e-13
2.34724e-11
-8.33342e-13
2.22565e-11
-9.08479e-13
2.0969e-11
-9.81641e-13
1.96189e-11
-1.06015e-12
1.8206e-11
-1.13335e-12
1.67377e-11
-1.20843e-12
1.52186e-11
-1.27938e-12
1.36482e-11
-1.3446e-12
1.20371e-11
-1.41099e-12
1.03867e-11
-1.46975e-12
8.70161e-12
-1.52284e-12
6.98635e-12
-1.56924e-12
5.24371e-12
-1.60817e-12
3.48063e-12
-1.64206e-12
1.70041e-12
-1.66666e-12
-9.03554e-14
-1.6829e-12
-1.88508e-12
-1.68866e-12
-3.67642e-12
-1.68507e-12
-5.45767e-12
-1.6739e-12
-7.22331e-12
-1.65668e-12
-8.9677e-12
-1.63411e-12
-1.0686e-11
-1.60638e-12
-1.23735e-11
-1.57359e-12
-1.40252e-11
-1.53588e-12
-1.56361e-11
-1.49352e-12
-1.72017e-11
-1.44688e-12
-1.87178e-11
-1.39634e-12
-2.01795e-11
-1.34202e-12
-2.1583e-11
-1.28441e-12
-2.29222e-11
-1.22649e-12
-2.4194e-11
-1.16658e-12
-2.53947e-11
-1.1051e-12
-2.65204e-11
-1.04305e-12
-2.75675e-11
-9.81037e-13
-2.8534e-11
-9.19526e-13
-2.94171e-11
-8.5799e-13
-3.02119e-11
-8.00543e-13
-3.0917e-11
-7.43928e-13
-3.15309e-11
-6.8937e-13
-3.20514e-11
-6.37977e-13
-3.24772e-11
-5.8849e-13
-3.28057e-11
-5.43119e-13
-3.30363e-11
-4.99995e-13
-3.31679e-11
-4.59996e-13
-3.31994e-11
-4.23675e-13
-3.313e-11
-3.90749e-13
-3.29592e-11
-3.61769e-13
-3.26876e-11
-3.36814e-13
-3.2312e-11
-3.16768e-13
-3.18354e-11
-3.01128e-13
-3.12601e-11
-2.89756e-13
-3.05867e-11
-2.82234e-13
-2.98185e-11
-2.78348e-13
-2.89579e-11
-2.77612e-13
-2.8007e-11
-2.79416e-13
-2.69679e-11
-2.8324e-13
-2.58438e-11
-2.88579e-13
-2.46376e-11
-2.94826e-13
-2.33519e-11
-3.01448e-13
-2.19917e-11
-3.08031e-13
-2.05594e-11
-3.13799e-13
-1.9059e-11
-3.18317e-13
-1.74947e-11
-3.21079e-13
-1.58704e-11
-3.21672e-13
-1.41921e-11
-3.19726e-13
-1.24634e-11
-3.14605e-13
-1.06892e-11
-3.05916e-13
-8.87402e-12
-2.93385e-13
-7.0242e-12
-2.76722e-13
-5.14394e-12
-2.55386e-13
-3.23958e-12
-2.28521e-13
-1.31853e-12
-1.93206e-13
6.08913e-13
-1.39409e-13
2.51937e-12
-3.61752e-14
4.35623e-12
2.06854e-13
5.97763e-12
8.08383e-13
7.07499e-12
2.19503e-12
7.12107e-12
4.91243e-12
5.54037e-12
8.93296e-12
2.46829e-12
1.20027e-11
8.2973e-12
-2.28328e-12
1.00596e-11
-5.07884e-12
1.44033e-11
-6.33036e-12
9.96546e-12
-5.94981e-12
4.41462e-12
-4.52532e-12
7.02115e-13
-2.57355e-12
-1.19137e-12
-4.14651e-13
-1.9893e-12
1.81419e-12
-2.29338e-12
4.05424e-12
-2.40038e-12
6.28135e-12
-2.43371e-12
8.48379e-12
-2.43656e-12
1.06536e-11
-2.42276e-12
1.27843e-11
-2.39658e-12
1.48696e-11
-2.35952e-12
1.69035e-11
-2.31232e-12
1.88804e-11
-2.2556e-12
2.07947e-11
-2.18995e-12
2.26411e-11
-2.116e-12
2.44146e-11
-2.03442e-12
2.61101e-11
-1.94596e-12
2.77228e-11
-1.85131e-12
2.92482e-11
-1.75119e-12
3.06824e-11
-1.64633e-12
3.20212e-11
-1.53752e-12
3.32608e-11
-1.42557e-12
3.43974e-11
-1.31122e-12
3.54279e-11
-1.19519e-12
3.63491e-11
-1.07816e-12
3.71583e-11
-9.60773e-13
3.78529e-11
-8.43634e-13
3.8431e-11
-7.27305e-13
3.88903e-11
-6.12343e-13
3.92293e-11
-4.99214e-13
3.94476e-11
-3.89475e-13
3.9544e-11
-2.83746e-13
3.95182e-11
-1.82183e-13
3.93702e-11
-8.5653e-14
3.91002e-11
5.54919e-15
3.87098e-11
9.10651e-14
3.81982e-11
1.70078e-13
3.75676e-11
2.4258e-13
3.68214e-11
3.08408e-13
3.59583e-11
3.6715e-13
3.49823e-11
4.19155e-13
3.38967e-11
4.64534e-13
3.27043e-11
5.03372e-13
3.14086e-11
5.35871e-13
3.00129e-11
5.62354e-13
2.85212e-11
5.83251e-13
2.69405e-11
5.99071e-13
2.52705e-11
6.09904e-13
2.35204e-11
6.1677e-13
2.1692e-11
6.19937e-13
1.97923e-11
6.203e-13
1.78293e-11
6.18458e-13
1.58037e-11
6.14628e-13
1.37241e-11
6.09905e-13
1.15964e-11
6.0486e-13
9.42709e-12
6.00057e-13
7.22299e-12
5.95953e-13
4.98826e-12
5.92685e-13
2.73105e-12
5.90569e-13
4.57932e-13
5.90239e-13
-1.821e-12
5.90284e-13
-4.09641e-12
5.90364e-13
-6.35959e-12
5.89293e-13
-8.60256e-12
5.86317e-13
-1.0818e-11
5.81352e-13
-1.2999e-11
5.74594e-13
-1.51387e-11
5.66163e-13
-1.72306e-11
5.56042e-13
-1.92682e-11
5.44098e-13
-2.12452e-11
5.30145e-13
-2.31555e-11
5.13977e-13
-2.49929e-11
4.9536e-13
-2.67512e-11
4.73987e-13
-2.84271e-11
4.49436e-13
-3.00153e-11
4.2159e-13
-3.15106e-11
3.90266e-13
-3.29089e-11
3.55224e-13
-3.42062e-11
3.16247e-13
-3.53988e-11
2.73174e-13
-3.64827e-11
2.25866e-13
-3.74573e-11
1.74059e-13
-3.83191e-11
1.1789e-13
-3.90658e-11
5.73497e-14
-3.9696e-11
-7.68526e-15
-4.02064e-11
-7.81235e-14
-4.05973e-11
-1.52215e-13
-4.08705e-11
-2.26713e-13
-4.10236e-11
-3.06878e-13
-4.10567e-11
-3.90578e-13
-4.09697e-11
-4.77757e-13
-4.07632e-11
-5.68289e-13
-4.04372e-11
-6.62811e-13
-3.99927e-11
-7.6122e-13
-3.94313e-11
-8.62533e-13
-3.87546e-11
-9.66441e-13
-3.79644e-11
-1.07234e-12
-3.70632e-11
-1.17953e-12
-3.60535e-11
-1.28729e-12
-3.49382e-11
-1.3948e-12
-3.37201e-11
-1.50126e-12
-3.24028e-11
-1.60585e-12
-3.09899e-11
-1.70775e-12
-2.94852e-11
-1.80616e-12
-2.78929e-11
-1.90031e-12
-2.62173e-11
-1.98939e-12
-2.44629e-11
-2.07267e-12
-2.26346e-11
-2.14944e-12
-2.07372e-11
-2.21902e-12
-1.87761e-11
-2.28079e-12
-1.67566e-11
-2.3341e-12
-1.46841e-11
-2.37841e-12
-1.25643e-11
-2.41319e-12
-1.04031e-11
-2.43795e-12
-8.20645e-12
-2.45202e-12
-5.98093e-12
-2.45404e-12
-3.73436e-12
-2.43977e-12
-1.47846e-12
-2.39531e-12
7.6238e-13
-2.27701e-12
2.93052e-12
-1.96128e-12
4.8848e-12
-1.1459e-12
6.31138e-12
7.68456e-13
6.67334e-12
4.55047e-12
5.363e-12
1.02433e-11
2.451e-12
1.49147e-11
1.07483e-11
-2.3712e-12
1.24308e-11
-5.24759e-12
1.72797e-11
-6.51669e-12
1.12346e-11
-6.08726e-12
3.98519e-12
-4.56418e-12
-8.20969e-13
-2.52199e-12
-3.23356e-12
-2.63029e-13
-4.24827e-12
2.06501e-12
-4.62142e-12
4.40421e-12
-4.73958e-12
6.72956e-12
-4.75907e-12
9.02864e-12
-4.73564e-12
1.12931e-11
-4.68726e-12
1.35161e-11
-4.61954e-12
1.5691e-11
-4.53448e-12
1.78118e-11
-4.43309e-12
1.98724e-11
-4.3162e-12
2.18671e-11
-4.18461e-12
2.37902e-11
-4.03916e-12
2.56365e-11
-3.88074e-12
2.74009e-11
-3.71028e-12
2.90783e-11
-3.52872e-12
3.06641e-11
-3.33704e-12
3.2154e-11
-3.13624e-12
3.35439e-11
-2.92734e-12
3.48297e-11
-2.71138e-12
3.60078e-11
-2.4894e-12
3.70751e-11
-2.2624e-12
3.80283e-11
-2.0314e-12
3.88649e-11
-1.79737e-12
3.95825e-11
-1.56128e-12
4.01793e-11
-1.32404e-12
4.06535e-11
-1.08655e-12
4.10039e-11
-8.49646e-13
4.1229e-11
-6.14578e-13
4.13291e-11
-3.83829e-13
4.13032e-11
-1.5625e-13
4.11509e-11
6.66256e-14
4.08725e-11
2.83991e-13
4.04686e-11
4.95005e-13
3.99397e-11
6.98899e-13
3.92874e-11
8.94973e-13
3.85132e-11
1.08262e-12
3.7619e-11
1.26133e-12
3.66074e-11
1.43075e-12
3.54813e-11
1.59063e-12
3.4244e-11
1.74077e-12
3.28988e-11
1.88106e-12
3.14496e-11
2.0115e-12
2.99008e-11
2.13215e-12
2.82567e-11
2.24312e-12
2.6522e-11
2.34462e-12
2.47019e-11
2.43691e-12
2.28015e-11
2.52034e-12
2.08265e-11
2.59529e-12
1.87829e-11
2.66215e-12
1.66761e-11
2.72135e-12
1.45127e-11
2.77337e-12
1.22989e-11
2.81869e-12
1.00412e-11
2.85774e-12
7.74632e-12
2.89087e-12
5.42078e-12
2.91824e-12
3.07174e-12
2.93963e-12
7.08171e-13
2.95382e-12
-1.66236e-12
2.96084e-12
-4.03063e-12
2.95865e-12
-6.38758e-12
2.94627e-12
-8.72471e-12
2.92346e-12
-1.1034e-11
2.89066e-12
-1.33079e-11
2.84847e-12
-1.5539e-11
2.79732e-12
-1.77204e-11
2.73743e-12
-1.98451e-11
2.66889e-12
-2.19067e-11
2.59175e-12
-2.38988e-11
2.50604e-12
-2.58152e-11
2.41179e-12
-2.76502e-11
2.30902e-12
-2.93985e-11
2.19777e-12
-3.1055e-11
2.07811e-12
-3.26149e-11
1.95018e-12
-3.40738e-11
1.81411e-12
-3.54276e-11
1.67005e-12
-3.66726e-11
1.51819e-12
-3.78055e-11
1.35878e-12
-3.88235e-11
1.19208e-12
-3.9724e-11
1.01843e-12
-4.05048e-11
8.38217e-13
-4.11644e-11
6.51867e-13
-4.17023e-11
4.59867e-13
-4.21176e-11
2.63027e-13
-4.24063e-11
6.20489e-14
-4.25698e-11
-1.4336e-13
-4.26092e-11
-3.51178e-13
-4.25247e-11
-5.6227e-13
-4.23168e-11
-7.76152e-13
-4.19856e-11
-9.93977e-13
-4.15323e-11
-1.21455e-12
-4.09579e-11
-1.43691e-12
-4.02639e-11
-1.66044e-12
-3.9452e-11
-1.88416e-12
-3.85245e-11
-2.107e-12
-3.7484e-11
-2.32785e-12
-3.63331e-11
-2.54561e-12
-3.50752e-11
-2.75914e-12
-3.37137e-11
-2.96734e-12
-3.22524e-11
-3.16911e-12
-3.06951e-11
-3.36337e-12
-2.90463e-11
-3.54909e-12
-2.73105e-11
-3.72523e-12
-2.54923e-11
-3.89082e-12
-2.35968e-11
-4.04493e-12
-2.16292e-11
-4.18666e-12
-1.95948e-11
-4.31517e-12
-1.74992e-11
-4.42967e-12
-1.53482e-11
-4.52943e-12
-1.31476e-11
-4.61374e-12
-1.09036e-11
-4.68194e-12
-8.62253e-12
-4.73313e-12
-6.31109e-12
-4.76548e-12
-3.97738e-12
-4.77348e-12
-1.63353e-12
-4.73917e-12
6.9598e-13
-4.60652e-12
2.95051e-12
-4.21581e-12
4.98524e-12
-3.18063e-12
6.48475e-12
-7.31059e-13
6.88026e-12
4.15496e-12
5.54585e-12
1.15777e-11
2.54299e-12
1.79175e-11
1.32913e-11
-2.48712e-12
1.49179e-11
-5.5049e-12
2.02975e-11
-6.84515e-12
1.25748e-11
-6.41228e-12
3.55232e-12
-4.84861e-12
-2.38465e-12
-2.73226e-12
-5.34992e-12
-3.9221e-13
-6.58832e-12
2.02155e-12
-7.03519e-12
4.44543e-12
-7.16346e-12
6.85374e-12
-7.16738e-12
9.23371e-12
-7.11562e-12
1.15768e-11
-7.03038e-12
1.38759e-11
-6.91865e-12
1.61244e-11
-6.7829e-12
1.83157e-11
-6.62443e-12
2.04438e-11
-6.44426e-12
2.25026e-11
-6.24342e-12
2.44864e-11
-6.02297e-12
2.63897e-11
-5.78402e-12
2.82071e-11
-5.52773e-12
2.99337e-11
-5.2553e-12
3.15646e-11
-4.96797e-12
3.30954e-11
-4.66701e-12
3.45218e-11
-4.35374e-12
3.58399e-11
-4.02947e-12
3.7046e-11
-3.69555e-12
3.81369e-11
-3.3533e-12
3.91096e-11
-3.00408e-12
3.99614e-11
-2.64921e-12
4.06902e-11
-2.29001e-12
4.12939e-11
-1.92778e-12
4.17712e-11
-1.5638e-12
4.21207e-11
-1.1992e-12
4.23416e-11
-8.35464e-13
4.24336e-11
-4.75863e-13
4.23965e-11
-1.19075e-13
4.22299e-11
2.33187e-13
4.19343e-11
5.79591e-13
4.15103e-11
9.19019e-13
4.09589e-11
1.25032e-12
4.02815e-11
1.57235e-12
3.94801e-11
1.88409e-12
3.85568e-11
2.18461e-12
3.75144e-11
2.47317e-12
3.63559e-11
2.74911e-12
3.50848e-11
3.01191e-12
3.37047e-11
3.26113e-12
3.22198e-11
3.49644e-12
3.06344e-11
3.71758e-12
2.89531e-11
3.9244e-12
2.71809e-11
4.11683e-12
2.5323e-11
4.29487e-12
2.33847e-11
4.45862e-12
2.13718e-11
4.60822e-12
1.92901e-11
4.74388e-12
1.71456e-11
4.86586e-12
1.49445e-11
4.97445e-12
1.26933e-11
5.06997e-12
1.03983e-11
5.15271e-12
8.06634e-12
5.22285e-12
5.70429e-12
5.2803e-12
3.31944e-12
5.3245e-12
9.18593e-13
5.35469e-12
-1.48905e-12
5.3685e-12
-3.89491e-12
5.36452e-12
-6.29027e-12
5.34164e-12
-8.66655e-12
5.29977e-12
-1.10156e-11
5.23971e-12
-1.33296e-11
5.1625e-12
-1.56012e-11
5.06892e-12
-1.78232e-11
4.95947e-12
-1.99888e-11
4.83448e-12
-2.20912e-11
4.69423e-12
-2.41242e-11
4.53901e-12
-2.60815e-11
4.36912e-12
-2.79573e-11
4.18488e-12
-2.97462e-11
3.98664e-12
-3.14428e-11
3.7748e-12
-3.30424e-11
3.54979e-12
-3.45404e-11
3.31207e-12
-3.59325e-11
3.06217e-12
-3.72149e-11
2.80064e-12
-3.83842e-11
2.52807e-12
-3.94372e-11
2.24512e-12
-4.03713e-11
1.95251e-12
-4.1184e-11
1.651e-12
-4.18736e-11
1.34143e-12
-4.24384e-11
1.0247e-12
-4.28772e-11
7.01824e-13
-4.31889e-11
3.73751e-13
-4.33734e-11
4.12168e-14
-4.34298e-11
-2.94778e-13
-4.33588e-11
-6.33282e-13
-4.31604e-11
-9.74485e-13
-4.28355e-11
-1.3189e-12
-4.23845e-11
-1.66556e-12
-4.18085e-11
-2.01289e-12
-4.11089e-11
-2.35996e-12
-4.02877e-11
-2.70544e-12
-3.93468e-11
-3.04786e-12
-3.82889e-11
-3.38576e-12
-3.71168e-11
-3.71768e-12
-3.58337e-11
-4.04217e-12
-3.44432e-11
-4.35781e-12
-3.29491e-11
-4.6632e-12
-3.13555e-11
-4.95698e-12
-2.96668e-11
-5.23783e-12
-2.78875e-11
-5.50447e-12
-2.60226e-11
-5.75568e-12
-2.40773e-11
-5.99027e-12
-2.20568e-11
-6.20713e-12
-1.99667e-11
-6.40521e-12
-1.78129e-11
-6.58353e-12
-1.56011e-11
-6.74114e-12
-1.33377e-11
-6.8772e-12
-1.10288e-11
-6.99082e-12
-8.68105e-12
-7.08088e-12
-6.30145e-12
-7.14508e-12
-3.8984e-12
-7.17652e-12
-1.48467e-12
-7.1529e-12
9.13812e-13
-7.00499e-12
3.23677e-12
-6.53876e-12
5.32892e-12
-5.27277e-12
6.85963e-12
-2.26176e-12
7.24184e-12
3.77276e-12
5.81986e-12
1.29997e-11
2.66479e-12
2.10726e-11
1.59561e-11
-2.62319e-12
1.75411e-11
-5.80923e-12
2.34835e-11
-7.23423e-12
1.39998e-11
-6.81267e-12
3.13076e-12
-5.18843e-12
-4.00889e-12
-2.9812e-12
-7.55716e-12
-5.37012e-13
-9.03251e-12
1.98313e-12
-9.55534e-12
4.51385e-12
-9.69418e-12
7.02759e-12
-9.68113e-12
9.51076e-12
-9.59879e-12
1.19544e-11
-9.47402e-12
1.4351e-11
-9.31525e-12
1.66936e-11
-9.12552e-12
1.89756e-11
-8.90639e-12
2.11904e-11
-8.65913e-12
2.3332e-11
-8.38498e-12
2.53942e-11
-8.08523e-12
2.73715e-11
-7.76124e-12
2.92581e-11
-7.41441e-12
3.10491e-11
-7.04624e-12
3.27394e-11
-6.65823e-12
3.43243e-11
-6.25197e-12
3.57996e-11
-5.82907e-12
3.71613e-11
-5.39115e-12
3.84057e-11
-4.9399e-12
3.95294e-11
-4.47699e-12
4.05294e-11
-4.00412e-12
4.14032e-11
-3.52299e-12
4.21485e-11
-3.03528e-12
4.27634e-11
-2.54269e-12
4.32465e-11
-2.04687e-12
4.35966e-11
-1.54934e-12
4.38124e-11
-1.05124e-12
4.38949e-11
-5.58408e-13
4.38436e-11
-6.77001e-14
4.36585e-11
4.18278e-13
4.33402e-11
8.97841e-13
4.28897e-11
1.36953e-12
4.23082e-11
1.83183e-12
4.15974e-11
2.28316e-12
4.07595e-11
2.72205e-12
3.97969e-11
3.14718e-12
3.87127e-11
3.55736e-12
3.75103e-11
3.95158e-12
3.61932e-11
4.32896e-12
3.47656e-11
4.68874e-12
3.32318e-11
5.03028e-12
3.15964e-11
5.35303e-12
2.98642e-11
5.65657e-12
2.80405e-11
5.94057e-12
2.61306e-11
6.2048e-12
2.41401e-11
6.44915e-12
2.20747e-11
6.67356e-12
1.99406e-11
6.87806e-12
1.77437e-11
7.06278e-12
1.54903e-11
7.22785e-12
1.31868e-11
7.37347e-12
1.08397e-11
7.49982e-12
8.45564e-12
7.60694e-12
6.0414e-12
7.69455e-12
3.60407e-12
7.76184e-12
1.15133e-12
7.80744e-12
-1.30873e-12
7.82858e-12
-3.76751e-12
7.82331e-12
-6.2162e-12
7.79035e-12
-8.64616e-12
7.72973e-12
-1.10491e-11
7.64265e-12
-1.34171e-11
7.53058e-12
-1.57429e-11
7.39467e-12
-1.80191e-11
7.23571e-12
-2.02389e-11
7.05427e-12
-2.23955e-11
6.85087e-12
-2.44825e-11
6.62604e-12
-2.64937e-11
6.38032e-12
-2.84231e-11
6.11432e-12
-3.02651e-11
5.82866e-12
-3.20143e-11
5.52404e-12
-3.36657e-11
5.2012e-12
-3.52146e-11
4.86092e-12
-3.66564e-11
4.50404e-12
-3.79872e-11
4.13147e-12
-3.92033e-11
3.74416e-12
-4.03013e-11
3.34311e-12
-4.12782e-11
2.92942e-12
-4.21314e-11
2.5042e-12
-4.28586e-11
2.0687e-12
-4.34581e-11
1.6242e-12
-4.39283e-11
1.17208e-12
-4.42682e-11
7.13661e-13
-4.44771e-11
2.50146e-13
-4.45535e-11
-2.18407e-13
-4.44986e-11
-6.88172e-13
-4.43118e-11
-1.16125e-12
-4.39931e-11
-1.63762e-12
-4.35432e-11
-2.11547e-12
-4.29631e-11
-2.5929e-12
-4.22544e-11
-3.06863e-12
-4.14189e-11
-3.54093e-12
-4.04588e-11
-4.00798e-12
-3.93766e-11
-4.46794e-12
-3.81753e-11
-4.91898e-12
-3.68581e-11
-5.35932e-12
-3.54287e-11
-5.78721e-12
-3.3891e-11
-6.20094e-12
-3.22491e-11
-6.59883e-12
-3.05076e-11
-6.97929e-12
-2.86714e-11
-7.34074e-12
-2.67453e-11
-7.6817e-12
-2.47349e-11
-8.00073e-12
-2.26455e-11
-8.29649e-12
-2.0483e-11
-8.56769e-12
-1.82534e-11
-8.81313e-12
-1.59629e-11
-9.03169e-12
-1.36177e-11
-9.22231e-12
-1.12246e-11
-9.38394e-12
-8.79029e-12
-9.5152e-12
-6.3221e-12
-9.61327e-12
-3.8288e-12
-9.66981e-12
-1.32375e-12
-9.65795e-12
1.16572e-12
-9.49445e-12
3.5719e-12
-8.94494e-12
5.73643e-12
-7.4373e-12
7.30748e-12
-3.8328e-12
7.67112e-12
3.40913e-12
6.14541e-12
1.45254e-11
2.80815e-12
2.44099e-11
1.87642e-11
-2.78379e-12
2.03249e-11
-6.16717e-12
2.68669e-11
-7.69518e-12
1.55278e-11
-7.25136e-12
2.68694e-12
-5.55443e-12
-5.70582e-12
-3.23549e-12
-9.87611e-12
-6.62902e-13
-1.16051e-11
1.99233e-12
-1.22106e-11
4.65874e-12
-1.23606e-11
7.30663e-12
-1.2329e-11
9.92136e-12
-1.22135e-11
1.24934e-11
-1.2046e-11
1.50147e-11
-1.18366e-11
1.74781e-11
-1.15889e-11
1.98765e-11
-1.13048e-11
2.22031e-11
-1.09858e-11
2.44515e-11
-1.06334e-11
2.66154e-11
-1.02491e-11
2.86886e-11
-9.83453e-12
3.06657e-11
-9.39143e-12
3.2541e-11
-8.92154e-12
3.43094e-11
-8.42669e-12
3.59662e-11
-7.90878e-12
3.75069e-11
-7.36973e-12
3.89273e-11
-6.81154e-12
4.02236e-11
-6.23623e-12
4.13925e-11
-5.64585e-12
4.24308e-11
-5.04247e-12
4.3336e-11
-4.42818e-12
4.41058e-11
-3.80506e-12
4.47383e-11
-3.17522e-12
4.52321e-11
-2.54069e-12
4.55861e-11
-1.90335e-12
4.57999e-11
-1.26498e-12
4.58731e-11
-6.3168e-13
4.58064e-11
-9.04489e-16
4.56e-11
6.24664e-13
4.52548e-11
1.24299e-12
4.47721e-11
1.85225e-12
4.41534e-11
2.45056e-12
4.34006e-11
3.03594e-12
4.25162e-11
3.60646e-12
4.15031e-11
4.16033e-12
4.03645e-11
4.69596e-12
3.91041e-11
5.21195e-12
3.77261e-11
5.70706e-12
3.62346e-11
6.1802e-12
3.46345e-11
6.63044e-12
3.29305e-11
7.05695e-12
3.11281e-11
7.45905e-12
2.92325e-11
7.83619e-12
2.72493e-11
8.18792e-12
2.51846e-11
8.51393e-12
2.30441e-11
8.81402e-12
2.08341e-11
9.08808e-12
1.85608e-11
9.3361e-12
1.62305e-11
9.55814e-12
1.38497e-11
9.7543e-12
1.14249e-11
9.92468e-12
8.9626e-12
1.00692e-11
6.46971e-12
1.01875e-11
3.95336e-12
1.02782e-11
1.42118e-12
1.03396e-11
-1.11869e-12
1.03685e-11
-3.65744e-12
1.03621e-11
-6.18612e-12
1.03191e-11
-8.69592e-12
1.02395e-11
-1.11784e-11
1.01251e-11
-1.36256e-11
9.97777e-12
-1.60299e-11
9.79904e-12
-1.83842e-11
9.59e-12
-2.06814e-11
9.35149e-12
-2.29147e-11
9.08422e-12
-2.50776e-11
8.78895e-12
-2.71638e-11
8.46647e-12
-2.9167e-11
8.11761e-12
-3.10816e-11
7.74327e-12
-3.2902e-11
7.3444e-12
-3.46228e-11
6.92205e-12
-3.62392e-11
6.47729e-12
-3.77464e-11
6.01128e-12
-3.91401e-11
5.52524e-12
-4.04164e-11
5.02047e-12
-4.15716e-11
4.49832e-12
-4.26024e-11
3.96023e-12
-4.35059e-11
3.4077e-12
-4.42795e-11
2.84235e-12
-4.49212e-11
2.26587e-12
-4.54291e-11
1.68002e-12
-4.58019e-11
1.08648e-12
-4.60385e-11
4.86771e-13
-4.6138e-11
-1.18931e-13
-4.60997e-11
-7.26449e-13
-4.5924e-11
-1.33692e-12
-4.56094e-11
-1.9522e-12
-4.51573e-11
-2.56759e-12
-4.45686e-11
-3.18156e-12
-4.38448e-11
-3.7924e-12
-4.29878e-11
-4.39796e-12
-4.19997e-11
-4.99602e-12
-4.08833e-11
-5.58434e-12
-3.96415e-11
-6.16075e-12
-3.82777e-11
-6.7231e-12
-3.67957e-11
-7.26928e-12
-3.51993e-11
-7.79724e-12
-3.34932e-11
-8.305e-12
-3.16818e-11
-8.79063e-12
-2.97703e-11
-9.25227e-12
-2.77638e-11
-9.68816e-12
-2.56679e-11
-1.00966e-11
-2.34885e-11
-1.04759e-11
-2.12315e-11
-1.08247e-11
-1.89032e-11
-1.11414e-11
-1.65101e-11
-1.14248e-11
-1.40589e-11
-1.16735e-11
-1.15565e-11
-1.18864e-11
-9.00995e-12
-1.20617e-11
-6.42708e-12
-1.21961e-11
-3.8172e-12
-1.22797e-11
-1.19466e-12
-1.22805e-11
1.41111e-12
-1.21002e-11
3.92928e-12
-1.14631e-11
6.18773e-12
-9.69575e-12
7.81828e-12
-5.46334e-12
8.15697e-12
3.07044e-12
6.51926e-12
1.61632e-11
2.97377e-12
2.79554e-11
2.1738e-11
-2.96612e-12
2.3291e-11
-6.57058e-12
3.04714e-11
-8.20641e-12
1.71636e-11
-7.75024e-12
2.23076e-12
-5.95549e-12
-7.50058e-12
-3.49582e-12
-1.23358e-11
-7.63637e-13
-1.43373e-11
2.05761e-12
-1.50318e-11
4.8909e-12
-1.51939e-11
7.70388e-12
-1.5142e-11
1.04807e-11
-1.49903e-11
1.32109e-11
-1.47763e-11
1.58862e-11
-1.45119e-11
1.84988e-11
-1.42015e-11
2.10412e-11
-1.38472e-11
2.35063e-11
-1.34509e-11
2.58873e-11
-1.30143e-11
2.81774e-11
-1.25392e-11
3.03704e-11
-1.20275e-11
3.24602e-11
-1.14813e-11
3.44412e-11
-1.09025e-11
3.63079e-11
-1.02934e-11
3.80552e-11
-9.65615e-12
3.96786e-11
-8.99311e-12
4.11737e-11
-8.30662e-12
4.25365e-11
-7.59908e-12
4.37636e-11
-6.87293e-12
4.48518e-11
-6.13067e-12
4.57984e-11
-5.37477e-12
4.66011e-11
-4.60777e-12
4.72581e-11
-3.83217e-12
4.77678e-11
-3.05046e-12
4.81295e-11
-2.26497e-12
4.83415e-11
-1.47697e-12
4.84059e-11
-6.96065e-13
4.83223e-11
8.26782e-14
4.80916e-11
8.5539e-13
4.77149e-11
1.61967e-12
4.71938e-11
2.37338e-12
4.65301e-11
3.11427e-12
4.5726e-11
3.83996e-12
4.47845e-11
4.54805e-12
4.37085e-11
5.23628e-12
4.25019e-11
5.90261e-12
4.11686e-11
6.54521e-12
3.97132e-11
7.16251e-12
3.81403e-11
7.75307e-12
3.64551e-11
8.31566e-12
3.46629e-11
8.84919e-12
3.27692e-11
9.35273e-12
3.07799e-11
9.82553e-12
2.87009e-11
1.02669e-11
2.65383e-11
1.06765e-11
2.42984e-11
1.10539e-11
2.19876e-11
1.13989e-11
1.96122e-11
1.17115e-11
1.71788e-11
1.19915e-11
1.4694e-11
1.22392e-11
1.21641e-11
1.24545e-11
9.59604e-12
1.26373e-11
6.99645e-12
1.27871e-11
4.37254e-12
1.29021e-11
1.73224e-12
1.298e-11
-9.15876e-13
1.30166e-11
-3.56306e-12
1.30093e-11
-6.19997e-12
1.2956e-11
-8.81743e-12
1.2857e-11
-1.14067e-11
1.27144e-11
-1.39598e-11
1.25308e-11
-1.64689e-11
1.23082e-11
-1.89267e-11
1.20479e-11
-2.13262e-11
1.1751e-11
-2.36604e-11
1.14185e-11
-2.59227e-11
1.10512e-11
-2.81064e-11
1.06502e-11
-3.02054e-11
1.02166e-11
-3.22136e-11
9.75144e-12
-3.41251e-11
9.25595e-12
-3.59345e-11
8.73144e-12
-3.76364e-11
8.17926e-12
-3.9226e-11
7.60089e-12
-4.06986e-11
6.99784e-12
-4.20499e-11
6.37173e-12
-4.32758e-11
5.72427e-12
-4.43728e-11
5.05724e-12
-4.53376e-11
4.37254e-12
-4.61674e-11
3.67215e-12
-4.68597e-11
2.95819e-12
-4.74125e-11
2.23279e-12
-4.78239e-11
1.49798e-12
-4.80926e-11
7.55465e-13
-4.82181e-11
6.5314e-15
-4.81978e-11
-7.46655e-13
-4.80315e-11
-1.50328e-12
-4.77196e-11
-2.26406e-12
-4.72622e-11
-3.02502e-12
-4.66602e-11
-3.78349e-12
-4.59152e-11
-4.53737e-12
-4.50291e-11
-5.28409e-12
-4.40041e-11
-6.02099e-12
-4.2843e-11
-6.74544e-12
-4.15489e-11
-7.45485e-12
-4.01253e-11
-8.14671e-12
-3.8576e-11
-8.81854e-12
-3.69053e-11
-9.46792e-12
-3.51177e-11
-1.00925e-11
-3.32182e-11
-1.06901e-11
-3.1212e-11
-1.12585e-11
-2.91045e-11
-1.17956e-11
-2.69017e-11
-1.22994e-11
-2.46095e-11
-1.27681e-11
-2.22344e-11
-1.31998e-11
-1.9783e-11
-1.35928e-11
-1.7262e-11
-1.39457e-11
-1.46786e-11
-1.42569e-11
-1.204e-11
-1.4525e-11
-9.35382e-12
-1.47479e-11
-6.62835e-12
-1.49216e-11
-3.87367e-12
-1.50344e-11
-1.10547e-12
-1.50487e-11
1.64407e-12
-1.48497e-11
4.29814e-12
-1.41172e-11
6.67148e-12
-1.20691e-11
8.36947e-12
-7.16132e-12
8.72636e-12
2.71356e-12
6.95309e-12
1.79364e-11
3.16742e-12
3.17411e-11
2.49054e-11
-3.17403e-12
2.6465e-11
-7.02867e-12
3.4326e-11
-8.77687e-12
1.89118e-11
-8.30534e-12
1.75923e-12
-6.39e-12
-9.41592e-12
-3.76006e-12
-1.49657e-11
-8.35941e-13
-1.72614e-11
2.18463e-12
-1.80524e-11
5.21808e-12
-1.82273e-11
8.22908e-12
-1.8153e-11
1.12003e-11
-1.79615e-11
1.41205e-11
-1.76965e-11
1.69806e-11
-1.73721e-11
1.97725e-11
-1.69933e-11
2.24881e-11
-1.65628e-11
2.51199e-11
-1.60827e-11
2.76606e-11
-1.5555e-11
3.01031e-11
-1.49817e-11
3.24406e-11
-1.43651e-11
3.46669e-11
-1.37076e-11
3.67759e-11
-1.30114e-11