/*--------------------------------*- C++ -*----------------------------------*\
| =========                 |                                                 |
| \\      /  F ield         | OpenFOAM: The Open Source CFD Toolbox           |
|  \\    /   O peration     | Version:  2206                                  |
|   \\  /    A nd           | Website:  www.openfoam.com                      |
|    \\/     M anipulation  |                                                 |
\*---------------------------------------------------------------------------*/
FoamFile
{
    version     2.0;
    format      ascii;
    arch        "LSB;label=64;scalar=64";
    class       surfaceScalarField;
    location    "684000";
    object      phi;
}
// * * * * * * * * * * * * * * * * * * * * * * * * * * * * * * * * * * * * * //

dimensions      [0 3 -1 0 0 0 0];

oriented        oriented;

internalField   nonuniform List<scalar> 
24
(
3.39695e-10
-3.39695e-10
4.01678e-10
-6.19823e-11
1.34015e-10
2.67663e-10
1.34015e-10
1.46592e-10
-4.86287e-10
1.34401e-10
-4.97913e-11
1.75766e-11
3.84487e-10
1.51591e-10
-1.77165e-10
-3.09122e-10
-2.49992e-10
2.3035e-11
-1.28462e-10
2.62957e-10
2.31293e-11
-3.09122e-10
-2.86087e-10
-2.31293e-11
)
;

boundaryField
{
    movingWall
    {
        type            calculated;
        value           uniform 0;
    }
    fixedWalls
    {
        type            calculated;
        value           uniform 0;
    }
    frontAndBack
    {
        type            empty;
        value           nonuniform List<scalar> 0();
    }
}


// ************************************************************************* //
