/*--------------------------------*- C++ -*----------------------------------*\
| =========                 |                                                 |
| \\      /  F ield         | OpenFOAM: The Open Source CFD Toolbox           |
|  \\    /   O peration     | Version:  2206                                  |
|   \\  /    A nd           | Website:  www.openfoam.com                      |
|    \\/     M anipulation  |                                                 |
\*---------------------------------------------------------------------------*/
FoamFile
{
    version     2.0;
    format      ascii;
    arch        "LSB;label=64;scalar=64";
    class       volScalarField;
    location    "2.6/solid";
    object      T;
}
// * * * * * * * * * * * * * * * * * * * * * * * * * * * * * * * * * * * * * //

dimensions      [0 0 0 1 0 0 0];

internalField   nonuniform List<scalar> 
500
(
1090.27547024
1090.10557013
1089.76383532
1089.24896971
1088.55450996
1087.67272063
1086.59570328
1085.3259133
1083.90221669
1082.42868644
1091.26591035
1091.10133712
1090.77189285
1090.27726631
1089.61708355
1088.79193006
1087.80492786
1086.66581173
1085.39859067
1084.04089777
1092.25740619
1092.09905971
1091.78265756
1091.30893465
1090.67935912
1089.89668199
1088.96566649
1087.89412455
1086.69470963
1085.38279853
1093.2390104
1093.08627479
1092.78126193
1092.32497554
1091.71911017
1090.96624612
1090.06998897
1089.03509739
1087.86874846
1086.58052976
1094.19618807
1094.0479516
1093.75189354
1093.30887947
1092.72026275
1091.98790357
1091.11407349
1090.10132333
1088.95411549
1087.68476027
1095.11902972
1094.97426449
1094.68503676
1094.25196302
1093.67596497
1092.95823123
1092.10005619
1091.10258698
1089.96847429
1088.7153993
1096.00112091
1095.8590748
1095.57517443
1095.14980691
1094.58353539
1093.87705529
1093.03102565
1092.04570654
1090.92222456
1089.67674924
1096.83868327
1096.69888174
1096.41938373
1096.00040268
1095.44224428
1094.74527478
1093.90976133
1092.93538454
1091.82191022
1090.58298572
1097.62987264
1097.49205722
1097.21647048
1096.80320609
1096.25239815
1095.56420676
1094.73867543
1093.77511413
1092.67206139
1091.44002039
1098.37424162
1098.23830242
1097.96642803
1097.55863409
1097.01494518
1096.33539752
1095.51991959
1094.56758969
1093.47576187
1092.25148715
1099.07235042
1098.93827096
1098.67009142
1098.26777967
1097.73129436
1097.06060394
1096.25559897
1095.31524163
1094.23574759
1093.01980805
1099.72548003
1099.59329657
1099.32889545
1098.93221825
1098.40318815
1097.74174445
1096.94779705
1096.02030082
1094.95443026
1093.74851128
1100.33540967
1100.20518277
1099.94468893
1099.55385846
1099.03260003
1098.3808498
1097.59858041
1096.68484727
1095.63388212
1094.43857554
1100.90423533
1100.77603079
1100.51958109
1100.13481535
1099.62164119
1098.98000559
1098.20996628
1097.31076933
1096.27589429
1095.09281861
1101.43421554
1101.30809242
1101.05580826
1100.67729726
1100.17247377
1099.54130132
1098.78393007
1097.89986824
1096.88204164
1095.71165359
1101.92763783
1101.80364176
1101.55561617
1101.18350353
1100.68722837
1100.06677061
1099.32237229
1098.45387619
1097.45395403
1096.29789752
1102.38670198
1102.26486229
1102.02115489
1101.65553238
1101.16793122
1100.55834537
1099.82710048
1098.9744303
1097.99308005
1096.85203059
1102.81341866
1102.6937474
1102.45438292
1102.09528914
1101.61641585
1101.01776831
1100.29974099
1099.46298896
1098.50065498
1097.375717
1103.20952337
1103.09201552
1102.85698417
1102.50440524
1102.03424276
1101.44651081
1100.74165728
1099.92078502
1098.97782618
1097.86975115
1103.57640538
1103.4610397
1103.230299
1102.88417132
1102.42263501
1101.84570891
1101.1538707
1100.34866563
1099.42521016
1098.33499069
1103.91505042
1103.80179069
1103.57526797
1103.23548214
1102.78242562
1102.21611908
1101.53704844
1100.74718747
1099.84326934
1098.77151875
1104.22599562
1104.1147922
1103.89238785
1103.5587937
1103.1140158
1102.55807389
1101.89143833
1101.11647342
1100.23201555
1099.17937836
1104.5092944
1104.40008611
1104.18167741
1103.85409009
1103.41734348
1102.87145438
1102.21685171
1101.45621136
1100.59096964
1099.55940298
1104.76448862
1104.6572045
1104.4426492
1104.1208547
1103.69185374
1103.15566041
1102.51264128
1101.76567973
1100.91918618
1099.915314
1104.99058558
1104.88514659
1104.67428623
1104.35804605
1103.93647172
1103.40957392
1102.77763403
1102.04359982
1101.21490924
1100.24304677
1105.18603826
1105.0823589
1104.87502215
1104.56407855
1104.14958658
1103.63155524
1103.01016834
1102.28829592
1101.47624518
1100.5380995
1105.34872798
1105.24671761
1105.04272301
1104.73680345
1104.32903093
1103.81941686
1103.2080433
1102.49755512
1101.70075939
1100.79776084
1105.4759498
1105.37551344
1105.17467089
1104.87349
1104.47205677
1103.97038897
1103.36846784
1102.6685716
1101.88538807
1101.02006026
1105.56440191
1105.4654406
1105.26755206
1104.9708127
1104.57532356
1104.08111502
1103.48808078
1102.79803011
1102.02658129
1101.20334818
1105.61018081
1105.51259177
1105.31745137
1105.02484404
1104.63488609
1104.14762553
1103.56288444
1102.88193765
1102.11979774
1101.33682368
1105.60878397
1105.51246095
1105.31985545
1105.03105859
1104.64620082
1104.16535111
1103.58827778
1102.91572836
1102.16110605
1101.38630261
1105.55512109
1105.4599553
1105.26966588
1104.98434834
1104.60414468
1104.12914664
1103.55908812
1102.89423184
1102.14631797
1101.37604261
1105.44353499
1105.34941706
1105.16122326
1104.87904997
1104.50304589
1104.03332287
1103.46959129
1102.81165463
1102.06954868
1101.30192619
1105.26783148
1105.17465441
1104.98834043
1104.70898303
1104.33673198
1103.87171543
1103.31363206
1102.66186482
1101.92475268
1101.1591941
1105.0213178
1104.92897988
1104.74434088
1104.46748844
1104.0985687
1103.63772283
1103.08465059
1102.43835806
1101.70549343
1100.94058186
1104.69685134
1104.60525797
1104.42210403
1104.14746958
1103.78149401
1103.32432899
1102.77568556
1102.134223
1101.4048616
1100.64009176
1104.28690246
1104.19596645
1104.01412327
1103.74144528
1103.37806434
1102.92414334
1102.37942138
1101.74226123
1101.01583914
1100.24991135
1103.78363589
1103.69327629
1103.51258278
1103.24162156
1102.88051877
1102.42945231
1101.88821131
1101.25492481
1100.53101543
1099.76371088
1103.17901472
1103.08915415
1102.90945718
1102.63998678
1102.28086695
1101.83229554
1101.29413164
1100.66432738
1099.94250804
1099.17270819
1102.46492951
1102.37549035
1102.19663695
1101.92843344
1101.57100734
1101.12458353
1100.58911449
1099.96244829
1099.24239163
1098.469644
1101.63335401
1101.54425329
1101.36608058
1101.09890712
1100.74287195
1100.29823677
1099.76507425
1099.14121474
1098.42263177
1097.64577757
1100.67652742
1100.58767035
1100.4099926
1100.14358011
1099.78859394
1099.34534497
1098.81405472
1098.19263249
1097.47522037
1096.69364257
1099.5871625
1099.49843428
1099.32102641
1099.0550488
1098.70069777
1098.25834923
1097.72840572
1097.10896919
1096.39237926
1095.6045122
1098.35867871
1098.26993471
1098.09251219
1097.82655492
1097.47230993
1097.03023788
1096.50096009
1095.88290743
1095.16669292
1094.37117203
1096.98546045
1096.89651615
1096.71871324
1096.45223675
1096.09739749
1095.65476062
1095.12520964
1094.50767824
1093.79123419
1092.98584202
1095.46314244
1095.37376714
1095.19512162
1094.92743014
1094.57106559
1094.12670119
1093.59551857
1092.97717958
1092.2595794
1091.44141917
1093.78892628
1093.69884615
1093.51880654
1093.24905226
1092.88997951
1092.44231394
1091.90749669
1091.28610794
1090.56545651
1089.72950129
1091.9619199
1091.87082421
1091.68879167
1091.41606622
1091.05297487
1090.60011602
1090.05892517
1089.43075376
1088.70285281
1087.83983108
1089.98345364
1089.89092052
1089.7062825
1089.42983392
1089.06172479
1088.60210998
1088.05174629
1087.41164552
1086.66840815
1085.75842794
1087.85740386
1087.76224519
1087.57420024
1087.29368452
1086.92066032
1086.45465365
1085.89483126
1085.23977141
1084.47213376
1083.49648354
)
;

boundaryField
{
    symmetric
    {
        type            symmetry;
    }
    emptyPatch
    {
        type            empty;
    }
    solid_to_water
    {
        type            compressible::turbulentTemperatureTwoPhaseRadCoupledMixed;
        refValue        nonuniform List<scalar> 
70
(
373.00928179
371.577695683
370.008743278
368.861398567
366.968640583
364.050638257
360.31681265
354.721768707
344.47700423
337.938337633
336.619746657
336.360725912
336.308094042
336.941411431
339.33082199
345.516255651
347.789777753
349.802584198
349.327316434
351.231232675
350.053128105
351.907395834
350.638186576
352.532111762
350.939528216
352.409368086
351.064635698
352.208252501
351.046280598
351.542202676
350.868858692
350.155168382
345.025200186
340.546818879
338.058598981
336.562072375
335.992008794
336.35613055
339.471187528
376.090142312
408.362194733
428.997324455
427.203871757
441.849057278
434.019833938
446.308021511
436.530795231
446.385758071
437.488581374
445.812921209
437.614681955
444.203977649
437.967278017
442.287608455
438.314648658
441.076873982
438.689580532
438.599941343
417.321005881
334.23651364
334.341697251
334.412595172
334.484946215
334.558847131
334.641188502
334.789134856
334.924173979
335.128989362
356.013096563
335.437586985
)
;
        refGradient     uniform 0;
        valueFraction   nonuniform List<scalar> 
70
(
0.000762634855411
0.000762960861101
0.00076655258821
0.000766967073645
0.000776194613853
0.000797998510618
0.000832298441209
0.000907056372274
0.00117324840094
0.00146757219001
0.000959133867124
0.000953856764236
0.00095444385835
0.000964759007858
0.000978047808756
0.000882346047484
0.000866162311926
0.000844770651801
0.000865651774162
0.000837423673986
0.000864881022066
0.000835779548748
0.00086268344044
0.000832861897546
0.000863342926203
0.000839865370629
0.000864878218139
0.000846062035373
0.000867402302207
0.000859132296575
0.000868712231292
0.000867432314381
0.000932914166009
0.000984332040476
0.000981893612358
0.00096542602051
0.000958274774734
0.000964138813966
0.000988074192998
0.000596062904629
0.000504584887403
0.000474398569999
0.000504592948829
0.000473415267201
0.00050453921345
0.000473740728825
0.000504426012764
0.000477805307439
0.000504248060498
0.00048103302998
0.000504938607144
0.000486336257182
0.000504602931592
0.000492115881807
0.000504176290143
0.000496765210051
0.000504277743425
0.000502459081508
0.000548396248982
0.00150259005289
0.00150895341649
0.00151251556418
0.00151589392627
0.00151892601011
0.00152192140856
0.00152703077202
0.00153059103458
0.00153407774411
0.000888236652879
0.00153294356252
)
;
        source          uniform 0;
        value           nonuniform List<scalar> 
70
(
1089.73033255
1089.55924363
1089.21398157
1088.69832877
1087.99629767
1087.09714839
1085.99295802
1084.66455222
1083.03592822
1081.33760849
1081.71487198
1083.32923384
1084.66939008
1085.85904411
1086.95483035
1088.06039691
1089.03469539
1089.9574735
1090.7982359
1091.63123399
1092.37798523
1093.12893118
1093.79782302
1094.47497047
1095.06980928
1095.67407989
1096.20845831
1096.74658235
1097.22373937
1097.69523034
1098.12395246
1098.53196614
1098.85895632
1099.17235955
1099.49949872
1099.80549098
1100.07005965
1100.28843401
1100.45700857
1100.90554531
1101.0361319
1101.05608683
1100.96122203
1100.84604536
1100.60353773
1100.32910109
1099.91456504
1099.45058358
1098.8385039
1098.15479057
1097.31193449
1096.37544433
1095.27202657
1094.04939102
1092.65499188
1091.11734711
1089.40017067
1087.51235383
1085.39086553
1086.72633745
1086.62668617
1086.43634924
1086.15382416
1085.77919482
1085.31176477
1084.7491816
1084.09277309
1083.32479676
1082.85326344
1082.35270687
)
;
        kappaMethod     solidThermo;
        Tnbr            T.liquid;
        region          solid;
        otherPhase      gas;
    }
}


// ************************************************************************* //
