/*--------------------------------*- C++ -*----------------------------------*\
| =========                 |                                                 |
| \\      /  F ield         | OpenFOAM: The Open Source CFD Toolbox           |
|  \\    /   O peration     | Version:  2212                                  |
|   \\  /    A nd           | Website:  www.openfoam.com                      |
|    \\/     M anipulation  |                                                 |
\*---------------------------------------------------------------------------*/
FoamFile
{
    version     2.0;
    format      ascii;
    arch        "LSB;label=64;scalar=64";
    class       volScalarField::Internal;
    location    "1180";
    object      dGco2;
}
// * * * * * * * * * * * * * * * * * * * * * * * * * * * * * * * * * * * * * //

dimensions      [1 -3 -1 0 0 0 0];

value           nonuniform List<scalar> 
1024
(
0.000143918
0.000143983
0.000144143
0.000144432
0.000144884
0.000145528
0.000146369
0.000147386
0.000148523
0.000149698
0.000150815
0.000151768
0.000152461
0.000152825
0.000152801
0.000152337
0.000151418
0.000150185
0.000148795
0.000147297
0.000145728
0.000144135
0.000142581
0.000141144
0.000139891
0.000138864
0.000138071
0.000137496
0.000137106
0.000136863
0.00013673
0.000136675
0.000143933
0.000144
0.000144163
0.000144457
0.000144919
0.000145574
0.000146428
0.000147457
0.000148604
0.000149788
0.000150909
0.000151864
0.000152553
0.000152912
0.000152884
0.000152416
0.000151496
0.000150262
0.000148872
0.000147375
0.000145807
0.000144212
0.000142654
0.000141208
0.000139945
0.000138905
0.000138102
0.000137518
0.000137122
0.000136875
0.00013674
0.000136685
0.00014397
0.000144039
0.000144208
0.000144513
0.000144992
0.00014567
0.00014655
0.000147608
0.000148783
0.000149993
0.000151137
0.0001521
0.000152784
0.000153128
0.000153083
0.0001526
0.000151668
0.000150427
0.000149033
0.000147535
0.000145968
0.000144371
0.000142804
0.000141344
0.000140058
0.000138995
0.000138169
0.000137568
0.000137159
0.000136904
0.000136764
0.000136708
0.000144035
0.000144106
0.000144283
0.000144603
0.000145105
0.000145816
0.000146739
0.000147847
0.000149078
0.000150348
0.000151544
0.000152536
0.000153213
0.000153526
0.000153441
0.000152919
0.000151954
0.000150687
0.000149277
0.000147773
0.000146204
0.000144605
0.000143029
0.000141547
0.000140232
0.000139134
0.000138275
0.000137647
0.000137219
0.000136952
0.000136806
0.000136747
0.000144132
0.000144206
0.000144391
0.000144728
0.000145259
0.000146014
0.000146998
0.000148185
0.000149513
0.00015089
0.000152185
0.000153233
0.000153905
0.000154168
0.00015401
0.00015341
0.000152373
0.000151047
0.000149597
0.000148071
0.000146494
0.000144892
0.000143307
0.000141803
0.000140453
0.000139315
0.000138416
0.000137754
0.000137301
0.000137019
0.000136864
0.000136802
0.000144268
0.000144345
0.000144537
0.000144893
0.000145457
0.000146267
0.000147334
0.000148635
0.000150112
0.000151658
0.000153109
0.000154249
0.000154922
0.000155111
0.000154838
0.000154109
0.000152944
0.000151507
0.000149975
0.000148401
0.000146803
0.000145192
0.000143598
0.000142075
0.000140694
0.000139515
0.000138576
0.000137878
0.000137399
0.0001371
0.000136937
0.000136871
0.000144452
0.000144531
0.000144731
0.000145104
0.000145707
0.000146584
0.000147758
0.000149219
0.000150905
0.000152688
0.000154355
0.000155626
0.000156309
0.0001564
0.000155965
0.000155045
0.000153681
0.000152061
0.000150388
0.000148723
0.000147077
0.000145447
0.000143843
0.000142309
0.000140906
0.000139697
0.000138725
0.000137999
0.000137498
0.000137185
0.000137014
0.000136945
0.0001447
0.00014478
0.000144987
0.000145379
0.000146025
0.000146983
0.000148295
0.000149962
0.000151922
0.000154011
0.000155947
0.000157379
0.000158076
0.000158048
0.00015741
0.000156237
0.000154594
0.0001527
0.000150805
0.000148988
0.000147255
0.000145585
0.000143969
0.000142431
0.000141024
0.000139807
0.000138822
0.000138084
0.000137574
0.000137253
0.000137079
0.000137008
0.000145038
0.00014512
0.000145334
0.000145749
0.000146445
0.000147502
0.000148984
0.000150908
0.000153203
0.000155656
0.000157897
0.000159502
0.000160208
0.000160043
0.000159172
0.000157703
0.000155702
0.000153427
0.000151202
0.000149149
0.000147273
0.000145532
0.000143896
0.000142367
0.00014098
0.000139785
0.00013882
0.000138097
0.000137596
0.000137282
0.000137109
0.000137039
0.000145512
0.000145596
0.00014582
0.000146264
0.000147024
0.000148203
0.000149893
0.000152125
0.00015481
0.000157665
0.000160221
0.000161985
0.000162682
0.000162374
0.000161277
0.000159502
0.000157083
0.000154311
0.000151619
0.000149209
0.000147103
0.000145242
0.000143567
0.000142055
0.000140717
0.000139583
0.000138678
0.000138004
0.000137539
0.000137248
0.000137088
0.000137022
0.000146191
0.000146278
0.000146519
0.000147004
0.000147849
0.000149184
0.000151127
0.00015372
0.000156838
0.000160109
0.000162961
0.000164847
0.000165521
0.000165102
0.000163848
0.00016183
0.000158993
0.000155624
0.000152299
0.000149348
0.000146861
0.000144776
0.000143011
0.000141507
0.000140237
0.000139199
0.000138394
0.000137807
0.000137409
0.000137164
0.000137032
0.00013698
0.000147169
0.000147264
0.000147531
0.000148077
0.00014904
0.000150579
0.000152832
0.000155837
0.000159414
0.000163086
0.000166189
0.000168166
0.000168845
0.00016844
0.000167219
0.000165165
0.000162063
0.000158119
0.000154011
0.00015025
0.000147099
0.000144564
0.000142548
0.000140959
0.000139722
0.000138785
0.000138106
0.000137645
0.000137359
0.000137202
0.000137131
0.000137109
0.000148562
0.00014867
0.000148978
0.000149614
0.000150742
0.000152546
0.000155174
0.00015864
0.000162681
0.000166715
0.000170021
0.000172104
0.000172933
0.000172822
0.000172017
0.000170372
0.000167474
0.000163327
0.000158583
0.000153878
0.000149682
0.000146225
0.000143523
0.000141515
0.000140086
0.000139131
0.000138552
0.000138256
0.000138155
0.000138169
0.000138226
0.000138271
0.00015048
0.000150608
0.000150975
0.000151737
0.000153088
0.000155231
0.000158307
0.000162271
0.000166759
0.000171102
0.0001746
0.000176909
0.00017819
0.000178828
0.000179013
0.000178515
0.000176778
0.000173496
0.000169064
0.000164058
0.000159028
0.000154403
0.000150443
0.000147347
0.000145077
0.000143614
0.000142847
0.000142595
0.000142662
0.000142872
0.000143089
0.00014322
0.000152993
0.00015315
0.000153601
0.000154534
0.000156172
0.000158725
0.000162295
0.000166744
0.000171609
0.000176197
0.00017993
0.000182677
0.000184751
0.000186546
0.000188213
0.000189593
0.000190198
0.000189471
0.000187363
0.000184151
0.00018018
0.000175823
0.000171452
0.00016741
0.000163885
0.000161106
0.000159178
0.000158045
0.00015754
0.000157444
0.000157532
0.00015763
0.00015582
0.000156
0.000156513
0.000157564
0.000159385
0.000162172
0.000165991
0.00017066
0.00017572
0.000180564
0.000184724
0.000188123
0.000191046
0.000193841
0.000196695
0.000199667
0.0002026
0.000205056
0.000206677
0.000207358
0.000207053
0.0002058
0.00020371
0.00020097
0.000197848
0.000194647
0.000191677
0.000189206
0.000187404
0.000186291
0.00018574
0.00018556
0.000158188
0.000158375
0.000158893
0.000159936
0.000161724
0.000164441
0.000168149
0.000172694
0.000177684
0.000182581
0.000186925
0.000190541
0.000193564
0.00019624
0.000198764
0.000201358
0.00020426
0.000207587
0.000211116
0.000214554
0.000217597
0.000219998
0.000221582
0.000222254
0.000222019
0.00022099
0.000219402
0.000217589
0.000215898
0.00021459
0.000213779
0.000213433
0.000159622
0.000159806
0.000160296
0.000161259
0.000162887
0.000165353
0.00016873
0.00017291
0.000177575
0.000182251
0.000186466
0.000189929
0.000192599
0.000194585
0.000196036
0.000197203
0.000198589
0.000200864
0.000204113
0.000208048
0.000212272
0.000216403
0.000220116
0.00022317
0.000225419
0.000226821
0.00022744
0.000227434
0.000227041
0.000226525
0.0002261
0.00022588
0.000160247
0.000160426
0.000160882
0.000161748
0.000163183
0.000165341
0.000168306
0.000172015
0.000176223
0.000180523
0.000184466
0.0001877
0.000190062
0.000191559
0.000192307
0.000192575
0.000192977
0.000194421
0.000197195
0.000201133
0.000205888
0.000211011
0.000216026
0.000220513
0.00022418
0.000226897
0.000228685
0.000229675
0.000230073
0.000230113
0.000230011
0.000229923
0.000160286
0.000160461
0.000160886
0.000161662
0.000162913
0.000164765
0.000167304
0.000170504
0.000174185
0.000178015
0.000181595
0.000184568
0.000186718
0.000187994
0.000188501
0.000188532
0.000188738
0.000189958
0.000192467
0.00019622
0.000201027
0.00020656
0.000212369
0.000217935
0.000222789
0.000226627
0.000229348
0.000231037
0.000231908
0.000232229
0.000232267
0.000232226
0.00015993
0.000160098
0.000160492
0.000161188
0.000162277
0.000163857
0.000165998
0.000168696
0.000171823
0.000175122
0.000178263
0.000180932
0.000182919
0.000184168
0.000184794
0.000185116
0.000185753
0.000187301
0.000189899
0.000193562
0.000198226
0.000203723
0.000209739
0.000215815
0.000221434
0.000226155
0.000229717
0.000232088
0.000233428
0.000234017
0.00023417
0.000234157
0.000159416
0.000159563
0.000159907
0.000160511
0.000161446
0.000162783
0.000164571
0.000166807
0.000169399
0.000172155
0.00017483
0.000177189
0.000179079
0.000180478
0.000181524
0.000182543
0.000184022
0.000186236
0.000189176
0.000192888
0.000197397
0.000202661
0.000208509
0.00021462
0.000220548
0.000225807
0.000230008
0.000232974
0.000234766
0.000235632
0.000235907
0.000235923
0.000159122
0.000159216
0.000159456
0.00015991
0.000160648
0.000161731
0.00016319
0.000165013
0.00016713
0.000169409
0.000171695
0.000173851
0.000175806
0.000177582
0.000179318
0.000181307
0.000183815
0.000186795
0.000190136
0.000193924
0.000198255
0.000203187
0.000208661
0.000214482
0.00022032
0.000225751
0.000230335
0.000233761
0.000235959
0.000237099
0.000237506
0.000237555
0.000159584
0.000159579
0.000159626
0.000159817
0.000160252
0.000161011
0.000162127
0.000163586
0.00016534
0.000167311
0.000169428
0.00017164
0.000173929
0.000176327
0.00017894
0.000181976
0.000185461
0.00018909
0.000192726
0.000196504
0.000200579
0.000205077
0.000210034
0.000215361
0.000220833
0.000226117
0.000230804
0.000234511
0.000237035
0.00023843
0.000238976
0.000239062
0.000161403
0.000161249
0.000161008
0.000160812
0.00016082
0.000161169
0.000161929
0.000163111
0.00016469
0.000166632
0.000168909
0.000171495
0.000174372
0.000177534
0.000181019
0.000184942
0.000189131
0.000193137
0.000196856
0.000200477
0.000204192
0.000208165
0.000212494
0.000217173
0.000222081
0.000226974
0.000231507
0.00023529
0.000238024
0.000239636
0.000240318
0.000240448
0.000165081
0.000164742
0.000164168
0.000163547
0.000163109
0.000163064
0.000163556
0.000164634
0.000166292
0.000168497
0.000171203
0.000174352
0.000177871
0.0001817
0.000185809
0.000190246
0.000194731
0.000198774
0.000202331
0.000205637
0.000208894
0.000212277
0.000215911
0.000219847
0.000224043
0.000228355
0.000232515
0.000236166
0.000238965
0.000240727
0.000241535
0.000241713
0.000170906
0.000170385
0.000169554
0.000168669
0.000167995
0.000167786
0.000168242
0.00016944
0.000171367
0.000173956
0.000177112
0.000180714
0.000184639
0.000188785
0.000193089
0.000197563
0.000201903
0.000205659
0.000208842
0.000211701
0.000214429
0.000217192
0.000220115
0.000223273
0.00022668
0.000230273
0.000233878
0.000237203
0.000239904
0.000241723
0.000242627
0.000242856
0.000178968
0.000178335
0.000177494
0.00017674
0.000176267
0.000176272
0.000176955
0.000178391
0.000180558
0.000183365
0.000186681
0.000190353
0.000194238
0.000198226
0.000202248
0.000206307
0.000210131
0.000213349
0.000216006
0.000218334
0.000220503
0.000222651
0.000224888
0.000227291
0.0002299
0.000232708
0.000235628
0.000238458
0.000240896
0.000242653
0.000243602
0.000243877
0.000189298
0.000188711
0.000188269
0.000188126
0.000188267
0.000188755
0.000189741
0.000191304
0.000193444
0.000196086
0.00019911
0.000202374
0.000205749
0.000209138
0.000212488
0.000215797
0.000218854
0.00022138
0.00022343
0.000225194
0.000226806
0.000228373
0.000229981
0.000231695
0.000233558
0.000235589
0.000237764
0.000239972
0.000241992
0.000243555
0.000244474
0.000244777
0.000202049
0.000201786
0.000202123
0.000202789
0.000203561
0.000204434
0.000205521
0.000206923
0.000208682
0.000210766
0.000213095
0.000215568
0.000218089
0.000220588
0.000223024
0.000225399
0.000227566
0.000229337
0.000230757
0.000231964
0.000233052
0.000234093
0.000235148
0.000236262
0.000237468
0.000238792
0.000240237
0.000241762
0.000243241
0.000244472
0.000245263
0.000245559
0.000217672
0.00021801
0.000218981
0.000219979
0.00022088
0.000221707
0.000222547
0.000223495
0.000224608
0.000225889
0.000227303
0.000228792
0.000230299
0.000231783
0.00023322
0.00023461
0.000235869
0.000236892
0.000237706
0.000238393
0.000239006
0.000239586
0.000240168
0.000240777
0.000241432
0.000242152
0.000242944
0.000243802
0.000244674
0.000245452
0.000246001
0.000246236
0.000236783
0.00023707
0.000237602
0.000238072
0.000238467
0.000238804
0.000239118
0.000239448
0.000239822
0.000240245
0.00024071
0.000241197
0.000241689
0.000242172
0.000242639
0.000243088
0.000243494
0.000243823
0.000244084
0.000244303
0.000244498
0.000244681
0.000244864
0.000245053
0.000245257
0.000245479
0.000245724
0.000245992
0.00024627
0.00024653
0.000246728
0.000246825
)
;


// ************************************************************************* //
