/*--------------------------------*- C++ -*----------------------------------*\
| =========                 |                                                 |
| \\      /  F ield         | OpenFOAM: The Open Source CFD Toolbox           |
|  \\    /   O peration     | Version:  2212                                  |
|   \\  /    A nd           | Website:  www.openfoam.com                      |
|    \\/     M anipulation  |                                                 |
\*---------------------------------------------------------------------------*/
FoamFile
{
    version     2.0;
    format      ascii;
    arch        "LSB;label=64;scalar=64";
    class       volScalarField;
    location    "1180";
    object      p;
}
// * * * * * * * * * * * * * * * * * * * * * * * * * * * * * * * * * * * * * //

dimensions      [0 2 -2 0 0 0 0];

internalField   nonuniform List<scalar> 
1024
(
0
-2.27433e-06
-4.2492e-06
-3.72108e-06
9.21645e-07
1.09834e-05
2.77872e-05
5.24242e-05
8.42448e-05
0.00011704
0.000136795
0.000131891
9.76232e-05
3.51142e-05
-4.52479e-05
-0.000140563
-0.000243741
-0.0003379
-0.000407577
-0.000451147
-0.000475273
-0.000487192
-0.000492196
-0.000493706
-0.000493796
-0.000493495
-0.000493078
-0.000492348
-0.000491074
-0.00048935
-0.000487652
-0.000486667
-0.0928111
-0.0928135
-0.0928153
-0.0928148
-0.0928109
-0.0928021
-0.092787
-0.0927642
-0.0927344
-0.0927036
-0.0926853
-0.0926903
-0.0927234
-0.0927846
-0.092864
-0.0929584
-0.0930607
-0.0931539
-0.0932227
-0.0932654
-0.0932889
-0.0933003
-0.0933049
-0.0933061
-0.0933059
-0.0933053
-0.0933046
-0.0933037
-0.0933025
-0.0933009
-0.0932994
-0.0932984
-0.199427
-0.19943
-0.199432
-0.199432
-0.199429
-0.199422
-0.19941
-0.19939
-0.199363
-0.199335
-0.199319
-0.199325
-0.199356
-0.199415
-0.199493
-0.199586
-0.199686
-0.199778
-0.199845
-0.199887
-0.199909
-0.199919
-0.199923
-0.199923
-0.199922
-0.199921
-0.199919
-0.199918
-0.199917
-0.199915
-0.199914
-0.199912
-0.321903
-0.321907
-0.32191
-0.321911
-0.321911
-0.321906
-0.321897
-0.321881
-0.321857
-0.321832
-0.321819
-0.321826
-0.321856
-0.321913
-0.321987
-0.322078
-0.322176
-0.322266
-0.322331
-0.32237
-0.32239
-0.322399
-0.3224
-0.322399
-0.322396
-0.322394
-0.322391
-0.32239
-0.322388
-0.322386
-0.322384
-0.322382
-0.462603
-0.462607
-0.462611
-0.462614
-0.462616
-0.462615
-0.462609
-0.462597
-0.462577
-0.462556
-0.462547
-0.462555
-0.462584
-0.462638
-0.462709
-0.462795
-0.462891
-0.462978
-0.463041
-0.463077
-0.463094
-0.463099
-0.463098
-0.463094
-0.463089
-0.463085
-0.463081
-0.463078
-0.463075
-0.463073
-0.46307
-0.463067
-0.62424
-0.624244
-0.624249
-0.624253
-0.624257
-0.62426
-0.624258
-0.624249
-0.624234
-0.624218
-0.624213
-0.624223
-0.624251
-0.624302
-0.624368
-0.62445
-0.624542
-0.624627
-0.624687
-0.62472
-0.624733
-0.624734
-0.624729
-0.624721
-0.624713
-0.624705
-0.624698
-0.624693
-0.62469
-0.624686
-0.624683
-0.624679
-0.809928
-0.809931
-0.809936
-0.809941
-0.809948
-0.809953
-0.809954
-0.809949
-0.809938
-0.809927
-0.809926
-0.80994
-0.809968
-0.810016
-0.810078
-0.810155
-0.810243
-0.810325
-0.810383
-0.810412
-0.81042
-0.810416
-0.810406
-0.810394
-0.810381
-0.81037
-0.81036
-0.810353
-0.810348
-0.810343
-0.810339
-0.810335
-1.02324
-1.02324
-1.02325
-1.02325
-1.02326
-1.02327
-1.02327
-1.02327
-1.02326
-1.02326
-1.02326
-1.02328
-1.02331
-1.02335
-1.02341
-1.02348
-1.02357
-1.02365
-1.0237
-1.02373
-1.02373
-1.02372
-1.02371
-1.02369
-1.02367
-1.02366
-1.02365
-1.02364
-1.02363
-1.02362
-1.02362
-1.02361
-1.26828
-1.26828
-1.26829
-1.26829
-1.2683
-1.26831
-1.26831
-1.26831
-1.26831
-1.26831
-1.26832
-1.26834
-1.26837
-1.26841
-1.26847
-1.26854
-1.26862
-1.2687
-1.26876
-1.26878
-1.26878
-1.26876
-1.26874
-1.26872
-1.2687
-1.26868
-1.26866
-1.26865
-1.26864
-1.26863
-1.26863
-1.26863
-1.54976
-1.54976
-1.54977
-1.54977
-1.54978
-1.54978
-1.54979
-1.54979
-1.54979
-1.5498
-1.54981
-1.54984
-1.54987
-1.54991
-1.54997
-1.55003
-1.55011
-1.55019
-1.55025
-1.55027
-1.55026
-1.55024
-1.55022
-1.55019
-1.55017
-1.55015
-1.55013
-1.55011
-1.5501
-1.55009
-1.55009
-1.55009
-1.8731
-1.8731
-1.8731
-1.87311
-1.87311
-1.87311
-1.87312
-1.87312
-1.87313
-1.87314
-1.87316
-1.87319
-1.87323
-1.87327
-1.87332
-1.87338
-1.87346
-1.87353
-1.87359
-1.87361
-1.8736
-1.87358
-1.87355
-1.87352
-1.87349
-1.87347
-1.87345
-1.87343
-1.87342
-1.87342
-1.87341
-1.87341
-2.24452
-2.24452
-2.24452
-2.24452
-2.24452
-2.24452
-2.24453
-2.24453
-2.24454
-2.24456
-2.24458
-2.24462
-2.24466
-2.2447
-2.24475
-2.24481
-2.24488
-2.24495
-2.245
-2.24502
-2.24501
-2.24498
-2.24495
-2.24491
-2.24488
-2.24486
-2.24483
-2.24482
-2.24481
-2.2448
-2.2448
-2.2448
-2.67117
-2.67117
-2.67117
-2.67117
-2.67117
-2.67117
-2.67117
-2.67118
-2.67119
-2.67121
-2.67124
-2.67128
-2.67132
-2.67137
-2.67142
-2.67147
-2.67153
-2.67158
-2.67162
-2.67163
-2.67161
-2.67158
-2.67154
-2.6715
-2.67147
-2.67144
-2.67142
-2.67141
-2.6714
-2.6714
-2.6714
-2.6714
-3.16128
-3.16128
-3.16128
-3.16128
-3.16128
-3.16128
-3.16128
-3.16129
-3.1613
-3.16133
-3.16136
-3.1614
-3.16145
-3.1615
-3.16155
-3.1616
-3.16165
-3.16167
-3.16167
-3.16165
-3.16161
-3.16157
-3.16151
-3.16147
-3.16144
-3.16142
-3.16141
-3.1614
-3.1614
-3.1614
-3.1614
-3.1614
-3.72429
-3.72429
-3.72429
-3.72429
-3.72429
-3.72429
-3.7243
-3.72431
-3.72433
-3.72436
-3.7244
-3.72445
-3.7245
-3.72456
-3.72461
-3.72466
-3.72469
-3.72469
-3.72466
-3.7246
-3.72453
-3.72444
-3.72437
-3.72431
-3.72427
-3.72425
-3.72424
-3.72424
-3.72425
-3.72425
-3.72426
-3.72426
-4.37109
-4.3711
-4.3711
-4.3711
-4.3711
-4.37111
-4.37112
-4.37113
-4.37116
-4.37119
-4.37123
-4.37128
-4.37134
-4.3714
-4.37146
-4.37151
-4.37154
-4.37153
-4.37148
-4.37141
-4.37131
-4.37121
-4.3711
-4.37102
-4.37096
-4.37092
-4.37091
-4.37091
-4.37092
-4.37092
-4.37093
-4.37093
-5.06273
-5.06273
-5.06273
-5.06274
-5.06274
-5.06275
-5.06277
-5.06278
-5.06281
-5.06284
-5.06288
-5.06294
-5.06299
-5.06306
-5.06312
-5.06318
-5.0632
-5.06319
-5.06315
-5.06308
-5.06299
-5.06289
-5.06279
-5.0627
-5.06262
-5.06257
-5.06254
-5.06253
-5.06253
-5.06253
-5.06254
-5.06254
-5.70962
-5.70962
-5.70962
-5.70962
-5.70963
-5.70964
-5.70966
-5.70968
-5.70971
-5.70974
-5.70979
-5.70984
-5.7099
-5.70996
-5.71003
-5.71008
-5.7101
-5.71009
-5.71006
-5.71
-5.70993
-5.70985
-5.70976
-5.70967
-5.70959
-5.70953
-5.70948
-5.70946
-5.70945
-5.70946
-5.70946
-5.70947
-6.27274
-6.27274
-6.27274
-6.27275
-6.27276
-6.27277
-6.27279
-6.27282
-6.27285
-6.27289
-6.27293
-6.27298
-6.27304
-6.27311
-6.27317
-6.27322
-6.27324
-6.27323
-6.2732
-6.27316
-6.2731
-6.27304
-6.27297
-6.27289
-6.27281
-6.27274
-6.27268
-6.27265
-6.27264
-6.27264
-6.27265
-6.27265
-6.76293
-6.76293
-6.76293
-6.76294
-6.76295
-6.76297
-6.76299
-6.76302
-6.76306
-6.7631
-6.76314
-6.7632
-6.76326
-6.76333
-6.76339
-6.76345
-6.76347
-6.76345
-6.76342
-6.76338
-6.76333
-6.76328
-6.76322
-6.76315
-6.76307
-6.763
-6.76294
-6.7629
-6.76288
-6.76288
-6.76289
-6.76289
-7.18963
-7.18963
-7.18963
-7.18963
-7.18965
-7.18966
-7.18969
-7.18973
-7.18977
-7.18981
-7.18987
-7.18993
-7.18999
-7.19007
-7.19014
-7.19019
-7.19021
-7.1902
-7.19016
-7.19012
-7.19007
-7.19001
-7.18996
-7.18989
-7.18982
-7.18975
-7.18969
-7.18964
-7.18961
-7.1896
-7.1896
-7.18961
-7.56107
-7.56107
-7.56107
-7.56107
-7.56108
-7.56109
-7.56112
-7.56116
-7.56121
-7.56126
-7.56132
-7.56139
-7.56147
-7.56155
-7.56162
-7.56168
-7.5617
-7.56169
-7.56165
-7.5616
-7.56154
-7.56148
-7.56141
-7.56135
-7.56127
-7.5612
-7.56112
-7.56106
-7.56102
-7.56101
-7.56101
-7.56102
-7.8844
-7.8844
-7.8844
-7.8844
-7.8844
-7.88442
-7.88444
-7.88448
-7.88453
-7.88459
-7.88467
-7.88475
-7.88484
-7.88493
-7.88501
-7.88507
-7.8851
-7.88508
-7.88504
-7.88498
-7.88492
-7.88484
-7.88476
-7.88468
-7.88459
-7.8845
-7.88441
-7.88433
-7.88427
-7.88425
-7.88425
-7.88426
-8.16587
-8.16587
-8.16587
-8.16587
-8.16587
-8.16587
-8.16589
-8.16592
-8.16598
-8.16605
-8.16613
-8.16623
-8.16633
-8.16643
-8.16652
-8.16659
-8.16662
-8.16661
-8.16656
-8.1665
-8.16642
-8.16633
-8.16623
-8.16612
-8.166
-8.16589
-8.16577
-8.16567
-8.16559
-8.16555
-8.16554
-8.16555
-8.4109
-8.4109
-8.4109
-8.41089
-8.41088
-8.41088
-8.41088
-8.41091
-8.41097
-8.41105
-8.41115
-8.41126
-8.41137
-8.41149
-8.41159
-8.41166
-8.41169
-8.41168
-8.41164
-8.41157
-8.41149
-8.41138
-8.41126
-8.41112
-8.41096
-8.4108
-8.41064
-8.4105
-8.41039
-8.41032
-8.41029
-8.4103
-8.62422
-8.62422
-8.62421
-8.6242
-8.62418
-8.62416
-8.62415
-8.62417
-8.62423
-8.62432
-8.62443
-8.62456
-8.62469
-8.62481
-8.62492
-8.625
-8.62504
-8.62503
-8.62498
-8.62491
-8.62482
-8.6247
-8.62455
-8.62438
-8.62418
-8.62397
-8.62376
-8.62356
-8.62339
-8.62327
-8.62322
-8.62321
-8.80992
-8.80992
-8.80991
-8.80989
-8.80986
-8.80982
-8.8098
-8.80981
-8.80987
-8.80997
-8.8101
-8.81025
-8.81039
-8.81052
-8.81064
-8.81073
-8.81076
-8.81075
-8.81071
-8.81064
-8.81053
-8.8104
-8.81024
-8.81003
-8.80979
-8.80952
-8.80924
-8.80896
-8.80872
-8.80853
-8.80842
-8.80838
-8.97161
-8.97161
-8.97159
-8.97155
-8.9715
-8.97144
-8.97141
-8.97142
-8.97149
-8.9716
-8.97174
-8.97189
-8.97205
-8.97219
-8.97231
-8.9724
-8.97244
-8.97243
-8.97239
-8.97231
-8.97221
-8.97207
-8.97188
-8.97165
-8.97137
-8.97105
-8.97069
-8.97032
-8.96997
-8.96967
-8.96947
-8.96937
-9.11241
-9.1124
-9.11236
-9.11229
-9.11221
-9.11214
-9.1121
-9.11211
-9.11218
-9.1123
-9.11245
-9.11261
-9.11278
-9.11292
-9.11305
-9.11315
-9.11319
-9.11318
-9.11314
-9.11306
-9.11295
-9.1128
-9.1126
-9.11235
-9.11204
-9.11167
-9.11125
-9.11078
-9.1103
-9.10984
-9.10949
-9.10926
-9.23511
-9.23503
-9.23492
-9.23481
-9.2347
-9.23462
-9.23457
-9.23459
-9.23466
-9.23479
-9.23495
-9.23512
-9.23529
-9.23544
-9.23557
-9.23567
-9.23572
-9.23571
-9.23567
-9.23559
-9.23547
-9.23532
-9.23512
-9.23485
-9.23452
-9.23412
-9.23364
-9.23309
-9.23247
-9.2318
-9.23117
-9.23062
-9.34226
-9.34187
-9.34162
-9.34145
-9.34132
-9.34123
-9.34119
-9.34121
-9.34129
-9.34143
-9.34159
-9.34177
-9.34194
-9.3421
-9.34223
-9.34233
-9.34238
-9.34238
-9.34233
-9.34225
-9.34214
-9.34199
-9.34178
-9.34151
-9.34117
-9.34075
-9.34025
-9.33964
-9.3389
-9.338
-9.3369
-9.33564
-9.43614
-9.4349
-9.43443
-9.43425
-9.43413
-9.43404
-9.434
-9.43403
-9.43412
-9.43426
-9.43443
-9.43461
-9.43479
-9.43495
-9.43509
-9.43519
-9.43524
-9.43523
-9.43519
-9.43511
-9.435
-9.43485
-9.43464
-9.43437
-9.43403
-9.43361
-9.43309
-9.43246
-9.43165
-9.43055
-9.42895
-9.42669
)
;

boundaryField
{
    movingWall
    {
        type            calculated;
        value           nonuniform List<scalar> 
32
(
-9.47935
-9.47812
-9.47764
-9.47747
-9.47734
-9.47725
-9.47722
-9.47724
-9.47733
-9.47747
-9.47764
-9.47783
-9.478
-9.47816
-9.4783
-9.4784
-9.47845
-9.47845
-9.47841
-9.47833
-9.47822
-9.47806
-9.47786
-9.47759
-9.47725
-9.47682
-9.47631
-9.47568
-9.47487
-9.47377
-9.47217
-9.46991
)
;
    }
    fixedWalls
    {
        type            calculated;
        value           nonuniform List<scalar> 
64
(
6.93889e-18
-0.0928111
-0.199427
-0.321903
-0.462603
-0.62424
-0.809928
-1.02324
-1.26828
-1.54976
-1.8731
-2.24452
-2.67117
-3.16128
-3.72429
-4.37109
-5.06273
-5.70962
-6.27274
-6.76293
-7.18963
-7.56107
-7.8844
-8.16587
-8.4109
-8.62422
-8.80992
-8.97161
-9.11241
-9.23511
-9.34226
-9.43614
-0.000486667
-0.0932984
-0.199912
-0.322382
-0.463067
-0.624679
-0.810335
-1.02361
-1.26863
-1.55009
-1.87341
-2.2448
-2.6714
-3.1614
-3.72426
-4.37093
-5.06254
-5.70947
-6.27265
-6.76289
-7.18961
-7.56102
-7.88426
-8.16555
-8.4103
-8.62321
-8.80838
-8.96937
-9.10926
-9.23062
-9.33564
-9.42669
)
;
    }
    floor
    {
        type            calculated;
        value           nonuniform List<scalar> 
32
(
0.0431947
0.0431924
0.0431905
0.043191
0.0431958
0.043206
0.0432229
0.0432477
0.0432797
0.0433127
0.0433326
0.0433278
0.0432934
0.0432308
0.0431503
0.0430549
0.0429516
0.0428573
0.0427876
0.0427439
0.0427197
0.0427077
0.0427026
0.0427011
0.0427009
0.0427011
0.0427015
0.0427022
0.0427034
0.0427051
0.0427068
0.0427078
)
;
    }
    frontAndBack
    {
        type            empty;
    }
}


// ************************************************************************* //
