/*--------------------------------*- C++ -*----------------------------------*\
| =========                 |                                                 |
| \\      /  F ield         | OpenFOAM: The Open Source CFD Toolbox           |
|  \\    /   O peration     | Version:  2212                                  |
|   \\  /    A nd           | Website:  www.openfoam.com                      |
|    \\/     M anipulation  |                                                 |
\*---------------------------------------------------------------------------*/
FoamFile
{
    version     2.0;
    format      ascii;
    arch        "LSB;label=64;scalar=64";
    class       volScalarField;
    location    "1180";
    object      p_rgh;
}
// * * * * * * * * * * * * * * * * * * * * * * * * * * * * * * * * * * * * * //

dimensions      [0 2 -2 0 0 0 0];

internalField   nonuniform List<scalar> 
1024
(
0.0431947
0.0431924
0.0431905
0.043191
0.0431958
0.043206
0.0432229
0.0432477
0.0432797
0.0433127
0.0433326
0.0433278
0.0432934
0.0432308
0.0431503
0.0430549
0.0429516
0.0428573
0.0427876
0.0427439
0.0427197
0.0427077
0.0427026
0.0427011
0.0427009
0.0427011
0.0427015
0.0427022
0.0427034
0.0427051
0.0427068
0.0427078
0.0431992
0.0431969
0.0431955
0.0431966
0.0432015
0.0432115
0.0432281
0.0432525
0.0432842
0.0433168
0.0433365
0.0433318
0.0432981
0.0432357
0.0431553
0.0430598
0.0429564
0.0428621
0.0427924
0.0427488
0.0427245
0.0427123
0.0427071
0.0427052
0.0427049
0.0427049
0.0427051
0.0427055
0.0427064
0.0427077
0.0427092
0.0427102
0.0432063
0.0432037
0.0432025
0.0432044
0.0432102
0.0432209
0.0432382
0.0432633
0.043296
0.0433294
0.0433494
0.0433451
0.0433115
0.043249
0.0431682
0.0430721
0.042968
0.042873
0.0428028
0.0427587
0.0427341
0.0427215
0.0427157
0.0427134
0.0427125
0.042712
0.0427116
0.0427114
0.0427117
0.0427126
0.042714
0.0427153
0.0432135
0.0432106
0.0432097
0.0432129
0.0432205
0.0432334
0.0432532
0.0432811
0.0433165
0.0433519
0.0433727
0.0433686
0.0433347
0.0432719
0.0431906
0.0430938
0.0429886
0.0428919
0.04282
0.0427748
0.0427493
0.0427359
0.0427294
0.0427262
0.0427245
0.0427229
0.0427214
0.0427201
0.0427194
0.0427197
0.0427212
0.0427231
0.0432175
0.0432147
0.0432148
0.04322
0.0432308
0.0432479
0.0432723
0.043305
0.0433444
0.0433819
0.0434034
0.0433992
0.0433652
0.0433029
0.0432219
0.0431248
0.0430184
0.0429196
0.042845
0.0427978
0.0427708
0.0427562
0.0427485
0.0427442
0.042741
0.0427379
0.0427345
0.0427313
0.0427291
0.0427287
0.0427302
0.0427326
0.0432149
0.0432129
0.0432146
0.043223
0.0432386
0.0432619
0.0432932
0.0433324
0.0433758
0.0434145
0.0434354
0.0434304
0.0433968
0.0433364
0.0432574
0.0431616
0.0430551
0.0429546
0.0428768
0.0428272
0.0427984
0.0427822
0.0427728
0.0427667
0.0427615
0.042756
0.0427498
0.0427439
0.0427395
0.0427377
0.042739
0.0427418
0.0432037
0.0432029
0.043207
0.0432195
0.0432414
0.0432728
0.0433126
0.0433587
0.0434056
0.0434442
0.0434631
0.0434564
0.043423
0.0433656
0.0432901
0.0431973
0.0430925
0.0429916
0.0429111
0.0428595
0.0428293
0.0428114
0.0428
0.0427915
0.0427834
0.0427743
0.0427642
0.0427545
0.0427469
0.0427432
0.0427437
0.0427464
0.0431844
0.043185
0.0431917
0.0432086
0.0432376
0.0432782
0.0433275
0.0433809
0.0434311
0.043469
0.0434847
0.0434748
0.0434406
0.0433855
0.0433137
0.0432246
0.0431223
0.0430221
0.042941
0.042889
0.0428584
0.0428393
0.0428257
0.042814
0.0428019
0.0427879
0.0427725
0.0427576
0.042746
0.0427397
0.0427389
0.0427412
0.0431602
0.043162
0.0431709
0.0431921
0.0432282
0.0432784
0.0433378
0.0433992
0.0434536
0.043491
0.0435026
0.0434878
0.0434507
0.043396
0.0433262
0.0432394
0.0431386
0.0430387
0.0429586
0.0429077
0.042879
0.0428599
0.0428442
0.0428286
0.042811
0.0427906
0.0427684
0.0427474
0.0427313
0.0427221
0.0427197
0.042721
0.0431354
0.0431381
0.0431489
0.0431738
0.0432166
0.0432762
0.0433464
0.0434176
0.0434783
0.0435155
0.0435216
0.0434998
0.0434577
0.0434009
0.0433306
0.0432437
0.0431414
0.0430388
0.0429573
0.0429095
0.0428849
0.0428671
0.0428495
0.0428293
0.0428052
0.042777
0.0427472
0.0427202
0.0427002
0.0426889
0.0426849
0.042685
0.043114
0.0431173
0.0431297
0.0431581
0.0432074
0.0432768
0.0433594
0.0434429
0.0435116
0.0435481
0.0435468
0.0435161
0.0434667
0.0434052
0.0433321
0.0432436
0.0431376
0.0430282
0.0429375
0.0428939
0.0428735
0.0428575
0.042838
0.0428129
0.0427817
0.0427459
0.0427099
0.0426791
0.0426574
0.0426455
0.0426406
0.0426397
0.0430978
0.0431017
0.0431159
0.0431483
0.0432051
0.0432863
0.0433839
0.0434819
0.0435581
0.0435913
0.0435811
0.0435408
0.0434839
0.0434167
0.0433397
0.0432481
0.043138
0.0430208
0.0429221
0.0428639
0.0428424
0.0428287
0.0428085
0.0427799
0.0427441
0.0427048
0.0426678
0.0426382
0.0426183
0.0426074
0.0426025
0.0426008
0.0430854
0.0430901
0.0431072
0.043146
0.0432137
0.0433111
0.0434277
0.0435395
0.0436171
0.0436429
0.0436232
0.0435758
0.0435144
0.0434445
0.0433664
0.0432758
0.0431681
0.0430507
0.0429424
0.0428586
0.0428102
0.0427891
0.04277
0.0427456
0.0427136
0.042678
0.0426451
0.0426196
0.0426032
0.0425946
0.0425907
0.042589
0.0430709
0.0430772
0.0430999
0.0431499
0.0432357
0.0433565
0.0434954
0.043617
0.0436853
0.043698
0.0436714
0.0436235
0.0435657
0.0435022
0.0434323
0.0433541
0.0432662
0.0431722
0.0430814
0.0429981
0.0429219
0.0428523
0.0428007
0.0427746
0.0427417
0.0427054
0.0426737
0.0426511
0.0426386
0.0426339
0.0426334
0.0426336
0.0430465
0.043056
0.0430887
0.0431579
0.0432721
0.0434253
0.0435897
0.0437208
0.0437891
0.0437991
0.0437734
0.0437298
0.0436767
0.0436185
0.0435594
0.0435054
0.0434553
0.0434143
0.0433854
0.0433673
0.043352
0.0433257
0.0432699
0.0431715
0.0430609
0.0429572
0.0428883
0.0428503
0.0428326
0.0428295
0.0428336
0.0428377
0.0429587
0.0429726
0.0430162
0.0431044
0.043244
0.0434231
0.0436063
0.0437507
0.0438348
0.0438662
0.0438639
0.0438426
0.0438097
0.0437682
0.04372
0.0436694
0.0436405
0.043636
0.0436551
0.0436958
0.0437524
0.0438142
0.0438672
0.0438967
0.0438884
0.043833
0.0437274
0.0436031
0.0434964
0.0434281
0.043401
0.0433948
0.0427808
0.0427986
0.0428499
0.0429504
0.0431071
0.0433062
0.0435106
0.0436778
0.0437863
0.043842
0.0438621
0.0438607
0.043845
0.0438178
0.0437817
0.0437413
0.0437065
0.043696
0.0437075
0.0437382
0.0437861
0.0438461
0.0439109
0.0439716
0.0440204
0.0440525
0.0440669
0.0440651
0.0440502
0.044027
0.0440018
0.0439889
0.042577
0.0425976
0.0426526
0.0427579
0.0429224
0.0431354
0.0433611
0.0435557
0.0436929
0.0437747
0.0438154
0.0438302
0.0438279
0.0438127
0.0437883
0.0437596
0.0437323
0.0437138
0.0437052
0.0437049
0.0437143
0.0437347
0.0437654
0.0438028
0.0438418
0.0438771
0.043906
0.0439288
0.0439469
0.0439604
0.0439681
0.0439697
0.0424084
0.0424306
0.042486
0.0425885
0.042749
0.042966
0.0432075
0.0434279
0.0435952
0.0437044
0.043766
0.0437954
0.043804
0.0437988
0.0437853
0.043771
0.0437609
0.0437431
0.043726
0.0437074
0.0436868
0.0436678
0.0436556
0.043654
0.0436629
0.0436794
0.0436991
0.0437195
0.04374
0.0437599
0.0437753
0.043782
0.0422917
0.0423147
0.0423694
0.0424673
0.0426188
0.0428246
0.0430639
0.0432991
0.0434952
0.043635
0.043718
0.0437612
0.0437778
0.0437768
0.0437661
0.043755
0.0437565
0.0437479
0.0437354
0.0437199
0.0436948
0.0436581
0.0436165
0.0435801
0.0435566
0.0435482
0.0435521
0.0435636
0.0435795
0.0435981
0.0436147
0.043623
0.0422222
0.0422449
0.0422975
0.0423891
0.0425296
0.042721
0.0429492
0.0431843
0.043393
0.0435525
0.043656
0.0437127
0.0437349
0.0437335
0.0437185
0.0437007
0.0436941
0.0436969
0.0437012
0.0437032
0.0436958
0.0436665
0.0436198
0.043567
0.0435214
0.0434925
0.043482
0.0434847
0.0434952
0.0435103
0.0435256
0.0435338
0.0421905
0.0422118
0.0422602
0.0423439
0.0424725
0.0426484
0.0428611
0.0430861
0.0432936
0.0434591
0.0435721
0.043636
0.0436602
0.0436555
0.0436334
0.0436064
0.0435936
0.0436037
0.043622
0.0436418
0.043655
0.0436527
0.0436317
0.0435893
0.0435393
0.0435021
0.0434852
0.0434846
0.0434931
0.0435059
0.0435189
0.0435263
0.0421887
0.0422067
0.0422482
0.0423227
0.0424395
0.042601
0.0427977
0.0430076
0.0432032
0.0433605
0.0434689
0.0435289
0.0435481
0.0435366
0.0435066
0.0434728
0.0434575
0.0434746
0.0435063
0.043544
0.0435795
0.0436052
0.0436164
0.0436101
0.0435913
0.0435641
0.0435531
0.0435594
0.0435737
0.0435884
0.0436
0.0436061
0.0422102
0.0422231
0.0422556
0.0423196
0.0424253
0.0425747
0.0427574
0.0429502
0.0431262
0.0432635
0.0433534
0.0433974
0.043403
0.0433804
0.043342
0.0433042
0.0432908
0.0433147
0.0433593
0.0434146
0.0434729
0.043528
0.043576
0.0436141
0.0436424
0.0436622
0.0436791
0.0437041
0.0437358
0.0437607
0.0437738
0.0437792
0.0422452
0.0422524
0.0422759
0.04233
0.0424267
0.0425674
0.0427384
0.042913
0.0430638
0.0431721
0.0432329
0.0432513
0.0432362
0.0431985
0.0431514
0.0431117
0.0431022
0.0431308
0.043188
0.0432595
0.0433398
0.0434248
0.0435121
0.0436002
0.0436873
0.0437707
0.0438465
0.0439139
0.0439773
0.044026
0.0440479
0.0440555
0.0422836
0.0422853
0.0423016
0.0423506
0.0424424
0.0425779
0.0427384
0.0428929
0.0430139
0.043087
0.0431123
0.043099
0.0430592
0.0430046
0.0429487
0.0429077
0.0429024
0.0429373
0.043003
0.043088
0.0431879
0.0433012
0.0434281
0.0435687
0.0437207
0.0438791
0.0440336
0.0441736
0.0442917
0.0443854
0.0444315
0.0444493
0.0423142
0.0423125
0.0423275
0.0423768
0.042469
0.0426031
0.042753
0.0428841
0.0429712
0.0430055
0.0429929
0.0429465
0.0428815
0.04281
0.0427454
0.0427032
0.042702
0.042743
0.0428152
0.0429112
0.043028
0.0431668
0.0433302
0.043521
0.0437383
0.0439763
0.044222
0.0444576
0.0446647
0.0448318
0.0449312
0.0449756
0.0423217
0.0423212
0.0423431
0.0424039
0.0425028
0.042636
0.0427729
0.0428775
0.0429281
0.0429233
0.0428743
0.0427975
0.0427095
0.042623
0.0425513
0.0425088
0.0425118
0.0425585
0.0426369
0.0427425
0.0428735
0.0430335
0.0432278
0.0434619
0.0437374
0.044051
0.0443911
0.044738
0.0450661
0.0453471
0.0455431
0.0456451
0.0422764
0.0422895
0.0423361
0.0424232
0.0425365
0.0426679
0.0427882
0.0428631
0.0428779
0.0428376
0.0427572
0.0426556
0.0425497
0.0424526
0.0423769
0.0423361
0.0423443
0.0423967
0.0424815
0.0425953
0.0427376
0.0429137
0.0431312
0.043398
0.043719
0.044095
0.0445203
0.0449815
0.0454559
0.0459051
0.046257
0.0464888
0.0421166
0.0421904
0.0423036
0.0424343
0.0425661
0.042694
0.0427925
0.0428374
0.0428207
0.042752
0.0426484
0.0425297
0.042413
0.042311
0.042235
0.042198
0.0422119
0.0422699
0.0423606
0.0424807
0.0426307
0.0428173
0.0430497
0.0433373
0.0436878
0.0441064
0.0445953
0.045155
0.0457816
0.0464521
0.0470857
0.0476426
0.0416365
0.042026
0.0422829
0.0424611
0.0426024
0.0427186
0.0427935
0.0428122
0.0427714
0.0426829
0.0425647
0.0424364
0.0423149
0.0422119
0.0421379
0.042105
0.0421237
0.042186
0.0422809
0.0424047
0.0425588
0.0427506
0.0429899
0.0432871
0.0436513
0.0440909
0.0446149
0.0452386
0.0459887
0.046904
0.0480184
0.0492853
0.0406167
0.0418524
0.0423317
0.0425097
0.0426417
0.0427449
0.0428022
0.0428034
0.0427485
0.0426489
0.0425231
0.0423904
0.042267
0.0421643
0.0420918
0.0420612
0.0420823
0.0421467
0.0422433
0.0423684
0.0425237
0.0427167
0.0429574
0.0432565
0.0436233
0.0440676
0.0446027
0.0452551
0.0460807
0.0471913
0.0488095
0.0510832
)
;

boundaryField
{
    movingWall
    {
        type            fixedFluxPressure;
        gradient        uniform 0;
        value           nonuniform List<scalar> 
32
(
0.0406167
0.0418524
0.0423317
0.0425097
0.0426417
0.0427449
0.0428022
0.0428034
0.0427485
0.0426489
0.0425231
0.0423904
0.042267
0.0421643
0.0420918
0.0420612
0.0420823
0.0421467
0.0422433
0.0423684
0.0425237
0.0427167
0.0429574
0.0432565
0.0436233
0.0440676
0.0446027
0.0452551
0.0460807
0.0471913
0.0488095
0.0510832
)
;
    }
    fixedWalls
    {
        type            fixedFluxPressure;
        gradient        uniform 0;
        value           nonuniform List<scalar> 
64
(
0.0431947
0.0431992
0.0432063
0.0432135
0.0432175
0.0432149
0.0432037
0.0431844
0.0431602
0.0431354
0.043114
0.0430978
0.0430854
0.0430709
0.0430465
0.0429587
0.0427808
0.042577
0.0424084
0.0422917
0.0422222
0.0421905
0.0421887
0.0422102
0.0422452
0.0422836
0.0423142
0.0423217
0.0422764
0.0421166
0.0416365
0.0406167
0.0427078
0.0427102
0.0427153
0.0427231
0.0427326
0.0427418
0.0427464
0.0427412
0.042721
0.042685
0.0426397
0.0426008
0.042589
0.0426336
0.0428377
0.0433948
0.0439889
0.0439697
0.043782
0.043623
0.0435338
0.0435263
0.0436061
0.0437792
0.0440555
0.0444493
0.0449756
0.0456451
0.0464888
0.0476426
0.0492853
0.0510832
)
;
    }
    floor
    {
        type            fixedFluxPressure;
        gradient        uniform 0;
        value           nonuniform List<scalar> 
32
(
0.0431947
0.0431924
0.0431905
0.043191
0.0431958
0.043206
0.0432229
0.0432477
0.0432797
0.0433127
0.0433326
0.0433278
0.0432934
0.0432308
0.0431503
0.0430549
0.0429516
0.0428573
0.0427876
0.0427439
0.0427197
0.0427077
0.0427026
0.0427011
0.0427009
0.0427011
0.0427015
0.0427022
0.0427034
0.0427051
0.0427068
0.0427078
)
;
    }
    frontAndBack
    {
        type            empty;
    }
}


// ************************************************************************* //
