/*--------------------------------*- C++ -*----------------------------------*\
| =========                 |                                                 |
| \\      /  F ield         | OpenFOAM: The Open Source CFD Toolbox           |
|  \\    /   O peration     | Version:  2212                                  |
|   \\  /    A nd           | Website:  www.openfoam.com                      |
|    \\/     M anipulation  |                                                 |
\*---------------------------------------------------------------------------*/
FoamFile
{
    version     2.0;
    format      ascii;
    arch        "LSB;label=64;scalar=64";
    class       volScalarField;
    location    "1180";
    object      Sch4;
}
// * * * * * * * * * * * * * * * * * * * * * * * * * * * * * * * * * * * * * //

dimensions      [1 -3 0 0 0 0 0];

internalField   nonuniform List<scalar> 
1024
(
0.0346106
0.0346238
0.0346561
0.0347145
0.0348061
0.0349362
0.0351064
0.035312
0.0355419
0.0357797
0.0360055
0.0361982
0.0363383
0.0364119
0.0364073
0.0363136
0.036128
0.0358787
0.0355976
0.0352944
0.0349767
0.0346539
0.0343392
0.0340481
0.0337942
0.0335859
0.0334252
0.0333086
0.0332296
0.0331802
0.0331532
0.0331422
0.0346137
0.0346272
0.0346602
0.0347197
0.0348131
0.0349456
0.0351183
0.0353264
0.0355584
0.0357978
0.0360246
0.0362175
0.0363569
0.0364295
0.0364239
0.0363296
0.0361437
0.0358943
0.0356132
0.0353102
0.0349926
0.0346695
0.0343539
0.0340611
0.033805
0.0335943
0.0334314
0.0333131
0.0332328
0.0331827
0.0331553
0.0331442
0.0346212
0.0346351
0.0346693
0.034731
0.0348278
0.0349649
0.0351431
0.0353569
0.0355946
0.0358394
0.0360706
0.0362654
0.0364036
0.0364732
0.0364642
0.0363668
0.0361786
0.0359276
0.0356457
0.0353426
0.0350252
0.0347017
0.0343845
0.0340885
0.033828
0.0336125
0.0334451
0.0333231
0.0332402
0.0331885
0.0331603
0.0331488
0.0346343
0.0346487
0.0346844
0.0347491
0.0348507
0.0349946
0.0351813
0.0354053
0.0356544
0.0359112
0.0361531
0.0363534
0.0364902
0.0365537
0.0365368
0.0364314
0.0362364
0.0359802
0.035695
0.0353906
0.035073
0.0347492
0.0344299
0.0341297
0.0338632
0.0336407
0.0334666
0.0333392
0.0332524
0.0331982
0.0331687
0.0331566
0.0346539
0.034669
0.0347063
0.0347745
0.034882
0.0350347
0.0352337
0.0354737
0.0357423
0.0360208
0.0362826
0.0364944
0.0366302
0.0366835
0.0366517
0.0365307
0.0363213
0.0360531
0.0357597
0.035451
0.0351318
0.0348073
0.0344862
0.0341815
0.0339081
0.0336773
0.0334951
0.0333609
0.0332691
0.0332118
0.0331805
0.0331679
0.0346815
0.034697
0.034736
0.0348078
0.0349221
0.0350859
0.0353016
0.0355649
0.0358636
0.0361762
0.0364695
0.0367
0.0368361
0.0368743
0.0368193
0.036672
0.0364368
0.0361462
0.0358364
0.0355178
0.0351943
0.0348681
0.0345452
0.0342367
0.0339568
0.0337179
0.0335274
0.0333861
0.033289
0.0332283
0.0331952
0.0331819
0.0347188
0.0347347
0.0347751
0.0348507
0.0349725
0.0351499
0.0353875
0.0356829
0.036024
0.0363847
0.0367217
0.0369786
0.0371165
0.037135
0.0370473
0.0368614
0.0365859
0.0362583
0.0359199
0.035583
0.0352498
0.0349196
0.0345949
0.034284
0.0339997
0.0337547
0.0335577
0.0334105
0.033309
0.0332455
0.0332108
0.0331968
0.0347691
0.0347852
0.034827
0.0349065
0.0350369
0.0352307
0.0354961
0.0358334
0.0362299
0.0366525
0.0370439
0.0373332
0.037474
0.0374684
0.0373395
0.0371028
0.0367707
0.0363877
0.0360041
0.0356365
0.0352857
0.0349475
0.0346203
0.0343088
0.0340237
0.0337769
0.0335774
0.0334278
0.0333243
0.0332594
0.0332239
0.0332096
0.0348377
0.0348541
0.0348974
0.0349814
0.0351221
0.0353359
0.0356357
0.036025
0.0364893
0.0369854
0.0374385
0.0377627
0.0379053
0.0378719
0.0376963
0.0373996
0.0369949
0.0365349
0.0360846
0.035669
0.0352892
0.0349368
0.0346055
0.0342957
0.0340147
0.0337725
0.0335769
0.0334303
0.0333288
0.0332651
0.0332301
0.033216
0.0349339
0.0349508
0.0349961
0.0350859
0.0352395
0.0354781
0.0358199
0.0362715
0.0368147
0.037392
0.0379088
0.0382651
0.038406
0.0383438
0.0381223
0.0377637
0.0372745
0.0367137
0.0361688
0.035681
0.0352546
0.0348778
0.0345387
0.0342324
0.0339614
0.0337315
0.033548
0.0334114
0.0333173
0.0332581
0.0332257
0.0332125
0.0350718
0.0350894
0.0351381
0.0352361
0.0354069
0.0356771
0.0360701
0.0365945
0.0372251
0.0378865
0.0384631
0.0388443
0.0389804
0.038896
0.0386428
0.0382352
0.0376613
0.0369794
0.0363063
0.0357089
0.0352053
0.0347832
0.0344259
0.0341211
0.0338638
0.0336536
0.0334904
0.0333714
0.0332909
0.0332412
0.0332144
0.0332037
0.0352705
0.0352898
0.0353437
0.0354541
0.0356489
0.03596
0.0364156
0.0370235
0.0377468
0.0384892
0.0391165
0.0395159
0.0396533
0.0395717
0.0393254
0.0389105
0.038283
0.0374846
0.0366527
0.035891
0.0352532
0.0347398
0.0343317
0.0340099
0.0337594
0.0335695
0.0334319
0.0333384
0.0332804
0.0332487
0.0332343
0.0332299
0.0355536
0.0355755
0.0356378
0.0357663
0.0359944
0.0363591
0.0368907
0.0375915
0.0384085
0.0392237
0.039892
0.0403129
0.0404808
0.040459
0.0402969
0.0399646
0.0393782
0.0385385
0.0375779
0.036625
0.0357753
0.0350755
0.0345285
0.0341219
0.0338325
0.0336391
0.0335219
0.0334619
0.0334415
0.0334443
0.0334558
0.0334648
0.0359436
0.0359694
0.0360436
0.0361977
0.0364709
0.0369041
0.037526
0.0383272
0.0392343
0.040112
0.0408188
0.0412857
0.0415451
0.041675
0.0417132
0.0416129
0.0412614
0.0405968
0.0396991
0.0386852
0.0376666
0.0367301
0.0359284
0.0353017
0.0348422
0.034546
0.0343909
0.0343399
0.0343535
0.0343962
0.0344401
0.0344666
0.0364542
0.0364858
0.036577
0.0367656
0.0370968
0.0376128
0.0383343
0.0392335
0.0402163
0.0411433
0.0418976
0.0424531
0.0428732
0.043237
0.0435749
0.0438545
0.043977
0.0438296
0.0434025
0.0427518
0.0419474
0.041065
0.0401801
0.0393618
0.0386484
0.0380859
0.037696
0.0374668
0.037365
0.0373456
0.0373636
0.0373835
0.0370279
0.0370643
0.0371681
0.0373804
0.0377482
0.0383115
0.039083
0.0400262
0.0410484
0.042027
0.0428678
0.0435552
0.0441468
0.0447126
0.0452903
0.0458919
0.0464855
0.0469828
0.0473108
0.0474482
0.0473862
0.0471323
0.0467092
0.0461543
0.0455225
0.0448747
0.0442738
0.0437739
0.0434096
0.0431845
0.0430732
0.0430367
0.0375087
0.0375463
0.0376509
0.0378616
0.0382226
0.0387715
0.0395204
0.0404385
0.0414465
0.0424358
0.0433135
0.0440445
0.0446558
0.045197
0.0457075
0.0462321
0.0468196
0.0474934
0.0482081
0.0489042
0.0495202
0.0500062
0.0503267
0.0504628
0.050415
0.0502067
0.0498854
0.0495187
0.0491765
0.048912
0.0487479
0.0486781
0.0377999
0.0378369
0.0379359
0.0381303
0.0384592
0.0389572
0.0396392
0.0404835
0.0414258
0.0423702
0.0432217
0.0439214
0.0444607
0.0448616
0.0451545
0.0453901
0.0456704
0.0461314
0.0467899
0.047587
0.0484425
0.0492788
0.0500304
0.0506485
0.0511037
0.0513876
0.0515127
0.0515115
0.0514321
0.0513276
0.0512416
0.0511972
0.0379273
0.0379634
0.0380555
0.0382303
0.0385202
0.0389561
0.0395548
0.0403041
0.0411541
0.0420226
0.0428189
0.0434718
0.0439484
0.04425
0.0444
0.0444528
0.0445337
0.0448263
0.0453885
0.0461866
0.0471497
0.0481871
0.0492024
0.0501107
0.050853
0.051403
0.0517648
0.0519653
0.0520459
0.0520539
0.0520334
0.0520155
0.037936
0.0379714
0.0380572
0.0382139
0.0384665
0.0388408
0.0393536
0.0400001
0.0407436
0.0415173
0.0422402
0.0428403
0.0432737
0.0435301
0.0436308
0.043635
0.0436754
0.0439221
0.0444305
0.045191
0.0461648
0.0472854
0.0484616
0.0495883
0.0505711
0.0513481
0.0518989
0.0522409
0.0524172
0.0524824
0.05249
0.0524817
0.0378645
0.0378984
0.0379781
0.0381187
0.0383388
0.038658
0.0390907
0.0396359
0.0402677
0.040934
0.0415684
0.042107
0.0425074
0.042758
0.0428823
0.0429447
0.0430715
0.043384
0.0439098
0.0446518
0.0455968
0.04671
0.0479283
0.0491586
0.0502964
0.0512522
0.0519735
0.0524535
0.0527249
0.0528443
0.0528752
0.0528727
0.0377606
0.0377902
0.0378599
0.0379821
0.0381712
0.0384414
0.0388029
0.0392548
0.0397786
0.0403355
0.0408757
0.0413517
0.0417324
0.0420134
0.0422222
0.0424252
0.0427218
0.0431684
0.0437629
0.0445146
0.045428
0.0464941
0.0476786
0.0489161
0.0501166
0.0511816
0.0520322
0.0526328
0.0529959
0.0531711
0.0532269
0.0532301
0.0377003
0.0377195
0.0377682
0.0378602
0.0380097
0.0382288
0.038524
0.0388926
0.0393206
0.0397811
0.0402428
0.040678
0.041072
0.041429
0.0417774
0.0421761
0.0426806
0.0432816
0.0439572
0.0447238
0.0456011
0.0465999
0.0477087
0.0488876
0.05007
0.05117
0.0520983
0.0527922
0.0532374
0.0534682
0.0535507
0.0535606
0.0377925
0.0377917
0.0378016
0.0378406
0.037929
0.0380828
0.0383088
0.0386041
0.0389587
0.0393572
0.0397851
0.0402316
0.0406932
0.0411763
0.0417019
0.0423125
0.0430144
0.0437466
0.0444815
0.045246
0.0460712
0.0469822
0.0479863
0.0490652
0.0501736
0.0512438
0.0521931
0.0529441
0.0534552
0.0537379
0.0538484
0.0538659
0.0381589
0.0381278
0.0380795
0.0380405
0.0380428
0.0381139
0.0382683
0.0385077
0.0388274
0.0392202
0.0396804
0.0402029
0.0407834
0.0414212
0.0421233
0.0429135
0.0437581
0.0445666
0.045318
0.0460507
0.0468028
0.0476074
0.0484842
0.0494322
0.0504262
0.0514174
0.0523355
0.0531018
0.0536556
0.0539821
0.0541203
0.0541467
0.0389012
0.0388328
0.0387172
0.0385923
0.0385044
0.0384964
0.0385968
0.0388155
0.0391514
0.0395975
0.0401449
0.0407811
0.0414917
0.0422643
0.0430931
0.0439877
0.0448923
0.0457084
0.0464272
0.0470958
0.047755
0.0484401
0.0491762
0.0499735
0.0508236
0.051697
0.0525396
0.0532792
0.0538461
0.0542031
0.0543667
0.0544028
0.0400782
0.0399731
0.0398053
0.039627
0.0394916
0.0394506
0.039544
0.0397873
0.0401778
0.0407019
0.0413401
0.0420682
0.042861
0.0436979
0.0445664
0.0454689
0.0463447
0.0471029
0.047746
0.0483241
0.0488764
0.0494358
0.0500277
0.0506675
0.0513577
0.0520855
0.0528157
0.0534893
0.0540364
0.0544049
0.054588
0.0546343
0.0417084
0.0415803
0.0414106
0.0412587
0.0411639
0.0411662
0.0413056
0.0415973
0.0420366
0.0426047
0.0432754
0.0440177
0.0448027
0.0456078
0.0464197
0.0472388
0.0480105
0.0486603
0.0491971
0.0496679
0.0501067
0.0505415
0.0509946
0.0514814
0.05201
0.0525788
0.0531702
0.0537434
0.0542373
0.0545932
0.0547855
0.0548411
0.0437978
0.0436792
0.0435898
0.0435615
0.0435907
0.0436906
0.0438913
0.0442086
0.0446424
0.0451773
0.0457889
0.0464488
0.0471307
0.0478154
0.0484915
0.0491595
0.0497765
0.0502866
0.0507007
0.0510573
0.0513834
0.0517007
0.0520264
0.0523736
0.0527508
0.0531623
0.0536028
0.05405
0.0544594
0.0547758
0.0549619
0.0550233
0.0463778
0.0463246
0.0463927
0.0465278
0.0466847
0.0468619
0.047083
0.0473675
0.0477239
0.0481458
0.0486171
0.0491172
0.0496266
0.0501313
0.0506232
0.0511027
0.05154
0.0518976
0.0521846
0.0524285
0.0526485
0.0528594
0.053073
0.0532986
0.0535429
0.053811
0.0541038
0.0544127
0.0547123
0.0549616
0.0551218
0.0551818
0.0495389
0.0496073
0.0498039
0.0500059
0.0501884
0.0503563
0.0505269
0.0507191
0.0509447
0.0512043
0.0514904
0.0517914
0.052096
0.0523958
0.0526859
0.0529665
0.0532206
0.0534272
0.0535918
0.0537305
0.0538544
0.0539719
0.0540897
0.054213
0.0543458
0.0544915
0.0546521
0.0548258
0.0550024
0.05516
0.0552712
0.0553188
0.0534061
0.0534643
0.0535719
0.0536671
0.0537469
0.0538154
0.0538791
0.0539461
0.0540217
0.0541075
0.0542015
0.0543001
0.0543996
0.0544972
0.0545913
0.054682
0.054764
0.0548304
0.0548832
0.0549274
0.0549668
0.0550039
0.0550409
0.0550793
0.0551205
0.0551655
0.0552152
0.0552694
0.0553257
0.0553783
0.0554186
0.0554381
)
;

boundaryField
{
    movingWall
    {
        type            fixedValue;
        value           uniform 0.0555;
    }
    fixedWalls
    {
        type            zeroGradient;
    }
    floor
    {
        type            zeroGradient;
    }
    frontAndBack
    {
        type            empty;
    }
}


// ************************************************************************* //
