/*--------------------------------*- C++ -*----------------------------------*\
| =========                 |                                                 |
| \\      /  F ield         | OpenFOAM: The Open Source CFD Toolbox           |
|  \\    /   O peration     | Version:  2206                                  |
|   \\  /    A nd           | Website:  www.openfoam.com                      |
|    \\/     M anipulation  |                                                 |
\*---------------------------------------------------------------------------*/
FoamFile
{
    version     2.0;
    format      ascii;
    arch        "LSB;label=64;scalar=64";
    class       volVectorField;
    location    "766800";
    object      U;
}
// * * * * * * * * * * * * * * * * * * * * * * * * * * * * * * * * * * * * * //

dimensions      [0 1 -1 0 0 0 0];

internalField   nonuniform List<vector> 
16
(
(-7.17826e-08 2.61136e-08 0)
(-2.99039e-08 -4.74506e-08 0)
(8.01566e-08 -1.23553e-08 0)
(2.75905e-08 3.98703e-08 0)
(-1.73885e-08 7.73961e-08 0)
(-2.58107e-08 -1.07592e-07 0)
(-2.45161e-08 -4.13812e-08 0)
(-1.36465e-08 6.54981e-08 0)
(4.42092e-08 6.91667e-08 0)
(2.08847e-08 -4.19366e-08 0)
(-6.50553e-08 -2.39549e-08 0)
(-2.10697e-08 1.40044e-09 0)
(3.97045e-08 1.32973e-08 0)
(4.02935e-08 2.70165e-09 0)
(3.68843e-09 -1.04677e-09 0)
(1.35144e-08 -1.89369e-08 0)
)
;

boundaryField
{
    movingWall
    {
        type            noSlip;
    }
    fixedWalls
    {
        type            noSlip;
    }
    frontAndBack
    {
        type            empty;
    }
}


// ************************************************************************* //
