/*--------------------------------*- C++ -*----------------------------------*\
| =========                 |                                                 |
| \\      /  F ield         | OpenFOAM: The Open Source CFD Toolbox           |
|  \\    /   O peration     | Version:  2212                                  |
|   \\  /    A nd           | Website:  www.openfoam.com                      |
|    \\/     M anipulation  |                                                 |
\*---------------------------------------------------------------------------*/
FoamFile
{
    version     2.0;
    format      ascii;
    arch        "LSB;label=64;scalar=64";
    class       surfaceScalarField;
    location    "1260";
    object      phi;
}
// * * * * * * * * * * * * * * * * * * * * * * * * * * * * * * * * * * * * * //

dimensions      [0 3 -1 0 0 0 0];

oriented        oriented;

internalField   nonuniform List<scalar> 
1984
(
-8.59754e-10
8.63871e-10
-1.06984e-08
9.83885e-09
-3.14086e-08
2.07101e-08
-6.00611e-08
2.86526e-08
-9.27111e-08
3.265e-08
-1.25897e-07
3.3186e-08
-1.5594e-07
3.00432e-08
-1.76791e-07
2.08509e-08
-1.77398e-07
6.06336e-10
-1.39668e-07
-3.77294e-08
-5.44318e-08
-8.52365e-08
5.73316e-08
-1.11763e-07
1.52451e-07
-9.51196e-08
2.10248e-07
-5.77968e-08
2.31172e-07
-2.09244e-08
2.23525e-07
7.64724e-09
2.004e-07
2.31246e-08
1.74011e-07
2.63893e-08
1.48376e-07
2.56355e-08
1.24957e-07
2.34188e-08
1.04225e-07
2.07318e-08
8.63263e-08
1.78985e-08
7.11632e-08
1.51631e-08
5.82582e-08
1.29051e-08
4.67137e-08
1.15445e-08
3.55909e-08
1.11227e-08
2.45194e-08
1.10716e-08
1.41424e-08
1.0377e-08
5.84918e-09
8.29322e-09
9.00423e-10
4.94875e-09
-5.60322e-10
1.46075e-09
-5.60269e-10
-1.07924e-08
1.16565e-08
-4.76162e-08
4.66625e-08
-1.11655e-07
8.47491e-08
-1.96682e-07
1.13679e-07
-2.92301e-07
1.28269e-07
-3.86979e-07
1.27864e-07
-4.67498e-07
1.10562e-07
-5.152e-07
6.85531e-08
-5.00389e-07
-1.42053e-08
-3.82113e-07
-1.56005e-07
-1.34339e-07
-3.3301e-07
1.86618e-07
-4.32721e-07
4.64647e-07
-3.73148e-07
6.47132e-07
-2.40282e-07
7.28271e-07
-1.02063e-07
7.23523e-07
1.23956e-08
6.65152e-07
8.14951e-08
5.89493e-07
1.02049e-07
5.11277e-07
1.03851e-07
4.36862e-07
9.78332e-08
3.68879e-07
8.87155e-08
3.08451e-07
7.83259e-08
2.55677e-07
6.79372e-08
2.09447e-07
5.91347e-08
1.67564e-07
5.34281e-08
1.27864e-07
5.08228e-08
8.9786e-08
4.91495e-08
5.52431e-08
4.492e-08
2.76609e-08
3.58754e-08
9.73157e-09
2.28781e-08
1.52768e-09
9.66478e-09
9.6742e-10
-2.52692e-08
3.69256e-08
-9.63035e-08
1.17697e-07
-2.0905e-07
1.97496e-07
-3.52588e-07
2.57217e-07
-5.10043e-07
2.85724e-07
-6.60943e-07
2.78764e-07
-7.81076e-07
2.30695e-07
-8.38969e-07
1.26446e-07
-7.89726e-07
-6.34485e-08
-5.79638e-07
-3.66094e-07
-1.72963e-07
-7.39685e-07
3.4205e-07
-9.47734e-07
7.96947e-07
-8.28045e-07
1.11995e-06
-5.63283e-07
1.2897e-06
-2.71817e-07
1.31572e-06
-1.36205e-08
1.23919e-06
1.58022e-07
1.12072e-06
2.20523e-07
9.88886e-07
2.35682e-07
8.57525e-07
2.29194e-07
7.33221e-07
2.1302e-07
6.1923e-07
1.92317e-07
5.16632e-07
1.70535e-07
4.24386e-07
1.5138e-07
3.39797e-07
1.38018e-07
2.60247e-07
1.30373e-07
1.85422e-07
1.23975e-07
1.18366e-07
1.11976e-07
6.4065e-08
9.01761e-08
2.6418e-08
6.05252e-08
5.96769e-09
3.01151e-08
6.93512e-09
-3.8866e-08
7.57917e-08
-1.42954e-07
2.21785e-07
-3.01817e-07
3.56358e-07
-4.98242e-07
4.53642e-07
-7.08252e-07
4.95734e-07
-9.02331e-07
4.72843e-07
-1.04542e-06
3.73786e-07
-1.09442e-06
1.75442e-07
-9.94116e-07
-1.63751e-07
-6.88612e-07
-6.71598e-07
-1.46259e-07
-1.28204e-06
5.17085e-07
-1.61108e-06
1.11922e-06
-1.43019e-06
1.58374e-06
-1.0278e-06
1.86765e-06
-5.55731e-07
1.9603e-06
-1.06272e-07
1.89484e-06
2.23486e-07
1.75209e-06
3.63273e-07
1.57611e-06
4.11658e-07
1.38997e-06
4.15334e-07
1.20588e-06
3.97116e-07
1.03056e-06
3.67638e-07
8.67228e-07
3.33864e-07
7.16108e-07
3.025e-07
5.7534e-07
2.78786e-07
4.42946e-07
2.62767e-07
3.19362e-07
2.47559e-07
2.08677e-07
2.22661e-07
1.17376e-07
1.81476e-07
5.12168e-08
1.26685e-07
1.25768e-08
6.87551e-08
1.9512e-08
-4.63362e-08
1.22128e-07
-1.70438e-07
3.45887e-07
-3.59231e-07
5.45152e-07
-5.91103e-07
6.85513e-07
-8.35637e-07
7.40269e-07
-1.05465e-06
6.91855e-07
-1.20287e-06
5.22006e-07
-1.22704e-06
1.99616e-07
-1.06687e-06
-3.23922e-07
-6.73433e-07
-1.06504e-06
-3.85793e-08
-1.91689e-06
7.04366e-07
-2.35402e-06
1.4065e-06
-2.13232e-06
1.99154e-06
-1.61283e-06
2.39808e-06
-9.62277e-07
2.5905e-06
-2.98688e-07
2.57415e-06
2.39833e-07
2.43665e-06
5.00778e-07
2.23798e-06
6.10324e-07
2.01056e-06
6.42753e-07
1.77287e-06
6.34811e-07
1.53601e-06
6.04497e-07
1.30644e-06
5.63432e-07
1.08701e-06
5.21931e-07
8.7827e-07
4.87524e-07
6.80301e-07
4.60736e-07
4.95154e-07
4.32707e-07
3.28403e-07
3.89411e-07
1.88594e-07
3.21285e-07
8.44268e-08
2.30852e-07
2.13882e-08
1.31794e-07
4.09002e-08
-4.31935e-08
1.65321e-07
-1.63304e-07
4.65997e-07
-3.51913e-07
7.33761e-07
-5.89087e-07
9.22688e-07
-8.41701e-07
9.92882e-07
-1.06465e-06
9.1481e-07
-1.20328e-06
6.60635e-07
-1.19505e-06
1.91381e-07
-9.77556e-07
-5.41416e-07
-5.13227e-07
-1.52937e-06
1.53651e-07
-2.58377e-06
9.01432e-07
-3.10181e-06
1.64997e-06
-2.88085e-06
2.31104e-06
-2.27391e-06
2.81985e-06
-1.47109e-06
3.12587e-06
-6.04705e-07
3.1933e-06
1.72404e-07
3.09455e-06
5.99528e-07
2.90317e-06
8.01702e-07
2.65874e-06
8.87185e-07
2.38493e-06
9.08621e-07
2.09704e-06
8.92388e-07
1.8052e-06
8.55269e-07
1.5159e-06
8.11229e-07
1.23341e-06
7.70021e-07
9.61305e-07
7.32839e-07
7.04608e-07
6.89403e-07
4.71579e-07
6.22441e-07
2.73923e-07
5.1894e-07
1.24274e-07
3.80502e-07
3.19817e-08
2.24086e-07
7.2882e-08
-2.83345e-08
1.93656e-07
-1.15647e-07
5.53309e-07
-2.64998e-07
8.83112e-07
-4.66523e-07
1.12421e-06
-6.92055e-07
1.21841e-06
-8.94708e-07
1.11746e-06
-1.01257e-06
7.785e-07
-9.73131e-07
1.5194e-07
-7.11719e-07
-8.02828e-07
-2.11592e-07
-2.02949e-06
4.24634e-07
-3.21999e-06
1.12109e-06
-3.79827e-06
1.85277e-06
-3.61253e-06
2.52674e-06
-2.94788e-06
3.08747e-06
-2.03182e-06
3.48854e-06
-1.00578e-06
3.65549e-06
5.46173e-09
3.62236e-06
6.32651e-07
3.46906e-06
9.55001e-07
3.23754e-06
1.11871e-06
2.95381e-06
1.19234e-06
2.6358e-06
1.2104e-06
2.29673e-06
1.19434e-06
1.94689e-06
1.16107e-06
1.59487e-06
1.12204e-06
1.24892e-06
1.07879e-06
9.18654e-07
1.01967e-06
6.16828e-07
9.24267e-07
3.59634e-07
7.76134e-07
1.6395e-07
5.76186e-07
4.24755e-08
3.45561e-07
1.15357e-07
-5.83454e-09
1.99491e-07
-3.72256e-08
5.847e-07
-1.09499e-07
9.55386e-07
-2.28831e-07
1.24354e-06
-3.822e-07
1.37178e-06
-5.30701e-07
1.26596e-06
-6.1278e-07
8.60579e-07
-5.43218e-07
8.23785e-08
-2.52898e-07
-1.09315e-06
2.1652e-07
-2.49891e-06
7.62011e-07
-3.76549e-06
1.36499e-06
-4.40125e-06
2.00937e-06
-4.25691e-06
2.62079e-06
-3.5593e-06
3.16228e-06
-2.57331e-06
3.60582e-06
-1.44932e-06
3.85661e-06
-2.45335e-07
3.90548e-06
5.8378e-07
3.81459e-06
1.04589e-06
3.62489e-06
1.30841e-06
3.36098e-06
1.45625e-06
3.04072e-06
1.53066e-06
2.67884e-06
1.55623e-06
2.28863e-06
1.55128e-06
1.88301e-06
1.52766e-06
1.47573e-06
1.48607e-06
1.08275e-06
1.41265e-06
7.23367e-07
1.28365e-06
4.19149e-07
1.08035e-06
1.89967e-07
8.05368e-07
4.89921e-08
4.86536e-07
1.6435e-07
1.65933e-08
1.82897e-07
4.76557e-08
5.53638e-07
7.25669e-08
9.30475e-07
7.22515e-08
1.24386e-06
4.03366e-08
1.4037e-06
-4.02095e-09
1.31032e-06
-3.79468e-09
8.60352e-07
1.08614e-07
-3.00299e-08
3.74202e-07
-1.35874e-06
7.42825e-07
-2.86753e-06
1.15427e-06
-4.17693e-06
1.60553e-06
-4.8525e-06
2.08121e-06
-4.73259e-06
2.54368e-06
-4.02177e-06
2.98392e-06
-3.01356e-06
3.40078e-06
-1.86618e-06
3.7018e-06
-5.46352e-07
3.82765e-06
4.5793e-07
3.81134e-06
1.0622e-06
3.68649e-06
1.43327e-06
3.47146e-06
1.67128e-06
3.18027e-06
1.82185e-06
2.82659e-06
1.90991e-06
2.42529e-06
1.95258e-06
1.99337e-06
1.95958e-06
1.55106e-06
1.92838e-06
1.1228e-06
1.84091e-06
7.36103e-07
1.67035e-06
4.17166e-07
1.39929e-06
1.84773e-07
1.03776e-06
4.65633e-08
6.24746e-07
2.10913e-07
3.30514e-08
1.49846e-07
1.16946e-07
4.69742e-07
2.3426e-07
8.13161e-07
3.62705e-07
1.11541e-06
4.84684e-07
1.28172e-06
5.98677e-07
1.19633e-06
7.22198e-07
7.36831e-07
8.86079e-07
-1.93911e-07
1.09205e-06
-1.56471e-06
1.32677e-06
-3.10225e-06
1.55386e-06
-4.40403e-06
1.76676e-06
-5.06539e-06
1.97408e-06
-4.93991e-06
2.18842e-06
-4.23611e-06
2.43773e-06
-3.26286e-06
2.75422e-06
-2.18267e-06
3.06489e-06
-8.57017e-07
3.25393e-06
2.68885e-07
3.31573e-06
1.00039e-06
3.27544e-06
1.47356e-06
3.13901e-06
1.80771e-06
2.91204e-06
2.04882e-06
2.60386e-06
2.21808e-06
2.22946e-06
2.32698e-06
1.81037e-06
2.37868e-06
1.37552e-06
2.36323e-06
9.60286e-07
2.25614e-06
6.0038e-07
2.03025e-06
3.21817e-07
1.67785e-06
1.3419e-07
1.22539e-06
3.16118e-08
7.27324e-07
2.42525e-07
4.01313e-08
1.09715e-07
1.54386e-07
3.55488e-07
3.35361e-07
6.32186e-07
5.64952e-07
8.85823e-07
8.20154e-07
1.02652e-06
1.08188e-06
9.34604e-07
1.33835e-06
4.80361e-07
1.57941e-06
-4.34971e-07
1.7561e-06
-1.7414e-06
1.84173e-06
-3.18789e-06
1.81486e-06
-4.37716e-06
1.68573e-06
-4.93626e-06
1.50992e-06
-4.7641e-06
1.36973e-06
-4.09592e-06
1.33465e-06
-3.22778e-06
1.46805e-06
-2.31607e-06
1.74522e-06
-1.13418e-06
1.98852e-06
2.55792e-08
2.13706e-06
8.51856e-07
2.21197e-06
1.39866e-06
2.19432e-06
1.82536e-06
2.07754e-06
2.1656e-06
1.86353e-06
2.43209e-06
1.56768e-06
2.62283e-06
1.21915e-06
2.72721e-06
8.59078e-07
2.7233e-06
5.35399e-07
2.57982e-06
2.85955e-07
2.2797e-06
1.23818e-07
1.83999e-06
3.81724e-08
1.31103e-06
5.20657e-09
7.60289e-07
2.47731e-07
3.71348e-08
7.25797e-08
1.53512e-07
2.3911e-07
3.54485e-07
4.31213e-07
6.32726e-07
6.07582e-07
9.692e-07
6.90043e-07
1.33741e-06
5.66391e-07
1.70448e-06
1.13292e-07
1.99562e-06
-7.26107e-07
2.1218e-06
-1.86758e-06
2.01528e-06
-3.08137e-06
1.64774e-06
-4.00962e-06
1.06263e-06
-4.35114e-06
3.89554e-07
-4.09103e-06
-1.93319e-07
-3.51305e-06
-5.87288e-07
-2.83382e-06
-7.3524e-07
-2.16812e-06
-6.09862e-07
-1.25956e-06
-3.14332e-07
-2.69951e-07
1.932e-09
5.35591e-07
2.47648e-07
1.15294e-06
4.16683e-07
1.65632e-06
4.83206e-07
2.09907e-06
4.40804e-07
2.4745e-06
3.10689e-07
2.75295e-06
1.36889e-07
2.90101e-06
-2.69247e-08
2.88711e-06
-1.36915e-07
2.68981e-06
-1.71605e-07
2.31439e-06
-1.43132e-07
1.81152e-06
-8.30351e-08
1.25094e-06
-2.6182e-08
7.03436e-07
2.21549e-07
3.03739e-08
4.22057e-08
1.28672e-07
1.40812e-07
3.08143e-07
2.51742e-07
5.73909e-07
3.41817e-07
9.1598e-07
3.47972e-07
1.30242e-06
1.79948e-07
1.67004e-06
-2.54327e-07
1.89952e-06
-9.55587e-07
1.85561e-06
-1.82367e-06
1.43058e-06
-2.65633e-06
5.66615e-07
-3.14566e-06
-6.03565e-07
-3.18096e-06
-1.80791e-06
-2.88668e-06
-2.84882e-06
-2.47215e-06
-3.65533e-06
-2.0273e-06
-4.1783e-06
-1.64515e-06
-4.28083e-06
-1.15702e-06
-3.98449e-06
-5.66288e-07
-3.50407e-06
5.5166e-08
-2.98849e-06
6.37358e-07
-2.51049e-06
1.17833e-06
-2.10259e-06
1.69118e-06
-1.79186e-06
2.16376e-06
-1.56292e-06
2.52401e-06
-1.37125e-06
2.70934e-06
-1.16924e-06
2.6851e-06
-9.33952e-07
2.45452e-06
-6.74091e-07
2.05453e-06
-4.16836e-07
1.55426e-06
-1.99084e-07
1.03318e-06
-5.36861e-08
5.58039e-07
1.67863e-07
1.86902e-08
2.35155e-08
8.70028e-08
7.24996e-08
2.16561e-07
1.22184e-07
4.11118e-07
1.47259e-07
6.61838e-07
9.72515e-08
9.26235e-07
-8.44485e-08
1.08395e-06
-4.12045e-07
9.89409e-07
-8.61043e-07
4.68079e-07
-1.30234e-06
-5.95361e-07
-1.59289e-06
-2.11355e-06
-1.62747e-06
-3.82848e-06
-1.46603e-06
-5.5034e-06
-1.21175e-06
-7.03906e-06
-9.36492e-07
-8.35928e-06
-7.07084e-07
-9.36894e-06
-6.35486e-07
-9.805e-06
-7.20968e-07
-9.59175e-06
-7.79539e-07
-8.85125e-06
-6.85333e-07
-7.83565e-06
-3.78239e-07
-6.75831e-06
1.00983e-07
-5.67578e-06
6.08646e-07
-4.66584e-06
1.15383e-06
-3.76331e-06
1.62148e-06
-2.96643e-06
1.91246e-06
-2.23705e-06
1.95572e-06
-1.58679e-06
1.80425e-06
-1.02999e-06
1.49772e-06
-5.82073e-07
1.10635e-06
-2.58091e-07
7.09203e-07
-6.53117e-08
3.65259e-07
1.02551e-07
4.51409e-09
1.90014e-08
1.33539e-09
7.56783e-08
-1.99551e-08
1.43474e-07
-7.26059e-08
1.9991e-07
-1.92553e-07
2.17199e-07
-4.55613e-07
1.78611e-07
-9.69999e-07
1.02341e-07
-1.87464e-06
4.35961e-08
-3.2488e-06
7.18229e-08
-5.07889e-06
2.37189e-07
-7.17847e-06
4.72116e-07
-9.34754e-06
7.03047e-07
-1.14503e-05
8.90988e-07
-1.33917e-05
1.00495e-06
-1.50825e-05
9.83711e-07
-1.642e-05
7.02034e-07
-1.7092e-05
-4.89999e-08
-1.6997e-05
-8.74591e-07
-1.61946e-05
-1.48772e-06
-1.47633e-05
-1.8095e-06
-1.28318e-05
-1.83054e-06
-1.06416e-05
-1.5815e-06
-8.35881e-06
-1.129e-06
-6.16667e-06
-5.7066e-07
-4.25543e-06
1.22294e-09
-2.69289e-06
3.93182e-07
-1.54778e-06
6.59142e-07
-7.93506e-07
7.43448e-07
-3.48463e-07
6.61304e-07
-1.16052e-07
4.76792e-07
-1.95224e-08
2.6873e-07
8.3029e-08
-1.05587e-07
1.24588e-07
-4.15182e-07
3.85274e-07
-9.41358e-07
6.69651e-07
-1.69159e-06
9.50141e-07
-2.6756e-06
1.20121e-06
-3.9145e-06
1.41751e-06
-5.42792e-06
1.61577e-06
-7.19897e-06
1.81464e-06
-9.14615e-06
2.01901e-06
-1.11443e-05
2.23537e-06
-1.31351e-05
2.46292e-06
-1.51161e-05
2.68398e-06
-1.70855e-05
2.86044e-06
-1.90091e-05
2.9285e-06
-2.07977e-05
2.77229e-06
-2.22888e-05
2.19317e-06
-2.30646e-05
7.26839e-07
-2.301e-05
-9.29184e-07
-2.22834e-05
-2.21434e-06
-2.09326e-05
-3.16034e-06
-1.9e-05
-3.76315e-06
-1.65463e-05
-4.03519e-06
-1.36831e-05
-3.9922e-06
-1.05973e-05
-3.6565e-06
-7.5318e-06
-3.06423e-06
-4.8599e-06
-2.27872e-06
-2.75705e-06
-1.4437e-06
-1.31388e-06
-6.99726e-07
-4.84775e-07
-1.67798e-07
-1.13099e-07
1.05115e-07
-4.00821e-09
1.59639e-07
7.90208e-08
-1.00166e-07
2.24754e-07
-4.03273e-07
6.8838e-07
-9.22749e-07
1.18913e-06
-1.65792e-06
1.68531e-06
-2.59586e-06
2.13915e-06
-3.71451e-06
2.53616e-06
-4.98888e-06
2.89014e-06
-6.40116e-06
3.22692e-06
-7.94514e-06
3.563e-06
-9.60752e-06
3.89775e-06
-1.13625e-05
4.21789e-06
-1.31765e-05
4.49803e-06
-1.50109e-05
4.69485e-06
-1.68164e-05
4.73398e-06
-1.85272e-05
4.48308e-06
-2.00349e-05
3.70086e-06
-2.09922e-05
1.6841e-06
-2.12418e-05
-6.79514e-07
-2.09859e-05
-2.47029e-06
-2.02875e-05
-3.85868e-06
-1.91401e-05
-4.91055e-06
-1.7527e-05
-5.64837e-06
-1.54676e-05
-6.05155e-06
-1.30377e-05
-6.08642e-06
-1.03685e-05
-5.7334e-06
-7.63396e-06
-5.01327e-06
-5.07659e-06
-4.00107e-06
-2.94451e-06
-2.83181e-06
-1.41527e-06
-1.69703e-06
-5.11455e-07
-7.98704e-07
-9.92887e-08
-2.52528e-07
-2.0268e-08
-4.35064e-08
2.68261e-07
-1.86505e-07
8.31379e-07
-4.53703e-07
1.45632e-06
-8.65712e-07
2.09732e-06
-1.43092e-06
2.70435e-06
-2.14068e-06
3.24593e-06
-2.97305e-06
3.72251e-06
-3.90352e-06
4.15739e-06
-4.91307e-06
4.57255e-06
-5.9872e-06
4.97187e-06
-7.11011e-06
5.3408e-06
-8.26182e-06
5.64974e-06
-9.41832e-06
5.85134e-06
-1.05519e-05
5.86752e-06
-1.16314e-05
5.56265e-06
-1.26247e-05
4.69413e-06
-1.33768e-05
2.43623e-06
-1.37755e-05
-2.80818e-07
-1.39605e-05
-2.28533e-06
-1.40018e-05
-3.81734e-06
-1.38439e-05
-5.06848e-06
-1.33884e-05
-6.1039e-06
-1.25512e-05
-6.88872e-06
-1.12907e-05
-7.34693e-06
-9.63272e-06
-7.39136e-06
-7.67591e-06
-6.97008e-06
-5.58984e-06
-6.08714e-06
-3.59612e-06
-4.82553e-06
-1.93267e-06
-3.36048e-06
-7.78514e-07
-1.95286e-06
-1.69385e-07
-8.61657e-07
-1.89653e-07
-2.09645e-09
2.70357e-07
-2.81535e-08
8.57436e-07
-1.0629e-07
1.53446e-06
-2.66962e-07
2.25799e-06
-5.33724e-07
2.97112e-06
-9.12384e-07
3.62459e-06
-1.38541e-06
4.19553e-06
-1.92431e-06
4.69628e-06
-2.50206e-06
5.1503e-06
-3.09733e-06
5.56715e-06
-3.69231e-06
5.93578e-06
-4.27035e-06
6.22777e-06
-4.81574e-06
6.39673e-06
-5.31404e-06
6.36583e-06
-5.75149e-06
6.0001e-06
-6.11919e-06
5.06183e-06
-6.4473e-06
2.76433e-06
-6.79367e-06
6.55495e-08
-7.16741e-06
-1.91159e-06
-7.64044e-06
-3.34431e-06
-8.13982e-06
-4.5691e-06
-8.53093e-06
-5.7128e-06
-8.67975e-06
-6.73989e-06
-8.45377e-06
-7.57291e-06
-7.78457e-06
-8.06056e-06
-6.67976e-06
-8.07489e-06
-5.23442e-06
-7.53248e-06
-3.62462e-06
-6.43533e-06
-2.09374e-06
-4.89136e-06
-9.00879e-07
-3.14572e-06
-2.08412e-07
-1.55412e-06
-3.98065e-07
1.85741e-08
2.51783e-07
5.69756e-08
8.19034e-07
9.19889e-08
1.49945e-06
9.356e-08
2.25642e-06
3.29158e-08
3.03176e-06
-1.05143e-07
3.76264e-06
-3.12769e-07
4.40316e-06
-5.62406e-07
4.94592e-06
-8.20423e-07
5.40832e-06
-1.05902e-06
5.80574e-06
-1.2591e-06
6.13587e-06
-1.40835e-06
6.37702e-06
-1.50002e-06
6.4884e-06
-1.53265e-06
6.39846e-06
-1.50928e-06
5.97672e-06
-1.42397e-06
4.97652e-06
-1.35634e-06
2.6967e-06
-1.57063e-06
2.79841e-07
-2.01681e-06
-1.46541e-06
-2.62461e-06
-2.73651e-06
-3.37841e-06
-3.81531e-06
-4.18346e-06
-4.90774e-06
-4.93372e-06
-5.98963e-06
-5.43941e-06
-7.06722e-06
-5.56477e-06
-7.9352e-06
-5.23099e-06
-8.40868e-06
-4.45192e-06
-8.31155e-06
-3.33243e-06
-7.55482e-06
-2.07439e-06
-6.1494e-06
-9.55175e-07
-4.26493e-06
-2.3388e-07
-2.27542e-06
-6.31946e-07
2.51279e-08
2.26655e-07
8.89743e-08
7.55188e-07
1.75981e-07
1.41244e-06
2.62496e-07
2.1699e-06
3.23484e-07
2.97077e-06
3.42882e-07
3.74325e-06
3.21405e-07
4.42464e-06
2.81154e-07
4.98617e-06
2.55884e-07
5.43359e-06
2.75994e-07
5.78563e-06
3.60241e-07
6.05162e-06
5.15367e-07
6.2219e-06
7.38076e-07
6.26569e-06
1.01613e-06
6.12041e-06
1.32828e-06
5.66457e-06
1.64345e-06
4.66136e-06
1.79992e-06
2.54023e-06
1.63324e-06
4.46524e-07
1.21591e-06
-1.04808e-06
6.39221e-07
-2.15982e-06
-9.0286e-08
-3.0858e-06
-9.56253e-07
-4.04178e-06
-1.90771e-06
-5.03817e-06
-2.78917e-06
-6.18576e-06
-3.44101e-06
-7.28336e-06
-3.70109e-06
-8.14859e-06
-3.50622e-06
-8.50643e-06
-2.8772e-06
-8.18383e-06
-1.9469e-06
-7.07971e-06
-9.66478e-07
-5.24535e-06
-2.51108e-07
-2.99079e-06
-8.83054e-07
2.30911e-08
2.03564e-07
8.68862e-08
6.91393e-07
1.84011e-07
1.31532e-06
3.0001e-07
2.0539e-06
4.18037e-07
2.85274e-06
5.26952e-07
3.63433e-06
6.28428e-07
4.32316e-06
7.40222e-07
4.87438e-06
8.89919e-07
5.28389e-06
1.1026e-06
5.57295e-06
1.39155e-06
5.76267e-06
1.75611e-06
5.85734e-06
2.18379e-06
5.83801e-06
2.65112e-06
5.65307e-06
3.12003e-06
5.19566e-06
3.52226e-06
4.25913e-06
3.65981e-06
2.40268e-06
3.47634e-06
6.29994e-07
3.06214e-06
-6.33879e-07
2.51202e-06
-1.6097e-06
1.87642e-06
-2.4502e-06
1.12066e-06
-3.28602e-06
2.57343e-07
-4.17486e-06
-6.90694e-07
-5.23773e-06
-1.60484e-06
-6.36922e-06
-2.26335e-06
-7.49008e-06
-2.53584e-06
-8.23394e-06
-2.35262e-06
-8.36705e-06
-1.76191e-06
-7.67043e-06
-9.56871e-07
-6.05039e-06
-2.67442e-07
-3.68022e-06
-1.1505e-06
1.55148e-08
1.88049e-07
6.14836e-08
6.45424e-07
1.38592e-07
1.23821e-06
2.44601e-07
1.9479e-06
3.75384e-07
2.72196e-06
5.28899e-07
3.48082e-06
7.10653e-07
4.14141e-06
9.34594e-07
4.65044e-06
1.2183e-06
5.00019e-06
1.57511e-06
5.21614e-06
2.00842e-06
5.32936e-06
2.51007e-06
5.35569e-06
3.06122e-06
5.28686e-06
3.63164e-06
5.08265e-06
4.17304e-06
4.65426e-06
4.59841e-06
3.83377e-06
4.73073e-06
2.27036e-06
4.56221e-06
7.98514e-07
4.17961e-06
-2.51287e-07
3.65978e-06
-1.08987e-06
3.04924e-06
-1.83966e-06
2.37018e-06
-2.60696e-06
1.64764e-06
-3.45231e-06
8.25448e-07
-4.41554e-06
-7.45974e-08
-5.46917e-06
-9.57344e-07
-6.60733e-06
-1.58001e-06
-7.61127e-06
-1.78894e-06
-8.15812e-06
-1.53621e-06
-7.92315e-06
-9.34174e-07
-6.65243e-06
-2.88581e-07
-4.32581e-06
-1.43908e-06
2.46036e-09
1.85589e-07
1.41693e-08
6.33715e-07
4.71161e-08
1.20526e-06
1.17091e-07
1.87792e-06
2.35871e-07
2.60318e-06
4.1016e-07
3.30653e-06
6.48698e-07
3.90287e-06
9.60129e-07
4.339e-06
1.34868e-06
4.61164e-06
1.81254e-06
4.75228e-06
2.34403e-06
4.79787e-06
2.9291e-06
4.77062e-06
3.54635e-06
4.66961e-06
4.16413e-06
4.46487e-06
4.73208e-06
4.08631e-06
5.16324e-06
3.4026e-06
5.31312e-06
2.12047e-06
5.19759e-06
9.14043e-07
4.8902e-06
5.6112e-08
4.44748e-06
-6.47156e-07
3.90857e-06
-1.30074e-06
3.2982e-06
-1.9966e-06
2.6316e-06
-2.7857e-06
1.90289e-06
-3.68683e-06
1.11135e-06
-4.67764e-06
2.22637e-07
-5.71862e-06
-6.23685e-07
-6.76495e-06
-1.17646e-06
-7.60534e-06
-1.26197e-06
-7.83764e-06
-8.93407e-07
-7.02099e-06
-3.17422e-07
-4.9018e-06
-1.7565e-06
-1.80417e-08
2.03631e-07
-5.78826e-08
6.73556e-07
-8.85992e-08
1.23598e-06
-6.96003e-08
1.85892e-06
3.00661e-08
2.50351e-06
2.20755e-07
3.11584e-06
5.08212e-07
3.61541e-06
8.93129e-07
3.95409e-06
1.36427e-06
4.14049e-06
1.905e-06
4.21155e-06
2.49896e-06
4.20391e-06
3.12949e-06
4.14009e-06
3.77641e-06
4.02269e-06
4.41125e-06
3.83004e-06
4.98841e-06
3.50915e-06
5.43206e-06
2.95895e-06
5.62515e-06
1.92738e-06
5.59245e-06
9.46746e-07
5.38969e-06
2.58877e-07
5.05649e-06
-3.13961e-07
4.62737e-06
-8.71618e-07
4.11441e-06
-1.48364e-06
3.52043e-06
-2.19172e-06
2.8421e-06
-3.00851e-06
2.08005e-06
-3.91558e-06
1.23887e-06
-4.87744e-06
3.27681e-07
-5.85376e-06
-4.89491e-07
-6.78817e-06
-9.19178e-07
-7.40796e-06
-8.21156e-07
-7.11901e-06
-3.52531e-07
-5.37042e-06
-2.10903e-06
-5.19371e-08
2.55568e-07
-1.63106e-07
7.84725e-07
-2.67659e-07
1.34053e-06
-2.98364e-07
1.88963e-06
-2.11626e-07
2.41678e-06
6.96179e-09
2.89725e-06
3.46436e-07
3.27594e-06
7.97582e-07
3.50294e-06
1.33387e-06
3.60421e-06
1.92802e-06
3.6174e-06
2.56013e-06
3.57179e-06
3.21464e-06
3.48558e-06
3.87533e-06
3.362e-06
4.51964e-06
3.18573e-06
5.11049e-06
2.9183e-06
5.58635e-06
2.48309e-06
5.84576e-06
1.66798e-06
5.90475e-06
8.87756e-07
5.8159e-06
3.47726e-07
5.61019e-06
-1.08252e-07
5.30682e-06
-5.68251e-07
4.90502e-06
-1.08183e-06
4.3957e-06
-1.6824e-06
3.7688e-06
-2.38161e-06
3.02237e-06
-3.16915e-06
2.16756e-06
-4.02263e-06
1.23222e-06
-4.91843e-06
2.73998e-07
-5.82995e-06
-4.78581e-07
-6.65538e-06
-6.9495e-07
-6.90264e-06
-3.84895e-07
-5.68048e-06
-2.49392e-06
-1.09793e-07
3.65361e-07
-3.11392e-07
9.86324e-07
-4.82482e-07
1.51162e-06
-5.37504e-07
1.94465e-06
-4.3726e-07
2.31653e-06
-1.78439e-07
2.63843e-06
2.25164e-07
2.87234e-06
7.42853e-07
2.98525e-06
1.33336e-06
3.0137e-06
1.96809e-06
2.98267e-06
2.62901e-06
2.91087e-06
3.3038e-06
2.8108e-06
3.98074e-06
2.68506e-06
4.64303e-06
2.52344e-06
5.26187e-06
2.29945e-06
5.78726e-06
1.9577e-06
6.12244e-06
1.3328e-06
6.27257e-06
7.37631e-07
6.28925e-06
3.31045e-07
6.19759e-06
-1.65938e-08
6.00504e-06
-3.75699e-07
5.70221e-06
-7.7901e-07
5.27254e-06
-1.25273e-06
4.69928e-06
-1.80835e-06
3.97433e-06
-2.4442e-06
3.10531e-06
-3.15361e-06
2.12021e-06
-3.93333e-06
1.07575e-06
-4.78548e-06
9.66241e-08
-5.67625e-06
-4.80135e-07
-6.32588e-06
-3.94894e-07
-5.76572e-06
-2.88882e-06
-2.01477e-07
5.66838e-07
-4.96856e-07
1.2817e-06
-6.96048e-07
1.71081e-06
-7.22875e-07
1.97148e-06
-5.63421e-07
2.15708e-06
-2.30953e-07
2.30596e-06
2.53416e-07
2.38797e-06
8.39367e-07
2.3993e-06
1.48166e-06
2.37141e-06
2.15707e-06
2.30726e-06
2.85085e-06
2.21709e-06
3.55302e-06
2.10863e-06
4.25418e-06
1.9839e-06
4.94062e-06
1.83699e-06
5.58884e-06
1.65124e-06
6.15602e-06
1.39051e-06
6.54684e-06
9.4198e-07
6.76075e-06
5.23722e-07
6.85116e-06
2.40632e-07
6.83796e-06
-3.38587e-09
6.72116e-06
-2.58898e-07
6.48924e-06
-5.47094e-07
6.12362e-06
-8.87114e-07
5.60395e-06
-1.28867e-06
4.91534e-06
-1.75559e-06
4.05544e-06
-2.29371e-06
3.04102e-06
-2.91892e-06
1.91612e-06
-3.66058e-06
7.78622e-07
-4.53875e-06
-1.24303e-07
-5.42296e-06
-3.51609e-07
-5.53841e-06
-3.24043e-06
-3.21258e-07
8.88096e-07
-6.69998e-07
1.63044e-06
-8.01742e-07
1.84256e-06
-7.07713e-07
1.87745e-06
-4.1996e-07
1.86932e-06
3.81743e-08
1.84783e-06
6.2369e-07
1.80245e-06
1.27686e-06
1.74613e-06
1.97217e-06
1.6761e-06
2.68929e-06
1.59014e-06
3.41417e-06
1.49222e-06
4.13655e-06
1.38625e-06
4.84671e-06
1.27374e-06
5.53182e-06
1.15188e-06
6.1718e-06
1.01125e-06
6.7304e-06
8.31918e-07
7.12156e-06
5.50816e-07
7.34751e-06
2.97777e-07
7.46144e-06
1.26693e-07
7.47956e-06
-2.14993e-08
7.39871e-06
-1.78053e-07
7.20904e-06
-3.57425e-07
6.89317e-06
-5.71243e-07
6.43041e-06
-8.25909e-07
5.80132e-06
-1.1265e-06
4.99203e-06
-1.48442e-06
3.99973e-06
-1.92661e-06
2.84275e-06
-2.5036e-06
1.58601e-06
-3.28201e-06
4.12392e-07
-4.24934e-06
-2.13635e-07
-4.91238e-06
-3.45406e-06
-4.42626e-07
1.33072e-06
-6.75283e-07
1.8631e-06
-5.39728e-07
1.707e-06
-1.75389e-07
1.51311e-06
3.33636e-07
1.3603e-06
9.44544e-07
1.23692e-06
1.61733e-06
1.12966e-06
2.32611e-06
1.03736e-06
3.05052e-06
9.51685e-07
3.77326e-06
8.67398e-07
4.48114e-06
7.84335e-07
5.16404e-06
7.03347e-07
5.81311e-06
6.24675e-07
6.41836e-06
5.46627e-07
6.96545e-06
4.64173e-07
7.42889e-06
3.68477e-07
7.74581e-06
2.33894e-07
7.92579e-06
1.17796e-07
8.01411e-06
3.83681e-08
8.02365e-06
-3.1039e-08
7.95143e-06
-1.05832e-07
7.78876e-06
-1.94751e-07
7.52045e-06
-3.02937e-07
7.12787e-06
-4.33329e-07
6.59088e-06
-5.895e-07
5.88804e-06
-7.81588e-07
4.99663e-06
-1.0352e-06
3.89631e-06
-1.40329e-06
2.58998e-06
-1.97569e-06
1.18861e-06
-2.84797e-06
1.16108e-07
-3.83988e-06
-3.33795e-06
-3.77442e-07
1.70816e-06
1.69229e-08
1.46873e-06
7.29627e-07
9.94298e-07
1.4503e-06
7.92437e-07
2.16357e-06
6.47033e-07
2.87289e-06
5.27599e-07
3.56672e-06
4.35831e-07
4.23771e-06
3.66366e-07
4.87842e-06
3.1098e-07
5.48113e-06
2.64692e-07
6.04012e-06
2.25335e-07
6.55187e-06
1.91604e-07
7.0142e-06
1.62346e-07
7.42474e-06
1.36081e-07
7.7784e-06
1.10521e-07
8.06375e-06
8.31192e-08
8.24894e-06
4.87041e-08
8.34649e-06
2.02462e-08
8.3848e-06
6.40887e-11
8.37194e-06
-1.81793e-08
8.30513e-06
-3.90242e-08
8.17599e-06
-6.56154e-08
7.97215e-06
-9.90942e-08
7.67898e-06
-1.40159e-07
7.2797e-06
-1.90218e-07
6.75239e-06
-2.54283e-07
6.06366e-06
-3.46463e-07
5.16012e-06
-4.99748e-07
3.96472e-06
-7.80292e-07
2.41659e-06
-1.29984e-06
7.45513e-07
-2.1688e-06
-2.59244e-06
1.70816e-06
3.1769e-06
4.1712e-06
4.96363e-06
5.61067e-06
6.13827e-06
6.5741e-06
6.94046e-06
7.25144e-06
7.51613e-06
7.74147e-06
7.93307e-06
8.09542e-06
8.2315e-06
8.34202e-06
8.42514e-06
8.47385e-06
8.49409e-06
8.49416e-06
8.47598e-06
8.43695e-06
8.37134e-06
8.27224e-06
8.13208e-06
7.94187e-06
7.68758e-06
7.34112e-06
6.84137e-06
6.06108e-06
4.76124e-06
2.59244e-06
)
;

boundaryField
{
    movingWall
    {
        type            calculated;
        value           uniform 0;
    }
    fixedWalls
    {
        type            calculated;
        value           uniform 0;
    }
    floor
    {
        type            calculated;
        value           uniform 0;
    }
    frontAndBack
    {
        type            empty;
        value           nonuniform List<scalar> 0();
    }
}


// ************************************************************************* //
