/*--------------------------------*- C++ -*----------------------------------*\
| =========                 |                                                 |
| \\      /  F ield         | OpenFOAM: The Open Source CFD Toolbox           |
|  \\    /   O peration     | Version:  2212                                  |
|   \\  /    A nd           | Website:  www.openfoam.com                      |
|    \\/     M anipulation  |                                                 |
\*---------------------------------------------------------------------------*/
FoamFile
{
    version     2.0;
    format      ascii;
    arch        "LSB;label=64;scalar=64";
    class       volScalarField;
    location    "1260";
    object      Sco2;
}
// * * * * * * * * * * * * * * * * * * * * * * * * * * * * * * * * * * * * * //

dimensions      [1 -3 0 0 0 0 0];

internalField   nonuniform List<scalar> 
1024
(
0.00568651
0.00568824
0.00569236
0.00569976
0.00571137
0.00572795
0.00574976
0.00577632
0.0058063
0.00583768
0.00586821
0.0058954
0.00591666
0.00592955
0.00593139
0.00591928
0.00589199
0.00585455
0.00581221
0.00576622
0.00571737
0.00566702
0.00561746
0.00557143
0.00553124
0.00549831
0.00547293
0.00545454
0.00544209
0.00543432
0.00543006
0.00542832
0.00568679
0.00568851
0.00569267
0.00570019
0.00571198
0.0057288
0.00575087
0.00577766
0.00580781
0.00583933
0.00586997
0.00589724
0.00591848
0.00593127
0.00593297
0.00592074
0.00589341
0.00585601
0.00581376
0.0057679
0.00571916
0.00566887
0.00561927
0.00557306
0.00553262
0.0054994
0.00547375
0.00545515
0.00544254
0.00543468
0.00543037
0.00542861
0.00568733
0.00568907
0.00569333
0.00570104
0.00571315
0.00573038
0.00575291
0.00578016
0.00581077
0.00584278
0.005874
0.00590174
0.00592307
0.00593558
0.00593678
0.00592406
0.00589645
0.00585902
0.00581693
0.00577134
0.00572289
0.00567276
0.00562309
0.00557657
0.00553562
0.0055018
0.00547559
0.00545653
0.00544359
0.00543552
0.0054311
0.00542931
0.00568818
0.00568996
0.00569434
0.00570227
0.00571474
0.00573246
0.0057556
0.00578357
0.00581506
0.00584824
0.00588091
0.0059099
0.00593163
0.00594357
0.0059436
0.00592963
0.00590119
0.0058635
0.00582155
0.00577635
0.00572838
0.00567858
0.0056289
0.00558197
0.00554029
0.00550559
0.00547853
0.00545877
0.00544533
0.00543694
0.00543236
0.0054305
0.00568938
0.00569119
0.00569564
0.00570374
0.00571652
0.00573472
0.00575857
0.00578756
0.00582056
0.00585595
0.00589139
0.00592284
0.00594547
0.00595647
0.0059543
0.00593785
0.00590759
0.00586909
0.0058271
0.00578235
0.00573503
0.00568577
0.00563625
0.00558893
0.00554641
0.00551065
0.00548252
0.00546187
0.00544778
0.00543898
0.00543418
0.00543222
0.00569101
0.0056928
0.00569724
0.00570538
0.00571831
0.00573689
0.00576151
0.0057919
0.00582728
0.00586622
0.00590612
0.0059415
0.00596573
0.00597534
0.0059696
0.00594892
0.00591533
0.00587511
0.00583264
0.00578823
0.00574167
0.0056932
0.00564408
0.00559658
0.00555332
0.00551648
0.00548723
0.0054656
0.00545078
0.00544153
0.00543647
0.00543443
0.0056933
0.00569502
0.00569933
0.00570732
0.00572019
0.00573899
0.00576444
0.00579672
0.00583549
0.00587959
0.00592578
0.00596659
0.00599306
0.00600067
0.00598971
0.00596261
0.00592373
0.00588046
0.00583677
0.00579235
0.00574653
0.00569904
0.00565065
0.00560335
0.0055597
0.00552207
0.00549188
0.00546941
0.00545394
0.00544426
0.00543898
0.00543684
0.005697
0.00569858
0.00570261
0.00571026
0.00572284
0.00574174
0.00576812
0.00580283
0.00584616
0.00589706
0.00595117
0.00599851
0.0060274
0.00603205
0.00601392
0.00597797
0.00593155
0.0058836
0.00583766
0.00579265
0.00574732
0.00570088
0.00565358
0.00560703
0.00556363
0.00552585
0.00549527
0.00547236
0.00545653
0.00544659
0.00544116
0.00543895
0.0057039
0.00570526
0.0057089
0.00571605
0.00572823
0.00574719
0.00577475
0.00581257
0.00586165
0.00592078
0.00598379
0.00603773
0.00606809
0.00606802
0.00604049
0.0059933
0.00593713
0.00588279
0.00583333
0.00578684
0.00574151
0.00569602
0.00565013
0.005605
0.00556278
0.00552583
0.00549579
0.00547318
0.0054575
0.00544762
0.0054422
0.00543999
0.00571778
0.0057189
0.0057221
0.00572875
0.00574063
0.00575995
0.00578923
0.00583103
0.00588688
0.00595488
0.0060264
0.0060852
0.00611437
0.00610672
0.00606731
0.00600694
0.00593937
0.005877
0.00582252
0.00577329
0.00572705
0.0056821
0.00563778
0.00559479
0.00555486
0.00552003
0.00549175
0.00547047
0.00545568
0.00544631
0.00544113
0.005439
0.00574546
0.00574641
0.00574934
0.0057558
0.0057679
0.00578835
0.00582036
0.00586708
0.00593001
0.00600588
0.00608319
0.00614267
0.00616601
0.00614714
0.00609396
0.00601991
0.00594049
0.0058688
0.00580736
0.00575329
0.00570433
0.00565873
0.00561561
0.0055752
0.00553861
0.00550727
0.00548211
0.00546331
0.0054503
0.00544206
0.0054375
0.00543561
0.00579683
0.00579783
0.00580098
0.00580798
0.00582127
0.00584402
0.00587982
0.00593183
0.00600069
0.00608105
0.00615861
0.00621221
0.00622426
0.00619179
0.00612594
0.00604132
0.00595244
0.00587108
0.00580015
0.00573752
0.00568188
0.00563229
0.00558819
0.00554946
0.00551638
0.00548936
0.00546849
0.00545342
0.00544337
0.00543729
0.00543411
0.00543288
0.00588161
0.00588301
0.00588706
0.0058956
0.00591126
0.00593734
0.00597734
0.00603365
0.00610523
0.00618442
0.00625492
0.00629617
0.00629449
0.00625195
0.00618211
0.00609783
0.00600864
0.00592173
0.00583995
0.00576358
0.00569383
0.00563216
0.00557979
0.00553734
0.00550461
0.00548078
0.0054647
0.005455
0.00545014
0.00544846
0.00544842
0.0054488
0.00600237
0.00600442
0.00600986
0.00602061
0.0060393
0.00606897
0.00611246
0.0061709
0.0062413
0.00631403
0.00637281
0.00640138
0.00639361
0.00635707
0.00630504
0.00624557
0.0061799
0.00610634
0.00602502
0.00593776
0.00584889
0.00576421
0.00568889
0.0056278
0.00558334
0.00555521
0.00554077
0.00553663
0.00553901
0.00554428
0.00554944
0.00555251
0.00614791
0.00615057
0.0061574
0.00617048
0.00619244
0.00622608
0.00627339
0.0063339
0.00640261
0.00646912
0.00652096
0.00655066
0.00656108
0.00656283
0.00656585
0.00657312
0.00657781
0.00656567
0.00652966
0.00647004
0.00639095
0.0062992
0.00620269
0.00611102
0.00603272
0.00597419
0.00593583
0.00591621
0.00591089
0.00591382
0.00591925
0.00592309
0.0062933
0.00629653
0.00630496
0.00632122
0.00634832
0.00638893
0.0064441
0.00651168
0.00658567
0.00665799
0.00672334
0.00678289
0.00684406
0.00691614
0.00700581
0.00711551
0.00723421
0.00733511
0.00740322
0.00743662
0.00743484
0.00740019
0.00733746
0.00725374
0.00715799
0.00706088
0.00697162
0.00689916
0.00684826
0.00681828
0.00680441
0.00680034
0.00639343
0.00639653
0.00640492
0.00642148
0.00644955
0.00649226
0.00655136
0.00662609
0.00671274
0.00680597
0.00690221
0.00700259
0.00711289
0.00723986
0.00738781
0.00755838
0.00773885
0.00790333
0.00804283
0.00815921
0.00825007
0.00831195
0.00834168
0.00833788
0.00830226
0.00824081
0.00816378
0.00808375
0.00801308
0.00796053
0.007929
0.00791595
0.00644985
0.00645277
0.00646061
0.00647612
0.00650261
0.00654349
0.00660133
0.00667673
0.00676764
0.00686987
0.00697936
0.00709466
0.00721743
0.00734997
0.00749227
0.00764166
0.0077856
0.00791393
0.00803609
0.00816001
0.00828425
0.0084026
0.0085069
0.00858941
0.00864471
0.00867093
0.00867039
0.00864961
0.00861836
0.00858725
0.0085644
0.0085533
0.0064786
0.00648136
0.00648858
0.00650262
0.00652646
0.00656338
0.00661625
0.0066865
0.00677319
0.00687292
0.00698108
0.00709384
0.00720922
0.00732595
0.0074412
0.00755018
0.0076435
0.00772552
0.00781859
0.00793481
0.00807282
0.00822359
0.00837406
0.00851059
0.00862286
0.00870542
0.00875783
0.00878384
0.00879025
0.00878551
0.00877775
0.00877266
0.00649106
0.00649363
0.0065002
0.0065127
0.00653368
0.00656603
0.00661254
0.00667494
0.00675302
0.00684409
0.0069436
0.00704655
0.00714892
0.00724754
0.00733886
0.00741874
0.00748226
0.00754125
0.00761936
0.0077304
0.00787586
0.00804863
0.00823453
0.00841495
0.00857315
0.00869805
0.00878592
0.0088395
0.00886589
0.00887426
0.00887373
0.00887144
0.00649564
0.00649786
0.00650351
0.00651425
0.00653224
0.00655999
0.00659995
0.00665385
0.00672182
0.00680183
0.0068899
0.00698111
0.00707095
0.00715592
0.00723315
0.00730061
0.00735734
0.00741572
0.00749342
0.0076025
0.00774715
0.00792466
0.00812488
0.00833025
0.00852129
0.00868148
0.00880156
0.00888061
0.00892446
0.00894291
0.00894691
0.00894586
0.00650188
0.00650332
0.0065073
0.00651539
0.00652965
0.00655238
0.00658576
0.00663136
0.00668944
0.00675857
0.00683567
0.00691673
0.00699791
0.00707639
0.00715052
0.00722055
0.00728751
0.00735899
0.00744538
0.00755641
0.00769756
0.00786981
0.00806776
0.00827868
0.00848487
0.00866754
0.0088126
0.00891414
0.00897479
0.00900342
0.00901195
0.00901199
0.00652214
0.00652206
0.00652299
0.00652673
0.0065356
0.00655215
0.00657864
0.0066166
0.00666646
0.00672733
0.0067971
0.00687294
0.00695204
0.00703242
0.00711345
0.00719688
0.00728317
0.00737257
0.00746965
0.00758282
0.00771851
0.00788027
0.00806626
0.00826848
0.0084734
0.00866422
0.00882452
0.00894347
0.00901912
0.00905781
0.00907118
0.00907242
0.00657068
0.00656813
0.0065643
0.00656159
0.00656316
0.00657237
0.00659212
0.00662429
0.00666957
0.00672743
0.00679636
0.0068742
0.00695872
0.00704832
0.0071427
0.00724408
0.00735053
0.00745541
0.00755978
0.00767173
0.0077984
0.00794511
0.00811304
0.00829792
0.00849013
0.00867632
0.00884115
0.00897088
0.0090586
0.00910669
0.00912512
0.00912775
0.00666106
0.00665507
0.00664508
0.00663472
0.00662854
0.0066312
0.00664659
0.00667719
0.00672372
0.00678544
0.0068606
0.00694685
0.00704181
0.00714368
0.00725194
0.00736861
0.0074891
0.0076022
0.00770752
0.00781335
0.00792717
0.00805517
0.00820052
0.00836209
0.00853399
0.00870626
0.00886585
0.00899876
0.00909443
0.00915053
0.00917401
0.00917825
0.00680357
0.00679347
0.00677727
0.00676074
0.00675008
0.0067509
0.00676771
0.00680311
0.00685717
0.00692814
0.00701335
0.00710979
0.00721461
0.00732571
0.00744224
0.00756582
0.00769017
0.00780235
0.0079018
0.00799683
0.00809485
0.00820201
0.00832243
0.00845711
0.00860338
0.00875481
0.00890122
0.00902972
0.00912811
0.00918991
0.00921805
0.00922409
0.0070044
0.00699022
0.00697035
0.00695341
0.00694624
0.00695377
0.00697962
0.00702549
0.00709005
0.0071705
0.0072635
0.0073656
0.00747384
0.00758608
0.00770139
0.00782108
0.00793852
0.00804128
0.00812918
0.00821006
0.00829069
0.00837658
0.00847187
0.00857869
0.00869662
0.00882238
0.00894914
0.00906629
0.00916152
0.00922566
0.00925745
0.00926538
0.007267
0.00725021
0.00723296
0.00722554
0.00723237
0.00725499
0.00729473
0.00735164
0.00742345
0.00750736
0.00760019
0.00769886
0.00780078
0.00790417
0.00800826
0.00811414
0.00821585
0.00830292
0.00837555
0.00844051
0.00850351
0.00856905
0.00864075
0.00872098
0.00881052
0.00890837
0.0090109
0.00911063
0.00919678
0.00925897
0.00929256
0.00930221
0.00759534
0.00757991
0.0075753
0.00758775
0.00761509
0.00765455
0.00770539
0.00776677
0.00783704
0.00791446
0.00799684
0.00808202
0.00816813
0.00825393
0.00833888
0.00842387
0.00850422
0.00857197
0.00862754
0.00867623
0.00872239
0.00876943
0.00882016
0.00887662
0.00893995
0.00901037
0.00908656
0.00916436
0.00923584
0.00929127
0.00932393
0.00933467
0.00799768
0.00799143
0.00800891
0.00804296
0.00808541
0.0081325
0.00818351
0.00823817
0.00829626
0.00835731
0.00842036
0.00848421
0.00854777
0.00861029
0.00867145
0.00873189
0.00878838
0.00883558
0.00887387
0.00890693
0.00893773
0.00896858
0.0090014
0.00903765
0.00907831
0.00912395
0.00917445
0.00922814
0.00928049
0.00932421
0.00935239
0.00936296
0.00849027
0.00850181
0.00853601
0.00857472
0.00861368
0.00865172
0.00868899
0.00872602
0.00876341
0.00880144
0.00883991
0.00887835
0.00891624
0.00895322
0.00898912
0.00902432
0.00905699
0.00908413
0.00910602
0.00912474
0.00914196
0.009159
0.00917692
0.00919655
0.0092185
0.00924318
0.00927081
0.00930097
0.00933181
0.00935946
0.00937906
0.00938745
0.00909327
0.00910249
0.00912022
0.00913718
0.00915289
0.00916744
0.00918103
0.00919401
0.00920675
0.00921948
0.0092322
0.00924483
0.00925721
0.00926924
0.00928088
0.00929224
0.00930275
0.00931147
0.00931847
0.00932444
0.00932989
0.00933524
0.00934083
0.00934692
0.00935371
0.00936131
0.00936984
0.00937924
0.00938907
0.00939831
0.0094054
0.00940884
)
;

boundaryField
{
    movingWall
    {
        type            fixedValue;
        value           uniform 0.00942;
    }
    fixedWalls
    {
        type            zeroGradient;
    }
    floor
    {
        type            zeroGradient;
    }
    frontAndBack
    {
        type            empty;
    }
}


// ************************************************************************* //
