/*--------------------------------*- C++ -*----------------------------------*\
| =========                 |                                                 |
| \\      /  F ield         | OpenFOAM: The Open Source CFD Toolbox           |
|  \\    /   O peration     | Version:  2212                                  |
|   \\  /    A nd           | Website:  www.openfoam.com                      |
|    \\/     M anipulation  |                                                 |
\*---------------------------------------------------------------------------*/
FoamFile
{
    version     2.0;
    format      ascii;
    arch        "LSB;label=64;scalar=64";
    class       volScalarField;
    location    "1260";
    object      Xli;
}
// * * * * * * * * * * * * * * * * * * * * * * * * * * * * * * * * * * * * * //

dimensions      [1 -3 0 0 0 0 0];

internalField   nonuniform List<scalar> 
1024
(
0.0423664
0.042367
0.0423686
0.0423714
0.0423758
0.042382
0.0423902
0.0424002
0.0424114
0.0424231
0.0424345
0.0424445
0.0424522
0.0424568
0.0424573
0.0424525
0.0424419
0.0424274
0.0424111
0.0423932
0.0423741
0.0423543
0.0423347
0.0423165
0.0423004
0.0422873
0.0422772
0.0422698
0.0422648
0.0422617
0.04226
0.0422593
0.0423665
0.0423671
0.0423687
0.0423715
0.042376
0.0423823
0.0423906
0.0424007
0.042412
0.0424237
0.0424351
0.0424451
0.0424529
0.0424574
0.0424578
0.042453
0.0424424
0.042428
0.0424116
0.0423938
0.0423748
0.042355
0.0423354
0.0423171
0.042301
0.0422877
0.0422775
0.04227
0.042265
0.0422618
0.0422601
0.0422594
0.0423667
0.0423673
0.0423689
0.0423719
0.0423764
0.0423829
0.0423914
0.0424016
0.0424131
0.042425
0.0424365
0.0424467
0.0424545
0.0424589
0.0424591
0.0424541
0.0424434
0.042429
0.0424128
0.0423951
0.0423762
0.0423565
0.0423369
0.0423185
0.0423022
0.0422887
0.0422782
0.0422706
0.0422654
0.0422622
0.0422604
0.0422597
0.042367
0.0423677
0.0423693
0.0423723
0.042377
0.0423837
0.0423924
0.0424029
0.0424146
0.042427
0.042439
0.0424496
0.0424575
0.0424617
0.0424615
0.042456
0.042445
0.0424306
0.0424144
0.042397
0.0423783
0.0423588
0.0423392
0.0423206
0.042304
0.0422902
0.0422794
0.0422715
0.0422661
0.0422627
0.0422609
0.0422601
0.0423674
0.0423681
0.0423698
0.0423729
0.0423777
0.0423845
0.0423935
0.0424043
0.0424166
0.0424297
0.0424427
0.0424542
0.0424624
0.0424662
0.0424651
0.0424587
0.0424471
0.0424324
0.0424163
0.0423991
0.0423807
0.0423615
0.042342
0.0423233
0.0423064
0.0422921
0.0422809
0.0422727
0.042267
0.0422635
0.0422616
0.0422608
0.042368
0.0423687
0.0423704
0.0423735
0.0423783
0.0423853
0.0423945
0.0424059
0.042419
0.0424334
0.042448
0.0424608
0.0424695
0.0424727
0.0424703
0.0424623
0.0424496
0.0424343
0.0424181
0.0424011
0.0423831
0.0423642
0.0423449
0.0423262
0.042309
0.0422944
0.0422827
0.0422741
0.0422682
0.0422645
0.0422625
0.0422617
0.0423689
0.0423696
0.0423712
0.0423742
0.042379
0.0423861
0.0423956
0.0424076
0.0424219
0.0424382
0.042455
0.0424697
0.0424791
0.0424815
0.042477
0.0424667
0.042452
0.0424357
0.0424191
0.0424022
0.0423846
0.0423662
0.0423473
0.0423287
0.0423115
0.0422965
0.0422845
0.0422756
0.0422694
0.0422656
0.0422634
0.0422626
0.0423703
0.0423709
0.0423724
0.0423753
0.04238
0.042387
0.0423969
0.0424098
0.0424258
0.0424444
0.0424641
0.042481
0.0424911
0.0424922
0.042485
0.0424713
0.0424539
0.042436
0.0424187
0.0424017
0.0423845
0.0423666
0.0423482
0.04233
0.0423129
0.0422979
0.0422858
0.0422767
0.0422704
0.0422664
0.0422642
0.0422634
0.0423729
0.0423734
0.0423748
0.0423774
0.042382
0.042389
0.0423993
0.0424133
0.0424314
0.0424529
0.0424757
0.0424949
0.0425052
0.0425043
0.0424934
0.0424755
0.0424546
0.0424344
0.042416
0.0423986
0.0423815
0.0423642
0.0423465
0.0423289
0.0423123
0.0422978
0.0422859
0.0422769
0.0422707
0.0422667
0.0422646
0.0422637
0.0423781
0.0423785
0.0423797
0.0423822
0.0423866
0.0423938
0.0424047
0.0424201
0.0424406
0.0424653
0.042491
0.0425116
0.0425211
0.042517
0.0425016
0.0424787
0.0424535
0.0424305
0.0424105
0.0423923
0.0423751
0.0423581
0.0423411
0.0423245
0.0423089
0.0422952
0.0422841
0.0422757
0.0422698
0.0422661
0.042264
0.0422631
0.0423886
0.042389
0.0423901
0.0423924
0.0423969
0.0424045
0.0424163
0.0424334
0.0424564
0.0424838
0.0425112
0.0425317
0.0425386
0.04253
0.0425092
0.0424812
0.0424516
0.0424253
0.0424029
0.0423831
0.0423651
0.042348
0.0423317
0.0423163
0.0423021
0.0422899
0.04228
0.0422726
0.0422674
0.0422641
0.0422623
0.0422615
0.0424081
0.0424085
0.0424096
0.0424122
0.042417
0.0424254
0.0424385
0.0424574
0.0424823
0.042511
0.0425381
0.0425558
0.0425581
0.0425441
0.0425184
0.0424863
0.0424533
0.0424235
0.0423977
0.0423749
0.0423546
0.0423364
0.0423199
0.0423053
0.0422927
0.0422822
0.0422741
0.0422681
0.0422641
0.0422616
0.0422603
0.0422598
0.0424401
0.0424406
0.0424421
0.0424452
0.0424508
0.0424603
0.0424748
0.042495
0.0425205
0.0425482
0.0425721
0.0425847
0.0425814
0.0425635
0.0425361
0.042504
0.0424708
0.0424389
0.0424091
0.0423814
0.0423561
0.0423337
0.0423145
0.0422988
0.0422866
0.0422775
0.0422713
0.0422674
0.0422653
0.0422644
0.0422643
0.0422643
0.0424856
0.0424863
0.0424882
0.042492
0.0424987
0.0425092
0.0425247
0.0425452
0.0425697
0.0425943
0.0426132
0.0426208
0.042615
0.0425992
0.0425782
0.042555
0.04253
0.0425026
0.0424728
0.042441
0.0424088
0.0423782
0.042351
0.0423288
0.0423126
0.0423022
0.0422967
0.042295
0.0422956
0.0422973
0.042299
0.0423001
0.0425399
0.0425408
0.0425432
0.0425477
0.0425554
0.042567
0.0425834
0.042604
0.0426272
0.0426489
0.0426649
0.0426727
0.0426738
0.042672
0.0426711
0.0426718
0.0426717
0.0426659
0.0426517
0.0426294
0.0426004
0.0425672
0.0425324
0.0424994
0.0424713
0.0424503
0.0424364
0.0424293
0.0424273
0.0424283
0.0424302
0.0424315
0.0425938
0.0425948
0.0425977
0.0426032
0.0426124
0.0426262
0.0426448
0.0426675
0.0426922
0.042716
0.0427371
0.0427563
0.0427762
0.0428003
0.0428307
0.042868
0.0429081
0.0429417
0.0429637
0.0429735
0.0429711
0.0429575
0.0429343
0.042904
0.0428698
0.0428354
0.0428038
0.0427783
0.0427603
0.0427498
0.0427449
0.0427435
0.0426314
0.0426324
0.0426352
0.0426408
0.0426503
0.0426648
0.0426849
0.0427103
0.0427398
0.0427715
0.0428043
0.0428388
0.042877
0.0429212
0.0429728
0.0430318
0.0430934
0.0431484
0.0431939
0.0432311
0.0432594
0.043278
0.043286
0.0432829
0.0432695
0.0432476
0.0432207
0.043193
0.0431686
0.0431505
0.0431397
0.0431352
0.0426536
0.0426546
0.0426572
0.0426624
0.0426713
0.0426853
0.0427052
0.0427312
0.0427626
0.0427981
0.0428363
0.0428768
0.0429202
0.0429672
0.0430175
0.0430697
0.0431187
0.0431607
0.0431991
0.0432371
0.0432747
0.0433104
0.0433417
0.0433664
0.0433829
0.0433905
0.0433897
0.0433827
0.0433724
0.0433622
0.0433548
0.0433511
0.042666
0.0426668
0.0426692
0.0426739
0.042682
0.0426946
0.0427129
0.0427374
0.0427677
0.0428028
0.0428411
0.0428813
0.0429226
0.0429647
0.0430062
0.043045
0.0430771
0.0431036
0.0431322
0.0431672
0.0432085
0.0432536
0.0432985
0.0433393
0.043373
0.0433978
0.0434138
0.0434219
0.0434242
0.043423
0.0434208
0.0434194
0.0426724
0.0426732
0.0426753
0.0426795
0.0426866
0.0426977
0.0427139
0.0427357
0.0427633
0.0427956
0.0428312
0.0428683
0.0429055
0.0429416
0.0429751
0.0430041
0.0430265
0.0430456
0.0430695
0.0431032
0.0431471
0.0431991
0.043255
0.0433091
0.0433565
0.0433938
0.0434202
0.0434365
0.0434447
0.0434475
0.0434477
0.0434471
0.0426757
0.0426764
0.0426782
0.0426818
0.0426879
0.0426974
0.0427114
0.0427303
0.0427545
0.0427831
0.0428149
0.042848
0.0428809
0.0429123
0.0429409
0.0429657
0.0429857
0.0430047
0.0430288
0.0430622
0.0431063
0.0431601
0.0432206
0.0432824
0.0433397
0.0433876
0.0434235
0.0434472
0.0434605
0.0434663
0.0434678
0.0434677
0.0426792
0.0426796
0.0426809
0.0426836
0.0426884
0.0426963
0.042708
0.0427241
0.0427448
0.0427697
0.0427976
0.0428271
0.0428569
0.0428858
0.042913
0.0429383
0.0429614
0.0429846
0.0430118
0.0430462
0.0430895
0.0431421
0.0432022
0.0432659
0.0433279
0.0433825
0.0434258
0.0434561
0.0434743
0.0434831
0.0434858
0.043486
0.0426868
0.0426867
0.0426871
0.0426883
0.0426914
0.0426972
0.0427065
0.04272
0.0427378
0.0427597
0.0427849
0.0428123
0.042841
0.04287
0.042899
0.0429281
0.0429573
0.0429863
0.0430171
0.0430524
0.0430944
0.043144
0.0432007
0.0432619
0.0433236
0.0433808
0.0434286
0.043464
0.0434866
0.0434982
0.0435024
0.0435029
0.0427031
0.0427023
0.0427011
0.0427003
0.042701
0.0427044
0.0427115
0.0427229
0.042739
0.0427595
0.042784
0.0428115
0.0428414
0.0428728
0.0429056
0.0429401
0.0429755
0.0430095
0.0430427
0.0430779
0.0431173
0.0431625
0.0432138
0.0432699
0.0433279
0.0433837
0.0434329
0.0434715
0.0434975
0.0435119
0.0435175
0.0435184
0.0427324
0.0427305
0.0427274
0.0427242
0.0427224
0.0427237
0.0427292
0.04274
0.0427562
0.0427775
0.0428035
0.0428332
0.0428658
0.0429007
0.0429374
0.0429764
0.0430161
0.0430527
0.0430863
0.0431196
0.0431552
0.0431947
0.0432393
0.0432884
0.0433404
0.0433921
0.0434397
0.0434792
0.0435076
0.0435242
0.0435312
0.0435326
0.042778
0.0427748
0.0427697
0.0427646
0.0427614
0.042762
0.0427679
0.04278
0.0427982
0.0428222
0.0428508
0.0428833
0.0429185
0.0429558
0.0429947
0.0430355
0.0430762
0.0431124
0.0431442
0.0431743
0.043205
0.0432382
0.0432752
0.0433162
0.0433605
0.043406
0.0434497
0.0434879
0.043517
0.0435353
0.0435436
0.0435455
0.0428418
0.0428373
0.042831
0.0428258
0.0428237
0.0428264
0.042835
0.0428502
0.0428715
0.0428981
0.0429288
0.0429625
0.0429984
0.0430355
0.0430736
0.0431129
0.0431511
0.0431843
0.0432124
0.0432381
0.0432634
0.0432901
0.0433194
0.043352
0.0433878
0.0434256
0.0434635
0.0434983
0.0435264
0.0435453
0.0435547
0.0435571
0.0429248
0.0429195
0.0429141
0.0429118
0.0429141
0.0429215
0.0429344
0.0429528
0.0429762
0.0430035
0.0430338
0.043066
0.0430994
0.0431334
0.0431675
0.0432021
0.0432351
0.0432632
0.0432865
0.0433071
0.0433269
0.0433474
0.0433695
0.043394
0.0434212
0.0434507
0.0434814
0.043511
0.0435364
0.0435547
0.0435646
0.0435674
0.0430282
0.0430233
0.0430219
0.0430259
0.0430346
0.0430472
0.0430634
0.0430831
0.0431058
0.0431307
0.0431574
0.0431851
0.0432131
0.0432411
0.0432689
0.0432966
0.0433226
0.0433445
0.0433623
0.0433778
0.0433923
0.043407
0.0434227
0.04344
0.0434593
0.0434805
0.0435033
0.0435265
0.0435476
0.0435638
0.0435733
0.0435765
0.0431546
0.0431526
0.0431581
0.0431689
0.0431823
0.0431972
0.0432134
0.0432308
0.0432494
0.043269
0.0432893
0.04331
0.0433306
0.0433509
0.0433709
0.0433905
0.0434089
0.0434241
0.0434364
0.0434469
0.0434566
0.0434663
0.0434765
0.0434876
0.0435
0.0435137
0.0435289
0.0435449
0.0435603
0.0435731
0.0435813
0.0435844
0.0433091
0.0433127
0.0433234
0.0433356
0.0433478
0.0433598
0.0433716
0.0433834
0.0433953
0.0434075
0.0434199
0.0434323
0.0434445
0.0434565
0.0434682
0.0434797
0.0434903
0.043499
0.0435061
0.043512
0.0435175
0.0435228
0.0435284
0.0435344
0.0435411
0.0435486
0.0435569
0.0435658
0.0435749
0.043583
0.0435887
0.0435911
0.0434978
0.0435007
0.0435063
0.0435116
0.0435166
0.0435211
0.0435254
0.0435295
0.0435336
0.0435377
0.0435418
0.0435458
0.0435498
0.0435537
0.0435575
0.0435612
0.0435646
0.0435674
0.0435697
0.0435716
0.0435733
0.043575
0.0435767
0.0435786
0.0435807
0.043583
0.0435855
0.0435883
0.0435913
0.043594
0.043596
0.043597
)
;

boundaryField
{
    movingWall
    {
        type            fixedValue;
        value           uniform 0.0436;
    }
    fixedWalls
    {
        type            zeroGradient;
    }
    floor
    {
        type            zeroGradient;
    }
    frontAndBack
    {
        type            empty;
    }
}


// ************************************************************************* //
