/*--------------------------------*- C++ -*----------------------------------*\
| =========                 |                                                 |
| \\      /  F ield         | OpenFOAM: The Open Source CFD Toolbox           |
|  \\    /   O peration     | Version:  2206                                  |
|   \\  /    A nd           | Website:  www.openfoam.com                      |
|    \\/     M anipulation  |                                                 |
\*---------------------------------------------------------------------------*/
FoamFile
{
    version     2.0;
    format      ascii;
    arch        "LSB;label=64;scalar=64";
    class       volVectorField;
    location    "25200";
    object      U;
}
// * * * * * * * * * * * * * * * * * * * * * * * * * * * * * * * * * * * * * //

dimensions      [0 1 -1 0 0 0 0];

internalField   nonuniform List<vector> 
16
(
(3.61708e-08 -5.54088e-08 0)
(1.1101e-07 -5.55276e-09 0)
(6.73427e-08 4.22258e-08 0)
(-6.91739e-09 1.7607e-08 0)
(-1.95252e-08 -8.78281e-08 0)
(1.62731e-08 -3.13625e-08 0)
(4.145e-08 7.94984e-08 0)
(3.51738e-09 4.0607e-08 0)
(-1.98725e-08 -5.50818e-08 0)
(-4.64338e-08 -6.67655e-08 0)
(-1.19646e-08 5.74008e-08 0)
(1.20377e-08 6.33766e-08 0)
(3.90886e-09 -2.18183e-08 0)
(-8.20603e-08 -3.70049e-08 0)
(-9.55786e-08 2.10071e-08 0)
(-9.30218e-09 3.86652e-08 0)
)
;

boundaryField
{
    movingWall
    {
        type            noSlip;
    }
    fixedWalls
    {
        type            noSlip;
    }
    frontAndBack
    {
        type            empty;
    }
}


// ************************************************************************* //
