/*--------------------------------*- C++ -*----------------------------------*\
| =========                 |                                                 |
| \\      /  F ield         | OpenFOAM: The Open Source CFD Toolbox           |
|  \\    /   O peration     | Version:  2206                                  |
|   \\  /    A nd           | Website:  www.openfoam.com                      |
|    \\/     M anipulation  |                                                 |
\*---------------------------------------------------------------------------*/
FoamFile
{
    version     2.0;
    format      ascii;
    arch        "LSB;label=64;scalar=64";
    class       volVectorField;
    location    "417600";
    object      U;
}
// * * * * * * * * * * * * * * * * * * * * * * * * * * * * * * * * * * * * * //

dimensions      [0 1 -1 0 0 0 0];

internalField   nonuniform List<vector> 
16
(
(6.0526e-08 -8.49454e-08 0)
(2.92177e-07 -5.47164e-08 0)
(2.93755e-07 5.35142e-08 0)
(6.06523e-08 8.58366e-08 0)
(2.66208e-08 -2.65708e-07 0)
(1.28375e-07 -1.86064e-07 0)
(1.36085e-07 1.87103e-07 0)
(3.0848e-08 2.64439e-07 0)
(-2.86392e-08 -2.35631e-07 0)
(-1.80115e-07 -1.65809e-07 0)
(-1.70598e-07 1.51927e-07 0)
(-1.99279e-08 2.49809e-07 0)
(-5.68035e-08 -6.20988e-08 0)
(-2.41858e-07 -4.23766e-08 0)
(-2.58504e-07 2.63502e-08 0)
(-7.18147e-08 7.7572e-08 0)
)
;

boundaryField
{
    movingWall
    {
        type            noSlip;
    }
    fixedWalls
    {
        type            noSlip;
    }
    frontAndBack
    {
        type            empty;
    }
}


// ************************************************************************* //
