/*--------------------------------*- C++ -*----------------------------------*\
| =========                 |                                                 |
| \\      /  F ield         | OpenFOAM: The Open Source CFD Toolbox           |
|  \\    /   O peration     | Version:  2212                                  |
|   \\  /    A nd           | Website:  www.openfoam.com                      |
|    \\/     M anipulation  |                                                 |
\*---------------------------------------------------------------------------*/
FoamFile
{
    version     2.0;
    format      ascii;
    arch        "LSB;label=64;scalar=64";
    class       volScalarField;
    location    "0.68";
    object      alpha.air;
}
// * * * * * * * * * * * * * * * * * * * * * * * * * * * * * * * * * * * * * //

dimensions      [0 0 0 0 0 0 0];

internalField   nonuniform List<scalar> 
32768
(
2.73316e-118
5.50789e-115
2.34504e-112
4.54294e-110
5.34931e-108
4.44678e-106
2.84438e-104
1.47383e-102
6.38037e-101
2.35101e-99
7.45647e-98
2.04937e-96
4.9005e-95
1.02161e-93
1.85772e-92
2.94413e-91
4.05746e-90
4.84472e-89
4.9851e-88
4.38823e-87
3.27252e-86
2.04119e-85
1.04691e-84
4.31518e-84
1.38513e-83
3.31588e-83
5.57561e-83
5.99332e-83
3.47798e-83
7.8751e-84
6.195e-85
4.09662e-86
7.60885e-86
5.62813e-85
3.07972e-84
3.91239e-84
1.56511e-84
4.46315e-85
1.14803e-85
2.8664e-86
7.29131e-87
1.96671e-87
5.88936e-88
2.096e-88
1.0013e-88
7.7409e-89
1.12188e-88
2.89832e-88
1.18734e-87
7.146e-87
5.74479e-86
5.51893e-85
5.63887e-84
5.52778e-83
4.89082e-82
4.0245e-81
7.22911e-80
4.44413e-78
2.83464e-76
1.30945e-74
3.44884e-73
2.02918e-72
5.7598e-72
9.00299e-72
1.29583e-71
9.1173e-72
4.66998e-72
1.81128e-72
7.50485e-74
1.91412e-75
3.90099e-77
1.70547e-78
6.04954e-79
2.22169e-79
7.01292e-80
2.02494e-80
5.63892e-81
1.57298e-81
4.5957e-82
1.46272e-82
5.26847e-83
2.21675e-83
1.13171e-83
7.30618e-84
6.31436e-84
7.5276e-84
1.20334e-83
2.47398e-83
6.40049e-83
2.095e-82
8.77717e-82
4.41261e-81
2.12214e-80
6.79689e-80
7.50894e-80
1.79705e-81
5.63085e-83
5.32066e-83
2.96749e-82
6.68434e-82
7.77884e-82
5.54343e-82
2.68361e-82
9.48448e-83
2.57167e-83
5.54198e-84
9.74115e-85
1.42383e-85
1.75641e-86
1.84946e-87
1.67686e-88
1.31774e-89
9.01801e-91
5.39186e-92
2.82166e-93
1.29312e-94
5.18568e-96
1.81571e-97
5.52832e-99
1.45377e-100
3.265e-102
6.14677e-104
9.40294e-106
1.10966e-107
9.26025e-110
4.69678e-112
1.07961e-114
5.12508e-118
2.15146e-113
2.56279e-110
8.4278e-108
1.37949e-105
1.43838e-103
1.09188e-101
6.53239e-100
3.23259e-98
1.36243e-96
4.97596e-95
1.59054e-93
4.47378e-92
1.11027e-90
2.43317e-89
4.70633e-88
8.02066e-87
1.20083e-85
1.57273e-84
1.79159e-83
1.76191e-82
1.48152e-81
1.05207e-80
6.21006e-80
2.98385e-79
1.13428e-78
3.27965e-78
6.83366e-78
9.51735e-78
7.94677e-78
3.43949e-78
6.50029e-79
5.77813e-80
7.58696e-81
1.74905e-80
4.65125e-80
2.70315e-80
7.63255e-81
1.84553e-81
4.36142e-82
1.04534e-82
2.62733e-83
7.13996e-84
2.18909e-84
8.12591e-85
4.13632e-85
3.44493e-85
5.24638e-85
1.37352e-84
5.59422e-84
3.31774e-83
2.61242e-82
2.44635e-81
2.42856e-80
2.31046e-79
1.98161e-78
1.56342e-77
2.63066e-76
1.58216e-74
9.99267e-73
4.55292e-71
1.17595e-69
6.71905e-69
1.8482e-68
2.86857e-68
4.13637e-68
2.91761e-68
1.53834e-68
6.11868e-69
2.62501e-70
6.91188e-72
1.44594e-73
6.40025e-75
2.30869e-75
8.70364e-76
2.82149e-76
8.3701e-77
2.39629e-77
6.87185e-78
2.06325e-78
6.74775e-79
2.49812e-79
1.08097e-79
5.67042e-80
3.74398e-80
3.27683e-80
3.9165e-80
6.2423e-80
1.27471e-79
3.26696e-79
1.06276e-78
4.52528e-78
2.46785e-77
1.44768e-76
6.82465e-76
1.8366e-75
1.37141e-75
5.15013e-77
3.99109e-77
1.05255e-76
1.49458e-76
1.24663e-76
6.81598e-77
2.64317e-77
7.69195e-78
1.75077e-78
3.21493e-79
4.87664e-80
6.22297e-81
6.77583e-82
6.36534e-83
5.20377e-84
3.72682e-85
2.35002e-86
1.30953e-87
6.46484e-89
2.83149e-90
1.10058e-91
3.79273e-93
1.1556e-94
3.09603e-96
7.22079e-98
1.44057e-99
2.38652e-101
3.12598e-103
2.98737e-105
1.81961e-107
5.50492e-110
4.55767e-113
6.91908e-111
7.60601e-108
2.35627e-105
3.70474e-103
3.78613e-101
2.87566e-99
1.75745e-97
9.06777e-96
4.06402e-94
1.60782e-92
5.6624e-91
1.78196e-89
5.0165e-88
1.26253e-86
2.83543e-85
5.66605e-84
1.00352e-82
1.56738e-81
2.14528e-80
2.55256e-79
2.61376e-78
2.27399e-77
1.65369e-76
9.84265e-76
4.66342e-75
1.69469e-74
4.49032e-74
8.08563e-74
8.95696e-74
5.32438e-74
1.48085e-74
2.38887e-75
7.23772e-76
3.21368e-76
2.15361e-76
6.34482e-77
1.36508e-77
2.88048e-78
6.32194e-79
1.45839e-79
3.61396e-80
9.85008e-81
3.0766e-81
1.18479e-81
6.37677e-82
5.64494e-82
8.90455e-82
2.34157e-81
9.42685e-81
5.48669e-80
4.22532e-79
3.86406e-78
3.74432e-77
3.47674e-76
2.90366e-75
2.15858e-74
3.0877e-73
1.82929e-71
1.20108e-69
5.62504e-68
1.4709e-66
8.20818e-66
2.18983e-65
3.37731e-65
4.87925e-65
3.44953e-65
1.87098e-65
7.60963e-66
3.3908e-67
9.16433e-69
1.94619e-70
8.74148e-72
3.22948e-72
1.24757e-72
4.14329e-73
1.25949e-73
3.69718e-74
1.08704e-74
3.34521e-75
1.12114e-75
4.25498e-76
1.88847e-76
1.01541e-76
6.84593e-77
6.06697e-77
7.27619e-77
1.15778e-76
2.35202e-76
5.97481e-76
1.9237e-75
8.18982e-75
4.65799e-74
3.09735e-73
1.85541e-72
7.62587e-72
1.67405e-71
1.22737e-71
1.04143e-72
1.27258e-72
1.30194e-72
8.19227e-73
3.44833e-73
1.04187e-73
2.38408e-74
4.303e-75
6.31451e-76
7.71158e-77
7.98316e-78
7.10714e-79
5.5037e-80
3.74083e-81
2.24757e-82
1.20037e-83
5.72378e-85
2.44498e-86
9.37929e-88
3.23641e-89
1.00502e-90
2.80548e-92
7.01208e-94
1.55577e-95
3.0141e-97
4.95312e-99
6.57489e-101
6.50381e-103
4.18547e-105
1.36429e-107
1.24223e-110
2.00113e-108
2.17527e-105
6.55778e-103
9.99256e-101
9.91947e-99
7.36792e-97
4.44869e-95
2.29644e-93
1.04409e-91
4.24969e-90
1.56062e-88
5.18494e-87
1.55826e-85
4.229e-84
1.03358e-82
2.26664e-81
4.44034e-80
7.72839e-79
1.18708e-77
1.5961e-76
1.86e-75
1.85576e-74
1.56114e-73
1.08562e-72
6.07904e-72
2.64744e-71
8.57182e-71
1.94357e-70
2.84693e-70
2.45818e-70
1.1723e-70
3.07201e-71
5.82259e-72
1.70049e-72
4.72397e-73
8.90598e-74
1.57276e-74
2.99803e-75
6.2193e-76
1.39414e-76
3.422e-77
9.37551e-78
2.98747e-78
1.19449e-78
6.79023e-79
6.35775e-79
1.03418e-78
2.73194e-78
1.09029e-77
6.24763e-77
4.71605e-76
4.21426e-75
3.98267e-74
3.60468e-73
2.9304e-72
2.0765e-71
2.59469e-70
1.49245e-68
1.0039e-66
4.78282e-65
1.25909e-63
6.86583e-63
1.77373e-62
2.71853e-62
3.93376e-62
2.78712e-62
1.55471e-62
6.44389e-63
3.01336e-64
8.55042e-66
1.89695e-67
8.37113e-69
3.06621e-69
1.21118e-69
4.11557e-70
1.27973e-70
3.84306e-71
1.15529e-71
3.63146e-72
1.24201e-72
4.80878e-73
2.17717e-73
1.19291e-73
8.16537e-74
7.28853e-74
8.72671e-74
1.37893e-73
2.77062e-73
6.9236e-73
2.17938e-72
9.06529e-72
5.15526e-71
3.63329e-70
2.48501e-69
1.25895e-68
3.8695e-68
6.02983e-68
4.29754e-68
1.12325e-68
2.90143e-69
1.39645e-69
4.83021e-70
1.22475e-70
2.38082e-71
3.68279e-72
4.66748e-73
4.96072e-74
4.5025e-75
3.54047e-76
2.43947e-77
1.48597e-78
8.05955e-80
3.91562e-81
1.71255e-82
6.77088e-84
2.42844e-85
7.92227e-87
2.35419e-88
6.37039e-90
1.56462e-91
3.45871e-93
6.76484e-95
1.13522e-96
1.55218e-98
1.58927e-100
1.05884e-102
3.55026e-105
3.26186e-108
8.6414e-106
9.19023e-103
2.69832e-100
3.9985e-98
3.85975e-96
2.79131e-94
1.64545e-92
8.32909e-91
3.73493e-89
1.50944e-87
5.54287e-86
1.85436e-84
5.64975e-83
1.56449e-81
3.92572e-80
8.89233e-79
1.81007e-77
3.29283e-76
5.31879e-75
7.56757e-74
9.39396e-73
1.00514e-71
9.13584e-71
6.92777e-70
4.28007e-69
2.08741e-68
7.71071e-68
2.04707e-67
3.62412e-67
3.85383e-67
2.20106e-67
6.81646e-68
1.64633e-68
3.51511e-69
6.08869e-70
8.9658e-71
1.40471e-71
2.5196e-72
5.05748e-73
1.11816e-73
2.74498e-74
7.6135e-75
2.48926e-75
1.03824e-75
6.24897e-76
6.18082e-76
1.03599e-75
2.75724e-75
1.09634e-74
6.21479e-74
4.61262e-73
4.03007e-72
3.70889e-71
3.26473e-70
2.57833e-69
1.75916e-68
2.03127e-67
1.12665e-65
7.53453e-64
3.5679e-62
9.31469e-61
4.96102e-60
1.2378e-59
1.88489e-59
2.72976e-59
1.93758e-59
1.11131e-59
4.6764e-60
2.29888e-61
6.84409e-63
1.58962e-64
6.91343e-66
2.47687e-66
9.97582e-67
3.46046e-67
1.09783e-67
3.36232e-68
1.02972e-68
3.29171e-69
1.1428e-69
4.48483e-70
2.05635e-70
1.13912e-70
7.85234e-71
7.00318e-71
8.30195e-71
1.29106e-70
2.54069e-70
6.17498e-70
1.87184e-69
7.43088e-69
4.06579e-68
2.86842e-67
2.07048e-66
1.14787e-65
3.96599e-65
7.26543e-65
6.92866e-65
3.69814e-65
1.19304e-65
2.41846e-66
4.02008e-67
8.11724e-68
1.39993e-68
1.96304e-69
2.28625e-70
2.25613e-71
1.91955e-72
1.42717e-73
9.36492e-75
5.46642e-76
2.8581e-77
1.34607e-78
5.73991e-80
2.22552e-81
7.87448e-83
2.54999e-84
7.57031e-86
2.06009e-87
5.12198e-89
1.1533e-90
2.30995e-92
3.98559e-94
5.61756e-96
5.93664e-98
4.08255e-100
1.41101e-102
1.32997e-105
3.73503e-103
3.85912e-100
1.10273e-97
1.59167e-95
1.4972e-93
1.05549e-91
6.06972e-90
3.00129e-88
1.31752e-86
5.22774e-85
1.89119e-83
6.25585e-82
1.89164e-80
5.21843e-79
1.30952e-77
2.97818e-76
6.11147e-75
1.12566e-73
1.84979e-72
2.69262e-71
3.44064e-70
3.81606e-69
3.62349e-68
2.89501e-67
1.9024e-66
9.98231e-66
4.01745e-65
1.17775e-64
2.34633e-64
2.9363e-64
2.06298e-64
8.54004e-65
2.14388e-65
3.82999e-66
5.36086e-67
7.01594e-68
1.04236e-68
1.82955e-69
3.64209e-70
8.07797e-71
2.00769e-71
5.69223e-72
1.92506e-72
8.43074e-73
5.39201e-73
5.63171e-73
9.72694e-73
2.61572e-72
1.04067e-71
5.85848e-71
4.28644e-70
3.66517e-69
3.28356e-68
2.80846e-67
2.15243e-66
1.42052e-65
1.56956e-64
8.39852e-63
5.47817e-61
2.5384e-59
6.50166e-58
3.38326e-57
8.12727e-57
1.22915e-56
1.77965e-56
1.26484e-56
7.45679e-57
3.17065e-57
1.64135e-58
5.12269e-60
1.24402e-61
5.32383e-63
1.8508e-63
7.57098e-64
2.67083e-64
8.60853e-65
2.67656e-65
8.30901e-66
2.68638e-66
9.40995e-67
3.7185e-67
1.71407e-67
9.52343e-68
6.55619e-68
5.79266e-68
6.73787e-68
1.02108e-67
1.94698e-67
4.54796e-67
1.30886e-66
4.86113e-66
2.48381e-65
1.68295e-64
1.21574e-63
6.8776e-63
2.42219e-62
4.50702e-62
4.4611e-62
2.57443e-62
9.53399e-63
2.44556e-63
4.59717e-64
6.59371e-65
7.47932e-66
8.17719e-67
8.60185e-68
7.97242e-69
6.5175e-70
4.71814e-71
3.03776e-72
1.74974e-73
9.07134e-75
4.2552e-76
1.81446e-77
7.0605e-79
2.51555e-80
8.22842e-82
2.47473e-83
6.84144e-85
1.73248e-86
3.98184e-88
8.15364e-90
1.43992e-91
2.07902e-93
2.25272e-95
1.59042e-97
5.65452e-100
5.50076e-103
1.31819e-100
1.32196e-97
3.67578e-95
5.17e-93
4.74239e-91
3.26151e-89
1.83026e-87
8.83597e-86
3.79061e-84
1.47195e-82
5.22123e-81
1.69736e-79
5.05681e-78
1.37825e-76
3.42728e-75
7.74883e-74
1.58621e-72
2.92529e-71
4.83219e-70
7.10039e-69
9.20005e-68
1.04026e-66
1.01336e-65
8.36705e-65
5.73433e-64
3.17654e-63
1.37512e-62
4.43661e-62
9.99143e-62
1.46897e-61
1.30981e-61
6.27812e-62
1.67251e-62
2.74646e-63
3.53154e-64
4.45713e-65
6.60819e-66
1.17286e-66
2.36796e-67
5.35593e-68
1.36485e-68
3.99708e-69
1.41052e-69
6.53191e-70
4.45466e-70
4.9112e-70
8.74274e-70
2.38149e-69
9.512e-69
5.33325e-68
3.85466e-67
3.22922e-66
2.81759e-65
2.34212e-64
1.74177e-63
1.11404e-62
1.19579e-61
6.18022e-60
3.89874e-58
1.75449e-56
4.38344e-55
2.23157e-54
5.14285e-54
7.72121e-54
1.11625e-53
7.94014e-54
4.81031e-54
2.05521e-54
1.12258e-55
3.66953e-57
9.30499e-59
3.91304e-60
1.30829e-60
5.41217e-61
1.93377e-61
6.30423e-62
1.98028e-62
6.19931e-63
2.01579e-63
7.08048e-64
2.79857e-64
1.28751e-64
7.1196e-65
4.85641e-65
4.21755e-65
4.77457e-65
6.98851e-65
1.27895e-64
2.84227e-64
7.67607e-64
2.62428e-63
1.22067e-62
7.67827e-62
5.35961e-61
2.97871e-60
1.01771e-59
1.80992e-59
1.72708e-59
9.7994e-60
3.64626e-60
9.6062e-61
1.89854e-61
2.93984e-62
3.68631e-63
3.83604e-64
3.37519e-65
2.57216e-66
1.86656e-67
1.27477e-68
7.98832e-70
4.52838e-71
2.32675e-72
1.08889e-73
4.6612e-75
1.8299e-76
6.60219e-78
2.19321e-79
6.71439e-81
1.89304e-82
4.89596e-84
1.15035e-85
2.40935e-87
4.35305e-89
6.43161e-91
7.1352e-93
5.16368e-95
1.88597e-97
1.89199e-100
3.70976e-98
3.60607e-95
9.73841e-93
1.33205e-90
1.18915e-88
7.96213e-87
4.35104e-85
2.04622e-83
8.55659e-82
3.24223e-80
1.12395e-78
3.57773e-77
1.04599e-75
2.80433e-74
6.87745e-73
1.53791e-71
3.12372e-70
5.7366e-69
9.47347e-68
1.39793e-66
1.82905e-65
2.10195e-64
2.09671e-63
1.78855e-62
1.27943e-61
7.48229e-61
3.46204e-60
1.21626e-59
3.1287e-59
5.36685e-59
5.54709e-59
3.13249e-59
8.84865e-60
1.43977e-60
1.83528e-61
2.35922e-62
3.62693e-63
6.67889e-64
1.39362e-64
3.26186e-65
8.6245e-66
2.6351e-66
9.78553e-67
4.82341e-67
3.51737e-67
4.09094e-67
7.50869e-67
2.07653e-66
8.34942e-66
4.6731e-65
3.34179e-64
2.74567e-63
2.3349e-62
1.88731e-61
1.36221e-60
8.45079e-60
8.86348e-59
4.42734e-57
2.69165e-55
1.17207e-53
2.84664e-52
1.42083e-51
3.12853e-51
4.66042e-51
6.71858e-51
4.78201e-51
2.97698e-51
1.27008e-51
7.33791e-53
2.51036e-54
6.63961e-56
2.74151e-57
8.7321e-58
3.63737e-58
1.31122e-58
4.30552e-59
1.36021e-59
4.27351e-60
1.39039e-60
4.86988e-61
1.91358e-61
8.72953e-62
4.77164e-62
3.20293e-62
2.71605e-62
2.9729e-62
4.17351e-62
7.27747e-62
1.5277e-61
3.84475e-61
1.19981e-60
5.00706e-60
2.85393e-59
1.87083e-58
9.92068e-58
3.18038e-57
5.23244e-57
4.66396e-57
2.51682e-57
9.06933e-58
2.35173e-58
4.64099e-59
7.27269e-60
9.34765e-61
1.01008e-61
9.34763e-63
7.51261e-64
5.29692e-65
3.30213e-66
1.84976e-67
9.80383e-69
4.89496e-70
2.27707e-71
9.76406e-73
3.85532e-74
1.40351e-75
4.71744e-77
1.4654e-78
4.20378e-80
1.10893e-81
2.66237e-83
5.70472e-85
1.05522e-86
1.59707e-88
1.81618e-90
1.34882e-92
5.06526e-95
5.24064e-98
8.52288e-96
8.00444e-93
2.0923e-90
2.77361e-88
2.40139e-86
1.55991e-84
8.27179e-83
3.7762e-81
1.53406e-79
5.65466e-78
1.91053e-76
5.94103e-75
1.70122e-73
4.47999e-72
1.08249e-70
2.39282e-69
4.82146e-68
8.81909e-67
1.45696e-65
2.16064e-64
2.85566e-63
3.33303e-62
3.39618e-61
2.97984e-60
2.21233e-59
1.36064e-58
6.7894e-58
2.62651e-57
7.42181e-57
1.43404e-56
1.72401e-56
1.11049e-56
3.46577e-57
5.85813e-58
7.76536e-59
1.05782e-59
1.73604e-60
3.38242e-61
7.40885e-62
1.81732e-62
5.03892e-63
1.62079e-63
6.38331e-64
3.36847e-64
2.6313e-64
3.22603e-64
6.10793e-64
1.71849e-63
6.97208e-63
3.90221e-62
2.7643e-61
2.22905e-60
1.84849e-59
1.45351e-58
1.01831e-57
6.12918e-57
6.29867e-56
3.04131e-54
1.77825e-52
7.47317e-51
1.75931e-49
8.63406e-49
1.80787e-48
2.67065e-48
3.83437e-48
2.73116e-48
1.7477e-48
7.39537e-49
4.53366e-50
1.62253e-51
4.4731e-53
1.81345e-54
5.44907e-55
2.27617e-55
8.25043e-56
2.71876e-56
8.6048e-57
2.70204e-57
8.75774e-58
3.0441e-58
1.18302e-58
5.32191e-59
2.859e-59
1.87771e-59
1.54643e-59
1.62814e-59
2.18036e-59
3.60246e-59
7.106e-59
1.6589e-58
4.70401e-58
1.74623e-57
8.86074e-57
5.32881e-56
2.63548e-55
7.73503e-55
1.15445e-54
9.46264e-55
4.78635e-55
1.64559e-55
4.13419e-56
8.00998e-57
1.24659e-57
1.60738e-58
1.75798e-59
1.66003e-60
1.37159e-61
1.00175e-62
6.5179e-64
3.80054e-65
1.99448e-66
9.45324e-68
4.11098e-69
1.69957e-70
6.64439e-72
2.4387e-73
8.31059e-75
2.62654e-76
7.68046e-78
2.06691e-79
5.06514e-81
1.10861e-82
2.09684e-84
3.24926e-86
3.78908e-88
2.89123e-90
1.11829e-92
1.1955e-95
1.64318e-93
1.48492e-90
3.74166e-88
4.78811e-86
4.00569e-84
2.51603e-82
1.29102e-80
5.70873e-79
2.24955e-77
8.05838e-76
2.65197e-74
8.05308e-73
2.25815e-71
5.84009e-70
1.38992e-68
3.03538e-67
6.06162e-66
1.10239e-64
1.81717e-63
2.70036e-62
3.59352e-61
4.24745e-60
4.41615e-59
3.99594e-58
3.10263e-57
2.01621e-56
1.06452e-55
4.40448e-55
1.36663e-54
2.95969e-54
4.01497e-54
2.97048e-54
1.05159e-54
1.91261e-55
2.72906e-56
4.06245e-57
7.27641e-58
1.52238e-58
3.54613e-59
9.21607e-60
2.70471e-60
9.23203e-61
3.88318e-61
2.20423e-61
1.84599e-61
2.38343e-61
4.65732e-61
1.33559e-60
5.47787e-60
3.06993e-59
2.15585e-58
1.70666e-57
1.38039e-56
1.05599e-55
7.17911e-55
4.19209e-54
4.2295e-53
1.97404e-51
1.10785e-49
4.4815e-48
1.01941e-46
4.93709e-46
9.77716e-46
1.43137e-45
2.04426e-45
1.458e-45
9.59672e-46
3.99908e-46
2.61151e-47
9.77684e-49
2.80905e-50
1.11926e-51
3.1413e-52
1.31082e-52
4.76433e-53
1.57096e-53
4.96538e-54
1.55324e-54
4.9975e-55
1.71722e-55
6.57256e-56
2.90253e-56
1.52525e-56
9.75599e-57
7.77012e-57
7.83754e-57
9.97064e-57
1.55423e-56
2.86938e-56
6.19349e-56
1.59164e-55
5.2274e-55
2.32997e-54
1.26014e-53
5.70669e-53
1.50597e-52
2.01472e-52
1.50601e-52
7.08991e-53
2.3103e-53
5.58609e-54
1.05517e-54
1.61853e-55
2.07601e-56
2.27666e-57
2.17067e-58
1.82221e-59
1.35989e-60
9.08916e-62
5.47183e-63
2.98027e-64
1.47378e-65
6.63242e-67
2.71778e-68
1.01676e-69
3.58879e-71
1.22168e-72
3.91464e-74
1.16574e-75
3.20349e-77
8.03048e-79
1.79985e-80
3.4889e-82
5.54636e-84
6.64478e-86
5.21956e-88
2.08402e-90
2.30783e-93
2.71079e-91
2.34869e-88
5.68613e-86
7.00359e-84
5.64751e-82
3.42343e-80
1.69749e-78
7.26396e-77
2.77459e-75
9.6514e-74
3.09017e-72
9.14884e-71
2.5071e-69
6.35292e-68
1.48559e-66
3.19743e-65
6.314e-64
1.13979e-62
1.873e-61
2.78948e-60
3.74658e-59
4.50519e-58
4.79544e-57
4.46101e-56
3.56909e-55
2.41e-54
1.34185e-53
5.95961e-53
2.00538e-52
4.7682e-52
7.27379e-52
6.2127e-52
2.54509e-52
5.113e-53
8.07485e-54
1.34621e-54
2.67554e-55
6.08019e-56
1.52273e-56
4.23264e-57
1.32531e-57
4.83415e-58
2.18513e-58
1.33905e-58
1.20217e-58
1.63284e-58
3.2945e-58
9.64484e-58
4.00476e-57
2.2491e-56
1.56602e-55
1.21679e-54
9.59629e-54
7.13926e-53
4.70662e-52
2.66516e-51
2.64515e-50
1.19305e-48
6.41179e-47
2.48898e-45
5.45018e-44
2.61664e-43
4.87047e-43
7.06092e-43
1.00206e-42
7.16371e-43
4.85499e-43
1.97787e-43
1.3823e-44
5.41576e-46
1.62237e-47
6.36662e-49
1.65235e-49
6.86351e-50
2.49633e-50
8.21863e-51
2.58812e-51
8.0452e-52
2.56288e-52
8.68025e-53
3.26127e-53
1.40881e-53
7.21468e-54
4.47773e-54
3.43734e-54
3.31181e-54
3.98983e-54
5.848e-54
1.00734e-53
2.00551e-53
4.66368e-53
1.34998e-52
5.22755e-52
2.49936e-51
1.02169e-50
2.39167e-50
2.84658e-50
1.93209e-50
8.43945e-51
2.59941e-51
6.03283e-52
1.10775e-52
1.66927e-53
2.12224e-54
2.32438e-55
2.22773e-56
1.89065e-57
1.43375e-58
9.78277e-60
6.03827e-61
3.38588e-62
1.73071e-63
8.08347e-65
3.45318e-66
1.34696e-67
4.76295e-69
1.55339e-70
4.96027e-72
1.4979e-73
4.20098e-75
1.07792e-76
2.47738e-78
4.93136e-80
8.0613e-82
9.94734e-84
8.06551e-86
3.33371e-88
3.83577e-91
3.88475e-89
3.21669e-86
7.46189e-84
8.82641e-82
6.84798e-80
4.00033e-78
1.91418e-76
7.91519e-75
2.92523e-73
9.85922e-72
3.06404e-70
8.8253e-69
2.35927e-67
5.85008e-66
1.3432e-64
2.84944e-63
5.57144e-62
1.00099e-60
1.64479e-59
2.45814e-58
3.32069e-57
4.02391e-56
4.33739e-55
4.11576e-54
3.39462e-53
2.38762e-52
1.3954e-51
6.55178e-51
2.36243e-50
6.1432e-50
1.05204e-49
1.03836e-49
4.99922e-50
1.13402e-50
2.03082e-51
3.86694e-52
8.63178e-53
2.15059e-53
5.84576e-54
1.75195e-54
5.89273e-55
2.31121e-55
1.12877e-55
7.48536e-56
7.19765e-56
1.02717e-55
2.1407e-55
6.40544e-55
2.69501e-54
1.51705e-53
1.04688e-52
7.97707e-52
6.1291e-51
4.43025e-50
2.82871e-49
1.55208e-48
1.51844e-47
6.61476e-46
3.39505e-44
1.26015e-42
2.64454e-41
1.26545e-40
2.19842e-40
3.15289e-40
4.44208e-40
3.18817e-40
2.22765e-40
8.80841e-41
6.62372e-42
2.7185e-43
8.49958e-45
3.29606e-46
7.83302e-47
3.22802e-47
1.17338e-47
3.85212e-48
1.20681e-48
3.72199e-49
1.17195e-49
3.90455e-50
1.43663e-50
6.05461e-51
3.01314e-51
1.80945e-51
1.33544e-51
1.22635e-51
1.39591e-51
1.91884e-51
3.07612e-51
5.63672e-51
1.18472e-50
3.01555e-50
1.006e-49
4.1909e-49
1.52756e-48
3.13791e-48
3.30764e-48
2.035e-48
8.24094e-49
2.39786e-49
5.33815e-50
9.52053e-51
1.40794e-51
1.77186e-52
1.93501e-53
1.8607e-54
1.59299e-55
1.22446e-56
8.50508e-58
5.36535e-59
3.08641e-60
1.62425e-61
7.83782e-63
3.47156e-64
1.40943e-65
5.21298e-67
1.72899e-68
5.43142e-70
1.65107e-71
4.71444e-73
1.23879e-74
2.92477e-76
5.99278e-78
1.0101e-79
1.28751e-81
1.08077e-83
4.63811e-86
5.56143e-89
4.88088e-87
3.85288e-84
8.54573e-82
9.6895e-80
7.22068e-78
4.05811e-76
1.87082e-74
7.46291e-73
2.66453e-71
8.69126e-70
2.62017e-68
7.34287e-67
1.91693e-65
4.66086e-64
1.05342e-62
2.20587e-61
4.26473e-60
7.58564e-59
1.23653e-57
1.84016e-56
2.48867e-55
3.04113e-54
3.32582e-53
3.21826e-52
2.71756e-51
1.96778e-50
1.19465e-49
5.89924e-49
2.27285e-48
6.44482e-48
1.23484e-47
1.40865e-47
8.05277e-48
2.10553e-48
4.36913e-49
9.64746e-50
2.44024e-50
6.72149e-51
1.99954e-51
6.50558e-52
2.36458e-52
1.00283e-52
5.31558e-53
3.81881e-53
3.92675e-53
5.87995e-53
1.26594e-52
3.87447e-52
1.65223e-51
9.31768e-51
6.36524e-50
4.74914e-49
3.54964e-48
2.48888e-47
1.53621e-46
8.15731e-46
7.88282e-45
3.31377e-43
1.61908e-41
5.7221e-40
1.1448e-38
5.49437e-38
8.84066e-38
1.25248e-37
1.75054e-37
1.26401e-37
9.11967e-38
3.4766e-38
2.82944e-39
1.21841e-40
3.98255e-42
1.53325e-43
3.30566e-44
1.34718e-44
4.89191e-45
1.6008e-45
4.98626e-46
1.5248e-46
4.74209e-47
1.55252e-47
5.58587e-48
2.2926e-48
1.10654e-48
6.41651e-49
4.54478e-49
3.97186e-49
4.26442e-49
5.48614e-49
8.16806e-49
1.37522e-48
2.61069e-48
5.83825e-48
1.66785e-47
5.97456e-47
1.91965e-46
3.43118e-46
3.19587e-46
1.78238e-46
6.69613e-47
1.8419e-47
3.93555e-48
6.82007e-49
9.89937e-50
1.23305e-50
1.3422e-51
1.29416e-52
1.11675e-53
8.69174e-55
6.13823e-56
3.9519e-57
2.32825e-58
1.25906e-59
6.26352e-61
2.86937e-62
1.209e-63
4.65903e-65
1.6188e-66
5.08631e-68
1.56247e-69
4.55252e-71
1.22807e-72
2.98677e-74
6.31755e-76
1.10113e-77
1.45391e-79
1.26696e-81
5.66031e-84
7.09185e-87
5.40962e-85
4.06285e-82
8.60119e-80
9.33364e-78
6.67151e-76
3.60304e-74
1.5989e-72
6.15089e-71
2.12253e-69
6.70992e-68
1.96671e-66
5.37465e-65
1.37091e-63
3.25929e-62
7.21011e-61
1.48141e-59
2.82175e-58
4.97173e-57
8.06046e-56
1.19605e-54
1.61583e-53
1.97557e-52
2.16975e-51
2.1202e-50
1.8207e-49
1.35229e-48
8.50631e-48
4.40617e-47
1.80824e-46
5.56964e-46
1.19021e-45
1.56731e-45
1.0703e-45
3.29216e-46
8.06653e-47
2.08913e-47
6.03063e-48
1.85155e-48
6.07316e-49
2.15803e-49
8.52254e-50
3.92842e-50
2.2678e-50
1.76483e-50
1.9365e-50
3.03804e-50
6.75592e-50
2.11524e-49
9.13815e-49
5.15639e-48
3.48006e-47
2.53638e-46
1.84001e-45
1.24853e-44
7.42991e-44
3.81135e-43
3.64503e-42
1.47661e-40
6.84224e-39
2.29133e-37
4.34326e-36
2.10531e-35
3.11244e-35
4.34692e-35
6.02359e-35
4.38734e-35
3.2739e-35
1.19655e-35
1.06018e-36
4.80143e-38
1.64464e-39
6.32346e-41
1.22683e-41
4.92825e-42
1.78844e-42
5.83712e-43
1.80848e-43
5.48487e-44
1.68521e-44
5.42142e-45
1.90645e-45
7.61296e-46
3.55918e-46
1.99011e-46
1.35113e-46
1.12271e-46
1.13578e-46
1.36534e-46
1.88461e-46
2.91102e-46
4.98813e-46
9.79912e-46
2.38756e-45
7.26766e-45
2.0357e-44
3.14596e-44
2.588e-44
1.31014e-44
4.57382e-45
1.19126e-45
2.4463e-46
4.12368e-47
5.87986e-48
7.25316e-49
7.87219e-50
7.61226e-51
6.62051e-52
5.21621e-53
3.74382e-54
2.4585e-55
1.48234e-56
8.22985e-58
4.21628e-59
1.99524e-60
8.71197e-62
3.49154e-63
1.26736e-64
4.07186e-66
1.28029e-67
3.82338e-69
1.06016e-70
2.6592e-72
5.81689e-74
1.05072e-75
1.44049e-77
1.30614e-79
6.08873e-82
7.9895e-85
5.31315e-83
3.78997e-80
7.64774e-78
7.93404e-76
5.4352e-74
2.81944e-72
1.20442e-70
4.47114e-69
1.49289e-67
4.57841e-66
1.30428e-64
3.46764e-63
8.61835e-62
2.00539e-60
4.36721e-59
8.83486e-58
1.65536e-56
2.86603e-55
4.5719e-54
6.69632e-53
8.96608e-52
1.09161e-50
1.20019e-49
1.18127e-48
1.02906e-47
7.81835e-47
5.08092e-46
2.75201e-45
1.1991e-44
3.99952e-44
9.5009e-44
1.44016e-43
1.17784e-43
4.348e-44
1.27759e-44
3.91433e-45
1.29851e-45
4.48213e-46
1.6323e-46
6.3705e-47
2.74817e-47
1.38336e-47
8.71736e-48
7.33956e-48
8.57251e-48
1.40664e-47
3.22902e-47
1.03372e-46
4.51823e-46
2.54538e-45
1.69208e-44
1.20069e-43
8.42763e-43
5.51587e-42
3.15359e-41
1.55899e-40
1.47787e-39
5.75747e-38
2.51929e-36
7.94974e-35
1.41735e-33
6.98772e-33
9.42055e-33
1.29314e-32
1.77583e-32
1.30874e-32
1.01174e-32
3.532e-33
3.42463e-34
1.63667e-35
5.89455e-37
2.27958e-38
3.95545e-39
1.56078e-39
5.66769e-40
1.84815e-40
5.70435e-41
1.7182e-41
5.22113e-42
1.65166e-42
5.67802e-43
2.20576e-43
9.98486e-44
5.38023e-44
3.4992e-44
2.76343e-44
2.63249e-44
2.95325e-44
3.77328e-44
5.33906e-44
8.25109e-44
1.42404e-43
2.95217e-43
7.55831e-43
1.82553e-42
2.42878e-42
1.76653e-42
8.1361e-43
2.64586e-43
6.53917e-44
1.29306e-44
2.12361e-45
2.97838e-46
3.64233e-47
3.94489e-48
3.82788e-49
3.35676e-50
2.67788e-51
1.95345e-52
1.30831e-53
8.07123e-55
4.59892e-56
2.42519e-57
1.18478e-58
5.35676e-60
2.23051e-61
8.44651e-63
2.8333e-64
9.11012e-66
2.79253e-67
7.97919e-69
2.06973e-70
4.69409e-72
8.80764e-74
1.25641e-75
1.18775e-77
5.78818e-80
7.96931e-83
4.63121e-81
3.13439e-78
6.02344e-76
5.96974e-74
3.91719e-72
1.95108e-70
8.02264e-69
2.8742e-67
9.28542e-66
2.76152e-64
7.64744e-63
1.98469e-61
4.84158e-60
1.10447e-58
2.34133e-57
4.60967e-56
8.42103e-55
1.42542e-53
2.23036e-52
3.21598e-51
4.25672e-50
5.14745e-49
5.65186e-48
5.59009e-47
4.92901e-46
3.82221e-45
2.56039e-44
1.44657e-43
6.67293e-43
2.40208e-42
6.31801e-42
1.09781e-41
1.07491e-41
4.84934e-42
1.72874e-42
6.31436e-43
2.42633e-43
9.50192e-44
3.86856e-44
1.6679e-44
7.90283e-45
4.36337e-45
3.00477e-45
2.73138e-45
3.38649e-45
5.80083e-45
1.37311e-44
4.48875e-44
1.98044e-43
1.11025e-42
7.23941e-42
4.97932e-41
3.36734e-40
2.11654e-39
1.15727e-38
5.49563e-38
5.16852e-37
1.93074e-35
7.93828e-34
2.34554e-32
3.90029e-31
1.96717e-30
2.4053e-30
3.23105e-30
4.39525e-30
3.28878e-30
2.63788e-30
8.79095e-31
9.35741e-32
4.74105e-33
1.80386e-34
7.07697e-36
1.09432e-36
4.22544e-37
1.539e-37
5.02695e-38
1.54927e-38
4.64463e-39
1.39896e-39
4.3602e-40
1.46738e-40
5.55004e-41
2.43349e-41
1.26363e-41
7.87192e-42
5.90801e-42
5.29794e-42
5.54063e-42
6.542e-42
8.46627e-42
1.17873e-41
1.78716e-41
3.14841e-41
6.72361e-41
1.38536e-40
1.58335e-40
1.02057e-40
4.28967e-41
1.3033e-41
3.06461e-42
5.8485e-43
9.37616e-44
1.29556e-44
1.57282e-45
1.70176e-46
1.65847e-47
1.46739e-48
1.18588e-49
8.79512e-51
6.00868e-52
3.79295e-53
2.21785e-54
1.20363e-55
6.06851e-57
2.83998e-58
1.22794e-59
4.84725e-61
1.70402e-62
5.63071e-64
1.7787e-65
5.25563e-67
1.41373e-68
3.33183e-70
6.50664e-72
9.67534e-74
9.55285e-76
4.87509e-78
7.05532e-81
3.58979e-79
2.30295e-76
4.21192e-74
3.98596e-72
2.50432e-70
1.19726e-68
4.73634e-67
1.6364e-65
5.1113e-64
1.47424e-62
3.97488e-61
1.00794e-59
2.40305e-58
5.31457e-57
1.08954e-55
2.07912e-54
3.69457e-53
6.10496e-52
9.35889e-51
1.32709e-49
1.7345e-48
2.08055e-47
2.27781e-46
2.2599e-45
2.01284e-44
1.58958e-43
1.09484e-42
6.43409e-42
3.13201e-41
1.21202e-40
3.51321e-40
6.96226e-40
8.13807e-40
4.55135e-40
1.98523e-40
8.71787e-41
3.91604e-41
1.75672e-41
8.05437e-42
3.86103e-42
2.02123e-42
1.22898e-42
9.24867e-43
9.05366e-43
1.18819e-42
2.12008e-42
5.16621e-42
1.72078e-41
7.63734e-41
4.24135e-40
2.6977e-39
1.78825e-38
1.15886e-37
6.95579e-37
3.61613e-36
1.64267e-35
1.53239e-34
5.46661e-33
2.09992e-31
5.76848e-30
8.85984e-29
4.58191e-28
5.07728e-28
6.63452e-28
8.93217e-28
6.81033e-28
5.67436e-28
1.8129e-28
2.11681e-29
1.14478e-30
4.62999e-32
1.86444e-33
2.56513e-34
9.64843e-35
3.53528e-35
1.16117e-35
3.58656e-36
1.07395e-36
3.21718e-37
9.90908e-38
3.27224e-38
1.20701e-38
5.13175e-39
2.56938e-39
1.53349e-39
1.09393e-39
9.23262e-40
8.99165e-40
9.79356e-40
1.15707e-39
1.44925e-39
1.9297e-39
2.88719e-39
5.1111e-39
8.89437e-39
8.73144e-39
5.00473e-39
1.92698e-39
5.48845e-40
1.23154e-40
2.27407e-41
3.56659e-42
4.86428e-43
5.87127e-44
6.35431e-45
6.22605e-46
5.56272e-47
4.55702e-48
3.43773e-49
2.39646e-50
1.54815e-51
9.2904e-53
5.18856e-54
2.69944e-55
1.30728e-56
5.8673e-58
2.41312e-59
8.88252e-61
3.03284e-62
9.91563e-64
3.03904e-65
8.49574e-67
2.08403e-68
4.24175e-70
6.58326e-72
6.79683e-74
3.63663e-76
5.53855e-79
2.47175e-77
1.5024e-74
2.61435e-72
2.36187e-70
1.42049e-68
6.51598e-67
2.47871e-65
8.25245e-64
2.4894e-62
6.95387e-61
1.82388e-59
4.51782e-58
1.04317e-56
2.21955e-55
4.39416e-54
8.12641e-53
1.40428e-51
2.26419e-50
3.39835e-49
4.73468e-48
6.10338e-47
7.25132e-46
7.90175e-45
7.84771e-44
7.04418e-43
5.65053e-42
3.99007e-41
2.43118e-40
1.24425e-39
5.1537e-39
1.63777e-38
3.67936e-38
5.10854e-38
3.57328e-38
1.91995e-38
1.02325e-38
5.42826e-39
2.81728e-39
1.46652e-39
7.87581e-40
4.58524e-40
3.0818e-40
2.53274e-40
2.66312e-40
3.68932e-40
6.84064e-40
1.7121e-39
5.79176e-39
2.57373e-38
1.4074e-37
8.66974e-37
5.49879e-36
3.3913e-35
1.92998e-34
9.47095e-34
4.09343e-33
3.78047e-32
1.28076e-30
4.5664e-29
1.15686e-27
1.62327e-26
8.56235e-26
8.66371e-26
1.09301e-25
1.45313e-25
1.13292e-25
9.81093e-26
3.04203e-26
3.86651e-27
2.25732e-28
9.75079e-30
4.05513e-31
5.01381e-32
1.83203e-32
6.78145e-33
2.25141e-33
7.00441e-34
2.10484e-34
6.29984e-35
1.92555e-35
6.26032e-36
2.25767e-36
9.32375e-37
4.50577e-37
2.57764e-37
1.74815e-37
1.38834e-37
1.25769e-37
1.26095e-37
1.35699e-37
1.52646e-37
1.78401e-37
2.26639e-37
3.31234e-37
4.82615e-37
4.07699e-37
2.0873e-37
7.39377e-38
1.98167e-38
4.25709e-39
7.62716e-40
1.17303e-40
1.58226e-41
1.90202e-42
2.06191e-43
2.0335e-44
1.83634e-45
1.526e-46
1.17156e-47
8.3364e-49
5.51265e-50
3.39542e-51
1.95145e-52
1.04756e-53
5.24881e-55
2.44469e-56
1.04718e-57
4.03374e-59
1.42897e-60
4.85173e-62
1.54597e-63
4.49804e-65
1.14969e-66
2.44125e-68
3.95846e-70
4.27795e-72
2.40232e-74
3.85471e-77
1.51183e-75
8.70313e-73
1.4405e-70
1.24198e-68
7.14749e-67
3.14425e-65
1.14945e-63
3.68586e-62
1.07364e-60
2.90376e-59
7.38658e-58
1.78023e-56
3.94425e-55
8.07447e-54
1.54364e-52
2.76606e-51
4.64661e-50
7.3065e-49
1.07293e-47
1.46735e-46
1.8633e-45
2.1893e-44
2.37005e-43
2.35102e-42
2.12123e-41
1.7233e-40
1.24359e-39
7.82794e-39
4.1946e-38
1.8507e-37
6.41068e-37
1.62156e-36
2.65585e-36
2.32979e-36
1.55048e-36
1.01276e-36
6.41105e-37
3.88932e-37
2.32046e-37
1.40894e-37
9.19401e-38
6.85627e-38
6.14965e-38
6.93139e-38
1.01107e-37
1.94313e-37
4.98038e-37
1.70363e-36
7.53331e-36
4.02505e-35
2.37975e-34
1.43126e-33
8.32911e-33
4.45438e-32
2.04502e-31
8.3523e-31
7.60254e-30
2.42758e-28
7.97149e-27
1.84525e-25
2.33786e-24
1.23373e-23
1.16185e-23
1.4046e-23
1.83377e-23
1.46605e-23
1.31847e-23
4.07398e-24
5.54021e-25
3.52304e-26
1.63395e-27
7.10705e-29
8.0384e-30
2.84938e-30
1.07119e-30
3.61844e-31
1.1412e-31
3.4625e-32
1.04149e-32
3.17597e-33
1.02108e-33
3.61212e-34
1.45244e-34
6.78426e-35
3.7224e-35
2.40036e-35
1.79309e-35
1.50885e-35
1.38889e-35
1.35769e-35
1.36885e-35
1.40348e-35
1.5141e-35
1.82334e-35
2.20982e-35
1.61239e-35
7.41244e-36
2.42722e-36
6.14682e-37
1.26861e-37
2.21187e-38
3.34425e-39
4.47083e-40
5.36185e-41
5.83072e-42
5.79473e-43
5.29397e-44
4.46589e-45
3.49113e-46
2.53658e-47
1.71735e-48
1.08576e-49
6.42159e-51
3.55644e-52
1.84334e-53
8.90743e-55
3.97245e-56
1.60055e-57
5.89914e-59
2.08479e-60
6.91756e-62
2.09705e-63
5.58964e-65
1.23914e-66
2.1006e-68
2.37781e-70
1.40235e-72
2.37234e-75
8.19332e-74
4.46762e-71
7.03512e-69
5.78971e-67
3.18809e-65
1.34444e-63
4.71929e-62
1.4557e-60