/*--------------------------------*- C++ -*----------------------------------*\
| =========                 |                                                 |
| \\      /  F ield         | OpenFOAM: The Open Source CFD Toolbox           |
|  \\    /   O peration     | Version:  2212                                  |
|   \\  /    A nd           | Website:  www.openfoam.com                      |
|    \\/     M anipulation  |                                                 |
\*---------------------------------------------------------------------------*/
FoamFile
{
    version     2.0;
    format      ascii;
    arch        "LSB;label=64;scalar=64";
    class       volScalarField;
    location    "0.23";
    object      alpha.air;
}
// * * * * * * * * * * * * * * * * * * * * * * * * * * * * * * * * * * * * * //

dimensions      [0 0 0 0 0 0 0];

internalField   nonuniform List<scalar> 
32768
(
5.11207e-123
5.41579e-120
2.17671e-117
5.29826e-115
9.21991e-113
1.23288e-110
1.32185e-108
1.17328e-106
8.8027e-105
5.64791e-103
3.11982e-101
1.4895e-99
6.16344e-98
2.21441e-96
6.91024e-95
1.87004e-93
4.37944e-92
8.82692e-91
1.51951e-89
2.21267e-88
2.69408e-87
2.69743e-86
2.1729e-85
1.37311e-84
6.57396e-84
2.24253e-83
5.1019e-83
7.01553e-83
4.84377e-83
1.17774e-83
9.38868e-85
5.05868e-86
2.06028e-87
6.96992e-89
2.17766e-90
1.36372e-89
2.44196e-90
2.00763e-91
1.2714e-92
7.12949e-94
3.68229e-95
1.78837e-96
8.25854e-98
3.65913e-99
1.54295e-100
6.11101e-102
2.25229e-103
7.79473e-105
2.46912e-106
7.1651e-108
1.91452e-109
4.61266e-111
1.0039e-112
1.94505e-114
3.33865e-116
4.96558e-118
6.34301e-120
6.77174e-122
5.81071e-124
3.86717e-126
1.82401e-128
5.09092e-131
4.38597e-134
2.20064e-135
7.59507e-133
1.94348e-130
3.74219e-128
5.55559e-126
6.65762e-124
6.64341e-122
5.64293e-120
4.14895e-118
2.68492e-116
1.54921e-114
7.99686e-113
3.74598e-111
1.60058e-109
6.31281e-108
2.29861e-106
7.79289e-105
2.47081e-103
7.42638e-102
2.10205e-100
5.6722e-99
1.45971e-97
3.6167e-96
8.6212e-95
1.96413e-93
4.28694e-92
8.89258e-91
1.73843e-89
3.13664e-88
4.96156e-87
5.28993e-86
4.12012e-87
1.54586e-85
5.00798e-84
7.6761e-83
4.19962e-82
8.33883e-82
7.95365e-82
4.34848e-82
1.52023e-82
3.71432e-83
6.71295e-84
9.36679e-85
1.04114e-85
9.43281e-87
7.11991e-88
4.53018e-89
2.46263e-90
1.15159e-91
4.65705e-93
1.6376e-94
5.01972e-96
1.34162e-97
3.12614e-99
6.34366e-101
1.11763e-102
1.70117e-104
2.22082e-106
2.45631e-108
2.25248e-110
1.65612e-112
9.35391e-115
3.77949e-117
9.26638e-120
8.64146e-123
3.05601e-120
5.04398e-117
3.32557e-114
1.42527e-111
4.59105e-109
1.09515e-106
1.71091e-104
1.89542e-102
1.65624e-100
1.20604e-98
7.44275e-97
3.92571e-95
1.77779e-93
6.93213e-92
2.33273e-90
6.77929e-89
1.69923e-87
3.66094e-86
6.75773e-85
1.05898e-83
1.39523e-82
1.52447e-81
1.35349e-80
9.54e-80
5.18855e-79
2.07445e-78
5.70643e-78
9.9213e-78
9.67363e-78
4.57685e-78
8.89615e-79
7.74571e-80
5.00061e-81
2.76986e-82
1.39665e-83
6.60997e-85
2.97879e-86
1.30201e-87
6.15139e-89
3.12482e-90
1.58441e-91
7.78566e-93
3.61522e-94
1.57677e-95
6.40509e-97
2.40812e-98
8.34112e-100
2.69356e-101
7.95527e-103
2.15417e-104
5.36345e-106
1.21018e-107
2.47299e-109
4.52016e-111
7.34092e-113
1.03872e-114
1.2654e-116
1.29436e-118
1.07281e-120
6.90378e-123
3.14796e-125
8.3262e-128
6.52729e-131
3.94142e-132
1.53175e-129
3.97427e-127
7.56333e-125
1.12103e-122
1.3504e-120
1.36183e-118
1.17521e-116
8.82808e-115
5.86168e-113
3.48175e-111
1.86164e-109
9.06138e-108
4.04189e-106
1.66852e-104
6.38854e-103
2.28485e-101
7.67728e-100
2.44704e-98
7.38257e-97
2.12728e-95
5.86908e-94
1.5624e-92
4.0161e-91
9.96292e-90
2.40038e-88
5.64837e-87
1.31931e-85
3.13364e-84
7.74782e-83
1.93973e-81
4.40524e-80
7.67362e-79
8.5222e-78
4.92518e-77
1.28732e-76
1.63057e-76
1.14069e-76
4.95884e-77
1.45943e-77
3.09916e-78
4.98401e-79
6.29936e-80
6.43719e-81
5.43379e-82
3.85108e-83
2.31884e-84
1.19656e-85
5.32443e-87
2.05096e-88
6.85383e-90
1.98772e-91
4.99444e-93
1.08418e-94
2.02184e-96
3.20903e-98
4.28748e-100
4.74767e-102
4.08297e-104
2.40748e-106
8.84979e-109
2.43802e-111
5.15301e-114
7.22582e-117
4.12467e-120
8.69257e-118
1.7385e-114
1.58696e-111
1.09986e-108
6.80836e-106
2.99328e-103
5.73596e-101
6.74549e-99
5.98577e-97
4.32932e-95
2.63163e-93
1.36407e-91
6.08051e-90
2.34285e-88
7.82557e-87
2.26821e-85
5.70017e-84
1.23874e-82
2.31746e-81
3.70717e-80
5.02372e-79
5.6952e-78
5.31049e-77
3.98353e-76
2.333e-75
1.02426e-74
3.18855e-74
6.5167e-74
7.84208e-74
4.77635e-74
1.23486e-74
1.31377e-75
8.5224e-77
4.76606e-78
2.47738e-79
1.23785e-80
6.02724e-82
2.86227e-83
1.31808e-84
5.84038e-86
2.47241e-87
9.94433e-89
3.78515e-90
1.35963e-91
4.59862e-93
1.46158e-94
4.35579e-96
1.21412e-97
3.15521e-99
7.61566e-101
1.69924e-102
3.48422e-104
6.51861e-106
1.10287e-107
1.66882e-109
2.2268e-111
2.57303e-113
2.51165e-115
1.99959e-117
1.22958e-119
5.29593e-122
1.26715e-124
8.54526e-128
5.26663e-129
2.22101e-126
6.02458e-124
1.18327e-121
1.80369e-119
2.23266e-117
2.31656e-115
2.0626e-113
1.60471e-111
1.10681e-109
6.84864e-108
3.83966e-106
1.96737e-104
9.28291e-103
4.0614e-101
1.65796e-99
6.35198e-98
2.29644e-96
7.87449e-95
2.5727e-93
8.04044e-92
2.41147e-90
6.95678e-89
1.93335e-87
5.18225e-86
1.34505e-84
3.43899e-83
8.81447e-82
2.35942e-80
6.68912e-79
1.86452e-77
4.33848e-76
7.11487e-75
6.98127e-74
3.39063e-73
7.37128e-73
7.92806e-73
4.84691e-73
1.88417e-73
5.05953e-74
9.97649e-75
1.51211e-75
1.82364e-76
1.79658e-77
1.47472e-78
1.02374e-79
6.07754e-81
3.10998e-82
1.37945e-83
5.32256e-85
1.78965e-86
5.24398e-88
1.3368e-89
2.95426e-91
5.62795e-93
9.16092e-95
1.25529e-96
1.40495e-98
1.19168e-100
6.25519e-103
1.31639e-105
1.68209e-108
2.13152e-111
2.16339e-114
1.02986e-117
4.65276e-115
9.4546e-112
9.03061e-109
6.90128e-106
5.34255e-103
2.30269e-100
4.19356e-98
4.80574e-96
4.19686e-94
3.00024e-92
1.80793e-90
9.31568e-89
4.13981e-87
1.59498e-85
5.3443e-84
1.55939e-82
3.9604e-81
8.73448e-80
1.66604e-78
2.73151e-77
3.81634e-76
4.49114e-75
4.38308e-74
3.47479e-73
2.1765e-72
1.03748e-71
3.57544e-71
8.29735e-71
1.17314e-70
8.77995e-71
2.92027e-71
3.98549e-72
2.72168e-73
1.43699e-74
7.44541e-76
3.78165e-77
1.89002e-78
9.27948e-80
4.4446e-81
2.0585e-82
9.14444e-84
3.87167e-85
1.55521e-86
5.90743e-88
2.11652e-89
7.13623e-91
2.259e-92
6.69577e-94
1.85235e-95
4.7641e-97
1.1337e-98
2.48157e-100
4.96085e-102
8.97766e-104
1.45483e-105
2.08226e-107
2.58605e-109
2.72156e-111
2.34722e-113
1.57654e-115
7.54954e-118
2.12099e-120
1.67713e-123
5.3579e-125
2.31607e-122
6.21918e-120
1.18896e-117
1.74753e-115
2.07322e-113
2.05305e-111
1.73919e-109
1.28425e-107
8.39037e-106
4.90951e-104
2.59941e-102
1.25644e-100
5.58783e-99
2.30287e-97
8.85256e-96
3.19376e-94
1.0876e-92
3.51466e-91
1.08299e-89
3.195e-88
9.05354e-87
2.46983e-85
6.4968e-84
1.6502e-82
4.05779e-81
9.72107e-80
2.3079e-78
5.71805e-77
1.55923e-75
4.2075e-74
9.26337e-73
1.3987e-71
1.22286e-70
5.06559e-70
9.37065e-70
8.77221e-70
4.78144e-70
1.69098e-70
4.19955e-71
7.76286e-72
1.1155e-72
1.28758e-73
1.22375e-74
9.75679e-76
6.61697e-77
3.85691e-78
1.94626e-79
8.54575e-81
3.27534e-82
1.09737e-83
3.21308e-85
8.20622e-87
1.82139e-88
3.49288e-90
5.73641e-92
7.94999e-94
9.0308e-96
7.83691e-98
4.30998e-100
9.40099e-103
9.99497e-106
1.16184e-108
1.12949e-111
5.29453e-115
2.09669e-112
4.21024e-109
4.00852e-106
3.03764e-103
2.23898e-100
9.09006e-98
1.60953e-95
1.81517e-93
1.56704e-91
1.1102e-89
6.64441e-88
3.40793e-86
1.51112e-84
5.82417e-83
1.95769e-81
5.74801e-80
1.47389e-78
3.29413e-77
6.3939e-76
1.07172e-74
1.53892e-73
1.87265e-72
1.9033e-71
1.5848e-70
1.05346e-69
5.39791e-69
2.03223e-68
5.25976e-68
8.51884e-68
7.55227e-68
3.07062e-68
5.05022e-69
3.95333e-70
2.08315e-71
1.10814e-72
5.8807e-74
3.09973e-75
1.6125e-76
8.19858e-78
4.03286e-79
1.90281e-80
8.55709e-82
3.65168e-83
1.47419e-84
5.61663e-86
2.01525e-87
6.79405e-89
2.14653e-90
6.33533e-92
1.7399e-93
4.42505e-95
1.03609e-96
2.21739e-98
4.29967e-100
7.47249e-102
1.14822e-103
1.53294e-105
1.73726e-107
1.61768e-109
1.17819e-111
6.1704e-114
1.94056e-116
1.89699e-119
3.61487e-121
1.53671e-118
3.9969e-116
7.33862e-114
1.03092e-111
1.1653e-109
1.09705e-107
8.82027e-106
6.17284e-104
3.81751e-102
2.11199e-100
1.05604e-98
4.81493e-97
2.01747e-95
7.8236e-94
2.82641e-92
9.57135e-91
3.05609e-89
9.25155e-88
2.66884e-86
7.36933e-85
1.95486e-83
4.99534e-82
1.23197e-80
2.93712e-79
6.78615e-78
1.52865e-76
3.40844e-75
7.81188e-74
2.00003e-72
5.1736e-71
1.07856e-69
1.50063e-68
1.16218e-67
4.0903e-67
6.46093e-67
5.2917e-67
2.58395e-67
8.34826e-68
1.92428e-68
3.34447e-69
4.56752e-70
5.05588e-71
4.64312e-72
3.59999e-73
2.38724e-74
1.36694e-75
6.80374e-77
2.95718e-78
1.1255e-79
3.75528e-81
1.09784e-82
2.80618e-84
6.24711e-86
1.20407e-87
1.99135e-89
2.7844e-91
3.19804e-93
2.81701e-95
1.58922e-97
3.68101e-100
4.34133e-103
5.02885e-106
4.92707e-109
2.3552e-112
6.85634e-110
1.33664e-106
1.24255e-103
9.27876e-101
6.25396e-98
2.41189e-95
4.18369e-93
4.65581e-91
3.97771e-89
2.79417e-87
1.6612e-85
8.48106e-84
3.7516e-82
1.44592e-80
4.87284e-79
1.43858e-77
3.72073e-76
8.4175e-75
1.66033e-73
2.84069e-72
4.18464e-71
5.25426e-70
5.54768e-69
4.83755e-68
3.40058e-67
1.86499e-66
7.62979e-66
2.18763e-65
4.02421e-65
4.18204e-65
2.0594e-65
4.08924e-66
3.65764e-67
2.0436e-68
1.14825e-69
6.55037e-71
3.73421e-72
2.10445e-73
1.15851e-74
6.1611e-76
3.13806e-77
1.52161e-78
6.99641e-80
3.04248e-81
1.2488e-82
4.82905e-84
1.75571e-85
5.98678e-87
1.90872e-88
5.66789e-90
1.56008e-91
3.95696e-93
9.18196e-95
1.93218e-96
3.64754e-98
6.09437e-100
8.85807e-102
1.09473e-103
1.11432e-105
8.90718e-108
5.15947e-110
1.83146e-112
2.2065e-115
2.54918e-117
1.05008e-114
2.61468e-112
4.55713e-110
6.04821e-108
6.44008e-106
5.70006e-104
4.30251e-102
2.82388e-100
1.6363e-98
8.47469e-97
3.96344e-95
1.6885e-93
6.60285e-92
2.38645e-90
8.02273e-89
2.52379e-87
7.4722e-86
2.09374e-84
5.58178e-83
1.42267e-81
3.48122e-80
8.20531e-79
1.86739e-77
4.11106e-76
8.77569e-75
1.82616e-73
3.75586e-72
7.90535e-71
1.84696e-69
4.4908e-68
8.73881e-67
1.10576e-65
7.47099e-65
2.21691e-64
2.99206e-64
2.15012e-64
9.43434e-65
2.79241e-65
5.98919e-66
9.80969e-67
1.27583e-67
1.35674e-68
1.20582e-69
9.10406e-71
5.90975e-72
3.32745e-73
1.63488e-74
7.03839e-76
2.66145e-77
8.84666e-79
2.58292e-80
6.60841e-82
1.47559e-83
2.85813e-85
4.7589e-87
6.71025e-89
7.78516e-91
6.9448e-93
3.99366e-95
9.73462e-98
1.27902e-100
1.53069e-103
1.54892e-106
7.66809e-110
1.71104e-107
3.20424e-104
2.87078e-101
2.07566e-98
1.29666e-95
4.79305e-93
8.1704e-91
8.98131e-89
7.59579e-87
5.29024e-85
3.12365e-83
1.58684e-81
6.99921e-80
2.69592e-78
9.10237e-77
2.69967e-75
7.03594e-74
1.6094e-72
3.22194e-71
5.61892e-70
8.47843e-69
1.09657e-67
1.20045e-66
1.09382e-65
8.11045e-65
4.74657e-64
2.10258e-63
6.64996e-63
1.38226e-62
1.67435e-62
9.95372e-63
2.40848e-63
2.48883e-64
1.51869e-65
9.26156e-67
5.80814e-68
3.65308e-69
2.27039e-70
1.3751e-71
8.02276e-73
4.47165e-74
2.36848e-75
1.18836e-76
5.63709e-78
2.52443e-79
1.06578e-80
4.23476e-82
1.58004e-83
5.51933e-85
1.79807e-86
5.43629e-88
1.51619e-89
3.87217e-91
8.97463e-93
1.86721e-94
3.4404e-96
5.51839e-98
7.53387e-100
8.48631e-102
7.5313e-104
4.87743e-106
1.97278e-108
2.96345e-111
2.0461e-113
8.08429e-111
1.9131e-108
3.13663e-106
3.89343e-104
3.863e-102
3.1779e-100
2.22544e-98
1.35322e-96
7.25672e-95
3.47496e-93
1.50132e-91
5.90327e-90
2.12859e-88
7.08582e-87
2.19109e-85
6.33019e-84
1.71824e-82
4.40578e-81
1.07286e-79
2.49368e-78
5.55786e-77
1.19237e-75
2.46957e-74
4.94846e-73
9.61451e-72
1.81963e-70
3.39551e-69
6.44997e-68
1.34984e-66
3.02315e-65
5.41077e-64
6.1381e-63
3.56013e-62
8.84971e-62
1.02132e-61
6.4554e-62
2.55207e-62
6.93766e-63
1.38781e-63
2.14671e-64
2.66407e-65
2.72648e-66
2.34882e-67
1.7293e-68
1.10023e-69
6.09799e-71
2.96042e-72
1.26347e-73
4.75017e-75
1.57403e-76
4.59215e-78
1.17656e-79
2.63601e-81
5.1325e-83
8.60525e-85
1.22367e-86
1.43376e-88
1.29414e-90
7.56547e-93
1.92767e-95
2.78245e-98
3.48757e-101
3.68832e-104
1.90886e-107
3.42387e-105
6.11402e-102
5.23658e-99
3.6313e-96
2.11798e-93
7.55216e-91
1.26703e-88
1.3763e-86
1.1522e-84
7.95439e-83
4.6628e-81
2.35583e-79
1.03551e-77
3.98327e-76
1.34631e-74
4.00778e-73
1.05143e-71
2.42889e-70
4.9289e-69
8.74967e-68
1.3503e-66
1.796e-65
2.0349e-64
1.93355e-63
1.50882e-62
9.39818e-62
4.49396e-61
1.56227e-60
3.65423e-60
5.13669e-60
3.67774e-60
1.0944e-60
1.32645e-61
9.03608e-63
6.11549e-64
4.29577e-65
3.03086e-66
2.10811e-67
1.42368e-68
9.22992e-70
5.70284e-71
3.34426e-72
1.85728e-73
9.75652e-75
4.84318e-76
2.2692e-77
1.00182e-78
4.15752e-80
1.61659e-81
5.86493e-83
1.97492e-84
6.13333e-86
1.74336e-87
4.49427e-89
1.03929e-90
2.12705e-92
3.78826e-94
5.74329e-96
7.19179e-98
7.11531e-100
5.17178e-102
2.39107e-104
4.48393e-107
1.85888e-109
6.95123e-107
1.55801e-104
2.39137e-102
2.7606e-100
2.53632e-98
1.92602e-96
1.24195e-94
6.93978e-93
3.41386e-91
1.4973e-89
5.9165e-88
2.12483e-86
6.98827e-85
2.11881e-83
5.95826e-82
1.56279e-80
3.84405e-79
8.91459e-78
1.95944e-76
4.10333e-75
8.22711e-74
1.58616e-72
2.95077e-71
5.31021e-70
9.26432e-69
1.57281e-67
2.62507e-66
4.43195e-65
8.16507e-64
1.65309e-62
2.68282e-61
2.69112e-60
1.31917e-59
2.73444e-59
2.70199e-59
1.50604e-59
5.37875e-60
1.34632e-60
2.51772e-61
3.68595e-62
4.37339e-63
4.31534e-64
3.60939e-65
2.59516e-66
1.62041e-67
8.8512e-69
4.25032e-70
1.8e-71
6.7342e-73
2.22621e-74
6.49444e-76
1.66729e-77
3.75008e-79
7.34318e-81
1.24019e-82
1.77899e-84
2.10524e-86
1.92215e-88
1.14084e-90
3.02483e-93
4.75498e-96
6.28996e-99
7.00396e-102
3.81453e-105
5.66382e-103
9.59531e-100
7.81477e-97
5.16727e-94
2.82694e-91
9.7677e-89
1.61404e-86
1.73263e-84
1.43554e-82
9.82019e-81
5.71231e-79
2.86876e-77
1.25577e-75
4.82057e-74
1.62962e-72
4.8644e-71
1.28321e-69
2.99013e-68
6.14256e-67
1.10835e-65
1.74672e-64
2.38525e-63
2.792e-62
2.76106e-61
2.2624e-60
1.49607e-59
7.69994e-59
2.93236e-58
7.68871e-58
1.24902e-57
1.07412e-57
3.95921e-58
5.72801e-59
4.43189e-60
3.39646e-61
2.71678e-62
2.17985e-63
1.71701e-64
1.30736e-65
9.52615e-67
6.60525e-68
4.34627e-69
2.71051e-70
1.60084e-71
8.94544e-73
4.72256e-74
2.35037e-75
1.09946e-76
4.81543e-78
1.96539e-79
7.43318e-81
2.5879e-82
8.23068e-84
2.36999e-85
6.11305e-87
1.39433e-88
2.76726e-90
4.67933e-92
6.55049e-94
7.27775e-96
5.9921e-98
3.2012e-100
7.54518e-103
1.91747e-105
6.54766e-103
1.37821e-100
1.96357e-98
2.09193e-96
1.7678e-94
1.23194e-92
7.27713e-91
3.71913e-89
1.67076e-87
6.68136e-86
2.40318e-84
7.84221e-83
2.33904e-81
6.41814e-80
1.62965e-78
3.84994e-77
8.50671e-76
1.76713e-74
3.46937e-73
6.47181e-72
1.15315e-70
1.97237e-69
3.2521e-68
5.18557e-67
8.01523e-66
1.20466e-64
1.77518e-63
2.62904e-62
4.20042e-61
7.54234e-60
1.09396e-58
9.57385e-58
3.90904e-57
6.73826e-57
5.71211e-57
2.81554e-57
9.10958e-58
2.105e-58
3.68902e-59
5.12303e-60
5.82362e-61
5.55074e-62
4.51529e-63
3.17537e-64
1.94853e-65
1.05027e-66
4.99421e-68
2.10089e-69
7.82884e-71
2.5842e-72
7.54407e-74
1.94198e-75
4.38769e-77
8.64515e-79
1.47146e-80
2.12998e-82
2.54637e-84
2.35172e-86
1.41625e-88
3.89666e-91
6.63342e-94
9.31e-97
1.09692e-99
6.32014e-103
7.92934e-101
1.26796e-97
9.76609e-95
6.13384e-92
3.15805e-89
1.0611e-86
1.72749e-84
1.83244e-82
1.50216e-80
1.01781e-78
5.87204e-77
2.92952e-75
1.27621e-73
4.88502e-72
1.65026e-70
4.93445e-69
1.30741e-67
3.06919e-66
6.37388e-65
1.16726e-63
1.87554e-62
2.62495e-61
3.16837e-60
3.25429e-59
2.79369e-58
1.95624e-57
1.08053e-56
4.49271e-56
1.3154e-55
2.45896e-55
2.53128e-55
1.16106e-55
2.04361e-56
1.82631e-57
1.61185e-58
1.48814e-59
1.37374e-60
1.23936e-61
1.07729e-62
8.94763e-64
7.07091e-65
5.3054e-66
3.77464e-67
2.54335e-68
1.62033e-69
9.73922e-71
5.50751e-72
2.92018e-73
1.44588e-74
6.65425e-76
2.83146e-77
1.10726e-78
3.95191e-80
1.27694e-81
3.69937e-83
9.49493e-85
2.12654e-86
4.07371e-88
6.49337e-90
8.27086e-92
7.88769e-94
4.97921e-96
1.49027e-98
2.57682e-101
7.41573e-99
1.43221e-96
1.84817e-94
1.77407e-92
1.34827e-90
8.44847e-89
4.49038e-87
2.067e-85
8.37219e-84
3.02126e-82
9.81134e-81
2.89086e-79
7.78171e-78
1.92507e-76
4.39961e-75
9.33404e-74
1.84675e-72
3.42311e-71
5.97285e-70
9.86025e-69
1.54835e-67
2.3254e-66
3.35756e-65
4.6809e-64
6.32169e-63
8.29624e-62
1.06509e-60
1.36617e-59
1.86795e-58
2.91586e-57
3.72891e-56
2.8083e-55
9.42754e-55
1.34997e-54
9.84315e-55
4.3039e-55
1.26529e-55
2.70669e-56
4.45674e-57
5.88493e-58
6.4232e-59
5.9256e-60
4.69636e-61
3.23557e-62
1.95411e-63
1.04072e-64
4.90646e-66
2.05244e-67
7.62567e-69
2.51564e-70
7.35512e-72
1.89985e-73
4.31475e-75
8.55937e-77
1.46896e-78
2.14667e-80
2.59339e-82
2.42312e-84
1.48034e-86
4.2179e-89
7.74633e-92
1.15852e-94
1.44871e-97
8.85597e-101
9.45627e-99
1.42402e-95
1.03755e-92
6.17891e-90
3.00241e-87
9.83894e-85
1.57823e-82
1.65393e-80
1.341e-78
8.99565e-77
5.14463e-75
2.54808e-73
1.10392e-71
4.21008e-70
1.41997e-68
4.24874e-67
1.12936e-65
2.66749e-64
5.59218e-63
1.03778e-61
1.69721e-60
2.43011e-59
3.01871e-58
3.21348e-57
2.88338e-56
2.13233e-55
1.2602e-54
5.70086e-54
1.85635e-53
3.97519e-53
4.87795e-53
2.78964e-53
6.09211e-54
6.37858e-55
6.57892e-56
7.09584e-57
7.6271e-58
7.99063e-59
8.05535e-60
7.75484e-61
7.09703e-62
6.15612e-63
5.04997e-64
3.90986e-65
2.85147e-66
1.9548e-67
1.25676e-68
7.55735e-70
4.23784e-71
2.20827e-72
1.06486e-73
4.72832e-75
1.92157e-76
7.09367e-78
2.35641e-79
6.95979e-81
1.79977e-82
3.99306e-84
7.39375e-86
1.09798e-87
1.22813e-89
9.2207e-92
3.46564e-94
4.83598e-97
1.08889e-94
1.9175e-92
2.21605e-90
1.88668e-88
1.26419e-86
6.95884e-85
3.24283e-83
1.30803e-81
4.64531e-80
1.47204e-78
4.20699e-77
1.09372e-75
2.60467e-74
5.71457e-73
1.16051e-71
2.1902e-70
3.85517e-69
6.35034e-68
9.82326e-67
1.43244e-65
1.9776e-64
2.59757e-63
3.26323e-62
3.94112e-61
4.59667e-60
5.19825e-59
5.73515e-58
6.28537e-57
7.25161e-56
9.65842e-55
1.07307e-53
6.85378e-53
1.87144e-52
2.22728e-52
1.40134e-52
5.45423e-53
1.4617e-53
2.90333e-54
4.50389e-55
5.66911e-56
5.95483e-57
5.3282e-58
4.12212e-59
2.78694e-60
1.65912e-61
8.74291e-63
4.09175e-64
1.70402e-65
6.31907e-67
2.08535e-68
6.11156e-70
1.58528e-71
3.62147e-73
7.23745e-75
1.25309e-76
1.84953e-78
2.25881e-80
2.13567e-82
1.32359e-84
3.89548e-87
7.67659e-90
1.22216e-92
1.6306e-95
1.06353e-98
9.80262e-97
1.38691e-93
9.51812e-91
5.35715e-88
2.46061e-85
7.87948e-83
1.2451e-80
1.28872e-78
1.03307e-76
6.85769e-75
3.88558e-73
1.90937e-71
8.22042e-70
3.12105e-68
1.05e-66
3.14059e-65
8.36511e-64
1.98527e-62
4.19519e-61
7.87629e-60
1.30874e-58
1.91338e-57
2.44104e-56
2.68711e-55
2.51385e-54
1.95793e-53
1.23418e-52
6.05236e-52
2.1826e-51
5.32791e-51
7.75455e-51
5.52554e-51
1.52513e-51
1.89422e-52
2.3133e-53
2.95489e-54
3.7596e-55
4.65882e-56
5.54246e-57
6.26944e-58
6.70192e-59
6.74658e-60
6.38428e-61
5.67496e-62
4.73724e-63
3.71286e-64
2.73082e-65
1.88282e-66
1.21455e-67
7.30839e-69
4.08501e-70
2.10913e-71
9.98814e-73
4.30098e-74
1.66644e-75
5.73611e-77
1.72668e-78
4.4552e-80
9.59312e-82
1.65944e-83
2.17325e-85
1.93592e-87
9.04521e-90
1.16059e-92
1.80952e-90
2.91698e-88
3.03584e-86
2.30789e-84
1.37288e-82
6.67672e-81
2.73653e-79
9.66603e-78
2.99361e-76
8.24196e-75
2.04028e-73
4.58488e-72
9.42945e-71
1.78728e-69
3.14058e-68
5.14147e-67
7.87378e-66
1.13171e-64
1.5309e-63
1.95395e-62
2.35925e-61
2.7029e-60
2.94878e-59
3.07609e-58
3.08157e-57
2.97761e-56
2.79208e-55
2.58099e-54
2.47575e-53
2.76003e-52
2.62393e-51
1.39823e-50
3.08017e-50
3.0528e-50
1.66375e-50
5.78618e-51
1.41853e-51
2.62456e-52
3.84711e-53
4.62839e-54
4.69014e-55
4.07925e-56
3.08667e-57
2.05156e-58
1.20581e-59
6.29629e-61
2.92906e-62
1.21585e-63
4.50507e-65
1.4887e-66
4.37716e-68
1.14106e-69
2.62383e-71
5.28596e-73
9.23819e-75
1.37786e-76
1.70182e-78
1.62875e-80
1.02423e-82
3.10809e-85
6.55632e-88
1.11519e-90
1.58409e-93
1.10084e-96
8.85314e-95
1.17315e-91
7.57016e-89
4.02479e-86
1.75231e-83
5.49806e-81
8.55617e-79
8.74356e-77
6.9269e-75
4.54803e-73
2.5516e-71
1.2432e-69
5.31505e-68
2.00728e-66
6.72965e-65
2.01001e-63
5.35827e-62
1.27604e-60
2.71383e-59
5.14586e-58
8.67113e-57
1.2918e-55
1.68887e-54
1.9179e-53
1.86581e-52
1.52601e-51
1.02256e-50
5.41516e-50
2.15295e-49
5.95954e-49
1.02287e-48
9.0533e-49
3.20755e-49
4.78005e-50
7.01551e-51
1.0822e-51
1.66468e-52
2.48117e-53
3.51498e-54
4.68123e-55
5.83498e-56
6.80539e-57
7.44094e-58
7.6469e-59
7.40271e-60
6.75839e-61
5.81689e-62
4.71053e-63
3.57642e-64
2.53357e-65
1.66492e-66
1.00819e-67
5.584e-69
2.80518e-70
1.26583e-71
5.07158e-73
1.77825e-74
5.35544e-76
1.35061e-77
2.75035e-79
4.27339e-81
4.58089e-83
2.68168e-85
3.95001e-88
3.5394e-86
5.08956e-84
4.65142e-82
3.0885e-80
1.60271e-78
6.80383e-77
2.43745e-75
7.53513e-74
2.04385e-72
4.92704e-71
1.06644e-69
2.08994e-68
3.73471e-67
6.12365e-66
9.26486e-65
1.30022e-63
1.70094e-62
2.08391e-61
2.40143e-60
2.61323e-59
2.69484e-58
2.64168e-57
2.46841e-56
2.20418e-55
1.88545e-54
1.54881e-53
1.22671e-52
9.48348e-52
7.48013e-51
6.83685e-50
5.47163e-49
2.38826e-48
4.22272e-48
3.49681e-48
1.65809e-48
5.17423e-49
1.16483e-49
2.01448e-50
2.79893e-51
3.22769e-52
3.16348e-53
2.68068e-54
1.98802e-55
1.3014e-56
7.56448e-58
3.91981e-59
1.81508e-60
7.51919e-62
2.78687e-63
9.23066e-65
2.72529e-66
7.14556e-68
1.65507e-69
3.3633e-71
5.93663e-73
8.95172e-75
1.11864e-76
1.08412e-78
6.91967e-81
2.16012e-83
4.85752e-86
8.81576e-89
1.33888e-91
9.95848e-95
7.00693e-93
8.67425e-90
5.24772e-87
2.63805e-84
1.09199e-81
3.3652e-79
5.1556e-77
5.1997e-75
4.06932e-73
2.64135e-71
1.46649e-69
7.07974e-68
3.0035e-66
1.12736e-64
3.76307e-63
1.12117e-61
2.98775e-60
7.12978e-59
1.52372e-57
2.91288e-56
4.96791e-55
7.52549e-54
1.00587e-52
1.17541e-51
1.18581e-50
1.0153e-49
7.20684e-49
4.10465e-48
1.79059e-47
5.58858e-47
1.12376e-46
1.22899e-46
5.65001e-47
1.02262e-47
1.83927e-48
3.50467e-49
6.62077e-50
1.19291e-50
2.00992e-51
3.14948e-52
4.60077e-53
6.29894e-54
8.12438e-55
9.90464e-56
1.14234e-56
1.24471e-57
1.27755e-58
1.23042e-59
1.10725e-60
9.26894e-62
7.1839e-63
5.12832e-64
3.35151e-65
1.99053e-66
1.06467e-67
5.07013e-69
2.11866e-70
7.62294e-72
2.30227e-73
5.63057e-75
1.05549e-76
1.3785e-78
1.01416e-80
1.92201e-83
9.48996e-82
1.19411e-79
9.35146e-78
5.26783e-76
2.30688e-74
8.24457e-73
2.48624e-71
6.48156e-70
1.48767e-68
3.04864e-67
5.63859e-66
9.49085e-65
1.46305e-63
2.07551e-62
2.71972e-61
3.30196e-60
3.72422e-59
3.9128e-58
3.84096e-57
3.5355e-56
3.06481e-55
2.51466e-54
1.96346e-53
1.46629e-52
1.05131e-51
7.25074e-51
4.81499e-50
3.09753e-49
1.99876e-48
1.47001e-47
9.73995e-47
3.41407e-46
4.83525e-46
3.36066e-46
1.39344e-46
3.91975e-47
8.13652e-48
1.32018e-48
1.7445e-49
1.93414e-50
1.83847e-51
1.5215e-52
1.10829e-53
7.15941e-55
4.12262e-56
2.12335e-57
9.80054e-59
4.05692e-60
1.50576e-61
5.00396e-63
1.48482e-64
3.9187e-66
9.14914e-68
1.87657e-69
3.34729e-71
5.10533e-73
6.45763e-75
6.33997e-77
4.1091e-79
1.31662e-81
3.14542e-84
6.09377e-87
9.89637e-90
7.88326e-93
4.84916e-91
5.62203e-88
3.20071e-85
1.51992e-82
5.998e-80
1.81652e-77
2.7383e-75
2.72445e-73
2.10532e-71
1.35027e-69
7.4146e-68
3.5445e-66
1.49104e-64
5.55782e-63
1.84534e-61
5.47867e-60
1.45772e-58
3.48101e-57
7.46378e-56
1.43593e-54
2.47363e-53
3.8015e-52
5.18202e-51
6.21434e-50
6.48214e-49
5.79108e-48
4.33827e-47
2.64596e-46
1.26005e-45
4.4073e-45
1.03076e-44
1.38294e-44
8.29226e-45
1.85153e-45
4.1751e-46
9.9961e-47
2.32657e-47
5.05367e-48
1.01431e-48
1.89023e-49
3.29905e-50
5.42945e-51
8.45322e-52
1.24514e-52
1.73207e-53
2.2698e-54
2.79501e-55
3.22596e-56
3.48032e-57
3.49805e-58
3.26182e-59
2.80689e-60
2.2145e-61
1.58905e-62
1.02705e-63
5.90881e-65
2.98173e-66
1.29523e-67
4.72405e-69
1.39705e-70
3.17746e-72
5.07685e-74
4.68773e-76
1.22983e-78
3.33794e-77
3.66836e-75
2.45834e-73
1.17348e-71
4.32801e-70
1.29679e-68
3.26628e-67
7.08917e-66
1.35106e-64
2.29459e-63
3.51435e-62
4.90109e-61
6.2729e-60
7.41517e-59
8.13537e-58
8.31337e-57
7.93095e-56
7.07259e-55
5.89932e-54
4.60459e-53
3.36641e-52
2.31058e-51
1.49527e-50
9.18377e-50
5.39633e-49
3.05522e-48
1.67276e-47
8.87732e-47
4.66788e-46
2.73298e-45
1.47683e-44
4.07756e-44
4.63083e-44
2.71685e-44
9.90623e-45
2.5246e-45
4.85372e-46
7.41819e-47
9.35618e-48
1.00052e-48
9.2497e-50
7.49515e-51
5.37459e-52
3.43301e-53
1.96191e-54
1.00597e-55
4.63485e-57
1.91958e-58
7.14277e-60
2.38393e-61
7.11557e-63
1.89173e-64
4.4551e-66
9.22884e-68
1.66445e-69
2.56911e-71
3.29073e-73
3.27435e-75
2.15611e-77
7.07427e-80
1.78925e-82
3.69613e-85
6.40864e-88
5.46618e-91
2.9661e-89
3.21132e-86
1.71678e-83
7.71379e-81
2.912e-78
8.68381e-76
1.28727e-73
1.26289e-71
9.63158e-70
6.10069e-68
3.31141e-66
1.56649e-64
6.52932e-63
2.41495e-61
7.96855e-60
2.35504e-58
6.24907e-57
1.49126e-55
3.20292e-54
6.1899e-53
1.07481e-51
1.67181e-50
2.3181e-49
2.84469e-48
3.05841e-47
2.8411e-46
2.23735e-45
1.45463e-44
7.52135e-44
2.92902e-43
7.90424e-43
1.28957e-42
1.00777e-42
2.86886e-43
8.38527e-44
2.54625e-44
7.29783e-45
1.92759e-45
4.70685e-46
1.07146e-46
2.28771e-47
4.59563e-48
8.69709e-49
1.55156e-49
2.61015e-50
4.14001e-51
6.18564e-52
8.68993e-53
1.14463e-53
1.40819e-54
1.61033e-55
1.70165e-56
1.64998e-57
1.45575e-58
1.15699e-59
8.1835e-61
5.07497e-62
2.70793e-63
1.21289e-64
4.40683e-66
1.23396e-67
2.44236e-69
2.85107e-71
1.0548e-73
1.75318e-72
1.65521e-70
9.3169e-69
3.69365e-67
1.12315e-65
2.75989e-64
5.67872e-63
1.00414e-61
1.55659e-60
2.14901e-59
2.67607e-58
3.03664e-57
3.16586e-56
3.05219e-55
2.73499e-54
2.2868e-53
1.78948e-52
1.31337e-51
9.05325e-51
5.86415e-50
3.5685e-49
2.03877e-48
1.09338e-47
5.5132e-47
2.62709e-46
1.19385e-45
5.2321e-45
2.23235e-44
9.43361e-44
4.3572e-43
1.89665e-42
4.05854e-42
3.71105e-42
1.85036e-42
5.9703e-43
1.38604e-43
2.48003e-44
3.58567e-45
4.33301e-46
4.4843e-47
4.04416e-48
3.21712e-49
2.27631e-50
1.44069e-51
8.18618e-53
4.1856e-54
1.92777e-55
7.99837e-57
2.98705e-58
1.00221e-59
3.01162e-61
8.0716e-63
1.91872e-64
4.01672e-66
7.32875e-68
1.14534e-69
1.48629e-71
1.49955e-73
1.00382e-75
3.3644e-78
8.96225e-81
1.97362e-83
3.65034e-86
3.33105e-89
1.59273e-87
1.61486e-84
8.13404e-82
3.45778e-79
1.25473e-76
3.68886e-74
5.37377e-72
5.19594e-70
3.90917e-68
2.44413e-66
1.31063e-64
6.13152e-63
2.53045e-61
9.27924e-60
3.04013e-58
8.93492e-57
2.3617e-55
5.62461e-54
1.20823e-52
2.34131e-51
4.08908e-50
6.42191e-49
9.0329e-48
1.13089e-46
1.24903e-45
1.202e-44
9.909e-44
6.83437e-43
3.81494e-42
1.64258e-41
5.07067e-41
9.95623e-41
1.00764e-40
3.8262e-41
1.46799e-41
5.61923e-42
1.99518e-42
6.52272e-43
1.97269e-43
5.54832e-44
1.45851e-44
3.60135e-45
8.38979e-46
1.84979e-46
3.86542e-47
7.65358e-48
1.43349e-48
2.53243e-49
4.20316e-50
6.52156e-51
9.40315e-52
1.25121e-52
1.52433e-53
1.68502e-54
1.67267e-55
1.47309e-56
1.13428e-57
7.49805e-59
4.15472e-60
1.86702e-61
6.47664e-63
1.59694e-64
2.3629e-66
1.21735e-68
1.31493e-67
1.05715e-65
4.95677e-64
1.61915e-62
4.02604e-61
8.03825e-60
1.33587e-58
1.89696e-57
2.34855e-56
2.57678e-55
2.53992e-54
2.27577e-53
1.87243e-52
1.42693e-51
1.01432e-50
6.76109e-50
4.24079e-49
2.50768e-48
1.39878e-47
7.35849e-47
3.64845e-46
1.70339e-45
7.48009e-45
3.08556e-44
1.19504e-43
4.35576e-43
1.50616e-42
5.0168e-42
1.65253e-41
5.9079e-41
2.04513e-40
3.3564e-40
2.48778e-40
1.06251e-40
3.0547e-41
6.49884e-42
1.08787e-42
1.49475e-43
1.73765e-44
1.74659e-45
1.5414e-46
1.20707e-47
8.44781e-49
5.309e-50
3.00502e-51
1.53464e-52
7.07581e-54
2.94468e-55
1.10492e-56
3.73029e-58
1.12945e-59
3.0539e-61
7.33246e-63
1.55217e-64
2.86659e-66
4.5381e-68
5.96901e-70
6.10932e-72
4.16035e-74
1.4199e-76
3.95288e-79
9.20043e-82
1.81847e-84
1.78082e-87
7.55802e-86
7.14774e-83
3.37595e-80
1.36825e-77
4.81284e-75
1.39627e-72
1.99745e-70
1.90252e-68
1.41135e-66
8.706e-65
4.60953e-63
2.13128e-61
8.70269e-60
3.16151e-58
1.02754e-56
3.00016e-55
7.89055e-54
1.87302e-52
4.01794e-51
7.79302e-50
1.36607e-48
2.16081e-47
3.07445e-46
3.91446e-45
4.42567e-44
4.39492e-43
3.77595e-42
2.74867e-41
1.64633e-40
7.77941e-40
2.72174e-39
6.35706e-39
8.24126e-39
4.29372e-39
2.15565e-39
1.04776e-39
4.70102e-40
1.93691e-40
7.35051e-41
2.58834e-41
8.53165e-42
2.65253e-42
7.82079e-43
2.19387e-43
5.86305e-44
1.49203e-44
3.60687e-45
8.2475e-46
1.77336e-46
3.56033e-47
6.62263e-48
1.132e-48
1.76277e-49
2.47788e-50
3.11242e-51
3.45295e-52
3.33651e-53
2.75933e-54
1.90873e-55
1.0697e-56
4.63111e-58
1.43095e-59
2.69029e-61
1.89349e-63
1.46923e-62
1.00079e-60
3.89204e-59
1.04374e-57
2.11551e-56
3.42197e-55
4.58011e-54
5.20569e-53
5.1245e-52
4.43863e-51
3.42779e-50
2.3877e-49
1.51612e-48
8.86271e-48
4.81414e-47
2.45064e-46
1.17755e-45
5.36913e-45
2.32957e-44
9.62035e-44
3.77402e-43
1.40185e-42
4.91294e-42
1.61951e-41
5.01012e-41
1.45273e-40
3.95198e-40
1.01636e-39
2.53666e-39
6.79085e-39
1.83164e-38
2.29879e-38
1.39401e-38
5.14524e-39
1.32808e-39
2.60608e-40
4.10411e-41
5.38535e-42
6.04832e-43
5.92659e-44
5.13489e-45
3.96967e-46
2.7548e-47
1.72277e-48
9.73196e-50
4.97225e-51
2.29829e-52
9.60526e-54
3.62495e-55
1.23255e-56
3.76318e-58
1.02727e-59
2.4929e-61
5.33926e-63
9.98626e-65
1.60224e-66
2.13707e-68
2.22009e-70
1.53915e-72
5.33719e-75
1.54744e-77
3.82011e-80
8.02874e-83
8.40626e-86
3.14952e-84
2.79427e-81
1.2486e-78
4.81018e-76
1.64892e-73
4.72017e-71
6.62565e-69
6.21328e-67
4.54258e-65
2.76323e-63
1.44378e-61
6.5935e-60
2.66198e-58
9.57266e-57
3.08376e-55
8.93617e-54
2.33597e-52
5.51987e-51
1.18075e-49
2.28821e-48
4.0175e-47
6.38453e-46
9.16234e-45
1.18245e-43
1.36343e-42
1.39135e-41
1.24001e-40
9.47538e-40
6.05074e-39
3.11324e-38
1.22222e-37
3.3524e-37
5.48416e-37
3.97055e-37
2.59431e-37
1.61947e-37
9.27443e-38
4.84076e-38
2.32326e-38
1.03955e-38
4.38938e-39
1.76435e-39
6.79213e-40
2.51296e-40
8.93965e-41
3.04844e-41
9.90205e-42
3.03806e-42
8.72251e-43
2.32194e-43
5.68115e-44
1.26711e-44
2.55549e-45
4.62149e-46
7.42558e-47
1.04872e-47
1.28496e-48
1.34337e-49
1.17217e-50
8.27741e-52
4.51766e-53
1.76578e-54
4.24849e-56
4.04182e-58
2.22505e-57
1.27436e-55
4.08325e-54
8.93669e-53
1.46853e-51
1.91476e-50
2.05398e-49
1.85968e-48
1.44857e-47
9.85392e-47
5.92638e-46
3.18498e-45
1.54459e-44
6.82463e-44
2.77469e-43
1.04905e-42
3.72892e-42
1.25927e-41
4.07431e-41
1.26875e-40
3.80209e-40
1.09166e-39
2.98258e-39
7.69886e-39
1.86707e-38
4.24099e-38
9.01433e-38
1.79405e-37
3.38202e-37
6.60222e-37
1.34706e-36
1.29956e-36
6.52191e-37
2.10106e-37
4.90946e-38
8.9481e-39
1.33369e-39
1.67997e-40
1.83103e-41
1.75587e-42
1.49856e-43
1.147e-44
7.91243e-46
4.93466e-47
2.78725e-48
1.42697e-49
6.62124e-51
2.78221e-52
1.0571e-53
3.62311e-55
1.11634e-56
3.07871e-58
7.556e-60
1.63835e-61