/*--------------------------------*- C++ -*----------------------------------*\
| =========                 |                                                 |
| \\      /  F ield         | OpenFOAM: The Open Source CFD Toolbox           |
|  \\    /   O peration     | Version:  2212                                  |
|   \\  /    A nd           | Website:  www.openfoam.com                      |
|    \\/     M anipulation  |                                                 |
\*---------------------------------------------------------------------------*/
FoamFile
{
    version     2.0;
    format      ascii;
    arch        "LSB;label=64;scalar=64";
    class       surfaceScalarField;
    location    "0.23";
    object      phi;
}
// * * * * * * * * * * * * * * * * * * * * * * * * * * * * * * * * * * * * * //

dimensions      [0 3 -1 0 0 0 0];

oriented        oriented;

internalField   nonuniform List<scalar> 
65152
(
-3.341e-12
3.34092e-12
-8.30047e-12
4.95938e-12
-1.25618e-11
4.2612e-12
-1.58276e-11
3.26576e-12
-1.84482e-11
2.62048e-12
-2.07512e-11
2.30289e-12
-2.29133e-11
2.16202e-12
-2.5007e-11
2.09363e-12
-2.70559e-11
2.04883e-12
-2.90651e-11
2.0091e-12
-3.10347e-11
1.96956e-12
-3.2963e-11
1.92814e-12
-3.48475e-11
1.88444e-12
-3.66857e-11
1.83806e-12
-3.8475e-11
1.78925e-12
-4.02123e-11
1.73726e-12
-4.18952e-11
1.68279e-12
-4.35206e-11
1.62534e-12
-4.50851e-11
1.56438e-12
-4.65853e-11
1.50012e-12
-4.80177e-11
1.43235e-12
-4.93786e-11
1.36076e-12
-5.06642e-11
1.2856e-12
-5.18706e-11
1.20632e-12
-5.29936e-11
1.12285e-12
-5.40285e-11
1.03486e-12
-5.49711e-11
9.42489e-13
-5.58166e-11
8.45459e-13
-5.656e-11
7.43341e-13
-5.71962e-11
6.36096e-13
-5.77197e-11
5.23449e-13
-5.81252e-11
4.05473e-13
-5.84083e-11
2.83014e-13
-5.85653e-11
1.56897e-13
-5.85933e-11
2.7914e-14
-5.84889e-11
-1.04478e-13
-5.82483e-11
-2.40702e-13
-5.78699e-11
-3.78459e-13
-5.73532e-11
-5.16862e-13
-5.66967e-11
-6.56575e-13
-5.5899e-11
-7.97841e-13
-5.49593e-11
-9.39846e-13
-5.38777e-11
-1.08175e-12
-5.26538e-11
-1.22405e-12
-5.12882e-11
-1.36578e-12
-4.97823e-11
-1.50603e-12
-4.81373e-11
-1.6451e-12
-4.63554e-11
-1.78212e-12
-4.44401e-11
-1.91537e-12
-4.23949e-11
-2.04535e-12
-4.02236e-11
-2.17153e-12
-3.79318e-11
-2.29188e-12
-3.5525e-11
-2.407e-12
-3.30097e-11
-2.51539e-12
-3.03931e-11
-2.6168e-12
-2.76826e-11
-2.71064e-12
-2.48867e-11
-2.79599e-12
-2.20132e-11
-2.87367e-12
-1.90721e-11
-2.94118e-12
-1.60731e-11
-2.99909e-12
-1.3026e-11
-3.04719e-12
-9.94075e-12
-3.0854e-12
-6.82932e-12
-3.11153e-12
-3.70668e-12
-3.12274e-12
-5.8796e-13
-3.11881e-12
2.51411e-12
-3.10216e-12
5.58929e-12
-3.07527e-12
8.62837e-12
-3.03916e-12
1.16224e-11
-2.99412e-12
1.4563e-11
-2.94065e-12
1.74412e-11
-2.87829e-12
2.02484e-11
-2.80721e-12
2.29766e-11
-2.72824e-12
2.56179e-11
-2.64139e-12
2.81647e-11
-2.5468e-12
3.06104e-11
-2.4458e-12
3.29497e-11
-2.33931e-12
3.51761e-11
-2.22637e-12
3.72846e-11
-2.10848e-12
3.92708e-11
-1.98624e-12
4.11308e-11
-1.86e-12
4.28618e-11
-1.73101e-12
4.44612e-11
-1.59929e-12
4.59267e-11
-1.46553e-12
4.72572e-11
-1.33046e-12
4.84522e-11
-1.1949e-12
4.95118e-11
-1.05957e-12
5.04352e-11
-9.23328e-13
5.12226e-11
-7.87293e-13
5.18745e-11
-6.51828e-13
5.23916e-11
-5.17e-13
5.27747e-11
-3.83046e-13
5.30248e-11
-2.50036e-13
5.3143e-11
-1.18067e-13
5.31321e-11
1.1082e-14
5.29954e-11
1.36782e-13
5.27375e-11
2.58019e-13
5.2364e-11
3.73611e-13
5.18803e-11
4.8385e-13
5.12924e-11
5.88099e-13
5.06051e-11
6.87422e-13
4.9824e-11
7.81245e-13
4.8954e-11
8.70184e-13
4.79992e-11
9.54919e-13
4.69633e-11
1.03607e-12
4.58499e-11
1.11357e-12
4.46626e-11
1.18744e-12
4.34055e-11
1.25732e-12
4.20817e-11
1.32401e-12
4.06947e-11
1.38722e-12
3.92473e-11
1.44756e-12
3.7743e-11
1.50448e-12
3.61842e-11
1.5591e-12
3.45734e-11
1.61094e-12
3.29139e-11
1.65981e-12
3.12073e-11
1.7068e-12
2.94562e-11
1.75137e-12
2.76629e-11
1.79349e-12
2.58294e-11
1.8338e-12
2.39553e-11
1.87431e-12
2.20356e-11
1.92004e-12
2.00456e-11
1.99018e-12
1.79125e-11
2.13339e-12
1.54576e-11
2.45516e-12
1.23447e-11
3.11319e-12
8.21021e-12
4.13474e-12
3.32685e-12
4.88369e-12
3.32692e-12
-2.83819e-12
6.179e-12
-6.47917e-12
8.60025e-12
-8.5505e-12
6.33242e-12
-8.98917e-12
3.70432e-12
-8.44234e-12
2.07354e-12
-7.44462e-12
1.30506e-12
-6.27369e-12
9.90971e-13
-5.04706e-12
8.66892e-13
-3.81258e-12
8.14237e-13
-2.5876e-12
7.83997e-13
-1.38021e-12
7.6206e-13
-1.96351e-13
7.44173e-13
9.59136e-13
7.28845e-13
2.08148e-12
7.15609e-13
3.16792e-12
7.02704e-13
4.21424e-12
6.9084e-13
5.21503e-12
6.81895e-13
6.16653e-12
6.73737e-13
7.06698e-12
6.63823e-13
7.91284e-12
6.54159e-13
8.70082e-12
6.4427e-13
9.43096e-12
6.30519e-13
1.00971e-11
6.19332e-13
1.06995e-11
6.03884e-13
1.12378e-11
5.84482e-13
1.171e-11
5.62545e-13
1.21141e-11
5.38288e-13
1.24506e-11
5.08834e-13
1.27181e-11
4.75738e-13
1.2917e-11
4.37169e-13
1.30467e-11
3.93664e-13
1.31072e-11
3.44821e-13
1.30994e-11
2.90746e-13
1.3024e-11
2.3218e-13
1.28817e-11
1.70082e-13
1.26739e-11
1.03203e-13
1.24035e-11
2.95786e-14
1.2077e-11
-5.20522e-14
1.16969e-11
-1.36874e-13
1.12632e-11
-2.23073e-13
1.07802e-11
-3.14957e-13
1.02536e-11
-4.13451e-13
9.68644e-12
-5.1475e-13
9.08139e-12
-6.19174e-13
8.44176e-12
-7.26329e-13
7.77109e-12
-8.35553e-13
7.07107e-12
-9.4527e-13
6.34903e-12
-1.06027e-12
5.60565e-12
-1.17217e-12
4.84326e-12
-1.28315e-12
4.06663e-12
-1.39508e-12
3.27679e-12
-1.50222e-12
2.47726e-12
-1.60764e-12
1.6692e-12
-1.7075e-12
8.56183e-13
-1.80394e-12
3.74458e-14
-1.89207e-12
-7.82849e-13
-1.97585e-12
-1.60587e-12
-2.05081e-12
-2.43069e-12
-2.1165e-12
-3.25372e-12
-2.1762e-12
-4.07519e-12
-2.22585e-12
-4.89493e-12
-2.26579e-12
-5.71377e-12
-2.29281e-12
-6.5313e-12
-2.30533e-12
-7.3465e-12
-2.30373e-12
-8.15802e-12
-2.29074e-12
-8.96381e-12
-2.26958e-12
-9.76353e-12
-2.23954e-12
-1.05554e-11
-2.20236e-12
-1.1338e-11
-2.15812e-12
-1.21096e-11
-2.10675e-12
-1.28689e-11
-2.04801e-12
-1.36139e-11
-1.98326e-12
-1.43412e-11
-1.9142e-12
-1.50502e-11
-1.83775e-12
-1.57392e-11
-1.75691e-12
-1.64069e-11
-1.67155e-12
-1.70485e-11
-1.58482e-12
-1.76626e-11
-1.49444e-12
-1.8247e-11
-1.40175e-12
-1.87996e-11
-1.30744e-12
-1.93155e-11
-1.21504e-12
-1.97939e-11
-1.12089e-12
-2.02316e-11
-1.02778e-12
-2.06264e-11
-9.35639e-13
-2.09746e-11
-8.46595e-13
-2.12739e-11
-7.60242e-13
-2.15217e-11
-6.75415e-13
-2.17154e-11
-5.93431e-13
-2.18531e-11
-5.14028e-13
-2.19318e-11
-4.38242e-13
-2.19492e-11
-3.65451e-13
-2.1903e-11
-2.96193e-13
-2.17901e-11
-2.30733e-13
-2.1608e-11
-1.70925e-13
-2.13553e-11
-1.15789e-13
-2.10312e-11
-6.5911e-14
-2.06359e-11
-2.14636e-14
-2.01746e-11
2.27035e-14
-1.96388e-11
5.24204e-14
-1.90354e-11
8.42695e-14
-1.83611e-11
1.07092e-13
-1.76181e-11
1.27437e-13
-1.68074e-11
1.44392e-13
-1.593e-11
1.5884e-13
-1.49879e-11
1.71702e-13
-1.39825e-11
1.82271e-13
-1.29166e-11
1.9164e-13
-1.17926e-11
2.0032e-13
-1.06139e-11
2.08762e-13
-9.38345e-12
2.17355e-13
-8.10518e-12
2.2648e-13
-6.7824e-12
2.36604e-13
-5.41924e-12
2.48064e-13
-4.02033e-12
2.61197e-13
-2.5898e-12
2.76573e-13
-1.13286e-12
2.9474e-13
3.46566e-13
3.14377e-13
1.84371e-12
3.36977e-13
3.34777e-12
3.7058e-13
4.84417e-12
4.23966e-13
6.28289e-12
5.51781e-13
7.54555e-12
8.71062e-13
8.35196e-12
1.64905e-12
8.15758e-12
3.30789e-12
6.29665e-12
5.99601e-12
2.79572e-12
8.38497e-12
6.1227e-12
-2.52411e-12
8.703e-12
-5.18712e-12
1.12632e-11
-5.98863e-12
7.13382e-12
-5.0662e-12
2.78177e-12
-3.13653e-12
1.43768e-13
-7.50028e-13
-1.08156e-12
1.80113e-12
-1.5603e-12
4.39296e-12
-1.72506e-12
6.97924e-12
-1.77215e-12
9.53872e-12
-1.77559e-12
1.20602e-11
-1.75958e-12
1.45357e-11
-1.73142e-12
1.69578e-11
-1.69337e-12
1.93197e-11
-1.64634e-12
2.16133e-11
-1.59103e-12
2.38319e-11
-1.52786e-12
2.59709e-11
-1.45721e-12
2.80244e-11
-1.37989e-12
2.99849e-11
-1.29678e-12
3.18474e-11
-1.20843e-12
3.36071e-11
-1.11555e-12
3.52566e-11
-1.01902e-12
3.6795e-11
-9.19158e-13
3.82159e-11
-8.17176e-13
3.95142e-11
-7.13857e-13
4.06864e-11
-6.09724e-13
4.173e-11
-5.05435e-13
4.26406e-11
-4.01833e-13
4.34157e-11
-2.99453e-13
4.40517e-11
-1.98943e-13
4.45461e-11
-1.00793e-13
4.48975e-11
-6.70346e-15
4.5102e-11
8.61294e-14
4.51609e-11
1.73228e-13
4.50751e-11
2.55709e-13
4.48455e-11
3.327e-13
4.44717e-11
4.033e-13
4.39525e-11
4.67031e-13
4.32913e-11
5.24158e-13
4.24935e-11
5.74607e-13
4.15606e-11
6.17796e-13
4.04934e-11
6.53518e-13
3.92964e-11
6.82097e-13
3.79734e-11
7.03658e-13
3.65285e-11
7.18402e-13
3.49662e-11
7.26629e-13
3.32921e-11
7.28605e-13
3.15072e-11
7.24473e-13
2.96196e-11
7.15275e-13
2.76349e-11
7.01365e-13
2.55564e-11
6.8318e-13
2.33924e-11
6.6169e-13
2.11472e-11
6.37393e-13
1.88284e-11
6.11133e-13
1.64408e-11
5.83513e-13
1.39931e-11
5.55469e-13
1.14896e-11
5.27461e-13
8.93825e-12
5.00395e-13
6.34674e-12
4.74872e-13
3.71919e-12
4.51205e-13
1.06312e-12
4.30092e-13
-1.61477e-12
4.11964e-13
-4.30441e-12
3.96713e-13
-6.99719e-12
3.87328e-13
-9.6831e-12
3.82065e-13
-1.23531e-11
3.79101e-13
-1.49996e-11
3.76879e-13
-1.76142e-11
3.74928e-13
-2.01897e-11
3.731e-13
-2.27193e-11
3.71356e-13
-2.51957e-11
3.69629e-13
-2.76115e-11
3.67717e-13
-2.99601e-11
3.65231e-13
-3.22361e-11
3.61776e-13
-3.44311e-11
3.57209e-13
-3.65391e-11
3.50994e-13
-3.85533e-11
3.42642e-13
-4.04697e-11
3.31624e-13
-4.22819e-11
3.17707e-13
-4.39841e-11
3.00479e-13
-4.5571e-11
2.79476e-13
-4.70402e-11
2.54202e-13
-4.83857e-11
2.24613e-13
-4.96038e-11
1.90377e-13
-5.06906e-11
1.51259e-13
-5.16442e-11
1.07001e-13
-5.24619e-11
5.76187e-14
-5.31406e-11
3.36572e-15
-5.36787e-11
-5.52357e-14
-5.40731e-11
-1.1952e-13
-5.43232e-11
-1.88039e-13
-5.4427e-11
-2.61584e-13
-5.43839e-11
-3.39157e-13
-5.41931e-11
-4.21369e-13
-5.38559e-11
-5.07999e-13
-5.33711e-11
-6.00389e-13
-5.27403e-11
-6.96587e-13
-5.19653e-11
-7.96282e-13
-5.10436e-11
-8.98798e-13
-4.99865e-11
-1.00455e-12
-4.87901e-11
-1.1119e-12
-4.74621e-11
-1.22077e-12
-4.60044e-11
-1.33003e-12
-4.4421e-11
-1.43881e-12
-4.27157e-11
-1.54625e-12
-4.08923e-11
-1.65149e-12
-3.89559e-11
-1.75385e-12
-3.69116e-11
-1.85252e-12
-3.47643e-11
-1.9467e-12
-3.25196e-11
-2.03566e-12
-3.01833e-11
-2.11869e-12
-2.77614e-11
-2.19512e-12
-2.52603e-11
-2.2643e-12
-2.26863e-11
-2.32566e-12
-2.00461e-11
-2.37865e-12
-1.73465e-11
-2.42276e-12
-1.45939e-11
-2.45752e-12
-1.17969e-11
-2.48231e-12
-8.96469e-12
-2.49491e-12
-6.10601e-12
-2.48779e-12
-3.24485e-12
-2.43686e-12
-4.25595e-13
-2.26715e-12
2.22632e-12
-1.78053e-12
4.41545e-12
-5.39762e-13
5.58522e-12
2.13842e-12
4.99623e-12
6.58533e-12
2.47791e-12
1.09036e-11
8.60068e-12
-2.51563e-12
1.12185e-11
-5.02642e-12
1.37738e-11
-5.55999e-12
7.66729e-12
-4.34071e-12
1.56239e-12
-2.08811e-12
-2.10895e-12
6.1791e-13
-3.78768e-12
3.48895e-12
-4.43144e-12
6.4007e-12
-4.63692e-12
9.30384e-12
-4.6754e-12
1.21769e-11
-4.64876e-12
1.50078e-11
-4.59062e-12
1.77876e-11
-4.51125e-12
2.05079e-11
-4.41384e-12
2.31612e-11
-4.29972e-12
2.57398e-11
-4.16972e-12
2.82365e-11
-4.02463e-12
3.06444e-11
-3.86527e-12
3.2957e-11
-3.69253e-12
3.51674e-11
-3.50736e-12
3.72697e-11
-3.31073e-12
3.92577e-11
-3.10364e-12
4.11257e-11
-2.88712e-12
4.28686e-11
-2.66221e-12
4.44814e-11
-2.42999e-12
4.5959e-11
-2.19157e-12
4.72972e-11
-1.948e-12
4.8492e-11
-1.70033e-12
4.95397e-11
-1.44959e-12
5.04369e-11
-1.19679e-12
5.11808e-11
-9.42886e-13
5.17687e-11
-6.88801e-13
5.21974e-11
-4.35408e-13
5.24666e-11
-1.83165e-13
5.25748e-11
6.48575e-14
5.2522e-11
3.0847e-13
5.23074e-11
5.47202e-13
5.19308e-11
7.79747e-13
5.13926e-11
1.00515e-12
5.06939e-11
1.22273e-12
4.98366e-11
1.4318e-12
4.88225e-11
1.6317e-12
4.7654e-11
1.82187e-12
4.63341e-11
2.00191e-12
4.48661e-11
2.17151e-12
4.32539e-11
2.33044e-12
4.15018e-11
2.47855e-12
3.96145e-11
2.61575e-12
3.75968e-11
2.74207e-12
3.54543e-11
2.85764e-12
3.31928e-11
2.96263e-12
3.08186e-11
3.0573e-12
2.83381e-11
3.14196e-12
2.57584e-11
3.217e-12
2.30865e-11
3.28283e-12
2.033e-11
3.33989e-12
1.74967e-11
3.38867e-12
1.45943e-11
3.42967e-12
1.16312e-11
3.46337e-12
8.61572e-12
3.49024e-12
5.55609e-12
3.51071e-12
2.46108e-12
3.52498e-12
-6.60109e-13
3.53303e-12
-3.79927e-12
3.53576e-12
-6.94326e-12
3.53121e-12
-1.00805e-11
3.5192e-12
-1.32e-11
3.49845e-12
-1.62914e-11
3.46828e-12
-1.93454e-11
3.42874e-12
-2.23525e-11
3.38015e-12
-2.53039e-11
3.32271e-12
-2.81908e-11
3.25649e-12
-3.10047e-11
3.18145e-12
-3.3737e-11
3.09753e-12
-3.63799e-11
3.00466e-12
-3.89255e-11
2.90277e-12
-4.13664e-11
2.7918e-12
-4.36954e-11
2.67167e-12
-4.59061e-11
2.54233e-12
-4.79922e-11
2.4038e-12
-4.99478e-11
2.25609e-12
-5.17676e-11
2.09924e-12
-5.34467e-11
1.93338e-12
-5.49807e-11
1.75865e-12
-5.63656e-11
1.57528e-12
-5.75978e-11
1.38353e-12
-5.86744e-11
1.18372e-12
-5.9593e-11
9.76283e-13
-6.03513e-11
7.61732e-13
-6.09471e-11
5.40617e-13
-6.13799e-11
3.13399e-13
-6.16485e-11
8.07015e-14
-6.17529e-11
-1.57112e-13
-6.16931e-11
-3.98791e-13
-6.14698e-11
-6.44536e-13
-6.10826e-11
-8.95075e-13
-6.05329e-11
-1.14996e-12
-5.98221e-11
-1.40721e-12
-5.8952e-11
-1.66628e-12
-5.79244e-11
-1.92621e-12
-5.67427e-11
-2.18604e-12
-5.54098e-11
-2.44465e-12
-5.39295e-11
-2.70092e-12
-5.23057e-11
-2.95367e-12
-5.05426e-11
-3.20172e-12
-4.86448e-11
-3.44386e-12
-4.66171e-11
-3.67895e-12
-4.44648e-11
-3.90588e-12
-4.21936e-11
-4.12355e-12
-3.98092e-11
-4.3309e-12
-3.73177e-11
-4.5269e-12
-3.47256e-11
-4.71058e-12
-3.20394e-11
-4.88101e-12
-2.92661e-11
-5.03733e-12
-2.64128e-11
-5.17872e-12
-2.34867e-11
-5.30444e-12
-2.04954e-11
-5.4138e-12
-1.74466e-11
-5.50605e-12
-1.43485e-11
-5.58004e-12
-1.12105e-11
-5.63264e-12
-8.0444e-12
-5.65357e-12
-4.87199e-12
-5.60896e-12
-1.7428e-12
-5.39603e-12
1.21819e-12
-4.74121e-12
3.71819e-12
-3.03947e-12
5.18017e-12
6.7674e-13
4.84434e-12
6.92148e-12
2.47264e-12
1.32756e-11
1.10734e-11
-2.61018e-12
1.38286e-11
-5.19366e-12
1.63572e-11
-5.72867e-12
8.2022e-12
-4.42858e-12
2.62193e-13
-2.08038e-12
-4.45724e-12
7.37742e-13
-6.6059e-12
3.72493e-12
-7.41872e-12
6.75336e-12
-7.66545e-12
9.77207e-12
-7.69422e-12
1.27589e-11
-7.63572e-12
1.57015e-11
-7.53324e-12
1.85902e-11
-7.40006e-12
2.14166e-11
-7.24038e-12
2.41727e-11
-7.05589e-12
2.68506e-11
-6.84775e-12
2.94429e-11
-6.617e-12
3.19422e-11
-6.36471e-12
3.43417e-11
-6.09204e-12
3.66344e-11
-5.8002e-12
3.8814e-11
-5.49044e-12
4.08744e-11
-5.16406e-12
4.28096e-11
-4.82241e-12
4.46142e-11
-4.46688e-12
4.62829e-11
-4.09886e-12
4.78111e-11
-3.71981e-12
4.91942e-11
-3.33114e-12
5.04281e-11
-2.93432e-12
5.15092e-11
-2.53076e-12
5.24342e-11
-2.12191e-12
5.32004e-11
-1.70916e-12
5.38054e-11
-1.29388e-12
5.42473e-11
-8.77393e-13
5.45249e-11
-4.60839e-13
5.46359e-11
-4.6211e-14
5.45818e-11
3.62459e-13
5.43612e-11
7.67714e-13
5.3974e-11
1.16688e-12
5.34205e-11
1.55857e-12
5.27016e-11
1.94154e-12
5.18187e-11
2.31455e-12
5.07738e-11
2.67645e-12
4.95694e-11
3.02618e-12
4.82084e-11
3.3628e-12
4.66942e-11
3.68552e-12
4.50309e-11
3.99365e-12
4.32227e-11
4.28658e-12
4.12745e-11
4.56382e-12
3.91915e-11
4.82496e-12
3.69793e-11
5.06972e-12
3.46439e-11
5.29787e-12
3.21918e-11
5.50929e-12
2.96297e-11
5.70393e-12
2.69647e-11
5.88184e-12
2.42043e-11
6.0431e-12
2.13562e-11
6.18787e-12
1.84284e-11
6.31637e-12
1.54291e-11
6.42884e-12
1.23668e-11
6.52557e-12
9.25006e-12
6.60684e-12
6.08775e-12
6.6729e-12
2.88879e-12
6.72383e-12
-3.37654e-13
6.75937e-12
-3.57947e-12
6.77748e-12
-6.8277e-12
6.77934e-12
-1.00706e-11
6.76202e-12
-1.32968e-11
6.72454e-12
-1.64954e-11
6.66679e-12
-1.96561e-11
6.58939e-12
-2.27691e-11
6.49309e-12
-2.58249e-11
6.37845e-12
-2.88143e-11
6.2458e-12
-3.17283e-11
6.09538e-12
-3.45582e-11
5.9274e-12
-3.72957e-11
5.74211e-12
-3.99327e-11
5.53977e-12
-4.24616e-11
5.32068e-12
-4.48751e-11
5.08516e-12
-4.71664e-11
4.83358e-12
-4.9329e-11
4.56637e-12
-5.13569e-11
4.28398e-12
-5.32445e-11
3.98693e-12
-5.49869e-11
3.67579e-12
-5.65794e-11
3.3512e-12
-5.80179e-11
3.01384e-12
-5.92988e-11
2.66448e-12
-6.0419e-11
2.30392e-12
-6.13757e-11
1.93306e-12
-6.21667e-11
1.55289e-12
-6.27904e-11
1.16443e-12
-6.32457e-11
7.68756e-13
-6.35318e-11
3.66947e-13
-6.36481e-11
-4.07395e-14
-6.35953e-11
-4.51465e-13
-6.33741e-11
-8.65603e-13
-6.29841e-11
-1.28493e-12
-6.24267e-11
-1.7072e-12
-6.17032e-11
-2.13063e-12
-6.08151e-11
-2.55423e-12
-5.97646e-11
-2.97656e-12
-5.85544e-11
-3.39611e-12
-5.71875e-11
-3.8113e-12
-5.56678e-11
-4.22055e-12
-5.3999e-11
-4.6223e-12
-5.21855e-11
-5.01498e-12
-5.02321e-11
-5.39705e-12
-4.81439e-11
-5.76701e-12
-4.59262e-11
-6.12338e-12
-4.35848e-11
-6.46475e-12
-4.11257e-11
-6.78974e-12
-3.85554e-11
-7.09703e-12
-3.58804e-11
-7.38537e-12
-3.31075e-11
-7.65358e-12
-3.02441e-11
-7.90052e-12
-2.72974e-11
-8.12515e-12
-2.42751e-11
-8.32651e-12
-2.11849e-11
-8.50366e-12
-1.80351e-11
-8.65562e-12
-1.4834e-11
-8.7808e-12
-1.15913e-11
-8.87512e-12
-8.31926e-12
-8.92527e-12
-5.04028e-12
-8.88764e-12
-1.80568e-12
-8.63035e-12
1.25562e-12
-7.80222e-12
3.84065e-12
-5.62421e-12
5.36732e-12
-8.49647e-13
5.02564e-12
7.26346e-12
2.57038e-12
1.57312e-11
1.36438e-11
-2.73321e-12
1.65617e-11
-5.44373e-12
1.90676e-11
-6.01856e-12
8.77693e-12
-4.67044e-12
-1.08602e-12
-2.23705e-12
-6.89073e-12
6.87114e-13
-9.53016e-12
3.78898e-12
-1.05207e-11
6.93404e-12
-1.08106e-11
1.00685e-11
-1.08288e-11
1.31692e-11
-1.07365e-11
1.62229e-11
-1.0587e-11
1.92198e-11
-1.03971e-11
2.21511e-11
-1.01718e-11
2.50084e-11
-9.9133e-12
2.77836e-11
-9.62309e-12
3.0469e-11
-9.30246e-12
3.3057e-11
-8.95275e-12
3.55402e-11
-8.57538e-12
3.79118e-11
-8.17187e-12
4.0165e-11
-7.74377e-12
4.22936e-11
-7.29271e-12
4.42915e-11
-6.82038e-12
4.6153e-11
-6.32851e-12
4.7873e-11
-5.81887e-12
4.94464e-11
-5.2933e-12
5.08688e-11
-4.75361e-12
5.2136e-11
-4.20166e-12
5.32445e-11
-3.63933e-12
5.4191e-11
-3.06848e-12
5.49728e-11
-2.49097e-12
5.55875e-11
-1.90866e-12
5.60334e-11
-1.32333e-12
5.6309e-11
-7.36554e-13
5.64133e-11
-1.5055e-13
5.63464e-11
4.29234e-13
5.6108e-11
1.006e-12
5.56983e-11
1.57659e-12
5.51176e-11
2.13913e-12
5.43672e-11
2.69187e-12
5.34486e-11
3.23306e-12
5.2364e-11
3.76097e-12
5.1116e-11
4.27401e-12
4.9708e-11
4.77073e-12
4.81435e-11
5.24984e-12
4.64269e-11
5.71015e-12
4.45627e-11
6.15064e-12
4.25561e-11
6.57037e-12
4.04124e-11
6.96852e-12
3.81376e-11
7.34438e-12
3.5738e-11
7.69737e-12
3.32202e-11
8.02699e-12
3.05911e-11
8.33285e-12
2.78582e-11
8.61466e-12
2.50289e-11
8.87223e-12
2.21112e-11
9.10543e-12
1.91133e-11
9.31422e-12
1.60434e-11
9.49864e-12
1.29101e-11
9.65874e-12
9.7222e-12
9.79462e-12
6.48868e-12
9.90631e-12
3.21882e-12
9.99359e-12
-7.76911e-14
1.00558e-11
-3.39256e-12
1.00923e-11
-6.71332e-12
1.01e-11
-1.00291e-11
1.00777e-11
-1.33288e-11
1.00242e-11
-1.66015e-11
9.93938e-12
-1.98366e-11
9.8244e-12
-2.3024e-11
9.68045e-12
-2.61541e-11
9.50847e-12
-2.92174e-11
9.30908e-12
-3.22049e-11
9.08281e-12
-3.51077e-11
8.83018e-12
-3.79174e-11
8.55172e-12
-4.06257e-11
8.24804e-12
-4.32248e-11
7.91979e-12
-4.57073e-11
7.56766e-12
-4.80662e-11
7.19244e-12
-5.02947e-11
6.79494e-12
-5.23868e-11
6.37607e-12
-5.43366e-11
5.93677e-12
-5.61389e-11
5.47808e-12
-5.77887e-11
5.00108e-12
-5.92818e-11
4.50694e-12
-6.06141e-11
3.9969e-12
-6.17824e-11
3.47225e-12
-6.27836e-11
2.93437e-12
-6.36154e-11
2.38474e-12
-6.42757e-11
1.8249e-12
-6.47633e-11
1.25641e-12
-6.5077e-11
6.80801e-13
-6.5217e-11
9.93902e-14
-6.51821e-11
-4.86301e-13
-6.49726e-11
-1.07495e-12
-6.45895e-11
-1.66794e-12
-6.4033e-11
-2.2635e-12
-6.33046e-11
-2.8589e-12
-6.24059e-11
-3.45277e-12
-6.13392e-11
-4.0432e-12
-6.0107e-11
-4.62815e-12
-5.87125e-11
-5.20558e-12
-5.71594e-11
-5.77348e-12
-5.54517e-11
-6.32984e-12
-5.35938e-11
-6.87269e-12
-5.15906e-11
-7.4001e-12
-4.94472e-11
-7.9102e-12
-4.71693e-11
-8.40114e-12
-4.47626e-11
-8.87117e-12
-4.22336e-11
-9.31857e-12
-3.95887e-11
-9.74172e-12
-3.68348e-11
-1.01391e-11
-3.3979e-11
-1.05091e-11
-3.10287e-11
-1.08505e-11
-2.79917e-11
-1.11619e-11
-2.48758e-11
-1.14422e-11
-2.16891e-11
-1.16901e-11
-1.844e-11
-1.19044e-11
-1.51374e-11
-1.20831e-11
-1.1791e-11
-1.22212e-11
-8.41393e-12
-1.23021e-11
-5.02935e-12
-1.22719e-11
-1.69115e-12
-1.19683e-11
1.46582e-12
-1.09589e-11
4.12627e-12
-8.28438e-12
5.67743e-12
-2.40053e-12
5.28436e-12
7.65681e-12
2.69624e-12
1.83196e-11
1.63401e-11
-2.8771e-12
1.94387e-11
-5.73535e-12
2.19258e-11
-6.35221e-12
9.39371e-12
-4.96163e-12
-2.47669e-12
-2.41822e-12
-9.43423e-12
6.43068e-13
-1.25915e-11
3.89183e-12
-1.37695e-11
7.18607e-12
-1.41049e-11
1.04688e-11
-1.41116e-11
1.37151e-11
-1.39829e-11
1.69113e-11
-1.37833e-11
2.00469e-11
-1.35328e-11
2.31129e-11
-1.32378e-11
2.61004e-11
-1.29009e-11
2.90009e-11
-1.25237e-11
3.18064e-11
-1.2108e-11
3.4509e-11
-1.16554e-11
3.71009e-11
-1.11675e-11
3.95751e-11
-1.06461e-11
4.19246e-11
-1.00933e-11
4.41427e-11
-9.51091e-12
4.62233e-11
-8.90103e-12
4.81605e-11
-8.26578e-12
4.99488e-11
-7.60732e-12
5.15834e-11
-6.92787e-12
5.30594e-11
-6.22971e-12
5.43728e-11
-5.51512e-12
5.55198e-11
-4.78643e-12
5.64972e-11
-4.04597e-12
5.73023e-11
-3.29609e-12
5.79327e-11
-2.53911e-12
5.83866e-11
-1.77734e-12
5.86628e-11
-1.01283e-12
5.87592e-11
-2.46998e-13
5.86782e-11
5.10151e-13
5.84186e-11
1.26551e-12
5.79809e-11
2.0142e-12
5.7366e-11
2.75395e-12
5.65753e-11
3.48253e-12
5.56106e-11
4.19768e-12
5.44743e-11
4.89713e-12
5.31695e-11
5.57872e-12
5.16997e-11
6.24045e-12
5.00689e-11
6.8805e-12
4.82817e-11
7.49723e-12
4.63431e-11
8.08914e-12
4.42585e-11
8.65486e-12
4.20337e-11
9.19316e-12
3.96751e-11
9.70296e-12
3.7189e-11
1.01833e-11
3.45827e-11
1.06333e-11
3.18631e-11
1.10522e-11
2.90381e-11
1.14396e-11
2.61154e-11
1.17949e-11
2.3103e-11
1.21177e-11
2.00094e-11
1.24078e-11
1.68429e-11
1.2665e-11
1.36124e-11
1.28892e-11
1.03267e-11
1.30803e-11
6.99467e-12
1.32382e-11
3.62568e-12
1.33625e-11
2.29181e-13
1.34522e-11
-3.18463e-12
1.3506e-11
-6.60519e-12
1.35205e-11
-1.00213e-11
1.34938e-11
-1.34217e-11
1.34245e-11
-1.67951e-11
1.33127e-11
-2.01307e-11
1.31599e-11
-2.34182e-11
1.29679e-11
-2.66478e-11
1.2738e-11
-2.981e-11
1.24712e-11
-3.28954e-11
1.21682e-11
-3.58951e-11
1.18298e-11
-3.88004e-11
1.1457e-11
-4.16029e-11
1.10505e-11
-4.42946e-11
1.06115e-11
-4.68678e-11
1.01409e-11
-4.93152e-11
9.63987e-12
-5.163e-11
9.10971e-12
-5.38056e-11
8.55169e-12
-5.5836e-11
7.96719e-12
-5.77156e-11
7.35769e-12
-5.94391e-11
6.72471e-12
-6.1002e-11
6.0699e-12
-6.24e-11
5.39496e-12
-6.36294e-11
4.70166e-12
-6.46868e-11
3.9919e-12
-6.55696e-11
3.26765e-12
-6.62756e-11
2.53097e-12
-6.6803e-11
1.78393e-12
-6.71506e-11
1.02851e-12
-6.73175e-11
2.66405e-13
-6.73031e-11
-5.00523e-13
-6.71076e-11
-1.27032e-12
-6.67305e-11
-2.04497e-12
-6.61725e-11
-2.82128e-12
-6.54351e-11
-3.59614e-12
-6.45201e-11
-4.36771e-12
-6.34295e-11
-5.13359e-12
-6.21663e-11
-5.89124e-12
-6.07335e-11
-6.63816e-12
-5.9135e-11
-7.37185e-12
-5.73748e-11
-8.08987e-12
-5.54575e-11
-8.78983e-12
-5.3388e-11
-9.46937e-12
-5.11718e-11
-1.01262e-11
-4.88146e-11
-1.07581e-11
-4.63225e-11
-1.1363e-11
-4.37021e-11
-1.19388e-11
-4.09601e-11
-1.24835e-11
-3.81036e-11
-1.29953e-11
-3.51402e-11
-1.34723e-11
-3.20774e-11
-1.3913e-11
-2.89234e-11
-1.43157e-11
-2.56864e-11
-1.46789e-11
-2.23748e-11
-1.50014e-11
-1.89974e-11
-1.52815e-11
-1.55635e-11
-1.55168e-11
-1.20832e-11
-1.57012e-11
-8.57041e-12
-1.58146e-11
-5.04985e-12
-1.57922e-11
-1.57875e-12
-1.54391e-11
1.70021e-12
-1.42376e-11
4.4542e-12
-1.10381e-11
6.04053e-12
-3.98659e-12
5.59114e-12
8.10649e-12
2.84471e-12
2.10664e-11
1.91849e-11
-3.04467e-12
2.24833e-11
-6.07232e-12
2.49534e-11
-6.73547e-12
1.00568e-11
-5.27812e-12
-3.93414e-12
-2.59792e-12
-1.21145e-11
6.33257e-13
-1.58228e-11
4.06503e-12
-1.72014e-11
7.5457e-12
-1.75857e-11
1.10139e-11
-1.75799e-11
1.4443e-11
-1.7412e-11
1.78181e-11
-1.71585e-11
2.11282e-11
-1.6843e-11
2.43637e-11
-1.64733e-11
2.75152e-11
-1.60525e-11
3.0574e-11
-1.55826e-11
3.35313e-11
-1.50655e-11
3.63791e-11
-1.45032e-11
3.91092e-11
-1.38976e-11
4.17141e-11
-1.32511e-11
4.41864e-11
-1.25657e-11
4.65194e-11
-1.1844e-11
4.87065e-11
-1.10882e-11
5.07416e-11
-1.03009e-11
5.2619e-11
-9.48482e-12
5.43336e-11
-8.64249e-12
5.58805e-11
-7.77666e-12
5.72554e-11
-6.8901e-12
5.84545e-11
-5.98562e-12
5.94745e-11
-5.06603e-12
6.03126e-11
-4.1342e-12
6.09664e-11
-3.19297e-12
6.14341e-11
-2.24511e-12
6.17143e-11
-1.29314e-12
6.18066e-11
-3.39393e-13
6.1711e-11
6.05719e-13
6.1428e-11
1.54847e-12
6.09582e-11
2.48387e-12
6.03029e-11
3.40917e-12
5.94638e-11
4.3216e-12
5.84429e-11
5.21844e-12
5.72431e-11
6.09685e-12
5.58677e-11
6.95408e-12
5.43205e-11
7.78756e-12
5.26059e-11
8.59492e-12
5.07291e-11
9.37402e-12
4.86952e-11
1.01229e-11
4.65103e-11
1.08397e-11
4.41804e-11
1.15229e-11
4.17124e-11
1.21709e-11
3.91132e-11
1.27824e-11
3.63901e-11
1.33563e-11
3.35508e-11
1.38915e-11
3.06032e-11
1.43871e-11
2.75554e-11
1.48425e-11
2.44159e-11
1.52571e-11
2.11932e-11
1.56304e-11
1.7896e-11
1.5962e-11
1.45333e-11
1.62518e-11
1.1114e-11
1.64995e-11
7.64731e-12
1.67048e-11
4.14256e-12
1.68672e-11
6.09522e-13
1.69851e-11
-2.94155e-12
1.7057e-11
-6.49997e-12
1.70788e-11
-1.0054e-11
1.70478e-11
-1.35921e-11
1.69625e-11
-1.71027e-11
1.68232e-11
-2.05747e-11
1.66318e-11
-2.39975e-11
1.63907e-11
-2.7361e-11
1.61016e-11
-3.06556e-11
1.57657e-11
-3.38716e-11
1.53842e-11
-3.69999e-11
1.49581e-11
-4.00316e-11
1.44886e-11
-4.2958e-11
1.39769e-11
-4.57708e-11
1.34243e-11
-4.8462e-11
1.28321e-11
-5.10241e-11
1.2202e-11
-5.34498e-11
1.15354e-11
-5.57323e-11
1.08342e-11
-5.78652e-11
1.01001e-11
-5.98425e-11
9.33502e-12
-6.16586e-11
8.54094e-12
-6.33086e-11
7.71995e-12
-6.47878e-11
6.87424e-12
-6.60922e-11
6.00607e-12
-6.7218e-11
5.11785e-12
-6.81623e-11
4.21206e-12
-6.89225e-11
3.2913e-12
-6.94966e-11
2.35815e-12
-6.9883e-11
1.41498e-12
-7.00803e-11
4.63813e-13
-7.00878e-11
-4.92855e-13
-6.99061e-11
-1.45186e-12
-6.95325e-11
-2.41843e-12
-6.8969e-11
-3.38467e-12
-6.82168e-11
-4.34823e-12
-6.72776e-11
-5.30673e-12
-6.61538e-11
-6.25723e-12
-6.48482e-11
-7.19669e-12
-6.33641e-11
-8.12209e-12
-6.17053e-11
-9.03046e-12
-5.98761e-11
-9.91887e-12
-5.78812e-11
-1.07845e-11
-5.57259e-11
-1.16245e-11
-5.34157e-11
-1.24362e-11
-5.09566e-11
-1.3217e-11
-4.8355e-11
-1.39644e-11
-4.56177e-11
-1.46759e-11
-4.27518e-11
-1.53492e-11
-3.97648e-11
-1.5982e-11
-3.66645e-11
-1.65723e-11
-3.3459e-11
-1.71182e-11
-3.01567e-11
-1.76177e-11
-2.67662e-11
-1.80691e-11
-2.32965e-11
-1.84708e-11
-1.97568e-11
-1.88209e-11
-1.61567e-11
-1.91166e-11
-1.25073e-11
-1.93503e-11
-8.8232e-12
-1.94984e-11
-5.1312e-12
-1.94839e-11
-1.4928e-12
-1.90772e-11
1.93976e-12
-1.76699e-11
4.81421e-12
-1.39123e-11
6.45126e-12
-5.62337e-12
5.94353e-12
8.61451e-12
3.01649e-12
2.39937e-11
2.22014e-11
-3.23636e-12
2.57196e-11
-6.45452e-12
2.81715e-11
-7.16537e-12
1.07676e-11
-5.62114e-12
-5.47845e-12
-2.7737e-12
-1.4962e-11
6.6379e-13
-1.92604e-11
4.31744e-12
-2.08551e-11
8.02427e-12
-2.12926e-11
1.17178e-11
-2.12735e-11
1.53689e-11
-2.10632e-11
1.89616e-11
-2.07512e-11
2.24841e-11
-2.03656e-11
2.5926e-11
-1.99153e-11
2.92776e-11
-1.94042e-11
3.25295e-11
-1.88345e-11
3.56725e-11
-1.82086e-11
3.86979e-11
-1.75287e-11
4.15973e-11
-1.67971e-11
4.43626e-11
-1.60165e-11
4.69862e-11
-1.51894e-11
4.94608e-11
-1.43186e-11
5.17796e-11
-1.3407e-11
5.39361e-11
-1.24575e-11
5.59243e-11
-1.14731e-11
5.77388e-11
-1.04571e-11
5.93747e-11
-9.41256e-12
6.08273e-11
-8.3428e-12
6.20928e-11
-7.25114e-12
6.31676e-11
-6.14094e-12
6.40489e-11
-5.01557e-12
6.47343e-11
-3.87843e-12
6.5222e-11
-2.73287e-12
6.55108e-11
-1.58196e-12
6.55982e-11
-4.26864e-13
6.5488e-11
7.15778e-13
6.51792e-11
1.85722e-12
6.46728e-11
2.99016e-12
6.39705e-11
4.11143e-12
6.30742e-11
5.21782e-12
6.19864e-11
6.30611e-12
6.07103e-11
7.37292e-12
5.92494e-11
8.41488e-12
5.76081e-11
9.42879e-12
5.57912e-11
1.04117e-11
5.38041e-11
1.1361e-11
5.16528e-11
1.22741e-11
4.93436e-11
1.31488e-11
4.68832e-11
1.39832e-11
4.42788e-11
1.47752e-11
4.15379e-11
1.55232e-11
3.86682e-11
1.62258e-11
3.5678e-11
1.68816e-11
3.25755e-11
1.74895e-11
2.93694e-11
1.80485e-11
2.60684e-11
1.8558e-11
2.26814e-11
1.90173e-11
1.92175e-11
1.94258e-11
1.56858e-11
1.97834e-11
1.20955e-11
2.00896e-11
8.45608e-12
2.03442e-11
4.77699e-12
2.05462e-11
1.06814e-12
2.06939e-11
-2.65949e-12
2.07845e-11
-6.39479e-12
2.0814e-11
-1.01259e-11
2.07788e-11
-1.38406e-11
2.06771e-11
-1.75267e-11
2.05092e-11
-2.11727e-11
2.02778e-11
-2.47678e-11
1.99857e-11
-2.83015e-11
1.96352e-11
-3.17639e-11
1.9228e-11
-3.51451e-11
1.87654e-11
-3.84356e-11
1.82487e-11
-4.16263e-11
1.76793e-11
-4.47081e-11
1.70587e-11
-4.76724e-11
1.63886e-11
-5.05108e-11
1.56706e-11
-5.32154e-11
1.49066e-11
-5.57786e-11
1.40986e-11
-5.8193e-11
1.32487e-11
-6.0452e-11
1.23591e-11
-6.2549e-11
1.14321e-11
-6.44781e-11
1.04701e-11
-6.62339e-11
9.47581e-12
-6.78113e-11
8.45174e-12
-6.92058e-11
7.40071e-12
-7.04135e-11
6.32565e-12
-7.1431e-11
5.22962e-12
-7.22553e-11
4.11573e-12
-7.2884e-11
2.98705e-12
-7.33153e-11
1.84632e-12
-7.35472e-11
6.95892e-13
-7.3579e-11
-4.60892e-13
-7.34086e-11
-1.62214e-12
-7.30371e-11
-2.7898e-12
-7.24641e-11
-3.95745e-12
-7.16912e-11
-5.12103e-12
-7.07201e-11
-6.2777e-12
-6.95532e-11
-7.42397e-12
-6.81934e-11
-8.55626e-12
-6.66443e-11
-9.67102e-12
-6.49098e-11
-1.07648e-11
-6.29944e-11
-1.18341e-11
-6.0903e-11
-1.28757e-11
-5.86411e-11
-1.38862e-11
-5.62145e-11
-1.48626e-11
-5.36296e-11
-1.58018e-11
-5.0893e-11
-1.67007e-11
-4.8012e-11
-1.75567e-11
-4.49939e-11
-1.83669e-11
-4.18468e-11
-1.91289e-11
-3.85787e-11
-1.98401e-11
-3.51983e-11
-2.04983e-11
-3.17145e-11
-2.11013e-11
-2.81362e-11
-2.16471e-11
-2.44731e-11
-2.21336e-11
-2.07349e-11
-2.25589e-11
-1.69318e-11
-2.29194e-11
-1.30756e-11
-2.32063e-11
-9.18217e-12
-2.33915e-11
-5.28067e-12
-2.33851e-11
-1.43766e-12
-2.29199e-11
2.18318e-12
-2.12904e-11
5.20607e-12
-1.69349e-11
6.91402e-12
-7.33106e-12
6.343e-12
9.18582e-12
3.2142e-12
2.71228e-11
2.54157e-11
-3.45553e-12
2.91751e-11
-6.89123e-12
3.16071e-11
-7.64206e-12
1.15183e-11
-5.99129e-12
-7.12928e-12
-2.94402e-12
-1.80094e-11
7.38949e-13
-2.29434e-11
4.6561e-12
-2.47723e-11
8.63148e-12
-2.5268e-11
1.25926e-11
-2.52347e-11
1.65076e-11
-2.49783e-11
2.03589e-11
-2.46027e-11
2.4134e-11
-2.41407e-11
2.78216e-11
-2.3603e-11
3.14114e-11
-2.2994e-11
3.48933e-11
-2.23165e-11
3.82576e-11
-2.1573e-11
4.14951e-11
-2.07662e-11
4.45967e-11
-1.98988e-11
4.75539e-11
-1.89738e-11
5.03586e-11
-1.79942e-11
5.3003e-11
-1.69631e-11
5.54798e-11
-1.58839e-11
5.77824e-11
-1.47601e-11
5.99042e-11
-1.35951e-11
6.18396e-11
-1.23926e-11
6.35833e-11
-1.11563e-11