/*--------------------------------*- C++ -*----------------------------------*\
| =========                 |                                                 |
| \\      /  F ield         | OpenFOAM: The Open Source CFD Toolbox           |
|  \\    /   O peration     | Version:  2212                                  |
|   \\  /    A nd           | Website:  www.openfoam.com                      |
|    \\/     M anipulation  |                                                 |
\*---------------------------------------------------------------------------*/
FoamFile
{
    version     2.0;
    format      ascii;
    arch        "LSB;label=64;scalar=64";
    class       volScalarField;
    location    "1300";
    object      Gco2;
}
// * * * * * * * * * * * * * * * * * * * * * * * * * * * * * * * * * * * * * //

dimensions      [1 -3 0 0 0 0 0];

internalField   nonuniform List<scalar> 
1024
(
0.0588892
0.0588765
0.0588453
0.0587888
0.0586987
0.0585676
0.0583908
0.0581689
0.05791
0.0576294
0.0573477
0.0570911
0.0568915
0.0567785
0.0567722
0.0568903
0.0571354
0.057469
0.0578512
0.0582699
0.0587129
0.0591628
0.0595973
0.0599935
0.0603342
0.0606101
0.0608208
0.0609723
0.0610744
0.0611378
0.0611725
0.0611866
0.0588866
0.0588737
0.0588422
0.0587847
0.0586931
0.0585599
0.0583805
0.058156
0.0578946
0.0576117
0.0573279
0.0570694
0.0568689
0.0567563
0.0567512
0.0568704
0.0571162
0.0574501
0.0578324
0.058251
0.0586942
0.0591447
0.0595806
0.0599789
0.0603222
0.0606008
0.0608139
0.0609673
0.0610707
0.0611349
0.06117
0.0611843
0.0588806
0.0588674
0.058835
0.0587758
0.0586814
0.0585443
0.0583601
0.0581302
0.057863
0.0575737
0.0572828
0.0570174
0.0568132
0.0567015
0.0567
0.0568233
0.0570721
0.0574078
0.0577911
0.0582103
0.0586541
0.0591061
0.059545
0.0599478
0.0602965
0.0605807
0.0607987
0.060956
0.0610621
0.061128
0.061164
0.0611787
0.0588702
0.0588566
0.0588231
0.0587618
0.0586638
0.0585215
0.0583304
0.058092
0.0578145
0.0575125
0.0572059
0.0569244
0.0567108
0.0566003
0.0566065
0.0567395
0.0569962
0.0573373
0.0577242
0.0581457
0.0585914
0.0590462
0.0594897
0.0598993
0.0602562
0.0605489
0.0607744
0.0609376
0.0610479
0.0611164
0.0611537
0.0611689
0.058854
0.0588402
0.0588058
0.0587424
0.0586408
0.0584927
0.0582931
0.0580429
0.0577489
0.0574243
0.0570891
0.056778
0.056546
0.0564359
0.0564558
0.0566072
0.05688
0.0572332
0.0576288
0.0580565
0.0585069
0.0589666
0.0594166
0.0598351
0.0602026
0.060506
0.0607412
0.060912
0.0610276
0.0610994
0.0611385
0.0611543
0.0588304
0.0588165
0.0587818
0.0587172
0.0586126
0.0584588
0.0582495
0.0579834
0.057665
0.0573048
0.0569236
0.0565649
0.0563023
0.0561901
0.0562305
0.0564119
0.0567125
0.0570885
0.0575022
0.0579434
0.0584037
0.0588719
0.059331
0.0597601
0.0601396
0.0604552
0.0607011
0.0608803
0.0610018
0.0610773
0.0611182
0.0611348
0.0587954
0.0587821
0.058748
0.0586835
0.0585775
0.0584189
0.0581989
0.0579124
0.0575596
0.0571476
0.0566995
0.0562724
0.0559641
0.0558452
0.0559124
0.0561364
0.0564798
0.0568939
0.0573399
0.0578069
0.0582867
0.0587698
0.0592416
0.0596831
0.0600751
0.0604025
0.0606586
0.0608457
0.0609726
0.0610513
0.061094
0.0611111
0.0587406
0.0587284
0.0586963
0.0586339
0.0585284
0.0583664
0.0581347
0.0578229
0.0574245
0.0569427
0.0564048
0.0558877
0.055518
0.0553861
0.0554841
0.0557614
0.0561629
0.0566344
0.0571337
0.0576458
0.0581606
0.0586693
0.05916
0.0596161
0.0600199
0.0603569
0.0606204
0.0608128
0.0609431
0.0610236
0.061067
0.0610845
0.0586471
0.0586369
0.0586084
0.05855
0.0584471
0.0582828
0.0580383
0.0576955
0.0572397
0.0566697
0.0560202
0.0553941
0.0549501
0.054799
0.0549272
0.0552619
0.0557327
0.0562834
0.0568646
0.0574505
0.0580245
0.0585765
0.0590964
0.0595708
0.0599852
0.0603276
0.0605935
0.0607862
0.0609158
0.0609953
0.0610378
0.0610547
0.0584763
0.0584688
0.0584451
0.0583922
0.058293
0.0581262
0.0578662
0.0574857
0.0569603
0.0562854
0.0555086
0.054763
0.0542396
0.0540646
0.0542146
0.0545968
0.0551371
0.0557873
0.0564869
0.0571883
0.0578588
0.0584825
0.0590495
0.05955
0.0599749
0.0603179
0.0605788
0.0607644
0.0608869
0.0609605
0.060999
0.0610138
0.0581574
0.0581526
0.0581335
0.0580855
0.0579883
0.0578152
0.0575334
0.0571059
0.0565002
0.0557118
0.0548053
0.0539449
0.0533482
0.0531432
0.0532897
0.0536834
0.0542702
0.0550297
0.0558883
0.0567619
0.0575859
0.0583289
0.0589767
0.0595223
0.059964
0.0603048
0.0605531
0.0607218
0.0608273
0.0608863
0.0609144
0.060924
0.0575815
0.0575778
0.05756
0.0575118
0.0574093
0.0572207
0.0569059
0.0564206
0.0557288
0.0548317
0.0538132
0.0528626
0.0522049
0.0519477
0.0520285
0.0523493
0.0529119
0.0537533
0.0547909
0.0558988
0.0569592
0.0579032
0.058701
0.0593404
0.0598263
0.0601743
0.0604057
0.060545
0.060617
0.0606453
0.0606503
0.0606477
0.056627
0.0566207
0.0565966
0.0565369
0.0564149
0.0561946
0.0558313
0.0552777
0.0545016
0.0535128
0.052415
0.051405
0.0506798
0.0502996
0.0501839
0.0502665
0.0506392
0.0514279
0.052567
0.0539025
0.055267
0.0565256
0.0576047
0.0584558
0.0590746
0.0594822
0.0597152
0.0598182
0.0598363
0.0598102
0.0597731
0.0597481
0.05524
0.0552264
0.055186
0.0550988
0.0549359
0.0546589
0.0542216
0.0535784
0.0527067
0.0516321
0.0504739
0.0494022
0.048539
0.0478794
0.0473446
0.0469195
0.0467851
0.0471698
0.0480728
0.0493591
0.0508619
0.052412
0.0538724
0.0551154
0.0560789
0.0567373
0.0571098
0.0572575
0.0572622
0.0571986
0.0571245
0.0570778
0.0535584
0.0535343
0.0534674
0.0533308
0.053088
0.0526949
0.0521065
0.0512913
0.050254
0.0490535
0.0478038
0.0465997
0.0454576
0.0443225
0.0431391
0.041925
0.0408954
0.0403601
0.0404034
0.0409642
0.0419534
0.0432527
0.0447212
0.0462118
0.0475991
0.0487647
0.0496315
0.0501843
0.0504753
0.0505833
0.0505931
0.0505747
0.0519375
0.0519073
0.0518223
0.0516476
0.0513389
0.0508476
0.0501307
0.0491663
0.0479681
0.0465876
0.0450968
0.0435457
0.041933
0.0402206
0.0383803
0.0364247
0.0345411
0.0330148
0.0319199
0.0312449
0.0310005
0.0311862
0.0317753
0.032706
0.033872
0.0351375
0.0363587
0.0374031
0.0381862
0.0386863
0.0389449
0.0390361
0.0507113
0.0506804
0.0505918
0.050408
0.0500811
0.0495577
0.0487895
0.047748
0.0464392
0.0449065
0.043216
0.0414269
0.0395707
0.037662
0.0357274
0.0338069
0.0320289
0.0304626
0.0290075
0.0276275
0.026385
0.0253706
0.0246672
0.0243291
0.0243678
0.0247435
0.025364
0.0260944
0.0267872
0.0273291
0.0276687
0.0278156
0.0499305
0.0499006
0.049816
0.0496417
0.0493316
0.0488327
0.0480938
0.0470797
0.0457868
0.0442518
0.0425452
0.0407512
0.0389483
0.0372106
0.035623
0.034269
0.0332226
0.032297
0.0311797
0.0297894
0.0282123
0.0265967
0.0250963
0.0238371
0.0228994
0.022312
0.0220533
0.0220568
0.0222228
0.0224406
0.02262
0.0227131
0.0494696
0.0494413
0.0493636
0.0492062
0.0489284
0.0484811
0.0478143
0.0468895
0.0456957
0.0442615
0.0426562
0.0409768
0.0393296
0.0378233
0.0365708
0.0356705
0.0351497
0.0346843
0.0338594
0.032539
0.030791
0.0287877
0.0267488
0.0248822
0.0233395
0.0221928
0.0214415
0.0210305
0.0208717
0.0208636
0.0209128
0.0209532
0.0492035
0.0491777
0.0491086
0.0489706
0.048729
0.048341
0.0477607
0.04695
0.0458934
0.0446112
0.0431647
0.0416489
0.040176
0.0388621
0.0378211
0.0371414
0.0368158
0.0364968
0.0357985
0.0345641
0.0328026
0.0306319
0.0282584
0.0259313
0.0238803
0.0222548
0.0211055
0.020397
0.0200375
0.0199102
0.0199011
0.019922
0.0490317
0.0490108
0.048954
0.0488395
0.0486371
0.0483098
0.0478172
0.0471248
0.0462156
0.0451033
0.0438377
0.042501
0.0411935
0.0400187
0.0390722
0.0384171
0.0380249
0.0376007
0.0368565
0.0356481
0.0339412
0.0317861
0.0293245
0.0267776
0.0243992
0.0223995
0.0208963
0.0199027
0.019347
0.019108
0.019051
0.0190601
0.0488378
0.0488271
0.0487923
0.0487127
0.0485599
0.0482997
0.047896
0.0473182
0.046551
0.0456025
0.0445099
0.043336
0.0421587
0.0410575
0.0401007
0.0393211
0.0386885
0.0380149
0.0371174
0.0358729
0.0342217
0.0321642
0.0297774
0.0272214
0.0247167
0.0224933
0.0207256
0.0194863
0.0187439
0.0183909
0.0182832
0.0182805
0.0484741
0.0484821
0.0484856
0.0484619
0.0483795
0.0482016
0.0478921
0.0474224
0.0467776
0.0459615
0.0449988
0.0439325
0.0428166
0.041706
0.0406439
0.0396389
0.0386846
0.0377194
0.0366465
0.0353565
0.0337722
0.0318555
0.0296339
0.027212
0.0247566
0.0224695
0.0205476
0.0191208
0.0182124
0.0177467
0.0175844
0.0175681
0.0477744
0.0478122
0.0478735
0.0479296
0.0479399
0.0478587
0.0476432
0.0472616
0.0466979
0.0459525
0.045042
0.0439965
0.0428543
0.0416541
0.0404243
0.0391614
0.0378992
0.036688
0.0354862
0.0341881
0.0327054
0.030974
0.0289807
0.0267811
0.0244939
0.0222802
0.0203224
0.018782
0.0177404
0.017169
0.0169493
0.0169172
0.0465853
0.0466633
0.0467973
0.046945
0.0470506
0.047055
0.0469047
0.0465621
0.0460104
0.0452526
0.0443061
0.0431993
0.0419664
0.0406405
0.0392448
0.0377733
0.0362984
0.0349459
0.0337007
0.0324553
0.0311164
0.0296073
0.0278885
0.0259748
0.0239382
0.0218989
0.0200123
0.018443
0.0173141
0.0166523
0.0163749
0.0163244
0.0447929
0.0449182
0.0451233
0.045341
0.0454985
0.0455276
0.0453707
0.0449883
0.0443706
0.0435311
0.0424956
0.041298
0.0399745
0.0385577
0.0370694
0.0355047
0.0339593
0.0325919
0.0313961
0.0302644
0.0291046
0.0278399
0.0264185
0.0248277
0.0230998
0.0213119
0.0195857
0.0180727
0.0169157
0.0161893
0.0158586
0.0157873
0.0423298
0.0425014
0.0427451
0.0429608
0.0430702
0.0430168
0.0427565
0.0422602
0.0415336
0.0406007
0.0394944
0.0382519
0.0369095
0.0354976
0.0340358
0.03252
0.0310497
0.0297834
0.0287146
0.0277425
0.026783
0.0257672
0.0246428
0.0233831
0.0219926
0.0205103
0.0190179
0.0176406
0.0165224
0.0157701
0.0153973
0.0153042
0.0391564
0.0393565
0.0395632
0.0396572
0.0395911
0.0393512
0.0389228
0.0382966
0.0374896
0.0365256
0.0354344
0.0342489
0.0329997
0.0317116
0.0304002
0.0290612
0.0277833
0.0267034
0.0258137
0.0250274
0.024274
0.0234967
0.0226502
0.0217047
0.02065
0.0194978
0.0182917
0.01712
0.0161092
0.0153803
0.0149869
0.0148738
0.0352223
0.0354043
0.0354561
0.0353069
0.0349887
0.0345396
0.0339704
0.033284
0.032492
0.0316061
0.0306448
0.0296302
0.0285838
0.0275226
0.0264577
0.0253848
0.0243739
0.0235302
0.022846
0.0222538
0.0216993
0.0211398
0.0205402
0.0198749
0.0191293
0.0183006
0.0174046
0.0164908
0.0156523
0.0150029
0.0146205
0.0144947
0.0304229
0.030495
0.0302825
0.0298736
0.0293705
0.0288222
0.0282393
0.0276207
0.0269635
0.026266
0.0255339
0.024778
0.0240105
0.0232416
0.0224779
0.0217163
0.021005
0.0204159
0.0199429
0.0195393
0.0191681
0.0188003
0.0184119
0.0179845
0.0175059
0.016969
0.0163752
0.0157445
0.0151305
0.0146182
0.0142884
0.0141647
0.0245587
0.02442
0.0240098
0.0235461
0.0230826
0.0226353
0.0222045
0.0217819
0.0213576
0.0209235
0.0204783
0.0200252
0.0195695
0.0191164
0.0186694
0.0182265
0.017815
0.0174757
0.0172048
0.0169758
0.0167677
0.0165642
0.0163519
0.0161204
0.015862
0.0155716
0.0152468
0.0148925
0.0145307
0.0142067
0.0139773
0.0138791
0.0173857
0.0172756
0.0170637
0.0168608
0.0166735
0.0165017
0.0163437
0.0161949
0.01605
0.0159049
0.0157579
0.0156094
0.0154608
0.0153137
0.015169
0.0150261
0.0148937
0.0147847
0.0146979
0.0146249
0.0145589
0.0144949
0.0144286
0.0143568
0.0142769
0.0141874
0.0140871
0.0139767
0.0138614
0.0137532
0.0136701
0.0136299
)
;

boundaryField
{
    movingWall
    {
        type            fixedValue;
        value           uniform 0.0135;
    }
    fixedWalls
    {
        type            zeroGradient;
    }
    floor
    {
        type            zeroGradient;
    }
    frontAndBack
    {
        type            empty;
    }
}


// ************************************************************************* //
