/*--------------------------------*- C++ -*----------------------------------*\
| =========                 |                                                 |
| \\      /  F ield         | OpenFOAM: The Open Source CFD Toolbox           |
|  \\    /   O peration     | Version:  2212                                  |
|   \\  /    A nd           | Website:  www.openfoam.com                      |
|    \\/     M anipulation  |                                                 |
\*---------------------------------------------------------------------------*/
FoamFile
{
    version     2.0;
    format      ascii;
    arch        "LSB;label=64;scalar=64";
    class       volVectorField;
    location    "1300";
    object      U;
}
// * * * * * * * * * * * * * * * * * * * * * * * * * * * * * * * * * * * * * //

dimensions      [0 1 -1 0 0 0 0];

internalField   nonuniform List<vector> 
1024
(
(8.06221e-06 -8.41728e-06 0)
(-2.86793e-05 7.40545e-06 0)
(-0.000161722 2.47834e-05 0)
(-0.000387555 3.30465e-05 0)
(-0.000675853 3.42382e-05 0)
(-0.000993458 3.22579e-05 0)
(-0.00131263 2.88742e-05 0)
(-0.00160132 2.35455e-05 0)
(-0.0018031 1.42601e-05 0)
(-0.00181629 -2.34544e-06 0)
(-0.00148051 -2.63155e-05 0)
(-0.000726735 -4.20872e-05 0)
(0.000353126 -3.64112e-05 0)
(0.00118286 -2.2192e-05 0)
(0.00171526 -8.06238e-06 0)
(0.00193809 -1.1329e-06 0)
(0.00196332 1.92368e-06 0)
(0.00187459 4.55038e-06 0)
(0.00170971 6.70165e-06 0)
(0.00150951 7.78999e-06 0)
(0.00130574 8.24118e-06 0)
(0.00111329 8.31362e-06 0)
(0.000938388 8.13131e-06 0)
(0.000781548 7.98827e-06 0)
(0.000638029 8.3029e-06 0)
(0.000500229 9.47232e-06 0)
(0.00036327 1.12331e-05 0)
(0.000230925 1.24091e-05 0)
(0.000116292 1.12641e-05 0)
(3.53639e-05 6.58001e-06 0)
(-2.90747e-06 -6.94387e-07 0)
(-5.49316e-06 -5.52422e-06 0)
(-9.30051e-06 2.93726e-05 0)
(-0.000176463 0.000164967 0)
(-0.000564852 0.000296712 0)
(-0.00117098 0.000368286 0)
(-0.00192825 0.000378476 0)
(-0.00275386 0.000347396 0)
(-0.00356286 0.000289661 0)
(-0.00425398 0.000205742 0)
(-0.004675 8.5794e-05 0)
(-0.00458991 -8.49385e-05 0)
(-0.00366125 -0.000287993 0)
(-0.00176496 -0.000434486 0)
(0.00102699 -0.000396175 0)
(0.00316586 -0.000248294 0)
(0.0046282 -0.00011677 0)
(0.00533446 -3.47296e-05 0)
(0.00549511 8.74443e-06 0)
(0.00532056 4.07674e-05 0)
(0.00492103 6.71465e-05 0)
(0.00440513 8.46223e-05 0)
(0.00385815 9.52984e-05 0)
(0.00332455 0.000101697 0)
(0.00282501 0.000105683 0)
(0.00236435 0.000110118 0)
(0.00193441 0.0001185 0)
(0.00152112 0.00013274 0)
(0.00111791 0.000148811 0)
(0.000737774 0.000155829 0)
(0.000412192 0.000140963 0)
(0.000175152 9.88355e-05 0)
(4.29647e-05 4.0502e-05 0)
(-7.49232e-07 -3.32142e-06 0)
(-3.2346e-05 0.000181886 0)
(-0.000351109 0.000572039 0)
(-0.000984655 0.000896168 0)
(-0.00191563 0.00106739 0)
(-0.00304622 0.00108053 0)
(-0.00425465 0.000974886 0)
(-0.00540349 0.000785097 0)
(-0.00632725 0.000519073 0)
(-0.00680036 0.000163444 0)
(-0.00650161 -0.000303091 0)
(-0.00504352 -0.000823911 0)
(-0.00233587 -0.00121252 0)
(0.00167734 -0.00111844 0)
(0.00476299 -0.000714656 0)
(0.00702597 -0.000363795 0)
(0.00826855 -0.000129359 0)
(0.0086776 4.79926e-06 0)
(0.00852643 0.000102608 0)
(0.00799881 0.000183591 0)
(0.00725811 0.000241298 0)
(0.00643487 0.000280325 0)
(0.00560289 0.000307215 0)
(0.00479968 0.000327423 0)
(0.00403866 0.000348493 0)
(0.00331526 0.000378884 0)
(0.00261753 0.000421795 0)
(0.00194351 0.000465289 0)
(0.00131506 0.00048141 0)
(0.000775027 0.000439794 0)
(0.000367717 0.000330051 0)
(0.00011739 0.000177221 0)
(7.92039e-06 3.82676e-05 0)
(-4.92308e-05 0.000472088 0)
(-0.000485581 0.00127842 0)
(-0.00130578 0.00187302 0)
(-0.00246982 0.00216372 0)
(-0.00384838 0.00215405 0)
(-0.005288 0.00190848 0)
(-0.00661057 0.00148857 0)
(-0.00760293 0.000918388 0)
(-0.00799265 0.00018988 0)
(-0.0074092 -0.000711126 0)
(-0.00552951 -0.00166225 0)
(-0.00234457 -0.00237171 0)
(0.00224618 -0.00219803 0)
(0.00585653 -0.00144127 0)
(0.00871598 -0.000785436 0)
(0.0104941 -0.000320778 0)
(0.0112614 -3.52881e-05 0)
(0.0112595 0.000174394 0)
(0.010734 0.000348784 0)
(0.00988705 0.000479727 0)
(0.00888453 0.000574958 0)
(0.00782614 0.000646523 0)
(0.00676673 0.00070515 0)
(0.00573205 0.000764494 0)
(0.00472793 0.000838762 0)
(0.00375221 0.000931453 0)
(0.00281206 0.00101917 0)
(0.00193706 0.00105107 0)
(0.0011771 0.000973045 0)
(0.000585884 0.000764955 0)
(0.000202061 0.000462111 0)
(1.71961e-05 0.00014235 0)
(-5.4881e-05 0.000882351 0)
(-0.00053451 0.00225123 0)
(-0.00142733 0.00318474 0)
(-0.00268309 0.00360351 0)
(-0.00415385 0.00353499 0)
(-0.00566416 0.0030773 0)
(-0.00700822 0.00232682 0)
(-0.00794349 0.00133485 0)
(-0.00817239 0.000112316 0)
(-0.00730713 -0.00133358 0)
(-0.00516445 -0.00277478 0)
(-0.00179925 -0.00380588 0)
(0.0026745 -0.00352487 0)
(0.00641045 -0.00239113 0)
(0.00958691 -0.00138857 0)
(0.0118055 -0.00064019 0)
(0.012985 -0.00014796 0)
(0.0132569 0.000223535 0)
(0.0128684 0.00053554 0)
(0.0120477 0.000779741 0)
(0.0109852 0.000968279 0)
(0.00980005 0.00111988 0)
(0.00856193 0.00125156 0)
(0.00731036 0.0013831 0)
(0.00606586 0.00153359 0)
(0.00484133 0.0017051 0)
(0.00365647 0.0018604 0)
(0.00254924 0.00192173 0)
(0.00157628 0.001804 0)
(0.000802636 0.0014666 0)
(0.000285325 0.000943989 0)
(2.60551e-05 0.000328717 0)
(-4.71209e-05 0.00134864 0)
(-0.000476496 0.00336526 0)
(-0.00129559 0.00469334 0)
(-0.00246994 0.00526008 0)
(-0.0038614 0.0051147 0)
(-0.00528972 0.00439046 0)
(-0.00653444 0.00322568 0)
(-0.00733701 0.0017108 0)
(-0.00738794 -0.000108764 0)
(-0.00633868 -0.00216232 0)
(-0.00412656 -0.00410432 0)
(-0.000865551 -0.00537297 0)
(0.00297737 -0.00495348 0)
(0.00648562 -0.00349365 0)
(0.00964868 -0.00214979 0)
(0.0121018 -0.0011026 0)
(0.0136481 -0.00037017 0)
(0.0142767 0.000208667 0)
(0.0141377 0.000704628 0)
(0.0134666 0.00110645 0)
(0.012468 0.00143257 0)
(0.0112718 0.0017098 0)
(0.00995687 0.00196176 0)
(0.00857459 0.00221312 0)
(0.00716067 0.00248546 0)
(0.00574498 0.0027766 0)
(0.00436243 0.00303291 0)
(0.00306208 0.00314547 0)
(0.00190967 0.00298888 0)
(0.000982455 0.00248763 0)
(0.000353873 0.00166144 0)
(3.3364e-05 0.000612754 0)
(-2.8477e-05 0.00176886 0)
(-0.000325453 0.00441041 0)
(-0.000933144 0.00616176 0)
(-0.00185637 0.006923 0)
(-0.00300185 0.00673198 0)
(-0.0042117 0.00573782 0)
(-0.00526995 0.00411921 0)
(-0.00591485 0.00201724 0)
(-0.00582571 -0.000464278 0)
(-0.00472668 -0.00314639 0)
(-0.00264812 -0.00555678 0)
(0.000214391 -0.00692611 0)
(0.00320792 -0.00634805 0)
(0.00618845 -0.00464705 0)
(0.00900722 -0.0030072 0)
(0.0114088 -0.0016911 0)
(0.013166 -0.000724062 0)
(0.0141523 9.2225e-05 0)
(0.0143283 0.000811898 0)
(0.0138979 0.00141429 0)
(0.0130697 0.00192436 0)
(0.0119754 0.00237858 0)
(0.0106956 0.00280722 0)
(0.00928787 0.00323762 0)
(0.00780046 0.00369012 0)
(0.00627936 0.00415364 0)
(0.0047763 0.00455327 0)
(0.00335505 0.0047424 0)
(0.00209313 0.00454542 0)
(0.00107746 0.00383956 0)
(0.000388877 0.00261958 0)
(3.70571e-05 0.000995429 0)
(-6.13635e-06 0.00203413 0)
(-0.000130204 0.00514255 0)
(-0.00044091 0.00728962 0)
(-0.000986648 0.008307 0)
(-0.00174466 0.00816429 0)
(-0.00261257 0.00697844 0)
(-0.00340817 0.00494526 0)
(-0.00388365 0.0022586 0)
(-0.00371288 -0.000894624 0)
(-0.0026985 -0.0041959 0)
(-0.000938929 -0.00699199 0)
(0.00124806 -0.00831619 0)
(0.00335712 -0.00759051 0)
(0.00558145 -0.00572335 0)
(0.00777281 -0.00386097 0)
(0.00982097 -0.00234946 0)
(0.0115626 -0.00120191 0)
(0.0127875 -0.0001642 0)
(0.0133118 0.000810893 0)
(0.0131735 0.0016521 0)
(0.0125911 0.00238842 0)
(0.011693 0.00306998 0)
(0.0105534 0.0037343 0)
(0.00922943 0.0044087 0)
(0.00777706 0.00510694 0)
(0.00625651 0.0058015 0)
(0.00473746 0.00638685 0)
(0.00330149 0.0066691 0)
(0.00203844 0.00641535 0)
(0.00103732 0.00545385 0)
(0.000370143 0.00375722 0)
(3.47099e-05 0.00144781 0)
(1.11915e-05 0.00207693 0)
(4.34002e-05 0.00537252 0)
(3.04738e-05 0.00779583 0)
(-9.53616e-05 0.00910312 0)
(-0.000378254 0.00914102 0)
(-0.00079606 0.00793035 0)
(-0.00123752 0.00562933 0)
(-0.0014971 0.00245548 0)
(-0.0012655 -0.00132432 0)
(-0.000458558 -0.00518998 0)
(0.000801833 -0.00820838 0)
(0.00210384 -0.00937902 0)
(0.003331 -0.0085492 0)
(0.0046237 -0.00656906 0)
(0.00596788 -0.00457751 0)
(0.00739947 -0.00298321 0)
(0.00888155 -0.00176042 0)
(0.0101879 -0.000570171 0)
(0.011058 0.0006634 0)
(0.0112238 0.00177007 0)
(0.0109283 0.00276293 0)
(0.0102969 0.00371288 0)
(0.00938734 0.0046664 0)
(0.00824871 0.00564712 0)
(0.0069406 0.00665412 0)
(0.00553684 0.00763103 0)
(0.00412693 0.00842656 0)
(0.0028114 0.00878833 0)
(0.00168752 0.0084288 0)
(0.000831979 0.00714686 0)
(0.000286771 0.00491958 0)
(2.51063e-05 0.00189902 0)
(1.99008e-05 0.0019064 0)
(0.000154756 0.0050699 0)
(0.00036335 0.00754673 0)
(0.000589138 0.00904122 0)
(0.000759511 0.00931688 0)
(0.000834395 0.00827042 0)
(0.000840144 0.00594468 0)
(0.000898673 0.00249516 0)
(0.00120372 -0.00174651 0)
(0.00169807 -0.00590052 0)
(0.00227298 -0.00888911 0)
(0.00270101 -0.00997372 0)
(0.0029449 -0.00903902 0)
(0.00315691 -0.00699361 0)
(0.0034922 -0.00498794 0)
(0.00410564 -0.0034574 0)
(0.00509834 -0.00231894 0)
(0.00631482 -0.00111508 0)
(0.00753664 0.000341921 0)
(0.0080309 0.00172107 0)
(0.00805259 0.00297877 0)
(0.00774815 0.00421964 0)
(0.0071491 0.00550197 0)
(0.00628963 0.00683921 0)
(0.00523309 0.00820176 0)
(0.00407047 0.00948372 0)
(0.00291366 0.0104677 0)
(0.00187726 0.0108381 0)
(0.00105074 0.0102779 0)
(0.000476723 0.00860746 0)
(0.000148299 0.00585967 0)
(9.84507e-06 0.00224102 0)
(2.04171e-05 0.00158013 0)
(0.000196421 0.00432121 0)
(0.000520733 0.00660398 0)
(0.000962348 0.00811921 0)
(0.00145156 0.00856464 0)
(0.00192288 0.00773219 0)
(0.00234404 0.00556302 0)
(0.00274422 0.00217376 0)
(0.00311741 -0.00204807 0)
(0.00330506 -0.00613559 0)
(0.00324138 -0.00899414 0)
(0.002756 -0.00987744 0)
(0.00188289 -0.0087973 0)
(0.000901407 -0.00676158 0)
(0.00014648 -0.0049025 0)
(-0.000178131 -0.00360895 0)
(0.000115672 -0.00275401 0)
(0.00103211 -0.0017751 0)
(0.00241534 -0.000230327 0)
(0.00351954 0.00143203 0)
(0.0039437 0.00294967 0)
(0.00405533 0.0044783 0)
(0.00386311 0.00610495 0)
(0.00338795 0.00782279 0)
(0.00270611 0.00955076 0)
(0.00193368 0.0111025 0)
(0.00120268 0.0121749 0)
(0.000621895 0.0124084 0)
(0.0002425 0.0115208 0)
(5.17081e-05 0.00943325 0)
(-8.01575e-06 0.00628714 0)
(-5.94365e-06 0.00235738 0)
(1.69419e-05 0.00118195 0)
(0.000180022 0.00331086 0)
(0.000512663 0.00517958 0)
(0.00101466 0.00651526 0)
(0.00164012 0.00699999 0)
(0.00232343 0.00635948 0)
(0.00299817 0.00445607 0)
(0.00361158 0.00137862 0)
(0.00399285 -0.00240257 0)
(0.00391296 -0.00596301 0)
(0.00322889 -0.00831015 0)
(0.00173253 -0.00877016 0)
(-0.000381847 -0.00747553 0)
(-0.00255635 -0.00559943 0)
(-0.00430492 -0.00416934 0)
(-0.00553558 -0.00332533 0)
(-0.00606496 -0.00291146 0)
(-0.00568594 -0.00239766 0)
(-0.00451404 -0.00124105 0)
(-0.00256384 0.000602687 0)
(-0.00149528 0.00243529 0)
(-0.00079193 0.00425645 0)
(-0.000403341 0.00626566 0)
(-0.000308618 0.00838207 0)
(-0.000403907 0.0104214 0)
(-0.000562435 0.0120845 0)
(-0.000668708 0.0130193 0)
(-0.000655956 0.0129255 0)
(-0.000524156 0.0116583 0)
(-0.000326483 0.00927987 0)
(-0.000139199 0.00602289 0)
(-1.81215e-05 0.0021948 0)
(8.17004e-06 0.000856118 0)
(0.000131062 0.00239498 0)
(0.000401868 0.00376168 0)
(0.000841615 0.00476295 0)
(0.00142946 0.00513686 0)
(0.00211158 0.00462098 0)
(0.00280541 0.00306667 0)
(0.00340846 0.000571685 0)
(0.00359213 -0.00239692 0)
(0.00301984 -0.00504938 0)
(0.00153733 -0.00647448 0)
(-0.00126418 -0.00620696 0)
(-0.00444691 -0.00489741 0)
(-0.0074504 -0.00360614 0)
(-0.0100587 -0.00275442 0)
(-0.0121417 -0.0024661 0)
(-0.0134684 -0.00264622 0)
(-0.0136552 -0.00279565 0)
(-0.0127444 -0.0023449 0)
(-0.0109549 -0.00102372 0)
(-0.00850754 0.00104102 0)
(-0.00677365 0.00322298 0)
(-0.00540612 0.00550502 0)
(-0.00435896 0.00781938 0)
(-0.00353 0.00996749 0)
(-0.00283973 0.0115848 0)
(-0.0022169 0.0123097 0)
(-0.00161727 0.0119287 0)
(-0.00104884 0.0104424 0)
(-0.00056008 0.00804484 0)
(-0.000209757 0.00504781 0)
(-2.1839e-05 0.00177135 0)
(1.14573e-05 0.00047895 0)
(9.20186e-05 0.00135748 0)
(0.000262009 0.00214623 0)
(0.000537389 0.00270317 0)
(0.000914413 0.00282788 0)
(0.00134919 0.00232133 0)
(0.00171451 0.00111307 0)
(0.00173969 -0.000584566 0)
(0.00117957 -0.00223799 0)
(-0.00052818 -0.00324811 0)
(-0.00331167 -0.00299271 0)
(-0.00694183 -0.00198438 0)
(-0.0107173 -0.00108314 0)
(-0.0141812 -0.000589852 0)
(-0.0171969 -0.000538945 0)
(-0.0196746 -0.000975801 0)
(-0.0215015 -0.00190296 0)
(-0.0221074 -0.00293857 0)
(-0.0214799 -0.00348346 0)
(-0.0197888 -0.00322397 0)
(-0.0172116 -0.00200067 0)
(-0.0139818 0.00017044 0)
(-0.0107934 0.0028439 0)
(-0.00812652 0.00534894 0)
(-0.00592385 0.00748767 0)
(-0.00417911 0.00903638 0)
(-0.00285153 0.00967235 0)
(-0.00183389 0.00924963 0)
(-0.00105706 0.00788462 0)
(-0.000506854 0.00585935 0)
(-0.000171503 0.00352421 0)
(-1.71175e-05 0.00117423 0)
(-1.62433e-05 0.000502286 0)
(-0.000154711 0.00139719 0)
(-0.000433988 0.00217881 0)
(-0.000866119 0.00274555 0)
(-0.00145452 0.00300389 0)
(-0.00223791 0.00294274 0)
(-0.00332558 0.00270882 0)
(-0.00488308 0.00256556 0)
(-0.00701663 0.00267982 0)
(-0.00969511 0.00294384 0)
(-0.0127076 0.00319129 0)
(-0.015664 0.00323771 0)
(-0.0185104 0.00306707 0)
(-0.0212664 0.0026585 0)
(-0.023878 0.00192802 0)
(-0.0261617 0.000741258 0)
(-0.0277577 -0.00103096 0)
(-0.0284034 -0.00305962 0)
(-0.0280016 -0.00483047 0)
(-0.02662 -0.00607011 0)
(-0.0243035 -0.00658417 0)
(-0.0211527 -0.00620766 0)
(-0.0173741 -0.00480935 0)
(-0.0132577 -0.002352 0)
(-0.00932777 0.000700513 0)
(-0.0059574 0.00361577 0)
(-0.0033655 0.00559393 0)
(-0.00165068 0.00606176 0)
(-0.000643962 0.00554741 0)
(-0.000169294 0.00435096 0)
(-8.79411e-06 0.00275048 0)
(9.55805e-06 0.000970834 0)
(-2.4501e-05 0.00145255 0)
(-0.000269841 0.00392459 0)
(-0.000777061 0.0059834 0)
(-0.00157506 0.00748689 0)
(-0.00265174 0.00838521 0)
(-0.00399337 0.00875711 0)
(-0.00559123 0.00877461 0)
(-0.00743086 0.00861013 0)
(-0.00948952 0.00836324 0)
(-0.0117525 0.00805846 0)
(-0.0141917 0.00769529 0)
(-0.0167577 0.00724092 0)
(-0.019403 0.0066206 0)
(-0.0220635 0.00572055 0)
(-0.0246493 0.0044123 0)
(-0.0269964 0.00255456 0)
(-0.0287949 -1.05693e-05 0)
(-0.029525 -0.00299929 0)
(-0.029407 -0.00590531 0)
(-0.0285397 -0.00857169 0)
(-0.0269016 -0.0108565 0)
(-0.0245053 -0.0126011 0)
(-0.0214196 -0.0135926 0)
(-0.017787 -0.0135766 0)
(-0.0138417 -0.0123346 0)
(-0.00990835 -0.0097949 0)
(-0.00635277 -0.00616169 0)
(-0.00350511 -0.00209456 0)
(-0.00160989 0.00101192 0)
(-0.00056457 0.00247372 0)
(-0.000115774 0.00234476 0)
(4.09818e-06 0.00107835 0)
(-1.80628e-05 0.00239625 0)
(-0.000206856 0.0064367 0)
(-0.000608157 0.00976023 0)
(-0.00125793 0.0121701 0)
(-0.00215666 0.0136215 0)
(-0.00329161 0.0142482 0)
(-0.0046416 0.0143018 0)
(-0.00618013 0.0140305 0)
(-0.0078804 0.0135875 0)
(-0.00972034 0.013022 0)
(-0.0116796 0.0123254 0)
(-0.0137366 0.0114628 0)
(-0.015867 0.010378 0)
(-0.0180402 0.0089813 0)
(-0.0202106 0.00714234 0)
(-0.0222712 0.00468064 0)
(-0.0240054 0.00137074 0)
(-0.0250429 -0.00246528 0)
(-0.0253245 -0.00622705 0)
(-0.0251989 -0.00992373 0)
(-0.0245584 -0.0135579 0)
(-0.0233228 -0.0170275 0)
(-0.0214399 -0.0200705 0)
(-0.0189279 -0.022285 0)
(-0.0158939 -0.0231958 0)
(-0.0125318 -0.0223552 0)
(-0.0091017 -0.0195223 0)
(-0.0059056 -0.0149121 0)
(-0.0032638 -0.00941405 0)
(-0.00142202 -0.00443856 0)
(-0.000408295 -0.0011483 0)
(-2.26347e-05 0.000150598 0)
(-4.17831e-06 0.00291355 0)
(-8.27837e-05 0.00789459 0)
(-0.000280875 0.0120867 0)
(-0.000648198 0.0152355 0)
(-0.00121507 0.0172333 0)
(-0.00198927 0.0181741 0)
(-0.00295357 0.0183163 0)
(-0.00407343 0.0179574 0)
(-0.00531028 0.0173149 0)
(-0.0066306 0.0164911 0)
(-0.00800586 0.0155049 0)
(-0.00940987 0.0143348 0)
(-0.0108188 0.0129335 0)
(-0.0122147 0.0112215 0)
(-0.0135836 0.00907568 0)
(-0.0148819 0.00631091 0)
(-0.015993 0.00266514 0)
(-0.0169055 -0.00155268 0)
(-0.0174821 -0.00563715 0)
(-0.0180759 -0.009705 0)
(-0.0185291 -0.0140192 0)
(-0.0186605 -0.0186438 0)
(-0.0182729 -0.0233824 0)
(-0.0172218 -0.0277811 0)
(-0.0154553 -0.0311822 0)
(-0.0130395 -0.0327969 0)
(-0.010163 -0.0318868 0)
(-0.00711911 -0.0280348 0)
(-0.00427928 -0.021542 0)
(-0.00203221 -0.0137594 0)
(-0.000637525 -0.00667049 0)
(-4.26525e-05 -0.00159367 0)
(7.07301e-06 0.00297635 0)
(2.85334e-05 0.0082323 0)
(2.22866e-05 0.0128616 0)
(-6.45595e-05 0.0165555 0)
(-0.000288528 0.0190797 0)
(-0.000685578 0.0204098 0)
(-0.00125485 0.0207382 0)
(-0.00195939 0.0203714 0)
(-0.00274255 0.0195833 0)
(-0.00355068 0.0185392 0)
(-0.00434161 0.0173015 0)
(-0.00508307 0.0158752 0)
(-0.00575266 0.0142295 0)
(-0.00634151 0.0122971 0)
(-0.00685767 0.00996491 0)
(-0.00730647 0.00706879 0)
(-0.00761617 0.0034031 0)
(-0.00799633 -0.000746113 0)
(-0.00868829 -0.00462291 0)
(-0.00969547 -0.00839072 0)
(-0.0109098 -0.0125881 0)
(-0.0121437 -0.017506 0)
(-0.0131239 -0.0231324 0)
(-0.013571 -0.0290963 0)
(-0.0132675 -0.0347102 0)
(-0.0121171 -0.0389547 0)
(-0.0101837 -0.0406702 0)
(-0.00768287 -0.0387995 0)
(-0.00497407 -0.0328264 0)
(-0.00253676 -0.0234605 0)
(-0.000849896 -0.0129371 0)
(-6.53299e-05 -0.00372113 0)
(1.31063e-05 0.00278658 0)
(0.000101392 0.00790026 0)
(0.000234599 0.0126167 0)
(0.000367098 0.01659 0)
(0.00043356 0.019515 0)
(0.000380224 0.0212445 0)
(0.000189216 0.0218476 0)
(-0.000118782 0.0215574 0)
(-0.000475073 0.0206801 0)
(-0.000804266 0.0194567 0)
(-0.00104815 0.0180087 0)
(-0.00116799 0.0163793 0)
(-0.00114685 0.0145617 0)
(-0.000990704 0.0125037 0)
(-0.000731397 0.0100962 0)
(-0.000414242 0.00715923 0)
(-7.85623e-05 0.00355655 0)
(-3.64168e-05 -0.000376833 0)
(-0.000948789 -0.00377684 0)
(-0.00212153 -0.00698495 0)
(-0.00363468 -0.0105905 0)
(-0.00542186 -0.015103 0)
(-0.00730691 -0.0208102 0)
(-0.00895022 -0.0275308 0)
(-0.0100009 -0.034735 0)
(-0.0101788 -0.041305 0)
(-0.00938309 -0.0457914 0)
(-0.00769392 -0.0465951 0)
(-0.00538834 -0.0423393 0)
(-0.00295903 -0.0327118 0)
(-0.00105782 -0.0195075 0)
(-8.96197e-05 -0.00611119 0)
(1.50142e-05 0.00249725 0)
(0.000137055 0.00725604 0)
(0.000352492 0.0118469 0)
(0.000628303 0.0159152 0)
(0.000902669 0.0190937 0)
(0.00111949 0.0211302 0)
(0.00125329 0.0219802 0)
(0.00132019 0.0218045 0)
(0.00138233 0.0208931 0)
(0.00152199 0.0195287 0)
(0.0018088 0.0179004 0)
(0.00228281 0.0161036 0)
(0.00294851 0.0141619 0)
(0.0037753 0.012037 0)
(0.00469362 0.00962145 0)
(0.00560573 0.0067179 0)
(0.00627868 0.00334357 0)
(0.00634069 5.31313e-05 0)
(0.00530306 -0.00285245 0)
(0.00394339 -0.00563658 0)
(0.00234608 -0.00862966 0)
(0.000468716 -0.012421 0)
(-0.00179208 -0.0176926 0)
(-0.00412664 -0.0243667 0)
(-0.00621106 -0.0323815 0)
(-0.00759675 -0.0406686 0)
(-0.00798876 -0.0476616 0)
(-0.00727713 -0.0513836 0)
(-0.00558468 -0.0496705 0)
(-0.00333464 -0.0410033 0)
(-0.00128129 -0.0260786 0)
(-0.000117685 -0.00867316 0)
(1.36225e-05 0.00221058 0)
(0.000137721 0.00656108 0)
(0.000375844 0.0109204 0)
(0.000714084 0.0149479 0)
(0.0011081 0.01824 0)
(0.00151456 0.0204634 0)
(0.00191447 0.0214791 0)
(0.00232641 0.0213806 0)
(0.00280736 0.0204369 0)
(0.00343125 0.018961 0)
(0.00425777 0.0171988 0)
(0.005312 0.0152944 0)
(0.00657758 0.0133002 0)
(0.00799652 0.0111914 0)
(0.00945952 0.00886772 0)
(0.0108068 0.00614724 0)
(0.0116141 0.00316775 0)
(0.0115615 0.000438828 0)
(0.0104276 -0.00202205 0)
(0.00886441 -0.00444035 0)
(0.00706219 -0.00709084 0)
(0.00510529 -0.0103228 0)
(0.0029428 -0.0146031 0)
(0.000477258 -0.0206072 0)
(-0.00219282 -0.0287211 0)
(-0.00454349 -0.0379686 0)
(-0.0060857 -0.0469096 0)
(-0.00646934 -0.0534267 0)
(-0.00558249 -0.0547293 0)
(-0.00368935 -0.0480704 0)
(-0.00155251 -0.0325158 0)
(-0.000155269 -0.0113997 0)
(8.88235e-06 0.00198944 0)
(0.000100675 0.00599151 0)
(0.000294283 0.0101011 0)
(0.000604387 0.0139974 0)
(0.00102456 0.0172657 0)
(0.00154319 0.019527 0)
(0.00216106 0.0205809 0)
(0.0029041 0.0204768 0)
(0.0038195 0.0194737 0)
(0.0049558 0.0179082 0)
(0.00634017 0.016065 0)
(0.00796647 0.0141213 0)
(0.00979155 0.0121489 0)
(0.0117319 0.0101326 0)
(0.0136449 0.00798318 0)
(0.0153155 0.00554852 0)
(0.0162132 0.00301974 0)
(0.0160981 0.000820126 0)
(0.014964 -0.00117478 0)
(0.0133196 -0.00319167 0)
(0.0113594 -0.00548989 0)
(0.00921182 -0.00839279 0)
(0.00694291 -0.0122699 0)
(0.0045345 -0.017505 0)
(0.00191684 -0.0245177 0)
(-0.0010341 -0.0339809 0)
(-0.00359824 -0.0441378 0)
(-0.00517219 -0.0530389 0)
(-0.00530883 -0.0575154 0)
(-0.00399986 -0.0537094 0)
(-0.0019015 -0.0387129 0)
(-0.000213102 -0.0143407 0)
(-1.20285e-06 0.00188107 0)
(6.63644e-06 0.00568229 0)
(6.44535e-05 0.00958978 0)
(0.000240942 0.0132888 0)
(0.00060002 0.0163821 0)
(0.00117806 0.018498 0)
(0.00199666 0.0194295 0)
(0.00308535 0.0192116 0)
(0.0044706 0.0181103 0)
(0.00615525 0.0164791 0)
(0.00811472 0.0146162 0)
(0.0103023 0.0127071 0)
(0.0126485 0.0108281 0)
(0.0150516 0.00896833 0)
(0.0173483 0.0070503 0)
(0.0192902 0.00495113 0)
(0.0203145 0.00286451 0)
(0.0202593 0.00112202 0)
(0.0192517 -0.000448931 0)
(0.0176927 -0.00208027 0)
(0.0157566 -0.00400903 0)
(0.0135591 -0.00654205 0)
(0.0111758 -0.0100251 0)
(0.00863339 -0.0148094 0)
(0.00591657 -0.0211919 0)
(0.00292447 -0.0294288 0)
(-0.000371668 -0.0398185 0)
(-0.00317053 -0.0504824 0)
(-0.00458785 -0.0580077 0)
(-0.00417737 -0.0576793 0)
(-0.00234393 -0.0444891 0)
(-0.000309678 -0.0175817 0)
(-2.19464e-05 0.00195827 0)
(-0.000182922 0.00580495 0)
(-0.000383458 0.00957399 0)
(-0.000457827 0.0129536 0)
(-0.000236669 0.0156592 0)
(0.000395953 0.0174474 0)
(0.00145571 0.018089 0)
(0.00294198 0.017653 0)
(0.00484999 0.0164266 0)
(0.00711919 0.0147663 0)
(0.00966338 0.0129511 0)
(0.0123977 0.0111482 0)
(0.0152351 0.00942379 0)
(0.0180675 0.00776659 0)
(0.0207272 0.00611044 0)
(0.0229618 0.00435494 0)
(0.0242171 0.00266972 0)
(0.0243793 0.00130801 0)
(0.0237065 0.000103297 0)
(0.0223812 -0.00118461 0)
(0.020655 -0.00276545 0)
(0.0185923 -0.00491968 0)
(0.0162281 -0.00796476 0)
(0.0135653 -0.0122219 0)
(0.0105904 -0.017971 0)
(0.00728438 -0.0254341 0)
(0.00363996 -0.0347523 0)
(-0.000200301 -0.045944 0)
(-0.00315058 -0.0561325 0)
(-0.00405407 -0.059668 0)
(-0.002858 -0.0495356 0)
(-0.000473391 -0.0212144 0)
(-6.98539e-05 0.00232567 0)
(-0.000553456 0.00653408 0)
(-0.00116356 0.0101968 0)
(-0.00157501 0.0130769 0)
(-0.00149034 0.0151235 0)
(-0.000775538 0.0163167 0)
(0.000623708 0.0165488 0)
(0.00261064 0.0158324 0)
(0.00510992 0.0144876 0)
(0.00799997 0.0128521 0)
(0.0111393 0.0111517 0)
(0.0144203 0.00951462 0)
(0.0177526 0.00798822 0)
(0.0210349 0.00655825 0)
(0.0241114 0.00516924 0)
(0.0267497 0.00373762 0)
(0.0284072 0.0023999 0)
(0.0289744 0.00134509 0)
(0.0287525 0.000432665 0)
(0.0278483 -0.000557213 0)
(0.0265032 -0.00182373 0)
(0.0247303 -0.003601 0)
(0.0225077 -0.0061648 0)
(0.0197897 -0.00980361 0)
(0.016536 -0.0147874 0)
(0.0127451 -0.0213592 0)
(0.00847713 -0.0297447 0)
(0.0038763 -0.0400872 0)
(-0.000635223 -0.0517802 0)
(-0.00334764 -0.0592966 0)
(-0.0033375 -0.0534014 0)
(-0.0007336 -0.0252701 0)
(-0.000183752 0.00319118 0)
(-0.00125163 0.00808021 0)
(-0.00240547 0.0114778 0)
(-0.00313679 0.0135412 0)
(-0.00307302 0.0146529 0)
(-0.00211816 0.0150598 0)
(-0.000268523 0.0147696 0)
(0.00240014 0.013754 0)
(0.00557925 0.0123436 0)
(0.00914644 0.0107994 0)
(0.0129261 0.00927111 0)
(0.0168084 0.00784096 0)
(0.020711 0.00653556 0)
(0.0245463 0.00533846 0)
(0.028176 0.00420456 0)
(0.0313958 0.00306549 0)
(0.0336433 0.00202555 0)
(0.0347726 0.00122245 0)
(0.0350832 0.000543832 0)
(0.0347098 -0.000200316 0)
(0.0338197 -0.00118523 0)
(0.0323917 -0.00259101 0)
(0.0303562 -0.00464215 0)
(0.0276191 -0.00758556 0)
(0.0241002 -0.0116757 0)
(0.0197779 -0.017182 0)
(0.0147222 -0.0244204 0)
(0.00911309 -0.0337611 0)
(0.00330886 -0.0452188 0)
(-0.00159247 -0.0561453 0)
(-0.00352286 -0.0555135 0)
(-0.00108647 -0.0296451 0)
(-0.00043139 0.0048897 0)
(-0.00243667 0.0105938 0)
(-0.00411224 0.0132393 0)
(-0.00491783 0.0140502 0)
(-0.00455391 0.0140002 0)
(-0.00306009 0.0135355 0)
(-0.000466686 0.01268 0)
(0.00308257 0.0114048 0)
(0.0070769 0.0100214 0)
(0.0114338 0.0086345 0)
(0.0159717 0.00732066 0)
(0.0205862 0.00612182 0)
(0.0252003 0.00504791 0)
(0.0297311 0.00408241 0)
(0.0340484 0.0031903 0)
(0.0379644 0.00231938 0)
(0.040867 0.0015447 0)
(0.0425699 0.000958902 0)
(0.0433831 0.000473111 0)
(0.0434995 -6.48167e-05 0)
(0.0429971 -0.00079 0)
(0.041849 -0.00183314 0)
(0.0399604 -0.0033638 0)
(0.037204 -0.00557704 0)
(0.0334579 -0.00869426 0)
(0.028651 -0.0129902 0)
(0.0228056 -0.0188471 0)
(0.0160731 -0.0268176 0)
(0.00881748 -0.0374717 0)
(0.00188871 -0.049854 0)
(-0.00292098 -0.0552045 0)
(-0.00143631 -0.0341122 0)
(-0.000877941 0.00791081 0)
(-0.00408936 0.0139193 0)
(-0.00580006 0.014896 0)
(-0.0059563 0.0140457 0)
(-0.00459795 0.0127845 0)
(-0.00200484 0.011499 0)
(0.00190789 0.0101191 0)
(0.00646799 0.00877286 0)
(0.0114655 0.00751706 0)
(0.016761 0.00634635 0)
(0.0221844 0.00528313 0)
(0.027625 0.00433937 0)
(0.0329944 0.0035131 0)
(0.0381995 0.00278866 0)
(0.0431077 0.00213942 0)
(0.0475384 0.00152904 0)
(0.0508584 0.00100448 0)
(0.0528937 0.000616569 0)
(0.0539867 0.000297338 0)
(0.0543741 -5.86001e-05 0)
(0.0540713 -0.000541736 0)
(0.0530622 -0.00124216 0)
(0.0512455 -0.00227571 0)
(0.0484773 -0.00377944 0)
(0.0446031 -0.00592256 0)
(0.0394901 -0.00894691 0)
(0.033061 -0.0132451 0)
(0.0253465 -0.0194764 0)
(0.0166043 -0.0286008 0)
(0.00756118 -0.0410174 0)
(-0.0006867 -0.051572 0)
(-0.00148936 -0.0381218 0)
(-0.00161426 0.0130422 0)
(-0.00552157 0.0172058 0)
(-0.00554761 0.015296 0)
(-0.00338991 0.012703 0)
(0.000302172 0.0104334 0)
(0.00496836 0.00859838 0)
(0.0103308 0.00710522 0)
(0.0161139 0.00587865 0)
(0.0221537 0.00484985 0)
(0.0283065 0.00396196 0)
(0.0344181 0.0031988 0)
(0.0403707 0.00254986 0)
(0.0460681 0.00200326 0)
(0.0514187 0.00154273 0)
(0.056307 0.00114721 0)
(0.0605844 0.000793205 0)
(0.0637073 0.000501809 0)
(0.0655906 0.000290948 0)
(0.0665908 0.000115873 0)
(0.0669304 -8.0928e-05 0)
(0.0666159 -0.000351166 0)
(0.0656296 -0.000750044 0)
(0.0638673 -0.00134494 0)
(0.0611816 -0.00221664 0)
(0.0574044 -0.0034723 0)
(0.0523554 -0.00528615 0)
(0.0458429 -0.00798604 0)
(0.0376814 -0.01221 0)
(0.0278066 -0.0191019 0)
(0.0165173 -0.0300726 0)
(0.00440159 -0.0434714 0)
(-0.000170326 -0.0396088 0)
(-0.00122121 0.0183053 0)
(-0.00297836 0.0181846 0)
(0.00336915 0.0126202 0)
(0.0104424 0.00925663 0)
(0.0173932 0.00690138 0)
(0.0241721 0.00515807 0)
(0.0308407 0.00388754 0)
(0.0373413 0.00296557 0)
(0.0436223 0.00227824 0)
(0.0496232 0.0017478 0)
(0.0552652 0.00133351 0)
(0.0604854 0.00100918 0)
(0.0652396 0.00075541 0)
(0.0694927 0.000555524 0)
(0.0731974 0.000393798 0)
(0.0762818 0.000257221 0)
(0.0784192 0.000149834 0)
(0.0796296 7.2993e-05 0)
(0.0802004 6.60206e-06 0)
(0.0802735 -6.99781e-05 0)
(0.0798666 -0.000179674 0)
(0.0789396 -0.000347842 0)
(0.0773883 -0.000603389 0)
(0.0750781 -0.000981189 0)
(0.0718543 -0.00153091 0)
(0.0675308 -0.0023449 0)
(0.061847 -0.00362585 0)
(0.0543986 -0.0058321 0)
(0.0445748 -0.00993509 0)
(0.0316128 -0.0176306 0)
(0.0155006 -0.0297811 0)
(0.00631524 -0.0334569 0)
(0.0207998 0.0113639 0)
(0.0271965 0.00929233 0)
(0.0402587 0.00542366 0)
(0.0508705 0.00328712 0)
(0.0588206 0.00204776 0)
(0.0651057 0.00126366 0)
(0.0702669 0.000775486 0)
(0.0745828 0.00048125 0)
(0.0782481 0.000304194 0)
(0.0813929 0.000195228 0)
(0.0840945 0.000127014 0)
(0.0864078 8.35247e-05 0)
(0.0883765 5.51757e-05 0)
(0.0900339 3.60222e-05 0)
(0.0913946 2.20036e-05 0)
(0.0924531 1.09277e-05 0)
(0.0931217 2.65891e-06 0)
(0.093441 -3.44879e-06 0)
(0.0935213 -9.80404e-06 0)
(0.093404 -1.80893e-05 0)
(0.0930879 -3.20985e-05 0)
(0.0925277 -5.57274e-05 0)
(0.091652 -9.30496e-05 0)
(0.0903785 -0.000149079 0)
(0.0886149 -0.000231546 0)
(0.0862386 -0.000357312 0)
(0.0830351 -0.000569845 0)
(0.07856 -0.000981651 0)
(0.0718501 -0.00187264 0)
(0.0608919 -0.00398868 0)
(0.0432937 -0.00919705 0)
(0.0285977 -0.0145346 0)
)
;

boundaryField
{
    movingWall
    {
        type            fixedValue;
        value           uniform (0.1 0 0);
    }
    fixedWalls
    {
        type            noSlip;
    }
    floor
    {
        type            noSlip;
    }
    frontAndBack
    {
        type            empty;
    }
}


// ************************************************************************* //
