/*--------------------------------*- C++ -*----------------------------------*\
| =========                 |                                                 |
| \\      /  F ield         | OpenFOAM: The Open Source CFD Toolbox           |
|  \\    /   O peration     | Version:  2212                                  |
|   \\  /    A nd           | Website:  www.openfoam.com                      |
|    \\/     M anipulation  |                                                 |
\*---------------------------------------------------------------------------*/
FoamFile
{
    version     2.0;
    format      ascii;
    arch        "LSB;label=64;scalar=64";
    class       volScalarField;
    location    "1300";
    object      Xch;
}
// * * * * * * * * * * * * * * * * * * * * * * * * * * * * * * * * * * * * * //

dimensions      [1 -3 0 0 0 0 0];

internalField   nonuniform List<scalar> 
1024
(
0.0199026
0.0199028
0.0199033
0.0199041
0.0199054
0.0199074
0.01991
0.0199132
0.019917
0.0199211
0.0199252
0.0199289
0.0199317
0.0199332
0.0199332
0.0199313
0.0199275
0.0199223
0.0199165
0.0199101
0.0199033
0.0198964
0.0198896
0.0198835
0.0198781
0.0198738
0.0198705
0.0198681
0.0198665
0.0198655
0.019865
0.0198647
0.0199027
0.0199029
0.0199033
0.0199042
0.0199055
0.0199075
0.0199101
0.0199134
0.0199172
0.0199213
0.0199255
0.0199292
0.019932
0.0199336
0.0199335
0.0199315
0.0199277
0.0199226
0.0199168
0.0199104
0.0199036
0.0198966
0.0198899
0.0198837
0.0198783
0.019874
0.0198706
0.0198682
0.0198666
0.0198656
0.019865
0.0198648
0.0199028
0.0199029
0.0199034
0.0199043
0.0199057
0.0199077
0.0199104
0.0199138
0.0199177
0.0199219
0.0199261
0.0199299
0.0199328
0.0199343
0.0199342
0.0199322
0.0199284
0.0199232
0.0199174
0.019911
0.0199042
0.0198972
0.0198904
0.0198841
0.0198787
0.0198743
0.0198708
0.0198684
0.0198667
0.0198657
0.0198651
0.0198649
0.0199029
0.0199031
0.0199036
0.0199045
0.0199059
0.019908
0.0199108
0.0199143
0.0199184
0.0199228
0.0199272
0.0199313
0.0199343
0.0199358
0.0199355
0.0199334
0.0199294
0.0199242
0.0199183
0.0199119
0.0199051
0.0198981
0.0198912
0.0198849
0.0198793
0.0198747
0.0198712
0.0198686
0.0198669
0.0198658
0.0198653
0.019865
0.0199031
0.0199034
0.0199039
0.0199048
0.0199063
0.0199085
0.0199114
0.019915
0.0199193
0.0199241
0.0199289
0.0199334
0.0199367
0.0199381
0.0199377
0.0199352
0.019931
0.0199257
0.0199197
0.0199132
0.0199063
0.0198993
0.0198923
0.0198858
0.0198801
0.0198754
0.0198717
0.019869
0.0198672
0.0198661
0.0198655
0.0198652
0.0199035
0.0199037
0.0199042
0.0199052
0.0199067
0.019909
0.019912
0.0199159
0.0199206
0.0199258
0.0199313
0.0199364
0.0199401
0.0199416
0.0199408
0.019938
0.0199333
0.0199276
0.0199214
0.0199147
0.0199078
0.0199006
0.0198936
0.0198869
0.0198811
0.0198761
0.0198723
0.0198695
0.0198676
0.0198664
0.0198658
0.0198655
0.019904
0.0199042
0.0199047
0.0199057
0.0199072
0.0199095
0.0199128
0.019917
0.0199221
0.0199281
0.0199346
0.0199407
0.019945
0.0199465
0.0199453
0.0199418
0.0199365
0.0199303
0.0199236
0.0199166
0.0199093
0.019902
0.0198948
0.019888
0.019882
0.0198769
0.0198729
0.01987
0.019868
0.0198668
0.0198661
0.0198658
0.0199048
0.019905
0.0199055
0.0199064
0.0199079
0.0199103
0.0199137
0.0199183
0.0199241
0.0199311
0.0199388
0.0199462
0.0199513
0.019953
0.0199513
0.019947
0.0199408
0.0199338
0.0199263
0.0199187
0.019911
0.0199033
0.0198959
0.0198889
0.0198827
0.0198775
0.0198734
0.0198705
0.0198684
0.0198672
0.0198665
0.0198662
0.0199062
0.0199064
0.0199068
0.0199076
0.0199092
0.0199116
0.0199151
0.0199201
0.0199268
0.019935
0.0199444
0.0199533
0.0199594
0.0199613
0.0199591
0.0199538
0.0199467
0.0199384
0.0199298
0.0199212
0.0199127
0.0199044
0.0198966
0.0198894
0.0198831
0.0198779
0.0198738
0.0198708
0.0198688
0.0198675
0.0198669
0.0198666
0.0199088
0.0199089
0.0199092
0.01991
0.0199115
0.0199139
0.0199177
0.0199232
0.0199309
0.0199406
0.0199518
0.0199623
0.0199695
0.0199716
0.019969
0.0199629
0.0199547
0.019945
0.0199347
0.0199245
0.0199146
0.0199054
0.019897
0.0198895
0.0198831
0.0198778
0.0198738
0.019871
0.0198691
0.0198679
0.0198673
0.0198671
0.0199135
0.0199136
0.0199139
0.0199146
0.019916
0.0199185
0.0199226
0.0199288
0.0199376
0.019949
0.0199619
0.019974
0.0199822
0.0199845
0.0199818
0.0199755
0.0199665
0.0199552
0.0199426
0.0199299
0.0199179
0.0199071
0.0198975
0.0198895
0.0198829
0.0198777
0.019874
0.0198714
0.0198697
0.0198688
0.0198684
0.0198682
0.0199221
0.0199222
0.0199224
0.0199231
0.0199246
0.0199273
0.0199319
0.0199389
0.0199489
0.0199617
0.0199762
0.0199894
0.0199983
0.0200013
0.0199993
0.0199939
0.0199851
0.0199726
0.0199574
0.0199414
0.0199261
0.0199124
0.0199008
0.0198915
0.0198844
0.0198792
0.0198757
0.0198736
0.0198725
0.019872
0.0198719
0.0198719
0.0199363
0.0199363
0.0199367
0.0199375
0.0199393
0.0199424
0.0199477
0.0199556
0.0199667
0.0199808
0.0199962
0.0200101
0.0200198
0.0200244
0.0200251
0.020023
0.0200168
0.0200048
0.0199881
0.0199688
0.0199492
0.0199312
0.0199157
0.0199034
0.0198945
0.0198886
0.0198851
0.0198836
0.0198832
0.0198835
0.019884
0.0198844
0.0199567
0.0199569
0.0199575
0.0199587
0.019961
0.019965
0.0199712
0.0199803
0.0199926
0.0200077
0.0200238
0.0200385
0.02005
0.0200585
0.0200652
0.0200702
0.020071
0.0200646
0.0200511
0.0200324
0.0200108
0.0199886
0.0199678
0.0199501
0.0199364
0.019927
0.0199216
0.0199195
0.0199194
0.0199203
0.0199213
0.0199219
0.0199814
0.0199818
0.0199827
0.0199846
0.019988
0.0199935
0.0200018
0.0200133
0.0200278
0.0200445
0.0200618
0.0200783
0.0200939
0.0201092
0.0201251
0.0201413
0.0201546
0.020161
0.0201593
0.0201505
0.020136
0.0201172
0.0200963
0.0200752
0.0200556
0.0200392
0.020027
0.0200192
0.0200151
0.0200136
0.0200135
0.0200138
0.0200052
0.0200056
0.0200068
0.0200092
0.0200135
0.0200204
0.0200304
0.020044
0.0200608
0.0200801
0.0201009
0.0201225
0.0201449
0.0201686
0.0201939
0.0202206
0.0202458
0.0202657
0.0202794
0.0202874
0.0202896
0.020286
0.0202771
0.0202637
0.0202473
0.0202296
0.0202126
0.0201982
0.0201874
0.0201805
0.0201769
0.0201757
0.0200233
0.0200237
0.020025
0.0200275
0.0200321
0.0200394
0.0200503
0.0200649
0.0200834
0.0201051
0.020129
0.0201542
0.0201804
0.0202072
0.0202342
0.0202605
0.0202842
0.0203043
0.0203224
0.0203393
0.0203542
0.0203663
0.0203745
0.0203781
0.0203769
0.0203715
0.020363
0.0203531
0.0203438
0.0203365
0.020332
0.02033
0.0200351
0.0200355
0.0200367
0.0200391
0.0200435
0.0200505
0.0200609
0.0200753
0.0200937
0.0201156
0.02014
0.0201656
0.0201914
0.0202162
0.0202387
0.0202577
0.0202716
0.0202831
0.0202963
0.0203127
0.0203314
0.0203505
0.0203683
0.0203833
0.0203946
0.0204016
0.0204048
0.0204047
0.0204027
0.0204
0.0203978
0.0203966
0.0200424
0.0200427
0.0200438
0.020046
0.0200499
0.0200562
0.0200656
0.0200788
0.0200959
0.0201165
0.0201396
0.0201639
0.0201877
0.0202096
0.0202278
0.0202409
0.020248
0.0202536
0.0202631
0.0202787
0.0202994
0.0203232
0.0203474
0.0203696
0.020388
0.0204017
0.0204107
0.0204158
0.0204179
0.0204181
0.0204177
0.0204173
0.0200468
0.0200471
0.020048
0.0200499
0.0200533
0.0200588
0.020067
0.0200786
0.0200938
0.0201123
0.0201333
0.0201554
0.020177
0.0201963
0.0202118
0.020222
0.0202267
0.0202305
0.0202386
0.0202533
0.0202743
0.0203003
0.0203287
0.0203564
0.0203808
0.0204002
0.0204139
0.0204224
0.0204268
0.0204285
0.0204288
0.0204286
0.0200497
0.02005
0.0200508
0.0200524
0.0200552
0.0200598
0.0200668
0.0200767
0.0200898
0.020106
0.0201244
0.020144
0.0201633
0.0201807
0.0201949
0.0202048
0.0202104
0.0202157
0.0202246
0.0202391
0.0202597
0.0202857
0.0203152
0.0203457
0.0203741
0.0203979
0.0204158
0.0204276
0.0204343
0.0204373
0.0204381
0.0204381
0.0200528
0.020053
0.0200535
0.0200546
0.0200567
0.0200604
0.0200661
0.0200744
0.0200855
0.0200993
0.0201153
0.0201325
0.0201498
0.0201661
0.0201803
0.0201917
0.0202005
0.0202091
0.0202202
0.0202354
0.0202555
0.0202804
0.0203092
0.0203399
0.0203699
0.0203964
0.0204174
0.0204321
0.0204409
0.0204452
0.0204466
0.0204467
0.020058
0.0200579
0.0200579
0.0200582
0.0200594
0.020062
0.0200665
0.0200732
0.0200826
0.0200944
0.0201084
0.0201239
0.0201402
0.0201563
0.0201716
0.0201858
0.0201987
0.0202112
0.0202247
0.0202406
0.0202601
0.0202834
0.0203104
0.0203396
0.020369
0.0203963
0.0204191
0.020436
0.0204468
0.0204524
0.0204544
0.0204547
0.0200673
0.0200668
0.020066
0.0200654
0.0200654
0.0200667
0.0200699
0.0200754
0.0200835
0.0200942
0.0201072
0.0201221
0.0201384
0.0201554
0.0201726
0.0201899
0.0202068
0.0202224
0.0202377
0.0202539
0.0202722
0.0202935
0.0203177
0.0203443
0.0203718
0.0203982
0.0204215
0.0204397
0.0204521
0.0204588
0.0204615
0.0204619
0.0200827
0.0200817
0.02008
0.0200782
0.020077
0.0200771
0.0200794
0.0200843
0.0200921
0.0201027
0.0201159
0.0201313
0.0201484
0.0201667
0.0201857
0.0202056
0.0202251
0.0202426
0.0202585
0.0202741
0.0202908
0.0203094
0.0203304
0.0203536
0.0203781
0.0204025
0.0204249
0.0204435
0.0204568
0.0204646
0.0204679
0.0204686
0.0201057
0.0201041
0.0201015
0.0200988
0.0200969
0.0200967
0.020099
0.0201043
0.0201128
0.0201242
0.0201382
0.0201545
0.0201724
0.0201916
0.0202116
0.0202324
0.0202527
0.0202704
0.0202857
0.0203
0.0203145
0.0203302
0.0203476
0.0203669
0.0203877
0.0204092
0.0204297
0.0204476
0.0204613
0.0204698
0.0204737
0.0204746
0.0201371
0.0201349
0.0201318
0.0201291
0.0201278
0.0201286
0.0201322
0.0201388
0.0201485
0.0201609
0.0201756
0.0201922
0.0202101
0.0202289
0.0202483
0.0202684
0.0202876
0.020304
0.0203177
0.02033
0.0203421
0.0203547
0.0203685
0.0203838
0.0204006
0.0204184
0.0204362
0.0204525
0.0204657
0.0204745
0.0204789
0.02048
0.0201773
0.0201747
0.0201721
0.020171
0.0201719
0.020175
0.0201806
0.0201888
0.0201994
0.020212
0.0202263
0.020242
0.0202584
0.0202754
0.0202927
0.0203103
0.020327
0.020341
0.0203524
0.0203625
0.0203719
0.0203816
0.0203921
0.0204036
0.0204164
0.0204302
0.0204446
0.0204585
0.0204704
0.0204789
0.0204835
0.0204848
0.020227
0.0202247
0.020224
0.0202259
0.02023
0.0202358
0.0202431
0.0202519
0.0202622
0.0202737
0.0202862
0.0202994
0.0203131
0.0203271
0.0203411
0.0203551
0.0203683
0.0203792
0.020388
0.0203956
0.0204026
0.0204096
0.020417
0.0204251
0.0204342
0.0204442
0.0204549
0.0204657
0.0204755
0.0204831
0.0204876
0.0204891
0.0202875
0.0202865
0.0202892
0.0202944
0.0203008
0.0203077
0.0203152
0.0203231
0.0203315
0.0203405
0.02035
0.0203598
0.0203698
0.0203799
0.0203899
0.0203999
0.0204092
0.0204168
0.0204229
0.020428
0.0204327
0.0204374
0.0204422
0.0204474
0.0204532
0.0204597
0.0204668
0.0204743
0.0204815
0.0204875
0.0204913
0.0204927
0.0203612
0.020363
0.0203681
0.020374
0.0203798
0.0203855
0.0203909
0.0203963
0.0204018
0.0204073
0.0204131
0.020419
0.0204249
0.0204308
0.0204367
0.0204425
0.0204478
0.0204522
0.0204557
0.0204586
0.0204613
0.0204638
0.0204665
0.0204693
0.0204725
0.020476
0.0204799
0.0204841
0.0204883
0.0204921
0.0204947
0.0204959
0.0204513
0.0204527
0.0204553
0.0204579
0.0204602
0.0204624
0.0204644
0.0204663
0.0204682
0.02047
0.0204719
0.0204738
0.0204758
0.0204777
0.0204796
0.0204815
0.0204832
0.0204846
0.0204857
0.0204866
0.0204875
0.0204883
0.0204891
0.02049
0.020491
0.0204921
0.0204933
0.0204946
0.0204959
0.0204972
0.0204981
0.0204986
)
;

boundaryField
{
    movingWall
    {
        type            fixedValue;
        value           uniform 0.0205;
    }
    fixedWalls
    {
        type            zeroGradient;
    }
    floor
    {
        type            zeroGradient;
    }
    frontAndBack
    {
        type            empty;
    }
}


// ************************************************************************* //
