/*--------------------------------*- C++ -*----------------------------------*\
| =========                 |                                                 |
| \\      /  F ield         | OpenFOAM: The Open Source CFD Toolbox           |
|  \\    /   O peration     | Version:  2212                                  |
|   \\  /    A nd           | Website:  www.openfoam.com                      |
|    \\/     M anipulation  |                                                 |
\*---------------------------------------------------------------------------*/
FoamFile
{
    version     2.0;
    format      ascii;
    arch        "LSB;label=64;scalar=64";
    class       volScalarField;
    location    "1240";
    object      Gh2;
}
// * * * * * * * * * * * * * * * * * * * * * * * * * * * * * * * * * * * * * //

dimensions      [1 -3 0 0 0 0 0];

internalField   nonuniform List<scalar> 
1024
(
1.27323e-05
1.27311e-05
1.27282e-05
1.27229e-05
1.27147e-05
1.27031e-05
1.26879e-05
1.26695e-05
1.26491e-05
1.26281e-05
1.26081e-05
1.25908e-05
1.25779e-05
1.25707e-05
1.25705e-05
1.25789e-05
1.25964e-05
1.26197e-05
1.26455e-05
1.26735e-05
1.27033e-05
1.27345e-05
1.27658e-05
1.27953e-05
1.28215e-05
1.28431e-05
1.28598e-05
1.2872e-05
1.28803e-05
1.28855e-05
1.28883e-05
1.28895e-05
1.27321e-05
1.27309e-05
1.27279e-05
1.27226e-05
1.27142e-05
1.27024e-05
1.26869e-05
1.26684e-05
1.26479e-05
1.26267e-05
1.26066e-05
1.25893e-05
1.25764e-05
1.25692e-05
1.25692e-05
1.25777e-05
1.25952e-05
1.26185e-05
1.26444e-05
1.26722e-05
1.2702e-05
1.27332e-05
1.27645e-05
1.27941e-05
1.28204e-05
1.28423e-05
1.28592e-05
1.28716e-05
1.288e-05
1.28852e-05
1.28881e-05
1.28893e-05
1.27316e-05
1.27304e-05
1.27273e-05
1.27218e-05
1.27132e-05
1.2701e-05
1.26852e-05
1.26663e-05
1.26453e-05
1.26237e-05
1.26031e-05
1.25855e-05
1.25726e-05
1.25657e-05
1.2566e-05
1.25749e-05
1.25927e-05
1.26161e-05
1.2642e-05
1.26697e-05
1.26993e-05
1.27303e-05
1.27617e-05
1.27916e-05
1.28182e-05
1.28405e-05
1.28578e-05
1.28705e-05
1.28792e-05
1.28846e-05
1.28875e-05
1.28887e-05
1.27309e-05
1.27296e-05
1.27264e-05
1.27207e-05
1.27118e-05
1.26991e-05
1.26828e-05
1.26632e-05
1.26414e-05
1.26187e-05
1.25969e-05
1.25784e-05
1.25655e-05
1.25591e-05
1.25603e-05
1.25702e-05
1.25888e-05
1.26126e-05
1.26384e-05
1.2666e-05
1.26953e-05
1.27261e-05
1.27574e-05
1.27875e-05
1.28147e-05
1.28376e-05
1.28556e-05
1.28688e-05
1.28778e-05
1.28835e-05
1.28865e-05
1.28878e-05
1.27298e-05
1.27284e-05
1.27252e-05
1.27193e-05
1.27101e-05
1.26969e-05
1.26798e-05
1.26592e-05
1.2636e-05
1.26113e-05
1.25873e-05
1.25674e-05
1.25541e-05
1.25486e-05
1.25515e-05
1.25633e-05
1.25834e-05
1.2608e-05
1.26341e-05
1.26615e-05
1.26904e-05
1.27208e-05
1.2752e-05
1.27823e-05
1.28101e-05
1.28337e-05
1.28525e-05
1.28664e-05
1.28759e-05
1.28818e-05
1.28851e-05
1.28864e-05
1.27283e-05
1.27269e-05
1.27237e-05
1.27177e-05
1.27082e-05
1.26945e-05
1.26766e-05
1.26545e-05
1.26291e-05
1.26014e-05
1.2574e-05
1.25515e-05
1.25376e-05
1.25334e-05
1.2539e-05
1.25539e-05
1.25767e-05
1.26029e-05
1.26296e-05
1.2657e-05
1.26854e-05
1.27153e-05
1.27461e-05
1.27765e-05
1.28047e-05
1.28292e-05
1.28488e-05
1.28634e-05
1.28735e-05
1.28798e-05
1.28832e-05
1.28846e-05
1.27262e-05
1.27249e-05
1.27217e-05
1.27157e-05
1.27061e-05
1.2692e-05
1.2673e-05
1.26491e-05
1.26205e-05
1.25887e-05
1.25567e-05
1.25308e-05
1.25158e-05
1.25135e-05
1.25229e-05
1.25425e-05
1.25694e-05
1.25981e-05
1.2626e-05
1.26536e-05
1.26816e-05
1.27108e-05
1.2741e-05
1.27712e-05
1.27997e-05
1.28247e-05
1.2845e-05
1.28603e-05
1.28709e-05
1.28776e-05
1.28812e-05
1.28826e-05
1.27233e-05
1.27221e-05
1.2719e-05
1.27131e-05
1.27034e-05
1.26889e-05
1.26688e-05
1.26425e-05
1.261e-05
1.25729e-05
1.25355e-05
1.25054e-05
1.24895e-05
1.24896e-05
1.25041e-05
1.25301e-05
1.25626e-05
1.2595e-05
1.26247e-05
1.26528e-05
1.26805e-05
1.27089e-05
1.27383e-05
1.27679e-05
1.27962e-05
1.28214e-05
1.28421e-05
1.28577e-05
1.28687e-05
1.28755e-05
1.28793e-05
1.28808e-05
1.27185e-05
1.27174e-05
1.27145e-05
1.27088e-05
1.26992e-05
1.26843e-05
1.26629e-05
1.26337e-05
1.25967e-05
1.25535e-05
1.25102e-05
1.24762e-05
1.24599e-05
1.24636e-05
1.24848e-05
1.25187e-05
1.25584e-05
1.25954e-05
1.26276e-05
1.26566e-05
1.26842e-05
1.27117e-05
1.274e-05
1.27686e-05
1.2796e-05
1.28207e-05
1.28411e-05
1.28566e-05
1.28675e-05
1.28744e-05
1.28782e-05
1.28797e-05
1.27101e-05
1.27091e-05
1.27064e-05
1.2701e-05
1.26914e-05
1.26759e-05
1.26528e-05
1.26204e-05
1.25782e-05
1.25289e-05
1.24801e-05
1.24435e-05
1.24286e-05
1.24379e-05
1.24674e-05
1.25107e-05
1.25588e-05
1.26015e-05
1.26368e-05
1.2667e-05
1.26945e-05
1.27212e-05
1.27481e-05
1.27751e-05
1.28009e-05
1.28241e-05
1.28434e-05
1.28581e-05
1.28684e-05
1.2875e-05
1.28786e-05
1.28802e-05
1.26948e-05
1.26939e-05
1.26914e-05
1.26859e-05
1.2676e-05
1.26596e-05
1.26343e-05
1.25981e-05
1.25508e-05
1.24961e-05
1.24439e-05
1.24075e-05
1.2397e-05
1.24143e-05
1.24537e-05
1.25075e-05
1.25647e-05
1.2614e-05
1.26531e-05
1.26852e-05
1.27131e-05
1.2739e-05
1.27642e-05
1.27888e-05
1.28122e-05
1.28329e-05
1.285e-05
1.2863e-05
1.28723e-05
1.28782e-05
1.28815e-05
1.28829e-05
1.26678e-05
1.2667e-05
1.26643e-05
1.26585e-05
1.26478e-05
1.26296e-05
1.26015e-05
1.25614e-05
1.25096e-05
1.24519e-05
1.23998e-05
1.23677e-05
1.23653e-05
1.23925e-05
1.24421e-05
1.25057e-05
1.25721e-05
1.26288e-05
1.26731e-05
1.27087e-05
1.27382e-05
1.27641e-05
1.27879e-05
1.28099e-05
1.28299e-05
1.28472e-05
1.28613e-05
1.28719e-05
1.28793e-05
1.28841e-05
1.28868e-05
1.28879e-05
1.26245e-05
1.26234e-05
1.26203e-05
1.26137e-05
1.26013e-05
1.25808e-05
1.25495e-05
1.25058e-05
1.24517e-05
1.23946e-05
1.23473e-05
1.23237e-05
1.23312e-05
1.23673e-05
1.24236e-05
1.24927e-05
1.25651e-05
1.26292e-05
1.26812e-05
1.27235e-05
1.27583e-05
1.27874e-05
1.2812e-05
1.28327e-05
1.28499e-05
1.28635e-05
1.28738e-05
1.2881e-05
1.28855e-05
1.2888e-05
1.28891e-05
1.28895e-05
1.25629e-05
1.25615e-05
1.25577e-05
1.25497e-05
1.25354e-05
1.25122e-05
1.2478e-05
1.24323e-05
1.23786e-05
1.23258e-05
1.22867e-05
1.22726e-05
1.22869e-05
1.23243e-05
1.2377e-05
1.24402e-05
1.25086e-05
1.25739e-05
1.26321e-05
1.26836e-05
1.27288e-05
1.27679e-05
1.28003e-05
1.28255e-05
1.28439e-05
1.2856e-05
1.28626e-05
1.28649e-05
1.28643e-05
1.28624e-05
1.28604e-05
1.28591e-05
1.24875e-05
1.24858e-05
1.24811e-05
1.24717e-05
1.24554e-05
1.24297e-05
1.23932e-05
1.23468e-05
1.22953e-05
1.22483e-05
1.22163e-05
1.22057e-05
1.2215e-05
1.22375e-05
1.22674e-05
1.23027e-05
1.2343e-05
1.23866e-05
1.24318e-05
1.24786e-05
1.25265e-05
1.2574e-05
1.26183e-05
1.26561e-05
1.26861e-05
1.27071e-05
1.27186e-05
1.27222e-05
1.27203e-05
1.27159e-05
1.27117e-05
1.27092e-05
1.24094e-05
1.24074e-05
1.24019e-05
1.2391e-05
1.23723e-05
1.23439e-05
1.2305e-05
1.22578e-05
1.22078e-05
1.2163e-05
1.21297e-05
1.21089e-05
1.20959e-05
1.20845e-05
1.20704e-05
1.20522e-05
1.20323e-05
1.20173e-05
1.20113e-05
1.20155e-05
1.20307e-05
1.20561e-05
1.20898e-05
1.21289e-05
1.21707e-05
1.22112e-05
1.22464e-05
1.2273e-05
1.22903e-05
1.22993e-05
1.23027e-05
1.23032e-05
1.2353e-05
1.2351e-05
1.23458e-05
1.23353e-05
1.23173e-05
1.22901e-05
1.22526e-05
1.22064e-05
1.21552e-05
1.21046e-05
1.20592e-05
1.20194e-05
1.19811e-05
1.19387e-05
1.18876e-05
1.18255e-05
1.17557e-05
1.16891e-05
1.16319e-05
1.15853e-05
1.15512e-05
1.15308e-05
1.15251e-05
1.15342e-05
1.15565e-05
1.15891e-05
1.16272e-05
1.16653e-05
1.16979e-05
1.17215e-05
1.17353e-05
1.17408e-05
1.23209e-05
1.23192e-05
1.23144e-05
1.2305e-05
1.22889e-05
1.22644e-05
1.22302e-05
1.21869e-05
1.21371e-05
1.20849e-05
1.20346e-05
1.19876e-05
1.1942e-05
1.18936e-05
1.18387e-05
1.17752e-05
1.17064e-05
1.16402e-05
1.15789e-05
1.15212e-05
1.14677e-05
1.142e-05
1.13804e-05
1.13512e-05
1.13341e-05
1.13293e-05
1.13357e-05
1.135e-05
1.13677e-05
1.13841e-05
1.13956e-05
1.14009e-05
1.23049e-05
1.23033e-05
1.2299e-05
1.22907e-05
1.22766e-05
1.22552e-05
1.2225e-05
1.21861e-05
1.21402e-05
1.20906e-05
1.20413e-05
1.19949e-05
1.19514e-05
1.19088e-05
1.18643e-05
1.18158e-05
1.1765e-05
1.17148e-05
1.16631e-05
1.16073e-05
1.15478e-05
1.14868e-05
1.14283e-05
1.13764e-05
1.13342e-05
1.13038e-05
1.1285e-05
1.12765e-05
1.12757e-05
1.1279e-05
1.12831e-05
1.12855e-05
1.22984e-05
1.22969e-05
1.2293e-05
1.22856e-05
1.22734e-05
1.22549e-05
1.22288e-05
1.21948e-05
1.2154e-05
1.21091e-05
1.20637e-05
1.20208e-05
1.19819e-05
1.19464e-05
1.19122e-05
1.1877e-05
1.184e-05
1.18006e-05
1.17552e-05
1.17004e-05
1.16359e-05
1.15636e-05
1.14888e-05
1.14178e-05
1.13565e-05
1.13085e-05
1.1275e-05
1.12545e-05
1.12445e-05
1.12414e-05
1.12416e-05
1.12425e-05
1.22969e-05
1.22955e-05
1.22921e-05
1.22857e-05
1.22752e-05
1.22593e-05
1.2237e-05
1.22078e-05
1.21724e-05
1.21329e-05
1.20923e-05
1.20536e-05
1.20187e-05
1.19877e-05
1.19591e-05
1.19301e-05
1.18983e-05
1.18619e-05
1.18183e-05
1.17644e-05
1.16989e-05
1.16226e-05
1.15395e-05
1.14563e-05
1.13802e-05
1.13171e-05
1.12702e-05
1.12394e-05
1.12223e-05
1.1215e-05
1.12133e-05
1.12136e-05
1.2296e-05
1.2295e-05
1.22923e-05
1.22871e-05
1.22784e-05
1.22651e-05
1.22463e-05
1.22215e-05
1.21912e-05
1.21568e-05
1.21206e-05
1.20852e-05
1.20522e-05
1.2022e-05
1.19934e-05
1.19635e-05
1.19296e-05
1.18907e-05
1.18458e-05
1.17922e-05
1.17281e-05
1.16531e-05
1.15695e-05
1.14824e-05
1.13986e-05
1.13253e-05
1.12676e-05
1.12274e-05
1.12034e-05
1.1192e-05
1.11884e-05
1.11883e-05
1.22901e-05
1.22897e-05
1.22884e-05
1.22851e-05
1.22789e-05
1.22685e-05
1.2253e-05
1.2232e-05
1.22057e-05
1.2175e-05
1.21415e-05
1.21071e-05
1.2073e-05
1.20399e-05
1.20067e-05
1.19707e-05
1.19303e-05
1.18866e-05
1.18396e-05
1.17867e-05
1.17255e-05
1.16549e-05
1.15757e-05
1.14913e-05
1.14069e-05
1.13293e-05
1.12647e-05
1.12171e-05
1.11869e-05
1.11713e-05
1.11658e-05
1.11651e-05
1.22725e-05
1.22733e-05
1.2274e-05
1.22737e-05
1.22707e-05
1.22637e-05
1.22513e-05
1.22331e-05
1.22088e-05
1.21792e-05
1.21454e-05
1.21089e-05
1.20707e-05
1.20317e-05
1.19912e-05
1.19472e-05
1.18996e-05
1.18516e-05
1.18037e-05
1.17529e-05
1.16965e-05
1.16325e-05
1.15607e-05
1.1483e-05
1.14032e-05
1.13268e-05
1.12598e-05
1.12074e-05
1.11721e-05
1.11527e-05
1.11451e-05
1.11439e-05
1.22367e-05
1.2239e-05
1.22427e-05
1.22459e-05
1.22466e-05
1.22426e-05
1.22323e-05
1.22148e-05
1.21898e-05
1.21581e-05
1.21209e-05
1.20796e-05
1.20356e-05
1.19899e-05
1.19424e-05
1.18916e-05
1.1839e-05
1.17891e-05
1.17425e-05
1.16956e-05
1.16456e-05
1.159e-05
1.15277e-05
1.14595e-05
1.13877e-05
1.13166e-05
1.12513e-05
1.11973e-05
1.11586e-05
1.11359e-05
1.11263e-05
1.11244e-05
1.21775e-05
1.21817e-05
1.21884e-05
1.21947e-05
1.21979e-05
1.21951e-05
1.21844e-05
1.21648e-05
1.21364e-05
1.21002e-05
1.20581e-05
1.20116e-05
1.19626e-05
1.19121e-05
1.18605e-05
1.18067e-05
1.1753e-05
1.17046e-05
1.16614e-05
1.16201e-05
1.15775e-05
1.15312e-05
1.14796e-05
1.14225e-05
1.13612e-05
1.12984e-05
1.12382e-05
1.11858e-05
1.11458e-05
1.11208e-05
1.11094e-05
1.11068e-05
1.20916e-05
1.20978e-05
1.21064e-05
1.21135e-05
1.21158e-05
1.21107e-05
1.20964e-05
1.20724e-05
1.20394e-05
1.1999e-05
1.19532e-05
1.19042e-05
1.18534e-05
1.18021e-05
1.17507e-05
1.16985e-05
1.16481e-05
1.16042e-05
1.15665e-05
1.15318e-05
1.14971e-05
1.14601e-05
1.14193e-05
1.1374e-05
1.13244e-05
1.12721e-05
1.12197e-05
1.11718e-05
1.11331e-05
1.11071e-05
1.10942e-05
1.10909e-05
1.19774e-05
1.1985e-05
1.19928e-05
1.19962e-05
1.1993e-05
1.19819e-05
1.1962e-05
1.19336e-05
1.18978e-05
1.18563e-05
1.18109e-05
1.17636e-05
1.17158e-05
1.16684e-05
1.16218e-05
1.15755e-05
1.15319e-05
1.14948e-05
1.14639e-05
1.14362e-05
1.14093e-05
1.13812e-05
1.13505e-05
1.13165e-05
1.12787e-05
1.12379e-05
1.11954e-05
1.11545e-05
1.11194e-05
1.10943e-05
1.10807e-05
1.10767e-05
1.18336e-05
1.18406e-05
1.1843e-05
1.1838e-05
1.18262e-05
1.18082e-05
1.17841e-05
1.17545e-05
1.17201e-05
1.16822e-05
1.16422e-05
1.16014e-05
1.1561e-05
1.15215e-05
1.14834e-05
1.14461e-05
1.14116e-05
1.13828e-05
1.13592e-05
1.13385e-05
1.13189e-05
1.12988e-05
1.12771e-05
1.12531e-05
1.12264e-05
1.11969e-05
1.11653e-05
1.11333e-05
1.11042e-05
1.10818e-05
1.10686e-05
1.10642e-05
1.16567e-05
1.16596e-05
1.16524e-05
1.16379e-05
1.16195e-05
1.15986e-05
1.15751e-05
1.15493e-05
1.15213e-05
1.14917e-05
1.14612e-05
1.14307e-05
1.14008e-05
1.13719e-05
1.13443e-05
1.13177e-05
1.12934e-05
1.12733e-05
1.12571e-05
1.12431e-05
1.123e-05
1.12168e-05
1.12028e-05
1.11874e-05
1.11702e-05
1.11511e-05
1.11301e-05
1.1108e-05
1.10867e-05
1.1069e-05
1.10577e-05
1.10534e-05
1.14401e-05
1.14352e-05
1.14204e-05
1.14037e-05
1.13868e-05
1.137e-05
1.13531e-05
1.13359e-05
1.13181e-05
1.12998e-05
1.12812e-05
1.12628e-05
1.1245e-05
1.12279e-05
1.12116e-05
1.11961e-05
1.1182e-05
1.11704e-05
1.11611e-05
1.11532e-05
1.11459e-05
1.11387e-05
1.1131e-05
1.11227e-05
1.11134e-05
1.1103e-05
1.10915e-05
1.10791e-05
1.10665e-05
1.10553e-05
1.10475e-05
1.10441e-05
1.11753e-05
1.11713e-05
1.11636e-05
1.11562e-05
1.11494e-05
1.1143e-05
1.11369e-05
1.11309e-05
1.11249e-05
1.11188e-05
1.11126e-05
1.11066e-05
1.11008e-05
1.10952e-05
1.10899e-05
1.10849e-05
1.10803e-05
1.10766e-05
1.10736e-05
1.10711e-05
1.10688e-05
1.10665e-05
1.10642e-05
1.10616e-05
1.10587e-05
1.10555e-05
1.10519e-05
1.10481e-05
1.1044e-05
1.10403e-05
1.10375e-05
1.10361e-05
)
;

boundaryField
{
    movingWall
    {
        type            fixedValue;
        value           uniform 1.1032e-05;
    }
    fixedWalls
    {
        type            zeroGradient;
    }
    floor
    {
        type            zeroGradient;
    }
    frontAndBack
    {
        type            empty;
    }
}


// ************************************************************************* //
