/*--------------------------------*- C++ -*----------------------------------*\
| =========                 |                                                 |
| \\      /  F ield         | OpenFOAM: The Open Source CFD Toolbox           |
|  \\    /   O peration     | Version:  2212                                  |
|   \\  /    A nd           | Website:  www.openfoam.com                      |
|    \\/     M anipulation  |                                                 |
\*---------------------------------------------------------------------------*/
FoamFile
{
    version     2.0;
    format      ascii;
    arch        "LSB;label=64;scalar=64";
    class       volScalarField;
    location    "1240";
    object      Sch4;
}
// * * * * * * * * * * * * * * * * * * * * * * * * * * * * * * * * * * * * * //

dimensions      [1 -3 0 0 0 0 0];

internalField   nonuniform List<scalar> 
1024
(
0.0356834
0.0356954
0.0357245
0.0357771
0.0358596
0.0359768
0.0361298
0.0363145
0.0365209
0.0367345
0.0369388
0.0371157
0.0372497
0.0373275
0.0373349
0.0372563
0.0370872
0.0368593
0.0366049
0.0363302
0.0360376
0.035733
0.0354292
0.0351432
0.0348911
0.034683
0.0345218
0.0344047
0.0343251
0.0342755
0.0342482
0.0342371
0.0356854
0.0356975
0.0357272
0.0357808
0.0358648
0.0359839
0.0361391
0.0363258
0.0365337
0.0367488
0.0369543
0.0371318
0.0372656
0.0373426
0.0373489
0.0372693
0.0370994
0.0368713
0.0366169
0.0363427
0.0360507
0.0357463
0.0354421
0.0351549
0.034901
0.0346908
0.0345278
0.0344091
0.0343285
0.0342782
0.0342506
0.0342394
0.03569
0.0357025
0.0357331
0.0357884
0.0358751
0.0359977
0.036157
0.0363479
0.0365602
0.0367802
0.036991
0.0371719
0.0373058
0.0373804
0.0373828
0.0372991
0.037126
0.0368964
0.036642
0.0363687
0.036078
0.0357745
0.0354697
0.0351802
0.0349227
0.0347083
0.0345412
0.0344193
0.0343363
0.0342845
0.0342562
0.0342447
0.0356977
0.0357106
0.0357422
0.0357996
0.0358896
0.0360168
0.0361818
0.0363798
0.036601
0.0368322
0.0370555
0.0372454
0.0373808
0.0374503
0.0374436
0.0373498
0.0371688
0.0369349
0.0366794
0.0364072
0.0361188
0.0358171
0.0355121
0.0352197
0.034957
0.0347363
0.034563
0.0344361
0.0343495
0.0342954
0.0342659
0.0342539
0.0357089
0.0357221
0.0357546
0.0358139
0.0359071
0.0360394
0.0362118
0.0364204
0.0366568
0.0369083
0.0371546
0.0373616
0.0375013
0.0375623
0.0375389
0.0374257
0.0372286
0.0369853
0.0367262
0.0364546
0.0361692
0.0358705
0.0355664
0.0352714
0.0350027
0.0347743
0.0345933
0.0344597
0.0343683
0.0343112
0.03428
0.0342673
0.0357241
0.0357373
0.0357702
0.0358305
0.0359264
0.0360638
0.0362453
0.036469
0.0367285
0.0370116
0.0372934
0.0375277
0.0376757
0.0377244
0.0376745
0.0375292
0.0373042
0.0370436
0.0367767
0.0365041
0.0362217
0.0359274
0.0356257
0.0353294
0.0350554
0.0348191
0.0346296
0.0344887
0.0343918
0.0343312
0.0342981
0.0342847
0.0357447
0.0357576
0.03579
0.0358505
0.0359478
0.03609
0.0362823
0.0365258
0.0368172
0.0371442
0.0374742
0.037746
0.0379065
0.037939
0.0378513
0.0376585
0.0373909
0.0371026
0.0368217
0.0365449
0.0362648
0.0359757
0.0356785
0.0353832
0.0351062
0.0348637
0.034667
0.0345194
0.0344174
0.0343534
0.0343185
0.0343044
0.0357745
0.0357867
0.0358179
0.0358772
0.035975
0.0361216
0.036326
0.0365941
0.0369261
0.0373082
0.037697
0.0380135
0.0381882
0.0381985
0.0380606
0.0378039
0.0374775
0.0371496
0.0368473
0.0365623
0.036283
0.0359994
0.0357087
0.0354179
0.0351418
0.0348974
0.0346969
0.0345452
0.0344399
0.0343736
0.0343374
0.0343228
0.0358225
0.0358336
0.035863
0.0359204
0.0360178
0.0361688
0.0363872
0.0366845
0.0370647
0.0375104
0.0379631
0.0383243
0.0385077
0.0384855
0.0382833
0.0379465
0.0375457
0.0371664
0.0368355
0.0365379
0.0362572
0.0359792
0.0356974
0.0354154
0.0351462
0.0349062
0.034708
0.0345573
0.0344522
0.0343858
0.0343493
0.0343345
0.0359071
0.0359169
0.0359442
0.0359996
0.0360973
0.0362544
0.03649
0.0368216
0.0372559
0.0377678
0.0382802
0.0386742
0.0388495
0.0387769
0.0384938
0.038062
0.0375736
0.0371327
0.0367659
0.0364513
0.0361673
0.0358952
0.0356249
0.0353572
0.0351026
0.0348756
0.0346882
0.0345454
0.0344454
0.0343817
0.0343465
0.0343319
0.0360607
0.0360696
0.0360957
0.036151
0.036252
0.0364198
0.0366783
0.0370498
0.0375395
0.0381102
0.0386643
0.0390641
0.0392019
0.0390545
0.0386743
0.0381374
0.0375522
0.03704
0.0366291
0.0362909
0.0359993
0.0357322
0.0354762
0.035229
0.0349979
0.0347942
0.0346271
0.0345
0.0344108
0.0343536
0.0343215
0.034308
0.0363307
0.0363398
0.0363671
0.0364264
0.0365367
0.0367227
0.0370119
0.0374267
0.037965
0.0385733
0.0391343
0.0394991
0.0395642
0.0393221
0.0388413
0.0382042
0.0375232
0.0369301
0.0364602
0.0360828
0.0357702
0.0354992
0.035255
0.0350316
0.0348314
0.0346603
0.0345227
0.0344194
0.0343477
0.0343021
0.0342767
0.0342662
0.0367658
0.0367769
0.0368092
0.0368782
0.0370053
0.0372175
0.0375423
0.037997
0.038566
0.039177
0.0396994
0.0399879
0.0399599
0.0396327
0.0390858
0.0383924
0.0376479
0.0369764
0.0364243
0.0359737
0.0356031
0.035295
0.0350379
0.0348244
0.0346504
0.034514
0.0344131
0.0343443
0.0343023
0.0342803
0.0342712
0.0342689
0.0373851
0.0373996
0.03744
0.0375235
0.037673
0.0379152
0.0382741
0.0387562
0.0393302
0.0399079
0.0403572
0.0405579
0.0404671
0.0401301
0.0396232
0.0389934
0.0382943
0.0376132
0.0369985
0.0364519
0.0359707
0.0355548
0.0352118
0.0349461
0.0347546
0.0346314
0.0345668
0.0345474
0.0345577
0.0345817
0.0346057
0.0346201
0.038146
0.0381642
0.0382137
0.0383133
0.0384867
0.0387592
0.0391483
0.0396474
0.0402093
0.0407387
0.0411244
0.0412952
0.0412583
0.0410774
0.0408118
0.04048
0.0400861
0.0396461
0.0391795
0.0386903
0.0381856
0.0376818
0.0372102
0.0368072
0.0364868
0.0362645
0.0361426
0.0361067
0.036129
0.0361773
0.036224
0.0362513
0.0389357
0.0389576
0.039017
0.0391348
0.0393357
0.0396421
0.040063
0.0405793
0.0411352
0.041648
0.0420496
0.0423251
0.0425177
0.0426914
0.0428916
0.043135
0.0433962
0.0435992
0.0437005
0.043684
0.0435432
0.043286
0.042933
0.0425172
0.0420675
0.0416297
0.0412489
0.0409586
0.0407705
0.0406719
0.040635
0.040629
0.0394979
0.0395193
0.0395772
0.0396916
0.0398858
0.040181
0.040587
0.0410919
0.0416569
0.0422246
0.0427466
0.0432145
0.0436678
0.0441665
0.044759
0.0454772
0.0462871
0.0470683
0.047749
0.0483118
0.0487353
0.0490009
0.049096
0.0490195
0.0487877
0.048436
0.0480174
0.047596
0.0472334
0.0469701
0.0468164
0.0467546
0.0398035
0.0398234
0.039876
0.0399789
0.0401528
0.0404178
0.0407864
0.0412547
0.0417972
0.0423704
0.042931
0.0434609
0.0439794
0.0445293
0.0451522
0.0458786
0.0466784
0.0474655
0.0482134
0.0489304
0.0496045
0.0502113
0.0507187
0.0510964
0.0513237
0.0513967
0.0513326
0.0511703
0.0509655
0.0507757
0.0506421
0.0505791
0.0399426
0.0399612
0.0400088
0.0400998
0.0402516
0.0404825
0.0408055
0.0412219
0.041715
0.0422502
0.0427867
0.0432959
0.0437761
0.0442501
0.0447485
0.0452995
0.0458927
0.0464992
0.0471427
0.0478506
0.0486143
0.0494006
0.0501574
0.0508292
0.0513724
0.0517634
0.052001
0.0521052
0.0521121
0.0520671
0.0520138
0.0519816
0.0399852
0.0400024
0.0400455
0.0401259
0.0402576
0.0404562
0.0407339
0.0410943
0.0415265
0.0420035
0.0424883
0.0429477
0.0433669
0.0437535
0.0441303
0.0445281
0.0449611
0.0454413
0.0460086
0.0467023
0.0475258
0.0484512
0.049413
0.0503276
0.0511198
0.0517397
0.0521718
0.0524313
0.0525546
0.0525885
0.0525799
0.0525655
0.0399793
0.0399946
0.0400325
0.0401022
0.0402154
0.0403848
0.0406209
0.0409279
0.0412986
0.0417124
0.0421386
0.0425459
0.0429152
0.0432463
0.0435581
0.0438854
0.0442599
0.044705
0.0452482
0.045926
0.0467551
0.0477258
0.0487875
0.0498556
0.0508368
0.0516522
0.0522592
0.0526559
0.0528735
0.0529628
0.0529799
0.0529731
0.0399752
0.0399865
0.0400155
0.040071
0.0401636
0.0403042
0.040502
0.0407609
0.0410762
0.0414333
0.0418091
0.042179
0.0425259
0.0428477
0.0431611
0.0435024
0.0439058
0.0443816
0.0449384
0.0456079
0.0464137
0.0473621
0.0484255
0.0495404
0.0506181
0.0515649
0.0523122
0.0528326
0.0531417
0.0532862
0.053328
0.0533272
0.0400379
0.0400412
0.0400543
0.0400869
0.0401511
0.0402588
0.0404195
0.0406376
0.0409109
0.04123
0.0415797
0.0419426
0.0423055
0.0426661
0.0430378
0.043454
0.0439368
0.0444704
0.0450499
0.0457073
0.0464722
0.0473615
0.0483652
0.0494431
0.0505263
0.0515281
0.0523652
0.0529837
0.0533756
0.0535751
0.0536432
0.053649
0.0402461
0.0402359
0.0402232
0.0402212
0.0402466
0.040316
0.0404423
0.0406326
0.0408874
0.0412011
0.0415627
0.0419585
0.0423767
0.0428127
0.043275
0.04379
0.0443606
0.0449452
0.0455336
0.0461619
0.0468647
0.0476677
0.0485755
0.0495652
0.0505874
0.0515727
0.0524416
0.0531232
0.0535828
0.053834
0.0539299
0.0539432
0.0406792
0.0406496
0.0406021
0.0405571
0.0405393
0.0405732
0.0406782
0.0408651
0.0411355
0.0414831
0.0418953
0.0423566
0.0428524
0.0433746
0.0439256
0.0445243
0.0451556
0.0457616
0.0463333
0.0469109
0.0475325
0.0482287
0.0490142
0.0498816
0.0507995
0.0517155
0.0525619
0.0532652
0.0537705
0.0540661
0.0541896
0.0542118
0.0414005
0.0413472
0.0412631
0.0411804
0.0411338
0.0411549
0.0412683
0.041486
0.0418058
0.0422155
0.0426966
0.0432285
0.0437931
0.0443791
0.0449845
0.0456225
0.0462668
0.0468547
0.0473817
0.0478898
0.0484178
0.0489966
0.0496462
0.0503704
0.0511538
0.0519621
0.0527416
0.0534247
0.053947
0.0542747
0.0544237
0.0544557
0.0424498
0.0423726
0.0422645
0.0421734
0.0421388
0.0421907
0.0423516
0.0426283
0.0430108
0.0434801
0.0440127
0.0445852
0.0451782
0.0457797
0.0463861
0.0470071
0.0476128
0.0481452
0.0486043
0.0490307
0.04946
0.0499207
0.0504336
0.0510081
0.051641
0.0523141
0.052991
0.0536155
0.0541228
0.0544642
0.0546333
0.0546755
0.043848
0.043755
0.0436571
0.0436116
0.043646
0.043774
0.0440067
0.0443417
0.0447645
0.0452548
0.0457899
0.046348
0.0469121
0.0474718
0.0480239
0.0485757
0.0491001
0.0495487
0.049925
0.0502643
0.0505968
0.0509463
0.051331
0.0517623
0.0522434
0.052768
0.0533166
0.0538494
0.0543093
0.0546411
0.0548203
0.0548717
0.0456147
0.0455282
0.0454966
0.0455555
0.0456973
0.0459123
0.0462003
0.0465546
0.0469647
0.0474162
0.0478923
0.0483766
0.0488565
0.0493243
0.049778
0.050223
0.0506377
0.0509861
0.0512728
0.0515257
0.0517679
0.0520175
0.0522888
0.052592
0.0529324
0.0533103
0.0537186
0.0541348
0.0545168
0.054813
0.0549874
0.0550448
0.0477907
0.0477541
0.0478428
0.0480193
0.0482428
0.0484968
0.0487805
0.0490915
0.0494276
0.0497825
0.0501471
0.0505114
0.0508674
0.0512102
0.0515385
0.0518562
0.0521484
0.052391
0.0525882
0.0527593
0.0529203
0.0530834
0.0532585
0.0534529
0.0536714
0.0539165
0.0541873
0.0544748
0.0547548
0.0549886
0.0551392
0.0551957
0.0504598
0.0505208
0.0507025
0.0509073
0.0511139
0.0513184
0.0515235
0.0517321
0.0519468
0.0521672
0.0523896
0.0526095
0.0528224
0.053026
0.0532194
0.053405
0.0535742
0.0537138
0.0538265
0.0539232
0.054013
0.0541029
0.0541983
0.0543035
0.0544214
0.054554
0.0547022
0.0548638
0.0550288
0.0551767
0.0552815
0.0553263
0.0537288
0.0537783
0.0538733
0.0539636
0.0540472
0.0541253
0.0541997
0.0542724
0.0543452
0.0544188
0.0544924
0.0545647
0.0546344
0.0547007
0.0547636
0.0548236
0.0548781
0.0549229
0.0549589
0.0549897
0.0550181
0.0550463
0.0550761
0.0551087
0.0551451
0.055186
0.0552318
0.0552822
0.0553348
0.0553842
0.0554221
0.0554405
)
;

boundaryField
{
    movingWall
    {
        type            fixedValue;
        value           uniform 0.0555;
    }
    fixedWalls
    {
        type            zeroGradient;
    }
    floor
    {
        type            zeroGradient;
    }
    frontAndBack
    {
        type            empty;
    }
}


// ************************************************************************* //
