/*--------------------------------*- C++ -*----------------------------------*\
| =========                 |                                                 |
| \\      /  F ield         | OpenFOAM: The Open Source CFD Toolbox           |
|  \\    /   O peration     | Version:  2212                                  |
|   \\  /    A nd           | Website:  www.openfoam.com                      |
|    \\/     M anipulation  |                                                 |
\*---------------------------------------------------------------------------*/
FoamFile
{
    version     2.0;
    format      ascii;
    arch        "LSB;label=64;scalar=64";
    class       volScalarField;
    location    "1240";
    object      T;
}
// * * * * * * * * * * * * * * * * * * * * * * * * * * * * * * * * * * * * * //

dimensions      [0 0 0 1 0 0 0];

internalField   nonuniform List<scalar> 
1024
(
309.996
309.996
309.996
309.995
309.995
309.994
309.992
309.991
309.99
309.988
309.986
309.986
309.987
309.988
309.99
309.991
309.992
309.993
309.993
309.994
309.995
309.995
309.995
309.996
309.996
309.997
309.997
309.997
309.997
309.998
309.998
309.998
309.988
309.988
309.987
309.985
309.983
309.98
309.976
309.972
309.967
309.962
309.958
309.957
309.96
309.963
309.967
309.971
309.974
309.977
309.979
309.981
309.983
309.984
309.986
309.987
309.988
309.99
309.991
309.992
309.992
309.993
309.993
309.993
309.979
309.979
309.977
309.974
309.97
309.965
309.958
309.951
309.943
309.934
309.928
309.927
309.93
309.936
309.942
309.949
309.955
309.959
309.963
309.966
309.969
309.972
309.975
309.977
309.979
309.981
309.983
309.985
309.986
309.987
309.987
309.987
309.97
309.969
309.967
309.963
309.957
309.949
309.939
309.929
309.918
309.908
309.899
309.897
309.902
309.908
309.916
309.925
309.933
309.939
309.945
309.95
309.954
309.958
309.962
309.966
309.969
309.972
309.975
309.978
309.979
309.98
309.981
309.981
309.96
309.96
309.957
309.952
309.944
309.933
309.922
309.909
309.896
309.885
309.876
309.874
309.877
309.883
309.891
309.901
309.911
309.919
309.926
309.932
309.938
309.943
309.948
309.953
309.958
309.962
309.966
309.97
309.972
309.974
309.974
309.975
309.951
309.95
309.947
309.942
309.932
309.92
309.907
309.893
309.88
309.869
309.861
309.858
309.86
309.864
309.871
309.88
309.89
309.899
309.907
309.914
309.921
309.928
309.934
309.94
309.946
309.951
309.957
309.961
309.964
309.966
309.967
309.968
309.943
309.942
309.939
309.933
309.923
309.911
309.897
309.883
309.87
309.86
309.852
309.849
309.85
309.853
309.858
309.864
309.873
309.881
309.889
309.897
309.905
309.912
309.919
309.926
309.933
309.94
309.947
309.952
309.957
309.959
309.96
309.961
309.935
309.934
309.932
309.926
309.917
309.905
309.891
309.878
309.866
309.856
309.849
309.846
309.846
309.848
309.851
309.856
309.861
309.868
309.875
309.883
309.891
309.898
309.906
309.914
309.922
309.93
309.937
309.944
309.949
309.952
309.954
309.954
309.927
309.927
309.925
309.921
309.913
309.902
309.89
309.877
309.865
309.855
309.848
309.844
309.845
309.847
309.849
309.853
309.856
309.861
309.866
309.873
309.88
309.887
309.895
309.903
309.912
309.92
309.929
309.937
309.942
309.946
309.947
309.948
309.92
309.92
309.919
309.915
309.909
309.901
309.89
309.878
309.865
309.854
309.847
309.844
309.845
309.848
309.851
309.854
309.857
309.859
309.862
309.867
309.873
309.879
309.887
309.895
309.904
309.914
309.923
309.931
309.937
309.94
309.942
309.942
309.913
309.913
309.912
309.91
309.905
309.898
309.888
309.877
309.864
309.853
309.846
309.845
309.847
309.851
309.855
309.858
309.86
309.861
309.863
309.866
309.87
309.876
309.883
309.891
309.9
309.91
309.919
309.927
309.932
309.936
309.937
309.937
309.904
309.904
309.904
309.902
309.898
309.892
309.884
309.872
309.86
309.85
309.845
309.846
309.85
309.855
309.859
309.863
309.866
309.867
309.866
309.868
309.872
309.877
309.884
309.892
309.901
309.91
309.918
309.925
309.929
309.932
309.933
309.933
309.894
309.894
309.894
309.892
309.889
309.883
309.874
309.863
309.853
309.846
309.844
309.848
309.853
309.858
309.863
309.867
309.871
309.873
309.873
309.875
309.878
309.883
309.889
309.896
309.904
309.912
309.919
309.924
309.927
309.929
309.929
309.929
309.881
309.881
309.88
309.879
309.875
309.87
309.861
309.852
309.845
309.843
309.845
309.849
309.855
309.86
309.865
309.869
309.874
309.878
309.881
309.884
309.888
309.892
309.897
309.903
309.909
309.914
309.919
309.922
309.924
309.925
309.925
309.925
309.866
309.865
309.865
309.863
309.859
309.854
309.847
309.842
309.84
309.841
309.845
309.849
309.853
309.856
309.86
309.863
309.867
309.871
309.876
309.881
309.887
309.893
309.898
309.903
309.907
309.911
309.914
309.916
309.917
309.917
309.917
309.916
309.851
309.851
309.85
309.848
309.844
309.84
309.835
309.833
309.833
309.834
309.835
309.837
309.838
309.838
309.839
309.839
309.838
309.838
309.838
309.839
309.841
309.844
309.849
309.855
309.862
309.87
309.878
309.884
309.888
309.89
309.89
309.89
309.842
309.842
309.841
309.839
309.837
309.833
309.829
309.827
309.826
309.825
309.825
309.824
309.823
309.821
309.819
309.817
309.814
309.813
309.812
309.811
309.811
309.812
309.813
309.814
309.816
309.818
309.821
309.824
309.829
309.833
309.836
309.837
309.837
309.837
309.836
309.835
309.833
309.83
309.826
309.824
309.822
309.82
309.819
309.817
309.815
309.813
309.81
309.808
309.805
309.803
309.803
309.802
309.803
309.803
309.804
309.805
309.806
309.807
309.808
309.809
309.81
309.811
309.812
309.813
309.834
309.834
309.834
309.832
309.83
309.828
309.824
309.821
309.819
309.817
309.815
309.813
309.811
309.809
309.806
309.803
309.8
309.798
309.798
309.798
309.798
309.8
309.801
309.803
309.804
309.805
309.806
309.807
309.807
309.808
309.808
309.808
309.832
309.832
309.831
309.831
309.829
309.826
309.823
309.82
309.817
309.815
309.813
309.811
309.808
309.806
309.803
309.799
309.796
309.794
309.793
309.794
309.795
309.797
309.799
309.801
309.803
309.804
309.805
309.806
309.807
309.807
309.807
309.807
309.83
309.83
309.83
309.829
309.828
309.825
309.822
309.819
309.816
309.813
309.811
309.809
309.806
309.803
309.8
309.797
309.794
309.791
309.79
309.79
309.792
309.794
309.796
309.799
309.801
309.803
309.805
309.806
309.807
309.807
309.807
309.807
309.829
309.829
309.829
309.828
309.827
309.825
309.822
309.819
309.815
309.813
309.81
309.807
309.805
309.802
309.799
309.796
309.793
309.791
309.789
309.789
309.79
309.792
309.795
309.798
309.8
309.803
309.805
309.806
309.807
309.807
309.807
309.807
309.828
309.828
309.827
309.827
309.826
309.824
309.822
309.818
309.815
309.812
309.809
309.807
309.804
309.801
309.798
309.796
309.793
309.791
309.79
309.79
309.791
309.792
309.794
309.797
309.8
309.802
309.804
309.806
309.807
309.807
309.807
309.807
309.827
309.827
309.827
309.826
309.825
309.824
309.821
309.818
309.815
309.812
309.809
309.807
309.804
309.801
309.799
309.796
309.794
309.793
309.792
309.792
309.792
309.793
309.795
309.797
309.8
309.802
309.804
309.806
309.807
309.807
309.807
309.808
309.826
309.826
309.826
309.826
309.825
309.823
309.821
309.818
309.815
309.812
309.809
309.807
309.804
309.802
309.8
309.798
309.796
309.795
309.794
309.794
309.795
309.795
309.797
309.798
309.8
309.802
309.804
309.806
309.807
309.807
309.808
309.808
309.825
309.825
309.825
309.825
309.824
309.823
309.821
309.818
309.815
309.813
309.81
309.808
309.806
309.803
309.801
309.8
309.798
309.798
309.797
309.797
309.797
309.798
309.799
309.8
309.801
309.803
309.804
309.806
309.807
309.807
309.808
309.808
309.825
309.825
309.825
309.824
309.824
309.822
309.82
309.818
309.816
309.813
309.811
309.809
309.807
309.806
309.804
309.802
309.801
309.801
309.8
309.8
309.8
309.801
309.801
309.802
309.803
309.804
309.805
309.806
309.807
309.808
309.808
309.808
309.825
309.825
309.824
309.824
309.823
309.822
309.82
309.818
309.817
309.815
309.813
309.811
309.81
309.808
309.807
309.806
309.805
309.804
309.804
309.803
309.803
309.803
309.804
309.804
309.805
309.805
309.806
309.807
309.807
309.808
309.808
309.808
309.824
309.824
309.824
309.824
309.823
309.822
309.821
309.819
309.818
309.816
309.815
309.814
309.812
309.811
309.81
309.809
309.808
309.807
309.807
309.806
309.806
309.806
309.806
309.806
309.806
309.806
309.807
309.807
309.807
309.808
309.808
309.808
309.824
309.824
309.824
309.824
309.823
309.822
309.821
309.82
309.819
309.818
309.817
309.816
309.815
309.814
309.813
309.811
309.81
309.81
309.809
309.809
309.808
309.808
309.808
309.808
309.807
309.807
309.808
309.808
309.808
309.808
309.808
309.808
309.824
309.824
309.824
309.824
309.823
309.823
309.822
309.822
309.821
309.82
309.819
309.818
309.817
309.816
309.815
309.813
309.812
309.811
309.811
309.81
309.81
309.809
309.809
309.809
309.808
309.808
309.808
309.808
309.808
309.808
309.808
309.808
309.824
309.824
309.824
309.824
309.824
309.823
309.823
309.822
309.822
309.821
309.82
309.819
309.818
309.817
309.816
309.814
309.813
309.812
309.811
309.811
309.81
309.81
309.809
309.809
309.809
309.809
309.809
309.808
309.808
309.808
309.808
309.808
)
;

boundaryField
{
    movingWall
    {
        type            zeroGradient;
    }
    fixedWalls
    {
        type            zeroGradient;
    }
    floor
    {
        type            fixedValue;
        value           uniform 310;
    }
    frontAndBack
    {
        type            empty;
    }
}


// ************************************************************************* //
