/*--------------------------------*- C++ -*----------------------------------*\
| =========                 |                                                 |
| \\      /  F ield         | OpenFOAM: The Open Source CFD Toolbox           |
|  \\    /   O peration     | Version:  2212                                  |
|   \\  /    A nd           | Website:  www.openfoam.com                      |
|    \\/     M anipulation  |                                                 |
\*---------------------------------------------------------------------------*/
FoamFile
{
    version     2.0;
    format      ascii;
    arch        "LSB;label=64;scalar=64";
    class       volScalarField;
    location    "1240";
    object      Xpr;
}
// * * * * * * * * * * * * * * * * * * * * * * * * * * * * * * * * * * * * * //

dimensions      [1 -3 0 0 0 0 0];

internalField   nonuniform List<scalar> 
1024
(
0.0817697
0.0817714
0.0817755
0.081783
0.0817946
0.0818111
0.0818327
0.0818587
0.0818877
0.0819175
0.081946
0.0819704
0.0819888
0.0819991
0.0819994
0.0819875
0.0819628
0.0819298
0.0818931
0.0818536
0.0818113
0.0817671
0.0817228
0.081681
0.081644
0.0816134
0.0815896
0.0815724
0.0815606
0.0815533
0.0815493
0.0815477
0.08177
0.0817717
0.0817759
0.0817835
0.0817953
0.0818122
0.081834
0.0818603
0.0818894
0.0819195
0.0819481
0.0819726
0.0819909
0.0820012
0.0820013
0.0819893
0.0819644
0.0819314
0.0818948
0.0818553
0.0818131
0.081769
0.0817247
0.0816827
0.0816454
0.0816145
0.0815905
0.081573
0.0815611
0.0815537
0.0815496
0.081548
0.0817706
0.0817724
0.0817767
0.0817845
0.0817968
0.0818141
0.0818365
0.0818633
0.0818931
0.0819238
0.0819531
0.0819781
0.0819964
0.0820062
0.0820059
0.0819932
0.081968
0.0819348
0.0818982
0.0818589
0.081817
0.081773
0.0817286
0.0816863
0.0816486
0.0816171
0.0815925
0.0815745
0.0815623
0.0815546
0.0815505
0.0815488
0.0817717
0.0817735
0.081778
0.0817861
0.0817988
0.0818167
0.08184
0.0818678
0.0818987
0.0819309
0.0819619
0.0819881
0.0820065
0.0820156
0.0820139
0.0819999
0.0819736
0.0819399
0.0819033
0.0818642
0.0818227
0.081779
0.0817347
0.081692
0.0816535
0.0816211
0.0815956
0.0815769
0.0815642
0.0815562
0.0815519
0.0815501
0.0817733
0.0817751
0.0817797
0.0817881
0.0818012
0.0818199
0.0818441
0.0818734
0.0819064
0.0819414
0.0819754
0.0820038
0.0820227
0.0820306
0.0820265
0.0820098
0.0819813
0.0819465
0.0819094
0.0818706
0.0818296
0.0817865
0.0817424
0.0816994
0.0816601
0.0816266
0.0816
0.0815804
0.0815669
0.0815585
0.0815539
0.081552
0.0817754
0.0817773
0.0817819
0.0817904
0.0818039
0.0818232
0.0818487
0.08188
0.0819162
0.0819555
0.0819943
0.0820264
0.0820462
0.0820522
0.0820443
0.0820231
0.0819909
0.0819537
0.0819158
0.081877
0.0818367
0.0817944
0.0817508
0.0817077
0.0816677
0.0816331
0.0816053
0.0815846
0.0815703
0.0815614
0.0815565
0.0815546
0.0817783
0.0817801
0.0817847
0.0817932
0.0818069
0.0818269
0.0818538
0.0818878
0.0819283
0.0819736
0.0820189
0.0820559
0.0820771
0.0820805
0.0820673
0.0820394
0.0820013
0.0819606
0.081921
0.0818819
0.0818422
0.0818008
0.081758
0.0817152
0.0816749
0.0816395
0.0816106
0.081589
0.081574
0.0815646
0.0815594
0.0815574
0.0817825
0.0817842
0.0817886
0.0817969
0.0818107
0.0818312
0.0818598
0.0818972
0.0819432
0.081996
0.0820492
0.0820919
0.0821147
0.0821146
0.082094
0.0820572
0.0820111
0.0819651
0.0819229
0.0818831
0.0818437
0.0818035
0.0817618
0.0817199
0.0816798
0.0816442
0.0816149
0.0815926
0.0815772
0.0815675
0.0815621
0.08156
0.0817892
0.0817908
0.0817949
0.081803
0.0818166
0.0818377
0.0818682
0.0819096
0.0819622
0.0820235
0.0820852
0.0821335
0.0821568
0.0821516
0.0821217
0.0820736
0.0820173
0.0819647
0.0819189
0.0818778
0.0818386
0.0817995
0.0817594
0.0817189
0.08168
0.0816451
0.0816163
0.0815942
0.0815788
0.0815691
0.0815637
0.0815615
0.0818012
0.0818025
0.0818064
0.0818141
0.0818278
0.0818497
0.0818825
0.0819285
0.0819885
0.0820586
0.0821279
0.08218
0.0822013
0.0821883
0.0821466
0.0820851
0.0820169
0.0819563
0.0819061
0.0818631
0.081824
0.0817861
0.081748
0.0817098
0.0816732
0.0816403
0.081613
0.0815922
0.0815776
0.0815682
0.0815631
0.0815609
0.0818229
0.0818241
0.0818278
0.0818355
0.0818495
0.0818729
0.0819088
0.0819601
0.0820274
0.0821052
0.0821795
0.0822314
0.0822464
0.0822221
0.0821663
0.0820901
0.0820087
0.0819388
0.0818832
0.0818375
0.0817979
0.0817611
0.0817253
0.0816903
0.0816573
0.0816279
0.0816037
0.0815852
0.0815721
0.0815637
0.081559
0.081557
0.0818611
0.0818624
0.0818661
0.0818743
0.0818896
0.0819154
0.0819553
0.0820124
0.0820859
0.082168
0.0822422
0.082288
0.0822917
0.0822533
0.0821831
0.0820929
0.0819986
0.0819181
0.081855
0.0818044
0.0817624
0.0817255
0.0816918
0.0816605
0.0816321
0.0816076
0.0815877
0.0815727
0.0815621
0.0815554
0.0815516
0.08155
0.0819226
0.0819241
0.0819285
0.081938
0.0819555
0.0819847
0.0820292
0.0820912
0.0821682
0.0822495
0.082317
0.0823508
0.0823405
0.0822896
0.0822098
0.0821117
0.0820089
0.0819178
0.0818438
0.0817836
0.0817341
0.0816927
0.0816577
0.0816283
0.081604
0.0815846
0.08157
0.0815599
0.0815535
0.08155
0.0815484
0.0815479
0.08201
0.0820119
0.0820174
0.0820288
0.0820491
0.0820821
0.0821307
0.0821957
0.0822721
0.0823474
0.0824032
0.0824236
0.0824038
0.082351
0.0822764
0.0821867
0.0820897
0.0819969
0.081914
0.0818408
0.0817764
0.0817208
0.0816748
0.0816389
0.0816127
0.0815956
0.0815863
0.0815831
0.0815838
0.0815866
0.0815895
0.0815913
0.082117
0.0821194
0.082126
0.0821394
0.0821627
0.0821992
0.0822512
0.0823173
0.0823906
0.0824577
0.0825035
0.0825191
0.0825063
0.0824746
0.0824325
0.0823825
0.0823254
0.0822636
0.0821993
0.0821328
0.0820647
0.0819972
0.0819342
0.0818804
0.0818376
0.0818078
0.0817914
0.0817863
0.081789
0.0817953
0.0818013
0.0818049
0.0822278
0.0822307
0.0822385
0.082254
0.0822806
0.0823211
0.0823764
0.0824437
0.082515
0.082579
0.0826267
0.0826567
0.0826755
0.0826921
0.0827126
0.0827388
0.0827675
0.082789
0.0827979
0.0827921
0.0827706
0.0827345
0.0826866
0.082631
0.0825715
0.0825138
0.0824638
0.0824258
0.0824012
0.0823884
0.0823836
0.0823829
0.0823078
0.0823106
0.0823181
0.0823331
0.0823586
0.0823974
0.0824508
0.0825167
0.0825897
0.0826618
0.0827267
0.0827837
0.0828384
0.0828991
0.082972
0.0830608
0.0831606
0.0832558
0.0833377
0.0834043
0.0834533
0.0834827
0.083491
0.0834782
0.0834465
0.0834002
0.0833458
0.0832916
0.083245
0.0832113
0.0831917
0.0831838
0.0823532
0.0823557
0.0823625
0.0823759
0.0823987
0.0824337
0.0824824
0.082544
0.082615
0.0826893
0.0827611
0.0828282
0.0828934
0.0829624
0.0830407
0.0831314
0.0832298
0.0833245
0.0834124
0.0834951
0.0835719
0.0836404
0.0836973
0.0837393
0.083764
0.0837709
0.0837619
0.0837415
0.0837162
0.0836928
0.0836764
0.0836687
0.0823757
0.082378
0.0823842
0.082396
0.082416
0.0824466
0.0824895
0.0825448
0.0826102
0.0826808
0.0827511
0.0828172
0.0828791
0.0829399
0.0830034
0.0830726
0.0831453
0.0832172
0.0832913
0.0833714
0.083457
0.0835447
0.0836288
0.0837035
0.0837641
0.0838079
0.0838349
0.083847
0.0838481
0.0838434
0.0838376
0.083834
0.0823848
0.082387
0.0823925
0.082403
0.0824204
0.0824468
0.0824839
0.0825322
0.0825902
0.0826541
0.0827188
0.0827798
0.0828352
0.0828858
0.0829345
0.0829848
0.0830376
0.0830941
0.0831592
0.0832379
0.0833307
0.0834345
0.0835421
0.0836441
0.0837323
0.0838013
0.0838495
0.0838789
0.0838933
0.0838977
0.0838973
0.083896
0.0823868
0.0823887
0.0823936
0.0824027
0.0824177
0.0824403
0.0824721
0.0825136
0.0825639
0.08262
0.0826778
0.0827328
0.0827825
0.0828265
0.0828673
0.0829087
0.082954
0.0830062
0.0830688
0.0831461
0.0832403
0.0833499
0.0834693
0.0835889
0.0836983
0.083789
0.0838565
0.0839008
0.0839254
0.0839359
0.0839383
0.0839379
0.0823879
0.0823894
0.0823933
0.0824006
0.082413
0.0824319
0.0824587
0.0824939
0.082537
0.0825859
0.0826372
0.0826876
0.0827345
0.0827774
0.0828181
0.0828608
0.0829094
0.0829652
0.0830296
0.0831065
0.0831985
0.0833063
0.0834264
0.0835516
0.083672
0.0837774
0.0838604
0.0839181
0.0839526
0.0839691
0.0839742
0.0839744
0.0823964
0.0823969
0.0823988
0.0824034
0.0824123
0.082427
0.082449
0.0824789
0.0825163
0.0825599
0.0826074
0.0826564
0.0827048
0.082752
0.0827994
0.0828508
0.0829086
0.0829713
0.0830387
0.0831146
0.0832024
0.0833038
0.0834175
0.0835389
0.0836602
0.0837718
0.0838647
0.0839331
0.0839766
0.083999
0.0840069
0.0840078
0.0824215
0.0824204
0.0824193
0.0824197
0.0824239
0.0824339
0.0824514
0.0824774
0.0825119
0.0825539
0.082602
0.0826541
0.0827084
0.0827641
0.0828219
0.0828848
0.082953
0.0830218
0.0830905
0.0831633
0.0832443
0.0833361
0.0834392
0.0835509
0.0836656
0.0837754
0.0838718
0.0839472
0.083998
0.0840259
0.0840367
0.0840385
0.0824728
0.0824694
0.0824642
0.0824595
0.0824585
0.0824641
0.0824787
0.0825037
0.0825392
0.0825843
0.0826374
0.0826963
0.082759
0.0828243
0.0828922
0.0829648
0.0830401
0.0831116
0.0831785
0.0832457
0.0833175
0.0833973
0.0834867
0.0835848
0.0836879
0.0837901
0.083884
0.0839618
0.0840174
0.0840501
0.0840639
0.0840665
0.0825577
0.0825515
0.082542
0.0825328
0.0825283
0.0825321
0.0825473
0.0825754
0.0826159
0.0826675
0.0827277
0.082794
0.082864
0.0829361
0.08301
0.083087
0.0831638
0.0832332
0.0832951
0.0833543
0.0834154
0.0834819
0.083556
0.083638
0.0837261
0.0838164
0.0839029
0.0839784
0.0840358
0.0840718
0.0840883
0.084092
0.0826808
0.0826718
0.0826594
0.0826492
0.0826459
0.0826532
0.0826735
0.0827079
0.0827551
0.0828128
0.0828781
0.0829483
0.0830209
0.0830942
0.0831677
0.0832424
0.0833146
0.0833775
0.0834315
0.0834813
0.0835311
0.0835841
0.0836427
0.0837078
0.0837791
0.0838543
0.0839295
0.0839985
0.0840543
0.0840916
0.0841102
0.084115
0.0828444
0.0828336
0.0828223
0.0828174
0.082822
0.0828379
0.0828662
0.0829069
0.0829581
0.0830175
0.0830824
0.0831501
0.0832185
0.0832863
0.0833529
0.0834192
0.0834816
0.0835347
0.083579
0.0836187
0.0836574
0.0836977
0.0837417
0.0837906
0.0838448
0.0839036
0.0839646
0.0840234
0.0840739
0.0841102
0.0841297
0.0841354
0.0830506
0.0830406
0.0830371
0.0830442
0.0830612
0.0830869
0.0831214
0.0831638
0.083213
0.0832672
0.0833244
0.0833828
0.0834407
0.0834971
0.0835517
0.0836051
0.0836545
0.0836958
0.0837296
0.0837592
0.0837874
0.0838162
0.0838473
0.0838818
0.0839202
0.0839626
0.084008
0.084054
0.0840959
0.0841282
0.0841471
0.0841534
0.0833042
0.0833
0.0833104
0.0833311
0.0833575
0.0833875
0.0834211
0.0834581
0.0834981
0.0835405
0.0835842
0.0836279
0.0836707
0.0837119
0.0837514
0.0837895
0.0838243
0.0838531
0.0838764
0.0838964
0.0839152
0.0839341
0.0839542
0.0839763
0.084001
0.0840285
0.0840587
0.0840904
0.0841211
0.0841466
0.0841629
0.084169
0.0836147
0.0836218
0.083643
0.083667
0.0836912
0.0837152
0.0837394
0.0837641
0.0837896
0.0838158
0.0838424
0.0838687
0.0838943
0.0839187
0.083942
0.0839642
0.0839844
0.084001
0.0840143
0.0840257
0.0840361
0.0840465
0.0840575
0.0840695
0.0840828
0.0840977
0.0841143
0.0841321
0.0841502
0.0841663
0.0841776
0.0841824
0.0839945
0.0840003
0.0840113
0.0840218
0.0840316
0.0840408
0.0840495
0.0840581
0.0840668
0.0840755
0.0840843
0.0840929
0.0841013
0.0841093
0.0841168
0.084124
0.0841305
0.0841358
0.0841401
0.0841437
0.084147
0.0841503
0.0841537
0.0841574
0.0841616
0.0841662
0.0841713
0.0841768
0.0841826
0.084188
0.0841921
0.084194
)
;

boundaryField
{
    movingWall
    {
        type            fixedValue;
        value           uniform 0.0842;
    }
    fixedWalls
    {
        type            zeroGradient;
    }
    floor
    {
        type            zeroGradient;
    }
    frontAndBack
    {
        type            empty;
    }
}


// ************************************************************************* //
