/*--------------------------------*- C++ -*----------------------------------*\
| =========                 |                                                 |
| \\      /  F ield         | OpenFOAM: The Open Source CFD Toolbox           |
|  \\    /   O peration     | Version:  2212                                  |
|   \\  /    A nd           | Website:  www.openfoam.com                      |
|    \\/     M anipulation  |                                                 |
\*---------------------------------------------------------------------------*/
FoamFile
{
    version     2.0;
    format      ascii;
    arch        "LSB;label=64;scalar=64";
    class       volScalarField;
    location    "1930";
    object      Gh2;
}
// * * * * * * * * * * * * * * * * * * * * * * * * * * * * * * * * * * * * * //

dimensions      [1 -3 0 0 0 0 0];

internalField   nonuniform List<scalar> 
1024
(
1.23065e-05
1.23055e-05
1.23032e-05
1.22989e-05
1.22919e-05
1.22813e-05
1.22664e-05
1.22463e-05
1.22205e-05
1.21891e-05
1.21531e-05
1.21143e-05
1.20752e-05
1.2038e-05
1.20045e-05
1.19761e-05
1.19558e-05
1.19462e-05
1.19461e-05
1.19538e-05
1.19675e-05
1.19856e-05
1.2006e-05
1.20265e-05
1.20453e-05
1.20611e-05
1.20734e-05
1.20823e-05
1.20883e-05
1.20921e-05
1.20941e-05
1.2095e-05
1.23062e-05
1.23052e-05
1.23028e-05
1.22985e-05
1.22914e-05
1.22808e-05
1.22658e-05
1.22454e-05
1.22194e-05
1.21879e-05
1.21518e-05
1.21129e-05
1.20738e-05
1.20366e-05
1.20032e-05
1.19747e-05
1.19544e-05
1.19448e-05
1.19446e-05
1.19522e-05
1.1966e-05
1.19841e-05
1.20046e-05
1.20253e-05
1.20442e-05
1.20602e-05
1.20726e-05
1.20817e-05
1.20878e-05
1.20916e-05
1.20937e-05
1.20945e-05
1.23054e-05
1.23044e-05
1.2302e-05
1.22976e-05
1.22904e-05
1.22796e-05
1.22642e-05
1.22435e-05
1.22171e-05
1.21852e-05
1.21488e-05
1.21098e-05
1.20706e-05
1.20335e-05
1.20001e-05
1.19717e-05
1.19512e-05
1.19413e-05
1.19409e-05
1.19484e-05
1.19623e-05
1.19807e-05
1.20015e-05
1.20226e-05
1.20419e-05
1.20582e-05
1.2071e-05
1.20802e-05
1.20865e-05
1.20903e-05
1.20924e-05
1.20933e-05
1.23041e-05
1.23031e-05
1.23006e-05
1.2296e-05
1.22886e-05
1.22774e-05
1.22615e-05
1.22402e-05
1.22131e-05
1.21806e-05
1.21437e-05
1.21045e-05
1.20653e-05
1.20283e-05
1.1995e-05
1.19664e-05
1.19455e-05
1.19349e-05
1.19341e-05
1.19414e-05
1.19556e-05
1.19747e-05
1.19963e-05
1.20181e-05
1.20381e-05
1.2055e-05
1.20682e-05
1.20777e-05
1.20841e-05
1.20881e-05
1.20902e-05
1.20911e-05
1.2302e-05
1.23009e-05
1.22983e-05
1.22935e-05
1.22857e-05
1.2274e-05
1.22574e-05
1.22353e-05
1.22072e-05
1.21738e-05
1.21363e-05
1.20968e-05
1.20576e-05
1.20207e-05
1.19874e-05
1.19584e-05
1.19366e-05
1.19248e-05
1.19231e-05
1.19302e-05
1.1945e-05
1.19654e-05
1.19884e-05
1.20115e-05
1.20325e-05
1.20502e-05
1.20639e-05
1.20738e-05
1.20804e-05
1.20844e-05
1.20865e-05
1.20874e-05
1.22989e-05
1.22978e-05
1.22951e-05
1.229e-05
1.22817e-05
1.22693e-05
1.22518e-05
1.22285e-05
1.21992e-05
1.21647e-05
1.21264e-05
1.20866e-05
1.20474e-05
1.20106e-05
1.19771e-05
1.19473e-05
1.19237e-05
1.19099e-05
1.19067e-05
1.19136e-05
1.19294e-05
1.19517e-05
1.1977e-05
1.2002e-05
1.20246e-05
1.20433e-05
1.20577e-05
1.2068e-05
1.20747e-05
1.20787e-05
1.20808e-05
1.20816e-05
1.22947e-05
1.22936e-05
1.22906e-05
1.22852e-05
1.22764e-05
1.22631e-05
1.22444e-05
1.22197e-05
1.2189e-05
1.21532e-05
1.21141e-05
1.20739e-05
1.20347e-05
1.19979e-05
1.19638e-05
1.19324e-05
1.19063e-05
1.18895e-05
1.18842e-05
1.18904e-05
1.19073e-05
1.19321e-05
1.19604e-05
1.19884e-05
1.20131e-05
1.20333e-05
1.20485e-05
1.20592e-05
1.2066e-05
1.207e-05
1.2072e-05
1.20727e-05
1.22894e-05
1.22881e-05
1.2285e-05
1.22792e-05
1.22697e-05
1.22554e-05
1.22354e-05
1.22091e-05
1.21768e-05
1.21397e-05
1.20997e-05
1.20591e-05
1.20198e-05
1.19826e-05
1.19474e-05
1.19138e-05
1.18841e-05
1.18633e-05
1.18549e-05
1.18598e-05
1.18775e-05
1.19047e-05
1.19367e-05
1.19682e-05
1.1996e-05
1.20181e-05
1.20344e-05
1.20455e-05
1.20525e-05
1.20563e-05
1.20581e-05
1.20588e-05
1.22828e-05
1.22815e-05
1.22782e-05
1.2272e-05
1.22618e-05
1.22465e-05
1.22251e-05
1.21971e-05
1.21632e-05
1.21247e-05
1.20837e-05
1.20427e-05
1.2003e-05
1.19652e-05
1.19285e-05
1.18921e-05
1.1858e-05
1.18324e-05
1.18197e-05
1.18219e-05
1.18387e-05
1.18673e-05
1.19022e-05
1.19377e-05
1.1969e-05
1.19938e-05
1.20118e-05
1.20236e-05
1.20308e-05
1.20345e-05
1.20362e-05
1.20367e-05
1.22753e-05
1.22739e-05
1.22705e-05
1.22639e-05
1.2253e-05
1.22367e-05
1.22139e-05
1.21844e-05
1.21489e-05
1.2109e-05
1.20671e-05
1.20255e-05
1.19854e-05
1.19467e-05
1.19085e-05
1.18692e-05
1.18307e-05
1.17995e-05
1.17809e-05
1.17777e-05
1.17906e-05
1.18173e-05
1.1853e-05
1.18911e-05
1.1926e-05
1.19542e-05
1.19745e-05
1.19878e-05
1.19956e-05
1.19996e-05
1.20012e-05
1.20016e-05
1.2267e-05
1.22656e-05
1.2262e-05
1.22552e-05
1.22438e-05
1.22266e-05
1.22027e-05
1.21718e-05
1.21349e-05
1.20939e-05
1.20512e-05
1.2009e-05
1.19686e-05
1.19295e-05
1.18903e-05
1.1849e-05
1.18069e-05
1.17699e-05
1.17435e-05
1.17312e-05
1.17351e-05
1.17547e-05
1.1786e-05
1.18232e-05
1.18598e-05
1.1891e-05
1.19146e-05
1.19303e-05
1.19397e-05
1.19446e-05
1.19466e-05
1.19472e-05
1.22585e-05
1.22571e-05
1.22534e-05
1.22464e-05
1.22347e-05
1.2217e-05
1.21923e-05
1.21606e-05
1.21227e-05
1.20808e-05
1.20376e-05
1.19954e-05
1.19553e-05
1.19169e-05
1.18785e-05
1.18378e-05
1.17943e-05
1.17518e-05
1.17156e-05
1.16903e-05
1.16798e-05
1.16854e-05
1.17052e-05
1.17347e-05
1.17681e-05
1.17998e-05
1.18259e-05
1.18447e-05
1.18567e-05
1.18634e-05
1.18665e-05
1.18676e-05
1.22503e-05
1.22489e-05
1.22452e-05
1.22382e-05
1.22264e-05
1.22087e-05
1.21838e-05
1.21519e-05
1.21138e-05
1.20718e-05
1.20289e-05
1.19877e-05
1.19494e-05
1.1914e-05
1.18797e-05
1.18433e-05
1.1802e-05
1.17557e-05
1.1709e-05
1.16681e-05
1.16387e-05
1.16244e-05
1.16255e-05
1.16396e-05
1.16624e-05
1.16885e-05
1.17133e-05
1.17335e-05
1.17478e-05
1.17566e-05
1.17611e-05
1.17628e-05
1.22433e-05
1.22419e-05
1.22383e-05
1.22314e-05
1.222e-05
1.22027e-05
1.21785e-05
1.21473e-05
1.21101e-05
1.20692e-05
1.20279e-05
1.19893e-05
1.19551e-05
1.19258e-05
1.18998e-05
1.18729e-05
1.18385e-05
1.17915e-05
1.17354e-05
1.16784e-05
1.16286e-05
1.15915e-05
1.15697e-05
1.15627e-05
1.15679e-05
1.15813e-05
1.15984e-05
1.16151e-05
1.16287e-05
1.1638e-05
1.16433e-05
1.16454e-05
1.22384e-05
1.2237e-05
1.22335e-05
1.22271e-05
1.22164e-05
1.22003e-05
1.21777e-05
1.21485e-05
1.21137e-05
1.20755e-05
1.20376e-05
1.20034e-05
1.19758e-05
1.19558e-05
1.19421e-05
1.19296e-05
1.19073e-05
1.18638e-05
1.18012e-05
1.17292e-05
1.16588e-05
1.15983e-05
1.15525e-05
1.15225e-05
1.15072e-05
1.15037e-05
1.15081e-05
1.15165e-05
1.15253e-05
1.15325e-05
1.1537e-05
1.15391e-05
1.2237e-05
1.22357e-05
1.22325e-05
1.22266e-05
1.2217e-05
1.22027e-05
1.21828e-05
1.2157e-05
1.21262e-05
1.20925e-05
1.20596e-05
1.20316e-05
1.20119e-05
1.20027e-05
1.20032e-05
1.20079e-05
1.20021e-05
1.19676e-05
1.19031e-05
1.1819e-05
1.17284e-05
1.16433e-05
1.15719e-05
1.15178e-05
1.14813e-05
1.14601e-05
1.14506e-05
1.1449e-05
1.14514e-05
1.14549e-05
1.14578e-05
1.14592e-05
1.22408e-05
1.22395e-05
1.22365e-05
1.22312e-05
1.22228e-05
1.22106e-05
1.21938e-05
1.21722e-05
1.21463e-05
1.21182e-05
1.20911e-05
1.20692e-05
1.20566e-05
1.20561e-05
1.20679e-05
1.20872e-05
1.2098e-05
1.20772e-05
1.2019e-05
1.19302e-05
1.1824e-05
1.17154e-05
1.1617e-05
1.15367e-05
1.14773e-05
1.14377e-05
1.14145e-05
1.14034e-05
1.13998e-05
1.13999e-05
1.14013e-05
1.14022e-05
1.2249e-05
1.22478e-05
1.22449e-05
1.224e-05
1.22326e-05
1.22221e-05
1.2208e-05
1.21901e-05
1.21689e-05
1.21459e-05
1.2124e-05
1.21069e-05
1.20987e-05
1.21027e-05
1.21197e-05
1.21457e-05
1.21656e-05
1.21559e-05
1.21081e-05
1.20242e-05
1.19137e-05
1.17906e-05
1.16706e-05
1.1566e-05
1.14838e-05
1.14252e-05
1.13878e-05
1.1367e-05
1.13576e-05
1.13549e-05
1.1355e-05
1.13557e-05
1.22598e-05
1.22586e-05
1.22559e-05
1.22513e-05
1.22446e-05
1.22353e-05
1.22231e-05
1.22081e-05
1.21905e-05
1.21717e-05
1.21539e-05
1.21404e-05
1.21347e-05
1.21399e-05
1.21571e-05
1.2183e-05
1.22036e-05
1.21978e-05
1.21569e-05
1.20804e-05
1.19735e-05
1.1847e-05
1.17158e-05
1.15946e-05
1.14939e-05
1.14183e-05
1.13671e-05
1.13366e-05
1.13213e-05
1.13155e-05
1.13144e-05
1.13148e-05
1.22716e-05
1.22705e-05
1.22679e-05
1.22637e-05
1.22574e-05
1.22491e-05
1.22384e-05
1.22254e-05
1.22107e-05
1.21951e-05
1.21806e-05
1.21698e-05
1.21655e-05
1.21701e-05
1.21843e-05
1.22051e-05
1.22199e-05
1.22114e-05
1.21725e-05
1.21016e-05
1.20012e-05
1.18786e-05
1.17456e-05
1.16164e-05
1.15033e-05
1.14141e-05
1.13507e-05
1.13108e-05
1.12893e-05
1.12801e-05
1.12777e-05
1.12779e-05
1.2282e-05
1.22811e-05
1.22789e-05
1.22752e-05
1.22698e-05
1.22623e-05
1.22529e-05
1.22417e-05
1.22292e-05
1.22162e-05
1.22043e-05
1.21953e-05
1.21913e-05
1.21936e-05
1.22022e-05
1.22138e-05
1.22179e-05
1.2202e-05
1.21614e-05
1.2094e-05
1.20005e-05
1.18854e-05
1.17573e-05
1.16279e-05
1.15093e-05
1.14109e-05
1.13375e-05
1.12889e-05
1.12611e-05
1.12484e-05
1.12445e-05
1.12443e-05
1.2287e-05
1.22865e-05
1.22852e-05
1.22828e-05
1.22788e-05
1.2273e-05
1.22654e-05
1.2256e-05
1.22454e-05
1.22344e-05
1.22241e-05
1.22157e-05
1.22101e-05
1.22077e-05
1.22077e-05
1.22065e-05
1.21964e-05
1.21706e-05
1.21266e-05
1.2062e-05
1.19758e-05
1.18702e-05
1.17512e-05
1.16276e-05
1.15097e-05
1.1407e-05
1.13265e-05
1.12704e-05
1.12365e-05
1.122e-05
1.12144e-05
1.12138e-05
1.22816e-05
1.22818e-05
1.22821e-05
1.22819e-05
1.22805e-05
1.22775e-05
1.22724e-05
1.22653e-05
1.22565e-05
1.22467e-05
1.22364e-05
1.22261e-05
1.22159e-05
1.22056e-05
1.21939e-05
1.21775e-05
1.21523e-05
1.21165e-05
1.20693e-05
1.20079e-05
1.19302e-05
1.18359e-05
1.17286e-05
1.16148e-05
1.15027e-05
1.14007e-05
1.13165e-05
1.12545e-05
1.12152e-05
1.11947e-05
1.11872e-05
1.11861e-05
1.22602e-05
1.22616e-05
1.22641e-05
1.2267e-05
1.22695e-05
1.22702e-05
1.22685e-05
1.22637e-05
1.2256e-05
1.22455e-05
1.22326e-05
1.22172e-05
1.21992e-05
1.21781e-05
1.21531e-05
1.21216e-05
1.2083e-05
1.20395e-05
1.19909e-05
1.19339e-05
1.18655e-05
1.17841e-05
1.16907e-05
1.15896e-05
1.1487e-05
1.13901e-05
1.13059e-05
1.12405e-05
1.11965e-05
1.11723e-05
1.11627e-05
1.1161e-05
1.22185e-05
1.22213e-05
1.22265e-05
1.22329e-05
1.22392e-05
1.22435e-05
1.22444e-05
1.22409e-05
1.22324e-05
1.22189e-05
1.22005e-05
1.21774e-05
1.21496e-05
1.21172e-05
1.208e-05
1.20367e-05
1.19889e-05
1.19413e-05
1.18938e-05
1.18427e-05
1.17844e-05
1.17164e-05
1.16383e-05
1.1552e-05
1.14618e-05
1.13733e-05
1.12929e-05
1.1227e-05
1.11799e-05
1.11524e-05
1.11406e-05
1.11382e-05
1.21535e-05
1.2158e-05
1.21656e-05
1.21745e-05
1.21827e-05
1.21881e-05
1.21892e-05
1.21842e-05
1.21724e-05
1.21537e-05
1.21285e-05
1.20973e-05
1.20608e-05
1.20198e-05
1.19746e-05
1.19248e-05
1.18735e-05
1.1826e-05
1.17822e-05
1.1738e-05
1.169e-05
1.16353e-05
1.15724e-05
1.15019e-05
1.14261e-05
1.1349e-05
1.12758e-05
1.12125e-05
1.11646e-05
1.11346e-05
1.11209e-05
1.11177e-05
1.20641e-05
1.20701e-05
1.20789e-05
1.20874e-05
1.20934e-05
1.20956e-05
1.20928e-05
1.20834e-05
1.20667e-05
1.20427e-05
1.2012e-05
1.19755e-05
1.19344e-05
1.18897e-05
1.18423e-05
1.17921e-05
1.17427e-05
1.1699e-05
1.16609e-05
1.16244e-05
1.15862e-05
1.15438e-05
1.14953e-05
1.14404e-05
1.138e-05
1.13164e-05
1.12532e-05
1.11957e-05
1.11495e-05
1.11186e-05
1.11033e-05
1.10993e-05
1.19495e-05
1.19564e-05
1.19635e-05
1.19671e-05
1.19661e-05
1.19609e-05
1.19513e-05
1.19364e-05
1.19154e-05
1.18885e-05
1.18561e-05
1.18192e-05
1.17789e-05
1.17362e-05
1.16922e-05
1.1647e-05
1.16036e-05
1.15666e-05
1.15354e-05
1.15066e-05
1.14776e-05
1.14461e-05
1.14105e-05
1.13699e-05
1.13245e-05
1.12752e-05
1.12242e-05
1.11753e-05
1.11336e-05
1.11038e-05
1.10877e-05
1.1083e-05
1.18082e-05
1.18144e-05
1.18157e-05
1.18101e-05
1.17994e-05
1.17857e-05
1.17698e-05
1.17511e-05
1.1729e-05
1.17032e-05
1.16738e-05
1.16413e-05
1.16067e-05
1.15708e-05
1.15345e-05
1.14978e-05
1.14634e-05
1.14345e-05
1.14107e-05
1.13895e-05
1.13686e-05
1.13465e-05
1.13218e-05
1.12936e-05
1.12617e-05
1.12264e-05
1.11885e-05
1.11504e-05
1.11158e-05
1.10894e-05
1.10739e-05
1.10687e-05
1.16364e-05
1.16386e-05
1.16305e-05
1.16154e-05
1.15976e-05
1.15794e-05
1.15615e-05
1.15433e-05
1.15242e-05
1.15035e-05
1.14808e-05
1.14564e-05
1.14307e-05
1.14045e-05
1.13783e-05
1.13521e-05
1.13278e-05
1.13077e-05
1.12913e-05
1.1277e-05
1.12633e-05
1.1249e-05
1.12332e-05
1.12153e-05
1.1195e-05
1.11722e-05
1.11471e-05
1.11208e-05
1.10955e-05
1.10746e-05
1.10613e-05
1.10563e-05
1.14268e-05
1.14216e-05
1.14066e-05
1.13897e-05
1.13731e-05
1.13577e-05
1.13438e-05
1.13309e-05
1.13182e-05
1.13052e-05
1.12914e-05
1.12767e-05
1.12615e-05
1.1246e-05
1.12306e-05
1.12153e-05
1.12013e-05
1.11897e-05
1.11803e-05
1.11723e-05
1.11646e-05
1.11568e-05
1.11483e-05
1.11387e-05
1.11278e-05
1.11155e-05
1.11017e-05
1.10869e-05
1.1072e-05
1.10589e-05
1.10497e-05
1.10457e-05
1.11706e-05
1.11666e-05
1.11589e-05
1.11516e-05
1.11448e-05
1.11388e-05
1.11336e-05
1.1129e-05
1.11246e-05
1.11202e-05
1.11157e-05
1.11109e-05
1.11059e-05
1.11009e-05
1.10959e-05
1.1091e-05
1.10865e-05
1.10827e-05
1.10797e-05
1.10772e-05
1.10748e-05
1.10723e-05
1.10697e-05
1.10667e-05
1.10633e-05
1.10596e-05
1.10553e-05
1.10507e-05
1.10459e-05
1.10415e-05
1.10382e-05
1.10366e-05
)
;

boundaryField
{
    movingWall
    {
        type            fixedValue;
        value           uniform 1.1032e-05;
    }
    fixedWalls
    {
        type            zeroGradient;
    }
    floor
    {
        type            zeroGradient;
    }
    frontAndBack
    {
        type            empty;
    }
}


// ************************************************************************* //
