/*--------------------------------*- C++ -*----------------------------------*\
| =========                 |                                                 |
| \\      /  F ield         | OpenFOAM: The Open Source CFD Toolbox           |
|  \\    /   O peration     | Version:  2212                                  |
|   \\  /    A nd           | Website:  www.openfoam.com                      |
|    \\/     M anipulation  |                                                 |
\*---------------------------------------------------------------------------*/
FoamFile
{
    version     2.0;
    format      ascii;
    arch        "LSB;label=64;scalar=64";
    class       volScalarField;
    location    "1930";
    object      Saa;
}
// * * * * * * * * * * * * * * * * * * * * * * * * * * * * * * * * * * * * * //

dimensions      [1 -3 0 0 0 0 0];

internalField   nonuniform List<scalar> 
1024
(
0.0054823
0.00548232
0.00548237
0.00548247
0.00548262
0.00548285
0.00548317
0.00548361
0.00548416
0.00548483
0.00548558
0.00548637
0.00548713
0.00548783
0.00548842
0.00548888
0.00548919
0.00548931
0.00548928
0.00548913
0.00548887
0.00548855
0.00548818
0.00548781
0.00548747
0.00548718
0.00548696
0.00548679
0.00548668
0.00548661
0.00548658
0.00548656
0.00548231
0.00548233
0.00548238
0.00548248
0.00548263
0.00548286
0.00548319
0.00548363
0.00548419
0.00548485
0.00548561
0.00548639
0.00548716
0.00548785
0.00548844
0.0054889
0.00548921
0.00548933
0.0054893
0.00548915
0.0054889
0.00548857
0.0054882
0.00548783
0.00548749
0.0054872
0.00548697
0.0054868
0.00548669
0.00548662
0.00548658
0.00548657
0.00548232
0.00548235
0.0054824
0.00548249
0.00548265
0.00548289
0.00548322
0.00548367
0.00548423
0.00548491
0.00548567
0.00548645
0.00548722
0.00548791
0.00548849
0.00548895
0.00548926
0.00548939
0.00548936
0.00548921
0.00548895
0.00548862
0.00548825
0.00548787
0.00548753
0.00548723
0.005487
0.00548683
0.00548671
0.00548664
0.0054866
0.00548659
0.00548235
0.00548237
0.00548243
0.00548253
0.00548269
0.00548293
0.00548328
0.00548374
0.00548432
0.005485
0.00548576
0.00548655
0.00548731
0.00548799
0.00548857
0.00548903
0.00548934
0.00548948
0.00548946
0.00548931
0.00548905
0.00548871
0.00548833
0.00548795
0.00548759
0.00548728
0.00548705
0.00548687
0.00548675
0.00548668
0.00548664
0.00548663
0.0054824
0.00548242
0.00548248
0.00548258
0.00548275
0.00548301
0.00548336
0.00548384
0.00548444
0.00548514
0.00548591
0.0054867
0.00548745
0.00548812
0.00548869
0.00548915
0.00548948
0.00548963
0.00548962
0.00548948
0.00548921
0.00548886
0.00548846
0.00548805
0.00548768
0.00548736
0.00548712
0.00548694
0.00548682
0.00548674
0.00548671
0.00548669
0.00548246
0.00548249
0.00548255
0.00548266
0.00548284
0.0054831
0.00548348
0.00548398
0.0054846
0.00548532
0.0054861
0.00548689
0.00548763
0.00548829
0.00548885
0.00548932
0.00548967
0.00548985
0.00548987
0.00548973
0.00548945
0.00548907
0.00548863
0.0054882
0.00548781
0.00548747
0.00548722
0.00548703
0.00548691
0.00548684
0.0054868
0.00548679
0.00548255
0.00548258
0.00548264
0.00548276
0.00548295
0.00548324
0.00548364
0.00548416
0.00548481
0.00548555
0.00548634
0.00548712
0.00548785
0.0054885
0.00548906
0.00548955
0.00548993
0.00549015
0.0054902
0.00549008
0.00548978
0.00548936
0.00548889
0.00548841
0.00548799
0.00548764
0.00548737
0.00548718
0.00548706
0.00548699
0.00548695
0.00548694
0.00548267
0.00548269
0.00548276
0.00548289
0.00548309
0.0054834
0.00548382
0.00548438
0.00548505
0.00548581
0.00548661
0.00548739
0.00548811
0.00548875
0.00548931
0.00548982
0.00549025
0.00549054
0.00549063
0.00549053
0.00549023
0.00548978
0.00548925
0.00548873
0.00548826
0.00548788
0.0054876
0.00548741
0.00548729
0.00548722
0.00548719
0.00548718
0.00548281
0.00548284
0.00548291
0.00548304
0.00548326
0.00548358
0.00548404
0.00548462
0.00548532
0.0054861
0.00548691
0.00548768
0.00548839
0.00548902
0.00548959
0.00549014
0.00549062
0.00549098
0.00549114
0.00549109
0.00549081
0.00549035
0.00548978
0.0054892
0.00548869
0.00548827
0.00548797
0.00548777
0.00548765
0.00548758
0.00548755
0.00548755
0.00548297
0.005483
0.00548307
0.00548321
0.00548344
0.00548379
0.00548426
0.00548488
0.0054856
0.0054864
0.00548721
0.00548797
0.00548867
0.0054893
0.00548988
0.00549045
0.00549099
0.00549143
0.00549169
0.00549172
0.00549151
0.00549109
0.00549053
0.00548993
0.00548937
0.00548891
0.00548858
0.00548836
0.00548823
0.00548816
0.00548814
0.00548813
0.00548314
0.00548317
0.00548325
0.00548339
0.00548363
0.00548399
0.00548449
0.00548512
0.00548587
0.00548668
0.00548749
0.00548825
0.00548893
0.00548954
0.00549012
0.0054907
0.00549128
0.0054918
0.00549218
0.00549236
0.0054923
0.00549201
0.00549154
0.00549097
0.0054904
0.00548991
0.00548954
0.00548929
0.00548914
0.00548907
0.00548903
0.00548902
0.00548332
0.00548335
0.00548343
0.00548358
0.00548382
0.00548419
0.0054847
0.00548534
0.0054861
0.00548691
0.00548772
0.00548846
0.00548911
0.00548969
0.00549023
0.00549077
0.00549135
0.00549194
0.00549247
0.00549286
0.00549304
0.00549298
0.00549271
0.00549229
0.0054918
0.00549133
0.00549094
0.00549065
0.00549047
0.00549037
0.00549032
0.00549031
0.0054835
0.00548352
0.0054836
0.00548375
0.00548399
0.00548436
0.00548486
0.00548551
0.00548626
0.00548706
0.00548785
0.00548855
0.00548916
0.00548966
0.0054901
0.00549054
0.00549106
0.0054917
0.00549239
0.00549302
0.00549349
0.00549375
0.00549378
0.00549362
0.00549333
0.00549297
0.00549263
0.00549235
0.00549214
0.00549202
0.00549195
0.00549193
0.00548364
0.00548367
0.00548375
0.00548389
0.00548412
0.00548447
0.00548496
0.00548558
0.00548631
0.00548709
0.00548783
0.00548848
0.00548899
0.00548936
0.00548964
0.0054899
0.00549028
0.00549092
0.00549175
0.00549262
0.0054934
0.005494
0.00549439
0.00549456
0.00549455
0.00549442
0.00549423
0.00549402
0.00549385
0.00549374
0.00549367
0.00549364
0.00548374
0.00548377
0.00548384
0.00548397
0.00548419
0.00548452
0.00548497
0.00548555
0.00548623
0.00548694
0.00548762
0.00548818
0.00548856
0.00548876
0.00548881
0.0054888
0.00548897
0.00548955
0.00549048
0.00549158
0.00549268
0.00549362
0.00549436
0.00549486
0.00549516
0.00549529
0.0054953
0.00549524
0.00549517
0.0054951
0.00549505
0.00549503
0.00548377
0.0054838
0.00548386
0.00548398
0.00548418
0.00548447
0.00548486
0.00548537
0.00548597
0.0054866
0.00548719
0.00548764
0.00548788
0.00548788
0.00548767
0.00548736
0.00548725
0.00548768
0.00548865
0.00548995
0.00549136
0.00549268
0.00549379
0.00549463
0.00549522
0.0054956
0.00549581
0.0054959
0.00549592
0.00549592
0.0054959
0.0054959
0.00548369
0.00548372
0.00548378
0.00548389
0.00548406
0.0054843
0.00548464
0.00548507
0.00548557
0.0054861
0.00548658
0.00548693
0.00548707
0.00548693
0.00548653
0.00548597
0.00548557
0.00548576
0.00548664
0.00548803
0.0054897
0.00549139
0.0054929
0.00549412
0.00549503
0.00549565
0.00549603
0.00549625
0.00549635
0.0054964
0.00549641
0.00549641
0.00548352
0.00548354
0.0054836
0.0054837
0.00548385
0.00548407
0.00548435
0.00548471
0.00548512
0.00548556
0.00548596
0.00548623
0.0054863
0.00548611
0.00548564
0.00548497
0.00548442
0.00548443
0.00548512
0.00548644
0.00548819
0.00549011
0.00549195
0.00549353
0.00549476
0.00549563
0.0054962
0.00549654
0.00549672
0.0054968
0.00549682
0.00549683
0.00548329
0.00548331
0.00548337
0.00548346
0.0054836
0.00548379
0.00548404
0.00548434
0.00548469
0.00548505
0.00548538
0.00548561
0.00548565
0.00548546
0.00548501
0.00548436
0.00548381
0.00548374
0.00548431
0.0054855
0.00548719
0.00548917
0.00549118
0.005493
0.00549449
0.00549559
0.00549634
0.0054968
0.00549705
0.00549717
0.00549721
0.00549722
0.00548303
0.00548305
0.00548311
0.0054832
0.00548333
0.0054835
0.00548372
0.00548399
0.00548428
0.00548459
0.00548486
0.00548505
0.00548508
0.00548492
0.00548454
0.00548401
0.00548356
0.00548353
0.00548405
0.00548514
0.00548672
0.00548863
0.00549067
0.00549261
0.00549426
0.00549555
0.00549645
0.00549703
0.00549736
0.00549751
0.00549757
0.00549758
0.00548278
0.00548281
0.00548286
0.00548294
0.00548306
0.00548322
0.00548341
0.00548365
0.0054839
0.00548416
0.00548439
0.00548455
0.00548459
0.00548448
0.00548422
0.00548385
0.00548359
0.00548369
0.00548423
0.00548525
0.0054867
0.00548849
0.00549045
0.00549238
0.00549411
0.00549551
0.00549655
0.00549723
0.00549763
0.00549783
0.0054979
0.00549792
0.00548262
0.00548264
0.00548267
0.00548274
0.00548283
0.00548297
0.00548314
0.00548334
0.00548356
0.00548378
0.00548398
0.00548413
0.0054842
0.00548417
0.00548407
0.00548393
0.00548392
0.00548418
0.00548477
0.00548573
0.00548706
0.00548869
0.0054905
0.00549234
0.00549405
0.00549551
0.00549662
0.0054974
0.00549787
0.00549811
0.00549821
0.00549823
0.00548263
0.00548263
0.00548264
0.00548267
0.00548273
0.00548282
0.00548295
0.00548311
0.0054833
0.00548349
0.00548369
0.00548386
0.005484
0.00548411
0.0054842
0.00548432
0.00548457
0.00548499
0.00548564
0.00548655
0.00548773
0.00548918
0.0054908
0.00549249
0.00549411
0.00549554
0.0054967
0.00549754
0.00549808
0.00549837
0.00549848
0.00549851
0.00548288
0.00548286
0.00548284
0.00548282
0.00548282
0.00548285
0.00548292
0.00548305
0.00548321
0.00548341
0.00548363
0.00548388
0.00548414
0.00548441
0.00548472
0.0054851
0.00548557
0.00548614
0.00548681
0.00548764
0.00548867
0.00548991
0.00549132
0.00549281
0.00549428
0.00549564
0.0054968
0.00549767
0.00549826
0.00549859
0.00549873
0.00549877
0.00548344
0.0054834
0.00548334
0.00548327
0.0054832
0.00548318
0.00548321
0.0054833
0.00548347
0.0054837
0.005484
0.00548435
0.00548476
0.00548521
0.00548572
0.00548629
0.00548692
0.00548756
0.00548823
0.00548897
0.00548984
0.00549086
0.00549203
0.0054933
0.00549459
0.00549583
0.00549693
0.00549781
0.00549843
0.00549879
0.00549895
0.005499
0.00548435
0.00548429
0.00548419
0.00548407
0.00548398
0.00548393
0.00548395
0.00548406
0.00548426
0.00548456
0.00548495
0.00548542
0.00548595
0.00548654
0.00548717
0.00548786
0.00548856
0.00548922
0.00548983
0.00549047
0.00549118
0.005492
0.00549293
0.00549396
0.00549504
0.00549612
0.00549711
0.00549796
0.00549858
0.00549897
0.00549915
0.0054992
0.00548561
0.00548553
0.00548541
0.0054853
0.00548523
0.00548522
0.00548528
0.00548545
0.00548572
0.00548609
0.00548655
0.00548709
0.00548769
0.00548833
0.00548901
0.00548971
0.0054904
0.00549101
0.00549155
0.00549207
0.00549263
0.00549326
0.00549397
0.00549477
0.00549563
0.00549652
0.00549738
0.00549814
0.00549874
0.00549913
0.00549933
0.00549939
0.00548723
0.00548713
0.00548704
0.00548699
0.00548702
0.00548711
0.00548726
0.0054875
0.00548782
0.00548822
0.0054887
0.00548925
0.00548983
0.00549045
0.00549108
0.00549172
0.00549233
0.00549285
0.00549329
0.0054937
0.00549412
0.00549458
0.00549511
0.00549569
0.00549634
0.00549703
0.00549772
0.00549837
0.00549891
0.00549928
0.00549948
0.00549955
0.00548922
0.00548913
0.00548912
0.0054892
0.00548936
0.00548956
0.0054898
0.00549008
0.00549041
0.00549079
0.00549122
0.0054917
0.0054922
0.00549272
0.00549324
0.00549376
0.00549425
0.00549466
0.00549499
0.0054953
0.0054956
0.00549592
0.00549628
0.00549669
0.00549714
0.00549763
0.00549815
0.00549865
0.0054991
0.00549943
0.00549962
0.00549968
0.00549162
0.00549159
0.00549171
0.00549192
0.00549218
0.00549244
0.0054927
0.00549297
0.00549325
0.00549355
0.00549388
0.00549424
0.00549461
0.00549499
0.00549537
0.00549574
0.00549609
0.00549637
0.0054966
0.00549681
0.005497
0.00549721
0.00549744
0.0054977
0.00549799
0.0054983
0.00549865
0.005499
0.00549932
0.00549958
0.00549974
0.0054998
0.00549454
0.00549462
0.00549483
0.00549506
0.0054953
0.00549552
0.00549572
0.0054959
0.00549609
0.00549628
0.00549648
0.00549669
0.00549691
0.00549714
0.00549736
0.00549758
0.00549778
0.00549794
0.00549807
0.00549819
0.0054983
0.00549841
0.00549853
0.00549867
0.00549883
0.005499
0.00549919
0.00549938
0.00549958
0.00549974
0.00549985
0.00549989
0.00549809
0.00549815
0.00549825
0.00549836
0.00549845
0.00549854
0.00549861
0.00549868
0.00549874
0.0054988
0.00549887
0.00549894
0.00549901
0.00549909
0.00549916
0.00549923
0.00549929
0.00549934
0.00549939
0.00549942
0.00549946
0.00549949
0.00549953
0.00549957
0.00549962
0.00549968
0.00549973
0.00549979
0.00549986
0.00549991
0.00549995
0.00549997
)
;

boundaryField
{
    movingWall
    {
        type            fixedValue;
        value           uniform 0.0055;
    }
    fixedWalls
    {
        type            zeroGradient;
    }
    floor
    {
        type            zeroGradient;
    }
    frontAndBack
    {
        type            empty;
    }
}


// ************************************************************************* //
