/*--------------------------------*- C++ -*----------------------------------*\
| =========                 |                                                 |
| \\      /  F ield         | OpenFOAM: The Open Source CFD Toolbox           |
|  \\    /   O peration     | Version:  2212                                  |
|   \\  /    A nd           | Website:  www.openfoam.com                      |
|    \\/     M anipulation  |                                                 |
\*---------------------------------------------------------------------------*/
FoamFile
{
    version     2.0;
    format      ascii;
    arch        "LSB;label=64;scalar=64";
    class       volScalarField::Internal;
    location    "30";
    object      dGch4;
}
// * * * * * * * * * * * * * * * * * * * * * * * * * * * * * * * * * * * * * //

dimensions      [1 -3 -1 0 0 0 0];

value           nonuniform List<scalar> 
1024
(
0.00136998
0.00136998
0.00136997
0.00136996
0.00136995
0.00136994
0.00136993
0.00136992
0.00136991
0.00136988
0.00136985
0.00136984
0.00136983
0.00136982
0.00136981
0.0013698
0.00136981
0.00136982
0.00136983
0.00136984
0.00136985
0.00136986
0.00136988
0.0013699
0.00136991
0.00136992
0.00136993
0.00136995
0.00136997
0.00136998
0.00137
0.00137
0.00136997
0.00136997
0.00136997
0.00136996
0.00136995
0.00136994
0.00136993
0.00136992
0.00136991
0.00136988
0.00136985
0.00136983
0.00136983
0.00136982
0.00136981
0.0013698
0.00136981
0.00136982
0.00136983
0.00136984
0.00136985
0.00136986
0.00136988
0.0013699
0.00136991
0.00136992
0.00136993
0.00136995
0.00136996
0.00136998
0.00136999
0.00136999
0.00136997
0.00136996
0.00136996
0.00136995
0.00136994
0.00136993
0.00136992
0.00136992
0.0013699
0.00136988
0.00136985
0.00136983
0.00136983
0.00136982
0.00136981
0.0013698
0.00136981
0.00136983
0.00136983
0.00136984
0.00136985
0.00136986
0.00136988
0.00136989
0.0013699
0.00136991
0.00136992
0.00136994
0.00136996
0.00136998
0.00136998
0.00136999
0.00136995
0.00136994
0.00136994
0.00136993
0.00136992
0.00136992
0.00136992
0.00136991
0.0013699
0.00136988
0.00136985
0.00136984
0.00136983
0.00136982
0.00136981
0.0013698
0.00136981
0.00136983
0.00136983
0.00136984
0.00136985
0.00136986
0.00136988
0.00136989
0.0013699
0.00136991
0.00136992
0.00136993
0.00136995
0.00136997
0.00136997
0.00136997
0.00136992
0.00136992
0.00136992
0.00136991
0.00136991
0.00136991
0.00136991
0.00136991
0.0013699
0.00136987
0.00136985
0.00136984
0.00136983
0.00136982
0.00136981
0.0013698
0.00136981
0.00136983
0.00136983
0.00136984
0.00136985
0.00136986
0.00136987
0.00136989
0.00136989
0.0013699
0.00136991
0.00136993
0.00136994
0.00136995
0.00136996
0.00136996
0.0013699
0.0013699
0.00136989
0.00136989
0.00136989
0.00136989
0.0013699
0.0013699
0.00136989
0.00136987
0.00136985
0.00136984
0.00136983
0.00136982
0.00136982
0.0013698
0.00136981
0.00136983
0.00136984
0.00136984
0.00136985
0.00136986
0.00136987
0.00136988
0.00136989
0.0013699
0.00136991
0.00136992
0.00136993
0.00136994
0.00136994
0.00136994
0.00136988
0.00136988
0.00136987
0.00136987
0.00136988
0.00136988
0.00136989
0.00136989
0.00136989
0.00136987
0.00136985
0.00136984
0.00136983
0.00136983
0.00136982
0.0013698
0.00136982
0.00136983
0.00136984
0.00136985
0.00136985
0.00136986
0.00136987
0.00136988
0.00136988
0.00136989
0.0013699
0.00136991
0.00136992
0.00136992
0.00136993
0.00136993
0.00136986
0.00136986
0.00136986
0.00136986
0.00136986
0.00136987
0.00136988
0.00136988
0.00136988
0.00136987
0.00136985
0.00136984
0.00136984
0.00136983
0.00136982
0.00136981
0.00136982
0.00136983
0.00136984
0.00136985
0.00136985
0.00136986
0.00136987
0.00136987
0.00136988
0.00136988
0.00136989
0.0013699
0.0013699
0.00136991
0.00136991
0.00136991
0.00136985
0.00136985
0.00136985
0.00136985
0.00136986
0.00136986
0.00136987
0.00136987
0.00136988
0.00136987
0.00136985
0.00136985
0.00136984
0.00136983
0.00136982
0.00136981
0.00136982
0.00136983
0.00136984
0.00136985
0.00136985
0.00136986
0.00136987
0.00136987
0.00136987
0.00136988
0.00136988
0.00136988
0.00136989
0.00136989
0.00136989
0.00136989
0.00136984
0.00136984
0.00136984
0.00136984
0.00136985
0.00136985
0.00136986
0.00136987
0.00136987
0.00136986
0.00136986
0.00136985
0.00136984
0.00136984
0.00136983
0.00136981
0.00136982
0.00136984
0.00136985
0.00136985
0.00136986
0.00136986
0.00136987
0.00136987
0.00136987
0.00136987
0.00136987
0.00136987
0.00136987
0.00136987
0.00136987
0.00136987
0.00136984
0.00136984
0.00136984
0.00136984
0.00136984
0.00136985
0.00136985
0.00136986
0.00136986
0.00136986
0.00136985
0.00136985
0.00136984
0.00136984
0.00136983
0.00136981
0.00136982
0.00136984
0.00136985
0.00136986
0.00136986
0.00136987
0.00136987
0.00136987
0.00136987
0.00136987
0.00136986
0.00136986
0.00136986
0.00136986
0.00136986
0.00136986
0.00136983
0.00136983
0.00136983
0.00136984
0.00136984
0.00136984
0.00136985
0.00136985
0.00136986
0.00136986
0.00136985
0.00136985
0.00136985
0.00136984
0.00136983
0.00136981
0.00136982
0.00136984
0.00136985
0.00136987
0.00136988
0.00136989
0.00136989
0.0013699
0.00136989
0.00136989
0.00136988
0.00136987
0.00136987
0.00136987
0.00136987
0.00136987
0.00136983
0.00136983
0.00136983
0.00136983
0.00136984
0.00136984
0.00136984
0.00136985
0.00136985
0.00136985
0.00136985
0.00136985
0.00136985
0.00136984
0.00136983
0.00136981
0.00136982
0.00136985
0.00136987
0.00136989
0.00136992
0.00136995
0.00136997
0.00136998
0.00136997
0.00136996
0.00136995
0.00136994
0.00136993
0.00136993
0.00136993
0.00136993
0.00136983
0.00136983
0.00136983
0.00136983
0.00136984
0.00136984
0.00136984
0.00136985
0.00136985
0.00136985
0.00136985
0.00136985
0.00136984
0.00136984
0.00136983
0.00136981
0.00136983
0.00136986
0.0013699
0.00136996
0.00137005
0.00137013
0.0013702
0.00137024
0.00137025
0.00137024
0.00137021
0.00137019
0.00137017
0.00137015
0.00137014
0.00137014
0.00136983
0.00136983
0.00136983
0.00136983
0.00136983
0.00136984
0.00136984
0.00136984
0.00136985
0.00136985
0.00136985
0.00136984
0.00136984
0.00136983
0.00136982
0.00136981
0.00136984
0.0013699
0.00137001
0.0013702
0.00137046
0.00137075
0.00137099
0.00137115
0.00137121
0.00137118
0.00137111
0.00137102
0.00137095
0.00137089
0.00137085
0.00137084
0.00136982
0.00136982
0.00136982
0.00136983
0.00136983
0.00136983
0.00136984
0.00136984
0.00136984
0.00136984
0.00136984
0.00136983
0.00136983
0.00136982
0.00136981
0.00136982
0.00136988
0.00137004
0.00137037
0.00137096
0.00137178
0.00137271
0.00137356
0.00137414
0.0013744
0.00137437
0.00137414
0.00137385
0.00137357
0.00137335
0.00137322
0.00137316
0.00136983
0.00136983
0.00136983
0.00136983
0.00136983
0.00136983
0.00136984
0.00136985
0.00136985
0.00136984
0.00136983
0.00136983
0.00136983
0.00136983
0.00136984
0.00136987
0.00137003
0.00137047
0.00137142
0.00137307
0.00137536
0.00137794
0.0013803
0.00138201
0.00138289
0.00138299
0.00138253
0.00138177
0.00138099
0.00138035
0.00137993
0.00137974
0.00136986
0.00136986
0.00136986
0.00136986
0.00136986
0.00136986
0.00136987
0.00136987
0.00136988
0.00136988
0.00136988
0.00136989
0.0013699
0.00136992
0.00136995
0.00137004
0.00137038
0.00137133
0.00137337
0.00137684
0.00138147
0.00138646
0.00139093
0.00139427
0.00139623
0.0013969
0.00139653
0.00139549
0.00139422
0.00139306
0.00139225
0.00139186
0.00136994
0.00136994
0.00136994
0.00136994
0.00136993
0.00136993
0.00136994
0.00136994
0.00136996
0.00136998
0.00137
0.00137003
0.00137008
0.00137013
0.00137021
0.00137037
0.00137089
0.00137234
0.00137541
0.00138046
0.00138691
0.00139357
0.00139945
0.00140406
0.00140726
0.00140904
0.00140954
0.00140905
0.00140797
0.00140675
0.00140579
0.00140528
0.00137013
0.00137013
0.00137012
0.00137012
0.00137011
0.00137011
0.00137011
0.00137013
0.00137017
0.00137022
0.00137028
0.00137037
0.00137048
0.00137061
0.00137075
0.00137098
0.00137159
0.00137321
0.00137664
0.00138216
0.00138903
0.00139601
0.0014023
0.00140768
0.00141204
0.00141524
0.00141716
0.00141788
0.00141767
0.00141694
0.00141617
0.0014157
0.00137054
0.00137053
0.00137052
0.0013705
0.00137048
0.00137048
0.00137049
0.00137053
0.00137062
0.00137074
0.0013709
0.00137109
0.00137132
0.00137157
0.00137182
0.00137211
0.0013727
0.00137415
0.00137722
0.0013822
0.00138843
0.00139491
0.00140117
0.00140713
0.00141262
0.00141727
0.00142071
0.00142278
0.0014236
0.00142354
0.0014231
0.00142274
0.00137131
0.00137129
0.00137125
0.00137121
0.00137118
0.00137117
0.00137121
0.00137132
0.0013715
0.00137175
0.00137207
0.00137245
0.00137287
0.0013733
0.00137371
0.0013741
0.00137462
0.00137572
0.00137809
0.00138206
0.00138721
0.0013929
0.00139893
0.00140529
0.00141174
0.0014177
0.00142255
0.00142589
0.00142771
0.00142829
0.00142816
0.0014279
0.00137259
0.00137255
0.00137249
0.00137241
0.00137237
0.00137238
0.00137249
0.00137271
0.00137307
0.00137354
0.00137411
0.00137476
0.00137544
0.00137612
0.00137674
0.00137729
0.00137779
0.00137854
0.00138017
0.00138311
0.0013872
0.00139208
0.00139769
0.00140408
0.00141099
0.00141781
0.00142376
0.00142822
0.00143096
0.00143217
0.00143235
0.00143217
0.0013746
0.00137453
0.00137441
0.0013743
0.00137425
0.00137433
0.00137457
0.00137501
0.00137565
0.00137644
0.00137735
0.00137833
0.00137933
0.00138029
0.00138116
0.0013819
0.00138246
0.001383
0.00138403
0.0013861
0.00138929
0.00139343
0.0013985
0.00140452
0.00141131
0.00141836
0.00142489
0.00143015
0.00143369
0.0014355
0.00143601
0.00143592
0.00137754
0.00137742
0.00137724
0.0013771
0.00137709
0.00137732
0.00137781
0.00137858
0.00137959
0.00138078
0.00138208
0.00138341
0.00138472
0.00138596
0.00138708
0.00138803
0.00138871
0.00138916
0.00138981
0.00139122
0.00139364
0.00139704
0.00140142
0.00140681
0.00141304
0.00141975
0.0014263
0.00143195
0.00143607
0.00143842
0.00143926
0.00143927
0.00138162
0.00138143
0.00138118
0.00138106
0.00138121
0.0013817
0.00138257
0.00138377
0.00138522
0.00138682
0.00138848
0.00139012
0.00139169
0.00139315
0.00139445
0.00139556
0.00139637
0.00139683
0.00139726
0.0013982
0.00139996
0.00140261
0.00140619
0.00141072
0.0014161
0.00142208
0.0014282
0.0014338
0.00143821
0.00144099
0.00144217
0.0014423
0.00138707
0.00138679
0.00138653
0.00138653
0.00138697
0.00138789
0.00138923
0.00139088
0.00139273
0.00139466
0.00139658
0.00139841
0.00140012
0.00140167
0.00140305
0.00140423
0.0014051
0.00140559
0.00140593
0.00140654
0.00140775
0.0014097
0.00141244
0.001416
0.00142036
0.00142536
0.0014307
0.00143589
0.00144028
0.0014433
0.00144476
0.00144503
0.00139414
0.00139379
0.00139361
0.00139393
0.00139482
0.00139623
0.00139801
0.00140002
0.00140211
0.00140419
0.00140618
0.00140803
0.00140972
0.00141122
0.00141254
0.00141367
0.00141452
0.00141501
0.00141529
0.00141569
0.00141649
0.00141783
0.00141978
0.0014224
0.00142568
0.00142957
0.00143391
0.00143837
0.00144241
0.00144544
0.00144708
0.00144749
0.00140311
0.00140277
0.0014029
0.00140371
0.00140511
0.00140691
0.00140893
0.00141103
0.00141311
0.00141508
0.00141691
0.00141858
0.00142007
0.00142138
0.00142251
0.00142348
0.00142421
0.00142465
0.00142488
0.00142514
0.00142564
0.0014265
0.0014278
0.00142959
0.00143187
0.00143465
0.00143786
0.00144135
0.00144475
0.00144751
0.00144919
0.0014497
0.00141438
0.00141426
0.00141494
0.00141623
0.00141789
0.00141973
0.00142162
0.00142346
0.0014252
0.00142681
0.00142827
0.00142956
0.00143071
0.0014317
0.00143255
0.00143327
0.00143382
0.00143415
0.00143433
0.00143449
0.00143478
0.00143529
0.00143608
0.00143718
0.00143861
0.00144039
0.00144251
0.00144492
0.00144742
0.00144964
0.00145113
0.00145168
0.00142854
0.0014289
0.00142998
0.00143126
0.00143263
0.00143401
0.00143534
0.00143658
0.00143772
0.00143875
0.00143967
0.00144048
0.00144118
0.00144178
0.00144229
0.00144272
0.00144305
0.00144326
0.00144336
0.00144345
0.0014436
0.00144386
0.00144427
0.00144484
0.0014456
0.00144655
0.0014477
0.00144904
0.00145051
0.00145193
0.001453
0.00145346
0.00144626
0.00144653
0.00144707
0.00144761
0.00144814
0.00144865
0.00144912
0.00144956
0.00144996
0.00145031
0.00145062
0.00145088
0.00145112
0.00145132
0.00145148
0.00145163
0.00145173
0.0014518
0.00145183
0.00145186
0.00145191
0.00145199
0.00145211
0.00145228
0.00145251
0.0014528
0.00145316
0.00145357
0.00145404
0.00145451
0.0014549
0.0014551
)
;


// ************************************************************************* //
