/*--------------------------------*- C++ -*----------------------------------*\
| =========                 |                                                 |
| \\      /  F ield         | OpenFOAM: The Open Source CFD Toolbox           |
|  \\    /   O peration     | Version:  2212                                  |
|   \\  /    A nd           | Website:  www.openfoam.com                      |
|    \\/     M anipulation  |                                                 |
\*---------------------------------------------------------------------------*/
FoamFile
{
    version     2.0;
    format      ascii;
    arch        "LSB;label=64;scalar=64";
    class       volScalarField::Internal;
    location    "30";
    object      dGco2;
}
// * * * * * * * * * * * * * * * * * * * * * * * * * * * * * * * * * * * * * //

dimensions      [1 -3 -1 0 0 0 0];

value           nonuniform List<scalar> 
1024
(
0.000230928
0.000230928
0.000230927
0.000230925
0.000230923
0.000230921
0.000230919
0.000230918
0.000230915
0.00023091
0.000230905
0.000230902
0.0002309
0.000230899
0.000230897
0.000230895
0.000230897
0.000230899
0.000230901
0.000230902
0.000230904
0.000230907
0.00023091
0.000230913
0.000230915
0.000230917
0.000230919
0.000230922
0.000230926
0.000230929
0.000230931
0.000230932
0.000230927
0.000230927
0.000230926
0.000230924
0.000230922
0.000230921
0.000230919
0.000230918
0.000230915
0.00023091
0.000230905
0.000230902
0.0002309
0.000230899
0.000230897
0.000230895
0.000230897
0.000230899
0.000230901
0.000230902
0.000230904
0.000230907
0.00023091
0.000230913
0.000230915
0.000230917
0.000230919
0.000230922
0.000230925
0.000230928
0.00023093
0.000230931
0.000230926
0.000230925
0.000230924
0.000230922
0.000230921
0.000230919
0.000230918
0.000230917
0.000230915
0.00023091
0.000230905
0.000230902
0.0002309
0.000230899
0.000230897
0.000230895
0.000230897
0.000230899
0.000230901
0.000230902
0.000230904
0.000230907
0.00023091
0.000230913
0.000230914
0.000230916
0.000230918
0.000230921
0.000230924
0.000230927
0.000230929
0.000230929
0.000230922
0.000230922
0.000230921
0.000230919
0.000230918
0.000230917
0.000230917
0.000230916
0.000230914
0.000230909
0.000230905
0.000230902
0.0002309
0.000230899
0.000230897
0.000230895
0.000230897
0.0002309
0.000230901
0.000230903
0.000230905
0.000230907
0.000230909
0.000230912
0.000230913
0.000230915
0.000230917
0.00023092
0.000230923
0.000230925
0.000230927
0.000230927
0.000230918
0.000230917
0.000230917
0.000230916
0.000230915
0.000230915
0.000230915
0.000230915
0.000230913
0.000230909
0.000230905
0.000230902
0.0002309
0.000230899
0.000230898
0.000230895
0.000230897
0.0002309
0.000230901
0.000230903
0.000230905
0.000230907
0.000230909
0.000230911
0.000230912
0.000230914
0.000230916
0.000230919
0.000230921
0.000230923
0.000230924
0.000230924
0.000230913
0.000230913
0.000230912
0.000230912
0.000230912
0.000230912
0.000230913
0.000230914
0.000230912
0.000230908
0.000230905
0.000230902
0.000230901
0.000230899
0.000230898
0.000230895
0.000230897
0.0002309
0.000230902
0.000230903
0.000230905
0.000230906
0.000230908
0.000230911
0.000230912
0.000230913
0.000230915
0.000230917
0.000230919
0.000230921
0.000230921
0.000230922
0.000230909
0.000230909
0.000230909
0.000230909
0.000230909
0.00023091
0.000230911
0.000230912
0.000230911
0.000230908
0.000230905
0.000230903
0.000230901
0.0002309
0.000230898
0.000230895
0.000230898
0.000230901
0.000230902
0.000230903
0.000230905
0.000230906
0.000230908
0.000230909
0.000230911
0.000230912
0.000230913
0.000230915
0.000230917
0.000230918
0.000230918
0.000230918
0.000230906
0.000230906
0.000230906
0.000230906
0.000230907
0.000230908
0.000230909
0.00023091
0.00023091
0.000230908
0.000230905
0.000230903
0.000230902
0.0002309
0.000230899
0.000230896
0.000230898
0.000230901
0.000230902
0.000230904
0.000230905
0.000230906
0.000230907
0.000230909
0.00023091
0.000230911
0.000230912
0.000230913
0.000230914
0.000230915
0.000230915
0.000230915
0.000230904
0.000230904
0.000230904
0.000230904
0.000230905
0.000230906
0.000230908
0.000230908
0.000230909
0.000230907
0.000230905
0.000230904
0.000230902
0.000230901
0.000230899
0.000230896
0.000230898
0.000230901
0.000230903
0.000230904
0.000230905
0.000230906
0.000230907
0.000230908
0.000230909
0.000230909
0.000230909
0.00023091
0.000230911
0.000230911
0.000230911
0.000230911
0.000230902
0.000230902
0.000230903
0.000230903
0.000230904
0.000230905
0.000230906
0.000230907
0.000230908
0.000230907
0.000230905
0.000230904
0.000230903
0.000230902
0.0002309
0.000230897
0.000230898
0.000230902
0.000230903
0.000230904
0.000230905
0.000230906
0.000230907
0.000230907
0.000230908
0.000230907
0.000230907
0.000230907
0.000230907
0.000230907
0.000230907
0.000230907
0.000230902
0.000230902
0.000230902
0.000230902
0.000230903
0.000230904
0.000230905
0.000230905
0.000230907
0.000230906
0.000230905
0.000230904
0.000230903
0.000230902
0.0002309
0.000230897
0.000230899
0.000230902
0.000230904
0.000230905
0.000230906
0.000230908
0.000230908
0.000230908
0.000230908
0.000230907
0.000230906
0.000230906
0.000230906
0.000230905
0.000230905
0.000230905
0.000230901
0.000230901
0.000230901
0.000230902
0.000230902
0.000230903
0.000230904
0.000230905
0.000230906
0.000230906
0.000230905
0.000230904
0.000230904
0.000230902
0.0002309
0.000230897
0.000230899
0.000230903
0.000230905
0.000230907
0.000230909
0.000230911
0.000230912
0.000230913
0.000230912
0.000230911
0.000230909
0.000230908
0.000230908
0.000230907
0.000230907
0.000230907
0.000230901
0.000230901
0.000230901
0.000230901
0.000230902
0.000230902
0.000230903
0.000230904
0.000230905
0.000230905
0.000230905
0.000230904
0.000230904
0.000230903
0.0002309
0.000230897
0.000230899
0.000230904
0.000230907
0.000230912
0.000230917
0.000230922
0.000230926
0.000230928
0.000230927
0.000230926
0.000230923
0.000230922
0.00023092
0.000230919
0.000230919
0.000230919
0.0002309
0.000230901
0.000230901
0.000230901
0.000230901
0.000230902
0.000230903
0.000230903
0.000230904
0.000230904
0.000230904
0.000230904
0.000230903
0.000230902
0.0002309
0.000230897
0.0002309
0.000230906
0.000230914
0.000230926
0.000230941
0.000230957
0.000230971
0.000230978
0.00023098
0.000230977
0.000230972
0.000230968
0.000230963
0.000230961
0.000230959
0.000230958
0.0002309
0.0002309
0.0002309
0.000230901
0.000230901
0.000230902
0.000230902
0.000230903
0.000230904
0.000230904
0.000230903
0.000230903
0.000230902
0.000230901
0.000230899
0.000230897
0.000230902
0.000230914
0.000230935
0.000230971
0.000231019
0.000231073
0.00023112
0.00023115
0.00023116
0.000231155
0.000231141
0.000231125
0.000231111
0.0002311
0.000231093
0.00023109
0.000230899
0.000230899
0.000230899
0.000230899
0.0002309
0.000230901
0.000230902
0.000230903
0.000230903
0.000230902
0.000230901
0.000230901
0.0002309
0.000230899
0.000230898
0.000230898
0.000230909
0.00023094
0.000231003
0.000231113
0.000231269
0.000231443
0.000231602
0.000231713
0.000231761
0.000231755
0.000231713
0.000231657
0.000231604
0.000231564
0.000231538
0.000231527
0.000230899
0.000230899
0.0002309
0.0002309
0.0002309
0.000230901
0.000230902
0.000230903
0.000230904
0.000230902
0.000230901
0.000230901
0.0002309
0.000230901
0.000230902
0.000230908
0.000230938
0.000231021
0.000231199
0.00023151
0.000231943
0.000232428
0.000232871
0.000233194
0.00023336
0.000233379
0.000233291
0.000233149
0.000233001
0.000232881
0.000232802
0.000232766
0.000230906
0.000230906
0.000230906
0.000230906
0.000230906
0.000230906
0.000230907
0.000230908
0.000230909
0.000230909
0.00023091
0.000230912
0.000230914
0.000230918
0.000230924
0.000230941
0.000231004
0.000231183
0.000231567
0.00023222
0.000233092
0.000234032
0.000234874
0.000235502
0.000235872
0.000235998
0.000235928
0.000235733
0.000235493
0.000235275
0.000235123
0.000235049
0.000230921
0.000230921
0.00023092
0.00023092
0.00023092
0.00023092
0.000230921
0.000230922
0.000230925
0.000230928
0.000230933
0.000230939
0.000230947
0.000230957
0.000230972
0.000231002
0.000231101
0.000231373
0.000231952
0.000232902
0.000234116
0.000235371
0.000236478
0.000237346
0.000237947
0.000238283
0.000238378
0.000238286
0.000238082
0.000237853
0.000237671
0.000237576
0.000230958
0.000230957
0.000230956
0.000230954
0.000230953
0.000230953
0.000230954
0.000230957
0.000230964
0.000230973
0.000230986
0.000231003
0.000231023
0.000231047
0.000231074
0.000231117
0.000231231
0.000231538
0.000232183
0.000233222
0.000234515
0.000235829
0.000237015
0.000238027
0.000238849
0.00023945
0.000239813
0.000239948
0.000239908
0.000239771
0.000239626
0.000239538
0.000231035
0.000231033
0.00023103
0.000231026
0.000231023
0.000231022
0.000231025
0.000231033
0.000231049
0.000231071
0.000231101
0.000231139
0.000231181
0.000231227
0.000231275
0.000231331
0.00023144
0.000231713
0.000232292
0.000233229
0.000234402
0.000235624
0.000236802
0.000237923
0.000238958
0.000239834
0.000240482
0.00024087
0.000241024
0.000241013
0.00024093
0.000240863
0.000231178
0.000231175
0.000231168
0.00023116
0.000231154
0.000231153
0.000231161
0.00023118
0.000231214
0.000231262
0.000231322
0.000231394
0.000231473
0.000231554
0.000231631
0.000231705
0.000231803
0.00023201
0.000232455
0.000233203
0.000234172
0.000235245
0.00023638
0.000237578
0.000238792
0.000239914
0.000240827
0.000241457
0.000241798
0.000241908
0.000241885
0.000241835
0.000231421
0.000231413
0.000231401
0.000231387
0.000231378
0.00023138
0.000231401
0.000231443
0.00023151
0.000231599
0.000231707
0.000231829
0.000231957
0.000232084
0.000232202
0.000232304
0.000232398
0.000232541
0.000232847
0.0002334
0.00023417
0.00023509
0.000236147
0.000237349
0.000238651
0.000239936
0.000241055
0.000241895
0.000242411
0.000242639
0.000242674
0.000242639
0.000231799
0.000231785
0.000231763
0.000231742
0.000231733
0.000231747
0.000231794
0.000231876
0.000231996
0.000232145
0.000232317
0.000232501
0.000232689
0.000232869
0.000233034
0.000233173
0.000233279
0.00023338
0.000233575
0.000233965
0.000234565
0.000235345
0.000236298
0.000237433
0.000238712
0.000240039
0.000241269
0.000242259
0.000242925
0.000243266
0.000243363
0.000243345
0.000232352
0.000232329
0.000232295
0.000232268
0.000232268
0.00023231
0.000232403
0.000232548
0.000232739
0.000232962
0.000233206
0.000233458
0.000233705
0.000233938
0.000234149
0.000234327
0.000234456
0.000234541
0.000234663
0.000234928
0.000235384
0.000236024
0.00023685
0.000237863
0.000239038
0.000240301
0.000241534
0.000242597
0.000243373
0.000243816
0.000243975
0.000243977
0.00023312
0.000233084
0.000233038
0.000233015
0.000233042
0.000233136
0.0002333
0.000233526
0.000233799
0.0002341
0.000234412
0.000234722
0.000235017
0.000235291
0.000235536
0.000235745
0.000235897
0.000235984
0.000236066
0.000236242
0.000236573
0.000237073
0.000237746
0.000238599
0.000239613
0.00024074
0.00024189
0.000242946
0.000243777
0.0002443
0.000244521
0.000244547
0.000234147
0.000234095
0.000234044
0.000234046
0.000234128
0.000234301
0.000234553
0.000234864
0.000235213
0.000235576
0.000235936
0.000236282
0.000236604
0.000236897
0.000237155
0.000237377
0.000237542
0.000237635
0.000237698
0.000237813
0.000238042
0.000238408
0.000238923
0.000239595
0.000240414
0.000241356
0.000242363
0.000243339
0.000244166
0.000244735
0.00024501
0.000245061
0.000235477
0.000235411
0.000235379
0.000235438
0.000235606
0.000235871
0.000236207
0.000236585
0.000236979
0.000237371
0.000237745
0.000238093
0.000238411
0.000238695
0.000238943
0.000239155
0.000239316
0.000239408
0.000239461
0.000239536
0.000239686
0.000239938
0.000240307
0.0002408
0.000241417
0.00024215
0.000242967
0.000243806
0.000244567
0.000245138
0.000245447
0.000245524
0.000237167
0.000237103
0.000237128
0.00023728
0.000237543
0.000237882
0.000238263
0.000238659
0.000239049
0.000239421
0.000239766
0.00024008
0.00024036
0.000240607
0.000240821
0.000241002
0.000241141
0.000241223
0.000241267
0.000241315
0.000241409
0.000241572
0.000241817
0.000242152
0.000242581
0.000243105
0.000243711
0.000244368
0.000245007
0.000245528
0.000245843
0.00024594
0.000239289
0.000239267
0.000239394
0.000239637
0.00023995
0.000240296
0.000240651
0.000240999
0.000241327
0.00024163
0.000241904
0.000242148
0.000242363
0.00024255
0.00024271
0.000242846
0.000242949
0.000243012
0.000243045
0.000243075
0.00024313
0.000243226
0.000243375
0.000243583
0.000243852
0.000244187
0.000244586
0.000245039
0.00024551
0.000245928
0.000246209
0.000246313
0.000241956
0.000242023
0.000242226
0.000242468
0.000242725
0.000242985
0.000243235
0.00024347
0.000243684
0.000243879
0.000244051
0.000244203
0.000244335
0.000244449
0.000244545
0.000244626
0.000244688
0.000244726
0.000244746
0.000244763
0.000244791
0.00024484
0.000244917
0.000245025
0.000245167
0.000245346
0.000245562
0.000245816
0.000246093
0.00024636
0.00024656
0.000246648
0.000245291
0.000245343
0.000245444
0.000245545
0.000245645
0.000245741
0.000245831
0.000245914
0.000245988
0.000246054
0.000246112
0.000246163
0.000246207
0.000246244
0.000246276
0.000246302
0.000246323
0.000246335
0.000246342
0.000246347
0.000246355
0.00024637
0.000246393
0.000246426
0.000246469
0.000246524
0.00024659
0.000246669
0.000246757
0.000246846
0.000246919
0.000246956
)
;


// ************************************************************************* //
