/*--------------------------------*- C++ -*----------------------------------*\
| =========                 |                                                 |
| \\      /  F ield         | OpenFOAM: The Open Source CFD Toolbox           |
|  \\    /   O peration     | Version:  2212                                  |
|   \\  /    A nd           | Website:  www.openfoam.com                      |
|    \\/     M anipulation  |                                                 |
\*---------------------------------------------------------------------------*/
FoamFile
{
    version     2.0;
    format      ascii;
    arch        "LSB;label=64;scalar=64";
    class       volScalarField;
    location    "30";
    object      Gco2;
}
// * * * * * * * * * * * * * * * * * * * * * * * * * * * * * * * * * * * * * //

dimensions      [1 -3 0 0 0 0 0];

internalField   nonuniform List<scalar> 
1024
(
0.0206513
0.0206513
0.0206516
0.0206524
0.0206533
0.0206542
0.020655
0.0206558
0.0206569
0.0206592
0.0206616
0.020663
0.0206637
0.0206642
0.0206648
0.0206658
0.020665
0.0206638
0.0206632
0.0206625
0.0206616
0.0206605
0.0206592
0.0206578
0.020657
0.020656
0.0206551
0.0206537
0.020652
0.0206506
0.0206497
0.0206493
0.0206515
0.0206516
0.020652
0.0206528
0.0206536
0.0206545
0.0206552
0.0206558
0.020657
0.0206593
0.0206616
0.020663
0.0206637
0.0206642
0.0206648
0.0206658
0.0206649
0.0206638
0.0206632
0.0206625
0.0206616
0.0206605
0.0206592
0.0206579
0.0206572
0.0206562
0.0206552
0.0206538
0.0206522
0.0206508
0.0206499
0.0206497
0.0206522
0.0206525
0.0206529
0.0206536
0.0206544
0.020655
0.0206555
0.020656
0.0206572
0.0206594
0.0206616
0.020663
0.0206637
0.0206642
0.0206648
0.0206658
0.0206649
0.0206638
0.0206631
0.0206625
0.0206616
0.0206605
0.0206593
0.020658
0.0206574
0.0206564
0.0206555
0.0206542
0.0206526
0.0206513
0.0206506
0.0206504
0.0206537
0.020654
0.0206544
0.020655
0.0206555
0.0206559
0.0206562
0.0206564
0.0206574
0.0206595
0.0206616
0.0206629
0.0206636
0.0206641
0.0206648
0.0206658
0.0206648
0.0206637
0.020663
0.0206624
0.0206616
0.0206606
0.0206595
0.0206583
0.0206578
0.0206568
0.020656
0.0206547
0.0206533
0.0206521
0.0206516
0.0206514
0.0206556
0.0206559
0.0206563
0.0206566
0.0206569
0.020657
0.020657
0.0206569
0.0206578
0.0206597
0.0206616
0.0206628
0.0206635
0.020664
0.0206647
0.0206658
0.0206647
0.0206636
0.0206629
0.0206623
0.0206615
0.0206607
0.0206597
0.0206586
0.0206581
0.0206573
0.0206564
0.0206553
0.0206541
0.0206531
0.0206527
0.0206526
0.0206576
0.0206579
0.0206581
0.0206583
0.0206584
0.0206582
0.0206578
0.0206576
0.0206582
0.0206599
0.0206616
0.0206627
0.0206633
0.0206639
0.0206646
0.0206657
0.0206646
0.0206634
0.0206628
0.0206622
0.0206615
0.0206608
0.0206599
0.020659
0.0206585
0.0206577
0.020657
0.0206559
0.0206549
0.0206542
0.0206539
0.0206539
0.0206594
0.0206596
0.0206597
0.0206597
0.0206596
0.0206592
0.0206587
0.0206583
0.0206586
0.0206601
0.0206615
0.0206625
0.0206631
0.0206637
0.0206644
0.0206656
0.0206645
0.0206633
0.0206626
0.0206621
0.0206615
0.0206609
0.0206601
0.0206593
0.0206589
0.0206583
0.0206576
0.0206567
0.0206559
0.0206554
0.0206553
0.0206553
0.0206608
0.0206609
0.0206609
0.0206608
0.0206605
0.0206601
0.0206595
0.020659
0.0206591
0.0206602
0.0206614
0.0206623
0.0206629
0.0206634
0.0206642
0.0206654
0.0206645
0.0206631
0.0206625
0.020662
0.0206614
0.0206609
0.0206603
0.0206597
0.0206593
0.0206589
0.0206583
0.0206577
0.0206572
0.0206569
0.0206569
0.0206569
0.0206618
0.0206618
0.0206618
0.0206616
0.0206612
0.0206608
0.0206602
0.0206598
0.0206596
0.0206604
0.0206613
0.020662
0.0206626
0.0206632
0.020664
0.0206653
0.0206644
0.020663
0.0206623
0.0206618
0.0206613
0.0206608
0.0206604
0.02066
0.0206597
0.0206595
0.0206593
0.0206589
0.0206586
0.0206585
0.0206586
0.0206586
0.0206624
0.0206624
0.0206623
0.0206621
0.0206618
0.0206613
0.0206608
0.0206604
0.02066
0.0206606
0.0206613
0.0206618
0.0206624
0.0206629
0.0206637
0.0206651
0.0206643
0.0206628
0.020662
0.0206615
0.0206611
0.0206607
0.0206603
0.0206602
0.02066
0.0206602
0.0206602
0.0206601
0.0206601
0.0206601
0.0206602
0.0206602
0.0206629
0.0206628
0.0206627
0.0206625
0.0206622
0.0206618
0.0206614
0.020661
0.0206605
0.0206609
0.0206613
0.0206617
0.0206621
0.0206627
0.0206635
0.0206649
0.0206642
0.0206626
0.0206618
0.0206612
0.0206606
0.0206601
0.0206597
0.0206597
0.0206598
0.0206602
0.0206606
0.0206608
0.0206609
0.020661
0.0206611
0.0206611
0.0206631
0.0206631
0.020663
0.0206628
0.0206626
0.0206622
0.0206618
0.0206615
0.020661
0.0206611
0.0206614
0.0206617
0.020662
0.0206625
0.0206634
0.0206648
0.0206641
0.0206624
0.0206613
0.0206604
0.0206594
0.0206584
0.0206578
0.0206577
0.0206579
0.0206585
0.0206592
0.0206596
0.02066
0.0206601
0.0206602
0.0206602
0.0206633
0.0206633
0.0206632
0.020663
0.0206628
0.0206625
0.0206621
0.0206618
0.0206613
0.0206614
0.0206615
0.0206617
0.020662
0.0206625
0.0206634
0.0206648
0.0206639
0.0206619
0.0206602
0.0206582
0.0206558
0.0206533
0.0206515
0.0206507
0.0206508
0.0206517
0.0206527
0.0206536
0.0206543
0.0206547
0.0206549
0.020655
0.0206633
0.0206633
0.0206632
0.0206631
0.0206629
0.0206627
0.0206624
0.0206621
0.0206616
0.0206616
0.0206617
0.0206619
0.0206622
0.0206627
0.0206636
0.0206649
0.0206637
0.0206608
0.0206572
0.0206517
0.0206446
0.0206371
0.020631
0.0206276
0.0206268
0.0206281
0.0206303
0.0206325
0.0206344
0.0206357
0.0206365
0.0206369
0.0206634
0.0206634
0.0206633
0.0206632
0.0206631
0.0206628
0.0206625
0.0206623
0.0206619
0.0206619
0.0206621
0.0206623
0.0206626
0.0206631
0.0206639
0.020665
0.0206627
0.0206572
0.0206474
0.020631
0.0206086
0.020584
0.0205628
0.0205493
0.0205444
0.0205469
0.0205532
0.0205607
0.0205673
0.0205722
0.0205753
0.0205766
0.020664
0.0206639
0.0206639
0.0206637
0.0206635
0.0206632
0.0206628
0.0206624
0.0206621
0.0206625
0.0206629
0.0206633
0.0206637
0.0206641
0.0206646
0.0206645
0.0206593
0.0206453
0.0206163
0.0205657
0.020495
0.0204155
0.0203437
0.0202939
0.020272
0.0202753
0.0202946
0.02032
0.020344
0.0203623
0.0203739
0.020379
0.0206637
0.0206637
0.0206636
0.0206635
0.0206634
0.0206631
0.0206627
0.0206621
0.0206618
0.0206625
0.020663
0.0206632
0.0206633
0.0206632
0.0206626
0.0206597
0.020646
0.0206084
0.0205271
0.0203859
0.0201903
0.0199717
0.0197729
0.0196287
0.0195548
0.0195468
0.0195866
0.0196505
0.0197169
0.0197709
0.0198062
0.0198224
0.0206608
0.0206608
0.0206608
0.0206608
0.0206608
0.0206606
0.0206604
0.0206601
0.0206595
0.0206593
0.0206589
0.0206582
0.0206572
0.0206556
0.0206528
0.0206452
0.0206162
0.0205353
0.0203613
0.0200676
0.0196768
0.0192574
0.0188838
0.0186056
0.0184416
0.018386
0.0184174
0.0185038
0.0186104
0.018707
0.0187746
0.0188071
0.020654
0.0206541
0.0206543
0.0206545
0.0206546
0.0206546
0.0206543
0.0206537
0.0206525
0.0206511
0.020649
0.0206462
0.0206426
0.020638
0.0206315
0.0206178
0.0205734
0.0204506
0.0201905
0.019766
0.0192265
0.0186715
0.0181829
0.0177999
0.0175346
0.0173859
0.0173429
0.0173827
0.0174718
0.0175723
0.0176524
0.0176942
0.0206378
0.0206381
0.0206386
0.0206393
0.0206398
0.02064
0.0206396
0.0206381
0.0206352
0.0206311
0.0206253
0.0206178
0.0206088
0.0205985
0.0205862
0.020567
0.0205156
0.0203781
0.0200898
0.0196283
0.0190567
0.0184778
0.0179562
0.0175099
0.0171471
0.0168805
0.0167191
0.0166578
0.0166744
0.0167336
0.016797
0.0168353
0.0206036
0.0206043
0.0206057
0.0206073
0.0206088
0.0206093
0.0206081
0.0206045
0.0205976
0.0205878
0.0205744
0.0205578
0.0205388
0.0205185
0.0204974
0.0204726
0.0204237
0.0203014
0.0200436
0.0196287
0.0191117
0.0185744
0.018056
0.0175612
0.0171037
0.0167156
0.0164284
0.0162556
0.0161865
0.0161906
0.0162266
0.0162561
0.0205399
0.0205416
0.0205445
0.0205479
0.0205507
0.0205511
0.0205477
0.0205392
0.0205242
0.0205033
0.0204764
0.0204446
0.0204097
0.0203741
0.0203398
0.020307
0.0202636
0.0201713
0.0199731
0.0196423
0.0192152
0.0187435
0.0182436
0.0177146
0.017178
0.0166813
0.0162771
0.0159982
0.015847
0.015798
0.0158078
0.0158298
0.0204326
0.0204359
0.0204415
0.0204476
0.0204516
0.0204506
0.0204417
0.020423
0.0203935
0.0203542
0.0203063
0.0202524
0.0201956
0.0201394
0.0200872
0.0200422
0.0200005
0.0199371
0.0198009
0.019556
0.0192163
0.0188113
0.0183455
0.0178146
0.0172395
0.0166716
0.0161768
0.0158058
0.0155776
0.0154768
0.0154609
0.0154761
0.0202654
0.0202714
0.0202811
0.0202904
0.0202945
0.0202882
0.0202678
0.0202312
0.0201785
0.0201127
0.0200368
0.0199552
0.0198723
0.0197923
0.0197195
0.0196581
0.0196113
0.0195666
0.0194797
0.0193069
0.0190415
0.0186977
0.0182768
0.017776
0.0172112
0.0166251
0.0160824
0.0156452
0.0153512
0.0152005
0.0151578
0.0151656
0.020021
0.0200312
0.0200461
0.0200578
0.0200579
0.0200395
0.0199984
0.0199344
0.0198502
0.0197514
0.0196435
0.0195324
0.0194231
0.01932
0.0192271
0.0191485
0.0190915
0.0190538
0.0189992
0.0188814
0.0186797
0.0183968
0.0180325
0.0175849
0.0170666
0.0165091
0.0159652
0.0154962
0.0151542
0.0149588
0.0148884
0.0148875
0.0196814
0.0196975
0.0197176
0.0197278
0.0197159
0.0196746
0.0196022
0.0195024
0.019382
0.019249
0.019111
0.0189742
0.0188434
0.0187225
0.0186145
0.0185223
0.018455
0.0184166
0.0183798
0.0183015
0.0181546
0.0179338
0.0176363
0.0172598
0.0168125
0.0163153
0.0158078
0.0153426
0.014976
0.0147454
0.014648
0.0146368
0.019228
0.0192511
0.0192732
0.0192727
0.0192363
0.0191603
0.019049
0.0189114
0.0187576
0.0185973
0.018438
0.0182852
0.018143
0.0180137
0.0178995
0.0178015
0.0177287
0.0176878
0.0176597
0.0176083
0.0175067
0.0173446
0.017117
0.0168206
0.016459
0.0160433
0.0155997
0.0151691
0.0148048
0.014554
0.0144331
0.0144104
0.0186407
0.0186697
0.0186843
0.0186582
0.0185839
0.0184669
0.0183186
0.0181518
0.0179778
0.017805
0.0176398
0.0174858
0.0173455
0.0172202
0.0171106
0.0170167
0.016946
0.0169052
0.0168817
0.0168481
0.0167813
0.0166697
0.0165068
0.0162892
0.0160168
0.0156936
0.0153335
0.0149637
0.0146281
0.0143768
0.0142405
0.0142065
0.0178952
0.0179233
0.0179123
0.017845
0.0177291
0.0175796
0.0174114
0.0172366
0.0170645
0.0169001
0.0167479
0.0166093
0.0164854
0.0163764
0.0162822
0.0162018
0.0161408
0.0161047
0.0160852
0.0160633
0.0160216
0.0159496
0.0158412
0.0156931
0.0155038
0.0152729
0.0150057
0.0147161
0.0144345
0.0142051
0.0140663
0.0140234
0.0169586
0.0169685
0.0169124
0.0168051
0.0166674
0.0165146
0.0163577
0.0162043
0.0160597
0.0159259
0.0158049
0.0156969
0.0156019
0.0155193
0.0154486
0.0153888
0.0153433
0.0153156
0.015301
0.0152874
0.015263
0.0152202
0.0151544
0.0150629
0.0149441
0.0147963
0.0146203
0.0144206
0.0142132
0.0140292
0.0139053
0.0138595
0.0157824
0.0157525
0.0156633
0.0155566
0.0154429
0.0153285
0.015218
0.0151144
0.0150197
0.0149339
0.0148578
0.0147907
0.0147325
0.0146823
0.0146397
0.0146038
0.0145765
0.0145597
0.0145508
0.0145434
0.0145311
0.0145092
0.0144752
0.0144274
0.0143647
0.0142858
0.0141904
0.0140787
0.0139565
0.0138391
0.0137507
0.0137121
0.0143112
0.0142884
0.0142439
0.014199
0.014155
0.0141126
0.0140729
0.0140365
0.0140038
0.0139746
0.013949
0.0139266
0.0139072
0.0138907
0.0138767
0.013865
0.013856
0.0138505
0.0138476
0.0138453
0.0138415
0.013835
0.0138247
0.0138102
0.0137911
0.013767
0.0137378
0.0137032
0.0136643
0.0136251
0.0135929
0.0135766
)
;

boundaryField
{
    movingWall
    {
        type            fixedValue;
        value           uniform 0.0135;
    }
    fixedWalls
    {
        type            zeroGradient;
    }
    floor
    {
        type            zeroGradient;
    }
    frontAndBack
    {
        type            empty;
    }
}


// ************************************************************************* //
