/*--------------------------------*- C++ -*----------------------------------*\
| =========                 |                                                 |
| \\      /  F ield         | OpenFOAM: The Open Source CFD Toolbox           |
|  \\    /   O peration     | Version:  2212                                  |
|   \\  /    A nd           | Website:  www.openfoam.com                      |
|    \\/     M anipulation  |                                                 |
\*---------------------------------------------------------------------------*/
FoamFile
{
    version     2.0;
    format      ascii;
    arch        "LSB;label=64;scalar=64";
    class       volScalarField;
    location    "30";
    object      p;
}
// * * * * * * * * * * * * * * * * * * * * * * * * * * * * * * * * * * * * * //

dimensions      [0 2 -2 0 0 0 0];

internalField   nonuniform List<scalar> 
1024
(
0
1.35224e-05
2.66061e-05
1.15291e-05
-6.69699e-05
-0.000226495
-0.000439063
-0.000641254
-0.000769412
-0.00078608
-0.000712216
-0.000578233
-0.00044
-0.000344057
-0.000284041
-0.0002277
-0.000156795
-0.000101686
-5.6629e-05
2.21803e-05
0.00018782
0.000439866
0.000676294
0.000764512
0.000616861
0.000363075
0.000128352
-3.72772e-05
-0.000135452
-0.000182156
-0.000191958
-0.000182721
-0.0928978
-0.0928864
-0.0928786
-0.0928978
-0.0929737
-0.0931216
-0.093316
-0.0934988
-0.0936118
-0.0936275
-0.0935625
-0.0934354
-0.0933009
-0.0932051
-0.0931438
-0.0930868
-0.0930165
-0.0929614
-0.0929155
-0.0928372
-0.0926788
-0.0924445
-0.0922352
-0.0921678
-0.0923073
-0.0925449
-0.0927607
-0.0929077
-0.0929894
-0.0930245
-0.0930286
-0.0930171
-0.199702
-0.199693
-0.199691
-0.199716
-0.19979
-0.199924
-0.200091
-0.200241
-0.200324
-0.200331
-0.200275
-0.200157
-0.200028
-0.199933
-0.19987
-0.199813
-0.199744
-0.199689
-0.199643
-0.199568
-0.199427
-0.199228
-0.199063
-0.199032
-0.199163
-0.199378
-0.199566
-0.199684
-0.199739
-0.199755
-0.199748
-0.199732
-0.322491
-0.322483
-0.322487
-0.322518
-0.322592
-0.32271
-0.322846
-0.322952
-0.322992
-0.322979
-0.32293
-0.322821
-0.3227
-0.322607
-0.322542
-0.322484
-0.322417
-0.322363
-0.322317
-0.322252
-0.322139
-0.321992
-0.321887
-0.321898
-0.322026
-0.322217
-0.322373
-0.322457
-0.322481
-0.322472
-0.322452
-0.322433
-0.46364
-0.463635
-0.463644
-0.463679
-0.46375
-0.463852
-0.463953
-0.464011
-0.464
-0.463961
-0.463914
-0.463815
-0.463705
-0.463615
-0.463549
-0.463491
-0.463427
-0.463375
-0.463331
-0.463278
-0.463203
-0.463119
-0.463082
-0.463131
-0.463261
-0.463429
-0.463553
-0.463603
-0.463595
-0.463562
-0.463532
-0.463512
-0.625866
-0.625865
-0.625877
-0.625913
-0.625975
-0.626056
-0.626121
-0.626133
-0.626073
-0.626016
-0.625968
-0.625882
-0.625786
-0.625703
-0.625637
-0.62558
-0.625521
-0.625472
-0.625431
-0.625394
-0.625359
-0.625338
-0.625364
-0.625441
-0.625572
-0.625716
-0.625808
-0.625825
-0.625788
-0.625737
-0.625701
-0.625685
-0.812284
-0.812285
-0.812298
-0.812329
-0.812377
-0.812431
-0.812459
-0.812429
-0.81234
-0.81228
-0.812238
-0.812171
-0.812094
-0.812021
-0.811959
-0.811905
-0.811854
-0.811809
-0.811773
-0.811753
-0.811755
-0.811787
-0.81185
-0.81194
-0.812061
-0.812174
-0.812227
-0.81221
-0.812151
-0.812092
-0.812061
-0.812052
-1.02647
-1.02648
-1.02649
-1.02651
-1.02653
-1.02656
-1.02655
-1.02649
-1.0264
-1.02636
-1.02633
-1.02629
-1.02624
-1.02618
-1.02613
-1.02608
-1.02604
-1.026
-1.02598
-1.02597
-1.026
-1.02606
-1.02613
-1.02621
-1.0263
-1.02637
-1.02637
-1.02633
-1.02626
-1.02621
-1.02619
-1.02619
-1.27256
-1.27257
-1.27257
-1.27258
-1.27259
-1.27258
-1.27255
-1.27249
-1.27242
-1.27239
-1.2724
-1.27239
-1.27236
-1.27233
-1.27229
-1.27225
-1.27222
-1.2722
-1.27218
-1.27219
-1.27223
-1.27229
-1.27234
-1.27239
-1.27243
-1.27243
-1.2724
-1.27235
-1.27229
-1.27226
-1.27225
-1.27225
-1.55534
-1.55534
-1.55534
-1.55534
-1.55533
-1.55531
-1.55527
-1.55522
-1.55517
-1.55516
-1.55519
-1.55522
-1.55522
-1.55521
-1.55518
-1.55516
-1.55514
-1.55513
-1.55512
-1.55513
-1.55517
-1.55521
-1.55524
-1.55525
-1.55524
-1.5552
-1.55515
-1.55509
-1.55505
-1.55503
-1.55503
-1.55504
-1.88028
-1.88028
-1.88028
-1.88028
-1.88027
-1.88024
-1.88021
-1.88016
-1.88013
-1.88014
-1.88018
-1.88022
-1.88025
-1.88025
-1.88025
-1.88024
-1.88023
-1.88022
-1.88022
-1.88024
-1.88026
-1.88028
-1.88028
-1.88026
-1.88023
-1.88018
-1.88012
-1.88008
-1.88006
-1.88005
-1.88005
-1.88005
-2.25368
-2.25368
-2.25368
-2.25367
-2.25366
-2.25365
-2.25362
-2.25359
-2.25357
-2.25358
-2.25362
-2.25366
-2.25369
-2.25371
-2.25372
-2.25372
-2.25372
-2.25372
-2.25372
-2.25373
-2.25374
-2.25374
-2.25373
-2.25371
-2.25367
-2.25363
-2.25359
-2.25356
-2.25355
-2.25354
-2.25355
-2.25355
-2.6827
-2.6827
-2.6827
-2.6827
-2.68269
-2.68268
-2.68267
-2.68265
-2.68264
-2.68265
-2.68267
-2.6827
-2.68274
-2.68276
-2.68277
-2.68278
-2.68278
-2.68278
-2.68278
-2.68279
-2.68279
-2.68278
-2.68277
-2.68275
-2.68272
-2.6827
-2.68267
-2.68266
-2.68265
-2.68265
-2.68265
-2.68265
-3.17557
-3.17557
-3.17557
-3.17557
-3.17557
-3.17557
-3.17556
-3.17556
-3.17555
-3.17556
-3.17557
-3.17559
-3.17561
-3.17563
-3.17565
-3.17566
-3.17566
-3.17566
-3.17566
-3.17566
-3.17565
-3.17564
-3.17563
-3.17561
-3.1756
-3.17559
-3.17558
-3.17557
-3.17557
-3.17557
-3.17557
-3.17557
-3.74176
-3.74176
-3.74176
-3.74176
-3.74176
-3.74176
-3.74176
-3.74176
-3.74176
-3.74177
-3.74177
-3.74179
-3.7418
-3.74181
-3.74183
-3.74184
-3.74184
-3.74184
-3.74183
-3.74183
-3.74182
-3.7418
-3.74179
-3.74178
-3.74177
-3.74177
-3.74177
-3.74176
-3.74176
-3.74176
-3.74176
-3.74176
-4.39216
-4.39216
-4.39216
-4.39216
-4.39216
-4.39216
-4.39216
-4.39216
-4.39216
-4.39216
-4.39217
-4.39217
-4.39218
-4.39219
-4.3922
-4.39221
-4.39222
-4.39221
-4.39221
-4.3922
-4.39218
-4.39217
-4.39216
-4.39215
-4.39214
-4.39214
-4.39214
-4.39214
-4.39214
-4.39214
-4.39215
-4.39215
-5.08756
-5.08756
-5.08756
-5.08756
-5.08756
-5.08756
-5.08756
-5.08756
-5.08756
-5.08756
-5.08757
-5.08757
-5.08758
-5.08759
-5.0876
-5.0876
-5.08761
-5.08761
-5.08761
-5.0876
-5.08758
-5.08756
-5.08755
-5.08753
-5.08753
-5.08753
-5.08753
-5.08753
-5.08754
-5.08754
-5.08754
-5.08754
-5.73795
-5.73795
-5.73795
-5.73795
-5.73795
-5.73795
-5.73795
-5.73795
-5.73795
-5.73796
-5.73796
-5.73796
-5.73797
-5.73797
-5.73798
-5.73799
-5.738
-5.73801
-5.73802
-5.73802
-5.73802
-5.738
-5.73798
-5.73796
-5.73795
-5.73794
-5.73794
-5.73794
-5.73795
-5.73795
-5.73796
-5.73796
-6.30415
-6.30415
-6.30415
-6.30415
-6.30415
-6.30415
-6.30415
-6.30415
-6.30415
-6.30415
-6.30416
-6.30416
-6.30416
-6.30417
-6.30418
-6.30419
-6.30421
-6.30423
-6.30425
-6.30428
-6.3043
-6.30431
-6.30429
-6.30427
-6.30423
-6.30421
-6.30419
-6.30419
-6.30419
-6.30419
-6.3042
-6.30421
-6.79705
-6.79705
-6.79705
-6.79705
-6.79705
-6.79705
-6.79705
-6.79705
-6.79705
-6.79706
-6.79706
-6.79706
-6.79707
-6.79707
-6.79708
-6.7971
-6.79712
-6.79715
-6.79719
-6.79725
-6.7973
-6.79733
-6.79733
-6.79731
-6.79726
-6.79721
-6.79718
-6.79715
-6.79715
-6.79715
-6.79716
-6.79717
-7.22615
-7.22615
-7.22615
-7.22615
-7.22615
-7.22615
-7.22615
-7.22615
-7.22615
-7.22615
-7.22615
-7.22616
-7.22616
-7.22617
-7.22618
-7.22619
-7.22622
-7.22626
-7.22631
-7.22639
-7.22646
-7.22652
-7.22653
-7.22651
-7.22646
-7.2264
-7.22635
-7.22631
-7.22628
-7.22628
-7.22629
-7.2263
-7.5997
-7.5997
-7.5997
-7.5997
-7.5997
-7.5997
-7.5997
-7.5997
-7.5997
-7.5997
-7.5997
-7.5997
-7.59971
-7.59971
-7.59972
-7.59974
-7.59977
-7.59981
-7.59987
-7.59995
-7.60003
-7.6001
-7.60012
-7.60011
-7.60006
-7.6
-7.59993
-7.59987
-7.59983
-7.59982
-7.59983
-7.59984
-7.9249
-7.9249
-7.9249
-7.9249
-7.9249
-7.9249
-7.9249
-7.9249
-7.9249
-7.9249
-7.9249
-7.9249
-7.9249
-7.9249
-7.92491
-7.92493
-7.92496
-7.925
-7.92506
-7.92513
-7.92521
-7.92527
-7.92529
-7.92528
-7.92524
-7.92518
-7.9251
-7.92502
-7.92497
-7.92494
-7.92494
-7.92496
-8.20801
-8.20801
-8.20801
-8.20801
-8.20801
-8.20801
-8.20801
-8.208
-8.208
-8.20799
-8.20799
-8.20799
-8.20799
-8.208
-8.20801
-8.20802
-8.20805
-8.20809
-8.20814
-8.20821
-8.20829
-8.20833
-8.20835
-8.20833
-8.20828
-8.2082
-8.20811
-8.20801
-8.20793
-8.20789
-8.20788
-8.2079
-8.45447
-8.45447
-8.45448
-8.45448
-8.45447
-8.45447
-8.45446
-8.45446
-8.45445
-8.45444
-8.45444
-8.45444
-8.45444
-8.45444
-8.45445
-8.45447
-8.45449
-8.45453
-8.45458
-8.45465
-8.45472
-8.45475
-8.45476
-8.45472
-8.45465
-8.45455
-8.45442
-8.45429
-8.45418
-8.4541
-8.45408
-8.45409
-8.66904
-8.66904
-8.66905
-8.66904
-8.66904
-8.66903
-8.66902
-8.66901
-8.669
-8.66899
-8.66899
-8.66898
-8.66898
-8.66899
-8.669
-8.66901
-8.66903
-8.66907
-8.66912
-8.66919
-8.66925
-8.66928
-8.66927
-8.66921
-8.66911
-8.66896
-8.66879
-8.66861
-8.66844
-8.66831
-8.66825
-8.66825
-8.85585
-8.85585
-8.85585
-8.85584
-8.85583
-8.85581
-8.8558
-8.85578
-8.85577
-8.85576
-8.85576
-8.85575
-8.85575
-8.85576
-8.85576
-8.85578
-8.8558
-8.85584
-8.85589
-8.85595
-8.85601
-8.85603
-8.85601
-8.85593
-8.85579
-8.8556
-8.85535
-8.85509
-8.85485
-8.85464
-8.85453
-8.85449
-9.0185
-9.0185
-9.01849
-9.01847
-9.01845
-9.01842
-9.0184
-9.01838
-9.01836
-9.01835
-9.01835
-9.01834
-9.01834
-9.01835
-9.01836
-9.01837
-9.01839
-9.01843
-9.01848
-9.01854
-9.01859
-9.01861
-9.01858
-9.01848
-9.0183
-9.01805
-9.01773
-9.01738
-9.01702
-9.01671
-9.01649
-9.01639
-9.16015
-9.16013
-9.1601
-9.16005
-9.16001
-9.15997
-9.15994
-9.15992
-9.15991
-9.1599
-9.15989
-9.15989
-9.15989
-9.15989
-9.1599
-9.15991
-9.15994
-9.15997
-9.16002
-9.16008
-9.16013
-9.16015
-9.1601
-9.15998
-9.15977
-9.15947
-9.15908
-9.15863
-9.15813
-9.15766
-9.15729
-9.15706
-9.28356
-9.28349
-9.28339
-9.2833
-9.28324
-9.28319
-9.28316
-9.28313
-9.28312
-9.28311
-9.2831
-9.2831
-9.2831
-9.28311
-9.28312
-9.28313
-9.28316
-9.28319
-9.28325
-9.2833
-9.28335
-9.28336
-9.2833
-9.28316
-9.28293
-9.2826
-9.28216
-9.28161
-9.28098
-9.28029
-9.27965
-9.2791
-9.39133
-9.39093
-9.39069
-9.39056
-9.39048
-9.39043
-9.3904
-9.39038
-9.39037
-9.39037
-9.39036
-9.39036
-9.39037
-9.39037
-9.39038
-9.3904
-9.39043
-9.39046
-9.39052
-9.39057
-9.39062
-9.39062
-9.39056
-9.39042
-9.39018
-9.38982
-9.38935
-9.38874
-9.388
-9.38707
-9.38596
-9.3847
-9.48572
-9.48448
-9.48402
-9.48389
-9.48382
-9.48378
-9.48375
-9.48374
-9.48374
-9.48374
-9.48374
-9.48374
-9.48375
-9.48376
-9.48377
-9.48378
-9.48381
-9.48385
-9.4839
-9.48396
-9.484
-9.484
-9.48394
-9.4838
-9.48355
-9.4832
-9.48271
-9.48208
-9.48126
-9.48015
-9.47854
-9.47627
)
;

boundaryField
{
    movingWall
    {
        type            calculated;
        value           nonuniform List<scalar> 
32
(
-9.52919
-9.52794
-9.52748
-9.52735
-9.52728
-9.52724
-9.52722
-9.52721
-9.5272
-9.5272
-9.5272
-9.5272
-9.52721
-9.52722
-9.52723
-9.52724
-9.52727
-9.52731
-9.52736
-9.52742
-9.52746
-9.52746
-9.5274
-9.52726
-9.52701
-9.52666
-9.52617
-9.52554
-9.52472
-9.52361
-9.522
-9.51973
)
;
    }
    fixedWalls
    {
        type            calculated;
        value           nonuniform List<scalar> 
64
(
6.93889e-18
-0.0928978
-0.199702
-0.322491
-0.46364
-0.625866
-0.812284
-1.02647
-1.27256
-1.55534
-1.88028
-2.25368
-2.6827
-3.17557
-3.74176
-4.39216
-5.08756
-5.73795
-6.30415
-6.79705
-7.22615
-7.5997
-7.9249
-8.20801
-8.45447
-8.66904
-8.85585
-9.0185
-9.16015
-9.28356
-9.39133
-9.48572
-0.000182721
-0.0930171
-0.199732
-0.322433
-0.463512
-0.625685
-0.812052
-1.02619
-1.27225
-1.55504
-1.88005
-2.25355
-2.68265
-3.17557
-3.74176
-4.39215
-5.08754
-5.73796
-6.30421
-6.79717
-7.2263
-7.59984
-7.92496
-8.2079
-8.45409
-8.66825
-8.85449
-9.01639
-9.15706
-9.2791
-9.3847
-9.47627
)
;
    }
    floor
    {
        type            calculated;
        value           nonuniform List<scalar> 
32
(
0.0432106
0.043225
0.0432396
0.0432253
0.0431461
0.042984
0.0427682
0.0425632
0.0424331
0.0424161
0.042491
0.0426259
0.0427648
0.0428608
0.0429206
0.0429769
0.0430479
0.043103
0.043148
0.043227
0.0433938
0.0436489
0.0438901
0.0439822
0.0438332
0.043576
0.0433379
0.0431696
0.0430692
0.0430209
0.0430102
0.0430191
)
;
    }
    frontAndBack
    {
        type            empty;
    }
}


// ************************************************************************* //
