/*--------------------------------*- C++ -*----------------------------------*\
| =========                 |                                                 |
| \\      /  F ield         | OpenFOAM: The Open Source CFD Toolbox           |
|  \\    /   O peration     | Version:  2212                                  |
|   \\  /    A nd           | Website:  www.openfoam.com                      |
|    \\/     M anipulation  |                                                 |
\*---------------------------------------------------------------------------*/
FoamFile
{
    version     2.0;
    format      ascii;
    arch        "LSB;label=64;scalar=64";
    class       volScalarField;
    location    "30";
    object      SIC;
}
// * * * * * * * * * * * * * * * * * * * * * * * * * * * * * * * * * * * * * //

dimensions      [1 -3 0 0 0 0 0];

internalField   nonuniform List<scalar> 
1024
(
0.0944795
0.0944795
0.0944795
0.0944794
0.0944794
0.0944793
0.0944792
0.0944792
0.0944791
0.0944789
0.0944787
0.0944785
0.0944785
0.0944784
0.0944784
0.0944783
0.0944784
0.0944785
0.0944785
0.0944786
0.0944786
0.0944787
0.0944789
0.094479
0.094479
0.0944791
0.0944792
0.0944793
0.0944795
0.0944796
0.0944797
0.0944797
0.0944795
0.0944795
0.0944795
0.0944794
0.0944793
0.0944793
0.0944792
0.0944791
0.094479
0.0944789
0.0944787
0.0944785
0.0944785
0.0944784
0.0944784
0.0944783
0.0944784
0.0944785
0.0944785
0.0944786
0.0944786
0.0944787
0.0944789
0.094479
0.094479
0.0944791
0.0944792
0.0944793
0.0944794
0.0944796
0.0944796
0.0944797
0.0944795
0.0944794
0.0944794
0.0944793
0.0944793
0.0944792
0.0944792
0.0944791
0.094479
0.0944788
0.0944787
0.0944785
0.0944785
0.0944784
0.0944784
0.0944783
0.0944784
0.0944785
0.0944785
0.0944786
0.0944786
0.0944787
0.0944789
0.094479
0.094479
0.0944791
0.0944792
0.0944793
0.0944794
0.0944795
0.0944796
0.0944796
0.0944793
0.0944793
0.0944793
0.0944792
0.0944792
0.0944791
0.0944791
0.0944791
0.094479
0.0944788
0.0944787
0.0944785
0.0944785
0.0944784
0.0944784
0.0944783
0.0944784
0.0944785
0.0944785
0.0944786
0.0944786
0.0944787
0.0944788
0.0944789
0.094479
0.0944791
0.0944791
0.0944792
0.0944794
0.0944794
0.0944795
0.0944795
0.0944792
0.0944791
0.0944791
0.0944791
0.094479
0.094479
0.094479
0.0944791
0.094479
0.0944788
0.0944787
0.0944785
0.0944785
0.0944784
0.0944784
0.0944783
0.0944784
0.0944785
0.0944785
0.0944786
0.0944787
0.0944787
0.0944788
0.0944789
0.094479
0.094479
0.0944791
0.0944792
0.0944793
0.0944794
0.0944794
0.0944794
0.094479
0.094479
0.0944789
0.0944789
0.0944789
0.0944789
0.094479
0.094479
0.0944789
0.0944788
0.0944787
0.0944786
0.0944785
0.0944785
0.0944784
0.0944783
0.0944784
0.0944785
0.0944785
0.0944786
0.0944787
0.0944787
0.0944788
0.0944789
0.0944789
0.094479
0.094479
0.0944791
0.0944792
0.0944793
0.0944793
0.0944793
0.0944788
0.0944788
0.0944788
0.0944788
0.0944788
0.0944788
0.0944789
0.0944789
0.0944789
0.0944788
0.0944787
0.0944786
0.0944785
0.0944785
0.0944784
0.0944783
0.0944784
0.0944785
0.0944786
0.0944786
0.0944787
0.0944787
0.0944788
0.0944788
0.0944789
0.0944789
0.094479
0.0944791
0.0944791
0.0944792
0.0944792
0.0944792
0.0944787
0.0944787
0.0944787
0.0944787
0.0944787
0.0944788
0.0944788
0.0944789
0.0944789
0.0944788
0.0944787
0.0944786
0.0944785
0.0944785
0.0944784
0.0944783
0.0944784
0.0944785
0.0944786
0.0944786
0.0944787
0.0944787
0.0944788
0.0944788
0.0944788
0.0944789
0.0944789
0.094479
0.094479
0.094479
0.094479
0.094479
0.0944786
0.0944786
0.0944786
0.0944786
0.0944787
0.0944787
0.0944788
0.0944788
0.0944788
0.0944787
0.0944787
0.0944786
0.0944786
0.0944785
0.0944784
0.0944783
0.0944784
0.0944785
0.0944786
0.0944786
0.0944787
0.0944787
0.0944787
0.0944788
0.0944788
0.0944788
0.0944788
0.0944789
0.0944789
0.0944789
0.0944789
0.0944789
0.0944786
0.0944786
0.0944786
0.0944786
0.0944786
0.0944787
0.0944787
0.0944787
0.0944788
0.0944787
0.0944787
0.0944786
0.0944786
0.0944785
0.0944785
0.0944783
0.0944784
0.0944785
0.0944786
0.0944786
0.0944787
0.0944787
0.0944788
0.0944788
0.0944788
0.0944788
0.0944788
0.0944788
0.0944788
0.0944788
0.0944788
0.0944788
0.0944785
0.0944785
0.0944785
0.0944786
0.0944786
0.0944786
0.0944787
0.0944787
0.0944787
0.0944787
0.0944787
0.0944786
0.0944786
0.0944786
0.0944785
0.0944784
0.0944784
0.0944786
0.0944786
0.0944787
0.0944787
0.0944788
0.0944788
0.0944788
0.0944788
0.0944788
0.0944787
0.0944787
0.0944787
0.0944787
0.0944787
0.0944787
0.0944785
0.0944785
0.0944785
0.0944785
0.0944786
0.0944786
0.0944786
0.0944787
0.0944787
0.0944787
0.0944787
0.0944786
0.0944786
0.0944786
0.0944785
0.0944784
0.0944784
0.0944786
0.0944787
0.0944788
0.0944788
0.0944789
0.094479
0.094479
0.094479
0.0944789
0.0944789
0.0944788
0.0944788
0.0944788
0.0944788
0.0944788
0.0944785
0.0944785
0.0944785
0.0944785
0.0944785
0.0944786
0.0944786
0.0944786
0.0944787
0.0944787
0.0944787
0.0944786
0.0944786
0.0944786
0.0944785
0.0944784
0.0944784
0.0944786
0.0944788
0.0944789
0.0944792
0.0944794
0.0944795
0.0944796
0.0944796
0.0944795
0.0944794
0.0944793
0.0944793
0.0944792
0.0944792
0.0944792
0.0944785
0.0944785
0.0944785
0.0944785
0.0944785
0.0944786
0.0944786
0.0944786
0.0944786
0.0944786
0.0944786
0.0944786
0.0944786
0.0944786
0.0944785
0.0944784
0.0944785
0.0944787
0.094479
0.0944795
0.0944801
0.0944808
0.0944813
0.0944816
0.0944817
0.0944815
0.0944814
0.0944812
0.094481
0.0944809
0.0944808
0.0944808
0.0944785
0.0944785
0.0944785
0.0944785
0.0944785
0.0944785
0.0944786
0.0944786
0.0944786
0.0944786
0.0944786
0.0944786
0.0944786
0.0944785
0.0944784
0.0944784
0.0944786
0.094479
0.0944799
0.0944813
0.0944832
0.0944854
0.0944872
0.0944884
0.0944888
0.0944886
0.094488
0.0944874
0.0944868
0.0944864
0.0944861
0.094486
0.0944784
0.0944784
0.0944784
0.0944785
0.0944785
0.0944785
0.0944785
0.0944786
0.0944786
0.0944786
0.0944785
0.0944785
0.0944785
0.0944784
0.0944784
0.0944784
0.0944789
0.0944801
0.0944826
0.094487
0.0944931
0.0945
0.0945062
0.0945105
0.0945124
0.0945122
0.0945105
0.0945083
0.0945062
0.0945046
0.0945036
0.0945032
0.0944785
0.0944785
0.0944785
0.0944785
0.0944785
0.0944785
0.0944785
0.0944786
0.0944786
0.0944786
0.0944785
0.0944785
0.0944785
0.0944785
0.0944786
0.0944788
0.09448
0.0944833
0.0944903
0.0945026
0.0945195
0.0945385
0.0945557
0.0945682
0.0945746
0.0945753
0.0945719
0.0945663
0.0945606
0.0945559
0.0945528
0.0945514
0.0944787
0.0944787
0.0944787
0.0944787
0.0944787
0.0944787
0.0944787
0.0944788
0.0944788
0.0944788
0.0944789
0.0944789
0.094479
0.0944792
0.0944794
0.0944801
0.0944826
0.0944896
0.0945047
0.0945302
0.0945641
0.0946004
0.0946328
0.094657
0.0946712
0.094676
0.0946733
0.0946658
0.0946566
0.0946482
0.0946423
0.0946395
0.0944793
0.0944793
0.0944793
0.0944793
0.0944792
0.0944792
0.0944793
0.0944793
0.0944794
0.0944796
0.0944797
0.09448
0.0944803
0.0944807
0.0944813
0.0944824
0.0944863
0.0944969
0.0945195
0.0945563
0.0946031
0.0946513
0.0946936
0.0947269
0.0947499
0.0947628
0.0947665
0.0947631
0.0947553
0.0947466
0.0947397
0.094736
0.0944807
0.0944807
0.0944806
0.0944806
0.0944805
0.0944805
0.0944806
0.0944807
0.0944809
0.0944813
0.0944818
0.0944824
0.0944832
0.0944841
0.0944852
0.0944869
0.0944913
0.0945032
0.0945282
0.0945683
0.0946178
0.0946681
0.0947133
0.094752
0.0947835
0.0948066
0.0948206
0.094826
0.0948245
0.0948194
0.0948139
0.0948106
0.0944837
0.0944836
0.0944835
0.0944833
0.0944832
0.0944832
0.0944833
0.0944836
0.0944842
0.0944851
0.0944862
0.0944877
0.0944893
0.0944911
0.0944929
0.094495
0.0944993
0.0945099
0.0945322
0.0945682
0.0946131
0.0946597
0.0947047
0.0947476
0.0947873
0.094821
0.0948459
0.0948609
0.0948669
0.0948665
0.0948634
0.0948608
0.0944892
0.094489
0.0944888
0.0944885
0.0944883
0.0944882
0.0944885
0.0944893
0.0944906
0.0944924
0.0944947
0.0944975
0.0945005
0.0945036
0.0945066
0.0945094
0.0945132
0.0945212
0.0945384
0.094567
0.0946041
0.094645
0.0946884
0.0947343
0.0947808
0.0948239
0.094859
0.0948832
0.0948963
0.0949006
0.0948997
0.0948978
0.0944985
0.0944982
0.0944977
0.0944972
0.0944969
0.0944969
0.0944977
0.0944993
0.0945019
0.0945053
0.0945095
0.0945141
0.0945191
0.0945239
0.0945285
0.0945324
0.094536
0.0945415
0.0945533
0.0945745
0.094604
0.0946391
0.0946795
0.0947256
0.0947755
0.0948248
0.0948677
0.0948999
0.0949197
0.0949285
0.0949298
0.0949285
0.094513
0.0945125
0.0945116
0.0945108
0.0945105
0.094511
0.0945128
0.094516
0.0945205
0.0945263
0.0945328
0.0945399
0.0945471
0.0945541
0.0945604
0.0945657
0.0945698
0.0945736
0.0945812
0.0945962
0.0946192
0.094649
0.0946855
0.094729
0.094778
0.0948288
0.0948759
0.0949138
0.0949394
0.0949524
0.0949561
0.0949555
0.0945342
0.0945333
0.094532
0.094531
0.094531
0.0945326
0.0945362
0.0945417
0.094549
0.0945576
0.094567
0.0945766
0.0945861
0.094595
0.0946031
0.0946099
0.0946148
0.0946181
0.0946228
0.0946331
0.0946506
0.0946751
0.0947067
0.0947455
0.0947905
0.0948389
0.0948861
0.0949268
0.0949565
0.0949734
0.0949795
0.0949796
0.0945637
0.0945623
0.0945605
0.0945596
0.0945607
0.0945643
0.0945705
0.0945792
0.0945896
0.0946012
0.0946132
0.094625
0.0946364
0.0946469
0.0946562
0.0946642
0.0946701
0.0946734
0.0946766
0.0946834
0.0946961
0.0947153
0.0947411
0.0947737
0.0948126
0.0948557
0.0948997
0.0949401
0.0949719
0.0949919
0.0950004
0.0950014
0.094603
0.094601
0.0945991
0.0945991
0.0946023
0.0946089
0.0946185
0.0946305
0.0946438
0.0946577
0.0946715
0.0946848
0.0946971
0.0947084
0.0947183
0.0947268
0.0947331
0.0947366
0.0947391
0.0947435
0.0947523
0.0947664
0.0947861
0.0948119
0.0948432
0.0948793
0.0949178
0.0949552
0.0949868
0.0950085
0.095019
0.095021
0.094654
0.0946514
0.0946502
0.0946524
0.0946589
0.094669
0.0946819
0.0946964
0.0947115
0.0947265
0.0947408
0.0947542
0.0947663
0.0947772
0.0947867
0.0947949
0.094801
0.0948045
0.0948066
0.0948095
0.0948153
0.094825
0.0948391
0.094858
0.0948816
0.0949096
0.0949409
0.094973
0.0950021
0.0950239
0.0950357
0.0950387
0.0947186
0.0947162
0.0947172
0.094723
0.0947331
0.094746
0.0947606
0.0947758
0.0947907
0.094805
0.0948182
0.0948302
0.094841
0.0948504
0.0948586
0.0948656
0.0948709
0.094874
0.0948757
0.0948776
0.0948812
0.0948874
0.0948968
0.0949097
0.0949261
0.0949462
0.0949693
0.0949945
0.0950189
0.0950388
0.0950509
0.0950546
0.0947999
0.094799
0.0948039
0.0948132
0.0948252
0.0948384
0.094852
0.0948654
0.0948779
0.0948895
0.0949
0.0949094
0.0949176
0.0949248
0.0949309
0.0949361
0.0949401
0.0949425
0.0949437
0.0949449
0.094947
0.0949507
0.0949564
0.0949644
0.0949747
0.0949875
0.0950028
0.0950201
0.0950381
0.0950541
0.0950648
0.0950688
0.094902
0.0949046
0.0949123
0.0949216
0.0949314
0.0949413
0.0949509
0.0949599
0.0949681
0.0949756
0.0949822
0.094988
0.0949931
0.0949974
0.0950011
0.0950042
0.0950066
0.095008
0.0950088
0.0950095
0.0950105
0.0950124
0.0950154
0.0950195
0.095025
0.0950318
0.0950401
0.0950498
0.0950604
0.0950706
0.0950782
0.0950816
0.0950296
0.0950316
0.0950355
0.0950393
0.0950432
0.0950468
0.0950503
0.0950534
0.0950563
0.0950588
0.095061
0.095063
0.0950647
0.0950661
0.0950673
0.0950683
0.0950691
0.0950696
0.0950698
0.09507
0.0950704
0.0950709
0.0950718
0.0950731
0.0950747
0.0950768
0.0950794
0.0950824
0.0950857
0.0950891
0.0950919
0.0950934
)
;

boundaryField
{
    movingWall
    {
        type            fixedValue;
        value           uniform 0.0951;
    }
    fixedWalls
    {
        type            zeroGradient;
    }
    floor
    {
        type            zeroGradient;
    }
    frontAndBack
    {
        type            empty;
    }
}


// ************************************************************************* //
