/*--------------------------------*- C++ -*----------------------------------*\
| =========                 |                                                 |
| \\      /  F ield         | OpenFOAM: The Open Source CFD Toolbox           |
|  \\    /   O peration     | Version:  2212                                  |
|   \\  /    A nd           | Website:  www.openfoam.com                      |
|    \\/     M anipulation  |                                                 |
\*---------------------------------------------------------------------------*/
FoamFile
{
    version     2.0;
    format      ascii;
    arch        "LSB;label=64;scalar=64";
    class       volVectorField;
    location    "30";
    object      U;
}
// * * * * * * * * * * * * * * * * * * * * * * * * * * * * * * * * * * * * * //

dimensions      [0 1 -1 0 0 0 0];

internalField   nonuniform List<vector> 
1024
(
(-6.67292e-05 5.90879e-05 0)
(0.00010586 -6.63439e-05 0)
(0.00102938 -0.000259521 0)
(0.00276375 -0.000371676 0)
(0.00484603 -0.000304903 0)
(0.00639527 -9.11695e-05 0)
(0.00662686 0.000125884 0)
(0.00524728 0.000259964 0)
(0.00249782 0.000283641 0)
(-0.00059464 0.00018251 0)
(-0.00228254 7.14743e-05 0)
(-0.00269494 -5.62286e-06 0)
(-0.00227166 -3.54157e-05 0)
(-0.00163426 -2.45905e-05 0)
(-0.00127676 -6.39588e-06 0)
(-0.00125332 2.20442e-06 0)
(-0.00126825 -2.37952e-06 0)
(-0.00122882 1.14703e-06 0)
(-0.00150201 2.50464e-05 0)
(-0.00245178 6.77005e-05 0)
(-0.00378154 8.78082e-05 0)
(-0.00425146 7.24751e-06 0)
(-0.00276077 -0.000213658 0)
(0.00152318 -0.000415689 0)
(0.00548045 -0.000294695 0)
(0.00745958 -4.07508e-05 0)
(0.00756988 0.000163629 0)
(0.00645821 0.000290707 0)
(0.00468941 0.000361802 0)
(0.00273487 0.000379523 0)
(0.00106835 0.000302631 0)
(0.000113831 0.000109462 0)
(7.78635e-06 -6.86933e-05 0)
(0.000694907 -0.000923815 0)
(0.00265563 -0.00200197 0)
(0.00589441 -0.0025832 0)
(0.00971012 -0.00221566 0)
(0.0128139 -0.000985742 0)
(0.0136888 0.00049721 0)
(0.0113038 0.00165802 0)
(0.00573835 0.00211186 0)
(-0.00131713 0.00151743 0)
(-0.00518351 0.000598289 0)
(-0.0061719 -4.55937e-06 0)
(-0.00535476 -0.000230729 0)
(-0.00405858 -0.000178815 0)
(-0.00330034 -5.54525e-05 0)
(-0.00324068 8.17812e-06 0)
(-0.00328108 -8.8857e-06 0)
(-0.00322156 2.70386e-05 0)
(-0.0038309 0.000206549 0)
(-0.00578148 0.000463606 0)
(-0.00820772 0.00044903 0)
(-0.00851974 -0.000260169 0)
(-0.00490962 -0.00180248 0)
(0.00373222 -0.00294292 0)
(0.0108905 -0.00227803 0)
(0.0149644 -0.000829702 0)
(0.0157315 0.00060836 0)
(0.013946 0.00176082 0)
(0.0105664 0.00257958 0)
(0.00652 0.00293534 0)
(0.00282283 0.00254558 0)
(0.000384209 0.001163 0)
(0.000100625 -0.000598877 0)
(0.00120804 -0.00259083 0)
(0.00358004 -0.00469098 0)
(0.00709658 -0.00575898 0)
(0.0111568 -0.00504279 0)
(0.0146962 -0.00255606 0)
(0.0161026 0.000760576 0)
(0.013645 0.00364763 0)
(0.00712342 0.00504144 0)
(-0.0019019 0.00381986 0)
(-0.00688674 0.00153902 0)
(-0.00825293 2.84822e-05 0)
(-0.00733542 -0.000530282 0)
(-0.00581506 -0.00042417 0)
(-0.0048905 -0.000137286 0)
(-0.0048008 1.73396e-05 0)
(-0.00484809 -1.68746e-05 0)
(-0.00478927 7.56892e-05 0)
(-0.00552634 0.000495923 0)
(-0.00770558 0.00102512 0)
(-0.0100341 0.000811648 0)
(-0.00940356 -0.00100149 0)
(-0.00422716 -0.0044321 0)
(0.00523492 -0.00657271 0)
(0.012574 -0.00522338 0)
(0.0172647 -0.0023019 0)
(0.0185918 0.000909115 0)
(0.0168151 0.00373924 0)
(0.012981 0.00591111 0)
(0.00818155 0.00703641 0)
(0.00365576 0.00644597 0)
(0.000520797 0.00327694 0)
(0.000159821 -0.00149737 0)
(0.00144623 -0.0048623 0)
(0.00377201 -0.00787739 0)
(0.00691372 -0.00928328 0)
(0.0104164 -0.00819817 0)
(0.0135769 -0.00446515 0)
(0.0151091 0.000927443 0)
(0.0129173 0.00600264 0)
(0.00658885 0.00869586 0)
(-0.00264098 0.00679241 0)
(-0.00767031 0.0028068 0)
(-0.00917966 0.000106364 0)
(-0.00834802 -0.000888715 0)
(-0.00690961 -0.000726974 0)
(-0.00599698 -0.000243588 0)
(-0.00588036 2.66053e-05 0)
(-0.0059056 -2.73742e-05 0)
(-0.00583221 0.000135365 0)
(-0.00646121 0.000823142 0)
(-0.00820222 0.00158555 0)
(-0.00960868 0.000956754 0)
(-0.00768095 -0.00229868 0)
(-0.00171156 -0.00760267 0)
(0.00601154 -0.0103628 0)
(0.0120704 -0.00848041 0)
(0.0162803 -0.00411534 0)
(0.0177017 0.00112783 0)
(0.0160533 0.00606461 0)
(0.0123171 0.00996557 0)
(0.0076383 0.0120602 0)
(0.00331278 0.0112212 0)
(0.00043235 0.0058784 0)
(0.000186139 -0.00263304 0)
(0.00142062 -0.00737283 0)
(0.0033817 -0.0110363 0)
(0.00580225 -0.0125394 0)
(0.00834161 -0.0110539 0)
(0.0106097 -0.00624091 0)
(0.011806 0.00112563 0)
(0.00993964 0.00849224 0)
(0.00450615 0.0125535 0)
(-0.00352052 0.00992797 0)
(-0.00774019 0.0042102 0)
(-0.00915891 0.000222872 0)
(-0.00852763 -0.00124448 0)
(-0.00737109 -0.0010371 0)
(-0.00659258 -0.000360454 0)
(-0.00644869 3.11456e-05 0)
(-0.00641975 -4.63009e-05 0)
(-0.00629803 0.000177222 0)
(-0.00661402 0.0010736 0)
(-0.007466 0.00193217 0)
(-0.00752506 0.000685998 0)
(-0.00444123 -0.0040472 0)
(0.00107778 -0.0106111 0)
(0.00615574 -0.0135326 0)
(0.0103183 -0.01138 0)
(0.0133666 -0.0057942 0)
(0.0143692 0.0014667 0)
(0.012742 0.00863144 0)
(0.00937674 0.0142774 0)
(0.00543404 0.0171485 0)
(0.00210737 0.0157329 0)
(0.000199399 0.00812363 0)
(0.000176041 -0.00382617 0)
(0.00115946 -0.00972813 0)
(0.00253103 -0.0137114 0)
(0.00403223 -0.0150571 0)
(0.00541112 -0.0131201 0)
(0.00650941 -0.00744102 0)
(0.00703184 0.00155712 0)
(0.00557224 0.0109154 0)
(0.00151027 0.0160261 0)
(-0.00414821 0.0127353 0)
(-0.00716406 0.00554463 0)
(-0.00831617 0.000370759 0)
(-0.00797681 -0.00153707 0)
(-0.00723205 -0.00130651 0)
(-0.00666977 -0.000475433 0)
(-0.00650158 2.32555e-05 0)
(-0.006393 -8.26089e-05 0)
(-0.00619436 0.000169258 0)
(-0.00608342 0.00113831 0)
(-0.00586796 0.00188255 0)
(-0.00449024 -0.000118286 0)
(-0.000905653 -0.00600525 0)
(0.00295159 -0.0128615 0)
(0.0055224 -0.0157118 0)
(0.00760539 -0.0134408 0)
(0.00913049 -0.00689133 0)
(0.00935289 0.00221764 0)
(0.00773053 0.0113935 0)
(0.00504573 0.0183337 0)
(0.00238985 0.0213317 0)
(0.000606 0.0188254 0)
(-4.04776e-05 0.00929486 0)
(0.000128993 -0.0048301 0)
(0.000704071 -0.0114644 0)
(0.00133988 -0.0154112 0)
(0.00182099 -0.0163691 0)
(0.0019836 -0.0139421 0)
(0.00183371 -0.00767527 0)
(0.00155391 0.00234232 0)
(0.000796565 0.0129746 0)
(-0.0013319 0.0185144 0)
(-0.00420442 0.0147802 0)
(-0.00590494 0.00663425 0)
(-0.00672982 0.000562843 0)
(-0.00678009 -0.00169704 0)
(-0.00653175 -0.00148485 0)
(-0.006245 -0.000574163 0)
(-0.00607059 -6.02177e-06 0)
(-0.00587571 -0.000144239 0)
(-0.00559009 8.96919e-05 0)
(-0.00505992 0.000944699 0)
(-0.00388447 0.00133029 0)
(-0.00144906 -0.00139512 0)
(0.00167292 -0.00776053 0)
(0.00342922 -0.014005 0)
(0.00389917 -0.0166653 0)
(0.00393858 -0.0142361 0)
(0.00378476 -0.0069543 0)
(0.00310867 0.00366494 0)
(0.00186138 0.0141424 0)
(0.000408516 0.0213781 0)
(-0.000478609 0.0235052 0)
(-0.000592963 0.0196124 0)
(-0.000181887 0.00916243 0)
(5.23226e-05 -0.00534205 0)
(0.000129182 -0.0120726 0)
(-3.06654e-05 -0.0156161 0)
(-0.000566465 -0.0159723 0)
(-0.00150034 -0.0129977 0)
(-0.00262863 -0.00645292 0)
(-0.00336309 0.00331977 0)
(-0.0031574 0.0136446 0)
(-0.00313951 0.0192781 0)
(-0.00357739 0.0157275 0)
(-0.00397812 0.00735097 0)
(-0.00453378 0.000847837 0)
(-0.00505843 -0.00164065 0)
(-0.00534737 -0.00151511 0)
(-0.00537847 -0.000634327 0)
(-0.00524144 -6.27633e-05 0)
(-0.00498671 -0.000234473 0)
(-0.00462197 -7.53824e-05 0)
(-0.00378658 0.000479595 0)
(-0.00200676 0.000303661 0)
(0.000636412 -0.00289467 0)
(0.00250873 -0.00866283 0)
(0.00254239 -0.0140259 0)
(0.0012526 -0.0161415 0)
(-0.000540459 -0.0132753 0)
(-0.0021429 -0.0053829 0)
(-0.00313454 0.00552367 0)
(-0.00332706 0.0154835 0)
(-0.00312136 0.0217137 0)
(-0.00234701 0.0226887 0)
(-0.00124337 0.0179849 0)
(-0.000222771 0.00790031 0)
(-3.61771e-05 -0.005119 0)
(-0.000442064 -0.0111692 0)
(-0.00129717 -0.0139548 0)
(-0.002604 -0.0137702 0)
(-0.00419207 -0.0107176 0)
(-0.00567184 -0.0047883 0)
(-0.00630541 0.00363795 0)
(-0.00544785 0.0127724 0)
(-0.00385175 0.0182229 0)
(-0.00238806 0.0153971 0)
(-0.00165788 0.0076121 0)
(-0.00205743 0.00128699 0)
(-0.003045 -0.00128554 0)
(-0.00384372 -0.00133982 0)
(-0.00420704 -0.000620862 0)
(-0.00417771 -0.000136996 0)
(-0.0039341 -0.000345181 0)
(-0.00353341 -0.000321413 0)
(-0.00256809 -0.000193339 0)
(-0.000766381 -0.000933529 0)
(0.00123699 -0.00403182 0)
(0.00187466 -0.00874275 0)
(0.000614699 -0.012881 0)
(-0.00202631 -0.0139798 0)
(-0.00482659 -0.0107891 0)
(-0.00682137 -0.00352489 0)
(-0.00727196 0.00586257 0)
(-0.00641061 0.0142925 0)
(-0.00491467 0.0191832 0)
(-0.00307512 0.0192284 0)
(-0.00135668 0.0145049 0)
(-0.00018684 0.00599344 0)
(-9.503e-05 -0.00408587 0)
(-0.000779791 -0.00876508 0)
(-0.00197539 -0.0107469 0)
(-0.00357053 -0.0103522 0)
(-0.0052887 -0.00776966 0)
(-0.00670286 -0.0030848 0)
(-0.00715629 0.00344118 0)
(-0.00609048 0.0107402 0)
(-0.00374284 0.0155609 0)
(-0.00109921 0.0137778 0)
(0.000421279 0.00732907 0)
(0.000113031 0.00188654 0)
(-0.00113492 -0.000601355 0)
(-0.00230393 -0.00092335 0)
(-0.00296014 -0.000490388 0)
(-0.0031121 -0.000190837 0)
(-0.00298011 -0.000449659 0)
(-0.00263265 -0.000606013 0)
(-0.00178645 -0.000887915 0)
(-0.000438259 -0.00196882 0)
(0.000664973 -0.00458977 0)
(0.000389857 -0.00805902 0)
(-0.00159159 -0.0107048 0)
(-0.00452209 -0.0108752 0)
(-0.0072381 -0.00794117 0)
(-0.00878227 -0.00226564 0)
(-0.0086438 0.00475871 0)
(-0.00718345 0.0110454 0)
(-0.00507518 0.0144711 0)
(-0.00287426 0.0140544 0)
(-0.00111676 0.0101881 0)
(-0.000122185 0.00403263 0)
(-9.72437e-05 -0.00261047 0)
(-0.000762911 -0.00558703 0)
(-0.0018795 -0.00680419 0)
(-0.00331316 -0.0064407 0)
(-0.00479557 -0.00462393 0)
(-0.00596477 -0.00142321 0)
(-0.00633052 0.00303621 0)
(-0.00543657 0.00818009 0)
(-0.00316041 0.0119156 0)
(-0.000271263 0.0111277 0)
(0.00148428 0.00657074 0)
(0.00134162 0.00253025 0)
(0.000193939 0.000330975 0)
(-0.00108028 -0.000284667 0)
(-0.00191928 -0.000209539 0)
(-0.00228303 -0.000165398 0)
(-0.00234315 -0.000505561 0)
(-0.0021498 -0.000860199 0)
(-0.00158356 -0.00144718 0)
(-0.000824095 -0.00263136 0)
(-0.000460821 -0.00462511 0)
(-0.00117 -0.00682002 0)
(-0.00299425 -0.00813988 0)
(-0.00527059 -0.00776595 0)
(-0.00714383 -0.0055092 0)
(-0.00796663 -0.00175903 0)
(-0.00753124 0.00271062 0)
(-0.00605299 0.00671797 0)
(-0.00407006 0.00885389 0)
(-0.00215584 0.00851556 0)
(-0.000768663 0.00610094 0)
(-7.14839e-05 0.00241138 0)
(-6.47935e-05 -0.00125115 0)
(-0.000524531 -0.00265768 0)
(-0.00130311 -0.00317919 0)
(-0.00231132 -0.00286033 0)
(-0.00336176 -0.00173242 0)
(-0.00419976 0.000193849 0)
(-0.00455172 0.00282858 0)
(-0.00401157 0.00592999 0)
(-0.00238173 0.00835107 0)
(-0.000106757 0.00824296 0)
(0.00139722 0.00562503 0)
(0.00144404 0.00297646 0)
(0.000631093 0.00124281 0)
(-0.000453393 0.000468616 0)
(-0.00131484 0.00021044 0)
(-0.00184792 -8.02596e-06 0)
(-0.00211753 -0.000467941 0)
(-0.00213565 -0.00101195 0)
(-0.0018912 -0.00178727 0)
(-0.00160134 -0.002917 0)
(-0.00162976 -0.00432914 0)
(-0.00226013 -0.00557577 0)
(-0.00339013 -0.00608083 0)
(-0.0045997 -0.00553878 0)
(-0.00544434 -0.00401356 0)
(-0.00562721 -0.00182754 0)
(-0.0051018 0.000606906 0)
(-0.00399953 0.0027785 0)
(-0.00261283 0.00400263 0)
(-0.00134372 0.00401258 0)
(-0.000468216 0.00299344 0)
(-4.33698e-05 0.00125264 0)
(-3.22126e-05 -0.000334907 0)
(-0.000275524 -0.000631279 0)
(-0.000699335 -0.000599684 0)
(-0.0012679 -0.00023129 0)
(-0.00188441 0.000477844 0)
(-0.00242032 0.00152069 0)
(-0.00269196 0.00291525 0)
(-0.00247273 0.00452064 0)
(-0.00161514 0.00581747 0)
(-0.000296765 0.00596367 0)
(0.000685326 0.00474372 0)
(0.000821107 0.00322484 0)
(0.000344722 0.00197965 0)
(-0.000436521 0.00119792 0)
(-0.00120648 0.000716529 0)
(-0.00183019 0.000286938 0)
(-0.00227733 -0.000306327 0)
(-0.00250951 -0.00101178 0)
(-0.00254303 -0.0019002 0)
(-0.00253377 -0.00295168 0)
(-0.00264938 -0.00401069 0)
(-0.00295861 -0.00478534 0)
(-0.00335885 -0.00500936 0)
(-0.00366091 -0.00460337 0)
(-0.00371486 -0.00367621 0)
(-0.00345966 -0.00244728 0)
(-0.00291626 -0.00116112 0)
(-0.00218851 -1.6237e-05 0)
(-0.00140348 0.000784136 0)
(-0.000722384 0.00112298 0)
(-0.000258055 0.00101425 0)
(-2.61037e-05 0.000500285 0)
(-1.4033e-05 0.000149025 0)
(-0.000124382 0.000471775 0)
(-0.000323542 0.000845129 0)
(-0.00059577 0.00128381 0)
(-0.000901647 0.00180747 0)
(-0.00118633 0.00243393 0)
(-0.00136945 0.00315909 0)
(-0.00134752 0.00391677 0)
(-0.00104166 0.0045156 0)
(-0.000516347 0.00464758 0)
(-7.30691e-05 0.00415207 0)
(1.09679e-05 0.00335533 0)
(-0.00028473 0.00253156 0)
(-0.00083394 0.0018418 0)
(-0.00148926 0.00127093 0)
(-0.00215046 0.00070819 0)
(-0.00274177 1.14503e-05 0)
(-0.00316872 -0.000827693 0)
(-0.00343441 -0.00180932 0)
(-0.003587 -0.00286923 0)
(-0.00366931 -0.00385829 0)
(-0.00367265 -0.0045906 0)
(-0.00354825 -0.00492633 0)
(-0.0032583 -0.00482312 0)
(-0.0028156 -0.00433263 0)
(-0.00227815 -0.00357667 0)
(-0.00171742 -0.00270553 0)
(-0.00118903 -0.00185465 0)
(-0.000729524 -0.0011163 0)
(-0.000369916 -0.000534006 0)
(-0.0001328 -0.000136514 0)
(-1.37529e-05 4.31866e-05 0)
(-4.61057e-06 0.000364423 0)
(-4.68262e-05 0.000985619 0)
(-0.000128617 0.00155499 0)
(-0.000250303 0.002083 0)
(-0.000401367 0.0025779 0)
(-0.000562691 0.00304388 0)
(-0.000704384 0.00347673 0)
(-0.000787512 0.00385347 0)
(-0.000780229 0.00411584 0)
(-0.000698024 0.00417107 0)
(-0.000635 0.00395714 0)
(-0.000706641 0.00352971 0)
(-0.000970058 0.00299423 0)
(-0.00141682 0.00243451 0)
(-0.00200676 0.00187294 0)
(-0.00269838 0.00126411 0)
(-0.00342963 0.000513589 0)
(-0.00407251 -0.000420586 0)
(-0.00458929 -0.00149361 0)
(-0.00492469 -0.00268617 0)
(-0.00504188 -0.00387307 0)
(-0.00489603 -0.00491325 0)
(-0.0044666 -0.00566978 0)
(-0.00379013 -0.00602436 0)
(-0.00296639 -0.00590652 0)
(-0.00212931 -0.00534027 0)
(-0.00139854 -0.0044583 0)
(-0.00083862 -0.00344768 0)
(-0.000452008 -0.00245999 0)
(-0.000206929 -0.00157389 0)
(-6.8582e-05 -0.000821506 0)
(-6.34669e-06 -0.000223445 0)
(-1.3443e-06 0.000457956 0)
(-1.99425e-05 0.00123596 0)
(-6.16248e-05 0.00193634 0)
(-0.000131579 0.00255816 0)
(-0.000230458 0.00309737 0)
(-0.000354984 0.00354731 0)
(-0.00049694 0.00390031 0)
(-0.000643645 0.00414879 0)
(-0.000783238 0.00428231 0)
(-0.000916954 0.00428607 0)
(-0.00107026 0.00414836 0)
(-0.00128523 0.00387812 0)
(-0.00160071 0.00350454 0)
(-0.00204253 0.00306121 0)
(-0.00263008 0.00256602 0)
(-0.00338279 0.00199659 0)
(-0.0042911 0.00127924 0)
(-0.00525052 0.000351312 0)
(-0.00611229 -0.00081437 0)
(-0.0068276 -0.00220626 0)
(-0.00721683 -0.00380786 0)
(-0.00716973 -0.00548979 0)
(-0.00663681 -0.00706132 0)
(-0.00567632 -0.00823896 0)
(-0.00444403 -0.00872635 0)
(-0.00314407 -0.00835884 0)
(-0.00197566 -0.00721922 0)
(-0.00108137 -0.00563147 0)
(-0.000503582 -0.00398461 0)
(-0.000188984 -0.00252595 0)
(-4.75482e-05 -0.00132777 0)
(-1.86656e-06 -0.000381286 0)
(-9.19145e-07 0.000513209 0)
(-1.62114e-05 0.00140902 0)
(-5.36131e-05 0.00223096 0)
(-0.000120396 0.00296495 0)
(-0.000220901 0.00359345 0)
(-0.000356779 0.00409821 0)
(-0.000526164 0.00446553 0)
(-0.000723804 0.00469183 0)
(-0.000943347 0.00478452 0)
(-0.00118237 0.0047592 0)
(-0.00144705 0.00462862 0)
(-0.00175309 0.00440568 0)
(-0.00212383 0.00410582 0)
(-0.00259039 0.00374862 0)
(-0.00320038 0.00335225 0)
(-0.00402454 0.00291467 0)
(-0.00513965 0.00238552 0)
(-0.00653277 0.00166094 0)
(-0.00804361 0.000585016 0)
(-0.00940784 -0.0010188 0)
(-0.0104127 -0.0031576 0)
(-0.0107302 -0.00587731 0)
(-0.0102826 -0.00886542 0)
(-0.00914821 -0.0115448 0)
(-0.00752464 -0.0132766 0)
(-0.00565957 -0.0135928 0)
(-0.00381165 -0.012361 0)
(-0.00222527 -0.00989733 0)
(-0.00107729 -0.0069189 0)
(-0.000402631 -0.00417561 0)
(-9.48707e-05 -0.00204335 0)
(-1.40691e-06 -0.000534908 0)
(-1.27014e-06 0.000570576 0)
(-2.07017e-05 0.00159191 0)
(-6.77176e-05 0.00254643 0)
(-0.000151122 0.00340659 0)
(-0.000276083 0.00414103 0)
(-0.000444564 0.00472008 0)
(-0.000654634 0.00512428 0)
(-0.000900823 0.00535223 0)
(-0.00117585 0.00542147 0)
(-0.00147385 0.00536479 0)
(-0.00179364 0.00521024 0)
(-0.00214072 0.00498238 0)
(-0.00252949 0.00470371 0)
(-0.0029891 0.00440228 0)
(-0.00357776 0.00411538 0)
(-0.00439864 0.00388535 0)
(-0.00561861 0.00372834 0)
(-0.00737744 0.00351867 0)
(-0.00956994 0.00286344 0)
(-0.011797 0.00122012 0)
(-0.0134214 -0.00176208 0)
(-0.0142069 -0.00588235 0)
(-0.0140311 -0.0107419 0)
(-0.0130026 -0.0154398 0)
(-0.011293 -0.0190504 0)
(-0.00911156 -0.0208361 0)
(-0.00670195 -0.0203328 0)
(-0.00434945 -0.0175099 0)
(-0.00236386 -0.0130037 0)
(-0.000989801 -0.00808128 0)
(-0.00026527 -0.00393928 0)
(-1.01137e-05 -0.00100782 0)
(-2.00869e-06 0.000640342 0)
(-2.97058e-05 0.00180762 0)
(-9.46487e-05 0.00291129 0)
(-0.000207039 0.00390871 0)
(-0.000371187 0.00475332 0)
(-0.000586578 0.00540393 0)
(-0.0008476 0.00583696 0)
(-0.00114466 0.00605551 0)
(-0.00146659 0.00608742 0)
(-0.00180318 0.00597968 0)
(-0.0021479 0.00577429 0)
(-0.00249984 0.00550741 0)
(-0.00286625 0.00521305 0)
(-0.00326914 0.00493429 0)
(-0.00375952 0.0047365 0)
(-0.00443416 0.00472245 0)
(-0.00547984 0.00500905 0)
(-0.00712932 0.00547051 0)
(-0.00938336 0.00541749 0)
(-0.0119013 0.00386561 0)
(-0.0140623 0.000207078 0)
(-0.0152475 -0.00528213 0)
(-0.0155265 -0.0117987 0)
(-0.0150295 -0.0183941 0)
(-0.0137828 -0.0240522 0)
(-0.0118587 -0.0278794 0)
(-0.00940676 -0.0290862 0)
(-0.00667608 -0.0271146 0)
(-0.00402387 -0.0220108 0)
(-0.00187747 -0.0148924 0)
(-0.000560852 -0.0077617 0)
(-3.08925e-05 -0.00212028 0)
(-3.27895e-06 0.000730151 0)
(-4.44929e-05 0.00207554 0)
(-0.000137851 0.00335179 0)
(-0.000294319 0.00449753 0)
(-0.000514771 0.00544892 0)
(-0.000792711 0.00615451 0)
(-0.00111536 0.00659097 0)
(-0.00146633 0.00677127 0)
(-0.00182911 0.00673783 0)
(-0.00218928 0.00655181 0)
(-0.0025362 0.0062688 0)
(-0.00286439 0.00593516 0)
(-0.00317484 0.0055946 0)
(-0.00347864 0.00530194 0)
(-0.00380349 0.00514343 0)
(-0.00419749 0.00526745 0)
(-0.00476882 0.00587559 0)
(-0.00572154 0.00687639 0)
(-0.00720256 0.0074261 0)
(-0.00914429 0.00624653 0)
(-0.011203 0.00243406 0)
(-0.0128907 -0.00385438 0)
(-0.0137419 -0.0114599 0)
(-0.0141245 -0.0194438 0)
(-0.0138487 -0.0269092 0)
(-0.0127775 -0.0329405 0)
(-0.0109047 -0.0364994 0)
(-0.00837614 -0.0364911 0)
(-0.00551729 -0.0321473 0)
(-0.00283712 -0.0237708 0)
(-0.000934034 -0.013433 0)
(-6.45383e-05 -0.00396087 0)
(-5.35011e-06 0.000849371 0)
(-6.80669e-05 0.00241933 0)
(-0.00020527 0.00389942 0)
(-0.000426894 0.00520361 0)
(-0.000725667 0.00624934 0)
(-0.00108393 0.00697954 0)
(-0.00147789 0.00737996 0)
(-0.00188263 0.007482 0)
(-0.00227634 0.00734843 0)
(-0.0026419 0.00705585 0)
(-0.00296712 0.00667207 0)
(-0.00324493 0.00625124 0)
(-0.00347267 0.00584205 0)
(-0.00365055 0.00550259 0)
(-0.00377672 0.00532358 0)
(-0.00383257 0.00546589 0)
(-0.00380303 0.0061694 0)
(-0.0037906 0.00740438 0)
(-0.00402928 0.00836007 0)
(-0.00470756 0.00772936 0)
(-0.00586084 0.00440875 0)
(-0.00759385 -0.00185046 0)
(-0.008997 -0.00981191 0)
(-0.0103744 -0.0184153 0)
(-0.0113731 -0.0271135 0)
(-0.0115896 -0.0350978 0)
(-0.0108227 -0.0412023 0)
(-0.00905322 -0.0438747 0)
(-0.00650347 -0.0415136 0)
(-0.00366878 -0.0332477 0)
(-0.00132691 -0.0203121 0)
(-0.000107622 -0.00642072 0)
(-8.78749e-06 0.00101021 0)
(-0.000105869 0.00286837 0)
(-0.000310341 0.00459025 0)
(-0.000626446 0.00605714 0)
(-0.0010302 0.00716955 0)
(-0.00148561 0.0078764 0)
(-0.00195444 0.00818732 0)
(-0.00240331 0.00816352 0)
(-0.00280735 0.00789353 0)
(-0.00315016 0.00747004 0)
(-0.00342212 0.0069704 0)
(-0.00361867 0.00645251 0)
(-0.00373695 0.0059642 0)
(-0.00376939 0.00555794 0)
(-0.00368868 0.0053137 0)
(-0.00341809 0.00537633 0)
(-0.0028352 0.00597954 0)
(-0.00194789 0.0071505 0)
(-0.0010005 0.00821031 0)
(-0.000280099 0.00802586 0)
(-7.00338e-06 0.00554386 0)
(-0.000485974 0.000270486 0)
(-0.00246845 -0.00724418 0)
(-0.00468532 -0.0156709 0)
(-0.00697041 -0.0249067 0)
(-0.00863869 -0.0343054 0)
(-0.0092956 -0.0427496 0)
(-0.00870439 -0.048377 0)
(-0.00691076 -0.0488661 0)
(-0.00430351 -0.0420739 0)
(-0.00172218 -0.0276838 0)
(-0.000159066 -0.00933051 0)
(-1.46925e-05 0.00123089 0)
(-0.000167652 0.00346341 0)
(-0.000475246 0.00546849 0)
(-0.000925055 0.00708665 0)
(-0.00146199 0.00821305 0)
(-0.00202358 0.00882605 0)
(-0.00255632 0.00898065 0)
(-0.00302177 0.00877975 0)
(-0.00339715 0.00834066 0)
(-0.00367206 0.00777003 0)
(-0.00384428 0.00715002 0)
(-0.00391536 0.00653652 0)
(-0.00388445 0.00597062 0)
(-0.00374004 0.00549328 0)
(-0.00343906 0.00516446 0)
(-0.00286938 0.00509642 0)
(-0.00184456 0.00548506 0)
(-0.000303941 0.00639565 0)
(0.00158004 0.00733247 0)
(0.00330959 0.0072014 0)
(0.00450203 0.00513973 0)
(0.0049799 0.00115762 0)
(0.00379234 -0.00443653 0)
(0.00148264 -0.0117491 0)
(-0.00163319 -0.0210597 0)
(-0.00451795 -0.0311749 0)
(-0.00663095 -0.0414285 0)
(-0.007464 -0.0498575 0)
(-0.0067822 -0.0536448 0)
(-0.00475443 -0.0494656 0)
(-0.00215263 -0.035019 0)
(-0.000228279 -0.0125946 0)
(-2.54339e-05 0.00154036 0)
(-0.000271799 0.00426269 0)
(-0.000736759 0.00658634 0)
(-0.00136824 0.00831148 0)
(-0.0020594 0.00936173 0)
(-0.00271627 0.00978506 0)
(-0.00327527 0.00970707 0)
(-0.00370137 0.0092805 0)
(-0.00398216 0.00864904 0)
(-0.00411934 0.00792615 0)
(-0.00412141 0.00719201 0)
(-0.00399695 0.00649349 0)
(-0.00374712 0.00586029 0)
(-0.00335892 0.00532026 0)
(-0.00278385 0.00491007 0)
(-0.00190195 0.00470119 0)
(-0.000504451 0.00483317 0)
(0.00154782 0.00543524 0)
(0.00397651 0.0061101 0)
(0.00630543 0.00595748 0)
(0.00798608 0.00427172 0)
(0.00871781 0.00112027 0)
(0.0080784 -0.00329308 0)
(0.00627788 -0.0091024 0)
(0.00357803 -0.016664 0)
(0.000239356 -0.0265746 0)
(-0.00301466 -0.0378934 0)
(-0.00534769 -0.0485905 0)
(-0.00608283 -0.0557031 0)
(-0.00499999 -0.0549618 0)
(-0.00265803 -0.0419318 0)
(-0.000338351 -0.0162314 0)
(-4.65173e-05 0.00198825 0)
(-0.000453888 0.00535058 0)
(-0.00115379 0.00799854 0)
(-0.00201385 0.00972674 0)
(-0.00285428 0.0105621 0)
(-0.00355591 0.0106777 0)
(-0.00406026 0.0102906 0)
(-0.00434965 0.00960135 0)
(-0.00443248 0.00876958 0)
(-0.00432657 0.0079018 0)
(-0.00405128 0.00706867 0)
(-0.00361874 0.00630196 0)
(-0.00303171 0.00561633 0)
(-0.00227529 0.00502893 0)
(-0.00130163 0.00455384 0)
(-7.04706e-07 0.00421901 0)
(0.0018349 0.00412894 0)
(0.00416403 0.00443032 0)
(0.00685144 0.0048438 0)
(0.00946348 0.00469146 0)
(0.0113951 0.00342286 0)
(0.0122408 0.00104849 0)
(0.0118371 -0.00244159 0)
(0.0103882 -0.00730118 0)
(0.00809781 -0.013833 0)
(0.00509179 -0.0222809 0)
(0.00150721 -0.0328243 0)
(-0.00218126 -0.0449573 0)
(-0.00459907 -0.0550291 0)
(-0.00489338 -0.0582058 0)
(-0.00321843 -0.0480214 0)
(-0.000520519 -0.0203115 0)
(-9.1525e-05 0.00266461 0)
(-0.000781638 0.0068443 0)
(-0.00181106 0.00974244 0)
(-0.00291579 0.0112767 0)
(-0.00383942 0.0117072 0)
(-0.00446557 0.0113888 0)
(-0.00476811 0.0106316 0)
(-0.00476383 0.00966414 0)
(-0.00449092 0.00864407 0)
(-0.00398132 0.00765197 0)
(-0.00326535 0.00674084 0)
(-0.00234599 0.00592736 0)
(-0.00123906 0.00520581 0)
(8.4302e-05 0.00458126 0)
(0.00166439 0.00406314 0)
(0.00355036 0.00365173 0)
(0.00583861 0.00341481 0)
(0.00839175 0.00348946 0)
(0.0111573 0.00369039 0)
(0.0138321 0.00354362 0)
(0.0158739 0.0026361 0)
(0.0168562 0.000883766 0)
(0.016717 -0.00184668 0)
(0.015557 -0.00584581 0)
(0.0134507 -0.0114023 0)
(0.0104664 -0.0187597 0)
(0.00669573 -0.0280535 0)
(0.00232731 -0.0392703 0)
(-0.0019413 -0.0515786 0)
(-0.00412429 -0.0588054 0)
(-0.00369818 -0.0527627 0)
(-0.000797506 -0.0248288 0)
(-0.000193191 0.00373386 0)
(-0.00137181 0.00888299 0)
(-0.00279995 0.011789 0)
(-0.00406815 0.0128128 0)
(-0.00488801 0.0126163 0)
(-0.00520329 0.0117574 0)
(-0.00505624 0.0106055 0)
(-0.00451145 0.00937595 0)
(-0.00364183 0.00820036 0)
(-0.00247604 0.0071194 0)
(-0.00107998 0.00615374 0)
(0.000601469 0.00530089 0)
(0.00247249 0.00457273 0)
(0.00455598 0.00395177 0)
(0.00688262 0.0034341 0)
(0.00950032 0.00299821 0)
(0.0123259 0.00269485 0)
(0.0151242 0.00263764 0)
(0.0179155 0.00269713 0)
(0.0205418 0.00255221 0)
(0.0226021 0.00190952 0)
(0.0237192 0.000625522 0)
(0.0238362 -0.00148254 0)
(0.0228606 -0.00467121 0)
(0.0207535 -0.0091987 0)
(0.0175029 -0.0153215 0)
(0.0131851 -0.0232865 0)
(0.00801754 -0.0333338 0)
(0.00241237 -0.045313 0)
(-0.00221782 -0.0563158 0)
(-0.003814 -0.0555071 0)
(-0.00115327 -0.0296045 0)
(-0.000412893 0.00547333 0)
(-0.00237529 0.0115591 0)
(-0.00412607 0.0139413 0)
(-0.0052519 0.0140313 0)
(-0.00556145 0.0130103 0)
(-0.00514589 0.0115681 0)
(-0.00414577 0.0100573 0)
(-0.00267442 0.00862297 0)
(-0.000852459 0.00733508 0)
(0.00136486 0.00618625 0)
(0.00374153 0.00522864 0)
(0.00636555 0.00441255 0)
(0.00917067 0.00372655 0)
(0.0121572 0.00314756 0)
(0.0153207 0.00266877 0)
(0.0186963 0.00226419 0)
(0.0220424 0.00196866 0)
(0.0250701 0.00186286 0)
(0.0278711 0.00184988 0)
(0.0303995 0.00171458 0)
(0.0323944 0.00125784 0)
(0.0335621 0.000324108 0)
(0.0337838 -0.00124986 0)
(0.0328052 -0.003654 0)
(0.0305104 -0.00710821 0)
(0.0268136 -0.0118689 0)
(0.0217369 -0.0182626 0)
(0.0154641 -0.0267476 0)
(0.00841874 -0.0377813 0)
(0.00157956 -0.0503035 0)
(-0.00308162 -0.0555437 0)
(-0.0014879 -0.0343312 0)
(-0.000821982 0.00836109 0)
(-0.00383528 0.0147503 0)
(-0.00541187 0.0156556 0)
(-0.00562606 0.0143904 0)
(-0.004634 0.0124934 0)
(-0.00279394 0.0105404 0)
(-0.000313388 0.00874859 0)
(0.00265645 0.0071992 0)
(0.00583343 0.00592857 0)
(0.00926757 0.00486477 0)
(0.0128175 0.00399619 0)
(0.0165001 0.00327585 0)
(0.0202575 0.00268783 0)
(0.0240691 0.00220619 0)
(0.0279105 0.00181749 0)
(0.0318045 0.00149734 0)
(0.0354228 0.00126601 0)
(0.0385001 0.00116895 0)
(0.0411961 0.00113472 0)
(0.043533 0.0010249 0)
(0.0453419 0.000710009 0)
(0.0464132 5.93644e-05 0)
(0.0464979 -0.00102907 0)
(0.0453223 -0.00268298 0)
(0.0427221 -0.005073 0)
(0.0385481 -0.00842399 0)
(0.0327302 -0.0130849 0)
(0.0253381 -0.0196478 0)
(0.0166948 -0.0289954 0)
(0.0076181 -0.0414742 0)
(-0.000675985 -0.0519851 0)
(-0.00150283 -0.0384136 0)
(-0.00154783 0.0132792 0)
(-0.00520011 0.0177554 0)
(-0.00494755 0.0158827 0)
(-0.00259387 0.0131156 0)
(0.00110269 0.0104751 0)
(0.0053064 0.00829449 0)
(0.00979698 0.00654221 0)
(0.0144507 0.00515419 0)
(0.0191107 0.00406469 0)
(0.0237589 0.0031972 0)
(0.0283078 0.00252015 0)
(0.0327424 0.0019853 0)
(0.0370241 0.00156832 0)
(0.0411403 0.00124272 0)
(0.0450821 0.000990788 0)
(0.0488819 0.000792636 0)
(0.0522376 0.000655389 0)
(0.0549784 0.000596336 0)
(0.0573001 0.000569812 0)
(0.0592468 0.000497265 0)
(0.060691 0.000301111 0)
(0.0614824 -9.46747e-05 0)
(0.0612357 -0.000741955 0)
(0.0597844 -0.00171796 0)
(0.0569409 -0.00313243 0)
(0.0525152 -0.00514639 0)
(0.0463336 -0.00805702 0)
(0.03826 -0.0124584 0)
(0.0283017 -0.0194472 0)
(0.0168413 -0.0304111 0)
(0.00456551 -0.0437491 0)
(-0.000139586 -0.0398247 0)
(-0.00118996 0.0183605 0)
(-0.00277139 0.0184077 0)
(0.00386811 0.0129304 0)
(0.0112595 0.00951445 0)
(0.0183849 0.0070271 0)
(0.0250644 0.00514424 0)
(0.0313432 0.0037492 0)
(0.0371863 0.00273319 0)
(0.0425585 0.00199885 0)
(0.0474815 0.00146341 0)
(0.0519589 0.00107938 0)
(0.056026 0.000801467 0)
(0.0597123 0.000601702 0)
(0.0630592 0.000457043 0)
(0.066107 0.0003521 0)
(0.0689158 0.000274732 0)
(0.0713079 0.000224695 0)
(0.0732225 0.000204761 0)
(0.0748212 0.000194034 0)
(0.0761242 0.000159064 0)
(0.0770177 6.31882e-05 0)
(0.0773274 -0.000117538 0)
(0.0767841 -0.000406891 0)
(0.0752423 -0.000840111 0)
(0.0725345 -0.00146828 0)
(0.0684749 -0.00237552 0)
(0.0628307 -0.00374724 0)
(0.0552535 -0.00601913 0)
(0.0452058 -0.0101413 0)
(0.0320004 -0.0178036 0)
(0.0156918 -0.0299005 0)
(0.00635953 -0.0335494 0)
(0.0207931 0.0113526 0)
(0.0272355 0.00931965 0)
(0.0404286 0.00547824 0)
(0.0512459 0.00333702 0)
(0.0593595 0.00207958 0)
(0.0656842 0.00127638 0)
(0.0707352 0.000769772 0)
(0.0747858 0.000460994 0)
(0.0780469 0.000277518 0)
(0.0806994 0.000168656 0)
(0.0828792 0.000105553 0)
(0.0846981 6.83342e-05 0)
(0.0862386 4.63628e-05 0)
(0.0875654 3.29166e-05 0)
(0.0887264 2.43504e-05 0)
(0.089766 1.87429e-05 0)
(0.0906421 1.58264e-05 0)
(0.0913512 1.56282e-05 0)
(0.0919482 1.51493e-05 0)
(0.0924161 9.5488e-06 0)
(0.0926738 -7.51991e-06 0)
(0.0926005 -3.64984e-05 0)
(0.09209 -8.1307e-05 0)
(0.0910564 -0.000147996 0)
(0.0894014 -0.000244685 0)
(0.0870071 -0.000386194 0)
(0.0836841 -0.000612316 0)
(0.0790318 -0.00103163 0)
(0.0721394 -0.00192147 0)
(0.0610381 -0.00402784 0)
(0.0433551 -0.00922297 0)
(0.0286122 -0.0145555 0)
)
;

boundaryField
{
    movingWall
    {
        type            fixedValue;
        value           uniform (0.1 0 0);
    }
    fixedWalls
    {
        type            noSlip;
    }
    floor
    {
        type            noSlip;
    }
    frontAndBack
    {
        type            empty;
    }
}


// ************************************************************************* //
