/*--------------------------------*- C++ -*----------------------------------*\
| =========                 |                                                 |
| \\      /  F ield         | OpenFOAM: The Open Source CFD Toolbox           |
|  \\    /   O peration     | Version:  2212                                  |
|   \\  /    A nd           | Website:  www.openfoam.com                      |
|    \\/     M anipulation  |                                                 |
\*---------------------------------------------------------------------------*/
FoamFile
{
    version     2.0;
    format      ascii;
    arch        "LSB;label=64;scalar=64";
    class       volScalarField;
    location    "30";
    object      Xli;
}
// * * * * * * * * * * * * * * * * * * * * * * * * * * * * * * * * * * * * * //

dimensions      [1 -3 0 0 0 0 0];

internalField   nonuniform List<scalar> 
1024
(
0.0434539
0.0434539
0.0434539
0.0434539
0.0434539
0.0434538
0.0434538
0.0434538
0.0434538
0.0434537
0.0434537
0.0434537
0.0434536
0.0434536
0.0434536
0.0434536
0.0434536
0.0434536
0.0434536
0.0434537
0.0434537
0.0434537
0.0434537
0.0434538
0.0434538
0.0434538
0.0434538
0.0434538
0.0434539
0.0434539
0.0434539
0.0434539
0.0434539
0.0434539
0.0434539
0.0434539
0.0434538
0.0434538
0.0434538
0.0434538
0.0434538
0.0434537
0.0434537
0.0434537
0.0434536
0.0434536
0.0434536
0.0434536
0.0434536
0.0434536
0.0434536
0.0434537
0.0434537
0.0434537
0.0434537
0.0434538
0.0434538
0.0434538
0.0434538
0.0434538
0.0434539
0.0434539
0.0434539
0.0434539
0.0434539
0.0434539
0.0434539
0.0434538
0.0434538
0.0434538
0.0434538
0.0434538
0.0434538
0.0434537
0.0434537
0.0434537
0.0434536
0.0434536
0.0434536
0.0434536
0.0434536
0.0434536
0.0434536
0.0434537
0.0434537
0.0434537
0.0434537
0.0434538
0.0434538
0.0434538
0.0434538
0.0434538
0.0434539
0.0434539
0.0434539
0.0434539
0.0434538
0.0434538
0.0434538
0.0434538
0.0434538
0.0434538
0.0434538
0.0434538
0.0434538
0.0434537
0.0434537
0.0434537
0.0434536
0.0434536
0.0434536
0.0434536
0.0434536
0.0434536
0.0434536
0.0434537
0.0434537
0.0434537
0.0434537
0.0434538
0.0434538
0.0434538
0.0434538
0.0434538
0.0434538
0.0434539
0.0434539
0.0434539
0.0434538
0.0434538
0.0434538
0.0434538
0.0434538
0.0434538
0.0434538
0.0434538
0.0434538
0.0434537
0.0434537
0.0434537
0.0434536
0.0434536
0.0434536
0.0434536
0.0434536
0.0434536
0.0434537
0.0434537
0.0434537
0.0434537
0.0434537
0.0434537
0.0434538
0.0434538
0.0434538
0.0434538
0.0434538
0.0434539
0.0434539
0.0434539
0.0434538
0.0434538
0.0434538
0.0434537
0.0434537
0.0434538
0.0434538
0.0434538
0.0434538
0.0434537
0.0434537
0.0434537
0.0434536
0.0434536
0.0434536
0.0434536
0.0434536
0.0434536
0.0434537
0.0434537
0.0434537
0.0434537
0.0434537
0.0434537
0.0434537
0.0434538
0.0434538
0.0434538
0.0434538
0.0434538
0.0434538
0.0434538
0.0434537
0.0434537
0.0434537
0.0434537
0.0434537
0.0434537
0.0434537
0.0434537
0.0434537
0.0434537
0.0434537
0.0434537
0.0434537
0.0434536
0.0434536
0.0434536
0.0434536
0.0434536
0.0434537
0.0434537
0.0434537
0.0434537
0.0434537
0.0434537
0.0434537
0.0434537
0.0434538
0.0434538
0.0434538
0.0434538
0.0434538
0.0434538
0.0434537
0.0434537
0.0434537
0.0434537
0.0434537
0.0434537
0.0434537
0.0434537
0.0434537
0.0434537
0.0434537
0.0434537
0.0434537
0.0434536
0.0434536
0.0434536
0.0434536
0.0434536
0.0434537
0.0434537
0.0434537
0.0434537
0.0434537
0.0434537
0.0434537
0.0434537
0.0434537
0.0434538
0.0434538
0.0434538
0.0434538
0.0434538
0.0434537
0.0434537
0.0434537
0.0434537
0.0434537
0.0434537
0.0434537
0.0434537
0.0434537
0.0434537
0.0434537
0.0434537
0.0434537
0.0434536
0.0434536
0.0434536
0.0434536
0.0434537
0.0434537
0.0434537
0.0434537
0.0434537
0.0434537
0.0434537
0.0434537
0.0434537
0.0434537
0.0434537
0.0434537
0.0434537
0.0434537
0.0434537
0.0434537
0.0434537
0.0434537
0.0434537
0.0434537
0.0434537
0.0434537
0.0434537
0.0434537
0.0434537
0.0434537
0.0434537
0.0434537
0.0434537
0.0434536
0.0434536
0.0434536
0.0434537
0.0434537
0.0434537
0.0434537
0.0434537
0.0434537
0.0434537
0.0434537
0.0434537
0.0434537
0.0434537
0.0434537
0.0434537
0.0434537
0.0434537
0.0434537
0.0434537
0.0434537
0.0434537
0.0434537
0.0434537
0.0434537
0.0434537
0.0434537
0.0434537
0.0434537
0.0434537
0.0434537
0.0434537
0.0434536
0.0434536
0.0434536
0.0434537
0.0434537
0.0434537
0.0434537
0.0434537
0.0434537
0.0434537
0.0434537
0.0434537
0.0434537
0.0434537
0.0434537
0.0434537
0.0434537
0.0434537
0.0434536
0.0434536
0.0434537
0.0434537
0.0434537
0.0434537
0.0434537
0.0434537
0.0434537
0.0434537
0.0434537
0.0434537
0.0434537
0.0434537
0.0434536
0.0434536
0.0434536
0.0434537
0.0434537
0.0434537
0.0434537
0.0434537
0.0434538
0.0434538
0.0434538
0.0434537
0.0434537
0.0434537
0.0434537
0.0434537
0.0434537
0.0434537
0.0434536
0.0434536
0.0434536
0.0434537
0.0434537
0.0434537
0.0434537
0.0434537
0.0434537
0.0434537
0.0434537
0.0434537
0.0434537
0.0434537
0.0434536
0.0434536
0.0434536
0.0434537
0.0434537
0.0434538
0.0434538
0.0434539
0.0434539
0.0434539
0.0434539
0.0434539
0.0434539
0.0434538
0.0434538
0.0434538
0.0434538
0.0434538
0.0434536
0.0434536
0.0434536
0.0434536
0.0434537
0.0434537
0.0434537
0.0434537
0.0434537
0.0434537
0.0434537
0.0434537
0.0434537
0.0434537
0.0434536
0.0434536
0.0434536
0.0434537
0.0434538
0.0434539
0.043454
0.0434542
0.0434543
0.0434544
0.0434544
0.0434544
0.0434543
0.0434543
0.0434542
0.0434542
0.0434542
0.0434542
0.0434536
0.0434536
0.0434536
0.0434536
0.0434536
0.0434537
0.0434537
0.0434537
0.0434537
0.0434537
0.0434537
0.0434537
0.0434537
0.0434536
0.0434536
0.0434536
0.0434537
0.0434538
0.043454
0.0434543
0.0434548
0.0434553
0.0434557
0.043456
0.0434561
0.0434561
0.0434559
0.0434558
0.0434556
0.0434555
0.0434555
0.0434554
0.0434536
0.0434536
0.0434536
0.0434536
0.0434536
0.0434536
0.0434537
0.0434537
0.0434537
0.0434537
0.0434537
0.0434536
0.0434536
0.0434536
0.0434536
0.0434536
0.0434537
0.043454
0.0434546
0.0434557
0.0434572
0.0434588
0.0434603
0.0434613
0.0434618
0.0434617
0.0434613
0.0434608
0.0434603
0.0434599
0.0434597
0.0434596
0.0434536
0.0434536
0.0434536
0.0434536
0.0434536
0.0434536
0.0434537
0.0434537
0.0434537
0.0434537
0.0434537
0.0434536
0.0434536
0.0434536
0.0434537
0.0434537
0.043454
0.0434548
0.0434565
0.0434594
0.0434635
0.043468
0.0434722
0.0434751
0.0434767
0.0434768
0.043476
0.0434747
0.0434733
0.0434722
0.0434715
0.0434711
0.0434537
0.0434537
0.0434537
0.0434537
0.0434537
0.0434537
0.0434537
0.0434537
0.0434537
0.0434537
0.0434537
0.0434538
0.0434538
0.0434538
0.0434539
0.043454
0.0434546
0.0434563
0.0434599
0.043466
0.0434742
0.0434828
0.0434906
0.0434963
0.0434997
0.0435008
0.0435002
0.0434984
0.0434962
0.0434942
0.0434928
0.0434921
0.0434538
0.0434538
0.0434538
0.0434538
0.0434538
0.0434538
0.0434538
0.0434538
0.0434539
0.0434539
0.0434539
0.043454
0.0434541
0.0434542
0.0434543
0.0434546
0.0434555
0.0434581
0.0434635
0.0434723
0.0434835
0.043495
0.043505
0.0435129
0.0435184
0.0435214
0.0435223
0.0435215
0.0435196
0.0435176
0.0435159
0.0435151
0.0434542
0.0434542
0.0434542
0.0434541
0.0434541
0.0434541
0.0434541
0.0434542
0.0434542
0.0434543
0.0434544
0.0434546
0.0434548
0.043455
0.0434553
0.0434557
0.0434567
0.0434596
0.0434656
0.0434752
0.043487
0.043499
0.0435097
0.0435188
0.0435263
0.0435317
0.043535
0.0435363
0.043536
0.0435348
0.0435335
0.0435327
0.0434549
0.0434549
0.0434548
0.0434548
0.0434548
0.0434548
0.0434548
0.0434549
0.043455
0.0434552
0.0434555
0.0434558
0.0434562
0.0434567
0.0434571
0.0434576
0.0434586
0.0434612
0.0434665
0.0434752
0.0434859
0.0434969
0.0435076
0.0435177
0.0435271
0.043535
0.0435409
0.0435444
0.0435459
0.0435458
0.0435451
0.0435445
0.0434562
0.0434562
0.0434561
0.043456
0.043456
0.043456
0.043456
0.0434562
0.0434565
0.043457
0.0434575
0.0434582
0.0434589
0.0434596
0.0434604
0.043461
0.0434619
0.0434639
0.043468
0.0434749
0.0434837
0.0434934
0.0435037
0.0435146
0.0435255
0.0435357
0.0435439
0.0435496
0.0435527
0.0435537
0.0435535
0.0435531
0.0434584
0.0434583
0.0434582
0.0434581
0.043458
0.043458
0.0434582
0.0434586
0.0434592
0.04346
0.043461
0.0434621
0.0434633
0.0434645
0.0434656
0.0434665
0.0434674
0.0434687
0.0434715
0.0434766
0.0434837
0.043492
0.0435016
0.0435125
0.0435242
0.0435358
0.0435459
0.0435535
0.0435581
0.0435602
0.0435605
0.0435602
0.0434619
0.0434617
0.0434615
0.0434613
0.0434613
0.0434614
0.0434618
0.0434626
0.0434637
0.043465
0.0434666
0.0434683
0.04347
0.0434716
0.0434731
0.0434744
0.0434754
0.0434763
0.0434781
0.0434817
0.0434872
0.0434943
0.043503
0.0435132
0.0435248
0.0435368
0.0435478
0.0435567
0.0435627
0.0435658
0.0435667
0.0435665
0.0434669
0.0434667
0.0434664
0.0434661
0.0434661
0.0434665
0.0434674
0.0434687
0.0434704
0.0434724
0.0434747
0.043477
0.0434792
0.0434813
0.0434833
0.0434849
0.0434861
0.0434868
0.043488
0.0434904
0.0434946
0.0435004
0.0435079
0.0435171
0.0435277
0.0435391
0.0435502
0.0435597
0.0435667
0.0435707
0.0435721
0.0435721
0.0434739
0.0434735
0.0434731
0.0434729
0.0434731
0.043474
0.0434755
0.0434775
0.04348
0.0434827
0.0434856
0.0434884
0.0434911
0.0434936
0.0434958
0.0434977
0.0434991
0.0434999
0.0435007
0.0435023
0.0435053
0.0435099
0.043516
0.0435237
0.0435329
0.043543
0.0435534
0.0435628
0.0435703
0.043575
0.0435769
0.0435772
0.0434831
0.0434827
0.0434822
0.0434822
0.043483
0.0434845
0.0434868
0.0434896
0.0434928
0.0434961
0.0434994
0.0435025
0.0435054
0.0435081
0.0435104
0.0435125
0.043514
0.0435148
0.0435154
0.0435165
0.0435186
0.0435219
0.0435266
0.0435326
0.04354
0.0435485
0.0435576
0.0435663
0.0435737
0.0435788
0.0435813
0.0435817
0.0434952
0.0434946
0.0434943
0.0434948
0.0434963
0.0434987
0.0435018
0.0435052
0.0435087
0.0435123
0.0435157
0.0435188
0.0435217
0.0435243
0.0435266
0.0435285
0.0435299
0.0435308
0.0435313
0.043532
0.0435334
0.0435356
0.043539
0.0435434
0.043549
0.0435556
0.0435629
0.0435705
0.0435773
0.0435824
0.0435851
0.0435858
0.0435104
0.0435098
0.04351
0.0435114
0.0435138
0.0435168
0.0435203
0.0435239
0.0435274
0.0435308
0.0435339
0.0435367
0.0435393
0.0435415
0.0435434
0.0435451
0.0435464
0.0435471
0.0435475
0.043548
0.0435488
0.0435503
0.0435525
0.0435556
0.0435594
0.0435641
0.0435696
0.0435755
0.0435812
0.0435858
0.0435886
0.0435895
0.0435295
0.0435293
0.0435305
0.0435326
0.0435355
0.0435386
0.0435418
0.0435449
0.0435479
0.0435506
0.0435531
0.0435553
0.0435573
0.043559
0.0435604
0.0435616
0.0435626
0.0435632
0.0435635
0.0435637
0.0435642
0.0435651
0.0435665
0.0435683
0.0435708
0.0435738
0.0435774
0.0435814
0.0435856
0.0435894
0.0435919
0.0435928
0.0435535
0.0435541
0.0435559
0.0435581
0.0435604
0.0435628
0.043565
0.0435671
0.0435691
0.0435708
0.0435724
0.0435738
0.043575
0.043576
0.0435769
0.0435776
0.0435782
0.0435785
0.0435787
0.0435788
0.0435791
0.0435796
0.0435802
0.0435812
0.0435825
0.0435841
0.0435861
0.0435883
0.0435908
0.0435932
0.043595
0.0435958
0.0435835
0.0435839
0.0435849
0.0435858
0.0435867
0.0435875
0.0435883
0.0435891
0.0435898
0.0435904
0.0435909
0.0435913
0.0435917
0.0435921
0.0435924
0.0435926
0.0435928
0.0435929
0.043593
0.043593
0.0435931
0.0435932
0.0435934
0.0435937
0.0435941
0.0435946
0.0435952
0.0435959
0.0435967
0.0435975
0.0435981
0.0435985
)
;

boundaryField
{
    movingWall
    {
        type            fixedValue;
        value           uniform 0.0436;
    }
    fixedWalls
    {
        type            zeroGradient;
    }
    floor
    {
        type            zeroGradient;
    }
    frontAndBack
    {
        type            empty;
    }
}


// ************************************************************************* //
