/*--------------------------------*- C++ -*----------------------------------*\
| =========                 |                                                 |
| \\      /  F ield         | OpenFOAM: The Open Source CFD Toolbox           |
|  \\    /   O peration     | Version:  2212                                  |
|   \\  /    A nd           | Website:  www.openfoam.com                      |
|    \\/     M anipulation  |                                                 |
\*---------------------------------------------------------------------------*/
FoamFile
{
    version     2.0;
    format      ascii;
    arch        "LSB;label=64;scalar=64";
    class       volScalarField;
    location    "830";
    object      p_rgh;
}
// * * * * * * * * * * * * * * * * * * * * * * * * * * * * * * * * * * * * * //

dimensions      [0 2 -2 0 0 0 0];

internalField   nonuniform List<scalar> 
1024
(
0.0431952
0.0431912
0.0431884
0.0431906
0.0432001
0.0432187
0.0432488
0.0432925
0.0433485
0.0434056
0.0434412
0.0434412
0.0433954
0.0432966
0.0431534
0.0429686
0.0427561
0.0425587
0.0424126
0.0423213
0.0422725
0.0422514
0.0422464
0.0422493
0.0422552
0.0422611
0.0422658
0.0422694
0.0422726
0.0422759
0.0422791
0.0422809
0.043204
0.0432
0.043198
0.0432011
0.043211
0.0432295
0.0432594
0.043303
0.0433591
0.0434164
0.0434521
0.0434524
0.0434071
0.0433085
0.0431652
0.0429802
0.0427674
0.0425698
0.0424235
0.0423322
0.0422832
0.0422618
0.0422563
0.0422587
0.042264
0.0422693
0.0422734
0.0422764
0.0422789
0.0422815
0.0422841
0.0422861
0.0432169
0.0432125
0.0432115
0.0432165
0.0432285
0.043249
0.0432811
0.0433271
0.043386
0.0434456
0.0434822
0.0434831
0.0434379
0.0433389
0.0431949
0.043009
0.0427949
0.0425956
0.0424478
0.0423551
0.0423051
0.0422827
0.0422762
0.0422775
0.0422817
0.0422858
0.0422885
0.04229
0.042291
0.0422924
0.0422948
0.0422973
0.043228
0.0432234
0.043224
0.0432328
0.0432497
0.043276
0.0433141
0.0433664
0.0434309
0.0434943
0.0435323
0.0435336
0.0434883
0.0433889
0.0432445
0.0430576
0.0428415
0.0426394
0.0424879
0.0423923
0.04234
0.0423156
0.0423073
0.042307
0.0423095
0.0423117
0.0423121
0.0423108
0.0423091
0.0423088
0.042311
0.0423145
0.0432291
0.0432254
0.0432294
0.0432447
0.0432706
0.0433071
0.0433558
0.043418
0.0434894
0.0435559
0.043594
0.0435946
0.0435495
0.0434512
0.0433082
0.0431218
0.0429046
0.0426999
0.0425437
0.0424441
0.0423884
0.0423611
0.0423503
0.0423476
0.0423476
0.0423469
0.0423438
0.0423383
0.0423324
0.0423291
0.0423305
0.0423348
0.0432122
0.0432107
0.0432202
0.0432452
0.0432846
0.0433364
0.0433998
0.0434737
0.0435508
0.0436178
0.0436538
0.0436522
0.043607
0.0435117
0.0433725
0.0431891
0.0429735
0.0427681
0.042609
0.042506
0.042447
0.0424165
0.0424024
0.0423964
0.0423929
0.0423881
0.0423796
0.0423677
0.0423556
0.0423475
0.0423469
0.0423515
0.0431728
0.0431742
0.0431907
0.0432282
0.043285
0.0433563
0.0434373
0.043523
0.0436042
0.0436692
0.0437012
0.0436953
0.0436488
0.0435567
0.0434224
0.0432437
0.0430314
0.0428281
0.0426703
0.0425669
0.0425069
0.0424742
0.0424567
0.0424465
0.042438
0.0424268
0.0424104
0.0423893
0.042368
0.0423528
0.0423486
0.0423525
0.0431125
0.043117
0.0431407
0.0431916
0.0432681
0.0433615
0.0434618
0.0435593
0.0436445
0.0437073
0.0437343
0.0437222
0.0436721
0.0435811
0.0434498
0.0432744
0.0430646
0.0428636
0.0427112
0.0426113
0.0425544
0.0425222
0.0425023
0.0424873
0.0424716
0.0424509
0.0424228
0.0423886
0.0423547
0.0423301
0.0423206
0.0423227
0.0430386
0.0430456
0.0430754
0.0431387
0.0432347
0.0433512
0.0434722
0.0435837
0.0436757
0.043738
0.0437595
0.0437385
0.0436822
0.0435885
0.0434566
0.0432803
0.0430681
0.0428656
0.0427165
0.0426244
0.0425758
0.0425481
0.0425274
0.0425069
0.0424816
0.0424476
0.042403
0.0423511
0.0423015
0.0422658
0.0422502
0.0422497
0.0429614
0.0429702
0.0430041
0.0430772
0.0431907
0.04333
0.0434739
0.0436043
0.0437081
0.0437713
0.0437854
0.0437546
0.0436884
0.0435881
0.0434511
0.0432689
0.043047
0.0428352
0.0426833
0.0425999
0.0425636
0.0425438
0.0425238
0.0424969
0.0424592
0.0424073
0.0423413
0.0422682
0.0422016
0.0421555
0.0421346
0.0421314
0.0428913
0.0429008
0.0429369
0.0430169
0.0431452
0.0433073
0.0434777
0.0436337
0.0437543
0.0438184
0.0438222
0.0437782
0.0436994
0.0435893
0.0434435
0.043251
0.0430124
0.0427825
0.0426186
0.0425418
0.0425198
0.0425092
0.0424895
0.0424543
0.0424007
0.0423269
0.0422368
0.0421427
0.0420629
0.0420109
0.0419874
0.0419818
0.0428349
0.0428445
0.042882
0.0429675
0.0431096
0.0432959
0.0434984
0.0436862
0.043825
0.0438868
0.0438769
0.0438171
0.0437235
0.0436004
0.0434419
0.0432355
0.0429809
0.0427272
0.042539
0.0424537
0.0424512
0.0424481
0.0424256
0.0423794
0.0423078
0.0422117
0.0421002
0.0419939
0.041913
0.0418637
0.0418415
0.0418353
0.0427946
0.0428043
0.042844
0.0429367
0.0430954
0.0433109
0.043552
0.0437725
0.0439238
0.043977
0.0439509
0.0438757
0.0437684
0.0436323
0.0434607
0.0432402
0.0429678
0.0426889
0.04247
0.0423551
0.0423457
0.0423442
0.0423194
0.0422657
0.0421836
0.0420807
0.0419711
0.0418734
0.0418021
0.0417602
0.0417414
0.0417352
0.0427668
0.0427776
0.0428227
0.0429287
0.0431128
0.0433676
0.0436532
0.0438998
0.0440424
0.0440794
0.0440387
0.0439535
0.0438391
0.0436962
0.0435172
0.0432901
0.0430114
0.0427172
0.0424636
0.0422853
0.042207
0.042196
0.0421807
0.0421423
0.0420772
0.0419925
0.0419032
0.0418261
0.0417723
0.0417429
0.0417309
0.0417271
0.0427417
0.0427559
0.0428132
0.0429455
0.0431729
0.0434828
0.0438136
0.0440693
0.0441877
0.0441933
0.0441378
0.0440509
0.0439431
0.0438073
0.0436359
0.0434224
0.0431679
0.0429016
0.0426632
0.0424661
0.0423155
0.0422137
0.0421641
0.0421423
0.042099
0.042035
0.0419659
0.04191
0.0418776
0.0418674
0.0418697
0.0418733
0.0426743
0.0426945
0.0427698
0.0429364
0.0432131
0.0435735
0.0439352
0.0442013
0.0443331
0.0443582
0.0443184
0.0442376
0.0441244
0.0439872
0.0438312
0.0436506
0.0434512
0.043266
0.0431264
0.0430366
0.0429868
0.0429533
0.0429024
0.0428152
0.042709
0.042588
0.0424737
0.0424045
0.0423841
0.0423962
0.0424203
0.0424376
0.0424916
0.0425179
0.0426071
0.0427976
0.0431069
0.0435001
0.0438881
0.0441801
0.0443463
0.0444118
0.0444134
0.0443729
0.044297
0.0441845
0.0440304
0.0438497
0.0436638
0.0434985
0.0433857
0.0433331
0.0433387
0.0433911
0.0434724
0.0435607
0.0436349
0.0436803
0.043691
0.0436617
0.0436219
0.0435981
0.0435951
0.0436022
0.0422538
0.0422847
0.0423804
0.0425802
0.0429038
0.0433189
0.0437368
0.0440666
0.0442745
0.0443798
0.0444176
0.0444105
0.044366
0.0442834
0.0441582
0.0439839
0.0437775
0.0435702
0.043397
0.043268
0.0431881
0.043156
0.0431642
0.043201
0.043254
0.043314
0.0433786
0.0434487
0.0435256
0.0436024
0.0436623
0.0436911
0.0420472
0.0420814
0.0421777
0.0423711
0.0426876
0.043112
0.043556
0.0439274
0.044182
0.0443287
0.0444007
0.0444237
0.0444084
0.0443559
0.0442619
0.0441157
0.0439001
0.043663
0.0434462
0.0432555
0.0430984
0.0429819
0.0429077
0.042873
0.0428716
0.0428929
0.0429295
0.0429766
0.0430347
0.0431016
0.0431634
0.0431986
0.0418989
0.0419367
0.0420333
0.0422174
0.042513
0.0429134
0.0433583
0.0437683
0.0440769
0.0442675
0.0443724
0.0444202
0.0444259
0.0443938
0.0443193
0.0441881
0.0439744
0.0437278
0.0434995
0.0432864
0.0430906
0.0429244
0.0427913
0.0426968
0.0426441
0.0426268
0.0426344
0.0426565
0.0426883
0.0427274
0.0427676
0.0427928
0.0418027
0.0418445
0.0419419
0.0421169
0.0423898
0.0427594
0.0431844
0.043598
0.0439373
0.0441706
0.0443095
0.0443781
0.0443939
0.0443642
0.0442852
0.0441457
0.0439478
0.0437186
0.0435014
0.0432924
0.0430941
0.0429217
0.0427689
0.0426409
0.0425533
0.0425058
0.0424915
0.0424971
0.0425123
0.0425314
0.0425518
0.0425649
0.0417401
0.0417857
0.0418852
0.0420534
0.0423058
0.0426439
0.0430384
0.0434354
0.0437787
0.044032
0.0441923
0.0442734
0.0442905
0.0442516
0.0441555
0.0439961
0.0437988
0.043595
0.0434049
0.0432306
0.0430711
0.0429251
0.04279
0.042656
0.0425596
0.0424962
0.0424692
0.0424671
0.042475
0.0424835
0.04249
0.0424926
0.0416931
0.0417421
0.0418444
0.0420092
0.0422468
0.0425583
0.0429207
0.0432889
0.0436139
0.0438606
0.0440201
0.0440984
0.0441068
0.0440525
0.0439381
0.0437643
0.0435694
0.0433928
0.0432372
0.0431015
0.0429843
0.042881
0.0427884
0.0427034
0.0426322
0.0425694
0.0425424
0.0425422
0.0425523
0.0425587
0.0425572
0.0425518
0.0416512
0.0417019
0.0418067
0.0419711
0.042201
0.0424942
0.0428285
0.0431626
0.0434535
0.0436701
0.0438045
0.0438609
0.0438485
0.0437746
0.0436445
0.0434653
0.04328
0.0431338
0.0430164
0.0429241
0.042854
0.0428019
0.0427632
0.0427344
0.0427139
0.042698
0.0426918
0.0427036
0.0427265
0.0427402
0.0427371
0.0427268
0.0416124
0.0416622
0.0417678
0.0419339
0.0421626
0.042446
0.0427578
0.0430561
0.0433017
0.0434709
0.0435604
0.0435775
0.0435329
0.0434352
0.0432922
0.0431151
0.0429491
0.0428356
0.0427585
0.0427122
0.0426923
0.0426948
0.0427154
0.0427498
0.0427934
0.042841
0.042889
0.042936
0.0429847
0.0430191
0.0430232
0.0430129
0.0415806
0.0416268
0.0417314
0.041901
0.0421331
0.0424121
0.0427039
0.0429635
0.0431556
0.0432652
0.0432968
0.0432638
0.04318
0.0430564
0.0429036
0.0427353
0.0425961
0.042518
0.0424824
0.0424819
0.0425117
0.042568
0.0426479
0.0427476
0.0428618
0.0429838
0.0431049
0.043217
0.0433137
0.0433895
0.0434167
0.0434158
0.0415579
0.0416005
0.0417029
0.0418759
0.0421148
0.0423899
0.0426586
0.0428734
0.043005
0.0430485
0.0430169
0.0429304
0.0428066
0.0426595
0.042502
0.0423499
0.0422435
0.0422029
0.0422087
0.0422519
0.0423276
0.0424332
0.0425675
0.0427285
0.0429124
0.0431129
0.0433194
0.0435188
0.0436968
0.043842
0.043921
0.0439472
0.041532
0.0415753
0.0416816
0.0418585
0.0420976
0.0423671
0.0426052
0.0427675
0.0428341
0.0428107
0.0427186
0.0425832
0.0424261
0.042264
0.0421112
0.0419838
0.0419152
0.0419133
0.0419585
0.0420408
0.0421562
0.0423035
0.0424834
0.0426966
0.0429422
0.0432169
0.0435123
0.0438152
0.0441065
0.0443594
0.0445338
0.0446184
0.0414662
0.0415211
0.041644
0.0418329
0.0420662
0.0423201
0.0425175
0.0426225
0.0426266
0.0425443
0.0424035
0.0422334
0.042058
0.041895
0.0417583
0.041663
0.0416342
0.0416701
0.0417498
0.0418646
0.0420114
0.0421909
0.0424053
0.0426583
0.0429521
0.0432885
0.0436654
0.0440767
0.0445069
0.0449225
0.0452508
0.0454637
0.0412868
0.041395
0.0415693
0.0417796
0.0420087
0.0422276
0.042378
0.0424306
0.0423854
0.0422632
0.0420948
0.0419106
0.0417354
0.0415855
0.0414735
0.0414125
0.0414199
0.0414878
0.0415947
0.0417334
0.0419024
0.0421039
0.0423415
0.0426208
0.042947
0.0433268
0.0437667
0.0442737
0.0448517
0.0454834
0.0460889
0.0466253
0.0407805
0.0411902
0.0414914
0.0417247
0.0419327
0.0421091
0.0422165
0.0422317
0.0421584
0.0420186
0.0418438
0.0416635
0.0415005
0.0413697
0.0412821
0.041249
0.041283
0.0413728
0.0414972
0.0416508
0.041833
0.0420469
0.0422971
0.0425902
0.0429333
0.0433365
0.0438135
0.0443856
0.0450863
0.0459597
0.0470411
0.0482843
0.0397373
0.0409816
0.041486
0.0417028
0.0418826
0.0420291
0.0421094
0.0421055
0.0420222
0.0418802
0.0417091
0.0415367
0.0413847
0.0412668
0.0411932
0.0411745
0.0412214
0.0413212
0.0414536
0.0416135
0.041801
0.0420196
0.0422743
0.0425719
0.0429205
0.0433313
0.043822
0.0444255
0.045204
0.0462735
0.0478567
0.0501009
)
;

boundaryField
{
    movingWall
    {
        type            fixedFluxPressure;
        gradient        uniform 0;
        value           nonuniform List<scalar> 
32
(
0.0397373
0.0409816
0.041486
0.0417028
0.0418826
0.0420291
0.0421094
0.0421055
0.0420222
0.0418802
0.0417091
0.0415367
0.0413847
0.0412668
0.0411932
0.0411745
0.0412214
0.0413212
0.0414536
0.0416135
0.041801
0.0420196
0.0422743
0.0425719
0.0429205
0.0433313
0.043822
0.0444255
0.045204
0.0462735
0.0478567
0.0501009
)
;
    }
    fixedWalls
    {
        type            fixedFluxPressure;
        gradient        uniform 0;
        value           nonuniform List<scalar> 
64
(
0.0431952
0.043204
0.0432169
0.043228
0.0432291
0.0432122
0.0431728
0.0431125
0.0430386
0.0429614
0.0428913
0.0428349
0.0427946
0.0427668
0.0427417
0.0426743
0.0424916
0.0422538
0.0420472
0.0418989
0.0418027
0.0417401
0.0416931
0.0416512
0.0416124
0.0415806
0.0415579
0.041532
0.0414662
0.0412868
0.0407805
0.0397373
0.0422809
0.0422861
0.0422973
0.0423145
0.0423348
0.0423515
0.0423525
0.0423227
0.0422497
0.0421314
0.0419818
0.0418353
0.0417352
0.0417271
0.0418733
0.0424376
0.0436022
0.0436911
0.0431986
0.0427928
0.0425649
0.0424926
0.0425518
0.0427268
0.0430129
0.0434158
0.0439472
0.0446184
0.0454637
0.0466253
0.0482843
0.0501009
)
;
    }
    floor
    {
        type            fixedFluxPressure;
        gradient        uniform 0;
        value           nonuniform List<scalar> 
32
(
0.0431952
0.0431912
0.0431884
0.0431906
0.0432001
0.0432187
0.0432488
0.0432925
0.0433485
0.0434056
0.0434412
0.0434412
0.0433954
0.0432966
0.0431534
0.0429686
0.0427561
0.0425587
0.0424126
0.0423213
0.0422725
0.0422514
0.0422464
0.0422493
0.0422552
0.0422611
0.0422658
0.0422694
0.0422726
0.0422759
0.0422791
0.0422809
)
;
    }
    frontAndBack
    {
        type            empty;
    }
}


// ************************************************************************* //
