/*--------------------------------*- C++ -*----------------------------------*\
| =========                 |                                                 |
| \\      /  F ield         | OpenFOAM: The Open Source CFD Toolbox           |
|  \\    /   O peration     | Version:  2212                                  |
|   \\  /    A nd           | Website:  www.openfoam.com                      |
|    \\/     M anipulation  |                                                 |
\*---------------------------------------------------------------------------*/
FoamFile
{
    version     2.0;
    format      ascii;
    arch        "LSB;label=64;scalar=64";
    class       volVectorField;
    location    "830";
    object      U;
}
// * * * * * * * * * * * * * * * * * * * * * * * * * * * * * * * * * * * * * //

dimensions      [0 1 -1 0 0 0 0];

internalField   nonuniform List<vector> 
1024
(
(6.17264e-06 -7.16665e-06 0)
(-0.000133152 3.62087e-05 0)
(-0.000490176 6.8992e-05 0)
(-0.00100036 7.53472e-05 0)
(-0.00155412 6.7615e-05 0)
(-0.00206586 5.43427e-05 0)
(-0.00246312 3.67135e-05 0)
(-0.00265408 1.30682e-05 0)
(-0.00252123 -1.899e-05 0)
(-0.00191538 -5.23318e-05 0)
(-0.000887306 -6.29674e-05 0)
(0.000455278 -5.93765e-05 0)
(0.00177943 -4.64838e-05 0)
(0.00288582 -2.91935e-05 0)
(0.00377926 -1.93752e-05 0)
(0.00452086 -1.30156e-05 0)
(0.00501382 -3.98113e-06 0)
(0.00508681 9.52864e-06 0)
(0.00476483 2.28636e-05 0)
(0.0041752 3.04865e-05 0)
(0.00349134 3.30756e-05 0)
(0.00282232 3.24299e-05 0)
(0.00222299 2.97306e-05 0)
(0.00171597 2.57331e-05 0)
(0.00130395 2.12763e-05 0)
(0.000973875 1.7674e-05 0)
(0.000700059 1.67202e-05 0)
(0.000456874 1.84485e-05 0)
(0.000239668 1.89921e-05 0)
(7.30032e-05 1.21184e-05 0)
(-1.09968e-05 -3.39643e-06 0)
(-1.43419e-05 -1.46437e-05 0)
(-4.46777e-05 0.000138339 0)
(-0.000536346 0.000486347 0)
(-0.00149991 0.000720155 0)
(-0.00279283 0.000761688 0)
(-0.00416376 0.000666263 0)
(-0.00539562 0.000499097 0)
(-0.00629424 0.000288986 0)
(-0.00664381 4.24354e-05 0)
(-0.00620319 -0.000240368 0)
(-0.00470174 -0.000500671 0)
(-0.00224718 -0.000629108 0)
(0.00108797 -0.000622632 0)
(0.00439677 -0.000500507 0)
(0.00725411 -0.000352961 0)
(0.00969019 -0.00025333 0)
(0.0117903 -0.000176323 0)
(0.0132631 -8.09346e-05 0)
(0.0136851 4.30753e-05 0)
(0.0131257 0.000170502 0)
(0.0118423 0.000266813 0)
(0.0102156 0.000324067 0)
(0.00852088 0.000349613 0)
(0.00692039 0.000351555 0)
(0.00549755 0.000336769 0)
(0.00428183 0.000313559 0)
(0.00325994 0.000293669 0)
(0.00238723 0.000288722 0)
(0.00161758 0.000294856 0)
(0.000945279 0.000282315 0)
(0.000420109 0.00021336 0)
(0.000105579 8.95175e-05 0)
(-2.73711e-06 -1.26837e-05 0)
(-0.000101082 0.000581709 0)
(-0.000943646 0.00152451 0)
(-0.00241728 0.00205406 0)
(-0.00429549 0.00209957 0)
(-0.00622475 0.00179569 0)
(-0.00789938 0.00129682 0)
(-0.00904086 0.000689801 0)
(-0.00936229 1.14359e-05 0)
(-0.00855582 -0.000717515 0)
(-0.00639523 -0.00135658 0)
(-0.00305069 -0.00170602 0)
(0.00157273 -0.00171178 0)
(0.00615022 -0.00139613 0)
(0.0102669 -0.0010248 0)
(0.0139555 -0.000763308 0)
(0.0172709 -0.000548768 0)
(0.019735 -0.000286938 0)
(0.0207355 4.49667e-05 0)
(0.0203122 0.000390971 0)
(0.0187958 0.000674737 0)
(0.0166617 0.000869841 0)
(0.0142877 0.000984595 0)
(0.0119221 0.00103434 0)
(0.00971267 0.00103471 0)
(0.00773192 0.00100615 0)
(0.00599233 0.000976967 0)
(0.00446286 0.000972939 0)
(0.00310401 0.000983683 0)
(0.00191419 0.00094112 0)
(0.000954323 0.000759441 0)
(0.000317528 0.000432257 0)
(2.16741e-05 9.44892e-05 0)
(-0.000135799 0.00134634 0)
(-0.00121111 0.00319718 0)
(-0.00301816 0.00409479 0)
(-0.00525222 0.00407328 0)
(-0.00748177 0.00340831 0)
(-0.00934446 0.00237984 0)
(-0.0105145 0.00116137 0)
(-0.0106743 -0.000156347 0)
(-0.00950809 -0.00149675 0)
(-0.00692878 -0.0026156 0)
(-0.00317621 -0.00325197 0)
(0.00197956 -0.00327206 0)
(0.00703084 -0.00270765 0)
(0.0118163 -0.00205998 0)
(0.0163178 -0.00158772 0)
(0.0205576 -0.00118183 0)
(0.0239209 -0.000684998 0)
(0.0256724 -5.37624e-05 0)
(0.0256909 0.000614643 0)
(0.0243532 0.00119053 0)
(0.022152 0.00162414 0)
(0.0195056 0.00191932 0)
(0.0167092 0.00209597 0)
(0.0139559 0.00217762 0)
(0.0113606 0.00219712 0)
(0.00897506 0.0022 0)
(0.0068046 0.00222648 0)
(0.0048375 0.00225957 0)
(0.00308553 0.00218683 0)
(0.00162321 0.00185184 0)
(0.000589989 0.00120103 0)
(5.29885e-05 0.000390446 0)
(-0.000138753 0.00235489 0)
(-0.00126413 0.00537211 0)
(-0.0031639 0.00670423 0)
(-0.0055017 0.00654785 0)
(-0.0077991 0.00537545 0)
(-0.0096543 0.00363293 0)
(-0.0107163 0.00161244 0)
(-0.0106601 -0.000510209 0)
(-0.0092398 -0.00255969 0)
(-0.00649421 -0.00418743 0)
(-0.00272713 -0.00510742 0)
(0.00230708 -0.00511184 0)
(0.00716459 -0.00429188 0)
(0.0120475 -0.00337844 0)
(0.0168562 -0.00269151 0)
(0.0216088 -0.00207862 0)
(0.0256405 -0.00131573 0)
(0.0281225 -0.000328405 0)
(0.0287985 0.000745478 0)
(0.027933 0.00170634 0)
(0.0260151 0.0024772 0)
(0.0234659 0.00305546 0)
(0.0205909 0.00346357 0)
(0.0176009 0.0037303 0)
(0.0146372 0.00389719 0)
(0.0117862 0.00402165 0)
(0.00909364 0.00415316 0)
(0.00658495 0.00426656 0)
(0.004297 0.00419974 0)
(0.00232979 0.00369374 0)
(0.000882869 0.00257859 0)
(8.77242e-05 0.000963655 0)
(-0.000111652 0.00345124 0)
(-0.00110562 0.00779046 0)
(-0.00285738 0.00964939 0)
(-0.0050644 0.00934989 0)
(-0.00724396 0.00757351 0)
(-0.00896862 0.00497073 0)
(-0.00987272 0.00199564 0)
(-0.00964184 -0.00104642 0)
(-0.00813409 -0.00384672 0)
(-0.00546432 -0.00596214 0)
(-0.00197859 -0.00709785 0)
(0.00246197 -0.00703784 0)
(0.00671877 -0.00599336 0)
(0.0112516 -0.00486859 0)
(0.0159124 -0.00400092 0)
(0.020742 -0.0032051 0)
(0.025118 -0.00218613 0)
(0.0281511 -0.000830569 0)
(0.0295254 0.00070124 0)
(0.0292587 0.00212299 0)
(0.0278234 0.00331729 0)
(0.0256251 0.00427687 0)
(0.0229541 0.00502811 0)
(0.0200142 0.00560328 0)
(0.016953 0.00604819 0)
(0.0138778 0.00642476 0)
(0.0108652 0.00678322 0)
(0.00797545 0.00708244 0)
(0.00527766 0.00709684 0)
(0.00290743 0.00642379 0)
(0.00112425 0.00469397 0)
(0.000117155 0.00188121 0)
(-6.81438e-05 0.0044469 0)
(-0.000808103 0.0101227 0)
(-0.00223093 0.0126277 0)
(-0.00412712 0.012271 0)
(-0.00606001 0.00988546 0)
(-0.00759552 0.00634594 0)
(-0.00835856 0.00231876 0)
(-0.00805516 -0.0017074 0)
(-0.00662822 -0.00526513 0)
(-0.00423365 -0.00781747 0)
(-0.00123694 -0.00906268 0)
(0.00231619 -0.00888577 0)
(0.005804 -0.00768072 0)
(0.00969587 -0.0064171 0)
(0.0138778 -0.00542636 0)
(0.0184241 -0.00450252 0)
(0.0228254 -0.00327262 0)
(0.0261691 -0.00157447 0)
(0.0281182 0.000438205 0)
(0.0284161 0.00237495 0)
(0.0275035 0.00405709 0)
(0.025768 0.00547837 0)
(0.02347 0.00667423 0)
(0.0207874 0.0076804 0)
(0.0178576 0.00854283 0)
(0.0147936 0.0093209 0)
(0.0116907 0.0100552 0)
(0.00863715 0.0106729 0)
(0.0057369 0.0108582 0)
(0.00316508 0.0100191 0)
(0.00122434 0.0075196 0)
(0.000127999 0.00312874 0)
(-2.54753e-05 0.00518653 0)
(-0.000474234 0.0120563 0)
(-0.00147945 0.0153202 0)
(-0.00295789 0.0150842 0)
(-0.00456819 0.0121995 0)
(-0.0058963 0.00774239 0)
(-0.00656185 0.00263292 0)
(-0.00629207 -0.00240108 0)
(-0.00507453 -0.00669936 0)
(-0.00310681 -0.00960978 0)
(-0.000767727 -0.0108471 0)
(0.00180636 -0.0105212 0)
(0.00444154 -0.00923699 0)
(0.00752595 -0.00791442 0)
(0.0110195 -0.00687518 0)
(0.0150291 -0.0059029 0)
(0.0192019 -0.00453853 0)
(0.0226629 -0.00254461 0)
(0.0249403 -5.93457e-05 0)
(0.0257184 0.00243101 0)
(0.0252684 0.00464212 0)
(0.0239962 0.00657993 0)
(0.022136 0.0082992 0)
(0.0198293 0.00984136 0)
(0.0171911 0.0112491 0)
(0.0143289 0.0125721 0)
(0.011347 0.0138276 0)
(0.00835651 0.014885 0)
(0.00549755 0.0152978 0)
(0.00298269 0.0142439 0)
(0.001126 0.0108053 0)
(0.000111615 0.00456548 0)
(4.56722e-06 0.00559833 0)
(-0.000191582 0.0133832 0)
(-0.0007858 0.017459 0)
(-0.00181614 0.0175705 0)
(-0.00307041 0.0144043 0)
(-0.00418684 0.00915379 0)
(-0.00478856 0.00300399 0)
(-0.00462186 -0.00302556 0)
(-0.00370025 -0.0080141 0)
(-0.0022785 -0.0111629 0)
(-0.000719946 -0.0122807 0)
(0.000867741 -0.0118235 0)
(0.00259128 -0.0105365 0)
(0.00477311 -0.00924338 0)
(0.0074467 -0.00824645 0)
(0.010741 -0.00732977 0)
(0.014482 -0.00594676 0)
(0.0179305 -0.00372757 0)
(0.020408 -0.000783016 0)
(0.0215918 0.00228958 0)
(0.0214913 0.00505167 0)
(0.0206134 0.00753174 0)
(0.0191858 0.00982118 0)
(0.0173067 0.011973 0)
(0.0150591 0.0140243 0)
(0.0125373 0.0160062 0)
(0.00984918 0.0178924 0)
(0.00712855 0.0194541 0)
(0.00455351 0.0200628 0)
(0.00236391 0.0186475 0)
(0.000838156 0.0140882 0)
(7.109e-05 0.00593615 0)
(1.68194e-05 0.005704 0)
(-1.03848e-05 0.0140562 0)
(-0.00027411 0.0188951 0)
(-0.000897949 0.0195546 0)
(-0.00180079 0.0163852 0)
(-0.00270237 0.0105563 0)
(-0.00324893 0.00348227 0)
(-0.0032152 -0.00347936 0)
(-0.00266027 -0.00904057 0)
(-0.00188911 -0.012263 0)
(-0.00119371 -0.0131824 0)
(-0.000583824 -0.012632 0)
(0.000188631 -0.0114311 0)
(0.00140867 -0.0102672 0)
(0.00316699 -0.00941747 0)
(0.00559717 -0.00868272 0)
(0.00870979 -0.0074506 0)
(0.0120026 -0.00513847 0)
(0.0146595 -0.0017669 0)
(0.0163082 0.00194241 0)
(0.0164813 0.00527406 0)
(0.0159302 0.00829363 0)
(0.0149196 0.0111643 0)
(0.0134957 0.0139605 0)
(0.0117023 0.0167121 0)
(0.00961919 0.019419 0)
(0.00736134 0.0219771 0)
(0.00509291 0.024 0)
(0.0030318 0.0246268 0)
(0.0014171 0.0225843 0)
(0.000426887 0.0167591 0)
(1.92997e-05 0.00693572 0)
(1.92341e-05 0.00560768 0)
(6.78473e-05 0.0141947 0)
(1.20296e-06 0.0196475 0)
(-0.000321936 0.0209562 0)
(-0.000921228 0.0180402 0)
(-0.00161385 0.0118959 0)
(-0.00210065 0.00408961 0)
(-0.00221689 -0.00364571 0)
(-0.00211563 -0.0095464 0)
(-0.00209727 -0.0126413 0)
(-0.00231851 -0.0133379 0)
(-0.00265168 -0.0127415 0)
(-0.00283011 -0.0117335 0)
(-0.00260858 -0.0108405 0)
(-0.00184683 -0.0102498 0)
(-0.000417798 -0.00982421 0)
(0.0018628 -0.00894321 0)
(0.0047431 -0.00676752 0)
(0.00745467 -0.00314177 0)
(0.00984032 0.00138385 0)
(0.0103474 0.00530135 0)
(0.0101218 0.00880669 0)
(0.00956132 0.0122245 0)
(0.00863342 0.0156579 0)
(0.00734572 0.019121 0)
(0.0057798 0.0225541 0)
(0.00407622 0.0257175 0)
(0.00244923 0.0279881 0)
(0.00114529 0.0282627 0)
(0.000329889 0.0252429 0)
(3.46802e-06 0.0181593 0)
(-2.28568e-05 0.00728459 0)
(1.25783e-05 0.00543884 0)
(5.66725e-05 0.0140806 0)
(4.54815e-05 0.0199523 0)
(-0.000127764 0.0218616 0)
(-0.000521921 0.0193387 0)
(-0.00104392 0.0131195 0)
(-0.00148836 0.00484551 0)
(-0.00180069 -0.00334765 0)
(-0.002265 -0.00920968 0)
(-0.00307937 -0.011971 0)
(-0.00423339 -0.0124815 0)
(-0.00550265 -0.0119849 0)
(-0.00662026 -0.0112851 0)
(-0.00737191 -0.0107734 0)
(-0.00760591 -0.0105689 0)
(-0.00719708 -0.0105399 0)
(-0.00600621 -0.0101491 0)
(-0.00394029 -0.00845904 0)
(-0.00148265 -0.00510307 0)
(0.00120906 0.000163268 0)
(0.00292947 0.00499674 0)
(0.00316126 0.00892272 0)
(0.00317383 0.0128356 0)
(0.00279996 0.0168903 0)
(0.00207909 0.0210542 0)
(0.00115297 0.0251313 0)
(0.000218805 0.0286425 0)
(-0.000471882 0.0306111 0)
(-0.000759139 0.0299148 0)
(-0.000667825 0.0257299 0)
(-0.00035852 0.0178507 0)
(-5.92436e-05 0.00690081 0)
(3.68995e-07 0.0053589 0)
(-1.90998e-05 0.0140721 0)
(-9.40759e-05 0.0202397 0)
(-0.000275753 0.0225806 0)
(-0.000604533 0.0204193 0)
(-0.00104728 0.0142763 0)
(-0.00153105 0.0058677 0)
(-0.00216014 -0.00228596 0)
(-0.00331809 -0.00763617 0)
(-0.00500578 -0.00991696 0)
(-0.00705597 -0.0103464 0)
(-0.00921051 -0.0101239 0)
(-0.0112342 -0.00988678 0)
(-0.0129503 -0.00989588 0)
(-0.0142151 -0.0102123 0)
(-0.0148821 -0.0107097 0)
(-0.0147509 -0.0108743 0)
(-0.0135925 -0.00971668 0)
(-0.0116908 -0.00676976 0)
(-0.00925058 -0.00211919 0)
(-0.00620524 0.00344558 0)
(-0.00516684 0.00820172 0)
(-0.00441837 0.0127589 0)
(-0.00402896 0.0174476 0)
(-0.0038866 0.0221166 0)
(-0.00380499 0.0263263 0)
(-0.00358798 0.0293871 0)
(-0.00309964 0.0304019 0)
(-0.00233346 0.0285717 0)
(-0.00142335 0.0235377 0)
(-0.000602314 0.0156137 0)
(-7.6095e-05 0.00574063 0)
(-1.32491e-05 0.00553071 0)
(-0.000132503 0.01456 0)
(-0.000357327 0.0210123 0)
(-0.000685096 0.0236071 0)
(-0.00110663 0.0216452 0)
(-0.0016207 0.0156421 0)
(-0.00232002 0.00752321 0)
(-0.00351626 0.000101739 0)
(-0.00542718 -0.0045145 0)
(-0.00800559 -0.0062688 0)
(-0.0108376 -0.00677201 0)
(-0.0137272 -0.00700085 0)
(-0.0165169 -0.00736879 0)
(-0.019082 -0.00801724 0)
(-0.0213077 -0.00896784 0)
(-0.0230507 -0.0101077 0)
(-0.024068 -0.0109928 0)
(-0.0239541 -0.0106568 0)
(-0.0227232 -0.00853575 0)
(-0.0205226 -0.0045854 0)
(-0.0173897 0.000757414 0)
(-0.0146347 0.00621517 0)
(-0.0127438 0.0112184 0)
(-0.0110718 0.0161104 0)
(-0.00953616 0.0207128 0)
(-0.00804617 0.0244546 0)
(-0.00650968 0.0266214 0)
(-0.00489385 0.0265303 0)
(-0.00326458 0.0237981 0)
(-0.00178617 0.0185759 0)
(-0.000678337 0.0116193 0)
(-7.05283e-05 0.00399713 0)
(-2.80476e-05 0.00612964 0)
(-0.000264893 0.0160157 0)
(-0.000699716 0.0229577 0)
(-0.00130464 0.0257261 0)
(-0.00204257 0.0238225 0)
(-0.00295806 0.0181027 0)
(-0.00427507 0.0109138 0)
(-0.00632116 0.00498679 0)
(-0.00905205 0.00131654 0)
(-0.0121464 -0.000715293 0)
(-0.0153946 -0.00188677 0)
(-0.0186301 -0.00283093 0)
(-0.021813 -0.00382254 0)
(-0.0248625 -0.00511807 0)
(-0.0277257 -0.00673704 0)
(-0.0302964 -0.00854847 0)
(-0.0323353 -0.0101988 0)
(-0.0333032 -0.0108516 0)
(-0.032954 -0.00997558 0)
(-0.0312699 -0.00748748 0)
(-0.0282964 -0.00348048 0)
(-0.0242141 0.0017036 0)
(-0.0200787 0.007011 0)
(-0.0164384 0.0114631 0)
(-0.0130278 0.0153515 0)
(-0.00996981 0.0182319 0)
(-0.00727956 0.0195 0)
(-0.0049433 0.0186944 0)
(-0.00298049 0.0158021 0)
(-0.00147278 0.0113976 0)
(-0.000503436 0.0064796 0)
(-4.81343e-05 0.00197369 0)
(-3.26406e-05 0.00723879 0)
(-0.000316273 0.0187254 0)
(-0.000865829 0.0266715 0)
(-0.00167905 0.0299508 0)
(-0.0027365 0.0284082 0)
(-0.00410062 0.023358 0)
(-0.00593395 0.0172915 0)
(-0.00834267 0.0123602 0)
(-0.0112448 0.00905639 0)
(-0.0144873 0.00677127 0)
(-0.017918 0.00484206 0)
(-0.0213911 0.00288954 0)
(-0.024759 0.000740375 0)
(-0.0279746 -0.00151234 0)
(-0.0309773 -0.00380435 0)
(-0.033797 -0.00621348 0)
(-0.0363205 -0.00862009 0)
(-0.0380122 -0.0104062 0)
(-0.0384933 -0.0111977 0)
(-0.0376444 -0.0110332 0)
(-0.0353816 -0.0099459 0)
(-0.0317593 -0.00790487 0)
(-0.0270317 -0.00481179 0)
(-0.0216731 -0.000763377 0)
(-0.0163521 0.00343645 0)
(-0.0114144 0.00717926 0)
(-0.00719605 0.00968632 0)
(-0.00396473 0.010131 0)
(-0.00179135 0.00879342 0)
(-0.000583734 0.0064246 0)
(-8.73407e-05 0.00373116 0)
(1.70407e-05 0.00118452 0)
(-1.42896e-05 0.00828953 0)
(-0.000198523 0.0214631 0)
(-0.000619643 0.0307551 0)
(-0.00133489 0.0350492 0)
(-0.00236511 0.034309 0)
(-0.00374037 0.0299992 0)
(-0.00549079 0.0245437 0)
(-0.00758123 0.0198339 0)
(-0.00992633 0.0163286 0)
(-0.012473 0.0135911 0)
(-0.015204 0.0111031 0)
(-0.0181109 0.0085652 0)
(-0.0211789 0.00585515 0)
(-0.0243675 0.00292404 0)
(-0.0275866 -0.000239108 0)
(-0.0304575 -0.00337536 0)
(-0.0328963 -0.00638837 0)
(-0.0347842 -0.00902345 0)
(-0.0357589 -0.0111236 0)
(-0.0357125 -0.0128683 0)
(-0.0345551 -0.0143652 0)
(-0.0322665 -0.0156122 0)
(-0.0289068 -0.0164836 0)
(-0.0246408 -0.0167265 0)
(-0.0197725 -0.0160304 0)
(-0.0147195 -0.0141054 0)
(-0.00993934 -0.0107805 0)
(-0.00585628 -0.0062049 0)
(-0.00285003 -0.00169247 0)
(-0.00103916 0.00131448 0)
(-0.000213889 0.00219962 0)
(9.21062e-06 0.00121867 0)
(7.77696e-06 0.00866995 0)
(-9.54085e-06 0.0227913 0)
(-0.000159461 0.0332459 0)
(-0.000563419 0.0387443 0)
(-0.00131316 0.0390258 0)
(-0.00243802 0.0353882 0)
(-0.00388286 0.0301758 0)
(-0.00552954 0.0253249 0)
(-0.00726905 0.0214823 0)
(-0.00906324 0.0183823 0)
(-0.010925 0.0155588 0)
(-0.0128771 0.0127003 0)
(-0.0149345 0.00966409 0)
(-0.0170999 0.00639497 0)
(-0.0193877 0.00288266 0)
(-0.0219056 -0.000800385 0)
(-0.0239995 -0.00427332 0)
(-0.0257973 -0.0073261 0)
(-0.0270742 -0.0101211 0)
(-0.0277085 -0.0129381 0)
(-0.0276184 -0.0159302 0)
(-0.0267511 -0.019098 0)
(-0.0250813 -0.0222779 0)
(-0.0226338 -0.0251193 0)
(-0.0195105 -0.027091 0)
(-0.0158906 -0.0275426 0)
(-0.012019 -0.0258483 0)
(-0.00819822 -0.0216851 0)
(-0.00479535 -0.015452 0)
(-0.00220219 -0.00858578 0)
(-0.000658615 -0.0030976 0)
(-4.00207e-05 -0.000204604 0)
(3.24955e-05 0.00839742 0)
(0.000198533 0.0225819 0)
(0.000367827 0.0336939 0)
(0.000388487 0.0403355 0)
(9.6216e-05 0.0419055 0)
(-0.000622465 0.0390998 0)
(-0.00170841 0.0340799 0)
(-0.00296676 0.0289471 0)
(-0.00419916 0.0246505 0)
(-0.00533293 0.021139 0)
(-0.00639412 0.0180011 0)
(-0.0074258 0.0149052 0)
(-0.00847204 0.011681 0)
(-0.00956939 0.00826825 0)
(-0.0107344 0.00467066 0)
(-0.0120376 0.000957096 0)
(-0.0140201 -0.00266361 0)
(-0.0155952 -0.00580183 0)
(-0.0170255 -0.00879585 0)
(-0.0181485 -0.0120079 0)
(-0.0189187 -0.0156664 0)
(-0.0192923 -0.0198573 0)
(-0.0191754 -0.0245141 0)
(-0.0184469 -0.0293255 0)
(-0.0170208 -0.0336879 0)
(-0.014877 -0.0367631 0)
(-0.0120998 -0.0375364 0)
(-0.00891029 -0.0350576 0)
(-0.00566765 -0.028895 0)
(-0.00285106 -0.019835 0)
(-0.000939067 -0.0102089 0)
(-6.72662e-05 -0.00255603 0)
(5.08418e-05 0.00761815 0)
(0.000386843 0.0211323 0)
(0.000876319 0.032404 0)
(0.00134833 0.0398825 0)
(0.00158796 0.0426713 0)
(0.00142411 0.0410649 0)
(0.000831766 0.0366474 0)
(-2.65911e-05 0.0312992 0)
(-0.000867531 0.0263972 0)
(-0.00149578 0.0224057 0)
(-0.00190225 0.0189512 0)
(-0.00213887 0.0156801 0)
(-0.00229291 0.0123789 0)
(-0.00246432 0.00895661 0)
(-0.00274315 0.00542299 0)
(-0.00312029 0.00185919 0)
(-0.00457489 -0.00154412 0)
(-0.00597006 -0.00457279 0)
(-0.00742406 -0.00747739 0)
(-0.00879405 -0.0106336 0)
(-0.0100713 -0.0143246 0)
(-0.0112614 -0.0186853 0)
(-0.0122899 -0.0238374 0)
(-0.012975 -0.029676 0)
(-0.0131116 -0.0356981 0)
(-0.0125094 -0.0410834 0)
(-0.0110607 -0.0445684 0)
(-0.0088326 -0.0446601 0)
(-0.00608984 -0.0400251 0)
(-0.00332296 -0.0303829 0)
(-0.00118829 -0.0175979 0)
(-0.00010144 -0.00520412 0)
(6.13109e-05 0.00655487 0)
(0.000530645 0.0188588 0)
(0.00130527 0.029843 0)
(0.00220847 0.0378463 0)
(0.00298818 0.0416878 0)
(0.00343061 0.041267 0)
(0.00344475 0.037681 0)
(0.00312559 0.0325648 0)
(0.00272862 0.027347 0)
(0.00252406 0.0228133 0)
(0.00264012 0.0189464 0)
(0.00304878 0.0154707 0)
(0.00362616 0.0121396 0)
(0.00420769 0.00881594 0)
(0.0046082 0.00548734 0)
(0.00478196 0.00227909 0)
(0.0039811 -0.000688658 0)
(0.00272622 -0.00344612 0)
(0.00124611 -0.00614801 0)
(-0.000339411 -0.00913939 0)
(-0.00199457 -0.0126878 0)
(-0.00368453 -0.0168132 0)
(-0.00540965 -0.0218096 0)
(-0.00707622 -0.0278849 0)
(-0.00845564 -0.0347109 0)
(-0.00926369 -0.0417407 0)
(-0.00919494 -0.0476527 0)
(-0.00812095 -0.0506106 0)
(-0.00613294 -0.048457 0)
(-0.00364579 -0.0396533 0)
(-0.00141308 -0.0249039 0)
(-0.000134985 -0.00806855 0)
(6.36287e-05 0.00540721 0)
(0.000614205 0.0161944 0)
(0.00160488 0.0265315 0)
(0.00287519 0.0347426 0)
(0.00415568 0.0394084 0)
(0.00520538 0.0400659 0)
(0.00588715 0.0373905 0)
(0.00623047 0.0327352 0)
(0.00642927 0.0274841 0)
(0.00674624 0.0226021 0)
(0.00736854 0.018382 0)
(0.00831544 0.0147178 0)
(0.00946399 0.0113923 0)
(0.0106116 0.0082344 0)
(0.0115115 0.00518209 0)
(0.0119882 0.0023117 0)
(0.0115666 -0.000288324 0)
(0.0104696 -0.0026837 0)
(0.00896882 -0.00509095 0)
(0.0072215 -0.00774749 0)
(0.00528715 -0.0108646 0)
(0.0032097 -0.0145918 0)
(0.00107651 -0.0191152 0)
(-0.00124967 -0.0250387 0)
(-0.00349387 -0.031912 0)
(-0.00546868 -0.039815 0)
(-0.00671756 -0.0475501 0)
(-0.00690504 -0.0532397 0)
(-0.00587141 -0.0540748 0)
(-0.00386418 -0.0472434 0)
(-0.00164052 -0.0317816 0)
(-0.00017247 -0.0110227 0)
(5.7753e-05 0.00433009 0)
(0.000625519 0.0135179 0)
(0.00173039 0.0229614 0)
(0.00325724 0.0310779 0)
(0.00494919 0.0362849 0)
(0.00656178 0.037809 0)
(0.00793549 0.0359742 0)
(0.00904677 0.0318773 0)
(0.0100107 0.0268165 0)
(0.0110199 0.0218331 0)
(0.0122402 0.0174283 0)
(0.0137112 0.0136672 0)
(0.0153332 0.0104024 0)
(0.016906 0.00745747 0)
(0.0181689 0.00472757 0)
(0.0188787 0.00222521 0)
(0.0187134 1.91683e-05 0)
(0.0176904 -0.0020005 0)
(0.016145 -0.00405433 0)
(0.0142093 -0.00636933 0)
(0.0119756 -0.0091354 0)
(0.00953257 -0.0125057 0)
(0.00698649 -0.0166406 0)
(0.00433072 -0.0217626 0)
(0.00159686 -0.0280753 0)
(-0.00126251 -0.0362263 0)
(-0.00369399 -0.0450386 0)
(-0.00520693 -0.0530309 0)
(-0.00532075 -0.05701 0)
(-0.00400632 -0.0530147 0)
(-0.00191381 -0.0380971 0)
(-0.000222615 -0.0140605 0)
(4.43713e-05 0.00343528 0)
(0.000555348 0.0111405 0)
(0.00164215 0.0195705 0)
(0.00327225 0.0273226 0)
(0.00524566 0.032747 0)
(0.00734689 0.0348371 0)
(0.00941651 0.0336509 0)
(0.0113832 0.0300868 0)
(0.0132642 0.0253516 0)
(0.0151375 0.0204946 0)
(0.0170874 0.0161214 0)
(0.0191339 0.0124145 0)
(0.0211992 0.00929654 0)
(0.0231144 0.00660497 0)
(0.0246433 0.00420999 0)
(0.0255307 0.00206853 0)
(0.0255264 0.000235331 0)
(0.0245635 -0.00141234 0)
(0.0230042 -0.0030974 0)
(0.0209687 -0.00502207 0)
(0.0185451 -0.00736673 0)
(0.0158142 -0.0103009 0)
(0.0128616 -0.0140054 0)
(0.00975275 -0.0186782 0)
(0.00655822 -0.0244776 0)
(0.00328085 -0.0316883 0)
(-7.99075e-05 -0.0407139 0)
(-0.00292115 -0.0504085 0)
(-0.00439492 -0.0574082 0)
(-0.00404544 -0.0568717 0)
(-0.00227584 -0.0437503 0)
(-0.000304465 -0.0172565 0)
(2.09176e-05 0.00280364 0)
(0.000376643 0.00931086 0)
(0.00127572 0.0167246 0)
(0.00282517 0.0238693 0)
(0.00493977 0.0291494 0)
(0.00746232 0.0314365 0)
(0.0102417 0.0306302 0)
(0.0131442 0.0275012 0)
(0.0160603 0.0231649 0)
(0.0189226 0.0186198 0)
(0.0217057 0.0144867 0)
(0.0243867 0.0109999 0)
(0.0269031 0.00812942 0)
(0.0291296 0.00573349 0)
(0.0308774 0.0036756 0)
(0.0319178 0.00187986 0)
(0.0320153 0.00038913 0)
(0.0311631 -0.000919875 0)
(0.0296806 -0.00226015 0)
(0.0276757 -0.00380754 0)
(0.0252161 -0.00572613 0)
(0.0223541 -0.00818401 0)
(0.0191418 -0.0113652 0)
(0.0156369 -0.0154686 0)
(0.0119127 -0.020696 0)
(0.00804303 -0.0273005 0)
(0.00408303 -0.0355592 0)
(0.000140972 -0.0456921 0)
(-0.00289942 -0.0553548 0)
(-0.00387286 -0.05867 0)
(-0.00274193 -0.0485763 0)
(-0.000451017 -0.0207425 0)
(-2.71916e-05 0.00252889 0)
(-9.24976e-06 0.00826361 0)
(0.000473319 0.0147268 0)
(0.00176764 0.0209966 0)
(0.0039432 0.0257151 0)
(0.00688444 0.0277912 0)
(0.0104301 0.0270775 0)
(0.0143491 0.0242766 0)
(0.0183733 0.0203911 0)
(0.0222811 0.016306 0)
(0.0259418 0.0125856 0)
(0.0292918 0.0094621 0)
(0.0322844 0.00692836 0)
(0.0348425 0.004864 0)
(0.0368352 0.00313982 0)
(0.0380814 0.00166855 0)
(0.0383554 0.000479002 0)
(0.037711 -0.000539083 0)
(0.0364245 -0.00157772 0)
(0.0345862 -0.00278354 0)
(0.032239 -0.00429721 0)
(0.0294012 -0.00627114 0)
(0.0260846 -0.00888002 0)
(0.0223104 -0.0123241 0)
(0.0181265 -0.0168306 0)
(0.0136134 -0.0226766 0)
(0.00887911 -0.0302044 0)
(0.00406477 -0.0397454 0)
(-0.000499759 -0.0508633 0)
(-0.00324225 -0.0581736 0)
(-0.00323844 -0.052271 0)
(-0.000700965 -0.0246305 0)
(-0.000143659 0.00286127 0)
(-0.000776787 0.00838248 0)
(-0.000971345 0.0137648 0)
(-7.80299e-05 0.0187292 0)
(0.00222115 0.022478 0)
(0.00571017 0.0239625 0)
(0.0101367 0.0231058 0)
(0.0151486 0.0205724 0)
(0.020307 0.017195 0)
(0.0252608 0.0136851 0)
(0.0298056 0.0105018 0)
(0.0338577 0.00784115 0)
(0.037392 0.00570307 0)
(0.0403788 0.00398879 0)
(0.0427402 0.00258629 0)
(0.0443403 0.00141289 0)
(0.0449415 0.00048586 0)
(0.0446302 -0.000286824 0)
(0.0436427 -0.00106743 0)
(0.0420635 -0.00197193 0)
(0.0399216 -0.00311375 0)
(0.0372124 -0.00462019 0)
(0.0339132 -0.00664362 0)
(0.0300027 -0.00937121 0)
(0.0254827 -0.0130372 0)
(0.0203985 -0.0179479 0)
(0.0148518 -0.0245145 0)
(0.00900816 -0.0332507 0)
(0.00316726 -0.0443119 0)
(-0.0016791 -0.0550558 0)
(-0.00351349 -0.0543664 0)
(-0.00105964 -0.0289101 0)
(-0.000415026 0.00418496 0)
(-0.00216398 0.00996134 0)
(-0.00313077 0.0139559 0)
(-0.00256758 0.0169633 0)
(-4.16743e-05 0.019215 0)
(0.00431854 0.0198814 0)
(0.0097861 0.0187845 0)
(0.0159596 0.016537 0)
(0.0222593 0.0137335 0)
(0.0282606 0.010877 0)
(0.0337283 0.00830154 0)
(0.0385752 0.00615478 0)
(0.0427928 0.00443827 0)
(0.0463775 0.00307685 0)
(0.0492781 0.00198236 0)
(0.0513784 0.00108696 0)
(0.052406 0.000397578 0)
(0.0524709 -0.000160975 0)
(0.0517892 -0.000715792 0)
(0.0504672 -0.00135412 0)
(0.0485402 -0.00216157 0)
(0.0459965 -0.00323565 0)
(0.042793 -0.00469662 0)
(0.0388719 -0.00670156 0)
(0.0341806 -0.00946601 0)
(0.0286955 -0.0133005 0)
(0.0224506 -0.0186635 0)
(0.0155687 -0.0262157 0)
(0.00835248 -0.03663 0)
(0.00155231 -0.0489587 0)
(-0.00304528 -0.0542332 0)
(-0.00143037 -0.0334185 0)
(-0.000933763 0.00712911 0)
(-0.00419553 0.0129139 0)
(-0.00557556 0.0146715 0)
(-0.00478 0.0152973 0)
(-0.00164232 0.0157119 0)
(0.00396254 0.0154115 0)
(0.0106255 0.0141578 0)
(0.0180155 0.0122825 0)
(0.0254832 0.0101108 0)
(0.0325832 0.0079456 0)
(0.0390639 0.00600493 0)
(0.0448197 0.00439143 0)
(0.049826 0.00310927 0)
(0.0540696 0.00210714 0)
(0.0574991 0.00132141 0)
(0.0600093 0.000700925 0)
(0.0613299 0.00023995 0)
(0.0616232 -0.000122404 0)
(0.0611216 -0.000475842 0)
(0.0599683 -0.000881351 0)
(0.058212 -0.00139752 0)
(0.0558412 -0.00209103 0)
(0.0528023 -0.00304575 0)
(0.0490126 -0.00437689 0)
(0.0443713 -0.00625581 0)
(0.0387724 -0.0089556 0)
(0.0321295 -0.0129264 0)
(0.0244276 -0.0189035 0)
(0.0158525 -0.0279178 0)
(0.00704237 -0.0403653 0)
(-0.000946678 -0.050935 0)
(-0.00151053 -0.0376132 0)
(-0.00174555 0.0124939 0)
(-0.0059888 0.0163167 0)
(-0.00614132 0.0146825 0)
(-0.00363486 0.0128918 0)
(0.00128657 0.0116162 0)
(0.0081722 0.010532 0)
(0.0160607 0.0093155 0)
(0.0245765 0.00790623 0)
(0.0330939 0.0063995 0)
(0.0411528 0.00493822 0)
(0.0484595 0.00364544 0)
(0.0548596 0.00258541 0)
(0.0602948 0.00176166 0)
(0.0647479 0.00113965 0)
(0.0681985 0.000673971 0)
(0.0706028 0.000326424 0)
(0.0717999 8.04202e-05 0)
(0.0720196 -0.000108253 0)
(0.0715224 -0.000292059 0)
(0.070455 -0.000506577 0)
(0.0688611 -0.000785179 0)
(0.0667226 -0.00116607 0)
(0.0639784 -0.0016983 0)
(0.060533 -0.00245226 0)
(0.0562563 -0.00354041 0)
(0.0509768 -0.00516038 0)
(0.0444749 -0.0076785 0)
(0.0365047 -0.0117801 0)
(0.0269221 -0.0186497 0)
(0.0159417 -0.0296938 0)
(0.00409962 -0.0431643 0)
(-0.000220759 -0.0393364 0)
(-0.00132116 0.0180755 0)
(-0.00346702 0.0176609 0)
(0.00237648 0.0121464 0)
(0.00937405 0.00904119 0)
(0.0167214 0.0070825 0)
(0.0246873 0.00572003 0)
(0.0331657 0.00468928 0)
(0.041873 0.00377834 0)
(0.050325 0.00292607 0)
(0.0580942 0.00215335 0)
(0.064885 0.00150198 0)
(0.070553 0.000995139 0)
(0.0750847 0.000626287 0)
(0.0785429 0.00036882 0)
(0.0810101 0.000191695 0)
(0.0825537 7.01424e-05 0)
(0.0831796 -1.07881e-05 0)
(0.0831116 -7.37405e-05 0)
(0.0825723 -0.00013879 0)
(0.081648 -0.000219513 0)
(0.0803506 -0.00032917 0)
(0.078648 -0.00048364 0)
(0.0764762 -0.000704021 0)
(0.0737425 -0.00102205 0)
(0.0703166 -0.00149223 0)
(0.066006 -0.00222055 0)
(0.0605098 -0.00342983 0)
(0.0533573 -0.00560049 0)
(0.0438597 -0.00971938 0)
(0.0311852 -0.017475 0)
(0.0152877 -0.0296827 0)
(0.00627185 -0.0333714 0)
(0.0207797 0.0113193 0)
(0.0269994 0.00915665 0)
(0.0397551 0.00529186 0)
(0.0501293 0.0031845 0)
(0.0580438 0.00200118 0)
(0.0646941 0.00127955 0)
(0.0706511 0.000840364 0)
(0.0760635 0.000557438 0)
(0.0808503 0.000360487 0)
(0.0848822 0.000218908 0)
(0.0880886 0.000121115 0)
(0.0904973 5.93564e-05 0)
(0.0922135 2.41133e-05 0)
(0.0933685 5.45178e-06 0)
(0.0940748 -4.25679e-06 0)
(0.0944105 -9.38108e-06 0)
(0.0944235 -1.22448e-05 0)
(0.0942203 -1.60005e-05 0)
(0.0938663 -2.17861e-05 0)
(0.0933697 -3.06265e-05 0)
(0.0927154 -4.40827e-05 0)
(0.0918728 -6.43309e-05 0)
(0.0907982 -9.44363e-05 0)
(0.0894328 -0.00013932 0)
(0.0876934 -0.000208158 0)
(0.0854447 -0.000320823 0)
(0.0824378 -0.000524563 0)
(0.0781791 -0.000935139 0)
(0.0716544 -0.00183366 0)
(0.0608158 -0.00396395 0)
(0.043275 -0.00918574 0)
(0.0286019 -0.0145221 0)
)
;

boundaryField
{
    movingWall
    {
        type            fixedValue;
        value           uniform (0.1 0 0);
    }
    fixedWalls
    {
        type            noSlip;
    }
    floor
    {
        type            noSlip;
    }
    frontAndBack
    {
        type            empty;
    }
}


// ************************************************************************* //
