/*--------------------------------*- C++ -*----------------------------------*\
| =========                 |                                                 |
| \\      /  F ield         | OpenFOAM: The Open Source CFD Toolbox           |
|  \\    /   O peration     | Version:  2212                                  |
|   \\  /    A nd           | Website:  www.openfoam.com                      |
|    \\/     M anipulation  |                                                 |
\*---------------------------------------------------------------------------*/
FoamFile
{
    version     2.0;
    format      ascii;
    arch        "LSB;label=64;scalar=64";
    class       volScalarField;
    location    "480";
    object      Gh2;
}
// * * * * * * * * * * * * * * * * * * * * * * * * * * * * * * * * * * * * * //

dimensions      [1 -3 0 0 0 0 0];

internalField   nonuniform List<scalar> 
1024
(
1.23682e-05
1.2367e-05
1.23642e-05
1.23594e-05
1.23524e-05
1.23434e-05
1.23331e-05
1.23224e-05
1.23117e-05
1.23016e-05
1.22921e-05
1.22837e-05
1.22771e-05
1.22726e-05
1.22711e-05
1.22736e-05
1.22806e-05
1.22911e-05
1.23037e-05
1.23181e-05
1.23341e-05
1.23519e-05
1.23717e-05
1.23929e-05
1.24145e-05
1.24347e-05
1.24522e-05
1.2466e-05
1.2476e-05
1.24825e-05
1.24862e-05
1.24877e-05
1.2368e-05
1.23668e-05
1.23639e-05
1.23589e-05
1.23517e-05
1.23426e-05
1.23323e-05
1.23215e-05
1.23109e-05
1.23008e-05
1.22913e-05
1.22828e-05
1.22761e-05
1.22717e-05
1.22702e-05
1.22727e-05
1.22797e-05
1.22902e-05
1.23027e-05
1.23169e-05
1.23327e-05
1.23504e-05
1.237e-05
1.23912e-05
1.24127e-05
1.24331e-05
1.24508e-05
1.2465e-05
1.24752e-05
1.24819e-05
1.24857e-05
1.24872e-05
1.23678e-05
1.23665e-05
1.23634e-05
1.23582e-05
1.23507e-05
1.23414e-05
1.23309e-05
1.23202e-05
1.23096e-05
1.22993e-05
1.22894e-05
1.22805e-05
1.22736e-05
1.22693e-05
1.22681e-05
1.22708e-05
1.2278e-05
1.22884e-05
1.23007e-05
1.23146e-05
1.23301e-05
1.23474e-05
1.23666e-05
1.23875e-05
1.2409e-05
1.24297e-05
1.2448e-05
1.24627e-05
1.24735e-05
1.24805e-05
1.24845e-05
1.24861e-05
1.23674e-05
1.23661e-05
1.23628e-05
1.23574e-05
1.23497e-05
1.23402e-05
1.23297e-05
1.23188e-05
1.2308e-05
1.22972e-05
1.22864e-05
1.22765e-05
1.22692e-05
1.22649e-05
1.22642e-05
1.22676e-05
1.22752e-05
1.22858e-05
1.22979e-05
1.23115e-05
1.23264e-05
1.23431e-05
1.23616e-05
1.2382e-05
1.24035e-05
1.24245e-05
1.24435e-05
1.24591e-05
1.24707e-05
1.24783e-05
1.24825e-05
1.24842e-05
1.23671e-05
1.23658e-05
1.23625e-05
1.23569e-05
1.23491e-05
1.23395e-05
1.2329e-05
1.2318e-05
1.23067e-05
1.22949e-05
1.22826e-05
1.22708e-05
1.22624e-05
1.22581e-05
1.22584e-05
1.2263e-05
1.22716e-05
1.22826e-05
1.22947e-05
1.23079e-05
1.23223e-05
1.23381e-05
1.23557e-05
1.23754e-05
1.23965e-05
1.24179e-05
1.24377e-05
1.24543e-05
1.24668e-05
1.24751e-05
1.24797e-05
1.24815e-05
1.23671e-05
1.23657e-05
1.23625e-05
1.2357e-05
1.23493e-05
1.23398e-05
1.23293e-05
1.23181e-05
1.23061e-05
1.22929e-05
1.22782e-05
1.22638e-05
1.22535e-05
1.22491e-05
1.22506e-05
1.22572e-05
1.22675e-05
1.22793e-05
1.22917e-05
1.23046e-05
1.23183e-05
1.23332e-05
1.23498e-05
1.23685e-05
1.23891e-05
1.24105e-05
1.2431e-05
1.24486e-05
1.24621e-05
1.24711e-05
1.24761e-05
1.24781e-05
1.23676e-05
1.23662e-05
1.23631e-05
1.23579e-05
1.23506e-05
1.23415e-05
1.23311e-05
1.23197e-05
1.23068e-05
1.22918e-05
1.22742e-05
1.22562e-05
1.22433e-05
1.22385e-05
1.22416e-05
1.22509e-05
1.22635e-05
1.22768e-05
1.22897e-05
1.23025e-05
1.23157e-05
1.23296e-05
1.23451e-05
1.23626e-05
1.23823e-05
1.24035e-05
1.24244e-05
1.24428e-05
1.24571e-05
1.24667e-05
1.24721e-05
1.24742e-05
1.23688e-05
1.23675e-05
1.23647e-05
1.23599e-05
1.23532e-05
1.23447e-05
1.23347e-05
1.23232e-05
1.23095e-05
1.22924e-05
1.22711e-05
1.22488e-05
1.22328e-05
1.22277e-05
1.2233e-05
1.22457e-05
1.22613e-05
1.22764e-05
1.229e-05
1.23028e-05
1.23153e-05
1.23284e-05
1.23426e-05
1.23588e-05
1.23776e-05
1.23982e-05
1.2419e-05
1.24377e-05
1.24524e-05
1.24624e-05
1.2468e-05
1.24702e-05
1.23711e-05
1.23699e-05
1.23673e-05
1.23631e-05
1.23572e-05
1.23496e-05
1.23403e-05
1.2329e-05
1.23144e-05
1.22948e-05
1.2269e-05
1.22417e-05
1.22227e-05
1.22182e-05
1.22269e-05
1.22441e-05
1.22633e-05
1.22802e-05
1.22944e-05
1.23069e-05
1.23188e-05
1.23307e-05
1.23435e-05
1.23584e-05
1.23759e-05
1.23955e-05
1.24158e-05
1.24342e-05
1.24488e-05
1.24588e-05
1.24643e-05
1.24665e-05
1.23749e-05
1.23737e-05
1.23714e-05
1.23678e-05
1.23628e-05
1.23563e-05
1.23481e-05
1.2337e-05
1.23214e-05
1.22983e-05
1.22668e-05
1.22342e-05
1.22132e-05
1.22113e-05
1.22259e-05
1.22494e-05
1.22727e-05
1.22911e-05
1.23052e-05
1.2317e-05
1.23275e-05
1.23378e-05
1.2349e-05
1.23622e-05
1.23781e-05
1.23964e-05
1.24154e-05
1.24329e-05
1.24468e-05
1.24563e-05
1.24616e-05
1.24638e-05
1.23807e-05
1.23796e-05
1.23775e-05
1.23744e-05
1.23703e-05
1.2365e-05
1.23576e-05
1.23466e-05
1.2329e-05
1.23008e-05
1.22625e-05
1.22247e-05
1.22037e-05
1.22078e-05
1.2232e-05
1.22646e-05
1.22929e-05
1.23122e-05
1.23252e-05
1.2335e-05
1.23433e-05
1.23512e-05
1.236e-05
1.2371e-05
1.23848e-05
1.24011e-05
1.24183e-05
1.24341e-05
1.24467e-05
1.24554e-05
1.24603e-05
1.24623e-05
1.23892e-05
1.23882e-05
1.23862e-05
1.23834e-05
1.23799e-05
1.23751e-05
1.23679e-05
1.23557e-05
1.23341e-05
1.22988e-05
1.22528e-05
1.22112e-05
1.21937e-05
1.22084e-05
1.22469e-05
1.22921e-05
1.23267e-05
1.23461e-05
1.23565e-05
1.23629e-05
1.23675e-05
1.23719e-05
1.23774e-05
1.23854e-05
1.23964e-05
1.24099e-05
1.24245e-05
1.2438e-05
1.24489e-05
1.24565e-05
1.24609e-05
1.24628e-05
1.23995e-05
1.23986e-05
1.23969e-05
1.23942e-05
1.23905e-05
1.23849e-05
1.23758e-05
1.23594e-05
1.23305e-05
1.22861e-05
1.22332e-05
1.21919e-05
1.21835e-05
1.22143e-05
1.22715e-05
1.23326e-05
1.23747e-05
1.23934e-05
1.23999e-05
1.24014e-05
1.2401e-05
1.24005e-05
1.24016e-05
1.24055e-05
1.24128e-05
1.24229e-05
1.24343e-05
1.24451e-05
1.2454e-05
1.24603e-05
1.24642e-05
1.24659e-05
1.24059e-05
1.24053e-05
1.24037e-05
1.24009e-05
1.23959e-05
1.23875e-05
1.23729e-05
1.23479e-05
1.23084e-05
1.2255e-05
1.22e-05
1.21664e-05
1.21747e-05
1.22267e-05
1.23048e-05
1.23827e-05
1.24329e-05
1.2451e-05
1.24531e-05
1.2449e-05
1.24427e-05
1.24365e-05
1.2432e-05
1.24308e-05
1.24333e-05
1.2439e-05
1.24466e-05
1.24544e-05
1.24613e-05
1.24666e-05
1.24701e-05
1.24718e-05
1.23957e-05
1.23951e-05
1.23932e-05
1.23891e-05
1.23812e-05
1.23672e-05
1.2344e-05
1.23081e-05
1.22587e-05
1.22019e-05
1.21542e-05
1.21383e-05
1.21694e-05
1.22434e-05
1.23395e-05
1.24313e-05
1.24899e-05
1.25095e-05
1.25087e-05
1.24998e-05
1.24879e-05
1.24762e-05
1.2467e-05
1.24616e-05
1.24602e-05
1.24622e-05
1.24662e-05
1.2471e-05
1.24757e-05
1.24798e-05
1.24827e-05
1.24843e-05
1.23571e-05
1.23559e-05
1.23527e-05
1.23459e-05
1.23334e-05
1.23125e-05
1.22805e-05
1.22367e-05
1.21844e-05
1.21343e-05
1.21039e-05
1.21113e-05
1.21632e-05
1.22507e-05
1.23548e-05
1.24541e-05
1.25219e-05
1.25485e-05
1.25497e-05
1.25387e-05
1.25224e-05
1.25054e-05
1.2491e-05
1.24813e-05
1.24767e-05
1.24765e-05
1.24796e-05
1.24846e-05
1.249e-05
1.24949e-05
1.24984e-05
1.25002e-05
1.22992e-05
1.22973e-05
1.22924e-05
1.22825e-05
1.22655e-05
1.2239e-05
1.2202e-05
1.21561e-05
1.21079e-05
1.20698e-05
1.20564e-05
1.20773e-05
1.21324e-05
1.22138e-05
1.23103e-05
1.24088e-05
1.24879e-05
1.25322e-05
1.25497e-05
1.25527e-05
1.25487e-05
1.25424e-05
1.25367e-05
1.25331e-05
1.25319e-05
1.25323e-05
1.25333e-05
1.25335e-05
1.25326e-05
1.25308e-05
1.25289e-05
1.25278e-05
1.22496e-05
1.22472e-05
1.22409e-05
1.22287e-05
1.22085e-05
1.21787e-05
1.21394e-05
1.20939e-05
1.20496e-05
1.20169e-05
1.20046e-05
1.20165e-05
1.20515e-05
1.21061e-05
1.21765e-05
1.2258e-05
1.23367e-05
1.23954e-05
1.24324e-05
1.24566e-05
1.24723e-05
1.24817e-05
1.24858e-05
1.24849e-05
1.24786e-05
1.24671e-05
1.2451e-05
1.24317e-05
1.24119e-05
1.23946e-05
1.23826e-05
1.23769e-05
1.22202e-05
1.22175e-05
1.22105e-05
1.21973e-05
1.2176e-05
1.21453e-05
1.21059e-05
1.2061e-05
1.20169e-05
1.19804e-05
1.19565e-05
1.19468e-05
1.19503e-05
1.19662e-05
1.19938e-05
1.20313e-05
1.20703e-05
1.20968e-05
1.2106e-05
1.21031e-05
1.20909e-05
1.20728e-05
1.20515e-05
1.2029e-05
1.20072e-05
1.19877e-05
1.19714e-05
1.19591e-05
1.19507e-05
1.19455e-05
1.19426e-05
1.19414e-05
1.22084e-05
1.22058e-05
1.21991e-05
1.21868e-05
1.21671e-05
1.21391e-05
1.21029e-05
1.20608e-05
1.20165e-05
1.19747e-05
1.19383e-05
1.19081e-05
1.18835e-05
1.18639e-05
1.18487e-05
1.18359e-05
1.18196e-05
1.17917e-05
1.17502e-05
1.1699e-05
1.16425e-05
1.15863e-05
1.15353e-05
1.14928e-05
1.14619e-05
1.14441e-05
1.14396e-05
1.14468e-05
1.14619e-05
1.1479e-05
1.14923e-05
1.14988e-05
1.22069e-05
1.22044e-05
1.21984e-05
1.21875e-05
1.21704e-05
1.21463e-05
1.2115e-05
1.20778e-05
1.20368e-05
1.19943e-05
1.19521e-05
1.19103e-05
1.18682e-05
1.18257e-05
1.17826e-05
1.17369e-05
1.1685e-05
1.16246e-05
1.15573e-05
1.14874e-05
1.14197e-05
1.13587e-05
1.13072e-05
1.12663e-05
1.12366e-05
1.12181e-05
1.12105e-05
1.12128e-05
1.12229e-05
1.12366e-05
1.12489e-05
1.12557e-05
1.22101e-05
1.22079e-05
1.22026e-05
1.21932e-05
1.21787e-05
1.21582e-05
1.21314e-05
1.20988e-05
1.20612e-05
1.20198e-05
1.19753e-05
1.19275e-05
1.18762e-05
1.18217e-05
1.17645e-05
1.17035e-05
1.16379e-05
1.15686e-05
1.14987e-05
1.1432e-05
1.1372e-05
1.13206e-05
1.12773e-05
1.12408e-05
1.12105e-05
1.11863e-05
1.11688e-05
1.11586e-05
1.11553e-05
1.11573e-05
1.11618e-05
1.11652e-05
1.22135e-05
1.22118e-05
1.22075e-05
1.21998e-05
1.21875e-05
1.217e-05
1.21467e-05
1.21173e-05
1.2082e-05
1.20408e-05
1.1994e-05
1.19416e-05
1.18841e-05
1.18226e-05
1.17584e-05
1.16918e-05
1.16243e-05
1.15578e-05
1.14945e-05
1.14362e-05
1.13846e-05
1.13394e-05
1.12987e-05
1.12608e-05
1.12253e-05
1.11934e-05
1.11671e-05
1.11482e-05
1.11369e-05
1.11322e-05
1.11319e-05
1.1133e-05
1.22116e-05
1.22108e-05
1.22081e-05
1.22025e-05
1.21926e-05
1.21775e-05
1.21561e-05
1.21278e-05
1.20921e-05
1.20487e-05
1.1998e-05
1.19406e-05
1.18778e-05
1.18114e-05
1.17436e-05
1.16757e-05
1.16107e-05
1.15507e-05
1.14957e-05
1.14455e-05
1.14004e-05
1.1359e-05
1.13195e-05
1.12801e-05
1.12407e-05
1.12029e-05
1.11697e-05
1.11439e-05
1.11268e-05
1.11179e-05
1.1115e-05
1.1115e-05
1.21965e-05
1.21973e-05
1.21975e-05
1.2195e-05
1.21877e-05
1.21741e-05
1.21527e-05
1.21226e-05
1.20833e-05
1.20349e-05
1.19786e-05
1.19158e-05
1.18486e-05
1.17793e-05
1.17102e-05
1.16433e-05
1.15824e-05
1.15293e-05
1.14822e-05
1.14392e-05
1.13996e-05
1.13621e-05
1.13249e-05
1.12867e-05
1.12471e-05
1.12075e-05
1.11708e-05
1.11404e-05
1.11187e-05
1.11062e-05
1.11013e-05
1.11006e-05
1.21593e-05
1.21627e-05
1.21668e-05
1.21681e-05
1.21633e-05
1.21498e-05
1.2126e-05
1.20911e-05
1.20455e-05
1.19906e-05
1.19286e-05
1.18617e-05
1.17924e-05
1.17227e-05
1.16551e-05
1.15913e-05
1.15353e-05
1.14889e-05
1.14489e-05
1.14126e-05
1.13787e-05
1.13459e-05
1.13128e-05
1.12781e-05
1.12416e-05
1.1204e-05
1.11676e-05
1.11355e-05
1.11111e-05
1.10959e-05
1.10891e-05
1.10878e-05
1.20923e-05
1.20987e-05
1.21067e-05
1.21111e-05
1.21071e-05
1.20913e-05
1.20626e-05
1.20214e-05
1.19694e-05
1.19094e-05
1.18443e-05
1.17767e-05
1.17089e-05
1.16426e-05
1.15795e-05
1.15211e-05
1.14713e-05
1.14314e-05
1.13983e-05
1.13685e-05
1.13406e-05
1.13133e-05
1.12854e-05
1.12561e-05
1.12248e-05
1.11919e-05
1.11588e-05
1.11282e-05
1.11032e-05
1.10864e-05
1.10782e-05
1.10762e-05
1.19904e-05
1.19993e-05
1.20089e-05
1.20128e-05
1.2006e-05
1.19855e-05
1.19515e-05
1.19055e-05
1.18507e-05
1.17902e-05
1.17271e-05
1.16638e-05
1.16019e-05
1.15429e-05
1.14876e-05
1.14372e-05
1.13949e-05
1.1362e-05
1.13355e-05
1.1312e-05
1.129e-05
1.12686e-05
1.12466e-05
1.12235e-05
1.11987e-05
1.11721e-05
1.11444e-05
1.11175e-05
1.10943e-05
1.10774e-05
1.10684e-05
1.10658e-05
1.18513e-05
1.18605e-05
1.18665e-05
1.18643e-05
1.18513e-05
1.18261e-05
1.17897e-05
1.17444e-05
1.16931e-05
1.16387e-05
1.15836e-05
1.15298e-05
1.14784e-05
1.14301e-05
1.13855e-05
1.13451e-05
1.13116e-05
1.12861e-05
1.1266e-05
1.12485e-05
1.12324e-05
1.12166e-05
1.12006e-05
1.11837e-05
1.11655e-05
1.11458e-05
1.11248e-05
1.11035e-05
1.10838e-05
1.10685e-05
1.10595e-05
1.10566e-05
1.16732e-05
1.16782e-05
1.16746e-05
1.16634e-05
1.16452e-05
1.16195e-05
1.15872e-05
1.15495e-05
1.15086e-05
1.14664e-05
1.14247e-05
1.13845e-05
1.13467e-05
1.13116e-05
1.12794e-05
1.12505e-05
1.12267e-05
1.12088e-05
1.11949e-05
1.11831e-05
1.11722e-05
1.11617e-05
1.11511e-05
1.114e-05
1.1128e-05
1.1115e-05
1.11009e-05
1.1086e-05
1.10715e-05
1.10593e-05
1.10514e-05
1.10485e-05
1.14515e-05
1.14477e-05
1.14351e-05
1.14206e-05
1.14042e-05
1.13852e-05
1.13633e-05
1.13391e-05
1.13135e-05
1.12875e-05
1.12621e-05
1.12379e-05
1.12153e-05
1.11945e-05
1.11755e-05
1.11585e-05
1.11446e-05
1.11342e-05
1.11262e-05
1.11195e-05
1.11134e-05
1.11075e-05
1.11017e-05
1.10955e-05
1.1089e-05
1.10819e-05
1.10741e-05
1.10656e-05
1.1057e-05
1.10493e-05
1.10438e-05
1.10414e-05
1.11793e-05
1.11756e-05
1.11685e-05
1.11618e-05
1.11553e-05
1.11483e-05
1.11407e-05
1.11325e-05
1.11239e-05
1.11152e-05
1.11068e-05
1.10989e-05
1.10915e-05
1.10847e-05
1.10785e-05
1.1073e-05
1.10685e-05
1.10651e-05
1.10626e-05
1.10604e-05
1.10585e-05
1.10566e-05
1.10548e-05
1.10528e-05
1.10508e-05
1.10486e-05
1.10462e-05
1.10435e-05
1.10408e-05
1.10382e-05
1.10362e-05
1.10352e-05
)
;

boundaryField
{
    movingWall
    {
        type            fixedValue;
        value           uniform 1.1032e-05;
    }
    fixedWalls
    {
        type            zeroGradient;
    }
    floor
    {
        type            zeroGradient;
    }
    frontAndBack
    {
        type            empty;
    }
}


// ************************************************************************* //
