/*--------------------------------*- C++ -*----------------------------------*\
| =========                 |                                                 |
| \\      /  F ield         | OpenFOAM: The Open Source CFD Toolbox           |
|  \\    /   O peration     | Version:  2212                                  |
|   \\  /    A nd           | Website:  www.openfoam.com                      |
|    \\/     M anipulation  |                                                 |
\*---------------------------------------------------------------------------*/
FoamFile
{
    version     2.0;
    format      ascii;
    arch        "LSB;label=64;scalar=64";
    class       volScalarField;
    location    "480";
    object      p;
}
// * * * * * * * * * * * * * * * * * * * * * * * * * * * * * * * * * * * * * //

dimensions      [0 2 -2 0 0 0 0];

internalField   nonuniform List<scalar> 
1024
(
0
-8.16557e-06
-1.38243e-05
-1.12286e-05
1.85677e-06
2.92659e-05
7.84935e-05
0.000160395
0.000285958
0.000451852
0.00061077
0.000695539
0.000649146
0.000479555
0.000223793
-6.14331e-05
-0.00030227
-0.000460933
-0.000555282
-0.000608964
-0.000636857
-0.000648535
-0.000650601
-0.000647718
-0.000643238
-0.000639449
-0.000637386
-0.000636696
-0.000635971
-0.000633943
-0.000630792
-0.000628125
-0.0928162
-0.0928255
-0.0928326
-0.0928332
-0.0928254
-0.0928042
-0.0927615
-0.0926864
-0.092568
-0.0924098
-0.0922585
-0.0921747
-0.0922139
-0.0923761
-0.0926249
-0.0929037
-0.0931398
-0.0932951
-0.0933868
-0.0934384
-0.0934645
-0.0934746
-0.0934753
-0.0934711
-0.0934654
-0.0934604
-0.0934569
-0.0934549
-0.0934533
-0.093451
-0.0934477
-0.0934448
-0.199458
-0.199471
-0.199482
-0.19949
-0.199492
-0.199482
-0.19945
-0.199387
-0.199281
-0.199134
-0.198994
-0.198911
-0.198938
-0.199088
-0.199324
-0.19959
-0.199816
-0.199964
-0.20005
-0.200097
-0.200119
-0.200126
-0.200123
-0.200116
-0.200107
-0.200099
-0.200092
-0.200088
-0.200084
-0.200081
-0.200077
-0.200072
-0.322005
-0.322021
-0.322039
-0.322057
-0.322072
-0.322076
-0.32206
-0.322012
-0.321921
-0.321788
-0.321658
-0.321577
-0.32159
-0.321724
-0.321942
-0.322189
-0.322399
-0.322534
-0.322611
-0.32265
-0.322665
-0.322665
-0.322656
-0.322643
-0.322629
-0.322615
-0.322603
-0.322594
-0.322588
-0.322582
-0.322576
-0.32257
-0.462841
-0.46286
-0.462884
-0.462913
-0.462942
-0.462962
-0.462961
-0.462929
-0.462854
-0.462734
-0.462613
-0.462532
-0.462531
-0.462648
-0.462847
-0.463072
-0.463259
-0.463377
-0.46344
-0.463467
-0.463472
-0.463463
-0.463446
-0.463424
-0.463401
-0.463379
-0.463359
-0.463344
-0.463332
-0.463323
-0.463314
-0.463306
-0.6247
-0.624718
-0.624746
-0.624783
-0.624823
-0.624856
-0.624868
-0.624849
-0.624787
-0.624679
-0.624563
-0.624482
-0.624469
-0.624572
-0.624752
-0.624954
-0.625117
-0.625214
-0.62526
-0.625273
-0.625265
-0.625244
-0.625215
-0.625182
-0.625147
-0.625114
-0.625085
-0.62506
-0.625042
-0.625028
-0.625016
-0.625005
-0.810699
-0.810714
-0.810743
-0.810783
-0.810829
-0.810868
-0.81089
-0.81088
-0.810828
-0.810728
-0.810615
-0.810532
-0.810511
-0.810601
-0.810764
-0.810946
-0.811087
-0.811164
-0.811192
-0.811189
-0.811167
-0.811134
-0.811092
-0.811046
-0.810998
-0.810953
-0.810911
-0.810877
-0.81085
-0.81083
-0.810815
-0.810803
-1.0244
-1.02442
-1.02444
-1.02448
-1.02453
-1.02457
-1.02459
-1.02459
-1.02455
-1.02445
-1.02434
-1.02425
-1.02423
-1.02431
-1.02445
-1.02462
-1.02474
-1.0248
-1.02481
-1.0248
-1.02476
-1.02472
-1.02466
-1.02461
-1.02455
-1.02449
-1.02444
-1.02439
-1.02436
-1.02433
-1.02431
-1.0243
-1.2699
-1.26991
-1.26993
-1.26996
-1.27001
-1.27005
-1.27008
-1.27008
-1.27004
-1.26995
-1.26984
-1.26975
-1.26972
-1.26979
-1.26993
-1.27008
-1.27019
-1.27023
-1.27023
-1.2702
-1.27016
-1.27011
-1.27004
-1.26998
-1.26991
-1.26985
-1.26979
-1.26973
-1.26969
-1.26966
-1.26965
-1.26963
-1.55187
-1.55187
-1.55189
-1.55192
-1.55196
-1.55201
-1.55204
-1.55205
-1.55201
-1.55193
-1.55182
-1.55174
-1.55171
-1.55178
-1.5519
-1.55203
-1.55213
-1.55217
-1.55216
-1.55213
-1.55208
-1.55202
-1.55196
-1.55189
-1.55182
-1.55175
-1.55169
-1.55163
-1.55159
-1.55156
-1.55154
-1.55153
-1.87571
-1.87571
-1.87572
-1.87574
-1.87578
-1.87583
-1.87587
-1.87588
-1.87585
-1.87578
-1.8757
-1.87562
-1.87561
-1.87567
-1.87579
-1.87591
-1.876
-1.87603
-1.87601
-1.87598
-1.87593
-1.87588
-1.87581
-1.87575
-1.87568
-1.87562
-1.87556
-1.87551
-1.87547
-1.87544
-1.87542
-1.87542
-2.24762
-2.24761
-2.24762
-2.24763
-2.24766
-2.2477
-2.24773
-2.24775
-2.24775
-2.24771
-2.24765
-2.24762
-2.24763
-2.2477
-2.24781
-2.24793
-2.24801
-2.24803
-2.24802
-2.24799
-2.24794
-2.2479
-2.24784
-2.24779
-2.24773
-2.24767
-2.24762
-2.24757
-2.24754
-2.24751
-2.2475
-2.24749
-2.67475
-2.67474
-2.67474
-2.67474
-2.67476
-2.67478
-2.67481
-2.67483
-2.67484
-2.67485
-2.67485
-2.67487
-2.67492
-2.67501
-2.67513
-2.67524
-2.67531
-2.67534
-2.67533
-2.6753
-2.67527
-2.67523
-2.67519
-2.67514
-2.67509
-2.67504
-2.675
-2.67495
-2.67492
-2.6749
-2.67489
-2.67489
-3.16535
-3.16535
-3.16534
-3.16534
-3.16534
-3.16535
-3.16536
-3.16538
-3.16542
-3.16546
-3.16552
-3.1656
-3.1657
-3.16582
-3.16594
-3.16606
-3.16614
-3.16616
-3.16616
-3.16614
-3.16611
-3.16609
-3.16605
-3.16602
-3.16598
-3.16593
-3.16588
-3.16584
-3.1658
-3.16579
-3.16578
-3.16578
-3.72892
-3.72891
-3.72891
-3.72891
-3.7289
-3.7289
-3.72891
-3.72894
-3.72899
-3.72906
-3.72916
-3.72927
-3.72941
-3.72955
-3.72969
-3.72982
-3.72991
-3.72995
-3.72996
-3.72995
-3.72993
-3.72991
-3.72988
-3.72983
-3.72978
-3.72972
-3.72966
-3.72961
-3.72957
-3.72956
-3.72955
-3.72956
-4.37635
-4.37635
-4.37635
-4.37635
-4.37635
-4.37635
-4.37636
-4.37639
-4.37644
-4.37653
-4.37663
-4.37676
-4.37691
-4.37707
-4.37723
-4.37738
-4.37749
-4.37755
-4.37756
-4.37755
-4.37753
-4.37749
-4.37743
-4.37735
-4.37726
-4.37717
-4.3771
-4.37704
-4.377
-4.37699
-4.37699
-4.377
-5.06868
-5.06868
-5.06868
-5.06867
-5.06867
-5.06868
-5.06869
-5.06872
-5.06877
-5.06885
-5.06895
-5.06908
-5.06922
-5.06937
-5.06953
-5.06969
-5.06981
-5.06988
-5.06989
-5.06987
-5.0698
-5.06971
-5.06959
-5.06945
-5.06931
-5.0692
-5.06911
-5.06905
-5.06902
-5.06902
-5.06902
-5.06903
-5.71626
-5.71626
-5.71626
-5.71626
-5.71626
-5.71627
-5.71628
-5.71631
-5.71635
-5.71642
-5.71651
-5.71661
-5.71673
-5.71686
-5.717
-5.71714
-5.71725
-5.71731
-5.71731
-5.71724
-5.71712
-5.71696
-5.71676
-5.71657
-5.71639
-5.71626
-5.71618
-5.71615
-5.71614
-5.71614
-5.71615
-5.71616
-6.28009
-6.28009
-6.2801
-6.2801
-6.2801
-6.28011
-6.28013
-6.28015
-6.28019
-6.28025
-6.28031
-6.28039
-6.28048
-6.28058
-6.28069
-6.28079
-6.28087
-6.2809
-6.28088
-6.28079
-6.28064
-6.28043
-6.28019
-6.27995
-6.27976
-6.27964
-6.27958
-6.27957
-6.27958
-6.2796
-6.27961
-6.27961
-6.77102
-6.77102
-6.77102
-6.77103
-6.77103
-6.77104
-6.77106
-6.77108
-6.77111
-6.77115
-6.7712
-6.77126
-6.77133
-6.7714
-6.77147
-6.77154
-6.7716
-6.77163
-6.77162
-6.77156
-6.77144
-6.77127
-6.77106
-6.77085
-6.77067
-6.77054
-6.77047
-6.77045
-6.77046
-6.77048
-6.7705
-6.7705
-7.19844
-7.19845
-7.19845
-7.19845
-7.19846
-7.19847
-7.19849
-7.19851
-7.19853
-7.19857
-7.1986
-7.19865
-7.19869
-7.19874
-7.19879
-7.19885
-7.1989
-7.19894
-7.19897
-7.19897
-7.19892
-7.19883
-7.19869
-7.19852
-7.19835
-7.19821
-7.1981
-7.19803
-7.19801
-7.198
-7.19802
-7.19803
-7.57055
-7.57055
-7.57056
-7.57056
-7.57057
-7.57058
-7.5706
-7.57062
-7.57064
-7.57067
-7.5707
-7.57073
-7.57076
-7.5708
-7.57083
-7.57088
-7.57092
-7.57098
-7.57104
-7.57108
-7.57108
-7.57104
-7.57095
-7.57083
-7.57068
-7.57052
-7.57039
-7.57028
-7.57022
-7.57021
-7.57021
-7.57023
-7.89449
-7.89449
-7.8945
-7.8945
-7.89451
-7.89452
-7.89454
-7.89456
-7.89458
-7.8946
-7.89463
-7.89466
-7.89468
-7.89471
-7.89474
-7.89477
-7.89482
-7.89488
-7.89496
-7.89502
-7.89504
-7.89503
-7.89497
-7.89488
-7.89475
-7.8946
-7.89445
-7.89432
-7.89423
-7.89419
-7.89419
-7.89421
-8.17649
-8.17649
-8.17649
-8.17649
-8.1765
-8.17652
-8.17654
-8.17656
-8.17658
-8.17661
-8.17663
-8.17666
-8.17668
-8.1767
-8.17672
-8.17675
-8.17679
-8.17686
-8.17693
-8.177
-8.17703
-8.17702
-8.17698
-8.1769
-8.17679
-8.17664
-8.17648
-8.17632
-8.1762
-8.17614
-8.17613
-8.17614
-8.42197
-8.42197
-8.42197
-8.42197
-8.42198
-8.42199
-8.42201
-8.42204
-8.42207
-8.4221
-8.42212
-8.42215
-8.42217
-8.42219
-8.42221
-8.42223
-8.42227
-8.42233
-8.4224
-8.42247
-8.4225
-8.42249
-8.42245
-8.42236
-8.42223
-8.42207
-8.4219
-8.42172
-8.42156
-8.42146
-8.42143
-8.42144
-8.63568
-8.63567
-8.63567
-8.63567
-8.63566
-8.63567
-8.63569
-8.63572
-8.63576
-8.6358
-8.63583
-8.63586
-8.63589
-8.63591
-8.63592
-8.63594
-8.63597
-8.63603
-8.6361
-8.63616
-8.63619
-8.63617
-8.63611
-8.636
-8.63584
-8.63565
-8.63544
-8.63522
-8.63502
-8.63488
-8.63481
-8.6348
-8.82171
-8.82171
-8.8217
-8.82169
-8.82167
-8.82167
-8.82169
-8.82173
-8.82177
-8.82182
-8.82186
-8.8219
-8.82193
-8.82195
-8.82197
-8.82198
-8.82201
-8.82207
-8.82214
-8.82219
-8.82221
-8.82219
-8.82211
-8.82197
-8.82178
-8.82153
-8.82126
-8.82098
-8.82071
-8.8205
-8.82038
-8.82034
-8.98368
-8.98368
-8.98366
-8.98362
-8.98359
-8.98358
-8.9836
-8.98364
-8.9837
-8.98376
-8.98381
-8.98385
-8.98388
-8.9839
-8.98392
-8.98394
-8.98397
-8.98402
-8.98409
-8.98414
-8.98416
-8.98412
-8.98403
-8.98386
-8.98363
-8.98333
-8.98298
-8.98261
-8.98225
-8.98194
-8.98172
-8.98162
-9.12472
-9.1247
-9.12465
-9.12459
-9.12454
-9.12452
-9.12454
-9.12459
-9.12466
-9.12472
-9.12478
-9.12483
-9.12486
-9.12489
-9.12491
-9.12492
-9.12495
-9.12501
-9.12507
-9.12512
-9.12513
-9.12509
-9.12498
-9.1248
-9.12453
-9.12419
-9.12377
-9.1233
-9.12281
-9.12234
-9.12198
-9.12175
-9.2476
-9.24752
-9.2474
-9.24729
-9.24722
-9.24719
-9.24722
-9.24728
-9.24736
-9.24743
-9.2475
-9.24755
-9.24759
-9.24762
-9.24764
-9.24766
-9.24769
-9.24774
-9.24781
-9.24785
-9.24786
-9.24781
-9.24769
-9.24749
-9.24721
-9.24683
-9.24636
-9.2458
-9.24517
-9.2445
-9.24386
-9.24331
-9.35491
-9.35451
-9.35424
-9.35408
-9.354
-9.35398
-9.35401
-9.35408
-9.35417
-9.35425
-9.35432
-9.35438
-9.35442
-9.35445
-9.35448
-9.3545
-9.35453
-9.35459
-9.35465
-9.3547
-9.3547
-9.35465
-9.35453
-9.35432
-9.35403
-9.35363
-9.35313
-9.35252
-9.35177
-9.35086
-9.34975
-9.34849
-9.44893
-9.44768
-9.44719
-9.44702
-9.44694
-9.44693
-9.44697
-9.44706
-9.44715
-9.44724
-9.44732
-9.44738
-9.44743
-9.44746
-9.44749
-9.44751
-9.44754
-9.4476
-9.44766
-9.44771
-9.44771
-9.44766
-9.44754
-9.44733
-9.44703
-9.44664
-9.44613
-9.44549
-9.44467
-9.44357
-9.44196
-9.4397
)
;

boundaryField
{
    movingWall
    {
        type            calculated;
        value           nonuniform List<scalar> 
32
(
-9.49221
-9.49096
-9.49047
-9.49031
-9.49023
-9.49021
-9.49026
-9.49034
-9.49044
-9.49053
-9.49061
-9.49067
-9.49071
-9.49075
-9.49077
-9.4908
-9.49083
-9.49089
-9.49095
-9.491
-9.491
-9.49095
-9.49083
-9.49062
-9.49032
-9.48993
-9.48942
-9.48878
-9.48796
-9.48686
-9.48525
-9.48299
)
;
    }
    fixedWalls
    {
        type            calculated;
        value           nonuniform List<scalar> 
64
(
6.93889e-18
-0.0928162
-0.199458
-0.322005
-0.462841
-0.6247
-0.810699
-1.0244
-1.2699
-1.55187
-1.87571
-2.24762
-2.67475
-3.16535
-3.72892
-4.37635
-5.06868
-5.71626
-6.28009
-6.77102
-7.19844
-7.57055
-7.89449
-8.17649
-8.42197
-8.63568
-8.82171
-8.98368
-9.12472
-9.2476
-9.35491
-9.44893
-0.000628125
-0.0934448
-0.200072
-0.32257
-0.463306
-0.625005
-0.810803
-1.0243
-1.26963
-1.55153
-1.87542
-2.24749
-2.67489
-3.16578
-3.72956
-4.377
-5.06903
-5.71616
-6.27961
-6.7705
-7.19803
-7.57023
-7.89421
-8.17614
-8.42144
-8.6348
-8.82034
-8.98162
-9.12175
-9.24331
-9.34849
-9.4397
)
;
    }
    floor
    {
        type            calculated;
        value           nonuniform List<scalar> 
32
(
0.0431974
0.0431894
0.0431841
0.0431873
0.0432011
0.0432293
0.0432793
0.0433621
0.0434886
0.0436556
0.0438155
0.0439004
0.0438531
0.0436824
0.0434256
0.0431393
0.0428977
0.0427384
0.0426436
0.0425896
0.0425613
0.0425494
0.042547
0.0425497
0.0425539
0.0425574
0.0425592
0.0425597
0.0425602
0.0425621
0.0425652
0.0425678
)
;
    }
    frontAndBack
    {
        type            empty;
    }
}


// ************************************************************************* //
