/*--------------------------------*- C++ -*----------------------------------*\
| =========                 |                                                 |
| \\      /  F ield         | OpenFOAM: The Open Source CFD Toolbox           |
|  \\    /   O peration     | Version:  2212                                  |
|   \\  /    A nd           | Website:  www.openfoam.com                      |
|    \\/     M anipulation  |                                                 |
\*---------------------------------------------------------------------------*/
FoamFile
{
    version     2.0;
    format      ascii;
    arch        "LSB;label=64;scalar=64";
    class       volScalarField;
    location    "480";
    object      p_rgh;
}
// * * * * * * * * * * * * * * * * * * * * * * * * * * * * * * * * * * * * * //

dimensions      [0 2 -2 0 0 0 0];

internalField   nonuniform List<scalar> 
1024
(
0.0431974
0.0431894
0.0431841
0.0431873
0.0432011
0.0432293
0.0432793
0.0433621
0.0434886
0.0436556
0.0438155
0.0439004
0.0438531
0.0436824
0.0434256
0.0431393
0.0428977
0.0427384
0.0426436
0.0425896
0.0425613
0.0425494
0.042547
0.0425497
0.0425539
0.0425574
0.0425592
0.0425597
0.0425602
0.0425621
0.0425652
0.0425678
0.0432209
0.043213
0.0432097
0.0432151
0.0432303
0.0432593
0.0433098
0.0433932
0.0435209
0.0436891
0.0438488
0.0439333
0.0438861
0.0437145
0.0434558
0.043167
0.0429231
0.042762
0.0426657
0.0426103
0.0425808
0.0425678
0.0425645
0.0425661
0.0425694
0.042572
0.0425729
0.0425725
0.042572
0.0425729
0.0425753
0.042578
0.0432559
0.0432479
0.0432483
0.0432601
0.0432815
0.0433156
0.0433708
0.0434584
0.0435911
0.0437628
0.0439235
0.0440083
0.0439619
0.0437887
0.0435261
0.043232
0.0429819
0.0428161
0.0427159
0.0426571
0.0426247
0.042609
0.0426032
0.0426026
0.0426038
0.0426042
0.0426027
0.0425995
0.0425961
0.0425947
0.0425963
0.0425996
0.0432835
0.0432769
0.0432851
0.0433094
0.0433442
0.0433904
0.0434554
0.0435501
0.0436866
0.0438575
0.0440157
0.0441008
0.0440625
0.0438941
0.043633
0.0433362
0.0430794
0.0429071
0.0428007
0.0427364
0.0426989
0.0426786
0.0426686
0.0426643
0.0426618
0.0426583
0.0426522
0.0426433
0.0426341
0.0426282
0.0426283
0.0426324
0.0432793
0.0432772
0.0432989
0.0433439
0.043401
0.0434664
0.0435445
0.0436441
0.0437747
0.0439344
0.0440833
0.0441689
0.044148
0.0439968
0.043751
0.0434648
0.0432095
0.0430339
0.042922
0.0428513
0.0428073
0.0427806
0.0427646
0.0427546
0.0427466
0.042737
0.0427232
0.0427049
0.0426857
0.0426718
0.0426684
0.0426729
0.0432236
0.0432283
0.0432685
0.043342
0.0434299
0.0435197
0.0436102
0.0437078
0.043821
0.0439617
0.044099
0.0441864
0.0441861
0.0440599
0.0438424
0.0435846
0.0433501
0.0431815
0.04307
0.042996
0.0429463
0.0429129
0.0428897
0.0428722
0.0428561
0.0428373
0.0428117
0.042779
0.0427441
0.0427173
0.0427072
0.0427109
0.0431109
0.0431227
0.0431828
0.043289
0.043413
0.0435294
0.0436289
0.0437171
0.0438095
0.0439322
0.044063
0.0441549
0.0441706
0.0440675
0.0438813
0.0436619
0.0434662
0.0433211
0.0432219
0.0431524
0.0431018
0.0430638
0.0430337
0.0430074
0.0429805
0.0429481
0.0429054
0.0428515
0.042794
0.042748
0.0427271
0.0427285
0.0429528
0.0429701
0.043046
0.0431825
0.0433429
0.0434859
0.0435923
0.0436694
0.0437442
0.0438568
0.0439908
0.0440905
0.0441146
0.0440269
0.0438654
0.0436818
0.043528
0.0434209
0.0433478
0.0432939
0.0432507
0.0432132
0.0431783
0.0431428
0.0431021
0.043051
0.0429839
0.0429006
0.042812
0.0427402
0.0427045
0.0427017
0.0427738
0.0427939
0.0428766
0.0430322
0.0432224
0.0433904
0.0435047
0.0435747
0.0436385
0.0437529
0.0439002
0.0440098
0.0440352
0.0439545
0.043808
0.0436501
0.0435312
0.0434638
0.0434244
0.0433958
0.0433686
0.0433383
0.0433024
0.043258
0.0432008
0.0431249
0.0430248
0.0429022
0.0427737
0.04267
0.0426167
0.0426085
0.0426111
0.0426304
0.0427073
0.0428605
0.0430649
0.0432526
0.0433773
0.0434464
0.043511
0.0436427
0.0438095
0.0439274
0.0439476
0.0438648
0.043724
0.0435816
0.0434869
0.0434512
0.0434446
0.043445
0.0434396
0.0434222
0.0433889
0.0433363
0.0432598
0.0431528
0.0430106
0.0428386
0.0426622
0.042523
0.0424517
0.0424381
0.0425038
0.0425204
0.0425855
0.0427202
0.0429078
0.0430932
0.043229
0.0433099
0.0433984
0.0435616
0.043745
0.0438625
0.0438662
0.0437695
0.0436254
0.0434901
0.0434107
0.0433964
0.0434162
0.0434436
0.0434612
0.0434592
0.0434309
0.0433706
0.0432717
0.0431272
0.0429338
0.0427036
0.0424746
0.0423006
0.042214
0.0421964
0.0424845
0.0424968
0.0425466
0.0426554
0.0428149
0.0429827
0.0431167
0.0432172
0.0433561
0.0435569
0.0437478
0.0438406
0.0438063
0.043679
0.0435215
0.0433872
0.0433168
0.0433165
0.0433566
0.0434065
0.0434449
0.0434575
0.043434
0.0433646
0.0432395
0.0430505
0.0427975
0.0425032
0.0422226
0.0420206
0.0419248
0.041905
0.042567
0.0425736
0.0426061
0.0426857
0.0428134
0.0429617
0.0431012
0.0432445
0.0434521
0.0436836
0.0438492
0.0438797
0.0437783
0.0436021
0.0434218
0.0432843
0.0432209
0.0432312
0.0432891
0.0433577
0.0434124
0.0434356
0.0434128
0.0433291
0.0431709
0.0429286
0.0426085
0.0422502
0.0419282
0.0417121
0.0416165
0.0415971
0.0427447
0.0427455
0.0427616
0.0428141
0.0429135
0.0430516
0.0432195
0.0434491
0.0437255
0.0439524
0.0440455
0.0439722
0.0437786
0.0435429
0.0433361
0.0431956
0.0431429
0.0431697
0.0432458
0.0433281
0.0433907
0.0434143
0.0433798
0.0432684
0.0430626
0.042755
0.0423644
0.0419519
0.0416239
0.0414221
0.0413374
0.0413208
0.0430147
0.0430118
0.0430187
0.0430568
0.043148
0.0433075
0.0435544
0.0438819
0.044169
0.0443183
0.0442844
0.0440774
0.0437876
0.0435021
0.0432762
0.0431354
0.0430991
0.0431578
0.0432505
0.0433322
0.0433827
0.0433829
0.0433055
0.0431284
0.0428482
0.0424798
0.042067
0.041678
0.0413866
0.0412178
0.0411507
0.0411381
0.0434052
0.0434052
0.0434195
0.043473
0.0435988
0.0438298
0.0441776
0.0444933
0.044678
0.0446661
0.0444716
0.0441394
0.0437926
0.0434942
0.0432576
0.0431014
0.0430616
0.0431303
0.0432063
0.0432415
0.0432304
0.0431621
0.043024
0.0428081
0.0425179
0.0421757
0.041824
0.0415167
0.0412991
0.0411812
0.0411385
0.0411319
0.0439151
0.0439245
0.0439632
0.0440619
0.0442552
0.044555
0.0448567
0.0450524
0.0450529
0.0448394
0.0445201
0.044179
0.0438489
0.0435379
0.0432588
0.0430334
0.0428985
0.0428619
0.0428592
0.0428439
0.0428044
0.0427344
0.0426259
0.0424703
0.0422677
0.0420337
0.0418004
0.0416066
0.0414807
0.0414243
0.0414141
0.0414182
0.0444195
0.0444405
0.0445098
0.0446558
0.0448859
0.0451422
0.0453182
0.0453258
0.0451672
0.0449102
0.0446205
0.0443203
0.0440104
0.0436878
0.0433559
0.043029
0.0427428
0.0425527
0.0424767
0.0424438
0.0424313
0.0424293
0.0424238
0.0423984
0.0423421
0.0422564
0.0421624
0.0420931
0.0420745
0.0421059
0.0421567
0.0421902
0.0447657
0.0447934
0.0448808
0.0450495
0.0452813
0.0454915
0.0455701
0.0454998
0.0453287
0.0451208
0.0448984
0.0446652
0.0444165
0.0441458
0.0438491
0.0435314
0.0432208
0.0429933
0.0428746
0.0428496
0.0429059
0.0430311
0.0432054
0.0434046
0.0436134
0.0437797
0.0438927
0.0439681
0.0440241
0.0440713
0.0441106
0.0441348
0.0449169
0.044947
0.0450394
0.0452166
0.0454609
0.0457002
0.0458472
0.0458636
0.0457677
0.0456033
0.0454153
0.0452272
0.045048
0.044882
0.0447167
0.0445583
0.0444302
0.0443582
0.0443672
0.0445051
0.0447623
0.0451142
0.0455046
0.0458554
0.0460964
0.0462412
0.0462992
0.0462809
0.0462064
0.0461017
0.0460018
0.0459423
0.0449629
0.0449936
0.0450858
0.0452652
0.0455204
0.0457912
0.0459991
0.0460996
0.0460974
0.046028
0.0459241
0.0458005
0.0456598
0.0454971
0.0453472
0.0452281
0.0451472
0.0451179
0.0451663
0.0452902
0.0454639
0.0456567
0.0458458
0.046035
0.046209
0.0463501
0.046445
0.0464893
0.046489
0.0464556
0.0464068
0.0463684
0.0449603
0.0449905
0.04508
0.0452558
0.0455161
0.0458131
0.0460749
0.0462509
0.0463327
0.0463409
0.0462994
0.0462177
0.0460973
0.0459408
0.0457674
0.0456041
0.0454836
0.0454339
0.0454494
0.0455084
0.0455886
0.0456761
0.0457812
0.0459056
0.0460421
0.046177
0.0462935
0.0463759
0.0464168
0.0464181
0.0463927
0.0463634
0.0449404
0.0449697
0.0450548
0.0452219
0.0454784
0.0457892
0.0460895
0.046324
0.0464742
0.0465481
0.0465634
0.0465279
0.0464413
0.0463027
0.0461201
0.0459167
0.0457346
0.0456247
0.0455879
0.0455973
0.0456343
0.0456817
0.045743
0.0458233
0.0459239
0.0460412
0.0461622
0.0462661
0.0463349
0.0463598
0.0463476
0.0463216
0.0449208
0.0449496
0.0450297
0.0451851
0.0454273
0.045736
0.0460549
0.046325
0.0465212
0.0466434
0.0467028
0.0467076
0.046659
0.0465545
0.0463944
0.046189
0.0459724
0.0458092
0.0457211
0.0456906
0.0457034
0.0457316
0.045772
0.04583
0.0459076
0.0460089
0.0461277
0.046246
0.0463393
0.0463875
0.0463883
0.0463664
0.0449055
0.0449333
0.0450101
0.0451575
0.0453864
0.0456797
0.0459913
0.0462681
0.0464823
0.0466272
0.0467109
0.0467413
0.0467229
0.0466544
0.0465346
0.0463634
0.0461605
0.0459834
0.0458623
0.0457962
0.0457794
0.0457906
0.045825
0.0458857
0.0459708
0.0460777
0.0462007
0.0463357
0.046458
0.0465365
0.0465554
0.0465419
0.0448927
0.0449199
0.0449959
0.0451392
0.0453583
0.0456335
0.0459218
0.0461783
0.0463794
0.0465191
0.0466057
0.0466455
0.0466444
0.0466042
0.0465248
0.0464026
0.0462448
0.0460865
0.0459565
0.0458686
0.0458299
0.0458304
0.045868
0.0459452
0.0460586
0.0462026
0.0463661
0.0465354
0.0466951
0.0468181
0.0468681
0.0468711
0.0448787
0.0449068
0.0449849
0.0451287
0.0453428
0.0455973
0.0458499
0.0460656
0.0462304
0.046345
0.0464165
0.046452
0.0464575
0.0464367
0.0463901
0.0463134
0.0462058
0.0460808
0.0459628
0.0458728
0.0458278
0.0458291
0.0458795
0.0459833
0.0461393
0.0463415
0.0465734
0.0468124
0.0470383
0.0472275
0.0473324
0.0473672
0.0448539
0.044887
0.0449742
0.0451241
0.0453319
0.0455614
0.0457673
0.0459286
0.0460438
0.0461209
0.0461675
0.046192
0.046199
0.0461924
0.046172
0.0461334
0.0460698
0.0459796
0.0458843
0.045807
0.0457705
0.0457846
0.0458567
0.0459935
0.0461974
0.0464642
0.0467788
0.047117
0.0474489
0.0477399
0.0479386
0.0480333
0.0447916
0.0448417
0.0449519
0.0451155
0.045315
0.045509
0.0456594
0.045761
0.045824
0.0458616
0.0458842
0.0458992
0.0459092
0.0459167
0.0459203
0.0459147
0.0458875
0.0458285
0.0457577
0.0456994
0.0456794
0.0457126
0.0458094
0.0459788
0.0462271
0.0465539
0.04695
0.0473976
0.0478685
0.0483181
0.0486682
0.0488909
0.0446312
0.0447405
0.0449083
0.0450959
0.0452805
0.0454272
0.0455206
0.045568
0.0455875
0.0455958
0.0456037
0.0456164
0.0456348
0.045659
0.0456863
0.0457097
0.045712
0.0456784
0.0456289
0.0455891
0.0455863
0.0456375
0.045755
0.0459497
0.0462311
0.0466026
0.0470634
0.0476086
0.0482287
0.0488943
0.0495203
0.050066
0.0441547
0.0445717
0.0448713
0.0450823
0.0452352
0.0453343
0.0453799
0.0453877
0.0453797
0.0453729
0.0453769
0.0453946
0.0454251
0.0454664
0.045514
0.04556
0.0455835
0.0455677
0.0455333
0.045507
0.0455166
0.0455796
0.0457094
0.0459184
0.0462175
0.046613
0.0471109
0.047721
0.0484636
0.0493715
0.0504745
0.0517274
0.0431309
0.0443882
0.0448971
0.0450902
0.0452089
0.0452754
0.0452926
0.04528
0.0452602
0.045249
0.0452544
0.0452778
0.0453173
0.0453694
0.0454286
0.0454864
0.0455207
0.045514
0.0454868
0.045467
0.0454821
0.0455498
0.0456838
0.0458973
0.0462012
0.0466035
0.0471138
0.0477533
0.0485716
0.0496744
0.0512798
0.0535371
)
;

boundaryField
{
    movingWall
    {
        type            fixedFluxPressure;
        gradient        uniform 0;
        value           nonuniform List<scalar> 
32
(
0.0431309
0.0443882
0.0448971
0.0450902
0.0452089
0.0452754
0.0452926
0.04528
0.0452602
0.045249
0.0452544
0.0452778
0.0453173
0.0453694
0.0454286
0.0454864
0.0455207
0.045514
0.0454868
0.045467
0.0454821
0.0455498
0.0456838
0.0458973
0.0462012
0.0466035
0.0471138
0.0477533
0.0485716
0.0496744
0.0512798
0.0535371
)
;
    }
    fixedWalls
    {
        type            fixedFluxPressure;
        gradient        uniform 0;
        value           nonuniform List<scalar> 
64
(
0.0431974
0.0432209
0.0432559
0.0432835
0.0432793
0.0432236
0.0431109
0.0429528
0.0427738
0.0426111
0.0425038
0.0424845
0.042567
0.0427447
0.0430147
0.0434052
0.0439151
0.0444195
0.0447657
0.0449169
0.0449629
0.0449603
0.0449404
0.0449208
0.0449055
0.0448927
0.0448787
0.0448539
0.0447916
0.0446312
0.0441547
0.0431309
0.0425678
0.042578
0.0425996
0.0426324
0.0426729
0.0427109
0.0427285
0.0427017
0.0426085
0.0424381
0.0421964
0.041905
0.0415971
0.0413208
0.0411381
0.0411319
0.0414182
0.0421902
0.0441348
0.0459423
0.0463684
0.0463634
0.0463216
0.0463664
0.0465419
0.0468711
0.0473672
0.0480333
0.0488909
0.050066
0.0517274
0.0535371
)
;
    }
    floor
    {
        type            fixedFluxPressure;
        gradient        uniform 0;
        value           nonuniform List<scalar> 
32
(
0.0431974
0.0431894
0.0431841
0.0431873
0.0432011
0.0432293
0.0432793
0.0433621
0.0434886
0.0436556
0.0438155
0.0439004
0.0438531
0.0436824
0.0434256
0.0431393
0.0428977
0.0427384
0.0426436
0.0425896
0.0425613
0.0425494
0.042547
0.0425497
0.0425539
0.0425574
0.0425592
0.0425597
0.0425602
0.0425621
0.0425652
0.0425678
)
;
    }
    frontAndBack
    {
        type            empty;
    }
}


// ************************************************************************* //
