/*--------------------------------*- C++ -*----------------------------------*\
| =========                 |                                                 |
| \\      /  F ield         | OpenFOAM: The Open Source CFD Toolbox           |
|  \\    /   O peration     | Version:  2212                                  |
|   \\  /    A nd           | Website:  www.openfoam.com                      |
|    \\/     M anipulation  |                                                 |
\*---------------------------------------------------------------------------*/
FoamFile
{
    version     2.0;
    format      ascii;
    arch        "LSB;label=64;scalar=64";
    class       volScalarField;
    location    "480";
    object      Sco2;
}
// * * * * * * * * * * * * * * * * * * * * * * * * * * * * * * * * * * * * * //

dimensions      [1 -3 0 0 0 0 0];

internalField   nonuniform List<scalar> 
1024
(
0.00623082
0.00623337
0.00623946
0.00624995
0.00626521
0.00628473
0.00630713
0.0063307
0.00635406
0.00637642
0.00639736
0.00641592
0.00643059
0.0064404
0.00644368
0.00643834
0.00642307
0.00640025
0.00637304
0.00634236
0.00630828
0.00627046
0.00622878
0.00618422
0.00613921
0.00609703
0.00606059
0.00603175
0.00601092
0.00599739
0.00598982
0.0059867
0.00623115
0.00623379
0.0062401
0.00625095
0.00626663
0.00628648
0.00630905
0.00633262
0.00635591
0.00637828
0.00639937
0.00641814
0.00643288
0.00644264
0.00644579
0.00644032
0.00642503
0.00640232
0.00637531
0.00634489
0.00631115
0.0062737
0.00623236
0.00618798
0.0061429
0.00610035
0.00606335
0.00603389
0.00601254
0.00599864
0.00599087
0.00598768
0.00623179
0.00623457
0.00624124
0.00625264
0.00626892
0.00628924
0.00631203
0.00633564
0.00635902
0.00638181
0.00640377
0.00642349
0.00643863
0.00644826
0.00645089
0.00644483
0.0064292
0.00640653
0.00637983
0.00634993
0.00631688
0.00628024
0.00623969
0.0061958
0.00615068
0.00610745
0.00606934
0.00603862
0.00601618
0.00600153
0.00599334
0.00598999
0.00623258
0.00623551
0.00624251
0.00625442
0.00627124
0.00629197
0.00631497
0.00633877
0.00636267
0.00638668
0.00641073
0.00643275
0.00644906
0.00645853
0.00646
0.00645243
0.00643571
0.0064127
0.00638626
0.00635702
0.00632496
0.00628957
0.00625031
0.00620736
0.00616239
0.00611835
0.00607869
0.00604615
0.0060221
0.00600631
0.00599749
0.0059939
0.00623323
0.00623625
0.00624342
0.00625557
0.00627263
0.00629354
0.00631671
0.00634096
0.00636599
0.00639228
0.00641997
0.00644609
0.00646487
0.00647437
0.00647391
0.00646352
0.0064445
0.00642039
0.00639385
0.00636522
0.00633432
0.00630052
0.00626302
0.00622152
0.00617708
0.00613237
0.00609099
0.00605629
0.00603024
0.00601301
0.00600339
0.00599951
0.00623333
0.00623634
0.00624344
0.00625544
0.00627229
0.006293
0.00631623
0.00634112
0.00636787
0.00639747
0.00643042
0.00646269
0.00648569
0.00649574
0.00649259
0.00647787
0.006455
0.0064287
0.00640144
0.00637315
0.00634338
0.00631132
0.0062759
0.00623631
0.00619293
0.00614794
0.00610506
0.00606822
0.00604009
0.00602132
0.00601085
0.00600666
0.0062324
0.00623531
0.0062421
0.00625352
0.00626961
0.00628966
0.00631264
0.00633815
0.00636694
0.00640067
0.00644038
0.00648081
0.00650987
0.00652108
0.00651456
0.00649399
0.00646566
0.00643601
0.00640731
0.00637895
0.00635014
0.00631981
0.00628662
0.00624926
0.00620743
0.00616279
0.00611901
0.0060805
0.00605061
0.00603052
0.0060193
0.00601486
0.00622989
0.00623267
0.00623896
0.00624941
0.00626422
0.00628299
0.00630518
0.00633096
0.0063618
0.00640035
0.00644831
0.00649868
0.00653508
0.00654747
0.00653647
0.00650849
0.00647335
0.00643946
0.00640884
0.00638018
0.00635223
0.00632363
0.00629274
0.0062578
0.00621795
0.00617435
0.00613056
0.0060913
0.00606044
0.00603955
0.0060279
0.00602331
0.00622512
0.00622775
0.00623344
0.00624268
0.00625574
0.00627259
0.00629331
0.0063188
0.00635166
0.00639599
0.00645409
0.00651584
0.00655952
0.00657147
0.0065535
0.00651594
0.00647288
0.00643453
0.00640217
0.00637354
0.00634678
0.00632021
0.00629184
0.00625958
0.00622214
0.00618035
0.00613764
0.00609887
0.00606815
0.00604729
0.00603564
0.00603104
0.00621716
0.00621965
0.00622477
0.00623271
0.00624374
0.00625818
0.00627683
0.00630172
0.00633709
0.00638912
0.00645988
0.00653396
0.00658302
0.0065903
0.00656038
0.00650946
0.00645724
0.00641507
0.0063822
0.00635481
0.00633036
0.00630672
0.00628159
0.00625258
0.00621819
0.00617913
0.00613877
0.0061019
0.00607259
0.00605265
0.00604146
0.00603701
0.00620476
0.00620713
0.00621177
0.00621858
0.00622769
0.00623972
0.00625633
0.00628118
0.00632099
0.00638417
0.00647042
0.00655657
0.00660681
0.00660224
0.00655241
0.00648205
0.00641876
0.00637411
0.00634309
0.00631933
0.00629927
0.00628029
0.00625977
0.00623513
0.00620486
0.00616976
0.00613315
0.00609961
0.00607293
0.0060547
0.00604436
0.00604015
0.00618685
0.00618905
0.00619331
0.00619939
0.00620736
0.00621812
0.00623436
0.00626188
0.0063104
0.00638933
0.00649293
0.00658825
0.00663219
0.00660576
0.00652586
0.00642828
0.00635119
0.00630581
0.00627982
0.00626292
0.00625017
0.00623836
0.00622453
0.00620599
0.00618145
0.0061519
0.00612059
0.00609173
0.00606864
0.00605267
0.00604338
0.00603943
0.00616531
0.00616716
0.00617095
0.00617676
0.00618502
0.00619735
0.00621786
0.00625458
0.00631902
0.00641813
0.00653735
0.00663346
0.00665896
0.00659848
0.00647848
0.00634656
0.00625285
0.0062084
0.00619048
0.00618368
0.00618131
0.00617947
0.0061748
0.00616456
0.00614761
0.00612519
0.00610046
0.00607723
0.00605835
0.00604497
0.00603686
0.00603321
0.0061522
0.00615358
0.00615695
0.00616325
0.00617411
0.00619272
0.00622503
0.00628039
0.00636823
0.00648757
0.00661266
0.00669323
0.00668391
0.00657806
0.00641239
0.00624352
0.00613147
0.00608799
0.00607932
0.0060843
0.00609435
0.00610468
0.00611159
0.00611218
0.00610533
0.0060921
0.0060753
0.00605826
0.00604349
0.00603227
0.00602492
0.00602136
0.00617461
0.00617603
0.00618019
0.00618923
0.00620653
0.00623723
0.00628847
0.00636785
0.00647785
0.006606
0.00671711
0.00676091
0.00670271
0.00654873
0.00634273
0.00614249
0.00601138
0.00596426
0.00596162
0.00597699
0.00599905
0.00602107
0.00603823
0.00604758
0.00604872
0.00604338
0.0060342
0.00602369
0.00601359
0.00600505
0.00599887
0.00599565
0.00625743
0.00625994
0.00626707
0.00628208
0.00630968
0.00635584
0.00642661
0.0065244
0.00664247
0.0067584
0.00683395
0.00682833
0.00672444
0.00653978
0.00631453
0.00609613
0.00594359
0.00588055
0.0058733
0.00589314
0.00592494
0.00595873
0.00598731
0.00600645
0.00601509
0.00601456
0.00600738
0.0059965
0.00598473
0.00597441
0.00596706
0.00596337
0.00638116
0.00638527
0.0063963
0.00641823
0.0064561
0.00651513
0.00659832
0.00670252
0.00681408
0.00690623
0.00694634
0.00691115
0.00679899
0.00662591
0.00641606
0.00619813
0.00601962
0.00591665
0.00587294
0.00586158
0.00586634
0.00587702
0.00588712
0.00589329
0.005895
0.00589372
0.00589198
0.00589217
0.0058953
0.00590041
0.00590533
0.00590813
0.00648718
0.0064926
0.00650677
0.00653406
0.00657935
0.0066466
0.00673607
0.00684098
0.00694551
0.00702694
0.00706454
0.00704833
0.00697975
0.00686556
0.00671366
0.00653458
0.00635835
0.00622469
0.00613878
0.00608155
0.00604395
0.00602074
0.00600993
0.00601133
0.00602529
0.0060514
0.00608835
0.00613271
0.00617847
0.00621825
0.00624592
0.00625904
0.00654969
0.00655582
0.00657155
0.00660122
0.00664932
0.00671885
0.00680896
0.00691264
0.00701681
0.00710587
0.00716806
0.00719915
0.00720015
0.00717269
0.00711804
0.00703988
0.00695609
0.00689817
0.00687825
0.00688528
0.00691324
0.00695467
0.00700354
0.00705502
0.00710474
0.00714942
0.00718641
0.00721424
0.00723307
0.0072446
0.00725104
0.00725385
0.00657371
0.00657971
0.00659476
0.00662256
0.00666688
0.00673029
0.00681256
0.00690938
0.00701249
0.00711205
0.00720073
0.0072763
0.00733972
0.00739205
0.00743432
0.00747125
0.00751515
0.00758353
0.00768148
0.007801
0.00793242
0.00806328
0.0081824
0.00828185
0.0083542
0.00839618
0.00840693
0.00839017
0.0083551
0.00831534
0.00828429
0.0082691
0.00657551
0.00658109
0.00659467
0.00661915
0.00665755
0.006712
0.00678281
0.00686774
0.00696235
0.00706152
0.00716156
0.00726185
0.00736343
0.0074667
0.00757185
0.0076835
0.00780879
0.0079526
0.00811108
0.0082755
0.00843515
0.00858002
0.0087034
0.00880264
0.00887563
0.00892191
0.00894173
0.00893726
0.00891402
0.00888167
0.00885244
0.00883629
0.00656718
0.00657215
0.00658401
0.00660506
0.0066377
0.00668384
0.00674428
0.00681838
0.00690442
0.00700034
0.00710471
0.00721756
0.00733917
0.00746873
0.007605
0.00775041
0.0079063
0.00807021
0.00823497
0.00839288
0.0085362
0.00866112
0.00876832
0.00886012
0.00893771
0.00900019
0.00904544
0.009072
0.00908069
0.00907567
0.00906448
0.00905596
0.006559
0.00656287
0.00657241
0.00658977
0.00661715
0.00665647
0.00670909
0.00677578
0.00685681
0.00695218
0.00706148
0.00718444
0.00731989
0.0074651
0.00761659
0.00777367
0.00793288
0.00808945
0.00823869
0.00837698
0.00850116
0.00861225
0.00871421
0.00881077
0.0089023
0.00898495
0.00905303
0.00910212
0.00913115
0.00914288
0.00914327
0.00914013
0.00656417
0.00656583
0.00657145
0.00658386
0.00660586
0.00663995
0.00668833
0.00675293
0.00683535
0.00693625
0.00705494
0.00718974
0.00733762
0.00749398
0.0076535
0.0078129
0.00796529
0.00810606
0.00823552
0.00835469
0.00846356
0.00856515
0.00866415
0.00876424
0.00886547
0.00896297
0.00904891
0.00911586
0.00916012
0.00918296
0.00918998
0.00918944
0.00660101
0.00659867
0.00659766
0.00660277
0.00661871
0.00664947
0.00669832
0.00676784
0.00685948
0.00697282
0.0071053
0.00725316
0.00741167
0.00757518
0.00773767
0.00789462
0.00803712
0.0081613
0.00827195
0.008374
0.00846929
0.00856113
0.00865376
0.00875041
0.00885149
0.00895324
0.00904811
0.00912704
0.00918331
0.00921552
0.00922802
0.00922933
0.00669085
0.00668248
0.00667216
0.00666811
0.00667831
0.00670904
0.00676435
0.00684595
0.00695315
0.00708269
0.00722936
0.00738755
0.00755167
0.00771618
0.0078756
0.00802553
0.00815644
0.00826494
0.00835847
0.00844444
0.00852583
0.00860587
0.00868809
0.00877518
0.00886795
0.00896415
0.00905808
0.00914112
0.00920467
0.00924422
0.00926166
0.00926478
0.00685266
0.0068371
0.0068173
0.00680598
0.00681451
0.00685091
0.00691839
0.00701585
0.00713903
0.00728154
0.00743621
0.00759668
0.0077577
0.00791475
0.00806369
0.00820104
0.00831781
0.00841084
0.00848837
0.00855875
0.00862563
0.008692
0.00876075
0.00883411
0.00891321
0.00899716
0.00908228
0.00916167
0.00922665
0.00927041
0.00929182
0.00929676
0.00709871
0.00707716
0.00705341
0.00704343
0.00705899
0.00710706
0.00718793
0.00729725
0.00742802
0.00757231
0.00772273
0.00787352
0.00802056
0.00816075
0.00829143
0.0084103
0.00850959
0.00858646
0.00864856
0.00870391
0.00875625
0.00880825
0.00886217
0.00891984
0.00898245
0.00905009
0.00912102
0.00919053
0.00925113
0.00929517
0.00931892
0.00932549
0.00743483
0.00741259
0.0073976
0.00740239
0.0074332
0.00749311
0.00757991
0.00768823
0.00781104
0.00794124
0.00807273
0.00820115
0.00832371
0.0084386
0.00854433
0.00863958
0.00871826
0.00877798
0.00882501
0.00886611
0.0089046
0.00894265
0.00898194
0.0090239
0.00906954
0.00911944
0.00917321
0.00922838
0.00927955
0.00931963
0.00934336
0.00935105
0.00786569
0.0078534
0.00786198
0.00788879
0.00793236
0.00799367
0.00807124
0.00816147
0.00825956
0.00836063
0.00846056
0.00855649
0.00864675
0.00873037
0.00880666
0.00887492
0.00893091
0.00897288
0.00900531
0.00903316
0.00905895
0.00908424
0.00911017
0.00913774
0.00916767
0.00920056
0.00923666
0.00927513
0.00931297
0.00934495
0.00936576
0.00937354
0.00840254
0.00841168
0.00844211
0.00847711
0.00851642
0.00856212
0.00861461
0.00867271
0.00873418
0.00879646
0.00885732
0.00891518
0.00896916
0.00901881
0.00906386
0.00910401
0.00913679
0.00916118
0.00917981
0.0091956
0.00921007
0.00922415
0.00923848
0.00925362
0.00926999
0.00928797
0.00930787
0.0093296
0.009352
0.00937234
0.00938695
0.00939323
0.00906247
0.00907155
0.00908874
0.00910476
0.00912049
0.00913725
0.00915555
0.0091753
0.00919592
0.00921664
0.00923678
0.00925583
0.00927352
0.00928973
0.0093044
0.00931744
0.00932807
0.00933595
0.00934193
0.00934697
0.00935156
0.009356
0.00936049
0.00936522
0.00937032
0.00937589
0.00938205
0.00938883
0.00939598
0.00940279
0.00940809
0.00941069
)
;

boundaryField
{
    movingWall
    {
        type            fixedValue;
        value           uniform 0.00942;
    }
    fixedWalls
    {
        type            zeroGradient;
    }
    floor
    {
        type            zeroGradient;
    }
    frontAndBack
    {
        type            empty;
    }
}


// ************************************************************************* //
