/*--------------------------------*- C++ -*----------------------------------*\
| =========                 |                                                 |
| \\      /  F ield         | OpenFOAM: The Open Source CFD Toolbox           |
|  \\    /   O peration     | Version:  2212                                  |
|   \\  /    A nd           | Website:  www.openfoam.com                      |
|    \\/     M anipulation  |                                                 |
\*---------------------------------------------------------------------------*/
FoamFile
{
    version     2.0;
    format      ascii;
    arch        "LSB;label=64;scalar=64";
    class       volScalarField;
    location    "480";
    object      SIC;
}
// * * * * * * * * * * * * * * * * * * * * * * * * * * * * * * * * * * * * * //

dimensions      [1 -3 0 0 0 0 0];

internalField   nonuniform List<scalar> 
1024
(
0.0919111
0.0919136
0.0919197
0.0919301
0.0919453
0.0919647
0.091987
0.0920105
0.0920337
0.092056
0.0920769
0.0920954
0.0921101
0.0921199
0.0921232
0.0921179
0.0921027
0.09208
0.092053
0.0920225
0.0919886
0.091951
0.0919095
0.091865
0.0918202
0.0917781
0.0917418
0.091713
0.0916922
0.0916787
0.0916711
0.091668
0.0919114
0.091914
0.0919203
0.0919311
0.0919467
0.0919665
0.0919889
0.0920124
0.0920356
0.0920578
0.0920789
0.0920976
0.0921123
0.0921221
0.0921252
0.0921198
0.0921046
0.0920821
0.0920552
0.092025
0.0919914
0.0919542
0.091913
0.0918688
0.0918238
0.0917814
0.0917445
0.0917151
0.0916938
0.0916799
0.0916722
0.091669
0.091912
0.0919148
0.0919214
0.0919328
0.091949
0.0919692
0.0919919
0.0920154
0.0920386
0.0920613
0.0920832
0.0921029
0.092118
0.0921277
0.0921303
0.0921243
0.0921088
0.0920862
0.0920597
0.09203
0.0919971
0.0919607
0.0919203
0.0918766
0.0918316
0.0917885
0.0917505
0.0917198
0.0916974
0.0916828
0.0916747
0.0916713
0.0919128
0.0919157
0.0919227
0.0919346
0.0919513
0.0919719
0.0919948
0.0920185
0.0920422
0.0920661
0.0920901
0.0921121
0.0921284
0.0921379
0.0921394
0.0921318
0.0921152
0.0920923
0.0920661
0.092037
0.0920051
0.0919699
0.0919309
0.0918881
0.0918433
0.0917994
0.0917598
0.0917273
0.0917033
0.0916876
0.0916788
0.0916752
0.0919135
0.0919165
0.0919236
0.0919357
0.0919527
0.0919735
0.0919965
0.0920206
0.0920455
0.0920716
0.0920992
0.0921253
0.0921441
0.0921536
0.0921532
0.0921428
0.0921239
0.0920999
0.0920736
0.0920451
0.0920144
0.0919808
0.0919435
0.0919022
0.0918579
0.0918133
0.0917721
0.0917375
0.0917115
0.0916943
0.0916847
0.0916808
0.0919136
0.0919166
0.0919236
0.0919356
0.0919523
0.0919729
0.091996
0.0920207
0.0920473
0.0920767
0.0921095
0.0921417
0.0921647
0.0921748
0.0921717
0.092157
0.0921343
0.0921081
0.0920811
0.092053
0.0920234
0.0919915
0.0919563
0.0919169
0.0918737
0.0918288
0.0917861
0.0917493
0.0917213
0.0917026
0.0916921
0.0916879
0.0919126
0.0919155
0.0919223
0.0919336
0.0919496
0.0919695
0.0919923
0.0920177
0.0920462
0.0920797
0.0921192
0.0921596
0.0921887
0.0921999
0.0921935
0.092173
0.0921448
0.0921153
0.0920868
0.0920587
0.0920301
0.0919999
0.0919669
0.0919298
0.0918881
0.0918436
0.0918
0.0917616
0.0917318
0.0917117
0.0917005
0.0916961
0.0919101
0.0919129
0.0919191
0.0919295
0.0919442
0.0919628
0.0919848
0.0920104
0.092041
0.0920792
0.0921269
0.0921772
0.0922136
0.0922261
0.0922151
0.0921873
0.0921523
0.0921186
0.0920882
0.0920598
0.0920321
0.0920037
0.091973
0.0919382
0.0918986
0.0918551
0.0918115
0.0917723
0.0917416
0.0917207
0.0917091
0.0917045
0.0919053
0.0919079
0.0919136
0.0919228
0.0919357
0.0919524
0.0919729
0.0919982
0.0920307
0.0920747
0.0921325
0.0921941
0.0922378
0.0922498
0.0922319
0.0921945
0.0921516
0.0921135
0.0920814
0.092053
0.0920265
0.0920002
0.091972
0.09194
0.0919027
0.0918611
0.0918185
0.0917799
0.0917493
0.0917285
0.0917168
0.0917123
0.0918974
0.0918998
0.0919049
0.0919128
0.0919237
0.091938
0.0919564
0.091981
0.092016
0.0920676
0.092138
0.092212
0.0922611
0.0922684
0.0922386
0.0921878
0.0921358
0.0920939
0.0920614
0.0920342
0.0920101
0.0919866
0.0919617
0.0919329
0.0918987
0.0918598
0.0918196
0.0917829
0.0917537
0.0917338
0.0917226
0.0917182
0.091885
0.0918873
0.0918919
0.0918987
0.0919077
0.0919196
0.0919359
0.0919605
0.0919998
0.0920625
0.0921484
0.0922344
0.0922847
0.0922802
0.0922304
0.0921602
0.0920972
0.0920529
0.0920222
0.0919987
0.091979
0.0919602
0.0919399
0.0919155
0.0918854
0.0918505
0.091814
0.0917806
0.091754
0.0917358
0.0917255
0.0917213
0.091867
0.0918692
0.0918734
0.0918795
0.0918873
0.091898
0.0919139
0.0919411
0.0919891
0.0920675
0.0921707
0.092266
0.09231
0.0922836
0.0922037
0.0921063
0.0920296
0.0919846
0.091959
0.0919424
0.0919299
0.0919184
0.0919047
0.0918864
0.091862
0.0918327
0.0918015
0.0917727
0.0917497
0.0917338
0.0917245
0.0917206
0.0918454
0.0918472
0.091851
0.0918568
0.0918649
0.0918771
0.0918973
0.0919336
0.0919975
0.0920961
0.092215
0.0923111
0.0923367
0.0922762
0.0921562
0.0920246
0.0919314
0.0918874
0.0918698
0.0918633
0.0918612
0.0918596
0.0918551
0.0918451
0.0918283
0.091806
0.0917814
0.0917583
0.0917395
0.0917261
0.091718
0.0917144
0.0918321
0.0918335
0.0918369
0.0918431
0.0918539
0.0918723
0.0919043
0.0919593
0.0920466
0.0921655
0.0922904
0.0923709
0.0923616
0.0922556
0.0920901
0.0919217
0.0918103
0.0917673
0.091759
0.0917642
0.0917745
0.091785
0.0917921
0.0917929
0.0917861
0.091773
0.0917563
0.0917393
0.0917246
0.0917134
0.0917061
0.0917026
0.0918545
0.0918559
0.09186
0.091869
0.0918862
0.0919167
0.0919677
0.0920467
0.0921563
0.0922841
0.092395
0.0924386
0.0923801
0.092226
0.0920202
0.0918207
0.0916905
0.091644
0.0916417
0.0916573
0.0916795
0.0917017
0.091719
0.0917284
0.0917297
0.0917244
0.0917153
0.0917048
0.0916948
0.0916863
0.0916801
0.0916769
0.0919376
0.0919401
0.0919472
0.0919622
0.0919897
0.0920357
0.0921062
0.0922037
0.0923214
0.0924369
0.092512
0.0925058
0.0924014
0.0922165
0.0919917
0.0917743
0.0916229
0.0915606
0.0915538
0.0915738
0.0916058
0.0916397
0.0916683
0.0916875
0.0916962
0.0916957
0.0916886
0.0916778
0.091666
0.0916557
0.0916484
0.0916447
0.092062
0.0920661
0.0920771
0.092099
0.0921368
0.0921957
0.0922787
0.0923825
0.0924936
0.092585
0.0926242
0.0925881
0.0924753
0.0923021
0.0920928
0.0918758
0.0916984
0.0915964
0.0915534
0.0915425
0.0915475
0.0915584
0.0915686
0.0915749
0.0915766
0.0915753
0.0915735
0.0915737
0.0915767
0.0915818
0.0915867
0.0915895
0.0921686
0.092174
0.0921882
0.0922155
0.0922607
0.0923279
0.0924171
0.0925216
0.0926255
0.092706
0.0927426
0.0927253
0.092656
0.0925415
0.0923897
0.0922111
0.0920357
0.0919027
0.0918175
0.0917607
0.0917234
0.0917004
0.0916898
0.0916913
0.0917053
0.0917315
0.0917684
0.0918128
0.0918585
0.0918983
0.0919259
0.091939
0.0922315
0.0922377
0.0922534
0.0922831
0.0923312
0.0924007
0.0924907
0.0925941
0.0926977
0.092786
0.0928472
0.0928773
0.0928774
0.0928494
0.0927944
0.0927161
0.0926323
0.0925746
0.092555
0.0925622
0.0925904
0.092632
0.092681
0.0927326
0.0927826
0.0928274
0.0928646
0.0928926
0.0929116
0.0929233
0.0929298
0.0929326
0.0922557
0.0922617
0.0922768
0.0923047
0.092349
0.0924125
0.0924948
0.0925916
0.0926944
0.0927935
0.0928815
0.0929562
0.0930189
0.0930705
0.0931122
0.0931487
0.0931923
0.0932607
0.0933588
0.0934785
0.0936102
0.0937413
0.0938606
0.0939602
0.0940328
0.0940749
0.0940858
0.0940692
0.0940342
0.0939944
0.0939634
0.0939482
0.0922575
0.0922631
0.0922767
0.0923013
0.0923398
0.0923944
0.0924653
0.0925503
0.0926449
0.0927439
0.0928436
0.0929434
0.0930444
0.0931471
0.0932516
0.0933628
0.0934878
0.0936315
0.0937902
0.0939549
0.0941148
0.0942599
0.0943834
0.0944828
0.0945558
0.094602
0.0946218
0.0946173
0.094594
0.0945616
0.0945323
0.0945162
0.0922492
0.0922542
0.0922661
0.0922872
0.0923199
0.0923662
0.0924268
0.0925011
0.0925873
0.0926832
0.0927875
0.0929001
0.0930213
0.0931504
0.0932862
0.0934311
0.0935867
0.0937506
0.0939155
0.0940736
0.0942171
0.094342
0.0944492
0.094541
0.0946184
0.0946808
0.0947259
0.0947524
0.094761
0.094756
0.0947447
0.0947362
0.092241
0.0922449
0.0922545
0.0922719
0.0922994
0.0923389
0.0923917
0.0924586
0.0925399
0.0926354
0.0927447
0.0928675
0.0930027
0.0931476
0.0932986
0.0934552
0.0936141
0.0937706
0.0939199
0.0940583
0.0941825
0.0942936
0.0943954
0.0944918
0.0945832
0.0946656
0.0947336
0.0947825
0.0948115
0.0948232
0.0948236
0.0948204
0.0922462
0.0922478
0.0922535
0.092266
0.0922881
0.0923224
0.092371
0.0924359
0.0925185
0.0926196
0.0927384
0.0928731
0.0930208
0.0931768
0.093336
0.0934949
0.093647
0.0937876
0.093917
0.0940362
0.0941451
0.0942466
0.0943455
0.0944454
0.0945464
0.0946437
0.0947295
0.0947963
0.0948405
0.0948632
0.0948702
0.0948697
0.092283
0.0922807
0.0922798
0.092285
0.0923011
0.092332
0.0923811
0.0924509
0.0925428
0.0926563
0.0927888
0.0929366
0.0930949
0.0932581
0.0934203
0.0935768
0.0937189
0.0938429
0.0939535
0.0940555
0.0941508
0.0942425
0.094335
0.0944315
0.0945324
0.094634
0.0947287
0.0948074
0.0948636
0.0948958
0.0949082
0.0949095
0.0923729
0.0923645
0.0923543
0.0923504
0.0923608
0.0923917
0.0924473
0.0925292
0.0926366
0.0927662
0.0929128
0.0930709
0.0932348
0.093399
0.0935581
0.0937076
0.0938382
0.0939465
0.0940399
0.0941258
0.0942072
0.0942871
0.0943693
0.0944562
0.0945488
0.0946448
0.0947386
0.0948215
0.0948849
0.0949244
0.0949418
0.0949449
0.0925346
0.0925191
0.0924994
0.0924883
0.0924971
0.0925337
0.0926014
0.0926991
0.0928224
0.0929649
0.0931194
0.0932797
0.0934405
0.0935973
0.0937459
0.0938829
0.0939994
0.0940922
0.0941696
0.09424
0.0943068
0.0943731
0.0944418
0.094515
0.094594
0.0946778
0.0947628
0.094842
0.0949069
0.0949506
0.094972
0.0949769
0.0927805
0.092759
0.0927354
0.0927256
0.0927414
0.0927898
0.0928709
0.0929803
0.0931111
0.0932553
0.0934056
0.0935562
0.093703
0.0938429
0.0939733
0.0940919
0.0941909
0.0942676
0.0943296
0.0943849
0.0944372
0.0944892
0.094543
0.0946006
0.0946631
0.0947306
0.0948014
0.0948708
0.0949313
0.0949753
0.094999
0.0950056
0.0931163
0.0930942
0.0930793
0.0930843
0.0931153
0.0931755
0.0932624
0.0933708
0.0934936
0.0936237
0.093755
0.0938832
0.0940056
0.0941203
0.0942258
0.0943208
0.0943993
0.0944589
0.0945058
0.0945469
0.0945853
0.0946233
0.0946626
0.0947045
0.0947501
0.0947999
0.0948536
0.0949086
0.0949597
0.0949997
0.0950234
0.0950311
0.0935469
0.0935346
0.0935433
0.0935702
0.093614
0.0936754
0.0937531
0.0938433
0.0939414
0.0940424
0.0941422
0.094238
0.0943281
0.0944115
0.0944877
0.0945558
0.0946116
0.0946535
0.0946859
0.0947137
0.0947395
0.0947647
0.0947906
0.0948181
0.094848
0.0948809
0.0949169
0.0949553
0.0949931
0.095025
0.0950458
0.0950536
0.0940833
0.0940924
0.0941229
0.094158
0.0941974
0.0942432
0.0942957
0.0943538
0.0944153
0.0944775
0.0945383
0.094596
0.0946499
0.0946995
0.0947445
0.0947845
0.0948172
0.0948415
0.0948601
0.0948759
0.0948904
0.0949044
0.0949187
0.0949339
0.0949502
0.0949682
0.094988
0.0950097
0.0950321
0.0950524
0.095067
0.0950733
0.0947427
0.0947518
0.094769
0.094785
0.0948008
0.0948176
0.0948359
0.0948557
0.0948763
0.094897
0.0949171
0.0949361
0.0949538
0.0949699
0.0949846
0.0949976
0.0950082
0.0950161
0.095022
0.0950271
0.0950316
0.0950361
0.0950406
0.0950453
0.0950504
0.0950559
0.0950621
0.0950689
0.095076
0.0950828
0.0950881
0.0950907
)
;

boundaryField
{
    movingWall
    {
        type            fixedValue;
        value           uniform 0.0951;
    }
    fixedWalls
    {
        type            zeroGradient;
    }
    floor
    {
        type            zeroGradient;
    }
    frontAndBack
    {
        type            empty;
    }
}


// ************************************************************************* //
