/*--------------------------------*- C++ -*----------------------------------*\
| =========                 |                                                 |
| \\      /  F ield         | OpenFOAM: The Open Source CFD Toolbox           |
|  \\    /   O peration     | Version:  2212                                  |
|   \\  /    A nd           | Website:  www.openfoam.com                      |
|    \\/     M anipulation  |                                                 |
\*---------------------------------------------------------------------------*/
FoamFile
{
    version     2.0;
    format      ascii;
    arch        "LSB;label=64;scalar=64";
    class       volVectorField;
    location    "480";
    object      U;
}
// * * * * * * * * * * * * * * * * * * * * * * * * * * * * * * * * * * * * * //

dimensions      [0 1 -1 0 0 0 0];

internalField   nonuniform List<vector> 
1024
(
(4.80919e-06 -9.09611e-06 0)
(-0.000319046 7.95581e-05 0)
(-0.00103788 0.000129829 0)
(-0.00196547 0.000129853 0)
(-0.00291853 0.000118069 0)
(-0.00382816 0.00010752 0)
(-0.00465061 9.46926e-05 0)
(-0.00528114 7.20855e-05 0)
(-0.00548487 2.73639e-05 0)
(-0.00484565 -5.46969e-05 0)
(-0.00302114 -0.00013353 0)
(0.000295709 -0.000147162 0)
(0.00321338 -9.53519e-05 0)
(0.00530248 -4.3354e-05 0)
(0.0064031 -4.96281e-06 0)
(0.00656896 1.53159e-05 0)
(0.00610761 2.33061e-05 0)
(0.00540256 2.51222e-05 0)
(0.00468153 2.55615e-05 0)
(0.00400029 2.56661e-05 0)
(0.00337146 2.57032e-05 0)
(0.00280002 2.52203e-05 0)
(0.00229276 2.381e-05 0)
(0.00185779 2.1073e-05 0)
(0.00149962 1.72111e-05 0)
(0.0012091 1.41029e-05 0)
(0.000956693 1.48587e-05 0)
(0.000703703 2.13524e-05 0)
(0.000435062 2.89634e-05 0)
(0.000187163 2.63901e-05 0)
(2.68596e-05 6.34189e-06 0)
(-1.36259e-05 -1.39456e-05 0)
(-0.000118256 0.000346769 0)
(-0.0012464 0.00105277 0)
(-0.00320747 0.00139238 0)
(-0.00557974 0.00135911 0)
(-0.00794038 0.00116899 0)
(-0.010075 0.000941274 0)
(-0.0118166 0.000683513 0)
(-0.0129022 0.000357209 0)
(-0.0128732 -0.000101894 0)
(-0.0109579 -0.000720668 0)
(-0.00669772 -0.00134521 0)
(0.00110852 -0.00146031 0)
(0.00793427 -0.00100647 0)
(0.0131656 -0.000557731 0)
(0.0163483 -0.000193128 0)
(0.0173536 4.19757e-05 0)
(0.0166921 0.000165712 0)
(0.0152215 0.00022171 0)
(0.0135259 0.00025236 0)
(0.011817 0.000272784 0)
(0.010171 0.000288816 0)
(0.00862423 0.000299378 0)
(0.00720586 0.000301482 0)
(0.00594293 0.000292635 0)
(0.00485076 0.000275903 0)
(0.00391398 0.000265851 0)
(0.00307615 0.00028355 0)
(0.00226554 0.000334561 0)
(0.00145905 0.000379574 0)
(0.000732843 0.000345289 0)
(0.000227172 0.000197587 0)
(8.3013e-06 2.53735e-05 0)
(-0.000254529 0.00140019 0)
(-0.00214961 0.00327346 0)
(-0.00510066 0.00395742 0)
(-0.00848585 0.003726 0)
(-0.0117255 0.00309264 0)
(-0.0144987 0.00233987 0)
(-0.0165447 0.00151892 0)
(-0.0175243 0.000573802 0)
(-0.0168988 -0.000612102 0)
(-0.0139277 -0.00206407 0)
(-0.00832545 -0.00355054 0)
(0.00175982 -0.00385139 0)
(0.0107179 -0.00274373 0)
(0.0181418 -0.001646 0)
(0.0232772 -0.000708291 0)
(0.0256721 -3.59323e-05 0)
(0.0255079 0.000347914 0)
(0.0239515 0.000546779 0)
(0.0218212 0.000669897 0)
(0.0194891 0.000757905 0)
(0.0171219 0.000829295 0)
(0.014807 0.000884937 0)
(0.0126062 0.000918907 0)
(0.0105697 0.000926161 0)
(0.00872795 0.000914711 0)
(0.00707431 0.000917162 0)
(0.00555775 0.000978985 0)
(0.00411018 0.00110791 0)
(0.00271186 0.00121257 0)
(0.00145342 0.00112573 0)
(0.000525564 0.000754045 0)
(4.45106e-05 0.000230209 0)
(-0.000324332 0.00315094 0)
(-0.00264482 0.00671913 0)
(-0.00613956 0.00774769 0)
(-0.0100344 0.00709647 0)
(-0.0136413 0.00571585 0)
(-0.0165743 0.00411247 0)
(-0.0185323 0.00241685 0)
(-0.0191729 0.000575837 0)
(-0.017971 -0.00155792 0)
(-0.0144338 -0.00400346 0)
(-0.00839307 -0.00649805 0)
(0.00204374 -0.00704243 0)
(0.0116436 -0.00521513 0)
(0.0202355 -0.00334391 0)
(0.0268371 -0.00166723 0)
(0.0307717 -0.000354524 0)
(0.0316712 0.000458334 0)
(0.0306492 0.000915448 0)
(0.0286663 0.00121861 0)
(0.026213 0.00144725 0)
(0.0235389 0.00163916 0)
(0.0207848 0.001801 0)
(0.0180474 0.00192552 0)
(0.0154008 0.00200601 0)
(0.0128938 0.00205613 0)
(0.0105409 0.0021255 0)
(0.00832029 0.00228251 0)
(0.00619364 0.00253632 0)
(0.00415532 0.00273753 0)
(0.00230392 0.00259298 0)
(0.000883478 0.00187951 0)
(8.684e-05 0.000699101 0)
(-0.00029722 0.00532442 0)
(-0.00258103 0.0109797 0)
(-0.00610441 0.0124073 0)
(-0.0100407 0.0111769 0)
(-0.0136331 0.00879379 0)
(-0.0164514 0.00606993 0)
(-0.0181917 0.0032642 0)
(-0.018553 0.000353519 0)
(-0.0170827 -0.00282099 0)
(-0.0134709 -0.00630839 0)
(-0.00755069 -0.00980983 0)
(0.00213791 -0.010606 0)
(0.0114123 -0.0081661 0)
(0.0202618 -0.00552517 0)
(0.0275675 -0.00306411 0)
(0.032637 -0.00101371 0)
(0.0347632 0.000368406 0)
(0.0346269 0.00119793 0)
(0.0332267 0.00177472 0)
(0.0311024 0.00222986 0)
(0.0285488 0.00262594 0)
(0.0257391 0.00297939 0)
(0.0227926 0.00328468 0)
(0.0198001 0.00353541 0)
(0.016827 0.00375029 0)
(0.0139126 0.00398973 0)
(0.0110722 0.00433597 0)
(0.00830894 0.00479619 0)
(0.00564428 0.00516173 0)
(0.00319443 0.00497884 0)
(0.00126364 0.00379046 0)
(0.000132999 0.00154284 0)
(-0.000198211 0.00749456 0)
(-0.00206274 0.0154628 0)
(-0.005183 0.0174865 0)
(-0.00880357 0.015683 0)
(-0.0121483 0.0121628 0)
(-0.0147524 0.00814501 0)
(-0.0163197 0.00408466 0)
(-0.0165922 1.34908e-05 0)
(-0.0151992 -0.00424272 0)
(-0.0117958 -0.00882841 0)
(-0.00622869 -0.0132967 0)
(0.00233601 -0.0143024 0)
(0.0108008 -0.0114072 0)
(0.0192771 -0.00803839 0)
(0.0265634 -0.0047998 0)
(0.0320637 -0.00199785 0)
(0.0350608 1.25688e-05 0)
(0.0357869 0.00129575 0)
(0.0351198 0.00222164 0)
(0.0335766 0.00298101 0)
(0.031447 0.00366597 0)
(0.0289026 0.00430664 0)
(0.0260618 0.00490264 0)
(0.0230169 0.00545012 0)
(0.0198422 0.00597123 0)
(0.0165967 0.00652996 0)
(0.0133278 0.00721071 0)
(0.010078 0.00800901 0)
(0.00690356 0.00864676 0)
(0.00395179 0.00846656 0)
(0.00158833 0.00665894 0)
(0.000173128 0.0028543 0)
(-7.9497e-05 0.00924594 0)
(-0.00131759 0.0195273 0)
(-0.00374749 0.0224807 0)
(-0.00681531 0.0203304 0)
(-0.00979089 0.0157164 0)
(-0.0121804 0.0103568 0)
(-0.0136806 0.00498374 0)
(-0.0140374 -0.000295331 0)
(-0.0128596 -0.00571475 0)
(-0.00973389 -0.0115117 0)
(-0.00457081 -0.0168974 0)
(0.00279275 -0.0180269 0)
(0.0102697 -0.0148161 0)
(0.0180122 -0.0107567 0)
(0.0248048 -0.00674549 0)
(0.0301299 -0.00320392 0)
(0.0333489 -0.000581678 0)
(0.0346256 0.00118202 0)
(0.0345581 0.00249561 0)
(0.0336002 0.00360921 0)
(0.031998 0.00464865 0)
(0.0298894 0.00566248 0)
(0.0273671 0.00665918 0)
(0.0245078 0.00763905 0)
(0.021382 0.0086252 0)
(0.018058 0.00967873 0)
(0.0146043 0.010875 0)
(0.0110935 0.0121814 0)
(0.00761786 0.0132237 0)
(0.0043647 0.0130852 0)
(0.00175325 0.0104969 0)
(0.000190453 0.00463649 0)
(1.85943e-05 0.0102915 0)
(-0.000551944 0.0225885 0)
(-0.00212933 0.026857 0)
(-0.00447938 0.0248153 0)
(-0.00700506 0.0193635 0)
(-0.00918869 0.0127494 0)
(-0.0106834 0.00606632 0)
(-0.0111842 -0.000481385 0)
(-0.0101814 -0.00721701 0)
(-0.00729692 -0.0143654 0)
(-0.00255749 -0.0205616 0)
(0.0035297 -0.0216993 0)
(0.00997239 -0.018287 0)
(0.0167637 -0.0135736 0)
(0.0228036 -0.00879002 0)
(0.0276104 -0.00451093 0)
(0.0305942 -0.00129709 0)
(0.0319752 0.00091842 0)
(0.0321914 0.00261354 0)
(0.0316275 0.0040911 0)
(0.03047 0.0055154 0)
(0.0288048 0.00695986 0)
(0.0266814 0.00844632 0)
(0.0241455 0.00998028 0)
(0.0212508 0.0115828 0)
(0.0180624 0.0133063 0)
(0.0146567 0.0152052 0)
(0.0111263 0.0171954 0)
(0.00759736 0.0187597 0)
(0.00430069 0.0186539 0)
(0.00169139 0.0150824 0)
(0.000173918 0.00674615 0)
(7.97097e-05 0.0104983 0)
(9.92243e-05 0.0241316 0)
(-0.000542661 0.0300275 0)
(-0.00199796 0.0287443 0)
(-0.00394557 0.0229558 0)
(-0.00587425 0.0153187 0)
(-0.00735164 0.00736658 0)
(-0.00796727 -0.0005437 0)
(-0.00703689 -0.00880121 0)
(-0.0043674 -0.0173994 0)
(-0.000178498 -0.0241669 0)
(0.00456901 -0.0252202 0)
(0.00991847 -0.0216882 0)
(0.0155786 -0.0163713 0)
(0.0206915 -0.0108383 0)
(0.0248166 -0.00582922 0)
(0.0273693 -0.00202764 0)
(0.0285443 0.000612184 0)
(0.0287414 0.00265978 0)
(0.0283206 0.00447632 0)
(0.0274307 0.00627606 0)
(0.0261106 0.0081682 0)
(0.0243637 0.0101951 0)
(0.0221968 0.0123698 0)
(0.0196367 0.0147093 0)
(0.0167327 0.0172512 0)
(0.0135578 0.0200158 0)
(0.0102158 0.0228322 0)
(0.00686468 0.0249745 0)
(0.00377751 0.0247965 0)
(0.00141759 0.019982 0)
(0.00012833 0.00891257 0)
(0.000117327 0.00990035 0)
(0.000581324 0.0238803 0)
(0.00081785 0.0312053 0)
(0.000491709 0.0315111 0)
(-0.000564568 0.0261795 0)
(-0.0020464 0.017948 0)
(-0.00341183 0.00880033 0)
(-0.00414831 -0.000593705 0)
(-0.00321485 -0.010525 0)
(-0.000820556 -0.0205181 0)
(0.00247256 -0.0274345 0)
(0.00598087 -0.0284484 0)
(0.0100675 -0.0248211 0)
(0.0144149 -0.0189815 0)
(0.0184324 -0.0127776 0)
(0.0217669 -0.00708973 0)
(0.0238412 -0.00270317 0)
(0.0247047 0.000360805 0)
(0.0247198 0.00273674 0)
(0.0242636 0.00485248 0)
(0.0234833 0.00698797 0)
(0.022393 0.00930415 0)
(0.0209601 0.0118758 0)
(0.0191548 0.0147297 0)
(0.0169717 0.0178798 0)
(0.0144364 0.0213442 0)
(0.0116103 0.0250896 0)
(0.00860469 0.0288089 0)
(0.00560915 0.0314818 0)
(0.0029339 0.0310009 0)
(0.00101268 0.0246468 0)
(7.03513e-05 0.0108226 0)
(0.000131698 0.00851107 0)
(0.000886902 0.0216985 0)
(0.00180649 0.0298276 0)
(0.00248261 0.0317349 0)
(0.00257658 0.0279948 0)
(0.00207243 0.0204995 0)
(0.00129067 0.01091 0)
(0.000694743 -0.000157561 0)
(0.00146231 -0.0122758 0)
(0.00325283 -0.0231562 0)
(0.00538691 -0.0299858 0)
(0.00768481 -0.031112 0)
(0.0103188 -0.0273933 0)
(0.0131746 -0.0211614 0)
(0.0159332 -0.0144486 0)
(0.0183744 -0.00821542 0)
(0.0199685 -0.00328238 0)
(0.020542 0.000218889 0)
(0.0203609 0.0029122 0)
(0.0198233 0.00528829 0)
(0.0190925 0.00770458 0)
(0.0181745 0.0103907 0)
(0.0170139 0.0134702 0)
(0.0155513 0.0169953 0)
(0.013751 0.0209829 0)
(0.0116137 0.0254261 0)
(0.00918938 0.0302096 0)
(0.00660095 0.0348184 0)
(0.00407501 0.0378391 0)
(0.0019473 0.0366956 0)
(0.000573782 0.028529 0)
(1.65894e-05 0.012215 0)
(0.000115037 0.0065662 0)
(0.000950447 0.0178257 0)
(0.00223973 0.025909 0)
(0.00361242 0.029068 0)
(0.00467303 0.0270226 0)
(0.00524641 0.0207916 0)
(0.00544736 0.0116171 0)
(0.00574477 0.000165008 0)
(0.00630198 -0.012944 0)
(0.00735165 -0.0245918 0)
(0.00844368 -0.0316692 0)
(0.00940709 -0.0328136 0)
(0.0104289 -0.0290238 0)
(0.0116572 -0.0226006 0)
(0.0130469 -0.0156442 0)
(0.0145232 -0.00910711 0)
(0.0156527 -0.00373594 0)
(0.0160133 0.000200262 0)
(0.0157157 0.00319294 0)
(0.0151732 0.00578552 0)
(0.0145496 0.00841877 0)
(0.0138347 0.011405 0)
(0.012952 0.014934 0)
(0.0118192 0.0190978 0)
(0.0103791 0.0239236 0)
(0.00861793 0.0293695 0)
(0.00658764 0.0351888 0)
(0.00444064 0.040558 0)
(0.00245094 0.0435771 0)
(0.000956054 0.0413049 0)
(0.000172895 0.0311664 0)
(-2.31054e-05 0.0129291 0)
(7.79288e-05 0.0045045 0)
(0.000786732 0.0130765 0)
(0.00207012 0.0201941 0)
(0.00368359 0.0239489 0)
(0.00526421 0.023339 0)
(0.00657565 0.0185398 0)
(0.00761707 0.010239 0)
(0.00875491 -0.00107382 0)
(0.00978533 -0.0141454 0)
(0.0106113 -0.0255439 0)
(0.0108572 -0.03224 0)
(0.010485 -0.0331317 0)
(0.00988296 -0.0293084 0)
(0.00949146 -0.0229778 0)
(0.00953849 -0.0161533 0)
(0.0100673 -0.00966001 0)
(0.010783 -0.00404132 0)
(0.0110763 0.000260066 0)
(0.0107999 0.00349683 0)
(0.0104146 0.00623828 0)
(0.0100411 0.0090183 0)
(0.0096173 0.012243 0)
(0.00903287 0.0161851 0)
(0.00818975 0.0209804 0)
(0.00703188 0.0266587 0)
(0.00556121 0.033114 0)
(0.00386708 0.0398865 0)
(0.00216824 0.0457084 0)
(0.000801792 0.0481509 0)
(3.38601e-05 0.0441908 0)
(-0.000154345 0.0321418 0)
(-4.74519e-05 0.0129018 0)
(3.92519e-05 0.0028101 0)
(0.000502996 0.00865113 0)
(0.00147633 0.0141267 0)
(0.00288596 0.0176451 0)
(0.00449754 0.017833 0)
(0.00612351 0.0141511 0)
(0.00777495 0.00668507 0)
(0.00954452 -0.00434883 0)
(0.0110899 -0.0163934 0)
(0.011847 -0.0262431 0)
(0.0114264 -0.0316085 0)
(0.00989633 -0.0317844 0)
(0.00789197 -0.0279525 0)
(0.00612815 -0.0220758 0)
(0.00507666 -0.0158496 0)
(0.00482069 -0.00983025 0)
(0.00520014 -0.00422041 0)
(0.00573092 0.000421497 0)
(0.00572184 0.00375079 0)
(0.00569078 0.00648588 0)
(0.00568975 0.0093171 0)
(0.00558224 0.0127298 0)
(0.00521248 0.0170854 0)
(0.00446763 0.02257 0)
(0.00335938 0.0291999 0)
(0.00201501 0.0366997 0)
(0.0006427 0.0441898 0)
(-0.000415727 0.0497853 0)
(-0.000885564 0.0505497 0)
(-0.000824318 0.0445574 0)
(-0.00044774 0.0312598 0)
(-7.18174e-05 0.01209 0)
(1.27863e-05 0.00177364 0)
(0.000246465 0.00555242 0)
(0.000821972 0.00925455 0)
(0.00179932 0.0117811 0)
(0.00312881 0.0117919 0)
(0.00476148 0.00828585 0)
(0.00669937 0.000832902 0)
(0.00867648 -0.00937419 0)
(0.0101256 -0.0191919 0)
(0.010382 -0.0263154 0)
(0.00916662 -0.0295015 0)
(0.00661044 -0.02857 0)
(0.00360285 -0.0248737 0)
(0.000963927 -0.0199306 0)
(-0.000750197 -0.0147579 0)
(-0.00146868 -0.0097155 0)
(-0.00131321 -0.00462026 0)
(-0.00049112 -5.44448e-05 0)
(0.000321368 0.00330632 0)
(0.00065491 0.00595954 0)
(0.000827229 0.00885643 0)
(0.000634022 0.0126693 0)
(3.33362e-05 0.0179851 0)
(-0.000908308 0.0247536 0)
(-0.00195245 0.0324731 0)
(-0.00285222 0.0403636 0)
(-0.00336017 0.047089 0)
(-0.0032904 0.0507558 0)
(-0.00265791 0.049262 0)
(-0.00169377 0.0415118 0)
(-0.000737204 0.0278882 0)
(-9.42906e-05 0.0102912 0)
(4.53497e-06 0.00125352 0)
(0.000104496 0.00376523 0)
(0.000390556 0.00599895 0)
(0.000965198 0.00712583 0)
(0.00191383 0.0060145 0)
(0.00329227 0.00168752 0)
(0.00481702 -0.00584251 0)
(0.00615904 -0.0139147 0)
(0.00662393 -0.0205909 0)
(0.0057375 -0.0244224 0)
(0.00342759 -0.0252218 0)
(-0.000134453 -0.0233082 0)
(-0.00362903 -0.0202473 0)
(-0.00644396 -0.0169377 0)
(-0.00840753 -0.0133602 0)
(-0.0094447 -0.00945183 0)
(-0.00951817 -0.00528588 0)
(-0.00882135 -0.0013642 0)
(-0.00814292 0.00213428 0)
(-0.00811978 0.00545009 0)
(-0.00831319 0.00926448 0)
(-0.00873312 0.0141412 0)
(-0.00918894 0.0202294 0)
(-0.00948444 0.0272279 0)
(-0.00943801 0.0344641 0)
(-0.0089124 0.0409461 0)
(-0.0078376 0.045366 0)
(-0.00625754 0.0462547 0)
(-0.00436702 0.0424185 0)
(-0.00248292 0.03369 0)
(-0.000978057 0.0212609 0)
(-0.000109756 0.00729245 0)
(-3.61924e-06 0.00108669 0)
(-2.00618e-05 0.00306535 0)
(2.929e-06 0.00445869 0)
(0.000160838 0.00446563 0)
(0.000573956 0.00217844 0)
(0.00118419 -0.00275848 0)
(0.00165648 -0.0089325 0)
(0.00147458 -0.0144999 0)
(0.000106995 -0.0180363 0)
(-0.0026042 -0.0188318 0)
(-0.00614345 -0.0180993 0)
(-0.00990644 -0.0168619 0)
(-0.0134181 -0.0154115 0)
(-0.0164651 -0.0136139 0)
(-0.0189048 -0.0113285 0)
(-0.0206237 -0.00846927 0)
(-0.021581 -0.00492969 0)
(-0.0219423 -0.00107261 0)
(-0.0221246 0.00260567 0)
(-0.0221638 0.00626823 0)
(-0.0220133 0.0102974 0)
(-0.0215241 0.0149814 0)
(-0.0205584 0.020297 0)
(-0.019041 0.0258871 0)
(-0.0169653 0.031091 0)
(-0.0143956 0.0350068 0)
(-0.011465 0.0365955 0)
(-0.0083751 0.034933 0)
(-0.00539345 0.0296474 0)
(-0.00283606 0.0214193 0)
(-0.0010238 0.0120283 0)
(-9.77378e-05 0.00352266 0)
(-2.17483e-05 0.00142738 0)
(-0.000220351 0.00379169 0)
(-0.00056857 0.00511406 0)
(-0.00100572 0.00459481 0)
(-0.00149554 0.00178535 0)
(-0.00216032 -0.00273662 0)
(-0.0033674 -0.00700387 0)
(-0.00544595 -0.00967466 0)
(-0.0084115 -0.0107368 0)
(-0.0119892 -0.0109483 0)
(-0.0158279 -0.0109382 0)
(-0.0196927 -0.0108426 0)
(-0.0234386 -0.010548 0)
(-0.0269486 -0.00987298 0)
(-0.0300984 -0.00863894 0)
(-0.0327408 -0.00668951 0)
(-0.0347394 -0.00388714 0)
(-0.0359302 -0.000600294 0)
(-0.0363085 0.00261636 0)
(-0.0359834 0.00570034 0)
(-0.0349623 0.00883678 0)
(-0.033069 0.0121469 0)
(-0.030241 0.0155823 0)
(-0.0265364 0.0188742 0)
(-0.0221382 0.0215371 0)
(-0.0173522 0.0229289 0)
(-0.0125713 0.0223743 0)
(-0.00819909 0.0194328 0)
(-0.00459576 0.0143184 0)
(-0.00202883 0.00826253 0)
(-0.000576553 0.00315198 0)
(-2.79809e-05 0.000298063 0)
(-4.65714e-05 0.00250134 0)
(-0.000424509 0.00641423 0)
(-0.00113393 0.00869287 0)
(-0.00216282 0.0087048 0)
(-0.00353271 0.00652554 0)
(-0.00541618 0.00315891 0)
(-0.00786169 -0.000156721 0)
(-0.010869 -0.0024212 0)
(-0.0142711 -0.00364725 0)
(-0.0178672 -0.00433848 0)
(-0.0215674 -0.00495044 0)
(-0.0253486 -0.00553945 0)
(-0.0291856 -0.00596658 0)
(-0.0330253 -0.00603311 0)
(-0.0367748 -0.0055312 0)
(-0.0402541 -0.00426916 0)
(-0.0432014 -0.00213505 0)
(-0.0450454 0.000453324 0)
(-0.0455744 0.00283573 0)
(-0.0451635 0.0048339 0)
(-0.0435669 0.00640621 0)
(-0.0406024 0.00755798 0)
(-0.0362389 0.00826936 0)
(-0.0306674 0.00842207 0)
(-0.0243282 0.0078189 0)
(-0.0177911 0.00665529 0)
(-0.0116605 0.00514104 0)
(-0.00649913 0.00350697 0)
(-0.00276198 0.00202917 0)
(-0.000671101 0.000904145 0)
(4.88204e-05 0.00020646 0)
(6.04189e-05 -5.53915e-05 0)
(-3.59365e-05 0.0036781 0)
(-0.000385426 0.00933167 0)
(-0.00108949 0.0128625 0)
(-0.00218099 0.0137611 0)
(-0.00366026 0.0123129 0)
(-0.00555945 0.00963513 0)
(-0.00788725 0.0069923 0)
(-0.0105874 0.00497416 0)
(-0.0135648 0.00341103 0)
(-0.0167677 0.00192642 0)
(-0.0201786 0.000493061 0)
(-0.0237741 -0.000840891 0)
(-0.0274707 -0.00193536 0)
(-0.031156 -0.00257713 0)
(-0.0349501 -0.00263802 0)
(-0.0386838 -0.00199078 0)
(-0.0420018 -0.000560611 0)
(-0.0442886 0.00117838 0)
(-0.0454679 0.00242292 0)
(-0.0454829 0.00281878 0)
(-0.0441675 0.00211379 0)
(-0.041393 0.000209464 0)
(-0.0373015 -0.00279297 0)
(-0.0322662 -0.00638669 0)
(-0.0265478 -0.00981602 0)
(-0.0205423 -0.012549 0)
(-0.0146777 -0.0138515 0)
(-0.00936565 -0.0129929 0)
(-0.00499831 -0.0097477 0)
(-0.00194938 -0.00506677 0)
(-0.000399345 -0.00113332 0)
(1.70703e-05 0.000416168 0)
(-1.71595e-05 0.00442827 0)
(-0.000240988 0.0113377 0)
(-0.000756767 0.0159397 0)
(-0.00163975 0.0176695 0)
(-0.00289853 0.0167515 0)
(-0.00448493 0.0142478 0)
(-0.00628306 0.0114276 0)
(-0.00815425 0.00903266 0)
(-0.0100211 0.00715463 0)
(-0.011901 0.00558997 0)
(-0.013868 0.00415969 0)
(-0.0160273 0.0027984 0)
(-0.0185442 0.00155925 0)
(-0.0216399 0.000573101 0)
(-0.0249971 0.000161771 0)
(-0.0284553 0.000470257 0)
(-0.0318639 0.00151149 0)
(-0.0346241 0.00274806 0)
(-0.0361435 0.00336218 0)
(-0.0365612 0.00285663 0)
(-0.0359369 0.000970848 0)
(-0.0342963 -0.00231935 0)
(-0.0321582 -0.00676521 0)
(-0.0293858 -0.0120535 0)
(-0.026033 -0.0176184 0)
(-0.0221248 -0.0226232 0)
(-0.0177546 -0.0259744 0)
(-0.0131005 -0.0264962 0)
(-0.00846267 -0.0232869 0)
(-0.00433322 -0.0164226 0)
(-0.00140776 -0.00799811 0)
(-9.08761e-05 -0.00155631 0)
(2.25792e-06 0.00474617 0)
(-7.37981e-05 0.0123608 0)
(-0.000340053 0.0177676 0)
(-0.000913121 0.0202647 0)
(-0.00184876 0.0198706 0)
(-0.00309732 0.0175026 0)
(-0.00450785 0.0144477 0)
(-0.00590565 0.0116112 0)
(-0.00718879 0.00927359 0)
(-0.00835981 0.00734547 0)
(-0.00949305 0.00569047 0)
(-0.0106927 0.00426608 0)
(-0.012076 0.00311922 0)
(-0.0137611 0.00231891 0)
(-0.0158004 0.00193746 0)
(-0.01818 0.00214241 0)
(-0.0206639 0.0029667 0)
(-0.022601 0.00383699 0)
(-0.0236484 0.00393806 0)
(-0.0240282 0.00280123 0)
(-0.0239582 0.000213185 0)
(-0.0236475 -0.00364284 0)
(-0.0232101 -0.00869163 0)
(-0.0225499 -0.0149077 0)
(-0.0215013 -0.021862 0)
(-0.0198318 -0.0287882 0)
(-0.0173536 -0.0345199 0)
(-0.0140153 -0.0375505 0)
(-0.0099819 -0.036243 0)
(-0.00572663 -0.0293504 0)
(-0.00213847 -0.0175349 0)
(-0.000178029 -0.00495504 0)
(1.60832e-05 0.00473917 0)
(6.74369e-05 0.0125826 0)
(4.35063e-05 0.0184949 0)
(-0.000190619 0.0216682 0)
(-0.000744767 0.021826 0)
(-0.00161047 0.0196654 0)
(-0.00263996 0.0164453 0)
(-0.00364005 0.013229 0)
(-0.00448893 0.0104944 0)
(-0.0051731 0.00827815 0)
(-0.00576165 0.00647255 0)
(-0.00635586 0.00500787 0)
(-0.00704761 0.00388376 0)
(-0.00789722 0.00312922 0)
(-0.00891403 0.00279724 0)
(-0.0100234 0.00299474 0)
(-0.0110388 0.00369098 0)
(-0.0115966 0.00434316 0)
(-0.0115955 0.00426689 0)
(-0.0113317 0.00310274 0)
(-0.0111259 0.000642849 0)
(-0.0116404 -0.00304413 0)
(-0.0123274 -0.00801985 0)
(-0.0132577 -0.0144004 0)
(-0.014169 -0.0219985 0)
(-0.0146675 -0.0302897 0)
(-0.0143358 -0.0382206 0)
(-0.0128576 -0.044138 0)
(-0.0101467 -0.0458501 0)
(-0.00649342 -0.0407889 0)
(-0.00277122 -0.027508 0)
(-0.000287008 -0.00905338 0)
(2.29504e-05 0.00455109 0)
(0.000154337 0.0123223 0)
(0.000306957 0.0184599 0)
(0.000368925 0.0220815 0)
(0.000223478 0.0227586 0)
(-0.000170317 0.0208944 0)
(-0.00071784 0.0176164 0)
(-0.00124733 0.0141324 0)
(-0.00164167 0.0110964 0)
(-0.00188279 0.0086676 0)
(-0.00203417 0.00676758 0)
(-0.00219099 0.00529239 0)
(-0.00242774 0.00418869 0)
(-0.00276093 0.00344628 0)
(-0.00312553 0.00309499 0)
(-0.00333679 0.00320366 0)
(-0.00316076 0.00372254 0)
(-0.00248948 0.00418141 0)
(-0.00148435 0.00400182 0)
(-0.000577812 0.00290382 0)
(6.16609e-05 0.000859532 0)
(-0.000467067 -0.00217561 0)
(-0.00159136 -0.00656635 0)
(-0.00331899 -0.0124307 0)
(-0.00545053 -0.0198129 0)
(-0.00763509 -0.028573 0)
(-0.00935914 -0.0379693 0)
(-0.0100116 -0.0464254 0)
(-0.00914058 -0.0515278 0)
(-0.00668307 -0.049607 0)
(-0.00332155 -0.0368818 0)
(-0.000420374 -0.0136385 0)
(1.59733e-05 0.00431991 0)
(0.000143791 0.0118688 0)
(0.000365576 0.0180187 0)
(0.000632852 0.0218355 0)
(0.000868917 0.0227935 0)
(0.00102709 0.0211672 0)
(0.00112736 0.0179704 0)
(0.00123807 0.014395 0)
(0.00141632 0.0112076 0)
(0.00166568 0.00867224 0)
(0.00194036 0.00674707 0)
(0.00217632 0.0053042 0)
(0.00233195 0.00424244 0)
(0.00242484 0.00351051 0)
(0.00255786 0.00310799 0)
(0.00298294 0.00307485 0)
(0.0039936 0.00336343 0)
(0.00551864 0.0036001 0)
(0.00715727 0.00333336 0)
(0.00841894 0.00233755 0)
(0.00907899 0.000667551 0)
(0.00882098 -0.00178598 0)
(0.00778984 -0.00534417 0)
(0.0059896 -0.0102045 0)
(0.00350974 -0.016559 0)
(0.000421746 -0.0248336 0)
(-0.00292531 -0.0347602 0)
(-0.00568398 -0.0449305 0)
(-0.00700762 -0.0532053 0)
(-0.00628435 -0.0551851 0)
(-0.00380062 -0.044858 0)
(-0.000604854 -0.0185458 0)
(-1.82719e-05 0.0042068 0)
(-5.3874e-05 0.0115401 0)
(7.7322e-05 0.0175184 0)
(0.000462111 0.0212177 0)
(0.00108523 0.0221474 0)
(0.00188778 0.0205708 0)
(0.00279783 0.0174642 0)
(0.00373347 0.0139663 0)
(0.00463666 0.0108319 0)
(0.00547915 0.00834363 0)
(0.00624857 0.00647767 0)
(0.00693936 0.00510241 0)
(0.00756191 0.00409534 0)
(0.00816551 0.0033808 0)
(0.00886098 0.002934 0)
(0.00989456 0.00276305 0)
(0.0115062 0.00283296 0)
(0.0135263 0.00289875 0)
(0.0155113 0.00263416 0)
(0.0169885 0.00185157 0)
(0.0177172 0.000543768 0)
(0.0175989 -0.0014619 0)
(0.016633 -0.00442183 0)
(0.0147989 -0.00852196 0)
(0.0121362 -0.0139384 0)
(0.00869435 -0.0208857 0)
(0.00458262 -0.0295682 0)
(8.98009e-05 -0.0402841 0)
(-0.00359795 -0.0510848 0)
(-0.00513734 -0.0572316 0)
(-0.00413896 -0.0508579 0)
(-0.000866621 -0.0236668 0)
(-0.000113935 0.00447741 0)
(-0.000579945 0.0117506 0)
(-0.00072769 0.0172036 0)
(-0.000282056 0.0203461 0)
(0.000835712 0.0209101 0)
(0.00245436 0.0191882 0)
(0.00435266 0.0161766 0)
(0.00627926 0.0128954 0)
(0.00806272 0.00998416 0)
(0.0096549 0.00767676 0)
(0.0110859 0.00594777 0)
(0.0124119 0.00467357 0)
(0.0136904 0.00373371 0)
(0.0149879 0.003048 0)
(0.0163987 0.00258118 0)
(0.0181233 0.00232147 0)
(0.0202704 0.00224709 0)
(0.0226112 0.00220891 0)
(0.0247874 0.00197328 0)
(0.0264068 0.00138448 0)
(0.0272551 0.000380859 0)
(0.0272709 -0.00119059 0)
(0.0263454 -0.00352767 0)
(0.0244103 -0.00680968 0)
(0.0214344 -0.0112344 0)
(0.0174529 -0.0170438 0)
(0.0125924 -0.024498 0)
(0.00707481 -0.0339401 0)
(0.00138561 -0.045408 0)
(-0.00288157 -0.055544 0)
(-0.00411551 -0.0543608 0)
(-0.00119904 -0.0288256 0)
(-0.00034383 0.00550205 0)
(-0.00166108 0.0128371 0)
(-0.00218251 0.0172195 0)
(-0.00155717 0.019193 0)
(0.000315598 0.0190252 0)
(0.00305898 0.0170287 0)
(0.00617152 0.0141686 0)
(0.00928026 0.0112357 0)
(0.0121482 0.00868019 0)
(0.0147315 0.00665396 0)
(0.0170941 0.00512411 0)
(0.0193255 0.00398623 0)
(0.0214993 0.0031386 0)
(0.0236737 0.0025103 0)
(0.0259117 0.00206496 0)
(0.0283604 0.00178138 0)
(0.0309886 0.00164434 0)
(0.03355 0.00156073 0)
(0.0358156 0.00136455 0)
(0.0374962 0.000934704 0)
(0.0384236 0.000191133 0)
(0.0384952 -0.000979351 0)
(0.0375356 -0.00271583 0)
(0.0354409 -0.00517165 0)
(0.0321254 -0.00853147 0)
(0.0275691 -0.0130447 0)
(0.0218483 -0.019062 0)
(0.0151622 -0.027113 0)
(0.00791945 -0.0377273 0)
(0.00110763 -0.0499262 0)
(-0.00329037 -0.0548331 0)
(-0.00151044 -0.0337829 0)
(-0.000806329 0.00792885 0)
(-0.00342218 0.0149264 0)
(-0.00403546 0.0172618 0)
(-0.00269887 0.0174661 0)
(0.000520134 0.0162907 0)
(0.00482313 0.0140421 0)
(0.00945204 0.0114679 0)
(0.0140099 0.00900688 0)
(0.0182464 0.00690502 0)
(0.022119 0.00523707 0)
(0.0256865 0.00396888 0)
(0.0290268 0.00302161 0)
(0.0321975 0.0023176 0)
(0.0352379 0.00179903 0)
(0.0381899 0.00143108 0)
(0.0411691 0.00118917 0)
(0.0440634 0.00105843 0)
(0.0466643 0.000976041 0)
(0.0488644 0.000829734 0)
(0.0504636 0.000534097 0)
(0.0513501 2.10761e-05 0)
(0.0513191 -0.000777082 0)
(0.0502245 -0.0019528 0)
(0.0479416 -0.0036202 0)
(0.0443474 -0.00592524 0)
(0.0393547 -0.00909119 0)
(0.0329367 -0.0134916 0)
(0.0251707 -0.01977 0)
(0.0163557 -0.0288687 0)
(0.00727628 -0.0411731 0)
(-0.00087745 -0.0515523 0)
(-0.00152293 -0.0380375 0)
(-0.00162566 0.0127652 0)
(-0.0052413 0.017415 0)
(-0.00449611 0.0163748 0)
(-0.00100979 0.0145037 0)
(0.00457073 0.0124018 0)
(0.010804 0.0102054 0)
(0.0172384 0.00809891 0)
(0.0234492 0.00622404 0)
(0.0291888 0.00466587 0)
(0.0343859 0.00344344 0)
(0.0390633 0.00252437 0)
(0.043275 0.00185095 0)
(0.0470753 0.00136475 0)
(0.0505165 0.00101907 0)
(0.0536619 0.00078193 0)
(0.056637 0.000630255 0)
(0.0593438 0.000548779 0)
(0.0616537 0.000495589 0)
(0.063535 0.000404974 0)
(0.0648443 0.000225998 0)
(0.0654896 -7.84132e-05 0)
(0.0652262 -0.000543346 0)
(0.0639629 -0.00122491 0)
(0.0615702 -0.00219294 0)
(0.0579106 -0.00354132 0)
(0.0528474 -0.00543272 0)
(0.0462354 -0.00818413 0)
(0.0379327 -0.0124244 0)
(0.0279124 -0.0192903 0)
(0.0165099 -0.0301941 0)
(0.00435849 -0.0435092 0)
(-0.000181702 -0.0395996 0)
(-0.00131684 0.018043 0)
(-0.00313822 0.0180257 0)
(0.00353087 0.0128597 0)
(0.0114012 0.00984844 0)
(0.0196227 0.00764733 0)
(0.0277584 0.00584677 0)
(0.0355782 0.00436917 0)
(0.0427716 0.00317736 0)
(0.0491406 0.00224842 0)
(0.0546314 0.00155814 0)
(0.0592913 0.00106911 0)
(0.0632203 0.00073492 0)
(0.0665345 0.000511611 0)
(0.0693502 0.000364848 0)
(0.0717828 0.000271401 0)
(0.0739784 0.000216469 0)
(0.0759118 0.000189641 0)
(0.0775266 0.000169534 0)
(0.0787987 0.000128691 0)
(0.0796117 4.58128e-05 0)
(0.0798568 -8.8595e-05 0)
(0.0793788 -0.000290546 0)
(0.0780949 -0.000586246 0)
(0.0758918 -0.00100656 0)
(0.0726457 -0.00159507 0)
(0.0682101 -0.00243866 0)
(0.0623652 -0.00373525 0)
(0.0547434 -0.00593973 0)
(0.0447637 -0.0100223 0)
(0.0316849 -0.0176826 0)
(0.0155107 -0.0297963 0)
(0.00631239 -0.0334543 0)
(0.0207232 0.0112405 0)
(0.0269606 0.00916386 0)
(0.0400003 0.00536402 0)
(0.0508525 0.0032966 0)
(0.0593441 0.00210028 0)
(0.0663319 0.00132738 0)
(0.0721585 0.000820825 0)
(0.0769088 0.000493215 0)
(0.0806647 0.000286331 0)
(0.0835619 0.000161383 0)
(0.0857711 9.02049e-05 0)
(0.0874633 5.1739e-05 0)
(0.0887835 3.16087e-05 0)
(0.0898432 2.12486e-05 0)
(0.0907283 1.61067e-05 0)
(0.0915213 1.43341e-05 0)
(0.0922352 1.461e-05 0)
(0.0928427 1.33083e-05 0)
(0.0932993 7.10331e-06 0)
(0.093529 -6.42613e-06 0)
(0.0934604 -2.6449e-05 0)
(0.0930395 -5.59399e-05 0)
(0.0922137 -9.9604e-05 0)
(0.0909155 -0.000161894 0)
(0.0890719 -0.000249388 0)
(0.0865843 -0.000378057 0)
(0.0832622 -0.000590762 0)
(0.0786819 -0.000999854 0)
(0.0718949 -0.00188563 0)
(0.0608933 -0.00399494 0)
(0.0432813 -0.00919691 0)
(0.0285901 -0.0145309 0)
)
;

boundaryField
{
    movingWall
    {
        type            fixedValue;
        value           uniform (0.1 0 0);
    }
    fixedWalls
    {
        type            noSlip;
    }
    floor
    {
        type            noSlip;
    }
    frontAndBack
    {
        type            empty;
    }
}


// ************************************************************************* //
