/*--------------------------------*- C++ -*----------------------------------*\
| =========                 |                                                 |
| \\      /  F ield         | OpenFOAM: The Open Source CFD Toolbox           |
|  \\    /   O peration     | Version:  2212                                  |
|   \\  /    A nd           | Website:  www.openfoam.com                      |
|    \\/     M anipulation  |                                                 |
\*---------------------------------------------------------------------------*/
FoamFile
{
    version     2.0;
    format      ascii;
    arch        "LSB;label=64;scalar=64";
    class       volScalarField;
    location    "480";
    object      Xch;
}
// * * * * * * * * * * * * * * * * * * * * * * * * * * * * * * * * * * * * * //

dimensions      [1 -3 0 0 0 0 0];

internalField   nonuniform List<scalar> 
1024
(
0.0200509
0.0200513
0.0200522
0.0200538
0.0200562
0.0200592
0.0200626
0.0200662
0.0200698
0.0200732
0.0200764
0.0200792
0.0200814
0.0200829
0.0200834
0.0200826
0.0200802
0.0200767
0.0200725
0.0200677
0.0200624
0.0200564
0.0200498
0.0200427
0.0200355
0.0200288
0.0200229
0.0200183
0.020015
0.0200128
0.0200116
0.0200111
0.0200509
0.0200514
0.0200523
0.020054
0.0200564
0.0200595
0.0200629
0.0200665
0.0200701
0.0200735
0.0200767
0.0200795
0.0200817
0.0200832
0.0200837
0.0200829
0.0200805
0.020077
0.0200728
0.0200681
0.0200628
0.0200569
0.0200503
0.0200433
0.0200361
0.0200293
0.0200234
0.0200186
0.0200152
0.020013
0.0200117
0.0200112
0.020051
0.0200515
0.0200525
0.0200543
0.0200568
0.0200599
0.0200634
0.020067
0.0200705
0.020074
0.0200773
0.0200803
0.0200826
0.020084
0.0200844
0.0200835
0.0200811
0.0200776
0.0200735
0.0200689
0.0200637
0.0200579
0.0200515
0.0200445
0.0200373
0.0200304
0.0200243
0.0200194
0.0200158
0.0200134
0.0200121
0.0200116
0.0200512
0.0200516
0.0200527
0.0200545
0.0200571
0.0200603
0.0200638
0.0200674
0.020071
0.0200747
0.0200783
0.0200816
0.0200841
0.0200855
0.0200857
0.0200846
0.020082
0.0200785
0.0200744
0.0200699
0.0200649
0.0200594
0.0200532
0.0200463
0.0200392
0.0200321
0.0200258
0.0200206
0.0200167
0.0200142
0.0200128
0.0200122
0.0200513
0.0200517
0.0200528
0.0200547
0.0200573
0.0200605
0.020064
0.0200677
0.0200715
0.0200754
0.0200796
0.0200835
0.0200863
0.0200878
0.0200877
0.0200861
0.0200832
0.0200796
0.0200755
0.0200711
0.0200663
0.020061
0.0200551
0.0200486
0.0200415
0.0200344
0.0200278
0.0200222
0.020018
0.0200153
0.0200137
0.0200131
0.0200513
0.0200517
0.0200528
0.0200547
0.0200572
0.0200604
0.0200639
0.0200677
0.0200717
0.0200761
0.020081
0.0200859
0.0200893
0.0200908
0.0200903
0.0200881
0.0200847
0.0200807
0.0200765
0.0200722
0.0200676
0.0200626
0.0200571
0.0200509
0.020044
0.0200368
0.02003
0.0200241
0.0200196
0.0200166
0.0200149
0.0200143
0.0200511
0.0200516
0.0200526
0.0200543
0.0200568
0.0200599
0.0200633
0.0200672
0.0200715
0.0200765
0.0200824
0.0200884
0.0200927
0.0200944
0.0200933
0.0200902
0.020086
0.0200815
0.0200772
0.0200729
0.0200685
0.0200639
0.0200587
0.0200528
0.0200462
0.0200392
0.0200322
0.020026
0.0200213
0.0200181
0.0200163
0.0200156
0.0200507
0.0200511
0.0200521
0.0200537
0.0200559
0.0200588
0.0200621
0.020066
0.0200706
0.0200763
0.0200834
0.0200909
0.0200963
0.020098
0.0200962
0.020092
0.0200867
0.0200817
0.0200771
0.0200729
0.0200686
0.0200643
0.0200595
0.0200541
0.0200478
0.0200409
0.020034
0.0200277
0.0200228
0.0200195
0.0200176
0.0200169
0.02005
0.0200504
0.0200512
0.0200526
0.0200546
0.0200571
0.0200602
0.020064
0.0200689
0.0200755
0.0200842
0.0200933
0.0200997
0.0201012
0.0200983
0.0200925
0.0200861
0.0200804
0.0200757
0.0200715
0.0200675
0.0200635
0.0200592
0.0200543
0.0200484
0.0200418
0.0200351
0.0200289
0.020024
0.0200207
0.0200189
0.0200181
0.0200487
0.0200491
0.0200499
0.0200511
0.0200527
0.0200549
0.0200577
0.0200614
0.0200666
0.0200744
0.0200849
0.0200958
0.0201029
0.0201035
0.0200987
0.0200908
0.020083
0.0200768
0.0200721
0.0200681
0.0200646
0.0200612
0.0200574
0.020053
0.0200477
0.0200416
0.0200352
0.0200294
0.0200247
0.0200215
0.0200198
0.0200191
0.0200467
0.0200471
0.0200478
0.0200488
0.0200502
0.020052
0.0200545
0.0200581
0.0200641
0.0200735
0.0200863
0.020099
0.0201061
0.0201047
0.0200967
0.0200858
0.0200763
0.0200698
0.0200654
0.0200621
0.0200594
0.0200567
0.0200537
0.0200501
0.0200454
0.02004
0.0200342
0.020029
0.0200247
0.0200218
0.0200202
0.0200195
0.0200439
0.0200442
0.0200449
0.0200458
0.020047
0.0200486
0.020051
0.0200551
0.0200624
0.0200742
0.0200896
0.0201035
0.0201094
0.0201046
0.0200917
0.0200766
0.020065
0.0200585
0.020055
0.0200528
0.0200513
0.0200498
0.0200479
0.0200453
0.0200416
0.020037
0.0200322
0.0200276
0.020024
0.0200215
0.02002
0.0200194
0.0200405
0.0200408
0.0200413
0.0200422
0.0200435
0.0200453
0.0200484
0.0200539
0.0200636
0.0200784
0.0200961
0.02011
0.0201129
0.0201026
0.0200835
0.0200631
0.020049
0.0200427
0.0200405
0.02004
0.0200401
0.0200402
0.0200399
0.0200385
0.0200361
0.0200327
0.0200289
0.0200253
0.0200223
0.0200202
0.0200189
0.0200183
0.0200383
0.0200385
0.020039
0.02004
0.0200417
0.0200445
0.0200494
0.0200577
0.020071
0.0200888
0.0201073
0.0201186
0.0201159
0.0200985
0.0200724
0.0200464
0.0200296
0.0200235
0.0200228
0.0200241
0.0200262
0.0200282
0.0200297
0.0200301
0.0200293
0.0200273
0.0200248
0.0200222
0.0200199
0.0200181
0.0200169
0.0200164
0.0200417
0.0200419
0.0200426
0.020044
0.0200466
0.0200513
0.020059
0.0200711
0.0200876
0.0201066
0.0201227
0.020128
0.0201177
0.020093
0.0200609
0.0200302
0.0200105
0.0200039
0.0200042
0.0200071
0.0200111
0.020015
0.020018
0.0200198
0.0200203
0.0200196
0.0200182
0.0200166
0.0200151
0.0200137
0.0200127
0.0200122
0.0200547
0.020055
0.0200561
0.0200584
0.0200626
0.0200696
0.0200803
0.020095
0.0201125
0.0201293
0.0201395
0.0201371
0.0201198
0.0200906
0.0200558
0.0200226
0.0199998
0.0199909
0.0199905
0.0199941
0.0199996
0.0200052
0.02001
0.0200132
0.0200148
0.0200148
0.0200138
0.0200121
0.0200103
0.0200087
0.0200075
0.0200069
0.020074
0.0200746
0.0200763
0.0200796
0.0200853
0.0200942
0.0201066
0.020122
0.0201381
0.0201509
0.0201555
0.0201486
0.0201302
0.020103
0.0200707
0.0200377
0.0200112
0.0199963
0.0199905
0.0199894
0.0199907
0.0199928
0.0199947
0.0199959
0.0199963
0.0199962
0.0199958
0.0199958
0.0199961
0.0199967
0.0199973
0.0199977
0.0200906
0.0200914
0.0200935
0.0200976
0.0201043
0.0201143
0.0201275
0.0201428
0.0201577
0.0201687
0.0201729
0.0201689
0.0201573
0.0201391
0.0201155
0.0200882
0.0200619
0.0200422
0.0200298
0.0200216
0.0200164
0.0200132
0.0200118
0.0200121
0.0200142
0.0200181
0.0200235
0.02003
0.0200366
0.0200424
0.0200464
0.0200484
0.0201004
0.0201013
0.0201037
0.0201081
0.0201152
0.0201255
0.0201388
0.0201538
0.0201686
0.0201809
0.020189
0.0201923
0.0201912
0.0201859
0.0201767
0.0201642
0.0201511
0.0201422
0.0201392
0.0201402
0.0201443
0.0201503
0.0201575
0.020165
0.0201723
0.0201789
0.0201843
0.0201885
0.0201913
0.020193
0.020194
0.0201944
0.0201043
0.0201052
0.0201075
0.0201116
0.0201182
0.0201276
0.0201397
0.0201539
0.0201687
0.0201828
0.020195
0.0202052
0.0202135
0.0202201
0.0202252
0.0202296
0.0202351
0.0202445
0.0202585
0.0202756
0.0202946
0.0203135
0.0203306
0.0203449
0.0203552
0.0203612
0.0203627
0.0203603
0.0203552
0.0203495
0.020345
0.0203429
0.0201049
0.0201057
0.0201077
0.0201113
0.0201171
0.0201252
0.0201357
0.0201481
0.0201619
0.0201761
0.0201903
0.0202044
0.0202185
0.0202328
0.0202473
0.0202627
0.0202802
0.0203005
0.0203231
0.0203465
0.0203693
0.0203898
0.0204071
0.0204209
0.0204309
0.0204371
0.0204397
0.0204389
0.0204355
0.0204309
0.0204268
0.0204245
0.0201038
0.0201045
0.0201063
0.0201094
0.0201143
0.0201212
0.0201301
0.0201411
0.0201537
0.0201676
0.0201825
0.0201986
0.0202158
0.0202341
0.0202534
0.0202739
0.0202959
0.0203192
0.0203426
0.0203651
0.0203852
0.0204025
0.0204171
0.0204294
0.0204396
0.0204478
0.0204537
0.0204571
0.0204583
0.0204576
0.0204561
0.0204549
0.0201026
0.0201032
0.0201046
0.0201072
0.0201113
0.0201172
0.020125
0.0201349
0.0201467
0.0201606
0.0201763
0.0201939
0.0202132
0.0202338
0.0202554
0.0202778
0.0203004
0.0203228
0.020344
0.0203636
0.020381
0.0203962
0.0204099
0.0204227
0.0204347
0.0204454
0.0204543
0.0204607
0.0204645
0.0204661
0.0204662
0.0204658
0.0201033
0.0201035
0.0201044
0.0201063
0.0201096
0.0201147
0.0201219
0.0201313
0.0201433
0.0201579
0.0201749
0.0201942
0.0202153
0.0202376
0.0202604
0.0202832
0.020305
0.0203252
0.0203436
0.0203605
0.0203757
0.0203896
0.0204029
0.0204162
0.0204295
0.0204422
0.0204534
0.0204621
0.0204679
0.0204709
0.0204719
0.0204719
0.0201084
0.0201081
0.020108
0.0201088
0.0201113
0.0201158
0.020123
0.0201331
0.0201463
0.0201626
0.0201815
0.0202026
0.0202251
0.0202484
0.0202716
0.0202941
0.0203145
0.0203324
0.0203482
0.0203627
0.020376
0.0203886
0.0204011
0.020414
0.0204273
0.0204407
0.0204531
0.0204633
0.0204707
0.0204749
0.0204765
0.0204767
0.0201208
0.0201197
0.0201183
0.0201179
0.0201195
0.020124
0.020132
0.0201437
0.020159
0.0201775
0.0201983
0.0202208
0.0202441
0.0202675
0.0202902
0.0203116
0.0203304
0.020346
0.0203594
0.0203716
0.020383
0.0203941
0.0204052
0.0204169
0.0204292
0.0204419
0.0204542
0.020465
0.0204732
0.0204784
0.0204806
0.0204811
0.0201434
0.0201412
0.0201385
0.0201371
0.0201384
0.0201437
0.0201533
0.0201672
0.0201846
0.0202048
0.0202267
0.0202494
0.0202722
0.0202945
0.0203157
0.0203353
0.020352
0.0203654
0.0203765
0.0203865
0.0203959
0.0204051
0.0204145
0.0204243
0.0204349
0.020446
0.0204571
0.0204675
0.0204759
0.0204816
0.0204844
0.020485
0.0201777
0.0201747
0.0201714
0.0201701
0.0201724
0.0201793
0.0201907
0.0202062
0.0202246
0.0202449
0.0202661
0.0202874
0.0203082
0.020328
0.0203466
0.0203635
0.0203777
0.0203888
0.0203977
0.0204056
0.0204129
0.0204202
0.0204276
0.0204353
0.0204437
0.0204527
0.020462
0.0204711
0.0204789
0.0204846
0.0204877
0.0204885
0.0202244
0.0202214
0.0202193
0.02022
0.0202244
0.0202329
0.0202451
0.0202603
0.0202776
0.0202959
0.0203144
0.0203325
0.0203498
0.020366
0.020381
0.0203945
0.0204058
0.0204144
0.0204211
0.020427
0.0204324
0.0204377
0.0204431
0.0204488
0.0204549
0.0204615
0.0204686
0.0204758
0.0204825
0.0204876
0.0204907
0.0204917
0.0202843
0.0202826
0.0202839
0.0202876
0.0202938
0.0203024
0.0203133
0.0203259
0.0203397
0.0203538
0.0203679
0.0203814
0.0203941
0.0204059
0.0204167
0.0204264
0.0204344
0.0204404
0.0204451
0.020449
0.0204527
0.0204562
0.0204598
0.0204635
0.0204676
0.020472
0.0204767
0.0204817
0.0204867
0.0204908
0.0204934
0.0204944
0.0203589
0.0203602
0.0203644
0.0203693
0.0203748
0.0203812
0.0203885
0.0203967
0.0204053
0.020414
0.0204226
0.0204307
0.0204383
0.0204453
0.0204517
0.0204574
0.0204621
0.0204656
0.0204682
0.0204705
0.0204725
0.0204745
0.0204765
0.0204785
0.0204808
0.0204832
0.0204858
0.0204886
0.0204915
0.0204941
0.020496
0.0204968
0.0204504
0.0204517
0.0204541
0.0204563
0.0204585
0.0204609
0.0204634
0.0204662
0.0204691
0.020472
0.0204748
0.0204775
0.02048
0.0204823
0.0204843
0.0204862
0.0204877
0.0204888
0.0204897
0.0204904
0.0204911
0.0204917
0.0204923
0.020493
0.0204936
0.0204944
0.0204952
0.0204961
0.020497
0.0204979
0.0204986
0.0204989
)
;

boundaryField
{
    movingWall
    {
        type            fixedValue;
        value           uniform 0.0205;
    }
    fixedWalls
    {
        type            zeroGradient;
    }
    floor
    {
        type            zeroGradient;
    }
    frontAndBack
    {
        type            empty;
    }
}


// ************************************************************************* //
