/*--------------------------------*- C++ -*----------------------------------*\
| =========                 |                                                 |
| \\      /  F ield         | OpenFOAM: The Open Source CFD Toolbox           |
|  \\    /   O peration     | Version:  2212                                  |
|   \\  /    A nd           | Website:  www.openfoam.com                      |
|    \\/     M anipulation  |                                                 |
\*---------------------------------------------------------------------------*/
FoamFile
{
    version     2.0;
    format      ascii;
    arch        "LSB;label=64;scalar=64";
    class       volScalarField::Internal;
    location    "810";
    object      dGco2;
}
// * * * * * * * * * * * * * * * * * * * * * * * * * * * * * * * * * * * * * //

dimensions      [1 -3 -1 0 0 0 0];

value           nonuniform List<scalar> 
1024
(
0.000141258
0.000141318
0.000141464
0.000141728
0.000142141
0.000142728
0.000143496
0.00014443
0.000145491
0.000146629
0.000147783
0.000148884
0.000149841
0.00015052
0.000150718
0.000150223
0.000149113
0.000147749
0.000146388
0.000145089
0.000143873
0.000142739
0.000141688
0.000140731
0.000139886
0.000139174
0.000138607
0.000138184
0.00013789
0.000137705
0.000137603
0.000137561
0.000141272
0.000141333
0.000141483
0.000141755
0.000142179
0.00014278
0.000143564
0.000144513
0.000145587
0.000146736
0.0001479
0.00014901
0.000149975
0.000150657
0.000150849
0.00015034
0.000149216
0.000147842
0.000146474
0.00014517
0.000143948
0.00014281
0.000141754
0.000140791
0.000139938
0.000139216
0.000138638
0.000138206
0.000137906
0.000137717
0.000137612
0.00013757
0.000141305
0.000141369
0.000141527
0.000141813
0.00014226
0.000142889
0.000143704
0.000144685
0.000145789
0.000146966
0.00014816
0.000149301
0.000150293
0.000150989
0.000151166
0.000150613
0.000149446
0.000148041
0.00014665
0.000145331
0.000144098
0.000142951
0.000141887
0.000140912
0.000140043
0.000139302
0.000138705
0.000138255
0.000137942
0.000137743
0.000137634
0.000137589
0.00014136
0.000141428
0.000141598
0.000141904
0.000142382
0.000143052
0.000143914
0.000144944
0.0001461
0.000147334
0.000148592
0.000149805
0.000150861
0.00015159
0.000151736
0.000151091
0.000149828
0.000148352
0.000146915
0.000145566
0.000144314
0.000143153
0.000142077
0.000141086
0.000140196
0.00013943
0.000138805
0.000138331
0.000137998
0.000137786
0.00013767
0.000137623
0.000141438
0.000141511
0.000141694
0.000142025
0.000142541
0.000143262
0.000144185
0.000145284
0.000146521
0.000147852
0.000149229
0.000150573
0.000151747
0.000152534
0.000152626
0.000151821
0.000150386
0.00014878
0.000147259
0.000145858
0.000144574
0.000143393
0.000142302
0.000141294
0.000140383
0.000139587
0.000138932
0.000138428
0.000138072
0.000137845
0.00013772
0.000137669
0.000141537
0.000141615
0.00014181
0.000142167
0.000142724
0.000143502
0.0001445
0.000145694
0.00014705
0.000148536
0.000150103
0.000151658
0.000153013
0.000153881
0.000153885
0.000152839
0.000151135
0.000149323
0.000147666
0.00014618
0.000144845
0.000143636
0.000142527
0.000141504
0.000140573
0.000139751
0.000139066
0.000138534
0.000138155
0.000137913
0.000137779
0.000137726
0.000141651
0.000141734
0.000141941
0.000142321
0.000142918
0.000143758
0.000144844
0.000146161
0.000147686
0.000149398
0.000151245
0.000153101
0.000154703
0.000155657
0.000155521
0.000154146
0.000152069
0.000149962
0.000148106
0.000146494
0.000145087
0.000143837
0.000142708
0.000141673
0.000140728
0.00013989
0.000139184
0.000138631
0.000138235
0.000137981
0.000137841
0.000137785
0.000141776
0.000141861
0.000142077
0.000142477
0.000143112
0.000144016
0.000145205
0.000146679
0.000148431
0.000150453
0.00015268
0.000154931
0.000156829
0.000157847
0.000157497
0.000155705
0.000153153
0.000150658
0.000148536
0.000146754
0.000145246
0.000143944
0.000142792
0.000141751
0.000140806
0.000139965
0.000139255
0.000138696
0.000138294
0.000138036
0.000137893
0.000137835
0.000141903
0.000141991
0.000142214
0.000142631
0.0001433
0.000144272
0.00014558
0.00014725
0.000149295
0.000151719
0.000154431
0.000157162
0.000159378
0.000160401
0.000159741
0.000157447
0.000154332
0.00015136
0.0001489
0.000146902
0.000145266
0.000143901
0.000142727
0.00014169
0.000140761
0.000139941
0.000139249
0.000138705
0.000138313
0.00013806
0.000137919
0.000137862
0.00014203
0.00014212
0.00014235
0.000142782
0.000143488
0.000144535
0.000145986
0.000147896
0.00015031
0.000153234
0.000156535
0.000159813
0.000162335
0.000163275
0.000162202
0.000159334
0.000155586
0.000152046
0.000149164
0.000146889
0.000145096
0.000143655
0.000142465
0.000141448
0.00014056
0.000139788
0.000139141
0.000138635
0.000138271
0.000138035
0.000137902
0.000137846
0.000142158
0.000142251
0.000142489
0.000142941
0.000143691
0.000144831
0.000146457
0.000148666
0.000151535
0.000155073
0.000159065
0.000162934
0.000165715
0.000166477
0.000164923
0.000161468
0.000157057
0.000152839
0.000149401
0.000146744
0.000144729
0.000143185
0.000141978
0.000140999
0.000140178
0.000139484
0.000138913
0.000138469
0.000138149
0.000137938
0.000137817
0.000137765
0.000142292
0.00014239
0.000142642
0.000143124
0.000143936
0.000145199
0.000147051
0.000149639
0.000153075
0.000157354
0.000162141
0.000166622
0.000169598
0.000170128
0.000168142
0.000164229
0.000159232
0.000154235
0.000150011
0.000146731
0.000144317
0.000142568
0.000141295
0.000140347
0.000139611
0.000139021
0.00013855
0.000138187
0.000137923
0.000137745
0.000137639
0.000137592
0.000142445
0.000142552
0.000142827
0.000143357
0.000144262
0.000145697
0.000147852
0.000150928
0.000155071
0.000160238
0.000165915
0.000171008
0.00017415
0.00017453
0.000172394
0.000168417
0.000163137
0.000157397
0.000152135
0.000147788
0.000144509
0.000142197
0.000140637
0.000139604
0.000138908
0.000138415
0.000138049
0.000137775
0.000137578
0.000137447
0.000137372
0.00013734
0.000142628
0.000142748
0.000143059
0.000143663
0.000144704
0.000146382
0.000148942
0.000152647
0.00015766
0.000163859
0.000170504
0.000176227
0.000179624
0.000180202
0.000178554
0.000175296
0.000170473
0.000164478
0.000158253
0.000152483
0.000147633
0.000143904
0.000141284
0.000139578
0.000138538
0.000137928
0.000137586
0.000137418
0.000137365
0.000137384
0.000137431
0.000137468
0.000142866
0.000143008
0.000143373
0.000144081
0.000145309
0.000147301
0.000150365
0.000154819
0.000160829
0.000168162
0.000175835
0.000182283
0.000186237
0.000187657
0.000187439
0.000186067
0.000183119
0.00017842
0.000172554
0.000166187
0.00015994
0.000154306
0.000149596
0.000145938
0.000143398
0.000141766
0.000140907
0.00014064
0.000140756
0.000141041
0.000141322
0.000141488
0.000143076
0.000143245
0.000143672
0.000144496
0.00014592
0.000148236
0.000151815
0.000157029
0.000164035
0.00017249
0.00018121
0.00018854
0.000193437
0.000196267
0.000198123
0.00019952
0.000200048
0.000199195
0.000196904
0.000193408
0.000189049
0.000184218
0.000179291
0.000174605
0.000170455
0.000166945
0.000164229
0.000162364
0.00016128
0.000160793
0.000160667
0.000160682
0.000143136
0.000143333
0.000143815
0.000144724
0.000146271
0.000148768
0.000152611
0.000158189
0.000165666
0.000174627
0.000183849
0.000191768
0.000197443
0.000201223
0.000204148
0.000206958
0.000209821
0.00021261
0.000215005
0.000216738
0.000217622
0.000217577
0.00021661
0.000214803
0.000212306
0.000209372
0.00020627
0.000203317
0.000200826
0.000199023
0.000197965
0.000197539
0.000142841
0.000143048
0.000143539
0.000144433
0.000145915
0.000148261
0.000151833
0.000156998
0.000163923
0.000172272
0.000181038
0.000188907
0.000194923
0.000198997
0.000201717
0.00020378
0.000205765
0.000208279
0.000211427
0.000214983
0.00021861
0.000221975
0.000224801
0.000226879
0.000228082
0.00022838
0.000227863
0.000226743
0.000225349
0.000224045
0.000223114
0.000222671
0.00014228
0.000142472
0.000142922
0.000143723
0.000145021
0.000147029
0.00015004
0.000154379
0.000160246
0.00016746
0.000175302
0.000182728
0.000188819
0.000193216
0.000196114
0.000197977
0.000199386
0.000201212
0.000203817
0.000207212
0.000211193
0.000215444
0.000219615
0.000223374
0.000226476
0.000228782
0.000230266
0.000231006
0.000231169
0.000230992
0.000230722
0.000230546
0.000141733
0.00014188
0.000142232
0.000142874
0.000143921
0.000145536
0.00014794
0.000151386
0.000156076
0.000161954
0.000168571
0.000175175
0.000180999
0.00018562
0.000189043
0.000191558
0.000193522
0.00019563
0.000198266
0.000201652
0.000205804
0.000210551
0.00021557
0.000220422
0.000224695
0.000228104
0.000230544
0.000232071
0.000232859
0.000233141
0.000233157
0.000233106
0.000141625
0.00014169
0.000141877
0.000142273
0.000142995
0.000144184
0.000146005
0.000148644
0.000152266
0.000156875
0.000162203
0.000167745
0.000172958
0.000177524
0.000181461
0.000185007
0.000188228
0.000191331
0.000194539
0.000198162
0.000202379
0.000207217
0.000212524
0.000217952
0.000223049
0.000227392
0.000230706
0.000232932
0.0002342
0.000234763
0.00023491
0.000234898
0.000142403
0.000142356
0.000142309
0.000142361
0.000142655
0.000143344
0.000144577
0.000146491
0.0001492
0.000152714
0.00015687
0.000161343
0.000165805
0.000170135
0.000174495
0.000179166
0.000183915
0.000188344
0.000192434
0.000196523
0.000200886
0.000205697
0.000210966
0.000216502
0.000221945
0.000226847
0.000230816
0.00023365
0.00023538
0.000236224
0.000236497
0.000236516
0.00014442
0.000144244
0.000143912
0.000143527
0.000143268
0.000143342
0.000143923
0.000145133
0.000147037
0.000149631
0.000152805
0.000156372
0.0001602
0.000164376
0.00016922
0.000175046
0.000181296
0.000187022
0.000191992
0.000196563
0.000201077
0.0002058
0.00021086
0.000216206
0.000221608
0.000226694
0.000231042
0.00023433
0.00023646
0.000237575
0.000237979
0.000238031
0.00014789
0.000147575
0.000146925
0.000146026
0.000145097
0.000144425
0.000144253
0.000144725
0.000145886
0.000147717
0.00015015
0.000153121
0.000156666
0.000161023
0.000166562
0.00017352
0.000181018
0.000187737
0.000193339
0.000198216
0.000202757
0.000207283
0.000212001
0.000216967
0.000222065
0.000227024
0.000231467
0.000235018
0.000237458
0.000238818
0.000239355
0.000239443
0.000152905
0.000152448
0.000151464
0.000150021
0.000148363
0.000146859
0.000145859
0.000145577
0.000146077
0.000147354
0.000149389
0.000152214
0.000155963
0.000160892
0.000167267
0.000175152
0.00018343
0.000190651
0.000196495
0.0002014
0.000205777
0.000209969
0.00021422
0.000218658
0.000223262
0.000227865
0.000232157
0.000235767
0.000238396
0.000239956
0.000240622
0.000240751
0.000159478
0.00015888
0.000157603
0.000155709
0.000153439
0.000151203
0.00014946
0.000148539
0.000148575
0.000149602
0.000151641
0.000154754
0.000159059
0.000164693
0.000171731
0.000180058
0.000188485
0.000195643
0.000201306
0.000205942
0.000209958
0.000213684
0.000217372
0.000221177
0.00022515
0.000229216
0.000233152
0.000236625
0.000239302
0.000240997
0.000241777
0.00024195
0.000167578
0.000166869
0.000165458
0.000163429
0.000160968
0.000158419
0.000156285
0.000155044
0.000154914
0.000155976
0.00015826
0.000161793
0.000166588
0.000172618
0.000179783
0.00018787
0.000195776
0.000202346
0.00020746
0.000211575
0.000215065
0.000218228
0.00022129
0.000224409
0.000227671
0.000231073
0.000234483
0.00023764
0.000240213
0.000241952
0.000242818
0.000243038
0.000177193
0.000176457
0.000175231
0.000173607
0.000171617
0.000169421
0.000167446
0.000166286
0.00016623
0.000167403
0.000169834
0.000173495
0.000178293
0.000184083
0.000190674
0.000197838
0.000204663
0.000210246
0.000214544
0.000217963
0.00022082
0.000223362
0.000225777
0.000228204
0.000230734
0.000233408
0.000236174
0.000238857
0.000241173
0.000242846
0.000243751
0.000244012
0.000188429
0.000187828
0.000187216
0.000186541
0.000185578
0.000184287
0.000182943
0.000182135
0.000182208
0.000183335
0.00018556
0.000188828
0.000193
0.000197893
0.000203305
0.000209046
0.000214424
0.000218782
0.000222113
0.000224743
0.000226917
0.000228825
0.000230608
0.000232375
0.000234206
0.000236155
0.000238219
0.000240311
0.000242228
0.000243711
0.000244585
0.000244872
0.000201635
0.000201412
0.000201734
0.00020215
0.000202255
0.000201935
0.000201336
0.000200921
0.000201043
0.000201909
0.000203583
0.000206022
0.000209103
0.000212665
0.000216548
0.000220612
0.000224387
0.000227429
0.000229746
0.000231565
0.000233058
0.000234354
0.000235549
0.000236718
0.00023792
0.000239199
0.000240575
0.000242021
0.000243423
0.00024459
0.00024534
0.000245622
0.000217471
0.000217855
0.000218864
0.00021978
0.000220367
0.000220574
0.000220466
0.000220323
0.000220412
0.000220911
0.000221884
0.000223313
0.000225122
0.000227208
0.000229469
0.000231824
0.000234004
0.000235757
0.000237088
0.000238131
0.000238982
0.000239714
0.000240384
0.000241032
0.000241692
0.000242391
0.000243148
0.000243962
0.000244788
0.000245526
0.000246047
0.00024627
0.000236719
0.000237023
0.000237574
0.000238033
0.000238345
0.000238504
0.000238525
0.0002385
0.000238529
0.000238682
0.00023899
0.000239448
0.000240031
0.000240703
0.000241432
0.000242189
0.00024289
0.000243453
0.00024388
0.000244214
0.000244486
0.000244719
0.000244931
0.000245134
0.00024534
0.000245557
0.000245792
0.000246046
0.000246309
0.000246556
0.000246744
0.000246836
)
;


// ************************************************************************* //
