/*--------------------------------*- C++ -*----------------------------------*\
| =========                 |                                                 |
| \\      /  F ield         | OpenFOAM: The Open Source CFD Toolbox           |
|  \\    /   O peration     | Version:  2212                                  |
|   \\  /    A nd           | Website:  www.openfoam.com                      |
|    \\/     M anipulation  |                                                 |
\*---------------------------------------------------------------------------*/
FoamFile
{
    version     2.0;
    format      ascii;
    arch        "LSB;label=64;scalar=64";
    class       volScalarField;
    location    "810";
    object      p;
}
// * * * * * * * * * * * * * * * * * * * * * * * * * * * * * * * * * * * * * //

dimensions      [0 2 -2 0 0 0 0];

internalField   nonuniform List<scalar> 
1024
(
0
-3.0823e-06
-6.33249e-06
-7.42288e-06
-5.10004e-06
1.18469e-06
1.2269e-05
2.98078e-05
5.59949e-05
9.2556e-05
0.000138155
0.000183541
0.000210596
0.000198766
0.000128857
-1.45389e-05
-0.000200792
-0.000374072
-0.000508025
-0.000600591
-0.000660279
-0.000696851
-0.000718032
-0.00072946
-0.000735193
-0.000737993
-0.000739396
-0.000739815
-0.000738965
-0.000736702
-0.000733734
-0.000731501
-0.0928124
-0.0928157
-0.0928188
-0.0928199
-0.0928184
-0.0928135
-0.0928041
-0.0927885
-0.0927643
-0.0927299
-0.0926867
-0.0926438
-0.0926191
-0.0926327
-0.0927023
-0.092843
-0.0930267
-0.0931977
-0.0933298
-0.0934209
-0.0934793
-0.0935148
-0.0935351
-0.0935457
-0.0935506
-0.0935525
-0.093553
-0.0935527
-0.0935515
-0.0935493
-0.0935465
-0.0935441
-0.199431
-0.199435
-0.199439
-0.199441
-0.199441
-0.199439
-0.199433
-0.199421
-0.1994
-0.199369
-0.19933
-0.199292
-0.199271
-0.199288
-0.199357
-0.199494
-0.199673
-0.19984
-0.199968
-0.200057
-0.200113
-0.200146
-0.200164
-0.200173
-0.200176
-0.200176
-0.200174
-0.200173
-0.200171
-0.200168
-0.200165
-0.200162
-0.321915
-0.32192
-0.321926
-0.321929
-0.321933
-0.321934
-0.321933
-0.321926
-0.32191
-0.321885
-0.321851
-0.321818
-0.321803
-0.321825
-0.321895
-0.322026
-0.322198
-0.322359
-0.322483
-0.322566
-0.322618
-0.322648
-0.322663
-0.322668
-0.322668
-0.322665
-0.322661
-0.322657
-0.322653
-0.322649
-0.322645
-0.32264
-0.462629
-0.462636
-0.462643
-0.46265
-0.462657
-0.462664
-0.462669
-0.462668
-0.462659
-0.46264
-0.462614
-0.462588
-0.46258
-0.462608
-0.462679
-0.462804
-0.462967
-0.463121
-0.463238
-0.463315
-0.463361
-0.463386
-0.463396
-0.463396
-0.463391
-0.463384
-0.463375
-0.463368
-0.463361
-0.463356
-0.46335
-0.463344
-0.624293
-0.624301
-0.62431
-0.62432
-0.624332
-0.624346
-0.624357
-0.624363
-0.624362
-0.62435
-0.624332
-0.624314
-0.624313
-0.624348
-0.624421
-0.624539
-0.624694
-0.624839
-0.624948
-0.625018
-0.625057
-0.625075
-0.625078
-0.625073
-0.625062
-0.625049
-0.625035
-0.625023
-0.625013
-0.625005
-0.624997
-0.624991
-0.81003
-0.810037
-0.810048
-0.810061
-0.810078
-0.810097
-0.810115
-0.810127
-0.810132
-0.810128
-0.810117
-0.810107
-0.810115
-0.810157
-0.810232
-0.810345
-0.81049
-0.810628
-0.810729
-0.810792
-0.810823
-0.810833
-0.810829
-0.810818
-0.8108
-0.810781
-0.810761
-0.810744
-0.81073
-0.810719
-0.81071
-0.810703
-1.02342
-1.02343
-1.02344
-1.02345
-1.02347
-1.0235
-1.02352
-1.02354
-1.02355
-1.02355
-1.02354
-1.02354
-1.02356
-1.02361
-1.02368
-1.02379
-1.02393
-1.02406
-1.02416
-1.02421
-1.02424
-1.02424
-1.02423
-1.02421
-1.02419
-1.02416
-1.02414
-1.02411
-1.0241
-1.02408
-1.02407
-1.02407
-1.26858
-1.26858
-1.26859
-1.26861
-1.26863
-1.26865
-1.26867
-1.26869
-1.26871
-1.26871
-1.26871
-1.26872
-1.26875
-1.2688
-1.26888
-1.26899
-1.26912
-1.26924
-1.26934
-1.26939
-1.2694
-1.2694
-1.26938
-1.26936
-1.26933
-1.2693
-1.26928
-1.26925
-1.26923
-1.26921
-1.26921
-1.2692
-1.55021
-1.55021
-1.55022
-1.55023
-1.55025
-1.55027
-1.55029
-1.55031
-1.55033
-1.55034
-1.55035
-1.55036
-1.5504
-1.55045
-1.55053
-1.55064
-1.55077
-1.55089
-1.55098
-1.55103
-1.55104
-1.55103
-1.55101
-1.55099
-1.55096
-1.55092
-1.55089
-1.55086
-1.55084
-1.55083
-1.55082
-1.55081
-1.87373
-1.87373
-1.87374
-1.87375
-1.87376
-1.87378
-1.8738
-1.87382
-1.87383
-1.87384
-1.87386
-1.87388
-1.87392
-1.87399
-1.87407
-1.87417
-1.87429
-1.87441
-1.8745
-1.87455
-1.87456
-1.87455
-1.87453
-1.8745
-1.87447
-1.87443
-1.8744
-1.87437
-1.87434
-1.87433
-1.87432
-1.87432
-2.24536
-2.24537
-2.24537
-2.24538
-2.24539
-2.2454
-2.24542
-2.24543
-2.24545
-2.24546
-2.24548
-2.24551
-2.24556
-2.24563
-2.24571
-2.24581
-2.24592
-2.24603
-2.24612
-2.24617
-2.24618
-2.24616
-2.24614
-2.24611
-2.24607
-2.24603
-2.24599
-2.24596
-2.24594
-2.24592
-2.24592
-2.24592
-2.67227
-2.67227
-2.67227
-2.67228
-2.67228
-2.67229
-2.6723
-2.67232
-2.67233
-2.67235
-2.67237
-2.67241
-2.67246
-2.67253
-2.67261
-2.6727
-2.6728
-2.67289
-2.67297
-2.67302
-2.67303
-2.67301
-2.67297
-2.67293
-2.67288
-2.67283
-2.67279
-2.67276
-2.67274
-2.67273
-2.67273
-2.67273
-3.16267
-3.16267
-3.16267
-3.16268
-3.16268
-3.16268
-3.16269
-3.1627
-3.16272
-3.16273
-3.16276
-3.1628
-3.16286
-3.16293
-3.163
-3.16308
-3.16315
-3.16322
-3.16326
-3.16329
-3.16328
-3.16325
-3.1632
-3.16313
-3.16307
-3.16302
-3.16298
-3.16295
-3.16294
-3.16293
-3.16293
-3.16294
-3.72603
-3.72603
-3.72603
-3.72603
-3.72604
-3.72604
-3.72605
-3.72605
-3.72607
-3.72609
-3.72613
-3.72617
-3.72622
-3.72629
-3.72636
-3.72642
-3.72646
-3.72647
-3.72646
-3.72642
-3.72636
-3.72628
-3.7262
-3.72611
-3.72604
-3.72599
-3.72597
-3.72596
-3.72596
-3.72596
-3.72596
-3.72597
-4.37321
-4.37322
-4.37322
-4.37322
-4.37323
-4.37323
-4.37324
-4.37325
-4.37327
-4.3733
-4.37333
-4.37339
-4.37345
-4.37351
-4.37357
-4.37361
-4.37362
-4.37358
-4.37351
-4.37341
-4.37327
-4.37313
-4.37299
-4.37287
-4.37278
-4.37273
-4.3727
-4.3727
-4.3727
-4.37271
-4.37271
-4.37272
-5.06525
-5.06525
-5.06525
-5.06526
-5.06527
-5.06529
-5.06531
-5.06533
-5.06536
-5.0654
-5.06544
-5.06549
-5.06555
-5.06562
-5.06567
-5.0657
-5.06568
-5.06561
-5.06551
-5.06538
-5.06523
-5.06507
-5.06491
-5.06476
-5.06464
-5.06456
-5.06452
-5.0645
-5.06451
-5.06451
-5.06452
-5.06453
-5.71248
-5.71248
-5.71248
-5.71249
-5.71252
-5.71255
-5.71259
-5.71264
-5.71269
-5.71275
-5.7128
-5.71286
-5.71291
-5.71297
-5.71301
-5.71302
-5.71298
-5.7129
-5.7128
-5.71268
-5.71255
-5.7124
-5.71225
-5.71211
-5.71199
-5.7119
-5.71184
-5.7118
-5.71179
-5.7118
-5.7118
-5.71181
-6.27584
-6.27583
-6.27584
-6.27585
-6.27588
-6.27593
-6.27599
-6.27607
-6.27615
-6.27624
-6.27631
-6.27638
-6.27644
-6.27649
-6.27653
-6.27652
-6.27647
-6.27639
-6.27628
-6.27617
-6.27606
-6.27593
-6.27581
-6.27569
-6.27557
-6.27547
-6.27539
-6.27535
-6.27533
-6.27532
-6.27533
-6.27534
-6.76616
-6.76615
-6.76615
-6.76616
-6.7662
-6.76625
-6.76633
-6.76643
-6.76655
-6.76667
-6.76678
-6.76688
-6.76696
-6.76702
-6.76705
-6.76705
-6.76699
-6.7669
-6.76679
-6.76668
-6.76657
-6.76647
-6.76636
-6.76625
-6.76614
-6.76604
-6.76596
-6.76591
-6.76588
-6.76587
-6.76587
-6.76588
-7.19293
-7.19292
-7.19292
-7.19293
-7.19296
-7.19301
-7.19309
-7.19321
-7.19334
-7.19349
-7.19364
-7.19378
-7.19389
-7.19398
-7.19403
-7.19403
-7.19398
-7.19388
-7.19377
-7.19366
-7.19354
-7.19344
-7.19334
-7.19324
-7.19314
-7.19304
-7.19296
-7.19289
-7.19285
-7.19284
-7.19284
-7.19285
-7.56441
-7.56441
-7.5644
-7.56441
-7.56443
-7.56447
-7.56455
-7.56466
-7.5648
-7.56496
-7.56515
-7.56533
-7.56548
-7.56561
-7.56568
-7.5657
-7.56566
-7.56556
-7.56545
-7.56533
-7.56521
-7.5651
-7.56499
-7.56488
-7.56478
-7.56468
-7.56459
-7.56452
-7.56447
-7.56445
-7.56445
-7.56446
-7.8878
-7.8878
-7.88779
-7.88779
-7.8878
-7.88783
-7.88789
-7.88798
-7.88811
-7.88828
-7.88849
-7.88871
-7.88891
-7.88907
-7.88919
-7.88923
-7.8892
-7.88911
-7.889
-7.88887
-7.88875
-7.88862
-7.88849
-7.88837
-7.88825
-7.88814
-7.88804
-7.88795
-7.88788
-7.88785
-7.88785
-7.88786
-8.16933
-8.16933
-8.16932
-8.16932
-8.16932
-8.16933
-8.16936
-8.16942
-8.16953
-8.1697
-8.16992
-8.17017
-8.17042
-8.17063
-8.17078
-8.17085
-8.17084
-8.17076
-8.17065
-8.17053
-8.17039
-8.17024
-8.17009
-8.16994
-8.16979
-8.16965
-8.16952
-8.16941
-8.16933
-8.16928
-8.16927
-8.16928
-8.41443
-8.41443
-8.41442
-8.41442
-8.41441
-8.41439
-8.41439
-8.41441
-8.4145
-8.41466
-8.4149
-8.41518
-8.41547
-8.41572
-8.4159
-8.416
-8.41601
-8.41595
-8.41584
-8.41571
-8.41556
-8.4154
-8.41523
-8.41504
-8.41485
-8.41467
-8.4145
-8.41435
-8.41423
-8.41416
-8.41414
-8.41414
-8.62781
-8.62781
-8.62781
-8.62779
-8.62777
-8.62773
-8.62769
-8.62768
-8.62774
-8.6279
-8.62815
-8.62846
-8.62878
-8.62907
-8.62929
-8.62942
-8.62944
-8.62939
-8.62929
-8.62915
-8.629
-8.62882
-8.62862
-8.6284
-8.62817
-8.62793
-8.6277
-8.6275
-8.62733
-8.62721
-8.62717
-8.62716
-8.81357
-8.81357
-8.81357
-8.81355
-8.8135
-8.81344
-8.81337
-8.81334
-8.81338
-8.81354
-8.8138
-8.81413
-8.81449
-8.8148
-8.81505
-8.8152
-8.81524
-8.8152
-8.8151
-8.81497
-8.8148
-8.81461
-8.81439
-8.81414
-8.81387
-8.81357
-8.81327
-8.81299
-8.81274
-8.81256
-8.81245
-8.81242
-8.9753
-8.97531
-8.9753
-8.97527
-8.97519
-8.9751
-8.97501
-8.97496
-8.975
-8.97516
-8.97543
-8.97578
-8.97616
-8.9765
-8.97677
-8.97693
-8.97699
-8.97695
-8.97686
-8.97672
-8.97656
-8.97636
-8.97612
-8.97584
-8.97553
-8.97518
-8.97481
-8.97443
-8.97408
-8.97378
-8.97359
-8.97349
-9.11617
-9.11616
-9.11613
-9.11606
-9.11596
-9.11585
-9.11573
-9.11567
-9.1157
-9.11587
-9.11615
-9.11652
-9.11691
-9.11727
-9.11755
-9.11773
-9.1178
-9.11776
-9.11767
-9.11754
-9.11737
-9.11717
-9.11692
-9.11662
-9.11628
-9.11588
-9.11544
-9.11497
-9.11449
-9.11404
-9.11369
-9.11346
-9.23894
-9.23887
-9.23878
-9.23866
-9.23852
-9.23838
-9.23825
-9.23818
-9.23821
-9.23838
-9.23868
-9.23905
-9.23946
-9.23983
-9.24012
-9.24031
-9.24038
-9.24035
-9.24026
-9.24013
-9.23996
-9.23975
-9.2395
-9.23919
-9.23883
-9.2384
-9.23791
-9.23736
-9.23674
-9.23607
-9.23545
-9.2349
-9.34617
-9.34579
-9.34555
-9.34537
-9.34521
-9.34505
-9.34491
-9.34484
-9.34488
-9.34505
-9.34535
-9.34573
-9.34614
-9.34652
-9.34682
-9.34702
-9.34709
-9.34707
-9.34698
-9.34685
-9.34669
-9.34648
-9.34622
-9.34591
-9.34553
-9.3451
-9.34458
-9.34397
-9.34323
-9.34233
-9.34123
-9.33998
-9.4401
-9.43888
-9.43842
-9.43824
-9.43808
-9.43792
-9.43778
-9.43771
-9.43775
-9.43792
-9.43822
-9.43861
-9.43903
-9.43941
-9.43972
-9.43992
-9.43999
-9.43997
-9.43989
-9.43976
-9.4396
-9.43939
-9.43913
-9.43882
-9.43845
-9.438
-9.43748
-9.43684
-9.43603
-9.43494
-9.43334
-9.43109
)
;

boundaryField
{
    movingWall
    {
        type            calculated;
        value           nonuniform List<scalar> 
32
(
-9.48334
-9.48212
-9.48165
-9.48148
-9.48132
-9.48116
-9.48102
-9.48094
-9.48098
-9.48116
-9.48146
-9.48185
-9.48226
-9.48265
-9.48295
-9.48315
-9.48323
-9.48321
-9.48313
-9.483
-9.48284
-9.48263
-9.48237
-9.48206
-9.48169
-9.48125
-9.48072
-9.48008
-9.47928
-9.47819
-9.47659
-9.47433
)
;
    }
    fixedWalls
    {
        type            calculated;
        value           nonuniform List<scalar> 
64
(
6.93889e-18
-0.0928124
-0.199431
-0.321915
-0.462629
-0.624293
-0.81003
-1.02342
-1.26858
-1.55021
-1.87373
-2.24536
-2.67227
-3.16267
-3.72603
-4.37321
-5.06525
-5.71248
-6.27584
-6.76616
-7.19293
-7.56441
-7.8878
-8.16933
-8.41443
-8.62781
-8.81357
-8.9753
-9.11617
-9.23894
-9.34617
-9.4401
-0.000731501
-0.0935441
-0.200162
-0.32264
-0.463344
-0.624991
-0.810703
-1.02407
-1.2692
-1.55081
-1.87432
-2.24592
-2.67273
-3.16294
-3.72597
-4.37272
-5.06453
-5.71181
-6.27534
-6.76588
-7.19285
-7.56446
-7.88786
-8.16928
-8.41414
-8.62716
-8.81242
-8.97349
-9.11346
-9.2349
-9.33998
-9.43109
)
;
    }
    floor
    {
        type            calculated;
        value           nonuniform List<scalar> 
32
(
0.0431951
0.043192
0.0431888
0.0431878
0.0431903
0.0431968
0.0432081
0.0432259
0.0432523
0.0432891
0.043335
0.0433807
0.0434081
0.0433965
0.0433266
0.0431829
0.0429963
0.0428227
0.0426885
0.0425957
0.0425358
0.0424991
0.0424778
0.0424662
0.0424604
0.0424574
0.0424559
0.0424553
0.0424561
0.0424583
0.0424612
0.0424634
)
;
    }
    frontAndBack
    {
        type            empty;
    }
}


// ************************************************************************* //
