/*--------------------------------*- C++ -*----------------------------------*\
| =========                 |                                                 |
| \\      /  F ield         | OpenFOAM: The Open Source CFD Toolbox           |
|  \\    /   O peration     | Version:  2212                                  |
|   \\  /    A nd           | Website:  www.openfoam.com                      |
|    \\/     M anipulation  |                                                 |
\*---------------------------------------------------------------------------*/
FoamFile
{
    version     2.0;
    format      ascii;
    arch        "LSB;label=64;scalar=64";
    class       surfaceScalarField;
    location    "810";
    object      phi;
}
// * * * * * * * * * * * * * * * * * * * * * * * * * * * * * * * * * * * * * //

dimensions      [0 3 -1 0 0 0 0];

oriented        oriented;

internalField   nonuniform List<scalar> 
1984
(
-9.49504e-10
9.49022e-10
-1.28677e-08
1.19181e-08
-3.76206e-08
2.47534e-08
-7.02937e-08
3.2673e-08
-1.05622e-07
3.53282e-08
-1.4054e-07
3.49179e-08
-1.73333e-07
3.27928e-08
-2.01531e-07
2.81986e-08
-2.20497e-07
1.89658e-08
-2.22937e-07
2.43999e-09
-1.97847e-07
-2.50903e-08
-1.35935e-07
-6.1912e-08
-3.62034e-08
-9.97313e-08
9.64148e-08
-1.32618e-07
2.30674e-07
-1.34259e-07
3.22155e-07
-9.14806e-08
3.61036e-07
-3.88808e-08
3.59995e-07
1.04125e-09
3.34345e-07
2.56488e-08
2.97209e-07
3.71362e-08
2.57038e-07
4.01719e-08
2.17912e-07
3.91261e-08
1.81671e-07
3.62405e-08
1.49126e-07
3.25456e-08
1.20224e-07
2.89007e-08
9.39473e-08
2.62771e-08
6.87901e-08
2.51574e-08
4.41831e-08
2.4607e-08
2.19788e-08
2.22044e-08
6.11418e-09
1.58646e-08
-4.24235e-10
6.53843e-09
-4.24156e-10
-1.36771e-08
1.46259e-08
-6.03772e-08
5.86186e-08
-1.39544e-07
1.0392e-07
-2.40489e-07
1.33618e-07
-3.49929e-07
1.44768e-07
-4.57741e-07
1.4273e-07
-5.56345e-07
1.31397e-07
-6.36738e-07
1.08592e-07
-6.8534e-07
6.75672e-08
-6.83096e-07
1.97037e-10
-6.03349e-07
-1.04838e-07
-4.23001e-07
-2.42259e-07
-1.34667e-07
-3.88066e-07
2.55317e-07
-5.22603e-07
6.55751e-07
-5.34693e-07
9.42402e-07
-3.78131e-07
1.08251e-06
-1.78989e-07
1.10329e-06
-1.97363e-08
1.04853e-06
8.04101e-08
9.53674e-07
1.31988e-07
8.42642e-07
1.51204e-07
7.28705e-07
1.53063e-07
6.18614e-07
1.46331e-07
5.15638e-07
1.35522e-07
4.20441e-07
1.24098e-07
3.31316e-07
1.15403e-07
2.45799e-07
1.10674e-07
1.64007e-07
1.06399e-07
9.13877e-08
9.48235e-08
3.70763e-08
7.01759e-08
7.42726e-09
3.61875e-08
7.0031e-09
-3.44604e-08
4.90868e-08
-1.30617e-07
1.54775e-07
-2.78544e-07
2.51847e-07
-4.59342e-07
3.14415e-07
-6.52006e-07
3.37432e-07
-8.38662e-07
3.29387e-07
-1.0039e-06
2.96638e-07
-1.1307e-06
2.35392e-07
-1.19693e-06
1.33797e-07
-1.17317e-06
-2.35633e-08
-1.02379e-06
-2.54225e-07
-7.19963e-07
-5.46082e-07
-2.49601e-07
-8.58428e-07
3.86238e-07
-1.15844e-06
1.04963e-06
-1.19809e-06
1.55139e-06
-8.79893e-07
1.82932e-06
-4.5691e-07
1.90733e-06
-9.77502e-08
1.85271e-06
1.35026e-07
1.72118e-06
2.6352e-07
1.55127e-06
3.21115e-07
1.3663e-06
3.38036e-07
1.1792e-06
3.33433e-07
9.96828e-07
3.1789e-07
8.2184e-07
2.99086e-07
6.53672e-07
2.83571e-07
4.91046e-07
2.73299e-07
3.36125e-07
2.61321e-07
1.97653e-07
2.33295e-07
8.92282e-08
1.78601e-07
2.23366e-08
1.03079e-07
2.93398e-08
-5.94079e-08
1.08495e-07
-2.15038e-07
3.10406e-07
-4.42825e-07
4.79634e-07
-7.11512e-07
5.83101e-07
-9.90653e-07
6.16574e-07
-1.254e-06
5.9273e-07
-1.47774e-06
5.20379e-07
-1.63679e-06
3.94443e-07
-1.70172e-06
1.98733e-07
-1.63583e-06
-8.94535e-08
-1.40263e-06
-4.87425e-07
-9.77773e-07
-9.70941e-07
-3.50485e-07
-1.48572e-06
4.78914e-07
-1.98784e-06
1.35904e-06
-2.07821e-06
2.07279e-06
-1.59365e-06
2.51741e-06
-9.01531e-07
2.69286e-06
-2.73195e-07
2.67765e-06
1.50232e-07
2.54198e-06
3.9919e-07
2.3378e-06
5.25297e-07
2.09786e-06
5.77978e-07
1.8414e-06
5.89889e-07
1.57952e-06
5.79772e-07
1.31803e-06
5.60572e-07
1.0594e-06
5.42203e-07
8.05496e-07
5.27203e-07
5.61653e-07
5.05165e-07
3.40235e-07
4.54712e-07
1.60498e-07
3.58339e-07
4.27726e-08
2.20804e-07
7.21125e-08
-8.36944e-08
1.92189e-07
-2.98324e-07
5.25035e-07
-6.05731e-07
7.87042e-07
-9.60503e-07
9.37874e-07
-1.3206e-06
9.76675e-07
-1.65028e-06
9.22404e-07
-1.9174e-06
7.87503e-07
-2.08986e-06
5.66903e-07
-2.13306e-06
2.41936e-07
-2.00924e-06
-2.13279e-07
-1.68945e-06
-8.07218e-07
-1.15885e-06
-1.50154e-06
-4.14845e-07
-2.22972e-06
5.27764e-07
-2.93045e-06
1.54325e-06
-3.0937e-06
2.43935e-06
-2.48974e-06
3.06056e-06
-1.52274e-06
3.36591e-06
-5.78548e-07
3.43025e-06
8.58876e-08
3.32752e-06
5.01924e-07
3.12162e-06
7.312e-07
2.85299e-06
8.46609e-07
2.54603e-06
8.96841e-07
2.21571e-06
9.10097e-07
1.87149e-06
9.0479e-07
1.52001e-06
8.93688e-07
1.16768e-06
8.7953e-07
8.24401e-07
8.48442e-07
5.07709e-07
7.71405e-07
2.44614e-07
6.21433e-07
6.69593e-08
3.98459e-07
1.39072e-07
-1.00508e-07
2.92697e-07
-3.59642e-07
7.84169e-07
-7.31303e-07
1.1587e-06
-1.15796e-06
1.36453e-06
-1.58483e-06
1.40354e-06
-1.96533e-06
1.3029e-06
-2.25923e-06
1.08141e-06
-2.42924e-06
7.36916e-07
-2.43931e-06
2.52004e-07
-2.25803e-06
-3.94557e-07
-1.86768e-06
-1.19757e-06
-1.26185e-06
-2.10737e-06
-4.52007e-07
-3.03956e-06
5.19135e-07
-3.90159e-06
1.57993e-06
-4.15449e-06
2.60907e-06
-3.51888e-06
3.39524e-06
-2.30891e-06
3.84376e-06
-1.02707e-06
4.0152e-06
-8.55566e-08
3.97712e-06
5.40003e-07
3.80146e-06
9.06867e-07
3.53408e-06
1.11398e-06
3.20253e-06
1.2284e-06
2.82419e-06
1.28843e-06
2.41168e-06
1.31729e-06
1.97593e-06
1.32944e-06
1.52867e-06
1.32678e-06
1.08606e-06
1.29105e-06
6.73204e-07
1.18427e-06
3.2684e-07
9.67797e-07
9.03901e-08
6.34909e-07
2.29462e-07
-1.04122e-07
3.96818e-07
-3.81447e-07
1.06149e-06
-7.89121e-07
1.56638e-06
-1.26341e-06
1.83881e-06
-1.73757e-06
1.87771e-06
-2.15342e-06
1.71875e-06
-2.46307e-06
1.39105e-06
-2.62643e-06
9.00274e-07
-2.61019e-06
2.3577e-07
-2.39292e-06
-6.11829e-07
-1.96485e-06
-1.62564e-06
-1.32588e-06
-2.74635e-06
-5.07496e-07
-3.85794e-06
4.19476e-07
-4.82857e-06
1.44886e-06
-5.18387e-06
2.55516e-06
-4.62518e-06
3.48349e-06
-3.23724e-06
4.06964e-06
-1.61322e-06
4.35638e-06
-3.72296e-07
4.40228e-06
4.94111e-07
4.27966e-06
1.02948e-06
4.03924e-06
1.3544e-06
3.70949e-06
1.55815e-06
3.30801e-06
1.68991e-06
2.84907e-06
1.77623e-06
2.34718e-06
1.83134e-06
1.81985e-06
1.8541e-06
1.2914e-06
1.8195e-06
7.97227e-07
1.67844e-06
3.84849e-07
1.38018e-06
1.0584e-07
9.13919e-07
3.35302e-07
-9.37412e-08
4.90559e-07
-3.59379e-07
1.32713e-06
-7.69357e-07
1.97636e-06
-1.26265e-06
2.3321e-06
-1.76413e-06
2.3792e-06
-2.20468e-06
2.1593e-06
-2.52948e-06
1.71586e-06
-2.69763e-06
1.06843e-06
-2.68032e-06
2.18456e-07
-2.46311e-06
-8.29044e-07
-2.03837e-06
-2.05038e-06
-1.41528e-06
-3.36943e-06
-6.49548e-07
-4.62368e-06
1.70486e-07
-5.6486e-06
1.10773e-06
-6.12112e-06
2.23464e-06
-5.75209e-06
3.2833e-06
-4.28591e-06
4.00552e-06
-2.33544e-06
4.40949e-06
-7.76257e-07
4.54239e-06
3.61204e-07
4.48081e-06
1.09107e-06
4.28336e-06
1.55184e-06
3.97717e-06
1.86435e-06
3.577e-06
2.09008e-06
3.09655e-06
2.25669e-06
2.55285e-06
2.37503e-06
1.96984e-06
2.43712e-06
1.38231e-06
2.40703e-06
8.38529e-07
2.22222e-06
3.95818e-07
1.82289e-06
1.061e-07
1.20364e-06
4.41402e-07
-7.42695e-08
5.64829e-07
-3.05131e-07
1.55799e-06
-6.87967e-07
2.35919e-06
-1.1742e-06
2.81833e-06
-1.68685e-06
2.89185e-06
-2.1485e-06
2.62095e-06
-2.49845e-06
2.06581e-06
-2.69516e-06
1.26513e-06
-2.71187e-06
2.35168e-07
-2.53457e-06
-1.00634e-06
-2.1577e-06
-2.42725e-06
-1.60776e-06
-3.91938e-06
-9.59522e-07
-5.27191e-06
-2.97773e-07
-6.31035e-06
4.77218e-07
-6.89611e-06
1.55853e-06
-6.8334e-06
2.70304e-06
-5.43042e-06
3.57734e-06
-3.20974e-06
4.1202e-06
-1.31911e-06
4.3456e-06
1.35807e-07
4.34509e-06
1.09158e-06
4.20083e-06
1.6961e-06
3.93608e-06
2.1291e-06
3.55969e-06
2.46646e-06
3.08276e-06
2.73363e-06
2.52459e-06
2.9332e-06
1.91738e-06
3.04434e-06
1.30979e-06
3.01461e-06
7.64603e-07
2.76741e-06
3.43941e-07
2.24355e-06
8.70547e-08
1.46052e-06
5.28457e-07
-5.37237e-08
6.18553e-07
-2.41272e-07
1.74554e-06
-5.80776e-07
2.6987e-06
-1.04321e-06
3.28077e-06
-1.55795e-06
3.40659e-06
-2.04407e-06
3.10707e-06
-2.4362e-06
2.45793e-06
-2.69055e-06
1.51948e-06
-2.77793e-06
3.22551e-07
-2.68033e-06
-1.10395e-06
-2.40428e-06
-2.70329e-06
-2.00134e-06
-4.32232e-06
-1.55267e-06
-5.72059e-06
-1.10305e-06
-6.75997e-06
-5.47978e-07
-7.45118e-06
3.78799e-07
-7.76018e-06
1.56694e-06
-6.61855e-06
2.61519e-06
-4.258e-06
3.35331e-06
-2.05723e-06
3.70974e-06
-2.20627e-07
3.79382e-06
1.0075e-06
3.72531e-06
1.76461e-06
3.52417e-06
2.33024e-06
3.19417e-06
2.79646e-06
2.74487e-06
3.18292e-06
2.20092e-06
3.47715e-06
1.60809e-06
3.63716e-06
1.03409e-06
3.58862e-06
5.54567e-07
3.24694e-06
2.23406e-07
2.57471e-06
4.90034e-08
1.63493e-06
5.7746e-07
-3.96151e-08
6.58168e-07
-1.92357e-07
1.89828e-06
-4.91456e-07
2.9978e-06
-9.28615e-07
3.71792e-06
-1.44677e-06
3.92475e-06
-1.96762e-06
3.62792e-06
-2.4232e-06
2.91351e-06
-2.76572e-06
1.86201e-06
-2.9611e-06
5.17921e-07
-2.99055e-06
-1.07449e-06
-2.88791e-06
-2.80594e-06
-2.72926e-06
-4.48097e-06
-2.57976e-06
-5.87009e-06
-2.42029e-06
-6.91943e-06
-2.12548e-06
-7.74599e-06
-1.4618e-06
-8.42386e-06
-3.94547e-07
-7.68581e-06
8.02984e-07
-5.45553e-06
1.83609e-06
-3.09035e-06
2.47006e-06
-8.54595e-07
2.71229e-06
7.65274e-07
2.76214e-06
1.71476e-06
2.65139e-06
2.441e-06
2.38842e-06
3.05943e-06
1.98913e-06
3.58221e-06
1.4939e-06
3.97239e-06
9.71878e-07
4.15918e-06
5.15948e-07
4.04455e-06
2.01289e-07
3.56159e-06
4.21615e-08
2.73384e-06
-3.2729e-09
1.68036e-06
5.74187e-07
-3.66403e-08
6.94808e-07
-1.77238e-07
2.03888e-06
-4.59031e-07
3.27959e-06
-8.89019e-07
4.14791e-06
-1.42689e-06
4.46261e-06
-2.00288e-06
4.20392e-06
-2.54956e-06
3.46019e-06
-3.01574e-06
2.32819e-06
-3.36625e-06
8.68429e-07
-3.59314e-06
-8.476e-07
-3.7652e-06
-2.63388e-06
-3.97087e-06
-4.2753e-06
-4.23492e-06
-5.60604e-06
-4.47481e-06
-6.67954e-06
-4.53266e-06
-7.68814e-06
-4.19012e-06
-8.76639e-06
-3.36688e-06
-8.50905e-06
-2.23033e-06
-6.59208e-06
-9.65881e-07
-4.3548e-06
1.88559e-07
-2.00903e-06
8.70275e-07
8.35573e-08
1.08992e-06
1.49512e-06
1.09481e-06
2.4361e-06
9.16289e-07
3.23795e-06
6.03828e-07
3.89467e-06
2.4207e-07
4.33414e-06
-6.90567e-08
4.47031e-06
-2.48971e-07
4.22446e-06
-2.6998e-07
3.5826e-06
-1.79136e-07
2.64299e-06
-6.18732e-08
1.5631e-06
5.12314e-07
-4.59473e-08
7.40755e-07
-2.04139e-07
2.19707e-06
-5.06753e-07
3.5822e-06
-9.67608e-07
4.60877e-06
-1.56143e-06
5.05643e-06
-2.23035e-06
4.87284e-06
-2.91086e-06
4.1407e-06
-3.55221e-06
2.96954e-06
-4.12881e-06
1.44503e-06
-4.66825e-06
-3.08165e-07
-5.24177e-06
-2.06035e-06
-5.94215e-06
-3.57492e-06
-6.74049e-06
-4.8077e-06
-7.50517e-06
-5.91487e-06
-8.05947e-06
-7.13384e-06
-8.19243e-06
-8.63344e-06
-7.72434e-06
-8.97713e-06
-6.74534e-06
-7.57108e-06
-5.44761e-06
-5.65253e-06
-4.0406e-06
-3.41604e-06
-2.80353e-06
-1.15351e-06
-2.06778e-06
7.5936e-07
-1.75666e-06
2.12498e-06
-1.66406e-06
3.14535e-06
-1.65722e-06
3.88784e-06
-1.62313e-06
4.30005e-06
-1.47459e-06
4.32177e-06
-1.18546e-06
3.93533e-06
-8.02935e-07
3.20008e-06
-4.14127e-07
2.25418e-06
-1.19906e-07
1.26888e-06
3.92408e-07
-6.43919e-08
8.05147e-07
-2.65208e-07
2.39789e-06
-6.27762e-07
3.94476e-06
-1.1689e-06
5.1499e-06
-1.87593e-06
5.76346e-06
-2.7035e-06
5.70042e-06
-3.59477e-06
5.03197e-06
-4.50551e-06
3.88028e-06
-5.42902e-06
2.36854e-06
-6.41256e-06
6.7538e-07
-7.52997e-06
-9.42944e-07
-8.83963e-06
-2.26526e-06
-1.02744e-05
-3.37291e-06
-1.16753e-05
-4.51397e-06
-1.2869e-05
-5.9402e-06
-1.36579e-05
-7.8445e-06
-1.37546e-05
-8.88039e-06
-1.31523e-05
-8.1734e-06
-1.20086e-05
-6.79625e-06
-1.0474e-05
-4.95065e-06
-8.77037e-06
-2.85713e-06
-7.28277e-06
-7.28235e-07
-6.18294e-06
1.02515e-06
-5.3522e-06
2.3146e-06
-4.56738e-06
3.10302e-06
-3.76869e-06
3.50136e-06
-2.93026e-06
3.48334e-06
-2.07165e-06
3.07672e-06
-1.26093e-06
2.38936e-06
-5.9319e-07
1.58644e-06
-1.56837e-07
8.32523e-07
2.35571e-07
-8.00709e-08
8.85218e-07
-3.2047e-07
2.63829e-06
-7.4962e-07
4.3739e-06
-1.39761e-06
5.79789e-06
-2.2707e-06
6.63656e-06
-3.33798e-06
6.76769e-06
-4.54911e-06
6.2431e-06
-5.86633e-06
5.19749e-06
-7.294e-06
3.79621e-06
-8.88502e-06
2.2664e-06
-1.06869e-05
8.58974e-07
-1.26718e-05
-2.80431e-07
-1.47518e-05
-1.29285e-06
-1.67855e-05
-2.48025e-06
-1.86376e-05
-4.0881e-06
-2.01473e-05
-6.3348e-06
-2.09505e-05
-8.07727e-06
-2.093e-05
-8.19384e-06
-2.01832e-05
-7.54307e-06
-1.87681e-05
-6.36578e-06
-1.67526e-05
-4.87259e-06
-1.42472e-05
-3.23365e-06
-1.1641e-05
-1.58107e-06
-9.26419e-06
-6.21791e-08
-7.08691e-06
9.25743e-07
-5.18273e-06
1.59718e-06
-3.57011e-06
1.87073e-06
-2.25454e-06
1.76115e-06
-1.23381e-06
1.36864e-06
-5.23002e-07
8.75627e-07
-1.23898e-07
4.33419e-07
1.11673e-07
-6.87048e-08
9.53923e-07
-2.80604e-07
2.85019e-06
-6.88845e-07
4.78215e-06
-1.36564e-06
6.47468e-06
-2.36294e-06
7.63386e-06
-3.681e-06
8.08575e-06
-5.27918e-06
7.84129e-06
-7.1175e-06
7.03582e-06
-9.18732e-06
5.86603e-06
-1.15012e-05
4.5803e-06
-1.40376e-05
3.39536e-06
-1.66614e-05
2.34335e-06
-1.92195e-05
1.26522e-06
-2.15945e-05
-1.05227e-07
-2.3777e-05
-1.90553e-06
-2.57102e-05
-4.40168e-06
-2.7015e-05
-6.77243e-06
-2.75046e-05
-7.70421e-06
-2.72125e-05
-7.83526e-06
-2.61098e-05
-7.4684e-06
-2.41755e-05
-6.80694e-06
-2.14442e-05
-5.96499e-06
-1.80219e-05
-5.0033e-06
-1.4123e-05
-3.96106e-06
-1.03361e-05
-2.86116e-06
-6.91088e-06
-1.82809e-06
-4.09866e-06
-9.415e-07
-2.06292e-06
-2.74577e-07
-8.19861e-07
1.25575e-07
-2.17042e-07
2.72808e-07
-1.62265e-08
2.32603e-07
9.54462e-08
4.2466e-09
9.49676e-07
-2.25597e-08
2.87699e-06
-1.59697e-07
4.91928e-06
-5.24309e-07
6.83929e-06
-1.24091e-06
8.35047e-06
-2.38829e-06
9.23313e-06
-3.94343e-06
9.39642e-06
-5.82923e-06
8.92161e-06
-7.97339e-06
8.0102e-06
-1.02961e-05
6.90302e-06
-1.2723e-05
5.82229e-06
-1.51814e-05
4.80175e-06
-1.75774e-05
3.66121e-06
-1.98149e-05
2.13226e-06
-2.16734e-05
-4.70106e-08
-2.32943e-05
-2.78084e-06
-2.45208e-05
-5.54588e-06
-2.52181e-05
-7.00697e-06
-2.53719e-05
-7.68142e-06
-2.49134e-05
-7.9269e-06
-2.37752e-05
-7.94514e-06
-2.19292e-05
-7.811e-06
-1.94119e-05
-7.52063e-06
-1.63358e-05
-7.03711e-06
-1.28749e-05
-6.32205e-06
-9.33515e-06
-5.36785e-06
-6.06933e-06
-4.20732e-06
-3.40977e-06
-2.93414e-06
-1.56982e-06
-1.71438e-06
-5.33017e-07
-7.6399e-07
-9.4666e-08
-2.05748e-07
7.80053e-10
9.65708e-08
8.53105e-07
3.07982e-07
2.66558e-06
5.4087e-07
4.68639e-06
6.64891e-07
6.71527e-06
5.25599e-07
8.48976e-06
-1.15845e-08
9.77031e-06
-1.00157e-06
1.03864e-05
-2.40605e-06
1.03261e-05
-4.10163e-06
9.70578e-06
-5.82612e-06
8.6275e-06
-7.45094e-06
7.44711e-06
-8.95074e-06
6.30155e-06
-1.03679e-05
5.0784e-06
-1.17561e-05
3.52043e-06
-1.31331e-05
1.33003e-06
-1.43002e-05
-1.61379e-06
-1.52389e-05
-4.60721e-06
-1.59768e-05
-6.269e-06
-1.64961e-05
-7.16211e-06
-1.67295e-05
-7.69357e-06
-1.65959e-05
-8.07865e-06
-1.60178e-05
-8.38913e-06
-1.49476e-05
-8.59084e-06
-1.33793e-05
-8.60544e-06
-1.13713e-05
-8.33e-06
-9.05464e-06
-7.68454e-06
-6.61828e-06
-6.64369e-06
-4.29477e-06
-5.25764e-06
-2.33382e-06
-3.67534e-06
-9.50459e-07
-2.14735e-06
-2.07778e-07
-9.48429e-07
-2.06998e-07
1.60384e-07
6.92721e-07
5.53077e-07
2.27289e-06
1.0785e-06
4.16097e-06
1.60372e-06
6.19006e-06
1.97689e-06
8.11658e-06
2.05614e-06
9.69106e-06
1.72565e-06
1.07169e-05
9.55821e-07
1.10959e-05
-1.78253e-07
1.08399e-05
-1.47599e-06
9.92524e-06
-2.67708e-06
8.6482e-06
-3.62032e-06
7.24479e-06
-4.30793e-06
5.766e-06
-4.8892e-06
4.10171e-06
-5.57183e-06
2.01265e-06
-6.34149e-06
-8.44129e-07
-7.04551e-06
-3.90318e-06
-7.78554e-06
-5.52897e-06
-8.49188e-06
-6.45578e-06
-9.12361e-06
-7.06183e-06
-9.6336e-06
-7.56866e-06
-9.93798e-06
-8.08475e-06
-9.95372e-06
-8.5751e-06
-9.58138e-06
-8.97778e-06
-8.76232e-06
-9.14905e-06
-7.5068e-06
-8.94006e-06
-5.90185e-06
-8.24864e-06
-4.11969e-06
-7.0398e-06
-2.41027e-06
-5.38476e-06
-1.05419e-06
-3.50343e-06
-2.48361e-07
-1.75425e-06
-4.5536e-07
1.78683e-07
5.14038e-07
6.53592e-07
1.79798e-06
1.34544e-06
3.46913e-06
2.12979e-06
5.40571e-06
2.8604e-06
7.38597e-06
3.39525e-06
9.15621e-06
3.61932e-06
1.04928e-05
3.4766e-06
1.12386e-05
2.99514e-06
1.13213e-05
2.22845e-06
1.06919e-05
1.39968e-06
9.47698e-06
7.3781e-07
7.90666e-06
3.46755e-07
6.15705e-06
1.87122e-07
4.26134e-06
8.87737e-08
2.111e-06
-2.5595e-07
-4.99405e-07
-9.26015e-07
-3.23312e-06
-1.70333e-06
-4.75166e-06
-2.49623e-06
-5.66287e-06
-3.28645e-06
-6.27161e-06
-4.07428e-06
-6.78083e-06
-4.81305e-06
-7.34598e-06
-5.4566e-06
-7.93155e-06
-5.87668e-06
-8.55771e-06
-5.94271e-06
-9.08302e-06
-5.5764e-06
-9.30637e-06
-4.76686e-06
-9.05819e-06
-3.60054e-06
-8.20612e-06
-2.27219e-06
-6.71311e-06
-1.06618e-06
-4.70944e-06
-2.67437e-07
-2.553e-06
-7.22797e-07
1.63971e-07
3.50067e-07
6.34494e-07
1.32746e-06
1.36959e-06
2.73403e-06
2.26803e-06
4.50727e-06
3.19712e-06
6.45688e-06
4.0239e-06
8.32943e-06
4.63984e-06
9.87689e-06
4.98066e-06
1.08978e-05
5.04024e-06
1.12617e-05
4.84227e-06
1.08899e-05
4.49526e-06
9.82399e-06
4.15683e-06
8.24509e-06
3.94944e-06
6.36444e-06
3.89147e-06
4.31931e-06
3.88716e-06
2.11532e-06
3.73904e-06
-3.51286e-07
3.19368e-06
-2.68776e-06
2.4397e-06
-3.99768e-06
1.59476e-06
-4.81793e-06
7.23062e-07
-5.39992e-06
-1.61211e-07
-5.89656e-06
-1.05758e-06
-6.44961e-06
-1.94982e-06
-7.03931e-06
-2.77334e-06
-7.73419e-06
-3.39451e-06
-8.46185e-06
-3.68011e-06
-9.02076e-06
-3.53115e-06
-9.20714e-06
-2.94079e-06
-8.79648e-06
-2.02399e-06
-7.62991e-06
-1.02622e-06
-5.70721e-06
-2.7429e-07
-3.30493e-06
-9.97087e-07
1.32983e-07
2.17085e-07
5.42519e-07
9.1792e-07
1.22579e-06
2.05075e-06
2.11535e-06
3.61771e-06
3.10115e-06
5.47108e-06
4.06737e-06
7.36322e-06
4.91923e-06
9.02503e-06
5.59657e-06
1.02205e-05
6.07867e-06
1.07796e-05
6.36631e-06
1.06023e-05
6.49484e-06
9.69546e-06
6.5362e-06
8.20373e-06
6.56059e-06
6.34005e-06
6.58945e-06
4.29045e-06
6.56252e-06
2.14225e-06
6.34094e-06
-1.29712e-07
5.81124e-06
-2.15806e-06
5.07451e-06
-3.26095e-06
4.22019e-06
-3.96362e-06
3.31893e-06
-4.49865e-06
2.41598e-06
-4.99361e-06
1.49212e-06
-5.52576e-06
5.62288e-07
-6.10947e-06
-3.78731e-07
-6.79317e-06
-1.28178e-06
-7.55881e-06
-1.98678e-06
-8.31577e-06
-2.34239e-06
-8.85152e-06
-2.24842e-06
-8.89045e-06
-1.72896e-06
-8.14937e-06
-9.62694e-07
-6.47348e-06
-2.77542e-07
-3.99008e-06
-1.27463e-06
9.7491e-08
1.19594e-07
4.17103e-07
5.98308e-07
9.85536e-07
1.48232e-06
1.77376e-06
2.82949e-06
2.70431e-06
4.54053e-06
3.68818e-06
6.37934e-06
4.65196e-06
8.06125e-06
5.5455e-06
9.32694e-06
6.33865e-06
9.98647e-06
7.00719e-06
9.93373e-06
7.53557e-06
9.16708e-06
7.92889e-06
7.81041e-06
8.202e-06
6.06694e-06
8.35449e-06
4.13795e-06
8.34334e-06
2.1534e-06
8.07019e-06
1.43436e-07
7.50267e-06
-1.59054e-06
6.7686e-06
-2.52688e-06
5.92979e-06
-3.12481e-06
5.03239e-06
-3.60125e-06
4.10976e-06
-4.07097e-06
3.17877e-06
-4.59477e-06
2.26212e-06
-5.19283e-06
1.34071e-06
-5.87175e-06
3.92239e-07
-6.61034e-06
-5.20743e-07
-7.40278e-06
-1.24072e-06
-8.13155e-06
-1.56319e-06
-8.56799e-06
-1.4154e-06
-8.29715e-06
-8.90888e-07
-6.998e-06
-2.84294e-07
-4.59667e-06
-1.55892e-06
6.23686e-08
5.72253e-08
2.78817e-07
3.81859e-07
6.93398e-07
1.06774e-06
1.31761e-06
2.20527e-06
2.11686e-06
3.74128e-06
3.03803e-06
5.45818e-06
4.0321e-06
7.06717e-06
5.05773e-06
8.30132e-06
6.07253e-06
8.97167e-06
7.02449e-06
8.98177e-06
7.85814e-06
8.33343e-06
8.53137e-06
7.13718e-06
9.0185e-06
5.5798e-06
9.29848e-06
3.85797e-06
9.33759e-06
2.1143e-06
9.07019e-06
4.10833e-07
8.51284e-06
-1.03318e-06
7.81812e-06
-1.83216e-06
7.03706e-06
-2.34374e-06
6.19946e-06
-2.76365e-06
5.32422e-06
-3.19574e-06
4.4236e-06
-3.69414e-06
3.5095e-06
-4.27874e-06
2.58539e-06
-4.94764e-06
1.65474e-06
-5.67969e-06
7.00482e-07
-6.44852e-06
-2.09555e-07
-7.22151e-06
-8.81181e-07
-7.89636e-06
-1.08424e-06
-8.0941e-06
-8.131e-07
-7.26913e-06
-2.99544e-07
-5.11023e-06
-1.85847e-06
2.36538e-08
3.35716e-08
1.20416e-07
2.85096e-07
3.51926e-07
8.36229e-07
7.79337e-07
1.77786e-06
1.41612e-06
3.1045e-06
2.24333e-06
4.63096e-06
3.22963e-06
6.08087e-06
4.33701e-06
7.19394e-06
5.50541e-06
7.80327e-06
6.65484e-06
7.83234e-06
7.70012e-06
7.28815e-06
8.56967e-06
6.26763e-06
9.21395e-06
4.93553e-06
9.60107e-06
3.47085e-06
9.70514e-06
2.01023e-06
9.49316e-06
6.2281e-07
9.01333e-06
-5.53346e-07
8.41284e-06
-1.23167e-06
7.73812e-06
-1.66902e-06
7.00928e-06
-2.03481e-06
6.23305e-06
-2.41951e-06
5.41012e-06
-2.87121e-06
4.54113e-06
-3.40974e-06
3.62814e-06
-4.03466e-06
2.67813e-06
-4.72968e-06
1.7017e-06
-5.47209e-06
7.20463e-07
-6.24027e-06
-1.759e-07
-7e-06
-7.19748e-07
-7.55025e-06
-7.2142e-07
-7.26746e-06
-3.24481e-07
-5.50717e-06
-2.18295e-06
-3.05443e-08
6.41158e-08
-8.20387e-08
3.36591e-07
-5.95265e-08
8.13717e-07
1.62805e-07
1.55553e-06
6.60349e-07
2.60696e-06
1.41092e-06
3.8804e-06
2.38457e-06
5.10722e-06
3.54593e-06
6.03258e-06
4.81349e-06
6.53571e-06
6.08486e-06
6.56096e-06
7.25773e-06
6.11528e-06
8.2468e-06
5.27857e-06
8.9934e-06
4.18893e-06
9.46522e-06
2.99903e-06
9.6479e-06
1.82755e-06
9.53437e-06
7.36337e-07
9.1827e-06
-2.0167e-07
8.71929e-06
-7.68268e-07
8.18505e-06
-1.13478e-06
7.59378e-06
-1.44353e-06
6.94415e-06
-1.76989e-06
6.22773e-06
-2.15479e-06
5.43535e-06
-2.61737e-06
4.56205e-06
-3.16135e-06
3.6121e-06
-3.77973e-06
2.60127e-06
-4.46126e-06
1.55843e-06
-5.19743e-06
5.37112e-07
-5.97868e-06
-2.90519e-07
-6.72262e-06
-5.95978e-07
-6.962e-06
-3.52953e-07
-5.75019e-06
-2.5359e-06
-1.18884e-07
1.83e-07
-3.4395e-07
5.61657e-07
-5.13114e-07
9.82881e-07
-4.6498e-07
1.50739e-06
-8.09122e-08
2.22289e-06
6.32488e-07
3.167e-06
1.60931e-06
4.1304e-06
2.80659e-06
4.83529e-06
4.12621e-06
5.21609e-06
5.45543e-06
5.23174e-06
6.68831e-06
4.8824e-06
7.73884e-06
4.22804e-06
8.55032e-06
3.37745e-06
9.09663e-06
2.45272e-06
9.37449e-06
1.5497e-06
9.3917e-06
7.19119e-07
9.19521e-06
-5.17479e-09
8.88371e-06
-4.56767e-07
8.49571e-06
-7.46782e-07
8.04277e-06
-9.90596e-07
7.52066e-06
-1.24778e-06
6.91685e-06
-1.55098e-06
6.21641e-06
-1.91693e-06
5.4075e-06
-2.35245e-06
4.48735e-06
-2.85958e-06
3.46698e-06
-3.44089e-06
2.37401e-06
-4.10446e-06
1.259e-06
-4.86368e-06
2.3142e-07
-5.69504e-06
-4.0148e-07
-6.3291e-06
-3.66692e-07
-5.78498e-06
-2.90259e-06
-2.50616e-07
4.33615e-07
-6.43582e-07
9.54623e-07
-9.31678e-07
1.27098e-06
-9.69316e-07
1.54503e-06
-6.68425e-07
1.922e-06
2.35267e-08
2.47504e-06
1.01733e-06
3.1366e-06
2.23036e-06
3.62226e-06
3.56048e-06
3.88598e-06
4.89855e-06
3.89367e-06
6.14615e-06
3.63479e-06
7.22468e-06
3.14951e-06
8.08402e-06
2.51811e-06
8.70344e-06
1.8333e-06
9.08348e-06
1.16966e-06
9.23509e-06
5.675e-07
9.18205e-06
4.78655e-08
9.00035e-06
-2.75063e-07
8.73401e-06
-4.80443e-07
8.39588e-06
-6.52461e-07
7.98271e-06
-8.34608e-07
7.48211e-06
-1.05039e-06
6.87752e-06
-1.31233e-06
6.15269e-06
-1.62762e-06
5.29663e-06
-2.00352e-06
4.30881e-06
-2.45307e-06
3.20481e-06
-3.00046e-06
2.02382e-06
-3.68269e-06
8.54429e-07
-4.52565e-06
-7.52886e-08
-5.39938e-06
-3.33118e-07
-5.52715e-06
-3.23571e-06
-3.93332e-07
8.26947e-07
-8.76251e-07
1.43754e-06
-1.15076e-06
1.54549e-06
-1.15114e-06
1.54541e-06
-8.47721e-07
1.61859e-06
-1.92513e-07
1.81984e-06
7.99716e-07
2.14437e-06
1.99913e-06
2.42284e-06
3.29863e-06
2.58648e-06
4.60729e-06
2.58502e-06
5.83814e-06
2.40394e-06
6.91991e-06
2.06774e-06
7.80552e-06
1.6325e-06
8.4731e-06
1.16573e-06
8.9197e-06
7.23057e-07
9.15244e-06
3.34761e-07
9.18527e-06
1.50308e-08
9.08576e-06
-1.75551e-07
8.90016e-06
-2.94843e-07
8.64417e-06
-3.96476e-07
8.3167e-06
-5.07135e-07
7.90712e-06
-6.40804e-07
7.39974e-06
-8.04957e-07
6.77694e-06
-1.00482e-06
6.02168e-06
-1.24826e-06
5.12043e-06
-1.55181e-06
4.06801e-06
-1.94803e-06
2.87762e-06
-2.4923e-06
1.60626e-06
-3.25429e-06
4.27571e-07
-4.22069e-06
-2.06865e-07
-4.89272e-06
-3.44258e-06
-4.97291e-07
1.32424e-06
-8.46271e-07
1.78652e-06
-8.5856e-07
1.55777e-06
-6.43902e-07
1.33075e-06
-2.23026e-07
1.19771e-06
4.43152e-07
1.15366e-06
1.36618e-06
1.22134e-06
2.46669e-06
1.32234e-06
3.66556e-06
1.3876e-06
4.87948e-06
1.37109e-06
6.02752e-06
1.2559e-06
7.04064e-06
1.05462e-06
7.87048e-06
8.02654e-07
8.4932e-06
5.43009e-07
8.90663e-06
3.09625e-07
9.12372e-06
1.17678e-07
9.16447e-06
-2.57217e-08
9.09306e-06
-1.04146e-07
8.95224e-06
-1.54015e-07
8.75521e-06
-1.99446e-07
8.50045e-06
-2.52383e-07
8.1785e-06
-3.18847e-07
7.77553e-06
-4.01985e-07
7.27515e-06
-5.04446e-07
6.65857e-06
-6.31681e-07
5.90368e-06
-7.96917e-07
4.98465e-06
-1.02901e-06
3.87586e-06
-1.38351e-06
2.57307e-06
-1.9515e-06
1.1797e-06
-2.82733e-06
1.12956e-07
-3.82597e-06
-3.32962e-06
-3.93045e-07
1.71728e-06
-5.9574e-08
1.45305e-06
5.43206e-07
9.54995e-07
1.13985e-06
7.34105e-07
1.74824e-06
5.89324e-07
2.41434e-06
4.87561e-07
3.18923e-06
4.46452e-07
4.07076e-06
4.40803e-07
5.01967e-06
4.38691e-07
5.97386e-06
4.16905e-07
6.86419e-06
3.65577e-07
7.62977e-06
2.89042e-07
8.2307e-06
2.0172e-07
8.65387e-06
1.19844e-07
8.9096e-06
5.38888e-08
9.02182e-06
5.45801e-09
9.02085e-06
-2.47506e-08
8.95549e-06
-3.87894e-08
8.85066e-06
-4.9181e-08
8.71187e-06
-6.06571e-08
8.53536e-06
-7.58747e-08
8.31265e-06
-9.61359e-08
8.03277e-06
-1.22106e-07
7.68289e-06
-1.54562e-07
7.24695e-06
-1.9574e-07
6.70191e-06
-2.51881e-07
6.01123e-06
-3.38325e-07
5.11668e-06
-4.88955e-07
3.93531e-06
-7.70139e-07
2.40062e-06
-1.29264e-06
7.39529e-07
-2.16487e-06
-2.59009e-06
1.71728e-06
3.17033e-06
4.12533e-06
4.85943e-06
5.44876e-06
5.93632e-06
6.38277e-06
6.82357e-06
7.26226e-06
7.67917e-06
8.04475e-06
8.33379e-06
8.53551e-06
8.65535e-06
8.70924e-06
8.7147e-06
8.68995e-06
8.65116e-06
8.60198e-06
8.54132e-06
8.46545e-06
8.36931e-06
8.2472e-06
8.09264e-06
7.8969e-06
7.64502e-06
7.3067e-06
6.81774e-06
6.0476e-06
4.75497e-06
2.59009e-06
)
;

boundaryField
{
    movingWall
    {
        type            calculated;
        value           uniform 0;
    }
    fixedWalls
    {
        type            calculated;
        value           uniform 0;
    }
    floor
    {
        type            calculated;
        value           uniform 0;
    }
    frontAndBack
    {
        type            empty;
        value           nonuniform List<scalar> 0();
    }
}


// ************************************************************************* //
