/*--------------------------------*- C++ -*----------------------------------*\
| =========                 |                                                 |
| \\      /  F ield         | OpenFOAM: The Open Source CFD Toolbox           |
|  \\    /   O peration     | Version:  2212                                  |
|   \\  /    A nd           | Website:  www.openfoam.com                      |
|    \\/     M anipulation  |                                                 |
\*---------------------------------------------------------------------------*/
FoamFile
{
    version     2.0;
    format      ascii;
    arch        "LSB;label=64;scalar=64";
    class       volScalarField;
    location    "810";
    object      SIC;
}
// * * * * * * * * * * * * * * * * * * * * * * * * * * * * * * * * * * * * * //

dimensions      [1 -3 0 0 0 0 0];

internalField   nonuniform List<scalar> 
1024
(
0.091065
0.0910672
0.0910728
0.091083
0.0910988
0.0911213
0.0911507
0.0911865
0.0912272
0.0912707
0.0913149
0.091357
0.0913935
0.0914193
0.0914268
0.0914078
0.0913654
0.0913132
0.0912612
0.0912115
0.091165
0.0911216
0.0910814
0.0910447
0.0910124
0.0909851
0.0909634
0.0909472
0.090936
0.0909289
0.090925
0.0909234
0.0910655
0.0910678
0.0910736
0.091084
0.0911003
0.0911233
0.0911534
0.0911897
0.0912309
0.0912748
0.0913193
0.0913618
0.0913986
0.0914245
0.0914317
0.0914122
0.0913693
0.0913168
0.0912645
0.0912146
0.0911679
0.0911243
0.0910839
0.091047
0.0910143
0.0909867
0.0909646
0.0909481
0.0909366
0.0909293
0.0909253
0.0909237
0.0910667
0.0910692
0.0910753
0.0910862
0.0911034
0.0911275
0.0911587
0.0911963
0.0912386
0.0912836
0.0913293
0.0913729
0.0914108
0.0914372
0.0914438
0.0914227
0.0913781
0.0913244
0.0912712
0.0912208
0.0911736
0.0911297
0.091089
0.0910516
0.0910184
0.09099
0.0909671
0.0909499
0.0909379
0.0909303
0.0909262
0.0909244
0.0910688
0.0910715
0.091078
0.0910897
0.091108
0.0911337
0.0911668
0.0912062
0.0912505
0.0912977
0.0913459
0.0913922
0.0914325
0.0914602
0.0914656
0.0914409
0.0913927
0.0913362
0.0912813
0.0912297
0.0911819
0.0911374
0.0910962
0.0910583
0.0910243
0.0909949
0.090971
0.0909528
0.0909401
0.090932
0.0909275
0.0909257
0.0910718
0.0910747
0.0910817
0.0910944
0.0911141
0.0911418
0.0911771
0.0912193
0.0912666
0.0913176
0.0913703
0.0914216
0.0914663
0.0914962
0.0914995
0.0914687
0.0914139
0.0913526
0.0912945
0.0912409
0.0911918
0.0911466
0.0911048
0.0910663
0.0910314
0.0910009
0.0909758
0.0909565
0.0909429
0.0909342
0.0909294
0.0909275
0.0910756
0.0910786
0.0910861
0.0910998
0.0911212
0.091151
0.0911892
0.091235
0.091287
0.0913439
0.0914038
0.0914632
0.0915148
0.0915476
0.0915475
0.0915074
0.0914424
0.0913732
0.0913099
0.0912531
0.0912021
0.0911559
0.0911135
0.0910743
0.0910387
0.0910072
0.090981
0.0909606
0.0909461
0.0909368
0.0909317
0.0909297
0.0910801
0.0910832
0.0910911
0.0911057
0.0911286
0.0911608
0.0912025
0.091253
0.0913114
0.091377
0.0914477
0.0915185
0.0915794
0.0916154
0.0916098
0.0915572
0.091478
0.0913975
0.0913267
0.0912651
0.0912113
0.0911636
0.0911204
0.0910808
0.0910446
0.0910125
0.0909855
0.0909643
0.0909492
0.0909394
0.0909341
0.0909319
0.0910848
0.0910881
0.0910964
0.0911117
0.0911361
0.0911707
0.0912163
0.0912729
0.0913401
0.0914176
0.0915028
0.0915886
0.0916607
0.0916989
0.0916851
0.0916165
0.0915192
0.091424
0.0913429
0.0912749
0.0912173
0.0911676
0.0911235
0.0910837
0.0910476
0.0910154
0.0909882
0.0909668
0.0909514
0.0909415
0.0909361
0.0909339
0.0910898
0.0910931
0.0911017
0.0911177
0.0911433
0.0911806
0.0912308
0.0912949
0.0913734
0.0914663
0.09157
0.0916741
0.0917581
0.0917963
0.0917705
0.0916827
0.0915639
0.0914505
0.0913567
0.0912804
0.091218
0.0911658
0.091121
0.0910814
0.0910458
0.0910145
0.090988
0.0909671
0.0909521
0.0909425
0.0909371
0.0909349
0.0910947
0.0910981
0.0911069
0.0911235
0.0911506
0.0911908
0.0912466
0.0913199
0.0914126
0.0915247
0.0916509
0.0917757
0.091871
0.0919058
0.0918641
0.0917545
0.0916115
0.0914764
0.0913665
0.0912797
0.0912113
0.0911563
0.0911109
0.091072
0.0910381
0.0910086
0.0909838
0.0909645
0.0909505
0.0909415
0.0909364
0.0909343
0.0910997
0.0911032
0.0911124
0.0911297
0.0911586
0.0912024
0.0912649
0.0913498
0.09146
0.0915956
0.0917481
0.0918952
0.092
0.0920277
0.0919676
0.0918356
0.0916674
0.0915065
0.0913753
0.0912739
0.0911971
0.0911382
0.0910921
0.0910548
0.0910234
0.0909969
0.0909751
0.0909581
0.0909458
0.0909378
0.0909331
0.0909311
0.091105
0.0911087
0.0911184
0.091137
0.0911682
0.0912168
0.0912881
0.0913876
0.0915196
0.0916836
0.0918662
0.0920362
0.092148
0.0921666
0.0920901
0.0919408
0.0917503
0.0915597
0.0913985
0.0912733
0.0911812
0.0911144
0.0910659
0.0910298
0.0910017
0.0909791
0.0909611
0.0909473
0.0909372
0.0909304
0.0909263
0.0909245
0.0911111
0.0911152
0.0911258
0.0911462
0.091181
0.0912363
0.0913193
0.0914377
0.0915969
0.0917947
0.092011
0.0922038
0.0923214
0.0923342
0.0922522
0.0921007
0.0918996
0.0916807
0.0914798
0.0913138
0.0911885
0.0911002
0.0910407
0.0910013
0.0909747
0.0909559
0.0909419
0.0909315
0.0909239
0.090919
0.0909161
0.0909149
0.0911185
0.0911231
0.0911351
0.0911583
0.0911985
0.0912633
0.091362
0.0915047
0.0916972
0.0919343
0.092187
0.0924031
0.0925301
0.0925505
0.0924874
0.0923636
0.0921801
0.0919516
0.091714
0.0914936
0.0913083
0.0911658
0.0910657
0.0910004
0.0909607
0.0909374
0.0909243
0.0909179
0.0909159
0.0909167
0.0909185
0.0909199
0.0911281
0.0911336
0.0911477
0.091175
0.0912225
0.0912995
0.0914178
0.0915894
0.0918201
0.0921001
0.0923914
0.0926344
0.0927823
0.092835
0.0928267
0.092775
0.0926631
0.0924844
0.0922608
0.092018
0.0917795
0.0915644
0.0913844
0.0912446
0.0911475
0.091085
0.0910521
0.0910418
0.0910462
0.0910571
0.0910678
0.0910742
0.091137
0.0911435
0.09116
0.0911919
0.0912471
0.0913368
0.0914752
0.0916761
0.0919448
0.0922672
0.0925975
0.0928734
0.093057
0.0931635
0.093234
0.0932876
0.0933082
0.0932763
0.0931896
0.0930568
0.092891
0.092707
0.0925193
0.0923406
0.0921822
0.0920482
0.0919443
0.091873
0.0918314
0.0918127
0.0918078
0.0918084
0.0911402
0.0911478
0.0911665
0.0912017
0.0912617
0.0913584
0.0915069
0.0917216
0.0920081
0.0923493
0.0926984
0.0929965
0.0932094
0.0933515
0.093462
0.0935685
0.0936774
0.093784
0.0938758
0.0939425
0.0939769
0.0939758
0.0939394
0.093871
0.0937762
0.0936646
0.0935465
0.093434
0.0933391
0.0932703
0.09323
0.0932137
0.0911296
0.0911375
0.0911565
0.0911912
0.0912486
0.0913395
0.0914775
0.0916764
0.0919417
0.0922598
0.0925918
0.0928883
0.0931139
0.0932662
0.0933678
0.093445
0.09352
0.0936157
0.093736
0.0938719
0.0940106
0.0941394
0.0942476
0.0943273
0.0943735
0.0943854
0.094366
0.0943237
0.0942708
0.0942213
0.094186
0.0941691
0.091108
0.0911155
0.091133
0.0911641
0.0912144
0.0912922
0.0914086
0.0915756
0.0918006
0.0920757
0.0923732
0.0926533
0.0928818
0.0930459
0.0931536
0.0932227
0.0932756
0.0933453
0.0934451
0.093575
0.0937273
0.0938899
0.0940493
0.094193
0.0943115
0.0943997
0.0944565
0.0944849
0.0944913
0.0944846
0.0944744
0.0944677
0.0910862
0.091092
0.0911058
0.0911309
0.0911717
0.0912344
0.0913273
0.0914601
0.09164
0.0918644
0.0921157
0.092365
0.0925837
0.0927562
0.0928835
0.0929771
0.0930512
0.0931319
0.093233
0.0933628
0.0935217
0.0937032
0.093895
0.0940804
0.0942436
0.0943739
0.0944671
0.0945255
0.0945556
0.0945664
0.094567
0.0945651
0.0910802
0.0910829
0.0910905
0.0911064
0.0911349
0.0911813
0.0912519
0.0913538
0.0914928
0.0916688
0.0918712
0.0920806
0.0922763
0.0924469
0.0925936
0.0927264
0.0928484
0.0929672
0.0930904
0.0932294
0.093391
0.093576
0.0937788
0.0939861
0.0941807
0.0943466
0.0944732
0.0945582
0.0946067
0.0946282
0.0946338
0.0946334
0.0911075
0.0911059
0.0911046
0.0911075
0.0911197
0.0911472
0.0911955
0.0912696
0.0913737
0.091508
0.0916658
0.0918348
0.0920023
0.092164
0.0923269
0.0925025
0.0926829
0.0928525
0.0930096
0.0931665
0.0933338
0.0935179
0.0937193
0.0939308
0.0941386
0.0943257
0.0944773
0.0945855
0.0946516
0.0946839
0.0946943
0.0946951
0.0911821
0.0911756
0.0911634
0.0911495
0.0911407
0.0911448
0.0911682
0.0912155
0.0912889
0.0913881
0.0915087
0.0916433
0.0917869
0.091943
0.0921244
0.0923441
0.0925819
0.0928013
0.0929921
0.0931676
0.0933408
0.0935216
0.0937151
0.0939193
0.0941256
0.0943198
0.0944859
0.0946114
0.0946928
0.0947354
0.0947508
0.0947528
0.0913128
0.0913009
0.0912764
0.0912428
0.0912083
0.0911838
0.0911785
0.0911976
0.0912427
0.0913128
0.0914052
0.0915173
0.0916503
0.0918135
0.0920216
0.0922848
0.0925705
0.0928278
0.093043
0.0932303
0.0934046
0.093578
0.0937585
0.0939483
0.094143
0.0943324
0.094502
0.0946376
0.0947308
0.0947828
0.0948033
0.0948067
0.0915031
0.0914857
0.0914484
0.0913937
0.0913312
0.0912747
0.0912377
0.091228
0.0912478
0.0912968
0.091374
0.0914806
0.0916217
0.091807
0.0920474
0.0923463
0.092662
0.0929386
0.0931631
0.0933515
0.0935196
0.0936803
0.093843
0.0940127
0.0941886
0.0943644
0.0945283
0.0946662
0.0947666
0.0948262
0.0948516
0.0948566
0.0917534
0.0917306
0.091682
0.0916099
0.0915236
0.091439
0.0913733
0.091339
0.091341
0.0913805
0.0914579
0.0915757
0.0917382
0.0919509
0.0922171
0.0925333
0.0928549
0.0931291
0.0933466
0.0935248
0.093679
0.093822
0.0939632
0.0941088
0.0942606
0.0944159
0.0945663
0.0946989
0.0948012
0.0948659
0.0948957
0.0949023
0.0920624
0.0920353
0.0919814
0.091904
0.0918102
0.0917132
0.0916323
0.0915856
0.0915811
0.0916219
0.0917088
0.0918429
0.0920245
0.0922528
0.0925244
0.0928319
0.0931337
0.0933854
0.0935818
0.0937399
0.093874
0.0939954
0.0941128
0.0942322
0.0943568
0.0944868
0.0946171
0.0947377
0.0948359
0.0949023
0.0949354
0.0949438
0.0924295
0.0924013
0.0923544
0.0922923
0.0922162
0.0921324
0.0920573
0.0920134
0.0920117
0.0920567
0.0921494
0.0922886
0.0924707
0.0926904
0.0929406
0.0932132
0.0934738
0.0936877
0.0938527
0.0939841
0.0940939
0.0941915
0.0942841
0.094377
0.0944738
0.094576
0.0946817
0.0947841
0.0948726
0.0949365
0.094971
0.094981
0.0928585
0.0928355
0.092812
0.0927861
0.0927491
0.0926996
0.0926484
0.0926178
0.0926209
0.0926642
0.0927491
0.0928735
0.0930321
0.093218
0.0934236
0.0936422
0.0938476
0.0940145
0.0941424
0.0942434
0.094327
0.0944002
0.0944686
0.0945363
0.0946064
0.0946809
0.0947597
0.0948397
0.0949128
0.0949695
0.0950028
0.0950138
0.0933627
0.0933542
0.0933665
0.0933822
0.093386
0.0933736
0.0933506
0.0933349
0.0933398
0.093373
0.093437
0.09353
0.0936472
0.0937826
0.0939302
0.094085
0.0942291
0.0943456
0.0944345
0.0945044
0.0945618
0.0946115
0.0946574
0.0947022
0.0947482
0.0947971
0.0948497
0.0949049
0.0949585
0.095003
0.0950317
0.0950424
0.0939675
0.0939821
0.0940206
0.0940555
0.0940778
0.0940856
0.0940814
0.0940759
0.0940794
0.0940986
0.0941358
0.0941903
0.0942592
0.0943385
0.0944245
0.0945141
0.0945974
0.0946645
0.0947156
0.0947556
0.0947883
0.0948165
0.0948422
0.094867
0.0948923
0.094919
0.0949479
0.094979
0.0950106
0.0950388
0.0950587
0.0950672
0.0947024
0.0947141
0.0947351
0.0947526
0.0947645
0.0947705
0.0947713
0.0947703
0.0947714
0.0947773
0.0947891
0.0948066
0.0948288
0.0948543
0.094882
0.0949109
0.0949376
0.0949592
0.0949756
0.0949884
0.0949989
0.0950078
0.0950159
0.0950237
0.0950316
0.0950399
0.0950489
0.0950586
0.0950686
0.0950781
0.0950853
0.0950888
)
;

boundaryField
{
    movingWall
    {
        type            fixedValue;
        value           uniform 0.0951;
    }
    fixedWalls
    {
        type            zeroGradient;
    }
    floor
    {
        type            zeroGradient;
    }
    frontAndBack
    {
        type            empty;
    }
}


// ************************************************************************* //
