/*--------------------------------*- C++ -*----------------------------------*\
| =========                 |                                                 |
| \\      /  F ield         | OpenFOAM: The Open Source CFD Toolbox           |
|  \\    /   O peration     | Version:  2212                                  |
|   \\  /    A nd           | Website:  www.openfoam.com                      |
|    \\/     M anipulation  |                                                 |
\*---------------------------------------------------------------------------*/
FoamFile
{
    version     2.0;
    format      ascii;
    arch        "LSB;label=64;scalar=64";
    class       volScalarField;
    location    "810";
    object      T;
}
// * * * * * * * * * * * * * * * * * * * * * * * * * * * * * * * * * * * * * //

dimensions      [0 0 0 1 0 0 0];

internalField   nonuniform List<scalar> 
1024
(
309.993
309.993
309.993
309.992
309.991
309.989
309.987
309.986
309.984
309.982
309.98
309.977
309.975
309.973
309.973
309.975
309.978
309.98
309.982
309.984
309.985
309.986
309.987
309.988
309.989
309.99
309.991
309.992
309.993
309.994
309.994
309.994
309.979
309.978
309.977
309.974
309.97
309.966
309.961
309.955
309.949
309.943
309.936
309.928
309.922
309.917
309.917
309.923
309.931
309.938
309.944
309.949
309.954
309.957
309.961
309.964
309.967
309.97
309.973
309.976
309.979
309.98
309.981
309.981
309.963
309.962
309.959
309.955
309.948
309.939
309.93
309.92
309.91
309.899
309.887
309.875
309.864
309.856
309.856
309.866
309.879
309.891
309.901
309.91
309.918
309.924
309.93
309.936
309.941
309.947
309.953
309.958
309.962
309.965
309.967
309.967
309.946
309.944
309.941
309.933
309.923
309.91
309.896
309.882
309.867
309.852
309.835
309.82
309.807
309.797
309.796
309.809
309.825
309.84
309.855
309.867
309.878
309.888
309.896
309.905
309.913
309.921
309.93
309.938
309.944
309.949
309.951
309.952
309.928
309.926
309.921
309.911
309.897
309.88
309.861
309.843
309.824
309.805
309.786
309.77
309.757
309.747
309.746
309.758
309.774
309.791
309.808
309.823
309.836
309.849
309.86
309.871
309.882
309.893
309.905
309.916
309.925
309.932
309.935
309.936
309.911
309.908
309.902
309.889
309.871
309.85
309.827
309.805
309.784
309.764
309.746
309.731
309.719
309.71
309.709
309.719
309.732
309.747
309.764
309.78
309.795
309.81
309.823
309.837
309.85
309.865
309.879
309.893
309.906
309.914
309.919
309.92
309.893
309.891
309.883
309.868
309.847
309.823
309.797
309.773
309.751
309.732
309.717
309.704
309.695
309.688
309.687
309.693
309.703
309.715
309.728
309.743
309.758
309.773
309.788
309.804
309.819
309.836
309.854
309.871
309.886
309.897
309.902
309.904
309.877
309.875
309.866
309.85
309.827
309.8
309.774
309.749
309.728
309.712
309.699
309.688
309.68
309.676
309.675
309.68
309.687
309.695
309.704
309.716
309.729
309.743
309.758
309.774
309.791
309.81
309.831
309.851
309.868
309.88
309.887
309.888
309.862
309.86
309.852
309.835
309.811
309.783
309.756
309.733
309.714
309.7
309.689
309.679
309.672
309.669
309.669
309.673
309.679
309.685
309.691
309.698
309.708
309.72
309.734
309.75
309.768
309.789
309.811
309.833
309.853
309.866
309.872
309.874
309.849
309.847
309.839
309.822
309.798
309.771
309.745
309.723
309.706
309.693
309.683
309.673
309.667
309.665
309.666
309.67
309.676
309.682
309.686
309.69
309.696
309.705
309.717
309.732
309.751
309.772
309.796
309.82
309.84
309.853
309.859
309.86
309.837
309.834
309.827
309.812
309.789
309.763
309.738
309.717
309.702
309.689
309.678
309.668
309.663
309.661
309.664
309.669
309.676
309.682
309.686
309.688
309.691
309.698
309.708
309.722
309.74
309.763
309.787
309.811
309.83
309.842
309.847
309.848
309.825
309.824
309.817
309.803
309.782
309.757
309.734
309.714
309.698
309.685
309.673
309.663
309.658
309.658
309.662
309.668
309.676
309.684
309.69
309.692
309.692
309.697
309.706
309.72
309.738
309.761
309.785
309.807
309.823
309.832
309.836
309.837
309.816
309.814
309.808
309.795
309.776
309.753
309.73
309.711
309.695
309.68
309.667
309.657
309.653
309.654
309.658
309.665
309.674
309.684
309.693
309.7
309.703
309.706
309.715
309.728
309.747
309.767
309.788
309.805
309.817
309.823
309.826
309.826
309.808
309.806
309.8
309.788
309.77
309.749
309.727
309.707
309.69
309.673
309.659
309.649
309.646
309.647
309.651
309.657
309.667
309.679
309.693
309.705
309.717
309.726
309.735
309.747
309.761
309.776
309.791
309.803
309.81
309.814
309.815
309.815
309.801
309.8
309.794
309.783
309.767
309.746
309.724
309.703
309.682
309.663
309.649
309.64
309.636
309.635
309.637
309.642
309.65
309.661
309.675
309.691
309.708
309.726
309.744
309.759
309.77
309.78
309.789
309.796
309.8
309.802
309.802
309.802
309.797
309.795
309.79
309.78
309.765
309.745
309.722
309.698
309.674
309.652
309.634
309.624
309.619
309.617
309.615
309.616
309.619
309.625
309.633
309.642
309.652
309.664
309.678
309.694
309.713
309.731
309.748
309.76
309.767
309.769
309.769
309.768
309.795
309.793
309.789
309.78
309.767
309.748
309.725
309.698
309.67
309.642
309.62
309.606
309.598
309.593
309.591
309.59
309.59
309.593
309.596
309.599
309.603
309.606
309.61
309.614
309.618
309.623
309.629
309.637
309.648
309.658
309.664
309.667
309.792
309.791
309.788
309.782
309.771
309.755
309.733
309.707
309.676
309.646
309.62
309.602
309.59
309.583
309.578
309.577
309.577
309.579
309.582
309.586
309.59
309.593
309.596
309.599
309.602
309.603
309.605
309.606
309.606
309.607
309.608
309.609
309.789
309.788
309.787
309.782
309.774
309.761
309.744
309.721
309.693
309.661
309.631
309.609
309.594
309.583
309.576
309.572
309.572
309.574
309.577
309.581
309.585
309.59
309.594
309.598
309.601
309.603
309.605
309.605
309.605
309.604
309.604
309.603
309.783
309.783
309.783
309.781
309.776
309.767
309.753
309.734
309.711
309.683
309.653
309.628
309.608
309.594
309.584
309.577
309.575
309.575
309.577
309.58
309.583
309.588
309.592
309.597
309.601
309.605
309.607
309.608
309.608
309.608
309.607
309.606
309.773
309.774
309.777
309.778
309.775
309.769
309.759
309.745
309.726
309.702
309.676
309.652
309.631
309.614
309.602
309.592
309.587
309.584
309.583
309.583
309.585
309.588
309.592
309.597
309.602
309.606
309.609
309.611
309.611
309.611
309.61
309.609
309.758
309.761
309.766
309.77
309.772
309.77
309.763
309.752
309.737
309.718
309.697
309.675
309.655
309.638
309.624
309.612
309.603
309.597
309.593
309.591
309.591
309.592
309.595
309.598
309.603
309.607
309.611
309.613
309.614
309.614
309.613
309.612
309.741
309.745
309.752
309.759
309.765
309.766
309.764
309.756
309.745
309.73
309.713
309.695
309.677
309.661
309.646
309.632
309.62
309.611
309.605
309.601
309.599
309.598
309.599
309.602
309.605
309.609
309.612
309.615
309.617
309.617
309.616
309.615
309.724
309.728
309.736
309.746
309.755
309.76
309.761
309.758
309.75
309.739
309.725
309.71
309.695
309.68
309.666
309.651
309.637
309.626
309.617
309.612
309.608
309.606
309.606
309.607
309.609
309.612
309.615
309.617
309.619
309.619
309.619
309.618
309.709
309.713
309.721
309.733
309.745
309.753
309.757
309.756
309.752
309.743
309.733
309.721
309.708
309.695
309.681
309.665
309.65
309.638
309.629
309.622
309.617
309.614
309.613
309.612
309.613
309.615
309.617
309.619
309.621
309.621
309.621
309.62
309.7
309.703
309.711
309.723
309.735
309.746
309.752
309.753
309.751
309.745
309.737
309.727
309.716
309.704
309.691
309.675
309.661
309.649
309.639
309.632
309.626
309.622
309.62
309.619
309.619
309.619
309.62
309.622
309.623
309.623
309.623
309.622
309.695
309.698
309.706
309.716
309.728
309.739
309.746
309.749
309.748
309.744
309.738
309.73
309.72
309.709
309.696
309.682
309.668
309.657
309.647
309.64
309.634
309.63
309.627
309.625
309.624
309.624
309.624
309.624
309.625
309.625
309.625
309.624
309.692
309.695
309.702
309.711
309.721
309.731
309.739
309.742
309.742
309.74
309.735
309.728
309.72
309.71
309.698
309.686
309.673
309.663
309.654
309.647
309.642
309.637
309.634
309.631
309.629
309.628
309.628
309.627
309.627
309.627
309.627
309.626
309.69
309.693
309.699
309.706
309.714
309.722
309.729
309.733
309.733
309.732
309.728
309.723
309.716
309.708
309.698
309.687
309.676
309.667
309.659
309.653
309.648
309.643
309.64
309.637
309.634
309.633
309.631
309.63
309.63
309.629
309.628
309.628
309.687
309.69
309.694
309.699
309.705
309.711
309.716
309.72
309.721
309.721
309.719
309.715
309.71
309.704
309.697
309.688
309.678
309.67
309.663
309.657
309.652
309.648
309.644
309.641
309.639
309.637
309.635
309.633
309.632
309.631
309.63
309.629
309.685
309.687
309.689
309.692
309.695
309.699
309.703
309.706
309.708
309.709
309.709
309.708
309.705
309.701
309.695
309.688
309.68
309.672
309.666
309.66
309.655
309.651
309.648
309.645
309.642
309.64
309.638
309.636
309.634
309.633
309.631
309.63
309.684
309.684
309.685
309.687
309.689
309.691
309.694
309.697
309.7
309.702
309.704
309.704
309.702
309.699
309.694
309.688
309.68
309.673
309.667
309.662
309.657
309.653
309.649
309.646
309.644
309.641
309.639
309.637
309.636
309.634
309.633
309.631
)
;

boundaryField
{
    movingWall
    {
        type            zeroGradient;
    }
    fixedWalls
    {
        type            zeroGradient;
    }
    floor
    {
        type            fixedValue;
        value           uniform 310;
    }
    frontAndBack
    {
        type            empty;
    }
}


// ************************************************************************* //
