/*--------------------------------*- C++ -*----------------------------------*\
| =========                 |                                                 |
| \\      /  F ield         | OpenFOAM: The Open Source CFD Toolbox           |
|  \\    /   O peration     | Version:  2212                                  |
|   \\  /    A nd           | Website:  www.openfoam.com                      |
|    \\/     M anipulation  |                                                 |
\*---------------------------------------------------------------------------*/
FoamFile
{
    version     2.0;
    format      ascii;
    arch        "LSB;label=64;scalar=64";
    class       volScalarField;
    location    "810";
    object      Xli;
}
// * * * * * * * * * * * * * * * * * * * * * * * * * * * * * * * * * * * * * //

dimensions      [1 -3 0 0 0 0 0];

internalField   nonuniform List<scalar> 
1024
(
0.0422576
0.0422584
0.0422605
0.0422642
0.04227
0.0422782
0.0422889
0.042302
0.0423168
0.0423326
0.0423485
0.0423636
0.0423766
0.0423857
0.042388
0.0423806
0.0423648
0.0423456
0.0423264
0.0423081
0.0422909
0.0422748
0.0422599
0.0422463
0.0422342
0.042224
0.0422158
0.0422098
0.0422055
0.0422029
0.0422014
0.0422008
0.0422578
0.0422586
0.0422607
0.0422646
0.0422705
0.0422789
0.0422899
0.0423031
0.0423181
0.042334
0.0423501
0.0423653
0.0423784
0.0423875
0.0423897
0.0423822
0.0423662
0.0423468
0.0423276
0.0423092
0.0422919
0.0422758
0.0422608
0.0422471
0.0422349
0.0422246
0.0422163
0.0422101
0.0422058
0.0422031
0.0422015
0.0422009
0.0422582
0.0422591
0.0422614
0.0422654
0.0422716
0.0422804
0.0422918
0.0423055
0.0423209
0.0423372
0.0423537
0.0423693
0.0423828
0.0423921
0.042394
0.0423859
0.0423693
0.0423495
0.04233
0.0423114
0.042294
0.0422778
0.0422627
0.0422488
0.0422364
0.0422258
0.0422172
0.0422108
0.0422063
0.0422034
0.0422019
0.0422012
0.042259
0.04226
0.0422623
0.0422666
0.0422733
0.0422827
0.0422948
0.0423091
0.0423252
0.0423423
0.0423597
0.0423763
0.0423906
0.0424003
0.0424018
0.0423924
0.0423745
0.0423537
0.0423335
0.0423146
0.042297
0.0422806
0.0422653
0.0422513
0.0422386
0.0422276
0.0422187
0.0422119
0.0422071
0.042204
0.0422024
0.0422017
0.0422601
0.0422611
0.0422637
0.0422683
0.0422756
0.0422856
0.0422985
0.0423139
0.0423311
0.0423495
0.0423685
0.0423869
0.0424028
0.0424132
0.0424138
0.0424022
0.0423819
0.0423594
0.0423381
0.0423185
0.0423005
0.0422838
0.0422684
0.0422542
0.0422412
0.0422298
0.0422204
0.0422132
0.0422081
0.0422049
0.0422031
0.0422023
0.0422615
0.0422626
0.0422653
0.0422703
0.0422781
0.042289
0.0423029
0.0423196
0.0423384
0.042359
0.0423806
0.0424018
0.0424201
0.0424315
0.0424308
0.0424158
0.0423918
0.0423665
0.0423434
0.0423227
0.042304
0.0422871
0.0422715
0.042257
0.0422438
0.0422321
0.0422223
0.0422147
0.0422093
0.0422058
0.0422039
0.0422031
0.0422631
0.0422642
0.0422672
0.0422725
0.0422808
0.0422926
0.0423077
0.0423261
0.0423473
0.042371
0.0423964
0.0424218
0.0424433
0.0424557
0.0424529
0.0424332
0.042404
0.0423747
0.0423489
0.0423266
0.042307
0.0422896
0.0422738
0.0422593
0.0422459
0.042234
0.0422239
0.0422161
0.0422104
0.0422068
0.0422048
0.0422039
0.0422648
0.042266
0.0422691
0.0422747
0.0422835
0.0422962
0.0423128
0.0423333
0.0423577
0.0423856
0.0424163
0.042447
0.0424724
0.0424854
0.0424794
0.0424538
0.0424181
0.0423834
0.0423541
0.0423296
0.0423088
0.0422907
0.0422747
0.0422601
0.0422468
0.042235
0.0422249
0.0422169
0.0422112
0.0422075
0.0422055
0.0422046
0.0422666
0.0422679
0.042271
0.0422768
0.0422862
0.0422998
0.042318
0.0423413
0.0423697
0.0424032
0.0424405
0.0424777
0.0425073
0.04252
0.0425094
0.0424767
0.0424331
0.042392
0.0423582
0.0423308
0.0423084
0.0422896
0.0422734
0.042259
0.042246
0.0422345
0.0422247
0.042217
0.0422114
0.0422078
0.0422058
0.042205
0.0422684
0.0422697
0.0422729
0.042279
0.0422888
0.0423035
0.0423237
0.0423503
0.0423838
0.0424243
0.0424696
0.0425141
0.0425475
0.0425587
0.0425422
0.0425013
0.0424489
0.0424001
0.0423606
0.0423296
0.0423052
0.0422855
0.0422692
0.0422552
0.0422429
0.0422321
0.042223
0.0422159
0.0422107
0.0422073
0.0422054
0.0422046
0.0422702
0.0422715
0.0422749
0.0422812
0.0422917
0.0423076
0.0423303
0.0423611
0.042401
0.0424498
0.0425045
0.0425569
0.0425935
0.0426018
0.0425782
0.042529
0.0424675
0.0424094
0.0423624
0.0423263
0.0422991
0.0422782
0.0422618
0.0422484
0.0422371
0.0422275
0.0422196
0.0422133
0.0422088
0.0422058
0.0422041
0.0422034
0.0422722
0.0422735
0.0422771
0.0422838
0.0422952
0.0423128
0.0423387
0.0423748
0.0424225
0.0424815
0.042547
0.0426073
0.0426461
0.0426507
0.042621
0.0425653
0.0424957
0.0424269
0.0423692
0.0423248
0.0422922
0.0422687
0.0422516
0.0422388
0.0422288
0.0422207
0.0422142
0.0422092
0.0422054
0.0422029
0.0422014
0.0422007
0.0422744
0.0422759
0.0422797
0.0422871
0.0422998
0.0423199
0.04235
0.0423929
0.0424503
0.0425215
0.042599
0.0426673
0.0427078
0.04271
0.0426779
0.0426212
0.0425476
0.0424685
0.0423967
0.0423378
0.0422936
0.0422626
0.0422417
0.0422279
0.0422185
0.0422119
0.0422069
0.0422031
0.0422003
0.0421984
0.0421974
0.0421969
0.042277
0.0422787
0.0422831
0.0422915
0.0423061
0.0423296
0.0423654
0.042417
0.0424865
0.0425719
0.0426623
0.0427388
0.0427823
0.0427868
0.0427613
0.0427143
0.0426465
0.0425637
0.0424786
0.0424003
0.0423348
0.0422846
0.0422495
0.0422266
0.0422127
0.0422045
0.0421999
0.0421975
0.0421967
0.0421969
0.0421975
0.042198
0.0422805
0.0422825
0.0422876
0.0422975
0.0423148
0.0423427
0.0423856
0.0424477
0.042531
0.0426317
0.042736
0.042822
0.0428729
0.0428889
0.0428828
0.0428611
0.0428182
0.0427522
0.0426714
0.0425846
0.0425
0.0424241
0.0423607
0.0423116
0.0422774
0.0422555
0.0422439
0.0422403
0.0422418
0.0422455
0.0422493
0.0422515
0.0422836
0.042286
0.042292
0.0423036
0.0423237
0.0423562
0.0424064
0.0424791
0.0425762
0.0426924
0.0428109
0.042909
0.0429729
0.0430085
0.0430307
0.0430462
0.0430493
0.043034
0.043
0.0429506
0.0428906
0.0428249
0.0427583
0.0426954
0.0426398
0.0425928
0.0425565
0.0425316
0.0425172
0.0425106
0.042509
0.0425092
0.0422847
0.0422875
0.0422943
0.0423071
0.0423289
0.0423641
0.042418
0.0424959
0.0425996
0.0427231
0.0428489
0.0429558
0.0430313
0.0430807
0.0431181
0.0431529
0.043187
0.0432192
0.0432459
0.0432644
0.0432723
0.0432687
0.0432537
0.0432284
0.0431946
0.0431555
0.0431144
0.0430756
0.0430428
0.0430192
0.0430053
0.0429998
0.0422807
0.0422836
0.0422906
0.0423032
0.0423241
0.0423572
0.0424074
0.0424797
0.0425762
0.0426918
0.0428123
0.0429198
0.0430013
0.0430559
0.0430918
0.043118
0.0431415
0.0431703
0.0432062
0.043247
0.0432887
0.0433274
0.04336
0.0433838
0.0433972
0.0433999
0.0433927
0.0433783
0.0433605
0.043344
0.0433322
0.0433265
0.0422727
0.0422755
0.0422819
0.0422932
0.0423116
0.04234
0.0423824
0.0424433
0.0425253
0.0426257
0.0427343
0.0428366
0.0429202
0.0429803
0.0430197
0.0430446
0.0430622
0.0430836
0.0431136
0.0431525
0.0431981
0.0432468
0.0432946
0.0433378
0.0433736
0.0434005
0.043418
0.043427
0.0434293
0.0434275
0.0434245
0.0434225
0.0422647
0.0422668
0.0422719
0.0422811
0.042296
0.0423189
0.0423528
0.0424013
0.0424671
0.0425491
0.0426412
0.0427328
0.0428133
0.0428771
0.0429243
0.0429589
0.0429851
0.0430118
0.0430437
0.0430838
0.0431325
0.0431877
0.0432459
0.0433019
0.0433511
0.0433904
0.0434187
0.0434366
0.0434461
0.0434498
0.0434503
0.0434499
0.0422627
0.0422636
0.0422664
0.0422722
0.0422826
0.0422995
0.0423253
0.0423625
0.0424134
0.0424779
0.0425523
0.0426294
0.0427018
0.0427651
0.0428195
0.0428683
0.042912
0.0429528
0.0429935
0.043038
0.0430887
0.0431459
0.0432081
0.0432713
0.0433303
0.0433805
0.0434189
0.0434447
0.0434596
0.0434665
0.0434685
0.0434686
0.0422728
0.0422723
0.0422718
0.0422728
0.0422772
0.0422872
0.0423048
0.0423319
0.04237
0.0424193
0.0424773
0.0425397
0.0426018
0.0426618
0.0427218
0.0427856
0.0428498
0.0429087
0.0429618
0.0430133
0.043067
0.0431249
0.0431875
0.0432525
0.043316
0.0433728
0.0434188
0.0434516
0.0434717
0.0434817
0.0434852
0.0434856
0.0422997
0.0422974
0.0422931
0.0422881
0.0422849
0.0422864
0.042295
0.0423122
0.0423391
0.0423756
0.0424199
0.0424697
0.0425228
0.0425802
0.0426462
0.0427249
0.0428088
0.042885
0.0429501
0.0430087
0.0430652
0.043123
0.0431838
0.0432471
0.0433106
0.0433698
0.0434203
0.0434583
0.043483
0.0434961
0.043501
0.0435018
0.0423456
0.0423415
0.0423329
0.0423211
0.042309
0.0423004
0.0422987
0.0423058
0.0423224
0.0423481
0.042382
0.0424232
0.0424718
0.0425309
0.0426053
0.0426983
0.0427982
0.0428873
0.0429609
0.0430239
0.0430814
0.0431375
0.0431949
0.0432542
0.0433145
0.0433726
0.0434242
0.0434654
0.0434936
0.0435094
0.0435158
0.043517
0.0424111
0.0424051
0.0423923
0.0423734
0.0423518
0.0423322
0.0423195
0.0423163
0.0423238
0.0423417
0.0423697
0.0424081
0.0424586
0.0425243
0.0426087
0.042713
0.0428225
0.0429179
0.0429947
0.0430584
0.0431143
0.0431667
0.0432189
0.0432724
0.0433271
0.0433813
0.0434314
0.0434733
0.0435036
0.0435217
0.0435295
0.0435312
0.0424959
0.0424881
0.0424715
0.0424469
0.0424174
0.0423884
0.0423659
0.0423543
0.0423553
0.0423694
0.0423967
0.0424381
0.0424949
0.0425689
0.0426611
0.0427703
0.0428811
0.0429754
0.0430497
0.0431101
0.0431617
0.0432087
0.0432543
0.0433005
0.043348
0.0433961
0.0434422
0.0434825
0.0435134
0.043533
0.0435421
0.0435442
0.0425994
0.0425902
0.042572
0.0425457
0.0425138
0.0424808
0.0424532
0.0424373
0.0424358
0.0424499
0.0424799
0.042526
0.0425884
0.0426668
0.0427599
0.0428654
0.0429689
0.0430551
0.0431222
0.0431758
0.0432208
0.0432609
0.0432991
0.0433372
0.0433765
0.0434169
0.0434569
0.0434937
0.0435234
0.0435434
0.0435534
0.043556
0.0427214
0.0427119
0.0426961
0.042675
0.0426491
0.0426206
0.0425951
0.0425801
0.0425794
0.0425946
0.0426261
0.0426733
0.0427352
0.04281
0.0428952
0.0429883
0.0430773
0.0431505
0.0432068
0.0432514
0.0432883
0.0433207
0.043351
0.0433808
0.0434114
0.0434434
0.0434759
0.0435072
0.043534
0.0435531
0.0435635
0.0435666
0.0428633
0.0428556
0.0428476
0.0428385
0.0428258
0.0428088
0.0427913
0.0427808
0.0427817
0.0427961
0.0428247
0.0428666
0.0429202
0.0429831
0.0430529
0.0431272
0.0431973
0.0432542
0.0432978
0.0433322
0.0433603
0.0433847
0.0434072
0.043429
0.0434513
0.0434747
0.0434991
0.0435235
0.0435456
0.0435626
0.0435726
0.0435759
0.0430296
0.0430267
0.0430305
0.0430353
0.0430362
0.0430317
0.0430237
0.0430182
0.0430196
0.0430306
0.043052
0.0430832
0.0431227
0.0431684
0.0432183
0.0432709
0.04332
0.0433597
0.04339
0.0434138
0.0434332
0.0434498
0.0434649
0.0434794
0.0434941
0.0435095
0.0435258
0.0435427
0.0435589
0.0435722
0.0435808
0.043584
0.0432284
0.0432332
0.0432457
0.043257
0.0432641
0.0432664
0.0432648
0.0432628
0.0432639
0.0432702
0.0432826
0.0433008
0.043324
0.0433507
0.0433798
0.0434102
0.0434385
0.0434614
0.0434788
0.0434924
0.0435035
0.0435129
0.0435214
0.0435295
0.0435375
0.043546
0.043555
0.0435645
0.0435741
0.0435825
0.0435884
0.0435909
0.0434697
0.0434735
0.0434803
0.043486
0.0434899
0.0434918
0.043492
0.0434916
0.0434919
0.0434938
0.0434978
0.0435036
0.0435111
0.0435197
0.043529
0.0435388
0.0435479
0.0435553
0.0435609
0.0435652
0.0435687
0.0435717
0.0435744
0.043577
0.0435795
0.0435821
0.0435849
0.0435879
0.0435909
0.0435938
0.0435959
0.0435969
)
;

boundaryField
{
    movingWall
    {
        type            fixedValue;
        value           uniform 0.0436;
    }
    fixedWalls
    {
        type            zeroGradient;
    }
    floor
    {
        type            zeroGradient;
    }
    frontAndBack
    {
        type            empty;
    }
}


// ************************************************************************* //
