/*--------------------------------*- C++ -*----------------------------------*\
| =========                 |                                                 |
| \\      /  F ield         | OpenFOAM: The Open Source CFD Toolbox           |
|  \\    /   O peration     | Version:  2212                                  |
|   \\  /    A nd           | Website:  www.openfoam.com                      |
|    \\/     M anipulation  |                                                 |
\*---------------------------------------------------------------------------*/
FoamFile
{
    version     2.0;
    format      ascii;
    arch        "LSB;label=64;scalar=64";
    class       volScalarField;
    location    "810";
    object      Xpr;
}
// * * * * * * * * * * * * * * * * * * * * * * * * * * * * * * * * * * * * * //

dimensions      [1 -3 0 0 0 0 0];

internalField   nonuniform List<scalar> 
1024
(
0.0815591
0.0815607
0.0815647
0.081572
0.0815834
0.0815996
0.0816207
0.0816464
0.0816755
0.0817065
0.0817379
0.0817676
0.0817932
0.081811
0.0818155
0.0818011
0.08177
0.0817321
0.0816944
0.0816584
0.0816246
0.081593
0.0815637
0.0815368
0.081513
0.081493
0.0814769
0.081465
0.0814567
0.0814514
0.0814485
0.0814474
0.0815594
0.0815611
0.0815653
0.0815728
0.0815845
0.081601
0.0816226
0.0816487
0.0816781
0.0817095
0.0817411
0.081771
0.0817968
0.0818147
0.081819
0.0818043
0.0817728
0.0817346
0.0816967
0.0816606
0.0816267
0.081595
0.0815655
0.0815385
0.0815145
0.0814941
0.0814778
0.0814656
0.0814571
0.0814518
0.0814488
0.0814476
0.0815603
0.0815621
0.0815665
0.0815744
0.0815867
0.081604
0.0816265
0.0816534
0.0816836
0.0817157
0.0817481
0.0817789
0.0818054
0.0818236
0.0818275
0.0818115
0.0817789
0.0817399
0.0817014
0.0816649
0.0816307
0.0815988
0.0815691
0.0815418
0.0815174
0.0814965
0.0814797
0.081467
0.0814581
0.0814525
0.0814494
0.0814482
0.0815619
0.0815638
0.0815684
0.0815769
0.0815901
0.0816085
0.0816322
0.0816605
0.0816921
0.0817257
0.0817599
0.0817926
0.0818208
0.0818398
0.0818427
0.0818242
0.081789
0.0817481
0.0817084
0.0816712
0.0816365
0.0816043
0.0815743
0.0815466
0.0815217
0.0815001
0.0814825
0.0814691
0.0814597
0.0814537
0.0814504
0.0814491
0.081564
0.081566
0.0815711
0.0815802
0.0815944
0.0816143
0.0816396
0.0816698
0.0817036
0.0817399
0.0817772
0.0818134
0.0818447
0.0818651
0.0818664
0.0818435
0.0818036
0.0817593
0.0817174
0.0816788
0.0816434
0.0816107
0.0815804
0.0815523
0.0815268
0.0815044
0.081486
0.0814718
0.0814617
0.0814553
0.0814518
0.0814504
0.0815667
0.0815689
0.0815743
0.0815841
0.0815994
0.0816209
0.0816483
0.081681
0.0817181
0.0817586
0.081801
0.0818429
0.0818789
0.0819012
0.0818999
0.0818703
0.0818231
0.0817733
0.0817278
0.0816871
0.0816504
0.0816171
0.0815864
0.081558
0.0815319
0.0815089
0.0814897
0.0814747
0.081464
0.0814572
0.0814534
0.0814519
0.0815699
0.0815722
0.0815779
0.0815884
0.0816048
0.0816279
0.0816577
0.0816938
0.0817355
0.0817821
0.0818322
0.081882
0.0819245
0.0819488
0.0819433
0.0819045
0.0818472
0.0817894
0.0817388
0.0816948
0.0816563
0.0816221
0.081591
0.0815623
0.0815361
0.0815127
0.0814929
0.0814774
0.0814662
0.0814591
0.0814551
0.0814535
0.0815733
0.0815757
0.0815816
0.0815927
0.0816101
0.081635
0.0816676
0.081708
0.0817559
0.081811
0.0818712
0.0819316
0.0819817
0.0820073
0.0819955
0.0819451
0.0818748
0.0818067
0.081749
0.0817007
0.0816597
0.0816243
0.0815927
0.0815641
0.0815379
0.0815145
0.0814947
0.0814791
0.0814678
0.0814605
0.0814565
0.0814549
0.0815769
0.0815793
0.0815854
0.0815969
0.0816153
0.081642
0.081678
0.0817237
0.0817796
0.0818456
0.0819189
0.081992
0.0820502
0.0820753
0.0820545
0.0819901
0.0819044
0.0818235
0.081757
0.0817031
0.081659
0.081622
0.0815901
0.0815618
0.0815362
0.0815136
0.0814943
0.0814791
0.0814682
0.0814611
0.0814571
0.0814555
0.0815804
0.0815829
0.0815892
0.0816011
0.0816205
0.0816493
0.0816892
0.0817415
0.0818075
0.081887
0.0819761
0.0820637
0.0821295
0.0821515
0.0821189
0.0820384
0.0819355
0.0818393
0.0817617
0.0817007
0.0816526
0.081614
0.0815819
0.0815543
0.0815301
0.0815089
0.081491
0.081477
0.0814668
0.0814602
0.0814565
0.0814549
0.081584
0.0815865
0.0815931
0.0816055
0.0816262
0.0816575
0.0817022
0.0817627
0.0818411
0.0819372
0.0820449
0.0821479
0.0822198
0.0822362
0.0821899
0.0820931
0.081972
0.0818577
0.0817653
0.0816943
0.0816407
0.0815996
0.0815673
0.081541
0.0815188
0.0814999
0.0814843
0.081472
0.0814631
0.0814573
0.0814539
0.0814524
0.0815877
0.0815904
0.0815974
0.0816106
0.081633
0.0816677
0.0817187
0.0817896
0.0818834
0.0819996
0.0821284
0.0822471
0.0823234
0.0823325
0.0822739
0.0821644
0.0820274
0.0818921
0.0817787
0.0816913
0.0816272
0.0815809
0.0815472
0.0815221
0.0815024
0.0814865
0.0814737
0.0814638
0.0814565
0.0814515
0.0814486
0.0814472
0.081592
0.081595
0.0816026
0.0816172
0.0816421
0.0816816
0.0817409
0.0818252
0.0819383
0.0820783
0.0822307
0.0823651
0.0824448
0.082449
0.0823859
0.0822744
0.0821295
0.0819741
0.0818328
0.0817169
0.08163
0.0815689
0.0815278
0.0815006
0.0814822
0.0814691
0.0814593
0.0814518
0.0814463
0.0814427
0.0814406
0.0814396
0.0815973
0.0816006
0.0816092
0.0816258
0.0816545
0.0817008
0.0817712
0.0818727
0.0820095
0.0821773
0.0823552
0.0825057
0.0825913
0.0826003
0.08255
0.0824575
0.0823242
0.0821613
0.0819939
0.0818399
0.081711
0.0816123
0.0815431
0.0814981
0.0814707
0.0814546
0.0814455
0.0814409
0.0814394
0.0814397
0.0814408
0.0814417
0.0816041
0.081608
0.0816181
0.0816376
0.0816716
0.0817265
0.0818109
0.081933
0.0820969
0.0822951
0.0825002
0.0826695
0.0827695
0.0828011
0.0827891
0.0827464
0.082662
0.0825322
0.0823732
0.0822025
0.0820361
0.0818866
0.0817619
0.0816652
0.0815981
0.0815549
0.0815322
0.081525
0.0815279
0.0815354
0.0815427
0.0815471
0.0816103
0.081615
0.0816268
0.0816496
0.081689
0.0817531
0.0818518
0.0819949
0.0821859
0.0824145
0.0826476
0.0828405
0.0829663
0.0830363
0.08308
0.0831105
0.0831167
0.0830864
0.0830195
0.0829225
0.0828043
0.0826751
0.0825442
0.0824203
0.082311
0.0822186
0.0821472
0.0820982
0.0820697
0.0820569
0.0820536
0.082054
0.0816125
0.0816179
0.0816313
0.0816565
0.0816994
0.0817685
0.0818746
0.0820278
0.082232
0.0824748
0.0827225
0.0829327
0.0830812
0.0831783
0.0832519
0.0833204
0.0833875
0.0834508
0.0835035
0.0835397
0.0835552
0.0835482
0.0835188
0.083469
0.0834024
0.0833255
0.0832447
0.0831683
0.0831039
0.0830574
0.0830301
0.0830191
0.0816046
0.0816103
0.0816239
0.0816488
0.08169
0.081755
0.0818538
0.0819961
0.0821859
0.0824133
0.0826504
0.0828618
0.0830221
0.0831296
0.0832003
0.0832517
0.083298
0.0833546
0.0834253
0.0835055
0.0835875
0.0836638
0.0837278
0.0837746
0.0838011
0.0838064
0.0837923
0.0837638
0.0837289
0.0836963
0.0836731
0.083662
0.0815889
0.0815942
0.0816068
0.0816292
0.0816653
0.0817212
0.0818046
0.0819245
0.0820858
0.0822833
0.0824969
0.0826982
0.0828625
0.0829808
0.0830584
0.0831074
0.0831421
0.0831841
0.0832431
0.0833197
0.0834094
0.0835052
0.0835993
0.0836842
0.0837547
0.0838075
0.083842
0.0838597
0.0838641
0.0838606
0.0838547
0.0838507
0.0815731
0.0815772
0.0815872
0.0816052
0.0816345
0.0816796
0.0817464
0.0818418
0.0819712
0.0821326
0.0823137
0.0824939
0.0826523
0.0827778
0.0828707
0.0829387
0.0829903
0.0830427
0.0831055
0.0831845
0.0832802
0.0833889
0.0835033
0.0836135
0.0837104
0.0837877
0.0838433
0.0838785
0.0838972
0.0839045
0.0839056
0.0839048
0.0815691
0.081571
0.0815764
0.0815877
0.0816082
0.0816415
0.0816923
0.0817655
0.0818657
0.0819926
0.0821388
0.0822905
0.082433
0.0825575
0.0826646
0.0827606
0.0828465
0.0829268
0.0830068
0.0830944
0.083194
0.0833067
0.083429
0.0835533
0.0836695
0.0837683
0.0838436
0.0838945
0.0839238
0.0839373
0.0839413
0.0839414
0.081589
0.0815879
0.081587
0.0815889
0.0815976
0.0816173
0.0816519
0.0817052
0.0817802
0.0818771
0.0819914
0.0821141
0.0822362
0.0823542
0.0824723
0.0825978
0.0827241
0.08284
0.0829444
0.0830459
0.0831514
0.0832654
0.0833884
0.0835164
0.0836412
0.0837531
0.0838435
0.083908
0.0839477
0.0839674
0.0839741
0.083975
0.081642
0.0816374
0.0816288
0.081619
0.0816129
0.0816158
0.0816326
0.0816666
0.0817195
0.0817912
0.0818785
0.0819763
0.0820807
0.0821938
0.0823236
0.0824785
0.0826436
0.0827934
0.0829215
0.0830367
0.0831479
0.0832616
0.0833812
0.0835058
0.0836306
0.0837472
0.0838464
0.0839213
0.0839699
0.0839956
0.0840053
0.0840068
0.0817323
0.0817241
0.0817073
0.081684
0.0816602
0.0816434
0.08164
0.081654
0.0816865
0.0817371
0.0818039
0.0818848
0.0819805
0.0820968
0.0822432
0.082426
0.0826225
0.0827979
0.0829426
0.0830667
0.0831798
0.0832902
0.083403
0.0835198
0.0836383
0.0837525
0.0838542
0.0839351
0.0839907
0.0840218
0.0840344
0.0840367
0.0818611
0.0818493
0.081824
0.0817869
0.0817443
0.0817059
0.0816808
0.0816747
0.0816893
0.0817244
0.0817796
0.0818552
0.0819545
0.0820837
0.0822498
0.0824549
0.0826703
0.0828581
0.0830091
0.0831344
0.0832444
0.0833476
0.0834502
0.0835555
0.0836632
0.0837698
0.0838683
0.0839507
0.0840104
0.084046
0.0840613
0.0840646
0.0820278
0.0820126
0.08198
0.0819315
0.0818735
0.0818165
0.0817722
0.0817493
0.0817512
0.0817789
0.0818328
0.0819142
0.082026
0.0821715
0.0823529
0.0825678
0.0827858
0.0829712
0.0831174
0.0832362
0.0833376
0.0834301
0.0835198
0.0836108
0.0837043
0.0837989
0.0838895
0.0839689
0.0840297
0.0840682
0.084086
0.0840902
0.0822314
0.0822134
0.0821775
0.0821258
0.0820631
0.0819981
0.0819439
0.0819126
0.0819097
0.0819374
0.0819964
0.0820871
0.0822099
0.082364
0.0825473
0.0827547
0.0829584
0.083128
0.08326
0.0833655
0.083454
0.083533
0.083608
0.0836831
0.0837603
0.0838398
0.0839186
0.0839908
0.0840493
0.0840886
0.0841083
0.0841134
0.0824715
0.0824529
0.0824217
0.0823802
0.0823293
0.0822733
0.082223
0.0821935
0.0821922
0.0822221
0.0822839
0.0823769
0.0824987
0.0826458
0.0828135
0.0829966
0.0831718
0.0833156
0.0834264
0.0835141
0.0835868
0.0836505
0.0837101
0.0837688
0.0838291
0.0838918
0.0839559
0.0840174
0.0840701
0.0841078
0.0841282
0.0841342
0.0827507
0.0827355
0.0827197
0.082702
0.0826769
0.0826435
0.0826091
0.0825885
0.0825901
0.0826185
0.0826747
0.0827572
0.0828626
0.0829863
0.0831236
0.0832699
0.0834077
0.0835198
0.0836056
0.0836731
0.0837285
0.0837765
0.0838207
0.0838637
0.0839075
0.0839534
0.0840014
0.0840495
0.084093
0.0841265
0.0841461
0.0841526
0.0830778
0.0830721
0.0830795
0.0830891
0.0830908
0.0830819
0.0830662
0.0830554
0.0830582
0.0830799
0.083122
0.0831833
0.083261
0.0833509
0.0834492
0.0835526
0.0836491
0.0837273
0.0837869
0.0838337
0.0838718
0.0839045
0.0839342
0.0839628
0.0839916
0.0840219
0.084054
0.0840872
0.0841191
0.0841454
0.0841622
0.0841685
0.083469
0.0834784
0.083503
0.0835252
0.0835392
0.0835438
0.0835406
0.0835367
0.0835387
0.0835511
0.0835755
0.0836114
0.0836569
0.0837095
0.0837667
0.0838266
0.0838823
0.0839273
0.0839616
0.0839884
0.0840101
0.0840286
0.0840453
0.0840612
0.0840771
0.0840937
0.0841114
0.0841302
0.084149
0.0841656
0.0841772
0.0841821
0.0839436
0.0839511
0.0839646
0.0839758
0.0839834
0.0839871
0.0839875
0.0839867
0.0839873
0.0839912
0.0839989
0.0840104
0.084025
0.084042
0.0840604
0.0840796
0.0840975
0.084112
0.084123
0.0841316
0.0841385
0.0841444
0.0841497
0.0841547
0.0841597
0.0841648
0.0841703
0.0841762
0.0841822
0.0841877
0.0841919
0.084194
)
;

boundaryField
{
    movingWall
    {
        type            fixedValue;
        value           uniform 0.0842;
    }
    fixedWalls
    {
        type            zeroGradient;
    }
    floor
    {
        type            zeroGradient;
    }
    frontAndBack
    {
        type            empty;
    }
}


// ************************************************************************* //
