/*--------------------------------*- C++ -*----------------------------------*\
| =========                 |                                                 |
| \\      /  F ield         | OpenFOAM: The Open Source CFD Toolbox           |
|  \\    /   O peration     | Version:  2206                                  |
|   \\  /    A nd           | Website:  www.openfoam.com                      |
|    \\/     M anipulation  |                                                 |
\*---------------------------------------------------------------------------*/
FoamFile
{
    version     2.0;
    format      ascii;
    arch        "LSB;label=64;scalar=64";
    class       volScalarField;
    location    "17";
    object      Gch4;
}
// * * * * * * * * * * * * * * * * * * * * * * * * * * * * * * * * * * * * * //

dimensions      [0 0 0 0 0 0 0];

internalField   nonuniform List<scalar> 
1024
(
2.24314e-09
2.33764e-09
2.6333e-09
3.16895e-09
3.99872e-09
5.19078e-09
6.82325e-09
8.97526e-09
1.17115e-08
1.50592e-08
1.898e-08
2.33419e-08
2.79043e-08
3.23245e-08
3.61708e-08
3.88655e-08
3.94551e-08
3.77779e-08
3.462e-08
3.05474e-08
2.60405e-08
2.15248e-08
1.73294e-08
1.36605e-08
1.06082e-08
8.17505e-09
6.31098e-09
4.94251e-09
3.99283e-09
3.3916e-09
3.07887e-09
3.00738e-09
2.56234e-09
2.66797e-09
2.99968e-09
3.60054e-09
4.53026e-09
5.86387e-09
7.68704e-09
1.00862e-08
1.31313e-08
1.68511e-08
2.12011e-08
2.60341e-08
3.10832e-08
3.59702e-08
4.022e-08
4.31985e-08
4.38577e-08
4.20169e-08
3.85373e-08
3.40403e-08
2.90546e-08
2.40504e-08
1.93935e-08
1.53143e-08
1.19152e-08
9.20157e-09
7.11965e-09
5.58941e-09
4.52637e-09
3.85252e-09
3.50116e-09
3.41956e-09
3.47204e-09
3.60955e-09
4.04382e-09
4.82984e-09
6.04329e-09
7.77861e-09
1.01429e-08
1.32434e-08
1.71656e-08
2.19416e-08
2.75107e-08
3.36822e-08
4.01153e-08
4.63303e-08
5.17288e-08
5.55154e-08
5.63729e-08
5.40667e-08
4.96718e-08
4.39675e-08
3.76208e-08
3.1229e-08
2.52612e-08
2.00169e-08
1.56333e-08
1.21231e-08
9.42248e-09
7.43269e-09
6.04738e-09
5.16702e-09
4.70602e-09
4.59667e-09
5.36659e-09
5.56904e-09
6.21269e-09
7.3765e-09
9.16813e-09
1.17209e-08
1.51846e-08
1.97078e-08
2.54062e-08
3.23181e-08
4.03492e-08
4.92202e-08
5.8441e-08
6.73286e-08
7.50372e-08
8.04501e-08
8.17118e-08
7.84785e-08
7.22511e-08
6.41236e-08
5.50384e-08
4.5849e-08
3.7233e-08
2.96307e-08
2.32509e-08
1.81228e-08
1.41639e-08
1.12382e-08
9.19538e-09
7.89299e-09
7.20765e-09
7.04162e-09
9.07389e-09
9.39903e-09
1.04403e-08
1.23211e-08
1.52083e-08
1.93068e-08
2.48448e-08
3.20458e-08
4.10798e-08
5.1994e-08
6.46281e-08
7.85358e-08
9.29478e-08
1.06804e-07
1.18803e-07
1.27239e-07
1.29267e-07
1.24338e-07
1.14732e-07
1.02117e-07
8.79433e-08
7.35372e-08
5.99679e-08
4.7942e-08
3.78069e-08
2.96277e-08
2.32902e-08
1.85913e-08
1.53003e-08
1.31949e-08
1.20817e-08
1.18069e-08
1.63924e-08
1.69494e-08
1.87466e-08
2.199e-08
2.6955e-08
3.39776e-08
4.3429e-08
5.56675e-08
7.09586e-08
8.9359e-08
1.10579e-07
1.33856e-07
1.57899e-07
1.80951e-07
2.00882e-07
2.14916e-07
2.18399e-07
2.104e-07
1.94609e-07
1.73733e-07
1.50145e-07
1.26046e-07
1.03235e-07
8.29227e-08
6.57278e-08
5.17935e-08
4.09561e-08
3.28934e-08
2.72281e-08
2.35913e-08
2.16596e-08
2.11756e-08
3.14266e-08
3.24365e-08
3.57207e-08
4.16419e-08
5.06818e-08
6.34226e-08
8.05027e-08
1.02529e-07
1.29937e-07
1.62785e-07
2.00517e-07
2.4175e-07
2.84192e-07
3.24766e-07
3.59783e-07
3.84479e-07
3.90817e-07
3.7713e-07
3.49722e-07
3.13222e-07
2.71722e-07
2.29077e-07
1.8849e-07
1.52165e-07
1.21266e-07
9.61138e-08
7.64732e-08
6.18079e-08
5.14675e-08
4.48061e-08
4.12536e-08
4.03531e-08
6.41144e-08
6.60553e-08
7.24183e-08
8.38794e-08
1.01329e-07
1.25834e-07
1.58555e-07
2.00573e-07
2.52633e-07
3.14758e-07
3.85815e-07
4.63138e-07
5.42412e-07
6.17941e-07
6.82993e-07
7.28954e-07
7.41183e-07
7.16533e-07
6.66351e-07
5.9896e-07
5.21788e-07
4.41962e-07
3.65518e-07
2.96703e-07
2.37851e-07
1.89708e-07
1.51945e-07
1.23634e-07
1.03597e-07
9.06424e-08
8.37077e-08
8.1935e-08
1.4018e-07
1.44156e-07
1.57303e-07
1.8096e-07
2.16873e-07
2.67121e-07
3.33931e-07
4.19342e-07
5.24669e-07
6.4976e-07
7.92141e-07
9.46331e-07
1.10368e-06
1.25301e-06
1.38131e-06
1.47214e-06
1.49728e-06
1.45043e-06
1.35318e-06
1.2213e-06
1.06901e-06
9.10271e-07
7.57165e-07
6.18415e-07
4.99016e-07
4.00791e-07
3.23353e-07
2.65029e-07
2.23579e-07
1.96679e-07
1.82228e-07
1.78513e-07
3.31285e-07
3.40031e-07
3.69208e-07
4.21652e-07
5.01026e-07
6.11639e-07
7.58041e-07
9.44281e-07
1.17275e-06
1.44262e-06
1.74807e-06
2.077e-06
2.41086e-06
2.72621e-06
2.99639e-06
3.18808e-06
3.24345e-06
3.14912e-06
2.94867e-06
2.67367e-06
2.35302e-06
2.01577e-06
1.68774e-06
1.38814e-06
1.12847e-06
9.13458e-07
7.42947e-07
6.13848e-07
5.21671e-07
4.61607e-07
4.29226e-07
4.20876e-07
8.53599e-07
8.74392e-07
9.44436e-07
1.07018e-06
1.25988e-06
1.52308e-06
1.8697e-06
2.30821e-06
2.84296e-06
3.47066e-06
4.17653e-06
4.93167e-06
5.69331e-06
6.40876e-06
7.01965e-06
7.45408e-06
7.58555e-06
7.38368e-06
6.94215e-06
6.32814e-06
5.60393e-06
4.83413e-06
4.07798e-06
3.38106e-06
2.77194e-06
2.26373e-06
1.85795e-06
1.54886e-06
1.327e-06
1.18179e-06
1.10324e-06
1.08295e-06
2.41712e-06
2.47085e-06
2.65381e-06
2.98185e-06
3.47493e-06
4.15582e-06
5.04746e-06
6.16844e-06
7.52623e-06
9.10855e-06
1.08746e-05
1.27495e-05
1.46267e-05
1.63786e-05
1.78685e-05
1.89306e-05
1.92687e-05
1.88086e-05
1.77659e-05
1.62924e-05
1.45309e-05
1.26351e-05
1.07513e-05
8.99637e-06
7.44749e-06
6.14367e-06
5.09436e-06
4.28947e-06
3.70825e-06
3.32593e-06
3.11835e-06
3.06475e-06
7.57234e-06
7.72382e-06
8.24587e-06
9.18063e-06
1.05801e-05
1.25024e-05
1.50039e-05
1.81265e-05
2.18795e-05
2.6217e-05
3.10163e-05
3.60666e-05
4.10796e-05
4.57231e-05
4.96527e-05
5.24613e-05
5.34044e-05
5.22895e-05
4.96471e-05
4.58411e-05
4.12186e-05
3.61708e-05
3.10865e-05
2.62903e-05
2.20082e-05
1.83659e-05
1.54072e-05
1.31192e-05
1.14555e-05
1.03549e-05
9.75507e-06
9.60044e-06
2.63702e-05
2.68363e-05
2.84654e-05
3.13783e-05
3.57206e-05
4.16496e-05
4.93105e-05
5.87971e-05
7.00984e-05
8.30359e-05
9.72082e-05
0.00011197
0.000126478
0.000139798
0.000151003
0.000159031
0.000161882
0.000159025
0.000151858
0.0001413
0.000128236
0.000113724
9.88716e-05
8.46518e-05
7.17827e-05
6.07011e-05
5.16006e-05
4.44956e-05
3.92874e-05
3.58201e-05
3.39218e-05
3.34339e-05
0.000102285
0.000103845
0.000109387
0.000119285
0.000133969
0.000153888
0.000179421
0.000210752
0.000247702
0.000289544
0.000334856
0.000381501
0.00042681
0.000467972
0.000502347
0.000527012
0.000536287
0.000528646
0.000508008
0.00047678
0.000437294
0.000392539
0.000345859
0.000300374
0.000258538
0.000221983
0.00019157
0.000167557
0.000149787
0.000137867
0.000131309
0.00012963
0.000441044
0.000446659
0.000467032
0.000503366
0.000556998
0.000629219
0.000720973
0.000832411
0.00096234
0.00110765
0.00126296
0.00142064
0.00157171
0.0017072
0.00181926
0.00189965
0.00193161
0.00191075
0.00184867
0.00175174
0.00162604
0.00148012
0.00132447
0.00116955
0.00102425
0.000895041
0.000785844
0.000698446
0.000633033
0.000588762
0.000564263
0.000558021
0.00198381
0.00200409
0.00207946
0.00221369
0.00241071
0.00267389
0.00300495
0.00340247
0.0038601
0.00436482
0.00489617
0.00542712
0.00592745
0.006369
0.00672937
0.00698695
0.0070944
0.00704075
0.00685999
0.00656782
0.00617792
0.00571275
0.00520313
0.00468294
0.00418347
0.0037297
0.00333893
0.00302104
0.00277989
0.00261497
0.00252309
0.00249986
0.00770859
0.00776975
0.00800295
0.00841791
0.00902368
0.00982661
0.0108271
0.0120155
0.0133667
0.0148366
0.0163606
0.0178581
0.0192441
0.0204451
0.0214099
0.0220946
0.0223917
0.0222827
0.0218527
0.0211326
0.0201435
0.0189292
0.0175601
0.0161229
0.014706
0.0133872
0.012227
0.0112657
0.0105255
0.0100133
0.00972599
0.009654
0.0232708
0.0234105
0.0239592
0.0249362
0.0263574
0.0282311
0.0305502
0.0332823
0.0363592
0.0396687
0.0430542
0.0463294
0.0493083
0.0518433
0.0538465
0.0552564
0.0558885
0.0557287
0.0549479
0.0535964
0.0516924
0.0492928
0.0465117
0.0435089
0.0404658
0.03756
0.0349441
0.0327339
0.0310041
0.0297924
0.0291071
0.0289363
0.0567359
0.0569877
0.0580107
0.0598377
0.0624943
0.0659898
0.070303
0.0753623
0.0810245
0.0870613
0.093165
0.0989834
0.104185
0.108531
0.111908
0.114263
0.115344
0.115169
0.114028
0.111998
0.109084
0.105335
0.100885
0.0959493
0.0908052
0.0857566
0.081096
0.0770713
0.0738647
0.0715871
0.0702861
0.0699614
0.115658
0.116028
0.117597
0.120418
0.124536
0.129968
0.136682
0.144555
0.153338
0.162637
0.171935
0.180668
0.188339
0.194631
0.199438
0.202753
0.204298
0.204152
0.20274
0.200182
0.196477
0.191657
0.18584
0.179239
0.172169
0.165023
0.158235
0.152221
0.147327
0.143792
0.141747
0.141231
0.203785
0.20424
0.206289
0.210021
0.215521
0.222837
0.231939
0.242644
0.254565
0.2671
0.279483
0.29093
0.300804
0.308752
0.314725
0.318796
0.320707
0.320612
0.319061
0.316232
0.312148
0.306847
0.300421
0.293028
0.284917
0.276461
0.268156
0.260561
0.254207
0.249513
0.246748
0.246031
0.319661
0.320137
0.322481
0.326849
0.3334
0.342246
0.353366
0.366501
0.381092
0.396291
0.411093
0.424538
0.435919
0.444917
0.451571
0.456057
0.458162
0.45811
0.456539
0.453684
0.449625
0.444448
0.438258
0.431153
0.423246
0.414753
0.406075
0.397803
0.390613
0.385129
0.381808
0.380904
0.457622
0.458039
0.460442
0.465094
0.472269
0.482161
0.494741
0.509632
0.526064
0.542958
0.559132
0.57355
0.585532
0.594847
0.60164
0.60617
0.608286
0.608255
0.606749
0.604043
0.60028
0.595628
0.59026
0.584272
0.577655
0.570393
0.562634
0.554818
0.547643
0.541898
0.538266
0.537201
0.609984
0.610265
0.612513
0.617143
0.624566
0.635031
0.648443
0.664253
0.68148
0.698886
0.715235
0.72954
0.74123
0.750185
0.756637
0.7609
0.762876
0.762847
0.761462
0.759011
0.755681
0.751714
0.74738
0.742842
0.738061
0.732833
0.726994
0.720667
0.714379
0.70896
0.7053
0.704107
0.769036
0.769132
0.771096
0.775525
0.782936
0.79355
0.80712
0.822904
0.839783
0.856495
0.871895
0.885144
0.895815
0.903893
0.909656
0.913435
0.915173
0.915136
0.913912
0.911776
0.908927
0.905649
0.902281
0.899083
0.89608
0.893015
0.889498
0.885293
0.880587
0.876051
0.872664
0.871396
0.928233
0.92814
0.92981
0.934001
0.941227
0.951553
0.964534
0.979298
0.99473
1.0097
1.02326
1.03477
1.04393
1.05081
1.05567
1.05885
1.0603
1.06025
1.05921
1.05743
1.05507
1.05242
1.04985
1.04766
1.04599
1.04465
1.0432
1.04118
1.0384
1.03518
1.03237
1.03112
1.08261
1.08238
1.08387
1.08786
1.09469
1.1042
1.11579
1.1286
1.1417
1.15418
1.16533
1.1747
1.18209
1.18761
1.19149
1.19401
1.19515
1.19511
1.19427
1.19284
1.19097
1.1889
1.18695
1.18545
1.18458
1.18428
1.18423
1.18392
1.18295
1.18123
1.17927
1.17817
1.22873
1.2285
1.22996
1.23371
1.23979
1.24784
1.25729
1.26745
1.27764
1.28723
1.29572
1.3028
1.30836
1.31249
1.31539
1.31726
1.3181
1.31806
1.31743
1.31636
1.31496
1.31341
1.31198
1.31094
1.31048
1.31063
1.31119
1.31183
1.31213
1.31176
1.31079
1.30998
1.36444
1.36436
1.36586
1.3691
1.3739
1.37989
1.38668
1.39384
1.40092
1.40753
1.41335
1.41819
1.42198
1.42478
1.42674
1.42801
1.42858
1.42855
1.42812
1.42738
1.42643
1.42537
1.4244
1.4237
1.42344
1.42365
1.42427
1.42513
1.42594
1.42641
1.42632
1.42593
1.48857
1.48875
1.49003
1.49225
1.49525
1.49883
1.5028
1.50693
1.51099
1.51476
1.51808
1.52083
1.52298
1.52457
1.52568
1.5264
1.52672
1.5267
1.52645
1.52604
1.52549
1.52489
1.52433
1.52393
1.52378
1.52392
1.52433
1.52493
1.52561
1.52623
1.5266
1.5266
1.60059
1.60073
1.60124
1.60202
1.60302
1.60418
1.60546
1.60679
1.60809
1.6093
1.61036
1.61124
1.61192
1.61243
1.61278
1.61301
1.61311
1.61311
1.61303
1.6129
1.61272
1.61253
1.61235
1.61222
1.61217
1.61221
1.61234
1.61254
1.61279
1.61304
1.61325
1.61333
)
;

boundaryField
{
    movingWall
    {
        type            fixedValue;
        value           uniform 1.6535;
    }
    fixedWalls
    {
        type            zeroGradient;
    }
    frontAndBack
    {
        type            empty;
    }
}


// ************************************************************************* //
