/*--------------------------------*- C++ -*----------------------------------*\
| =========                 |                                                 |
| \\      /  F ield         | OpenFOAM: The Open Source CFD Toolbox           |
|  \\    /   O peration     | Version:  2206                                  |
|   \\  /    A nd           | Website:  www.openfoam.com                      |
|    \\/     M anipulation  |                                                 |
\*---------------------------------------------------------------------------*/
FoamFile
{
    version     2.0;
    format      ascii;
    arch        "LSB;label=64;scalar=64";
    class       volScalarField;
    location    "17";
    object      Sch4;
}
// * * * * * * * * * * * * * * * * * * * * * * * * * * * * * * * * * * * * * //

dimensions      [0 0 0 0 0 0 0];

internalField   nonuniform List<scalar> 
1024
(
7.52914e-11
7.84632e-11
8.83871e-11
1.06366e-10
1.34218e-10
1.74229e-10
2.29024e-10
3.01256e-10
3.93097e-10
5.05464e-10
6.37067e-10
7.83476e-10
9.36614e-10
1.08498e-09
1.21408e-09
1.30453e-09
1.32432e-09
1.26802e-09
1.16202e-09
1.02533e-09
8.74054e-10
7.22482e-10
5.81663e-10
4.58517e-10
3.56065e-10
2.74397e-10
2.11829e-10
1.65896e-10
1.3402e-10
1.1384e-10
1.03343e-10
1.00943e-10
8.60053e-11
8.95508e-11
1.00685e-10
1.20853e-10
1.52059e-10
1.96822e-10
2.58017e-10
3.38544e-10
4.40755e-10
5.65609e-10
7.11618e-10
8.73837e-10
1.04331e-09
1.20734e-09
1.34999e-09
1.44996e-09
1.47209e-09
1.41031e-09
1.29351e-09
1.14257e-09
9.75222e-10
8.07257e-10
6.50945e-10
5.14028e-10
3.99937e-10
3.08852e-10
2.38972e-10
1.87609e-10
1.51928e-10
1.29311e-10
1.17517e-10
1.14778e-10
1.1654e-10
1.21155e-10
1.35731e-10
1.62114e-10
2.02844e-10
2.6109e-10
3.4045e-10
4.44519e-10
5.76167e-10
7.36472e-10
9.23402e-10
1.13055e-09
1.34648e-09
1.55509e-09
1.73629e-09
1.86338e-09
1.89217e-09
1.81476e-09
1.66724e-09
1.47578e-09
1.26275e-09
1.04821e-09
8.47895e-10
6.71872e-10
5.24735e-10
4.06913e-10
3.16267e-10
2.4948e-10
2.02981e-10
1.73432e-10
1.57958e-10
1.54288e-10
1.8013e-10
1.86926e-10
2.0853e-10
2.47593e-10
3.0773e-10
3.93413e-10
5.09675e-10
6.61496e-10
8.52762e-10
1.08476e-09
1.35433e-09
1.65208e-09
1.96158e-09
2.2599e-09
2.51864e-09
2.70032e-09
2.74267e-09
2.63414e-09
2.42512e-09
2.15232e-09
1.84737e-09
1.53893e-09
1.24973e-09
9.94561e-10
7.8042e-10
6.08296e-10
4.75415e-10
3.7721e-10
3.08644e-10
2.6493e-10
2.41926e-10
2.36353e-10
3.04567e-10
3.1548e-10
3.5043e-10
4.1356e-10
5.1047e-10
6.48034e-10
8.33921e-10
1.07562e-09
1.37885e-09
1.74519e-09
2.16925e-09
2.63607e-09
3.11981e-09
3.58488e-09
3.98763e-09
4.2708e-09
4.33887e-09
4.17344e-09
3.851e-09
3.42759e-09
2.95183e-09
2.46829e-09
2.01283e-09
1.60918e-09
1.26899e-09
9.94458e-10
7.81738e-10
6.24019e-10
5.13557e-10
4.4289e-10
4.05523e-10
3.96301e-10
5.50214e-10
5.68909e-10
6.29234e-10
7.38097e-10
9.04749e-10
1.14046e-09
1.4577e-09
1.86849e-09
2.38174e-09
2.99935e-09
3.71161e-09
4.49289e-09
5.29989e-09
6.07366e-09
6.74264e-09
7.21369e-09
7.33059e-09
7.06211e-09
6.53207e-09
5.83138e-09
5.03964e-09
4.23076e-09
3.46508e-09
2.78331e-09
2.20617e-09
1.73846e-09
1.3747e-09
1.10407e-09
9.13917e-10
7.91844e-10
7.27008e-10
7.10761e-10
1.05484e-09
1.08874e-09
1.19897e-09
1.39772e-09
1.70114e-09
2.12879e-09
2.70209e-09
3.44141e-09
4.36135e-09
5.46389e-09
6.73039e-09
8.11439e-09
9.53896e-09
1.09008e-08
1.20762e-08
1.29051e-08
1.31178e-08
1.26584e-08
1.17385e-08
1.05134e-08
9.12038e-09
7.68899e-09
6.32669e-09
5.10744e-09
4.0703e-09
3.22607e-09
2.56684e-09
2.07459e-09
1.72751e-09
1.50392e-09
1.38468e-09
1.35446e-09
2.15201e-09
2.21716e-09
2.43073e-09
2.81543e-09
3.40112e-09
4.22366e-09
5.32191e-09
6.73228e-09
8.47967e-09
1.05649e-08
1.29499e-08
1.55453e-08
1.82062e-08
2.07413e-08
2.29248e-08
2.44675e-08
2.48779e-08
2.40506e-08
2.23662e-08
2.01042e-08
1.75139e-08
1.48345e-08
1.22687e-08
9.95889e-09
7.9835e-09
6.36757e-09
5.10007e-09
4.14979e-09
3.47724e-09
3.04243e-09
2.80966e-09
2.75016e-09
4.70516e-09
4.83863e-09
5.27991e-09
6.07394e-09
7.27939e-09
8.96597e-09
1.12084e-08
1.40753e-08
1.76106e-08
2.18093e-08
2.65884e-08
3.17638e-08
3.70453e-08
4.20574e-08
4.6364e-08
4.94127e-08
5.02563e-08
4.86838e-08
4.54197e-08
4.0993e-08
3.58814e-08
3.05534e-08
2.54144e-08
2.07572e-08
1.67495e-08
1.34526e-08
1.08534e-08
8.89575e-09
7.50447e-09
6.60157e-09
6.11651e-09
5.99182e-09
1.11196e-08
1.14132e-08
1.23925e-08
1.41528e-08
1.6817e-08
2.05298e-08
2.54438e-08
3.1695e-08
3.93636e-08
4.84217e-08
5.86742e-08
6.97147e-08
8.09208e-08
9.15056e-08
1.00574e-07
1.07008e-07
1.08867e-07
1.05701e-07
9.89725e-08
8.97423e-08
7.89796e-08
6.76596e-08
5.66492e-08
4.65932e-08
3.78774e-08
3.06604e-08
2.49371e-08
2.06039e-08
1.751e-08
1.54939e-08
1.44071e-08
1.41268e-08
2.86512e-08
2.93491e-08
3.17001e-08
3.59209e-08
4.2288e-08
5.11226e-08
6.27569e-08
7.74754e-08
9.54246e-08
1.16493e-07
1.40186e-07
1.65532e-07
1.91097e-07
2.15111e-07
2.35616e-07
2.50197e-07
2.5461e-07
2.47834e-07
2.33014e-07
2.12405e-07
1.88097e-07
1.62258e-07
1.36878e-07
1.13486e-07
9.30407e-08
7.59824e-08
6.23624e-08
5.19878e-08
4.45411e-08
3.96671e-08
3.70303e-08
3.63494e-08
8.11309e-08
8.29345e-08
8.90755e-08
1.00086e-07
1.16637e-07
1.39491e-07
1.69419e-07
2.07045e-07
2.52619e-07
3.0573e-07
3.65007e-07
4.2794e-07
4.90946e-07
5.49751e-07
5.99759e-07
6.35409e-07
6.46756e-07
6.31314e-07
5.96316e-07
5.46857e-07
4.87731e-07
4.24098e-07
3.60868e-07
3.01965e-07
2.49976e-07
2.06213e-07
1.70993e-07
1.43977e-07
1.24468e-07
1.11635e-07
1.04668e-07
1.02869e-07
2.54167e-07
2.59251e-07
2.76774e-07
3.08149e-07
3.55124e-07
4.19646e-07
5.03607e-07
6.08418e-07
7.3439e-07
8.79979e-07
1.04107e-06
1.21058e-06
1.37884e-06
1.5347e-06
1.6666e-06
1.76087e-06
1.79253e-06
1.7551e-06
1.66641e-06
1.53866e-06
1.38351e-06
1.21408e-06
1.04342e-06
8.82439e-07
7.38708e-07
6.16453e-07
5.17145e-07
4.40347e-07
3.84504e-07
3.47565e-07
3.2743e-07
3.2224e-07
8.85121e-07
9.00766e-07
9.55446e-07
1.05322e-06
1.19897e-06
1.39798e-06
1.65512e-06
1.97353e-06
2.35286e-06
2.78711e-06
3.26281e-06
3.75831e-06
4.24526e-06
4.69233e-06
5.06845e-06
5.33789e-06
5.43359e-06
5.33771e-06
5.09715e-06
4.74274e-06
4.30425e-06
3.81716e-06
3.31864e-06
2.84135e-06
2.4094e-06
2.03744e-06
1.73198e-06
1.4935e-06
1.31869e-06
1.20231e-06
1.13859e-06
1.12221e-06
3.43322e-06
3.48556e-06
3.6716e-06
4.00381e-06
4.49669e-06
5.16527e-06
6.02228e-06
7.07391e-06
8.31415e-06
9.71859e-06
1.12395e-05
1.28051e-05
1.43259e-05
1.57076e-05
1.68613e-05
1.76893e-05
1.80006e-05
1.77441e-05
1.70514e-05
1.60032e-05
1.46778e-05
1.31756e-05
1.16088e-05
1.00821e-05
8.67786e-06
7.45088e-06
6.43009e-06
5.62409e-06
5.02763e-06
4.62754e-06
4.40742e-06
4.35106e-06
1.48037e-05
1.49922e-05
1.5676e-05
1.68956e-05
1.86957e-05
2.11199e-05
2.41996e-05
2.794e-05
3.23011e-05
3.71786e-05
4.23913e-05
4.76841e-05
5.27548e-05
5.73025e-05
6.10637e-05
6.37622e-05
6.48348e-05
6.41346e-05
6.20508e-05
5.87976e-05
5.45782e-05
4.96806e-05
4.44559e-05
3.9256e-05
3.43792e-05
3.00422e-05
2.6377e-05
2.34435e-05
2.12479e-05
1.97619e-05
1.89396e-05
1.87301e-05
6.65868e-05
6.72677e-05
6.97973e-05
7.43029e-05
8.09159e-05
8.97494e-05
0.000100862
0.000114205
0.000129565
0.000146506
0.000164341
0.000182162
0.000198956
0.000213776
0.000225872
0.000234518
0.000238125
0.000236324
0.000230257
0.00022045
0.000207363
0.000191749
0.000174644
0.000157184
0.000140419
0.000125188
0.000112072
0.000101402
9.33075e-05
8.77717e-05
8.4688e-05
8.39083e-05
0.00025874
0.000260793
0.00026862
0.000282549
0.000302881
0.000329832
0.000363415
0.000403302
0.000448656
0.000497993
0.000549147
0.00059941
0.00064593
0.000686244
0.000718626
0.000741607
0.000751581
0.000747924
0.00073349
0.000709319
0.000676121
0.000635362
0.000589407
0.000541168
0.000493608
0.000449344
0.000410401
0.000378136
0.000353289
0.000336099
0.000326454
0.000324038
0.000781088
0.000785779
0.000804195
0.000836986
0.000884691
0.000947582
0.00102542
0.00111713
0.0012204
0.00133148
0.00144512
0.00155506
0.00165504
0.00174013
0.00180737
0.00185469
0.00187591
0.00187054
0.00184434
0.00179897
0.00173506
0.00165452
0.00156117
0.00146038
0.00135824
0.00126071
0.00117291
0.00109872
0.00104066
0.000999988
0.000976984
0.00097125
0.00190435
0.0019128
0.00194714
0.00200846
0.00209763
0.00221496
0.00235973
0.00252955
0.0027196
0.00292223
0.0031271
0.0033224
0.00349699
0.00364286
0.00375622
0.00383524
0.00387153
0.00386566
0.00382737
0.00375924
0.00366143
0.0035356
0.00338622
0.00322056
0.00304789
0.00287843
0.002722
0.00258691
0.00247928
0.00240283
0.00235917
0.00234827
0.00388207
0.00389449
0.00394715
0.00404185
0.00418006
0.00436241
0.00458777
0.00485203
0.00514682
0.00545893
0.00577102
0.00606414
0.00632163
0.00653281
0.00669416
0.00680542
0.00685729
0.00685239
0.00680501
0.00671914
0.00659479
0.00643302
0.00623774
0.00601619
0.00577887
0.00553901
0.00531117
0.00510934
0.00494507
0.00482641
0.00475777
0.00474043
0.00684006
0.00685536
0.00692413
0.0070494
0.00723398
0.00747957
0.00778506
0.00814437
0.00854453
0.00896524
0.00938091
0.00976513
0.0100965
0.0103633
0.0105638
0.0107004
0.0107646
0.0107614
0.0107093
0.0106144
0.0104773
0.0102994
0.0100837
0.00983554
0.00956329
0.00927947
0.0090007
0.00874577
0.00853249
0.00837495
0.00828215
0.00825807
0.0107295
0.0107454
0.0108241
0.0109707
0.0111906
0.0114875
0.0118608
0.0123017
0.0127914
0.0133016
0.0137984
0.0142497
0.0146317
0.0149337
0.0151571
0.0153076
0.0153783
0.0153765
0.0153238
0.015228
0.0150917
0.014918
0.0147102
0.0144717
0.0142063
0.0139213
0.01363
0.0133523
0.013111
0.0129269
0.0128154
0.0127851
0.0153602
0.0153741
0.0154548
0.0156109
0.0158518
0.0161838
0.016606
0.0171059
0.0176574
0.0182245
0.0187674
0.0192513
0.0196535
0.0199662
0.0201941
0.0203462
0.0204172
0.0204162
0.0203656
0.0202748
0.0201485
0.0199924
0.0198122
0.0196112
0.0193891
0.0191453
0.0188849
0.0186226
0.0183817
0.0181889
0.018067
0.0180313
0.0204742
0.0204836
0.0205591
0.0207145
0.0209637
0.0213149
0.0217651
0.0222958
0.022874
0.0234582
0.024007
0.0244871
0.0248795
0.0251801
0.0253966
0.0255397
0.0256061
0.0256051
0.0255586
0.0254763
0.0253645
0.0252314
0.0250859
0.0249336
0.0247731
0.0245977
0.0244017
0.0241893
0.0239783
0.0237964
0.0236735
0.0236335
0.0258128
0.025816
0.025882
0.0260306
0.0262794
0.0266356
0.0270911
0.0276209
0.0281874
0.0287484
0.0292653
0.02971
0.0300682
0.0303393
0.0305327
0.0306596
0.0307179
0.0307167
0.0306756
0.0306039
0.0305083
0.0303983
0.0302852
0.0301779
0.0300771
0.0299742
0.0298561
0.029715
0.0295571
0.0294048
0.0292911
0.0292485
0.0311563
0.0311532
0.0312092
0.0313499
0.0315924
0.031939
0.0323748
0.0328703
0.0333883
0.0338908
0.034346
0.0347322
0.0350398
0.0352705
0.0354339
0.0355404
0.035589
0.0355875
0.0355527
0.0354927
0.0354135
0.0353247
0.0352382
0.0351649
0.0351088
0.0350638
0.0350152
0.0349475
0.0348541
0.034746
0.0346518
0.0346097
0.0363379
0.0363304
0.0363803
0.0365142
0.0367436
0.0370626
0.0374516
0.0378817
0.0383212
0.0387401
0.0391145
0.0394288
0.0396772
0.0398622
0.0399925
0.0400771
0.0401155
0.0401139
0.0400859
0.0400379
0.0399751
0.0399055
0.0398401
0.0397897
0.0397606
0.0397506
0.0397487
0.0397385
0.0397058
0.0396481
0.0395825
0.0395453
0.0412424
0.0412346
0.0412837
0.0414097
0.0416137
0.0418839
0.042201
0.0425423
0.0428843
0.0432061
0.043491
0.0437287
0.0439154
0.0440539
0.0441511
0.044214
0.0442424
0.044241
0.0442199
0.0441838
0.0441368
0.0440849
0.0440369
0.044002
0.0439866
0.0439914
0.0440104
0.0440319
0.0440418
0.0440294
0.043997
0.0439697
0.0457975
0.0457951
0.0458453
0.0459542
0.046115
0.0463163
0.0465443
0.0467845
0.0470222
0.0472441
0.0474394
0.0476018
0.047729
0.047823
0.0478889
0.0479314
0.0479505
0.0479494
0.0479349
0.0479103
0.0478782
0.0478428
0.0478101
0.0477868
0.0477779
0.0477851
0.047806
0.0478346
0.0478619
0.0478776
0.0478748
0.0478614
0.0499641
0.0499701
0.050013
0.0500877
0.0501883
0.0503086
0.0504417
0.0505803
0.0507166
0.0508433
0.0509547
0.051047
0.0511192
0.0511726
0.0512098
0.0512339
0.0512447
0.051244
0.0512357
0.0512217
0.0512033
0.0511831
0.0511644
0.051151
0.051146
0.0511506
0.0511643
0.0511845
0.0512075
0.0512282
0.0512404
0.0512405
0.053724
0.0537286
0.0537459
0.0537721
0.0538055
0.0538447
0.0538877
0.0539322
0.0539758
0.0540164
0.054052
0.0540815
0.0541045
0.0541215
0.0541334
0.054141
0.0541445
0.0541442
0.0541416
0.0541371
0.0541312
0.0541247
0.0541187
0.0541143
0.0541126
0.0541141
0.0541185
0.0541253
0.0541336
0.0541421
0.0541491
0.0541517
)
;

boundaryField
{
    movingWall
    {
        type            fixedValue;
        value           uniform 0.0555;
    }
    fixedWalls
    {
        type            zeroGradient;
    }
    frontAndBack
    {
        type            empty;
    }
}


// ************************************************************************* //
