/*--------------------------------*- C++ -*----------------------------------*\
| =========                 |                                                 |
| \\      /  F ield         | OpenFOAM: The Open Source CFD Toolbox           |
|  \\    /   O peration     | Version:  2206                                  |
|   \\  /    A nd           | Website:  www.openfoam.com                      |
|    \\/     M anipulation  |                                                 |
\*---------------------------------------------------------------------------*/
FoamFile
{
    version     2.0;
    format      ascii;
    arch        "LSB;label=64;scalar=64";
    class       volVectorField;
    location    "17";
    object      U;
}
// * * * * * * * * * * * * * * * * * * * * * * * * * * * * * * * * * * * * * //

dimensions      [0 1 -1 0 0 0 0];

internalField   nonuniform List<vector> 
1024
(
(2.76664e-08 -2.77109e-08 0)
(5.17535e-08 -1.49019e-08 0)
(-5.40005e-08 1.41958e-08 0)
(-3.66144e-07 4.32597e-08 0)
(-9.19535e-07 6.53348e-08 0)
(-1.71847e-06 7.90944e-08 0)
(-2.74339e-06 8.5603e-08 0)
(-3.96601e-06 8.70641e-08 0)
(-5.36305e-06 8.56631e-08 0)
(-6.91969e-06 8.25817e-08 0)
(-8.61975e-06 7.79381e-08 0)
(-1.04296e-05 7.12826e-08 0)
(-1.22831e-05 6.20664e-08 0)
(-1.40626e-05 4.96157e-08 0)
(-1.55851e-05 3.35517e-08 0)
(-1.65684e-05 1.32097e-08 0)
(-1.66265e-05 -1.00195e-08 0)
(-1.57389e-05 -3.11031e-08 0)
(-1.42728e-05 -4.82111e-08 0)
(-1.2515e-05 -6.17623e-08 0)
(-1.06573e-05 -7.19673e-08 0)
(-8.82652e-06 -7.9426e-08 0)
(-7.09643e-06 -8.4666e-08 0)
(-5.50628e-06 -8.81431e-08 0)
(-4.07603e-06 -8.9749e-08 0)
(-2.82301e-06 -8.83119e-08 0)
(-1.77201e-06 -8.16591e-08 0)
(-9.52039e-07 -6.75958e-08 0)
(-3.82934e-07 -4.50503e-08 0)
(-6.03602e-08 -1.53247e-08 0)
(5.07631e-08 1.45479e-08 0)
(2.79867e-08 2.79698e-08 0)
(1.49424e-08 -5.18694e-08 0)
(-8.60388e-08 8.61865e-08 0)
(-5.23085e-07 3.42593e-07 0)
(-1.47068e-06 6.13318e-07 0)
(-3.03542e-06 8.36898e-07 0)
(-5.25555e-06 9.8721e-07 0)
(-8.10473e-06 1.06376e-06 0)
(-1.15209e-05 1.08309e-06 0)
(-1.5443e-05 1.06586e-06 0)
(-1.98251e-05 1.02525e-06 0)
(-2.46157e-05 9.63861e-07 0)
(-2.97155e-05 8.77644e-07 0)
(-3.4935e-05 7.60103e-07 0)
(-3.9942e-05 6.04201e-07 0)
(-4.42189e-05 4.03868e-07 0)
(-4.69719e-05 1.54121e-07 0)
(-4.71177e-05 -1.24193e-07 0)
(-4.46051e-05 -3.80552e-07 0)
(-4.04701e-05 -5.90648e-07 0)
(-3.55181e-05 -7.56906e-07 0)
(-3.02884e-05 -8.83857e-07 0)
(-2.51367e-05 -9.77796e-07 0)
(-2.02713e-05 -1.045e-06 0)
(-1.58055e-05 -1.08955e-06 0)
(-1.18006e-05 -1.10891e-06 0)
(-8.3087e-06 -1.09e-06 0)
(-5.39462e-06 -1.01224e-06 0)
(-3.12223e-06 -8.59223e-07 0)
(-1.51831e-06 -6.31479e-07 0)
(-5.44196e-07 -3.55226e-07 0)
(-9.21974e-08 -9.25806e-08 0)
(1.46523e-08 5.07826e-08 0)
(-1.4037e-08 5.35731e-08 0)
(-3.4219e-07 5.22991e-07 0)
(-1.21183e-06 1.21172e-06 0)
(-2.84178e-06 1.9335e-06 0)
(-5.38495e-06 2.54984e-06 0)
(-8.92243e-06 2.98228e-06 0)
(-1.34444e-05 3.21483e-06 0)
(-1.88772e-05 3.2818e-06 0)
(-2.51335e-05 3.23596e-06 0)
(-3.21379e-05 3.11466e-06 0)
(-3.98013e-05 2.92728e-06 0)
(-4.79594e-05 2.66339e-06 0)
(-5.63052e-05 2.30424e-06 0)
(-6.43053e-05 1.82923e-06 0)
(-7.11299e-05 1.21971e-06 0)
(-7.55105e-05 4.61979e-07 0)
(-7.57206e-05 -3.79419e-07 0)
(-7.16866e-05 -1.15526e-06 0)
(-6.50669e-05 -1.79166e-06 0)
(-5.71465e-05 -2.29522e-06 0)
(-4.87866e-05 -2.68035e-06 0)
(-4.05541e-05 -2.9656e-06 0)
(-3.27834e-05 -3.1691e-06 0)
(-2.5659e-05 -3.30132e-06 0)
(-1.9284e-05 -3.35309e-06 0)
(-1.37427e-05 -3.28727e-06 0)
(-9.1278e-06 -3.05143e-06 0)
(-5.51552e-06 -2.61167e-06 0)
(-2.91592e-06 -1.98438e-06 0)
(-1.24689e-06 -1.24855e-06 0)
(-3.53838e-07 -5.44075e-07 0)
(-1.50227e-08 -5.97637e-08 0)
(-4.30347e-08 3.6522e-07 0)
(-6.1389e-07 1.47092e-06 0)
(-1.9379e-06 2.8422e-06 0)
(-4.24915e-06 4.23996e-06 0)
(-7.71072e-06 5.44717e-06 0)
(-1.24308e-05 6.31676e-06 0)
(-1.84221e-05 6.80291e-06 0)
(-2.56156e-05 6.956e-06 0)
(-3.39122e-05 6.87047e-06 0)
(-4.32144e-05 6.6188e-06 0)
(-5.33983e-05 6.2215e-06 0)
(-6.42398e-05 5.65896e-06 0)
(-7.5326e-05 4.893e-06 0)
(-8.59454e-05 3.88101e-06 0)
(-9.49935e-05 2.58352e-06 0)
(-0.000100786 9.73206e-07 0)
(-0.000101038 -8.11296e-07 0)
(-9.56611e-05 -2.45701e-06 0)
(-8.6859e-05 -3.80716e-06 0)
(-7.63354e-05 -4.87512e-06 0)
(-6.52327e-05 -5.69205e-06 0)
(-5.43024e-05 -6.29649e-06 0)
(-4.39902e-05 -6.72542e-06 0)
(-3.45445e-05 -6.99851e-06 0)
(-2.61058e-05 -7.0956e-06 0)
(-1.87828e-05 -6.94467e-06 0)
(-1.26807e-05 -6.45205e-06 0)
(-7.87134e-06 -5.56841e-06 0)
(-4.34192e-06 -4.34062e-06 0)
(-1.98289e-06 -2.91699e-06 0)
(-6.29404e-07 -1.51647e-06 0)
(-4.4482e-08 -3.80726e-07 0)
(-6.5296e-08 9.19508e-07 0)
(-8.41965e-07 3.04154e-06 0)
(-2.56955e-06 5.39544e-06 0)
(-5.49016e-06 7.7072e-06 0)
(-9.75664e-06 9.69485e-06 0)
(-1.5482e-05 1.11444e-05 0)
(-2.26922e-05 1.19753e-05 0)
(-3.1328e-05 1.22522e-05 0)
(-4.12896e-05 1.2116e-05 0)
(-5.24669e-05 1.16813e-05 0)
(-6.47088e-05 1.09826e-05 0)
(-7.77405e-05 9.98791e-06 0)
(-9.10608e-05 8.63223e-06 0)
(-0.000103812 6.84211e-06 0)
(-0.000114664 4.54863e-06 0)
(-0.000121595 1.70575e-06 0)
(-0.000121871 -1.44041e-06 0)
(-0.000115393 -4.34126e-06 0)
(-0.00010481 -6.72103e-06 0)
(-9.21639e-05 -8.60285e-06 0)
(-7.88257e-05 -1.0042e-05 0)
(-6.5697e-05 -1.11054e-05 0)
(-5.3315e-05 -1.18559e-05 0)
(-4.19809e-05 -1.23256e-05 0)
(-3.18642e-05 -1.24806e-05 0)
(-2.30872e-05 -1.2207e-05 0)
(-1.57562e-05 -1.13655e-05 0)
(-9.93348e-06 -9.89338e-06 0)
(-5.59276e-06 -7.87317e-06 0)
(-2.61952e-06 -5.52078e-06 0)
(-8.59246e-07 -3.12025e-06 0)
(-6.69256e-08 -9.47772e-07 0)
(-7.97672e-08 1.72537e-06 0)
(-1.00349e-06 5.2867e-06 0)
(-3.03789e-06 8.97494e-06 0)
(-6.43792e-06 1.24737e-05 0)
(-1.13444e-05 1.54423e-05 0)
(-1.78612e-05 1.76087e-05 0)
(-2.60139e-05 1.8865e-05 0)
(-3.5748e-05 1.92951e-05 0)
(-4.6967e-05 1.90919e-05 0)
(-5.95557e-05 1.84164e-05 0)
(-7.33448e-05 1.73175e-05 0)
(-8.80215e-05 1.57464e-05 0)
(-0.000103017 1.36038e-05 0)
(-0.000117362 1.07759e-05 0)
(-0.000129559 7.1558e-06 0)
(-0.000137334 2.67343e-06 0)
(-0.000137622 -2.28239e-06 0)
(-0.00013032 -6.85027e-06 0)
(-0.000118404 -1.05975e-05 0)
(-0.000104168 -1.35605e-05 0)
(-8.91539e-05 -1.58262e-05 0)
(-7.43758e-05 -1.74985e-05 0)
(-6.044e-05 -1.86738e-05 0)
(-4.76873e-05 -1.94008e-05 0)
(-3.63062e-05 -1.96315e-05 0)
(-2.64245e-05 -1.9206e-05 0)
(-1.81457e-05 -1.7934e-05 0)
(-1.15275e-05 -1.57346e-05 0)
(-6.54373e-06 -1.27191e-05 0)
(-3.08912e-06 -9.16175e-06 0)
(-1.02103e-06 -5.40561e-06 0)
(-8.1397e-08 -1.76889e-06 0)
(-8.7838e-08 2.77338e-06 0)
(-1.102e-06 8.20926e-06 0)
(-3.33915e-06 1.36185e-05 0)
(-7.07258e-06 1.86164e-05 0)
(-1.24395e-05 2.27931e-05 0)
(-1.95327e-05 2.58229e-05 0)
(-2.83689e-05 2.75816e-05 0)
(-3.88901e-05 2.81863e-05 0)
(-5.10003e-05 2.7892e-05 0)
(-6.45824e-05 2.69114e-05 0)
(-7.94562e-05 2.53067e-05 0)
(-9.52827e-05 2.30066e-05 0)
(-0.000111445 1.98686e-05 0)
(-0.000126896 1.57295e-05 0)
(-0.000140022 1.04356e-05 0)
(-0.000148378 3.88738e-06 0)
(-0.000148675 -3.34737e-06 0)
(-0.000140808 -1.00138e-05 0)
(-0.000127973 -1.54833e-05 0)
(-0.000112635 -1.9809e-05 0)
(-9.64539e-05 -2.31171e-05 0)
(-8.05223e-05 -2.55571e-05 0)
(-6.54963e-05 -2.72673e-05 0)
(-5.17437e-05 -2.8319e-05 0)
(-3.94651e-05 -2.86508e-05 0)
(-2.87905e-05 -2.80523e-05 0)
(-1.98237e-05 -2.62714e-05 0)
(-1.26256e-05 -2.31961e-05 0)
(-7.17938e-06 -1.89548e-05 0)
(-3.39037e-06 -1.38768e-05 0)
(-1.11931e-06 -8.37434e-06 0)
(-8.94133e-08 -2.83409e-06 0)
(-9.21097e-08 4.05448e-06 0)
(-1.15904e-06 1.18023e-05 0)
(-3.52295e-06 1.93416e-05 0)
(-7.47717e-06 2.61861e-05 0)
(-1.3164e-05 3.18335e-05 0)
(-2.06706e-05 3.58964e-05 0)
(-3.0004e-05 3.82432e-05 0)
(-4.10975e-05 3.90412e-05 0)
(-5.38502e-05 3.8625e-05 0)
(-6.81419e-05 3.72671e-05 0)
(-8.37843e-05 3.50423e-05 0)
(-0.00010042 3.18499e-05 0)
(-0.000117398 2.74954e-05 0)
(-0.000133617 2.1756e-05 0)
(-0.000147384 1.4423e-05 0)
(-0.000156139 5.36193e-06 0)
(-0.000156452 -4.64387e-06 0)
(-0.000148212 -1.38621e-05 0)
(-0.000134754 -2.14284e-05 0)
(-0.000118656 -2.74161e-05 0)
(-0.000101658 -3.1997e-05 0)
(-8.49117e-05 -3.53757e-05 0)
(-6.91079e-05 -3.77411e-05 0)
(-5.46352e-05 -3.91937e-05 0)
(-4.17034e-05 -3.96598e-05 0)
(-3.04469e-05 -3.88693e-05 0)
(-2.0975e-05 -3.64923e-05 0)
(-1.33576e-05 -3.2368e-05 0)
(-7.58752e-06 -2.66344e-05 0)
(-3.57546e-06 -1.96834e-05 0)
(-1.17662e-06 -1.20205e-05 0)
(-9.36847e-08 -4.13463e-06 0)
(-9.52877e-08 5.57931e-06 0)
(-1.2018e-06 1.61017e-05 0)
(-3.66194e-06 2.62141e-05 0)
(-7.78842e-06 3.52945e-05 0)
(-1.37332e-05 4.2718e-05 0)
(-2.15839e-05 4.80188e-05 0)
(-3.13411e-05 5.10593e-05 0)
(-4.29285e-05 5.20744e-05 0)
(-5.62363e-05 5.14993e-05 0)
(-7.11371e-05 4.96797e-05 0)
(-8.74334e-05 4.67044e-05 0)
(-0.00010475 4.24365e-05 0)
(-0.000122407 3.66192e-05 0)
(-0.000139259 2.89602e-05 0)
(-0.000153549 1.91874e-05 0)
(-0.000162633 7.1256e-06 0)
(-0.000162975 -6.18785e-06 0)
(-0.000154457 -1.84545e-05 0)
(-0.000140506 -2.85313e-05 0)
(-0.00012379 -3.65147e-05 0)
(-0.000106114 -4.26281e-05 0)
(-8.86758e-05 -4.71403e-05 0)
(-7.22021e-05 -5.03e-05 0)
(-5.71015e-05 -5.22438e-05 0)
(-4.35955e-05 -5.28842e-05 0)
(-3.18278e-05 -5.18782e-05 0)
(-2.19175e-05 -4.87969e-05 0)
(-1.39446e-05 -4.34144e-05 0)
(-7.90845e-06 -3.58771e-05 0)
(-3.71881e-06 -2.66573e-05 0)
(-1.22077e-06 -1.6384e-05 0)
(-9.6977e-08 -5.68265e-06 0)
(-9.92734e-08 7.39083e-06 0)
(-1.25227e-06 2.12266e-05 0)
(-3.82029e-06 3.44268e-05 0)
(-8.13573e-06 4.61996e-05 0)
(-1.43618e-05 5.57646e-05 0)
(-2.259e-05 6.25552e-05 0)
(-3.28177e-05 6.64241e-05 0)
(-4.49594e-05 6.76897e-05 0)
(-5.8894e-05 6.69116e-05 0)
(-7.44825e-05 6.45266e-05 0)
(-9.1513e-05 6.06412e-05 0)
(-0.000109589 5.50757e-05 0)
(-0.000127994 4.75008e-05 0)
(-0.000145535 3.75438e-05 0)
(-0.000160391 2.48616e-05 0)
(-0.000169832 9.23186e-06 0)
(-0.000170222 -8.01149e-06 0)
(-0.000161429 -2.39063e-05 0)
(-0.000146966 -3.69827e-05 0)
(-0.000129584 -4.73618e-05 0)
(-0.00011116 -5.53234e-05 0)
(-9.29476e-05 -6.12087e-05 0)
(-7.57136e-05 -6.53361e-05 0)
(-5.98947e-05 -6.78841e-05 0)
(-4.57309e-05 -6.87476e-05 0)
(-3.33803e-05 -6.74933e-05 0)
(-2.29753e-05 -6.35697e-05 0)
(-1.46057e-05 -5.66706e-05 0)
(-8.27401e-06 -4.69556e-05 0)
(-3.88573e-06 -3.50003e-05 0)
(-1.27408e-06 -2.15909e-05 0)
(-1.01216e-07 -7.52381e-06 0)
(-1.05162e-07 9.56933e-06 0)
(-1.32517e-06 2.73999e-05 0)
(-4.04404e-06 4.43326e-05 0)
(-8.61739e-06 5.93674e-05 0)
(-1.52209e-05 7.15308e-05 0)
(-2.39518e-05 8.01288e-05 0)
(-3.48048e-05 8.49987e-05 0)
(-4.76847e-05 8.65589e-05 0)
(-6.24561e-05 8.55214e-05 0)
(-7.8963e-05 8.24354e-05 0)
(-9.69713e-05 7.74313e-05 0)
(-0.000116052 7.02805e-05 0)
(-0.00013544 6.05703e-05 0)
(-0.000153878 4.78379e-05 0)
(-0.000169465 3.16621e-05 0)
(-0.000179369 1.17672e-05 0)
(-0.000179833 -1.01674e-05 0)
(-0.000170704 -3.04063e-05 0)
(-0.000155592 -4.70958e-05 0)
(-0.000137353 -6.03811e-05 0)
(-0.000117948 -7.06006e-05 0)
(-9.87069e-05 -7.81744e-05 0)
(-8.04553e-05 -8.34998e-05 0)
(-6.36706e-05 -8.68028e-05 0)
(-4.86219e-05 -8.79539e-05 0)
(-3.54885e-05 -8.64082e-05 0)
(-2.442e-05 -8.14647e-05 0)
(-1.55173e-05 -7.27218e-05 0)
(-8.78536e-06 -6.0359e-05 0)
(-4.12353e-06 -4.5083e-05 0)
(-1.35168e-06 -2.78756e-05 0)
(-1.07525e-07 -9.74254e-06 0)
(-1.13879e-07 1.22403e-05 0)
(-1.4331e-06 3.49738e-05 0)
(-4.3732e-06 5.64929e-05 0)
(-9.32067e-06 7.55397e-05 0)
(-1.64666e-05 9.09006e-05 0)
(-2.59149e-05 0.000101721 0)
(-3.76568e-05 0.000107816 0)
(-5.15834e-05 0.000109725 0)
(-6.75392e-05 0.000108347 0)
(-8.53431e-05 0.000104371 0)
(-0.000104727 9.79601e-05 0)
(-0.000125211 8.88307e-05 0)
(-0.000145962 7.64768e-05 0)
(-0.000165631 6.03378e-05 0)
(-0.00018221 3.99102e-05 0)
(-0.000192741 1.48606e-05 0)
(-0.000193317 -1.27299e-05 0)
(-0.000183753 -3.823e-05 0)
(-0.000167776 -5.93352e-05 0)
(-0.000148368 -7.62096e-05 0)
(-0.000127608 -8.92465e-05 0)
(-0.000106928 -9.89471e-05 0)
(-8.72412e-05 -0.000105794 0)
(-6.90871e-05 -0.000110066 0)
(-5.27793e-05 -0.000111599 0)
(-3.85299e-05 -0.000109711 0)
(-2.6513e-05 -0.000103515 0)
(-1.68452e-05 -9.24983e-05 0)
(-9.53527e-06 -7.68677e-05 0)
(-4.47475e-06 -5.74961e-05 0)
(-1.46699e-06 -3.56086e-05 0)
(-1.16902e-07 -1.2471e-05 0)
(-1.26713e-07 1.55958e-05 0)
(-1.59287e-06 4.44918e-05 0)
(-4.85984e-06 7.17771e-05 0)
(-1.03578e-05 9.58683e-05 0)
(-1.82982e-05 0.000115247 0)
(-2.87933e-05 0.000128853 0)
(-4.18275e-05 0.000136472 0)
(-5.72705e-05 0.000138792 0)
(-7.49353e-05 0.000136946 0)
(-9.4601e-05 0.000131799 0)
(-0.000115945 0.00012356 0)
(-0.000138412 0.000111887 0)
(-0.000161063 9.6174e-05 0)
(-0.000182424 7.57612e-05 0)
(-0.000200349 5.00676e-05 0)
(-0.000211729 1.87004e-05 0)
(-0.000212475 -1.57946e-05 0)
(-0.000202356 -4.77606e-05 0)
(-0.000185232 -7.43644e-05 0)
(-0.000164235 -9.57776e-05 0)
(-0.000141591 -0.000112431 0)
(-0.000118881 -0.000124899 0)
(-9.7142e-05 -0.00013375 0)
(-7.70133e-05 -0.000139314 0)
(-5.88788e-05 -0.000141381 0)
(-4.30028e-05 -0.000139093 0)
(-2.95986e-05 -0.000131336 0)
(-1.8808e-05 -0.000117455 0)
(-1.06466e-05 -9.7701e-05 0)
(-4.99644e-06 -7.31595e-05 0)
(-1.63845e-06 -4.53653e-05 0)
(-1.30773e-07 -1.59129e-05 0)
(-1.45863e-07 1.99414e-05 0)
(-1.83185e-06 5.68186e-05 0)
(-5.58734e-06 9.15704e-05 0)
(-1.1906e-05 0.000122189 0)
(-2.1028e-05 0.000146757 0)
(-3.30754e-05 0.000163946 0)
(-4.80192e-05 0.000173496 0)
(-6.56928e-05 0.000176287 0)
(-8.58563e-05 0.000173753 0)
(-0.000108221 0.000166989 0)
(-0.000132376 0.000156269 0)
(-0.000157642 0.000141196 0)
(-0.000182925 0.000121067 0)
(-0.000206578 9.51436e-05 0)
(-0.000226287 6.27901e-05 0)
(-0.000238783 2.35601e-05 0)
(-0.00023979 -1.94736e-05 0)
(-0.000229012 -5.95127e-05 0)
(-0.000210427 -9.31164e-05 0)
(-0.000187316 -0.00012044 0)
(-0.000162083 -0.000141908 0)
(-0.000136508 -0.000158132 0)
(-0.000111819 -0.000169751 0)
(-8.88099e-05 -0.000177135 0)
(-6.79844e-05 -0.000180003 0)
(-4.96958e-05 -0.000177264 0)
(-3.42243e-05 -0.000167517 0)
(-2.17549e-05 -0.000149932 0)
(-1.23174e-05 -0.000124821 0)
(-5.78169e-06 -9.35534e-05 0)
(-1.89663e-06 -5.807e-05 0)
(-1.5162e-07 -2.03951e-05 0)
(-1.75119e-07 2.5783e-05 0)
(-2.19766e-06 7.33855e-05 0)
(-6.70052e-06 0.000118163 0)
(-1.42729e-05 0.000157533 0)
(-2.51953e-05 0.000189035 0)
(-3.96005e-05 0.000210973 0)
(-5.74319e-05 0.000223023 0)
(-7.84563e-05 0.000226312 0)
(-0.000102338 0.000222676 0)
(-0.000128667 0.000213522 0)
(-0.000156873 0.000199232 0)
(-0.000186074 0.000179378 0)
(-0.000214944 0.000153198 0)
(-0.000241602 0.000119937 0)
(-0.000263563 7.89725e-05 0)
(-0.000277448 2.98265e-05 0)
(-0.000278862 -2.38658e-05 0)
(-0.000267425 -7.41209e-05 0)
(-0.000247131 -0.000116841 0)
(-0.000221341 -0.000152124 0)
(-0.000192633 -0.000180293 0)
(-0.000163046 -0.0002019 0)
(-0.000134091 -0.000217588 0)
(-0.00010682 -0.000227724 0)
(-8.19467e-05 -0.0002319 0)
(-5.99896e-05 -0.000228713 0)
(-4.13531e-05 -0.000216374 0)
(-2.63024e-05 -0.000193836 0)
(-1.4898e-05 -0.000161509 0)
(-6.99512e-06 -0.000121153 0)
(-2.29556e-06 -7.52693e-05 0)
(-1.83754e-07 -2.64651e-05 0)
(-2.21624e-07 3.40066e-05 0)
(-2.78102e-06 9.66989e-05 0)
(-8.47566e-06 0.000155565 0)
(-1.80438e-05 0.000207198 0)
(-3.18239e-05 0.000248362 0)
(-4.99538e-05 0.00027683 0)
(-7.23138e-05 0.00029217 0)
(-9.85374e-05 0.00029585 0)
(-0.000128099 0.000290264 0)
(-0.000160347 0.000277269 0)
(-0.000194416 0.000257451 0)
(-0.000229076 0.000230432 0)
(-0.000262643 0.000195521 0)
(-0.000292967 0.000152116 0)
(-0.000317463 9.97755e-05 0)
(-0.000332866 3.80333e-05 0)
(-0.000334924 -2.89649e-05 0)
(-0.000323158 -9.22302e-05 0)
(-0.000301282 -0.000147075 0)
(-0.000272478 -0.000193493 0)
(-0.000239375 -0.000231502 0)
(-0.000204291 -0.000261363 0)
(-0.000169152 -0.000283526 0)
(-0.000135452 -0.000298218 0)
(-0.000104304 -0.000304772 0)
(-7.65533e-05 -0.000301318 0)
(-5.28604e-05 -0.000285538 0)
(-3.36573e-05 -0.000256103 0)
(-1.90761e-05 -0.000213597 0)
(-8.96029e-06 -0.000160366 0)
(-2.94131e-06 -9.97152e-05 0)
(-2.35573e-07 -3.50959e-05 0)
(-2.9699e-07 4.54316e-05 0)
(-3.71356e-06 0.000129073 0)
(-1.13067e-05 0.000207458 0)
(-2.40423e-05 0.000276002 0)
(-4.23339e-05 0.000330355 0)
(-6.6298e-05 0.000367515 0)
(-9.56672e-05 0.00038687 0)
(-0.000129794 0.00039034 0)
(-0.000167758 0.000381094 0)
(-0.000208425 0.000361665 0)
(-0.000250371 0.000333051 0)
(-0.000291786 0.000295186 0)
(-0.000330511 0.000247796 0)
(-0.000364203 0.000190829 0)
(-0.000390517 0.000124347 0)
(-0.000406881 4.79648e-05 0)
(-0.000409878 -3.40062e-05 0)
(-0.000398968 -0.000112367 0)
(-0.000376908 -0.000182302 0)
(-0.00034604 -0.00024372 0)
(-0.000308584 -0.000296016 0)
(-0.000266952 -0.000338672 0)
(-0.000223566 -0.000371458 0)
(-0.000180632 -0.000394055 0)
(-0.00014001 -0.000405212 0)
(-0.00010323 -0.000402312 0)
(-7.14951e-05 -0.000382298 0)
(-4.56097e-05 -0.000343512 0)
(-2.58819e-05 -0.00028686 0)
(-1.21672e-05 -0.000215577 0)
(-3.99688e-06 -0.000134156 0)
(-3.21518e-07 -4.726e-05 0)
(-4.09713e-07 5.99722e-05 0)
(-5.10423e-06 0.000170235 0)
(-1.55208e-05 0.000273332 0)
(-3.29439e-05 0.000363109 0)
(-5.78574e-05 0.000433721 0)
(-9.02747e-05 0.000481101 0)
(-0.000129597 0.000504353 0)
(-0.000174605 0.000505951 0)
(-0.000223614 0.000490096 0)
(-0.000274599 0.00046035 0)
(-0.000325214 0.000418562 0)
(-0.000372867 0.000365541 0)
(-0.000414996 0.000302069 0)
(-0.000449481 0.000229232 0)
(-0.000474942 0.000147936 0)
(-0.000490474 5.78323e-05 0)
(-0.000494556 -3.73366e-05 0)
(-0.000486745 -0.000129649 0)
(-0.000467937 -0.000215172 0)
(-0.000438597 -0.000294047 0)
(-0.000399587 -0.000364865 0)
(-0.000352719 -0.000425732 0)
(-0.000300629 -0.000474906 0)
(-0.000246375 -0.000510659 0)
(-0.000193028 -0.000530426 0)
(-0.000143396 -0.000530299 0)
(-9.98064e-05 -0.000506197 0)
(-6.38655e-05 -0.000456133 0)
(-3.63063e-05 -0.000381588 0)
(-1.70851e-05 -0.000287101 0)
(-5.61568e-06 -0.000178817 0)
(-4.53583e-07 -6.30442e-05 0)
(-5.6952e-07 7.74716e-05 0)
(-7.09707e-06 0.000219706 0)
(-2.15546e-05 0.000352314 0)
(-4.56436e-05 0.000467124 0)
(-7.9859e-05 0.00055634 0)
(-0.000123913 0.000614495 0)
(-0.000176512 0.000640282 0)
(-0.000235349 0.000636877 0)
(-0.000297388 0.000609928 0)
(-0.000359195 0.000564636 0)
(-0.000417205 0.000504487 0)
(-0.000468113 0.000432024 0)
(-0.000509452 0.000349854 0)
(-0.000540153 0.000260653 0)
(-0.000560749 0.000166213 0)
(-0.000572918 6.59276e-05 0)
(-0.000577947 -3.789e-05 0)
(-0.000575731 -0.000140065 0)
(-0.000564723 -0.00023875 0)
(-0.000542683 -0.000335036 0)
(-0.000507982 -0.000427099 0)
(-0.000460579 -0.000511465 0)
(-0.000402312 -0.000584033 0)
(-0.000336651 -0.000640387 0)
(-0.000268111 -0.00067526 0)
(-0.000201549 -0.000682333 0)
(-0.000141389 -0.000655888 0)
(-9.09007e-05 -0.000593563 0)
(-5.18008e-05 -0.000497812 0)
(-2.43968e-05 -0.000375088 0)
(-8.01502e-06 -0.000233814 0)
(-6.46095e-07 -8.24852e-05 0)
(-8.09079e-07 9.87803e-05 0)
(-1.00605e-05 0.000279847 0)
(-3.04879e-05 0.000448011 0)
(-6.43135e-05 0.000592383 0)
(-0.000111856 0.000702542 0)
(-0.000172081 0.000771134 0)
(-0.000242284 0.00079636 0)
(-0.000318187 0.000782518 0)
(-0.000394561 0.000737571 0)
(-0.000466034 0.000669533 0)
(-0.00052784 0.000584779 0)
(-0.000576583 0.000488656 0)
(-0.000610957 0.00038619 0)
(-0.000632098 0.000281633 0)
(-0.000643344 0.00017719 0)
(-0.000649492 7.14192e-05 0)
(-0.00065508 -3.55098e-05 0)
(-0.000660586 -0.000142083 0)
(-0.000662008 -0.00024949 0)
(-0.000654192 -0.000360764 0)
(-0.000632224 -0.000474802 0)
(-0.000592693 -0.000587274 0)
(-0.000534761 -0.000691506 0)
(-0.000460738 -0.000779027 0)
(-0.000375967 -0.000839644 0)
(-0.000287932 -0.000862279 0)
(-0.000204617 -0.000837947 0)
(-0.000132612 -0.000763448 0)
(-7.58917e-05 -0.000642737 0)
(-3.57961e-05 -0.000485221 0)
(-1.17511e-05 -0.000302711 0)
(-9.45586e-07 -0.000106819 0)
(-1.18278e-06 0.000125346 0)
(-1.46541e-05 0.000354611 0)
(-4.4236e-05 0.000566318 0)
(-9.27184e-05 0.000745723 0)
(-0.00015972 0.000878738 0)
(-0.000242477 0.000955551 0)
(-0.000335539 0.000974086 0)
(-0.000431278 0.000940867 0)
(-0.000521333 0.000867945 0)
(-0.000598285 0.000768111 0)
(-0.000656999 0.000652268 0)
(-0.000695488 0.000529438 0)
(-0.000715214 0.000406993 0)
(-0.000720677 0.000289958 0)
(-0.000718454 0.000179908 0)
(-0.000716325 7.38591e-05 0)
(-0.000721871 -3.05217e-05 0)
(-0.000736288 -0.000135479 0)
(-0.000753709 -0.000245564 0)
(-0.000766793 -0.000366611 0)
(-0.000767534 -0.000499925 0)
(-0.000748171 -0.000642325 0)
(-0.000702864 -0.000785941 0)
(-0.000629644 -0.000917906 0)
(-0.000532045 -0.00102052 0)
(-0.000419356 -0.00107383 0)
(-0.000304528 -0.00106169 0)
(-0.000200271 -0.000978085 0)
(-0.000115601 -0.0008287 0)
(-5.47375e-05 -0.000627567 0)
(-1.79693e-05 -0.000391933 0)
(-1.44246e-06 -0.00013829 0)
(-1.80116e-06 0.000159499 0)
(-2.21196e-05 0.000450224 0)
(-6.62517e-05 0.000716182 0)
(-0.000137308 0.000936855 0)
(-0.00023286 0.00109302 0)
(-0.000346385 0.00117205 0)
(-0.000467439 0.00117278 0)
(-0.000583349 0.00110651 0)
(-0.000682199 0.00099254 0)
(-0.000755638 0.000851128 0)
(-0.000800363 0.000699146 0)
(-0.00081819 0.000549218 0)
(-0.000815051 0.000409818 0)
(-0.000799402 0.000285066 0)
(-0.000780681 0.000174565 0)
(-0.000768769 7.32279e-05 0)
(-0.000773489 -2.36588e-05 0)
(-0.0007967 -0.000121401 0)
(-0.000831583 -0.000227428 0)
(-0.000870129 -0.00035057 0)
(-0.000902807 -0.000496047 0)
(-0.000918178 -0.000664734 0)
(-0.000904061 -0.000851173 0)
(-0.000850312 -0.00104063 0)
(-0.000753166 -0.001207 0)
(-0.000619231 -0.00131618 0)
(-0.000465582 -0.00133723 0)
(-0.000314295 -0.00125527 0)
(-0.000184664 -0.00107589 0)
(-8.83691e-05 -0.000819714 0)
(-2.91571e-05 -0.000513123 0)
(-2.35058e-06 -0.000181068 0)
(-2.88913e-06 0.000205226 0)
(-3.47614e-05 0.0005768 0)
(-0.000102492 0.000911158 0)
(-0.000208288 0.00117892 0)
(-0.000344508 0.00135414 0)
(-0.000497127 0.00142233 0)
(-0.00064767 0.00138674 0)
(-0.000777352 0.00126847 0)
(-0.000872175 0.00109862 0)
(-0.000926197 0.000907514 0)
(-0.000941666 0.000718069 0)
(-0.000926849 0.000544648 0)
(-0.000893067 0.000394253 0)
(-0.000852186 0.000267962 0)
(-0.00081519 0.000162255 0)
(-0.000792638 6.98057e-05 0)
(-0.000795442 -1.59101e-05 0)
(-0.000825831 -0.000102069 0)
(-0.000876839 -0.000197833 0)
(-0.000941436 -0.000314271 0)
(-0.0010111 -0.000460881 0)
(-0.0010736 -0.000645012 0)
(-0.00111208 -0.000868686 0)
(-0.0011064 -0.00112191 0)
(-0.00103879 -0.00137458 0)
(-0.000903535 -0.00157566 0)
(-0.000714548 -0.00166858 0)
(-0.000503009 -0.00161599 0)
(-0.000305185 -0.00141474 0)
(-0.000149437 -0.00109166 0)
(-5.01401e-05 -0.000687714 0)
(-4.13478e-06 -0.000243301 0)
(-4.88243e-06 0.000269163 0)
(-5.63844e-05 0.000749758 0)
(-0.000161568 0.00116949 0)
(-0.000317989 0.00148591 0)
(-0.000506347 0.0016663 0)
(-0.000699548 0.001699 0)
(-0.000868783 0.0015996 0)
(-0.000991159 0.0014068 0)
(-0.0010559 0.00116826 0)
(-0.00106552 0.000924918 0)
(-0.00103213 0.000702936 0)
(-0.000971884 0.000514417 0)
(-0.000900632 0.000361563 0)
(-0.000831654 0.000240589 0)
(-0.000775431 0.000144419 0)
(-0.000741538 6.39162e-05 0)
(-0.000740759 -8.40701e-06 0)
(-0.000775175 -8.0317e-05 0)
(-0.000837968 -0.000161299 0)
(-0.000924044 -0.000263165 0)
(-0.00102813 -0.000398449 0)
(-0.00114122 -0.000581204 0)
(-0.00124714 -0.000824728 0)
(-0.00131975 -0.00113267 0)
(-0.00132531 -0.00148272 0)
(-0.00123497 -0.00181348 0)
(-0.00104348 -0.00203536 0)
(-0.000779521 -0.00206776 0)
(-0.000497055 -0.00187653 0)
(-0.000253161 -0.00148386 0)
(-8.78056e-05 -0.000948899 0)
(-7.59596e-06 -0.000338883 0)
(-8.55063e-06 0.00036115 0)
(-9.22282e-05 0.000988607 0)
(-0.00025227 0.00150856 0)
(-0.000472679 0.0018622 0)
(-0.000711895 0.00201586 0)
(-0.000924748 0.00197337 0)
(-0.00107496 0.00177617 0)
(-0.00114442 0.00148931 0)
(-0.0011359 0.00117851 0)
(-0.00106754 0.00089099 0)
(-0.00096352 0.00064972 0)
(-0.000846237 0.000459223 0)
(-0.00073266 0.000314131 0)
(-0.00063424 0.000205215 0)
(-0.000558589 0.000122437 0)
(-0.000512746 5.57861e-05 0)
(-0.000506286 -2.26569e-06 0)
(-0.000540519 -5.90348e-05 0)
(-0.000608531 -0.000123103 0)
(-0.000707007 -0.000205414 0)
(-0.000834576 -0.000319236 0)
(-0.000988253 -0.000482813 0)
(-0.00115892 -0.000720187 0)
(-0.00132458 -0.00105421 0)
(-0.00144482 -0.00148546 0)
(-0.00146696 -0.00196152 0)
(-0.00134988 -0.00236875 0)
(-0.00109312 -0.00256804 0)
(-0.000748882 -0.00245861 0)
(-0.000405176 -0.00202433 0)
(-0.000148225 -0.00133136 0)
(-1.37983e-05 -0.000485433 0)
(-1.53328e-05 0.000493969 0)
(-0.000149152 0.00131107 0)
(-0.000379185 0.00193076 0)
(-0.000659004 0.00228264 0)
(-0.000912985 0.00235244 0)
(-0.00108143 0.0021836 0)
(-0.00113602 0.00185968 0)
(-0.00108154 0.00147539 0)
(-0.000946428 0.00110734 0)
(-0.000767537 0.00079816 0)
(-0.000577361 0.000559014 0)
(-0.000398296 0.000382669 0)
(-0.000242934 0.00025565 0)
(-0.000117294 0.0001645 0)
(-2.41681e-05 9.77601e-05 0)
(3.2987e-05 4.57518e-05 0)
(4.6553e-05 1.71084e-06 0)
(1.64398e-05 -4.05343e-05 0)
(-4.99416e-05 -8.79102e-05 0)
(-0.000150197 -0.000149408 0)
(-0.00028589 -0.000236828 0)
(-0.000459974 -0.000368682 0)
(-0.000673547 -0.000574442 0)
(-0.000919107 -0.000893092 0)
(-0.00116795 -0.00135586 0)
(-0.00136184 -0.00194376 0)
(-0.00142482 -0.00255128 0)
(-0.00129947 -0.00299436 0)
(-0.000991176 -0.00307785 0)
(-0.000588853 -0.00268804 0)
(-0.00023436 -0.00184904 0)
(-2.43048e-05 -0.000698814 0)
(-2.86068e-05 0.000685079 0)
(-0.000238045 0.00172612 0)
(-0.000538299 0.00240571 0)
(-0.000829549 0.00267352 0)
(-0.00100274 0.00258022 0)
(-0.00101039 0.00224079 0)
(-0.0008643 0.00178821 0)
(-0.000612512 0.00133424 0)
(-0.000312653 0.000947412 0)
(-1.19354e-05 0.000651448 0)
(0.000260482 0.00043951 0)
(0.000491547 0.000292619 0)
(0.000678438 0.000191743 0)
(0.000822858 0.00012194 0)
(0.000927466 7.22934e-05 0)
(0.000992504 3.45844e-05 0)
(0.00101259 3.37248e-06 0)
(0.000988866 -2.60013e-05 0)
(0.000929261 -5.86236e-05 0)
(0.000836009 -0.000101119 0)
(0.000706145 -0.000162602 0)
(0.000532865 -0.000258621 0)
(0.000306385 -0.000417056 0)
(1.64629e-05 -0.000682794 0)
(-0.000334843 -0.00110929 0)
(-0.000712938 -0.00172315 0)
(-0.00103705 -0.00246882 0)
(-0.00119399 -0.00317138 0)
(-0.00109578 -0.00355999 0)
(-0.000760187 -0.00336876 0)
(-0.000347758 -0.00247783 0)
(-4.2654e-05 -0.00099169 0)
(-5.49599e-05 0.000961015 0)
(-0.000373491 0.00222409 0)
(-0.000700288 0.00285057 0)
(-0.000876426 0.00290536 0)
(-0.000804648 0.0025749 0)
(-0.000509164 0.00206292 0)
(-7.55374e-05 0.00152922 0)
(0.000403469 0.00106877 0)
(0.000858644 0.000717821 0)
(0.0012535 0.000472106 0)
(0.00157731 0.00030822 0)
(0.00183377 0.000200643 0)
(0.0020318 0.000129578 0)
(0.00218036 8.17305e-05 0)
(0.00228643 4.83939e-05 0)
(0.00235305 2.35246e-05 0)
(0.00237682 3.28143e-06 0)
(0.00235973 -1.54805e-05 0)
(0.00230969 -3.6141e-05 0)
(0.00222902 -6.30769e-05 0)
(0.00211449 -0.000102507 0)
(0.00195781 -0.000165602 0)
(0.0017442 -0.000273911 0)
(0.0014507 -0.000466792 0)
(0.00105174 -0.000801545 0)
(0.00053907 -0.00133721 0)
(-4.53564e-05 -0.0020882 0)
(-0.000580504 -0.00295876 0)
(-0.000886981 -0.00368918 0)
(-0.000832614 -0.00387799 0)
(-0.000483637 -0.00314299 0)
(-7.43378e-05 -0.00137466 0)
(-9.86563e-05 0.00136891 0)
(-0.0005445 0.00275168 0)
(-0.000744471 0.00310156 0)
(-0.000570478 0.00280495 0)
(-6.22669e-05 0.00223125 0)
(0.000625837 0.00162578 0)
(0.0013443 0.00111154 0)
(0.00199454 0.00072629 0)
(0.00253304 0.000462277 0)
(0.00295623 0.000292178 0)
(0.00328009 0.000185743 0)
(0.00352503 0.000118968 0)
(0.00370864 7.61211e-05 0)
(0.00384393 4.77884e-05 0)
(0.00393975 2.82921e-05 0)
(0.00400035 1.38985e-05 0)
(0.00402378 2.30185e-06 0)
(0.00401225 -8.34722e-06 0)
(0.00397287 -2.00118e-05 0)
(0.00390782 -3.5243e-05 0)
(0.00381417 -5.77497e-05 0)
(0.00368388 -9.4416e-05 0)
(0.00350118 -0.000159101 0)
(0.00323805 -0.000278942 0)
(0.00285234 -0.000499194 0)
(0.00229736 -0.000882692 0)
(0.00155224 -0.00149196 0)
(0.00067596 -0.00234102 0)
(-0.000144141 -0.00329895 0)
(-0.000627134 -0.00397257 0)
(-0.000591152 -0.0037089 0)
(-0.000119558 -0.00187284 0)
(-0.000171855 0.0020189 0)
(-0.000615424 0.00316082 0)
(-0.000313668 0.00290696 0)
(0.000507593 0.00223012 0)
(0.00153189 0.00155104 0)
(0.00253276 0.00101224 0)
(0.00338967 0.00063387 0)
(0.00406392 0.000387033 0)
(0.00456814 0.000234422 0)
(0.00493671 0.000143397 0)
(0.00520564 8.94868e-05 0)
(0.00540329 5.68064e-05 0)
(0.00554906 3.62129e-05 0)
(0.00565553 2.27099e-05 0)
(0.00573069 1.34596e-05 0)
(0.00577844 6.65133e-06 0)
(0.00579771 1.18643e-06 0)
(0.00579035 -3.81682e-06 0)
(0.00576189 -9.29214e-06 0)
(0.00571409 -1.64717e-05 0)
(0.00564458 -2.71825e-05 0)
(0.00554664 -4.48927e-05 0)
(0.00540659 -7.67464e-05 0)
(0.00519858 -0.000137285 0)
(0.00487873 -0.000252857 0)
(0.00438401 -0.000467044 0)
(0.00364395 -0.000845237 0)
(0.00261975 -0.0014698 0)
(0.00138147 -0.00238443 0)
(0.00019045 -0.0034256 0)
(-0.000487524 -0.00394424 0)
(-0.000186364 -0.00255637 0)
(-0.000118542 0.00260701 0)
(1.2176e-05 0.00296473 0)
(0.00138825 0.00205206 0)
(0.00291741 0.00126885 0)
(0.00419875 0.000743186 0)
(0.00518647 0.000422157 0)
(0.00590839 0.000238144 0)
(0.00641594 0.00013518 0)
(0.00676685 7.81735e-05 0)
(0.00701068 4.66809e-05 0)
(0.00718361 2.88923e-05 0)
(0.00730902 1.83431e-05 0)
(0.00740106 1.17283e-05 0)
(0.00746819 7.37851e-06 0)
(0.0075156 4.38535e-06 0)
(0.00754583 2.17017e-06 0)
(0.00755824 3.85039e-07 0)
(0.00755401 -1.25637e-06 0)
(0.00753659 -3.06162e-06 0)
(0.00750705 -5.45089e-06 0)
(0.00746375 -9.06137e-06 0)
(0.00740212 -1.51284e-05 0)
(0.00731267 -2.62256e-05 0)
(0.00717701 -4.77152e-05 0)
(0.00696223 -8.97946e-05 0)
(0.00661521 -0.000171429 0)
(0.00605809 -0.000329019 0)
(0.00518997 -0.000634387 0)
(0.00390774 -0.0012095 0)
(0.00217838 -0.00217175 0)
(0.000405943 -0.00330914 0)
(-3.98255e-05 -0.00294137 0)
(0.00261729 0.00119646 0)
(0.00376571 0.00098355 0)
(0.00568143 0.00044341 0)
(0.00702946 0.00019865 0)
(0.00782466 9.36849e-05 0)
(0.00831134 4.32801e-05 0)
(0.00861631 2.04568e-05 0)
(0.00880931 1.03139e-05 0)
(0.00893445 5.59793e-06 0)
(0.00901864 3.28794e-06 0)
(0.00907773 2.06205e-06 0)
(0.00912066 1.34002e-06 0)
(0.00915235 8.76286e-07 0)
(0.00917559 5.60999e-07 0)
(0.00919208 3.38382e-07 0)
(0.00920261 1.68103e-07 0)