/*--------------------------------*- C++ -*----------------------------------*\
| =========                 |                                                 |
| \\      /  F ield         | OpenFOAM: The Open Source CFD Toolbox           |
|  \\    /   O peration     | Version:  2206                                  |
|   \\  /    A nd           | Website:  www.openfoam.com                      |
|    \\/     M anipulation  |                                                 |
\*---------------------------------------------------------------------------*/
FoamFile
{
    version     2.0;
    format      ascii;
    arch        "LSB;label=64;scalar=64";
    class       volVectorField;
    location    "644400";
    object      U;
}
// * * * * * * * * * * * * * * * * * * * * * * * * * * * * * * * * * * * * * //

dimensions      [0 1 -1 0 0 0 0];

internalField   nonuniform List<vector> 
16
(
(8.97902e-08 -7.80094e-08 0)
(2.06912e-07 1.2147e-08 0)
(6.53127e-08 5.20417e-08 0)
(-3.15069e-08 1.28855e-08 0)
(1.56495e-08 -2.19373e-07 0)
(7.14931e-08 1.07455e-08 0)
(1.64951e-08 1.90154e-07 0)
(-2.25128e-08 2.01518e-08 0)
(-5.07722e-08 -1.60903e-07 0)
(-1.46073e-07 9.21081e-09 0)
(-4.46752e-08 1.44182e-07 0)
(3.13474e-08 7.03081e-09 0)
(-5.5269e-08 -2.73671e-08 0)
(-1.33027e-07 5.71042e-09 0)
(-3.64407e-08 1.47868e-08 0)
(2.2187e-08 6.47177e-09 0)
)
;

boundaryField
{
    movingWall
    {
        type            noSlip;
    }
    fixedWalls
    {
        type            noSlip;
    }
    frontAndBack
    {
        type            empty;
    }
}


// ************************************************************************* //
