/*--------------------------------*- C++ -*----------------------------------*\
| =========                 |                                                 |
| \\      /  F ield         | OpenFOAM: The Open Source CFD Toolbox           |
|  \\    /   O peration     | Version:  2212                                  |
|   \\  /    A nd           | Website:  www.openfoam.com                      |
|    \\/     M anipulation  |                                                 |
\*---------------------------------------------------------------------------*/
FoamFile
{
    version     2.0;
    format      ascii;
    arch        "LSB;label=64;scalar=64";
    class       volScalarField;
    location    "1270";
    object      Sch4;
}
// * * * * * * * * * * * * * * * * * * * * * * * * * * * * * * * * * * * * * //

dimensions      [1 -3 0 0 0 0 0];

internalField   nonuniform List<scalar> 
1024
(
0.0355087
0.035516
0.0355339
0.0355663
0.0356174
0.0356909
0.0357884
0.0359082
0.0360447
0.0361888
0.0363303
0.0364574
0.036557
0.036617
0.0366247
0.0365667
0.0364377
0.0362602
0.0360583
0.0358378
0.0356029
0.0353611
0.0351237
0.0349039
0.0347126
0.034556
0.0344356
0.0343484
0.0342894
0.0342526
0.0342325
0.0342243
0.0355097
0.0355171
0.0355352
0.0355681
0.0356201
0.0356946
0.0357933
0.0359141
0.0360514
0.0361963
0.0363383
0.0364658
0.0365654
0.0366249
0.036632
0.0365735
0.0364441
0.0362669
0.0360654
0.0358455
0.0356111
0.0353695
0.0351319
0.0349114
0.0347189
0.034561
0.0344393
0.0343511
0.0342914
0.0342542
0.0342338
0.0342255
0.035512
0.0355196
0.0355382
0.0355719
0.0356252
0.0357016
0.0358024
0.0359254
0.0360648
0.0362119
0.0363565
0.0364862
0.0365864
0.0366448
0.0366495
0.0365888
0.0364581
0.0362807
0.03608
0.0358612
0.0356282
0.0353873
0.0351493
0.0349273
0.0347324
0.0345718
0.0344475
0.0343572
0.034296
0.0342579
0.034237
0.0342285
0.0355159
0.0355237
0.0355428
0.0355775
0.0356324
0.035711
0.0358146
0.0359408
0.0360842
0.0362364
0.0363874
0.036523
0.0366255
0.0366816
0.0366812
0.0366148
0.0364803
0.0363016
0.0361014
0.0358844
0.0356533
0.0354138
0.0351756
0.0349516
0.0347533
0.0345887
0.0344605
0.0343671
0.0343036
0.034264
0.0342424
0.0342336
0.0355217
0.0355296
0.035549
0.0355846
0.0356408
0.0357216
0.0358283
0.0359591
0.0361091
0.036271
0.0364343
0.0365813
0.0366888
0.0367413
0.0367313
0.0366536
0.0365109
0.0363284
0.0361278
0.0359124
0.035684
0.0354465
0.0352087
0.0349827
0.0347805
0.034611
0.034478
0.0343806
0.0343142
0.0342728
0.0342501
0.0342409
0.03553
0.0355378
0.0355572
0.0355929
0.0356499
0.0357323
0.0358424
0.0359794
0.0361398
0.0363173
0.0365006
0.0366661
0.0367821
0.0368294
0.0368038
0.0367072
0.0365493
0.0363586
0.0361553
0.0359408
0.0357152
0.0354805
0.0352439
0.0350167
0.0348108
0.0346364
0.0344984
0.0343967
0.0343271
0.0342836
0.0342598
0.0342502
0.0355424
0.0355498
0.0355686
0.0356036
0.0356603
0.0357437
0.0358574
0.0360026
0.036178
0.0363784
0.0365903
0.0367818
0.0369099
0.0369498
0.0369013
0.0367759
0.0365939
0.0363887
0.0361787
0.0359629
0.0357393
0.0355078
0.0352735
0.0350464
0.0348385
0.0346604
0.0345182
0.0344127
0.0343403
0.034295
0.0342703
0.0342603
0.0355631
0.0355699
0.0355873
0.0356207
0.035676
0.0357598
0.0358775
0.0360334
0.0362289
0.03646
0.0367088
0.0369321
0.0370742
0.0371032
0.0370235
0.0368584
0.0366419
0.0364141
0.0361917
0.0359707
0.0357469
0.035518
0.0352871
0.0350622
0.0348548
0.0346758
0.034532
0.0344247
0.0343508
0.0343045
0.0342792
0.0342689
0.035602
0.0356077
0.0356232
0.0356542
0.0357076
0.0357914
0.0359143
0.0360838
0.0363051
0.0365739
0.0368652
0.0371223
0.0372757
0.0372869
0.0371666
0.0369515
0.0366906
0.0364312
0.0361889
0.0359567
0.0357284
0.0355003
0.0352729
0.0350528
0.0348498
0.0346742
0.0345328
0.0344271
0.0343541
0.0343082
0.0342831
0.0342728
0.0356795
0.035684
0.0356973
0.0357258
0.0357775
0.0358627
0.035993
0.0361802
0.0364322
0.0367424
0.0370758
0.0373608
0.037515
0.0374973
0.037327
0.0370549
0.0367427
0.0364434
0.0361717
0.0359191
0.0356791
0.0354469
0.035222
0.0350085
0.0348142
0.0346475
0.034514
0.0344144
0.0343458
0.0343026
0.0342788
0.0342691
0.0358319
0.0358356
0.0358475
0.0358749
0.0359273
0.0360172
0.0361593
0.0363683
0.0366525
0.0370004
0.037365
0.0376606
0.0377969
0.0377363
0.0375111
0.0371841
0.036822
0.0364768
0.0361637
0.0358765
0.0356109
0.0353644
0.0351363
0.0349287
0.0347462
0.0345936
0.0344737
0.0343856
0.0343257
0.0342884
0.0342682
0.03426
0.0361114
0.0361154
0.0361284
0.0361583
0.036216
0.0363159
0.0364745
0.0367069
0.037018
0.0373887
0.0377604
0.0380383
0.038134
0.0380242
0.0377561
0.0373976
0.0370054
0.0366178
0.0362507
0.0359061
0.035589
0.0353043
0.0350551
0.034843
0.0346687
0.0345317
0.0344299
0.0343594
0.0343146
0.0342891
0.0342768
0.0342726
0.0365682
0.0365743
0.0365919
0.0366294
0.0366982
0.036813
0.0369899
0.0372408
0.0375647
0.0379338
0.038281
0.0385137
0.0385618
0.0384267
0.0381682
0.0378448
0.0374831
0.0370883
0.0366705
0.0362457
0.0358362
0.0354646
0.0351475
0.0348931
0.0347021
0.0345692
0.0344852
0.0344395
0.0344212
0.0344193
0.0344244
0.0344292
0.0372116
0.0372211
0.0372459
0.0372945
0.0373778
0.0375094
0.0377026
0.0379645
0.0382869
0.0386344
0.0389407
0.0391329
0.0391777
0.0391051
0.038975
0.0388231
0.0386312
0.0383503
0.0379682
0.0375055
0.0369978
0.0364913
0.0360308
0.0356473
0.0353624
0.0351793
0.0350846
0.0350552
0.0350668
0.0350966
0.0351265
0.0351443
0.0379732
0.0379858
0.0380178
0.0380784
0.0381793
0.0383332
0.0385503
0.0388317
0.0391607
0.0394995
0.0397992
0.0400285
0.0401982
0.0403539
0.04054
0.0407689
0.0409835
0.0410699
0.0409749
0.0407061
0.0402929
0.0397819
0.0392268
0.0386804
0.0381971
0.0378174
0.0375577
0.0374097
0.0373503
0.0373465
0.0373654
0.0373822
0.0387169
0.0387318
0.0387709
0.0388465
0.038973
0.0391643
0.0394281
0.0397598
0.0401396
0.0405399
0.0409419
0.0413502
0.041795
0.0423161
0.0429421
0.0436802
0.044454
0.0451018
0.0455454
0.0457841
0.0458189
0.045662
0.0453377
0.0448848
0.0443534
0.0438011
0.0432865
0.0428601
0.0425527
0.0423656
0.0422747
0.0422456
0.0392416
0.0392563
0.0392963
0.0393761
0.0395126
0.0397229
0.0400189
0.0404021
0.0408615
0.041378
0.0419378
0.0425444
0.0432181
0.043982
0.0448458
0.0458043
0.0467767
0.0476375
0.0483684
0.0489922
0.0494976
0.0498623
0.050064
0.0500899
0.0499446
0.0496553
0.0492728
0.0488648
0.0484981
0.0482218
0.0480536
0.047983
0.0395503
0.0395644
0.0396028
0.0396797
0.0398125
0.0400199
0.0403173
0.0407122
0.0411994
0.0417633
0.0423857
0.0430558
0.0437721
0.044532
0.0453183
0.0460999
0.0468026
0.0474043
0.0479957
0.048629
0.0492928
0.0499455
0.0505356
0.0510155
0.0513524
0.0515343
0.0515714
0.0514963
0.0513588
0.0512135
0.0511035
0.0510491
0.0397171
0.0397306
0.0397664
0.0398371
0.0399584
0.0401486
0.0404244
0.0407964
0.041264
0.0418139
0.0424241
0.0430721
0.0437387
0.044403
0.0450331
0.045587
0.0460108
0.0463621
0.0467968
0.0473884
0.0481258
0.0489518
0.049787
0.0505503
0.051181
0.051648
0.0519492
0.0521056
0.0521541
0.0521397
0.0521054
0.0520815
0.0397989
0.0398115
0.0398441
0.0399072
0.0400145
0.0401822
0.0404264
0.0407588
0.0411815
0.041684
0.0422441
0.0428341
0.0434259
0.0439909
0.0444954
0.0449023
0.0451814
0.0454245
0.0457862
0.0463471
0.0471139
0.0480439
0.0490566
0.0500468
0.0509185
0.0516088
0.0520959
0.0523946
0.0525437
0.0525934
0.0525934
0.0525822
0.0398395
0.0398502
0.039878
0.0399318
0.0400235
0.0401671
0.0403771
0.0406646
0.041033
0.0414743
0.0419691
0.0424905
0.0430099
0.0434998
0.0439326
0.0442844
0.0445455
0.0448037
0.0451739
0.045726
0.0464823
0.0474267
0.0485028
0.0496141
0.0506521
0.0515248
0.0521806
0.0526135
0.0528546
0.0529571
0.0529803
0.0529753
0.0398898
0.0398962
0.0399148
0.0399543
0.0400257
0.0401423
0.0403168
0.0405594
0.0408734
0.0412534
0.0416843
0.0421445
0.0426105
0.0430608
0.0434777
0.0438519
0.0441842
0.0445297
0.0449581
0.0455261
0.0462638
0.047176
0.0482327
0.0493644
0.0504744
0.0514605
0.0522449
0.0527949
0.0531241
0.05328
0.0533269
0.0533276
0.0400155
0.0400137
0.0400158
0.0400315
0.0400735
0.0401562
0.0402928
0.0404928
0.0407602
0.0410918
0.0414773
0.0419015
0.0423479
0.0428018
0.0432536
0.0437052
0.0441545
0.0446111
0.0451085
0.0456952
0.0464066
0.0472622
0.0482522
0.0493325
0.0504298
0.0514535
0.0523148
0.0529546
0.0533619
0.0535706
0.053643
0.0536499
0.0402921
0.0402771
0.0402536
0.0402344
0.0402366
0.0402788
0.0403774
0.0405439
0.040783
0.0410931
0.0414672
0.0418941
0.0423613
0.0428579
0.0433785
0.0439301
0.044498
0.0450499
0.0455968
0.0461843
0.0468516
0.047628
0.0485205
0.0495059
0.0505321
0.0515274
0.0524093
0.0531039
0.0535739
0.0538317
0.0539307
0.0539449
0.0407906
0.0407573
0.040701
0.0406407
0.040601
0.0406068
0.0406799
0.0408346
0.0410759
0.0414011
0.041802
0.042267
0.0427834
0.0433405
0.0439334
0.0445694
0.0452201
0.045825
0.0463849
0.0469459
0.0475486
0.0482271
0.0489991
0.0498589
0.050775
0.051694
0.0525457
0.0532553
0.0537661
0.0540658
0.0541913
0.0542141
0.041564
0.041509
0.04142
0.0413273
0.0412635
0.0412587
0.0413373
0.0415145
0.0417919
0.0421618
0.0426115
0.0431261
0.0436907
0.0442936
0.044929
0.0456032
0.046279
0.0468844
0.047418
0.0479256
0.0484472
0.0490165
0.0496561
0.0503722
0.0511507
0.0519573
0.0527374
0.0534222
0.0539466
0.054276
0.054426
0.0544582
0.042644
0.0425677
0.04246
0.0423659
0.0423216
0.0423526
0.0424785
0.0427096
0.0430405
0.0434582
0.0439465
0.0444884
0.0450683
0.0456748
0.0463018
0.0469548
0.0475949
0.0481524
0.0486268
0.0490612
0.0494921
0.0499494
0.0504559
0.0510237
0.0516507
0.0523199
0.0529946
0.0536182
0.0541252
0.0544666
0.0546358
0.054678
0.0440484
0.0439587
0.0438659
0.0438239
0.0438554
0.0439679
0.0441684
0.0444584
0.0448276
0.045263
0.0457494
0.0462715
0.0468158
0.0473728
0.0479376
0.0485149
0.04907
0.0495437
0.0499371
0.0502874
0.0506251
0.0509749
0.0513564
0.0517828
0.0522588
0.0527791
0.0533244
0.0538549
0.0543132
0.0546439
0.0548226
0.0548739
0.0457986
0.0457166
0.0456918
0.0457569
0.0458991
0.0461031
0.0463646
0.0466803
0.047043
0.0474449
0.047876
0.0483257
0.0487845
0.0492456
0.0497057
0.0501686
0.0506073
0.0509765
0.0512782
0.0515414
0.0517895
0.052041
0.0523113
0.0526114
0.052948
0.0533223
0.0537274
0.054141
0.0545211
0.0548158
0.0549894
0.0550465
0.0479394
0.0479064
0.0479996
0.0481803
0.0484043
0.048651
0.0489162
0.0491992
0.0494998
0.049817
0.0501466
0.0504831
0.0508211
0.0511564
0.0514871
0.051816
0.0521244
0.0523817
0.0525899
0.0527689
0.0529348
0.0531
0.053275
0.0534678
0.0536839
0.0539264
0.0541948
0.0544803
0.0547585
0.054991
0.0551407
0.0551969
0.0505584
0.0506199
0.050802
0.0510078
0.0512142
0.0514145
0.0516095
0.051802
0.0519959
0.0521935
0.0523945
0.0525968
0.052798
0.052996
0.0531899
0.0533812
0.0535595
0.0537076
0.0538267
0.0539282
0.054021
0.0541123
0.0542079
0.0543124
0.0544291
0.0545602
0.054707
0.0548674
0.0550313
0.0551783
0.0552824
0.055327
0.0537635
0.0538125
0.0539069
0.053997
0.0540804
0.0541572
0.0542285
0.0542962
0.0543623
0.0544284
0.0544949
0.0545613
0.0546269
0.0546913
0.0547541
0.0548159
0.0548732
0.0549208
0.0549589
0.0549912
0.0550206
0.0550493
0.0550792
0.0551116
0.0551477
0.0551881
0.0552334
0.0552834
0.0553356
0.0553847
0.0554224
0.0554407
)
;

boundaryField
{
    movingWall
    {
        type            fixedValue;
        value           uniform 0.0555;
    }
    fixedWalls
    {
        type            zeroGradient;
    }
    floor
    {
        type            zeroGradient;
    }
    frontAndBack
    {
        type            empty;
    }
}


// ************************************************************************* //
