/*--------------------------------*- C++ -*----------------------------------*\
| =========                 |                                                 |
| \\      /  F ield         | OpenFOAM: The Open Source CFD Toolbox           |
|  \\    /   O peration     | Version:  2212                                  |
|   \\  /    A nd           | Website:  www.openfoam.com                      |
|    \\/     M anipulation  |                                                 |
\*---------------------------------------------------------------------------*/
FoamFile
{
    version     2.0;
    format      ascii;
    arch        "LSB;label=64;scalar=64";
    class       volScalarField;
    location    "1270";
    object      SIC;
}
// * * * * * * * * * * * * * * * * * * * * * * * * * * * * * * * * * * * * * //

dimensions      [1 -3 0 0 0 0 0];

internalField   nonuniform List<scalar> 
1024
(
0.0913361
0.0913373
0.0913405
0.0913466
0.0913562
0.09137
0.0913883
0.0914109
0.0914365
0.0914637
0.0914903
0.0915143
0.091533
0.0915443
0.0915458
0.0915349
0.0915106
0.0914771
0.0914391
0.0913976
0.0913534
0.0913078
0.0912631
0.0912217
0.0911857
0.0911562
0.0911335
0.0911171
0.091106
0.0910991
0.0910953
0.0910938
0.0913361
0.0913374
0.0913408
0.0913469
0.0913567
0.0913707
0.0913892
0.091412
0.0914378
0.0914651
0.0914918
0.0915158
0.0915346
0.0915458
0.0915471
0.0915361
0.0915118
0.0914784
0.0914405
0.091399
0.0913549
0.0913094
0.0912647
0.0912231
0.0911869
0.0911572
0.0911342
0.0911176
0.0911064
0.0910994
0.0910956
0.091094
0.0913364
0.0913378
0.0913413
0.0913476
0.0913576
0.091372
0.0913909
0.0914141
0.0914403
0.091468
0.0914953
0.0915197
0.0915386
0.0915496
0.0915504
0.091539
0.0915144
0.091481
0.0914432
0.091402
0.0913581
0.0913128
0.091268
0.0912261
0.0911894
0.0911592
0.0911358
0.0911188
0.0911073
0.0911001
0.0910962
0.0910945
0.0913371
0.0913386
0.0913421
0.0913487
0.091359
0.0913738
0.0913932
0.091417
0.091444
0.0914726
0.0915011
0.0915266
0.0915459
0.0915565
0.0915564
0.0915439
0.0915186
0.0914849
0.0914472
0.0914064
0.0913629
0.0913177
0.0912729
0.0912307
0.0911934
0.0911624
0.0911382
0.0911207
0.0911087
0.0911012
0.0910972
0.0910955
0.0913382
0.0913396
0.0913433
0.09135
0.0913605
0.0913757
0.0913958
0.0914204
0.0914487
0.0914792
0.0915099
0.0915376
0.0915578
0.0915677
0.0915658
0.0915512
0.0915243
0.09149
0.0914522
0.0914117
0.0913686
0.0913239
0.0912791
0.0912366
0.0911985
0.0911666
0.0911415
0.0911232
0.0911107
0.0911029
0.0910986
0.0910969
0.0913397
0.0913412
0.0913448
0.0913515
0.0913622
0.0913778
0.0913985
0.0914243
0.0914545
0.0914879
0.0915224
0.0915536
0.0915754
0.0915843
0.0915795
0.0915613
0.0915316
0.0914957
0.0914574
0.091417
0.0913745
0.0913303
0.0912858
0.091243
0.0912042
0.0911714
0.0911454
0.0911262
0.0911131
0.0911049
0.0911005
0.0910986
0.091342
0.0913434
0.0913469
0.0913535
0.0913642
0.0913799
0.0914013
0.0914286
0.0914616
0.0914994
0.0915393
0.0915753
0.0915995
0.091607
0.0915979
0.0915742
0.09154
0.0915013
0.0914618
0.0914212
0.091379
0.0913355
0.0912913
0.0912486
0.0912094
0.0911759
0.0911491
0.0911293
0.0911156
0.0911071
0.0911024
0.0911005
0.0913459
0.0913471
0.0913504
0.0913567
0.0913671
0.0913829
0.0914051
0.0914344
0.0914712
0.0915147
0.0915616
0.0916037
0.0916304
0.0916359
0.0916209
0.0915898
0.091549
0.0915061
0.0914642
0.0914226
0.0913805
0.0913374
0.0912939
0.0912516
0.0912125
0.0911788
0.0911517
0.0911315
0.0911176
0.0911089
0.0911041
0.0911022
0.0913532
0.0913543
0.0913572
0.091363
0.0913731
0.0913889
0.091412
0.0914439
0.0914856
0.0915362
0.0915911
0.0916395
0.0916683
0.0916705
0.0916478
0.0916073
0.0915582
0.0915093
0.0914637
0.09142
0.091377
0.091334
0.0912912
0.0912498
0.0912115
0.0911785
0.0911519
0.091132
0.0911182
0.0911096
0.0911048
0.0911029
0.0913678
0.0913686
0.0913711
0.0913765
0.0913862
0.0914023
0.0914268
0.0914621
0.0915095
0.0915679
0.0916307
0.0916844
0.0917134
0.0917101
0.091678
0.0916268
0.091568
0.0915116
0.0914605
0.0914129
0.0913677
0.091324
0.0912816
0.0912414
0.0912049
0.0911735
0.0911483
0.0911296
0.0911166
0.0911085
0.091104
0.0911022
0.0913965
0.0913972
0.0913994
0.0914046
0.0914144
0.0914314
0.0914581
0.0914975
0.091551
0.0916165
0.0916852
0.0917408
0.0917665
0.0917551
0.0917127
0.0916511
0.0915829
0.0915179
0.091459
0.0914049
0.0913549
0.0913085
0.0912655
0.0912264
0.091192
0.0911633
0.0911407
0.0911242
0.0911129
0.0911058
0.091102
0.0911005
0.0914491
0.0914499
0.0914523
0.0914579
0.0914688
0.0914876
0.0915175
0.0915612
0.0916198
0.0916896
0.0917596
0.0918119
0.09183
0.0918093
0.0917588
0.0916913
0.0916175
0.0915445
0.0914753
0.0914105
0.0913508
0.0912971
0.0912502
0.0912103
0.0911775
0.0911517
0.0911325
0.0911192
0.0911108
0.091106
0.0911037
0.0911029
0.0915351
0.0915363
0.0915396
0.0915467
0.0915596
0.0915812
0.0916145
0.0916618
0.0917228
0.0917923
0.0918576
0.0919015
0.0919105
0.0918851
0.0918364
0.0917755
0.0917074
0.0916331
0.0915544
0.0914744
0.0913973
0.0913273
0.0912676
0.0912197
0.0911837
0.0911587
0.0911429
0.0911343
0.0911308
0.0911305
0.0911315
0.0911324
0.0916563
0.0916581
0.0916628
0.0916719
0.0916876
0.0917124
0.0917487
0.0917981
0.0918588
0.0919242
0.0919819
0.0920181
0.0920265
0.0920128
0.0919883
0.0919597
0.0919236
0.0918707
0.0917987
0.0917116
0.091616
0.0915206
0.0914339
0.0913617
0.0913081
0.0912736
0.0912558
0.0912502
0.0912524
0.091258
0.0912636
0.091267
0.0917997
0.0918021
0.0918081
0.0918195
0.0918385
0.0918675
0.0919084
0.0919613
0.0920233
0.0920871
0.0921435
0.0921867
0.0922187
0.092248
0.092283
0.0923261
0.0923665
0.0923828
0.0923649
0.0923143
0.0922365
0.0921403
0.0920358
0.0919328
0.0918418
0.0917703
0.0917215
0.0916936
0.0916824
0.0916817
0.0916852
0.0916884
0.0919397
0.0919425
0.0919499
0.0919641
0.091988
0.092024
0.0920737
0.0921361
0.0922076
0.092283
0.0923587
0.0924356
0.0925193
0.0926175
0.0927353
0.0928743
0.09302
0.093142
0.0932255
0.0932705
0.093277
0.0932475
0.0931864
0.0931012
0.0930011
0.0928971
0.0928002
0.0927199
0.092662
0.0926268
0.0926097
0.0926042
0.0920385
0.0920413
0.0920488
0.0920639
0.0920896
0.0921292
0.0921849
0.0922571
0.0923436
0.0924408
0.0925462
0.0926604
0.0927873
0.0929312
0.0930938
0.0932743
0.0934574
0.0936195
0.0937571
0.0938746
0.0939698
0.0940384
0.0940764
0.0940813
0.0940539
0.0939994
0.0939274
0.0938506
0.0937816
0.0937295
0.0936979
0.0936846
0.0920967
0.0920993
0.0921066
0.092121
0.092146
0.0921851
0.0922411
0.0923154
0.0924072
0.0925134
0.0926306
0.0927568
0.0928916
0.0930347
0.0931828
0.09333
0.0934623
0.0935756
0.093687
0.0938062
0.0939312
0.0940541
0.0941652
0.0942556
0.094319
0.0943533
0.0943602
0.0943461
0.0943202
0.0942929
0.0942721
0.0942619
0.0921281
0.0921306
0.0921374
0.0921507
0.0921735
0.0922093
0.0922613
0.0923313
0.0924194
0.0925229
0.0926378
0.0927598
0.0928854
0.0930104
0.0931291
0.0932334
0.0933132
0.0933793
0.0934612
0.0935726
0.0937114
0.093867
0.0940242
0.094168
0.0942867
0.0943747
0.0944314
0.0944608
0.09447
0.0944673
0.0944608
0.0944563
0.0921435
0.0921458
0.092152
0.0921639
0.0921841
0.0922157
0.0922616
0.0923242
0.0924038
0.0924984
0.0926039
0.092715
0.0928264
0.0929328
0.0930278
0.0931045
0.093157
0.0932028
0.0932709
0.0933765
0.0935209
0.093696
0.0938867
0.0940732
0.0942373
0.0943673
0.094459
0.0945153
0.0945433
0.0945527
0.0945527
0.0945506
0.0921511
0.0921531
0.0921584
0.0921685
0.0921858
0.0922128
0.0922524
0.0923065
0.0923759
0.092459
0.0925521
0.0926503
0.0927481
0.0928404
0.0929219
0.0929881
0.0930373
0.0930859
0.0931556
0.0932596
0.093402
0.0935798
0.0937824
0.0939917
0.0941871
0.0943515
0.094475
0.0945565
0.0946019
0.0946212
0.0946255
0.0946246
0.0921606
0.0921618
0.0921653
0.0921727
0.0921862
0.0922081
0.092241
0.0922867
0.0923458
0.0924174
0.0924985
0.0925852
0.0926729
0.0927577
0.0928362
0.0929067
0.0929692
0.0930343
0.093115
0.0932219
0.0933608
0.0935326
0.0937316
0.0939447
0.0941537
0.0943394
0.0944871
0.0945906
0.0946526
0.094682
0.0946908
0.0946909
0.0921843
0.0921839
0.0921843
0.0921873
0.0921952
0.0922108
0.0922365
0.0922741
0.0923245
0.0923869
0.0924595
0.0925394
0.0926235
0.0927089
0.092794
0.092879
0.0929636
0.0930496
0.0931433
0.0932538
0.0933877
0.0935488
0.0937352
0.0939387
0.0941453
0.0943381
0.0945002
0.0946207
0.0946974
0.0947367
0.0947503
0.0947516
0.0922364
0.0922335
0.0922291
0.0922255
0.0922259
0.0922338
0.0922524
0.0922838
0.0923288
0.0923872
0.0924576
0.092538
0.092626
0.0927195
0.0928175
0.0929214
0.0930283
0.0931323
0.0932352
0.0933459
0.0934715
0.0936177
0.0937858
0.0939713
0.0941645
0.094352
0.094518
0.0946488
0.0947373
0.0947859
0.0948045
0.0948072
0.0923302
0.0923239
0.0923133
0.092302
0.0922945
0.0922956
0.0923094
0.0923385
0.0923839
0.0924452
0.0925207
0.0926082
0.0927055
0.0928104
0.092922
0.0930418
0.0931643
0.0932782
0.0933836
0.0934893
0.0936028
0.0937305
0.0938759
0.0940378
0.0942103
0.0943833
0.0945437
0.0946773
0.0947735
0.0948299
0.0948536
0.0948579
0.0924758
0.0924655
0.0924487
0.0924313
0.0924193
0.0924184
0.0924332
0.0924665
0.0925188
0.0925884
0.0926731
0.09277
0.0928763
0.0929898
0.0931095
0.0932364
0.0933637
0.0934777
0.0935782
0.0936737
0.093772
0.0938791
0.0939996
0.0941344
0.094281
0.0944329
0.0945798
0.0947088
0.0948075
0.0948695
0.0948978
0.0949038
0.0926792
0.0926649
0.0926446
0.0926269
0.0926185
0.0926243
0.092648
0.0926916
0.0927539
0.0928325
0.0929245
0.0930265
0.0931357
0.0932499
0.093368
0.0934909
0.0936115
0.0937165
0.0938058
0.0938876
0.0939687
0.0940548
0.0941502
0.0942571
0.0943752
0.0945012
0.0946282
0.0947457
0.0948411
0.0949054
0.0949373
0.0949452
0.0929437
0.0929268
0.0929093
0.0929014
0.0929073
0.0929285
0.0929663
0.0930209
0.0930904
0.0931724
0.093264
0.0933623
0.0934648
0.0935697
0.093676
0.0937847
0.0938892
0.0939784
0.0940525
0.0941185
0.0941821
0.0942479
0.0943198
0.0944001
0.0944897
0.0945876
0.0946903
0.0947902
0.0948765
0.0949388
0.0949724
0.0949821
0.0932732
0.0932578
0.0932531
0.0932654
0.0932922
0.0933306
0.0933798
0.0934393
0.0935075
0.0935832
0.0936644
0.0937491
0.0938355
0.0939223
0.0940089
0.0940961
0.0941787
0.0942482
0.094305
0.0943546
0.0944013
0.0944487
0.0944996
0.0945561
0.0946195
0.0946899
0.0947662
0.0948441
0.0949157
0.0949712
0.0950039
0.0950146
0.0936763
0.0936701
0.0936877
0.0937217
0.0937639
0.0938103
0.0938603
0.0939136
0.0939702
0.0940299
0.094092
0.0941553
0.094219
0.0942821
0.0943444
0.0944063
0.0944644
0.0945128
0.094552
0.0945857
0.094617
0.0946481
0.094681
0.0947173
0.094758
0.0948037
0.0948542
0.094908
0.0949604
0.0950041
0.0950323
0.0950429
0.0941695
0.0941811
0.0942154
0.0942541
0.094293
0.0943307
0.0943674
0.0944037
0.0944402
0.0944774
0.0945152
0.0945533
0.0945912
0.0946285
0.094665
0.094701
0.0947346
0.0947625
0.0947849
0.094804
0.0948215
0.0948387
0.0948567
0.0948764
0.0948983
0.094923
0.0949507
0.0949809
0.0950117
0.0950394
0.095059
0.0950674
0.094773
0.0947822
0.0948
0.094817
0.0948327
0.0948472
0.0948606
0.0948733
0.0948858
0.0948982
0.0949107
0.0949232
0.0949356
0.0949477
0.0949596
0.0949712
0.094982
0.0949909
0.0949981
0.0950042
0.0950097
0.0950151
0.0950208
0.0950269
0.0950337
0.0950413
0.0950498
0.0950592
0.0950691
0.0950783
0.0950854
0.0950888
)
;

boundaryField
{
    movingWall
    {
        type            fixedValue;
        value           uniform 0.0951;
    }
    fixedWalls
    {
        type            zeroGradient;
    }
    floor
    {
        type            zeroGradient;
    }
    frontAndBack
    {
        type            empty;
    }
}


// ************************************************************************* //
