/*--------------------------------*- C++ -*----------------------------------*\
| =========                 |                                                 |
| \\      /  F ield         | OpenFOAM: The Open Source CFD Toolbox           |
|  \\    /   O peration     | Version:  2212                                  |
|   \\  /    A nd           | Website:  www.openfoam.com                      |
|    \\/     M anipulation  |                                                 |
\*---------------------------------------------------------------------------*/
FoamFile
{
    version     2.0;
    format      ascii;
    arch        "LSB;label=64;scalar=64";
    class       volScalarField;
    location    "1270";
    object      Xch;
}
// * * * * * * * * * * * * * * * * * * * * * * * * * * * * * * * * * * * * * //

dimensions      [1 -3 0 0 0 0 0];

internalField   nonuniform List<scalar> 
1024
(
0.0199281
0.0199283
0.0199289
0.0199299
0.0199316
0.0199339
0.0199371
0.019941
0.0199454
0.01995
0.0199545
0.0199585
0.0199617
0.0199635
0.0199636
0.0199616
0.0199573
0.0199514
0.0199447
0.0199373
0.0199293
0.0199211
0.0199129
0.0199054
0.0198987
0.0198933
0.0198891
0.0198861
0.019884
0.0198828
0.0198821
0.0198818
0.0199281
0.0199283
0.0199289
0.01993
0.0199316
0.0199341
0.0199372
0.0199412
0.0199456
0.0199502
0.0199548
0.0199588
0.0199619
0.0199637
0.0199638
0.0199618
0.0199575
0.0199516
0.0199449
0.0199375
0.0199296
0.0199214
0.0199132
0.0199056
0.019899
0.0198935
0.0198893
0.0198862
0.0198841
0.0198828
0.0198821
0.0198818
0.0199281
0.0199284
0.019929
0.0199301
0.0199318
0.0199343
0.0199375
0.0199415
0.019946
0.0199507
0.0199553
0.0199594
0.0199626
0.0199643
0.0199644
0.0199623
0.0199579
0.019952
0.0199453
0.019938
0.0199301
0.0199219
0.0199138
0.0199061
0.0198994
0.0198938
0.0198895
0.0198864
0.0198843
0.0198829
0.0198822
0.0198819
0.0199283
0.0199285
0.0199291
0.0199303
0.019932
0.0199346
0.0199379
0.019942
0.0199466
0.0199515
0.0199563
0.0199606
0.0199637
0.0199654
0.0199653
0.019963
0.0199586
0.0199527
0.019946
0.0199387
0.019931
0.0199228
0.0199147
0.019907
0.0199001
0.0198944
0.01989
0.0198867
0.0198845
0.0198831
0.0198824
0.0198821
0.0199284
0.0199287
0.0199293
0.0199305
0.0199323
0.0199349
0.0199384
0.0199426
0.0199474
0.0199526
0.0199577
0.0199623
0.0199657
0.0199672
0.0199668
0.0199642
0.0199594
0.0199534
0.0199468
0.0199396
0.0199319
0.0199239
0.0199158
0.019908
0.019901
0.0198952
0.0198906
0.0198872
0.0198849
0.0198834
0.0198827
0.0198823
0.0199287
0.0199289
0.0199296
0.0199307
0.0199326
0.0199352
0.0199388
0.0199432
0.0199483
0.019954
0.0199598
0.0199649
0.0199685
0.0199699
0.0199689
0.0199657
0.0199605
0.0199542
0.0199475
0.0199404
0.0199329
0.019925
0.0199169
0.0199091
0.019902
0.019896
0.0198913
0.0198877
0.0198853
0.0198838
0.019883
0.0198826
0.0199291
0.0199293
0.0199299
0.0199311
0.0199329
0.0199356
0.0199393
0.0199439
0.0199495
0.0199559
0.0199625
0.0199685
0.0199724
0.0199735
0.0199717
0.0199676
0.0199616
0.0199549
0.0199481
0.019941
0.0199335
0.0199258
0.0199178
0.0199101
0.0199029
0.0198968
0.0198919
0.0198883
0.0198857
0.0198842
0.0198833
0.019883
0.0199298
0.01993
0.0199305
0.0199316
0.0199334
0.0199361
0.0199399
0.0199449
0.0199511
0.0199584
0.0199662
0.0199731
0.0199773
0.019978
0.0199752
0.0199698
0.0199627
0.0199554
0.0199481
0.0199409
0.0199335
0.0199259
0.0199182
0.0199105
0.0199034
0.0198973
0.0198923
0.0198886
0.0198861
0.0198845
0.0198836
0.0198832
0.019931
0.0199312
0.0199317
0.0199327
0.0199344
0.0199371
0.019941
0.0199465
0.0199535
0.019962
0.019971
0.0199789
0.0199834
0.0199834
0.0199792
0.0199722
0.0199637
0.0199554
0.0199476
0.0199401
0.0199326
0.0199251
0.0199175
0.0199101
0.0199032
0.0198972
0.0198923
0.0198887
0.0198861
0.0198846
0.0198837
0.0198833
0.0199335
0.0199337
0.0199341
0.019935
0.0199367
0.0199394
0.0199436
0.0199495
0.0199575
0.0199672
0.0199776
0.0199862
0.0199906
0.0199895
0.0199836
0.0199747
0.0199646
0.019955
0.0199463
0.0199382
0.0199305
0.0199229
0.0199155
0.0199083
0.0199018
0.0198961
0.0198916
0.0198881
0.0198858
0.0198843
0.0198834
0.0198831
0.0199385
0.0199386
0.019939
0.0199399
0.0199415
0.0199444
0.0199489
0.0199556
0.0199645
0.0199753
0.0199865
0.0199953
0.0199989
0.0199963
0.0199886
0.0199778
0.0199661
0.0199551
0.0199451
0.019936
0.0199276
0.0199196
0.0199122
0.0199053
0.0198992
0.0198941
0.01989
0.019887
0.0198849
0.0198836
0.0198829
0.0198826
0.0199476
0.0199478
0.0199482
0.0199491
0.0199509
0.0199541
0.0199591
0.0199664
0.0199761
0.0199875
0.0199987
0.0200068
0.0200089
0.0200045
0.0199953
0.0199834
0.0199707
0.0199583
0.0199467
0.0199358
0.0199258
0.0199168
0.0199088
0.0199019
0.0198962
0.0198916
0.0198882
0.0198858
0.0198842
0.0198833
0.0198828
0.0198827
0.0199625
0.0199627
0.0199632
0.0199644
0.0199665
0.0199701
0.0199756
0.0199834
0.0199933
0.0200045
0.0200147
0.020021
0.0200215
0.0200162
0.0200072
0.0199963
0.0199844
0.0199717
0.0199585
0.0199451
0.0199322
0.0199206
0.0199106
0.0199025
0.0198964
0.019892
0.0198892
0.0198876
0.0198869
0.0198868
0.0198869
0.019887
0.0199833
0.0199836
0.0199843
0.0199858
0.0199884
0.0199924
0.0199983
0.0200062
0.0200158
0.020026
0.0200347
0.0200396
0.0200398
0.0200365
0.0200314
0.0200258
0.0200191
0.0200098
0.0199975
0.0199829
0.0199669
0.0199511
0.0199367
0.0199248
0.0199158
0.01991
0.019907
0.019906
0.0199063
0.0199071
0.019908
0.0199085
0.0200077
0.0200081
0.020009
0.0200109
0.0200139
0.0200184
0.0200249
0.0200332
0.0200428
0.0200524
0.0200607
0.0200668
0.020071
0.0200749
0.0200798
0.020086
0.0200917
0.0200935
0.0200899
0.020081
0.0200678
0.0200517
0.0200344
0.0200175
0.0200025
0.0199908
0.0199827
0.0199782
0.0199763
0.0199762
0.0199767
0.0199773
0.0200314
0.0200318
0.020033
0.0200352
0.0200389
0.0200445
0.0200522
0.0200619
0.020073
0.0200846
0.0200962
0.0201081
0.0201211
0.0201366
0.0201552
0.0201772
0.0202
0.0202187
0.0202312
0.0202374
0.0202375
0.020232
0.0202216
0.0202074
0.020191
0.0201741
0.0201584
0.0201454
0.0201361
0.0201304
0.0201276
0.0201267
0.0200484
0.0200488
0.0200499
0.0200522
0.0200562
0.0200624
0.0200712
0.0200826
0.0200962
0.0201116
0.0201284
0.0201467
0.0201672
0.0201905
0.0202167
0.0202455
0.0202743
0.0202992
0.0203197
0.0203368
0.0203503
0.0203598
0.0203646
0.0203645
0.0203596
0.0203506
0.0203391
0.0203269
0.020316
0.0203078
0.0203028
0.0203007
0.0200587
0.0200591
0.0200602
0.0200625
0.0200664
0.0200725
0.0200814
0.0200933
0.020108
0.0201251
0.0201441
0.0201647
0.0201868
0.0202104
0.0202346
0.0202584
0.0202793
0.0202963
0.0203122
0.0203288
0.0203461
0.020363
0.0203783
0.0203907
0.0203994
0.0204041
0.0204049
0.0204027
0.0203988
0.0203947
0.0203916
0.0203901
0.0200648
0.0200651
0.0200661
0.0200682
0.0200718
0.0200774
0.0200857
0.020097
0.0201112
0.0201281
0.020147
0.0201671
0.020188
0.0202089
0.0202287
0.020246
0.0202589
0.0202687
0.0202801
0.0202954
0.0203145
0.0203358
0.0203574
0.0203771
0.0203934
0.0204056
0.0204135
0.0204177
0.0204192
0.0204189
0.0204181
0.0204175
0.0200681
0.0200685
0.0200694
0.0200712
0.0200743
0.0200793
0.0200867
0.0200968
0.0201098
0.0201253
0.0201428
0.0201613
0.0201801
0.0201981
0.0202143
0.0202274
0.0202361
0.0202429
0.0202525
0.0202671
0.0202871
0.0203113
0.0203377
0.0203634
0.0203859
0.0204038
0.0204164
0.0204242
0.0204283
0.0204297
0.0204298
0.0204296
0.0200701
0.0200704
0.0200712
0.0200727
0.0200754
0.0200797
0.020086
0.0200948
0.0201062
0.0201199
0.0201354
0.0201519
0.0201685
0.0201842
0.0201983
0.0202097
0.0202179
0.0202252
0.0202352
0.0202498
0.0202697
0.0202945
0.0203226
0.0203515
0.0203785
0.020401
0.020418
0.0204292
0.0204356
0.0204383
0.020439
0.020439
0.0200722
0.0200724
0.0200729
0.020074
0.0200761
0.0200796
0.0200849
0.0200923
0.020102
0.0201139
0.0201274
0.020142
0.0201569
0.0201713
0.0201847
0.0201966
0.0202067
0.0202166
0.0202283
0.0202435
0.0202631
0.0202872
0.020315
0.0203445
0.0203734
0.0203989
0.0204192
0.0204334
0.0204419
0.0204461
0.0204474
0.0204475
0.0200763
0.0200762
0.0200763
0.0200767
0.020078
0.0200805
0.0200846
0.0200908
0.0200991
0.0201094
0.0201214
0.0201348
0.0201489
0.0201632
0.0201773
0.0201912
0.0202045
0.0202174
0.0202311
0.020247
0.0202661
0.0202888
0.020315
0.0203433
0.0203719
0.0203984
0.0204206
0.0204371
0.0204476
0.0204531
0.020455
0.0204553
0.0200844
0.020084
0.0200833
0.0200828
0.0200829
0.0200843
0.0200873
0.0200924
0.0200998
0.0201093
0.0201208
0.020134
0.0201484
0.0201636
0.0201794
0.0201958
0.0202123
0.0202279
0.0202431
0.0202591
0.0202771
0.0202978
0.0203215
0.0203474
0.0203742
0.0204
0.0204228
0.0204406
0.0204527
0.0204594
0.020462
0.0204624
0.0200984
0.0200975
0.020096
0.0200943
0.0200933
0.0200936
0.0200959
0.0201006
0.0201079
0.0201177
0.0201297
0.0201436
0.0201591
0.0201757
0.0201932
0.0202118
0.0202305
0.0202476
0.0202631
0.0202785
0.0202948
0.020313
0.0203335
0.0203562
0.0203801
0.020404
0.020426
0.0204443
0.0204574
0.0204651
0.0204683
0.020469
0.02012
0.0201184
0.020116
0.0201135
0.0201118
0.0201118
0.0201142
0.0201194
0.0201275
0.0201384
0.0201515
0.0201666
0.0201831
0.0202007
0.0202191
0.0202386
0.0202579
0.0202749
0.0202897
0.0203037
0.0203179
0.0203332
0.0203502
0.0203692
0.0203896
0.0204105
0.0204307
0.0204483
0.0204618
0.0204702
0.020474
0.0204749
0.0201497
0.0201477
0.0201447
0.0201421
0.020141
0.020142
0.0201456
0.0201522
0.0201617
0.0201737
0.0201877
0.0202032
0.0202199
0.0202374
0.0202554
0.0202741
0.0202922
0.0203079
0.0203211
0.0203331
0.0203449
0.0203572
0.0203707
0.0203858
0.0204022
0.0204197
0.0204371
0.0204532
0.0204661
0.0204748
0.0204792
0.0204803
0.0201883
0.0201858
0.0201833
0.0201822
0.0201831
0.0201862
0.0201919
0.0202
0.0202104
0.0202227
0.0202365
0.0202513
0.0202668
0.0202827
0.0202988
0.0203153
0.020331
0.0203443
0.0203552
0.0203649
0.0203742
0.0203836
0.0203938
0.0204052
0.0204177
0.0204312
0.0204454
0.020459
0.0204707
0.0204791
0.0204837
0.020485
0.0202361
0.0202339
0.0202332
0.020235
0.0202389
0.0202446
0.0202518
0.0202606
0.0202707
0.020282
0.0202941
0.0203068
0.0203198
0.0203328
0.0203459
0.020359
0.0203714
0.0203818
0.0203902
0.0203975
0.0204043
0.0204111
0.0204184
0.0204263
0.0204352
0.020445
0.0204555
0.0204662
0.0204759
0.0204833
0.0204877
0.0204892
0.0202945
0.0202936
0.0202962
0.0203011
0.0203072
0.020314
0.0203213
0.0203291
0.0203375
0.0203463
0.0203555
0.020365
0.0203745
0.020384
0.0203933
0.0204026
0.0204114
0.0204186
0.0204244
0.0204294
0.0204339
0.0204384
0.0204431
0.0204482
0.020454
0.0204603
0.0204673
0.0204746
0.0204817
0.0204876
0.0204914
0.0204928
0.0203658
0.0203675
0.0203724
0.020378
0.0203837
0.0203892
0.0203945
0.0203998
0.0204052
0.0204107
0.0204163
0.0204219
0.0204276
0.0204332
0.0204387
0.0204441
0.0204491
0.0204533
0.0204566
0.0204594
0.020462
0.0204644
0.020467
0.0204698
0.0204729
0.0204763
0.0204801
0.0204843
0.0204885
0.0204922
0.0204948
0.0204959
0.0204529
0.0204542
0.0204568
0.0204592
0.0204615
0.0204636
0.0204656
0.0204674
0.0204692
0.0204711
0.0204729
0.0204748
0.0204766
0.0204785
0.0204802
0.020482
0.0204836
0.0204849
0.020486
0.0204869
0.0204877
0.0204885
0.0204893
0.0204902
0.0204911
0.0204922
0.0204933
0.0204946
0.020496
0.0204972
0.0204982
0.0204986
)
;

boundaryField
{
    movingWall
    {
        type            fixedValue;
        value           uniform 0.0205;
    }
    fixedWalls
    {
        type            zeroGradient;
    }
    floor
    {
        type            zeroGradient;
    }
    frontAndBack
    {
        type            empty;
    }
}


// ************************************************************************* //
