/*--------------------------------*- C++ -*----------------------------------*\
| =========                 |                                                 |
| \\      /  F ield         | OpenFOAM: The Open Source CFD Toolbox           |
|  \\    /   O peration     | Version:  2212                                  |
|   \\  /    A nd           | Website:  www.openfoam.com                      |
|    \\/     M anipulation  |                                                 |
\*---------------------------------------------------------------------------*/
FoamFile
{
    version     2.0;
    format      ascii;
    arch        "LSB;label=64;scalar=64";
    class       volScalarField;
    location    "790";
    object      SIC;
}
// * * * * * * * * * * * * * * * * * * * * * * * * * * * * * * * * * * * * * //

dimensions      [1 -3 0 0 0 0 0];

internalField   nonuniform List<scalar> 
1024
(
0.0910871
0.0910883
0.0910911
0.0910962
0.0911042
0.0911156
0.0911303
0.0911481
0.0911681
0.0911894
0.091211
0.0912325
0.091253
0.0912704
0.0912807
0.0912762
0.091255
0.0912263
0.0911965
0.0911674
0.0911396
0.0911133
0.0910886
0.0910657
0.091045
0.0910272
0.0910128
0.0910019
0.0909943
0.0909894
0.0909867
0.0909856
0.0910873
0.0910885
0.0910914
0.0910967
0.0911049
0.0911165
0.0911315
0.0911495
0.0911697
0.091191
0.0912128
0.0912344
0.091255
0.0912728
0.0912833
0.0912787
0.0912571
0.0912282
0.0911982
0.0911689
0.0911411
0.0911148
0.09109
0.091067
0.0910462
0.0910282
0.0910136
0.0910025
0.0909947
0.0909897
0.090987
0.0909858
0.0910878
0.0910891
0.0910921
0.0910977
0.0911062
0.0911183
0.0911338
0.0911522
0.0911727
0.0911943
0.0912163
0.0912383
0.0912597
0.0912783
0.0912896
0.0912847
0.0912621
0.0912324
0.0912019
0.0911723
0.0911442
0.0911177
0.0910928
0.0910696
0.0910485
0.0910302
0.0910151
0.0910036
0.0909955
0.0909903
0.0909875
0.0909863
0.0910886
0.09109
0.0910932
0.0910991
0.0911082
0.091121
0.0911371
0.0911561
0.0911769
0.0911989
0.0912214
0.0912444
0.0912673
0.0912879
0.0913009
0.0912955
0.0912709
0.0912395
0.0912078
0.0911773
0.0911488
0.091122
0.0910968
0.0910734
0.0910519
0.0910331
0.0910174
0.0910054
0.0909968
0.0909913
0.0909883
0.090987
0.0910897
0.0910911
0.0910946
0.0911009
0.0911107
0.0911241
0.0911409
0.0911604
0.0911817
0.0912042
0.0912278
0.0912526
0.0912783
0.0913026
0.0913186
0.0913125
0.0912846
0.0912501
0.0912161
0.0911841
0.0911546
0.0911272
0.0911016
0.0910778
0.0910559
0.0910365
0.0910202
0.0910075
0.0909985
0.0909926
0.0909894
0.0909881
0.0910909
0.0910924
0.0910961
0.0911028
0.0911131
0.0911271
0.0911445
0.0911645
0.0911864
0.0912098
0.091235
0.0912627
0.0912931
0.0913232
0.091344
0.0913372
0.0913041
0.0912647
0.091227
0.0911925
0.0911612
0.0911328
0.0911066
0.0910823
0.09106
0.09104
0.0910232
0.0910099
0.0910003
0.0909942
0.0909907
0.0909894
0.091092
0.0910936
0.0910974
0.0911043
0.0911149
0.0911293
0.091147
0.0911674
0.0911899
0.0912145
0.0912422
0.0912743
0.0913114
0.0913501
0.0913777
0.0913703
0.0913305
0.0912838
0.0912406
0.0912021
0.0911682
0.0911381
0.091111
0.0910861
0.0910633
0.091043
0.0910257
0.0910119
0.091002
0.0909956
0.0909921
0.0909907
0.0910926
0.0910942
0.0910981
0.091105
0.0911156
0.0911299
0.0911477
0.0911682
0.0911913
0.0912174
0.0912483
0.0912862
0.0913324
0.0913828
0.0914196
0.0914122
0.091364
0.0913077
0.0912567
0.0912126
0.0911749
0.0911423
0.0911138
0.0910882
0.0910651
0.0910446
0.0910271
0.0910133
0.0910033
0.0909968
0.0909932
0.0909918
0.0910924
0.091094
0.0910978
0.0911045
0.0911146
0.0911285
0.0911457
0.091166
0.0911894
0.0912172
0.0912519
0.0912971
0.0913551
0.0914208
0.0914693
0.0914625
0.0914046
0.091336
0.0912748
0.0912232
0.0911803
0.0911445
0.0911141
0.0910877
0.0910645
0.0910441
0.091027
0.0910134
0.0910036
0.0909973
0.0909937
0.0909923
0.0910908
0.0910924
0.0910959
0.0911022
0.0911115
0.0911243
0.0911405
0.0911599
0.0911833
0.0912124
0.0912514
0.0913054
0.0913786
0.091464
0.0915272
0.0915214
0.0914518
0.0913681
0.0912941
0.0912329
0.0911834
0.0911435
0.091111
0.0910839
0.0910608
0.0910411
0.0910247
0.0910119
0.0910027
0.0909967
0.0909933
0.0909919
0.0910872
0.0910887
0.091092
0.0910976
0.0911059
0.0911171
0.0911315
0.0911494
0.0911719
0.0912021
0.0912456
0.0913105
0.0914035
0.0915146
0.0915954
0.0915903
0.0915065
0.091404
0.0913139
0.0912408
0.0911832
0.0911384
0.0911036
0.0910759
0.0910535
0.0910349
0.0910199
0.0910083
0.091
0.0909945
0.0909913
0.0909899
0.0910806
0.0910821
0.0910852
0.0910901
0.0910971
0.0911065
0.0911186
0.0911342
0.0911552
0.0911861
0.091235
0.0913141
0.0914334
0.0915773
0.0916788
0.0916733
0.0915724
0.0914473
0.091337
0.0912481
0.0911798
0.0911287
0.091091
0.0910631
0.0910419
0.0910252
0.0910121
0.0910021
0.0909949
0.09099
0.0909871
0.0909858
0.0910701
0.0910715
0.0910744
0.0910787
0.0910846
0.0910921
0.0911017
0.0911146
0.0911337
0.0911656
0.0912223
0.0913216
0.0914768
0.0916615
0.0917861
0.0917803
0.0916621
0.0915116
0.0913755
0.0912642
0.091179
0.0911171
0.0910743
0.0910454
0.0910255
0.0910113
0.0910006
0.0909925
0.0909866
0.0909824
0.0909799
0.0909787
0.091056
0.0910571
0.0910592
0.0910626
0.0910672
0.0910731
0.0910808
0.091092
0.0911108
0.0911468
0.0912173
0.0913469
0.0915499
0.0917818
0.0919315
0.0919309
0.0918052
0.0916352
0.0914697
0.0913248
0.0912081
0.0911219
0.0910638
0.0910276
0.091006
0.0909929
0.0909842
0.0909783
0.0909742
0.0909719
0.0909708
0.0909704
0.0910524
0.0910518
0.091051
0.0910507
0.0910517
0.0910547
0.0910612
0.091074
0.0910993
0.0911503
0.0912491
0.0914242
0.0916846
0.0919631
0.0921412
0.092166
0.0920674
0.0919079
0.0917278
0.0915475
0.0913825
0.0912443
0.0911391
0.0910657
0.0910193
0.0909938
0.0909828
0.0909813
0.0909856
0.0909924
0.0909986
0.0910022
0.0911185
0.0911152
0.091109
0.0911012
0.0910941
0.0910905
0.091095
0.0911139
0.0911584
0.0912452
0.0913956
0.0916297
0.0919422
0.0922529
0.0924661
0.0925626
0.0925661
0.0924984
0.0923793
0.092227
0.0920586
0.0918894
0.0917324
0.0915962
0.0914874
0.0914098
0.0913619
0.0913396
0.0913365
0.091344
0.0913541
0.0913605
0.0913022
0.0912975
0.0912884
0.091277
0.091267
0.0912648
0.0912803
0.091328
0.091427
0.0915966
0.0918434
0.092148
0.0924624
0.0927328
0.0929518
0.093138
0.0932868
0.0933819
0.0934249
0.0934243
0.0933865
0.093318
0.0932256
0.0931168
0.0929998
0.0928833
0.0927754
0.0926844
0.0926164
0.0925732
0.0925513
0.0925439
0.0915106
0.0915063
0.0914984
0.0914891
0.0914827
0.0914868
0.0915128
0.0915765
0.0916949
0.0918797
0.0921269
0.0924138
0.0927077
0.0929816
0.0932311
0.0934616
0.093659
0.0938142
0.0939414
0.0940508
0.0941419
0.0942109
0.094253
0.0942646
0.0942442
0.0941942
0.0941215
0.0940373
0.093955
0.0938879
0.0938442
0.0938247
0.0916751
0.0916717
0.0916661
0.0916603
0.0916585
0.0916678
0.0916986
0.0917645
0.0918789
0.0920498
0.0922727
0.0925302
0.0927976
0.093054
0.0932893
0.0934969
0.0936575
0.0937721
0.0938717
0.0939747
0.0940834
0.0941937
0.0942981
0.0943888
0.0944586
0.0945025
0.0945194
0.0945121
0.0944881
0.0944581
0.094433
0.0944197
0.0917945
0.0917921
0.0917883
0.0917852
0.0917865
0.0917983
0.0918294
0.0918908
0.0919932
0.0921427
0.0923364
0.0925613
0.0927977
0.0930272
0.0932363
0.0934135
0.0935393
0.0936209
0.0936951
0.0937843
0.0938932
0.0940185
0.0941516
0.0942808
0.094395
0.0944858
0.0945497
0.0945873
0.0946031
0.0946041
0.0945987
0.094594
0.091882
0.0918801
0.0918772
0.0918753
0.0918777
0.0918896
0.0919183
0.0919727
0.0920611
0.0921885
0.0923533
0.0925457
0.0927505
0.0929516
0.0931361
0.0932924
0.093404
0.093479
0.0935492
0.0936358
0.0937458
0.0938797
0.0940312
0.0941887
0.0943371
0.0944629
0.094558
0.0946207
0.0946552
0.094669
0.0946712
0.0946696
0.0919533
0.0919512
0.091948
0.0919454
0.0919467
0.0919565
0.0919809
0.0920271
0.0921017
0.0922086
0.0923469
0.0925096
0.0926852
0.0928614
0.0930274
0.0931744
0.0932892
0.0933766
0.0934581
0.093551
0.0936631
0.093798
0.0939534
0.0941216
0.0942888
0.0944394
0.0945606
0.0946462
0.0946976
0.0947217
0.0947286
0.0947284
0.0920252
0.0920222
0.0920169
0.0920113
0.0920088
0.092014
0.0920324
0.0920701
0.0921321
0.0922216
0.092338
0.0924766
0.0926294
0.0927876
0.0929435
0.0930916
0.0932205
0.0933283
0.093427
0.0935298
0.0936449
0.0937775
0.0939287
0.0940946
0.0942655
0.0944273
0.0945653
0.0946689
0.0947353
0.0947693
0.094781
0.0947819
0.092115
0.0921099
0.0921006
0.0920897
0.092081
0.0920797
0.0920913
0.0921211
0.0921735
0.0922506
0.0923523
0.0924752
0.0926141
0.0927629
0.0929166
0.0930721
0.0932182
0.0933454
0.0934586
0.0935689
0.0936845
0.0938114
0.093953
0.0941085
0.0942718
0.0944324
0.0945766
0.0946914
0.0947696
0.0948127
0.0948292
0.0948315
0.092238
0.0922298
0.0922151
0.0921976
0.0921823
0.0921749
0.0921814
0.0922069
0.0922548
0.0923267
0.0924219
0.092538
0.0926711
0.092817
0.0929721
0.0931349
0.0932934
0.0934321
0.0935521
0.0936637
0.0937746
0.0938915
0.0940188
0.0941581
0.0943064
0.0944565
0.0945973
0.0947158
0.0948017
0.0948523
0.0948735
0.0948773
0.0924057
0.0923938
0.0923738
0.0923513
0.0923328
0.0923244
0.0923315
0.092359
0.0924092
0.0924826
0.0925778
0.0926923
0.0928231
0.0929667
0.0931206
0.093284
0.0934442
0.0935832
0.0937006
0.0938061
0.0939071
0.09401
0.0941195
0.0942384
0.0943664
0.0944994
0.0946291
0.094744
0.0948324
0.0948883
0.0949137
0.0949191
0.0926257
0.0926101
0.0925874
0.0925661
0.0925528
0.0925523
0.0925685
0.0926047
0.0926619
0.0927393
0.0928353
0.0929474
0.0930729
0.0932092
0.0933542
0.0935076
0.0936574
0.0937857
0.093892
0.0939852
0.094072
0.094158
0.0942478
0.0943445
0.0944491
0.0945603
0.0946729
0.0947777
0.0948633
0.0949212
0.0949499
0.094957
0.0929026
0.0928849
0.0928659
0.0928558
0.0928585
0.092875
0.0929062
0.0929535
0.0930166
0.0930948
0.0931867
0.0932902
0.0934034
0.0935241
0.0936511
0.0937841
0.0939129
0.0940221
0.0941113
0.0941881
0.0942583
0.0943263
0.094396
0.0944703
0.0945509
0.094638
0.0947293
0.0948185
0.0948959
0.0949519
0.0949822
0.0949909
0.093242
0.0932261
0.0932208
0.0932322
0.0932574
0.0932928
0.0933372
0.0933906
0.0934529
0.0935242
0.0936039
0.0936909
0.0937839
0.0938816
0.0939831
0.0940884
0.0941896
0.0942747
0.0943436
0.0944022
0.0944549
0.0945051
0.0945557
0.0946091
0.0946669
0.09473
0.094798
0.0948676
0.0949318
0.0949817
0.0950112
0.0950208
0.0936536
0.0936473
0.093665
0.0936991
0.0937408
0.0937858
0.0938328
0.0938819
0.093934
0.0939901
0.0940503
0.0941145
0.0941818
0.0942517
0.0943237
0.0943979
0.0944687
0.094528
0.0945758
0.094616
0.0946517
0.0946853
0.0947188
0.0947536
0.0947912
0.0948324
0.0948776
0.0949257
0.0949726
0.095012
0.0950375
0.095047
0.0941552
0.094167
0.0942018
0.094241
0.09428
0.0943172
0.0943525
0.0943865
0.0944204
0.0944553
0.0944918
0.0945299
0.0945696
0.0946105
0.0946524
0.0946953
0.0947361
0.0947702
0.0947975
0.0948204
0.0948406
0.0948594
0.094878
0.0948971
0.0949175
0.09494
0.0949648
0.0949918
0.0950195
0.0950444
0.0950621
0.0950697
0.0947681
0.0947775
0.0947955
0.0948127
0.0948285
0.0948429
0.094856
0.094868
0.0948796
0.0948913
0.0949033
0.0949158
0.0949287
0.0949419
0.0949554
0.0949692
0.0949823
0.0949933
0.095002
0.0950093
0.0950158
0.0950217
0.0950275
0.0950335
0.0950398
0.0950468
0.0950544
0.0950629
0.0950717
0.09508
0.0950864
0.0950895
)
;

boundaryField
{
    movingWall
    {
        type            fixedValue;
        value           uniform 0.0951;
    }
    fixedWalls
    {
        type            zeroGradient;
    }
    floor
    {
        type            zeroGradient;
    }
    frontAndBack
    {
        type            empty;
    }
}


// ************************************************************************* //
