/*--------------------------------*- C++ -*----------------------------------*\
| =========                 |                                                 |
| \\      /  F ield         | OpenFOAM: The Open Source CFD Toolbox           |
|  \\    /   O peration     | Version:  2212                                  |
|   \\  /    A nd           | Website:  www.openfoam.com                      |
|    \\/     M anipulation  |                                                 |
\*---------------------------------------------------------------------------*/
FoamFile
{
    version     2.0;
    format      ascii;
    arch        "LSB;label=64;scalar=64";
    class       volScalarField;
    location    "1990";
    object      Gh2;
}
// * * * * * * * * * * * * * * * * * * * * * * * * * * * * * * * * * * * * * //

dimensions      [1 -3 0 0 0 0 0];

internalField   nonuniform List<scalar> 
1024
(
1.22803e-05
1.22794e-05
1.22771e-05
1.22729e-05
1.22662e-05
1.22561e-05
1.22416e-05
1.22221e-05
1.2197e-05
1.21663e-05
1.21309e-05
1.20927e-05
1.20538e-05
1.20168e-05
1.19833e-05
1.19545e-05
1.19333e-05
1.19222e-05
1.19203e-05
1.19259e-05
1.19373e-05
1.1953e-05
1.19709e-05
1.19892e-05
1.20059e-05
1.202e-05
1.2031e-05
1.20389e-05
1.20443e-05
1.20477e-05
1.20495e-05
1.20502e-05
1.228e-05
1.2279e-05
1.22768e-05
1.22726e-05
1.22658e-05
1.22556e-05
1.2241e-05
1.22213e-05
1.2196e-05
1.21652e-05
1.21297e-05
1.20913e-05
1.20525e-05
1.20155e-05
1.1982e-05
1.19532e-05
1.1932e-05
1.19208e-05
1.19189e-05
1.19244e-05
1.19358e-05
1.19515e-05
1.19696e-05
1.1988e-05
1.20048e-05
1.20191e-05
1.20302e-05
1.20383e-05
1.20437e-05
1.20471e-05
1.20489e-05
1.20497e-05
1.22792e-05
1.22783e-05
1.2276e-05
1.22717e-05
1.22648e-05
1.22544e-05
1.22395e-05
1.22195e-05
1.21938e-05
1.21626e-05
1.21268e-05
1.20883e-05
1.20494e-05
1.20125e-05
1.19791e-05
1.19503e-05
1.19289e-05
1.19175e-05
1.19153e-05
1.19207e-05
1.19322e-05
1.19481e-05
1.19665e-05
1.19852e-05
1.20025e-05
1.20171e-05
1.20285e-05
1.20368e-05
1.20423e-05
1.20458e-05
1.20476e-05
1.20484e-05
1.22779e-05
1.2277e-05
1.22746e-05
1.22702e-05
1.2263e-05
1.22523e-05
1.22369e-05
1.22163e-05
1.219e-05
1.21582e-05
1.21219e-05
1.20832e-05
1.20443e-05
1.20075e-05
1.19742e-05
1.19453e-05
1.19235e-05
1.19115e-05
1.19088e-05
1.19139e-05
1.19256e-05
1.19421e-05
1.19612e-05
1.19807e-05
1.19986e-05
1.20137e-05
1.20255e-05
1.20341e-05
1.20398e-05
1.20433e-05
1.20452e-05
1.2046e-05
1.22759e-05
1.22749e-05
1.22724e-05
1.22678e-05
1.22603e-05
1.2249e-05
1.2233e-05
1.22116e-05
1.21843e-05
1.21517e-05
1.21148e-05
1.20758e-05
1.2037e-05
1.20004e-05
1.19672e-05
1.19379e-05
1.19152e-05
1.1902e-05
1.18983e-05
1.19029e-05
1.1915e-05
1.19325e-05
1.1953e-05
1.19737e-05
1.19927e-05
1.20086e-05
1.2021e-05
1.20299e-05
1.20358e-05
1.20394e-05
1.20413e-05
1.2042e-05
1.22729e-05
1.22718e-05
1.22692e-05
1.22643e-05
1.22564e-05
1.22444e-05
1.22275e-05
1.2205e-05
1.21766e-05
1.21429e-05
1.21053e-05
1.20661e-05
1.20273e-05
1.19909e-05
1.19576e-05
1.19276e-05
1.19034e-05
1.18881e-05
1.18827e-05
1.18867e-05
1.18992e-05
1.19183e-05
1.19408e-05
1.19635e-05
1.19841e-05
1.20011e-05
1.20142e-05
1.20235e-05
1.20296e-05
1.20332e-05
1.2035e-05
1.20357e-05
1.22688e-05
1.22677e-05
1.22649e-05
1.22597e-05
1.22512e-05
1.22384e-05
1.22204e-05
1.21965e-05
1.21667e-05
1.21318e-05
1.20935e-05
1.2054e-05
1.20154e-05
1.19791e-05
1.19455e-05
1.19142e-05
1.18875e-05
1.18692e-05
1.18613e-05
1.18641e-05
1.18771e-05
1.18981e-05
1.19232e-05
1.19486e-05
1.19714e-05
1.199e-05
1.2004e-05
1.20138e-05
1.202e-05
1.20236e-05
1.20254e-05
1.20261e-05
1.22635e-05
1.22623e-05
1.22594e-05
1.22538e-05
1.22447e-05
1.22309e-05
1.22116e-05
1.21862e-05
1.21549e-05
1.21188e-05
1.20798e-05
1.20401e-05
1.20016e-05
1.19653e-05
1.19309e-05
1.18976e-05
1.18675e-05
1.18451e-05
1.18338e-05
1.18346e-05
1.18475e-05
1.18701e-05
1.18981e-05
1.19268e-05
1.19525e-05
1.19732e-05
1.19885e-05
1.19989e-05
1.20053e-05
1.20089e-05
1.20105e-05
1.20111e-05
1.22571e-05
1.22559e-05
1.22527e-05
1.22468e-05
1.2237e-05
1.22222e-05
1.22016e-05
1.21747e-05
1.21418e-05
1.21045e-05
1.20648e-05
1.2025e-05
1.19865e-05
1.19499e-05
1.19144e-05
1.18786e-05
1.18444e-05
1.18171e-05
1.18012e-05
1.17986e-05
1.18097e-05
1.18326e-05
1.18627e-05
1.18946e-05
1.19236e-05
1.1947e-05
1.1964e-05
1.19753e-05
1.19821e-05
1.19858e-05
1.19874e-05
1.19879e-05
1.22498e-05
1.22485e-05
1.22452e-05
1.22389e-05
1.22284e-05
1.22127e-05
1.21908e-05
1.21625e-05
1.21283e-05
1.20899e-05
1.20496e-05
1.20096e-05
1.19712e-05
1.19342e-05
1.18975e-05
1.18593e-05
1.1821e-05
1.17882e-05
1.17663e-05
1.17579e-05
1.17643e-05
1.17844e-05
1.1814e-05
1.18474e-05
1.18793e-05
1.19057e-05
1.19251e-05
1.19381e-05
1.19457e-05
1.19498e-05
1.19515e-05
1.1952e-05
1.22419e-05
1.22405e-05
1.22371e-05
1.22305e-05
1.22195e-05
1.22031e-05
1.21802e-05
1.21507e-05
1.21153e-05
1.20761e-05
1.20355e-05
1.19955e-05
1.19573e-05
1.19204e-05
1.18832e-05
1.18436e-05
1.18021e-05
1.17639e-05
1.17343e-05
1.17169e-05
1.17144e-05
1.17267e-05
1.1751e-05
1.17822e-05
1.18146e-05
1.18433e-05
1.18655e-05
1.18808e-05
1.18902e-05
1.18952e-05
1.18975e-05
1.18981e-05
1.22338e-05
1.22325e-05
1.22289e-05
1.22222e-05
1.2211e-05
1.21941e-05
1.21706e-05
1.21404e-05
1.21045e-05
1.20649e-05
1.20242e-05
1.19848e-05
1.19475e-05
1.19118e-05
1.18761e-05
1.18374e-05
1.17951e-05
1.1752e-05
1.17134e-05
1.16839e-05
1.16675e-05
1.16662e-05
1.16789e-05
1.17019e-05
1.173e-05
1.17579e-05
1.17817e-05
1.17995e-05
1.18112e-05
1.18179e-05
1.18212e-05
1.18223e-05
1.22263e-05
1.22249e-05
1.22214e-05
1.22147e-05
1.22035e-05
1.21866e-05
1.21632e-05
1.2133e-05
1.20972e-05
1.2058e-05
1.20182e-05
1.19802e-05
1.19453e-05
1.19131e-05
1.18819e-05
1.18481e-05
1.18084e-05
1.17622e-05
1.17142e-05
1.16702e-05
1.16365e-05
1.16168e-05
1.16118e-05
1.16199e-05
1.16372e-05
1.16589e-05
1.16805e-05
1.16986e-05
1.17119e-05
1.17202e-05
1.17246e-05
1.17263e-05
1.22201e-05
1.22188e-05
1.22153e-05
1.22088e-05
1.2198e-05
1.21818e-05
1.21591e-05
1.213e-05
1.20954e-05
1.20577e-05
1.20199e-05
1.1985e-05
1.19546e-05
1.19289e-05
1.19061e-05
1.18819e-05
1.18494e-05
1.18029e-05
1.17463e-05
1.16874e-05
1.16345e-05
1.15938e-05
1.15678e-05
1.15564e-05
1.15573e-05
1.15669e-05
1.15807e-05
1.1595e-05
1.16069e-05
1.16153e-05
1.16202e-05
1.16222e-05
1.22163e-05
1.2215e-05
1.22117e-05
1.22056e-05
1.21956e-05
1.21805e-05
1.21596e-05
1.21327e-05
1.21007e-05
1.2066e-05
1.20319e-05
1.20018e-05
1.19781e-05
1.19618e-05
1.19512e-05
1.19411e-05
1.19205e-05
1.18775e-05
1.18146e-05
1.17414e-05
1.16688e-05
1.16057e-05
1.15571e-05
1.15244e-05
1.15064e-05
1.15005e-05
1.15027e-05
1.15092e-05
1.15167e-05
1.1523e-05
1.15271e-05
1.15289e-05
1.22162e-05
1.2215e-05
1.22119e-05
1.22063e-05
1.21974e-05
1.21842e-05
1.21659e-05
1.21424e-05
1.21145e-05
1.20844e-05
1.20554e-05
1.20314e-05
1.20158e-05
1.201e-05
1.20133e-05
1.20199e-05
1.20151e-05
1.19808e-05
1.19161e-05
1.1831e-05
1.17387e-05
1.16515e-05
1.15778e-05
1.15218e-05
1.14835e-05
1.1461e-05
1.14504e-05
1.14479e-05
1.14496e-05
1.14527e-05
1.14553e-05
1.14566e-05
1.22212e-05
1.222e-05
1.22171e-05
1.22121e-05
1.22043e-05
1.21931e-05
1.21777e-05
1.21582e-05
1.21351e-05
1.21104e-05
1.20871e-05
1.20692e-05
1.20603e-05
1.20631e-05
1.20774e-05
1.20979e-05
1.21087e-05
1.20877e-05
1.20291e-05
1.19397e-05
1.18323e-05
1.17222e-05
1.1622e-05
1.15401e-05
1.14793e-05
1.14387e-05
1.14149e-05
1.14032e-05
1.13994e-05
1.13994e-05
1.14006e-05
1.14015e-05
1.22305e-05
1.22293e-05
1.22266e-05
1.2222e-05
1.2215e-05
1.22053e-05
1.21925e-05
1.21763e-05
1.21576e-05
1.21376e-05
1.21192e-05
1.21058e-05
1.21013e-05
1.21083e-05
1.21274e-05
1.21544e-05
1.21738e-05
1.21634e-05
1.21149e-05
1.20304e-05
1.19191e-05
1.1795e-05
1.16739e-05
1.15683e-05
1.14851e-05
1.14257e-05
1.13878e-05
1.13668e-05
1.13572e-05
1.13544e-05
1.13545e-05
1.13551e-05
1.22421e-05
1.22409e-05
1.22383e-05
1.22339e-05
1.22276e-05
1.22189e-05
1.22078e-05
1.21943e-05
1.21788e-05
1.21626e-05
1.21479e-05
1.21377e-05
1.21353e-05
1.21434e-05
1.21626e-05
1.21894e-05
1.22095e-05
1.22027e-05
1.21609e-05
1.20837e-05
1.19762e-05
1.18491e-05
1.17173e-05
1.15955e-05
1.14943e-05
1.14182e-05
1.13668e-05
1.13362e-05
1.13207e-05
1.13149e-05
1.13138e-05
1.13142e-05
1.22544e-05
1.22533e-05
1.22508e-05
1.22468e-05
1.22409e-05
1.2233e-05
1.22232e-05
1.22115e-05
1.21984e-05
1.21851e-05
1.21733e-05
1.21653e-05
1.21639e-05
1.21711e-05
1.21873e-05
1.22089e-05
1.22234e-05
1.22141e-05
1.21744e-05
1.21028e-05
1.20018e-05
1.18788e-05
1.17455e-05
1.1616e-05
1.15028e-05
1.14135e-05
1.13501e-05
1.13102e-05
1.12886e-05
1.12795e-05
1.12771e-05
1.12772e-05
1.2265e-05
1.22641e-05
1.22621e-05
1.22586e-05
1.22534e-05
1.22465e-05
1.22378e-05
1.22276e-05
1.22164e-05
1.22053e-05
1.21956e-05
1.21891e-05
1.21875e-05
1.21921e-05
1.22025e-05
1.2215e-05
1.22191e-05
1.22027e-05
1.21616e-05
1.20937e-05
1.19997e-05
1.18843e-05
1.17562e-05
1.16267e-05
1.15081e-05
1.14099e-05
1.13366e-05
1.12881e-05
1.12604e-05
1.12477e-05
1.12439e-05
1.12437e-05
1.22702e-05
1.22697e-05
1.22685e-05
1.22662e-05
1.22625e-05
1.22571e-05
1.225e-05
1.22415e-05
1.22321e-05
1.22226e-05
1.22141e-05
1.22077e-05
1.22042e-05
1.22038e-05
1.22054e-05
1.22052e-05
1.21955e-05
1.21696e-05
1.21254e-05
1.20606e-05
1.19742e-05
1.18685e-05
1.17494e-05
1.16259e-05
1.15081e-05
1.14057e-05
1.13254e-05
1.12695e-05
1.12358e-05
1.12194e-05
1.12138e-05
1.12132e-05
1.22647e-05
1.22649e-05
1.22652e-05
1.22652e-05
1.22641e-05
1.22614e-05
1.22569e-05
1.22504e-05
1.22426e-05
1.2234e-05
1.22252e-05
1.22165e-05
1.22082e-05
1.21996e-05
1.21894e-05
1.21741e-05
1.21496e-05
1.21141e-05
1.2067e-05
1.20057e-05
1.1928e-05
1.18337e-05
1.17265e-05
1.16128e-05
1.1501e-05
1.13993e-05
1.13154e-05
1.12537e-05
1.12145e-05
1.11941e-05
1.11867e-05
1.11856e-05
1.22434e-05
1.22447e-05
1.22472e-05
1.22502e-05
1.22528e-05
1.22538e-05
1.22525e-05
1.22483e-05
1.22414e-05
1.2232e-05
1.22203e-05
1.22064e-05
1.21899e-05
1.21704e-05
1.21468e-05
1.21167e-05
1.2079e-05
1.20361e-05
1.19879e-05
1.19312e-05
1.18631e-05
1.17818e-05
1.16885e-05
1.15876e-05
1.14853e-05
1.13886e-05
1.13048e-05
1.12397e-05
1.11959e-05
1.11718e-05
1.11622e-05
1.11605e-05
1.22019e-05
1.22047e-05
1.22098e-05
1.22162e-05
1.22224e-05
1.22269e-05
1.22281e-05
1.2225e-05
1.22172e-05
1.22046e-05
1.21874e-05
1.21656e-05
1.21393e-05
1.21084e-05
1.20727e-05
1.20308e-05
1.19842e-05
1.19374e-05
1.18905e-05
1.18398e-05
1.17819e-05
1.17141e-05
1.16361e-05
1.155e-05
1.14601e-05
1.13719e-05
1.12919e-05
1.12262e-05
1.11794e-05
1.11519e-05
1.11402e-05
1.11379e-05
1.21376e-05
1.2142e-05
1.21495e-05
1.21582e-05
1.21662e-05
1.21716e-05
1.21728e-05
1.21682e-05
1.2157e-05
1.21392e-05
1.21151e-05
1.20852e-05
1.20502e-05
1.20107e-05
1.1967e-05
1.19187e-05
1.18685e-05
1.1822e-05
1.17788e-05
1.17352e-05
1.16875e-05
1.16331e-05
1.15704e-05
1.15001e-05
1.14246e-05
1.13478e-05
1.12748e-05
1.12118e-05
1.11641e-05
1.11343e-05
1.11206e-05
1.11174e-05
1.20493e-05
1.20552e-05
1.20638e-05
1.2072e-05
1.20777e-05
1.20798e-05
1.2077e-05
1.2068e-05
1.20518e-05
1.20287e-05
1.19991e-05
1.1964e-05
1.19243e-05
1.18811e-05
1.18351e-05
1.17863e-05
1.1738e-05
1.16953e-05
1.16578e-05
1.16218e-05
1.1584e-05
1.15419e-05
1.14936e-05
1.14389e-05
1.13787e-05
1.13153e-05
1.12523e-05
1.11951e-05
1.11491e-05
1.11183e-05
1.11031e-05
1.10991e-05
1.19363e-05
1.19431e-05
1.19499e-05
1.19533e-05
1.19521e-05
1.19467e-05
1.19371e-05
1.19224e-05
1.19021e-05
1.1876e-05
1.18447e-05
1.1809e-05
1.177e-05
1.17286e-05
1.16859e-05
1.16419e-05
1.15996e-05
1.15633e-05
1.15327e-05
1.15044e-05
1.14757e-05
1.14445e-05
1.1409e-05
1.13686e-05
1.13234e-05
1.12742e-05
1.12234e-05
1.11747e-05
1.11332e-05
1.11035e-05
1.10875e-05
1.10828e-05
1.1797e-05
1.18031e-05
1.18043e-05
1.17985e-05
1.17878e-05
1.1774e-05
1.17581e-05
1.17397e-05
1.17181e-05
1.16931e-05
1.16645e-05
1.16331e-05
1.15995e-05
1.15648e-05
1.15294e-05
1.14937e-05
1.14601e-05
1.14319e-05
1.14086e-05
1.13877e-05
1.13671e-05
1.13452e-05
1.13206e-05
1.12926e-05
1.12609e-05
1.12257e-05
1.1188e-05
1.115e-05
1.11155e-05
1.10892e-05
1.10737e-05
1.10686e-05
1.16277e-05
1.16299e-05
1.16218e-05
1.16068e-05
1.15891e-05
1.15709e-05
1.1553e-05
1.15351e-05
1.15164e-05
1.14962e-05
1.14741e-05
1.14505e-05
1.14256e-05
1.14002e-05
1.13747e-05
1.13492e-05
1.13255e-05
1.13058e-05
1.12898e-05
1.12757e-05
1.12622e-05
1.12481e-05
1.12324e-05
1.12147e-05
1.11944e-05
1.11717e-05
1.11467e-05
1.11205e-05
1.10953e-05
1.10745e-05
1.10612e-05
1.10563e-05
1.14211e-05
1.1416e-05
1.14012e-05
1.13844e-05
1.13679e-05
1.13527e-05
1.13388e-05
1.13261e-05
1.13137e-05
1.13009e-05
1.12875e-05
1.12733e-05
1.12585e-05
1.12435e-05
1.12285e-05
1.12136e-05
1.11999e-05
1.11886e-05
1.11795e-05
1.11715e-05
1.1164e-05
1.11563e-05
1.11478e-05
1.11383e-05
1.11274e-05
1.11152e-05
1.11015e-05
1.10867e-05
1.10719e-05
1.10588e-05
1.10496e-05
1.10457e-05
1.11686e-05
1.11647e-05
1.11571e-05
1.11498e-05
1.11432e-05
1.11372e-05
1.1132e-05
1.11274e-05
1.11231e-05
1.11189e-05
1.11144e-05
1.11098e-05
1.1105e-05
1.11001e-05
1.10952e-05
1.10904e-05
1.1086e-05
1.10824e-05
1.10795e-05
1.10769e-05
1.10746e-05
1.10722e-05
1.10695e-05
1.10666e-05
1.10632e-05
1.10595e-05
1.10552e-05
1.10506e-05
1.10459e-05
1.10415e-05
1.10382e-05
1.10366e-05
)
;

boundaryField
{
    movingWall
    {
        type            fixedValue;
        value           uniform 1.1032e-05;
    }
    fixedWalls
    {
        type            zeroGradient;
    }
    floor
    {
        type            zeroGradient;
    }
    frontAndBack
    {
        type            empty;
    }
}


// ************************************************************************* //
