/*--------------------------------*- C++ -*----------------------------------*\
| =========                 |                                                 |
| \\      /  F ield         | OpenFOAM: The Open Source CFD Toolbox           |
|  \\    /   O peration     | Version:  2212                                  |
|   \\  /    A nd           | Website:  www.openfoam.com                      |
|    \\/     M anipulation  |                                                 |
\*---------------------------------------------------------------------------*/
FoamFile
{
    version     2.0;
    format      ascii;
    arch        "LSB;label=64;scalar=64";
    class       volScalarField;
    location    "1990";
    object      p_rgh;
}
// * * * * * * * * * * * * * * * * * * * * * * * * * * * * * * * * * * * * * //

dimensions      [0 2 -2 0 0 0 0];

internalField   nonuniform List<scalar> 
1024
(
0.0431942
0.0431941
0.0431936
0.043193
0.0431923
0.0431918
0.0431913
0.0431907
0.0431897
0.0431882
0.0431861
0.0431839
0.0431825
0.0431841
0.0431923
0.0432135
0.0432521
0.0432968
0.0433285
0.0433348
0.0433162
0.0432815
0.0432442
0.0432147
0.0431953
0.0431835
0.043177
0.0431739
0.0431731
0.0431739
0.0431753
0.0431763
0.043195
0.0431948
0.0431944
0.0431939
0.0431934
0.0431929
0.0431925
0.0431919
0.0431911
0.0431896
0.0431877
0.0431857
0.0431845
0.0431861
0.0431944
0.0432155
0.0432538
0.043298
0.0433291
0.0433348
0.043316
0.0432819
0.0432453
0.0432165
0.0431975
0.0431861
0.0431796
0.0431765
0.0431755
0.0431759
0.043177
0.043178
0.0431969
0.0431966
0.0431962
0.0431958
0.0431954
0.0431951
0.0431948
0.0431945
0.0431938
0.0431926
0.0431909
0.0431892
0.0431882
0.0431901
0.0431985
0.0432196
0.043258
0.043302
0.0433327
0.0433377
0.0433186
0.0432845
0.0432481
0.0432194
0.0432008
0.0431895
0.0431831
0.0431798
0.0431784
0.0431785
0.0431795
0.0431808
0.0432
0.0431996
0.0431991
0.0431987
0.0431985
0.0431985
0.0431986
0.0431987
0.0431984
0.0431975
0.0431962
0.0431948
0.0431942
0.0431964
0.0432051
0.0432265
0.0432652
0.0433093
0.0433397
0.0433444
0.0433246
0.0432899
0.0432528
0.0432234
0.0432044
0.0431931
0.0431865
0.0431828
0.0431812
0.0431811
0.0431821
0.0431837
0.0432047
0.043204
0.0432034
0.0432031
0.0432032
0.0432037
0.0432043
0.043205
0.0432053
0.043205
0.0432042
0.0432032
0.043203
0.0432057
0.0432147
0.0432365
0.0432755
0.0433196
0.0433495
0.0433536
0.0433328
0.0432974
0.0432589
0.0432279
0.0432079
0.043196
0.043189
0.043185
0.043183
0.0431827
0.0431838
0.0431854
0.0432109
0.04321
0.0432092
0.043209
0.0432096
0.0432107
0.0432123
0.0432139
0.0432151
0.0432155
0.0432153
0.0432148
0.0432151
0.0432181
0.0432275
0.0432494
0.0432881
0.0433311
0.0433595
0.0433627
0.0433411
0.0433053
0.0432655
0.0432323
0.0432103
0.0431975
0.0431898
0.0431853
0.0431829
0.0431824
0.0431832
0.0431847
0.0432184
0.0432171
0.0432163
0.0432163
0.0432176
0.0432198
0.0432228
0.0432257
0.0432281
0.0432294
0.0432299
0.0432299
0.0432305
0.0432336
0.0432427
0.0432638
0.0433006
0.0433407
0.0433665
0.0433686
0.0433473
0.0433118
0.0432721
0.0432369
0.0432117
0.0431973
0.0431885
0.0431832
0.0431804
0.0431795
0.0431799
0.0431808
0.0432261
0.0432246
0.0432237
0.0432243
0.0432266
0.0432304
0.0432352
0.04324
0.0432438
0.0432463
0.0432474
0.0432477
0.0432482
0.0432506
0.0432584
0.0432769
0.0433095
0.0433448
0.0433676
0.0433694
0.0433501
0.043317
0.0432793
0.0432434
0.0432145
0.0431974
0.0431866
0.0431801
0.0431766
0.0431751
0.0431749
0.0431753
0.0432321
0.0432304
0.0432297
0.043231
0.0432349
0.0432409
0.0432482
0.0432553
0.0432611
0.0432648
0.0432665
0.0432667
0.0432663
0.0432668
0.0432713
0.0432849
0.0433111
0.0433409
0.0433613
0.0433647
0.0433504
0.0433233
0.04329
0.0432559
0.0432254
0.0432023
0.0431883
0.0431797
0.0431749
0.0431726
0.0431718
0.0431716
0.0432332
0.0432315
0.0432311
0.0432336
0.0432395
0.0432484
0.0432589
0.0432691
0.0432772
0.0432824
0.0432844
0.0432838
0.0432814
0.0432784
0.0432779
0.0432846
0.0433031
0.0433276
0.0433471
0.0433547
0.043349
0.0433326
0.0433091
0.0432812
0.0432507
0.0432213
0.0432011
0.0431885
0.0431812
0.0431776
0.0431761
0.0431756
0.0432251
0.0432235
0.0432238
0.0432277
0.0432362
0.0432488
0.0432634
0.0432775
0.0432885
0.0432952
0.0432974
0.0432954
0.0432898
0.043282
0.043275
0.043274
0.0432847
0.0433045
0.0433242
0.043338
0.0433438
0.0433422
0.0433341
0.043319
0.0432961
0.0432669
0.0432362
0.043216
0.0432041
0.043198
0.0431955
0.0431947
0.0432031
0.0432019
0.0432029
0.0432086
0.0432202
0.0432371
0.0432567
0.0432755
0.0432902
0.043299
0.0433013
0.0432975
0.0432882
0.0432751
0.0432614
0.0432527
0.0432561
0.0432712
0.0432913
0.0433112
0.0433288
0.0433429
0.0433522
0.043354
0.0433458
0.0433269
0.0433002
0.0432713
0.0432517
0.043241
0.0432363
0.0432347
0.0431634
0.0431627
0.0431646
0.0431721
0.0431869
0.0432085
0.043234
0.0432586
0.0432779
0.0432895
0.0432925
0.0432873
0.0432747
0.0432569
0.0432374
0.043222
0.0432184
0.0432286
0.0432475
0.0432711
0.043297
0.0433232
0.0433465
0.0433635
0.0433709
0.0433675
0.0433544
0.0433353
0.0433152
0.0433003
0.0432924
0.0432893
0.0431045
0.0431042
0.043107
0.043116
0.0431337
0.04316
0.0431918
0.0432232
0.0432485
0.0432642
0.0432692
0.0432639
0.0432496
0.0432287
0.0432053
0.0431851
0.0431757
0.0431803
0.0431955
0.0432179
0.0432459
0.043277
0.0433076
0.0433336
0.0433516
0.0433602
0.0433602
0.043354
0.043345
0.043336
0.0433289
0.0433252
0.0430286
0.0430288
0.0430322
0.043042
0.0430616
0.0430919
0.0431297
0.0431687
0.0432015
0.0432234
0.0432326
0.0432295
0.043216
0.043195
0.0431707
0.0431486
0.0431356
0.043135
0.0431433
0.0431589
0.0431812
0.0432086
0.0432382
0.0432657
0.0432877
0.043302
0.0433089
0.0433099
0.0433075
0.0433037
0.0432999
0.0432972
0.0429432
0.0429439
0.0429475
0.0429574
0.0429774
0.0430097
0.0430525
0.0430991
0.043141
0.0431715
0.0431877
0.04319
0.0431806
0.0431629
0.0431416
0.0431222
0.0431103
0.0431052
0.0431043
0.0431077
0.043117
0.0431326
0.0431533
0.0431757
0.0431961
0.0432114
0.0432207
0.0432245
0.0432245
0.0432224
0.0432194
0.0432167
0.0428687
0.0428696
0.0428731
0.0428822
0.0429008
0.0429321
0.0429764
0.0430293
0.0430801
0.0431205
0.043146
0.0431561
0.0431531
0.0431412
0.0431258
0.0431136
0.0431102
0.0431045
0.0430963
0.0430871
0.0430797
0.0430778
0.0430833
0.043095
0.0431095
0.0431227
0.0431318
0.043136
0.0431363
0.0431341
0.0431307
0.0431275
0.0428243
0.0428253
0.0428285
0.0428365
0.0428532
0.0428821
0.0429248
0.0429781
0.0430338
0.0430826
0.0431177
0.0431365
0.0431405
0.0431341
0.0431235
0.0431162
0.0431203
0.0431201
0.0431127
0.0431001
0.0430825
0.0430645
0.0430527
0.0430499
0.0430548
0.0430628
0.0430697
0.0430731
0.0430728
0.04307
0.0430658
0.0430619
0.0428081
0.0428092
0.0428121
0.0428191
0.0428337
0.0428597
0.0428992
0.0429507
0.0430076
0.043061
0.0431028
0.0431285
0.0431382
0.0431357
0.0431271
0.0431203
0.0431221
0.0431262
0.0431274
0.0431227
0.0431072
0.0430822
0.0430577
0.0430414
0.0430358
0.0430376
0.0430415
0.0430438
0.0430431
0.0430397
0.0430346
0.0430297
0.0428103
0.0428115
0.0428139
0.0428199
0.0428327
0.0428561
0.0428926
0.0429414
0.0429976
0.0430526
0.0430978
0.0431276
0.0431405
0.0431394
0.0431302
0.0431206
0.0431184
0.0431245
0.0431316
0.0431351
0.04313
0.0431142
0.0430858
0.0430611
0.0430479
0.0430456
0.0430484
0.0430508
0.0430504
0.0430467
0.0430405
0.0430344
0.0428228
0.0428238
0.0428258
0.042831
0.0428424
0.042864
0.0428982
0.0429451
0.043
0.0430547
0.0431005
0.0431309
0.0431437
0.0431412
0.043129
0.043115
0.0431087
0.0431152
0.0431267
0.0431377
0.0431429
0.0431385
0.0431229
0.0430997
0.0430839
0.0430818
0.0430877
0.0430939
0.0430961
0.0430933
0.0430864
0.0430788
0.0428397
0.0428403
0.0428419
0.0428464
0.0428571
0.0428779
0.0429115
0.0429578
0.0430119
0.0430654
0.0431092
0.0431367
0.0431458
0.0431389
0.0431216
0.0431022
0.0430921
0.0430979
0.0431132
0.0431309
0.0431459
0.0431543
0.0431542
0.0431471
0.043139
0.0431422
0.0431574
0.0431739
0.0431837
0.0431846
0.0431779
0.0431685
0.042857
0.0428571
0.0428582
0.0428624
0.0428733
0.0428949
0.0429298
0.0429772
0.0430314
0.0430828
0.0431222
0.0431436
0.0431457
0.0431316
0.0431075
0.0430821
0.0430681
0.0430725
0.0430908
0.0431143
0.0431388
0.0431608
0.0431786
0.0431934
0.0432081
0.0432274
0.0432581
0.0432933
0.0433188
0.0433286
0.043324
0.0433133
0.0428721
0.0428714
0.0428719
0.0428766
0.0428893
0.0429136
0.0429518
0.043002
0.0430566
0.0431049
0.0431377
0.0431501
0.0431425
0.0431189
0.0430866
0.0430547
0.0430367
0.0430399
0.0430596
0.043088
0.0431214
0.0431575
0.0431958
0.0432375
0.0432843
0.0433367
0.0433944
0.0434566
0.0435088
0.0435361
0.0435377
0.0435273
0.0428835
0.0428816
0.0428818
0.042888
0.0429042
0.0429336
0.042977
0.0430309
0.0430857
0.0431293
0.0431532
0.0431544
0.043135
0.0431006
0.043059
0.0430203
0.0429983
0.0429998
0.0430197
0.0430528
0.0430946
0.0431451
0.0432056
0.0432784
0.0433652
0.0434639
0.043568
0.04367
0.0437611
0.0438196
0.0438352
0.0438293
0.0428889
0.0428854
0.0428857
0.0428954
0.0429179
0.0429546
0.0430038
0.0430617
0.0431156
0.0431526
0.0431658
0.0431541
0.0431219
0.0430758
0.0430247
0.0429792
0.0429535
0.0429535
0.0429742
0.0430109
0.0430605
0.0431251
0.0432085
0.0433152
0.0434475
0.0436026
0.0437702
0.0439343
0.0440797
0.0441892
0.0442345
0.0442417
0.0428817
0.042877
0.0428795
0.0428962
0.0429288
0.0429755
0.0430307
0.0430915
0.0431427
0.0431709
0.0431719
0.0431468
0.0431015
0.043044
0.0429839
0.0429323
0.0429036
0.0429029
0.0429247
0.0429646
0.0430221
0.0431003
0.0432059
0.0433464
0.0435263
0.0437435
0.0439864
0.044234
0.0444608
0.0446465
0.0447486
0.0447858
0.0428479
0.0428456
0.0428561
0.0428868
0.0429346
0.0429936
0.0430552
0.0431164
0.0431622
0.0431802
0.0431685
0.0431305
0.0430733
0.0430058
0.0429383
0.0428821
0.0428521
0.0428516
0.042875
0.0429187
0.0429833
0.0430738
0.0431994
0.0433706
0.0435949
0.0438735
0.0441967
0.0445434
0.0448827
0.0451768
0.0453778
0.045475
0.0427619
0.0427739
0.0428085
0.042866
0.0429347
0.0430067
0.0430745
0.0431333
0.0431714
0.0431787
0.0431554
0.0431064
0.0430395
0.0429646
0.042892
0.0428335
0.0428035
0.0428041
0.0428296
0.0428772
0.0429481
0.0430488
0.0431906
0.0433865
0.0436473
0.0439784
0.0443763
0.0448268
0.045303
0.0457589
0.0461139
0.0463413
0.0425704
0.0426442
0.042744
0.0428454
0.0429363
0.0430191
0.0430901
0.0431434
0.0431725
0.0431701
0.0431374
0.0430799
0.0430064
0.0429268
0.0428515
0.0427924
0.0427634
0.0427657
0.0427933
0.0428441
0.0429198
0.0430278
0.0431807
0.0433934
0.0436792
0.0440475
0.0445028
0.0450444
0.0456649
0.046335
0.046967
0.0475181
0.042076
0.042467
0.0427077
0.0428556
0.042959
0.043043
0.0431096
0.0431546
0.0431744
0.0431636
0.0431235
0.0430601
0.0429822
0.0428998
0.0428232
0.0427642
0.0427363
0.0427399
0.0427691
0.0428219
0.0429004
0.0430122
0.0431707
0.0433917
0.0436898
0.0440771
0.0445646
0.0451662
0.0459048
0.0468138
0.0479215
0.0491795
0.041057
0.0422926
0.042755
0.0429017
0.0429978
0.0430759
0.0431341
0.0431703
0.0431824
0.0431653
0.0431201
0.0430529
0.0429722
0.042888
0.0428105
0.0427513
0.0427238
0.0427279
0.0427578
0.0428114
0.0428907
0.0430035
0.0431634
0.0433863
0.043687
0.044079
0.0445769
0.0452058
0.0460178
0.0471192
0.0487273
0.050989
)
;

boundaryField
{
    movingWall
    {
        type            fixedFluxPressure;
        gradient        uniform 0;
        value           nonuniform List<scalar> 
32
(
0.041057
0.0422926
0.042755
0.0429017
0.0429978
0.0430759
0.0431341
0.0431703
0.0431824
0.0431653
0.0431201
0.0430529
0.0429722
0.042888
0.0428105
0.0427513
0.0427238
0.0427279
0.0427578
0.0428114
0.0428907
0.0430035
0.0431634
0.0433863
0.043687
0.044079
0.0445769
0.0452058
0.0460178
0.0471192
0.0487273
0.050989
)
;
    }
    fixedWalls
    {
        type            fixedFluxPressure;
        gradient        uniform 0;
        value           nonuniform List<scalar> 
64
(
0.0431942
0.043195
0.0431969
0.0432
0.0432047
0.0432109
0.0432184
0.0432261
0.0432321
0.0432332
0.0432251
0.0432031
0.0431634
0.0431045
0.0430286
0.0429432
0.0428687
0.0428243
0.0428081
0.0428103
0.0428228
0.0428397
0.042857
0.0428721
0.0428835
0.0428889
0.0428817
0.0428479
0.0427619
0.0425704
0.042076
0.041057
0.0431763
0.043178
0.0431808
0.0431837
0.0431854
0.0431847
0.0431808
0.0431753
0.0431716
0.0431756
0.0431947
0.0432347
0.0432893
0.0433252
0.0432972
0.0432167
0.0431275
0.0430619
0.0430297
0.0430344
0.0430788
0.0431685
0.0433133
0.0435273
0.0438293
0.0442417
0.0447858
0.045475
0.0463413
0.0475181
0.0491795
0.050989
)
;
    }
    floor
    {
        type            fixedFluxPressure;
        gradient        uniform 0;
        value           nonuniform List<scalar> 
32
(
0.0431942
0.0431941
0.0431936
0.043193
0.0431923
0.0431918
0.0431913
0.0431907
0.0431897
0.0431882
0.0431861
0.0431839
0.0431825
0.0431841
0.0431923
0.0432135
0.0432521
0.0432968
0.0433285
0.0433348
0.0433162
0.0432815
0.0432442
0.0432147
0.0431953
0.0431835
0.043177
0.0431739
0.0431731
0.0431739
0.0431753
0.0431763
)
;
    }
    frontAndBack
    {
        type            empty;
    }
}


// ************************************************************************* //
