/*--------------------------------*- C++ -*----------------------------------*\
| =========                 |                                                 |
| \\      /  F ield         | OpenFOAM: The Open Source CFD Toolbox           |
|  \\    /   O peration     | Version:  2212                                  |
|   \\  /    A nd           | Website:  www.openfoam.com                      |
|    \\/     M anipulation  |                                                 |
\*---------------------------------------------------------------------------*/
FoamFile
{
    version     2.0;
    format      ascii;
    arch        "LSB;label=64;scalar=64";
    class       surfaceScalarField;
    location    "1990";
    object      phi;
}
// * * * * * * * * * * * * * * * * * * * * * * * * * * * * * * * * * * * * * //

dimensions      [0 3 -1 0 0 0 0];

oriented        oriented;

internalField   nonuniform List<scalar> 
1984
(
2.99947e-10
-3.08952e-10
2.7414e-10
2.56641e-11
-8.32949e-10
1.1071e-09
-3.35921e-09
2.52627e-09
-7.17811e-09
3.81888e-09
-1.18451e-08
4.66701e-09
-1.69136e-08
5.06851e-09
-2.23153e-08
5.40173e-09
-2.85557e-08
6.24032e-09
-3.65551e-08
7.9994e-09
-4.73292e-08
1.07742e-08
-6.17337e-08
1.44044e-08
-8.02931e-08
1.85595e-08
-1.02808e-07
2.25144e-08
-1.2718e-07
2.43728e-08
-1.46638e-07
1.94577e-08
-1.45969e-07
-6.69527e-10
-1.15471e-07
-3.04981e-08
-5.74711e-08
-5.79995e-08
1.56906e-08
-7.31617e-08
8.04494e-08
-6.47587e-08
1.16374e-07
-3.59244e-08
1.22769e-07
-6.39477e-09
1.10264e-07
1.25044e-08
8.98202e-08
2.0444e-08
6.75438e-08
2.22764e-08
4.63132e-08
2.12306e-08
2.77492e-08
1.85639e-08
1.31999e-08
1.45493e-08
3.84177e-09
9.35811e-09
3.33491e-11
3.80844e-09
3.33516e-11
-1.31083e-11
-2.95998e-10
-1.68282e-09
1.6955e-09
-6.63072e-09
6.05503e-09
-1.57655e-08
1.16609e-08
-2.89954e-08
1.70488e-08
-4.53615e-08
2.10331e-08
-6.37907e-08
2.34977e-08
-8.4139e-08
2.575e-08
-1.07799e-07
2.99005e-08
-1.37374e-07
3.7574e-08
-1.75751e-07
4.91517e-08
-2.25206e-07
6.38589e-08
-2.86615e-07
7.99681e-08
-3.57985e-07
9.38852e-08
-4.30829e-07
9.72168e-08
-4.83228e-07
7.18563e-08
-4.71646e-07
-1.22513e-08
-3.73307e-07
-1.28838e-07
-1.99279e-07
-2.32027e-07
1.8296e-08
-2.90737e-07
2.12683e-07
-2.59146e-07
3.26181e-07
-1.49423e-07
3.56829e-07
-3.70424e-08
3.30635e-07
3.86984e-08
2.76459e-07
7.462e-08
2.12759e-07
8.59763e-08
1.49887e-07
8.41029e-08
9.41097e-08
7.43412e-08
4.98172e-08
5.88418e-08
1.9736e-08
3.94394e-08
4.05571e-09
1.94888e-08
4.08904e-09
-1.22069e-09
9.247e-10
-6.63721e-09
7.11201e-09
-1.83228e-08
1.77406e-08
-3.75972e-08
3.09353e-08
-6.44408e-08
4.38925e-08
-9.75839e-08
5.41762e-08
-1.35583e-07
6.14964e-08
-1.78386e-07
6.85535e-08
-2.28272e-07
7.97861e-08
-2.89372e-07
9.86739e-08
-3.66139e-07
1.25919e-07
-4.61651e-07
1.59371e-07
-5.75914e-07
1.94231e-07
-7.03025e-07
2.20996e-07
-8.25301e-07
2.19493e-07
-9.03705e-07
1.5026e-07
-8.67839e-07
-4.81176e-08
-6.89778e-07
-3.06898e-07
-3.95421e-07
-5.26384e-07
-3.35125e-08
-6.52646e-07
2.97124e-07
-5.89782e-07
5.04496e-07
-3.56795e-07
5.78172e-07
-1.10718e-07
5.53279e-07
6.35915e-08
4.74308e-07
1.53591e-07
3.72919e-07
1.87365e-07
2.68706e-07
1.88316e-07
1.74078e-07
1.68969e-07
9.71305e-08
1.3579e-07
4.23217e-08
9.42482e-08
1.0518e-08
5.12925e-08
1.4607e-08
-3.35015e-09
4.27485e-09
-1.50984e-08
1.88602e-08
-3.76401e-08
4.02822e-08
-7.24015e-08
6.56967e-08
-1.19192e-07
9.06829e-08
-1.76428e-07
1.11412e-07
-2.42513e-07
1.27582e-07
-3.17703e-07
1.43743e-07
-4.05084e-07
1.67168e-07
-5.09821e-07
2.03411e-07
-6.3704e-07
2.53138e-07
-7.89324e-07
3.11654e-07
-9.63998e-07
3.68906e-07
-1.149e-06
4.05999e-07
-1.31567e-06
3.86159e-07
-1.40801e-06
2.42599e-07
-1.33376e-06
-1.22366e-07
-1.07024e-06
-5.70421e-07
-6.62775e-07
-9.33844e-07
-1.7815e-07
-1.13727e-06
2.80593e-07
-1.04852e-06
5.99668e-07
-6.7587e-07
7.40872e-07
-2.51923e-07
7.39102e-07
6.53618e-08
6.51104e-07
2.41589e-07
5.22898e-07
3.15571e-07
3.84158e-07
3.27056e-07
2.54294e-07
2.98834e-07
1.45822e-07
2.44262e-07
6.58233e-08
1.74247e-07
1.71247e-08
9.9991e-08
3.17317e-08
-6.57561e-09
1.08504e-08
-2.7998e-08
4.02826e-08
-6.69446e-08
7.92288e-08
-1.24584e-07
1.23336e-07
-2.00106e-07
1.66204e-07
-2.91356e-07
2.02662e-07
-3.96617e-07
2.32842e-07
-5.16492e-07
2.63618e-07
-6.54519e-07
3.05195e-07
-8.15908e-07
3.648e-07
-1.00497e-06
4.42198e-07
-1.22202e-06
5.28703e-07
-1.45988e-06
6.06766e-07
-1.69894e-06
6.45067e-07
-1.89973e-06
5.86946e-07
-1.99184e-06
3.34711e-07
-1.86963e-06
-2.44581e-07
-1.52536e-06
-9.14692e-07
-1.02482e-06
-1.43438e-06
-4.53577e-07
-1.70851e-06
1.06968e-07
-1.60907e-06
5.48203e-07
-1.1171e-06
7.85605e-07
-4.89325e-07
8.35811e-07
1.51562e-08
7.60797e-07
3.16603e-07
6.24046e-07
4.52321e-07
4.65524e-07
4.85578e-07
3.12026e-07
4.52332e-07
1.80955e-07
3.75333e-07
8.25073e-08
2.72695e-07
2.16403e-08
1.60858e-07
5.33721e-08
-1.12301e-08
2.20805e-08
-4.65956e-08
7.56481e-08
-1.09004e-07
1.41637e-07
-1.98915e-07
2.13247e-07
-3.14259e-07
2.81548e-07
-4.51794e-07
3.40197e-07
-6.09361e-07
3.90409e-07
-7.87539e-07
4.41796e-07
-9.89497e-07
5.07154e-07
-1.21911e-06
5.94413e-07
-1.47817e-06
7.01258e-07
-1.76318e-06
8.13713e-07
-2.06152e-06
9.05107e-07
-2.3464e-06
9.29948e-07
-2.5699e-06
8.10447e-07
-2.65197e-06
4.16781e-07
-2.48352e-06
-4.13031e-07
-2.07624e-06
-1.32197e-06
-1.51157e-06
-1.99906e-06
-8.84529e-07
-2.33555e-06
-2.64067e-07
-2.22953e-06
2.82073e-07
-1.66324e-06
6.45659e-07
-8.52911e-07
7.82817e-07
-1.22002e-07
7.50989e-07
3.48431e-07
6.31667e-07
5.71643e-07
4.76659e-07
6.40586e-07
3.2058e-07
6.08411e-07
1.85521e-07
5.10393e-07
8.40226e-08
3.74193e-07
2.17763e-08
2.23104e-07
7.51485e-08
-1.7622e-08
3.97025e-08
-7.19494e-08
1.29975e-07
-1.65937e-07
2.35625e-07
-2.98743e-07
3.46054e-07
-4.66242e-07
4.49046e-07
-6.6332e-07
5.37275e-07
-8.86643e-07
6.13732e-07
-1.13589e-06
6.9104e-07
-1.4127e-06
7.83967e-07
-1.71831e-06
9.00027e-07
-2.05086e-06
1.03381e-06
-2.40249e-06
1.16534e-06
-2.7557e-06
1.25831e-06
-3.07861e-06
1.25286e-06
-3.3188e-06
1.05064e-06
-3.39248e-06
4.90464e-07
-3.19455e-06
-6.10956e-07
-2.7526e-06
-1.76393e-06
-2.15496e-06
-2.5967e-06
-1.49557e-06
-2.99494e-06
-8.44653e-07
-2.88045e-06
-2.35232e-07
-2.27266e-06
2.55522e-07
-1.34366e-06
5.28908e-07
-3.95388e-07
5.78805e-07
2.98535e-07
5.10739e-07
6.39708e-07
3.90447e-07
7.60878e-07
2.61148e-07
7.37709e-07
1.48527e-07
6.23014e-07
6.55199e-08
4.57199e-07
1.63663e-08
2.72258e-07
9.15147e-08
-2.57281e-08
6.54305e-08
-1.03855e-07
2.08102e-07
-2.37096e-07
3.68866e-07
-4.22689e-07
5.31646e-07
-6.53627e-07
6.79985e-07
-9.22009e-07
8.05657e-07
-1.22229e-06
9.14011e-07
-1.55211e-06
1.02086e-06
-1.91059e-06
1.14245e-06
-2.29571e-06
1.28515e-06
-2.70191e-06
1.44e-06
-3.11772e-06
1.58115e-06
-3.52252e-06
1.66311e-06
-3.88237e-06
1.61271e-06
-4.14432e-06
1.31259e-06
-4.22577e-06
5.71919e-07
-4.02688e-06
-8.09845e-07
-3.58251e-06
-2.2083e-06
-2.9812e-06
-3.19801e-06
-2.31058e-06
-3.66555e-06
-1.6345e-06
-3.55654e-06
-9.88703e-07
-2.91846e-06
-4.10818e-07
-1.92155e-06
2.22089e-08
-8.28415e-07
2.25693e-07
9.50503e-08
2.53167e-07
6.12235e-07
2.0575e-07
8.08295e-07
1.36776e-07
8.06684e-07
7.44243e-08
6.85365e-07
3.0491e-08
5.01133e-07
6.78938e-09
2.95959e-07
9.83041e-08
-3.48218e-08
1.00252e-07
-1.39575e-07
3.12855e-07
-3.16668e-07
5.45959e-07
-5.61187e-07
7.76165e-07
-8.62778e-07
9.81576e-07
-1.20998e-06
1.15286e-06
-1.59401e-06
1.29805e-06
-2.00956e-06
1.43641e-06
-2.45277e-06
1.58566e-06
-2.91864e-06
1.75101e-06
-3.39887e-06
1.92023e-06
-3.87991e-06
2.06219e-06
-4.34018e-06
2.12338e-06
-4.74616e-06
2.01869e-06
-5.04668e-06
1.61311e-06
-5.16208e-06
6.87312e-07
-4.99379e-06
-9.78135e-07
-4.57741e-06
-2.62468e-06
-3.99933e-06
-3.77609e-06
-3.33758e-06
-4.3273e-06
-2.64535e-06
-4.24877e-06
-1.95526e-06
-3.60855e-06
-1.3007e-06
-2.57611e-06
-7.38632e-07
-1.39049e-06
-3.31234e-07
-3.12348e-07
-1.31231e-07
4.12231e-07
-5.22802e-08
7.29345e-07
-2.56622e-08
7.80066e-07
-1.60193e-08
6.75723e-07
-9.45541e-09
4.94569e-07
-3.34717e-09
2.89851e-07
9.49569e-08
-4.33421e-08
1.43594e-07
-1.73442e-07
4.42955e-07
-3.93055e-07
7.65573e-07
-6.95879e-07
1.07899e-06
-1.06862e-06
1.35432e-06
-1.496e-06
1.58023e-06
-1.96531e-06
1.76736e-06
-2.46772e-06
1.93882e-06
-2.99654e-06
2.11448e-06
-3.54458e-06
2.29906e-06
-4.10214e-06
2.47779e-06
-4.65508e-06
2.61513e-06
-5.18222e-06
2.65052e-06
-5.65131e-06
2.48778e-06
-6.01271e-06
1.97451e-06
-6.18868e-06
8.63279e-07
-6.0781e-06
-1.08871e-06
-5.71686e-06
-2.98592e-06
-5.18835e-06
-4.30459e-06
-4.55616e-06
-4.95949e-06
-3.85754e-06
-4.94739e-06
-3.11635e-06
-4.34974e-06
-2.3627e-06
-3.32976e-06
-1.6434e-06
-2.10978e-06
-1.01861e-06
-9.37135e-07
-5.85166e-07
-2.12142e-08
-3.33745e-07
4.77924e-07
-1.86278e-07
6.32599e-07
-9.65391e-08
5.85984e-07
-4.12944e-08
4.39324e-07
-1.04336e-08
2.58991e-07
8.45234e-08
-4.92522e-08
1.92847e-07
-1.98067e-07
5.9177e-07
-4.51183e-07
1.01869e-06
-8.03047e-07
1.43085e-06
-1.2391e-06
1.79037e-06
-1.74079e-06
2.08193e-06
-2.29123e-06
2.31779e-06
-2.87777e-06
2.52536e-06
-3.4911e-06
2.72781e-06
-4.12269e-06
2.93065e-06
-4.76235e-06
3.11746e-06
-5.39607e-06
3.24885e-06
-6.00312e-06
3.25757e-06
-6.55164e-06
3.03629e-06
-6.99197e-06
2.41484e-06
-7.24769e-06
1.119e-06
-7.21562e-06
-1.12078e-06
-6.93522e-06
-3.26632e-06
-6.48388e-06
-4.75593e-06
-5.90404e-06
-5.53933e-06
-5.2113e-06
-5.64013e-06
-4.41615e-06
-5.14488e-06
-3.5443e-06
-4.20161e-06
-2.6475e-06
-3.00659e-06
-1.80371e-06
-1.78092e-06
-1.09075e-06
-7.34173e-07
-6.08832e-07
-3.99493e-09
-3.17804e-07
3.41572e-07
-1.49489e-07
4.17668e-07
-5.65824e-08
3.46418e-07
-1.21954e-08
2.14604e-07
7.2328e-08
-5.06244e-08
2.43471e-07
-2.06225e-07
7.47371e-07
-4.75838e-07
1.2883e-06
-8.58055e-07
1.81307e-06
-1.34012e-06
2.27243e-06
-1.90181e-06
2.64362e-06
-2.52212e-06
2.9381e-06
-3.18418e-06
3.18742e-06
-3.87594e-06
3.41957e-06
-4.58775e-06
3.64246e-06
-5.30922e-06
3.83893e-06
-6.02629e-06
3.96592e-06
-6.71787e-06
3.94916e-06
-7.3513e-06
3.66972e-06
-7.87649e-06
2.94002e-06
-8.22077e-06
1.46328e-06
-8.28332e-06
-1.05824e-06
-8.11003e-06
-3.43961e-06
-7.76739e-06
-5.09857e-06
-7.27021e-06
-6.03651e-06
-6.60769e-06
-6.30266e-06
-5.774e-06
-5.97856e-06
-4.79094e-06
-5.18468e-06
-3.71854e-06
-4.07899e-06
-2.65272e-06
-2.84674e-06
-1.7058e-06
-1.6811e-06
-9.611e-07
-7.4869e-07
-4.79291e-07
-1.40237e-07
-2.06543e-07
1.4492e-07
-6.97515e-08
2.09626e-07
-1.26472e-08
1.57499e-07
5.96809e-08
-4.59836e-08
2.89455e-07
-1.91892e-07
8.93279e-07
-4.53299e-07
1.54971e-06
-8.37041e-07
2.19681e-06
-1.33665e-06
2.77204e-06
-1.9331e-06
3.24007e-06
-2.6018e-06
3.6068e-06
-3.32071e-06
3.90633e-06
-4.07396e-06
4.17283e-06
-4.85024e-06
4.41873e-06
-5.6387e-06
4.6274e-06
-6.42496e-06
4.75218e-06
-7.18722e-06
4.71142e-06
-7.89236e-06
4.37486e-06
-8.49207e-06
3.53974e-06
-8.92257e-06
1.89378e-06
-9.09121e-06
-8.89602e-07
-9.05237e-06
-3.47844e-06
-8.85781e-06
-5.29314e-06
-8.49063e-06
-6.40369e-06
-7.91037e-06
-6.88292e-06
-7.09206e-06
-6.79687e-06
-6.05051e-06
-6.22622e-06
-4.84971e-06
-5.27979e-06
-3.59802e-06
-4.09843e-06
-2.42837e-06
-2.85075e-06
-1.46195e-06
-1.71511e-06
-7.63796e-07
-8.3839e-07
-3.36548e-07
-2.82328e-07
-1.14018e-07
-1.29036e-08
-2.07901e-08
6.42713e-08
3.88908e-08
-3.43692e-08
3.23824e-07
-1.50417e-07
1.00933e-06
-3.71392e-07
1.77068e-06
-7.16261e-07
2.54168e-06
-1.19059e-06
3.24638e-06
-1.78145e-06
3.83093e-06
-2.4622e-06
4.28755e-06
-3.20408e-06
4.6482e-06
-3.98491e-06
4.95365e-06
-4.78995e-06
5.22378e-06
-5.60753e-06
5.44497e-06
-6.42343e-06
5.56808e-06
-7.21665e-06
5.50463e-06
-7.95645e-06
5.11466e-06
-8.60119e-06
4.18448e-06
-9.102e-06
2.3946e-06
-9.38e-06
-6.11607e-07
-9.501e-06
-3.35744e-06
-9.50353e-06
-5.29061e-06
-9.33746e-06
-6.56976e-06
-8.92925e-06
-7.29113e-06
-8.22844e-06
-7.49768e-06
-7.23335e-06
-7.22132e-06
-5.99948e-06
-6.51365e-06
-4.63421e-06
-5.4637e-06
-3.28011e-06
-4.20486e-06
-2.08577e-06
-2.90946e-06
-1.16276e-06
-1.7614e-06
-5.45369e-07
-8.99714e-07
-1.95623e-07
-3.6265e-07
-3.83532e-08
-9.29986e-08
5.37573e-10
-1.56003e-08
3.39424e-07
-7.93764e-08
1.0731e-06
-2.20856e-07
1.91216e-06
-4.73628e-07
2.79445e-06
-8.61246e-07
3.63399e-06
-1.38467e-06
4.35435e-06
-2.01999e-06
4.92288e-06
-2.73065e-06
5.35886e-06
-3.4838e-06
5.7068e-06
-4.2576e-06
5.99758e-06
-5.03834e-06
6.22571e-06
-5.81364e-06
6.34338e-06
-6.5671e-06
6.2581e-06
-7.2762e-06
5.82376e-06
-7.91372e-06
4.82199e-06
-8.45297e-06
2.93385e-06
-8.83175e-06
-2.32827e-07
-9.12825e-06
-3.06094e-06
-9.38276e-06
-5.0361e-06
-9.51264e-06
-6.43988e-06
-9.40532e-06
-7.39846e-06
-8.97235e-06
-7.93064e-06
-8.17907e-06
-8.0146e-06
-7.05572e-06
-7.637e-06
-5.69414e-06
-6.82528e-06
-4.23481e-06
-5.66419e-06
-2.84429e-06
-4.29997e-06
-1.67872e-06
-2.92697e-06
-8.34597e-07
-1.74383e-06
-3.17872e-07
-8.79375e-07
-6.62903e-08
-3.4458e-07
-6.57527e-08
8.53697e-09
3.30887e-07
1.50025e-08
1.06664e-06
-1.10298e-08
1.9382e-06
-1.11516e-07
2.89494e-06
-3.29636e-07
3.85211e-06
-6.91726e-07
4.71644e-06
-1.19083e-06
5.42198e-06
-1.786e-06
5.95403e-06
-2.42989e-06
6.35069e-06
-3.08702e-06
6.65471e-06
-3.73688e-06
6.87557e-06
-4.36844e-06
6.97495e-06
-4.97404e-06
6.86369e-06
-5.54693e-06
6.39665e-06
-6.08485e-06
5.35992e-06
-6.59932e-06
3.44832e-06
-7.08063e-06
2.48482e-07
-7.56578e-06
-2.57579e-06
-8.1223e-06
-4.47958e-06
-8.65679e-06
-5.90539e-06
-9.01598e-06
-7.03926e-06
-9.05309e-06
-7.89354e-06
-8.67292e-06
-8.39477e-06
-7.85526e-06
-8.45466e-06
-6.65853e-06
-8.02201e-06
-5.21104e-06
-7.11168e-06
-3.6923e-06
-5.81871e-06
-2.30157e-06
-4.3177e-06
-1.20603e-06
-2.83937e-06
-4.82741e-07
-1.60267e-06
-1.06839e-07
-7.20482e-07
-1.72592e-07
2.95314e-08
3.01356e-07
1.01802e-07
9.94367e-07
1.93325e-07
1.84667e-06
2.66496e-07
2.82177e-06
2.72808e-07
3.8458e-06
1.68214e-07
4.82104e-06
-6.59249e-08
5.65612e-06
-4.0883e-07
6.29694e-06
-8.13085e-07
6.75494e-06
-1.22752e-06
7.06914e-06
-1.6159e-06
7.26394e-06
-1.9614e-06
7.32046e-06
-2.26192e-06
7.16421e-06
-2.52515e-06
6.65988e-06
-2.76431e-06
5.59907e-06
-3.0217e-06
3.70571e-06
-3.42028e-06
6.47061e-07
-3.95945e-06
-2.03662e-06
-4.68689e-06
-3.75214e-06
-5.54853e-06
-5.04376e-06
-6.39852e-06
-6.18927e-06
-7.04562e-06
-7.24644e-06
-7.31716e-06
-8.12323e-06
-7.11172e-06
-8.6601e-06
-6.41986e-06
-8.71387e-06
-5.32393e-06
-8.20761e-06
-3.98373e-06
-7.15892e-06
-2.6121e-06
-5.68933e-06
-1.42963e-06
-4.02184e-06
-5.92022e-07
-2.44027e-06
-1.34884e-07
-1.17762e-06
-3.07476e-07
3.85238e-08
2.62832e-07
1.4431e-07
8.8858e-07
3.03233e-07
1.68775e-06
4.85855e-07
2.63914e-06
6.50455e-07
3.6812e-06
7.53262e-07
4.71823e-06
7.63785e-07
5.6456e-06
6.77055e-07
6.38367e-06
5.24443e-07
6.90756e-06
3.56808e-07
7.23678e-06
2.20671e-07
7.40008e-06
1.4245e-07
7.39868e-06
1.25436e-07
7.18122e-06
1.54076e-07
6.63124e-06
1.95791e-07
5.55736e-06
2.28613e-07
3.67289e-06
4.02606e-08
8.35414e-07
-4.43421e-07
-1.55293e-06
-1.09978e-06
-3.09578e-06
-1.94613e-06
-4.19741e-06
-2.9398e-06
-5.1956e-06
-3.94119e-06
-6.24505e-06
-4.7325e-06
-7.33191e-06
-5.13806e-06
-8.25454e-06
-5.06621e-06
-8.78572e-06
-4.52514e-06
-8.74868e-06
-3.61467e-06
-8.06939e-06
-2.5121e-06
-6.7919e-06
-1.4434e-06
-5.09054e-06
-6.18849e-07
-3.26482e-06
-1.44348e-07
-1.65212e-06
-4.51824e-07
3.98159e-08
2.23016e-07
1.55904e-07
7.72493e-07
3.43038e-07
1.50062e-06
5.80803e-07
2.40138e-06
8.34677e-07
3.42733e-06
1.06387e-06
4.48904e-06
1.23429e-06
5.47518e-06
1.33183e-06
6.28613e-06
1.37265e-06
6.86674e-06
1.39736e-06
7.21206e-06
1.45226e-06
7.34518e-06
1.56931e-06
7.28163e-06
1.75382e-06
6.99671e-06
1.98103e-06
6.40402e-06
2.1968e-06
5.34159e-06
2.30224e-06
3.56745e-06
2.13439e-06
1.00327e-06
1.69078e-06
-1.10933e-06
1.10891e-06
-2.51391e-06
3.98214e-07
-3.48671e-06
-4.89504e-07
-4.30788e-06
-1.54317e-06
-5.19138e-06
-2.57472e-06
-6.30037e-06
-3.37253e-06
-7.45673e-06
-3.77109e-06
-8.38716e-06
-3.70407e-06
-8.8157e-06
-3.20105e-06
-8.57241e-06
-2.38347e-06
-7.60948e-06
-1.45359e-06
-6.02041e-06
-6.51885e-07
-4.06653e-06
-1.56634e-07
-2.14737e-06
-6.08458e-07
3.60173e-08
1.86999e-07
1.45771e-07
6.62739e-07
3.31461e-07
1.31493e-06
5.82091e-07
2.15075e-06
8.72336e-07
3.13708e-06
1.16811e-06
4.19327e-06
1.43767e-06
5.20561e-06
1.66387e-06
6.05992e-06
1.85332e-06
6.67729e-06
2.03451e-06
7.03087e-06
2.24454e-06
7.13516e-06
2.5106e-06
7.01557e-06
2.83488e-06
6.67243e-06
3.18621e-06
6.0527e-06
3.49441e-06
5.03339e-06
3.63251e-06
3.42935e-06
3.44639e-06
1.18939e-06
3.0009e-06
-6.63836e-07
2.41797e-06
-1.93098e-06
1.76704e-06
-2.83579e-06
1.02966e-06
-3.57049e-06
1.37018e-07
-4.29874e-06
-8.99944e-07
-5.26341e-06
-1.88899e-06
-6.46768e-06
-2.60379e-06
-7.67236e-06
-2.91129e-06
-8.5082e-06
-2.76981e-06
-8.71389e-06
-2.23436e-06
-8.14493e-06
-1.46151e-06
-6.79327e-06
-6.93397e-07
-4.83464e-06
-1.72692e-07
-2.66808e-06
-7.8115e-07
2.91789e-08
1.5782e-07
1.21654e-07
5.70264e-07
2.84884e-07
1.1517e-06
5.16711e-07
1.91892e-06
8.02533e-07
2.85126e-06
1.11846e-06
3.87734e-06
1.44009e-06
4.88399e-06
1.75242e-06
5.74759e-06
2.05665e-06
6.37306e-06
2.36914e-06
6.71838e-06
2.71224e-06
6.79205e-06
3.10071e-06
6.6271e-06
3.52857e-06
6.24457e-06
3.95932e-06
5.62195e-06
4.31715e-06
4.67556e-06
4.47243e-06
3.27407e-06
4.29939e-06
1.36243e-06
3.86969e-06
-2.3414e-07
3.29109e-06
-1.35237e-06
2.63199e-06
-2.17669e-06
1.93205e-06
-2.87056e-06
1.19907e-06
-3.56576e-06
3.31177e-07
-4.39551e-06
-6.49403e-07
-5.4871e-06
-1.54519e-06
-6.77658e-06
-2.13578e-06
-7.9176e-06
-2.31086e-06
-8.53881e-06
-2.05379e-06
-8.402e-06
-1.45934e-06
-7.38771e-06
-7.4356e-07
-5.55043e-06
-1.94588e-07
-3.21705e-06
-9.75738e-07
2.03821e-08
1.37438e-07
8.79611e-08
5.02685e-07
2.13505e-07
1.02615e-06
4.03104e-07
1.72932e-06
6.54387e-07
2.59998e-06
9.56838e-07
3.57489e-06
1.29703e-06
4.54379e-06
1.66538e-06
5.37925e-06
2.05963e-06
5.97881e-06
2.48343e-06
6.29458e-06
2.94121e-06
6.33427e-06
3.43113e-06
6.13718e-06
3.93671e-06
5.73899e-06
4.41791e-06
5.14075e-06
4.8014e-06
4.29207e-06
4.97155e-06
3.10392e-06
4.83465e-06
1.49933e-06
4.45152e-06
1.48991e-07
3.90883e-06
-8.09682e-07
3.27478e-06
-1.54264e-06
2.59748e-06
-2.19326e-06
1.90498e-06
-2.87327e-06
1.18489e-06
-3.67542e-06
3.59656e-07
-4.66187e-06
-5.54013e-07
-5.86291e-06
-1.3422e-06
-7.12941e-06
-1.79332e-06
-8.08769e-06
-1.81429e-06
-8.38103e-06
-1.42611e-06
-7.7759e-06
-7.94025e-07
-6.18251e-06
-2.22974e-07
-3.7881e-06
-1.19871e-06
9.41525e-09
1.28022e-07
4.46114e-08
4.67489e-07
1.19434e-07
9.51328e-07
2.49246e-07
1.59951e-06
4.46651e-07
2.40257e-06
7.16579e-07
3.30496e-06
1.05701e-06
4.20336e-06
1.46396e-06
4.97229e-06
1.93123e-06
5.51155e-06
2.44834e-06
5.77746e-06
3.00086e-06
5.78175e-06
3.57048e-06
5.56756e-06
4.13128e-06
5.17819e-06
4.6423e-06
4.62973e-06
5.03805e-06
3.89632e-06
5.22358e-06
2.91838e-06
5.13394e-06
1.58897e-06
4.82017e-06
4.62758e-07
4.34839e-06
-3.37898e-07
3.78435e-06
-9.78604e-07
3.16736e-06
-1.57627e-06
2.5251e-06
-2.231e-06
1.86489e-06
-3.01521e-06
1.1655e-06
-3.96248e-06
3.6298e-07
-5.06038e-06
-4.98174e-07
-6.26826e-06
-1.18398e-06
-7.40188e-06
-1.48465e-06
-8.08037e-06
-1.33594e-06
-7.92461e-06
-8.31271e-07
-6.68718e-06
-2.58166e-07
-4.36121e-06
-1.45688e-06
-5.3545e-09
1.33377e-07
-1.37401e-08
4.75875e-07
-5.22551e-09
9.42814e-07
5.21732e-08
1.54211e-06
1.90287e-07
2.26446e-06
4.26246e-07
3.06901e-06
7.63869e-07
3.86574e-06
1.20292e-06
4.53324e-06
1.73145e-06
4.98302e-06
2.32364e-06
5.18527e-06
2.9481e-06
5.15729e-06
3.57381e-06
4.94185e-06
4.16918e-06
4.58282e-06
4.69571e-06
4.10319e-06
5.09918e-06
3.49285e-06
5.30706e-06
2.71051e-06
5.2724e-06
1.62363e-06
5.04558e-06
6.89578e-07
4.68071e-06
2.69672e-08
4.22674e-06
-5.24632e-07
3.71047e-06
-1.05999e-06
3.15059e-06
-1.67112e-06
2.55187e-06
-2.4165e-06
1.90484e-06
-3.31545e-06
1.189e-06
-4.34454e-06
3.70869e-07
-5.45013e-06
-4.60004e-07
-6.57101e-06
-1.0386e-06
-7.50177e-06
-1.16451e-06
-7.79869e-06
-8.3992e-07
-7.01177e-06
-3.00107e-07
-4.90102e-06
-1.75698e-06
-2.73037e-08
1.60681e-07
-9.37979e-08
5.42369e-07
-1.64031e-07
1.01305e-06
-1.83724e-07
1.56181e-06
-1.01485e-07
2.18222e-06
1.12204e-07
2.85532e-06
4.57534e-07
3.52041e-06
9.29562e-07
4.06121e-06
1.51015e-06
4.40244e-06
2.1584e-06
4.53702e-06
2.8311e-06
4.48459e-06
3.49078e-06
4.28217e-06
4.10524e-06
3.96837e-06
4.64192e-06
3.56652e-06
5.05995e-06
3.07481e-06
5.3085e-06
2.46196e-06
5.3516e-06
1.58053e-06
5.238e-06
8.03183e-07
5.00131e-06
2.63654e-07
4.67349e-06
-1.96809e-07
4.2802e-06
-6.66707e-07
3.82542e-06
-1.21634e-06
3.30254e-06
-1.89361e-06
2.69948e-06
-2.71239e-06
2.00595e-06
-3.65101e-06
1.22028e-06
-4.66446e-06
3.50466e-07
-5.7012e-06
-4.55593e-07
-6.69572e-06
-8.89797e-07
-7.36449e-06
-8.02931e-07
-7.09863e-06
-3.45853e-07
-5.3581e-06
-2.10284e-06
-6.37357e-08
2.24417e-07
-2.07299e-07
6.85932e-07
-3.60054e-07
1.1658e-06
-4.44352e-07
1.64611e-06
-4.00078e-07
2.13795e-06
-1.92863e-07
2.6481e-06
1.74982e-07
3.15256e-06
6.87144e-07
3.54905e-06
1.31203e-06
3.77756e-06
1.99881e-06
3.85023e-06
2.70052e-06
3.78289e-06
3.38005e-06
3.60264e-06
4.0092e-06
3.33921e-06
4.56357e-06
3.01215e-06
5.01538e-06
2.62301e-06
5.33074e-06
2.1466e-06
5.47286e-06
1.43841e-06
5.47422e-06
8.01825e-07
5.3681e-06
3.69779e-07
5.17686e-06
-5.57668e-09
4.91298e-06
-4.02822e-07
4.56857e-06
-8.71934e-07
4.12708e-06
-1.45212e-06
3.57029e-06
-2.1556e-06
2.88805e-06
-2.96877e-06
2.08593e-06
-3.86234e-06
1.18937e-06
-4.80464e-06
2.54746e-07
-5.7611e-06
-4.87387e-07
-6.62236e-06
-6.97703e-07
-6.88832e-06
-3.85442e-07
-5.67036e-06
-2.48828e-06
-1.24228e-07
3.48644e-07
-3.61933e-07
9.23638e-07
-5.85236e-07
1.3891e-06
-7.01112e-07
1.76198e-06
-6.57705e-07
2.09454e-06
-4.32524e-07
2.42292e-06
-2.68808e-08
2.74692e-06
5.33071e-07
2.9891e-06
1.19629e-06
3.11434e-06
1.91058e-06
3.13594e-06
2.63316e-06
3.0603e-06
3.33216e-06
2.90365e-06
3.9853e-06
2.68607e-06
4.57532e-06
2.42213e-06
5.08363e-06
2.11469e-06
5.48524e-06
1.745e-06
5.73276e-06
1.19088e-06
5.84306e-06
6.91532e-07
5.85642e-06
3.56419e-07
5.78374e-06
6.71002e-08
5.6267e-06
-2.45781e-07
5.37534e-06
-6.20581e-07
5.00643e-06
-1.08321e-06
4.49592e-06
-1.64509e-06
3.82905e-06
-2.3019e-06
3.00867e-06
-3.04196e-06
2.06031e-06
-3.85627e-06
1.04052e-06
-4.74131e-06
7.61096e-08
-5.65795e-06
-4.91112e-07
-6.32109e-06
-3.98845e-07
-5.76263e-06
-2.88712e-06
-2.15943e-07
5.64587e-07
-5.4531e-07
1.25301e-06
-7.94295e-07
1.63809e-06
-8.82188e-07
1.84987e-06
-7.86767e-07
1.99912e-06
-5.05647e-07
2.1418e-06
-3.99819e-08
2.28125e-06
5.746e-07
2.37451e-06
1.27358e-06
2.41535e-06
2.01392e-06
2.3956e-06
2.76079e-06
2.31344e-06
3.48786e-06
2.17657e-06
4.17676e-06
1.99717e-06
4.81318e-06
1.78571e-06
5.38184e-06
1.54603e-06
5.85972e-06
1.26711e-06
6.18811e-06
8.62495e-07
6.3754e-06
5.04239e-07
6.46539e-06
2.66429e-07
6.47144e-06
6.10514e-08
6.38962e-06
-1.63962e-07
6.20472e-06
-4.35681e-07
5.8927e-06
-7.71196e-07
5.42747e-06
-1.17985e-06
4.78899e-06
-1.66342e-06
3.97115e-06
-2.22412e-06
2.98863e-06
-2.87375e-06
1.8851e-06
-3.63778e-06
7.59911e-07
-4.53276e-06
-1.35135e-07
-5.42605e-06
-3.557e-07
-5.54206e-06
-3.24282e-06
-3.30523e-07
8.9511e-07
-7.03437e-07
1.62592e-06
-8.74965e-07
1.80962e-06
-8.34142e-07
1.80905e-06
-6.09693e-07
1.77467e-06
-2.13321e-07
1.74543e-06
3.41404e-07
1.72653e-06
1.00752e-06
1.70839e-06
1.73864e-06
1.68424e-06
2.5027e-06
1.63154e-06
3.2703e-06
1.54584e-06
4.01778e-06
1.42909e-06
4.72712e-06
1.28783e-06
5.38344e-06
1.1294e-06
5.97172e-06
9.57751e-07
6.47024e-06
7.68588e-07
6.81974e-06
5.13001e-07
7.02979e-06
2.94185e-07
7.14615e-06
1.50072e-07
7.18348e-06
2.37185e-08
7.13633e-06
-1.16807e-07
6.98856e-06
-2.87918e-07
6.71837e-06
-5.00999e-07
6.30058e-06
-7.62067e-07
5.71187e-06
-1.07471e-06
4.93563e-06
-1.44788e-06
3.96766e-06
-1.90578e-06
2.8263e-06
-2.49641e-06
1.57784e-06
-3.2843e-06
4.07682e-07
-4.25589e-06
-2.15648e-07
-4.91873e-06
-3.45847e-06
-4.43625e-07
1.33873e-06
-6.858e-07
1.8681e-06
-5.74186e-07
1.698e-06
-2.51152e-07
1.48602e-06
2.05253e-07
1.31826e-06
7.65214e-07
1.18547e-06
1.40518e-06
1.08656e-06
2.10449e-06
1.00908e-06
2.8419e-06
9.46831e-07
3.59165e-06
8.81793e-07
4.32957e-06
8.07926e-07
5.0346e-06
7.24057e-07
5.68974e-06
6.32693e-07
6.28146e-06
5.37672e-07
6.79798e-06
4.41234e-07
7.22431e-06
3.42262e-07
7.51658e-06
2.20727e-07
7.68994e-06
1.2083e-07
7.78545e-06
5.45553e-08
7.81455e-06
-5.38415e-09
7.77181e-06
-7.40616e-08
7.64373e-06
-1.59836e-07
7.41151e-06
-2.68778e-07
7.05302e-06
-4.03576e-07
6.54522e-06
-5.66909e-07
5.86484e-06
-7.67506e-07
4.98848e-06
-1.02942e-06
3.89627e-06
-1.4042e-06
2.5926e-06
-1.98063e-06
1.19067e-06
-2.85396e-06
1.16939e-07
-3.845e-06
-3.34153e-06
-3.72773e-07
1.71151e-06
2.27951e-08
1.47253e-06
7.26796e-07
9.94002e-07
1.42647e-06
7.8634e-07
2.10908e-06
6.35656e-07
2.78233e-06
5.12216e-07
3.44689e-06
4.2201e-07
4.09957e-06
3.56391e-07
4.73805e-06
3.08353e-07
5.35153e-06
2.68312e-07
5.92754e-06
2.31915e-07
6.45434e-06
1.97257e-07
6.9229e-06
1.64138e-07
7.32749e-06
1.33078e-07
7.66462e-06
1.04109e-07
7.93015e-06
7.67234e-08
8.10415e-06
4.6731e-08
8.20202e-06
2.2964e-08
8.25023e-06
6.3406e-09
8.2544e-06
-9.5561e-09
8.2094e-06
-2.90539e-08
8.10466e-06
-5.51024e-08
7.92515e-06
-8.92612e-08
7.65373e-06
-1.32158e-07
7.27168e-06
-1.84866e-07
6.75605e-06
-2.51873e-07
6.07334e-06
-3.46711e-07
5.171e-06
-5.01869e-07
3.97355e-06
-7.83176e-07
2.42204e-06
-1.30245e-06
7.47718e-07
-2.17068e-06
-2.59382e-06
1.71151e-06
3.18403e-06
4.17804e-06
4.96438e-06
5.60003e-06
6.11225e-06
6.53426e-06
6.89065e-06
7.199e-06
7.46731e-06
7.69923e-06
7.89649e-06
8.06062e-06
8.1937e-06
8.29781e-06
8.37454e-06
8.42127e-06
8.44423e-06
8.45057e-06
8.44102e-06
8.41196e-06
8.35686e-06
8.2676e-06
8.13544e-06
7.95057e-06
7.6987e-06
7.35199e-06
6.85012e-06
6.06694e-06
4.7645e-06
2.59382e-06
)
;

boundaryField
{
    movingWall
    {
        type            calculated;
        value           uniform 0;
    }
    fixedWalls
    {
        type            calculated;
        value           uniform 0;
    }
    floor
    {
        type            calculated;
        value           uniform 0;
    }
    frontAndBack
    {
        type            empty;
        value           nonuniform List<scalar> 0();
    }
}


// ************************************************************************* //
