/*--------------------------------*- C++ -*----------------------------------*\
| =========                 |                                                 |
| \\      /  F ield         | OpenFOAM: The Open Source CFD Toolbox           |
|  \\    /   O peration     | Version:  2212                                  |
|   \\  /    A nd           | Website:  www.openfoam.com                      |
|    \\/     M anipulation  |                                                 |
\*---------------------------------------------------------------------------*/
FoamFile
{
    version     2.0;
    format      ascii;
    arch        "LSB;label=64;scalar=64";
    class       volScalarField;
    location    "1480";
    object      Gch4;
}
// * * * * * * * * * * * * * * * * * * * * * * * * * * * * * * * * * * * * * //

dimensions      [1 -3 0 0 0 0 0];

internalField   nonuniform List<scalar> 
1024
(
1.92993
1.92982
1.92957
1.9291
1.92836
1.92728
1.92582
1.92399
1.92184
1.91953
1.91722
1.91514
1.91348
1.91235
1.91186
1.9121
1.91321
1.9152
1.91789
1.92114
1.92478
1.92856
1.93222
1.93554
1.93835
1.9406
1.94229
1.9435
1.94431
1.94481
1.94508
1.94519
1.9299
1.92979
1.92953
1.92906
1.9283
1.92721
1.92573
1.92387
1.92171
1.91937
1.91705
1.91497
1.91331
1.91219
1.91171
1.91195
1.91306
1.91505
1.91773
1.92098
1.92462
1.92841
1.93209
1.93542
1.93826
1.94053
1.94224
1.94346
1.94428
1.94478
1.94506
1.94517
1.92981
1.9297
1.92944
1.92895
1.92818
1.92705
1.92553
1.92363
1.92141
1.91902
1.91665
1.91454
1.91288
1.91178
1.91132
1.91158
1.9127
1.91469
1.91737
1.92063
1.92428
1.92809
1.9318
1.93517
1.93805
1.94037
1.94212
1.94336
1.9442
1.94472
1.945
1.94511
1.92967
1.92955
1.92928
1.92878
1.92798
1.9268
1.92522
1.92323
1.92091
1.9184
1.91592
1.91374
1.91207
1.91101
1.91061
1.91091
1.91206
1.91407
1.91678
1.92006
1.92373
1.92757
1.93133
1.93478
1.93773
1.94011
1.94191
1.9432
1.94407
1.9446
1.94489
1.94501
1.92943
1.92932
1.92904
1.92852
1.92768
1.92644
1.92477
1.92266
1.92017
1.91746
1.91477
1.91244
1.91075
1.90974
1.90944
1.90983
1.91105
1.91313
1.91591
1.91925
1.92297
1.92688
1.93071
1.93424
1.93728
1.93975
1.94163
1.94297
1.94387
1.94442
1.94473
1.94485
1.92907
1.92896
1.92868
1.92814
1.92726
1.92596
1.92416
1.92187
1.91913
1.91609
1.91307
1.91051
1.90875
1.90782
1.90766
1.9082
1.90955
1.91178
1.9147
1.91818
1.92202
1.92602
1.92995
1.93359
1.93674
1.9393
1.94126
1.94267
1.9436
1.94418
1.94449
1.94462
1.92855
1.92844
1.92815
1.92759
1.92668
1.92529
1.92335
1.92081
1.9177
1.91421
1.91072
1.90782
1.90593
1.90508
1.9051
1.90585
1.90741
1.90989
1.91309
1.91682
1.92086
1.92503
1.92911
1.93287
1.93614
1.9388
1.94084
1.94229
1.94326
1.94385
1.94417
1.9443
1.92776
1.92765
1.92736
1.9268
1.92584
1.92436
1.92223
1.91937
1.9158
1.91171
1.90762
1.90426
1.90217
1.90137
1.90159
1.90259
1.90443
1.90729
1.91095
1.91511
1.91951
1.92395
1.92823
1.93215
1.93553
1.93828
1.94036
1.94185
1.94283
1.94343
1.94374
1.94386
1.92655
1.92645
1.92617
1.92559
1.92459
1.923
1.92064
1.91739
1.91324
1.90844
1.90363
1.89973
1.89737
1.89658
1.89695
1.89815
1.90032
1.90372
1.90806
1.9129
1.91787
1.92274
1.92732
1.93143
1.93493
1.93772
1.93982
1.9413
1.94225
1.94282
1.94311
1.94322
1.92468
1.92458
1.9243
1.92371
1.92265
1.92091
1.91828
1.91458
1.90977
1.90418
1.89861
1.89413
1.89144
1.89053
1.8909
1.89219
1.89463
1.89865
1.90391
1.90974
1.91559
1.92112
1.92616
1.93055
1.93418
1.937
1.93906
1.94046
1.94133
1.94182
1.94206
1.94214
1.92177
1.92167
1.92138
1.92075
1.9196
1.91767
1.9147
1.91048
1.90497
1.89859
1.89229
1.88724
1.88416
1.88295
1.88302
1.88403
1.88648
1.89106
1.89734
1.90447
1.91157
1.91814
1.92394
1.9288
1.93265
1.93551
1.93749
1.93874
1.93945
1.93979
1.93992
1.93995
1.9174
1.91729
1.91696
1.91625
1.91494
1.91274
1.90936
1.90455
1.89833
1.89123
1.8843
1.87873
1.87512
1.87324
1.87244
1.8725
1.87429
1.87885
1.88583
1.89423
1.90292
1.91104
1.91815
1.92394
1.92835
1.93144
1.93339
1.93446
1.93493
1.93504
1.93498
1.93491
1.91124
1.9111
1.9107
1.90984
1.90828
1.9057
1.90178
1.8963
1.88938
1.88163
1.87417
1.86803
1.86358
1.86038
1.85779
1.85578
1.85554
1.85857
1.86484
1.87346
1.88325
1.89311
1.90219
1.90983
1.91568
1.91968
1.92206
1.92321
1.92354
1.92343
1.92318
1.923
1.90339
1.9032
1.90268
1.9016
1.89965
1.8965
1.89184
1.88553
1.87781
1.86943
1.86142
1.85448
1.84861
1.84323
1.83778
1.83234
1.8282
1.82725
1.82999
1.83592
1.84429
1.85415
1.86443
1.87415
1.88251
1.8889
1.89322
1.8957
1.89679
1.89702
1.89689
1.89672
1.89472
1.8945
1.89388
1.89258
1.89029
1.88663
1.88134
1.87434
1.86597
1.85689
1.84791
1.83945
1.83136
1.82311
1.81428
1.80486
1.79597
1.78947
1.78609
1.78583
1.78859
1.79405
1.80165
1.81058
1.81985
1.8285
1.83576
1.84115
1.84461
1.84648
1.84726
1.84746
1.88655
1.88632
1.88566
1.88429
1.88187
1.87802
1.87245
1.8651
1.85621
1.84635
1.83618
1.82612
1.81615
1.80596
1.79536
1.78428
1.77344
1.76378
1.75553
1.74884
1.74414
1.74182
1.74208
1.74484
1.74972
1.75599
1.76269
1.76888
1.77382
1.77719
1.77906
1.77979
1.8803
1.88008
1.87945
1.87816
1.87587
1.87222
1.8669
1.85977
1.85097
1.84097
1.83042
1.8199
1.80973
1.80003
1.79091
1.78248
1.77482
1.7672
1.75869
1.74936
1.73997
1.73141
1.72446
1.71962
1.7171
1.71679
1.71825
1.7208
1.72364
1.72608
1.7277
1.72844
1.87644
1.87623
1.87566
1.87451
1.87249
1.86925
1.8645
1.85803
1.84992
1.84051
1.83045
1.82046
1.81115
1.80301
1.79644
1.79166
1.78833
1.78431
1.77763
1.76808
1.75657
1.74442
1.73298
1.72322
1.71571
1.71062
1.70774
1.70664
1.70673
1.70737
1.70803
1.70841
1.87435
1.87416
1.87365
1.87264
1.87089
1.86811
1.864
1.85837
1.85119
1.84274
1.83358
1.82446
1.81615
1.80932
1.8045
1.80195
1.80106
1.79916
1.79399
1.78489
1.77244
1.75794
1.74311
1.72953
1.71831
1.70997
1.70445
1.70132
1.69994
1.69963
1.69977
1.69995
1.87335
1.87318
1.87272
1.87185
1.87035
1.86798
1.8645
1.85969
1.85351
1.84614
1.83805
1.82993
1.82254
1.81658
1.8126
1.8108
1.81041
1.80892
1.80435
1.79589
1.78365
1.7685
1.75194
1.73575
1.72153
1.71027
1.7023
1.69735
1.6948
1.69383
1.69369
1.69379
1.87283
1.87269
1.87231
1.87159
1.87033
1.86836
1.86544
1.8614
1.85616
1.84987
1.84288
1.83576
1.82916
1.82371
1.81984
1.81764
1.81634
1.81394
1.80901
1.80078
1.78909
1.77434
1.75756
1.7403
1.72426
1.71084
1.70078
1.69413
1.6904
1.68876
1.68834
1.68837
1.87205
1.87197
1.87174
1.87123
1.8703
1.86873
1.86636
1.86302
1.85865
1.85333
1.84732
1.84105
1.835
1.82963
1.82525
1.8218
1.81866
1.81462
1.80877
1.80045
1.7893
1.7754
1.75937
1.74232
1.72573
1.71108
1.6995
1.69139
1.68654
1.68421
1.68348
1.68345
1.87007
1.87012
1.87013
1.86998
1.86949
1.86845
1.86665
1.86396
1.8603
1.85573
1.8504
1.8446
1.83865
1.83286
1.8274
1.82215
1.8168
1.81094
1.80412
1.79569
1.78519
1.77242
1.75766
1.74166
1.72556
1.71067
1.69821
1.689
1.68315
1.68014
1.67908
1.67896
1.86588
1.86611
1.86648
1.86684
1.86695
1.86652
1.86531
1.86315
1.85994
1.85571
1.85056
1.84467
1.83828
1.8316
1.82475
1.81759
1.8102
1.80285
1.79536
1.78707
1.77743
1.76607
1.75296
1.73854
1.72363
1.7093
1.6967
1.68682
1.68015
1.67649
1.67508
1.67486
1.85853
1.85902
1.85985
1.86079
1.86149
1.86161
1.86082
1.85888
1.8557
1.8513
1.84577
1.83931
1.83211
1.82438
1.81622
1.80756
1.79877
1.7906
1.78295
1.77514
1.7666
1.75683
1.74564
1.73318
1.71996
1.70681
1.6947
1.68466
1.67746
1.67325
1.67147
1.67114
1.8474
1.84817
1.84944
1.85081
1.85184
1.85212
1.85129
1.84909
1.84546
1.84046
1.83426
1.82707
1.81913
1.81064
1.80172
1.79235
1.78308
1.77483
1.76756
1.76057
1.75328
1.7452
1.73604
1.72574
1.71457
1.70306
1.69199
1.68233
1.67496
1.67034
1.66824
1.66778
1.83209
1.83314
1.83464
1.83599
1.8367
1.83646
1.83499
1.83207
1.82772
1.82208
1.81536
1.80778
1.7996
1.79102
1.78216
1.773
1.76414
1.75652
1.75006
1.74412
1.73816
1.73175
1.72456
1.71646
1.7075
1.69797
1.68841
1.67962
1.6725
1.66772
1.66535
1.66475
1.81239
1.81362
1.81488
1.81545
1.81506
1.81364
1.81111
1.80736
1.80249
1.79662
1.78993
1.78265
1.77499
1.76709
1.75909
1.75096
1.74325
1.73676
1.7314
1.72663
1.722
1.71714
1.71177
1.70572
1.69894
1.69155
1.68382
1.67635
1.66991
1.66528
1.66278
1.66206
1.788
1.78912
1.78941
1.78846
1.78649
1.78375
1.78032
1.77618
1.77137
1.76596
1.76005
1.7538
1.74736
1.74083
1.73431
1.72778
1.72167
1.7166
1.71249
1.70891
1.70552
1.70205
1.69827
1.69404
1.68926
1.68395
1.67821
1.67238
1.66704
1.66292
1.66049
1.65969
1.75827
1.75871
1.75737
1.75481
1.75168
1.74831
1.74476
1.741
1.73701
1.73274
1.72824
1.72358
1.71885
1.71411
1.70942
1.70478
1.70048
1.69693
1.69409
1.69166
1.6894
1.68713
1.6847
1.68199
1.67893
1.67549
1.67169
1.66767
1.66376
1.66051
1.65842
1.65763
1.72196
1.72109
1.71854
1.71565
1.71277
1.71001
1.70737
1.7048
1.70221
1.69956
1.69682
1.69403
1.69121
1.68842
1.68568
1.68297
1.68048
1.67844
1.67681
1.67543
1.67417
1.67292
1.6716
1.67013
1.66848
1.66663
1.66455
1.66229
1.65998
1.65793
1.65647
1.65585
1.67755
1.67687
1.67555
1.67429
1.67313
1.67206
1.67109
1.67019
1.6693
1.66841
1.66751
1.6666
1.66568
1.66477
1.66388
1.66301
1.66221
1.66155
1.66103
1.66059
1.66019
1.6598
1.65939
1.65893
1.65842
1.65785
1.65721
1.6565
1.65577
1.65508
1.65456
1.6543
)
;

boundaryField
{
    movingWall
    {
        type            fixedValue;
        value           uniform 1.6535;
    }
    fixedWalls
    {
        type            zeroGradient;
    }
    floor
    {
        type            zeroGradient;
    }
    frontAndBack
    {
        type            empty;
    }
}


// ************************************************************************* //
