/*--------------------------------*- C++ -*----------------------------------*\
| =========                 |                                                 |
| \\      /  F ield         | OpenFOAM: The Open Source CFD Toolbox           |
|  \\    /   O peration     | Version:  2212                                  |
|   \\  /    A nd           | Website:  www.openfoam.com                      |
|    \\/     M anipulation  |                                                 |
\*---------------------------------------------------------------------------*/
FoamFile
{
    version     2.0;
    format      ascii;
    arch        "LSB;label=64;scalar=64";
    class       volScalarField;
    location    "1480";
    object      Gco2;
}
// * * * * * * * * * * * * * * * * * * * * * * * * * * * * * * * * * * * * * //

dimensions      [1 -3 0 0 0 0 0];

internalField   nonuniform List<scalar> 
1024
(
0.0583129
0.0582963
0.0582557
0.0581819
0.0580643
0.057893
0.0576614
0.0573701
0.0570298
0.0566616
0.0562952
0.0559644
0.0556987
0.0555184
0.0554385
0.0554735
0.0556463
0.0559583
0.056381
0.0568939
0.0574675
0.0580636
0.0586409
0.0591631
0.0596059
0.0599594
0.0602259
0.0604157
0.0605428
0.0606214
0.0606643
0.0606817
0.0583075
0.0582907
0.0582497
0.0581748
0.0580554
0.0578814
0.0576467
0.057352
0.0570083
0.0566372
0.0562684
0.0559367
0.0556715
0.0554923
0.0554136
0.0554492
0.0556218
0.0559334
0.0563557
0.0568684
0.0574424
0.0580398
0.0586195
0.0591447
0.059591
0.0599479
0.0602172
0.0604091
0.0605376
0.060617
0.0606603
0.0606779
0.0582945
0.0582774
0.0582354
0.0581584
0.0580356
0.0578566
0.0576153
0.0573129
0.0569607
0.0565807
0.0562039
0.0558678
0.0556028
0.0554268
0.0553519
0.0553904
0.0555641
0.0558761
0.056299
0.0568124
0.0573879
0.0579884
0.058573
0.0591049
0.0595586
0.0599225
0.0601977
0.0603939
0.0605253
0.0606065
0.0606507
0.0606687
0.0582712
0.0582537
0.0582104
0.0581308
0.0580032
0.0578169
0.0575653
0.0572498
0.0568814
0.0564829
0.0560878
0.0557403
0.0554739
0.0553039
0.0552377
0.0552833
0.0554616
0.0557775
0.0562043
0.0567214
0.0573008
0.057907
0.0584997
0.059042
0.0595069
0.0598814
0.0601655
0.0603684
0.0605043
0.0605881
0.0606337
0.0606522
0.058234
0.0582161
0.0581716
0.058089
0.0579557
0.05776
0.0574942
0.0571585
0.0567633
0.0563319
0.0559035
0.0555334
0.0552622
0.0551014
0.0550504
0.0551102
0.0552996
0.0556264
0.0560644
0.0565916
0.0571801
0.0577959
0.0584004
0.0589565
0.0594361
0.0598245
0.06012
0.0603315
0.060473
0.0605601
0.0606074
0.0606265
0.0581776
0.0581597
0.0581142
0.0580288
0.0578894
0.0576824
0.0573977
0.057033
0.0565969
0.0561142
0.0556329
0.0552253
0.0549429
0.0547937
0.0547655
0.0548486
0.0550589
0.0554085
0.0558707
0.0564196
0.0570263
0.0576583
0.0582792
0.0588526
0.0593495
0.0597536
0.0600619
0.0602827
0.0604303
0.060521
0.0605699
0.0605895
0.0580939
0.0580762
0.0580304
0.0579427
0.0577971
0.0575767
0.0572679
0.0568638
0.0563703
0.0558146
0.0552584
0.0547954
0.0544923
0.0543549
0.0543558
0.0544713
0.0547147
0.0551043
0.0556109
0.0562007
0.0568409
0.0574999
0.0581438
0.0587379
0.0592534
0.0596732
0.0599937
0.0602229
0.0603756
0.0604688
0.0605188
0.0605387
0.0579685
0.0579514
0.0579059
0.0578166
0.0576645
0.0574288
0.0570901
0.0566353
0.0560665
0.0554157
0.0547629
0.0542267
0.0538912
0.0537615
0.0537928
0.0539461
0.0542344
0.0546858
0.0552653
0.0559249
0.0566223
0.0573252
0.0580022
0.0586212
0.0591554
0.0595885
0.0599177
0.0601517
0.0603064
0.0603999
0.0604494
0.0604688
0.0577769
0.0577608
0.0577159
0.057625
0.0574658
0.0572121
0.0568372
0.0563203
0.0556595
0.0548945
0.0541275
0.0535037
0.0531242
0.0529926
0.0530463
0.0532327
0.053572
0.054108
0.0547966
0.055566
0.0563553
0.0571278
0.0578535
0.0585041
0.0590568
0.0594988
0.0598303
0.0600625
0.0602133
0.0603025
0.0603485
0.060366
0.0574796
0.0574641
0.0574194
0.0573257
0.057157
0.0568808
0.0564623
0.0558722
0.0551061
0.0542148
0.0533255
0.0526076
0.0521739
0.0520231
0.0520755
0.0522717
0.0526532
0.0532894
0.0541245
0.0550534
0.0559829
0.0568633
0.0576638
0.0583596
0.0589336
0.0593802
0.0597057
0.0599264
0.060064
0.0601414
0.0601785
0.0601914
0.0570187
0.057003
0.0569563
0.0568563
0.0566723
0.0563656
0.0558934
0.0552198
0.0543412
0.0533229
0.0523157
0.0515058
0.0510074
0.0508062
0.0508078
0.0509589
0.0513408
0.0520642
0.053063
0.0541987
0.0553309
0.0563782
0.0573011
0.0580736
0.0586848
0.0591385
0.0594516
0.0596495
0.0597613
0.059815
0.0598346
0.0598383
0.0563256
0.0563078
0.056255
0.0561417
0.0559324
0.0555825
0.0550429
0.0542755
0.0532835
0.0521484
0.0510385
0.0501422
0.0495578
0.0492475
0.0491076
0.0491056
0.0493791
0.0500979
0.051208
0.0525489
0.0539351
0.0552311
0.0563647
0.057289
0.0579911
0.0584815
0.0587913
0.0589614
0.0590348
0.0590509
0.0590418
0.0590302
0.0553473
0.055325
0.0552602
0.0551233
0.054874
0.0544624
0.0538368
0.0529624
0.0518551
0.0506153
0.0494174
0.0484285
0.0477071
0.0471842
0.0467572
0.0464222
0.0463695
0.0468421
0.0478371
0.0492103
0.0507733
0.0523492
0.0538013
0.0550209
0.0559564
0.0565946
0.0569741
0.0571564
0.0572082
0.0571904
0.0571509
0.0571222
0.0540989
0.0540696
0.053986
0.0538125
0.0535018
0.0529989
0.0522535
0.0512436
0.0500078
0.0486651
0.0473771
0.0462591
0.0453103
0.0444368
0.0435518
0.0426659
0.0419875
0.0418213
0.0422471
0.0431894
0.0445242
0.0460984
0.0477431
0.0492996
0.0506375
0.0516608
0.052353
0.0527494
0.0529229
0.0529608
0.052939
0.0529119
0.052722
0.0526869
0.0525868
0.0523795
0.0520119
0.051427
0.0505794
0.0494598
0.0481177
0.0466621
0.0452184
0.0438573
0.0425536
0.0412222
0.039796
0.0382731
0.0368314
0.0357709
0.0352123
0.0351574
0.0355894
0.0364573
0.0376708
0.0391004
0.0405868
0.0419745
0.0431394
0.0440041
0.0445601
0.0448604
0.0449863
0.0450177
0.0514236
0.0513867
0.0512809
0.0510616
0.0506731
0.0500565
0.0491657
0.0479885
0.0465647
0.0449842
0.0433528
0.0417369
0.0401332
0.0384947
0.0367861
0.0349995
0.0332431
0.0316717
0.0303242
0.0292282
0.0284534
0.0280648
0.0280957
0.0285338
0.0293142
0.030321
0.0313994
0.0323946
0.0331902
0.0337331
0.0340358
0.0341535
0.0504334
0.050398
0.0502975
0.0500904
0.0497236
0.0491391
0.0482871
0.0471453
0.0457373
0.0441368
0.0424472
0.0407614
0.0391308
0.037574
0.0361093
0.0347491
0.0335075
0.0322615
0.0308661
0.0293358
0.0277941
0.026389
0.0252468
0.0244511
0.0240359
0.0239814
0.0242167
0.0246297
0.0250902
0.0254848
0.025748
0.0258679
0.0498245
0.0497912
0.0497
0.0495152
0.0491907
0.048673
0.0479121
0.0468782
0.0455802
0.0440767
0.0424682
0.0408701
0.0393821
0.0380806
0.0370296
0.0362637
0.0357237
0.0350614
0.0339612
0.0323912
0.0304991
0.0285041
0.0266236
0.025021
0.0237899
0.0229547
0.0224843
0.0223061
0.0223218
0.0224274
0.0225367
0.0225993
0.0494994
0.0494683
0.0493861
0.0492239
0.0489433
0.0484982
0.0478418
0.0469411
0.0457942
0.0444446
0.0429824
0.0415275
0.0402025
0.0391143
0.0383486
0.0379447
0.0378006
0.0374863
0.0366322
0.0351372
0.0330924
0.0307122
0.0282773
0.0260473
0.0242059
0.0228359
0.0219299
0.0214171
0.0211929
0.0211438
0.0211694
0.0211999
0.0493476
0.0493192
0.049246
0.0491049
0.0488644
0.0484859
0.0479289
0.047161
0.046174
0.0449982
0.0437085
0.0424144
0.0412383
0.0402926
0.0396635
0.0393811
0.0393207
0.0390737
0.0383195
0.03693
0.0349231
0.0324372
0.0297203
0.0270627
0.024726
0.0228767
0.0215679
0.0207567
0.020338
0.0201809
0.0201594
0.0201768
0.0492709
0.0492476
0.0491872
0.0490699
0.0488691
0.0485525
0.0480855
0.0474398
0.0466051
0.045602
0.0444887
0.0433552
0.0423068
0.0414416
0.0408305
0.0404842
0.0402756
0.0398825
0.0390716
0.0377222
0.035806
0.0333875
0.030636
0.0278025
0.0251691
0.0229646
0.0213122
0.0202203
0.0196072
0.0193397
0.0192718
0.0192786
0.0491495
0.0491369
0.0490995
0.0490182
0.0488677
0.048618
0.0482385
0.0477049
0.0470075
0.0461599
0.0452039
0.0442056
0.0432436
0.0423908
0.0416946
0.0411446
0.0406387
0.0399795
0.0390221
0.0376585
0.0358324
0.0335556
0.0309266
0.0281295
0.0254056
0.0230005
0.0210963
0.0197646
0.0189668
0.0185858
0.0184674
0.0184625
0.0488318
0.0488389
0.0488414
0.0488182
0.0487403
0.0485741
0.048288
0.0478582
0.0472749
0.0465455
0.0456967
0.0447719
0.0438234
0.0428993
0.0420267
0.0411832
0.0403166
0.0393632
0.0382479
0.0368695
0.0351512
0.0330607
0.0306404
0.0280167
0.0253742
0.0229277
0.0208816
0.0193672
0.0184045
0.0179103
0.0177369
0.0177183
0.0481511
0.0481887
0.0482508
0.0483104
0.0483288
0.0482622
0.0480708
0.0477258
0.047214
0.0465378
0.0457142
0.0447726
0.0437489
0.0426771
0.0415749
0.0404199
0.0392207
0.0380258
0.0368027
0.0354485
0.0338728
0.0320126
0.0298643
0.0274997
0.0250537
0.0227001
0.0206287
0.0190044
0.0179082
0.017307
0.017075
0.0170403
0.0469574
0.0470359
0.0471721
0.0473255
0.0474422
0.0474644
0.0473396
0.0470306
0.0465209
0.0458136
0.0449263
0.0438867
0.0427283
0.041482
0.0401659
0.0387644
0.0373381
0.0360082
0.0347605
0.0334866
0.0320899
0.0304923
0.0286589
0.0266157
0.0244477
0.0222871
0.020297
0.0186472
0.0174629
0.0167692
0.0164779
0.0164242
0.0451435
0.0452695
0.045477
0.0457009
0.04587
0.0459178
0.0457864
0.0454339
0.0448483
0.044042
0.0430412
0.0418807
0.0405977
0.0392248
0.037783
0.0362637
0.0347578
0.033417
0.0322314
0.0310912
0.0299003
0.0285795
0.0270783
0.0253907
0.0235583
0.0216683
0.01985
0.0182612
0.0170488
0.0162885
0.0159421
0.0158668
0.0426485
0.0428204
0.0430655
0.0432852
0.0434034
0.0433658
0.0431282
0.042657
0.0419534
0.0410403
0.0399511
0.038725
0.0374006
0.0360099
0.0345738
0.0330877
0.0316497
0.0304101
0.0293577
0.028389
0.0274162
0.0263679
0.0251913
0.0238631
0.0223936
0.0208292
0.0192583
0.0178126
0.0166412
0.0158541
0.015464
0.015366
0.0394363
0.0396365
0.0398423
0.0399359
0.0398731
0.0396432
0.0392322
0.0386251
0.037834
0.036881
0.0357967
0.0346159
0.0333723
0.0320927
0.0307948
0.0294752
0.0282225
0.0271662
0.0262938
0.0255161
0.0247596
0.0239654
0.0230869
0.0220957
0.0209848
0.0197706
0.0185017
0.0172718
0.0162129
0.0154503
0.0150388
0.0149201
0.0354578
0.0356392
0.0356872
0.0355327
0.0352119
0.0347664
0.034208
0.0335343
0.0327529
0.0318732
0.0309141
0.0298994
0.0288529
0.0277941
0.0267358
0.0256753
0.0246826
0.0238574
0.0231881
0.0226052
0.0220523
0.0214851
0.0208673
0.0201734
0.0193906
0.0185186
0.0175763
0.0166171
0.0157386
0.0150591
0.0146594
0.0145277
0.0306061
0.0306769
0.0304579
0.0300405
0.0295311
0.0289814
0.0284034
0.0277918
0.0271412
0.0264474
0.025716
0.0249588
0.0241897
0.0234207
0.0226601
0.0219059
0.0212066
0.0206302
0.020168
0.0197719
0.0194035
0.0190327
0.0186347
0.018191
0.0176898
0.0171257
0.0165015
0.0158394
0.015196
0.0146601
0.0143155
0.0141862
0.0246785
0.024537
0.0241198
0.0236483
0.0231784
0.0227281
0.0222985
0.021879
0.0214581
0.0210261
0.0205813
0.0201271
0.0196702
0.0192166
0.0187709
0.0183317
0.0179269
0.0175948
0.0173301
0.0171057
0.0168998
0.0166954
0.0164787
0.016239
0.0159691
0.0156643
0.015323
0.014951
0.0145719
0.014233
0.0139934
0.0138909
0.0174278
0.0173161
0.0171011
0.016895
0.0167052
0.0165319
0.0163738
0.0162258
0.016082
0.0159376
0.0157907
0.0156419
0.0154929
0.0153455
0.0152011
0.0150594
0.014929
0.0148224
0.0147376
0.0146661
0.0146009
0.0145367
0.0144692
0.0143949
0.0143116
0.0142177
0.0141123
0.0139964
0.0138755
0.0137623
0.0136756
0.0136336
)
;

boundaryField
{
    movingWall
    {
        type            fixedValue;
        value           uniform 0.0135;
    }
    fixedWalls
    {
        type            zeroGradient;
    }
    floor
    {
        type            zeroGradient;
    }
    frontAndBack
    {
        type            empty;
    }
}


// ************************************************************************* //
