/*--------------------------------*- C++ -*----------------------------------*\
| =========                 |                                                 |
| \\      /  F ield         | OpenFOAM: The Open Source CFD Toolbox           |
|  \\    /   O peration     | Version:  2212                                  |
|   \\  /    A nd           | Website:  www.openfoam.com                      |
|    \\/     M anipulation  |                                                 |
\*---------------------------------------------------------------------------*/
FoamFile
{
    version     2.0;
    format      ascii;
    arch        "LSB;label=64;scalar=64";
    class       volScalarField;
    location    "1480";
    object      p_rgh;
}
// * * * * * * * * * * * * * * * * * * * * * * * * * * * * * * * * * * * * * //

dimensions      [0 2 -2 0 0 0 0];

internalField   nonuniform List<scalar> 
1024
(
0.0431944
0.0431929
0.0431914
0.0431913
0.0431938
0.0432
0.0432112
0.0432286
0.043253
0.0432817
0.0433044
0.0433071
0.0432873
0.0432482
0.0432013
0.043152
0.0431043
0.0430621
0.0430299
0.0430081
0.0429946
0.0429864
0.0429816
0.0429786
0.0429766
0.0429754
0.0429747
0.0429747
0.0429754
0.0429764
0.0429775
0.0429781
0.0431972
0.0431958
0.0431946
0.0431949
0.0431976
0.0432037
0.0432145
0.0432314
0.0432553
0.0432835
0.0433058
0.0433086
0.0432895
0.0432508
0.043204
0.0431547
0.0431069
0.0430646
0.0430324
0.0430107
0.0429971
0.0429889
0.0429839
0.0429809
0.0429788
0.0429775
0.0429768
0.0429766
0.0429771
0.0429779
0.0429788
0.0429794
0.0432018
0.0432001
0.043199
0.0431998
0.0432029
0.0432093
0.0432203
0.0432373
0.0432614
0.0432899
0.0433122
0.0433154
0.0432966
0.0432579
0.0432109
0.0431612
0.0431131
0.0430705
0.0430379
0.043016
0.0430022
0.0429937
0.0429885
0.0429852
0.0429829
0.0429813
0.0429803
0.0429799
0.04298
0.0429806
0.0429815
0.0429823
0.0432066
0.0432046
0.0432036
0.0432048
0.0432087
0.043216
0.043228
0.0432462
0.0432718
0.0433016
0.0433248
0.0433284
0.0433095
0.0432706
0.0432232
0.0431729
0.043124
0.0430806
0.0430473
0.0430247
0.0430103
0.0430014
0.0429958
0.0429919
0.0429891
0.042987
0.0429854
0.0429844
0.0429841
0.0429845
0.0429855
0.0429866
0.0432099
0.0432079
0.0432072
0.0432091
0.0432142
0.0432231
0.0432371
0.0432576
0.0432857
0.0433176
0.0433419
0.0433461
0.0433272
0.0432884
0.043241
0.0431903
0.0431407
0.0430959
0.0430612
0.0430375
0.0430223
0.0430126
0.0430061
0.0430015
0.0429978
0.0429947
0.0429921
0.0429902
0.0429893
0.0429895
0.0429906
0.042992
0.0432098
0.0432082
0.0432081
0.043211
0.0432178
0.0432291
0.0432461
0.04327
0.0433011
0.043335
0.0433604
0.0433651
0.0433467
0.0433091
0.0432627
0.0432127
0.0431627
0.0431165
0.0430798
0.0430545
0.0430381
0.0430273
0.0430197
0.0430138
0.0430087
0.0430041
0.043
0.0429969
0.0429951
0.0429948
0.0429959
0.0429976
0.0432056
0.0432047
0.0432054
0.0432096
0.0432183
0.0432325
0.0432533
0.0432811
0.0433153
0.0433511
0.0433769
0.0433818
0.0433641
0.0433289
0.0432851
0.0432372
0.0431881
0.043141
0.0431021
0.0430749
0.043057
0.0430448
0.0430356
0.0430279
0.0430208
0.043014
0.0430078
0.043003
0.0429999
0.042999
0.0429999
0.0430017
0.0431984
0.0431982
0.0431999
0.0432052
0.0432158
0.043233
0.0432575
0.0432897
0.0433274
0.0433652
0.0433905
0.0433946
0.0433771
0.0433444
0.043304
0.0432596
0.0432126
0.0431657
0.0431249
0.043096
0.0430767
0.0430628
0.0430516
0.0430416
0.0430318
0.0430221
0.0430133
0.0430063
0.0430018
0.043
0.0430005
0.043002
0.0431918
0.0431922
0.0431946
0.0432008
0.0432128
0.0432325
0.0432607
0.0432973
0.0433394
0.0433796
0.0434036
0.0434052
0.0433861
0.0433544
0.0433171
0.0432764
0.043232
0.0431858
0.0431439
0.0431136
0.0430933
0.043078
0.0430645
0.0430516
0.0430385
0.0430255
0.0430137
0.0430044
0.0429984
0.0429957
0.0429955
0.0429966
0.0431911
0.0431919
0.0431946
0.0432013
0.0432145
0.0432364
0.0432682
0.0433099
0.0433571
0.0433986
0.0434208
0.043417
0.0433936
0.0433607
0.0433245
0.0432866
0.0432443
0.0431985
0.0431558
0.0431237
0.0431027
0.0430862
0.0430705
0.0430545
0.0430379
0.0430216
0.0430071
0.042996
0.042989
0.0429856
0.0429849
0.0429853
0.0432022
0.0432029
0.0432056
0.0432126
0.0432269
0.0432514
0.0432876
0.043335
0.0433875
0.0434299
0.0434465
0.0434334
0.0434025
0.043366
0.0433294
0.0432929
0.0432527
0.0432075
0.0431622
0.0431267
0.0431036
0.0430859
0.0430681
0.0430495
0.04303
0.0430113
0.0429953
0.0429836
0.0429764
0.042973
0.0429718
0.0429716
0.0432312
0.0432316
0.043234
0.0432413
0.0432572
0.0432852
0.0433273
0.0433817
0.0434375
0.0434759
0.0434801
0.0434551
0.0434168
0.0433763
0.0433386
0.0433036
0.0432671
0.043225
0.0431798
0.0431385
0.0431067
0.0430847
0.0430638
0.0430432
0.0430222
0.0430028
0.042987
0.0429758
0.0429694
0.0429663
0.0429651
0.0429647
0.043284
0.043284
0.0432862
0.0432945
0.0433134
0.0433469
0.0433959
0.0434547
0.043506
0.0435279
0.043516
0.0434826
0.043442
0.0434022
0.0433663
0.0433366
0.0433108
0.0432823
0.0432494
0.0432135
0.0431734
0.043129
0.0430918
0.0430653
0.043039
0.0430165
0.0429993
0.0429878
0.0429818
0.0429796
0.0429793
0.0429792
0.0433674
0.0433671
0.0433707
0.0433833
0.0434103
0.0434549
0.0435125
0.0435662
0.0435954
0.0435964
0.0435763
0.043545
0.0435097
0.043475
0.0434439
0.0434193
0.043408
0.0434043
0.0434014
0.0433976
0.0433869
0.043361
0.0433112
0.0432392
0.0431686
0.0431192
0.0430862
0.0430647
0.0430541
0.0430512
0.0430519
0.0430531
0.0434481
0.0434476
0.043452
0.0434672
0.0434977
0.0435433
0.0435953
0.0436389
0.0436625
0.0436652
0.0436531
0.0436325
0.0436077
0.0435818
0.0435575
0.0435384
0.0435314
0.0435429
0.0435669
0.0436008
0.0436381
0.0436695
0.0436838
0.0436706
0.0436209
0.0435325
0.0434311
0.0433457
0.0432947
0.0432723
0.0432652
0.0432644
0.0434777
0.0434769
0.043481
0.0434957
0.0435251
0.0435683
0.043617
0.0436595
0.0436873
0.0436992
0.0436988
0.0436899
0.0436745
0.0436539
0.0436295
0.0436052
0.04359
0.0435919
0.0436158
0.043658
0.0437129
0.043773
0.0438294
0.0438731
0.0438971
0.0438976
0.0438738
0.0438289
0.0437703
0.0437181
0.0436868
0.0436749
0.043443
0.0434423
0.0434456
0.0434583
0.0434849
0.0435257
0.0435745
0.0436208
0.0436563
0.0436784
0.0436888
0.0436895
0.043681
0.043663
0.0436358
0.0436031
0.0435764
0.0435634
0.0435707
0.0435966
0.0436377
0.0436902
0.0437484
0.0438047
0.0438522
0.0438856
0.0439035
0.0439075
0.0439015
0.0438905
0.0438791
0.0438711
0.0433877
0.0433872
0.0433895
0.0433995
0.0434221
0.0434596
0.0435079
0.0435582
0.0436013
0.0436328
0.0436526
0.0436616
0.0436599
0.0436466
0.0436221
0.0435902
0.0435641
0.0435476
0.043542
0.0435468
0.043562
0.0435884
0.0436257
0.0436701
0.0437149
0.0437533
0.0437804
0.0437952
0.0438001
0.0437987
0.0437941
0.0437893
0.0433482
0.0433478
0.0433492
0.0433564
0.0433743
0.0434066
0.0434527
0.0435049
0.0435537
0.043593
0.0436206
0.0436367
0.0436411
0.0436332
0.0436138
0.0435876
0.0435695
0.0435608
0.0435526
0.0435471
0.0435433
0.0435441
0.0435544
0.0435763
0.043607
0.0436398
0.0436674
0.0436854
0.0436934
0.0436939
0.0436899
0.0436848
0.0433316
0.0433312
0.0433318
0.0433368
0.043351
0.0433784
0.0434199
0.0434707
0.0435223
0.0435671
0.0436009
0.0436223
0.0436306
0.0436255
0.0436085
0.0435849
0.0435685
0.0435667
0.0435672
0.0435665
0.0435598
0.0435501
0.0435417
0.0435427
0.0435569
0.0435803
0.0436051
0.043624
0.0436338
0.0436352
0.0436308
0.0436246
0.0433324
0.0433319
0.0433319
0.0433352
0.0433465
0.04337
0.0434075
0.0434561
0.0435083
0.0435559
0.043593
0.0436167
0.0436256
0.0436197
0.0436009
0.043575
0.0435551
0.0435535
0.0435621
0.0435725
0.0435789
0.0435784
0.0435669
0.0435568
0.0435594
0.0435755
0.0435985
0.0436192
0.0436315
0.0436343
0.0436296
0.0436222
0.0433437
0.043343
0.0433422
0.0433443
0.0433537
0.0433747
0.0434097
0.0434565
0.0435082
0.0435563
0.0435937
0.0436163
0.0436225
0.0436123
0.0435884
0.0435573
0.0435326
0.0435296
0.043544
0.043564
0.0435835
0.0435974
0.0436023
0.0436021
0.0436013
0.0436166
0.0436434
0.0436707
0.0436892
0.0436954
0.0436911
0.0436824
0.0433596
0.0433585
0.0433571
0.0433584
0.043367
0.0433874
0.0434218
0.0434681
0.0435192
0.0435659
0.0436005
0.0436187
0.0436188
0.0436016
0.0435703
0.0435324
0.0435031
0.043499
0.0435165
0.0435439
0.0435749
0.0436047
0.0436302
0.0436518
0.0436719
0.043697
0.0437347
0.0437767
0.0438084
0.0438227
0.0438205
0.0438108
0.0433758
0.0433738
0.0433719
0.0433734
0.0433829
0.043405
0.0434412
0.0434885
0.0435388
0.0435822
0.0436113
0.0436218
0.043613
0.0435865
0.0435463
0.043501
0.0434672
0.0434614
0.0434804
0.0435135
0.0435548
0.0436006
0.0436486
0.043699
0.0437524
0.0438092
0.0438708
0.0439365
0.0439923
0.0440228
0.0440264
0.0440171
0.0433886
0.0433856
0.0433834
0.0433864
0.0433992
0.043426
0.0434659
0.0435153
0.0435643
0.0436026
0.0436233
0.0436236
0.0436038
0.0435664
0.0435165
0.0434633
0.0434249
0.043417
0.0434359
0.043474
0.0435245
0.043586
0.0436579
0.0437414
0.0438366
0.0439409
0.0440481
0.0441519
0.0442443
0.0443043
0.0443214
0.0443164
0.0433953
0.0433907
0.043389
0.043396
0.0434155
0.0434486
0.0434941
0.043546
0.0435925
0.0436235
0.0436337
0.0436219
0.0435897
0.0435407
0.0434805
0.0434195
0.0433766
0.0433666
0.0433859
0.0434275
0.0434864
0.0435629
0.0436591
0.0437779
0.0439204
0.0440825
0.0442539
0.0444195
0.0445649
0.0446744
0.0447203
0.0447283
0.0433897
0.0433841
0.0433851
0.0433999
0.04343
0.0434727
0.0435236
0.0435771
0.0436194
0.043641
0.043639
0.0436141
0.0435691
0.0435084
0.0434383
0.0433701
0.0433234
0.043312
0.043332
0.043377
0.0434437
0.0435343
0.0436537
0.0438074
0.0439987
0.0442242
0.0444718
0.0447212
0.0449478
0.0451323
0.0452344
0.045272
0.0433588
0.0433559
0.0433655
0.0433953
0.0434412
0.0434958
0.0435523
0.0436049
0.0436405
0.0436511
0.0436363
0.0435984
0.0435413
0.0434699
0.0433914
0.0433176
0.0432685
0.0432566
0.0432778
0.0433264
0.0434006
0.0435038
0.0436437
0.0438289
0.0440654
0.0443528
0.0446814
0.0450302
0.0453694
0.0456624
0.0458627
0.0459601
0.0432775
0.0432893
0.043324
0.0433815
0.043449
0.0435161
0.0435775
0.0436263
0.0436528
0.043652
0.0436251
0.0435757
0.0435083
0.0434285
0.0433439
0.0432666
0.0432168
0.0432055
0.0432285
0.0432808
0.0433615
0.0434751
0.0436313
0.0438414
0.0441146
0.0444549
0.0448584
0.0453113
0.0457876
0.0462425
0.0465968
0.0468242
0.0430919
0.0431657
0.0432666
0.0433689
0.0434591
0.0435372
0.0435996
0.0436415
0.0436581
0.0436468
0.0436097
0.0435511
0.0434761
0.0433906
0.0433022
0.0432234
0.043174
0.043164
0.0431889
0.0432445
0.04333
0.0434508
0.0436182
0.043845
0.044143
0.0445204
0.0449814
0.0455254
0.0461462
0.0468156
0.0474471
0.0479983
0.0426016
0.0429929
0.0432357
0.0433859
0.043489
0.0435683
0.0436251
0.0436576
0.0436641
0.0436434
0.0435981
0.0435328
0.0434526
0.0433635
0.0432731
0.0431938
0.0431451
0.0431362
0.0431625
0.0432201
0.0433082
0.0434328
0.0436056
0.0438406
0.0441506
0.0445469
0.04504
0.0456442
0.0463832
0.0472918
0.0483992
0.0496575
0.0415834
0.0428201
0.0432858
0.0434357
0.043532
0.0436054
0.0436532
0.0436762
0.0436744
0.0436468
0.0435959
0.0435262
0.0434429
0.0433516
0.04326
0.0431802
0.0431316
0.0431232
0.0431502
0.0432084
0.0432972
0.0434227
0.0435968
0.0438335
0.0441461
0.044547
0.0450505
0.0456821
0.0464947
0.0475959
0.0492039
0.0514659
)
;

boundaryField
{
    movingWall
    {
        type            fixedFluxPressure;
        gradient        uniform 0;
        value           nonuniform List<scalar> 
32
(
0.0415834
0.0428201
0.0432858
0.0434357
0.043532
0.0436054
0.0436532
0.0436762
0.0436744
0.0436468
0.0435959
0.0435262
0.0434429
0.0433516
0.04326
0.0431802
0.0431316
0.0431232
0.0431502
0.0432084
0.0432972
0.0434227
0.0435968
0.0438335
0.0441461
0.044547
0.0450505
0.0456821
0.0464947
0.0475959
0.0492039
0.0514659
)
;
    }
    fixedWalls
    {
        type            fixedFluxPressure;
        gradient        uniform 0;
        value           nonuniform List<scalar> 
64
(
0.0431944
0.0431972
0.0432018
0.0432066
0.0432099
0.0432098
0.0432056
0.0431984
0.0431918
0.0431911
0.0432022
0.0432312
0.043284
0.0433674
0.0434481
0.0434777
0.043443
0.0433877
0.0433482
0.0433316
0.0433324
0.0433437
0.0433596
0.0433758
0.0433886
0.0433953
0.0433897
0.0433588
0.0432775
0.0430919
0.0426016
0.0415834
0.0429781
0.0429794
0.0429823
0.0429866
0.042992
0.0429976
0.0430017
0.043002
0.0429966
0.0429853
0.0429716
0.0429647
0.0429792
0.0430531
0.0432644
0.0436749
0.0438711
0.0437893
0.0436848
0.0436246
0.0436222
0.0436824
0.0438108
0.0440171
0.0443164
0.0447283
0.045272
0.0459601
0.0468242
0.0479983
0.0496575
0.0514659
)
;
    }
    floor
    {
        type            fixedFluxPressure;
        gradient        uniform 0;
        value           nonuniform List<scalar> 
32
(
0.0431944
0.0431929
0.0431914
0.0431913
0.0431938
0.0432
0.0432112
0.0432286
0.043253
0.0432817
0.0433044
0.0433071
0.0432873
0.0432482
0.0432013
0.043152
0.0431043
0.0430621
0.0430299
0.0430081
0.0429946
0.0429864
0.0429816
0.0429786
0.0429766
0.0429754
0.0429747
0.0429747
0.0429754
0.0429764
0.0429775
0.0429781
)
;
    }
    frontAndBack
    {
        type            empty;
    }
}


// ************************************************************************* //
