/*--------------------------------*- C++ -*----------------------------------*\
| =========                 |                                                 |
| \\      /  F ield         | OpenFOAM: The Open Source CFD Toolbox           |
|  \\    /   O peration     | Version:  2212                                  |
|   \\  /    A nd           | Website:  www.openfoam.com                      |
|    \\/     M anipulation  |                                                 |
\*---------------------------------------------------------------------------*/
FoamFile
{
    version     2.0;
    format      ascii;
    arch        "LSB;label=64;scalar=64";
    class       surfaceScalarField;
    location    "1480";
    object      phi;
}
// * * * * * * * * * * * * * * * * * * * * * * * * * * * * * * * * * * * * * //

dimensions      [0 3 -1 0 0 0 0];

oriented        oriented;

internalField   nonuniform List<scalar> 
1984
(
-6.67331e-10
6.67119e-10
-7.33882e-09
6.67143e-09
-2.15771e-08
1.42383e-08
-4.17102e-08
2.01332e-08
-6.48344e-08
2.31242e-08
-8.76682e-08
2.28339e-08
-1.06321e-07
1.86527e-08
-1.15298e-07
8.9766e-09
-1.05799e-07
-9.49898e-09
-6.78633e-08
-3.79352e-08
-1.78212e-09
-6.60811e-08
6.71599e-08
-6.89421e-08
1.16795e-07
-4.96354e-08
1.4364e-07
-2.68446e-08
1.54703e-07
-1.10635e-08
1.58308e-07
-3.60485e-09
1.57456e-07
8.51923e-10
1.49633e-07
7.82329e-09
1.34927e-07
1.47065e-08
1.17071e-07
1.78559e-08
9.92201e-08
1.78505e-08
8.28384e-08
1.63818e-08
6.83058e-08
1.45327e-08
5.53631e-08
1.29427e-08
4.34682e-08
1.1895e-08
3.21328e-08
1.13354e-08
2.13867e-08
1.07461e-08
1.19143e-08
9.47244e-09
4.74611e-09
7.16811e-09
6.5015e-10
4.09592e-09
-4.93979e-10
1.1441e-09
-4.93956e-10
-7.09559e-09
7.76265e-09
-3.164e-08
3.12159e-08
-7.51901e-08
5.77885e-08
-1.34225e-07
7.91679e-08
-2.01168e-07
9.00672e-08
-2.65927e-07
8.75934e-08
-3.16025e-07
6.87506e-08
-3.35158e-07
2.81097e-08
-3.00442e-07
-4.42148e-08
-1.88285e-07
-1.50092e-07
2.22757e-09
-2.56594e-07
2.05326e-07
-2.7204e-07
3.56444e-07
-2.00754e-07
4.47262e-07
-1.17662e-07
4.91808e-07
-5.56102e-08
5.11007e-07
-2.28033e-08
5.12612e-07
-7.53015e-10
4.91693e-07
2.87419e-08
4.49182e-07
5.72174e-08
3.95227e-07
7.18114e-08
3.3918e-07
7.38973e-08
2.86011e-07
6.95506e-08
2.3743e-07
6.31138e-08
1.93179e-07
5.71941e-08
1.52143e-07
5.29312e-08
1.13447e-07
5.00311e-08
7.7567e-08
4.6626e-08
4.64974e-08
4.0542e-08
2.27533e-08
3.09122e-08
7.84069e-09
1.90085e-08
1.19801e-09
7.78684e-09
7.04014e-10
-1.62725e-08
2.40352e-08
-6.30719e-08
7.80153e-08
-1.39205e-07
1.33922e-07
-2.38366e-07
1.78328e-07
-3.48345e-07
2.00047e-07
-4.51943e-07
1.91192e-07
-5.27467e-07
1.44275e-07
-5.47859e-07
4.85015e-08
-4.7894e-07
-1.13134e-07
-2.89356e-07
-3.39676e-07
2.16238e-08
-5.67573e-07
3.54363e-07
-6.04779e-07
6.12756e-07
-4.59147e-07
7.82604e-07
-2.8751e-07
8.78228e-07
-1.51234e-07
9.27832e-07
-7.24074e-08
9.41211e-07
-1.41325e-08
9.12273e-07
5.76799e-08
8.44041e-07
1.2545e-07
7.52608e-07
1.63245e-07
6.53726e-07
1.72779e-07
5.56691e-07
1.66586e-07
4.65416e-07
1.54389e-07
3.80477e-07
1.42133e-07
3.0096e-07
1.32449e-07
2.26288e-07
1.24703e-07
1.57737e-07
1.15177e-07
9.85358e-08
9.97431e-08
5.23652e-08
7.70829e-08
2.13148e-08
5.00589e-08
4.77967e-09
2.4322e-08
5.48362e-09
-2.49163e-08
4.89515e-08
-9.33835e-08
1.46483e-07
-2.00707e-07
2.41245e-07
-3.36701e-07
3.14323e-07
-4.84179e-07
3.47524e-07
-6.18998e-07
3.2601e-07
-7.10613e-07
2.3589e-07
-7.22159e-07
6.00474e-08
-6.11868e-07
-2.23425e-07
-3.47467e-07
-6.04078e-07
6.2189e-08
-9.77229e-07
4.9979e-07
-1.04238e-06
8.58382e-07
-8.17738e-07
1.11523e-06
-5.44355e-07
1.27928e-06
-3.15289e-07
1.37896e-06
-1.72087e-07
1.42049e-06
-5.56596e-08
1.39528e-06
8.28847e-08
1.30931e-06
2.11422e-07
1.18434e-06
2.88217e-07
1.04237e-06
3.14751e-07
8.97494e-07
3.11461e-07
7.56695e-07
2.95188e-07
6.22459e-07
2.76368e-07
4.95165e-07
2.59744e-07
3.75393e-07
2.44474e-07
2.65587e-07
2.24983e-07
1.70211e-07
1.95119e-07
9.41584e-08
1.53135e-07
4.06161e-08
1.03601e-07
9.918e-09
5.50201e-08
1.54016e-08
-3.0156e-08
7.91075e-08
-1.12921e-07
2.29248e-07
-2.4193e-07
3.70255e-07
-4.0406e-07
4.76452e-07
-5.77725e-07
5.2119e-07
-7.32473e-07
4.80758e-07
-8.29707e-07
3.33123e-07
-8.23979e-07
5.43195e-08
-6.70332e-07
-3.77072e-07
-3.42812e-07
-9.31597e-07
1.27294e-07
-1.44733e-06
6.24998e-07
-1.54009e-06
1.05943e-06
-1.25217e-06
1.39722e-06
-8.82153e-07
1.63949e-06
-5.57556e-07
1.80913e-06
-3.41721e-07
1.90174e-06
-1.48277e-07
1.90035e-06
8.4282e-08
1.81218e-06
2.99589e-07
1.66472e-06
4.35673e-07
1.48603e-06
4.93439e-07
1.2951e-06
5.024e-07
1.10252e-06
4.87766e-07
9.13713e-07
4.65172e-07
7.31545e-07
4.41912e-07
5.58752e-07
4.17268e-07
3.99571e-07
3.84164e-07
2.60073e-07
3.34617e-07
1.46842e-07
2.66366e-07
6.49137e-08
1.85529e-07
1.63224e-08
1.03611e-07
3.1724e-08
-2.95355e-08
1.08643e-07
-1.12809e-07
3.12521e-07
-2.45384e-07
5.0283e-07
-4.1459e-07
6.45658e-07
-5.97018e-07
7.03618e-07
-7.5764e-07
6.41381e-07
-8.51142e-07
4.26625e-07
-8.24758e-07
2.79362e-08
-6.34616e-07
-5.67215e-07
-2.67796e-07
-1.29842e-06
2.13443e-07
-1.92857e-06
7.15891e-07
-2.04253e-06
1.18271e-06
-1.71898e-06
1.57442e-06
-1.27387e-06
1.88687e-06
-8.70001e-07
2.13678e-06
-5.91635e-07
2.30526e-06
-3.16755e-07
2.35588e-06
3.36598e-08
2.28924e-06
3.66237e-07
2.13837e-06
5.8654e-07
1.93749e-06
6.94322e-07
1.7103e-06
7.29588e-07
1.47115e-06
7.26913e-07
1.22901e-06
7.07314e-07
9.90208e-07
6.80714e-07
7.60709e-07
6.46766e-07
5.47556e-07
5.97317e-07
3.59269e-07
5.22905e-07
2.04806e-07
4.20828e-07
9.15107e-08
2.98825e-07
2.32911e-08
1.71831e-07
5.50151e-08
-2.21875e-08
1.30831e-07
-8.89594e-08
3.79293e-07
-2.01362e-07
6.15233e-07
-3.51849e-07
7.96145e-07
-5.19857e-07
8.71626e-07
-6.69517e-07
7.91041e-07
-7.51255e-07
5.08362e-07
-7.07911e-07
-1.54081e-08
-4.98341e-07
-7.76785e-07
-1.29323e-07
-1.66743e-06
3.08378e-07
-2.36627e-06
7.58078e-07
-2.49223e-06
1.19722e-06
-2.15812e-06
1.59232e-06
-1.66897e-06
1.94105e-06
-1.21873e-06
2.25991e-06
-9.10493e-07
2.51977e-06
-5.76617e-07
2.65502e-06
-1.0159e-07
2.6423e-06
3.78956e-07
2.51519e-06
7.1365e-07
2.31531e-06
8.94199e-07
2.07107e-06
9.73832e-07
1.80017e-06
9.97808e-07
1.51526e-06
9.92231e-07
1.22676e-06
9.69214e-07
9.44973e-07
9.28551e-07
6.81081e-07
8.61209e-07
4.472e-07
7.56786e-07
2.55136e-07
6.12892e-07
1.1415e-07
4.39811e-07
2.91194e-08
2.56861e-07
8.41344e-08
-9.87363e-09
1.40704e-07
-4.57156e-08
4.15135e-07
-1.15085e-07
6.84602e-07
-2.19053e-07
9.00113e-07
-3.45375e-07
9.97948e-07
-4.63449e-07
9.09115e-07
-5.24196e-07
5.69109e-07
-4.71693e-07
-6.79111e-08
-2.68146e-07
-9.80332e-07
5.12049e-08
-1.98679e-06
3.8794e-07
-2.70301e-06
7.25527e-07
-2.82982e-06
1.06466e-06
-2.49726e-06
1.3922e-06
-1.99652e-06
1.71618e-06
-1.54271e-06
2.06229e-06
-1.2566e-06
2.40484e-06
-9.19167e-07
2.65511e-06
-3.5186e-07
2.73944e-06
2.94634e-07
2.67135e-06
7.81735e-07
2.5046e-06
1.06095e-06
2.27267e-06
1.20576e-06
1.99579e-06
1.27469e-06
1.68998e-06
1.29804e-06
1.37027e-06
1.28892e-06
1.05253e-06
1.24629e-06
7.53654e-07
1.16009e-06
4.90376e-07
1.02006e-06
2.76939e-07
8.26328e-07
1.22682e-07
5.94069e-07
3.10006e-08
3.48543e-07
1.15135e-07
3.20314e-09
1.37501e-07
3.44485e-09
4.14893e-07
-1.02393e-08
6.98286e-07
-4.65893e-08
9.36463e-07
-1.05025e-07
1.05638e-06
-1.6734e-07
9.7143e-07
-1.9374e-07
5.95509e-07
-1.33907e-07
-1.27744e-07
2.92897e-08
-1.14353e-06
2.31823e-07
-2.18932e-06
4.09611e-07
-2.8808e-06
5.6478e-07
-2.98499e-06
7.21331e-07
-2.65381e-06
8.95969e-07
-2.17115e-06
1.11238e-06
-1.75912e-06
1.41222e-06
-1.55644e-06
1.7958e-06
-1.30274e-06
2.18096e-06
-7.37024e-07
2.41686e-06
5.87315e-08
2.45406e-06
7.44537e-07
2.3641e-06
1.15091e-06
2.18615e-06
1.38371e-06
1.94168e-06
1.51916e-06
1.64999e-06
1.58973e-06
1.33162e-06
1.6073e-06
1.00975e-06
1.56815e-06
7.08521e-07
1.46132e-06
4.49286e-07
1.2793e-06
2.46555e-07
1.02906e-06
1.06064e-07
7.3456e-07
2.59832e-08
4.28624e-07
1.41118e-07
1.28491e-08
1.24652e-07
4.31688e-08
3.84573e-07
8.14073e-08
6.60048e-07
1.15966e-07
9.01904e-07
1.38363e-07
1.03399e-06
1.51689e-07
9.58104e-07
1.75176e-07
5.72022e-07
2.30029e-07
-1.82597e-07
3.02338e-07
-1.21584e-06
3.38063e-07
-2.22504e-06
2.9011e-07
-2.83284e-06
1.72819e-07
-2.8677e-06
5.6993e-08
-2.53798e-06
-7.64117e-09
-2.10652e-06
1.26063e-08
-1.77937e-06
1.59409e-07
-1.70324e-06
4.92924e-07
-1.63626e-06
9.71694e-07
-1.21579e-06
1.43213e-06
-4.01707e-07
1.67675e-06
4.99918e-07
1.7348e-06
1.09287e-06
1.67287e-06
1.44564e-06
1.51652e-06
1.67551e-06
1.29084e-06
1.81541e-06
1.02433e-06
1.87381e-06
7.49904e-07
1.84258e-06
4.99348e-07
1.71188e-06
2.96021e-07
1.48263e-06
1.50087e-07
1.17499e-06
5.91599e-08
8.25487e-07
1.30436e-08
4.7474e-07
1.54162e-07
1.69469e-08
1.07705e-07
6.32765e-08
3.38244e-07
1.33521e-07
5.89803e-07
2.17669e-07
8.17757e-07
3.03993e-07
9.47663e-07
3.83348e-07
8.78749e-07
4.48586e-07
5.06784e-07
4.80351e-07
-2.14362e-07
4.30575e-07
-1.16606e-06
2.35234e-07
-2.0297e-06
-1.451e-07
-2.45251e-06
-6.21655e-07
-2.39114e-06
-1.08903e-06
-2.0706e-06
-1.48163e-06
-1.71393e-06
-1.75599e-06
-1.505e-06
-1.85364e-06
-1.60559e-06
-1.68195e-06
-1.80795e-06
-1.23432e-06
-1.66342e-06
-5.29316e-07
-1.10671e-06
1.05674e-07
-1.35072e-07
4.44611e-07
7.5393e-07
6.00616e-07
1.28963e-06
6.18187e-07
1.65794e-06
5.38566e-07
1.89503e-06
4.01789e-07
2.01059e-06
2.52403e-07
1.99196e-06
1.26524e-07
1.83775e-06
4.28137e-08
1.56634e-06
1.58717e-09
1.21622e-06
-8.99627e-09
8.3607e-07
-4.86474e-09
4.70608e-07
1.49297e-07
1.41402e-08
9.35648e-08
5.63326e-08
2.96051e-07
1.2572e-07
5.20415e-07
2.16399e-07
7.27078e-07
3.17555e-07
8.46506e-07
4.12259e-07
7.84045e-07
4.69337e-07
4.49705e-07
4.32503e-07
-1.77527e-07
1.86427e-07
-9.19987e-07
-3.64589e-07
-1.47869e-06
-1.17031e-06
-1.64679e-06
-2.07196e-06
-1.48949e-06
-2.94794e-06
-1.19462e-06
-3.73201e-06
-9.29864e-07
-4.37076e-06
-8.66249e-07
-4.79305e-06
-1.1833e-06
-4.8469e-06
-1.75411e-06
-4.48986e-06
-2.02046e-06
-3.778e-06
-1.81857e-06
-2.77261e-06
-1.14046e-06
-1.84029e-06
-1.78394e-07
-1.21367e-06
6.6301e-07
-8.39377e-07
1.28365e-06
-6.14102e-07
1.66975e-06
-4.89632e-07
1.88612e-06
-4.0785e-07
1.91018e-06
-3.30761e-07
1.76066e-06
-2.45138e-07
1.48071e-06
-1.55867e-07
1.12695e-06
-7.67027e-08
7.56905e-07
-2.14177e-08
4.15323e-07
1.27879e-07
4.00192e-09
8.95629e-08
1.52194e-08
2.84834e-07
3.50255e-08
5.00609e-07
6.46296e-08
6.97474e-07
1.00121e-07
8.11015e-07
1.20402e-07
7.63765e-07
5.89481e-08
5.11159e-07
-2.30572e-07
1.11993e-07
-8.74079e-07
-2.76481e-07
-1.9031e-06
-4.49668e-07
-3.17391e-06
-3.75984e-07
-4.5149e-06
-1.48494e-07
-5.81145e-06
1.01929e-07
-6.98151e-06
2.40196e-07
-7.96801e-06
1.2025e-07
-8.71173e-06
-4.39585e-07
-9.00958e-06
-1.45626e-06
-8.78942e-06
-2.24063e-06
-8.09863e-06
-2.50936e-06
-6.97045e-06
-2.26863e-06
-5.5061e-06
-1.64275e-06
-4.07288e-06
-7.70215e-07
-2.92156e-06
1.32335e-07
-2.07737e-06
8.25559e-07
-1.48939e-06
1.29814e-06
-1.05382e-06
1.47461e-06
-7.16889e-07
1.42374e-06
-4.54795e-07
1.21862e-06
-2.54767e-07
9.26921e-07
-1.13158e-07
6.15296e-07
-2.89293e-08
3.31094e-07
9.89499e-08
-2.90765e-08
1.18639e-07
-1.15051e-07
3.70808e-07
-2.59317e-07
6.44875e-07
-4.619e-07
9.00058e-07
-7.33218e-07
1.08233e-06
-1.11591e-06
1.14645e-06
-1.70092e-06
1.09618e-06
-2.59613e-06
1.0072e-06
-3.84665e-06
9.74034e-07
-5.34551e-06
1.04919e-06
-6.9314e-06
1.2099e-06
-8.47298e-06
1.39309e-06
-9.89779e-06
1.52673e-06
-1.11791e-05
1.52155e-06
-1.22922e-05
1.23331e-06
-1.31684e-05
4.36624e-07
-1.3609e-05
-1.01569e-06
-1.35181e-05
-2.33147e-06
-1.29036e-05
-3.12387e-06
-1.1783e-05
-3.38929e-06
-1.02115e-05
-3.21424e-06
-8.27891e-06
-2.70277e-06
-6.18836e-06
-1.95822e-06
-4.27806e-06
-1.08474e-06
-2.71972e-06
-2.60196e-07
-1.58594e-06
3.40827e-07
-8.50872e-07
6.88664e-07
-4.18778e-07
7.86526e-07
-1.7956e-07
6.87703e-07
-5.904e-08
4.94776e-07
-1.00625e-08
2.82117e-07
8.88874e-08
-6.41322e-08
1.82772e-07
-2.56792e-07
5.63468e-07
-5.86759e-07
9.74841e-07
-1.05835e-06
1.37165e-06
-1.68032e-06
1.7043e-06
-2.47819e-06
1.94432e-06
-3.49015e-06
2.10814e-06
-4.73285e-06
2.2499e-06
-6.17665e-06
2.41783e-06
-7.751e-06
2.62355e-06
-9.38687e-06
2.84577e-06
-1.10359e-05
3.0421e-06
-1.26575e-05
3.14832e-06
-1.41996e-05
3.06367e-06
-1.55901e-05
2.62385e-06
-1.67218e-05
1.56834e-06
-1.73216e-05
-4.15936e-07
-1.73752e-05
-2.27787e-06
-1.69175e-05
-3.58156e-06
-1.59519e-05
-4.35487e-06
-1.44944e-05
-4.67173e-06
-1.25957e-05
-4.60146e-06
-1.03524e-05
-4.20151e-06
-7.90231e-06
-3.53487e-06
-5.47994e-06
-2.68257e-06
-3.40051e-06
-1.7386e-06
-1.84271e-06
-8.69141e-07
-8.37042e-07
-2.19139e-07
-2.97403e-07
1.48065e-07
-6.77765e-08
2.65149e-07
-2.18102e-09
2.16521e-07
8.67064e-08
-6.96678e-08
2.52439e-07
-2.84651e-07
7.78452e-07
-6.63379e-07
1.35357e-06
-1.21894e-06
1.92721e-06
-1.95891e-06
2.44428e-06
-2.88635e-06
2.87175e-06
-3.99723e-06
3.21902e-06
-5.27606e-06
3.52872e-06
-6.69887e-06
3.84064e-06
-8.23881e-06
4.1635e-06
-9.86683e-06
4.4738e-06
-1.15502e-05
4.72542e-06
-1.32501e-05
4.84823e-06
-1.49175e-05
4.73108e-06
-1.6486e-05
4.1924e-06
-1.78557e-05
2.93804e-06
-1.87018e-05
4.30103e-07
-1.89837e-05
-1.99596e-06
-1.88235e-05
-3.74176e-06
-1.82194e-05
-4.95897e-06
-1.71456e-05
-5.74553e-06
-1.55959e-05
-6.15111e-06
-1.36099e-05
-6.18751e-06
-1.12863e-05
-5.85847e-06
-8.78063e-06
-5.18828e-06
-6.27861e-06
-4.24061e-06
-4.01931e-06
-3.12844e-06
-2.23092e-06
-2.00753e-06
-1.02993e-06
-1.05292e-06
-3.60114e-07
-4.0467e-07
-6.72489e-08
-7.63438e-08
1.94575e-08
-3.58263e-08
2.88266e-07
-1.58021e-07
9.00646e-07
-3.93824e-07
1.58937e-06
-7.70089e-07
2.30348e-06
-1.30606e-06
2.98025e-06
-2.0057e-06
3.5714e-06
-2.8551e-06
4.06842e-06
-3.82877e-06
4.50238e-06
-4.90096e-06
4.91284e-06
-6.05181e-06
5.31435e-06
-7.265e-06
5.68698e-06
-8.52271e-06
5.98313e-06
-9.80342e-06
6.12893e-06
-1.10823e-05
6.00993e-06
-1.23322e-05
5.44233e-06
-1.35207e-05
4.12654e-06
-1.44654e-05
1.37479e-06
-1.50132e-05
-1.44812e-06
-1.53013e-05
-3.4537e-06
-1.53452e-05
-4.91509e-06
-1.50711e-05
-6.01964e-06
-1.43891e-05
-6.83307e-06
-1.3242e-05
-7.3346e-06
-1.16379e-05
-7.46254e-06
-9.65855e-06
-7.16765e-06
-7.45672e-06
-6.44244e-06
-5.24165e-06
-5.34351e-06
-3.24808e-06
-4.00109e-06
-1.68286e-06
-2.61814e-06
-6.5872e-07
-1.42881e-06
-1.40683e-07
-5.94381e-07
-1.21225e-07
1.02376e-09
2.87242e-07
-1.43292e-08
9.15999e-07
-7.35616e-08
1.64861e-06
-2.10052e-07
2.43997e-06
-4.54994e-07
3.22519e-06
-8.2485e-07
3.94126e-06
-1.31131e-06
4.55488e-06
-1.88419e-06
5.07526e-06
-2.51114e-06
5.53979e-06
-3.16713e-06
5.97034e-06
-3.83469e-06
6.35455e-06
-4.49965e-06
6.64808e-06
-5.14878e-06
6.77806e-06
-5.77017e-06
6.63132e-06
-6.3557e-06
6.02786e-06
-6.9188e-06
4.68963e-06
-7.46869e-06
1.92468e-06
-7.97935e-06
-9.37459e-07
-8.50741e-06
-2.92564e-06
-9.05846e-06
-4.36404e-06
-9.53528e-06
-5.54282e-06
-9.8011e-06
-6.56725e-06
-9.7079e-06
-7.4278e-06
-9.16188e-06
-8.00856e-06
-8.14516e-06
-8.18438e-06
-6.7276e-06
-7.86e-06
-5.05832e-06
-7.0128e-06
-3.35149e-06
-5.70792e-06
-1.85313e-06
-4.1165e-06
-7.69131e-07
-2.51282e-06
-1.73532e-07
-1.18998e-06
-2.94757e-07
2.25649e-08
2.64677e-07
7.34602e-08
8.65104e-07
1.30083e-07
1.59198e-06
1.60391e-07
2.40966e-06
1.29218e-07
3.25636e-06
1.05444e-08
4.05993e-06
-1.9792e-07
4.76335e-06
-4.72828e-07
5.35017e-06
-7.76246e-07
5.84321e-06
-1.07344e-06
6.26754e-06
-1.3412e-06
6.62231e-06
-1.56642e-06
6.8733e-06
-1.74319e-06
6.95484e-06
-1.87255e-06
6.76068e-06
-1.96141e-06
6.11672e-06
-2.01874e-06
4.74697e-06
-2.17261e-06
2.07854e-06
-2.55534e-06
-5.54725e-07
-3.11323e-06
-2.36775e-06
-3.82464e-06
-3.65263e-06
-4.63581e-06
-4.73165e-06
-5.45214e-06
-5.75092e-06
-6.08287e-06
-6.79707e-06
-6.36502e-06
-7.7264e-06
-6.18967e-06
-8.35973e-06
-5.54023e-06
-8.50944e-06
-4.48843e-06
-8.06461e-06
-3.1934e-06
-7.00295e-06
-1.88782e-06
-5.42207e-06
-8.29765e-07
-3.57088e-06
-1.96494e-07
-1.82325e-06
-4.91251e-07
3.06186e-08
2.34058e-07
1.11391e-07
7.84331e-07
2.271e-07
1.47627e-06
3.51634e-07
2.28512e-06
4.53359e-07
3.15464e-06
5.05403e-07
4.00788e-06
4.96749e-07
4.772e-06
4.41156e-07
5.40576e-06
3.7395e-07
5.91041e-06
3.3428e-07
6.30721e-06
3.50302e-07
6.60629e-06
4.34707e-07
6.78889e-06
5.86101e-07
6.80345e-06
7.89957e-07
6.55682e-06
1.01786e-06
5.88882e-06
1.23526e-06
4.52956e-06
1.25562e-06
2.05818e-06
9.4708e-07
-2.46185e-07
4.2584e-07
-1.84651e-06
-2.57066e-07
-2.96973e-06
-1.09062e-06
-3.8981e-06
-2.05252e-06
-4.78902e-06
-3.01457e-06
-5.83503e-06
-3.80714e-06
-6.93383e-06
-4.23972e-06
-7.92715e-06
-4.22041e-06
-8.52875e-06
-3.73833e-06
-8.54669e-06
-2.8795e-06
-7.86178e-06
-1.82995e-06
-6.47163e-06
-8.55437e-07
-4.54539e-06
-2.12159e-07
-2.46653e-06
-7.0341e-07
2.98574e-08
2.04201e-07
1.14656e-07
6.99533e-07
2.47405e-07
1.34353e-06
4.10456e-07
2.12207e-06
5.79159e-07
2.98593e-06
7.3052e-07
3.85652e-06
8.53553e-07
4.64897e-06
9.56857e-07
5.30246e-06
1.06848e-06
5.79879e-06
1.22329e-06
6.1524e-06
1.44754e-06
6.38203e-06
1.75021e-06
6.48622e-06
2.12199e-06
6.43167e-06
2.53605e-06
6.14277e-06
2.94448e-06
5.48038e-06
3.26255e-06
4.2115e-06
3.2877e-06
2.03303e-06
2.98727e-06
5.42495e-08
2.48235e-06
-1.34159e-06
1.85469e-06
-2.34207e-06
1.11669e-06
-3.1601e-06
2.61556e-07
-3.93388e-06
-7.14092e-07
-4.85938e-06
-1.71434e-06
-5.93358e-06
-2.51137e-06
-7.13012e-06
-2.95303e-06
-8.08709e-06
-2.94738e-06
-8.55234e-06
-2.4995e-06
-8.30965e-06
-1.72741e-06
-7.24372e-06
-8.68411e-07
-5.40438e-06
-2.2712e-07
-3.10782e-06
-9.30529e-07
2.39863e-08
1.80215e-07
9.58691e-08
6.2765e-07
2.15749e-07
1.22365e-06
3.75933e-07
1.96189e-06
5.62371e-07
2.79949e-06
7.60784e-07
3.65811e-06
9.64705e-07
4.44505e-06
1.18112e-06
5.08604e-06
1.42997e-06
5.54994e-06
1.73546e-06
5.84691e-06
2.11441e-06
6.00308e-06
2.56811e-06
6.03252e-06
3.07994e-06
5.91984e-06
3.61434e-06
5.60837e-06
4.11036e-06
4.98436e-06
4.46079e-06
3.86107e-06
4.49539e-06
1.99842e-06
4.21323e-06
3.36418e-07
3.70725e-06
-8.35614e-07
3.07989e-06
-1.71471e-06
2.38385e-06
-2.46405e-06
1.6537e-06
-3.20374e-06
8.31447e-07
-4.03712e-06
-9.29043e-08
-5.00923e-06
-1.04445e-06
-6.17857e-06
-1.78648e-06
-7.34506e-06
-2.16e-06
-8.17883e-06
-2.08455e-06
-8.3851e-06
-1.59681e-06
-7.73145e-06
-8.77868e-07
-6.12333e-06
-2.46334e-07
-3.73935e-06
-1.17686e-06
1.4428e-08
1.65787e-07
6.07266e-08
5.81351e-07
1.45343e-07
1.13903e-06
2.72604e-07
1.83463e-06
4.42906e-07
2.62919e-06
6.53796e-07
3.44722e-06
9.05817e-07
4.19303e-06
1.20504e-06
4.78682e-06
1.56182e-06
5.19316e-06
1.98557e-06
5.42315e-06
2.47919e-06
5.50947e-06
3.03451e-06
5.4772e-06
3.62939e-06
5.32497e-06
4.22444e-06
5.01332e-06
4.75466e-06
4.45414e-06
5.11108e-06
3.50465e-06
5.15362e-06
1.95589e-06
4.9093e-06
5.80738e-07
4.46023e-06
-3.86539e-07
3.88737e-06
-1.14185e-06
3.24046e-06
-1.81715e-06
2.55382e-06
-2.51711e-06
1.83279e-06
-3.31609e-06
1.06874e-06
-4.24518e-06
1.91265e-07
-5.30109e-06
-6.95841e-07
-6.45795e-06
-1.36186e-06
-7.51281e-06
-1.6246e-06
-8.12236e-06
-1.42931e-06
-7.92674e-06
-8.7971e-07
-6.67293e-06
-2.72708e-07
-4.34636e-06
-1.44957e-06
1.00553e-10
1.65686e-07
7.01058e-09
5.74441e-07
3.66545e-08
1.10938e-06
1.11135e-07
1.76015e-06
2.48141e-07
2.49219e-06
4.56272e-07
3.23909e-06
7.40571e-07
3.90873e-06
1.1052e-06
4.4222e-06
1.54881e-06
4.74954e-06
2.06386e-06
4.90811e-06
2.63887e-06
4.93445e-06
3.25752e-06
4.85855e-06
3.89507e-06
4.68741e-06
4.51322e-06
4.39518e-06
5.0507e-06
3.91666e-06
5.41068e-06
3.14466e-06
5.48257e-06
1.884e-06
5.3035e-06
7.59811e-07
4.94722e-06
-3.02558e-08
4.47441e-06
-6.69044e-07
3.91985e-06
-1.26258e-06
3.30947e-06
-1.90672e-06
2.65353e-06
-2.66015e-06
1.95066e-06
-3.54231e-06
1.18539e-06
-4.53583e-06
3.23191e-07
-5.59575e-06
-5.21447e-07
-6.66817e-06
-1.09364e-06
-7.55017e-06
-1.20449e-06
-7.81589e-06
-8.62092e-07
-7.01532e-06
-3.07375e-07
-4.90107e-06
-1.75695e-06
-2.11366e-08
1.86823e-07
-6.94172e-08
6.22722e-07
-1.11179e-07
1.15115e-06
-1.0002e-07
1.74899e-06
2.81926e-09
2.38935e-06
2.09326e-07
3.03258e-06
5.2382e-07
3.59423e-06
9.45458e-07
4.00056e-06
1.45914e-06
4.23586e-06
2.04116e-06
4.32609e-06
2.66916e-06
4.30645e-06
3.32237e-06
4.20535e-06
3.97702e-06
4.03275e-06
4.59985e-06
3.77236e-06
5.13893e-06
3.37757e-06
5.516e-06
2.76759e-06
5.64304e-06
1.75696e-06
5.56178e-06
8.41074e-07
5.32485e-06
2.06675e-07
4.97331e-06
-3.17503e-07
4.53945e-06
-8.28721e-07
4.03426e-06
-1.40154e-06
3.45715e-06
-2.08304e-06
2.80253e-06
-2.88769e-06
2.06493e-06
-3.79823e-06
1.24498e-06
-4.7758e-06
3.51886e-07
-5.77508e-06
-4.62489e-07
-6.73579e-06
-8.97762e-07
-7.38062e-06
-8.08199e-07
-7.10489e-06
-3.47824e-07
-5.36145e-06
-2.10477e-06
-5.61695e-08
2.42992e-07
-1.78739e-07
7.45291e-07
-2.99545e-07
1.27195e-06
-3.46903e-07
1.79635e-06
-2.71305e-07
2.31375e-06
-4.99415e-08
2.81122e-06
3.04841e-07
3.23945e-06
7.81574e-07
3.52383e-06
1.35162e-06
3.66582e-06
1.98019e-06
3.69752e-06
2.64037e-06
3.64626e-06
3.31155e-06
3.53416e-06
3.97393e-06
3.37038e-06
4.60159e-06
3.1447e-06
5.15438e-06
2.82478e-06
5.57234e-06
2.34963e-06
5.77786e-06
1.55143e-06
5.80045e-06
8.18488e-07
5.68841e-06
3.18719e-07
5.47195e-06
-1.01045e-07
5.16999e-06
-5.26763e-07
4.78028e-06
-1.01183e-06
4.29077e-06
-1.59354e-06
3.68827e-06
-2.28519e-06
2.96657e-06
-3.07654e-06
2.1336e-06
-3.94282e-06
1.21552e-06
-4.857e-06
2.68516e-07
-5.78879e-06
-4.79771e-07
-6.63233e-06
-6.9426e-07
-6.8904e-06
-3.84288e-07
-5.67142e-06
-2.48906e-06
-1.15211e-07
3.58204e-07
-3.30289e-07
9.60369e-07
-5.20458e-07
1.46212e-06
-5.96763e-07
1.87265e-06
-5.14809e-07
2.2318e-06
-2.64102e-07
2.56051e-06
1.43193e-07
2.83215e-06
6.7861e-07
2.98841e-06
1.29596e-06
3.04846e-06
1.95927e-06
3.03421e-06
2.64361e-06
2.96193e-06
3.33159e-06
2.84619e-06
4.00823e-06
2.69373e-06
4.65451e-06
2.49842e-06
5.24045e-06
2.23884e-06
5.71914e-06
1.87094e-06
6.0125e-06
1.25807e-06
6.13568e-06
6.95303e-07
6.13692e-06
3.17481e-07
6.04014e-06
-4.26683e-09
5.85264e-06
-3.39257e-07
5.56378e-06
-7.22963e-07
5.15453e-06
-1.18429e-06
4.60521e-06
-1.73586e-06
3.9044e-06
-2.37573e-06
3.05703e-06
-3.09545e-06
2.08934e-06
-3.88932e-06
1.05733e-06
-4.75678e-06
8.60334e-08
-5.66104e-06
-4.85552e-07
-6.31881e-06
-3.96683e-07
-5.76029e-06
-2.88574e-06
-2.07156e-07
5.6536e-07
-5.15801e-07
1.26901e-06
-7.34095e-07
1.68042e-06
-7.83631e-07
1.92219e-06
-6.46882e-07
2.09505e-06
-3.31762e-07
2.24539e-06
1.48342e-07
2.35205e-06
7.46191e-07
2.39056e-06
1.40855e-06
2.38611e-06
2.10649e-06
2.33627e-06
2.81934e-06
2.24907e-06
3.53263e-06
2.13289e-06
4.23414e-06
1.99223e-06
4.90849e-06
1.82407e-06
5.53172e-06
1.61561e-06
6.06406e-06
1.33861e-06
6.42416e-06
8.97964e-07
6.61894e-06
5.00531e-07
6.7001e-06
2.3632e-07
6.68584e-06
9.98925e-09
6.57592e-06
-2.29334e-07
6.35835e-06
-5.05391e-07
6.01229e-06
-8.38239e-07
5.5148e-06
-1.23837e-06
4.84835e-06
-1.70927e-06
4.00836e-06
-2.25546e-06
3.01009e-06
-2.89105e-06
1.89682e-06
-3.64351e-06
7.66674e-07
-4.53089e-06
-1.31175e-07
-5.42097e-06
-3.54066e-07
-5.5374e-06
-3.23981e-06
-3.25138e-07
8.90498e-07
-6.83782e-07
1.62766e-06
-8.31476e-07
1.82811e-06
-7.58245e-07
1.84896e-06
-4.94676e-07
1.83148e-06
-5.84382e-08
1.80916e-06
5.18087e-07
1.77553e-06
1.17609e-06
1.73256e-06
1.88379e-06
1.6784e-06
2.61673e-06
1.60333e-06
3.35622e-06
1.50958e-06
4.08823e-06
1.40089e-06
4.80044e-06
1.28002e-06
5.47839e-06
1.14611e-06
6.10153e-06
9.92473e-07
6.63598e-06
8.04157e-07
7.00589e-06
5.28054e-07
7.21911e-06
2.87309e-07
7.32752e-06
1.27912e-07
7.34733e-06
-9.82239e-09
7.27542e-06
-1.57423e-07
7.10004e-06
-3.30006e-07
6.80209e-06
-5.40292e-07
6.35879e-06
-7.95073e-07
5.74863e-06
-1.0991e-06
4.95603e-06
-1.46286e-06
3.97702e-06
-1.91205e-06
2.82946e-06
-2.49594e-06
1.57847e-06
-3.2799e-06
4.07955e-07
-4.25045e-06
-2.15413e-07
-4.91403e-06
-3.45522e-06
-4.43283e-07
1.33378e-06
-6.80172e-07
1.86455e-06
-5.5475e-07
1.70269e-06
-2.07274e-07
1.50148e-06
2.8104e-07
1.34316e-06
8.73206e-07
1.21699e-06
1.5349e-06
1.11383e-06
2.2404e-06
1.02706e-06
2.96913e-06
9.49672e-07
3.70067e-06
8.71796e-07
4.41842e-06
7.91826e-07
5.10906e-06
7.10243e-07
5.76121e-06
6.27875e-07
6.36315e-06
5.44175e-07
6.89989e-06
4.55734e-07
7.34777e-06
3.56278e-07
7.65119e-06
2.24632e-07
7.82385e-06
1.14651e-07
7.91074e-06
4.10143e-08
7.92434e-06
-2.34206e-08
7.8611e-06
-9.41844e-08
7.71126e-06
-1.8016e-07
7.45808e-06
-2.87109e-07
7.08117e-06
-4.18172e-07
6.55878e-06
-5.76707e-07
5.86821e-06
-7.72296e-07
4.98599e-06
-1.02983e-06
3.89158e-06
-1.40153e-06
2.58824e-06
-1.97656e-06
1.18785e-06
-2.85006e-06
1.15791e-07
-3.84197e-06
-3.33943e-06
-3.75733e-07
1.70951e-06
1.86311e-08
1.47018e-06
7.27427e-07
9.93893e-07
1.43921e-06
7.89698e-07
2.14006e-06
6.42315e-07
2.83551e-06
5.21542e-07
3.51868e-06
4.30654e-07
4.18304e-06
3.62698e-07
4.82275e-06
3.0996e-07
5.42877e-06
2.65777e-07
5.99319e-06
2.27414e-07
6.50996e-06
1.93469e-07
6.97478e-06
1.63058e-07
7.3838e-06
1.3515e-07
7.73152e-06
1.08017e-07
8.00794e-06
7.98513e-08
8.18595e-06
4.66224e-08
8.28053e-06
2.0075e-08
8.31997e-06
1.57695e-09
8.31183e-06
-1.52874e-08
8.25272e-06
-3.50681e-08
8.13349e-06
-6.09284e-08
7.94061e-06
-9.42373e-08
7.6582e-06
-1.35758e-07
7.2683e-06
-1.86809e-07
6.74819e-06
-2.52185e-07
6.06408e-06
-3.45722e-07
5.16269e-06
-5.00134e-07
3.96748e-06
-7.81348e-07
2.41844e-06
-1.30103e-06
7.46262e-07
-2.16979e-06
-2.59317e-06
1.70951e-06
3.1797e-06
4.17359e-06
4.96329e-06
5.6056e-06
6.12714e-06
6.5578e-06
6.9205e-06
7.23046e-06
7.49623e-06
7.72365e-06
7.91712e-06
8.08017e-06
8.21532e-06
8.32334e-06
8.40319e-06
8.44981e-06
8.46989e-06
8.47147e-06
8.45618e-06
8.42111e-06
8.36018e-06
8.26595e-06
8.13019e-06
7.94338e-06
7.69119e-06
7.34547e-06
6.84534e-06
6.06399e-06
4.76296e-06
2.59317e-06
)
;

boundaryField
{
    movingWall
    {
        type            calculated;
        value           uniform 0;
    }
    fixedWalls
    {
        type            calculated;
        value           uniform 0;
    }
    floor
    {
        type            calculated;
        value           uniform 0;
    }
    frontAndBack
    {
        type            empty;
        value           nonuniform List<scalar> 0();
    }
}


// ************************************************************************* //
