/*--------------------------------*- C++ -*----------------------------------*\
| =========                 |                                                 |
| \\      /  F ield         | OpenFOAM: The Open Source CFD Toolbox           |
|  \\    /   O peration     | Version:  2212                                  |
|   \\  /    A nd           | Website:  www.openfoam.com                      |
|    \\/     M anipulation  |                                                 |
\*---------------------------------------------------------------------------*/
FoamFile
{
    version     2.0;
    format      ascii;
    arch        "LSB;label=64;scalar=64";
    class       volScalarField;
    location    "1480";
    object      Xpr;
}
// * * * * * * * * * * * * * * * * * * * * * * * * * * * * * * * * * * * * * //

dimensions      [1 -3 0 0 0 0 0];

internalField   nonuniform List<scalar> 
1024
(
0.0816853
0.0816863
0.0816889
0.0816936
0.0817012
0.0817122
0.081727
0.0817457
0.0817674
0.0817909
0.0818142
0.0818351
0.0818517
0.0818627
0.081867
0.0818636
0.0818511
0.0818296
0.0818012
0.0817669
0.0817285
0.0816886
0.0816498
0.0816146
0.0815847
0.0815608
0.0815428
0.0815299
0.0815213
0.0815159
0.081513
0.0815118
0.0816856
0.0816867
0.0816893
0.0816941
0.0817017
0.0817129
0.0817279
0.0817468
0.0817688
0.0817925
0.0818159
0.0818368
0.0818534
0.0818643
0.0818685
0.0818651
0.0818526
0.0818312
0.0818027
0.0817685
0.0817301
0.0816901
0.0816512
0.0816158
0.0815857
0.0815616
0.0815433
0.0815303
0.0815216
0.0815162
0.0815133
0.0815121
0.0816864
0.0816875
0.0816902
0.0816951
0.081703
0.0817145
0.0817299
0.0817493
0.0817718
0.081796
0.0818199
0.0818411
0.0818576
0.0818683
0.0818723
0.0818687
0.0818561
0.0818347
0.0818062
0.0817719
0.0817336
0.0816934
0.0816542
0.0816184
0.0815878
0.0815632
0.0815446
0.0815313
0.0815224
0.0815169
0.0815139
0.0815127
0.0816879
0.081689
0.0816918
0.0816969
0.0817051
0.081717
0.0817331
0.0817533
0.0817768
0.0818022
0.0818272
0.081849
0.0818656
0.0818759
0.0818793
0.0818752
0.0818623
0.0818407
0.081812
0.0817776
0.081739
0.0816986
0.0816589
0.0816225
0.0815912
0.0815659
0.0815467
0.0815329
0.0815237
0.081518
0.0815149
0.0815137
0.0816902
0.0816914
0.0816942
0.0816995
0.0817081
0.0817206
0.0817376
0.0817591
0.0817842
0.0818116
0.0818387
0.0818619
0.0818787
0.0818883
0.0818907
0.0818856
0.081872
0.0818497
0.0818204
0.0817855
0.0817465
0.0817055
0.0816652
0.0816279
0.0815957
0.0815695
0.0815496
0.0815353
0.0815257
0.0815198
0.0815166
0.0815153
0.0816938
0.081695
0.0816979
0.0817034
0.0817123
0.0817256
0.0817437
0.081767
0.0817947
0.0818253
0.0818556
0.081881
0.0818984
0.0819072
0.081908
0.0819013
0.0818863
0.0818626
0.0818319
0.0817958
0.0817558
0.0817139
0.0816727
0.0816344
0.0816011
0.081574
0.0815532
0.0815383
0.0815283
0.0815222
0.0815189
0.0815176
0.0816992
0.0817003
0.0817033
0.0817089
0.0817182
0.0817323
0.081752
0.0817777
0.081809
0.081844
0.0818789
0.0819077
0.0819262
0.081934
0.0819327
0.0819238
0.0819066
0.0818804
0.0818471
0.0818085
0.0817667
0.0817234
0.0816808
0.0816414
0.081607
0.0815789
0.0815574
0.081542
0.0815317
0.0815254
0.081522
0.0815206
0.0817073
0.0817083
0.0817113
0.081717
0.0817267
0.0817417
0.0817632
0.0817921
0.0818281
0.081869
0.0819098
0.0819429
0.0819631
0.0819701
0.0819666
0.081955
0.0819348
0.0819046
0.0818669
0.0818243
0.0817791
0.0817333
0.081689
0.0816482
0.0816128
0.0815839
0.0815619
0.0815462
0.0815358
0.0815295
0.0815261
0.0815248
0.0817196
0.0817206
0.0817235
0.0817292
0.0817394
0.0817555
0.0817793
0.081812
0.0818536
0.0819016
0.0819493
0.0819875
0.08201
0.0820166
0.0820112
0.0819971
0.0819733
0.0819378
0.0818935
0.0818443
0.0817938
0.081744
0.081697
0.0816544
0.0816181
0.0815889
0.0815669
0.0815513
0.0815412
0.0815352
0.081532
0.0815308
0.0817387
0.0817397
0.0817425
0.0817484
0.0817591
0.0817766
0.0818031
0.0818403
0.0818884
0.081944
0.081999
0.0820426
0.0820679
0.082075
0.082069
0.0820536
0.0820267
0.0819848
0.0819315
0.0818728
0.081814
0.081758
0.0817067
0.0816618
0.0816244
0.0815952
0.0815737
0.081559
0.0815498
0.0815445
0.081542
0.0815411
0.0817683
0.0817693
0.0817723
0.0817786
0.0817902
0.0818095
0.0818392
0.0818815
0.0819364
0.0819996
0.0820614
0.08211
0.0821386
0.082148
0.0821443
0.0821309
0.0821034
0.0820558
0.0819923
0.0819211
0.0818503
0.0817845
0.0817261
0.081677
0.0816378
0.0816085
0.0815881
0.081575
0.0815675
0.0815637
0.0815623
0.0815619
0.0818129
0.081814
0.0818173
0.0818243
0.0818375
0.0818594
0.0818932
0.081941
0.0820026
0.0820725
0.0821399
0.0821931
0.0822261
0.0822413
0.0822455
0.0822408
0.0822193
0.0821714
0.0821009
0.0820171
0.081931
0.0818505
0.0817799
0.0817221
0.0816779
0.0816468
0.0816269
0.0816158
0.0816107
0.0816094
0.0816098
0.0816104
0.0818755
0.0818769
0.0818809
0.0818894
0.0819049
0.0819305
0.0819694
0.0820235
0.0820916
0.0821672
0.0822392
0.0822972
0.0823378
0.0823654
0.0823866
0.0824016
0.0823993
0.0823659
0.0823018
0.0822158
0.082119
0.0820218
0.0819324
0.0818573
0.0817995
0.0817599
0.0817361
0.0817246
0.0817211
0.0817219
0.0817242
0.0817259
0.0819553
0.0819571
0.0819622
0.0819728
0.081992
0.082023
0.0820689
0.0821308
0.0822061
0.0822872
0.082364
0.0824292
0.0824833
0.0825321
0.0825811
0.0826294
0.0826646
0.0826691
0.0826387
0.082578
0.0824947
0.0823977
0.082297
0.082202
0.0821205
0.0820582
0.082016
0.0819918
0.0819812
0.0819788
0.0819801
0.0819817
0.082043
0.0820452
0.0820512
0.0820639
0.0820863
0.0821221
0.0821739
0.0822421
0.0823235
0.0824111
0.0824971
0.0825773
0.0826532
0.0827303
0.0828124
0.0828994
0.0829802
0.0830375
0.0830648
0.0830627
0.0830324
0.0829772
0.0829023
0.0828153
0.0827255
0.082642
0.0825721
0.0825202
0.0824869
0.082469
0.0824615
0.0824596
0.0821261
0.0821283
0.0821346
0.0821479
0.0821715
0.0822091
0.0822634
0.0823351
0.0824215
0.082517
0.082615
0.0827114
0.0828066
0.0829033
0.0830035
0.0831068
0.0832061
0.0832923
0.0833642
0.0834211
0.0834598
0.0834771
0.083471
0.0834424
0.0833947
0.0833347
0.0832709
0.0832124
0.0831657
0.0831339
0.0831162
0.0831094
0.0821904
0.0821925
0.0821984
0.0822109
0.0822331
0.0822687
0.0823208
0.0823905
0.0824764
0.0825739
0.0826765
0.0827786
0.082877
0.0829706
0.0830578
0.0831371
0.0832064
0.0832725
0.0833448
0.0834236
0.0835028
0.083575
0.0836336
0.0836742
0.0836948
0.0836963
0.0836824
0.083659
0.0836332
0.0836111
0.0835964
0.0835897
0.0822312
0.0822332
0.0822386
0.0822496
0.0822693
0.0823008
0.0823473
0.0824108
0.0824905
0.0825828
0.0826816
0.0827797
0.0828712
0.0829512
0.0830157
0.0830618
0.0830918
0.0831251
0.0831804
0.0832601
0.0833566
0.0834586
0.0835548
0.083637
0.0837004
0.0837438
0.0837686
0.0837785
0.0837783
0.0837734
0.083768
0.0837649
0.0822544
0.0822562
0.082261
0.0822707
0.0822876
0.0823147
0.0823549
0.0824104
0.0824812
0.0825647
0.0826553
0.0827458
0.0828286
0.0828971
0.082946
0.0829722
0.0829806
0.0829954
0.0830378
0.083114
0.0832189
0.0833413
0.0834663
0.0835806
0.0836749
0.0837452
0.0837919
0.0838188
0.0838311
0.0838344
0.0838337
0.0838325
0.0822667
0.0822683
0.0822726
0.0822809
0.0822954
0.0823184
0.0823525
0.0823999
0.0824611
0.0825343
0.0826149
0.0826962
0.0827706
0.0828313
0.0828726
0.0828924
0.0828966
0.0829083
0.082946
0.0830172
0.0831208
0.0832492
0.0833892
0.0835258
0.0836455
0.0837401
0.0838071
0.083849
0.0838709
0.0838796
0.0838813
0.0838807
0.0822738
0.0822752
0.0822787
0.0822856
0.0822977
0.0823169
0.0823455
0.0823854
0.0824374
0.0825001
0.0825701
0.0826418
0.0827086
0.0827645
0.0828048
0.0828281
0.0828408
0.082861
0.0829025
0.0829723
0.0830719
0.0831973
0.0833396
0.0834856
0.0836206
0.0837334
0.0838178
0.0838736
0.0839053
0.0839194
0.0839234
0.0839234
0.0822826
0.0822834
0.0822856
0.0822905
0.0822996
0.0823149
0.0823382
0.0823713
0.0824148
0.0824679
0.0825282
0.0825914
0.0826526
0.0827071
0.0827517
0.0827861
0.0828153
0.0828506
0.0829007
0.0829721
0.0830675
0.0831861
0.0833225
0.0834669
0.0836068
0.0837298
0.0838269
0.0838948
0.0839356
0.0839554
0.0839618
0.0839624
0.0823016
0.0823013
0.0823013
0.082303
0.082308
0.0823184
0.0823363
0.082363
0.0823994
0.082445
0.0824982
0.0825562
0.0826155
0.082673
0.0827265
0.0827767
0.0828258
0.0828776
0.0829369
0.0830097
0.0831
0.0832093
0.0833352
0.0834709
0.0836069
0.083732
0.0838363
0.0839133
0.0839623
0.0839877
0.0839969
0.0839981
0.0823398
0.0823378
0.0823346
0.0823317
0.0823314
0.0823362
0.0823486
0.0823702
0.0824019
0.0824435
0.0824941
0.0825516
0.0826138
0.0826783
0.0827436
0.0828103
0.0828775
0.0829428
0.0830085
0.0830805
0.0831637
0.0832614
0.0833734
0.0834959
0.0836219
0.0837424
0.0838479
0.0839304
0.083986
0.0840167
0.0840287
0.0840307
0.0824054
0.0824012
0.0823939
0.082386
0.0823803
0.0823801
0.0823885
0.0824077
0.0824385
0.0824808
0.0825337
0.0825952
0.0826635
0.0827363
0.0828123
0.082892
0.0829714
0.0830442
0.0831116
0.0831797
0.0832538
0.0833379
0.0834337
0.0835398
0.0836515
0.0837623
0.0838637
0.0839474
0.0840074
0.0840425
0.0840575
0.0840604
0.082504
0.0824973
0.0824862
0.0824744
0.0824658
0.0824641
0.0824726
0.0824936
0.0825278
0.0825746
0.0826325
0.0826994
0.0827732
0.0828518
0.0829338
0.0830192
0.0831028
0.0831762
0.0832405
0.0833017
0.0833651
0.0834348
0.0835134
0.0836011
0.0836957
0.0837927
0.0838854
0.083966
0.0840273
0.0840656
0.0840832
0.0840872
0.082639
0.0826298
0.0826167
0.0826051
0.0825992
0.0826019
0.0826158
0.0826428
0.0826827
0.0827345
0.0827961
0.0828655
0.0829405
0.083019
0.0830998
0.0831829
0.0832624
0.0833304
0.0833876
0.0834398
0.0834917
0.0835472
0.0836089
0.0836781
0.083754
0.0838344
0.0839145
0.0839878
0.084047
0.0840866
0.0841062
0.0841113
0.0828121
0.0828013
0.0827904
0.0827855
0.0827893
0.0828022
0.0828251
0.082859
0.0829031
0.0829562
0.0830168
0.0830828
0.0831524
0.0832241
0.0832966
0.0833701
0.0834393
0.0834972
0.0835447
0.0835867
0.0836272
0.0836694
0.0837155
0.0837672
0.0838247
0.0838872
0.083952
0.0840144
0.0840678
0.084106
0.0841267
0.0841327
0.0830258
0.0830161
0.0830136
0.083022
0.0830395
0.0830638
0.0830944
0.0831314
0.0831745
0.0832231
0.0832762
0.0833325
0.0833907
0.0834497
0.0835086
0.0835675
0.0836223
0.0836676
0.0837041
0.0837357
0.0837653
0.0837955
0.083828
0.0838643
0.0839049
0.0839497
0.0839979
0.0840466
0.0840909
0.0841249
0.0841449
0.0841515
0.0832859
0.0832821
0.0832939
0.0833163
0.0833438
0.0833736
0.0834049
0.0834383
0.0834739
0.083512
0.0835523
0.0835941
0.0836367
0.0836794
0.0837217
0.0837636
0.0838022
0.0838338
0.0838591
0.0838805
0.0839003
0.0839201
0.0839411
0.0839643
0.0839903
0.0840194
0.0840513
0.084085
0.0841174
0.0841442
0.0841613
0.0841678
0.0836031
0.0836106
0.083633
0.0836583
0.0836835
0.0837078
0.083731
0.0837538
0.0837767
0.0838004
0.0838248
0.0838498
0.0838751
0.0839003
0.083925
0.0839494
0.0839717
0.08399
0.0840044
0.0840166
0.0840277
0.0840386
0.0840501
0.0840626
0.0840766
0.0840924
0.0841099
0.0841288
0.0841479
0.0841648
0.0841767
0.0841818
0.0839904
0.0839964
0.0840079
0.0840189
0.0840291
0.0840384
0.084047
0.084055
0.0840628
0.0840707
0.0840788
0.084087
0.0840952
0.0841034
0.0841114
0.0841192
0.0841264
0.0841323
0.0841369
0.0841408
0.0841443
0.0841478
0.0841513
0.0841552
0.0841596
0.0841644
0.0841698
0.0841757
0.0841818
0.0841875
0.0841918
0.0841938
)
;

boundaryField
{
    movingWall
    {
        type            fixedValue;
        value           uniform 0.0842;
    }
    fixedWalls
    {
        type            zeroGradient;
    }
    floor
    {
        type            zeroGradient;
    }
    frontAndBack
    {
        type            empty;
    }
}


// ************************************************************************* //
