/*--------------------------------*- C++ -*----------------------------------*\
| =========                 |                                                 |
| \\      /  F ield         | OpenFOAM: The Open Source CFD Toolbox           |
|  \\    /   O peration     | Version:  2212                                  |
|   \\  /    A nd           | Website:  www.openfoam.com                      |
|    \\/     M anipulation  |                                                 |
\*---------------------------------------------------------------------------*/
FoamFile
{
    version     2.0;
    format      ascii;
    arch        "LSB;label=64;scalar=64";
    class       volScalarField::Internal;
    location    "220";
    object      dGch4;
}
// * * * * * * * * * * * * * * * * * * * * * * * * * * * * * * * * * * * * * //

dimensions      [1 -3 -1 0 0 0 0];

value           nonuniform List<scalar> 
1024
(
0.00107801
0.00107811
0.00107834
0.00107874
0.00107933
0.00108011
0.00108103
0.001082
0.00108296
0.00108385
0.00108464
0.00108531
0.00108579
0.00108597
0.00108566
0.00108457
0.00108255
0.00108013
0.00107783
0.00107581
0.00107413
0.00107274
0.0010716
0.00107065
0.00106984
0.00106912
0.0010685
0.00106799
0.00106761
0.00106734
0.00106719
0.00106713
0.00107804
0.00107814
0.00107838
0.0010788
0.00107941
0.00108021
0.00108115
0.00108213
0.00108309
0.00108397
0.00108477
0.00108544
0.00108592
0.00108611
0.00108581
0.00108471
0.00108268
0.00108024
0.00107792
0.0010759
0.00107421
0.00107281
0.00107167
0.00107072
0.0010699
0.00106918
0.00106855
0.00106803
0.00106764
0.00106736
0.0010672
0.00106714
0.0010781
0.00107821
0.00107847
0.00107892
0.00107958
0.00108042
0.00108138
0.00108238
0.00108334
0.00108422
0.00108502
0.00108571
0.00108622
0.00108645
0.00108619
0.0010851
0.00108303
0.00108052
0.00107815
0.0010761
0.00107439
0.00107298
0.00107182
0.00107085
0.00107002
0.00106928
0.00106864
0.0010681
0.00106768
0.00106739
0.00106722
0.00106715
0.0010782
0.00107832
0.00107861
0.0010791
0.00107982
0.00108072
0.00108172
0.00108273
0.00108369
0.00108459
0.00108541
0.00108614
0.00108674
0.00108707
0.00108691
0.00108586
0.00108369
0.00108104
0.00107855
0.00107645
0.00107469
0.00107324
0.00107204
0.00107104
0.00107017
0.00106941
0.00106874
0.00106818
0.00106774
0.00106743
0.00106725
0.00106717
0.00107833
0.00107846
0.00107878
0.00107933
0.00108011
0.00108107
0.0010821
0.00108313
0.00108411
0.00108504
0.00108593
0.00108677
0.00108752
0.00108805
0.00108808
0.00108711
0.0010848
0.0010819
0.00107921
0.00107699
0.00107514
0.00107361
0.00107233
0.00107126
0.00107033
0.00106953
0.00106883
0.00106824
0.00106778
0.00106746
0.00106727
0.00106719
0.00107848
0.00107862
0.00107897
0.00107957
0.0010804
0.00108141
0.00108248
0.00108354
0.00108456
0.00108555
0.00108655
0.00108756
0.00108856
0.00108941
0.00108977
0.00108895
0.00108644
0.0010832
0.00108021
0.00107777
0.00107576
0.00107409
0.00107269
0.0010715
0.00107049
0.00106962
0.00106889
0.00106828
0.00106781
0.00106748
0.00106728
0.0010672
0.00107864
0.00107878
0.00107915
0.00107978
0.00108065
0.00108169
0.0010828
0.0010839
0.00108497
0.00108606
0.00108721
0.00108847
0.00108981
0.00109111
0.00109194
0.00109138
0.00108867
0.00108501
0.00108161
0.00107886
0.00107659
0.00107469
0.00107309
0.00107174
0.00107061
0.00106967
0.0010689
0.00106827
0.0010678
0.00106747
0.00106728
0.0010672
0.00107877
0.00107892
0.00107929
0.00107992
0.00108081
0.00108187
0.001083
0.00108412
0.00108526
0.00108646
0.00108779
0.00108932
0.00109108
0.00109294
0.00109443
0.0010943
0.00109145
0.00108734
0.00108346
0.00108027
0.00107763
0.00107541
0.00107354
0.00107197
0.00107069
0.00106966
0.00106885
0.00106822
0.00106775
0.00106743
0.00106725
0.00106717
0.00107886
0.00107901
0.00107937
0.00107998
0.00108085
0.00108189
0.00108301
0.00108415
0.00108533
0.0010866
0.00108808
0.00108986
0.00109204
0.00109456
0.00109692
0.00109745
0.00109459
0.00109008
0.0010857
0.00108198
0.00107885
0.00107622
0.001074
0.00107218
0.00107073
0.0010696
0.00106875
0.00106811
0.00106766
0.00106736
0.00106718
0.00106711
0.00107889
0.00107903
0.00107937
0.00107994
0.00108075
0.00108173
0.00108279
0.00108389
0.00108503
0.0010863
0.00108782
0.00108976
0.00109231
0.00109558
0.00109907
0.00110056
0.00109784
0.00109299
0.00108812
0.00108384
0.00108018
0.00107707
0.00107446
0.00107236
0.00107071
0.00106948
0.00106859
0.00106797
0.00106753
0.00106725
0.00106708
0.00106701
0.00107884
0.00107897
0.00107928
0.00107979
0.00108049
0.00108135
0.00108229
0.00108325
0.00108425
0.00108537
0.00108678
0.00108873
0.00109157
0.00109572
0.00110069
0.00110342
0.00110093
0.00109577
0.00109044
0.00108562
0.00108142
0.00107783
0.00107484
0.00107245
0.00107063
0.00106932
0.0010684
0.00106778
0.00106736
0.00106709
0.00106693
0.00106686
0.00107865
0.00107878
0.00107904
0.00107947
0.00108005
0.00108074
0.00108147
0.0010822
0.00108292
0.00108373
0.00108486
0.00108666
0.00108977
0.00109504
0.00110197
0.00110612
0.00110372
0.00109809
0.00109224
0.00108694
0.00108229
0.0010783
0.001075
0.00107239
0.00107045
0.00106908
0.00106816
0.00106755
0.00106715
0.00106689
0.00106673
0.00106666
0.00107835
0.00107847
0.0010787
0.00107904
0.00107947
0.00107993
0.00108037
0.00108074
0.00108107
0.00108145
0.00108218
0.00108377
0.00108725
0.00109412
0.00110354
0.00110904
0.0011062
0.00109963
0.00109309
0.00108734
0.00108238
0.00107817
0.00107471
0.00107202
0.00107006
0.00106871
0.00106783
0.00106725
0.00106687
0.00106662
0.00106647
0.00106639
0.00107772
0.00107784
0.00107805
0.00107831
0.00107859
0.00107883
0.00107895
0.00107894
0.00107883
0.00107878
0.00107911
0.00108058
0.00108482
0.00109412
0.00110648
0.00111268
0.00110828
0.00109999
0.00109242
0.00108622
0.00108115
0.00107698
0.00107364
0.00107111
0.00106932
0.00106813
0.00106736
0.00106686
0.00106653
0.0010663
0.00106614
0.00106607
0.00107689
0.00107699
0.00107716
0.00107734
0.00107746
0.00107749
0.00107738
0.00107711
0.00107671
0.00107631
0.00107637
0.00107804
0.00108398
0.00109691
0.00111212
0.00111727
0.00110945
0.00109837
0.00108943
0.00108284
0.00107794
0.00107419
0.00107136
0.00106934
0.00106799
0.00106714
0.0010666
0.00106624
0.00106597
0.00106578
0.00106564
0.00106556
0.00107551
0.00107568
0.00107598
0.00107635
0.0010767
0.00107689
0.00107682
0.00107639
0.00107562
0.00107474
0.0010746
0.00107739
0.00108705
0.00110513
0.00112166
0.00112221
0.00110832
0.00109351
0.00108316
0.00107653
0.00107223
0.00106939
0.00106755
0.00106646
0.00106593
0.0010657
0.0010656
0.0010655
0.00106536
0.00106521
0.00106508
0.00106501
0.00107332
0.00107315
0.00107287
0.00107258
0.00107239
0.00107229
0.00107218
0.00107196
0.00107168
0.00107186
0.00107411
0.00108188
0.00109898
0.00112177
0.00113416
0.00112493
0.00110337
0.00108536
0.00107451
0.00106854
0.00106538
0.0010638
0.00106316
0.00106308
0.0010633
0.00106361
0.00106388
0.00106404
0.00106407
0.00106399
0.00106389
0.00106382
0.00108622
0.00108543
0.00108381
0.00108155
0.00107907
0.00107682
0.00107516
0.00107438
0.00107493
0.00107791
0.00108557
0.00110103
0.00112396
0.0011434
0.00114393
0.00112433
0.00109877
0.00108025
0.00106981
0.00106435
0.00106182
0.00106102
0.00106123
0.00106192
0.00106265
0.00106314
0.00106328
0.00106316
0.00106295
0.00106285
0.00106287
0.00106293
0.00111309
0.00111221
0.00111018
0.00110697
0.00110292
0.00109872
0.00109529
0.0010936
0.0010948
0.0011005
0.00111253
0.00113117
0.00115087
0.0011596
0.00115066
0.00112918
0.00110524
0.00108703
0.00107573
0.00106904
0.0010652
0.00106284
0.00106122
0.00106007
0.0010594
0.00105934
0.00106011
0.00106181
0.00106432
0.00106711
0.00106943
0.00107065
0.00113819
0.00113759
0.0011361
0.00113351
0.00112992
0.00112588
0.00112244
0.00112102
0.00112319
0.00113047
0.00114329
0.00115909
0.00117144
0.00117346
0.00116425
0.00114723
0.00112753
0.00111155
0.00110138
0.0010958
0.00109347
0.0010931
0.00109417
0.00109647
0.00109996
0.00110461
0.00111021
0.00111639
0.00112248
0.0011276
0.0011311
0.00113267
0.00115557
0.0011552
0.00115428
0.00115267
0.0011504
0.00114781
0.00114579
0.00114568
0.00114898
0.0011567
0.00116825
0.00118049
0.00118915
0.00119134
0.00118686
0.00117671
0.00116441
0.0011563
0.00115504
0.00116006
0.00116998
0.00118316
0.00119798
0.00121289
0.00122667
0.00123843
0.0012474
0.00125301
0.00125518
0.0012546
0.00125288
0.0012516
0.00116745
0.00116719
0.0011666
0.00116566
0.00116446
0.00116331
0.00116285
0.0011641
0.00116818
0.00117568
0.001186
0.001197
0.00120619
0.00121188
0.00121328
0.00121011
0.00120542
0.00120626
0.00121592
0.00123339
0.00125642
0.0012821
0.00130737
0.00132965
0.00134779
0.00136098
0.0013689
0.00137155
0.0013696
0.00136461
0.00135911
0.00135571
0.00117696
0.00117671
0.00117622
0.00117559
0.00117499
0.00117475
0.0011754
0.00117766
0.00118227
0.00118963
0.00119945
0.00121053
0.00122148
0.00123108
0.00123795
0.00124068
0.00124092
0.00124587
0.00125998
0.00128222
0.00130924
0.00133683
0.00136152
0.00138127
0.00139618
0.00140667
0.00141328
0.00141642
0.00141649
0.00141416
0.00141077
0.00140827
0.00118648
0.00118614
0.00118555
0.00118493
0.00118456
0.00118482
0.00118617
0.00118911
0.00119415
0.00120156
0.00121126
0.00122268
0.00123509
0.00124763
0.00125885
0.0012665
0.00127005
0.00127518
0.00128752
0.00130733
0.00133141
0.00135517
0.00137539
0.00139117
0.00140326
0.00141258
0.0014197
0.00142474
0.00142764
0.00142851
0.00142789
0.00142692
0.00119785
0.00119731
0.00119646
0.00119566
0.00119536
0.00119597
0.00119789
0.00120146
0.00120697
0.00121457
0.00122431
0.00123594
0.00124913
0.00126333
0.00127727
0.00128859
0.00129499
0.0012996
0.00130808
0.00132243
0.00134089
0.0013597
0.00137612
0.00138963
0.00140091
0.00141065
0.00141906
0.00142586
0.00143063
0.00143325
0.00143406
0.00143389
0.00121252
0.00121168
0.0012105
0.00120957
0.00120947
0.00121064
0.00121333
0.0012177
0.00122381
0.00123173
0.0012415
0.00125306
0.00126632
0.00128095
0.00129594
0.00130921
0.00131771
0.00132237
0.00132778
0.00133693
0.00134972
0.00136382
0.00137708
0.00138887
0.00139949
0.00140937
0.00141852
0.00142647
0.00143254
0.00143631
0.00143792
0.00143813
0.0012316
0.00123043
0.00122904
0.00122832
0.00122891
0.00123111
0.00123494
0.0012403
0.00124709
0.00125525
0.00126483
0.00127589
0.00128845
0.00130237
0.0013169
0.00133037
0.00133976
0.00134467
0.00134837
0.00135386
0.00136214
0.00137218
0.00138247
0.00139231
0.0014017
0.00141083
0.00141969
0.00142783
0.0014345
0.00143901
0.00144121
0.00144168
0.00125593
0.00125451
0.00125335
0.00125354
0.00125549
0.00125914
0.00126424
0.0012705
0.00127768
0.0012857
0.00129462
0.00130457
0.00131566
0.00132787
0.0013407
0.00135293
0.00136194
0.00136678
0.00136961
0.00137291
0.00137804
0.00138482
0.00139235
0.0014
0.00140764
0.00141531
0.00142301
0.00143044
0.00143691
0.00144164
0.0014442
0.0014449
0.00128624
0.00128489
0.00128479
0.00128666
0.00129031
0.0012953
0.00130122
0.00130772
0.0013146
0.00132181
0.00132944
0.00133766
0.00134663
0.00135639
0.00136666
0.00137662
0.00138425
0.00138851
0.00139075
0.00139279
0.00139588
0.00140023
0.00140536
0.00141085
0.00141651
0.00142233
0.00142833
0.00143437
0.00143995
0.00144435
0.00144698
0.00144782
0.00132349
0.00132294
0.00132475
0.00132837
0.00133309
0.00133841
0.00134403
0.00134972
0.00135539
0.00136105
0.00136681
0.00137282
0.00137925
0.00138617
0.00139346
0.0014006
0.00140621
0.00140945
0.0014111
0.00141236
0.00141414
0.00141674
0.00141994
0.00142349
0.00142723
0.00143114
0.00143525
0.00143952
0.00144369
0.00144724
0.00144957
0.00145044
0.00136929
0.00137036
0.00137361
0.00137743
0.00138147
0.00138554
0.00138954
0.00139337
0.00139704
0.00140058
0.00140408
0.00140766
0.00141142
0.00141545
0.00141968
0.00142386
0.00142719
0.00142916
0.00143016
0.00143085
0.00143176
0.0014331
0.0014348
0.00143672
0.00143878
0.00144094
0.00144323
0.00144567
0.00144815
0.00145042
0.00145207
0.00145278
0.0014255
0.00142635
0.00142801
0.00142965
0.00143124
0.00143276
0.0014342
0.00143554
0.0014368
0.00143799
0.00143915
0.00144032
0.00144154
0.00144284
0.0014442
0.00144555
0.00144664
0.00144729
0.00144762
0.00144783
0.00144811
0.00144852
0.00144904
0.00144964
0.00145028
0.00145095
0.00145167
0.00145243
0.00145323
0.00145399
0.00145458
0.00145488
)
;


// ************************************************************************* //
