/*--------------------------------*- C++ -*----------------------------------*\
| =========                 |                                                 |
| \\      /  F ield         | OpenFOAM: The Open Source CFD Toolbox           |
|  \\    /   O peration     | Version:  2212                                  |
|   \\  /    A nd           | Website:  www.openfoam.com                      |
|    \\/     M anipulation  |                                                 |
\*---------------------------------------------------------------------------*/
FoamFile
{
    version     2.0;
    format      ascii;
    arch        "LSB;label=64;scalar=64";
    class       volScalarField::Internal;
    location    "220";
    object      dGco2;
}
// * * * * * * * * * * * * * * * * * * * * * * * * * * * * * * * * * * * * * //

dimensions      [1 -3 -1 0 0 0 0];

value           nonuniform List<scalar> 
1024
(
0.000175953
0.00017597
0.000176013
0.000176088
0.0001762
0.000176346
0.000176518
0.000176703
0.000176884
0.000177051
0.0001772
0.000177326
0.000177417
0.000177451
0.000177392
0.000177186
0.000176807
0.000176351
0.000175917
0.000175538
0.00017522
0.000174959
0.000174745
0.000174567
0.000174413
0.000174277
0.00017416
0.000174064
0.000173991
0.000173942
0.000173913
0.000173901
0.000175958
0.000175976
0.000176021
0.000176099
0.000176215
0.000176365
0.000176541
0.000176727
0.000176908
0.000177074
0.000177223
0.000177349
0.000177441
0.000177477
0.00017742
0.000177213
0.000176832
0.000176372
0.000175935
0.000175554
0.000175235
0.000174973
0.000174758
0.000174579
0.000174424
0.000174288
0.00017417
0.000174072
0.000173996
0.000173945
0.000173915
0.000173903
0.000175969
0.000175989
0.000176037
0.000176122
0.000176246
0.000176405
0.000176586
0.000176774
0.000176955
0.000177121
0.000177271
0.0001774
0.000177498
0.000177541
0.000177491
0.000177287
0.000176896
0.000176425
0.000175977
0.000175591
0.000175269
0.000175004
0.000174786
0.000174604
0.000174446
0.000174307
0.000174186
0.000174084
0.000174005
0.000173951
0.000173919
0.000173905
0.000175987
0.000176009
0.000176063
0.000176157
0.000176292
0.000176461
0.000176649
0.000176839
0.000177021
0.000177189
0.000177345
0.000177483
0.000177595
0.000177657
0.000177627
0.000177429
0.000177022
0.000176523
0.000176054
0.000175657
0.000175326
0.000175053
0.000174827
0.000174638
0.000174475
0.000174331
0.000174205
0.000174099
0.000174016
0.000173958
0.000173923
0.000173909
0.000176011
0.000176036
0.000176096
0.000176199
0.000176346
0.000176526
0.000176721
0.000176915
0.0001771
0.000177275
0.000177442
0.0001776
0.000177741
0.000177841
0.000177848
0.000177665
0.000177229
0.000176684
0.000176178
0.000175758
0.000175411
0.000175123
0.000174882
0.00017468
0.000174506
0.000174354
0.000174222
0.000174111
0.000174024
0.000173963
0.000173928
0.000173912
0.000176039
0.000176066
0.000176131
0.000176244
0.000176401
0.000176591
0.000176793
0.000176992
0.000177184
0.000177371
0.000177559
0.00017775
0.000177939
0.000178099
0.000178165
0.000178011
0.000177539
0.000176929
0.000176365
0.000175906
0.000175528
0.000175214
0.000174949
0.000174726
0.000174535
0.000174372
0.000174233
0.000174118
0.000174029
0.000173967
0.00017393
0.000173915
0.000176068
0.000176096
0.000176165
0.000176283
0.000176448
0.000176644
0.000176853
0.000177059
0.000177261
0.000177466
0.000177684
0.000177921
0.000178174
0.000178418
0.000178575
0.000178469
0.000177959
0.000177269
0.00017663
0.000176111
0.000175684
0.000175327
0.000175025
0.000174771
0.000174558
0.000174381
0.000174235
0.000174117
0.000174028
0.000173966
0.00017393
0.000173914
0.000176094
0.000176122
0.000176191
0.000176311
0.000176478
0.000176677
0.00017689
0.000177102
0.000177316
0.000177542
0.000177793
0.000178082
0.000178412
0.000178763
0.000179042
0.000179018
0.000178481
0.000177707
0.000176978
0.000176376
0.000175879
0.000175461
0.000175108
0.000174815
0.000174573
0.000174379
0.000174226
0.000174107
0.000174019
0.000173959
0.000173924
0.000173909
0.000176111
0.000176139
0.000176206
0.000176322
0.000176485
0.000176681
0.000176892
0.000177107
0.000177328
0.000177568
0.000177847
0.000178183
0.000178593
0.000179068
0.000179511
0.000179613
0.000179073
0.000178223
0.000177398
0.000176698
0.00017611
0.000175614
0.000175197
0.000174854
0.00017458
0.000174367
0.000174206
0.000174087
0.000174002
0.000173946
0.000173912
0.000173898
0.000176117
0.000176143
0.000176206
0.000176314
0.000176466
0.00017665
0.000176851
0.000177057
0.000177273
0.000177511
0.000177798
0.000178164
0.000178644
0.00017926
0.000179916
0.000180197
0.000179685
0.000178773
0.000177855
0.000177049
0.00017636
0.000175774
0.000175283
0.000174887
0.000174577
0.000174346
0.000174178
0.00017406
0.000173978
0.000173925
0.000173893
0.000173879
0.000176106
0.000176131
0.000176189
0.000176285
0.000176418
0.00017658
0.000176757
0.000176938
0.000177126
0.000177337
0.000177603
0.000177969
0.000178505
0.000179285
0.000180222
0.000180735
0.000180267
0.000179296
0.000178291
0.000177384
0.000176594
0.000175918
0.000175354
0.000174905
0.000174563
0.000174315
0.000174142
0.000174025
0.000173946
0.000173896
0.000173865
0.000173851
0.00017607
0.000176094
0.000176144
0.000176225
0.000176334
0.000176464
0.000176602
0.000176738
0.000176875
0.000177029
0.000177241
0.000177581
0.000178166
0.000179157
0.000180462
0.000181244
0.000180792
0.000179732
0.000178631
0.000177633
0.000176758
0.000176006
0.000175384
0.000174893
0.000174528
0.00017427
0.000174096
0.000173981
0.000173906
0.000173857
0.000173828
0.000173814
0.000176012
0.000176035
0.000176079
0.000176144
0.000176224
0.000176312
0.000176395
0.000176465
0.000176526
0.000176599
0.000176736
0.000177036
0.000177691
0.000178984
0.000180758
0.000181794
0.000181258
0.000180022
0.000178791
0.000177707
0.000176774
0.00017598
0.000175329
0.000174824
0.000174455
0.000174201
0.000174034
0.000173925
0.000173854
0.000173807
0.000173778
0.000173764
0.000175895
0.000175917
0.000175956
0.000176006
0.000176059
0.000176104
0.000176128
0.000176126
0.000176106
0.000176095
0.000176159
0.000176436
0.000177234
0.000178984
0.000181312
0.000182479
0.00018165
0.000180089
0.000178664
0.000177497
0.000176542
0.000175757
0.000175128
0.000174652
0.000174315
0.00017409
0.000173946
0.000173852
0.000173789
0.000173746
0.000173717
0.000173703
0.000175736
0.000175757
0.000175789
0.000175822
0.000175846
0.000175851
0.000175831
0.000175781
0.000175705
0.00017563
0.000175641
0.000175957
0.000177074
0.000179509
0.000182374
0.000183344
0.00018187
0.000179785
0.0001781
0.000176861
0.000175937
0.000175232
0.000174699
0.000174319
0.000174065
0.000173904
0.000173803
0.000173735
0.000173685
0.000173648
0.000173622
0.000173608
0.000175478
0.000175509
0.000175566
0.000175636
0.000175702
0.000175738
0.000175724
0.000175645
0.000175499
0.000175334
0.000175309
0.000175833
0.000177652
0.000181057
0.00018417
0.000184274
0.000181658
0.00017887
0.000176921
0.000175671
0.000174863
0.000174328
0.00017398
0.000173776
0.000173676
0.000173634
0.000173615
0.000173595
0.00017357
0.000173542
0.000173517
0.000173503
0.000175065
0.000175033
0.00017498
0.000174926
0.00017489
0.000174871
0.000174852
0.000174811
0.000174758
0.000174791
0.000175216
0.000176679
0.000179899
0.00018419
0.000186525
0.000184786
0.000180727
0.000177335
0.000175292
0.000174167
0.000173572
0.000173275
0.000173154
0.00017314
0.000173182
0.00017324
0.000173291
0.000173322
0.000173326
0.000173312
0.000173293
0.00017328
0.000177495
0.000177347
0.000177041
0.000176616
0.000176149
0.000175725
0.000175412
0.000175267
0.00017537
0.000175932
0.000177373
0.000180285
0.000184603
0.000188263
0.000188364
0.000184672
0.000179859
0.000176373
0.000174407
0.000173379
0.000172901
0.000172751
0.000172791
0.000172921
0.00017306
0.000173151
0.000173178
0.000173154
0.000173116
0.000173096
0.0001731
0.000173112
0.000182556
0.00018239
0.000182008
0.000181403
0.00018064
0.00017985
0.000179203
0.000178886
0.000179113
0.000180185
0.000182451
0.000185962
0.000189671
0.000191314
0.000189631
0.000185586
0.000181079
0.00017765
0.000175521
0.000174261
0.000173539
0.000173094
0.000172789
0.000172573
0.000172447
0.000172436
0.000172581
0.000172901
0.000173373
0.000173899
0.000174335
0.000174566
0.000187283
0.00018717
0.000186889
0.000186401
0.000185725
0.000184965
0.000184317
0.000184049
0.000184458
0.000185828
0.000188243
0.000191218
0.000193545
0.000193925
0.00019219
0.000188984
0.000185276
0.000182266
0.000180351
0.000179301
0.000178862
0.000178794
0.000178995
0.000179428
0.000180084
0.00018096
0.000182014
0.000183178
0.000184325
0.00018529
0.000185948
0.000186244
0.000190555
0.000190486
0.000190313
0.00019001
0.000189581
0.000189095
0.000188714
0.000188694
0.000189314
0.000190768
0.000192944
0.000195248
0.000196879
0.000197291
0.000196448
0.000194536
0.00019222
0.000190692
0.000190456
0.0001914
0.000193269
0.000195752
0.000198542
0.000201349
0.000203944
0.000206159
0.000207847
0.000208904
0.000209312
0.000209203
0.000208879
0.000208638
0.000192792
0.000192743
0.000192632
0.000192456
0.00019223
0.000192013
0.000191926
0.000192162
0.000192929
0.000194342
0.000196285
0.000198357
0.000200088
0.000201159
0.000201422
0.000200826
0.000199942
0.000200101
0.000201919
0.000205209
0.000209546
0.000214382
0.000219141
0.000223335
0.000226751
0.000229234
0.000230725
0.000231225
0.000230857
0.000229918
0.000228882
0.000228242
0.000194583
0.000194536
0.000194444
0.000194325
0.000194212
0.000194168
0.00019429
0.000194715
0.000195582
0.00019697
0.000198818
0.000200905
0.000202966
0.000204774
0.000206068
0.000206581
0.000206627
0.000207558
0.000210216
0.000214405
0.000219492
0.000224687
0.000229336
0.000233056
0.000235863
0.000237837
0.000239081
0.000239674
0.000239687
0.000239249
0.00023861
0.000238139
0.000196376
0.000196312
0.000196202
0.000196083
0.000196014
0.000196063
0.000196317
0.000196872
0.000197819
0.000199215
0.000201041
0.000203192
0.000205529
0.00020789
0.000210002
0.000211444
0.000212112
0.000213079
0.000215402
0.000219133
0.000223666
0.000228141
0.000231948
0.000234918
0.000237195
0.000238951
0.000240291
0.000241239
0.000241785
0.00024195
0.000241834
0.00024165
0.000198516
0.000198415
0.000198255
0.000198106
0.000198048
0.000198164
0.000198525
0.000199198
0.000200233
0.000201666
0.000203499
0.000205689
0.000208173
0.000210846
0.000213471
0.000215603
0.000216808
0.000217677
0.000219274
0.000221976
0.000225452
0.000228993
0.000232086
0.000234629
0.000236752
0.000238586
0.00024017
0.00024145
0.000242349
0.000242842
0.000242994
0.000242963
0.000201279
0.000201123
0.000200899
0.000200724
0.000200706
0.000200925
0.000201433
0.000202254
0.000203406
0.000204897
0.000206736
0.000208913
0.00021141
0.000214164
0.000216987
0.000219485
0.000221086
0.000221963
0.000222983
0.000224705
0.000227114
0.00022977
0.000232267
0.000234486
0.000236486
0.000238345
0.000240068
0.000241566
0.000242709
0.000243418
0.000243721
0.000243761
0.000204873
0.000204653
0.00020439
0.000204255
0.000204367
0.00020478
0.0002055
0.00020651
0.000207789
0.000209325
0.00021113
0.000213211
0.000215577
0.000218198
0.000220933
0.000223471
0.000225239
0.000226163
0.000226859
0.000227893
0.000229452
0.000231342
0.00023328
0.000235134
0.000236902
0.000238621
0.000240289
0.000241822
0.000243078
0.000243927
0.00024434
0.00024443
0.000209454
0.000209186
0.000208968
0.000209003
0.00020937
0.000210058
0.000211019
0.000212197
0.000213549
0.000215059
0.000216739
0.000218612
0.000220701
0.000222999
0.000225415
0.000227718
0.000229415
0.000230326
0.000230858
0.00023148
0.000232446
0.000233724
0.00023514
0.000236582
0.00023802
0.000239465
0.000240915
0.000242312
0.000243531
0.000244423
0.000244905
0.000245036
0.00021516
0.000214906
0.000214888
0.000215239
0.000215927
0.000216867
0.000217982
0.000219206
0.000220501
0.000221858
0.000223296
0.000224843
0.000226531
0.000228369
0.000230304
0.00023218
0.000233615
0.000234418
0.000234839
0.000235224
0.000235806
0.000236625
0.000237591
0.000238624
0.000239689
0.000240786
0.000241916
0.000243052
0.000244104
0.000244933
0.000245427
0.000245586
0.000222176
0.000222071
0.000222412
0.000223094
0.000223982
0.000224984
0.000226043
0.000227114
0.000228182
0.000229247
0.000230331
0.000231464
0.000232674
0.000233978
0.00023535
0.000236695
0.000237751
0.000238361
0.000238672
0.000238908
0.000239244
0.000239734
0.000240337
0.000241004
0.000241709
0.000242445
0.000243218
0.000244022
0.000244809
0.000245477
0.000245916
0.000246079
0.000230798
0.000231
0.000231612
0.000232332
0.000233092
0.000233859
0.000234611
0.000235333
0.000236024
0.000236691
0.00023735
0.000238024
0.000238733
0.000239491
0.000240288
0.000241074
0.000241702
0.000242073
0.00024226
0.000242389
0.000242561
0.000242814
0.000243135
0.000243496
0.000243883
0.00024429
0.000244722
0.00024518
0.000245649
0.000246076
0.000246385
0.000246519
0.000241383
0.000241544
0.000241856
0.000242165
0.000242463
0.00024275
0.000243021
0.000243274
0.000243511
0.000243735
0.000243953
0.000244173
0.000244403
0.000244648
0.000244905
0.000245159
0.000245364
0.000245486
0.000245547
0.000245588
0.00024564
0.000245717
0.000245816
0.000245928
0.000246049
0.000246176
0.00024631
0.000246454
0.000246604
0.000246747
0.000246859
0.000246915
)
;


// ************************************************************************* //
