/*--------------------------------*- C++ -*----------------------------------*\
| =========                 |                                                 |
| \\      /  F ield         | OpenFOAM: The Open Source CFD Toolbox           |
|  \\    /   O peration     | Version:  2212                                  |
|   \\  /    A nd           | Website:  www.openfoam.com                      |
|    \\/     M anipulation  |                                                 |
\*---------------------------------------------------------------------------*/
FoamFile
{
    version     2.0;
    format      ascii;
    arch        "LSB;label=64;scalar=64";
    class       volScalarField;
    location    "220";
    object      p_rgh;
}
// * * * * * * * * * * * * * * * * * * * * * * * * * * * * * * * * * * * * * //

dimensions      [0 2 -2 0 0 0 0];

internalField   nonuniform List<scalar> 
1024
(
0.0431983
0.0431921
0.0431859
0.0431827
0.0431811
0.0431789
0.0431761
0.0431761
0.043185
0.0432117
0.0432684
0.0433714
0.0435403
0.0437884
0.0440948
0.0443816
0.04453
0.044514
0.0444302
0.0444105
0.0444081
0.0444144
0.0444118
0.0443863
0.0443356
0.0442705
0.0442075
0.0441572
0.0441233
0.0441067
0.0441063
0.0441142
0.0432224
0.0432164
0.0432123
0.0432121
0.0432132
0.0432133
0.0432126
0.0432146
0.0432256
0.0432543
0.043313
0.043418
0.0435892
0.0438401
0.0441489
0.0444367
0.044584
0.0445637
0.0444743
0.0444531
0.0444508
0.0444579
0.0444563
0.0444312
0.0443796
0.0443123
0.0442473
0.0441949
0.0441588
0.0441395
0.0441368
0.0441444
0.0432701
0.0432637
0.0432638
0.0432713
0.0432803
0.0432869
0.0432916
0.0432986
0.0433147
0.0433489
0.0434133
0.0435244
0.0437024
0.0439606
0.044275
0.0445655
0.0447113
0.0446831
0.0445805
0.0445557
0.0445541
0.0445639
0.0445652
0.0445411
0.0444866
0.0444118
0.0443364
0.0442721
0.0442231
0.0441917
0.0441809
0.0441869
0.0433337
0.0433281
0.043337
0.0433595
0.043384
0.0434032
0.0434182
0.0434344
0.0434596
0.0435033
0.0435774
0.0436983
0.0438857
0.044151
0.0444697
0.044762
0.0449077
0.0448766
0.0447621
0.0447325
0.0447315
0.0447441
0.0447485
0.0447249
0.0446652
0.0445767
0.0444799
0.0443876
0.0443078
0.0442482
0.044219
0.0442194
0.043392
0.0433902
0.0434161
0.0434645
0.0435149
0.0435558
0.0435879
0.0436187
0.0436571
0.0437128
0.0437974
0.0439262
0.0441184
0.0443799
0.0446957
0.0449868
0.0451372
0.0451196
0.0450134
0.0449811
0.0449799
0.0449924
0.0449964
0.0449709
0.0449041
0.044798
0.0446684
0.0445297
0.044397
0.0442888
0.044227
0.0442158
0.0434084
0.0434153
0.0434688
0.0435571
0.0436477
0.0437222
0.0437805
0.0438313
0.0438846
0.0439501
0.0440383
0.0441631
0.044343
0.0445879
0.0448928
0.0451823
0.0453466
0.0453637
0.0452955
0.0452695
0.0452679
0.045276
0.0452752
0.0452451
0.0451708
0.0450461
0.0448759
0.0446743
0.044467
0.0442897
0.0441821
0.0441543
0.0433409
0.0433608
0.0434526
0.0435967
0.0437447
0.0438673
0.0439612
0.0440357
0.0441014
0.0441678
0.0442453
0.0443484
0.0444982
0.0447187
0.0450119
0.0453047
0.0454927
0.0455577
0.0455465
0.0455393
0.0455401
0.0455433
0.0455365
0.0455021
0.045422
0.0452805
0.0450667
0.0447917
0.0444939
0.0442329
0.044072
0.044026
0.043158
0.043193
0.0433307
0.0435455
0.0437685
0.043954
0.044092
0.0441908
0.0442621
0.0443171
0.0443686
0.0444363
0.0445497
0.0447491
0.0450387
0.0453436
0.0455607
0.0456733
0.0457181
0.0457368
0.0457454
0.0457486
0.0457403
0.0457052
0.0456226
0.0454666
0.0452091
0.044857
0.0444618
0.0441126
0.0438992
0.0438367
0.0428514
0.0429008
0.0430862
0.0433813
0.0436944
0.0439559
0.0441443
0.044266
0.0443354
0.0443688
0.0443858
0.0444155
0.0444993
0.0446894
0.0449893
0.0453162
0.0455629
0.0457135
0.0458002
0.0458432
0.0458649
0.0458758
0.045873
0.0458425
0.0457594
0.0455894
0.0452878
0.0448586
0.0443672
0.0439353
0.0436779
0.0436031
0.0424373
0.0424978
0.0427255
0.0431026
0.043515
0.0438626
0.0441062
0.0442496
0.0443129
0.0443209
0.0443035
0.0443012
0.0443673
0.0445622
0.0448877
0.0452465
0.0455233
0.0457028
0.0458128
0.0458753
0.0459135
0.0459383
0.0459472
0.0459248
0.0458403
0.0456508
0.0453029
0.044798
0.0442171
0.0437157
0.0434274
0.0433453
0.0419481
0.0420145
0.0422722
0.042723
0.0432369
0.0436776
0.0439815
0.0441482
0.0442054
0.0441899
0.0441426
0.0441152
0.0441722
0.0443853
0.0447528
0.0451537
0.045464
0.0456623
0.0457855
0.0458638
0.0459195
0.0459614
0.0459854
0.0459721
0.045884
0.045667
0.0452667
0.0446848
0.0440237
0.04347
0.0431645
0.0430795
0.0414216
0.0414884
0.0417584
0.0422635
0.0428725
0.0434112
0.0437834
0.0439799
0.0440364
0.0440021
0.0439282
0.0438765
0.0439266
0.0441727
0.0445995
0.045053
0.0453949
0.0456069
0.0457415
0.0458349
0.0459078
0.0459673
0.0460072
0.0460026
0.0459064
0.045655
0.0451926
0.044531
0.0437997
0.043211
0.0428996
0.0428153
0.0409016
0.0409625
0.0412178
0.0417415
0.0424274
0.0430682
0.0435246
0.0437676
0.043837
0.0437929
0.0436939
0.0436101
0.0436461
0.0439488
0.0444511
0.0449577
0.0453215
0.0455463
0.0456942
0.0458036
0.0458934
0.0459695
0.0460236
0.0460258
0.0459191
0.0456259
0.0450915
0.0443471
0.0435552
0.0429456
0.042636
0.0425539
0.0404443
0.0404965
0.0407205
0.0411998
0.0418825
0.0426089
0.0431862
0.043512
0.0436253
0.0435948
0.0434806
0.0433501
0.04337
0.0437653
0.0443416
0.0448817
0.0452573
0.0454897
0.0456522
0.0457793
0.0458856
0.0459759
0.0460407
0.0460457
0.0459241
0.0455826
0.044968
0.0441386
0.0432939
0.0426738
0.0423707
0.0422916
0.0401292
0.0401692
0.0403466
0.0407434
0.041346
0.0420379
0.0426613
0.0430976
0.0433191
0.0433528
0.0432474
0.0430776
0.0431823
0.0436738
0.0443245
0.0448741
0.0452236
0.0454487
0.0456264
0.0457744
0.0458977
0.0459989
0.0460695
0.0460715
0.0459199
0.0455142
0.0448059
0.0438872
0.0429991
0.0423815
0.0420927
0.042018
0.0400771
0.0400963
0.0402083
0.0404869
0.0409437
0.041508
0.0420643
0.0425083
0.0427847
0.0428856
0.0428441
0.0428061
0.0431382
0.0438178
0.0445186
0.0449938
0.0452445
0.0454375
0.045637
0.0458175
0.0459638
0.0460774
0.0461404
0.0460985
0.0458629
0.0453396
0.0444985
0.0434819
0.0426176
0.0420574
0.0417994
0.0417315
0.040605
0.0405645
0.040556
0.0406626
0.0409197
0.0412941
0.0417065
0.0420715
0.0423283
0.0424589
0.0425186
0.0428196
0.0435518
0.0444201
0.0450374
0.0452774
0.0453303
0.0454738
0.0457192
0.0459568
0.0461259
0.046205
0.0461674
0.0459586
0.0454533
0.0447148
0.0438437
0.0429584
0.0422389
0.0417841
0.0415743
0.041516
0.0425192
0.0423193
0.0420127
0.0417522
0.0416466
0.0417112
0.0418954
0.0421268
0.0423512
0.0425706
0.0429121
0.0437215
0.044739
0.0454969
0.0457411
0.0455798
0.0453882
0.0454878
0.0457503
0.0459762
0.0459736
0.0457843
0.0454994
0.0451105
0.044601
0.0439795
0.0432983
0.0426454
0.0421275
0.0418023
0.0416493
0.0416023
0.0457507
0.0454681
0.0448994
0.0441889
0.0435532
0.0431357
0.0429643
0.0430028
0.0432212
0.0436676
0.0444726
0.0454832
0.0462277
0.0464431
0.0461677
0.0456796
0.0453162
0.0451934
0.0451815
0.0451147
0.0449219
0.0447193
0.0444785
0.0441988
0.0438714
0.0434895
0.0430721
0.0426711
0.0423541
0.0421591
0.0420722
0.042046
0.047748
0.0476159
0.0472624
0.0466472
0.0458757
0.0451736
0.0447275
0.0446209
0.0448783
0.0455284
0.0464463
0.0469859
0.0470663
0.0467492
0.0462503
0.0456814
0.0451315
0.0447026
0.0443916
0.0441527
0.0439977
0.0438681
0.0437764
0.0437182
0.0436702
0.0435965
0.0434834
0.0433559
0.0432719
0.0432765
0.0433618
0.0434116
0.0483833
0.0483202
0.0481593
0.0478469
0.0473655
0.0467969
0.046343
0.0462063
0.046449
0.0469781
0.0474426
0.0474407
0.0471977
0.0468746
0.0464435
0.0459122
0.0453379
0.0448343
0.0445002
0.0443734
0.0443679
0.0445042
0.0448018
0.0452584
0.0458548
0.0464559
0.0469462
0.0472854
0.0474508
0.0474171
0.0472281
0.0470808
0.0485892
0.0485464
0.0484434
0.0482597
0.0479827
0.047646
0.0473478
0.0472282
0.0473512
0.0475993
0.0477353
0.0476701
0.0475007
0.0472422
0.0469471
0.0465939
0.0462381
0.0459945
0.0459422
0.0460426
0.0463556
0.0468744
0.04755
0.0482608
0.0487869
0.049145
0.0493811
0.0495004
0.0495192
0.0494575
0.0493455
0.0492469
0.0486922
0.0486568
0.0485767
0.0484437
0.048258
0.0480427
0.0478508
0.0477537
0.0477844
0.0478754
0.0479247
0.0479134
0.0478671
0.0477658
0.0475711
0.0473645
0.0471792
0.047096
0.0471452
0.0473175
0.0476429
0.0480587
0.0484675
0.0487491
0.0489912
0.0492161
0.0494128
0.0495615
0.0496529
0.0496891
0.0496832
0.0496585
0.0487613
0.0487287
0.0486581
0.0485484
0.0484065
0.0482504
0.0481158
0.048037
0.0480322
0.0480658
0.0480974
0.0481218
0.0481444
0.0481462
0.0480974
0.0479569
0.0478398
0.0477899
0.0478133
0.047935
0.048148
0.0483776
0.048549
0.0486699
0.0488094
0.0489842
0.0491785
0.0493618
0.0495058
0.0495915
0.0496218
0.0496217
0.0488102
0.0487771
0.0487121
0.0486175
0.0485016
0.0483832
0.048286
0.0482259
0.0482139
0.04823
0.0482579
0.0482924
0.0483332
0.0483696
0.0483894
0.0483439
0.0482547
0.0481906
0.0481429
0.0481721
0.0482804
0.0484062
0.048494
0.0485773
0.0486936
0.0488582
0.0490595
0.0492702
0.0494565
0.0495841
0.0496389
0.0496507
0.0488412
0.0488085
0.0487474
0.0486666
0.0485736
0.0484866
0.0484188
0.0483788
0.0483717
0.0483862
0.0484121
0.0484411
0.0484689
0.0484918
0.0485095
0.0485048
0.048475
0.0484179
0.0483266
0.0482672
0.0482747
0.0483222
0.0483908
0.0485037
0.048664
0.048868
0.0491017
0.0493453
0.0495751
0.0497529
0.0498422
0.0498717
0.0488522
0.0488198
0.0487656
0.0487026
0.0486384
0.0485808
0.0485386
0.0485183
0.0485218
0.0485369
0.0485539
0.0485654
0.0485646
0.0485539
0.0485432
0.0485365
0.0485294
0.0484986
0.0484195
0.0483162
0.0482413
0.0482268
0.0482963
0.0484487
0.0486697
0.0489449
0.0492513
0.0495664
0.0498588
0.0501006
0.050245
0.0503062
0.0488377
0.0488085
0.048769
0.0487323
0.0487007
0.0486738
0.0486579
0.0486553
0.0486661
0.0486772
0.048679
0.0486639
0.0486271
0.0485757
0.0485277
0.048501
0.0484944
0.0484775
0.0484159
0.0483079
0.0482033
0.0481655
0.0482371
0.0484174
0.0486918
0.0490406
0.0494392
0.0498557
0.0502506
0.0505916
0.0508261
0.0509444
0.0487746
0.0487654
0.0487594
0.0487638
0.04877
0.0487742
0.0487806
0.0487914
0.0488025
0.0488023
0.0487828
0.0487366
0.0486629
0.0485718
0.0484874
0.0484356
0.0484198
0.0484055
0.0483534
0.0482521
0.0481475
0.0481121
0.0481934
0.0483964
0.0487114
0.0491208
0.0496038
0.050131
0.0506662
0.0511622
0.0515447
0.0517884
0.0486117
0.048672
0.0487454
0.0488082
0.0488518
0.048884
0.0489062
0.0489203
0.0489231
0.048907
0.048864
0.0487876
0.048681
0.0485565
0.0484417
0.0483671
0.0483406
0.0483242
0.0482755
0.048181
0.0480842
0.0480586
0.0481513
0.0483716
0.0487133
0.049163
0.0497075
0.0503305
0.0510143
0.0517261
0.0523833
0.0529477
0.0481488
0.0485323
0.0487622
0.0488865
0.0489567
0.0490008
0.0490249
0.0490324
0.0490214
0.0489875
0.0489224
0.0488223
0.0486905
0.0485414
0.0484052
0.0483144
0.0482796
0.0482606
0.0482126
0.0481225
0.0480324
0.0480139
0.0481137
0.0483423
0.0486957
0.0491638
0.0497395
0.0504223
0.0512253
0.0521783
0.0533136
0.0545875
0.0471482
0.0483845
0.0488476
0.0489821
0.0490518
0.0490938
0.0491098
0.0491063
0.0490828
0.049035
0.0489557
0.0488414
0.0486955
0.048533
0.0483863
0.0482879
0.0482484
0.0482278
0.04818
0.048092
0.0480052
0.0479892
0.0480904
0.0483197
0.0486737
0.0491444
0.0497281
0.0504357
0.0513103
0.0524553
0.0540929
0.0563755
)
;

boundaryField
{
    movingWall
    {
        type            fixedFluxPressure;
        gradient        uniform 0;
        value           nonuniform List<scalar> 
32
(
0.0471482
0.0483845
0.0488476
0.0489821
0.0490518
0.0490938
0.0491098
0.0491063
0.0490828
0.049035
0.0489557
0.0488414
0.0486955
0.048533
0.0483863
0.0482879
0.0482484
0.0482278
0.04818
0.048092
0.0480052
0.0479892
0.0480904
0.0483197
0.0486737
0.0491444
0.0497281
0.0504357
0.0513103
0.0524553
0.0540929
0.0563755
)
;
    }
    fixedWalls
    {
        type            fixedFluxPressure;
        gradient        uniform 0;
        value           nonuniform List<scalar> 
64
(
0.0431983
0.0432224
0.0432701
0.0433337
0.043392
0.0434084
0.0433409
0.043158
0.0428514
0.0424373
0.0419481
0.0414216
0.0409016
0.0404443
0.0401292
0.0400771
0.040605
0.0425192
0.0457507
0.047748
0.0483833
0.0485892
0.0486922
0.0487613
0.0488102
0.0488412
0.0488522
0.0488377
0.0487746
0.0486117
0.0481488
0.0471482
0.0441142
0.0441444
0.0441869
0.0442194
0.0442158
0.0441543
0.044026
0.0438367
0.0436031
0.0433453
0.0430795
0.0428153
0.0425539
0.0422916
0.042018
0.0417315
0.041516
0.0416023
0.042046
0.0434116
0.0470808
0.0492469
0.0496585
0.0496217
0.0496507
0.0498717
0.0503062
0.0509444
0.0517884
0.0529477
0.0545875
0.0563755
)
;
    }
    floor
    {
        type            fixedFluxPressure;
        gradient        uniform 0;
        value           nonuniform List<scalar> 
32
(
0.0431983
0.0431921
0.0431859
0.0431827
0.0431811
0.0431789
0.0431761
0.0431761
0.043185
0.0432117
0.0432684
0.0433714
0.0435403
0.0437884
0.0440948
0.0443816
0.04453
0.044514
0.0444302
0.0444105
0.0444081
0.0444144
0.0444118
0.0443863
0.0443356
0.0442705
0.0442075
0.0441572
0.0441233
0.0441067
0.0441063
0.0441142
)
;
    }
    frontAndBack
    {
        type            empty;
    }
}


// ************************************************************************* //
