/*--------------------------------*- C++ -*----------------------------------*\
| =========                 |                                                 |
| \\      /  F ield         | OpenFOAM: The Open Source CFD Toolbox           |
|  \\    /   O peration     | Version:  2212                                  |
|   \\  /    A nd           | Website:  www.openfoam.com                      |
|    \\/     M anipulation  |                                                 |
\*---------------------------------------------------------------------------*/
FoamFile
{
    version     2.0;
    format      ascii;
    arch        "LSB;label=64;scalar=64";
    class       volScalarField;
    location    "220";
    object      Sco2;
}
// * * * * * * * * * * * * * * * * * * * * * * * * * * * * * * * * * * * * * //

dimensions      [1 -3 0 0 0 0 0];

internalField   nonuniform List<scalar> 
1024
(
0.00670688
0.00670755
0.00670918
0.00671204
0.00671629
0.00672187
0.00672845
0.00673548
0.00674238
0.00674874
0.00675444
0.00675923
0.00676269
0.00676399
0.00676175
0.00675389
0.00673944
0.00672208
0.00670551
0.00669107
0.00667897
0.00666901
0.00666083
0.00665405
0.00664817
0.00664301
0.00663855
0.00663488
0.00663211
0.00663022
0.00662914
0.00662869
0.00670706
0.00670777
0.00670948
0.00671246
0.00671687
0.00672261
0.00672931
0.00673639
0.00674328
0.00674963
0.00675532
0.00676012
0.00676362
0.00676497
0.00676279
0.00675493
0.00674038
0.00672287
0.00670619
0.00669168
0.00667954
0.00666954
0.00666134
0.00665453
0.00664863
0.00664343
0.00663891
0.00663518
0.00663231
0.00663036
0.00662922
0.00662873
0.00670749
0.00670826
0.00671011
0.00671334
0.00671807
0.00672411
0.00673102
0.00673818
0.00674507
0.00675142
0.00675715
0.00676206
0.00676577
0.00676741
0.00676551
0.00675773
0.00674285
0.00672487
0.00670781
0.00669311
0.00668083
0.00667071
0.00666239
0.00665546
0.00664946
0.00664416
0.00663954
0.00663566
0.00663266
0.00663057
0.00662935
0.00662883
0.00670818
0.00670902
0.00671108
0.00671466
0.00671981
0.00672624
0.00673341
0.00674068
0.0067476
0.00675402
0.00675993
0.00676521
0.00676948
0.00677186
0.0067707
0.00676316
0.00674762
0.00672861
0.00671074
0.0066956
0.006683
0.0066726
0.00666399
0.00665678
0.00665054
0.00664506
0.00664026
0.00663621
0.00663305
0.00663083
0.00662952
0.00662897
0.0067091
0.00671004
0.00671233
0.00671628
0.00672188
0.00672874
0.00673618
0.00674358
0.00675063
0.00675728
0.00676365
0.00676967
0.00677506
0.00677887
0.00677911
0.00677214
0.00675554
0.00673477
0.00671548
0.00669947
0.00668623
0.00667525
0.00666609
0.00665838
0.00665172
0.00664593
0.00664091
0.00663669
0.00663338
0.00663106
0.00662969
0.00662911
0.00671018
0.00671119
0.00671368
0.00671797
0.00672398
0.00673121
0.00673892
0.00674651
0.00675383
0.00676094
0.00676811
0.0067754
0.00678258
0.00678868
0.00679123
0.00678532
0.00676733
0.00674408
0.00672261
0.00670511
0.00669071
0.00667871
0.00666862
0.00666011
0.00665283
0.00664661
0.00664133
0.00663696
0.00663356
0.00663119
0.00662979
0.0066292
0.00671128
0.00671234
0.00671496
0.00671947
0.00672575
0.00673325
0.0067412
0.00674905
0.00675676
0.00676458
0.00677288
0.0067819
0.00679155
0.00680086
0.00680682
0.0068028
0.00678335
0.00675705
0.00673268
0.0067129
0.00669662
0.00668301
0.00667152
0.00666185
0.00665372
0.00664695
0.00664139
0.00663691
0.0066335
0.00663115
0.00662976
0.00662918
0.00671225
0.00671332
0.00671597
0.00672053
0.00672689
0.00673449
0.00674259
0.0067507
0.00675886
0.00676744
0.00677702
0.00678803
0.00680062
0.00681399
0.00682465
0.00682373
0.00680325
0.00677375
0.00674595
0.00672303
0.00670407
0.00668814
0.0066747
0.0066635
0.00665429
0.00664689
0.00664105
0.00663652
0.00663317
0.00663089
0.00662955
0.00662898
0.00671292
0.00671397
0.00671655
0.00672097
0.00672717
0.00673464
0.00674269
0.00675088
0.00675931
0.00676846
0.00677908
0.0067919
0.00680751
0.00682564
0.00684253
0.00684639
0.00682582
0.00679342
0.00676197
0.00673527
0.00671287
0.00669396
0.00667807
0.006665
0.00665454
0.00664643
0.00664031
0.00663578
0.00663254
0.00663037
0.00662911
0.00662855
0.00671313
0.00671414
0.00671655
0.00672066
0.00672644
0.00673346
0.00674111
0.00674899
0.00675719
0.00676628
0.00677722
0.00679116
0.00680945
0.00683293
0.00685796
0.00686865
0.00684915
0.00681437
0.0067794
0.00674868
0.00672239
0.00670005
0.00668137
0.00666624
0.00665446
0.00664563
0.00663925
0.00663473
0.00663161
0.00662957
0.00662837
0.00662783
0.00671273
0.00671369
0.00671588
0.00671953
0.00672462
0.00673079
0.00673752
0.00674443
0.0067516
0.00675965
0.00676978
0.00678375
0.00680417
0.00683391
0.00686962
0.00688918
0.00687134
0.00683432
0.00679601
0.00676144
0.00673132
0.00670555
0.00668407
0.00666695
0.0066539
0.00664445
0.00663787
0.00663339
0.0066304
0.00662847
0.00662731
0.00662678
0.00671135
0.00671225
0.00671417
0.00671724
0.00672142
0.00672638
0.00673164
0.00673683
0.00674203
0.0067479
0.006756
0.00676893
0.00679125
0.00682904
0.00687878
0.00690858
0.00689136
0.00685094
0.00680898
0.00677092
0.00673756
0.00670893
0.00668519
0.00666651
0.00665258
0.00664274
0.00663611
0.00663174
0.00662887
0.00662701
0.00662589
0.00662536
0.00670915
0.00671002
0.00671171
0.00671416
0.00671723
0.00672057
0.00672374
0.00672642
0.00672874
0.00673152
0.00673675
0.00674816
0.00677315
0.00682242
0.00689005
0.00692953
0.00690912
0.00686201
0.00681506
0.00677377
0.00673819
0.00670794
0.0066831
0.00666385
0.00664978
0.00664011
0.00663374
0.0066296
0.00662688
0.0066251
0.006624
0.00662347
0.00670466
0.0067055
0.00670701
0.00670892
0.00671094
0.00671264
0.00671356
0.0067135
0.00671274
0.00671232
0.00671474
0.00672529
0.0067557
0.00682241
0.00691118
0.00695564
0.00692406
0.00686456
0.00681023
0.00676574
0.00672934
0.00669941
0.00667544
0.0066573
0.00664445
0.00663589
0.00663038
0.00662681
0.00662441
0.00662276
0.00662167
0.00662112
0.00669864
0.00669941
0.00670063
0.00670191
0.00670282
0.00670301
0.00670223
0.00670033
0.00669743
0.00669459
0.006695
0.00670704
0.00674963
0.00684244
0.00695163
0.00698863
0.00693242
0.00685295
0.00678874
0.00674151
0.0067063
0.0066794
0.0066591
0.0066446
0.00663492
0.00662879
0.00662493
0.00662234
0.00662045
0.00661903
0.00661803
0.0066175
0.00668879
0.00668996
0.00669213
0.00669482
0.00669732
0.00669871
0.00669818
0.00669514
0.0066896
0.00668331
0.00668234
0.00670232
0.00677167
0.00690145
0.00702012
0.00702407
0.00692434
0.00681807
0.00674378
0.00669615
0.00666534
0.00664494
0.0066317
0.00662392
0.00662009
0.0066185
0.00661777
0.00661703
0.00661605
0.00661498
0.00661405
0.0066135
0.00667306
0.00667183
0.00666979
0.00666774
0.00666636
0.00666565
0.00666491
0.00666335
0.00666133
0.0066626
0.00667878
0.00673456
0.00685732
0.00702086
0.00710986
0.00704359
0.00688885
0.00675956
0.00668168
0.00663882
0.00661614
0.00660481
0.00660019
0.00659966
0.00660125
0.00660348
0.00660544
0.00660659
0.00660677
0.00660624
0.0066055
0.00660501
0.00676569
0.00676001
0.00674837
0.00673217
0.00671436
0.0066982
0.00668629
0.00668073
0.00668469
0.00670609
0.00676101
0.00687201
0.00703661
0.00717612
0.00717996
0.00703925
0.00685578
0.00672288
0.00664798
0.00660878
0.00659057
0.00658486
0.00658637
0.00659132
0.00659662
0.0066001
0.00660111
0.00660021
0.00659876
0.00659799
0.00659815
0.0065986
0.00695859
0.00695226
0.0069377
0.00691465
0.00688556
0.00685545
0.00683078
0.00681869
0.00682733
0.00686822
0.00695457
0.00708839
0.0072298
0.0072924
0.00722826
0.00707408
0.00690227
0.00677156
0.00669044
0.0066424
0.00661486
0.00659792
0.00658628
0.00657806
0.00657324
0.00657285
0.00657834
0.00659057
0.00660855
0.00662859
0.00664522
0.00665404
0.00713878
0.00713447
0.00712375
0.00710516
0.00707939
0.0070504
0.00702569
0.00701549
0.00703107
0.0070833
0.00717537
0.00728874
0.00737745
0.00739193
0.00732581
0.00720362
0.00706227
0.00694752
0.00687455
0.0068345
0.00681777
0.00681518
0.00682285
0.00683936
0.00686436
0.00689774
0.00693793
0.0069823
0.007026
0.00706279
0.00708786
0.00709914
0.00726348
0.00726084
0.00725426
0.00724272
0.00722637
0.00720782
0.00719329
0.00719254
0.00721619
0.00727162
0.00735453
0.00744239
0.00750456
0.00752026
0.00748812
0.00741522
0.00732695
0.00726872
0.00725972
0.00729571
0.00736695
0.00746159
0.00756791
0.00767493
0.00777383
0.00785826
0.0079226
0.0079629
0.00797845
0.00797431
0.00796197
0.00795275
0.00734875
0.00734689
0.00734267
0.00733593
0.00732733
0.00731905
0.00731573
0.00732474
0.00735398
0.00740783
0.00748188
0.00756089
0.00762685
0.00766769
0.0076777
0.00765499
0.00762128
0.00762737
0.00769665
0.00782208
0.00798739
0.00817173
0.0083531
0.00851299
0.00864317
0.00873783
0.00879467
0.00881373
0.00879969
0.00876389
0.00872443
0.00870001
0.00741703
0.00741524
0.00741174
0.00740717
0.00740288
0.00740121
0.00740586
0.00742205
0.00745511
0.007508
0.00757843
0.00765799
0.00773657
0.00780547
0.0078548
0.00787437
0.0078761
0.00791161
0.00801292
0.00817258
0.00836648
0.00856451
0.00874173
0.0088835
0.00899051
0.00906574
0.00911318
0.00913577
0.00913628
0.00911956
0.00909522
0.00907728
0.00748538
0.00748292
0.00747872
0.00747421
0.00747155
0.00747345
0.00748312
0.00750426
0.00754039
0.00759358
0.0076632
0.00774518
0.00783424
0.00792425
0.00800477
0.00805972
0.00808518
0.00812204
0.00821057
0.0083528
0.00852558
0.00869616
0.00884129
0.00895449
0.00904129
0.00910822
0.0091593
0.00919544
0.00921626
0.00922252
0.0092181
0.00921109
0.00756695
0.00756309
0.00755699
0.00755129
0.00754911
0.00755352
0.0075673
0.00759292
0.00763239
0.007687
0.00775687
0.00784036
0.00793503
0.00803694
0.00813699
0.00821827
0.00826417
0.00829731
0.00835817
0.00846118
0.00859366
0.00872863
0.00884653
0.00894349
0.00902442
0.00909432
0.0091547
0.00920349
0.00923775
0.00925653
0.00926233
0.00926115
0.00767226
0.00766629
0.00765779
0.0076511
0.00765041
0.00765878
0.00767811
0.00770943
0.00775332
0.00781016
0.00788025
0.00796326
0.00805842
0.00816341
0.00827099
0.00836622
0.00842725
0.00846069
0.00849956
0.00856521
0.00865702
0.00875824
0.00885343
0.00893802
0.00901427
0.00908512
0.0091508
0.00920789
0.00925147
0.00927849
0.00929004
0.00929157
0.00780926
0.00780087
0.00779085
0.0077857
0.00778995
0.0078057
0.00783316
0.00787165
0.00792039
0.00797896
0.00804773
0.00812708
0.00821726
0.00831715
0.00842143
0.00851817
0.00858554
0.00862076
0.00864732
0.00868673
0.00874613
0.0088182
0.00889207
0.00896271
0.00903013
0.00909565
0.00915921
0.00921767
0.00926554
0.00929788
0.00931364
0.00931707
0.00798386
0.00797364
0.00796533
0.00796669
0.00798068
0.0080069
0.00804351
0.00808841
0.00813997
0.0081975
0.00826155
0.00833295
0.00841257
0.00850018
0.00859227
0.00868005
0.00874472
0.00877947
0.00879974
0.00882343
0.00886026
0.00890897
0.00896297
0.00901793
0.00907275
0.00912781
0.00918307
0.00923634
0.00928281
0.00931678
0.00933516
0.00934015
0.00820138
0.00819169
0.00819098
0.00820437
0.0082306
0.00826643
0.00830892
0.00835557
0.00840495
0.00845667
0.00851147
0.00857047
0.00863481
0.00870487
0.00877862
0.00885011
0.00890484
0.00893544
0.00895149
0.00896614
0.00898833
0.00901955
0.00905639
0.00909576
0.00913637
0.00917815
0.00922123
0.00926454
0.00930463
0.00933623
0.00935506
0.00936112
0.0084688
0.00846481
0.00847778
0.00850377
0.00853762
0.00857582
0.00861619
0.00865704
0.00869774
0.00873833
0.00877966
0.00882282
0.00886895
0.00891865
0.00897095
0.00902222
0.00906247
0.00908574
0.00909757
0.0091066
0.0091194
0.00913806
0.00916105
0.00918649
0.00921333
0.0092414
0.00927087
0.00930152
0.0093315
0.00935698
0.00937369
0.00937993
0.00879745
0.00880513
0.00882846
0.00885592
0.0088849
0.00891413
0.0089428
0.00897032
0.00899666
0.00902206
0.0090472
0.00907287
0.00909989
0.00912879
0.00915917
0.00918916
0.00921307
0.00922721
0.00923436
0.00923929
0.00924583
0.00925548
0.00926769
0.00928148
0.00929622
0.00931175
0.0093282
0.00934566
0.00936351
0.0093798
0.0093916
0.0093967
0.00920091
0.00920704
0.00921897
0.00923073
0.0092421
0.00925302
0.00926335
0.00927299
0.00928202
0.00929057
0.00929889
0.00930728
0.00931604
0.00932536
0.00933516
0.00934486
0.00935265
0.0093573
0.00935966
0.00936121
0.0093632
0.00936614
0.0093699
0.00937418
0.00937877
0.00938361
0.00938873
0.00939421
0.00939992
0.00940538
0.00940967
0.00941179
)
;

boundaryField
{
    movingWall
    {
        type            fixedValue;
        value           uniform 0.00942;
    }
    fixedWalls
    {
        type            zeroGradient;
    }
    floor
    {
        type            zeroGradient;
    }
    frontAndBack
    {
        type            empty;
    }
}


// ************************************************************************* //
