/*--------------------------------*- C++ -*----------------------------------*\
| =========                 |                                                 |
| \\      /  F ield         | OpenFOAM: The Open Source CFD Toolbox           |
|  \\    /   O peration     | Version:  2212                                  |
|   \\  /    A nd           | Website:  www.openfoam.com                      |
|    \\/     M anipulation  |                                                 |
\*---------------------------------------------------------------------------*/
FoamFile
{
    version     2.0;
    format      ascii;
    arch        "LSB;label=64;scalar=64";
    class       volScalarField;
    location    "220";
    object      T;
}
// * * * * * * * * * * * * * * * * * * * * * * * * * * * * * * * * * * * * * //

dimensions      [0 0 0 1 0 0 0];

internalField   nonuniform List<scalar> 
1024
(
309.969
309.968
309.965
309.961
309.956
309.951
309.946
309.941
309.936
309.931
309.926
309.92
309.914
309.906
309.898
309.894
309.895
309.907
309.92
309.923
309.923
309.92
309.917
309.916
309.919
309.926
309.933
309.941
309.95
309.957
309.962
309.964
309.903
309.9
309.892
309.879
309.863
309.847
309.831
309.816
309.801
309.785
309.768
309.749
309.729
309.705
309.684
309.672
309.676
309.708
309.75
309.76
309.758
309.749
309.74
309.738
309.747
309.766
309.79
309.816
309.843
309.866
309.882
309.888
309.831
309.826
309.811
309.787
309.759
309.73
309.703
309.676
309.649
309.621
309.592
309.56
309.526
309.487
309.455
309.437
309.444
309.494
309.56
309.577
309.574
309.561
309.547
309.543
309.557
309.589
309.63
309.677
309.725
309.768
309.797
309.808
309.757
309.749
309.726
309.689
309.647
309.604
309.564
309.526
309.487
309.447
309.406
309.363
309.317
309.271
309.236
309.217
309.226
309.281
309.36
309.383
309.38
309.365
309.349
309.346
309.364
309.405
309.462
309.53
309.603
309.668
309.711
309.727
309.684
309.673
309.64
309.589
309.532
309.476
309.423
309.374
309.325
309.276
309.227
309.178
309.129
309.087
309.056
309.04
309.048
309.095
309.167
309.192
309.19
309.177
309.164
309.162
309.183
309.231
309.301
309.389
309.484
309.57
309.627
309.648
309.614
309.6
309.558
309.493
309.421
309.353
309.29
309.232
309.178
309.125
309.075
309.029
308.988
308.957
308.935
308.923
308.926
308.956
309.006
309.027
309.027
309.018
309.01
309.012
309.034
309.083
309.161
309.264
309.378
309.481
309.549
309.574
309.55
309.533
309.483
309.407
309.324
309.245
309.175
309.114
309.058
309.009
308.966
308.931
308.903
308.885
308.871
308.861
308.858
308.869
308.895
308.907
308.907
308.902
308.898
308.903
308.925
308.973
309.054
309.165
309.291
309.405
309.479
309.504
309.492
309.474
309.42
309.336
309.243
309.158
309.085
309.025
308.975
308.934
308.903
308.881
308.867
308.858
308.849
308.838
308.828
308.826
308.832
308.836
308.835
308.832
308.83
308.836
308.856
308.901
308.98
309.094
309.225
309.343
309.417
309.441
309.44
309.422
309.367
309.279
309.181
309.093
309.021
308.966
308.924
308.895
308.876
308.865
308.861
308.856
308.848
308.835
308.82
308.81
308.806
308.803
308.8
308.796
308.795
308.8
308.819
308.86
308.936
309.047
309.177
309.292
309.361
309.383
309.393
309.377
309.324
309.236
309.137
309.049
308.98
308.931
308.899
308.88
308.871
308.869
308.869
308.865
308.855
308.839
308.822
308.808
308.799
308.793
308.787
308.782
308.78
308.784
308.801
308.839
308.912
309.019
309.142
309.25
309.312
309.33
309.351
309.338
309.29
309.206
309.108
309.021
308.956
308.913
308.89
308.88
308.878
308.881
308.883
308.879
308.865
308.845
308.825
308.811
308.801
308.792
308.784
308.779
308.775
308.778
308.793
308.831
308.9
309.001
309.117
309.213
309.267
309.282
309.313
309.303
309.262
309.185
309.092
309.007
308.944
308.907
308.889
308.885
308.889
308.895
308.899
308.893
308.873
308.849
308.829
308.815
308.803
308.794
308.785
308.778
308.774
308.776
308.791
308.827
308.894
308.99
309.095
309.181
309.226
309.238
309.28
309.272
309.24
309.174
309.087
309.004
308.943
308.908
308.893
308.893
308.9
308.91
308.916
308.905
308.879
308.852
308.832
308.817
308.805
308.795
308.786
308.779
308.774
308.775
308.789
308.825
308.89
308.98
309.076
309.15
309.187
309.197
309.25
309.245
309.222
309.17
309.097
309.018
308.954
308.916
308.9
308.9
308.91
308.925
308.933
308.914
308.883
308.854
308.833
308.818
308.805
308.794
308.785
308.777
308.773
308.774
308.787
308.823
308.886
308.971
309.057
309.12
309.151
309.159
309.223
309.22
309.205
309.169
309.113
309.047
308.988
308.945
308.922
308.917
308.925
308.943
308.944
308.918
308.883
308.853
308.832
308.815
308.801
308.79
308.781
308.774
308.769
308.77
308.784
308.82
308.882
308.962
309.039
309.093
309.118
309.124
309.197
309.196
309.188
309.166
309.129
309.083
309.036
308.997
308.972
308.961
308.964
308.97
308.954
308.916
308.875
308.846
308.827
308.811
308.795
308.782
308.772
308.765
308.761
308.765
308.783
308.823
308.886
308.963
309.027
309.07
309.089
309.094
309.155
309.159
309.159
309.152
309.133
309.106
309.075
309.046
309.024
309.013
309.008
308.991
308.949
308.897
308.858
308.836
308.822
308.805
308.786
308.769
308.759
308.754
308.758
308.772
308.806
308.856
308.915
308.974
309.023
309.053
309.067
309.07
309.049
309.06
309.078
309.093
309.097
309.091
309.078
309.061
309.045
309.03
309.009
308.963
308.905
308.859
308.835
308.829
308.824
308.806
308.785
308.77
308.77
308.782
308.8
308.826
308.861
308.902
308.948
308.99
309.023
309.043
309.052
309.054
308.884
308.899
308.928
308.964
308.997
309.017
309.025
309.022
309.009
308.985
308.942
308.888
308.846
308.826
308.826
308.833
308.834
308.828
308.821
308.822
308.833
308.847
308.866
308.889
308.916
308.945
308.976
309.002
309.022
309.033
309.037
309.038
308.791
308.798
308.814
308.844
308.881
308.914
308.936
308.941
308.929
308.898
308.853
308.823
308.814
308.819
308.828
308.839
308.85
308.859
308.868
308.877
308.887
308.9
308.914
308.93
308.946
308.962
308.977
308.988
308.994
308.993
308.988
308.985
308.765
308.768
308.775
308.789
308.811
308.837
308.858
308.865
308.855
308.832
308.809
308.804
308.808
308.814
308.821
308.832
308.846
308.86
308.87
308.874
308.876
308.877
308.874
308.867
308.854
308.839
308.825
308.814
308.807
308.807
308.815
308.821
308.758
308.76
308.764
308.772
308.784
308.799
308.812
308.817
308.813
308.802
308.794
308.792
308.793
308.795
308.798
308.803
308.81
308.814
308.812
308.804
308.791
308.772
308.75
308.729
308.718
308.713
308.71
308.709
308.71
308.712
308.716
308.72
308.755
308.757
308.76
308.765
308.773
308.781
308.789
308.793
308.792
308.787
308.783
308.779
308.775
308.771
308.771
308.771
308.772
308.77
308.764
308.752
308.735
308.716
308.702
308.696
308.695
308.695
308.696
308.696
308.697
308.697
308.697
308.697
308.753
308.754
308.757
308.761
308.766
308.773
308.778
308.781
308.78
308.777
308.773
308.768
308.761
308.754
308.748
308.747
308.746
308.744
308.738
308.727
308.713
308.699
308.693
308.692
308.693
308.695
308.696
308.697
308.698
308.697
308.697
308.696
308.751
308.752
308.754
308.758
308.762
308.767
308.771
308.773
308.772
308.77
308.766
308.761
308.753
308.744
308.736
308.731
308.73
308.729
308.726
308.718
308.707
308.697
308.693
308.693
308.694
308.696
308.698
308.699
308.7
308.7
308.699
308.698
308.749
308.75
308.752
308.755
308.759
308.763
308.765
308.767
308.766
308.764
308.76
308.755
308.747
308.739
308.731
308.725
308.721
308.72
308.719
308.715
308.707
308.701
308.697
308.696
308.697
308.698
308.699
308.701
308.701
308.701
308.701
308.7
308.748
308.749
308.751
308.753
308.756
308.759
308.761
308.762
308.761
308.759
308.756
308.75
308.744
308.737
308.73
308.723
308.719
308.717
308.715
308.713
308.709
308.705
308.702
308.701
308.701
308.701
308.701
308.702
308.703
308.703
308.703
308.702
308.746
308.747
308.749
308.751
308.754
308.756
308.757
308.757
308.757
308.755
308.752
308.747
308.742
308.737
308.731
308.725
308.72
308.717
308.715
308.713
308.711
308.708
308.707
308.705
308.704
308.704
308.704
308.704
308.704
308.704
308.704
308.703
308.745
308.746
308.748
308.749
308.751
308.752
308.753
308.753
308.752
308.751
308.748
308.745
308.742
308.737
308.732
308.727
308.723
308.72
308.717
308.715
308.713
308.711
308.71
308.709
308.707
308.707
308.706
308.706
308.705
308.705
308.705
308.704
308.744
308.745
308.746
308.747
308.748
308.749
308.75
308.75
308.749
308.748
308.746
308.744
308.741
308.738
308.734
308.73
308.726
308.723
308.72
308.718
308.716
308.714
308.712
308.711
308.71
308.709
308.708
308.707
308.707
308.706
308.706
308.705
308.744
308.744
308.745
308.745
308.746
308.746
308.747
308.747
308.746
308.746
308.745
308.743
308.741
308.739
308.736
308.732
308.728
308.725
308.722
308.72
308.718
308.716
308.714
308.713
308.712
308.711
308.71
308.709
308.708
308.707
308.707
308.706
308.743
308.743
308.743
308.744
308.744
308.744
308.745
308.745
308.745
308.745
308.744
308.743
308.741
308.739
308.736
308.733
308.729
308.726
308.723
308.721
308.719
308.717
308.715
308.714
308.713
308.712
308.711
308.71
308.709
308.708
308.707
308.707
)
;

boundaryField
{
    movingWall
    {
        type            zeroGradient;
    }
    fixedWalls
    {
        type            zeroGradient;
    }
    floor
    {
        type            fixedValue;
        value           uniform 310;
    }
    frontAndBack
    {
        type            empty;
    }
}


// ************************************************************************* //
