/*--------------------------------*- C++ -*----------------------------------*\
| =========                 |                                                 |
| \\      /  F ield         | OpenFOAM: The Open Source CFD Toolbox           |
|  \\    /   O peration     | Version:  2212                                  |
|   \\  /    A nd           | Website:  www.openfoam.com                      |
|    \\/     M anipulation  |                                                 |
\*---------------------------------------------------------------------------*/
FoamFile
{
    version     2.0;
    format      ascii;
    arch        "LSB;label=64;scalar=64";
    class       volScalarField;
    location    "220";
    object      Xpr;
}
// * * * * * * * * * * * * * * * * * * * * * * * * * * * * * * * * * * * * * //

dimensions      [1 -3 0 0 0 0 0];

internalField   nonuniform List<scalar> 
1024
(
0.0827351
0.0827355
0.0827364
0.0827381
0.0827405
0.0827437
0.0827475
0.0827515
0.0827554
0.0827591
0.0827623
0.082765
0.0827669
0.0827676
0.0827663
0.0827617
0.0827533
0.0827433
0.0827337
0.0827253
0.0827183
0.0827125
0.0827078
0.0827039
0.0827005
0.0826975
0.0826949
0.0826928
0.0826912
0.0826901
0.0826895
0.0826892
0.0827352
0.0827356
0.0827366
0.0827383
0.0827408
0.0827441
0.082748
0.082752
0.0827559
0.0827596
0.0827628
0.0827655
0.0827674
0.0827682
0.0827668
0.0827623
0.0827539
0.0827438
0.0827341
0.0827257
0.0827186
0.0827128
0.0827081
0.0827041
0.0827007
0.0826977
0.0826951
0.0826929
0.0826913
0.0826902
0.0826895
0.0826892
0.0827354
0.0827359
0.0827369
0.0827388
0.0827415
0.082745
0.0827489
0.082753
0.082757
0.0827606
0.0827638
0.0827666
0.0827687
0.0827695
0.0827684
0.0827639
0.0827553
0.0827449
0.082735
0.0827265
0.0827194
0.0827135
0.0827087
0.0827047
0.0827012
0.0826981
0.0826955
0.0826932
0.0826915
0.0826903
0.0826896
0.0826893
0.0827358
0.0827363
0.0827375
0.0827395
0.0827425
0.0827462
0.0827503
0.0827545
0.0827584
0.0827621
0.0827654
0.0827684
0.0827708
0.0827721
0.0827713
0.0827669
0.082758
0.082747
0.0827367
0.0827279
0.0827206
0.0827146
0.0827096
0.0827054
0.0827018
0.0826986
0.0826959
0.0826935
0.0826917
0.0826904
0.0826897
0.0826894
0.0827363
0.0827369
0.0827382
0.0827405
0.0827437
0.0827476
0.0827519
0.0827561
0.0827601
0.0827639
0.0827675
0.0827709
0.0827739
0.082776
0.0827761
0.082772
0.0827625
0.0827505
0.0827394
0.0827301
0.0827224
0.0827161
0.0827108
0.0827063
0.0827025
0.0826991
0.0826962
0.0826938
0.0826919
0.0826906
0.0826898
0.0826894
0.082737
0.0827375
0.082739
0.0827414
0.0827449
0.082749
0.0827534
0.0827578
0.082762
0.082766
0.0827701
0.0827742
0.0827782
0.0827816
0.082783
0.0827795
0.0827691
0.0827558
0.0827434
0.0827333
0.082725
0.082718
0.0827122
0.0827073
0.0827031
0.0826995
0.0826964
0.0826939
0.082692
0.0826906
0.0826898
0.0826895
0.0827376
0.0827382
0.0827397
0.0827423
0.0827459
0.0827502
0.0827547
0.0827592
0.0827636
0.0827681
0.0827728
0.0827779
0.0827833
0.0827885
0.0827918
0.0827894
0.0827782
0.0827631
0.0827491
0.0827377
0.0827283
0.0827205
0.0827138
0.0827082
0.0827035
0.0826996
0.0826965
0.0826939
0.0826919
0.0826906
0.0826898
0.0826895
0.0827381
0.0827388
0.0827403
0.0827429
0.0827466
0.0827509
0.0827555
0.0827602
0.0827648
0.0827697
0.0827751
0.0827813
0.0827884
0.0827959
0.0828019
0.0828013
0.0827895
0.0827726
0.0827566
0.0827434
0.0827325
0.0827233
0.0827156
0.0827091
0.0827038
0.0826996
0.0826962
0.0826936
0.0826917
0.0826904
0.0826897
0.0826893
0.0827385
0.0827391
0.0827406
0.0827432
0.0827467
0.082751
0.0827556
0.0827603
0.0827651
0.0827702
0.0827763
0.0827835
0.0827923
0.0828025
0.082812
0.082814
0.0828022
0.0827837
0.0827657
0.0827504
0.0827375
0.0827266
0.0827174
0.0827099
0.0827039
0.0826993
0.0826958
0.0826932
0.0826913
0.0826901
0.0826894
0.0826891
0.0827386
0.0827392
0.0827406
0.082743
0.0827463
0.0827503
0.0827547
0.0827592
0.0827638
0.082769
0.0827752
0.082783
0.0827933
0.0828066
0.0828206
0.0828265
0.0828153
0.0827955
0.0827755
0.0827579
0.0827428
0.08273
0.0827192
0.0827105
0.0827038
0.0826988
0.0826951
0.0826926
0.0826908
0.0826896
0.0826889
0.0826886
0.0827384
0.082739
0.0827402
0.0827423
0.0827452
0.0827488
0.0827526
0.0827565
0.0827606
0.0827651
0.0827709
0.0827787
0.0827902
0.082807
0.0828271
0.082838
0.0828277
0.0828065
0.0827847
0.082765
0.0827478
0.082733
0.0827207
0.0827108
0.0827034
0.082698
0.0826943
0.0826918
0.0826901
0.082689
0.0826883
0.082688
0.0827376
0.0827381
0.0827392
0.082741
0.0827434
0.0827462
0.0827492
0.0827522
0.0827551
0.0827584
0.0827629
0.0827702
0.0827828
0.0828041
0.0828321
0.0828487
0.0828387
0.0828156
0.0827918
0.0827701
0.0827511
0.0827347
0.0827211
0.0827105
0.0827025
0.0826969
0.0826932
0.0826908
0.0826891
0.0826881
0.0826875
0.0826872
0.0827363
0.0827368
0.0827378
0.0827392
0.082741
0.0827429
0.0827447
0.0827462
0.0827475
0.082749
0.0827519
0.0827582
0.0827723
0.0828001
0.0828382
0.0828602
0.0828483
0.0828214
0.0827948
0.0827714
0.0827511
0.0827339
0.0827197
0.0827088
0.0827008
0.0826953
0.0826918
0.0826895
0.082688
0.082687
0.0826863
0.082686
0.0827338
0.0827342
0.0827351
0.0827362
0.0827374
0.0827383
0.0827388
0.0827388
0.0827382
0.0827379
0.0827392
0.0827451
0.0827622
0.0827999
0.0828499
0.0828745
0.0828562
0.0828223
0.0827915
0.0827663
0.0827457
0.0827287
0.0827151
0.0827048
0.0826976
0.0826928
0.0826897
0.0826878
0.0826865
0.0826855
0.0826849
0.0826846
0.0827302
0.0827307
0.0827314
0.0827321
0.0827326
0.0827327
0.0827322
0.0827311
0.0827294
0.0827277
0.0827278
0.0827345
0.0827585
0.0828109
0.0828723
0.0828925
0.0828602
0.082815
0.0827786
0.0827519
0.082732
0.0827169
0.0827054
0.0826973
0.0826919
0.0826886
0.0826865
0.0826851
0.0826841
0.0826833
0.0826828
0.0826825
0.0827247
0.0827254
0.0827266
0.0827282
0.0827296
0.0827304
0.08273
0.0827282
0.082725
0.0827213
0.0827205
0.0827316
0.0827706
0.0828437
0.0829102
0.0829116
0.0828547
0.0827944
0.0827524
0.0827256
0.0827082
0.0826968
0.0826894
0.0826852
0.0826832
0.0826825
0.0826823
0.0826819
0.0826815
0.0826809
0.0826804
0.08268
0.0827151
0.0827145
0.0827134
0.0827124
0.0827117
0.0827114
0.082711
0.0827101
0.0827088
0.0827093
0.082718
0.0827491
0.0828181
0.0829101
0.0829596
0.0829215
0.0828337
0.0827607
0.0827168
0.0826927
0.08268
0.0826737
0.0826713
0.0826713
0.0826724
0.0826739
0.0826752
0.0826759
0.0826761
0.0826758
0.0826754
0.0826751
0.0827663
0.0827631
0.0827565
0.0827474
0.0827374
0.0827284
0.0827217
0.0827185
0.0827206
0.0827324
0.082763
0.0828253
0.082918
0.0829963
0.0829978
0.082918
0.0828145
0.0827397
0.0826976
0.0826757
0.0826656
0.0826625
0.0826636
0.0826666
0.0826697
0.0826718
0.0826725
0.082672
0.0826713
0.0826709
0.082671
0.0826712
0.0828754
0.0828718
0.0828634
0.0828501
0.0828335
0.0828163
0.0828021
0.0827951
0.0827997
0.0828224
0.0828708
0.0829461
0.0830256
0.0830604
0.0830236
0.0829366
0.0828401
0.082767
0.0827217
0.082695
0.0826798
0.0826704
0.0826641
0.0826596
0.0826571
0.082657
0.0826602
0.0826671
0.0826771
0.0826883
0.0826975
0.0827024
0.082978
0.0829755
0.0829692
0.0829584
0.0829434
0.0829265
0.082912
0.0829057
0.0829139
0.0829429
0.0829944
0.0830578
0.0831072
0.0831146
0.0830768
0.0830081
0.0829292
0.0828654
0.0828251
0.0828032
0.0827943
0.0827933
0.0827979
0.0828074
0.0828213
0.0828398
0.0828618
0.0828861
0.0829099
0.0829299
0.0829435
0.0829496
0.0830489
0.0830474
0.0830434
0.0830366
0.0830268
0.0830157
0.0830067
0.0830054
0.0830179
0.0830484
0.0830943
0.0831429
0.0831769
0.0831848
0.0831661
0.0831251
0.083076
0.0830439
0.0830394
0.0830598
0.0830996
0.0831522
0.083211
0.0832699
0.083324
0.08337
0.0834048
0.0834263
0.0834343
0.0834315
0.0834245
0.0834193
0.0830971
0.083096
0.0830935
0.0830893
0.083084
0.0830786
0.0830758
0.0830799
0.0830952
0.0831245
0.083165
0.0832082
0.0832439
0.0832656
0.0832703
0.0832573
0.0832385
0.083242
0.0832805
0.0833498
0.0834407
0.0835416
0.0836404
0.0837271
0.0837973
0.0838481
0.0838783
0.0838882
0.0838802
0.0838606
0.0838391
0.0838258
0.0831354
0.0831343
0.0831322
0.0831293
0.0831264
0.0831248
0.0831265
0.0831345
0.0831518
0.0831803
0.0832185
0.0832616
0.0833041
0.0833412
0.0833675
0.0833777
0.0833785
0.0833982
0.0834541
0.0835416
0.0836475
0.083755
0.0838506
0.0839264
0.0839832
0.0840228
0.0840475
0.0840592
0.0840593
0.0840503
0.0840374
0.0840278
0.0831731
0.0831717
0.0831693
0.0831665
0.0831646
0.083165
0.0831696
0.0831803
0.0831993
0.0832277
0.0832653
0.0833096
0.0833577
0.0834062
0.0834495
0.0834789
0.0834927
0.0835131
0.0835619
0.0836397
0.0837338
0.083826
0.0839038
0.0839639
0.0840094
0.0840442
0.0840706
0.0840892
0.0841
0.0841033
0.084101
0.0840975
0.0832176
0.0832155
0.083212
0.0832087
0.0832072
0.0832091
0.0832159
0.0832291
0.0832499
0.0832791
0.0833166
0.0833615
0.0834126
0.0834675
0.0835213
0.0835649
0.0835897
0.083608
0.0836416
0.0836981
0.0837701
0.083843
0.0839061
0.0839575
0.0839999
0.0840362
0.0840674
0.0840925
0.0841101
0.0841199
0.084123
0.0841225
0.0832744
0.0832712
0.0832665
0.0832627
0.0832621
0.0832662
0.0832761
0.0832924
0.0833156
0.0833459
0.0833834
0.083428
0.0834792
0.0835356
0.0835935
0.0836446
0.0836773
0.0836956
0.0837172
0.0837533
0.0838033
0.083858
0.083909
0.0839538
0.0839939
0.0840308
0.0840648
0.0840942
0.0841166
0.0841304
0.0841365
0.0841373
0.0833478
0.0833433
0.0833379
0.083335
0.083337
0.0833451
0.0833594
0.0833797
0.0834054
0.0834366
0.0834733
0.0835158
0.0835642
0.0836178
0.0836738
0.0837257
0.0837618
0.0837809
0.0837956
0.0838174
0.0838498
0.0838888
0.0839284
0.0839659
0.0840014
0.0840356
0.0840686
0.0840987
0.0841233
0.0841399
0.084148
0.0841498
0.0834408
0.0834354
0.0834309
0.0834315
0.0834388
0.0834525
0.0834718
0.0834954
0.0835227
0.0835533
0.0835874
0.0836255
0.0836682
0.0837152
0.0837645
0.0838116
0.0838462
0.0838649
0.083876
0.0838892
0.0839094
0.0839358
0.0839647
0.083994
0.0840229
0.0840517
0.0840804
0.0841079
0.0841318
0.0841491
0.0841585
0.0841611
0.0835563
0.0835511
0.0835507
0.0835578
0.0835716
0.0835905
0.0836129
0.0836375
0.0836636
0.083691
0.0837202
0.0837516
0.083786
0.0838236
0.0838631
0.0839013
0.0839306
0.0839471
0.0839558
0.083964
0.0839762
0.0839931
0.0840129
0.0840338
0.0840553
0.0840772
0.0840996
0.084122
0.0841426
0.0841587
0.0841683
0.0841714
0.0836979
0.0836958
0.0837026
0.0837163
0.0837342
0.0837544
0.0837757
0.0837973
0.0838188
0.0838403
0.0838622
0.0838852
0.0839098
0.0839364
0.0839644
0.0839919
0.0840134
0.0840259
0.0840323
0.0840373
0.0840444
0.0840545
0.0840669
0.0840804
0.0840946
0.0841094
0.0841247
0.0841406
0.084156
0.0841689
0.0841774
0.0841806
0.0838716
0.0838756
0.083888
0.0839025
0.0839178
0.0839332
0.0839483
0.0839629
0.0839768
0.0839902
0.0840036
0.0840172
0.0840317
0.0840471
0.0840634
0.0840794
0.0840922
0.0840998
0.0841037
0.0841064
0.08411
0.0841152
0.0841218
0.0841292
0.084137
0.0841451
0.0841537
0.0841628
0.0841719
0.0841802
0.0841862
0.0841888
0.0840845
0.0840877
0.084094
0.0841002
0.0841063
0.084112
0.0841175
0.0841226
0.0841273
0.0841319
0.0841363
0.0841407
0.0841454
0.0841504
0.0841556
0.0841608
0.084165
0.0841675
0.0841688
0.0841696
0.0841707
0.0841723
0.0841743
0.0841766
0.0841791
0.0841816
0.0841843
0.0841871
0.0841901
0.0841928
0.084195
0.0841961
)
;

boundaryField
{
    movingWall
    {
        type            fixedValue;
        value           uniform 0.0842;
    }
    fixedWalls
    {
        type            zeroGradient;
    }
    floor
    {
        type            zeroGradient;
    }
    frontAndBack
    {
        type            empty;
    }
}


// ************************************************************************* //
