/*--------------------------------*- C++ -*----------------------------------*\
| =========                 |                                                 |
| \\      /  F ield         | OpenFOAM: The Open Source CFD Toolbox           |
|  \\    /   O peration     | Version:  2212                                  |
|   \\  /    A nd           | Website:  www.openfoam.com                      |
|    \\/     M anipulation  |                                                 |
\*---------------------------------------------------------------------------*/
FoamFile
{
    version     2.0;
    format      ascii;
    arch        "LSB;label=64;scalar=64";
    class       volScalarField::Internal;
    location    "1070";
    object      dGch4;
}
// * * * * * * * * * * * * * * * * * * * * * * * * * * * * * * * * * * * * * //

dimensions      [1 -3 -1 0 0 0 0];

value           nonuniform List<scalar> 
1024
(
0.000953221
0.000953461
0.000954044
0.000955089
0.000956711
0.000958982
0.000961892
0.000965325
0.000969072
0.000972887
0.000976551
0.000979849
0.000982509
0.000984228
0.000984659
0.00098341
0.000980264
0.000975786
0.000970606
0.000964858
0.000958576
0.000951858
0.000944966
0.000938301
0.000932275
0.000927193
0.000923187
0.000920238
0.000918218
0.000916948
0.000916251
0.000915966
0.000953231
0.000953475
0.000954069
0.000955134
0.000956784
0.000959088
0.000962028
0.00096548
0.000969235
0.000973049
0.000976716
0.000980021
0.000982682
0.000984391
0.000984807
0.000983549
0.000980407
0.000975947
0.000970795
0.000965082
0.000958837
0.000952148
0.000945267
0.00093859
0.00093253
0.000927403
0.000923351
0.000920362
0.000918312
0.000917025
0.000916318
0.000916029
0.000953248
0.0009535
0.000954112
0.00095521
0.000956906
0.000959262
0.000962249
0.000965733
0.000969507
0.000973347
0.000977061
0.000980426
0.000983118
0.000984804
0.000985163
0.00098385
0.000980691
0.000976258
0.000971162
0.000965527
0.000959367
0.000952748
0.000945901
0.000939207
0.000933083
0.000927863
0.000923715
0.000920643
0.000918531
0.000917205
0.000916477
0.00091618
0.000953262
0.000953522
0.000954155
0.000955286
0.000957028
0.000959436
0.00096247
0.000965994
0.000969817
0.000973741
0.000977598
0.000981136
0.000983922
0.00098557
0.000985794
0.000984332
0.000981091
0.00097667
0.000971652
0.000966139
0.000960122
0.000953631
0.000946857
0.000940156
0.000933949
0.000928597
0.000924304
0.000921105
0.000918898
0.000917512
0.000916751
0.000916442
0.000953249
0.000953515
0.00095416
0.000955312
0.000957081
0.000959519
0.000962587
0.000966159
0.000970077
0.000974187
0.000978344
0.000982221
0.000985203
0.000986793
0.00098676
0.000984989
0.000981547
0.000977086
0.000972148
0.000966796
0.000960983
0.00095469
0.000948049
0.000941376
0.00093509
0.000929584
0.000925113
0.000921752
0.000919422
0.000917956
0.000917153
0.000916827
0.000953175
0.000953441
0.000954083
0.000955228
0.000956986
0.000959415
0.000962493
0.000966127
0.000970211
0.000974651
0.000979314
0.000983739
0.000987039
0.000988539
0.000988081
0.000985774
0.000981941
0.000977342
0.000972461
0.000967295
0.000961743
0.000955723
0.000949292
0.000942712
0.000936386
0.000930741
0.000926086
0.000922549
0.000920082
0.000918525
0.000917674
0.00091733
0.000953005
0.000953262
0.000953881
0.000954983
0.000956683
0.000959057
0.000962119
0.000965838
0.000970183
0.000975132
0.000980541
0.00098573
0.000989448
0.000990791
0.000989686
0.000986549
0.000982077
0.000977199
0.000972322
0.000967348
0.000962104
0.00095643
0.0009503
0.000943903
0.000937617
0.000931894
0.000927095
0.000923404
0.000920812
0.000919171
0.000918275
0.000917914
0.000952732
0.00095297
0.000953544
0.000954569
0.000956167
0.000958444
0.000961475
0.000965319
0.000970049
0.000975719
0.000982119
0.000988241
0.000992392
0.000993412
0.000991356
0.000987038
0.00098164
0.000976317
0.000971378
0.000966594
0.000961697
0.000956437
0.0009507
0.000944598
0.000938471
0.000932782
0.000927935
0.000924163
0.000921494
0.000919799
0.000918871
0.000918497
0.000952441
0.00095265
0.000953158
0.000954081
0.000955552
0.000957718
0.000960737
0.000964786
0.000970071
0.000976706
0.000984302
0.000991394
0.0009958
0.000996148
0.000992714
0.00098681
0.00098019
0.000974264
0.000969206
0.000964617
0.000960107
0.000955329
0.00095008
0.000944399
0.000938582
0.000933088
0.000928344
0.000924616
0.000921959
0.000920262
0.000919329
0.000918952
0.000952465
0.000952631
0.000953057
0.000953866
0.00095522
0.000957318
0.000960416
0.000964834
0.00097091
0.000978737
0.000987594
0.000995442
0.00099962
0.000998675
0.000993276
0.000985337
0.000977228
0.000970583
0.000965378
0.000961003
0.000956928
0.000952704
0.000948043
0.000942921
0.000937591
0.000932492
0.000928046
0.000924525
0.000921999
0.000920372
0.000919467
0.000919094
0.000953654
0.000953772
0.000954114
0.000954831
0.000956131
0.000958291
0.000961674
0.000966721
0.000973828
0.000982917
0.000992777
0.00100075
0.00100381
0.00100067
0.000992616
0.000982231
0.000972451
0.00096502
0.000959643
0.000955482
0.000951868
0.000948253
0.000944276
0.000939858
0.000935209
0.000930723
0.000926788
0.000923652
0.00092138
0.000919893
0.000919047
0.000918689
0.000957665
0.000957757
0.000958065
0.000958779
0.000960172
0.000962613
0.000966557
0.000972487
0.000980674
0.000990676
0.0010007
0.00100758
0.00100824
0.00100194
0.000990719
0.000977756
0.000966308
0.000958038
0.000952365
0.000948265
0.000944987
0.000941923
0.000938658
0.000935057
0.000931264
0.000927593
0.000924359
0.000921757
0.000919838
0.000918548
0.000917789
0.000917455
0.000966774
0.000966903
0.000967303
0.000968198
0.000969912
0.000972867
0.000977531
0.000984276
0.000993065
0.00100295
0.00101161
0.00101575
0.00101276
0.00100283
0.000988731
0.000973804
0.00096107
0.000951866
0.000945458
0.000940828
0.000937298
0.000934331
0.00093152
0.000928663
0.000925778
0.00092303
0.000920606
0.000918632
0.00091715
0.000916136
0.000915531
0.000915264
0.000982583
0.000982818
0.000983445
0.000984696
0.00098689
0.000990406
0.000995585
0.00100254
0.00101082
0.00101902
0.0010246
0.00102473
0.00101794
0.00100554
0.000990528
0.000975577
0.000962709
0.00095265
0.000944751
0.000938298
0.000932975
0.000928612
0.000925039
0.000922084
0.000919624
0.00091761
0.000916045
0.00091494
0.000914264
0.000913929
0.000913813
0.000913798
0.00100401
0.00100436
0.00100521
0.00100678
0.00100933
0.00101311
0.00101825
0.00102457
0.00103127
0.00103671
0.00103872
0.00103566
0.00102767
0.0010167
0.00100504
0.00099406
0.000984304
0.000975453
0.000966837
0.000958124
0.000949444
0.000941288
0.000934182
0.00092854
0.00092459
0.000922348
0.000921612
0.000921993
0.000923022
0.000924231
0.000925233
0.000925781
0.00102686
0.00102725
0.00102821
0.00102994
0.00103267
0.00103655
0.00104153
0.00104717
0.00105249
0.00105615
0.00105711
0.00105538
0.00105224
0.00104938
0.00104802
0.00104858
0.00105044
0.00105163
0.00105067
0.00104727
0.00104143
0.00103373
0.00102495
0.00101598
0.00100774
0.00100101
0.000996304
0.00099368
0.000992814
0.000993087
0.00099378
0.000994302
0.00104503
0.00104545
0.00104651
0.00104851
0.00105171
0.00105629
0.00106217
0.00106887
0.00107562
0.00108177
0.00108729
0.00109295
0.00110004
0.00110982
0.00112321
0.00114088
0.00116162
0.0011814
0.00119728
0.00120921
0.00121667
0.00121969
0.00121844
0.00121333
0.00120503
0.00119455
0.00118324
0.00117256
0.00116388
0.00115796
0.00115473
0.00115354
0.00105466
0.00105505
0.00105607
0.00105805
0.00106133
0.00106621
0.00107276
0.00108081
0.00108991
0.00109964
0.00110998
0.00112155
0.00113538
0.00115244
0.00117347
0.00119896
0.00122711
0.0012535
0.00127591
0.00129522
0.00131144
0.00132436
0.00133357
0.00133866
0.00133939
0.00133596
0.00132915
0.00132038
0.00131145
0.00130404
0.00129917
0.001297
0.00105959
0.00105995
0.00106092
0.00106279
0.00106592
0.00107066
0.00107723
0.00108561
0.00109557
0.00110673
0.00111896
0.00113251
0.00114801
0.0011661
0.00118711
0.00121097
0.00123538
0.00125673
0.00127492
0.0012918
0.00130818
0.00132404
0.0013388
0.00135161
0.00136158
0.00136813
0.00137112
0.00137098
0.00136868
0.00136553
0.00136284
0.0013614
0.00106193
0.00106227
0.00106317
0.00106488
0.00106773
0.00107208
0.00107818
0.00108613
0.0010958
0.00110686
0.00111904
0.00113231
0.00114694
0.0011633
0.00118154
0.00120138
0.00122065
0.00123693
0.00125138
0.00126638
0.00128311
0.00130156
0.00132075
0.0013392
0.00135535
0.00136807
0.0013769
0.00138202
0.00138414
0.00138429
0.0013836
0.001383
0.00106289
0.0010632
0.001064
0.00106551
0.00106803
0.00107186
0.00107728
0.00108443
0.00109323
0.00110342
0.00111467
0.0011268
0.00113986
0.00115408
0.0011696
0.00118626
0.00120243
0.00121646
0.00122962
0.00124412
0.0012613
0.00128142
0.0013037
0.00132649
0.0013477
0.00136549
0.00137879
0.00138747
0.00139216
0.00139399
0.00139421
0.00139396
0.0010637
0.00106392
0.00106453
0.00106574
0.00106782
0.00107107
0.00107574
0.00108197
0.00108975
0.00109886
0.00110902
0.00112002
0.00113184
0.00114462
0.00115856
0.00117375
0.00118905
0.00120313
0.0012167
0.0012315
0.0012488
0.00126915
0.00129227
0.00131692
0.00134107
0.00136252
0.00137958
0.00139151
0.00139858
0.00140184
0.00140274
0.00140267
0.00106594
0.00106598
0.00106622
0.00106691
0.00106837
0.00107091
0.00107479
0.00108018
0.00108708
0.00109539
0.00110488
0.00111538
0.00112682
0.00113932
0.00115308
0.00116835
0.00118431
0.00119948
0.00121402
0.00122926
0.00124636
0.00126604
0.00128842
0.00131279
0.00133761
0.00136082
0.00138038
0.00139491
0.00140414
0.00140882
0.00141039
0.0014105
0.00107158
0.00107129
0.00107093
0.00107082
0.0010714
0.00107309
0.00107625
0.00108107
0.00108761
0.00109579
0.00110545
0.00111639
0.0011285
0.00114179
0.0011564
0.00117266
0.00118979
0.00120604
0.00122121
0.00123643
0.00125278
0.0012711
0.00129178
0.00131449
0.00133821
0.00136132
0.00138188
0.00139811
0.00140909
0.0014151
0.00141737
0.00141767
0.00108265
0.00108189
0.00108068
0.00107956
0.00107916
0.00108009
0.00108285
0.00108769
0.00109467
0.00110365
0.00111438
0.00112659
0.00114004
0.00115462
0.00117038
0.00118762
0.00120551
0.00122214
0.00123716
0.00125164
0.00126662
0.00128295
0.00130119
0.00132136
0.00134284
0.00136448
0.00138462
0.00140148
0.00141363
0.00142076
0.00142372
0.00142424
0.00110082
0.00109947
0.00109737
0.00109534
0.0010943
0.00109503
0.00109812
0.00110383
0.00111206
0.00112251
0.00113478
0.00114845
0.00116318
0.00117874
0.00119512
0.00121258
0.00123024
0.00124623
0.00126024
0.0012733
0.00128638
0.0013003
0.00131566
0.00133269
0.00135115
0.00137032
0.00138893
0.00140534
0.00141794
0.00142587
0.00142947
0.00143023
0.00112719
0.00112523
0.00112252
0.0011203
0.0011196
0.00112118
0.00112556
0.0011328
0.00114261
0.00115449
0.00116791
0.00118239
0.00119753
0.00121309
0.00122901
0.00124553
0.00126182
0.00127619
0.00128848
0.00129963
0.0013105
0.00132181
0.00133413
0.00134779
0.0013628
0.00137881
0.00139499
0.00141001
0.00142226
0.00143052
0.00143462
0.00143563
0.00116234
0.00115998
0.00115751
0.00115642
0.00115745
0.00116096
0.00116718
0.00117591
0.00118672
0.00119909
0.00121252
0.00122652
0.00124077
0.00125505
0.00126931
0.00128375
0.00129768
0.00130973
0.00131982
0.00132879
0.00133735
0.00134608
0.00135546
0.00136581
0.00137729
0.0013898
0.00140293
0.00141574
0.00142684
0.00143488
0.00143923
0.00144047
0.00120682
0.00120461
0.00120379
0.00120529
0.001209
0.00121466
0.00122223
0.00123142
0.00124191
0.00125331
0.00126523
0.00127735
0.00128941
0.00130126
0.00131287
0.00132441
0.00133533
0.00134465
0.00135235
0.00135908
0.00136538
0.0013717
0.00137839
0.00138573
0.0013939
0.00140293
0.00141271
0.00142272
0.00143194
0.00143912
0.00144335
0.00144474
0.00126165
0.0012607
0.0012629
0.00126734
0.00127305
0.00127963
0.00128701
0.00129505
0.00130365
0.00131263
0.00132177
0.00133088
0.0013398
0.00134844
0.0013568
0.001365
0.00137266
0.00137912
0.00138442
0.00138899
0.00139321
0.00139737
0.00140173
0.00140648
0.00141174
0.00141761
0.00142411
0.00143102
0.00143778
0.00144344
0.0014471
0.00144847
0.00132893
0.00133045
0.00133501
0.00134016
0.0013454
0.00135064
0.00135595
0.00136133
0.00136683
0.00137242
0.001378
0.0013835
0.00138883
0.00139395
0.00139887
0.00140364
0.00140806
0.00141177
0.00141479
0.00141738
0.00141975
0.00142206
0.00142445
0.00142703
0.00142988
0.00143306
0.00143662
0.0014405
0.00144448
0.00144806
0.00145061
0.0014517
0.00141136
0.0014126
0.00141499
0.00141726
0.00141937
0.00142137
0.00142328
0.00142516
0.00142703
0.00142889
0.00143074
0.00143255
0.0014343
0.00143596
0.00143756
0.0014391
0.00144052
0.00144171
0.00144268
0.0014435
0.00144425
0.00144498
0.00144573
0.00144653
0.00144741
0.00144839
0.00144949
0.0014507
0.00145197
0.00145317
0.00145409
0.00145454
)
;


// ************************************************************************* //
