/*--------------------------------*- C++ -*----------------------------------*\
| =========                 |                                                 |
| \\      /  F ield         | OpenFOAM: The Open Source CFD Toolbox           |
|  \\    /   O peration     | Version:  2212                                  |
|   \\  /    A nd           | Website:  www.openfoam.com                      |
|    \\/     M anipulation  |                                                 |
\*---------------------------------------------------------------------------*/
FoamFile
{
    version     2.0;
    format      ascii;
    arch        "LSB;label=64;scalar=64";
    class       volScalarField;
    location    "1070";
    object      p_rgh;
}
// * * * * * * * * * * * * * * * * * * * * * * * * * * * * * * * * * * * * * //

dimensions      [0 2 -2 0 0 0 0];

internalField   nonuniform List<scalar> 
1024
(
0.0431949
0.0431918
0.0431886
0.0431878
0.0431909
0.0431994
0.0432156
0.0432434
0.043288
0.0433527
0.0434272
0.0434853
0.0434933
0.0434496
0.0433622
0.043262
0.0431792
0.0431271
0.0430981
0.043083
0.0430762
0.0430741
0.0430744
0.0430753
0.0430761
0.0430764
0.0430764
0.0430766
0.0430774
0.0430787
0.0430802
0.0430811
0.0432012
0.0431981
0.0431956
0.0431956
0.0431992
0.0432078
0.0432237
0.043251
0.0432951
0.0433591
0.0434329
0.0434904
0.0434989
0.0434561
0.0433691
0.0432689
0.0431859
0.0431335
0.0431042
0.0430888
0.0430817
0.0430794
0.0430793
0.04308
0.0430805
0.0430806
0.0430804
0.0430803
0.0430808
0.0430818
0.043083
0.0430839
0.0432114
0.0432079
0.0432058
0.043207
0.0432118
0.0432213
0.0432378
0.0432655
0.0433101
0.0433749
0.0434491
0.0435066
0.0435159
0.0434735
0.0433863
0.0432853
0.0432012
0.0431479
0.0431177
0.0431015
0.0430937
0.0430906
0.0430899
0.0430899
0.0430898
0.0430892
0.0430883
0.0430875
0.0430873
0.0430878
0.043089
0.0430902
0.0432219
0.0432178
0.0432163
0.0432191
0.0432261
0.0432376
0.0432561
0.0432857
0.0433323
0.0433988
0.0434741
0.043532
0.0435431
0.0435015
0.0434144
0.0433126
0.0432269
0.0431721
0.0431404
0.0431228
0.0431137
0.0431094
0.0431076
0.0431065
0.0431052
0.0431033
0.0431009
0.0430987
0.0430973
0.0430972
0.0430984
0.0431002
0.0432269
0.0432231
0.0432227
0.0432278
0.0432381
0.0432534
0.0432753
0.0433079
0.0433569
0.0434244
0.0434995
0.0435573
0.0435721
0.0435334
0.0434495
0.0433494
0.0432633
0.0432071
0.0431736
0.0431542
0.0431433
0.0431373
0.0431338
0.0431311
0.043128
0.0431239
0.0431191
0.0431145
0.0431111
0.0431099
0.0431111
0.0431133
0.043221
0.0432182
0.0432196
0.0432279
0.0432426
0.043263
0.0432897
0.0433255
0.0433758
0.0434419
0.0435152
0.0435723
0.0435917
0.0435587
0.0434824
0.0433891
0.0433067
0.0432513
0.0432168
0.0431957
0.0431828
0.0431747
0.0431691
0.0431641
0.0431584
0.0431511
0.0431426
0.0431342
0.0431278
0.0431247
0.0431254
0.0431281
0.0432017
0.0432006
0.0432042
0.0432157
0.0432352
0.0432615
0.0432934
0.0433319
0.0433813
0.0434444
0.0435157
0.0435723
0.0435952
0.0435686
0.0435027
0.0434215
0.0433494
0.0432987
0.0432658
0.0432444
0.04323
0.0432198
0.0432117
0.0432038
0.0431945
0.0431827
0.043169
0.0431552
0.0431442
0.0431383
0.0431379
0.0431407
0.043173
0.0431734
0.0431788
0.0431926
0.0432159
0.0432473
0.0432837
0.0433241
0.043372
0.0434331
0.0435037
0.0435601
0.0435834
0.0435609
0.0435046
0.0434377
0.0433805
0.0433401
0.043313
0.0432939
0.0432796
0.043268
0.0432574
0.0432459
0.0432317
0.0432138
0.0431929
0.0431719
0.0431548
0.0431448
0.0431427
0.0431451
0.0431456
0.0431473
0.0431535
0.0431678
0.0431925
0.0432262
0.0432654
0.0433067
0.0433546
0.0434184
0.0434881
0.0435437
0.0435633
0.0435401
0.0434893
0.0434345
0.0433929
0.0433668
0.0433496
0.0433363
0.0433244
0.0433126
0.0432996
0.0432837
0.0432631
0.0432371
0.0432068
0.0431765
0.0431519
0.0431371
0.0431325
0.043134
0.0431329
0.0431352
0.0431416
0.0431552
0.0431788
0.0432114
0.0432497
0.043292
0.0433446
0.0434131
0.0434841
0.0435338
0.0435432
0.0435129
0.0434622
0.043415
0.0433861
0.0433748
0.04337
0.0433651
0.0433577
0.0433468
0.0433315
0.0433102
0.0432814
0.0432447
0.0432027
0.0431616
0.0431287
0.043109
0.0431017
0.043102
0.0431459
0.0431481
0.0431535
0.0431654
0.0431868
0.0432175
0.0432557
0.0433029
0.0433662
0.0434401
0.0435056
0.0435397
0.0435301
0.0434857
0.0434294
0.0433852
0.0433654
0.0433666
0.0433739
0.0433783
0.0433761
0.0433664
0.043348
0.0433196
0.0432802
0.0432305
0.0431753
0.0431234
0.0430837
0.0430604
0.0430512
0.04305
0.0431932
0.0431947
0.0431985
0.0432083
0.0432278
0.043259
0.043303
0.0433648
0.0434394
0.0435112
0.0435587
0.0435649
0.0435262
0.0434619
0.0433965
0.0433521
0.043338
0.0433492
0.0433665
0.0433782
0.0433795
0.043369
0.0433455
0.0433077
0.0432556
0.0431924
0.0431259
0.0430669
0.0430244
0.0430005
0.0429906
0.0429882
0.0432866
0.0432875
0.0432906
0.0433
0.0433209
0.0433586
0.0434184
0.0434946
0.043569
0.0436218
0.0436353
0.0436019
0.0435274
0.0434418
0.0433681
0.0433223
0.0433099
0.0433254
0.0433472
0.0433609
0.0433618
0.0433476
0.0433165
0.0432683
0.0432055
0.0431353
0.0430676
0.0430118
0.0429734
0.0429518
0.0429422
0.0429388
0.0434421
0.0434443
0.0434507
0.0434661
0.0434978
0.0435516
0.0436197
0.0436848
0.0437323
0.0437443
0.043709
0.0436319
0.0435245
0.0434261
0.0433492
0.0432976
0.0432755
0.0432778
0.0432881
0.0432955
0.0432947
0.0432815
0.0432531
0.0432092
0.0431529
0.0430916
0.0430342
0.0429883
0.0429573
0.0429398
0.0429313
0.0429276
0.0436917
0.0436978
0.0437115
0.043735
0.0437686
0.0438089
0.0438488
0.0438758
0.043875
0.0438325
0.0437441
0.0436345
0.0435249
0.0434238
0.0433354
0.0432633
0.0432137
0.0431881
0.0431825
0.0431894
0.0431992
0.0432045
0.0431983
0.0431765
0.0431404
0.0430964
0.0430538
0.0430199
0.0429979
0.0429863
0.0429813
0.0429789
0.0439457
0.0439486
0.0439561
0.0439695
0.0439877
0.0440055
0.044011
0.0439899
0.0439351
0.0438562
0.0437668
0.0436754
0.043585
0.0434967
0.0434137
0.0433438
0.0433032
0.0433022
0.0433362
0.043378
0.0434176
0.0434452
0.0434519
0.0434317
0.0433864
0.0433283
0.0432806
0.0432498
0.0432331
0.0432288
0.0432311
0.043234
0.0442318
0.0442328
0.0442383
0.044248
0.0442582
0.0442616
0.044252
0.0442271
0.0441897
0.0441443
0.0440975
0.0440533
0.0440128
0.0439774
0.0439511
0.0439442
0.0439753
0.0440434
0.0441283
0.0442308
0.0443425
0.0444514
0.0445422
0.0445981
0.0446052
0.0445561
0.0444497
0.0443104
0.0441757
0.0440751
0.0440217
0.0440051
0.0442571
0.0442562
0.0442589
0.0442676
0.044281
0.0442944
0.0443025
0.0443024
0.0442952
0.0442829
0.0442693
0.0442567
0.0442465
0.0442397
0.0442381
0.0442468
0.0442775
0.0443238
0.0443725
0.044441
0.0445267
0.044623
0.0447203
0.0448073
0.0448735
0.0449119
0.0449212
0.0449034
0.0448651
0.0448165
0.0447714
0.0447444
0.044224
0.0442229
0.0442244
0.0442315
0.044245
0.0442625
0.0442797
0.0442932
0.044303
0.0443104
0.0443175
0.0443246
0.0443312
0.0443366
0.0443403
0.0443433
0.0443559
0.0443782
0.0444017
0.0444371
0.0444855
0.0445455
0.0446152
0.0446896
0.0447603
0.0448188
0.0448589
0.0448783
0.0448801
0.0448698
0.0448544
0.0448419
0.0441849
0.0441838
0.0441843
0.0441898
0.0442027
0.0442226
0.0442461
0.0442691
0.0442896
0.0443083
0.0443262
0.0443427
0.0443564
0.0443655
0.0443685
0.0443666
0.0443712
0.0443913
0.044415
0.0444394
0.044464
0.0444906
0.0445247
0.0445691
0.0446216
0.0446754
0.0447214
0.0447525
0.0447669
0.0447676
0.0447601
0.0447509
0.0441627
0.0441613
0.0441608
0.0441644
0.0441757
0.0441963
0.0442237
0.0442536
0.0442817
0.0443077
0.0443313
0.0443516
0.0443669
0.0443753
0.0443756
0.0443704
0.0443717
0.0443953
0.044431
0.0444619
0.0444843
0.0444973
0.0445066
0.0445219
0.0445497
0.0445891
0.0446315
0.0446666
0.0446874
0.0446935
0.0446886
0.0446797
0.044158
0.0441564
0.0441549
0.0441573
0.0441673
0.0441876
0.0442172
0.044252
0.0442868
0.0443183
0.0443452
0.0443666
0.0443808
0.0443863
0.0443826
0.0443733
0.0443692
0.0443873
0.0444258
0.0444681
0.0445046
0.044529
0.0445357
0.0445379
0.0445488
0.0445755
0.0446139
0.0446523
0.0446793
0.0446903
0.0446874
0.0446782
0.0441652
0.0441631
0.0441609
0.0441625
0.0441723
0.0441936
0.0442262
0.0442657
0.0443052
0.0443405
0.044369
0.0443888
0.0443992
0.0443991
0.0443894
0.0443742
0.0443633
0.0443743
0.0444106
0.0444576
0.0445043
0.0445432
0.0445697
0.0445888
0.0446034
0.0446274
0.0446682
0.044715
0.0447526
0.0447714
0.0447714
0.044762
0.0441788
0.0441762
0.0441733
0.0441749
0.0441859
0.0442101
0.0442467
0.0442907
0.0443341
0.0443709
0.0443984
0.0444144
0.0444187
0.0444111
0.0443931
0.0443698
0.0443502
0.0443529
0.0443831
0.0444303
0.0444833
0.0445369
0.0445876
0.0446359
0.0446826
0.0447333
0.0447875
0.0448518
0.0449094
0.0449429
0.0449488
0.0449407
0.044192
0.0441886
0.0441856
0.0441892
0.0442044
0.0442339
0.0442762
0.0443246
0.04437
0.0444059
0.0444291
0.0444384
0.044434
0.0444167
0.0443883
0.0443543
0.044324
0.0443171
0.0443399
0.0443851
0.0444429
0.0445106
0.0445866
0.0446713
0.0447639
0.0448629
0.0449622
0.0450596
0.0451492
0.0452098
0.0452286
0.0452254
0.0442014
0.0441968
0.044195
0.0442035
0.044226
0.0442629
0.0443121
0.0443641
0.0444088
0.04444
0.0444555
0.0444552
0.0444395
0.0444101
0.044369
0.0443221
0.0442801
0.0442634
0.0442791
0.0443219
0.0443846
0.0444667
0.0445691
0.0446934
0.0448388
0.0450007
0.0451683
0.0453277
0.0454678
0.0455748
0.0456212
0.045631
0.0441996
0.0441946
0.0441966
0.0442144
0.0442487
0.0442952
0.0443511
0.0444045
0.0444449
0.0444676
0.0444719
0.044459
0.0444298
0.0443864
0.0443313
0.0442708
0.0442176
0.0441925
0.0442029
0.0442446
0.0443133
0.0444099
0.0445384
0.0447023
0.0449027
0.0451342
0.0453835
0.0456303
0.0458521
0.0460324
0.0461334
0.0461722
0.0441751
0.0441734
0.0441854
0.0442197
0.0442706
0.0443284
0.044389
0.0444401
0.0444719
0.0444824
0.0444729
0.0444454
0.0444016
0.044344
0.0442755
0.0442033
0.0441416
0.0441109
0.0441187
0.0441613
0.044237
0.0443476
0.0444996
0.0446993
0.0449503
0.0452497
0.0455856
0.0459365
0.0462736
0.0465629
0.0467609
0.0468586
0.0441018
0.0441156
0.0441543
0.0442176
0.04429
0.0443593
0.0444208
0.0444647
0.0444844
0.0444807
0.0444566
0.0444148
0.0443576
0.044288
0.0442091
0.0441288
0.0440623
0.0440293
0.0440369
0.0440826
0.0441652
0.0442877
0.0444586
0.0446868
0.0449785
0.0453352
0.0457506
0.04621
0.0466875
0.0471405
0.0474926
0.0477199
0.0439254
0.0440015
0.0441076
0.0442156
0.04431
0.0443881
0.044445
0.0444776
0.0444838
0.0444664
0.0444291
0.0443754
0.044308
0.0442301
0.0441448
0.0440604
0.0439924
0.0439598
0.0439688
0.044018
0.0441062
0.0442373
0.0444209
0.044668
0.0449869
0.0453835
0.0458593
0.046413
0.047038
0.0477077
0.0483384
0.0488896
0.0434416
0.0438348
0.0440839
0.04424
0.0443457
0.0444217
0.0444683
0.0444877
0.0444807
0.0444513
0.0444035
0.0443415
0.0442677
0.0441849
0.0440966
0.0440109
0.0439431
0.0439114
0.0439222
0.0439739
0.0440653
0.0442009
0.0443909
0.044647
0.0449791
0.0453956
0.045905
0.0465204
0.0472656
0.0481767
0.049285
0.0505441
0.0424246
0.0436638
0.0441361
0.0442924
0.0443901
0.044458
0.0444932
0.0445009
0.044484
0.0444463
0.0443921
0.044325
0.0442477
0.0441627
0.0440731
0.0439869
0.0439193
0.0438883
0.0439
0.0439526
0.0440449
0.0441817
0.0443731
0.0446311
0.0449659
0.0453872
0.0459073
0.0465507
0.0473704
0.0484753
0.0500854
0.0523495
)
;

boundaryField
{
    movingWall
    {
        type            fixedFluxPressure;
        gradient        uniform 0;
        value           nonuniform List<scalar> 
32
(
0.0424246
0.0436638
0.0441361
0.0442924
0.0443901
0.044458
0.0444932
0.0445009
0.044484
0.0444463
0.0443921
0.044325
0.0442477
0.0441627
0.0440731
0.0439869
0.0439193
0.0438883
0.0439
0.0439526
0.0440449
0.0441817
0.0443731
0.0446311
0.0449659
0.0453872
0.0459073
0.0465507
0.0473704
0.0484753
0.0500854
0.0523495
)
;
    }
    fixedWalls
    {
        type            fixedFluxPressure;
        gradient        uniform 0;
        value           nonuniform List<scalar> 
64
(
0.0431949
0.0432012
0.0432114
0.0432219
0.0432269
0.043221
0.0432017
0.043173
0.0431456
0.0431329
0.0431459
0.0431932
0.0432866
0.0434421
0.0436917
0.0439457
0.0442318
0.0442571
0.044224
0.0441849
0.0441627
0.044158
0.0441652
0.0441788
0.044192
0.0442014
0.0441996
0.0441751
0.0441018
0.0439254
0.0434416
0.0424246
0.0430811
0.0430839
0.0430902
0.0431002
0.0431133
0.0431281
0.0431407
0.0431451
0.043134
0.043102
0.04305
0.0429882
0.0429388
0.0429276
0.0429789
0.043234
0.0440051
0.0447444
0.0448419
0.0447509
0.0446797
0.0446782
0.044762
0.0449407
0.0452254
0.045631
0.0461722
0.0468586
0.0477199
0.0488896
0.0505441
0.0523495
)
;
    }
    floor
    {
        type            fixedFluxPressure;
        gradient        uniform 0;
        value           nonuniform List<scalar> 
32
(
0.0431949
0.0431918
0.0431886
0.0431878
0.0431909
0.0431994
0.0432156
0.0432434
0.043288
0.0433527
0.0434272
0.0434853
0.0434933
0.0434496
0.0433622
0.043262
0.0431792
0.0431271
0.0430981
0.043083
0.0430762
0.0430741
0.0430744
0.0430753
0.0430761
0.0430764
0.0430764
0.0430766
0.0430774
0.0430787
0.0430802
0.0430811
)
;
    }
    frontAndBack
    {
        type            empty;
    }
}


// ************************************************************************* //
