/*--------------------------------*- C++ -*----------------------------------*\
| =========                 |                                                 |
| \\      /  F ield         | OpenFOAM: The Open Source CFD Toolbox           |
|  \\    /   O peration     | Version:  2212                                  |
|   \\  /    A nd           | Website:  www.openfoam.com                      |
|    \\/     M anipulation  |                                                 |
\*---------------------------------------------------------------------------*/
FoamFile
{
    version     2.0;
    format      ascii;
    arch        "LSB;label=64;scalar=64";
    class       surfaceScalarField;
    location    "1070";
    object      phi;
}
// * * * * * * * * * * * * * * * * * * * * * * * * * * * * * * * * * * * * * //

dimensions      [0 3 -1 0 0 0 0];

oriented        oriented;

internalField   nonuniform List<scalar> 
1984
(
-1.22399e-09
1.24347e-09
-1.44263e-08
1.32021e-08
-4.14349e-08
2.70086e-08
-7.77354e-08
3.63005e-08
-1.1842e-07
4.06845e-08
-1.60156e-07
4.17362e-08
-1.99795e-07
3.96389e-08
-2.31507e-07
3.17117e-08
-2.43485e-07
1.19785e-08
-2.14622e-07
-2.88632e-08
-1.26624e-07
-8.79985e-08
1.31922e-08
-1.39816e-07
1.4591e-07
-1.32718e-07
2.35091e-07
-8.91804e-08
2.73385e-07
-3.82948e-08
2.69743e-07
3.64265e-09
2.43326e-07
2.64171e-08
2.11776e-07
3.15497e-08
1.80553e-07
3.12229e-08
1.51511e-07
2.90418e-08
1.25442e-07
2.60689e-08
1.02832e-07
2.26105e-08
8.3842e-08
1.899e-08
6.81257e-08
1.57163e-08
5.47049e-08
1.34208e-08
4.22411e-08
1.24638e-08
2.9813e-08
1.24281e-08
1.7766e-08
1.20469e-08
7.68988e-09
1.0076e-08
1.38389e-09
6.30591e-09
-6.26131e-10
2.00997e-09
-6.26103e-10
-1.49359e-08
1.61793e-08
-6.48848e-08
6.31509e-08
-1.49441e-07
1.11564e-07
-2.5868e-07
1.4554e-07
-3.79463e-07
1.61468e-07
-4.99641e-07
1.61914e-07
-6.06343e-07
1.46341e-07
-6.80523e-07
1.05892e-07
-6.90796e-07
2.22515e-08
-5.88492e-07
-1.31167e-07
-3.30773e-07
-3.45718e-07
6.52691e-08
-5.35858e-07
4.48914e-07
-5.16363e-07
7.17538e-07
-3.57804e-07
8.53029e-07
-1.73786e-07
8.67242e-07
-1.05702e-08
8.04667e-07
8.89925e-08
7.16592e-07
1.19624e-07
6.22888e-07
1.24927e-07
5.31773e-07
1.20157e-07
4.47177e-07
1.10665e-07
3.71428e-07
9.83587e-08
3.05577e-07
8.48411e-08
2.49039e-07
7.22545e-08
1.99476e-07
6.29841e-08
1.53733e-07
5.82069e-08
1.09902e-07
5.62579e-08
6.91954e-08
5.27536e-08
3.55429e-08
4.37284e-08
1.28756e-08
2.89732e-08
2.12451e-09
1.2761e-08
1.49843e-09
-3.54017e-08
5.15809e-08
-1.32831e-07
1.6058e-07
-2.83234e-07
2.61968e-07
-4.69415e-07
3.31721e-07
-6.69812e-07
3.61865e-07
-8.61988e-07
3.5409e-07
-1.02124e-06
3.05592e-07
-1.11507e-06
1.99721e-07
-1.0954e-06
2.58653e-09
-8.98374e-07
-3.28197e-07
-4.70375e-07
-7.73717e-07
1.56515e-07
-1.16275e-06
7.71788e-07
-1.13164e-06
1.22947e-06
-8.15481e-07
1.49448e-06
-4.38799e-07
1.56427e-06
-8.03645e-08
1.49099e-06
1.62273e-07
1.35829e-06
2.52322e-07
1.204e-06
2.79224e-07
1.0459e-06
2.78254e-07
8.93326e-07
2.6324e-07
7.51907e-07
2.39778e-07
6.24636e-07
2.12112e-07
5.11649e-07
1.85241e-07
4.10325e-07
1.64308e-07
3.16827e-07
1.51705e-07
2.29019e-07
1.44066e-07
1.48914e-07
1.32858e-07
8.21588e-08
1.10483e-07
3.44715e-08
7.66603e-08
7.9122e-09
3.93204e-08
9.41059e-09
-5.51973e-08
1.06778e-07
-1.99426e-07
3.04809e-07
-4.13233e-07
4.75774e-07
-6.69934e-07
5.88422e-07
-9.38514e-07
6.30445e-07
-1.18587e-06
6.01446e-07
-1.37569e-06
4.95416e-07
-1.46377e-06
2.87797e-07
-1.39023e-06
-7.09566e-08
-1.08717e-06
-6.31249e-07
-5.04993e-07
-1.3559e-06
2.9325e-07
-1.96099e-06
1.0846e-06
-1.92299e-06
1.72094e-06
-1.45181e-06
2.1383e-06
-8.56164e-07
2.30686e-06
-2.48919e-07
2.26293e-06
2.06206e-07
2.1127e-06
4.02546e-07
1.91372e-06
4.78205e-07
1.69515e-06
4.96825e-07
1.47353e-06
4.8486e-07
1.2593e-06
4.54008e-07
1.05873e-06
4.12685e-07
8.74109e-07
3.69857e-07
7.04271e-07
3.34147e-07
5.46354e-07
3.09621e-07
3.98964e-07
2.91457e-07
2.64973e-07
2.66849e-07
1.51602e-07
2.23854e-07
6.71524e-08
1.6111e-07
1.66902e-08
8.97826e-08
2.61007e-08
-6.64773e-08
1.73256e-07
-2.40043e-07
4.78375e-07
-4.96641e-07
7.32372e-07
-8.02538e-07
8.94318e-07
-1.11742e-06
9.4533e-07
-1.39737e-06
8.81396e-07
-1.59509e-06
6.93129e-07
-1.65667e-06
3.49376e-07
-1.51748e-06
-2.10138e-07
-1.11527e-06
-1.03347e-06
-4.13441e-07
-2.05772e-06
4.78122e-07
-2.85255e-06
1.37284e-06
-2.81771e-06
2.15139e-06
-2.23037e-06
2.71906e-06
-1.42383e-06
3.01852e-06
-5.48384e-07
3.04896e-06
1.75773e-07
2.91911e-06
5.32393e-07
2.70511e-06
6.92206e-07
2.44664e-06
7.55293e-07
2.16763e-06
7.63869e-07
1.88398e-06
7.37655e-07
1.60623e-06
6.90444e-07
1.34023e-06
6.35848e-07
1.08811e-06
5.86267e-07
8.49921e-07
5.47814e-07
6.26426e-07
5.14952e-07
4.2214e-07
4.71135e-07
2.46609e-07
3.99384e-07
1.12147e-07
2.95572e-07
2.87922e-08
1.73138e-07
5.48929e-08
-6.24006e-08
2.35656e-07
-2.3231e-07
6.48284e-07
-4.92781e-07
9.92844e-07
-8.11333e-07
1.21287e-06
-1.14195e-06
1.27595e-06
-1.43062e-06
1.17006e-06
-1.61939e-06
8.81897e-07
-1.64623e-06
3.76213e-07
-1.4451e-06
-4.11269e-07
-9.63559e-07
-1.51501e-06
-1.92011e-07
-2.82927e-06
7.16462e-07
-3.76103e-06
1.64768e-06
-3.74892e-06
2.50988e-06
-3.09256e-06
3.19166e-06
-2.10561e-06
3.6228e-06
-9.79532e-07
3.75897e-06
3.96114e-08
3.68631e-06
6.05054e-07
3.49329e-06
8.85216e-07
3.22606e-06
1.02253e-06
2.91374e-06
1.07619e-06
2.57677e-06
1.07462e-06
2.22991e-06
1.03731e-06
1.88329e-06
9.82463e-07
1.54356e-06
9.25998e-07
1.21525e-06
8.76122e-07
9.03009e-07
8.27194e-07
6.14649e-07
7.59495e-07
3.63655e-07
6.50378e-07
1.67907e-07
4.91319e-07
4.39039e-08
2.97141e-07
9.87967e-08
-4.11896e-08
2.76846e-07
-1.67194e-07
7.74288e-07
-3.79953e-07
1.2056e-06
-6.60851e-07
1.49377e-06
-9.67412e-07
1.58251e-06
-1.23936e-06
1.44202e-06
-1.40874e-06
1.05128e-06
-1.40462e-06
3.72086e-07
-1.15402e-06
-6.61863e-07
-6.16454e-07
-2.05258e-06
1.59211e-07
-3.60494e-06
1.01806e-06
-4.61987e-06
1.93248e-06
-4.66335e-06
2.80941e-06
-3.96949e-06
3.54152e-06
-2.83773e-06
4.06439e-06
-1.5024e-06
4.30493e-06
-2.00927e-07
4.312e-06
5.97986e-07
4.1706e-06
1.02661e-06
3.92718e-06
1.26595e-06
3.61187e-06
1.3915e-06
3.24711e-06
1.43938e-06
2.85053e-06
1.4339e-06
2.43617e-06
1.39682e-06
2.01543e-06
1.34674e-06
1.59809e-06
1.29346e-06
1.19417e-06
1.23111e-06
8.17005e-07
1.13666e-06
4.86087e-07
9.81296e-07
2.25976e-07
7.5143e-07
5.96267e-08
4.6349e-07
1.58423e-07
-8.51805e-09
2.85364e-07
-5.66536e-08
8.22424e-07
-1.68141e-07
1.31709e-06
-3.49814e-07
1.67544e-06
-5.78142e-07
1.81084e-06
-7.97857e-07
1.66173e-06
-9.338e-07
1.18722e-06
-9.05374e-07
3.4366e-07
-6.17597e-07
-9.4964e-07
-5.45394e-08
-2.61563e-06
6.39571e-07
-4.29905e-06
1.40191e-06
-5.38222e-06
2.24152e-06
-5.50296e-06
3.05889e-06
-4.78685e-06
3.76422e-06
-3.54306e-06
4.3096e-06
-2.04778e-06
4.61815e-06
-5.09477e-07
4.70339e-06
5.12742e-07
4.62868e-06
1.10133e-06
4.43328e-06
1.46135e-06
4.14303e-06
1.68174e-06
3.77863e-06
1.80378e-06
3.35822e-06
1.85431e-06
2.89837e-06
1.85667e-06
2.41453e-06
1.83058e-06
1.92182e-06
1.78618e-06
1.43691e-06
1.71601e-06
9.80945e-07
1.59263e-06
5.81375e-07
1.38087e-06
2.69192e-07
1.06361e-06
7.08299e-08
6.61853e-07
2.29253e-07
2.48492e-08
2.60515e-07
6.69085e-08
7.80364e-07
9.07179e-08
1.29328e-06
6.57644e-08
1.70039e-06
-1.51393e-08
1.89174e-06
-1.17093e-07
1.76369e-06
-1.77086e-07
1.24721e-06
-9.85706e-08
2.65145e-07
2.05936e-07
-1.25415e-06
6.8472e-07
-3.09442e-06
1.24596e-06
-4.86029e-06
1.87604e-06
-6.0123e-06
2.56173e-06
-6.18865e-06
3.23342e-06
-5.45854e-06
3.82851e-06
-4.13815e-06
4.32192e-06
-2.5412e-06
4.6448e-06
-8.32348e-07
4.78274e-06
3.74794e-07
4.77096e-06
1.11311e-06
4.63456e-06
1.59775e-06
4.38958e-06
1.92672e-06
4.05071e-06
2.14266e-06
3.63367e-06
2.27135e-06
3.15552e-06
2.33482e-06
2.63463e-06
2.35147e-06
2.0915e-06
2.32931e-06
1.55094e-06
2.25657e-06
1.04422e-06
2.09935e-06
6.07692e-07
1.81739e-06
2.75745e-07
1.39556e-06
7.10568e-08
8.66541e-07
3.0031e-07
5.0338e-08
2.10177e-07
1.72316e-07
6.58387e-07
3.32254e-07
1.13334e-06
4.90935e-07
1.54171e-06
6.19538e-07
1.76314e-06
7.11758e-07
1.67146e-06
8.07072e-07
1.1519e-06
9.65991e-07
1.06226e-07
1.23757e-06
-1.52572e-06
1.59344e-06
-3.4503e-06
1.98543e-06
-5.25228e-06
2.4007e-06
-6.42756e-06
2.8304e-06
-6.61835e-06
3.25243e-06
-5.88057e-06
3.64518e-06
-4.5309e-06
4.01515e-06
-2.91117e-06
4.30246e-06
-1.11965e-06
4.46237e-06
2.14879e-07
4.50088e-06
1.07461e-06
4.42615e-06
1.67247e-06
4.24036e-06
2.11251e-06
3.94862e-06
2.4344e-06
3.56138e-06
2.65859e-06
3.09427e-06
2.80193e-06
2.56793e-06
2.8778e-06
2.0093e-06
2.88794e-06
1.45384e-06
2.81203e-06
9.44989e-07
2.6082e-06
5.26207e-07
2.23617e-06
2.27244e-07
1.69452e-06
5.54352e-08
1.03835e-06
3.55745e-07
6.2135e-08
1.48042e-07
2.34083e-07
4.86439e-07
4.9595e-07
8.71476e-07
8.11145e-07
1.22652e-06
1.13955e-06
1.43474e-06
1.45415e-06
1.35686e-06
1.75445e-06
8.51606e-07
2.0652e-06
-2.04527e-07
2.34564e-06
-1.80616e-06
2.58189e-06
-3.68655e-06
2.74935e-06
-5.41974e-06
2.84873e-06
-6.52694e-06
2.90211e-06
-6.67173e-06
2.95668e-06
-5.93513e-06
3.04741e-06
-4.62163e-06
3.22657e-06
-3.09034e-06
3.44434e-06
-1.33742e-06
3.60759e-06
5.16264e-08
3.69035e-06
9.91849e-07
3.68337e-06
1.67945e-06
3.5723e-06
2.22358e-06
3.35017e-06
2.65654e-06
3.02004e-06
2.98872e-06
2.59561e-06
3.22636e-06
2.10171e-06
3.3717e-06
1.57587e-06
3.41378e-06
1.06817e-06
3.31973e-06
6.33365e-07
3.04301e-06
3.1292e-07
2.55662e-06
1.16923e-07
1.89052e-06
2.35573e-08
1.13172e-06
3.79303e-07
5.79485e-08
9.00931e-08
2.35651e-07
3.08736e-07
5.355e-07
5.71628e-07
9.38367e-07
8.23649e-07
1.40925e-06
9.63853e-07
1.91207e-06
8.54041e-07
2.42448e-06
3.39194e-07
2.90483e-06
-6.84874e-07
3.24128e-06
-2.14261e-06
3.36847e-06
-3.81374e-06
3.25885e-06
-5.31012e-06
2.94539e-06
-6.21348e-06
2.50157e-06
-6.22791e-06
2.07742e-06
-5.51098e-06
1.77777e-06
-4.32197e-06
1.70619e-06
-3.01877e-06
1.82446e-06
-1.45569e-06
1.98882e-06
-1.12733e-07
2.12719e-06
8.53483e-07
2.20785e-06
1.59879e-06
2.19749e-06
2.23394e-06
2.07568e-06
2.77835e-06
1.8368e-06
3.2276e-06
1.49571e-06
3.56745e-06
1.09089e-06
3.77652e-06
6.8163e-07
3.82304e-06
3.3377e-07
3.66759e-06
9.62103e-08
3.28057e-06
-1.9522e-08
2.67235e-06
-4.15473e-08
1.91254e-06
-1.93628e-08
1.10953e-06
3.5994e-07
4.43952e-08
4.56979e-08
1.96166e-07
1.56965e-07
4.77859e-07
2.89935e-07
8.95394e-07
4.06114e-07
1.43603e-06
4.23219e-07
2.07146e-06
2.18604e-07
2.7351e-06
-3.24441e-07
3.28688e-06
-1.23665e-06
3.58868e-06
-2.44442e-06
3.52423e-06
-3.74929e-06
3.04335e-06
-4.82924e-06
2.21755e-06
-5.38767e-06
1.17903e-06
-5.1894e-06
2.04366e-07
-4.53632e-06
-5.10387e-07
-3.60722e-06
-8.81606e-07
-2.64755e-06
-9.26715e-07
-1.41058e-06
-7.98743e-07
-2.40704e-07
-5.92314e-07
6.47054e-07
-3.98539e-07
1.40501e-06
-2.67079e-07
2.10248e-06
-2.3178e-07
2.74305e-06
-2.97639e-07
3.29346e-06
-4.36615e-07
3.70642e-06
-5.93041e-07
3.93295e-06
-7.00159e-07
3.93016e-06
-7.06823e-07
3.67426e-06
-6.01494e-07
3.17524e-06
-4.18366e-07
2.48922e-06
-2.1901e-07
1.71319e-06
-6.41833e-08
9.54705e-07
2.95757e-07
3.75352e-08
8.16269e-09
1.64892e-07
2.96088e-08
4.09361e-07
4.54656e-08
7.90157e-07
2.53181e-08
1.3071e-06
-9.37223e-08
1.91509e-06
-3.8939e-07
2.49607e-06
-9.05418e-07
2.88509e-06
-1.62567e-06
2.91714e-06
-2.47647e-06
2.45392e-06
-3.28607e-06
1.41594e-06
-3.79127e-06
-8.84351e-08
-3.8833e-06
-1.71224e-06
-3.56559e-06
-3.14819e-06
-3.10037e-06
-4.24779e-06
-2.50762e-06
-5.01698e-06
-1.87836e-06
-5.37052e-06
-1.05704e-06
-5.36227e-06
-2.48952e-07
-5.14557e-06
4.30359e-07
-4.8036e-06
1.06304e-06
-4.4068e-06
1.70568e-06
-4.00519e-06
2.34144e-06
-3.62008e-06
2.90835e-06
-3.24319e-06
3.32954e-06
-2.84488e-06
3.53464e-06
-2.39385e-06
3.47914e-06
-1.88066e-06
3.16107e-06
-1.33265e-06
2.62723e-06
-8.08745e-07
1.96532e-06
-3.78748e-07
1.28319e-06
-9.96905e-08
6.75647e-07
1.96066e-07
2.95668e-08
-2.14042e-08
1.30079e-07
-7.09031e-08
3.14785e-07
-1.39241e-07
5.86176e-07
-2.46073e-07
9.13447e-07
-4.20993e-07
1.21207e-06
-6.88018e-07
1.3519e-06
-1.04525e-06
1.17014e-06
-1.4439e-06
4.90395e-07
-1.79673e-06
-7.93351e-07
-2.00232e-06
-2.59496e-06
-1.98966e-06
-4.65912e-06
-1.81914e-06
-6.67623e-06
-1.54848e-06
-8.55869e-06
-1.21792e-06
-1.02204e-05
-8.45934e-07
-1.15906e-05
-5.08123e-07
-1.23967e-05
-2.50912e-07
-1.25472e-05
-9.85126e-08
-1.21818e-05
6.50105e-08
-1.1413e-05
2.94171e-07
-1.0358e-05
6.50766e-07
-9.11465e-06
1.09803e-06
-7.77232e-06
1.56602e-06
-6.41098e-06
1.96819e-06
-5.09523e-06
2.21889e-06
-3.86812e-06
2.25202e-06
-2.74953e-06
2.04248e-06
-1.77517e-06
1.65287e-06
-9.91407e-07
1.18155e-06
-4.32438e-07
7.24222e-07
-1.07242e-07
3.50451e-07
8.88243e-08
-6.27295e-09
-1.51311e-08
-5.85277e-08
-1.86482e-08
-1.85182e-07
-1.25858e-08
-4.09864e-07
-2.13908e-08
-7.69033e-07
-6.18245e-08
-1.33233e-06
-1.24717e-07
-2.20379e-06
-1.73786e-07
-3.49395e-06
-1.53752e-07
-5.26728e-06
-2.33977e-08
-7.4613e-06
1.91703e-07
-9.91494e-06
4.63987e-07
-1.24611e-05
7.27052e-07
-1.49768e-05
9.67196e-07
-1.73679e-05
1.17321e-06
-1.95236e-05
1.30972e-06
-2.13092e-05
1.27753e-06
-2.23294e-05
7.69227e-07
-2.24181e-05
-9.74275e-09
-2.16858e-05
-6.67353e-07
-2.02275e-05
-1.16409e-06
-1.81446e-05
-1.43215e-06
-1.55762e-05
-1.47037e-06
-1.27012e-05
-1.30902e-06
-9.73504e-06
-9.97941e-07
-6.91434e-06
-6.01803e-07
-4.46873e-06
-1.93592e-07
-2.56482e-06
1.38572e-07
-1.26286e-06
3.50909e-07
-5.01859e-07
4.20554e-07
-1.37723e-07
3.60087e-07
-1.29519e-08
2.25679e-07
7.58724e-08
-1.4019e-07
1.25059e-07
-5.43716e-07
3.84877e-07
-1.2223e-06
6.66002e-07
-2.18487e-06
9.41177e-07
-3.43315e-06
1.18645e-06
-4.95674e-06
1.39888e-06
-6.72732e-06
1.5968e-06
-8.68162e-06
1.80055e-06
-1.07208e-05
2.01579e-06
-1.27698e-05
2.24073e-06
-1.47871e-05
2.48124e-06
-1.67933e-05
2.73327e-06
-1.88006e-05
2.97446e-06
-2.07904e-05
3.16302e-06
-2.26948e-05
3.21409e-06
-2.43852e-05
2.968e-06
-2.54288e-05
1.81277e-06
-2.55294e-05
9.08807e-08
-2.49326e-05
-1.26416e-06
-2.36835e-05
-2.41322e-06
-2.18089e-05
-3.30671e-06
-1.93524e-05
-3.92687e-06
-1.6408e-05
-4.25344e-06
-1.31408e-05
-4.26515e-06
-9.78669e-06
-3.95587e-06
-6.63117e-06
-3.34912e-06
-3.97869e-06
-2.51391e-06
-2.02866e-06
-1.59912e-06
-8.18557e-07
-7.89553e-07
-2.24185e-07
-2.34284e-07
-1.97413e-08
2.12358e-08
5.61312e-08
-1.02552e-07
2.27611e-07
-4.09418e-07
6.91743e-07
-9.27965e-07
1.18455e-06
-1.64982e-06
1.66303e-06
-2.55571e-06
2.09234e-06
-3.62015e-06
2.46332e-06
-4.81592e-06
2.79257e-06
-6.1195e-06
3.10413e-06
-7.51467e-06
3.41096e-06
-8.987e-06
3.71306e-06
-1.05112e-05
4.00545e-06
-1.20573e-05
4.27933e-06
-1.35969e-05
4.51408e-06
-1.51e-05
4.66615e-06
-1.65317e-05
4.6458e-06
-1.78303e-05
4.26652e-06
-1.8715e-05
2.6975e-06
-1.9091e-05
4.66936e-07
-1.89815e-05
-1.37369e-06
-1.85142e-05
-2.8805e-06
-1.76919e-05
-4.12902e-06
-1.6482e-05
-5.13683e-06
-1.48669e-05
-5.86854e-06
-1.2875e-05
-6.25705e-06
-1.05886e-05
-6.24225e-06
-8.14149e-06
-5.79621e-06
-5.70905e-06
-4.94634e-06
-3.51725e-06
-3.79092e-06
-1.79736e-06
-2.50944e-06
-6.84719e-07
-1.34693e-06
-1.42213e-07
-5.2127e-07
-8.60812e-08
-4.10592e-08
2.6867e-07
-1.78501e-07
8.29185e-07
-4.37533e-07
1.44358e-06
-8.36283e-07
2.06178e-06
-1.37708e-06
2.63314e-06
-2.04384e-06
3.13007e-06
-2.80913e-06
3.55786e-06
-3.64559e-06
3.94059e-06
-4.53229e-06
4.29766e-06
-5.45262e-06
4.63338e-06
-6.3886e-06
4.94144e-06
-7.31932e-06
5.21004e-06
-8.22364e-06
5.41841e-06
-9.08186e-06
5.52437e-06
-9.87512e-06
5.43906e-06
-1.0585e-05
4.97644e-06
-1.11334e-05
3.24589e-06
-1.15065e-05
8.40036e-07
-1.17237e-05
-1.15648e-06
-1.18499e-05
-2.75438e-06
-1.18772e-05
-4.10166e-06
-1.17209e-05
-5.29313e-06
-1.12731e-05
-6.31633e-06
-1.04549e-05
-7.07524e-06
-9.23524e-06
-7.46194e-06
-7.65081e-06
-7.38064e-06
-5.81453e-06
-6.78263e-06
-3.91607e-06
-5.68937e-06
-2.20271e-06
-4.2228e-06
-9.22432e-07
-2.6272e-06
-2.06746e-07
-1.23696e-06
-2.92827e-07
-2.53069e-09
2.71201e-07
-3.02931e-08
8.56947e-07
-1.11586e-07
1.52487e-06
-2.75167e-07
2.22536e-06
-5.39407e-07
2.89738e-06
-9.00778e-07
3.49144e-06
-1.33442e-06
3.9915e-06
-1.80875e-06
4.41493e-06
-2.29631e-06
4.78522e-06
-2.77613e-06
5.1132e-06
-3.23095e-06
5.39626e-06
-3.64515e-06
5.62425e-06
-4.00538e-06
5.77863e-06
-4.30158e-06
5.82057e-06
-4.526e-06
5.66348e-06
-4.66837e-06
5.11881e-06
-4.77766e-06
3.35517e-06
-4.98794e-06
1.05032e-06
-5.29738e-06
-8.47042e-07
-5.71371e-06
-2.33805e-06
-6.22983e-06
-3.58554e-06
-6.75806e-06
-4.7649e-06
-7.14585e-06
-5.92854e-06
-7.25969e-06
-6.96141e-06
-6.98664e-06
-7.73499e-06
-6.27558e-06
-8.0917e-06
-5.15677e-06
-7.90144e-06
-3.75474e-06
-7.09141e-06
-2.28491e-06
-5.69263e-06
-1.03147e-06
-3.88064e-06
-2.47462e-07
-2.02097e-06
-5.40289e-07
1.54256e-08
2.55775e-07
4.42738e-08
8.28099e-07
6.33928e-08
1.50575e-06
4.48596e-08
2.2439e-06
-3.44542e-08
2.97669e-06
-1.80177e-07
3.63717e-06
-3.74615e-07
4.18594e-06
-5.84991e-07
4.6253e-06
-7.78565e-07
4.97879e-06
-9.31931e-07
5.26657e-06
-1.03087e-06
5.4952e-06
-1.06701e-06
5.66038e-06
-1.03624e-06
5.74787e-06
-9.38992e-07
5.72332e-06
-7.80612e-07
5.5051e-06
-5.67092e-07
4.90529e-06
-3.76969e-07
3.16505e-06
-4.05223e-07
1.07857e-06
-6.99221e-07
-5.53044e-07
-1.19205e-06
-1.84522e-06
-1.85047e-06
-2.92712e-06
-2.64357e-06
-3.97181e-06
-3.45065e-06
-5.12147e-06
-4.1455e-06
-6.26655e-06
-4.56335e-06
-7.31714e-06
-4.58042e-06
-8.07463e-06
-4.14174e-06
-8.34012e-06
-3.29097e-06
-7.94217e-06
-2.17674e-06
-6.80686e-06
-1.06317e-06
-4.99421e-06
-2.72714e-07
-2.81142e-06
-8.13003e-07
2.01003e-08
2.35675e-07
6.86556e-08
7.79544e-07
1.30244e-07
1.44417e-06
1.84239e-07
2.1899e-06
2.12441e-07
2.94849e-06
2.08011e-07
3.6416e-06
1.82579e-07
4.21137e-06
1.64937e-07
4.64295e-06
1.8693e-07
4.9568e-06
2.70943e-07
5.18256e-06
4.26636e-07
5.33951e-06
6.5409e-07
5.43293e-06
9.47496e-07
5.45446e-06
1.29625e-06
5.37457e-06
1.68367e-06
5.11768e-06
2.0844e-06
4.50457e-06
2.34599e-06
2.90346e-06
2.32742e-06
1.09714e-06
2.05204e-06
-2.77656e-07
1.59003e-06
-1.38321e-06
9.82522e-07
-2.31961e-06
2.32135e-07
-3.22142e-06
-6.39044e-07
-4.25029e-06
-1.55575e-06
-5.34984e-06
-2.36094e-06
-6.51195e-06
-2.89594e-06
-7.53963e-06
-3.01765e-06
-8.21841e-06
-2.6851e-06
-8.27473e-06
-1.95966e-06
-7.5323e-06
-1.04755e-06
-5.90632e-06
-2.90209e-07
-3.56875e-06
-1.10321e-06
1.62804e-08
2.19395e-07
5.97139e-08
7.36111e-07
1.24011e-07
1.37987e-06
1.9977e-07
2.11414e-06
2.78621e-07
2.86964e-06
3.59589e-07
3.56063e-06
4.53751e-07
4.11721e-06
5.82875e-07
4.51382e-06
7.69797e-07
4.76987e-06
1.02876e-06
4.92359e-06
1.36213e-06
5.00614e-06
1.76278e-06
5.03228e-06
2.21786e-06
4.99939e-06
2.70965e-06
4.88278e-06
3.21146e-06
4.61587e-06
3.67508e-06
4.04095e-06
3.93276e-06
2.64577e-06
3.8993e-06
1.1306e-06
3.62724e-06
-5.60347e-09
3.18482e-06
-9.40789e-07
2.62534e-06
-1.76013e-06
1.991e-06
-2.58708e-06
1.24281e-06
-3.5021e-06
3.92571e-07
-4.4996e-06
-5.14249e-07
-5.60513e-06
-1.35545e-06
-6.69843e-06
-1.89823e-06
-7.67564e-06
-2.02048e-06
-8.15247e-06
-1.68183e-06
-7.87095e-06
-1.00548e-06
-6.58267e-06
-3.08175e-07
-4.26606e-06
-1.41139e-06
5.56463e-09
2.1383e-07
2.36028e-08
7.18073e-07
6.04992e-08
1.34297e-06
1.2405e-07
2.05059e-06
2.19465e-07
2.77422e-06
3.52984e-07
3.42711e-06
5.3577e-07
3.93442e-06
7.80558e-07
4.26904e-06
1.09577e-06
4.45467e-06
1.48279e-06
4.53657e-06
1.93575e-06
4.55318e-06
2.44296e-06
4.52507e-06
2.98872e-06
4.45363e-06
3.55269e-06
4.3188e-06
4.10366e-06
4.0649e-06
4.58363e-06
3.56098e-06
4.84e-06
2.3894e-06
4.83235e-06
1.13826e-06
4.61048e-06
2.16269e-07
4.21834e-06
-5.48658e-07
3.71733e-06
-1.25911e-06
3.13499e-06
-2.00474e-06
2.47262e-06
-2.83973e-06
1.7428e-06
-3.76979e-06
9.15771e-07
-4.7781e-06
2.39503e-08
-5.80661e-06
-8.09141e-07
-6.84255e-06
-1.31855e-06
-7.64306e-06
-1.35605e-06
-7.83345e-06
-9.4225e-07
-6.99648e-06
-3.32046e-07
-4.87626e-06
-1.74343e-06
-1.33068e-08
2.27137e-07
-4.06766e-08
7.45443e-07
-5.52764e-08
1.35757e-06
-2.4165e-08
2.01948e-06
7.41618e-08
2.6759e-06
2.47786e-07
3.25349e-06
5.04371e-07
3.67783e-06
8.45011e-07
3.9284e-06
1.26065e-06
4.03902e-06
1.73949e-06
4.05773e-06
2.26934e-06
4.02333e-06
2.83737e-06
3.95704e-06
3.42905e-06
3.86195e-06
4.02576e-06
3.72209e-06
4.59754e-06
3.49313e-06
5.08831e-06
3.07021e-06
5.36597e-06
2.11174e-06
5.4069e-06
1.09734e-06
5.26214e-06
3.61022e-07
4.97042e-06
-2.5694e-07
4.56934e-06
-8.58022e-07
4.07324e-06
-1.50865e-06
3.48266e-06
-2.24915e-06
2.799e-06
-3.08613e-06
2.02181e-06
-4.00091e-06
1.17106e-06
-4.95585e-06
2.46826e-07
-5.91831e-06
-5.62772e-07
-6.83346e-06
-9.70607e-07
-7.42561e-06
-8.4946e-07
-7.11763e-06
-3.61729e-07
-5.36399e-06
-2.10516e-06
-4.56558e-08
2.72793e-07
-1.40071e-07
8.39858e-07
-2.20873e-07
1.43837e-06
-2.27087e-07
2.02569e-06
-1.22973e-07
2.57178e-06
9.48821e-08
3.03563e-06
4.23317e-07
3.3494e-06
8.47355e-07
3.50436e-06
1.34171e-06
3.54467e-06
1.88558e-06
3.51386e-06
2.46462e-06
3.44428e-06
3.06803e-06
3.35363e-06
3.68511e-06
3.24487e-06
4.3015e-06
3.1057e-06
4.89205e-06
2.90257e-06
5.40796e-06
2.55431e-06
5.73211e-06
1.78758e-06
5.8452e-06
9.84255e-07
5.79671e-06
4.09511e-07
5.61946e-06
-7.9692e-08
5.33339e-06
-5.71958e-07
4.93876e-06
-1.11402e-06
4.4268e-06
-1.73719e-06
3.79038e-06
-2.44971e-06
3.03018e-06
-3.24071e-06
2.16244e-06
-4.08811e-06
1.21582e-06
-4.97169e-06
2.49895e-07
-5.86754e-06
-4.99399e-07
-6.67632e-06
-7.07385e-07
-6.90964e-06
-3.89262e-07
-5.68212e-06
-2.49443e-06
-1.02066e-07
3.74859e-07
-2.84351e-07
1.02214e-06
-4.27875e-07
1.5819e-06
-4.51696e-07
2.04951e-06
-3.23259e-07
2.44334e-06
-4.66824e-08
2.75905e-06
3.60037e-07
2.94268e-06
8.6086e-07
3.00353e-06
1.41992e-06
2.9856e-06
2.01455e-06
2.91924e-06
2.63223e-06
2.8266e-06
3.26557e-06
2.72029e-06
3.90783e-06
2.60261e-06
4.54865e-06
2.46488e-06
5.16786e-06
2.28336e-06
5.72344e-06
1.99873e-06
6.10546e-06
1.40556e-06
6.29405e-06
7.95659e-07
6.3385e-06
3.65066e-07
6.26498e-06
-6.17582e-09
6.081e-06
-3.87977e-07
5.77802e-06
-8.11036e-07
5.34061e-06
-1.29978e-06
4.75446e-06
-1.86356e-06
4.01409e-06
-2.50034e-06
3.13015e-06
-3.20417e-06
2.13235e-06
-3.9739e-06
1.07859e-06
-4.81378e-06
9.47299e-08
-5.69246e-06
-4.82249e-07
-6.33266e-06
-3.95747e-07
-5.76862e-06
-2.89017e-06
-1.93615e-07
5.68474e-07
-4.70371e-07
1.2989e-06
-6.42284e-07
1.75381e-06
-6.36089e-07
2.04332e-06
-4.42879e-07
2.25014e-06
-7.95984e-08
2.39577e-06
4.17747e-07
2.44534e-06
9.94735e-07
2.42655e-06
1.61541e-06
2.36493e-06
2.26078e-06
2.27387e-06
2.92094e-06
2.16644e-06
3.59036e-06
2.05087e-06
4.26379e-06
1.92918e-06
4.93239e-06
1.79629e-06
5.57883e-06
1.63692e-06
6.16566e-06
1.41189e-06
6.58793e-06
9.83291e-07
6.82764e-06
5.55945e-07
6.93589e-06
2.56822e-07
6.93271e-06
-2.99429e-09
6.8181e-06
-2.7337e-07
6.58127e-06
-5.74209e-07
6.20491e-06
-9.23419e-07
5.6707e-06
-1.32935e-06
4.96601e-06
-1.79564e-06
4.0907e-06
-2.32886e-06
3.06313e-06
-2.94633e-06
1.92834e-06
-3.67899e-06
7.84512e-07
-4.54863e-06
-1.21606e-07
-5.42654e-06
-3.50689e-07
-5.53954e-06
-3.24086e-06
-3.15986e-07
8.84461e-07
-6.50974e-07
1.63389e-06
-7.59999e-07
1.86284e-06
-6.35447e-07
1.91877e-06
-3.10341e-07
1.92503e-06
1.81323e-07
1.90411e-06
7.81273e-07
1.84539e-06
1.43574e-06
1.77208e-06
2.11997e-06
1.68071e-06
2.81745e-06
1.57638e-06
3.51826e-06
1.46563e-06
4.21582e-06
1.35331e-06
4.9038e-06
1.2412e-06
5.57322e-06
1.12687e-06
6.20875e-06
1.00139e-06
6.77816e-06
8.42487e-07
7.18897e-06
5.72473e-07
7.43117e-06
3.13748e-07
7.55536e-06
1.32632e-07
7.57757e-06
-2.5207e-08
7.4946e-06
-1.90398e-07
7.29735e-06
-3.76954e-07
6.9696e-06
-5.9567e-07
6.49239e-06
-8.52143e-07
5.84814e-06
-1.15139e-06
5.0247e-06
-1.50541e-06
4.02048e-06
-1.94212e-06
2.85462e-06
-2.51313e-06
1.59218e-06
-3.28619e-06
4.15512e-07
-4.24988e-06
-2.12435e-07
-4.91159e-06
-3.4533e-06
-4.41857e-07
1.32632e-06
-6.68778e-07
1.86081e-06
-5.18889e-07
1.71295e-06
-1.30008e-07
1.52989e-06
4.09797e-07
1.38522e-06
1.04814e-06
1.26577e-06
1.73919e-06
1.15433e-06
2.45674e-06
1.05453e-06
3.17955e-06
9.57891e-07
3.8925e-06
8.63428e-07
4.58525e-06
7.72881e-07
5.2506e-06
6.87957e-07
5.88266e-06
6.09143e-07
6.47476e-06
5.34775e-07
7.01641e-06
4.5974e-07
7.48522e-06
3.7368e-07
7.81395e-06
2.43745e-07
8.0035e-06
1.24196e-07
8.09673e-06
3.93976e-08
8.10635e-06
-3.48227e-08
8.02962e-06
-1.13664e-07
7.85851e-06
-2.0585e-07
7.57891e-06
-3.16065e-07
7.1736e-06
-4.46835e-07
6.62394e-06
-6.01735e-07
5.90981e-06
-7.91278e-07
5.00935e-06
-1.04166e-06
3.90269e-06
-1.40647e-06
2.59269e-06
-1.97619e-06
1.18971e-06
-2.8469e-06
1.16505e-07
-3.83839e-06
-3.33679e-06
-3.79943e-07
1.70626e-06
1.42522e-08
1.46661e-06
7.32406e-07
9.94795e-07
1.46592e-06
7.96368e-07
2.19732e-06
6.53826e-07
2.92674e-06
5.36344e-07
3.63722e-06
4.43856e-07
4.31952e-06
3.72227e-07
4.96412e-06
3.13291e-07
5.56388e-06
2.63666e-07
6.11481e-06
2.21952e-07
6.61564e-06
1.87129e-07
7.06673e-06
1.58048e-07
7.4684e-06
1.33105e-07
7.8183e-06
1.09841e-07
8.10685e-06
8.51323e-08
8.29897e-06
5.16273e-08
8.40147e-06
2.16932e-08
8.44117e-06
-3.0403e-10
8.42633e-06
-1.99756e-08
8.3546e-06
-4.19375e-08
8.21815e-06
-6.93972e-08
8.00541e-06
-1.03333e-07
7.70288e-06
-1.44298e-07
7.29486e-06
-1.93715e-07
6.76033e-06
-2.56751e-07
6.06642e-06
-3.47744e-07
5.15989e-06
-4.99937e-07
3.96341e-06
-7.79712e-07
2.41545e-06
-1.29894e-06
7.45011e-07
-2.16795e-06
-2.59178e-06
1.70626e-06
3.17287e-06
4.16767e-06
4.96404e-06
5.61786e-06
6.15421e-06
6.59806e-06
6.97029e-06
7.28358e-06
7.54725e-06
7.7692e-06
7.95633e-06
8.11438e-06
8.24748e-06
8.35732e-06
8.44245e-06
8.49408e-06
8.51577e-06
8.51547e-06
8.4955e-06
8.45356e-06
8.38416e-06
8.28083e-06
8.13653e-06
7.94282e-06
7.68606e-06
7.33832e-06
6.83838e-06
6.05867e-06
4.75973e-06
2.59178e-06
)
;

boundaryField
{
    movingWall
    {
        type            calculated;
        value           uniform 0;
    }
    fixedWalls
    {
        type            calculated;
        value           uniform 0;
    }
    floor
    {
        type            calculated;
        value           uniform 0;
    }
    frontAndBack
    {
        type            empty;
        value           nonuniform List<scalar> 0();
    }
}


// ************************************************************************* //
