/*--------------------------------*- C++ -*----------------------------------*\
| =========                 |                                                 |
| \\      /  F ield         | OpenFOAM: The Open Source CFD Toolbox           |
|  \\    /   O peration     | Version:  2212                                  |
|   \\  /    A nd           | Website:  www.openfoam.com                      |
|    \\/     M anipulation  |                                                 |
\*---------------------------------------------------------------------------*/
FoamFile
{
    version     2.0;
    format      ascii;
    arch        "LSB;label=64;scalar=64";
    class       volScalarField;
    location    "1070";
    object      Saa;
}
// * * * * * * * * * * * * * * * * * * * * * * * * * * * * * * * * * * * * * //

dimensions      [1 -3 0 0 0 0 0];

internalField   nonuniform List<scalar> 
1024
(
0.00546794
0.00546797
0.00546803
0.00546814
0.0054683
0.00546853
0.00546881
0.00546915
0.00546951
0.00546987
0.0054702
0.0054705
0.00547073
0.00547087
0.00547088
0.00547074
0.00547041
0.00546995
0.00546941
0.0054688
0.00546812
0.00546737
0.00546659
0.00546583
0.00546514
0.00546455
0.00546408
0.00546374
0.0054635
0.00546335
0.00546327
0.00546323
0.00546795
0.00546798
0.00546804
0.00546814
0.00546831
0.00546854
0.00546883
0.00546916
0.00546952
0.00546988
0.00547022
0.00547051
0.00547074
0.00547088
0.00547089
0.00547075
0.00547042
0.00546996
0.00546942
0.00546882
0.00546814
0.0054674
0.00546663
0.00546587
0.00546517
0.00546457
0.0054641
0.00546375
0.00546351
0.00546336
0.00546328
0.00546324
0.00546795
0.00546798
0.00546804
0.00546815
0.00546832
0.00546855
0.00546885
0.00546918
0.00546954
0.0054699
0.00547024
0.00547054
0.00547077
0.0054709
0.00547091
0.00547076
0.00547044
0.00546998
0.00546945
0.00546886
0.00546819
0.00546747
0.0054667
0.00546593
0.00546523
0.00546462
0.00546414
0.00546378
0.00546354
0.00546338
0.00546329
0.00546326
0.00546796
0.00546798
0.00546805
0.00546816
0.00546833
0.00546857
0.00546887
0.00546921
0.00546957
0.00546993
0.00547028
0.00547059
0.00547082
0.00547095
0.00547094
0.00547078
0.00547045
0.00547
0.00546949
0.00546891
0.00546827
0.00546756
0.0054668
0.00546604
0.00546533
0.00546471
0.00546421
0.00546383
0.00546358
0.00546341
0.00546333
0.00546329
0.00546795
0.00546798
0.00546805
0.00546816
0.00546833
0.00546857
0.00546887
0.00546921
0.00546958
0.00546996
0.00547033
0.00547066
0.00547091
0.00547102
0.00547099
0.0054708
0.00547046
0.00547001
0.00546951
0.00546896
0.00546834
0.00546766
0.00546692
0.00546617
0.00546545
0.00546482
0.0054643
0.00546391
0.00546364
0.00546347
0.00546337
0.00546333
0.00546795
0.00546797
0.00546804
0.00546815
0.00546832
0.00546856
0.00546886
0.0054692
0.00546958
0.00546998
0.00547039
0.00547077
0.00547103
0.00547112
0.00547105
0.00547081
0.00547043
0.00546998
0.0054695
0.00546898
0.0054684
0.00546776
0.00546705
0.00546631
0.00546559
0.00546495
0.00546441
0.005464
0.00546371
0.00546353
0.00546343
0.00546339
0.00546793
0.00546795
0.00546801
0.00546812
0.00546829
0.00546852
0.00546881
0.00546916
0.00546956
0.00547
0.00547047
0.0054709
0.00547118
0.00547125
0.0054711
0.00547078
0.00547035
0.00546989
0.00546942
0.00546893
0.0054684
0.00546781
0.00546714
0.00546643
0.00546572
0.00546507
0.00546452
0.00546409
0.00546379
0.0054636
0.0054635
0.00546346
0.00546789
0.00546792
0.00546797
0.00546807
0.00546823
0.00546845
0.00546874
0.0054691
0.00546953
0.00547003
0.00547058
0.00547107
0.00547137
0.00547137
0.00547112
0.00547069
0.00547018
0.00546969
0.00546924
0.00546879
0.00546831
0.00546777
0.00546716
0.00546649
0.00546581
0.00546516
0.00546461
0.00546418
0.00546387
0.00546367
0.00546356
0.00546352
0.00546786
0.00546788
0.00546793
0.00546802
0.00546816
0.00546837
0.00546865
0.00546903
0.00546951
0.00547009
0.00547074
0.0054713
0.00547158
0.00547148
0.00547107
0.00547048
0.00546987
0.00546935
0.0054689
0.00546849
0.00546807
0.0054676
0.00546705
0.00546644
0.0054658
0.00546518
0.00546465
0.00546422
0.00546391
0.00546372
0.00546361
0.00546357
0.00546786
0.00546787
0.00546791
0.00546799
0.00546812
0.00546832
0.00546861
0.00546902
0.00546957
0.00547025
0.00547099
0.00547159
0.0054718
0.00547153
0.00547091
0.00547012
0.00546937
0.0054688
0.00546837
0.005468
0.00546765
0.00546725
0.00546678
0.00546624
0.00546567
0.0054651
0.0054646
0.0054642
0.00546391
0.00546372
0.00546362
0.00546358
0.00546797
0.00546798
0.00546801
0.00546808
0.0054682
0.00546841
0.00546872
0.00546919
0.00546983
0.00547061
0.00547141
0.00547197
0.00547201
0.0054715
0.00547059
0.00546955
0.00546867
0.00546804
0.00546762
0.0054673
0.00546701
0.0054667
0.00546632
0.00546587
0.00546537
0.00546488
0.00546444
0.00546409
0.00546383
0.00546366
0.00546356
0.00546352
0.00546837
0.00546838
0.00546841
0.00546847
0.0054686
0.00546883
0.00546919
0.00546973
0.00547045
0.00547129
0.00547206
0.00547244
0.00547221
0.00547134
0.00547011
0.00546883
0.0054678
0.00546712
0.00546669
0.0054664
0.00546617
0.00546593
0.00546564
0.00546529
0.0054649
0.0054645
0.00546414
0.00546385
0.00546363
0.00546349
0.0054634
0.00546336
0.00546929
0.0054693
0.00546934
0.00546942
0.00546957
0.00546984
0.00547025
0.00547084
0.00547158
0.00547235
0.00547291
0.00547297
0.00547234
0.00547111
0.00546961
0.00546815
0.00546701
0.00546626
0.00546579
0.00546547
0.00546523
0.00546502
0.0054648
0.00546453
0.00546424
0.00546395
0.00546369
0.00546347
0.0054633
0.00546318
0.0054631
0.00546307
0.00547088
0.0054709
0.00547095
0.00547105
0.00547124
0.00547154
0.00547197
0.00547252
0.00547314
0.00547367
0.00547386
0.00547348
0.00547247
0.00547102
0.00546946
0.00546801
0.00546687
0.00546604
0.00546543
0.00546495
0.00546456
0.00546424
0.00546396
0.00546371
0.00546348
0.00546327
0.0054631
0.00546296
0.00546287
0.00546281
0.00546278
0.00546277
0.00547298
0.00547301
0.00547308
0.0054732
0.00547339
0.00547367
0.00547404
0.00547445
0.00547483
0.005475
0.00547479
0.0054741
0.005473
0.00547173
0.00547051
0.00546943
0.00546854
0.00546778
0.00546706
0.00546634
0.00546564
0.00546497
0.00546439
0.00546392
0.00546357
0.00546337
0.00546328
0.00546328
0.00546334
0.00546342
0.00546349
0.00546352
0.00547516
0.00547518
0.00547524
0.00547535
0.00547552
0.00547575
0.00547602
0.00547628
0.00547643
0.00547638
0.00547607
0.00547555
0.00547498
0.0054745
0.00547421
0.00547412
0.00547417
0.00547417
0.00547401
0.00547365
0.00547311
0.00547243
0.00547167
0.00547091
0.00547021
0.00546965
0.00546925
0.00546902
0.00546894
0.00546896
0.00546901
0.00546905
0.00547684
0.00547686
0.00547691
0.00547702
0.00547718
0.00547742
0.00547771
0.00547802
0.0054783
0.00547851
0.00547869
0.00547893
0.00547933
0.00548
0.00548099
0.00548232
0.00548387
0.0054853
0.00548639
0.00548715
0.00548757
0.00548765
0.00548742
0.00548692
0.00548619
0.00548533
0.00548442
0.00548358
0.0054829
0.00548243
0.00548218
0.00548209
0.00547785
0.00547787
0.00547792
0.00547802
0.0054782
0.00547847
0.00547885
0.00547932
0.00547985
0.00548044
0.0054811
0.0054819
0.00548294
0.00548427
0.00548592
0.0054879
0.00549002
0.00549189
0.00549335
0.00549451
0.0054954
0.00549604
0.00549644
0.00549659
0.00549648
0.00549612
0.00549557
0.0054949
0.00549425
0.00549371
0.00549337
0.00549321
0.00547849
0.00547851
0.00547855
0.00547865
0.00547884
0.00547912
0.00547954
0.00548008
0.00548075
0.00548152
0.00548241
0.00548344
0.00548467
0.00548614
0.00548785
0.00548974
0.00549159
0.00549306
0.00549413
0.00549497
0.00549568
0.00549632
0.00549688
0.00549737
0.00549774
0.00549799
0.00549808
0.00549804
0.0054979
0.00549772
0.00549757
0.00549749
0.00547892
0.00547894
0.00547898
0.00547907
0.00547924
0.00547952
0.00547993
0.00548048
0.00548117
0.00548199
0.00548293
0.00548399
0.0054852
0.00548657
0.00548809
0.0054897
0.00549119
0.0054923
0.00549312
0.00549381
0.0054945
0.00549522
0.00549594
0.00549662
0.00549723
0.00549771
0.00549806
0.00549828
0.00549839
0.00549842
0.00549842
0.0054984
0.00547922
0.00547923
0.00547927
0.00547935
0.0054795
0.00547975
0.00548013
0.00548065
0.00548131
0.0054821
0.005483
0.005484
0.00548511
0.00548632
0.00548763
0.00548901
0.00549026
0.00549121
0.00549196
0.00549266
0.0054934
0.00549423
0.00549511
0.00549599
0.00549679
0.00549746
0.00549796
0.0054983
0.0054985
0.0054986
0.00549864
0.00549865
0.00547946
0.00547946
0.00547949
0.00547956
0.00547969
0.0054799
0.00548024
0.0054807
0.00548131
0.00548203
0.00548287
0.00548379
0.00548479
0.00548588
0.00548704
0.00548826
0.00548941
0.00549035
0.00549113
0.00549188
0.00549268
0.00549355
0.00549451
0.00549549
0.00549642
0.00549724
0.00549788
0.00549833
0.0054986
0.00549875
0.00549881
0.00549882
0.00547973
0.00547973
0.00547974
0.00547978
0.00547987
0.00548005
0.00548033
0.00548074
0.00548129
0.00548195
0.00548273
0.00548359
0.00548454
0.00548555
0.00548664
0.00548781
0.00548894
0.00548992
0.00549076
0.00549155
0.00549238
0.00549326
0.00549422
0.00549521
0.00549619
0.00549708
0.00549782
0.00549836
0.0054987
0.00549889
0.00549897
0.00549899
0.00548015
0.00548013
0.00548011
0.00548011
0.00548015
0.00548028
0.00548052
0.00548089
0.0054814
0.00548203
0.00548278
0.00548363
0.00548456
0.00548557
0.00548665
0.00548781
0.00548896
0.00548997
0.00549085
0.00549166
0.00549247
0.00549332
0.00549423
0.00549518
0.00549613
0.00549703
0.0054978
0.0054984
0.0054988
0.00549903
0.00549913
0.00549915
0.00548083
0.00548079
0.00548072
0.00548067
0.00548066
0.00548075
0.00548096
0.00548131
0.00548182
0.00548247
0.00548324
0.00548411
0.00548507
0.00548609
0.00548718
0.00548834
0.00548948
0.00549049
0.00549136
0.00549214
0.0054929
0.00549368
0.0054945
0.00549535
0.00549623
0.00549708
0.00549784
0.00549846
0.0054989
0.00549916
0.00549927
0.00549931
0.00548185
0.00548178
0.00548167
0.00548157
0.00548153
0.0054816
0.00548182
0.00548221
0.00548275
0.00548345
0.00548426
0.00548517
0.00548614
0.00548717
0.00548824
0.00548936
0.00549046
0.00549141
0.00549222
0.00549293
0.0054936
0.00549427
0.00549498
0.00549571
0.00549648
0.00549723
0.00549794
0.00549854
0.00549899
0.00549928
0.00549941
0.00549945
0.00548328
0.00548318
0.00548303
0.00548292
0.0054829
0.00548301
0.00548329
0.00548374
0.00548434
0.00548508
0.00548591
0.00548682
0.00548777
0.00548875
0.00548975
0.00549078
0.00549177
0.00549262
0.00549332
0.00549393
0.0054945
0.00549505
0.00549563
0.00549623
0.00549685
0.00549749
0.00549811
0.00549867
0.0054991
0.00549939
0.00549953
0.00549957
0.00548513
0.00548501
0.00548488
0.00548483
0.0054849
0.0054851
0.00548546
0.00548597
0.0054866
0.00548733
0.00548813
0.00548897
0.00548983
0.0054907
0.00549158
0.00549246
0.00549329
0.005494
0.00549457
0.00549507
0.00549552
0.00549595
0.00549639
0.00549686
0.00549734
0.00549785
0.00549835
0.00549883
0.00549922
0.00549949
0.00549964
0.00549969
0.00548743
0.00548732
0.00548728
0.00548736
0.00548756
0.00548787
0.00548828
0.0054888
0.00548939
0.00549004
0.00549073
0.00549144
0.00549215
0.00549286
0.00549356
0.00549425
0.0054949
0.00549544
0.00549588
0.00549626
0.00549659
0.00549691
0.00549723
0.00549756
0.00549791
0.00549828
0.00549866
0.00549903
0.00549935
0.0054996
0.00549973
0.00549978
0.00549023
0.00549019
0.0054903
0.00549053
0.00549082
0.00549117
0.00549157
0.00549201
0.00549248
0.00549298
0.0054935
0.00549402
0.00549454
0.00549506
0.00549555
0.00549604
0.0054965
0.00549687
0.00549718
0.00549743
0.00549766
0.00549787
0.00549808
0.00549829
0.00549852
0.00549876
0.00549902
0.00549928
0.00549951
0.0054997
0.00549982
0.00549986
0.00549364
0.00549371
0.00549394
0.00549421
0.00549448
0.00549475
0.00549503
0.00549532
0.00549562
0.00549593
0.00549624
0.00549655
0.00549686
0.00549716
0.00549745
0.00549774
0.005498
0.00549822
0.00549839
0.00549853
0.00549866
0.00549878
0.0054989
0.00549901
0.00549914
0.00549927
0.00549941
0.00549956
0.0054997
0.00549982
0.00549989
0.00549993
0.00549777
0.00549784
0.00549796
0.00549807
0.00549818
0.00549828
0.00549838
0.00549848
0.00549858
0.00549869
0.00549879
0.00549889
0.00549899
0.00549909
0.00549919
0.00549928
0.00549936
0.00549943
0.00549949
0.00549953
0.00549957
0.00549961
0.00549965
0.00549968
0.00549972
0.00549976
0.00549981
0.00549985
0.0054999
0.00549994
0.00549997
0.00549998
)
;

boundaryField
{
    movingWall
    {
        type            fixedValue;
        value           uniform 0.0055;
    }
    fixedWalls
    {
        type            zeroGradient;
    }
    floor
    {
        type            zeroGradient;
    }
    frontAndBack
    {
        type            empty;
    }
}


// ************************************************************************* //
