/*--------------------------------*- C++ -*----------------------------------*\
| =========                 |                                                 |
| \\      /  F ield         | OpenFOAM: The Open Source CFD Toolbox           |
|  \\    /   O peration     | Version:  2212                                  |
|   \\  /    A nd           | Website:  www.openfoam.com                      |
|    \\/     M anipulation  |                                                 |
\*---------------------------------------------------------------------------*/
FoamFile
{
    version     2.0;
    format      ascii;
    arch        "LSB;label=64;scalar=64";
    class       volScalarField::Internal;
    location    "1570";
    object      dGch4;
}
// * * * * * * * * * * * * * * * * * * * * * * * * * * * * * * * * * * * * * //

dimensions      [1 -3 -1 0 0 0 0];

value           nonuniform List<scalar> 
1024
(
0.000907411
0.000907616
0.000908122
0.000909044
0.000910518
0.000912678
0.000915621
0.000919372
0.000923841
0.000928825
0.00093405
0.000939279
0.000944462
0.000949804
0.000955635
0.000961898
0.000966826
0.000967983
0.000965303
0.000959605
0.000951793
0.000942778
0.000933479
0.00092472
0.000917102
0.000910925
0.000906226
0.00090286
0.0009006
0.000899199
0.000898434
0.000898123
0.000907511
0.000907719
0.000908231
0.000909167
0.000910663
0.000912854
0.000915839
0.000919634
0.000924147
0.000929168
0.000934415
0.00093965
0.00094483
0.000950174
0.000956027
0.000962337
0.000967315
0.000968498
0.000965818
0.000960111
0.000952285
0.000943245
0.000933902
0.000925082
0.000917395
0.000911152
0.000906396
0.000902988
0.0009007
0.000899283
0.000898511
0.000898197
0.000907756
0.000907969
0.000908494
0.000909457
0.000910999
0.000913258
0.000916333
0.000920236
0.000924863
0.00092999
0.000935315
0.00094058
0.00094576
0.000951112
0.00095702
0.000963445
0.00096854
0.000969755
0.000967032
0.000961253
0.000953356
0.00094424
0.000934798
0.000925852
0.000918024
0.000911644
0.000906773
0.000903279
0.000900935
0.000899485
0.000898696
0.000898375
0.000908203
0.000908422
0.000908967
0.000909969
0.000911582
0.00091395
0.000917177
0.000921273
0.000926121
0.00093147
0.000936969
0.000942321
0.000947519
0.000952893
0.000958907
0.000965543
0.000970834
0.000972056
0.000969171
0.000963175
0.000955084
0.000945799
0.000936183
0.00092704
0.000919001
0.00091242
0.000907381
0.000903762
0.000901334
0.000899835
0.000899021
0.000898691
0.000908924
0.000909151
0.000909719
0.000910775
0.000912484
0.000915011
0.000918468
0.00092287
0.000928089
0.000933827
0.000939653
0.00094519
0.000950454
0.000955889
0.000962085
0.000969061
0.000974633
0.000975783
0.000972518
0.000966042
0.000957532
0.000947918
0.00093802
0.000928604
0.000920295
0.000913465
0.00090822
0.000904448
0.00090192
0.000900363
0.00089952
0.000899181
0.000910017
0.000910251
0.000910847
0.000911968
0.000913805
0.000916546
0.00092033
0.000925186
0.00093097
0.000937319
0.000943682
0.000949564
0.000954994
0.000960571
0.000967074
0.000974549
0.000980472
0.000981391
0.000977397
0.000970035
0.000960751
0.000950557
0.000940221
0.000930443
0.000921818
0.000914718
0.000909257
0.000905332
0.000902706
0.000901096
0.000900229
0.000899882
0.000911617
0.000911858
0.000912485
0.000913686
0.000915684
0.000918706
0.000922934
0.000928421
0.000935007
0.000942235
0.000949396
0.000955853
0.000961631
0.000967518
0.000974513
0.000982669
0.000988958
0.00098937
0.000984156
0.000975342
0.000964783
0.000953647
0.000942653
0.000932408
0.000923438
0.000916081
0.000910438
0.000906398
0.000903709
0.000902071
0.000901199
0.000900853
0.000913914
0.000914164
0.000914827
0.000916124
0.000918322
0.000921703
0.000926507
0.000932827
0.000940477
0.000948881
0.000957142
0.000964475
0.000970897
0.000977378
0.000985135
0.000994141
0.0010007
0.00100019
0.000993139
0.000982179
0.000969704
0.00095715
0.000945207
0.000934364
0.000925035
0.000917476
0.000911737
0.000907668
0.000904991
0.000903384
0.000902543
0.000902216
0.00091718
0.00091744
0.000918149
0.000919565
0.00092201
0.000925838
0.000931364
0.000938727
0.000947709
0.00095759
0.000967274
0.000975844
0.000983322
0.000990826
0.000999694
0.00100966
0.00101626
0.00101433
0.00100477
0.000990937
0.000975811
0.000961253
0.00094799
0.000936382
0.000926681
0.000919005
0.000913299
0.00090934
0.000906798
0.000905317
0.000904569
0.000904292
0.000921776
0.000922053
0.000922825
0.000924394
0.000927147
0.000931524
0.000937925
0.00094654
0.000957106
0.000968747
0.000980178
0.000990387
0.000999422
0.00100848
0.00101885
0.00102981
0.00103615
0.00103244
0.00101998
0.00100271
0.000984214
0.000966953
0.000951863
0.000939212
0.000929061
0.000921331
0.0009158
0.00091212
0.000909877
0.000908658
0.0009081
0.00090792
0.000928141
0.000928446
0.000929307
0.00093108
0.000934228
0.00093928
0.000946725
0.000956794
0.000969168
0.000982817
0.000996299
0.00100855
0.00101967
0.00103084
0.00104304
0.00105501
0.0010611
0.00105596
0.00104111
0.00102056
0.000998342
0.000977569
0.000959809
0.000945497
0.000934537
0.00092662
0.000921296
0.000918027
0.000916254
0.00091546
0.000915215
0.000915198
0.000936695
0.000937043
0.000938034
0.000940089
0.000943753
0.000949649
0.000958341
0.000970073
0.000984451
0.0010003
0.00101608
0.00103073
0.00104437
0.00105805
0.00107231
0.00108554
0.00109227
0.00108762
0.00107266
0.00105076
0.00102577
0.00100127
0.000979762
0.000962501
0.000949622
0.000940746
0.000935198
0.000932177
0.000930879
0.000930589
0.00093074
0.000930935
0.000947606
0.000948015
0.000949186
0.000951617
0.000955949
0.000962893
0.000973054
0.000986637
0.00100312
0.0010212
0.0010393
0.00105645
0.00107282
0.00108919
0.00110578
0.00112106
0.00113059
0.00113017
0.00111976
0.00110134
0.00107767
0.001052
0.00102733
0.00100596
0.00098916
0.000977201
0.000969682
0.000965694
0.000964103
0.000963876
0.000964202
0.000964525
0.000960402
0.000960872
0.000962225
0.000965039
0.000970037
0.000977993
0.000989521
0.00100476
0.00102312
0.00104328
0.00106369
0.0010834
0.00110243
0.00112135
0.00114029
0.00115845
0.00117296
0.00118059
0.00118025
0.00117222
0.00115747
0.0011378
0.00111551
0.00109307
0.0010727
0.00105596
0.0010437
0.00103583
0.00103154
0.0010297
0.00102924
0.00102928
0.000973948
0.000974457
0.000975925
0.000978982
0.000984409
0.000993021
0.00100545
0.00102183
0.00104156
0.00106336
0.00108566
0.00110736
0.00112821
0.00114851
0.00116847
0.00118812
0.00120644
0.00122192
0.00123332
0.00123973
0.00124037
0.00123512
0.00122455
0.00120994
0.00119304
0.00117598
0.00116069
0.00114855
0.00114009
0.00113505
0.0011326
0.00113179
0.00098679
0.000987304
0.000988775
0.000991824
0.000997231
0.00100582
0.00101827
0.00103477
0.00105482
0.0010772
0.00110026
0.00112256
0.00114334
0.00116241
0.00117985
0.00119617
0.00121216
0.00122921
0.00124717
0.00126458
0.00127953
0.00129046
0.00129643
0.00129721
0.00129324
0.00128563
0.00127599
0.00126618
0.00125781
0.00125178
0.00124824
0.00124679
0.000996718
0.000997207
0.000998572
0.00100136
0.00100628
0.00101411
0.00102553
0.00104084
0.00105972
0.00108107
0.00110323
0.00112439
0.00114315
0.00115863
0.00117049
0.00117929
0.00118727
0.0011991
0.00121653
0.00123809
0.00126108
0.00128284
0.00130139
0.00131551
0.00132475
0.00132932
0.00133001
0.00132802
0.00132479
0.0013216
0.00131931
0.00131821
0.00100272
0.00100318
0.00100441
0.00100686
0.00101113
0.0010179
0.00102782
0.00104127
0.00105809
0.00107741
0.00109767
0.00111696
0.00113345
0.00114575
0.00115311
0.0011559
0.00115697
0.00116283
0.00117702
0.00119902
0.00122617
0.00125497
0.00128216
0.00130532
0.00132322
0.00133562
0.00134307
0.00134661
0.0013475
0.00134702
0.00134619
0.00134566
0.00100569
0.00100611
0.00100722
0.00100936
0.00101303
0.00101878
0.00102721
0.00103872
0.00105327
0.00107024
0.00108829
0.00110562
0.00112032
0.00113075
0.00113596
0.00113613
0.00113427
0.00113702
0.00114833
0.00116879
0.00119683
0.00122946
0.00126285
0.0012934
0.00131861
0.00133739
0.00134987
0.00135705
0.00136035
0.00136128
0.00136114
0.00136084
0.00100677
0.00100716
0.00100814
0.00101002
0.00101315
0.00101803
0.00102513
0.00103484
0.00104721
0.0010618
0.00107754
0.00109289
0.00110609
0.00111557
0.00112034
0.00112057
0.00111915
0.00112189
0.00113216
0.001151
0.00117793
0.00121101
0.00124704
0.00128214
0.00131293
0.00133728
0.00135453
0.00136526
0.00137087
0.00137305
0.00137342
0.00137325
0.00100705
0.00100738
0.0010082
0.00100977
0.0010124
0.00101649
0.00102243
0.00103056
0.00104094
0.00105328
0.00106678
0.00108021
0.00109214
0.00110128
0.00110682
0.00110905
0.0011105
0.00111553
0.00112658
0.00114477
0.00117023
0.00120199
0.00123783
0.00127452
0.00130848
0.00133683
0.00135806
0.00137211
0.00138002
0.00138351
0.00138443
0.00138437
0.00100796
0.00100815
0.00100868
0.0010098
0.0010118
0.00101504
0.00101988
0.00102658
0.00103523
0.0010456
0.00105714
0.001069
0.00108015
0.00108967
0.00109706
0.00110276
0.00110861
0.00111719
0.00113
0.00114814
0.00117219
0.00120188
0.00123583
0.00127166
0.00130637
0.00133691
0.00136104
0.00137791
0.00138803
0.00139289
0.00139442
0.0013945
0.00101137
0.00101131
0.00101133
0.00101169
0.00101276
0.00101494
0.0010186
0.00102399
0.00103121
0.00104012
0.00105039
0.00106149
0.00107278
0.00108367
0.00109391
0.00110397
0.00111476
0.00112709
0.00114172
0.0011598
0.0011822
0.00120928
0.00124036
0.0012738
0.00130728
0.00133815
0.00136391
0.00138295
0.00139506
0.00140128
0.00140348
0.00140373
0.0010194
0.00101894
0.00101818
0.00101746
0.00101727
0.00101814
0.00102056
0.00102486
0.00103118
0.00103948
0.00104957
0.00106112
0.00107369
0.00108688
0.00110051
0.00111495
0.00113015
0.00114548
0.00116129
0.00117881
0.00119917
0.0012231
0.00125057
0.00128062
0.00131153
0.00134115
0.00136715
0.00138751
0.00140124
0.00140878
0.00141169
0.00141214
0.00103399
0.001033
0.00103126
0.00102929
0.00102775
0.00102739
0.00102887
0.00103266
0.00103896
0.00104775
0.00105884
0.0010719
0.00108651
0.00110228
0.00111897
0.0011368
0.00115496
0.00117193
0.00118789
0.00120421
0.00122211
0.00124254
0.0012659
0.00129181
0.00131918
0.00134635
0.0013713
0.00139196
0.00140677
0.00141545
0.0014191
0.00141978
0.00105655
0.00105494
0.00105225
0.00104929
0.00104696
0.00104613
0.00104756
0.00105181
0.00105909
0.00106925
0.00108199
0.00109684
0.00111331
0.00113095
0.00114947
0.00116893
0.00118813
0.00120518
0.00122024
0.00123475
0.00124992
0.00126673
0.0012858
0.00130717
0.00133029
0.00135406
0.00137686
0.00139675
0.00141191
0.00142141
0.00142574
0.00142669
0.00108786
0.00108565
0.00108244
0.00107945
0.00107765
0.00107775
0.00108041
0.0010861
0.00109489
0.00110651
0.00112053
0.00113641
0.00115359
0.00117161
0.00119016
0.00120926
0.00122761
0.00124335
0.00125668
0.00126895
0.00128128
0.00129458
0.00130949
0.00132629
0.00134483
0.0013645
0.00138421
0.00140231
0.00141696
0.0014268
0.00143167
0.0014329
0.00112835
0.00112578
0.00112305
0.00112161
0.00112204
0.00112451
0.0011293
0.00113669
0.00114661
0.00115879
0.00117282
0.00118819
0.00120441
0.00122107
0.00123789
0.00125489
0.00127089
0.0012843
0.00129533
0.00130516
0.00131472
0.00132477
0.00133589
0.00134841
0.00136242
0.0013777
0.00139363
0.00140903
0.00142228
0.00143181
0.00143695
0.00143843
0.0011786
0.00117627
0.00117554
0.00117726
0.00118098
0.0011862
0.00119289
0.00120114
0.00121094
0.00122218
0.00123461
0.00124785
0.00126153
0.00127534
0.00128909
0.00130278
0.00131547
0.00132595
0.00133441
0.00134176
0.00134874
0.00135591
0.00136372
0.00137248
0.00138235
0.00139333
0.00140516
0.00141718
0.00142817
0.00143666
0.00144165
0.0014433
0.0012399
0.00123899
0.00124167
0.00124678
0.00125297
0.00125961
0.00126663
0.00127414
0.00128229
0.00129114
0.00130061
0.00131048
0.00132054
0.00133059
0.00134049
0.00135023
0.00135919
0.00136651
0.00137235
0.00137735
0.001382
0.00138668
0.0013917
0.0013973
0.00140363
0.00141073
0.00141857
0.00142687
0.00143492
0.00144162
0.00144592
0.00144753
0.0013148
0.00131658
0.00132181
0.00132768
0.00133348
0.001339
0.00134425
0.00134941
0.00135467
0.00136017
0.00136591
0.00137183
0.00137781
0.00138374
0.00138954
0.00139522
0.00140041
0.00140463
0.00140798
0.00141081
0.00141341
0.00141598
0.00141872
0.00142175
0.00142515
0.00142899
0.00143328
0.00143794
0.00144269
0.00144692
0.00144991
0.00145119
0.00140641
0.00140782
0.00141052
0.0014131
0.00141546
0.00141759
0.00141953
0.00142136
0.00142315
0.00142498
0.00142688
0.00142881
0.00143076
0.00143269
0.00143457
0.0014364
0.00143807
0.00143943
0.0014405
0.00144141
0.00144223
0.00144304
0.00144389
0.00144483
0.00144588
0.00144706
0.00144839
0.00144984
0.00145135
0.00145277
0.00145385
0.00145437
)
;


// ************************************************************************* //
