/*--------------------------------*- C++ -*----------------------------------*\
| =========                 |                                                 |
| \\      /  F ield         | OpenFOAM: The Open Source CFD Toolbox           |
|  \\    /   O peration     | Version:  2212                                  |
|   \\  /    A nd           | Website:  www.openfoam.com                      |
|    \\/     M anipulation  |                                                 |
\*---------------------------------------------------------------------------*/
FoamFile
{
    version     2.0;
    format      ascii;
    arch        "LSB;label=64;scalar=64";
    class       volScalarField;
    location    "1570";
    object      Gco2;
}
// * * * * * * * * * * * * * * * * * * * * * * * * * * * * * * * * * * * * * //

dimensions      [1 -3 0 0 0 0 0];

internalField   nonuniform List<scalar> 
1024
(
0.0592197
0.0592024
0.0591601
0.0590828
0.0589595
0.0587788
0.0585326
0.0582188
0.0578449
0.057428
0.0569908
0.0565533
0.0561194
0.0556722
0.055184
0.0546597
0.0542476
0.0541513
0.0543759
0.0548529
0.0555067
0.0562613
0.0570398
0.0577732
0.0584112
0.0589285
0.0593222
0.0596041
0.0597935
0.0599108
0.0599749
0.0600009
0.0592112
0.0591938
0.0591509
0.0590726
0.0589474
0.058764
0.0585144
0.0581969
0.0578193
0.0573993
0.0569603
0.0565223
0.0560887
0.0556413
0.0551512
0.0546231
0.0542067
0.0541083
0.0543328
0.0548106
0.0554656
0.0562223
0.0570045
0.0577429
0.0583867
0.0589096
0.0593079
0.0595934
0.0597851
0.0599038
0.0599684
0.0599947
0.0591906
0.0591728
0.0591288
0.0590483
0.0589193
0.0587302
0.0584731
0.0581466
0.0577594
0.0573306
0.0568851
0.0564446
0.056011
0.0555629
0.0550682
0.0545304
0.0541044
0.0540032
0.0542315
0.0547152
0.0553761
0.0561391
0.0569295
0.0576786
0.0583341
0.0588684
0.0592764
0.059569
0.0597654
0.0598869
0.059953
0.0599798
0.0591531
0.0591348
0.0590892
0.0590054
0.0588705
0.0586723
0.0584024
0.0580598
0.0576542
0.0572069
0.0567468
0.0562991
0.055864
0.055414
0.0549105
0.0543551
0.0539127
0.053811
0.0540527
0.0545546
0.0552317
0.0560088
0.0568138
0.0575792
0.0582524
0.0588035
0.0592256
0.0595287
0.0597321
0.0598577
0.0599258
0.0599534
0.0590927
0.0590737
0.0590262
0.0589379
0.0587949
0.0585836
0.0582944
0.0579262
0.0574897
0.0570098
0.0565225
0.0560592
0.0556187
0.0551637
0.0546449
0.0540611
0.0535952
0.0534996
0.0537732
0.0543152
0.0550273
0.0558317
0.0566602
0.0574485
0.0581442
0.0587161
0.0591554
0.0594713
0.0596831
0.0598135
0.0598841
0.0599126
0.0590011
0.0589816
0.0589317
0.0588379
0.0586843
0.058455
0.0581386
0.0577324
0.0572487
0.0567177
0.0561857
0.0556936
0.0552393
0.0547724
0.054228
0.0536024
0.0531074
0.0530312
0.0533657
0.0539818
0.0547585
0.0556114
0.0564764
0.0572948
0.0580169
0.0586114
0.0590687
0.0593974
0.0596174
0.0597523
0.0598249
0.059854
0.0588672
0.058847
0.0587945
0.0586941
0.058527
0.0582743
0.0579207
0.0574618
0.0569111
0.0563067
0.0557079
0.055168
0.0546846
0.0541919
0.0536064
0.052924
0.0523985
0.0523649
0.0528014
0.0535388
0.054422
0.0553536
0.0562735
0.0571309
0.0578817
0.0584977
0.0589701
0.0593085
0.0595337
0.0596709
0.0597439
0.0597729
0.0586748
0.0586539
0.0585984
0.05849
0.0583062
0.0580234
0.0576217
0.0570932
0.0564536
0.0557509
0.0550604
0.0544473
0.0539102
0.053368
0.0527189
0.0519656
0.0514176
0.051461
0.0520517
0.0529683
0.0540116
0.0550615
0.0560606
0.0569678
0.0577486
0.0583813
0.0588618
0.0592025
0.0594267
0.0595613
0.0596318
0.0596591
0.0584014
0.0583796
0.0583203
0.0582019
0.0579974
0.0576773
0.0572153
0.0565996
0.0558487
0.0550227
0.0542133
0.0534969
0.0528718
0.0522442
0.0515024
0.0506691
0.0501184
0.0502812
0.0510807
0.0522378
0.0535025
0.0547198
0.055829
0.0568
0.0576117
0.0582541
0.0587317
0.0590631
0.059276
0.0594
0.0594627
0.0594859
0.0580165
0.0579934
0.0579288
0.0577977
0.0575674
0.0572014
0.0566662
0.0559459
0.0550627
0.0540898
0.0531345
0.0522813
0.0515262
0.0507686
0.0499023
0.0489864
0.0484575
0.0487698
0.0498119
0.0512562
0.052802
0.054245
0.0555066
0.0565646
0.0574137
0.0580604
0.0585233
0.0588313
0.059019
0.0591212
0.059168
0.0591831
0.0574837
0.0574582
0.0573862
0.0572379
0.0569747
0.0565523
0.0559299
0.0550882
0.0540539
0.0529133
0.0517868
0.0507628
0.0498338
0.0489006
0.0478818
0.0468821
0.0463753
0.0468064
0.048049
0.0497666
0.0516235
0.0533597
0.0548443
0.0560408
0.0569572
0.0576193
0.0580647
0.0583383
0.0584868
0.0585533
0.0585739
0.0585753
0.0567678
0.0567387
0.0566558
0.056484
0.0561777
0.0556848
0.0549582
0.0539776
0.052776
0.0514513
0.0501331
0.0489095
0.0477699
0.0466275
0.0454366
0.0443331
0.0437733
0.0441645
0.0454159
0.0472456
0.0493339
0.0513816
0.0531789
0.0546215
0.0556979
0.05644
0.056904
0.0571566
0.0572653
0.0572897
0.0572772
0.0572609
0.0558548
0.0558206
0.0557228
0.0555195
0.0551574
0.0545771
0.0537278
0.0525927
0.0512155
0.0497049
0.0481929
0.0467604
0.0453938
0.0440266
0.0426427
0.041368
0.040575
0.0406132
0.0414842
0.043024
0.0450015
0.0471461
0.049207
0.0509924
0.052396
0.0533953
0.0540237
0.0543571
0.0544902
0.0545093
0.0544821
0.0544551
0.0547843
0.054745
0.054632
0.0543969
0.0539792
0.0533143
0.052351
0.0510774
0.0495436
0.0478598
0.0461544
0.0445084
0.0429196
0.0413409
0.0397606
0.0382473
0.037039
0.0364043
0.0364355
0.0371082
0.0383409
0.0399838
0.0418448
0.0437195
0.0454204
0.0468181
0.0478425
0.0484996
0.0488583
0.0490115
0.0490505
0.0490464
0.0536512
0.0536087
0.053486
0.0532306
0.0527772
0.0520576
0.0510193
0.0496508
0.0480019
0.0461812
0.0443185
0.0425062
0.0407656
0.0390721
0.0374075
0.0357698
0.0342435
0.0329558
0.0320079
0.0314757
0.031424
0.0318639
0.032746
0.0339661
0.0353762
0.0368001
0.038076
0.0390899
0.0397957
0.0402165
0.0404207
0.0404882
0.0525767
0.0525338
0.052411
0.0521563
0.0517046
0.0509867
0.0499471
0.0485686
0.0468929
0.0450236
0.0430976
0.0412348
0.0395002
0.037909
0.0364549
0.0350949
0.0337638
0.0323453
0.0308516
0.029403
0.0281595
0.0272509
0.0267543
0.02669
0.0270214
0.0276565
0.0284601
0.0292777
0.0299757
0.0304781
0.0307731
0.0308943
0.0517457
0.0517049
0.051591
0.051358
0.0509471
0.0502928
0.0493387
0.0480591
0.046482
0.044698
0.042847
0.0410789
0.0395128
0.0382205
0.0372308
0.0364982
0.0358351
0.0348515
0.0334026
0.0316096
0.029698
0.0278875
0.0263446
0.0251699
0.0244011
0.0240204
0.0239631
0.024128
0.0243967
0.0246618
0.0248529
0.0249446
0.0512428
0.0512047
0.051102
0.0508973
0.0505407
0.0499749
0.0491457
0.0480217
0.0466161
0.0450019
0.0433086
0.0416966
0.0403188
0.039291
0.0386763
0.0384445
0.0383565
0.0378702
0.0366908
0.0348612
0.0326038
0.030208
0.0279468
0.0260202
0.0245319
0.0235003
0.0228799
0.0225852
0.0225105
0.0225502
0.0226186
0.0226631
0.0509937
0.0509581
0.0508657
0.0506867
0.0503809
0.0499
0.0491954
0.0482339
0.047017
0.045599
0.0440899
0.0426413
0.0414131
0.0405404
0.0401052
0.0400899
0.0402457
0.0400184
0.0390786
0.0373778
0.0350449
0.0323316
0.0295543
0.0270134
0.0249165
0.0233547
0.0223164
0.0217192
0.0214444
0.0213667
0.0213779
0.021403
0.0509026
0.0508699
0.0507874
0.0506312
0.0503691
0.0499619
0.0493683
0.0485568
0.0475224
0.046303
0.0449865
0.043703
0.0425992
0.0418064
0.0414072
0.0413868
0.0415055
0.0412788
0.0404259
0.0388584
0.0366186
0.0338666
0.03087
0.0279505
0.02539
0.0233654
0.021931
0.0210378
0.0205713
0.0203899
0.0203584
0.0203731
0.050878
0.0508507
0.0507818
0.0506508
0.0504308
0.0500894
0.0495927
0.0489136
0.0480451
0.0470134
0.0458848
0.0447616
0.0437632
0.0429989
0.0425353
0.0423482
0.0422276
0.0418099
0.0408916
0.0393786
0.0372607
0.0346184
0.0316366
0.0285857
0.0257614
0.0234034
0.0216378
0.0204702
0.019812
0.0195217
0.0194447
0.0194493
0.0508016
0.0507858
0.0507412
0.0506482
0.050481
0.0502098
0.0498052
0.0492448
0.0485221
0.0476549
0.0466895
0.045698
0.0447653
0.0439689
0.043351
0.0428755
0.0423882
0.0416744
0.0406091
0.0390995
0.0370986
0.0346284
0.0318041
0.0288238
0.0259375
0.0233979
0.021391
0.0199881
0.0191467
0.0187429
0.0186155
0.0186085
0.0505173
0.0505226
0.0505208
0.0504901
0.0504003
0.0502178
0.0499119
0.049461
0.0488579
0.0481128
0.047254
0.0463261
0.0453825
0.0444719
0.0436169
0.0427782
0.0418789
0.0408526
0.0396352
0.0381314
0.0362668
0.0340144
0.0314282
0.0286465
0.0258621
0.0232952
0.0211535
0.0195702
0.0185635
0.0180457
0.0178626
0.0178418
0.0498485
0.0498868
0.0499499
0.0500094
0.0500251
0.0499517
0.0497489
0.0493893
0.048861
0.0481671
0.047324
0.0463597
0.04531
0.0442086
0.0430714
0.0418679
0.0406012
0.0393247
0.0380093
0.0365507
0.0348568
0.0328657
0.03058
0.0280805
0.0255095
0.0230463
0.0208846
0.019192
0.0180503
0.0174236
0.0171808
0.0171435
0.0486334
0.048716
0.0488604
0.0490247
0.0491522
0.0491813
0.049057
0.0487403
0.048214
0.0474798
0.046554
0.0454644
0.0442453
0.0429301
0.0415381
0.0400524
0.0385392
0.0371264
0.0357978
0.0344393
0.0329498
0.0312494
0.0293058
0.0271504
0.0248743
0.0226148
0.0205397
0.0188225
0.0175909
0.0168694
0.0165659
0.0165091
0.046755
0.0468892
0.047113
0.0473591
0.0475526
0.0476216
0.0475017
0.0471459
0.0465388
0.0456909
0.0446289
0.0433902
0.0420166
0.0405459
0.0390028
0.037381
0.0357813
0.0343619
0.0331073
0.0318996
0.0306374
0.0292381
0.0276512
0.0258735
0.0239507
0.0219743
0.0200782
0.0184247
0.0171644
0.0163745
0.0160141
0.0159352
0.0441481
0.044332
0.0445991
0.0448476
0.0449975
0.0449883
0.0447669
0.0442916
0.0435587
0.0425899
0.0414214
0.0400982
0.0386663
0.0371643
0.0356181
0.0340264
0.0324978
0.0311875
0.0300776
0.029056
0.0280295
0.0269228
0.0256819
0.0242842
0.0227425
0.0211062
0.0194674
0.0179624
0.0167447
0.0159271
0.0155217
0.0154194
0.0407771
0.0409912
0.0412186
0.0413378
0.041302
0.041096
0.0406966
0.0400804
0.0392541
0.038239
0.03707
0.0357889
0.0344374
0.0330493
0.0316472
0.0302309
0.0288981
0.0277818
0.0268631
0.026045
0.0252489
0.0244125
0.0234876
0.0224454
0.0212799
0.0200094
0.0186851
0.0174041
0.0163031
0.0155112
0.0150838
0.0149603
0.036594
0.0367879
0.0368482
0.0367048
0.0363954
0.03596
0.0354033
0.034716
0.0338995
0.0329625
0.0319274
0.0308244
0.0296847
0.0285335
0.027388
0.0262479
0.0251904
0.0243179
0.0236133
0.0230008
0.0224199
0.0218235
0.0211738
0.0204446
0.0196233
0.0187106
0.0177267
0.0167272
0.0158136
0.0151079
0.0146931
0.0145562
0.0314904
0.0315668
0.0313431
0.0309177
0.0304025
0.029849
0.0292646
0.0286388
0.0279601
0.0272228
0.0264345
0.0256116
0.0247734
0.0239364
0.0231121
0.0223001
0.0215543
0.0209444
0.0204577
0.0200416
0.0196548
0.0192653
0.018847
0.0183809
0.0178551
0.0172644
0.0166123
0.0159223
0.015253
0.0146964
0.0143389
0.0142048
0.0252555
0.0251074
0.0246718
0.0241831
0.0237004
0.023241
0.0228034
0.0223735
0.0219354
0.0214778
0.0209994
0.0205064
0.0200085
0.0195145
0.019031
0.0185578
0.0181256
0.0177739
0.0174951
0.0172593
0.0170432
0.0168286
0.0166009
0.0163492
0.0160659
0.0157467
0.01539
0.0150022
0.0146077
0.0142557
0.0140074
0.0139012
0.0176299
0.0175127
0.0172873
0.0170727
0.0168765
0.0166987
0.0165372
0.0163855
0.016236
0.0160834
0.0159257
0.0157643
0.0156019
0.0154414
0.0152847
0.0151319
0.0149927
0.0148797
0.0147904
0.0147152
0.0146468
0.0145794
0.0145085
0.0144305
0.014343
0.0142447
0.0141345
0.0140136
0.0138878
0.0137703
0.0136804
0.0136369
)
;

boundaryField
{
    movingWall
    {
        type            fixedValue;
        value           uniform 0.0135;
    }
    fixedWalls
    {
        type            zeroGradient;
    }
    floor
    {
        type            zeroGradient;
    }
    frontAndBack
    {
        type            empty;
    }
}


// ************************************************************************* //
