/*--------------------------------*- C++ -*----------------------------------*\
| =========                 |                                                 |
| \\      /  F ield         | OpenFOAM: The Open Source CFD Toolbox           |
|  \\    /   O peration     | Version:  2212                                  |
|   \\  /    A nd           | Website:  www.openfoam.com                      |
|    \\/     M anipulation  |                                                 |
\*---------------------------------------------------------------------------*/
FoamFile
{
    version     2.0;
    format      ascii;
    arch        "LSB;label=64;scalar=64";
    class       volScalarField;
    location    "1570";
    object      p;
}
// * * * * * * * * * * * * * * * * * * * * * * * * * * * * * * * * * * * * * //

dimensions      [0 2 -2 0 0 0 0];

internalField   nonuniform List<scalar> 
1024
(
0
-1.05564e-06
-2.07253e-06
-1.93669e-06
3.29782e-07
5.51942e-06
1.41897e-05
2.6365e-05
4.06893e-05
5.26223e-05
5.59158e-05
4.64173e-05
2.90876e-05
1.08636e-05
-2.64692e-06
-1.28375e-05
-3.18764e-05
-7.18789e-05
-0.000124347
-0.000173496
-0.000208654
-0.000229732
-0.000241244
-0.000247186
-0.000250141
-0.00025153
-0.00025196
-0.000251621
-0.000250632
-0.000249263
-0.000247955
-0.000247221
-0.0928112
-0.0928123
-0.0928132
-0.092813
-0.092811
-0.0928063
-0.0927985
-0.0927874
-0.0927742
-0.0927631
-0.09276
-0.0927688
-0.0927853
-0.0928028
-0.0928162
-0.0928268
-0.0928464
-0.0928865
-0.0929384
-0.0929867
-0.0930211
-0.0930416
-0.0930527
-0.0930583
-0.093061
-0.0930622
-0.0930626
-0.0930622
-0.0930614
-0.0930602
-0.0930591
-0.0930583
-0.199425
-0.199426
-0.199427
-0.199427
-0.199426
-0.199422
-0.199415
-0.199406
-0.199394
-0.199384
-0.199381
-0.199389
-0.199404
-0.199421
-0.199434
-0.199445
-0.199465
-0.199505
-0.199557
-0.199604
-0.199638
-0.199657
-0.199667
-0.199672
-0.199674
-0.199675
-0.199675
-0.199675
-0.199674
-0.199673
-0.199672
-0.199671
-0.321895
-0.321897
-0.321898
-0.321899
-0.321898
-0.321895
-0.32189
-0.321882
-0.321871
-0.321863
-0.321861
-0.321868
-0.321882
-0.321897
-0.321909
-0.32192
-0.321941
-0.321982
-0.322033
-0.32208
-0.322112
-0.32213
-0.322139
-0.322142
-0.322143
-0.322143
-0.322143
-0.322142
-0.322141
-0.32214
-0.322139
-0.322137
-0.462582
-0.462584
-0.462586
-0.462587
-0.462586
-0.462585
-0.462581
-0.462575
-0.462566
-0.462559
-0.462558
-0.462565
-0.462577
-0.46259
-0.462601
-0.462612
-0.462634
-0.462675
-0.462727
-0.462773
-0.462804
-0.46282
-0.462826
-0.462828
-0.462827
-0.462826
-0.462825
-0.462823
-0.462822
-0.46282
-0.462818
-0.462817
-0.624195
-0.624197
-0.624199
-0.6242
-0.624201
-0.624201
-0.624199
-0.624194
-0.624187
-0.624182
-0.624183
-0.624189
-0.6242
-0.62421
-0.624218
-0.624229
-0.624252
-0.624295
-0.624347
-0.624394
-0.624423
-0.624437
-0.62444
-0.624439
-0.624436
-0.624433
-0.62443
-0.624428
-0.624426
-0.624424
-0.624421
-0.624419
-0.809847
-0.809849
-0.80985
-0.809852
-0.809854
-0.809855
-0.809854
-0.809851
-0.809847
-0.809844
-0.809846
-0.809853
-0.809861
-0.809868
-0.809874
-0.809885
-0.80991
-0.809954
-0.810007
-0.810054
-0.810083
-0.810093
-0.810093
-0.810089
-0.810083
-0.810077
-0.810072
-0.810068
-0.810066
-0.810063
-0.810061
-0.810058
-1.02311
-1.02311
-1.02311
-1.02312
-1.02312
-1.02312
-1.02312
-1.02312
-1.02312
-1.02312
-1.02312
-1.02313
-1.02314
-1.02314
-1.02314
-1.02315
-1.02318
-1.02323
-1.02328
-1.02333
-1.02336
-1.02336
-1.02336
-1.02335
-1.02334
-1.02333
-1.02333
-1.02332
-1.02332
-1.02331
-1.02331
-1.02331
-1.2681
-1.2681
-1.2681
-1.2681
-1.2681
-1.2681
-1.2681
-1.2681
-1.2681
-1.26811
-1.26811
-1.26812
-1.26813
-1.26813
-1.26813
-1.26814
-1.26817
-1.26822
-1.26827
-1.26832
-1.26835
-1.26835
-1.26834
-1.26833
-1.26832
-1.26831
-1.2683
-1.26829
-1.26829
-1.26828
-1.26828
-1.26828
-1.54951
-1.54951
-1.54951
-1.54951
-1.54952
-1.54952
-1.54952
-1.54952
-1.54952
-1.54953
-1.54954
-1.54955
-1.54955
-1.54956
-1.54956
-1.54957
-1.5496
-1.54964
-1.54969
-1.54974
-1.54977
-1.54977
-1.54976
-1.54974
-1.54973
-1.54971
-1.5497
-1.54969
-1.54969
-1.54969
-1.54968
-1.54968
-1.87278
-1.87278
-1.87278
-1.87278
-1.87278
-1.87278
-1.87278
-1.87278
-1.87279
-1.8728
-1.87281
-1.87282
-1.87283
-1.87284
-1.87284
-1.87286
-1.87288
-1.87292
-1.87296
-1.873
-1.87302
-1.87302
-1.873
-1.87299
-1.87297
-1.87296
-1.87294
-1.87294
-1.87293
-1.87293
-1.87293
-1.87293
-2.24412
-2.24412
-2.24412
-2.24412
-2.24412
-2.24412
-2.24412
-2.24413
-2.24413
-2.24414
-2.24416
-2.24418
-2.24419
-2.2442
-2.24421
-2.24423
-2.24425
-2.24427
-2.2443
-2.24432
-2.24433
-2.24432
-2.2443
-2.24428
-2.24427
-2.24425
-2.24425
-2.24424
-2.24424
-2.24424
-2.24424
-2.24424
-2.67069
-2.67069
-2.67069
-2.67069
-2.67069
-2.67069
-2.67069
-2.6707
-2.67071
-2.67072
-2.67074
-2.67076
-2.67078
-2.6708
-2.67082
-2.67084
-2.67085
-2.67087
-2.67088
-2.67087
-2.67085
-2.67083
-2.6708
-2.67078
-2.67076
-2.67075
-2.67075
-2.67075
-2.67075
-2.67075
-2.67075
-2.67075
-3.16071
-3.16071
-3.16071
-3.16071
-3.16071
-3.16071
-3.16072
-3.16072
-3.16073
-3.16075
-3.16077
-3.1608
-3.16083
-3.16085
-3.16088
-3.16091
-3.16093
-3.16093
-3.16092
-3.16089
-3.16085
-3.1608
-3.16075
-3.16071
-3.16069
-3.16068
-3.16068
-3.16068
-3.16068
-3.16069
-3.16069
-3.16069
-3.72362
-3.72362
-3.72363
-3.72363
-3.72363
-3.72363
-3.72364
-3.72365
-3.72366
-3.72368
-3.72371
-3.72374
-3.72377
-3.72381
-3.72385
-3.72388
-3.72391
-3.72391
-3.72388
-3.72384
-3.72378
-3.72371
-3.72365
-3.7236
-3.72356
-3.72354
-3.72353
-3.72353
-3.72353
-3.72354
-3.72354
-3.72354
-4.37028
-4.37028
-4.37028
-4.37028
-4.37029
-4.37029
-4.3703
-4.37031
-4.37033
-4.37035
-4.37038
-4.37041
-4.37046
-4.3705
-4.37055
-4.37059
-4.37062
-4.37063
-4.3706
-4.37056
-4.37049
-4.37042
-4.37035
-4.37029
-4.37024
-4.37021
-4.37019
-4.37018
-4.37018
-4.37019
-4.37019
-4.3702
-5.06171
-5.06171
-5.06171
-5.06172
-5.06172
-5.06173
-5.06174
-5.06175
-5.06177
-5.06179
-5.06182
-5.06186
-5.0619
-5.06196
-5.06201
-5.06206
-5.0621
-5.0621
-5.06208
-5.06204
-5.06199
-5.06193
-5.06186
-5.0618
-5.06174
-5.0617
-5.06167
-5.06166
-5.06166
-5.06166
-5.06167
-5.06167
-5.70839
-5.70839
-5.70839
-5.70839
-5.70839
-5.7084
-5.70841
-5.70843
-5.70845
-5.70847
-5.7085
-5.70854
-5.70859
-5.70864
-5.7087
-5.70876
-5.70879
-5.7088
-5.70878
-5.70875
-5.70871
-5.70867
-5.70861
-5.70855
-5.70849
-5.70844
-5.70841
-5.70839
-5.70839
-5.70839
-5.7084
-5.7084
-6.27133
-6.27133
-6.27133
-6.27134
-6.27134
-6.27135
-6.27136
-6.27137
-6.27139
-6.27142
-6.27145
-6.27149
-6.27154
-6.27159
-6.27165
-6.27171
-6.27175
-6.27175
-6.27174
-6.27171
-6.27168
-6.27165
-6.2716
-6.27155
-6.2715
-6.27145
-6.27141
-6.27139
-6.27138
-6.27138
-6.27139
-6.27139
-6.76139
-6.76139
-6.76139
-6.76139
-6.76139
-6.7614
-6.76141
-6.76142
-6.76145
-6.76147
-6.7615
-6.76154
-6.76159
-6.76165
-6.76171
-6.76177
-6.76181
-6.76181
-6.7618
-6.76178
-6.76175
-6.76171
-6.76168
-6.76164
-6.76159
-6.76154
-6.7615
-6.76147
-6.76146
-6.76146
-6.76146
-6.76147
-7.188
-7.18799
-7.18799
-7.18799
-7.188
-7.188
-7.18801
-7.18802
-7.18804
-7.18807
-7.1881
-7.18814
-7.1882
-7.18826
-7.18832
-7.18838
-7.18842
-7.18843
-7.18841
-7.18838
-7.18835
-7.18832
-7.18828
-7.18824
-7.1882
-7.18815
-7.1881
-7.18807
-7.18805
-7.18804
-7.18805
-7.18806
-7.55937
-7.55937
-7.55937
-7.55936
-7.55937
-7.55937
-7.55937
-7.55938
-7.5594
-7.55943
-7.55946
-7.55951
-7.55956
-7.55963
-7.5597
-7.55976
-7.55981
-7.55981
-7.55979
-7.55976
-7.55972
-7.55968
-7.55964
-7.55959
-7.55954
-7.55949
-7.55943
-7.55939
-7.55936
-7.55935
-7.55935
-7.55936
-7.88266
-7.88266
-7.88266
-7.88266
-7.88266
-7.88266
-7.88266
-7.88266
-7.88268
-7.8827
-7.88274
-7.88279
-7.88285
-7.88292
-7.883
-7.88307
-7.88311
-7.88312
-7.8831
-7.88306
-7.88302
-7.88297
-7.88291
-7.88285
-7.88279
-7.88272
-7.88265
-7.88258
-7.88254
-7.88252
-7.88252
-7.88253
-8.16411
-8.1641
-8.1641
-8.1641
-8.1641
-8.16409
-8.16409
-8.16409
-8.1641
-8.16412
-8.16416
-8.16421
-8.16428
-8.16436
-8.16444
-8.16451
-8.16456
-8.16457
-8.16455
-8.16451
-8.16446
-8.1644
-8.16433
-8.16425
-8.16416
-8.16406
-8.16397
-8.16387
-8.1638
-8.16377
-8.16376
-8.16377
-8.40912
-8.40912
-8.40912
-8.40911
-8.4091
-8.40909
-8.40908
-8.40907
-8.40908
-8.4091
-8.40914
-8.4092
-8.40928
-8.40936
-8.40945
-8.40953
-8.40958
-8.40959
-8.40957
-8.40953
-8.40947
-8.4094
-8.40931
-8.4092
-8.40908
-8.40895
-8.40881
-8.40868
-8.40857
-8.4085
-8.40848
-8.40849
-8.62242
-8.62242
-8.62242
-8.62241
-8.62239
-8.62237
-8.62235
-8.62234
-8.62234
-8.62236
-8.62241
-8.62248
-8.62256
-8.62265
-8.62274
-8.62282
-8.62287
-8.62289
-8.62287
-8.62283
-8.62276
-8.62268
-8.62258
-8.62244
-8.62228
-8.62209
-8.6219
-8.62171
-8.62155
-8.62143
-8.62138
-8.62137
-8.80811
-8.80812
-8.80811
-8.8081
-8.80807
-8.80804
-8.80801
-8.80799
-8.80799
-8.80802
-8.80807
-8.80814
-8.80823
-8.80832
-8.80842
-8.80851
-8.80856
-8.80857
-8.80856
-8.80851
-8.80845
-8.80835
-8.80823
-8.80807
-8.80786
-8.80762
-8.80736
-8.80709
-8.80685
-8.80666
-8.80655
-8.80651
-8.9698
-8.9698
-8.96979
-8.96976
-8.96972
-8.96967
-8.96963
-8.96961
-8.96961
-8.96964
-8.9697
-8.96977
-8.96986
-8.96996
-8.97006
-8.97015
-8.97021
-8.97022
-8.97021
-8.97016
-8.97009
-8.96999
-8.96985
-8.96966
-8.96942
-8.96913
-8.96879
-8.96843
-8.96808
-8.96778
-8.96757
-8.96748
-9.1106
-9.11059
-9.11056
-9.1105
-9.11044
-9.11038
-9.11033
-9.1103
-9.11031
-9.11034
-9.1104
-9.11048
-9.11058
-9.11068
-9.11078
-9.11087
-9.11093
-9.11095
-9.11093
-9.11088
-9.11081
-9.1107
-9.11055
-9.11034
-9.11007
-9.10973
-9.10932
-9.10886
-9.10838
-9.10792
-9.10756
-9.10734
-9.2333
-9.23322
-9.23312
-9.23302
-9.23293
-9.23286
-9.23281
-9.23278
-9.23279
-9.23283
-9.23289
-9.23297
-9.23307
-9.23318
-9.23328
-9.23338
-9.23344
-9.23345
-9.23344
-9.23339
-9.23331
-9.2332
-9.23304
-9.23282
-9.23253
-9.23215
-9.23169
-9.23115
-9.23052
-9.22985
-9.22922
-9.22867
-9.34044
-9.34005
-9.3398
-9.33965
-9.33955
-9.33948
-9.33943
-9.3394
-9.33941
-9.33945
-9.33952
-9.33961
-9.33971
-9.33982
-9.33993
-9.34002
-9.34008
-9.3401
-9.34008
-9.34004
-9.33996
-9.33985
-9.33968
-9.33946
-9.33915
-9.33876
-9.33827
-9.33767
-9.33693
-9.33602
-9.33492
-9.33366
-9.4343
-9.43306
-9.4326
-9.43245
-9.43235
-9.43228
-9.43223
-9.43222
-9.43223
-9.43228
-9.43235
-9.43244
-9.43255
-9.43266
-9.43277
-9.43286
-9.43292
-9.43294
-9.43293
-9.43288
-9.4328
-9.43269
-9.43253
-9.4323
-9.43199
-9.4316
-9.4311
-9.43047
-9.42966
-9.42856
-9.42695
-9.42469
)
;

boundaryField
{
    movingWall
    {
        type            calculated;
        value           nonuniform List<scalar> 
32
(
-9.47751
-9.47627
-9.47581
-9.47566
-9.47556
-9.47549
-9.47544
-9.47543
-9.47544
-9.47549
-9.47556
-9.47565
-9.47576
-9.47587
-9.47598
-9.47607
-9.47613
-9.47615
-9.47614
-9.47609
-9.47601
-9.4759
-9.47574
-9.47551
-9.4752
-9.47481
-9.47431
-9.47368
-9.47287
-9.47177
-9.47016
-9.4679
)
;
    }
    fixedWalls
    {
        type            calculated;
        value           nonuniform List<scalar> 
64
(
6.93889e-18
-0.0928112
-0.199425
-0.321895
-0.462582
-0.624195
-0.809847
-1.02311
-1.2681
-1.54951
-1.87278
-2.24412
-2.67069
-3.16071
-3.72362
-4.37028
-5.06171
-5.70839
-6.27133
-6.76139
-7.188
-7.55937
-7.88266
-8.16411
-8.40912
-8.62242
-8.80811
-8.9698
-9.1106
-9.2333
-9.34044
-9.4343
-0.000247221
-0.0930583
-0.199671
-0.322137
-0.462817
-0.624419
-0.810058
-1.02331
-1.26828
-1.54968
-1.87293
-2.24424
-2.67075
-3.16069
-3.72354
-4.3702
-5.06167
-5.7084
-6.27139
-6.76147
-7.18806
-7.55936
-7.88253
-8.16377
-8.40849
-8.62137
-8.80651
-8.96748
-9.10734
-9.22867
-9.33366
-9.42469
)
;
    }
    floor
    {
        type            calculated;
        value           nonuniform List<scalar> 
32
(
0.0431943
0.0431933
0.0431923
0.0431925
0.0431948
0.0432
0.0432088
0.043221
0.0432354
0.0432474
0.0432507
0.0432412
0.0432238
0.0432055
0.043192
0.0431818
0.0431628
0.0431228
0.0430703
0.0430211
0.0429859
0.0429648
0.0429532
0.0429473
0.0429443
0.0429428
0.0429424
0.0429427
0.0429437
0.042945
0.0429463
0.0429471
)
;
    }
    frontAndBack
    {
        type            empty;
    }
}


// ************************************************************************* //
