/*--------------------------------*- C++ -*----------------------------------*\
| =========                 |                                                 |
| \\      /  F ield         | OpenFOAM: The Open Source CFD Toolbox           |
|  \\    /   O peration     | Version:  2212                                  |
|   \\  /    A nd           | Website:  www.openfoam.com                      |
|    \\/     M anipulation  |                                                 |
\*---------------------------------------------------------------------------*/
FoamFile
{
    version     2.0;
    format      ascii;
    arch        "LSB;label=64;scalar=64";
    class       volScalarField;
    location    "1570";
    object      p_rgh;
}
// * * * * * * * * * * * * * * * * * * * * * * * * * * * * * * * * * * * * * //

dimensions      [0 2 -2 0 0 0 0];

internalField   nonuniform List<scalar> 
1024
(
0.0431943
0.0431933
0.0431923
0.0431925
0.0431948
0.0432
0.0432088
0.043221
0.0432354
0.0432474
0.0432507
0.0432412
0.0432238
0.0432055
0.043192
0.0431818
0.0431628
0.0431228
0.0430703
0.0430211
0.0429859
0.0429648
0.0429532
0.0429473
0.0429443
0.0429428
0.0429424
0.0429427
0.0429437
0.042945
0.0429463
0.0429471
0.0431966
0.0431956
0.0431948
0.0431952
0.0431976
0.0432027
0.0432111
0.043223
0.043237
0.0432487
0.043252
0.0432429
0.0432259
0.0432077
0.043194
0.0431834
0.0431642
0.0431242
0.043072
0.0430232
0.0429884
0.0429674
0.0429559
0.0429499
0.0429468
0.0429453
0.0429447
0.0429448
0.0429455
0.0429466
0.0429477
0.0429484
0.0432004
0.0431991
0.0431984
0.0431992
0.0432019
0.0432072
0.0432157
0.0432277
0.043242
0.0432539
0.0432574
0.0432483
0.0432312
0.0432128
0.0431988
0.0431882
0.0431688
0.0431288
0.0430766
0.0430278
0.042993
0.0429721
0.0429606
0.0429544
0.0429511
0.0429493
0.0429484
0.0429481
0.0429484
0.0429492
0.0429502
0.0429512
0.0432048
0.0432033
0.0432027
0.0432038
0.0432071
0.0432133
0.0432229
0.0432361
0.0432516
0.0432644
0.0432681
0.0432587
0.0432409
0.0432219
0.0432077
0.0431973
0.0431782
0.0431381
0.0430852
0.0430354
0.043
0.0429789
0.0429671
0.0429607
0.042957
0.0429547
0.0429532
0.0429523
0.0429521
0.0429526
0.0429538
0.0429552
0.0432089
0.0432074
0.043207
0.0432087
0.0432132
0.043221
0.0432327
0.0432484
0.0432661
0.0432803
0.0432843
0.0432743
0.0432555
0.0432357
0.0432216
0.0432118
0.0431933
0.0431527
0.0430984
0.0430466
0.0430097
0.0429877
0.0429755
0.0429686
0.0429643
0.0429612
0.0429588
0.0429571
0.0429563
0.0429565
0.0429579
0.0429596
0.0432117
0.0432105
0.0432106
0.0432134
0.0432196
0.04323
0.043245
0.0432642
0.0432849
0.0433008
0.043305
0.0432945
0.0432748
0.0432546
0.043241
0.0432324
0.0432143
0.0431728
0.043116
0.0430612
0.0430214
0.0429982
0.0429852
0.0429774
0.0429721
0.0429679
0.0429643
0.0429615
0.0429599
0.0429597
0.042961
0.0429629
0.0432126
0.0432119
0.0432128
0.0432171
0.0432257
0.0432396
0.0432589
0.0432826
0.0433067
0.043324
0.0433281
0.0433173
0.0432974
0.0432777
0.0432655
0.0432586
0.0432405
0.043197
0.0431366
0.0430774
0.0430337
0.0430087
0.0429945
0.0429855
0.0429787
0.0429729
0.0429677
0.0429636
0.0429609
0.04296
0.0429611
0.0429629
0.0432121
0.043212
0.0432139
0.0432198
0.0432312
0.0432492
0.0432737
0.0433025
0.0433301
0.0433485
0.0433519
0.0433408
0.0433217
0.0433037
0.043294
0.0432886
0.0432691
0.043222
0.0431569
0.0430921
0.0430434
0.0430162
0.0430006
0.04299
0.0429814
0.0429735
0.0429664
0.0429606
0.0429568
0.0429552
0.0429557
0.0429571
0.0432116
0.043212
0.0432149
0.0432224
0.0432368
0.0432594
0.0432896
0.0433239
0.043355
0.0433739
0.0433758
0.0433637
0.0433458
0.0433311
0.0433245
0.0433193
0.0432967
0.0432443
0.0431734
0.043102
0.0430475
0.0430175
0.0430005
0.0429882
0.0429773
0.0429672
0.042958
0.0429507
0.0429459
0.0429436
0.0429433
0.0429441
0.0432133
0.0432141
0.0432178
0.043227
0.0432445
0.0432718
0.0433081
0.0433482
0.0433827
0.0434012
0.0434006
0.0433869
0.04337
0.0433582
0.0433536
0.0433469
0.0433196
0.0432623
0.043187
0.0431088
0.0430457
0.0430116
0.0429933
0.042979
0.0429659
0.0429537
0.042943
0.0429347
0.0429294
0.0429266
0.0429257
0.0429258
0.0432199
0.0432209
0.0432253
0.0432364
0.0432573
0.0432901
0.0433329
0.0433785
0.0434151
0.0434317
0.0434278
0.0434123
0.0433959
0.0433851
0.0433789
0.0433691
0.0433388
0.0432805
0.0432039
0.0431226
0.0430538
0.0430086
0.0429846
0.0429676
0.0429523
0.0429384
0.0429269
0.0429184
0.0429131
0.0429103
0.042909
0.0429085
0.043234
0.0432351
0.0432404
0.0432539
0.0432796
0.0433193
0.0433699
0.0434201
0.0434544
0.043467
0.0434609
0.043445
0.0434278
0.043414
0.0434032
0.0433893
0.0433611
0.0433103
0.0432434
0.0431699
0.0430997
0.0430396
0.0429955
0.0429713
0.0429517
0.0429353
0.0429223
0.0429132
0.042908
0.0429054
0.0429044
0.0429038
0.0432573
0.0432584
0.0432651
0.0432825
0.0433151
0.0433638
0.043422
0.0434743
0.0435052
0.0435114
0.043501
0.0434836
0.0434654
0.0434492
0.0434341
0.0434168
0.0433954
0.043362
0.04332
0.0432744
0.0432268
0.0431746
0.0431142
0.0430503
0.043007
0.0429765
0.0429541
0.0429404
0.0429337
0.0429315
0.0429316
0.0429318
0.0432789
0.0432802
0.0432884
0.0433094
0.0433476
0.0434019
0.0434625
0.0435134
0.0435427
0.0435495
0.0435411
0.0435257
0.0435083
0.0434911
0.0434738
0.0434554
0.0434385
0.0434255
0.0434164
0.0434131
0.0434128
0.0434076
0.0433864
0.0433382
0.0432577
0.0431693
0.0431012
0.0430646
0.0430461
0.0430394
0.043039
0.0430402
0.0432783
0.0432797
0.0432888
0.0433119
0.0433531
0.04341
0.0434719
0.0435238
0.0435557
0.0435675
0.043565
0.0435544
0.0435393
0.0435214
0.0435012
0.0434796
0.0434621
0.0434589
0.043471
0.0434977
0.0435353
0.0435759
0.0436094
0.0436253
0.0436154
0.0435748
0.0435045
0.0434194
0.0433513
0.0433126
0.043297
0.0432929
0.0432385
0.0432402
0.0432495
0.0432728
0.0433144
0.0433727
0.0434376
0.0434946
0.0435337
0.0435536
0.0435587
0.0435536
0.0435408
0.0435213
0.0434958
0.0434672
0.0434438
0.0434369
0.0434493
0.0434788
0.0435223
0.0435746
0.0436282
0.0436752
0.0437086
0.0437249
0.0437236
0.0437071
0.0436805
0.0436507
0.0436279
0.0436174
0.0431656
0.0431675
0.0431762
0.0431979
0.0432377
0.0432958
0.043364
0.0434287
0.0434779
0.0435081
0.043522
0.0435234
0.0435146
0.0434966
0.0434703
0.0434401
0.043416
0.043403
0.0434039
0.0434176
0.0434434
0.0434804
0.0435249
0.0435712
0.0436124
0.0436435
0.0436624
0.04367
0.0436695
0.0436645
0.0436581
0.043653
0.0430968
0.0430988
0.0431064
0.0431251
0.043161
0.0432166
0.0432861
0.0433572
0.0434169
0.0434582
0.0434817
0.0434907
0.0434877
0.0434745
0.043453
0.0434291
0.0434155
0.0434056
0.0433987
0.0433954
0.043397
0.0434072
0.0434276
0.0434566
0.043489
0.0435186
0.0435402
0.0435524
0.0435566
0.0435556
0.0435519
0.0435478
0.043055
0.0430569
0.0430635
0.0430794
0.0431105
0.0431603
0.0432267
0.0433004
0.043369
0.0434214
0.0434544
0.0434709
0.0434735
0.0434648
0.043448
0.0434297
0.0434254
0.0434244
0.0434195
0.0434123
0.0434012
0.0433896
0.0433845
0.0433905
0.0434067
0.0434278
0.043447
0.0434597
0.043465
0.0434646
0.0434606
0.0434558
0.0430389
0.0430407
0.0430462
0.0430596
0.0430864
0.0431308
0.0431927
0.0432655
0.0433378
0.0433978
0.0434395
0.0434626
0.0434696
0.0434631
0.0434473
0.0434295
0.0434229
0.0434271
0.0434329
0.0434355
0.0434287
0.0434102
0.0433901
0.0433771
0.0433773
0.0433883
0.0434034
0.0434155
0.0434214
0.0434212
0.0434164
0.0434105
0.0430406
0.0430422
0.0430466
0.0430578
0.043081
0.0431207
0.0431781
0.0432485
0.0433216
0.0433857
0.0434329
0.0434603
0.0434691
0.0434621
0.0434442
0.043423
0.0434115
0.0434168
0.0434292
0.0434416
0.0434471
0.0434418
0.0434246
0.0434022
0.043392
0.0433966
0.0434099
0.0434234
0.0434311
0.0434317
0.0434264
0.0434191
0.0430528
0.0430539
0.0430573
0.0430666
0.043087
0.0431234
0.0431774
0.0432453
0.0433177
0.0433828
0.0434315
0.0434596
0.0434673
0.0434573
0.0434349
0.0434083
0.0433918
0.0433957
0.0434128
0.0434333
0.0434508
0.0434604
0.0434596
0.0434511
0.0434394
0.0434441
0.043462
0.0434824
0.0434961
0.0434998
0.0434946
0.0434859
0.0430699
0.0430703
0.0430726
0.0430805
0.0430994
0.0431342
0.0431867
0.0432532
0.0433239
0.0433872
0.0434336
0.0434584
0.0434616
0.0434461
0.0434175
0.0433848
0.0433635
0.0433654
0.0433854
0.0434125
0.0434408
0.0434658
0.0434851
0.0434991
0.0435103
0.0435265
0.043556
0.0435916
0.0436188
0.0436305
0.0436273
0.0436174
0.0430873
0.0430868
0.0430882
0.0430957
0.0431148
0.0431504
0.0432038
0.04327
0.0433386
0.0433974
0.0434375
0.043455
0.0434505
0.0434272
0.043391
0.0433517
0.043326
0.043326
0.0433472
0.0433795
0.0434177
0.0434585
0.0435001
0.043543
0.0435885
0.0436378
0.0436921
0.043752
0.0438036
0.0438316
0.0438342
0.0438246
0.0431019
0.0431001
0.043101
0.0431097
0.0431316
0.0431708
0.0432271
0.043294
0.0433593
0.043411
0.0434413
0.0434481
0.043433
0.0433999
0.0433552
0.043309
0.0432788
0.0432767
0.0432978
0.0433351
0.0433825
0.0434391
0.0435049
0.0435813
0.0436693
0.0437667
0.0438679
0.0439664
0.0440551
0.0441129
0.0441289
0.0441237
0.0431107
0.0431073
0.0431086
0.043121
0.043149
0.0431938
0.0432549
0.0433224
0.0433828
0.0434245
0.0434422
0.0434358
0.0434081
0.0433639
0.0433098
0.0432567
0.0432224
0.0432186
0.0432402
0.0432815
0.0433376
0.0434097
0.0435003
0.0436129
0.043749
0.0439052
0.0440714
0.0442326
0.0443747
0.0444822
0.0445271
0.0445349
0.0431076
0.0431032
0.0431072
0.0431273
0.0431655
0.0432189
0.0432839
0.0433511
0.0434043
0.0434337
0.0434368
0.0434156
0.0433744
0.0433185
0.0432553
0.0431958
0.0431586
0.0431539
0.0431769
0.043222
0.0432866
0.0433736
0.0434883
0.0436369
0.0438228
0.0440434
0.0442868
0.0445326
0.0447565
0.0449393
0.0450405
0.0450778
0.0430792
0.0430774
0.0430901
0.0431252
0.0431786
0.0432426
0.0433112
0.0433751
0.0434185
0.0434338
0.0434215
0.0433857
0.0433314
0.0432649
0.0431938
0.0431298
0.0430913
0.0430872
0.0431123
0.0431616
0.0432345
0.043335
0.0434713
0.0436523
0.0438847
0.0441685
0.0444939
0.0448401
0.0451773
0.0454689
0.0456684
0.0457655
0.0429998
0.0430127
0.0430502
0.0431126
0.0431868
0.0432618
0.043333
0.0433902
0.0434214
0.0434225
0.043396
0.0433472
0.0432822
0.0432075
0.0431311
0.043065
0.0430272
0.0430249
0.0430527
0.0431067
0.0431869
0.0432986
0.0434521
0.0436591
0.0439292
0.0442669
0.0446684
0.0451197
0.0455947
0.0460487
0.0464023
0.0466294
0.0428148
0.0428896
0.0429928
0.0430992
0.043195
0.0432797
0.0433491
0.0433965
0.0434153
0.0434037
0.0433656
0.043307
0.0432344
0.0431546
0.0430758
0.0430096
0.0429737
0.0429738
0.0430046
0.0430627
0.0431484
0.043268
0.0434333
0.0436578
0.0439537
0.0443294
0.0447891
0.0453324
0.0459527
0.0466216
0.0472527
0.0478036
0.0423242
0.0427159
0.0429605
0.0431139
0.0432215
0.0433058
0.0433674
0.0434032
0.0434102
0.0433882
0.0433414
0.0432759
0.0431986
0.0431162
0.0430365
0.0429711
0.042937
0.0429392
0.0429722
0.043033
0.0431219
0.0432457
0.043417
0.0436501
0.0439585
0.0443536
0.044846
0.0454499
0.046189
0.0470976
0.0482049
0.049463
0.0413053
0.042542
0.0430087
0.0431612
0.0432612
0.0433387
0.0433903
0.0434157
0.0434138
0.0433845
0.043332
0.0432624
0.0431823
0.0430984
0.0430182
0.0429532
0.0429198
0.042923
0.042957
0.0430187
0.0431087
0.0432337
0.0434065
0.0436415
0.0439527
0.0443525
0.0448555
0.0454871
0.0462999
0.0474013
0.0490094
0.0512715
)
;

boundaryField
{
    movingWall
    {
        type            fixedFluxPressure;
        gradient        uniform 0;
        value           nonuniform List<scalar> 
32
(
0.0413053
0.042542
0.0430087
0.0431612
0.0432612
0.0433387
0.0433903
0.0434157
0.0434138
0.0433845
0.043332
0.0432624
0.0431823
0.0430984
0.0430182
0.0429532
0.0429198
0.042923
0.042957
0.0430187
0.0431087
0.0432337
0.0434065
0.0436415
0.0439527
0.0443525
0.0448555
0.0454871
0.0462999
0.0474013
0.0490094
0.0512715
)
;
    }
    fixedWalls
    {
        type            fixedFluxPressure;
        gradient        uniform 0;
        value           nonuniform List<scalar> 
64
(
0.0431943
0.0431966
0.0432004
0.0432048
0.0432089
0.0432117
0.0432126
0.0432121
0.0432116
0.0432133
0.0432199
0.043234
0.0432573
0.0432789
0.0432783
0.0432385
0.0431656
0.0430968
0.043055
0.0430389
0.0430406
0.0430528
0.0430699
0.0430873
0.0431019
0.0431107
0.0431076
0.0430792
0.0429998
0.0428148
0.0423242
0.0413053
0.0429471
0.0429484
0.0429512
0.0429552
0.0429596
0.0429629
0.0429629
0.0429571
0.0429441
0.0429258
0.0429085
0.0429038
0.0429318
0.0430402
0.0432929
0.0436174
0.043653
0.0435478
0.0434558
0.0434105
0.0434191
0.0434859
0.0436174
0.0438246
0.0441237
0.0445349
0.0450778
0.0457655
0.0466294
0.0478036
0.049463
0.0512715
)
;
    }
    floor
    {
        type            fixedFluxPressure;
        gradient        uniform 0;
        value           nonuniform List<scalar> 
32
(
0.0431943
0.0431933
0.0431923
0.0431925
0.0431948
0.0432
0.0432088
0.043221
0.0432354
0.0432474
0.0432507
0.0432412
0.0432238
0.0432055
0.043192
0.0431818
0.0431628
0.0431228
0.0430703
0.0430211
0.0429859
0.0429648
0.0429532
0.0429473
0.0429443
0.0429428
0.0429424
0.0429427
0.0429437
0.042945
0.0429463
0.0429471
)
;
    }
    frontAndBack
    {
        type            empty;
    }
}


// ************************************************************************* //
