/*--------------------------------*- C++ -*----------------------------------*\
| =========                 |                                                 |
| \\      /  F ield         | OpenFOAM: The Open Source CFD Toolbox           |
|  \\    /   O peration     | Version:  2212                                  |
|   \\  /    A nd           | Website:  www.openfoam.com                      |
|    \\/     M anipulation  |                                                 |
\*---------------------------------------------------------------------------*/
FoamFile
{
    version     2.0;
    format      ascii;
    arch        "LSB;label=64;scalar=64";
    class       volScalarField;
    location    "1570";
    object      Saa;
}
// * * * * * * * * * * * * * * * * * * * * * * * * * * * * * * * * * * * * * //

dimensions      [1 -3 0 0 0 0 0];

internalField   nonuniform List<scalar> 
1024
(
0.00546336
0.00546338
0.00546343
0.00546353
0.00546369
0.00546393
0.00546425
0.00546465
0.00546514
0.00546567
0.00546622
0.00546676
0.00546727
0.00546778
0.00546829
0.0054688
0.00546913
0.0054691
0.00546871
0.00546804
0.00546716
0.00546614
0.0054651
0.0054641
0.00546323
0.00546252
0.00546198
0.00546158
0.00546132
0.00546116
0.00546107
0.00546103
0.00546337
0.00546339
0.00546344
0.00546354
0.00546371
0.00546395
0.00546427
0.00546468
0.00546517
0.0054657
0.00546626
0.0054668
0.00546731
0.00546781
0.00546833
0.00546884
0.00546918
0.00546915
0.00546876
0.00546809
0.0054672
0.00546619
0.00546514
0.00546414
0.00546326
0.00546254
0.00546199
0.0054616
0.00546133
0.00546117
0.00546108
0.00546104
0.00546339
0.00546342
0.00546347
0.00546358
0.00546374
0.00546399
0.00546432
0.00546475
0.00546524
0.00546579
0.00546635
0.00546689
0.0054674
0.0054679
0.00546842
0.00546894
0.00546929
0.00546926
0.00546887
0.00546819
0.00546731
0.00546629
0.00546523
0.00546422
0.00546333
0.00546259
0.00546203
0.00546163
0.00546136
0.00546119
0.00546109
0.00546106
0.00546344
0.00546346
0.00546352
0.00546363
0.00546381
0.00546406
0.00546441
0.00546486
0.00546538
0.00546594
0.00546652
0.00546707
0.00546758
0.00546808
0.0054686
0.00546913
0.00546949
0.00546946
0.00546906
0.00546836
0.00546746
0.00546644
0.00546537
0.00546434
0.00546343
0.00546267
0.00546209
0.00546168
0.0054614
0.00546122
0.00546113
0.00546109
0.00546352
0.00546354
0.0054636
0.00546372
0.0054639
0.00546418
0.00546455
0.00546502
0.00546558
0.00546619
0.00546679
0.00546736
0.00546787
0.00546837
0.0054689
0.00546945
0.00546983
0.00546978
0.00546934
0.00546861
0.00546768
0.00546663
0.00546554
0.00546449
0.00546355
0.00546278
0.00546218
0.00546174
0.00546145
0.00546127
0.00546117
0.00546113
0.00546364
0.00546366
0.00546373
0.00546385
0.00546405
0.00546434
0.00546475
0.00546527
0.00546588
0.00546655
0.0054672
0.00546779
0.00546831
0.00546882
0.00546936
0.00546995
0.00547034
0.00547026
0.00546975
0.00546894
0.00546795
0.00546686
0.00546574
0.00546466
0.0054637
0.0054629
0.00546228
0.00546183
0.00546153
0.00546134
0.00546124
0.0054612
0.00546381
0.00546384
0.0054639
0.00546403
0.00546425
0.00546457
0.00546503
0.00546561
0.0054663
0.00546706
0.00546778
0.00546842
0.00546896
0.00546948
0.00547005
0.00547068
0.00547108
0.00547093
0.0054703
0.00546936
0.00546827
0.00546711
0.00546594
0.00546483
0.00546384
0.00546302
0.00546238
0.00546192
0.00546162
0.00546143
0.00546133
0.00546129
0.00546406
0.00546409
0.00546416
0.0054643
0.00546454
0.0054649
0.00546541
0.00546607
0.00546687
0.00546774
0.00546857
0.00546928
0.00546986
0.00547041
0.00547103
0.0054717
0.00547209
0.00547183
0.00547102
0.00546989
0.00546863
0.00546736
0.00546612
0.00546497
0.00546396
0.00546313
0.00546249
0.00546203
0.00546173
0.00546154
0.00546144
0.0054614
0.00546442
0.00546445
0.00546452
0.00546467
0.00546493
0.00546534
0.00546592
0.00546669
0.00546762
0.00546863
0.00546958
0.00547039
0.00547105
0.00547166
0.00547235
0.00547307
0.00547341
0.00547299
0.00547193
0.00547054
0.00546906
0.00546762
0.00546628
0.00546508
0.00546405
0.00546322
0.0054626
0.00546216
0.00546187
0.0054617
0.00546161
0.00546158
0.00546492
0.00546495
0.00546503
0.0054652
0.00546549
0.00546595
0.00546662
0.00546751
0.00546859
0.00546975
0.00547086
0.00547181
0.00547258
0.0054733
0.00547407
0.00547482
0.00547509
0.00547446
0.00547312
0.00547142
0.00546964
0.00546798
0.0054665
0.00546523
0.00546418
0.00546337
0.00546278
0.00546237
0.00546212
0.00546198
0.00546191
0.00546189
0.00546562
0.00546565
0.00546574
0.00546592
0.00546625
0.00546678
0.00546754
0.00546857
0.00546982
0.00547117
0.00547245
0.00547355
0.00547448
0.00547534
0.00547623
0.00547701
0.0054772
0.0054764
0.00547482
0.00547281
0.0054707
0.00546875
0.00546705
0.00546566
0.00546457
0.00546377
0.00546321
0.00546286
0.00546266
0.00546256
0.00546253
0.00546252
0.00546655
0.00546659
0.00546669
0.0054669
0.00546727
0.00546788
0.00546876
0.00546994
0.00547137
0.0054729
0.00547437
0.00547565
0.00547677
0.00547781
0.00547883
0.00547967
0.00547986
0.00547907
0.00547744
0.0054753
0.00547294
0.00547066
0.00546866
0.00546704
0.00546581
0.00546495
0.0054644
0.00546409
0.00546395
0.0054639
0.00546391
0.00546392
0.00546773
0.00546777
0.00546789
0.00546814
0.00546857
0.00546927
0.00547029
0.00547164
0.00547324
0.00547496
0.00547661
0.00547808
0.00547941
0.00548065
0.00548184
0.00548282
0.00548322
0.00548276
0.0054815
0.00547963
0.00547737
0.005475
0.00547274
0.00547079
0.00546926
0.00546816
0.00546746
0.00546708
0.00546692
0.00546689
0.00546692
0.00546695
0.00546912
0.00546916
0.0054693
0.00546957
0.00547007
0.00547086
0.005472
0.00547349
0.00547525
0.00547714
0.00547897
0.00548066
0.00548221
0.00548367
0.00548505
0.00548626
0.00548707
0.00548725
0.0054868
0.00548577
0.00548426
0.00548239
0.00548037
0.00547836
0.00547656
0.00547508
0.005474
0.00547331
0.00547294
0.00547278
0.00547274
0.00547274
0.00547059
0.00547063
0.00547078
0.00547107
0.0054716
0.00547245
0.00547367
0.00547525
0.00547714
0.00547917
0.00548118
0.00548306
0.00548479
0.00548639
0.00548789
0.00548924
0.00549035
0.00549112
0.00549155
0.00549163
0.00549131
0.00549061
0.00548955
0.00548823
0.00548677
0.00548533
0.00548405
0.00548304
0.00548234
0.00548193
0.00548173
0.00548167
0.00547201
0.00547205
0.00547219
0.00547248
0.00547301
0.00547385
0.00547506
0.00547666
0.00547859
0.0054807
0.00548282
0.00548481
0.00548659
0.00548816
0.00548951
0.00549064
0.00549155
0.00549238
0.00549319
0.00549396
0.00549459
0.00549501
0.00549515
0.00549501
0.00549459
0.00549396
0.00549322
0.00549248
0.00549185
0.00549141
0.00549115
0.00549104
0.00547316
0.0054732
0.00547333
0.00547359
0.00547407
0.00547483
0.00547595
0.00547745
0.00547929
0.00548136
0.00548346
0.00548544
0.00548715
0.00548853
0.00548952
0.00549015
0.00549051
0.00549094
0.00549162
0.00549251
0.00549349
0.00549444
0.00549526
0.0054959
0.00549632
0.00549654
0.00549657
0.00549646
0.00549629
0.00549612
0.00549599
0.00549593
0.00547392
0.00547396
0.00547407
0.0054743
0.00547472
0.00547538
0.00547636
0.0054777
0.00547937
0.00548129
0.00548328
0.00548518
0.00548679
0.00548801
0.00548875
0.00548902
0.00548897
0.00548905
0.00548954
0.00549044
0.0054916
0.00549284
0.00549402
0.00549503
0.00549582
0.00549638
0.00549676
0.00549697
0.00549706
0.00549709
0.00549708
0.00549707
0.00547438
0.00547442
0.00547451
0.00547471
0.00547506
0.00547563
0.00547647
0.00547763
0.0054791
0.00548082
0.00548266
0.00548444
0.00548597
0.0054871
0.00548774
0.00548788
0.00548769
0.00548762
0.00548799
0.00548883
0.00549006
0.00549151
0.00549298
0.00549432
0.00549541
0.00549623
0.00549679
0.00549713
0.00549732
0.00549741
0.00549744
0.00549744
0.00547463
0.00547467
0.00547475
0.00547493
0.00547522
0.0054757
0.00547641
0.0054774
0.00547867
0.00548018
0.00548183
0.00548346
0.00548489
0.00548598
0.00548662
0.0054868
0.00548667
0.00548665
0.005487
0.00548779
0.005489
0.0054905
0.00549211
0.00549366
0.005495
0.00549605
0.0054968
0.00549728
0.00549755
0.00549768
0.00549773
0.00549774
0.00547478
0.00547481
0.00547488
0.00547503
0.00547528
0.00547568
0.00547628
0.00547711
0.00547819
0.00547949
0.00548093
0.00548239
0.00548371
0.00548477
0.00548547
0.0054858
0.00548588
0.00548603
0.00548647
0.00548728
0.00548846
0.00548993
0.00549156
0.0054932
0.00549468
0.0054959
0.00549681
0.00549741
0.00549777
0.00549794
0.00549801
0.00549803
0.00547492
0.00547494
0.00547499
0.0054751
0.0054753
0.00547563
0.00547612
0.00547682
0.00547773
0.00547883
0.00548007
0.00548136
0.00548258
0.00548363
0.00548444
0.00548498
0.00548536
0.00548577
0.00548636
0.00548722
0.00548837
0.00548977
0.00549134
0.00549296
0.00549449
0.0054958
0.00549682
0.00549753
0.00549797
0.00549819
0.00549828
0.00549831
0.00547518
0.00547518
0.0054752
0.00547526
0.0054754
0.00547564
0.00547603
0.0054766
0.00547736
0.0054783
0.00547938
0.00548054
0.0054817
0.00548278
0.00548373
0.00548454
0.00548524
0.00548592
0.00548666
0.00548756
0.00548866
0.00548997
0.00549143
0.00549295
0.00549444
0.00549577
0.00549685
0.00549765
0.00549815
0.00549843
0.00549854
0.00549857
0.00547568
0.00547566
0.00547564
0.00547563
0.00547568
0.00547584
0.00547613
0.00547659
0.00547724
0.00547807
0.00547905
0.00548015
0.00548131
0.00548246
0.00548358
0.00548464
0.00548562
0.0054865
0.00548735
0.00548826
0.00548929
0.00549046
0.00549177
0.00549316
0.00549454
0.00549582
0.00549691
0.00549776
0.00549832
0.00549864
0.00549877
0.00549881
0.00547656
0.00547651
0.00547642
0.00547634
0.00547631
0.00547637
0.00547659
0.00547698
0.00547758
0.00547837
0.00547933
0.00548043
0.00548162
0.00548287
0.00548411
0.00548535
0.00548651
0.00548752
0.00548841
0.00548928
0.00549021
0.00549123
0.00549235
0.00549356
0.00549479
0.00549597
0.00549702
0.00549787
0.00549847
0.00549883
0.00549898
0.00549903
0.00547787
0.00547779
0.00547765
0.00547751
0.00547742
0.00547745
0.00547763
0.00547802
0.00547862
0.00547943
0.00548041
0.00548154
0.00548276
0.00548405
0.00548536
0.00548667
0.00548788
0.0054889
0.00548977
0.00549056
0.00549136
0.00549221
0.00549314
0.00549414
0.00549519
0.00549623
0.00549719
0.00549801
0.00549862
0.005499
0.00549918
0.00549922
0.00547967
0.00547955
0.00547938
0.00547923
0.00547917
0.00547924
0.00547947
0.00547991
0.00548055
0.00548138
0.00548237
0.00548349
0.00548469
0.00548593
0.0054872
0.00548845
0.00548961
0.00549056
0.00549133
0.00549202
0.00549268
0.00549336
0.0054941
0.00549489
0.00549574
0.0054966
0.00549744
0.00549818
0.00549877
0.00549915
0.00549935
0.0054994
0.00548196
0.00548182
0.00548168
0.00548161
0.00548167
0.00548185
0.00548219
0.00548269
0.00548335
0.00548417
0.0054851
0.00548613
0.00548722
0.00548833
0.00548945
0.00549055
0.00549156
0.00549237
0.00549302
0.00549358
0.0054941
0.00549462
0.00549517
0.00549577
0.00549641
0.00549709
0.00549777
0.0054984
0.00549893
0.0054993
0.0054995
0.00549956
0.00548477
0.00548465
0.00548461
0.00548472
0.00548495
0.00548528
0.00548569
0.00548622
0.00548684
0.00548756
0.00548836
0.00548922
0.00549011
0.00549102
0.00549191
0.0054928
0.00549359
0.00549423
0.00549473
0.00549516
0.00549554
0.00549592
0.00549631
0.00549673
0.00549719
0.00549768
0.00549819
0.00549868
0.00549912
0.00549944
0.00549963
0.00549969
0.00548817
0.00548812
0.00548828
0.00548857
0.00548893
0.00548932
0.00548974
0.00549019
0.00549069
0.00549125
0.00549184
0.00549247
0.00549312
0.00549377
0.00549441
0.00549504
0.0054956
0.00549605
0.0054964
0.00549669
0.00549694
0.00549719
0.00549745
0.00549772
0.00549801
0.00549833
0.00549867
0.00549902
0.00549933
0.00549959
0.00549974
0.0054998
0.0054923
0.00549239
0.00549268
0.00549301
0.00549334
0.00549366
0.00549396
0.00549427
0.00549459
0.00549493
0.00549528
0.00549566
0.00549604
0.00549642
0.00549679
0.00549716
0.00549749
0.00549775
0.00549795
0.00549811
0.00549826
0.00549839
0.00549853
0.00549868
0.00549884
0.00549902
0.0054992
0.0054994
0.00549958
0.00549974
0.00549985
0.0054999
0.0054973
0.00549738
0.00549753
0.00549767
0.0054978
0.00549793
0.00549804
0.00549815
0.00549825
0.00549837
0.00549848
0.0054986
0.00549873
0.00549885
0.00549897
0.00549909
0.0054992
0.00549928
0.00549934
0.0054994
0.00549944
0.00549949
0.00549953
0.00549958
0.00549963
0.00549968
0.00549974
0.0054998
0.00549986
0.00549991
0.00549995
0.00549997
)
;

boundaryField
{
    movingWall
    {
        type            fixedValue;
        value           uniform 0.0055;
    }
    fixedWalls
    {
        type            zeroGradient;
    }
    floor
    {
        type            zeroGradient;
    }
    frontAndBack
    {
        type            empty;
    }
}


// ************************************************************************* //
