/*--------------------------------*- C++ -*----------------------------------*\
| =========                 |                                                 |
| \\      /  F ield         | OpenFOAM: The Open Source CFD Toolbox           |
|  \\    /   O peration     | Version:  2212                                  |
|   \\  /    A nd           | Website:  www.openfoam.com                      |
|    \\/     M anipulation  |                                                 |
\*---------------------------------------------------------------------------*/
FoamFile
{
    version     2.0;
    format      ascii;
    arch        "LSB;label=64;scalar=64";
    class       volScalarField;
    location    "1570";
    object      SIC;
}
// * * * * * * * * * * * * * * * * * * * * * * * * * * * * * * * * * * * * * //

dimensions      [1 -3 0 0 0 0 0];

internalField   nonuniform List<scalar> 
1024
(
0.0911625
0.091164
0.0911675
0.0911741
0.0911847
0.0912001
0.0912213
0.0912482
0.0912802
0.091316
0.0913535
0.0913911
0.0914283
0.0914668
0.0915087
0.0915538
0.0915893
0.0915977
0.0915785
0.0915376
0.0914815
0.0914168
0.09135
0.0912871
0.0912324
0.0911881
0.0911543
0.0911301
0.0911139
0.0911038
0.0910984
0.0910961
0.0911632
0.0911647
0.0911683
0.091175
0.0911857
0.0912014
0.0912228
0.0912501
0.0912824
0.0913185
0.0913561
0.0913937
0.091431
0.0914694
0.0915115
0.091557
0.0915928
0.0916014
0.0915822
0.0915412
0.091485
0.0914201
0.091353
0.0912897
0.0912345
0.0911897
0.0911555
0.0911311
0.0911146
0.0911044
0.0910989
0.0910966
0.0911649
0.0911664
0.0911702
0.0911771
0.0911881
0.0912043
0.0912264
0.0912544
0.0912876
0.0913244
0.0913626
0.0914004
0.0914376
0.0914761
0.0915187
0.0915649
0.0916016
0.0916104
0.0915909
0.0915494
0.0914927
0.0914273
0.0913595
0.0912952
0.091239
0.0911932
0.0911582
0.0911331
0.0911163
0.0911059
0.0911002
0.0910979
0.0911681
0.0911697
0.0911736
0.0911807
0.0911923
0.0912093
0.0912324
0.0912618
0.0912966
0.091335
0.0913745
0.0914129
0.0914503
0.0914889
0.0915322
0.09158
0.0916181
0.0916269
0.0916062
0.0915632
0.0915051
0.0914385
0.0913694
0.0913038
0.091246
0.0911988
0.0911626
0.0911366
0.0911192
0.0911084
0.0911026
0.0911002
0.0911732
0.0911749
0.0911789
0.0911865
0.0911988
0.0912169
0.0912417
0.0912733
0.0913107
0.0913519
0.0913937
0.0914335
0.0914713
0.0915104
0.091555
0.0916052
0.0916454
0.0916537
0.0916303
0.0915838
0.0915227
0.0914537
0.0913826
0.091315
0.0912553
0.0912063
0.0911686
0.0911415
0.0911234
0.0911122
0.0911061
0.0911037
0.0911811
0.0911828
0.091187
0.0911951
0.0912082
0.0912279
0.0912551
0.0912899
0.0913314
0.091377
0.0914226
0.0914649
0.0915039
0.091544
0.0915908
0.0916447
0.0916873
0.091694
0.0916653
0.0916125
0.0915458
0.0914726
0.0913984
0.0913282
0.0912663
0.0912153
0.0911761
0.0911479
0.091129
0.0911175
0.0911112
0.0911087
0.0911926
0.0911943
0.0911988
0.0912074
0.0912217
0.0912434
0.0912738
0.0913131
0.0913604
0.0914123
0.0914637
0.09151
0.0915515
0.0915939
0.0916442
0.091703
0.0917482
0.0917512
0.0917138
0.0916506
0.0915748
0.0914948
0.0914159
0.0913423
0.0912779
0.0912251
0.0911845
0.0911555
0.0911362
0.0911245
0.0911182
0.0911157
0.0912091
0.0912108
0.0912156
0.0912249
0.0912407
0.0912649
0.0912994
0.0913448
0.0913996
0.09146
0.0915192
0.0915719
0.0916181
0.0916647
0.0917205
0.0917853
0.0918326
0.091829
0.0917783
0.0916996
0.0916101
0.0915199
0.0914342
0.0913563
0.0912893
0.0912351
0.0911939
0.0911646
0.0911454
0.0911339
0.0911278
0.0911255
0.0912325
0.0912344
0.0912395
0.0912496
0.0912672
0.0912946
0.0913343
0.0913871
0.0914516
0.0915225
0.091592
0.0916535
0.0917072
0.0917612
0.091825
0.0918968
0.0919443
0.0919304
0.0918619
0.0917625
0.0916539
0.0915494
0.0914542
0.0913708
0.0913011
0.091246
0.0912051
0.0911766
0.0911584
0.0911477
0.0911424
0.0911404
0.0912655
0.0912675
0.091273
0.0912843
0.0913041
0.0913355
0.0913814
0.0914432
0.091519
0.0916026
0.0916846
0.0917579
0.0918228
0.091888
0.0919626
0.0920414
0.0920871
0.0920604
0.091971
0.091847
0.0917142
0.0915903
0.0914819
0.0913911
0.0913182
0.0912627
0.091223
0.0911966
0.0911805
0.0911717
0.0911677
0.0911664
0.0913112
0.0913134
0.0913196
0.0913323
0.0913549
0.0913912
0.0914446
0.0915168
0.0916056
0.0917036
0.0918003
0.0918883
0.0919682
0.0920485
0.0921362
0.0922223
0.0922661
0.0922293
0.0921227
0.0919752
0.0918156
0.0916665
0.091539
0.0914362
0.0913575
0.0913007
0.0912624
0.091239
0.0912262
0.0912205
0.0912188
0.0912187
0.0913726
0.0913751
0.0913822
0.091397
0.0914233
0.0914656
0.091528
0.0916122
0.0917153
0.0918291
0.0919424
0.0920475
0.0921456
0.0922439
0.0923464
0.0924414
0.0924898
0.0924565
0.0923491
0.092192
0.0920126
0.0918366
0.0916822
0.0915583
0.0914658
0.0914021
0.0913622
0.0913406
0.0913312
0.0913291
0.0913302
0.0913316
0.091451
0.0914539
0.0914623
0.0914797
0.0915108
0.0915607
0.0916336
0.091731
0.0918493
0.0919791
0.092109
0.0922322
0.0923497
0.0924674
0.0925865
0.0926963
0.0927648
0.0927618
0.0926871
0.0925549
0.0923851
0.0922008
0.0920237
0.0918703
0.0917497
0.0916638
0.0916098
0.0915812
0.0915697
0.0915681
0.0915704
0.0915728
0.0915428
0.0915462
0.0915559
0.0915761
0.0916119
0.091669
0.0917517
0.0918611
0.0919929
0.0921375
0.0922841
0.0924256
0.0925622
0.0926981
0.0928341
0.0929644
0.0930686
0.0931235
0.0931211
0.0930635
0.0929577
0.0928166
0.0926566
0.0924955
0.0923493
0.0922292
0.0921411
0.0920846
0.0920538
0.0920406
0.0920373
0.0920376
0.09164
0.0916437
0.0916542
0.0916761
0.0917151
0.0917769
0.091866
0.0919836
0.0921252
0.0922816
0.0924417
0.0925975
0.0927472
0.0928929
0.0930361
0.0931772
0.0933087
0.0934198
0.0935016
0.0935477
0.0935524
0.0935148
0.093439
0.0933342
0.0932129
0.0930905
0.0929808
0.0928936
0.0928329
0.0927967
0.0927791
0.0927733
0.0917322
0.0917359
0.0917464
0.0917683
0.0918071
0.0918687
0.091958
0.0920764
0.0922203
0.0923809
0.0925464
0.0927065
0.0928557
0.0929925
0.0931176
0.0932347
0.0933495
0.0934718
0.0936008
0.0937258
0.0938331
0.0939116
0.0939545
0.0939602
0.0939318
0.0938771
0.093808
0.0937376
0.0936776
0.0936343
0.0936089
0.0935985
0.0918034
0.0918069
0.0918167
0.0918367
0.091872
0.0919282
0.0920102
0.09212
0.0922555
0.0924087
0.0925677
0.0927196
0.0928542
0.0929653
0.0930504
0.0931134
0.0931707
0.0932556
0.0933807
0.0935355
0.0937005
0.0938568
0.09399
0.0940913
0.0941577
0.0941905
0.0941955
0.0941813
0.0941581
0.0941352
0.0941188
0.0941108
0.0918465
0.0918498
0.0918586
0.0918762
0.0919068
0.0919554
0.0920266
0.0921231
0.0922438
0.0923824
0.0925278
0.0926663
0.0927846
0.0928728
0.0929256
0.0929455
0.0929532
0.0929953
0.0930972
0.0932551
0.09345
0.0936568
0.093852
0.0940183
0.0941467
0.0942357
0.0942892
0.0943146
0.094321
0.0943176
0.0943117
0.0943078
0.0918678
0.0918708
0.0918788
0.0918942
0.0919204
0.0919617
0.0920222
0.0921048
0.0922092
0.092331
0.0924605
0.0925849
0.0926903
0.0927652
0.0928025
0.0928037
0.0927903
0.0928101
0.0928913
0.0930381
0.0932395
0.0934736
0.0937133
0.0939326
0.0941136
0.0942484
0.0943381
0.0943896
0.0944133
0.0944199
0.094419
0.0944168
0.0918755
0.0918783
0.0918854
0.0918988
0.0919213
0.0919563
0.0920073
0.0920769
0.0921657
0.0922704
0.0923834
0.0924935
0.0925882
0.0926562
0.0926904
0.092692
0.0926818
0.0927015
0.0927752
0.0929105
0.0931038
0.0933413
0.0935999
0.0938519
0.0940729
0.0942476
0.0943715
0.0944485
0.0944888
0.0945044
0.0945071
0.0945058
0.0918775
0.0918799
0.0918858
0.0918971
0.091916
0.0919453
0.0919879
0.0920462
0.0921208
0.0922093
0.0923061
0.0924025
0.0924881
0.0925537
0.0925934
0.0926094
0.0926198
0.0926559
0.0927352
0.0928658
0.0930485
0.0932765
0.0935338
0.0937971
0.0940409
0.0942445
0.0943969
0.0944976
0.0945544
0.0945795
0.0945861
0.0945857
0.0918841
0.0918854
0.0918893
0.0918972
0.0919116
0.0919349
0.0919696
0.0920177
0.0920797
0.0921542
0.092237
0.092322
0.0924021
0.0924704
0.0925234
0.0925642
0.0926062
0.0926678
0.0927597
0.09289
0.0930626
0.0932758
0.0935195
0.0937767
0.0940258
0.094245
0.0944182
0.0945393
0.094612
0.0946468
0.0946578
0.0946584
0.0919085
0.0919081
0.0919082
0.0919108
0.0919185
0.0919342
0.0919604
0.0919991
0.0920509
0.0921148
0.0921885
0.0922682
0.0923492
0.0924274
0.0925008
0.092573
0.0926504
0.0927389
0.0928439
0.0929737
0.0931345
0.0933288
0.093552
0.093792
0.0940323
0.0942539
0.0944388
0.0945755
0.0946624
0.0947071
0.0947229
0.0947247
0.0919662
0.0919629
0.0919574
0.0919522
0.0919509
0.0919571
0.0919745
0.0920053
0.0920507
0.0921103
0.0921827
0.0922655
0.0923557
0.0924504
0.0925482
0.0926518
0.0927609
0.0928709
0.0929844
0.0931102
0.0932563
0.0934281
0.0936253
0.093841
0.0940628
0.0942755
0.0944621
0.0946082
0.0947068
0.0947609
0.0947818
0.094785
0.0920709
0.0920638
0.0920513
0.0920371
0.0920261
0.0920235
0.0920341
0.0920613
0.0921065
0.0921696
0.0922492
0.0923429
0.0924478
0.0925609
0.0926807
0.0928086
0.092939
0.0930608
0.0931753
0.0932925
0.0934209
0.0935676
0.0937353
0.0939213
0.0941177
0.0943128
0.0944919
0.0946401
0.0947465
0.0948088
0.094835
0.0948399
0.0922328
0.0922212
0.0922019
0.0921807
0.092164
0.092158
0.0921682
0.0921988
0.092251
0.092324
0.0924153
0.0925219
0.0926402
0.0927668
0.0928996
0.0930393
0.0931771
0.0932994
0.0934076
0.0935117
0.0936206
0.0937413
0.0938782
0.0940316
0.0941975
0.0943681
0.0945318
0.0946745
0.0947833
0.0948515
0.0948827
0.0948895
0.0924575
0.0924417
0.0924186
0.0923972
0.0923842
0.092385
0.092404
0.0924449
0.092508
0.0925914
0.092692
0.0928059
0.0929292
0.0930586
0.0931917
0.0933288
0.0934605
0.0935734
0.0936691
0.0937572
0.0938457
0.0939412
0.0940482
0.0941688
0.0943018
0.0944431
0.0945845
0.0947145
0.0948196
0.0948902
0.0949252
0.094934
0.0927481
0.0927297
0.0927101
0.0926998
0.0927028
0.0927206
0.0927549
0.092808
0.0928792
0.0929666
0.0930673
0.0931776
0.093294
0.0934136
0.0935343
0.0936563
0.0937712
0.0938674
0.0939466
0.0940171
0.0940857
0.0941579
0.0942377
0.0943276
0.0944281
0.0945378
0.0946521
0.0947627
0.0948578
0.0949262
0.0949631
0.0949737
0.0931088
0.093092
0.0930868
0.0930992
0.0931259
0.0931634
0.0932113
0.0932706
0.0933409
0.0934216
0.0935108
0.0936058
0.093704
0.0938031
0.0939018
0.094
0.0940911
0.0941663
0.0942271
0.0942799
0.0943299
0.0943814
0.0944374
0.0945003
0.0945712
0.09465
0.0947349
0.0948212
0.0949001
0.094961
0.0949968
0.0950087
0.0935488
0.0935422
0.0935615
0.0935982
0.0936426
0.0936903
0.0937406
0.0937946
0.0938531
0.0939166
0.0939845
0.0940554
0.0941276
0.0941997
0.0942707
0.0943407
0.0944049
0.0944575
0.0944994
0.0945353
0.0945686
0.0946022
0.0946383
0.0946785
0.0947239
0.0947749
0.0948312
0.0948907
0.0949485
0.0949966
0.0950275
0.095039
0.0940864
0.0940991
0.0941367
0.0941788
0.0942204
0.09426
0.0942978
0.0943348
0.0943726
0.094412
0.0944532
0.0944957
0.0945386
0.0945812
0.0946228
0.0946636
0.0947008
0.0947311
0.0947551
0.0947755
0.0947941
0.0948126
0.0948322
0.094854
0.0948784
0.0949059
0.0949367
0.0949702
0.0950043
0.0950347
0.0950561
0.0950653
0.0947439
0.094754
0.0947734
0.0947919
0.0948088
0.0948242
0.0948381
0.0948512
0.0948641
0.0948772
0.0948908
0.0949047
0.0949187
0.0949325
0.094946
0.0949592
0.0949712
0.0949809
0.0949886
0.0949951
0.095001
0.0950068
0.0950129
0.0950196
0.0950272
0.0950357
0.0950452
0.0950556
0.0950665
0.0950766
0.0950844
0.0950882
)
;

boundaryField
{
    movingWall
    {
        type            fixedValue;
        value           uniform 0.0951;
    }
    fixedWalls
    {
        type            zeroGradient;
    }
    floor
    {
        type            zeroGradient;
    }
    frontAndBack
    {
        type            empty;
    }
}


// ************************************************************************* //
