/*--------------------------------*- C++ -*----------------------------------*\
| =========                 |                                                 |
| \\      /  F ield         | OpenFOAM: The Open Source CFD Toolbox           |
|  \\    /   O peration     | Version:  2212                                  |
|   \\  /    A nd           | Website:  www.openfoam.com                      |
|    \\/     M anipulation  |                                                 |
\*---------------------------------------------------------------------------*/
FoamFile
{
    version     2.0;
    format      ascii;
    arch        "LSB;label=64;scalar=64";
    class       volScalarField;
    location    "540";
    object      Gch4;
}
// * * * * * * * * * * * * * * * * * * * * * * * * * * * * * * * * * * * * * //

dimensions      [1 -3 0 0 0 0 0];

internalField   nonuniform List<scalar> 
1024
(
1.90948
1.90943
1.90928
1.90903
1.90865
1.90811
1.90744
1.90667
1.90583
1.90497
1.90412
1.90328
1.90252
1.90191
1.90165
1.90199
1.90306
1.90451
1.90602
1.90748
1.90882
1.91003
1.91111
1.91206
1.9129
1.91362
1.91421
1.91466
1.91498
1.91519
1.91531
1.91535
1.90947
1.90941
1.90927
1.90901
1.90861
1.90806
1.90738
1.9066
1.90576
1.9049
1.90404
1.90321
1.90243
1.90182
1.90155
1.90189
1.90297
1.90443
1.90595
1.90741
1.90875
1.90996
1.91104
1.912
1.91285
1.91358
1.91417
1.91464
1.91497
1.91518
1.9153
1.91535
1.90945
1.90939
1.90923
1.90896
1.90854
1.90797
1.90727
1.90647
1.90563
1.90477
1.90391
1.90306
1.90226
1.90161
1.90131
1.90165
1.90276
1.90424
1.90577
1.90725
1.90861
1.90983
1.91092
1.91189
1.91275
1.91349
1.9141
1.91458
1.91493
1.91515
1.91528
1.91533
1.90942
1.90935
1.90919
1.90889
1.90844
1.90785
1.90712
1.90632
1.90547
1.90461
1.90373
1.90285
1.90198
1.90125
1.90088
1.90121
1.90237
1.9039
1.90549
1.907
1.90839
1.90964
1.91075
1.91173
1.9126
1.91337
1.91401
1.91451
1.91488
1.91511
1.91525
1.9153
1.90938
1.90931
1.90913
1.90881
1.90834
1.90772
1.90698
1.90618
1.90533
1.90446
1.90355
1.90259
1.90161
1.90072
1.90022
1.90052
1.90176
1.9034
1.90507
1.90666
1.9081
1.90939
1.91054
1.91155
1.91244
1.91323
1.9139
1.91442
1.91481
1.91507
1.91521
1.91527
1.90935
1.90927
1.90908
1.90875
1.90827
1.90764
1.9069
1.9061
1.90525
1.90437
1.9034
1.90233
1.90115
1.90001
1.89929
1.89953
1.90089
1.90269
1.90451
1.90622
1.90776
1.90912
1.91032
1.91137
1.91229
1.9131
1.91379
1.91434
1.91475
1.91502
1.91517
1.91523
1.90933
1.90925
1.90907
1.90874
1.90826
1.90764
1.90692
1.90614
1.9053
1.9044
1.90336
1.90211
1.90065
1.89914
1.89809
1.89822
1.89972
1.90176
1.9038
1.90569
1.90738
1.90885
1.91013
1.91123
1.91219
1.91302
1.91372
1.91428
1.9147
1.91498
1.91513
1.91519
1.90936
1.90928
1.9091
1.90879
1.90834
1.90776
1.90708
1.90634
1.90554
1.90462
1.90348
1.90201
1.90017
1.89817
1.89668
1.89664
1.89827
1.9006
1.90294
1.90508
1.90698
1.90862
1.91
1.91117
1.91216
1.913
1.91371
1.91427
1.91468
1.91495
1.91511
1.91517
1.90945
1.90937
1.90921
1.90893
1.90853
1.90802
1.90742
1.90676
1.906
1.90507
1.90382
1.90207
1.89973
1.8971
1.89508
1.89482
1.8966
1.89927
1.90197
1.90444
1.9066
1.90844
1.90996
1.91121
1.91223
1.91308
1.91376
1.91431
1.9147
1.91497
1.91512
1.91518
1.90963
1.90957
1.90942
1.90919
1.90886
1.90844
1.90795
1.90738
1.90669
1.90574
1.90434
1.90222
1.89924
1.89585
1.89326
1.89283
1.89481
1.89788
1.90099
1.90384
1.90631
1.90838
1.91005
1.91138
1.91242
1.91325
1.91391
1.91441
1.91478
1.91502
1.91516
1.91522
1.90994
1.90988
1.90976
1.90957
1.90932
1.90901
1.90864
1.90817
1.90753
1.90652
1.90483
1.90211
1.89829
1.8941
1.89108
1.89071
1.89309
1.89665
1.90022
1.90345
1.90623
1.90851
1.91032
1.91171
1.91275
1.91353
1.91414
1.91459
1.91492
1.91514
1.91527
1.91533
1.91031
1.91028
1.91021
1.91009
1.90992
1.9097
1.9094
1.90897
1.90825
1.90693
1.90461
1.90095
1.89613
1.89129
1.88831
1.88856
1.89174
1.89595
1.9
1.90356
1.90657
1.909
1.91087
1.91224
1.91323
1.91394
1.91446
1.91485
1.91513
1.91533
1.91545
1.9155
1.90996
1.91002
1.91011
1.91018
1.91017
1.91003
1.90968
1.909
1.90774
1.90555
1.90205
1.89717
1.89156
1.88681
1.88488
1.88671
1.89128
1.89636
1.90085
1.90462
1.90769
1.91008
1.91185
1.91309
1.91394
1.91451
1.91492
1.91522
1.91545
1.91561
1.91572
1.91577
1.90538
1.90555
1.90584
1.90617
1.90636
1.90623
1.9056
1.90424
1.90194
1.89848
1.89385
1.88846
1.88348
1.88068
1.88156
1.8862
1.89271
1.89871
1.90347
1.90716
1.90998
1.91205
1.91347
1.91438
1.91494
1.91527
1.9155
1.91569
1.91585
1.91599
1.91609
1.91615
1.8908
1.89086
1.89097
1.89103
1.8909
1.89039
1.8893
1.88749
1.88488
1.88158
1.87799
1.87494
1.87369
1.87554
1.88097
1.88903
1.89731
1.90377
1.90829
1.91144
1.91358
1.91495
1.91575
1.91617
1.91636
1.91645
1.91651
1.91657
1.91665
1.91673
1.91681
1.91685
1.86855
1.86839
1.86806
1.86756
1.86693
1.86616
1.86526
1.86428
1.86339
1.8629
1.86335
1.86545
1.86991
1.877
1.88618
1.89611
1.90466
1.91051
1.91413
1.91632
1.91749
1.91791
1.91782
1.91747
1.9171
1.91686
1.9168
1.9169
1.91707
1.91723
1.91734
1.91738
1.8532
1.85302
1.85271
1.85233
1.85201
1.85189
1.85214
1.85294
1.85453
1.85717
1.86118
1.8668
1.87405
1.88261
1.89178
1.90067
1.90784
1.91248
1.91533
1.91724
1.91863
1.91968
1.92044
1.92092
1.92114
1.92109
1.92077
1.92016
1.91935
1.91848
1.91777
1.91738
1.84678
1.8467
1.84657
1.8465
1.84658
1.84696
1.84781
1.8493
1.85161
1.8549
1.85924
1.86457
1.87075
1.87747
1.88428
1.89051
1.89501
1.89728
1.89821
1.89864
1.89903
1.89952
1.89999
1.90023
1.90002
1.89916
1.89754
1.89526
1.89265
1.89019
1.88836
1.88744
1.84274
1.84266
1.84254
1.84242
1.84237
1.8425
1.84291
1.84377
1.84517
1.84719
1.84978
1.85284
1.85612
1.85928
1.86172
1.86249
1.8603
1.85475
1.8471
1.83871
1.83066
1.82365
1.81798
1.81377
1.81094
1.80933
1.8087
1.80877
1.8092
1.80965
1.80991
1.80998
1.83945
1.83935
1.83914
1.8388
1.83833
1.83777
1.83719
1.83669
1.83639
1.83635
1.83651
1.83672
1.83667
1.83585
1.83341
1.82794
1.81792
1.80348
1.78684
1.77009
1.75478
1.74183
1.73166
1.72426
1.7196
1.71759
1.71803
1.72046
1.72407
1.72782
1.73065
1.73203
1.83671
1.8366
1.83632
1.83579
1.83493
1.83371
1.83214
1.8303
1.82834
1.82634
1.82434
1.82221
1.81962
1.81599
1.81034
1.80104
1.78674
1.7685
1.74946
1.73191
1.71717
1.70554
1.69676
1.69025
1.6857
1.68293
1.68188
1.68244
1.68428
1.68677
1.68903
1.6903
1.83414
1.83404
1.83375
1.83313
1.83206
1.83041
1.82815
1.8253
1.82201
1.81845
1.81475
1.81091
1.80671
1.80163
1.79471
1.78436
1.76947
1.75166
1.73437
1.71965
1.7082
1.69962
1.69299
1.68756
1.68298
1.67921
1.67639
1.67468
1.67409
1.67439
1.67513
1.67571
1.8312
1.83115
1.83092
1.83033
1.82919
1.8273
1.82457
1.82098
1.81667
1.81187
1.80682
1.80168
1.7964
1.79065
1.78365
1.77399
1.76067
1.74521
1.73071
1.71876
1.70963
1.70255
1.69655
1.69096
1.68558
1.68059
1.67638
1.67327
1.67139
1.67059
1.67052
1.6707
1.82722
1.82728
1.8272
1.82674
1.82563
1.82361
1.8205
1.8163
1.81112
1.80526
1.79906
1.79283
1.78671
1.78057
1.77387
1.76551
1.75454
1.74198
1.73015
1.72023
1.71233
1.7058
1.69986
1.69396
1.68796
1.68207
1.67678
1.67258
1.66977
1.66829
1.66781
1.66783
1.8214
1.82162
1.8218
1.82156
1.82053
1.81836
1.81486
1.81001
1.80401
1.79722
1.79005
1.78293
1.77612
1.76966
1.76328
1.75615
1.74747
1.73766
1.72819
1.71985
1.7128
1.70662
1.70081
1.69494
1.68886
1.68269
1.67687
1.67195
1.6684
1.66635
1.66553
1.66544
1.81292
1.81339
1.81389
1.81387
1.81282
1.81036
1.80633
1.80078
1.79402
1.78648
1.77863
1.77093
1.7637
1.75709
1.75098
1.74484
1.73801
1.73052
1.72309
1.7162
1.71003
1.70441
1.69902
1.69356
1.68786
1.68198
1.67622
1.67107
1.66709
1.66459
1.66348
1.66328
1.80113
1.80188
1.80263
1.80264
1.80131
1.79832
1.79361
1.78741
1.78011
1.77221
1.76415
1.75635
1.74912
1.74265
1.73692
1.73159
1.7262
1.72055
1.71488
1.70939
1.70425
1.69944
1.69477
1.69003
1.68508
1.6799
1.67466
1.66976
1.66571
1.66296
1.66161
1.6613
1.78552
1.78649
1.78721
1.78681
1.78482
1.7811
1.7758
1.76926
1.76193
1.75425
1.74659
1.73928
1.73259
1.72666
1.72154
1.71701
1.71279
1.7086
1.70441
1.70024
1.69622
1.69238
1.68862
1.6848
1.68081
1.67659
1.67221
1.66791
1.66415
1.6614
1.65991
1.6595
1.76567
1.76663
1.76676
1.76542
1.76254
1.75825
1.75282
1.74661
1.73996
1.73319
1.72659
1.72037
1.71471
1.70975
1.70551
1.70188
1.6987
1.6957
1.69274
1.68976
1.68684
1.684
1.6812
1.67836
1.67541
1.67227
1.66893
1.66552
1.66235
1.65985
1.65837
1.65789
1.74106
1.7415
1.74041
1.73801
1.73464
1.73048
1.72575
1.72065
1.71542
1.71022
1.70522
1.70056
1.69635
1.69267
1.68955
1.68694
1.68473
1.68274
1.68081
1.67886
1.67692
1.67503
1.67316
1.67127
1.6693
1.66721
1.66496
1.66258
1.66024
1.65825
1.65695
1.65647
1.71076
1.71011
1.70804
1.70554
1.70276
1.69975
1.69656
1.69328
1.69
1.6868
1.68375
1.68093
1.67839
1.67617
1.67431
1.67276
1.67148
1.67037
1.6693
1.66822
1.66714
1.66609
1.66505
1.664
1.66291
1.66176
1.66052
1.65917
1.65778
1.65652
1.65561
1.65522
1.67363
1.67308
1.67201
1.67094
1.66987
1.66877
1.66766
1.66654
1.66543
1.66436
1.66335
1.66242
1.66158
1.66085
1.66024
1.65974
1.65933
1.65897
1.65863
1.65829
1.65795
1.65762
1.65729
1.65696
1.65662
1.65627
1.65588
1.65546
1.65501
1.65459
1.65426
1.6541
)
;

boundaryField
{
    movingWall
    {
        type            fixedValue;
        value           uniform 1.6535;
    }
    fixedWalls
    {
        type            zeroGradient;
    }
    floor
    {
        type            zeroGradient;
    }
    frontAndBack
    {
        type            empty;
    }
}


// ************************************************************************* //
