/*--------------------------------*- C++ -*----------------------------------*\
| =========                 |                                                 |
| \\      /  F ield         | OpenFOAM: The Open Source CFD Toolbox           |
|  \\    /   O peration     | Version:  2212                                  |
|   \\  /    A nd           | Website:  www.openfoam.com                      |
|    \\/     M anipulation  |                                                 |
\*---------------------------------------------------------------------------*/
FoamFile
{
    version     2.0;
    format      ascii;
    arch        "LSB;label=64;scalar=64";
    class       surfaceScalarField;
    location    "540";
    object      phi;
}
// * * * * * * * * * * * * * * * * * * * * * * * * * * * * * * * * * * * * * //

dimensions      [0 3 -1 0 0 0 0];

oriented        oriented;

internalField   nonuniform List<scalar> 
1984
(
-3.02888e-10
3.02801e-10
-1.53801e-08
1.50772e-08
-4.72325e-08
3.18525e-08
-8.84578e-08
4.12253e-08
-1.33886e-07
4.54286e-08
-1.83591e-07
4.97049e-08
-2.3972e-07
5.6129e-08
-3.0293e-07
6.32098e-08
-3.7076e-07
6.78295e-08
-4.3678e-07
6.60207e-08
-4.8858e-07
5.17999e-08
-5.05719e-07
1.71382e-08
-4.61069e-07
-4.46494e-08
-3.40537e-07
-1.20533e-07
-1.63696e-07
-1.76841e-07
4.52009e-09
-1.68216e-07
1.00117e-07
-9.55972e-08
1.46213e-07
-4.60963e-08
1.68478e-07
-2.22648e-08
1.81695e-07
-1.32166e-08
1.91828e-07
-1.01334e-08
1.99134e-07
-7.30557e-09
2.01356e-07
-2.2217e-09
1.96929e-07
4.42731e-09
1.84615e-07
1.23136e-08
1.63704e-07
2.09106e-08
1.34119e-07
2.95848e-08
9.71265e-08
3.69925e-08
5.70662e-08
4.00603e-08
2.24814e-08
3.45848e-08
3.02588e-09
1.94556e-08
3.02591e-09
-1.88488e-08
1.91517e-08
-8.48017e-08
8.10303e-08
-1.94375e-07
1.41425e-07
-3.31697e-07
1.78548e-07
-4.84115e-07
1.97846e-07
-6.48288e-07
2.13878e-07
-8.24891e-07
2.32732e-07
-1.01116e-06
2.49483e-07
-1.19665e-06
2.5331e-07
-1.3608e-06
2.30172e-07
-1.46972e-06
1.60724e-07
-1.4743e-06
2.17127e-08
-1.31496e-06
-2.03982e-07
-9.64004e-07
-4.71491e-07
-4.67039e-07
-6.73806e-07
2.29754e-08
-6.5823e-07
3.16421e-07
-3.89043e-07
4.60644e-07
-1.90319e-07
5.36882e-07
-9.85039e-08
5.82949e-07
-5.92832e-08
6.15781e-07
-4.29646e-08
6.37155e-07
-2.86798e-08
6.42246e-07
-7.31304e-09
6.26653e-07
2.00203e-08
5.8652e-07
5.24467e-08
5.19972e-07
8.74592e-08
4.27777e-07
1.2178e-07
3.15313e-07
1.49457e-07
1.9582e-07
1.59554e-07
9.08458e-08
1.39559e-07
2.24582e-08
8.78435e-08
2.54841e-08
-5.33745e-08
7.25263e-08
-1.9875e-07
2.26406e-07
-4.14806e-07
3.57482e-07
-6.73983e-07
4.37725e-07
-9.56371e-07
4.80235e-07
-1.25239e-06
5.09898e-07
-1.55609e-06
5.36435e-07
-1.85705e-06
5.5044e-07
-2.13507e-06
5.31326e-07
-2.35687e-06
4.5198e-07
-2.47273e-06
2.76578e-07
-2.41186e-06
-3.9156e-08
-2.10217e-06
-5.13666e-07
-1.52272e-06
-1.05095e-06
-7.36405e-07
-1.46012e-06
5.6211e-08
-1.45085e-06
5.55967e-07
-8.88799e-07
8.12442e-07
-4.46793e-07
9.57151e-07
-2.43213e-07
1.04691e-06
-1.49043e-07
1.10851e-06
-1.04564e-07
1.14658e-06
-6.67539e-08
1.15504e-06
-1.57661e-08
1.1264e-06
4.86528e-08
1.05422e-06
1.24635e-07
9.35774e-07
2.059e-07
7.73642e-07
2.83913e-07
5.78122e-07
3.44976e-07
3.70483e-07
3.67193e-07
1.82889e-07
3.27154e-07
5.07456e-08
2.19987e-07
7.62297e-08
-9.82568e-08
1.70783e-07
-3.44218e-07
4.72367e-07
-6.88876e-07
7.0214e-07
-1.08676e-06
8.35605e-07
-1.50775e-06
9.0123e-07
-1.93369e-06
9.35838e-07
-2.34962e-06
9.52367e-07
-2.73636e-06
9.37176e-07
-3.06535e-06
8.60321e-07
-3.29469e-06
6.81321e-07
-3.36494e-06
3.46825e-07
-3.19432e-06
-2.09779e-07
-2.71619e-06
-9.91793e-07
-1.93066e-06
-1.83648e-06
-9.14941e-07
-2.47583e-06
1.12607e-07
-2.47839e-06
7.96356e-07
-1.57255e-06
1.17026e-06
-8.20703e-07
1.39273e-06
-4.65681e-07
1.53499e-06
-2.91305e-07
1.63143e-06
-2.01e-07
1.69031e-06
-1.25638e-07
1.70489e-06
-3.03433e-08
1.66418e-06
8.93668e-08
1.55917e-06
2.29642e-07
1.38659e-06
3.7848e-07
1.1512e-06
5.193e-07
8.68114e-07
6.28066e-07
5.65665e-07
6.69643e-07
2.86493e-07
6.06327e-07
8.23258e-08
4.24154e-07
1.58556e-07
-1.4262e-07
3.13403e-07
-4.87988e-07
8.17735e-07
-9.59832e-07
1.17398e-06
-1.49196e-06
1.36773e-06
-2.04005e-06
1.44932e-06
-2.57509e-06
1.47088e-06
-3.07304e-06
1.45032e-06
-3.50747e-06
1.3716e-06
-3.84452e-06
1.19738e-06
-4.03795e-06
8.7475e-07
-4.02336e-06
3.32231e-07
-3.72284e-06
-5.10302e-07
-3.08361e-06
-1.63102e-06
-2.12692e-06
-2.79317e-06
-9.52123e-07
-3.65063e-06
2.12839e-07
-3.64336e-06
1.02713e-06
-2.38683e-06
1.50554e-06
-1.29911e-06
1.80233e-06
-7.62474e-07
1.99733e-06
-4.86309e-07
2.13e-06
-3.33666e-07
2.21215e-06
-2.07786e-07
2.23645e-06
-5.46471e-08
2.18746e-06
1.3836e-07
2.05293e-06
3.64173e-07
1.82866e-06
6.02749e-07
1.52146e-06
8.26495e-07
1.1513e-06
9.98226e-07
7.54276e-07
1.06667e-06
3.84872e-07
9.75731e-07
1.11645e-07
6.97381e-07
2.702e-07
-1.69296e-07
4.82699e-07
-5.81882e-07
1.23032e-06
-1.14898e-06
1.74108e-06
-1.78659e-06
2.00534e-06
-2.43281e-06
2.09554e-06
-3.04525e-06
2.08332e-06
-3.59109e-06
1.99616e-06
-4.03899e-06
1.81951e-06
-4.35355e-06
1.51194e-06
-4.48859e-06
1.00979e-06
-4.37737e-06
2.21011e-07
-3.95201e-06
-9.35666e-07
-3.16968e-06
-2.41335e-06
-2.07486e-06
-3.888e-06
-8.05128e-07
-4.92036e-06
4.00025e-07
-4.84851e-06
1.2732e-06
-3.26001e-06
1.81843e-06
-1.84434e-06
2.16525e-06
-1.10929e-06
2.3963e-06
-7.17356e-07
2.55401e-06
-4.91377e-07
2.65329e-06
-3.07066e-07
2.6866e-06
-8.79616e-08
2.63302e-06
1.91944e-07
2.47495e-06
5.22237e-07
2.20582e-06
8.71878e-07
1.83374e-06
1.19858e-06
1.38413e-06
1.44784e-06
9.02815e-07
1.54798e-06
4.57767e-07
1.42078e-06
1.31749e-07
1.0234e-06
4.01949e-07
-1.63477e-07
6.46176e-07
-5.836e-07
1.65044e-06
-1.18633e-06
2.34381e-06
-1.87985e-06
2.69886e-06
-2.58332e-06
2.79901e-06
-3.23779e-06
2.73778e-06
-3.80094e-06
2.55932e-06
-4.23835e-06
2.25692e-06
-4.51639e-06
1.78997e-06
-4.5936e-06
1.08701e-06
-4.39625e-06
2.36596e-08
-3.85979e-06
-1.47212e-06
-2.94615e-06
-3.32699e-06
-1.73886e-06
-5.09529e-06
-4.32892e-07
-6.22633e-06
7.39606e-07
-6.02101e-06
1.60212e-06
-4.12253e-06
2.15572e-06
-2.39795e-06
2.5062e-06
-1.45977e-06
2.7355e-06
-9.46655e-07
2.88819e-06
-6.44068e-07
2.98235e-06
-4.01225e-07
3.01165e-06
-1.17262e-07
2.95019e-06
2.53406e-07
2.77251e-06
6.99916e-07
2.46682e-06
1.17757e-06
2.04103e-06
1.62436e-06
1.52669e-06
1.96218e-06
9.81567e-07
2.0931e-06
4.87833e-07
1.91451e-06
1.36828e-07
1.3744e-06
5.38778e-07
-1.20532e-07
7.66707e-07
-4.72252e-07
2.00217e-06
-1.02869e-06
2.90025e-06
-1.71043e-06
3.38061e-06
-2.42115e-06
3.50973e-06
-3.08148e-06
3.39811e-06
-3.63609e-06
3.11393e-06
-4.04625e-06
2.66707e-06
-4.28034e-06
2.02406e-06
-4.29879e-06
1.10545e-06
-4.03475e-06
-2.40381e-07
-3.39172e-06
-2.11515e-06
-2.35149e-06
-4.36722e-06
-1.06274e-06
-6.38404e-06
2.1608e-07
-7.50515e-06
1.30378e-06
-7.10871e-06
2.1036e-06
-4.92235e-06
2.60129e-06
-2.89564e-06
2.89628e-06
-1.75476e-06
3.07022e-06
-1.12059e-06
3.1705e-06
-7.44353e-07
3.21931e-06
-4.50036e-07
3.21386e-06
-1.11812e-07
3.12665e-06
3.40618e-07
2.92412e-06
9.02445e-07
2.58605e-06
1.51565e-06
2.11796e-06
2.09244e-06
1.55766e-06
2.52249e-06
9.76202e-07
2.67456e-06
4.68444e-07
2.42227e-06
1.25485e-07
1.71736e-06
6.64263e-07
-4.80754e-08
8.14783e-07
-2.5136e-07
2.20545e-06
-6.58176e-07
3.30706e-06
-1.23667e-06
3.9591e-06
-1.89027e-06
4.16332e-06
-2.51773e-06
4.02558e-06
-3.04253e-06
3.63873e-06
-3.4136e-06
3.03814e-06
-3.59842e-06
2.20889e-06
-3.55965e-06
1.06668e-06
-3.20058e-06
-5.99454e-07
-2.41973e-06
-2.896e-06
-1.2713e-06
-5.51564e-06
2.5441e-08
-7.68078e-06
1.20442e-06
-8.68413e-06
2.16685e-06
-8.07114e-06
2.8586e-06
-5.6141e-06
3.24257e-06
-3.2796e-06
3.42408e-06
-1.93627e-06
3.486e-06
-1.18251e-06
3.47937e-06
-7.37723e-07
3.43169e-06
-4.02353e-07
3.34462e-06
-2.47423e-08
3.1974e-06
4.87833e-07
2.95081e-06
1.14904e-06
2.57501e-06
1.89144e-06
2.07119e-06
2.59627e-06
1.48296e-06
3.11072e-06
8.94137e-07
3.26338e-06
4.07248e-07
2.90916e-06
1.01781e-07
2.02283e-06
7.66044e-07
3.90121e-08
7.75771e-07
4.44751e-08
2.19999e-06
-9.38991e-08
3.44544e-06
-4.25714e-07
4.29092e-06
-9.09131e-07
4.64674e-06
-1.44231e-06
4.55876e-06
-1.914e-06
4.11041e-06
-2.23172e-06
3.35586e-06
-2.34755e-06
2.32472e-06
-2.21156e-06
9.30691e-07
-1.67316e-06
-1.13786e-06
-7.19783e-07
-3.84937e-06
4.45232e-07
-6.68066e-06
1.59069e-06
-8.82624e-06
2.59106e-06
-9.68451e-06
3.39968e-06
-8.87976e-06
3.91749e-06
-6.13191e-06
4.13448e-06
-3.49659e-06
4.15465e-06
-1.95644e-06
4.05808e-06
-1.08595e-06
3.89675e-06
-5.76392e-07
3.70026e-06
-2.05862e-07
3.48223e-06
1.93288e-07
3.23021e-06
7.39856e-07
2.90753e-06
1.47172e-06
2.47716e-06
2.32181e-06
1.93604e-06
3.13738e-06
1.33294e-06
3.71382e-06
7.61339e-07
3.83499e-06
3.22703e-07
3.3478e-06
7.31402e-08
2.27239e-06
8.39184e-07
1.23099e-07
6.52671e-07
3.61826e-07
1.96126e-06
5.80025e-07
3.22724e-06
6.57414e-07
4.21353e-06
5.45667e-07
4.75848e-06
2.89766e-07
4.81466e-06
-5.54216e-09
4.40572e-06
-2.12936e-07
3.56326e-06
-2.33286e-07
2.34507e-06
9.83231e-08
5.99081e-07
8.66225e-07
-1.90576e-06
1.83823e-06
-4.82138e-06
2.83275e-06
-7.67518e-06
3.74793e-06
-9.74142e-06
4.49509e-06
-1.04317e-05
5.02638e-06
-9.41105e-06
5.27762e-06
-6.38314e-06
5.27119e-06
-3.49016e-06
5.09367e-06
-1.77892e-06
4.81077e-06
-8.03044e-07
4.46384e-06
-2.29462e-07
4.08406e-06
1.73917e-07
3.69412e-06
5.83221e-07
3.2949e-06
1.13908e-06
2.85818e-06
1.90845e-06
2.34753e-06
2.83246e-06
1.7592e-06
3.72571e-06
1.14703e-06
4.32598e-06
6.09007e-07
4.37301e-06
2.34337e-07
3.72247e-06
4.62285e-08
2.4605e-06
8.85413e-07
1.88822e-07
4.63849e-07
6.4723e-07
1.50285e-06
1.24163e-06
2.63284e-06
1.82104e-06
3.63412e-06
2.27559e-06
4.30393e-06
2.57347e-06
4.51678e-06
2.75858e-06
4.22061e-06
2.91755e-06
3.40429e-06
3.20192e-06
2.0607e-06
3.71688e-06
8.41182e-08
4.5028e-06
-2.69167e-06
5.34738e-06
-5.66595e-06
6.06646e-06
-8.39426e-06
6.59342e-06
-1.02684e-05
6.89539e-06
-1.07336e-05
6.97164e-06
-9.48729e-06
6.83704e-06
-6.24855e-06
6.54645e-06
-3.19958e-06
6.14765e-06
-1.38012e-06
5.66804e-06
-3.23431e-07
5.12651e-06
3.12066e-07
4.55623e-06
7.44193e-07
3.98392e-06
1.15554e-06
3.41624e-06
1.70676e-06
2.83612e-06
2.48856e-06
2.21773e-06
3.45086e-06
1.5662e-06
4.37724e-06
9.4457e-07
4.94761e-06
4.50633e-07
4.86695e-06
1.49147e-07
4.02395e-06
2.28017e-08
2.58685e-06
9.08214e-07
2.1322e-07
2.5063e-07
8.07966e-07
9.08106e-07
1.7033e-06
1.7375e-06
2.75831e-06
2.57911e-06
3.83377e-06
3.22846e-06
4.83858e-06
3.51198e-06
5.74318e-06
3.31601e-06
6.57224e-06
2.57524e-06
7.41588e-06
1.21706e-06
8.36073e-06
-8.60741e-07
9.15465e-06
-3.48559e-06
9.71404e-06
-6.22534e-06
9.95275e-06
-8.63298e-06
9.85974e-06
-1.01754e-05
9.48832e-06
-1.03622e-05
8.91905e-06
-8.91802e-06
8.28434e-06
-5.61384e-06
7.66437e-06
-2.57961e-06
7.03512e-06
-7.5087e-07
6.35788e-06
3.53807e-07
5.65074e-06
1.0192e-06
4.93723e-06
1.4577e-06
4.22362e-06
1.86915e-06
3.50718e-06
2.4232e-06
2.77702e-06
3.21873e-06
2.02848e-06
4.1994e-06
1.29714e-06
5.10858e-06
6.71908e-07
5.57284e-06
2.49102e-07
5.28976e-06
4.89465e-08
4.22411e-06
-3.22132e-09
2.63902e-06
9.04993e-07
1.68488e-07
8.2141e-08
7.15051e-07
3.61543e-07
1.6686e-06
7.83958e-07
2.97282e-06
1.27489e-06
4.51781e-06
1.68348e-06
6.19441e-06
1.83538e-06
7.9256e-06
1.58482e-06
9.66309e-06
8.37752e-07
1.13371e-05
-4.57005e-07
1.27307e-05
-2.25431e-06
1.35724e-05
-4.32729e-06
1.37989e-05
-6.45186e-06
1.3433e-05
-8.26705e-06
1.25744e-05
-9.31672e-06
1.13905e-05
-9.17835e-06
1.00759e-05
-7.60339e-06
8.90899e-06
-4.44698e-06
7.97662e-06
-1.64724e-06
7.13293e-06
9.28206e-08
6.32186e-06
1.16488e-06
5.56799e-06
1.77307e-06
4.83287e-06
2.19282e-06
4.07462e-06
2.6274e-06
3.26173e-06
3.23609e-06
2.38396e-06
4.0965e-06
1.46852e-06
5.11484e-06
6.613e-07
5.9158e-06
1.23606e-07
6.11054e-06
-1.10025e-07
5.52339e-06
-1.21587e-07
4.23567e-06
-4.82759e-08
2.5657e-06
8.56717e-07
9.06532e-08
-8.51199e-09
4.82872e-07
-3.06756e-08
1.31964e-06
-5.28143e-08
2.67762e-06
-8.30873e-08
4.52509e-06
-1.63997e-07
6.73076e-06
-3.7029e-07
9.10277e-06
-7.8719e-07
1.14242e-05
-1.48369e-06
1.3422e-05
-2.45478e-06
1.47958e-05
-3.62809e-06
1.54179e-05
-4.94946e-06
1.52439e-05
-6.27779e-06
1.43259e-05
-7.34907e-06
1.27977e-05
-7.78854e-06
1.09114e-05
-7.29207e-06
8.97639e-06
-5.66835e-06
7.42572e-06
-2.89631e-06
6.25415e-06
-4.75667e-07
5.31919e-06
1.02778e-06
4.64266e-06
1.84141e-06
4.07279e-06
2.34294e-06
3.43541e-06
2.8302e-06
2.61386e-06
3.44895e-06
1.60783e-06
4.24212e-06
5.48057e-07
5.15627e-06
-3.54831e-07
6.01772e-06
-8.97974e-07
6.45894e-06
-1.00857e-06
6.22113e-06
-7.90259e-07
5.30507e-06
-4.37959e-07
3.88337e-06
-1.3239e-07
2.26014e-06
7.24328e-07
1.15494e-07
-1.24006e-07
5.28552e-07
-4.43734e-07
1.33084e-06
-8.551e-07
2.57311e-06
-1.32536e-06
4.22288e-06
-1.81376e-06
6.14501e-06
-2.29243e-06
8.12111e-06
-2.76329e-06
9.89257e-06
-3.25515e-06
1.12394e-05
-3.80166e-06
1.20269e-05
-4.41554e-06
1.21481e-05
-5.07066e-06
1.1548e-05
-5.67768e-06
1.0244e-05
-6.04513e-06
8.28891e-06
-5.83341e-06
6.00226e-06
-5.00543e-06
3.78141e-06
-3.44749e-06
1.9423e-06
-1.0572e-06
6.25044e-07
8.41591e-07
-1.80936e-07
1.83376e-06
-7.52597e-07
2.41307e-06
-1.32706e-06
2.9174e-06
-2.00815e-06
3.51129e-06
-2.78538e-06
4.22618e-06
-3.53487e-06
4.99161e-06
-4.04582e-06
5.66722e-06
-4.09892e-06
6.07083e-06
-3.65048e-06
6.01049e-06
-2.82676e-06
5.39742e-06
-1.83152e-06
4.30983e-06
-9.045e-07
2.95635e-06
-2.5067e-07
1.60631e-06
4.73657e-07
1.33163e-07
-2.57169e-07
4.86331e-07
-7.96902e-07
1.0189e-06
-1.38767e-06
1.67021e-06
-1.97667e-06
2.36289e-06
-2.50645e-06
3.01592e-06
-2.94545e-06
3.55247e-06
-3.29984e-06
3.89759e-06
-3.60027e-06
3.97316e-06
-3.87723e-06
3.6966e-06
-4.13898e-06
2.98318e-06
-4.35723e-06
1.76327e-06
-4.45777e-06
2.3099e-08
-4.30497e-06
-2.04775e-06
-3.76255e-06
-4.23978e-06
-2.81341e-06
-6.45786e-06
-1.2294e-06
-8.33637e-06
8.21306e-07
-9.57556e-06
2.08078e-06
-1.03942e-05
2.65245e-06
-1.09396e-05
2.95845e-06
-1.12368e-05
3.21457e-06
-1.12606e-05
3.53511e-06
-1.096e-05
3.92553e-06
-1.02804e-05
4.31208e-06
-9.19312e-06
4.5799e-06
-7.72213e-06
4.59985e-06
-5.98306e-06
4.27141e-06
-4.16507e-06
3.57944e-06
-2.48262e-06
2.62738e-06
-1.14186e-06
1.61559e-06
-2.9455e-07
7.58994e-07
1.79107e-07
2.55941e-08
-2.82764e-07
5.51551e-08
-8.26462e-07
3.10904e-08
-1.3636e-06
-1.08032e-07
-1.83754e-06
-4.1068e-07
-2.2038e-06
-8.99595e-07
-2.45654e-06
-1.57522e-06
-2.62421e-06
-2.43175e-06
-2.74374e-06
-3.47096e-06
-2.83801e-06
-4.70356e-06
-2.90638e-06
-6.13771e-06
-2.92309e-06
-7.76168e-06
-2.83379e-06
-9.51758e-06
-2.54906e-06
-1.13353e-05
-1.94487e-06
-1.32717e-05
-8.76995e-07
-1.52302e-05
7.29112e-07
-1.68301e-05
2.42126e-06
-1.79896e-05
3.24019e-06
-1.87399e-05
3.4028e-06
-1.89788e-05
3.19735e-06
-1.86324e-05
2.8682e-06
-1.76601e-05
2.56276e-06
-1.6061e-05
2.32645e-06
-1.38875e-05
2.13854e-06
-1.12985e-05
1.99094e-06
-8.52589e-06
1.82722e-06
-5.84908e-06
1.5946e-06
-3.54271e-06
1.27307e-06
-1.80403e-06
8.88695e-07
-6.95488e-07
5.0705e-07
-1.43918e-07
2.07425e-07
3.51892e-08
-1.02722e-07
-1.80042e-07
-4.11224e-07
-5.1796e-07
-9.43199e-07
-8.3163e-07
-1.70624e-06
-1.07451e-06
-2.68531e-06
-1.22473e-06
-3.84185e-06
-1.3e-06
-5.13059e-06
-1.33547e-06
-6.51707e-06
-1.35726e-06
-7.98134e-06
-1.37374e-06
-9.5116e-06
-1.37612e-06
-1.10999e-05
-1.33484e-06
-1.27374e-05
-1.19624e-06
-1.44059e-05
-8.80579e-07
-1.60743e-05
-2.76431e-07
-1.76887e-05
7.37422e-07
-1.92408e-05
2.28114e-06
-2.06651e-05
3.84554e-06
-2.17895e-05
4.36468e-06
-2.24401e-05
4.05335e-06
-2.2447e-05
3.20428e-06
-2.16908e-05
2.11199e-06
-2.01266e-05
9.98548e-07
-1.77805e-05
-1.96676e-08
-1.48712e-05
-7.70688e-07
-1.15924e-05
-1.28791e-06
-8.24356e-06
-1.52161e-06
-5.17338e-06
-1.47558e-06
-2.71149e-06
-1.18881e-06
-1.07051e-06
-7.52293e-07
-2.46785e-07
-3.16669e-07
2.76378e-09
-4.21243e-08
3.7953e-08
-1.75282e-07
-4.75948e-09
-6.81104e-07
-1.21378e-08
-1.50099e-06
-1.17452e-08
-2.5725e-06
-2.9956e-09
-3.81148e-06
1.42548e-08
-5.13417e-06
2.26841e-08
-6.48486e-06
1.52191e-08
-7.83705e-06
-5.07608e-09
-9.18326e-06
-2.75235e-08
-1.05193e-05
-4.01059e-08
-1.18431e-05
-1.10484e-08
-1.31443e-05
1.04977e-07
-1.44091e-05
3.84256e-07
-1.56275e-05
9.41957e-07
-1.6818e-05
1.9279e-06
-1.80547e-05
3.51782e-06
-1.92208e-05
5.01166e-06
-2.01038e-05
5.24769e-06
-2.0581e-05
4.53052e-06
-2.05152e-05
3.13849e-06
-1.98084e-05
1.40522e-06
-1.84132e-05
-3.96632e-07
-1.65498e-05
-1.88311e-06
-1.42565e-05
-3.06399e-06
-1.16651e-05
-3.87933e-06
-8.92505e-06
-4.26162e-06
-6.23378e-06
-4.16685e-06
-3.82115e-06
-3.60144e-06
-1.91531e-06
-2.65813e-06
-6.8178e-07
-1.5502e-06
-1.18357e-07
-6.05548e-07
-8.04036e-08
-1.30524e-07
1.25764e-07
-5.20404e-07
3.77743e-07
-1.16031e-06
6.28158e-07
-2.00241e-06
8.39105e-07
-2.97297e-06
9.84818e-07
-4.01411e-06
1.06382e-06
-5.08941e-06
1.09052e-06
-6.17725e-06
1.08277e-06
-7.2626e-06
1.05783e-06
-8.33716e-06
1.03445e-06
-9.38927e-06
1.04107e-06
-1.04084e-05
1.12409e-06
-1.13833e-05
1.35916e-06
-1.23022e-05
1.86085e-06
-1.31607e-05
2.78639e-06
-1.39618e-05
4.31897e-06
-1.46002e-05
5.65002e-06
-1.49923e-05
5.63979e-06
-1.5122e-05
4.66021e-06
-1.49382e-05
2.95474e-06
-1.44177e-05
8.84696e-07
-1.36991e-05
-1.11521e-06
-1.27656e-05
-2.81663e-06
-1.15987e-05
-4.23087e-06
-1.01784e-05
-5.29961e-06
-8.50677e-06
-5.93328e-06
-6.62905e-06
-6.04457e-06
-4.65369e-06
-5.5768e-06
-2.76119e-06
-4.55063e-06
-1.21409e-06
-3.0973e-06
-2.7626e-07
-1.54338e-06
-3.56663e-07
-8.54208e-08
2.11185e-07
-3.28587e-07
6.20909e-07
-7.2536e-07
1.02493e-06
-1.26086e-06
1.37461e-06
-1.91016e-06
1.63411e-06
-2.64148e-06
1.79514e-06
-3.42303e-06
1.87208e-06
-4.22809e-06
1.88783e-06
-5.03574e-06
1.86547e-06
-5.82997e-06
1.82869e-06
-6.59729e-06
1.80839e-06
-7.32381e-06
1.85061e-06
-7.99156e-06
2.02691e-06
-8.57581e-06
2.44509e-06
-9.04726e-06
3.25784e-06
-9.36822e-06
4.63994e-06
-9.46416e-06
5.74595e-06
-9.36789e-06
5.54352e-06
-9.15718e-06
4.4495e-06
-8.88309e-06
2.68065e-06
-8.58436e-06
5.85961e-07
-8.34622e-06
-1.35335e-06
-8.13395e-06
-3.0289e-06
-7.86328e-06
-4.50155e-06
-7.43175e-06
-5.73114e-06
-6.73954e-06
-6.62549e-06
-5.72085e-06
-7.06326e-06
-4.39448e-06
-6.90316e-06
-2.87309e-06
-6.07203e-06
-1.4061e-06
-4.56429e-06
-3.57839e-07
-2.59164e-06
-7.14502e-07
-4.47796e-08
2.55965e-07
-1.86875e-07
7.63004e-07
-4.34667e-07
1.27272e-06
-7.82635e-07
1.72258e-06
-1.21349e-06
2.06497e-06
-1.70258e-06
2.28422e-06
-2.22398e-06
2.39348e-06
-2.7555e-06
2.41935e-06
-3.28076e-06
2.39073e-06
-3.78811e-06
2.33604e-06
-4.26723e-06
2.28751e-06
-4.70433e-06
2.28771e-06
-5.07771e-06
2.40029e-06
-5.3533e-06
2.72068e-06
-5.48331e-06
3.38785e-06
-5.40213e-06
4.55876e-06
-5.06221e-06
5.40602e-06
-4.57511e-06
5.05643e-06
-4.07147e-06
3.94586e-06
-3.67328e-06
2.28246e-06
-3.48006e-06
3.92737e-07
-3.52971e-06
-1.3037e-06
-3.75269e-06
-2.80591e-06
-4.05631e-06
-4.19793e-06
-4.32758e-06
-5.45987e-06
-4.42641e-06
-6.52666e-06
-4.19808e-06
-7.29159e-06
-3.58335e-06
-7.51789e-06
-2.59757e-06
-7.05781e-06
-1.41682e-06
-5.74504e-06
-4.06047e-07
-3.60241e-06
-1.12055e-06
-2.59731e-08
2.81938e-07
-1.1386e-07
8.50892e-07
-2.71925e-07
1.43079e-06
-4.95424e-07
1.94607e-06
-7.68753e-07
2.3383e-06
-1.07053e-06
2.586e-06
-1.37953e-06
2.70247e-06
-1.67956e-06
2.71938e-06
-1.96174e-06
2.67291e-06
-2.22255e-06
2.59685e-06
-2.45782e-06
2.52278e-06
-2.65609e-06
2.48598e-06
-2.79487e-06
2.53907e-06
-2.83412e-06
2.75993e-06
-2.71387e-06
3.2676e-06
-2.35014e-06
4.19503e-06
-1.71752e-06
4.77341e-06
-9.91817e-07
4.33072e-06
-3.3908e-07
3.29312e-06
1.37455e-07
1.80592e-06
2.9009e-07
2.40102e-07
1.11123e-07
-1.12473e-06
-2.88627e-07
-2.40616e-06
-8.4285e-07
-3.64371e-06
-1.47924e-06
-4.82348e-06
-2.09316e-06
-5.91275e-06
-2.48141e-06
-6.90333e-06
-2.52102e-06
-7.47829e-06
-2.10571e-06
-7.47312e-06
-1.30771e-06
-6.54304e-06
-4.31322e-07
-4.4788e-06
-1.55187e-06
-2.55204e-08
3.07458e-07
-1.01294e-07
9.26666e-07
-2.19769e-07
1.54926e-06
-3.65029e-07
2.09133e-06
-5.20071e-07
2.49334e-06
-6.69389e-07
2.73532e-06
-8.0025e-07
2.83333e-06
-9.05079e-07
2.82421e-06
-9.84259e-07
2.75209e-06
-1.04237e-06
2.65496e-06
-1.08059e-06
2.56101e-06
-1.08962e-06
2.49501e-06
-1.04875e-06
2.4982e-06
-9.16317e-07
2.6275e-06
-6.2692e-07
2.9782e-06
-6.41698e-08
3.63228e-06
7.46207e-07
3.96303e-06
1.58214e-06
3.49479e-06
2.27378e-06
2.60149e-06
2.68182e-06
1.39788e-06
2.74488e-06
1.77037e-07
2.54703e-06
-9.26877e-07
2.13543e-06
-1.99456e-06
1.54625e-06
-3.05453e-06
8.17406e-07
-4.09464e-06
2.62449e-09
-5.09797e-06
-8.04329e-07
-6.09638e-06
-1.3763e-06
-6.90631e-06
-1.50278e-06
-7.34664e-06
-1.1255e-06
-6.92033e-06
-4.44817e-07
-5.15948e-06
-1.99669e-06
-4.38639e-08
3.51322e-07
-1.44273e-07
1.02707e-06
-2.60177e-07
1.66517e-06
-3.56078e-07
2.18724e-06
-4.14477e-07
2.55174e-06
-4.3049e-07
2.75133e-06
-4.03952e-07
2.8068e-06
-3.3878e-07
2.75904e-06
-2.45714e-07
2.65902e-06
-1.34808e-07
2.54405e-06
-8.00681e-09
2.4342e-06
1.42095e-07
2.34491e-06
3.34556e-07
2.30574e-06
6.08749e-07
2.35331e-06
1.02826e-06
2.55868e-06
1.68698e-06
2.97357e-06
2.54493e-06
3.10508e-06
3.36916e-06
2.67056e-06
4.0094e-06
1.96125e-06
4.35866e-06
1.04862e-06
4.40856e-06
1.27141e-07
4.22229e-06
-7.40608e-07
3.82962e-06
-1.60188e-06
3.25155e-06
-2.47647e-06
2.51761e-06
-3.3607e-06
1.66626e-06
-4.24661e-06
7.03821e-07
-5.13394e-06
-2.06664e-07
-5.99583e-06
-8.28552e-07
-6.72475e-06
-8.86694e-07
-6.86219e-06
-4.47801e-07
-5.59837e-06
-2.44449e-06
-8.837e-08
4.39692e-07
-2.45292e-07
1.184e-06
-3.75402e-07
1.79528e-06
-4.26252e-07
2.23809e-06
-3.88643e-07
2.51413e-06
-2.73764e-07
2.63645e-06
-9.48274e-08
2.62786e-06
1.2826e-07
2.53595e-06
3.7503e-07
2.41225e-06
6.34899e-07
2.28419e-06
9.07763e-07
2.16134e-06
1.19954e-06
2.05313e-06
1.52736e-06
1.97792e-06
1.92058e-06
1.96009e-06
2.43048e-06
2.04879e-06
3.12863e-06
2.27542e-06
3.95195e-06
2.28176e-06
4.70629e-06
1.91622e-06
5.27891e-06
1.38863e-06
5.59487e-06
7.32658e-07
5.66053e-06
6.14809e-08
5.51104e-06
-5.91122e-07
5.15632e-06
-1.24716e-06
4.60357e-06
-1.92372e-06
3.86771e-06
-2.62484e-06
2.97472e-06
-3.35361e-06
1.95975e-06
-4.11898e-06
8.94812e-07
-4.93089e-06
-6.32534e-08
-5.76669e-06
-5.76967e-07
-6.34847e-06
-4.28925e-07
-5.74641e-06
-2.87341e-06
-1.70459e-07
6.1015e-07
-4.01632e-07
1.41517e-06
-5.29264e-07
1.92291e-06
-5.06648e-07
2.21547e-06
-3.4835e-07
2.35583e-06
-8.1976e-08
2.37008e-06
2.56717e-07
2.28917e-06
6.29133e-07
2.16353e-06
1.01686e-06
2.02453e-06
1.4152e-06
1.88584e-06
1.82346e-06
1.75308e-06
2.24482e-06
1.63178e-06
2.68961e-06
1.53313e-06
3.17644e-06
1.47326e-06
3.74134e-06
1.48388e-06
4.43378e-06
1.58298e-06
5.18258e-06
1.53296e-06
5.841e-06
1.2578e-06
6.33698e-06
8.92649e-07
6.62122e-06
4.48419e-07
6.69536e-06
-1.26581e-08
6.57222e-06
-4.67979e-07
6.2508e-06
-9.25739e-07
5.73003e-06
-1.40296e-06
5.01302e-06
-1.90783e-06
4.11228e-06
-2.45287e-06
3.05509e-06
-3.06179e-06
1.89498e-06
-3.77078e-06
7.36668e-07
-4.60837e-06
-1.58457e-07
-5.45335e-06
-3.64286e-07
-5.54058e-06
-3.2377e-06
-2.9061e-07
9.00761e-07
-5.74355e-07
1.69891e-06
-6.24724e-07
1.97328e-06
-4.55599e-07
2.04634e-06
-1.18185e-07
2.01842e-06
3.2968e-07
1.92222e-06
8.28503e-07
1.79034e-06
1.34552e-06
1.64652e-06
1.86868e-06
1.50137e-06
2.39272e-06
1.3618e-06
2.91466e-06
1.23114e-06
3.43369e-06
1.11275e-06
3.95371e-06
1.01311e-06
4.48516e-06
9.41814e-07
5.05243e-06
9.16612e-07
5.68893e-06
9.46472e-07
6.32896e-06
8.92929e-07
6.87056e-06
7.16204e-07
7.27319e-06
4.90016e-07
7.50616e-06
2.15449e-07
7.56098e-06
-6.74754e-08
7.43765e-06
-3.44651e-07
7.13703e-06
-6.25123e-07
6.6541e-06
-9.20026e-07
5.98382e-06
-1.23756e-06
5.12445e-06
-1.5935e-06
4.08255e-06
-2.01989e-06
2.88405e-06
-2.57228e-06
1.59874e-06
-3.32306e-06
4.1172e-07
-4.26633e-06
-2.14582e-07
-4.91428e-06
-3.45228e-06
-4.25072e-07
1.32583e-06
-6.12681e-07
1.88652e-06
-4.04675e-07
1.76527e-06
4.38796e-08
1.59779e-06
6.2028e-07
1.44202e-06
1.24868e-06
1.29381e-06
1.89311e-06
1.14592e-06
2.532e-06
1.00762e-06
3.15331e-06
8.80064e-07
3.75033e-06
7.64782e-07
4.3187e-06
6.62771e-07
4.85645e-06
5.74989e-07
5.36592e-06
5.03637e-07
5.85547e-06
4.52269e-07
6.34437e-06
4.27707e-07
6.85798e-06
4.32862e-07
7.34754e-06
4.03375e-07
7.74739e-06
3.16346e-07
8.0348e-06
2.02611e-07
8.18668e-06
6.35705e-08
8.19549e-06
-7.62909e-08
8.06104e-06
-2.10195e-07
7.78323e-06
-3.47317e-07
7.35652e-06
-4.93318e-07
6.77234e-06
-6.53376e-07
6.01881e-06
-8.39964e-07
5.08048e-06
-1.08156e-06
3.94237e-06
-1.43417e-06
2.61038e-06
-1.99107e-06
1.19539e-06
-2.85134e-06
1.18038e-07
-3.83693e-06
-3.33424e-06
-3.7596e-07
1.70179e-06
4.19755e-08
1.46859e-06
7.96417e-07
1.01083e-06
1.57603e-06
8.18173e-07
2.34413e-06
6.73922e-07
3.08883e-06
5.49109e-07
3.78951e-06
4.45244e-07
4.43643e-06
3.60697e-07
5.02504e-06
2.9145e-07
5.55445e-06
2.35376e-07
6.0264e-06
1.90818e-07
6.44514e-06
1.56256e-07
6.81806e-06
1.30711e-07
7.15652e-06
1.13809e-07
7.47801e-06
1.06221e-07
7.80279e-06
1.08082e-07
8.10421e-06
1.01954e-07
8.34275e-06
7.78093e-08
8.50232e-06
4.30418e-08
8.56548e-06
4.08098e-10
8.52991e-06
-4.07267e-08
8.39853e-06
-7.88095e-08
8.1701e-06
-1.18885e-07
7.8394e-06
-1.62623e-07
7.39785e-06
-2.11819e-07
6.83011e-06
-2.72225e-07
6.10752e-06
-3.5898e-07
5.17959e-06
-5.06242e-07
3.97e-06
-7.81477e-07
2.41632e-06
-1.29766e-06
7.44762e-07
-2.16537e-06
-2.58948e-06
1.70179e-06
3.17038e-06
4.18121e-06
4.99938e-06
5.67331e-06
6.22241e-06
6.66766e-06
7.02836e-06
7.31981e-06
7.55518e-06
7.746e-06
7.90226e-06
8.03297e-06
8.14678e-06
8.253e-06
8.36108e-06
8.46303e-06
8.54084e-06
8.58388e-06
8.58429e-06
8.54357e-06
8.46476e-06
8.34587e-06
8.18325e-06
7.97143e-06
7.6992e-06
7.34022e-06
6.83398e-06
6.05251e-06
4.75485e-06
2.58948e-06
)
;

boundaryField
{
    movingWall
    {
        type            calculated;
        value           uniform 0;
    }
    fixedWalls
    {
        type            calculated;
        value           uniform 0;
    }
    floor
    {
        type            calculated;
        value           uniform 0;
    }
    frontAndBack
    {
        type            empty;
        value           nonuniform List<scalar> 0();
    }
}


// ************************************************************************* //
