/*--------------------------------*- C++ -*----------------------------------*\
| =========                 |                                                 |
| \\      /  F ield         | OpenFOAM: The Open Source CFD Toolbox           |
|  \\    /   O peration     | Version:  2212                                  |
|   \\  /    A nd           | Website:  www.openfoam.com                      |
|    \\/     M anipulation  |                                                 |
\*---------------------------------------------------------------------------*/
FoamFile
{
    version     2.0;
    format      ascii;
    arch        "LSB;label=64;scalar=64";
    class       volScalarField;
    location    "5000";
    object      nut;
}
// * * * * * * * * * * * * * * * * * * * * * * * * * * * * * * * * * * * * * //

dimensions      [0 2 -1 0 0 0 0];

internalField   nonuniform List<scalar> 
125000
(
0.125565156364
0.126473746553
0.125565155436
0.378829600662
0.126686106017
0.126473744495
0.368895725806
0.12556515548
0.378829580697
0.657333814108
0.1266158559
0.126686104233
0.361256228502
0.126473744527
0.36889574785
0.637697484364
0.125565155437
0.378829579895
0.657333785929
0.963791782673
0.126421253678
0.12661585523
0.356980452214
0.126686103775
0.361256241322
0.620879500344
0.1264737445
0.368895747441
0.637697492569
0.94704296568
0.125565156368
0.378829580744
0.657333784154
0.963791758876
1.28985710117
0.126153069838
0.126421255836
0.354246723939
0.126615855239
0.356980475553
0.611548526114
0.126686104233
0.361256239815
0.620879506251
0.926327946742
0.126473746563
0.368895747847
0.637697490961
0.94704295606
1.28086017925
0.378829600663
0.657333786006
0.9637917563
1.28985710379
1.63804901731
0.125918351597
0.126153065275
0.352520509539
0.126421257228
0.354246715417
0.60447509476
0.126615855226
0.356980482546
0.611548549667
0.912394761724
0.126686105987
0.361256241292
0.620879505813
0.92632793717
1.26295948745
0.368895725722
0.63769749255
0.947042954814
1.28086014651
1.63525758079
0.657333814073
0.963791758947
1.28985710082
1.63804902937
2.01260547209
0.125733874367
0.125918349751
0.351946806694
0.126153063322
0.352520477404
0.599477059133
0.126421255817
0.354246708906
0.604475084892
0.901373772983
0.126615855889
0.356980475643
0.611548559656
0.912394764214
1.24797662606
0.361256228361
0.620879506129
0.926327939041
1.26295946467
1.6230723832
0.637697484173
0.947042956004
1.28086014738
1.63525754515
2.01201525539
0.963791782577
1.28985710376
1.63804902809
2.01260546854
2.41555359247
0.125591382297
0.125733872632
0.351911741714
0.125918349451
0.351946829918
0.596154355593
0.126153065334
0.352520461019
0.599477005931
0.892505728332
0.12642125373
0.354246715452
0.604475077693
0.901373750333
1.23508298173
0.356980452655
0.611548549767
0.912394770823
1.24797660722
1.61012227114
0.62087950017
0.926327937058
1.26295946593
1.62307235309
2.0055046768
0.947042965449
1.28086014649
1.63525754613
2.012015234
2.41547619734
1.28985710094
1.63804902932
2.01260546861
2.41555358426
2.84912413299
0.12547918382
0.125591386967
0.352064650414
0.125733872484
0.351911747327
0.594008692479
0.125918349726
0.351946843574
0.596154403579
0.885787851171
0.126153069821
0.352520477746
0.599476979964
0.892505670006
1.2236381113
0.354246723716
0.604475085013
0.901373741256
1.23508294648
1.59794327068
0.611548526657
0.912394764368
1.24797660979
1.61012224293
1.99587007635
0.926327946748
1.26295946469
1.62307235226
2.00550464666
2.41269923115
1.28086017919
1.63525754518
2.01201523427
2.41547617537
2.84906877226
1.63804901716
2.01260546853
2.41555358615
2.84912412368
3.31564485748
0.125391803173
0.125479181241
0.352304844306
0.125591390108
0.352064655482
0.59254221054
0.12573387265
0.351911750566
0.594008709249
0.880708870097
0.125918351526
0.351946829448
0.596154431139
0.885787916432
1.21424813021
0.352520509118
0.599477006428
0.892505646037
1.22363806152
1.58605186888
0.604475094638
0.901373750593
1.23508293704
1.59794323561
1.98604756976
0.912394762209
1.24797660739
1.61012224275
1.99587004962
2.40623600765
1.2629594876
1.62307235317
2.00550464419
2.41269920248
2.84797736403
1.6352575808
2.01201523407
2.41547617369
2.84906874533
3.31557068778
2.01260547209
2.41555358425
2.8491241266
3.31564484919
3.81761876693
0.12531966995
0.125391794484
0.352597954055
0.125479180348
0.35230480759
0.591698569328
0.125591386828
0.352064658453
0.592542173433
0.876761584949
0.125733874363
0.351911747291
0.594008717676
0.880708868
1.20657187973
0.351946806471
0.596154402511
0.885787955967
1.21424818881
1.57551628552
0.599477058304
0.892505670314
1.2236380472
1.58605183076
1.97565848022
0.901373772906
1.23508294677
1.59794322996
1.9860475461
2.39909500504
1.2479766263
1.61012224301
1.99587004895
2.40623598409
2.8443594761
1.62307238327
2.0055046467
2.41269919933
2.84797733787
3.31502068571
2.0120152554
2.4154761755
2.84906874205
3.31557065669
3.81755748593
2.41555359262
2.84912412369
3.31564485236
3.81761876027
4.35774846072
0.125259503153
0.125319675931
0.352864220471
0.125391790881
0.352597971855
0.591060523038
0.125479181337
0.352304789846
0.591698553755
0.873752289002
0.125591382245
0.352064655425
0.592542154884
0.876761528816
1.20023303411
0.351911742127
0.594008709356
0.880708868554
1.20657184303
1.56636307431
0.596154355239
0.885787914951
1.21424822867
1.5755163185
1.96550812612
0.892505727139
1.2236380615
1.58605182567
1.97565844828
2.39129826311
1.23508298174
1.59794323582
1.98604754755
2.39909498714
2.83930579261
1.61012227109
1.99587004955
2.40623598421
2.84435945578
3.31332538524
2.00550467671
2.41269920244
2.84797733498
3.31502065943
3.81716175028
2.41547619728
2.84906874548
3.31557065266
3.81755745381
4.35770937959
2.84912413326
3.31564484922
3.81761876311
4.35774845552
4.93894056781
0.125207680844
0.125259506904
0.353128130744
0.125319679907
0.352864269295
0.590681066553
0.125391794671
0.35259798374
0.591060512091
0.871371784029
0.125479184071
0.352304808409
0.591698547691
0.873752300525
1.19497318629
0.352064650685
0.592542174138
0.876761503536
1.20023298956
1.55845391465
0.594008693823
0.88070886879
1.2065718298
1.56636301087
1.95621280341
0.885787851088
1.2142481874
1.57551634812
1.96550812821
2.38257025881
1.22363811006
1.58605183055
1.97565844719
2.3912982375
2.83387531774
1.59794327083
1.98604754604
2.39909499111
2.83930577715
3.30985454765
1.99587007611
2.40623598392
2.84435945846
3.31332536599
3.81633127149
2.4126992309
2.84797733774
3.31502065683
3.81716172238
4.35738856614
2.84906877214
3.31557065683
3.8175574499
4.35770934923
4.93891853803
3.3156448578
3.8176187603
4.35774845776
4.93894056375
5.56431893716
0.125162125691
0.125207669924
0.353366232556
0.125259509225
0.353128059992
0.590521446695
0.125319675602
0.352864293485
0.590681142025
0.869491571636
0.125391803064
0.352597970897
0.591060509719
0.871371808284
1.19056436259
0.352304844407
0.591698553863
0.873752310645
1.19497322929
1.55154420942
0.592542210536
0.876761529485
1.2002329751
1.55845389902
1.94782339511
0.880708872151
1.20657184449
1.56636298846
1.95621273153
2.37429658192
1.21424813054
1.57551631749
1.96550814363
2.38257023724
2.82724346199
1.58605186787
1.97565844818
2.39129823939
2.83387529495
3.30616669667
1.98604756983
2.39909498705
2.83930578209
3.30985453196
3.8142938969
2.40623600737
2.84435945562
3.31332536951
3.81633125353
4.3568601423
2.84797736367
3.31502065924
3.81716171974
4.35738853729
4.93866035332
3.31557068762
3.81755745393
4.35770934596
4.93891851114
5.56430838636
3.81761876724
4.35774845554
4.93894056531
5.56431893399
6.23724325593
0.125121212116
0.125162119706
0.353580543306
0.125207664938
0.353366205262
0.59044344331
0.125259506813
0.35312802343
0.590521355494
0.868060697112
0.125319669598
0.352864267878
0.590681179663
0.869491589338
1.1868198187
0.35259795207
0.591060512006
0.871371824308
1.19056435252
1.54549589874
0.591698568804
0.873752299802
1.19497325782
1.5515442623
1.94013337336
0.876761584096
1.20023298944
1.55845390394
1.94782340749
2.36633367478
1.2065718818
1.56636301263
1.95621270846
2.37429651808
2.8205807937
1.57551628609
1.96550812768
2.38257024126
2.82724342654
3.30164551954
1.97565847971
2.39129823747
2.83387529712
3.30616667374
3.81166954468
2.39909500521
2.83930577712
3.309854537
3.81429387628
4.35574508255
2.84435947605
3.31332536587
3.81633125744
4.356860123
4.93824502896
3.3150206853
3.8171617222
4.35738853454
4.93866032487
5.56410379572
3.81755748578
4.35770934934
4.93891850864
5.56430836378
6.23724175589
4.35774846096
4.93894056375
5.56431893493
6.23724325349
6.96132861764
0.125084654485
0.125121226478
0.353775920686
0.125162117628
0.353580611907
0.590448032737
0.125207670421
0.353366194375
0.590443397847
0.86686933418
0.125259503416
0.353128063317
0.590521307871
0.868060637309
1.18368996487
0.352864221754
0.590681139936
0.869491598622
1.18681978493
1.54015396625
0.591060521627
0.871371807637
1.19056435226
1.54549582189
1.93317656042
0.873752288021
1.19497322775
1.55154429777
1.94013340327
2.35868200813
1.20023303232
1.55845389788
1.9478234294
2.36633370155
2.81370492132
1.56636307596
1.95621273322
2.37429650134
2.82058073958
3.29661986898
1.96550812669
2.38257023699
2.82724342367
3.30164547932
3.80863389357
2.39129826295
2.83387529506
3.30616667561
3.81166951949
4.35394209064
2.83930579291
3.30985453198
3.81429387933
4.3557450607
4.93754212726
3.31332538534
3.81633125346
4.35686012604
4.93824500811
5.5637510844
3.81716174989
4.35738853715
4.93866032205
5.56410376898
6.23707953316
4.3577093795
4.93891851123
5.56430836198
6.23724173799
6.96133550301
4.93894056797
5.56431893397
6.23724325393
6.96132861582
7.74046526317
0.125051415166
0.125084647672
0.353959395425
0.125121234357
0.353775939065
0.590516714039
0.125162119754
0.353580647775
0.590448129218
0.865976070804
0.12520768141
0.353366205226
0.590443378049
0.866869255386
1.18101207226
0.353128133947
0.590521359694
0.868060606448
1.18368994974
1.53548480584
0.590681067893
0.869491588943
1.186819771
1.54015391694
1.92688225926
0.871371783747
1.19056435362
1.54549579002
1.93317642325
2.35168962103
1.19497318562
1.55154426061
1.9401334283
2.35868201242
2.80679335512
1.55845391231
1.94782340565
2.36633373209
2.81370494959
3.29123165619
1.95621280459
2.37429651949
2.82058072871
3.29661982237
3.80513657833
2.38257025914
2.82724342636
3.30164547361
3.8086338575
4.35184932167
2.83387531792
3.30616667386
3.81166952022
4.35394205975
4.9364460601
3.30985454802
3.81429387635
4.35574506272
4.93754210461
5.56323023309
3.81633127169
4.35686012296
4.93824500982
5.56375106306
6.2367759405
4.35738856579
4.93866032479
5.56410376618
6.23707950925
6.96120572132
4.938918538
5.56430836385
6.23724173668
6.96133548991
7.74048008797
5.56431893723
6.23724325345
6.9613286159
7.74046526186
8.57883927001
0.125021149511
0.125051404599
0.354124687763
0.125084644651
0.353959283448
0.590634692425
0.125121225577
0.353775947042
0.590516755883
0.86530336976
0.125162125065
0.353580608239
0.590448179313
0.865976164629
1.17872996158
0.353366229385
0.590443398238
0.866869217474
1.18101201393
1.53133657433
0.590521450508
0.868060640153
1.18368994558
1.53548484627
1.92122714864
0.86949157282
1.18681978531
1.5401538996
1.92688225123
2.34513650952
1.19056436478
1.54549582541
1.93317636396
2.35168944755
2.80036081927
1.55154420977
1.94013340231
2.35868202555
2.80679333124
3.28544782802
1.94782339287
2.36633369936
2.81370498119
3.29123167676
3.80126816708
2.37429658276
2.82058074069
3.29661981526
3.80513653546
4.34944782917
2.82724346192
3.3016454792
3.80863385317
4.35184928638
4.93491005098
3.30616669692
3.81166951959
4.35394205761
4.93644602881
5.56250526649
3.81429389724
4.3557450608
4.93754210548
5.56323021023
6.23635076805
4.35686014249
4.93824500807
5.56375106351
6.23677592011
6.96094504794
4.93866035306
5.56410376896
6.23707950657
6.9612057011
7.74037559996
5.56430838639
6.23724173803
6.96133548889
7.74048007971
8.57886127249
6.23724325594
6.96132861578
7.74046526174
8.57883926913
9.48095485511
0.124993417827
0.12502115385
0.354277762057
0.125051400034
0.354124729022
0.590771726279
0.12508464834
0.353959227983
0.590634498397
0.864792850459
0.125121211459
0.353775939099
0.590516774243
0.865303408709
1.17684269645
0.353580539744
0.590448123735
0.865976214872
1.17872999576
1.52765574966
0.590443439787
0.866869257352
1.18101198775
1.53133650035
1.9160077831
0.868060701079
1.18368994928
1.53548487378
1.92122720073
2.33908111862
1.18681981796
1.54015391632
1.92688225964
2.34513652076
2.79416815776
1.54549590268
1.93317642833
2.35168937253
2.80036064
3.27992967322
1.94013337508
2.35868201221
2.80679333068
3.28544778413
3.79677674092
2.36633367285
2.81370494732
3.29123170409
3.80126817489
4.34683882001
2.82058079432
3.29661982322
3.80513652964
4.34944779441
4.93321995542
3.30164551933
3.80863385747
4.35184928207
4.93491001769
5.56148860857
3.81166954489
4.35394205982
4.9364460257
5.56250523785
6.23580187677
4.35574508283
4.9375421047
5.5632302098
6.23635074621
6.96058200335
4.93824502908
5.56375106301
6.2367759196
6.96094502988
7.74015253702
5.56410379555
6.23707950929
6.96120569863
7.74037558408
8.57877731759
6.23724175595
6.96133548992
7.74048007883
8.57886126904
9.48098302039
6.96132861762
7.74046526183
8.57883926892
9.48095485454
10.4516585358
0.124967846184
0.124993423504
0.354416751203
0.125021156728
0.354277837888
0.590933270006
0.125051404908
0.354124752147
0.590771837001
0.864392770535
0.12508465584
0.353959290061
0.590634401757
0.86479265215
1.1752092452
0.353775925372
0.590516755363
0.865303426148
1.17684271315
1.5243977197
0.590448026436
0.865976158945
1.17873001617
1.52765573527
1.91125770881
0.866869332702
1.18101201668
1.53133646754
1.91600768374
2.33338958497
1.18368996499
1.53548484313
1.92122723592
2.33908119418
2.7883027541
1.54015396213
1.92688224794
2.34513654239
2.79416819273
3.27450001807
1.93317656418
2.35168945326
2.80036056391
3.27992950972
3.79224826368
2.35868201061
2.80679333183
3.28544777377
3.79677668621
4.34362515344
2.81370491966
3.29123167465
3.80126819504
4.34683881621
4.93143382274
3.29661986946
3.805136536
4.3494477911
4.93321992412
5.56021890272
3.80863389342
4.35184928637
4.93491001365
5.56148857907
6.23510866875
4.35394209071
4.93644602885
5.56250523488
6.23580185173
6.96013058822
4.93754212748
5.5632302103
6.23635074469
6.96058198404
7.73983700295
5.56375108442
6.23677592005
6.96094502877
7.74015252242
8.57858689041
6.2370795331
6.96120570119
7.74037558184
8.57877730645
9.48091636861
6.96133550307
7.7404800797
8.5788612682
9.48098302163
10.4516917774
7.74046526313
8.57883926911
9.48095485433
10.4516585354
11.4961652074
0.124944392692
0.124967846082
0.354545287594
0.124993426838
0.354416694175
0.591106197841
0.125021153442
0.354277874947
0.590933370651
0.864116757183
0.125051414797
0.354124723691
0.590771894903
0.864392944789
1.17380245429
0.353959400139
0.590634509808
0.864792554057
1.1752091586
1.52152041281
0.590516721502
0.865303408269
1.17684272148
1.5243977436
1.90688315928
0.865976063539
1.17872999241
1.52765573343
1.91125766818
2.32808567332
1.18101207394
1.53133650512
1.91600764025
2.33338944992
2.78268106547
1.53548480488
1.92122719788
2.33908124325
2.78830282255
3.26924327979
1.92688225193
2.34513651593
2.79416822846
3.27450006385
3.78778410427
2.35168962399
2.80036064523
3.27992944237
3.7922481302
4.34007631184
2.80679335802
3.28544778523
3.79677667072
4.34362509871
4.92933622823
3.2912316548
3.80126817316
4.34683882985
4.9314338078
5.55889685111
3.80513657862
4.3494477945
4.93321992129
5.5602188745
6.23420170398
4.35184932153
4.93491001766
5.56148857547
6.23510864554
6.95959526085
4.93644606011
5.56250523786
6.23580184881
6.96013056736
7.73944958753
5.56323023324
6.23635074626
6.9605819818
7.7398369876
8.57831116396
6.23677594044
6.96094502983
7.740152521
8.57858688006
9.48075423226
6.96120572133
7.74037558418
8.57877730443
9.48091636239
10.4516400526
7.74048008801
8.57886126901
9.48098302084
10.4516917831
11.4962024819
8.57883926998
9.48095485454
10.4516585352
11.4961652071
12.6200862057
0.124922667281
0.124944369941
0.354665955142
0.124967846521
0.354545238377
0.591288526077
0.124993423045
0.354416665797
0.591106049026
0.863923210516
0.125021149011
0.354277835227
0.590933418981
0.864116804908
1.17265503463
0.35412467686
0.590771825837
0.864393034047
1.1738025946
1.51894509529
0.590634699604
0.864792663332
1.17520911682
1.52152036541
1.90293454753
0.865303377209
1.17684271259
1.52439775883
1.90688319644
2.3230504273
1.17872995645
1.52765573331
1.9112576562
2.32808562738
2.77735746926
1.53133657957
1.91600768965
2.33338938974
2.78268091617
3.26411037387
1.92122715033
2.33908119095
2.7883028687
3.26924332803
3.78336122041
2.34513650059
2.794168187
3.27450010565
3.78778414575
4.3365692311
2.80036082086
3.27992951388
3.79224807763
4.34007620824
4.92675854669
3.28544783085
3.79677668742
4.34362508302
4.92933618213
5.55751018722
3.801268166
4.34683881515
4.93143381413
5.55889682633
6.23317389436
4.34944782923
4.93321992412
5.56021887171
6.23420167808
6.95895723938
4.93491005085
5.56148857901
6.23510864353
6.95959524414
7.73900322125
5.56250526646
6.23580185174
6.96013056441
7.7394495714
8.57797185015
6.23635076813
6.96058198406
7.7398369851
8.57831115366
9.4805132699
6.96094504785
7.74015252239
8.57858687858
9.48075422662
10.4515026145
7.74037560003
8.57877730654
9.48091636059
10.4516400513
11.4961637626
8.57886127251
9.48098302159
10.4516917824
11.4962024917
12.6201265545
9.48095485509
10.4516585354
11.496165207
12.6200862055
13.8294594793
0.124902545961
0.124922680688
0.354776252399
0.124944359187
0.354665907297
0.591477755909
0.124967846449
0.354545214346
0.59128850431
0.863807432517
0.124993417428
0.354416698161
0.59110597307
0.863923014608
1.17167328252
0.354277765681
0.590933368826
0.86411682655
1.17265498952
1.51668618456
0.59077170757
0.864392930246
1.17380266688
1.51894519845
1.89930445131
0.864792856428
1.17520916343
1.52152034451
1.90293455224
2.31846194078
1.17684269967
1.52439774205
1.90688322163
2.32305047285
2.77220845468
1.5276557446
1.91125766669
2.3280856156
2.77735741387
3.25916938292
1.91600778935
2.3333894572
2.78268085034
3.26411023018
3.77896550783
2.33908112132
2.78830282014
3.26924336387
3.78336124728
4.33302945077
2.79416814887
3.27450005824
3.78778418467
4.33656925858
4.92401301578
3.27992967357
3.79224813319
4.34007616965
4.92675847779
5.55581654892
3.7967767431
4.34362509979
4.92933617018
5.55751015277
6.23213632037
4.34683881939
4.93143380722
5.55889682516
6.23317386846
6.95816998258
4.93321995544
5.5602188745
6.23420167387
6.95895721732
7.73850144527
5.56148860848
6.23510864545
6.95959524312
7.73900321055
8.57758468817
6.23580187674
6.96013056739
7.73944956838
8.57797183932
9.48021351868
6.96058200337
7.7398369876
8.57831115129
9.48051326526
10.4512925366
7.74015253693
8.57858688005
9.48075422523
10.4515026137
11.4960480864
8.57877731767
9.48091636245
10.4516400497
11.4961637659
12.6200991739
9.48098302038
10.451691783
11.4962024911
12.6201265678
13.8295020345
10.4516585357
11.4961652071
12.6200862054
13.8294594791
15.1307820369
0.124883812432
0.124902554348
0.354877440477
0.124922687836
0.354776388435
0.591665320849
0.124944371247
0.354665884098
0.591477834562
0.863749005971
0.124967847537
0.354545241616
0.591288495373
0.863807465399
1.17086597419
0.354416755424
0.59110605893
0.863922914053
1.17167311945
1.51467317658
0.590933279832
0.864116807998
1.1726549656
1.51668608384
1.89600426089
0.864392750882
1.17380258392
1.51894525264
1.89930446634
2.31411132819
1.17520925019
1.52152036731
1.90293455857
2.31846195927
2.76736795236
1.52439772077
1.90688319356
2.32305050414
2.77220851916
3.25432856245
1.91125770308
2.32808562597
2.7773573988
3.25916932587
3.77466398027
2.33338959246
2.78268092339
3.26411016828
3.77896538324
4.32945581644
2.788302758
3.26924332658
3.78336127175
4.33302946083
4.92129751848
3.27450001055
3.7877841411
4.33656928871
4.92401302015
5.55378658066
3.79224826343
4.34007621017
4.92675845522
5.55581650222
6.23102489906
4.343625155
4.92933618284
5.55751014604
6.23213629304
6.95734275583
4.9314338224
5.55889682628
6.23317386435
6.95816995867
7.73792695256
5.56021890277
6.23420167813
6.95895721293
7.738501429
8.57716107877
6.23510866869
6.95959524403
7.73900320996
8.57758468292
9.47987133239
6.96013058822
7.73944957145
8.57797183636
9.4802135137
10.4510271498
7.73983700293
8.57831115364
9.48051326333
10.4512925377
11.4958656781
8.57858689034
9.48075422662
10.4515026125
11.4960480904
12.6200027969
9.48091636869
10.4516400513
11.4961637646
12.6200991814
13.8294844899
10.4516917773
11.4962024916
12.6201265676
13.8295020507
15.1308260187
11.4961652074
12.6200862055
13.8294594791
15.1307820367
16.5310448529
0.124866312023
0.124883786785
0.354970573977
0.124902558834
0.354877312271
0.591853209465
0.124922679148
0.354776453435
0.591665422437
0.86373059319
0.124944393231
0.354665909201
0.591477871788
0.863749141403
1.17017842353
0.354545290291
0.591288502625
0.863807484699
1.17086604794
1.51292336483
0.591106206072
0.863923025586
1.17167303576
1.51467309724
1.89297276709
0.864116773752
1.17265499736
1.51668603357
1.89600414682
2.31005531131
1.17380244131
1.51894519258
1.89930447771
2.31411127182
2.76272126002
1.52152041291
1.90293455134
2.31846197385
2.76736797594
3.24967266494
1.90688315777
2.32305046941
2.77220856233
3.25432863382
3.77040498601
2.32808566749
2.77735741283
3.25916931034
3.77466392433
4.32590303121
2.78268107252
3.26411023642
3.77896533131
4.32945571768
4.91851136581
3.26924328401
3.78336124646
4.33302947592
4.92129751672
5.55169197264
3.78778409876
4.33656925525
4.92401303598
5.55378656906
6.22967238169
4.34007631132
4.92675847885
5.55581648884
6.23102486684
6.95650792531
4.92933622916
5.55751015299
6.23213628799
6.95734273347
7.7372567688
5.55889685108
6.23317386853
6.95816995238
7.73792693253
8.57669945674
6.23420170407
6.9589572174
7.73850142484
8.5771610694
9.47950006783
6.95959526081
7.73900321044
8.57758468234
9.47987133223
10.4507222076
7.73944958756
8.57797183938
9.48021351106
10.451027151
11.4956310475
8.57831116391
9.48051326524
10.4512925364
11.4958656848
12.6198453157
9.48075423223
10.4515026137
11.4960480895
12.6200028053
13.8294052602
10.4516400527
11.496163766
12.6200991804
13.8294845011
15.1308169309
11.4962024819
12.6201265678
13.8295020508
15.1308260371
16.5310895671
12.6200862057
13.8294594791
15.1307820367
16.5310448526
18.0377704235
0.124849874413
0.124866308992
0.355056269541
0.124883774759
0.354970504422
0.592037054208
0.124902554691
0.354877250669
0.59185295529
0.863754859526
0.124922665267
0.354776381776
0.591665469036
0.86373062867
1.16959991799
0.354665953978
0.591477827152
0.863749203431
1.1701785348
1.51132789
0.59128851848
0.86380745904
1.17086608673
1.5129234017
1.8902213966
0.863923215223
1.17167312641
1.5146730572
1.89297278335
2.30623401249
1.17265505169
1.51668609234
1.89600409174
2.31005522161
2.75833208856
1.51894509312
1.89930446687
2.31411124891
2.76272113943
3.24513880545
1.90293454661
2.31846195775
2.76736799334
3.24967267406
3.76623742314
2.32305042476
2.77220851402
3.25432868142
3.77040505133
4.32235220166
2.77735746354
3.2591693252
3.77466390868
4.32590297795
4.91569869389
3.2641103798
3.7789653881
4.32945567831
4.91851129414
5.54958449382
3.78336122405
4.33302946026
4.92129752469
5.55169196614
6.22809291399
4.33656922753
4.92401301819
5.55378657325
6.22967236334
6.95560537909
4.92675854629
5.55581650272
6.23102485899
6.95650790639
7.7365794525
5.5575101875
6.23213629306
6.95734272838
7.73725675541
8.57619175876
6.23317389438
6.95816995875
7.73792692599
8.57669944314
9.4791055982
6.9589572395
7.73850142907
8.57716106598
9.47950006572
10.4503909878
7.73900322122
8.57758468284
9.4798713315
10.4507222125
11.4953586314
8.57797185019
9.48021351376
10.451027149
11.4956310548
12.619638631
9.48051326984
10.4512925377
11.4958656841
12.6198453274
13.8292703052
10.4515026145
11.4960480904
12.6200028048
13.8294052724
15.1307529022
11.4961637627
12.6200991814
13.8294845004
15.1308169452
16.5310876617
12.6201265545
13.8295020507
15.1308260375
16.5310895869
18.0378152613
13.8294594793
15.1307820367
16.5310448526
18.0377704233
19.6590531793
0.124834600483
0.124849898782
0.355135834201
0.124866308063
0.355056477867
0.592216977872
0.124883788469
0.354970471125
0.592036985478
0.863805714555
0.124902548046
0.354877324107
0.59185283017
0.863754560802
1.16913357578
0.354776253178
0.591665421732
0.863730643878
1.16959989103
1.50992947128
0.591477745399
0.863749132325
1.17017858451
1.51132795504
1.88771232167
0.863807419928
1.17086603963
1.51292341906
1.89022142644
2.30268141461
1.17167328072
1.51467309894
1.89297279288
2.30623409128
2.75405766695
1.51668619612
1.89600415314
2.31005518084
2.75833203766
3.24078268347
1.89930445683
2.31411127674
2.76272108559
3.24513865978
3.76212977809
2.31846194181
2.76736797512
3.24967268445
3.76623741531
4.31883028213
2.77220844978
3.25432862799
3.77040509569
4.32235225156
4.91286298929
3.25916937779
3.7746639241
4.32590296214
4.91569864519
5.54742681843
3.77896551251
4.32945572111
4.91851126727
5.54958444709
6.22648610207
4.3330294533
4.9212975162
5.55169197057
6.22809290187
6.95454091765
4.92401301377
5.55378656826
6.2296723613
6.95560536108
7.73589733253
5.55581654868
6.23102486699
6.95650790275
7.73657944275
8.57562121069
6.23213632031
6.95734273344
7.73725675138
8.5761917527
9.47868749265
6.95816998254
7.73792693264
8.57669943701
9.47910559253
10.4500423821
7.73850144539
8.57716106944
9.47950006327
10.4503909927
11.495060937
8.57758468816
9.47987133219
10.4507222117
11.4953586414
12.6193955494
9.48021351872
10.4510271511
11.4956310536
12.619638644
13.8290891993
10.4512925365
11.4958656848
12.6198453273
13.829270321
15.1306383029
11.4960480865
12.6200028053
13.8294052723
15.1307529176
16.5310370381
12.6200991739
13.8294845011
15.130816945
16.5310876785
18.0378193605
13.8295020345
15.1308260371
16.5310895878
18.0378152818
19.6590976153
15.1307820369
16.5310448526
18.0377704233
19.6590531792
21.4036029699
0.124820267949
0.124834606093
0.355210688591
0.12484991099
0.355135837593
0.592393831512
0.124866307904
0.355056578192
0.592217324359
0.863882553809
0.12488381343
0.354970500094
0.592036952386
0.863805736215
1.16874384612
0.354877454186
0.591852976816
0.863754410637
1.16913335583
1.50871462727
0.591665335374
0.863730632676
1.16959987721
1.50992942357
1.88540797774
0.863748996812
1.17017852936
1.51132798735
1.88771226747
2.29940099995
1.17086596181
1.51292339636
1.89022144043
2.30268140142
2.7500682738
1.51467317215
1.89297277886
2.30623413328
2.75405776
3.23652189876
1.89600426482
2.3100552241
2.7583320183
3.24078266786
3.75811395269
2.31411133671
2.76272114698
3.24513859395
3.76212963534
4.31532732665
2.76736795645
3.2496726745
3.76623741722
4.31883026301
4.9100197921
3.25432855673
3.77040504568
4.32235228703
4.91286301943
5.54523391051
3.77466397614
4.32590297817
4.9156986296
5.5474267766
6.22486346672
4.32945581996
4.91851129626
5.54958443111
6.22648607551
6.95331119006
4.9212975198
5.55169196553
6.22809290115
6.9545409051
7.73515621396
5.55378657992
6.2296723632
6.95560535717
7.73589732178
8.57505812633
6.23102489897
6.9565079063
7.73657944084
8.57562120957
9.47824068369
6.95734275568
7.73725675529
8.57619175035
9.47868749315
10.4496796562
7.73792695251
8.57669944326
9.47910558761
10.4500423848
11.4947476938
8.57716107886
9.47950006572
10.4503909913
11.4950609483
12.6191274587
9.47987133238
10.4507222125
11.4953586409
12.6193955644
13.8288730534
10.4510271499
11.4956310548
12.6196386437
13.8290892171
15.1304806749
11.4958656781
12.6198453273
13.8292703217
15.1306383221
16.5309407755
12.620002797
13.8294052724
15.130752918
16.531037056
18.0377804695
13.8294844898
15.1308169452
16.5310876787
18.0378193789
19.6591066357
15.1308260187
16.5310895869
18.0378152831
19.6590976359
21.403646559
16.5310448529
18.0377704233
19.6590531792
21.4036029699
23.2807918549
0.124806678982
0.124820233229
0.355278405775
0.124834609356
0.355210524032
0.592566949499
0.124849896945
0.355135840015
0.592393676073
0.863979456998
0.12486630909
0.35505646298
0.592217490192
0.863882898475
1.16843421789
0.354970553217
0.592036974825
0.86380574753
1.16874393926
1.50762363951
0.591853230181
0.863754582558
1.16913324083
1.50871454398
1.88333250756
0.863730613517
1.16959989589
1.50992939885
1.8854079777
2.29630481247
1.17017842039
1.51132795213
1.88771223965
2.29940087661
2.74631340293
1.51292335499
1.8902214258
2.30268139462
2.75006819616
3.23240188901
1.89297275886
2.30623408367
2.7540578095
3.23652199365
3.75416724187
2.3100553081
2.75833203636
3.24078266727
3.75811396
4.3118514293
2.76272126859
3.24513866768
3.76212957086
4.31532720427
4.90717359803
3.24967267126
3.76623741667
4.31883025892
4.9100197691
5.54301636619
3.77040498048
4.32235224673
4.91286304314
5.5452339216
6.22320227717
4.3259030283
4.91569864578
5.54742676209
6.22486343396
6.95206975948
4.91851136829
5.54958444814
6.22648606743
6.95331117714
7.73432505218
5.55169197291
6.2280929013
6.95454090196
7.73515620105
8.57449350194
6.22967238162
6.95560536122
7.73589731887
8.57505812262
9.47775334864
6.95650792518
7.7365794426
8.57562120804
9.47824068941
10.4493042358
7.7372567686
8.57619175254
9.47868749165
10.4496796633
11.4944242304
8.57669945671
9.47910559264
10.4500423816
11.4947477044
12.6188441007
9.47950006787
10.4503909927
11.4950609479
12.6191274756
13.8286319373
10.4507222076
11.4953586414
12.6193955646
13.8288730731
15.1302894724
11.4956310475
12.619638644
13.8290892178
15.1304806964
16.5308046812
12.6198453157
13.829270321
15.1306383234
16.5309407972
18.0377006344
13.8294052602
15.1307529176
16.5310370568
18.037780489
19.6590779178
15.1308169308
16.5310876785
18.0378193796
19.6591066552
21.4036595131
16.5310895671
18.0378152818
19.6590976374
21.4036465791
23.2808342273
18.0377704235
19.6590531792
21.4036029699
23.2807918551
25.3007044529
0.12479388101
0.124806685176
0.355341029896
0.124820216606
0.355278387228
0.592728828559
0.124834607345
0.355210443032
0.592566854897
0.864092212017
0.124849873221
0.355135846416
0.592393599407
0.863979255688
1.1681868743
0.355056259917
0.592217304062
0.863883063093
1.16843441706
1.50667871312
0.592037018273