/*--------------------------------*- C++ -*----------------------------------*\
| =========                 |                                                 |
| \\      /  F ield         | OpenFOAM: The Open Source CFD Toolbox           |
|  \\    /   O peration     | Version:  2212                                  |
|   \\  /    A nd           | Website:  www.openfoam.com                      |
|    \\/     M anipulation  |                                                 |
\*---------------------------------------------------------------------------*/
FoamFile
{
    version     2.0;
    format      ascii;
    arch        "LSB;label=64;scalar=64";
    class       volScalarField::Internal;
    location    "980";
    object      dGch4;
}
// * * * * * * * * * * * * * * * * * * * * * * * * * * * * * * * * * * * * * //

dimensions      [1 -3 -1 0 0 0 0];

value           nonuniform List<scalar> 
1024
(
0.000906812
0.000907152
0.000907983
0.000909481
0.000911819
0.000915121
0.000919403
0.000924533
0.00093023
0.000936129
0.000941825
0.000946876
0.000950695
0.000952441
0.000951612
0.000948144
0.000942392
0.000935612
0.000928744
0.00092197
0.000915352
0.000908937
0.000902826
0.000897193
0.000892235
0.000888107
0.000884871
0.000882492
0.000880862
0.00087984
0.000879278
0.000879049
0.000906873
0.000907222
0.000908073
0.000909607
0.000911999
0.000915369
0.000919722
0.000924914
0.000930658
0.000936591
0.000942316
0.000947394
0.000951228
0.000952947
0.000952065
0.000948547
0.000942759
0.00093596
0.000929081
0.000922302
0.000915682
0.000909261
0.000903136
0.000897475
0.000892477
0.000888302
0.000885018
0.000882599
0.00088094
0.000879899
0.000879328
0.000879094
0.000907016
0.00090738
0.000908269
0.000909872
0.000912366
0.000915865
0.000920356
0.000925675
0.00093153
0.000937569
0.000943411
0.000948613
0.000952526
0.000954183
0.000953143
0.000949463
0.000943552
0.000936681
0.000929766
0.000922973
0.00091635
0.000909923
0.000903775
0.000898063
0.000892987
0.000888716
0.000885337
0.000882835
0.000881116
0.000880036
0.000879444
0.000879202
0.000907251
0.000907634
0.000908574
0.00091027
0.000912904
0.000916578
0.000921263
0.00092678
0.000932837
0.000939109
0.000945235
0.000950743
0.000954857
0.000956416
0.000955052
0.000951013
0.000944819
0.000937776
0.000930773
0.000923944
0.000917313
0.000910884
0.000904712
0.000898938
0.000893756
0.00088935
0.000885833
0.000883211
0.000881401
0.000880263
0.000879639
0.000879386
0.000907572
0.000907976
0.000908972
0.000910771
0.00091356
0.000917439
0.000922366
0.000928161
0.00093455
0.00094125
0.000947916
0.000953997
0.000958487
0.000959912
0.000958004
0.000953318
0.00094659
0.00093921
0.000932026
0.000925118
0.000918466
0.000912039
0.000905854
0.000900021
0.000894725
0.000890166
0.000886483
0.000883714
0.000881792
0.000880581
0.000879918
0.000879649
0.000907957
0.000908379
0.000909425
0.00091132
0.000914261
0.000918354
0.000923564
0.000929732
0.000936629
0.000944021
0.000951562
0.000958549
0.000963606
0.000964862
0.000962159
0.000956463
0.000948859
0.000940903
0.000933395
0.000926331
0.00091963
0.000913206
0.000907027
0.000901158
0.000895768
0.000891064
0.000887218
0.000884297
0.000882258
0.000880969
0.000880264
0.00087998
0.000908364
0.0009088
0.000909883
0.000911851
0.000914922
0.000919224
0.000924756
0.00093141
0.000939027
0.000947431
0.000956236
0.000964478
0.000970264
0.000971305
0.00096755
0.00096044
0.000951555
0.00094272
0.000934693
0.000927361
0.000920559
0.00091413
0.000907979
0.000902118
0.000896683
0.000891884
0.000887914
0.000884872
0.000882735
0.000881381
0.00088064
0.000880342
0.000908744
0.000909188
0.000910291
0.000912306
0.000915476
0.000919974
0.000925865
0.00093313
0.000941706
0.000951473
0.000961948
0.000971763
0.000978364
0.000979094
0.000974026
0.000965105
0.000954517
0.000944459
0.000935678
0.000927931
0.000920952
0.000914501
0.000908405
0.000902612
0.000897216
0.000892411
0.000888403
0.00088531
0.000883126
0.000881738
0.000880978
0.000880671
0.000909044
0.000909491
0.000910603
0.000912642
0.000915884
0.000920568
0.000926861
0.00093487
0.00094466
0.00095616
0.000968707
0.000980349
0.000987742
0.000987964
0.000981296
0.000970205
0.000957525
0.000945891
0.000936083
0.000927742
0.000920487
0.000913986
0.000907977
0.000902332
0.000897087
0.000892409
0.000888491
0.000885456
0.000883306
0.000881934
0.000881178
0.00088087
0.000909213
0.000909665
0.000910781
0.000912835
0.000916141
0.000921021
0.000927776
0.000936688
0.00094798
0.000961619
0.000976643
0.00099029
0.000998326
0.000997716
0.000989131
0.000975585
0.000960493
0.000946916
0.00093575
0.00092657
0.000918894
0.00091229
0.000906399
0.000900996
0.000896046
0.000891657
0.000887991
0.000885151
0.000883134
0.000881837
0.000881114
0.000880814
0.000909211
0.000909672
0.000910802
0.000912885
0.000916277
0.000921401
0.000928728
0.000938762
0.000951928
0.000968205
0.000986142
0.00100189
0.00101032
0.00100849
0.000997753
0.000981662
0.000963959
0.000948016
0.000934996
0.000924548
0.000916153
0.000909294
0.0009035
0.000898423
0.000893915
0.000889993
0.000886751
0.000884247
0.000882461
0.0008813
0.000880639
0.000880358
0.000909023
0.0009095
0.000910666
0.000912819
0.000916366
0.000921849
0.000929951
0.000941458
0.00095704
0.000976606
0.00099792
0.00101579
0.00102431
0.00102107
0.00100839
0.000990195
0.000969999
0.000951201
0.000935479
0.000922868
0.000913028
0.000905424
0.000899478
0.000894677
0.000890686
0.000887366
0.000884687
0.000882637
0.00088117
0.000880205
0.000879649
0.000879408
0.000908693
0.000909198
0.000910437
0.000912735
0.000916572
0.000922639
0.000931879
0.000945426
0.000964206
0.000987872
0.001013
0.00103294
0.00104148
0.00103731
0.00102395
0.00100521
0.000983551
0.000961801
0.000942244
0.000925766
0.000912736
0.000902942
0.000895813
0.000890666
0.000886898
0.000884089
0.000881999
0.000880499
0.000879497
0.0008789
0.000878601
0.000878494
0.000908445
0.000908993
0.000910357
0.000912925
0.000917286
0.000924327
0.000935312
0.000951761
0.000974755
0.00100336
0.0010326
0.00105463
0.00106379
0.00106063
0.00104966
0.00103388
0.00101382
0.000990939
0.000967701
0.00094587
0.000926895
0.000911633
0.000900202
0.000892154
0.000886844
0.000883573
0.000881796
0.000881088
0.000881097
0.000881489
0.000881955
0.000882256
0.000908886
0.000909482
0.000911021
0.000914015
0.000919236
0.000927852
0.000941495
0.000962007
0.00099034
0.0010245
0.00105792
0.00108238
0.00109408
0.0010958
0.00109243
0.00108564
0.00107397
0.0010568
0.0010356
0.00101226
0.000988735
0.00096678
0.000947666
0.00093224
0.000920912
0.000913457
0.00090952
0.000908388
0.000909089
0.000910584
0.000912021
0.000912857
0.000911825
0.000912475
0.000914271
0.000917948
0.000924581
0.000935688
0.000953205
0.000978939
0.00101307
0.00105216
0.00108888
0.00111635
0.00113343
0.00114442
0.0011536
0.00116198
0.00116759
0.00116806
0.00116276
0.00115252
0.00113837
0.00112151
0.00110325
0.00108489
0.0010676
0.00105232
0.00104001
0.00103123
0.00102591
0.00102335
0.00102256
0.00102254
0.000918922
0.000919558
0.000921456
0.000925545
0.000933124
0.000945884
0.000965705
0.000993952
0.00103015
0.0010707
0.00110943
0.00114102
0.0011647
0.00118395
0.00120237
0.00122149
0.00124057
0.00125782
0.00127196
0.0012827
0.00128953
0.00129207
0.00129012
0.00128382
0.00127372
0.00126092
0.0012468
0.00123307
0.00122141
0.00121297
0.00120803
0.00120604
0.00092801
0.000928501
0.000930126
0.000933855
0.00094102
0.000953273
0.000972301
0.000999142
0.00103314
0.00107133
0.00110897
0.00114168
0.00116784
0.001189
0.00120758
0.00122506
0.00124159
0.00125785
0.00127465
0.00129202
0.00130915
0.0013249
0.00133814
0.00134786
0.00135343
0.00135466
0.00135198
0.00134648
0.00133975
0.00133355
0.00132918
0.00132711
0.000937239
0.000937511
0.000938632
0.000941502
0.000947368
0.000957759
0.00097421
0.000997682
0.00102774
0.00106214
0.00109718
0.00112908
0.00115558
0.00117664
0.00119345
0.00120715
0.0012183
0.00122934
0.00124274
0.00125919
0.00127816
0.00129839
0.00131824
0.00133611
0.00135076
0.00136148
0.00136815
0.0013712
0.00137151
0.0013703
0.00136879
0.00136786
0.000946361
0.000946396
0.000946944
0.000948784
0.000953034
0.000961075
0.000974311
0.000993698
0.00101911
0.00104898
0.00108046
0.00111039
0.00113631
0.00115727
0.00117351
0.00118583
0.00119502
0.00120391
0.00121547
0.00123108
0.00125084
0.00127387
0.0012984
0.00132213
0.00134295
0.00135944
0.0013711
0.00137824
0.00138176
0.00138285
0.00138274
0.00138239
0.000955487
0.000955298
0.000955287
0.000956115
0.000958762
0.000964469
0.000974522
0.000989866
0.0010106
0.00103567
0.001063
0.00109009
0.00111479
0.00113576
0.00115272
0.0011661
0.00117664
0.00118656
0.00119837
0.00121372
0.00123324
0.00125675
0.00128308
0.00131011
0.00133538
0.00135671
0.00137279
0.00138344
0.00138938
0.0013919
0.00139245
0.00139232
0.000965053
0.000964628
0.000964054
0.000963895
0.000965035
0.000968602
0.000975779
0.00098747
0.0010039
0.00102441
0.00104755
0.00107155
0.00109477
0.00111597
0.00113459
0.00115074
0.00116467
0.00117753
0.0011911
0.001207
0.00122621
0.00124906
0.00127508
0.00130281
0.00133009
0.00135445
0.00137394
0.00138768
0.00139594
0.00139986
0.00140105
0.00140106
0.000976107
0.000975377
0.000974116
0.000972847
0.000972431
0.000973965
0.000978566
0.000987095
0.000999849
0.00101648
0.0010361
0.00105759
0.00107986
0.00110189
0.00112292
0.00114277
0.0011609
0.00117723
0.00119293
0.00120961
0.00122843
0.00125011
0.00127467
0.00130131
0.00132843
0.00135386
0.0013754
0.00139149
0.00140179
0.00140708
0.00140893
0.00140911
0.000990399
0.000989227
0.000987025
0.000984329
0.000982086
0.000981484
0.000983683
0.000989552
0.000999475
0.00101339
0.00103087
0.00105129
0.00107384
0.00109754
0.00112143
0.001145
0.00116695
0.00118615
0.00120342
0.00122043
0.00123845
0.00125843
0.0012808
0.00130526
0.00133072
0.00135553
0.00137764
0.00139516
0.00140707
0.00141363
0.00141615
0.00141652
0.00101
0.00100823
0.00100481
0.00100038
0.000996043
0.000993215
0.000993246
0.000997135
0.0010054
0.00101822
0.00103538
0.00105641
0.00108043
0.00110624
0.00113266
0.00115901
0.0011834
0.00120412
0.00122187
0.0012384
0.00125503
0.00127282
0.00129241
0.00131391
0.00133673
0.00135969
0.00138107
0.00139897
0.00141191
0.00141953
0.00142273
0.00142331
0.0010367
0.00103423
0.00102956
0.00102352
0.0010174
0.00101283
0.00101143
0.00101444
0.00102247
0.00103576
0.00105403
0.00107657
0.00110221
0.00112951
0.00115719
0.0011845
0.00120941
0.00123001
0.00124704
0.00126225
0.00127694
0.00129216
0.00130864
0.0013267
0.00134618
0.00136637
0.00138597
0.00140324
0.00141651
0.00142487
0.00142868
0.0014295
0.00107165
0.00106853
0.00106312
0.00105652
0.00105003
0.0010452
0.00104381
0.00104725
0.00105613
0.00107054
0.00108997
0.0011134
0.00113941
0.00116649
0.00119342
0.00121957
0.00124301
0.00126197
0.00127723
0.00129046
0.00130284
0.0013153
0.00132855
0.00134302
0.0013588
0.00137559
0.00139255
0.00140827
0.00142108
0.00142972
0.00143401
0.00143508
0.00111547
0.00111203
0.00110712
0.001102
0.00109746
0.00109448
0.00109466
0.00109932
0.00110904
0.0011238
0.00114295
0.00116533
0.00118953
0.00121418
0.00123826
0.00126128
0.00128161
0.00129779
0.00131055
0.00132137
0.00133125
0.00134096
0.0013511
0.00136209
0.00137414
0.00138723
0.00140095
0.00141432
0.00142588
0.00143425
0.00143876
0.00144006
0.00116874
0.00116573
0.00116324
0.00116185
0.00116121
0.00116149
0.00116384
0.00116941
0.00117883
0.00119219
0.00120889
0.00122794
0.00124815
0.00126843
0.00128798
0.00130644
0.00132258
0.00133526
0.00134514
0.00135337
0.00136074
0.00136783
0.00137512
0.00138294
0.00139153
0.00140098
0.00141118
0.0014216
0.00143118
0.00143863
0.00144301
0.00144446
0.0012328
0.0012315
0.00123313
0.00123617
0.00123928
0.00124229
0.00124593
0.0012512
0.00125884
0.00126907
0.00128154
0.00129557
0.0013103
0.00132497
0.00133901
0.00135216
0.00136357
0.00137247
0.00137933
0.00138498
0.00138997
0.00139469
0.00139947
0.00140455
0.00141009
0.00141624
0.00142301
0.0014302
0.00143722
0.00144308
0.00144687
0.00144829
0.00131037
0.00131207
0.00131691
0.00132177
0.00132592
0.00132937
0.00133257
0.00133624
0.00134102
0.00134717
0.00135458
0.00136288
0.00137157
0.0013802
0.00138843
0.00139611
0.00140273
0.00140789
0.00141183
0.00141505
0.00141787
0.0014205
0.00142314
0.00142591
0.00142892
0.00143225
0.00143596
0.00144
0.00144413
0.00144784
0.00145048
0.0014516
0.00140488
0.00140631
0.00140896
0.00141128
0.00141315
0.00141464
0.0014159
0.00141719
0.00141878
0.00142079
0.00142319
0.00142589
0.00142871
0.00143151
0.00143417
0.00143666
0.00143879
0.00144045
0.00144172
0.00144275
0.00144364
0.00144448
0.0014453
0.00144617
0.0014471
0.00144813
0.00144927
0.00145053
0.00145185
0.00145309
0.00145404
0.00145451
)
;


// ************************************************************************* //
