/*--------------------------------*- C++ -*----------------------------------*\
| =========                 |                                                 |
| \\      /  F ield         | OpenFOAM: The Open Source CFD Toolbox           |
|  \\    /   O peration     | Version:  2212                                  |
|   \\  /    A nd           | Website:  www.openfoam.com                      |
|    \\/     M anipulation  |                                                 |
\*---------------------------------------------------------------------------*/
FoamFile
{
    version     2.0;
    format      ascii;
    arch        "LSB;label=64;scalar=64";
    class       volScalarField;
    location    "980";
    object      Gh2;
}
// * * * * * * * * * * * * * * * * * * * * * * * * * * * * * * * * * * * * * //

dimensions      [1 -3 0 0 0 0 0];

internalField   nonuniform List<scalar> 
1024
(
1.28397e-05
1.28385e-05
1.28353e-05
1.28298e-05
1.2821e-05
1.28087e-05
1.27928e-05
1.27737e-05
1.27526e-05
1.27308e-05
1.27099e-05
1.26915e-05
1.26778e-05
1.26717e-05
1.26751e-05
1.26882e-05
1.27099e-05
1.27354e-05
1.27612e-05
1.27868e-05
1.2812e-05
1.28365e-05
1.28599e-05
1.28816e-05
1.29008e-05
1.29168e-05
1.29293e-05
1.29386e-05
1.29449e-05
1.29489e-05
1.29511e-05
1.2952e-05
1.28395e-05
1.28382e-05
1.2835e-05
1.28293e-05
1.28204e-05
1.28078e-05
1.27916e-05
1.27723e-05
1.2751e-05
1.27291e-05
1.27082e-05
1.26897e-05
1.26759e-05
1.26699e-05
1.26734e-05
1.26868e-05
1.27086e-05
1.27341e-05
1.276e-05
1.27856e-05
1.28107e-05
1.28352e-05
1.28587e-05
1.28805e-05
1.28999e-05
1.2916e-05
1.29288e-05
1.29382e-05
1.29446e-05
1.29487e-05
1.29509e-05
1.29518e-05
1.2839e-05
1.28376e-05
1.28343e-05
1.28283e-05
1.2819e-05
1.2806e-05
1.27892e-05
1.27695e-05
1.27478e-05
1.27256e-05
1.27042e-05
1.26853e-05
1.26712e-05
1.26655e-05
1.26696e-05
1.26835e-05
1.27058e-05
1.27316e-05
1.27575e-05
1.27832e-05
1.28083e-05
1.28328e-05
1.28563e-05
1.28783e-05
1.28979e-05
1.29144e-05
1.29276e-05
1.29373e-05
1.29439e-05
1.29481e-05
1.29505e-05
1.29514e-05
1.28381e-05
1.28367e-05
1.28332e-05
1.28268e-05
1.2817e-05
1.28033e-05
1.27859e-05
1.27654e-05
1.27431e-05
1.272e-05
1.26976e-05
1.26776e-05
1.26628e-05
1.26575e-05
1.26629e-05
1.26781e-05
1.27013e-05
1.27277e-05
1.2754e-05
1.27797e-05
1.28047e-05
1.28292e-05
1.28528e-05
1.2875e-05
1.2895e-05
1.2912e-05
1.29256e-05
1.29358e-05
1.29429e-05
1.29473e-05
1.29497e-05
1.29507e-05
1.28369e-05
1.28354e-05
1.28317e-05
1.2825e-05
1.28146e-05
1.28001e-05
1.27818e-05
1.27604e-05
1.27368e-05
1.27122e-05
1.26879e-05
1.26659e-05
1.26499e-05
1.26451e-05
1.26525e-05
1.26701e-05
1.26952e-05
1.27227e-05
1.27496e-05
1.27755e-05
1.28006e-05
1.28249e-05
1.28485e-05
1.28709e-05
1.28913e-05
1.29089e-05
1.29232e-05
1.29339e-05
1.29414e-05
1.29461e-05
1.29486e-05
1.29497e-05
1.28355e-05
1.28339e-05
1.283e-05
1.2823e-05
1.2812e-05
1.27968e-05
1.27775e-05
1.27547e-05
1.27293e-05
1.27022e-05
1.26747e-05
1.26495e-05
1.26316e-05
1.26275e-05
1.26379e-05
1.26592e-05
1.26875e-05
1.2717e-05
1.2745e-05
1.27713e-05
1.27965e-05
1.28207e-05
1.28442e-05
1.28667e-05
1.28874e-05
1.29055e-05
1.29204e-05
1.29317e-05
1.29396e-05
1.29446e-05
1.29473e-05
1.29484e-05
1.2834e-05
1.28324e-05
1.28283e-05
1.2821e-05
1.28096e-05
1.27936e-05
1.27731e-05
1.27486e-05
1.27206e-05
1.26898e-05
1.26579e-05
1.26282e-05
1.26078e-05
1.26047e-05
1.26191e-05
1.26456e-05
1.26785e-05
1.27112e-05
1.27409e-05
1.27681e-05
1.27934e-05
1.28176e-05
1.28409e-05
1.28632e-05
1.2884e-05
1.29024e-05
1.29177e-05
1.29295e-05
1.29378e-05
1.2943e-05
1.29459e-05
1.29471e-05
1.28326e-05
1.28309e-05
1.28268e-05
1.28193e-05
1.28076e-05
1.27909e-05
1.27691e-05
1.27423e-05
1.27109e-05
1.26752e-05
1.26373e-05
1.26021e-05
1.2579e-05
1.25774e-05
1.25967e-05
1.26299e-05
1.2669e-05
1.2706e-05
1.27383e-05
1.27668e-05
1.27926e-05
1.28167e-05
1.28396e-05
1.28615e-05
1.28821e-05
1.29005e-05
1.2916e-05
1.29279e-05
1.29363e-05
1.29417e-05
1.29446e-05
1.29458e-05
1.28315e-05
1.28298e-05
1.28257e-05
1.28181e-05
1.28061e-05
1.27888e-05
1.27655e-05
1.27361e-05
1.27002e-05
1.26583e-05
1.2613e-05
1.25714e-05
1.25458e-05
1.25464e-05
1.25718e-05
1.26131e-05
1.26598e-05
1.27024e-05
1.27382e-05
1.27687e-05
1.27953e-05
1.28193e-05
1.28417e-05
1.2863e-05
1.28829e-05
1.29007e-05
1.29158e-05
1.29274e-05
1.29357e-05
1.2941e-05
1.29439e-05
1.29451e-05
1.28309e-05
1.28292e-05
1.28251e-05
1.28175e-05
1.28052e-05
1.27872e-05
1.27623e-05
1.27295e-05
1.26882e-05
1.26387e-05
1.25845e-05
1.2536e-05
1.25085e-05
1.25126e-05
1.25454e-05
1.25959e-05
1.26514e-05
1.27009e-05
1.27413e-05
1.27746e-05
1.28024e-05
1.28266e-05
1.28484e-05
1.28685e-05
1.28872e-05
1.29039e-05
1.29179e-05
1.29287e-05
1.29365e-05
1.29415e-05
1.29443e-05
1.29454e-05
1.2831e-05
1.28292e-05
1.28251e-05
1.28173e-05
1.28048e-05
1.27859e-05
1.27589e-05
1.2722e-05
1.2674e-05
1.26149e-05
1.25504e-05
1.24947e-05
1.24664e-05
1.24755e-05
1.25166e-05
1.25766e-05
1.26416e-05
1.26996e-05
1.27465e-05
1.2784e-05
1.28142e-05
1.2839e-05
1.28601e-05
1.28789e-05
1.28957e-05
1.29105e-05
1.29228e-05
1.29324e-05
1.29392e-05
1.29437e-05
1.29463e-05
1.29474e-05
1.28317e-05
1.28299e-05
1.28256e-05
1.28176e-05
1.28045e-05
1.27843e-05
1.27545e-05
1.27123e-05
1.26554e-05
1.25846e-05
1.25082e-05
1.24454e-05
1.24174e-05
1.24323e-05
1.2481e-05
1.25489e-05
1.2623e-05
1.26912e-05
1.27476e-05
1.27926e-05
1.28277e-05
1.28549e-05
1.28763e-05
1.28938e-05
1.29086e-05
1.2921e-05
1.29311e-05
1.29388e-05
1.29445e-05
1.29482e-05
1.29503e-05
1.29513e-05
1.2833e-05
1.28311e-05
1.28265e-05
1.2818e-05
1.28038e-05
1.27814e-05
1.27475e-05
1.26978e-05
1.26294e-05
1.25439e-05
1.24541e-05
1.23845e-05
1.23572e-05
1.23761e-05
1.24277e-05
1.24979e-05
1.25775e-05
1.26563e-05
1.27265e-05
1.27852e-05
1.28315e-05
1.28662e-05
1.28916e-05
1.291e-05
1.29237e-05
1.2934e-05
1.29418e-05
1.29475e-05
1.29514e-05
1.29537e-05
1.2955e-05
1.29554e-05
1.2834e-05
1.2832e-05
1.28269e-05
1.28174e-05
1.28013e-05
1.27753e-05
1.27349e-05
1.26747e-05
1.2591e-05
1.24879e-05
1.23838e-05
1.23074e-05
1.22786e-05
1.22944e-05
1.23377e-05
1.23976e-05
1.24719e-05
1.25551e-05
1.26386e-05
1.27165e-05
1.27838e-05
1.28379e-05
1.28783e-05
1.29069e-05
1.29258e-05
1.29376e-05
1.29441e-05
1.29469e-05
1.29471e-05
1.29459e-05
1.29443e-05
1.29433e-05
1.28325e-05
1.28303e-05
1.28246e-05
1.28135e-05
1.27942e-05
1.27624e-05
1.27123e-05
1.26373e-05
1.25344e-05
1.24114e-05
1.22928e-05
1.22083e-05
1.21708e-05
1.21692e-05
1.21855e-05
1.22137e-05
1.22588e-05
1.23225e-05
1.23996e-05
1.24833e-05
1.25671e-05
1.2645e-05
1.27126e-05
1.27671e-05
1.28071e-05
1.28336e-05
1.28476e-05
1.28517e-05
1.28494e-05
1.28442e-05
1.28392e-05
1.28363e-05
1.28219e-05
1.28195e-05
1.28128e-05
1.27992e-05
1.27747e-05
1.27338e-05
1.26696e-05
1.25756e-05
1.24518e-05
1.23112e-05
1.2181e-05
1.20857e-05
1.20287e-05
1.19937e-05
1.19652e-05
1.194e-05
1.1925e-05
1.19279e-05
1.19504e-05
1.19895e-05
1.20414e-05
1.21021e-05
1.21671e-05
1.22319e-05
1.22928e-05
1.23463e-05
1.23894e-05
1.24201e-05
1.24387e-05
1.24476e-05
1.24504e-05
1.24505e-05
1.27961e-05
1.27937e-05
1.27867e-05
1.27716e-05
1.27437e-05
1.26967e-05
1.2624e-05
1.25208e-05
1.23893e-05
1.2243e-05
1.21047e-05
1.19937e-05
1.19119e-05
1.18466e-05
1.17847e-05
1.17215e-05
1.16599e-05
1.16059e-05
1.15628e-05
1.15313e-05
1.15127e-05
1.1508e-05
1.15178e-05
1.15417e-05
1.15779e-05
1.16227e-05
1.16715e-05
1.17188e-05
1.17588e-05
1.17877e-05
1.18045e-05
1.18113e-05
1.27627e-05
1.27609e-05
1.27549e-05
1.27412e-05
1.27147e-05
1.26696e-05
1.25997e-05
1.25013e-05
1.23772e-05
1.22386e-05
1.21029e-05
1.19861e-05
1.18937e-05
1.18198e-05
1.17557e-05
1.16967e-05
1.16432e-05
1.15929e-05
1.15424e-05
1.14907e-05
1.14401e-05
1.13936e-05
1.13548e-05
1.13265e-05
1.13109e-05
1.13086e-05
1.13184e-05
1.13369e-05
1.13593e-05
1.13798e-05
1.13942e-05
1.1401e-05
1.27284e-05
1.27274e-05
1.27234e-05
1.27128e-05
1.26912e-05
1.26529e-05
1.25924e-05
1.2506e-05
1.23958e-05
1.227e-05
1.21425e-05
1.20271e-05
1.19319e-05
1.18566e-05
1.1797e-05
1.17494e-05
1.17126e-05
1.16788e-05
1.16392e-05
1.15912e-05
1.15359e-05
1.1477e-05
1.14191e-05
1.13669e-05
1.1324e-05
1.12922e-05
1.12723e-05
1.12629e-05
1.12617e-05
1.12651e-05
1.12695e-05
1.12723e-05
1.26941e-05
1.2694e-05
1.26921e-05
1.26855e-05
1.26699e-05
1.26403e-05
1.25915e-05
1.252e-05
1.24264e-05
1.23165e-05
1.22011e-05
1.20917e-05
1.19973e-05
1.19211e-05
1.18622e-05
1.18181e-05
1.17866e-05
1.17587e-05
1.17241e-05
1.1678e-05
1.16197e-05
1.1552e-05
1.14799e-05
1.14104e-05
1.13495e-05
1.13012e-05
1.12669e-05
1.12456e-05
1.12348e-05
1.12311e-05
1.1231e-05
1.12318e-05
1.26594e-05
1.26602e-05
1.26604e-05
1.26576e-05
1.2648e-05
1.26271e-05
1.25901e-05
1.25334e-05
1.24568e-05
1.23641e-05
1.22633e-05
1.21635e-05
1.20727e-05
1.19958e-05
1.19338e-05
1.18853e-05
1.18485e-05
1.18163e-05
1.17798e-05
1.17335e-05
1.16751e-05
1.16052e-05
1.15274e-05
1.14477e-05
1.13735e-05
1.13111e-05
1.1264e-05
1.12326e-05
1.12149e-05
1.12071e-05
1.12051e-05
1.12053e-05
1.26231e-05
1.26248e-05
1.2627e-05
1.26279e-05
1.26239e-05
1.2611e-05
1.25846e-05
1.25414e-05
1.24806e-05
1.24045e-05
1.23188e-05
1.223e-05
1.21445e-05
1.20666e-05
1.19988e-05
1.19407e-05
1.18922e-05
1.18496e-05
1.18067e-05
1.17576e-05
1.16994e-05
1.16307e-05
1.15532e-05
1.1471e-05
1.13907e-05
1.13192e-05
1.12622e-05
1.12219e-05
1.11976e-05
1.11858e-05
1.1182e-05
1.11817e-05
1.25822e-05
1.25849e-05
1.25895e-05
1.25942e-05
1.25959e-05
1.25903e-05
1.25735e-05
1.2542e-05
1.24947e-05
1.2433e-05
1.23604e-05
1.22812e-05
1.21996e-05
1.21195e-05
1.20438e-05
1.19735e-05
1.1911e-05
1.18566e-05
1.18061e-05
1.17539e-05
1.1696e-05
1.16302e-05
1.15565e-05
1.14772e-05
1.1397e-05
1.13222e-05
1.12591e-05
1.12121e-05
1.11819e-05
1.11663e-05
1.11606e-05
1.11599e-05
1.25314e-05
1.25355e-05
1.25432e-05
1.25527e-05
1.25606e-05
1.25625e-05
1.25543e-05
1.25326e-05
1.24959e-05
1.24447e-05
1.23807e-05
1.23065e-05
1.22252e-05
1.21406e-05
1.20562e-05
1.19739e-05
1.1899e-05
1.1835e-05
1.1779e-05
1.17251e-05
1.1669e-05
1.16079e-05
1.15403e-05
1.14671e-05
1.13916e-05
1.13184e-05
1.12536e-05
1.12025e-05
1.11677e-05
1.11485e-05
1.11409e-05
1.11396e-05
1.24644e-05
1.24704e-05
1.2482e-05
1.24971e-05
1.25118e-05
1.25213e-05
1.25206e-05
1.25062e-05
1.24761e-05
1.24299e-05
1.23685e-05
1.22939e-05
1.22093e-05
1.2119e-05
1.20272e-05
1.19366e-05
1.18539e-05
1.1785e-05
1.1727e-05
1.16742e-05
1.16221e-05
1.15672e-05
1.15077e-05
1.14431e-05
1.13751e-05
1.13072e-05
1.12445e-05
1.11922e-05
1.11545e-05
1.11323e-05
1.11229e-05
1.1121e-05
1.23755e-05
1.23838e-05
1.23993e-05
1.24195e-05
1.24399e-05
1.24551e-05
1.24594e-05
1.24485e-05
1.24201e-05
1.23736e-05
1.23101e-05
1.22321e-05
1.21438e-05
1.20499e-05
1.19551e-05
1.18621e-05
1.17782e-05
1.17097e-05
1.16541e-05
1.16052e-05
1.15588e-05
1.15115e-05
1.14612e-05
1.14066e-05
1.13484e-05
1.12886e-05
1.1231e-05
1.11805e-05
1.1142e-05
1.11177e-05
1.11066e-05
1.1104e-05
1.22612e-05
1.22714e-05
1.22893e-05
1.23111e-05
1.23327e-05
1.23487e-05
1.23531e-05
1.23413e-05
1.2311e-05
1.22619e-05
1.21959e-05
1.21165e-05
1.20283e-05
1.19364e-05
1.18451e-05
1.17568e-05
1.16781e-05
1.16152e-05
1.15652e-05
1.15225e-05
1.14832e-05
1.14442e-05
1.14035e-05
1.13596e-05
1.13123e-05
1.12625e-05
1.12125e-05
1.11666e-05
1.11294e-05
1.11044e-05
1.10919e-05
1.10887e-05
1.21194e-05
1.21306e-05
1.21467e-05
1.21636e-05
1.21788e-05
1.21888e-05
1.21883e-05
1.21729e-05
1.21405e-05
1.20912e-05
1.20272e-05
1.19523e-05
1.18711e-05
1.17882e-05
1.17072e-05
1.16298e-05
1.15618e-05
1.15082e-05
1.14662e-05
1.14312e-05
1.13997e-05
1.13692e-05
1.13379e-05
1.13044e-05
1.12682e-05
1.12292e-05
1.11887e-05
1.11496e-05
1.1116e-05
1.10919e-05
1.10789e-05
1.10751e-05
1.19481e-05
1.19579e-05
1.19661e-05
1.1971e-05
1.19735e-05
1.1973e-05
1.19656e-05
1.19475e-05
1.19166e-05
1.18725e-05
1.18172e-05
1.17539e-05
1.16866e-05
1.16189e-05
1.15534e-05
1.14915e-05
1.14377e-05
1.13956e-05
1.13631e-05
1.13364e-05
1.13128e-05
1.12904e-05
1.12678e-05
1.12439e-05
1.1218e-05
1.11897e-05
1.11596e-05
1.11291e-05
1.11013e-05
1.10798e-05
1.10673e-05
1.10631e-05
1.17431e-05
1.17473e-05
1.17423e-05
1.17329e-05
1.17233e-05
1.1714e-05
1.17024e-05
1.16854e-05
1.16606e-05
1.16271e-05
1.1586e-05
1.15396e-05
1.14908e-05
1.1442e-05
1.13951e-05
1.13511e-05
1.1313e-05
1.12835e-05
1.12609e-05
1.12425e-05
1.12265e-05
1.12115e-05
1.11967e-05
1.11811e-05
1.11643e-05
1.11459e-05
1.11259e-05
1.11048e-05
1.10844e-05
1.10675e-05
1.10567e-05
1.10527e-05
1.14956e-05
1.14902e-05
1.14749e-05
1.14595e-05
1.14464e-05
1.14356e-05
1.14255e-05
1.14137e-05
1.13982e-05
1.13781e-05
1.13538e-05
1.13265e-05
1.12977e-05
1.12691e-05
1.12416e-05
1.1216e-05
1.11939e-05
1.11767e-05
1.11637e-05
1.11532e-05
1.11442e-05
1.11358e-05
1.11276e-05
1.11191e-05
1.11099e-05
1.10999e-05
1.10889e-05
1.10771e-05
1.10651e-05
1.10544e-05
1.10469e-05
1.10437e-05
1.11946e-05
1.11901e-05
1.11817e-05
1.11743e-05
1.11684e-05
1.11637e-05
1.11597e-05
1.11556e-05
1.11505e-05
1.11439e-05
1.1136e-05
1.11272e-05
1.11178e-05
1.11085e-05
1.10997e-05
1.10914e-05
1.10842e-05
1.10787e-05
1.10745e-05
1.10712e-05
1.10683e-05
1.10657e-05
1.10631e-05
1.10604e-05
1.10576e-05
1.10545e-05
1.10511e-05
1.10474e-05
1.10436e-05
1.104e-05
1.10373e-05
1.1036e-05
)
;

boundaryField
{
    movingWall
    {
        type            fixedValue;
        value           uniform 1.1032e-05;
    }
    fixedWalls
    {
        type            zeroGradient;
    }
    floor
    {
        type            zeroGradient;
    }
    frontAndBack
    {
        type            empty;
    }
}


// ************************************************************************* //
