/*--------------------------------*- C++ -*----------------------------------*\
| =========                 |                                                 |
| \\      /  F ield         | OpenFOAM: The Open Source CFD Toolbox           |
|  \\    /   O peration     | Version:  2212                                  |
|   \\  /    A nd           | Website:  www.openfoam.com                      |
|    \\/     M anipulation  |                                                 |
\*---------------------------------------------------------------------------*/
FoamFile
{
    version     2.0;
    format      ascii;
    arch        "LSB;label=64;scalar=64";
    class       volScalarField;
    location    "980";
    object      p_rgh;
}
// * * * * * * * * * * * * * * * * * * * * * * * * * * * * * * * * * * * * * //

dimensions      [0 2 -2 0 0 0 0];

internalField   nonuniform List<scalar> 
1024
(
0.0431948
0.043192
0.0431889
0.0431876
0.0431894
0.0431952
0.0432064
0.0432253
0.0432549
0.0432972
0.0433477
0.0433882
0.0433964
0.0433416
0.0432382
0.0431063
0.0429782
0.0428751
0.0428028
0.0427558
0.0427268
0.0427098
0.0427005
0.0426957
0.0426933
0.0426919
0.0426911
0.042691
0.0426918
0.0426935
0.0426956
0.042697
0.0432007
0.0431979
0.0431953
0.0431948
0.0431972
0.0432033
0.0432145
0.0432332
0.0432626
0.0433047
0.0433551
0.0433951
0.0434031
0.043349
0.0432461
0.0431141
0.0429857
0.0428823
0.0428097
0.0427625
0.0427332
0.042716
0.0427064
0.0427014
0.0426988
0.0426972
0.0426961
0.0426957
0.0426961
0.0426974
0.0426992
0.0427006
0.0432109
0.0432075
0.0432054
0.0432062
0.04321
0.0432172
0.0432294
0.043249
0.0432794
0.0433229
0.0433744
0.043415
0.043423
0.0433693
0.0432661
0.0431332
0.0430036
0.042899
0.0428253
0.0427772
0.0427471
0.0427292
0.0427189
0.0427132
0.0427099
0.0427076
0.0427058
0.0427045
0.0427041
0.0427047
0.0427063
0.0427082
0.0432227
0.0432187
0.043217
0.0432197
0.0432261
0.043236
0.0432508
0.0432731
0.0433062
0.0433527
0.0434064
0.0434478
0.0434555
0.0434023
0.043299
0.0431654
0.0430343
0.0429275
0.0428518
0.0428019
0.0427703
0.0427509
0.0427394
0.0427324
0.0427278
0.0427241
0.0427206
0.0427176
0.0427156
0.0427153
0.0427169
0.0427194
0.043231
0.0432268
0.0432264
0.0432321
0.0432428
0.0432575
0.0432771
0.043304
0.0433413
0.043391
0.043446
0.0434865
0.0434923
0.0434411
0.0433401
0.0432086
0.0430774
0.0429687
0.0428905
0.0428382
0.0428043
0.0427828
0.0427692
0.0427602
0.0427535
0.0427472
0.0427409
0.0427348
0.0427303
0.0427284
0.0427298
0.0427329
0.0432288
0.0432253
0.0432274
0.0432379
0.0432551
0.0432772
0.043304
0.0433371
0.0433789
0.04343
0.0434834
0.0435206
0.0435226
0.0434744
0.0433796
0.0432549
0.0431277
0.0430202
0.0429401
0.0428855
0.0428492
0.0428249
0.0428084
0.0427964
0.0427863
0.0427761
0.0427653
0.0427546
0.042746
0.0427415
0.0427421
0.0427454
0.0432092
0.0432073
0.0432132
0.0432302
0.0432566
0.0432888
0.043325
0.0433652
0.0434108
0.0434603
0.0435095
0.0435418
0.0435394
0.043494
0.0434074
0.0432938
0.0431754
0.0430735
0.0429947
0.0429397
0.0429017
0.0428747
0.0428547
0.0428385
0.0428235
0.0428075
0.0427899
0.0427723
0.0427578
0.0427494
0.0427482
0.0427514
0.0431685
0.0431687
0.0431791
0.0432041
0.0432418
0.0432866
0.0433338
0.0433813
0.0434289
0.0434759
0.0435211
0.0435494
0.0435428
0.0434983
0.0434188
0.0433169
0.04321
0.0431174
0.0430448
0.0429929
0.0429555
0.0429268
0.0429031
0.0428816
0.0428597
0.0428354
0.0428083
0.0427812
0.0427587
0.0427449
0.0427411
0.0427434
0.0431075
0.0431099
0.0431249
0.0431583
0.0432084
0.0432673
0.0433266
0.0433813
0.0434311
0.0434777
0.0435223
0.0435489
0.0435384
0.0434919
0.043416
0.0433225
0.0432258
0.0431435
0.043081
0.0430357
0.0430022
0.0429736
0.0429465
0.0429187
0.0428878
0.0428522
0.0428125
0.0427733
0.042741
0.042721
0.0427139
0.0427149
0.0430307
0.043035
0.0430539
0.0430949
0.0431571
0.0432303
0.0433022
0.0433653
0.0434199
0.0434717
0.0435214
0.0435485
0.0435331
0.0434816
0.0434053
0.0433152
0.0432237
0.0431491
0.0430968
0.0430608
0.0430343
0.0430078
0.0429779
0.0429427
0.0429005
0.0428506
0.0427957
0.0427425
0.0427002
0.0426744
0.0426644
0.0426638
0.0429433
0.0429492
0.042971
0.0430178
0.0430901
0.0431766
0.0432614
0.0433354
0.043401
0.0434666
0.0435282
0.0435564
0.0435339
0.0434743
0.0433943
0.0433025
0.04321
0.0431368
0.0430905
0.0430654
0.0430475
0.0430241
0.0429912
0.0429475
0.0428919
0.0428256
0.0427543
0.0426886
0.042639
0.04261
0.0425983
0.0425963
0.0428484
0.0428554
0.0428792
0.0429296
0.0430093
0.0431072
0.0432057
0.0432952
0.0433811
0.0434727
0.0435522
0.0435801
0.0435477
0.0434776
0.0433899
0.0432929
0.0431951
0.043114
0.0430632
0.0430476
0.0430378
0.0430164
0.0429795
0.0429262
0.042857
0.0427762
0.042693
0.0426214
0.0425718
0.0425443
0.0425329
0.04253
0.042745
0.0427527
0.0427774
0.0428299
0.0429143
0.043022
0.0431362
0.043249
0.043369
0.0435007
0.0436009
0.0436252
0.0435813
0.0435006
0.0434041
0.0432989
0.0431905
0.0430939
0.0430253
0.0429924
0.0429855
0.0429659
0.0429274
0.0428697
0.0427963
0.0427149
0.0426365
0.0425722
0.042529
0.0425054
0.0424952
0.042492
0.0426276
0.0426354
0.0426606
0.042714
0.0428022
0.0429202
0.0430563
0.0432071
0.0433798
0.0435588
0.0436762
0.0436937
0.0436407
0.0435542
0.0434532
0.0433432
0.0432275
0.043115
0.0430178
0.042943
0.0428966
0.0428742
0.0428474
0.0428049
0.0427489
0.0426844
0.0426217
0.0425712
0.0425379
0.0425206
0.0425134
0.0425108
0.0424876
0.0424946
0.042519
0.0425731
0.0426664
0.042801
0.0429741
0.0431866
0.0434296
0.043645
0.0437698
0.043783
0.0437331
0.0436569
0.0435694
0.0434759
0.043381
0.0432882
0.0432014
0.0431205
0.0430443
0.0429722
0.0429089
0.0428608
0.0428217
0.0427699
0.0427156
0.0426716
0.0426452
0.0426347
0.0426332
0.0426337
0.042322
0.0423261
0.0423474
0.0424021
0.042507
0.0426762
0.0429199
0.0432349
0.0435685
0.0438116
0.0439083
0.0439186
0.0438908
0.0438497
0.0438073
0.0437657
0.0437356
0.0437227
0.0437254
0.0437418
0.0437643
0.0437789
0.0437654
0.0437023
0.0435846
0.0434401
0.0432889
0.0431597
0.0430812
0.0430535
0.0430488
0.0430509
0.0421226
0.0421204
0.0421317
0.0421787
0.0422876
0.0424851
0.04279
0.0431889
0.0436019
0.0439135
0.0440821
0.0441501
0.0441658
0.0441534
0.0441222
0.0440931
0.0440904
0.0441135
0.0441593
0.0442277
0.0443149
0.0444125
0.0445073
0.0445844
0.0446297
0.0446326
0.0445893
0.0445027
0.0443831
0.0442628
0.0441845
0.0441535
0.0419624
0.0419502
0.0419433
0.0419684
0.0420591
0.0422532
0.0425764
0.0430128
0.0434705
0.0438297
0.0440461
0.0441561
0.0442088
0.0442325
0.0442385
0.0442322
0.044221
0.0442297
0.0442556
0.044298
0.0443569
0.0444304
0.0445131
0.0445958
0.0446683
0.0447216
0.0447517
0.0447597
0.0447498
0.0447288
0.0447056
0.0446896
0.041923
0.0418985
0.0418684
0.041863
0.041919
0.0420754
0.042363
0.0427871
0.0432791
0.0436853
0.0439513
0.0441013
0.0441836
0.0442315
0.0442595
0.0442748
0.0442809
0.0442855
0.0442956
0.0443108
0.0443327
0.0443648
0.0444088
0.044463
0.0445216
0.0445761
0.0446188
0.0446463
0.0446596
0.0446625
0.0446589
0.0446531
0.0420145
0.0419766
0.0419207
0.04188
0.0418938
0.0420023
0.0422373
0.042606
0.0430635
0.0434954
0.0438186
0.0440189
0.0441329
0.0441998
0.0442424
0.0442744
0.0443067
0.0443228
0.044335
0.0443445
0.0443493
0.044353
0.0443618
0.0443817
0.044414
0.0444536
0.0444921
0.0445222
0.0445406
0.0445487
0.0445492
0.0445454
0.042211
0.0421607
0.0420793
0.0420013
0.0419698
0.042026
0.0422019
0.0425065
0.0429077
0.043321
0.0436655
0.0439049
0.0440523
0.0441392
0.0441923
0.0442308
0.0442691
0.0443067
0.0443391
0.0443654
0.0443797
0.0443796
0.0443747
0.0443724
0.0443819
0.0444049
0.0444355
0.0444644
0.0444848
0.0444951
0.0444967
0.044493
0.0424747
0.0424149
0.0423113
0.0421984
0.0421225
0.0421274
0.0422452
0.0424855
0.0428225
0.0431913
0.0435225
0.0437753
0.0439454
0.0440508
0.0441148
0.0441588
0.0442001
0.0442487
0.0442979
0.0443443
0.044381
0.0444043
0.0444152
0.0444124
0.0444128
0.0444267
0.0444533
0.0444833
0.044507
0.0445199
0.0445225
0.0445185
0.0427657
0.0427006
0.0425809
0.0424399
0.0423254
0.0422849
0.0423516
0.042534
0.0428077
0.0431199
0.0434134
0.0436522
0.0438256
0.0439409
0.0440142
0.0440647
0.0441108
0.0441673
0.0442294
0.0442933
0.0443523
0.0444021
0.0444403
0.0444664
0.0444876
0.0445056
0.0445372
0.0445758
0.0446088
0.0446277
0.0446322
0.0446282
0.043047
0.0429805
0.042853
0.042694
0.0425517
0.0424771
0.0425046
0.0426396
0.0428562
0.0431079
0.0433496
0.043554
0.0437114
0.0438239
0.0439007
0.0439569
0.0440087
0.0440713
0.0441436
0.0442218
0.0443006
0.0443763
0.0444466
0.0445109
0.0445705
0.0446252
0.0446794
0.0447368
0.0447889
0.044821
0.0448303
0.0448272
0.043289
0.0432242
0.0430971
0.0429329
0.0427781
0.0426857
0.0426891
0.0427888
0.0429559
0.0431485
0.0433324
0.0434904
0.0436174
0.0437144
0.0437865
0.043844
0.043899
0.043965
0.0440455
0.044135
0.0442307
0.0443307
0.0444344
0.0445414
0.0446512
0.0447606
0.044865
0.0449606
0.0450451
0.0451031
0.0451238
0.0451249
0.0434736
0.0434109
0.043292
0.0431387
0.0429897
0.0428976
0.0428931
0.04297
0.0430949
0.0432316
0.0433567
0.0434626
0.0435502
0.0436216
0.0436797
0.0437316
0.0437857
0.0438537
0.0439386
0.0440366
0.0441467
0.0442691
0.0444055
0.0445572
0.0447233
0.0448987
0.0450735
0.0452348
0.0453719
0.0454761
0.045523
0.0455361
0.0435979
0.0435367
0.0434302
0.0433039
0.0431856
0.0431094
0.04311
0.0431732
0.0432616
0.0433459
0.0434133
0.0434652
0.043508
0.0435462
0.0435821
0.0436215
0.0436707
0.0437384
0.0438259
0.0439309
0.0440536
0.0441963
0.0443631
0.0445577
0.0447809
0.0450276
0.0452853
0.0455353
0.0457566
0.0459338
0.0460352
0.0460766
0.0436638
0.0436077
0.0435222
0.0434364
0.0433663
0.0433242
0.0433363
0.0433907
0.043445
0.0434791
0.0434902
0.0434876
0.0434826
0.0434827
0.0434915
0.0435144
0.0435565
0.0436231
0.0437129
0.0438244
0.0439584
0.0441187
0.0443118
0.0445441
0.0448191
0.0451344
0.0454792
0.0458337
0.0461709
0.0464592
0.0466576
0.0467577
0.0436572
0.0436204
0.0435778
0.0435516
0.0435402
0.0435417
0.0435709
0.0436141
0.043633
0.0436176
0.0435734
0.043517
0.0434643
0.0434261
0.0434073
0.0434137
0.0434493
0.0435154
0.0436081
0.0437258
0.0438693
0.0440437
0.0442574
0.0445192
0.0448355
0.0452083
0.0456329
0.046096
0.0465743
0.0470275
0.047381
0.0476112
0.0435266
0.0435607
0.0436093
0.0436642
0.0437131
0.0437586
0.0438042
0.0438293
0.0438101
0.0437458
0.0436495
0.0435435
0.043448
0.0433761
0.043334
0.0433272
0.0433585
0.0434251
0.0435213
0.0436443
0.0437947
0.043979
0.0442065
0.0444877
0.0448316
0.0452444
0.0457293
0.046287
0.0469135
0.0475846
0.048218
0.048773
0.0430723
0.0434372
0.043654
0.0437889
0.0438872
0.0439633
0.0440112
0.0440137
0.0439581
0.0438504
0.0437099
0.0435637
0.0434349
0.0433381
0.0432796
0.0432645
0.0432937
0.0433615
0.0434606
0.0435869
0.0437414
0.0439308
0.0441653
0.044456
0.0448131
0.045246
0.0457646
0.0463844
0.0471319
0.0480454
0.0491576
0.0504215
0.042072
0.0432952
0.0437547
0.0439102
0.0440211
0.0441054
0.0441471
0.0441313
0.0440501
0.0439137
0.0437457
0.0435755
0.0434281
0.0433182
0.0432517
0.0432327
0.0432611
0.0433297
0.0434301
0.0435578
0.0437138
0.0439047
0.0441409
0.0444337
0.0447935
0.0452312
0.0457606
0.0464087
0.0472311
0.0483387
0.0499534
0.0522232
)
;

boundaryField
{
    movingWall
    {
        type            fixedFluxPressure;
        gradient        uniform 0;
        value           nonuniform List<scalar> 
32
(
0.042072
0.0432952
0.0437547
0.0439102
0.0440211
0.0441054
0.0441471
0.0441313
0.0440501
0.0439137
0.0437457
0.0435755
0.0434281
0.0433182
0.0432517
0.0432327
0.0432611
0.0433297
0.0434301
0.0435578
0.0437138
0.0439047
0.0441409
0.0444337
0.0447935
0.0452312
0.0457606
0.0464087
0.0472311
0.0483387
0.0499534
0.0522232
)
;
    }
    fixedWalls
    {
        type            fixedFluxPressure;
        gradient        uniform 0;
        value           nonuniform List<scalar> 
64
(
0.0431948
0.0432007
0.0432109
0.0432227
0.043231
0.0432288
0.0432092
0.0431685
0.0431075
0.0430307
0.0429433
0.0428484
0.042745
0.0426276
0.0424876
0.042322
0.0421226
0.0419624
0.041923
0.0420145
0.042211
0.0424747
0.0427657
0.043047
0.043289
0.0434736
0.0435979
0.0436638
0.0436572
0.0435266
0.0430723
0.042072
0.042697
0.0427006
0.0427082
0.0427194
0.0427329
0.0427454
0.0427514
0.0427434
0.0427149
0.0426638
0.0425963
0.04253
0.042492
0.0425108
0.0426337
0.0430509
0.0441535
0.0446896
0.0446531
0.0445454
0.044493
0.0445185
0.0446282
0.0448272
0.0451249
0.0455361
0.0460766
0.0467577
0.0476112
0.048773
0.0504215
0.0522232
)
;
    }
    floor
    {
        type            fixedFluxPressure;
        gradient        uniform 0;
        value           nonuniform List<scalar> 
32
(
0.0431948
0.043192
0.0431889
0.0431876
0.0431894
0.0431952
0.0432064
0.0432253
0.0432549
0.0432972
0.0433477
0.0433882
0.0433964
0.0433416
0.0432382
0.0431063
0.0429782
0.0428751
0.0428028
0.0427558
0.0427268
0.0427098
0.0427005
0.0426957
0.0426933
0.0426919
0.0426911
0.042691
0.0426918
0.0426935
0.0426956
0.042697
)
;
    }
    frontAndBack
    {
        type            empty;
    }
}


// ************************************************************************* //
