/*--------------------------------*- C++ -*----------------------------------*\
| =========                 |                                                 |
| \\      /  F ield         | OpenFOAM: The Open Source CFD Toolbox           |
|  \\    /   O peration     | Version:  2212                                  |
|   \\  /    A nd           | Website:  www.openfoam.com                      |
|    \\/     M anipulation  |                                                 |
\*---------------------------------------------------------------------------*/
FoamFile
{
    version     2.0;
    format      ascii;
    arch        "LSB;label=64;scalar=64";
    class       surfaceScalarField;
    location    "980";
    object      phi;
}
// * * * * * * * * * * * * * * * * * * * * * * * * * * * * * * * * * * * * * //

dimensions      [0 3 -1 0 0 0 0];

oriented        oriented;

internalField   nonuniform List<scalar> 
1984
(
-6.35311e-10
6.35694e-10
-1.1429e-08
1.07937e-08
-3.4672e-08
2.3243e-08
-6.63357e-08
3.16637e-08
-1.01706e-07
3.53707e-08
-1.37675e-07
3.59689e-08
-1.71823e-07
3.41471e-08
-2.00237e-07
2.84143e-08
-2.15608e-07
1.53714e-08
-2.05145e-07
-1.04636e-08
-1.52659e-07
-5.24855e-08
-5.16593e-08
-1.01e-07
8.78468e-08
-1.39506e-07
2.01321e-07
-1.13474e-07
2.64642e-07
-6.33212e-08
2.89063e-07
-2.44217e-08
2.8663e-07
2.43356e-09
2.68057e-07
1.85722e-08
2.40252e-07
2.78055e-08
2.09378e-07
3.08743e-08
1.78858e-07
3.05197e-08
1.50293e-07
2.85649e-08
1.24549e-07
2.57439e-08
1.01871e-07
2.26776e-08
8.17943e-08
2.0077e-08
6.3241e-08
1.85533e-08
4.51737e-08
1.80674e-08
2.77521e-08
1.74217e-08
1.28069e-08
1.49451e-08
2.92356e-09
9.88332e-09
-6.56506e-10
3.5801e-09
-6.56332e-10
-1.22658e-08
1.29015e-08
-5.55187e-08
5.40467e-08
-1.30456e-07
9.81799e-08
-2.28226e-07
1.29434e-07
-3.36664e-07
1.43809e-07
-4.45143e-07
1.44447e-07
-5.43768e-07
1.32773e-07
-6.19302e-07
1.03948e-07
-6.51276e-07
4.73455e-08
-6.07914e-07
-5.38253e-08
-4.51453e-07
-2.08946e-07
-1.61008e-07
-3.91445e-07
2.3837e-07
-5.38883e-07
5.79713e-07
-4.54817e-07
7.87017e-07
-2.70625e-07
8.86624e-07
-1.24029e-07
8.99927e-07
-1.08686e-08
8.58451e-07
6.00476e-08
7.84792e-07
1.01464e-07
6.96822e-07
1.18845e-07
6.05573e-07
1.21769e-07
5.16926e-07
1.17212e-07
4.34177e-07
1.08493e-07
3.58639e-07
9.82157e-08
2.89631e-07
8.90851e-08
2.25033e-07
8.3152e-08
1.63126e-07
7.99742e-08
1.05155e-07
7.53923e-08
5.59617e-08
6.41391e-08
2.13859e-08
4.44593e-08
3.91684e-09
2.10494e-08
3.26059e-09
-3.15606e-08
4.44622e-08
-1.20767e-07
1.43253e-07
-2.60253e-07
2.37666e-07
-4.33835e-07
3.03016e-07
-6.21634e-07
3.31607e-07
-8.044e-07
3.27213e-07
-9.62759e-07
2.91132e-07
-1.07304e-06
2.14231e-07
-1.10293e-06
7.72332e-08
-1.00691e-06
-1.49841e-07
-7.36899e-07
-4.78961e-07
-2.64916e-07
-8.63428e-07
3.73237e-07
-1.17704e-06
9.40349e-07
-1.02193e-06
1.31622e-06
-6.46493e-07
1.52934e-06
-3.37157e-07
1.59117e-06
-7.26981e-08
1.54847e-06
1.02754e-07
1.44284e-06
2.07092e-07
1.30424e-06
2.57447e-07
1.15228e-06
2.73722e-07
9.98431e-07
2.71066e-07
8.49424e-07
2.57499e-07
7.08619e-07
2.3902e-07
5.76296e-07
2.21409e-07
4.50774e-07
2.08674e-07
3.31034e-07
1.99714e-07
2.19877e-07
1.86549e-07
1.24658e-07
1.59358e-07
5.40454e-08
1.15072e-07
1.29364e-08
6.21585e-08
1.61971e-08
-5.38691e-08
9.83312e-08
-1.96571e-07
2.85954e-07
-4.08527e-07
4.49622e-07
-6.62322e-07
5.5681e-07
-9.28489e-07
5.97774e-07
-1.17845e-06
5.7717e-07
-1.38307e-06
4.95755e-07
-1.5089e-06
3.40061e-07
-1.51417e-06
8.25022e-08
-1.34697e-06
-3.17039e-07
-9.60892e-07
-8.6504e-07
-3.33448e-07
-1.49087e-06
4.84624e-07
-1.99511e-06
1.23763e-06
-1.77493e-06
1.78814e-06
-1.197e-06
2.14805e-06
-6.97072e-07
2.29938e-06
-2.24025e-07
2.28919e-06
1.12948e-07
2.17724e-06
3.19036e-07
2.00601e-06
4.28682e-07
1.80381e-06
4.75915e-07
1.58822e-06
4.86659e-07
1.37015e-06
4.75565e-07
1.15602e-06
4.53155e-07
9.48516e-07
4.28912e-07
7.48157e-07
4.09033e-07
5.56027e-07
3.91843e-07
3.76992e-07
3.65585e-07
2.21006e-07
3.15344e-07
1.00625e-07
2.35453e-07
2.58267e-08
1.36957e-07
4.20238e-08
-7.39147e-08
1.72246e-07
-2.66138e-07
4.78177e-07
-5.45977e-07
7.29461e-07
-8.73707e-07
8.8454e-07
-1.20855e-06
9.32614e-07
-1.51175e-06
8.8037e-07
-1.74495e-06
7.28956e-07
-1.86673e-06
4.61841e-07
-1.82907e-06
4.4848e-08
-1.58264e-06
-5.63475e-07
-1.09129e-06
-1.35638e-06
-3.48815e-07
-2.23335e-06
5.66377e-07
-2.9103e-06
1.43655e-06
-2.64511e-06
2.14128e-06
-1.90173e-06
2.66253e-06
-1.21832e-06
2.94056e-06
-5.02055e-07
3.00265e-06
5.08578e-08
2.9185e-06
4.03189e-07
2.7428e-06
6.04386e-07
2.51178e-06
7.06933e-07
2.24864e-06
7.49801e-07
1.96847e-06
7.5573e-07
1.68129e-06
7.40336e-07
1.39339e-06
7.16811e-07
1.10899e-06
6.93439e-07
8.32673e-07
6.68158e-07
5.72466e-07
6.25792e-07
3.42001e-07
5.45808e-07
1.59436e-07
4.18018e-07
4.21206e-08
2.54273e-07
8.41443e-08
-8.53276e-08
2.57573e-07
-3.09647e-07
7.02497e-07
-6.38105e-07
1.05792e-06
-1.02189e-06
1.26833e-06
-1.40877e-06
1.31949e-06
-1.74906e-06
1.22065e-06
-1.99566e-06
9.7556e-07
-2.10162e-06
5.67798e-07
-2.01657e-06
-4.01957e-08
-1.70055e-06
-8.79502e-07
-1.12903e-06
-1.9279e-06
-3.21364e-07
-3.04101e-06
6.08744e-07
-3.84041e-06
1.52069e-06
-3.55706e-06
2.33461e-06
-2.71565e-06
3.00424e-06
-1.88795e-06
3.42718e-06
-9.24992e-07
3.59482e-06
-1.16785e-07
3.57334e-06
4.24667e-07
3.42564e-06
7.52093e-07
3.19438e-06
9.38194e-07
2.90696e-06
1.03722e-06
2.58171e-06
1.08098e-06
2.23203e-06
1.09001e-06
1.86827e-06
1.08058e-06
1.4992e-06
1.06251e-06
1.1342e-06
1.03315e-06
7.86132e-07
9.73863e-07
4.74159e-07
8.57781e-07
2.23562e-07
6.68616e-07
5.98893e-08
4.17945e-07
1.44034e-07
-8.38146e-08
3.41388e-07
-3.1322e-07
9.31902e-07
-6.60095e-07
1.40479e-06
-1.07376e-06
1.682e-06
-1.49281e-06
1.73854e-06
-1.85653e-06
1.58438e-06
-2.10929e-06
1.22832e-06
-2.19964e-06
6.58143e-07
-2.08226e-06
-1.57574e-07
-1.72155e-06
-1.24021e-06
-1.10415e-06
-2.5453e-06
-2.85799e-07
-3.85937e-06
5.91741e-07
-4.71795e-06
1.48009e-06
-4.4454e-06
2.34544e-06
-3.581e-06
3.12797e-06
-2.67049e-06
3.68715e-06
-1.48417e-06
3.97549e-06
-4.05125e-07
4.04392e-06
3.56235e-07
3.95251e-06
8.43505e-07
3.74974e-06
1.14096e-06
3.46521e-06
1.32175e-06
3.11864e-06
1.42754e-06
2.72576e-06
1.4829e-06
2.30055e-06
1.50578e-06
1.85664e-06
1.50643e-06
1.40926e-06
1.48053e-06
9.78141e-07
1.40498e-06
5.90172e-07
1.24575e-06
2.78372e-07
9.80415e-07
7.47019e-08
6.21616e-07
2.18735e-07
-6.99545e-08
4.11343e-07
-2.76271e-07
1.13822e-06
-6.07934e-07
1.73646e-06
-1.02223e-06
2.0963e-06
-1.45401e-06
2.17031e-06
-1.83302e-06
1.96339e-06
-2.09525e-06
1.49054e-06
-2.18555e-06
7.48444e-07
-2.05958e-06
-2.83548e-07
-1.6843e-06
-1.61549e-06
-1.05951e-06
-3.17009e-06
-2.88252e-07
-4.63062e-06
4.80701e-07
-5.4869e-06
1.28935e-06
-5.25405e-06
2.14596e-06
-4.43761e-06
2.99643e-06
-3.52095e-06
3.67008e-06
-2.15782e-06
4.07795e-06
-8.13e-07
4.24695e-06
1.87239e-07
4.22762e-06
8.62832e-07
4.07531e-06
1.29327e-06
3.81883e-06
1.57823e-06
3.47659e-06
1.76979e-06
3.06477e-06
1.89471e-06
2.59999e-06
1.97057e-06
2.10064e-06
2.00577e-06
1.58909e-06
1.99208e-06
1.09426e-06
1.89981e-06
6.52613e-07
1.6874e-06
3.03693e-07
1.32934e-06
8.03693e-08
8.4494e-07
2.99104e-07
-4.8791e-08
4.60134e-07
-2.11301e-07
1.30073e-06
-4.98907e-07
2.02406e-06
-8.86758e-07
2.48415e-06
-1.31436e-06
2.59792e-06
-1.70555e-06
2.35458e-06
-1.98784e-06
1.77283e-06
-2.09952e-06
8.60125e-07
-1.99081e-06
-3.92256e-07
-1.6293e-06
-1.977e-06
-1.04233e-06
-3.75706e-06
-3.82062e-07
-5.29089e-06
2.21098e-07
-6.09006e-06
8.91416e-07
-5.92437e-06
1.67608e-06
-5.22228e-06
2.5451e-06
-4.38997e-06
3.31144e-06
-2.92416e-06
3.83382e-06
-1.33537e-06
4.10425e-06
-8.31924e-08
4.16376e-06
8.03317e-07
4.07726e-06
1.37978e-06
3.87008e-06
1.78541e-06
3.55674e-06
2.08313e-06
3.15191e-06
2.29954e-06
2.67383e-06
2.44865e-06
2.14614e-06
2.53347e-06
1.60033e-06
2.53789e-06
1.07725e-06
2.42288e-06
6.23428e-07
2.14122e-06
2.80183e-07
1.67258e-06
7.13545e-08
1.05377e-06
3.70459e-07
-2.6949e-08
4.87083e-07
-1.3743e-07
1.41121e-06
-3.63267e-07
2.2499e-06
-7.0401e-07
2.82489e-06
-1.11369e-06
3.00759e-06
-1.5162e-06
2.75709e-06
-1.83061e-06
2.08724e-06
-1.98395e-06
1.01347e-06
-1.91519e-06
-4.61021e-07
-1.59997e-06
-2.29222e-06
-1.1127e-06
-4.24433e-06
-6.38273e-07
-5.76532e-06
-2.62617e-07
-6.46572e-06
1.90035e-07
-6.37702e-06
8.28324e-07
-5.86057e-06
1.65004e-06
-5.21168e-06
2.48399e-06
-3.75812e-06
3.12407e-06
-1.97545e-06
3.5094e-06
-4.68517e-07
3.66537e-06
6.47348e-07
3.66198e-06
1.38316e-06
3.5249e-06
1.92249e-06
3.2644e-06
2.34363e-06
2.89283e-06
2.67111e-06
2.43053e-06
2.91095e-06
1.90875e-06
3.05525e-06
1.37202e-06
3.07462e-06
8.75747e-07
2.91916e-06
4.7307e-07
2.5439e-06
1.9587e-07
1.94978e-06
4.52114e-08
1.20443e-06
4.1567e-07
-9.85958e-09
4.96942e-07
-7.30169e-08
1.47437e-06
-2.33892e-07
2.41077e-06
-5.1673e-07
3.10773e-06
-8.98536e-07
3.3894e-06
-1.31147e-06
3.17003e-06
-1.66817e-06
2.44394e-06
-1.88144e-06
1.22674e-06
-1.87853e-06
-4.63935e-07
-1.65994e-06
-2.51081e-06
-1.36299e-06
-4.54127e-06
-1.17058e-06
-5.95773e-06
-1.08668e-06
-6.54963e-06
-9.29012e-07
-6.53468e-06
-5.5222e-07
-6.23736e-06
1.07472e-07
-5.87138e-06
9.55476e-07
-4.60612e-06
1.73619e-06
-2.75617e-06
2.31103e-06
-1.04336e-06
2.60344e-06
3.54947e-07
2.70718e-06
1.27941e-06
2.66416e-06
1.96552e-06
2.48148e-06
2.5263e-06
2.1709e-06
2.98169e-06
1.75945e-06
3.3224e-06
1.29272e-06
3.52198e-06
8.33306e-07
3.53404e-06
4.51169e-07
3.30129e-06
1.91161e-07
2.8039e-06
5.36434e-08
2.0873e-06
4.77749e-09
1.25329e-06
4.20448e-07
-7.06989e-10
4.97649e-07
-3.23243e-08
1.50598e-06
-1.41012e-07
2.51946e-06
-3.68831e-07
3.33555e-06
-7.19307e-07
3.73988e-06
-1.14207e-06
3.59279e-06
-1.54978e-06
2.85166e-06
-1.8443e-06
1.52125e-06
-1.95213e-06
-3.56107e-07
-1.91502e-06
-2.54792e-06
-1.9347e-06
-4.52159e-06
-2.14355e-06
-5.74888e-06
-2.45098e-06
-6.24219e-06
-2.66709e-06
-6.31858e-06
-2.6451e-06
-6.25934e-06
-2.29773e-06
-6.21875e-06
-1.61121e-06
-5.29265e-06
-7.73919e-07
-3.59346e-06
8.37554e-08
-1.90104e-06
6.83e-07
-2.44298e-07
9.63487e-07
9.98927e-07
1.05769e-06
1.87132e-06
9.90242e-07
2.59374e-06
7.85239e-07
3.18669e-06
4.93963e-07
3.61367e-06
1.89073e-07
3.82687e-06
-5.36992e-08
3.77681e-06
-1.83003e-07
3.4306e-06
-1.92655e-07
2.81355e-06
-1.25149e-07
2.01979e-06
-4.24708e-08
1.17061e-06
3.77977e-07
-2.07104e-09
4.9972e-07
-2.75968e-08
1.53151e-06
-1.14768e-07
2.60663e-06
-3.10768e-07
3.53155e-06
-6.40779e-07
4.06989e-06
-1.0783e-06
4.03031e-06
-1.54703e-06
3.32038e-06
-1.95124e-06
1.92547e-06
-2.25619e-06
-5.11567e-08
-2.52934e-06
-2.27477e-06
-3.0229e-06
-4.02802e-06
-3.76893e-06
-5.00285e-06
-4.59863e-06
-5.41249e-06
-5.32085e-06
-5.59636e-06
-5.79307e-06
-5.78713e-06
-5.89793e-06
-6.11389e-06
-5.52322e-06
-5.66735e-06
-4.78405e-06
-4.33263e-06
-3.84608e-06
-2.83901e-06
-2.86852e-06
-1.22185e-06
-2.17446e-06
3.0486e-07
-1.79651e-06
1.49338e-06
-1.59443e-06
2.39166e-06
-1.5079e-06
3.10016e-06
-1.46012e-06
3.5659e-06
-1.37634e-06
3.74309e-06
-1.20319e-06
3.60366e-06
-9.35104e-07
3.16251e-06
-6.14904e-07
2.49335e-06
-3.09269e-07
1.71416e-06
-8.75359e-08
9.4888e-07
2.90441e-07
-1.61623e-08
5.15882e-07
-7.07769e-08
1.58612e-06
-1.87313e-07
2.72317e-06
-4.04058e-07
3.7483e-06
-7.54639e-07
4.42047e-06
-1.23527e-06
4.51095e-06
-1.79393e-06
3.87904e-06
-2.36749e-06
2.49902e-06
-2.95394e-06
5.35304e-07
-3.72489e-06
-1.50382e-06
-4.87277e-06
-2.88014e-06
-6.29884e-06
-3.57678e-06
-7.79006e-06
-3.92127e-06
-9.16865e-06
-4.21777e-06
-1.03029e-05
-4.65286e-06
-1.10607e-05
-5.35607e-06
-1.12114e-05
-5.5167e-06
-1.07594e-05
-4.78458e-06
-9.84315e-06
-3.7553e-06
-8.6119e-06
-2.4531e-06
-7.31785e-06
-9.89193e-07
-6.23098e-06
4.06505e-07
-5.34609e-06
1.50677e-06
-4.57291e-06
2.32699e-06
-3.82279e-06
2.81577e-06
-3.07681e-06
2.99711e-06
-2.33043e-06
2.85728e-06
-1.60645e-06
2.43853e-06
-9.55408e-07
1.84231e-06
-4.40636e-07
1.19939e-06
-1.1459e-07
6.22833e-07
1.75851e-07
-4.13768e-08
5.57259e-07
-1.59707e-07
1.70446e-06
-3.63134e-07
2.9266e-06
-6.72332e-07
4.05749e-06
-1.11401e-06
4.86215e-06
-1.69486e-06
5.09179e-06
-2.39051e-06
4.5747e-06
-3.2004e-06
3.30891e-06
-4.25769e-06
1.59259e-06
-5.80448e-06
4.29652e-08
-7.75878e-06
-9.25841e-07
-9.94621e-06
-1.38936e-06
-1.21537e-05
-1.7138e-06
-1.42356e-05
-2.13585e-06
-1.6085e-05
-2.80345e-06
-1.75789e-05
-3.86222e-06
-1.83829e-05
-4.71264e-06
-1.83784e-05
-4.78908e-06
-1.76616e-05
-4.47212e-06
-1.62998e-05
-3.81494e-06
-1.43756e-05
-2.91339e-06
-1.21074e-05
-1.86166e-06
-9.82949e-06
-7.71145e-07
-7.69427e-06
1.91773e-07
-5.7511e-06
8.72597e-07
-4.07717e-06
1.32318e-06
-2.70858e-06
1.48869e-06
-1.64791e-06
1.37785e-06
-8.72038e-07
1.06644e-06
-3.59089e-07
6.86438e-07
-8.28852e-08
3.46629e-07
9.29662e-08
-6.61964e-08
6.23455e-07
-2.4886e-07
1.88712e-06
-5.52826e-07
3.23056e-06
-9.97736e-07
4.5024e-06
-1.61645e-06
5.48087e-06
-2.4404e-06
5.91573e-06
-3.49939e-06
5.63369e-06
-4.87495e-06
4.68447e-06
-6.72689e-06
3.44453e-06
-9.0986e-06
2.41467e-06
-1.17631e-05
1.73863e-06
-1.44677e-05
1.31523e-06
-1.70725e-05
8.91078e-07
-1.9485e-05
2.76615e-07
-2.16543e-05
-6.34134e-07
-2.35237e-05
-1.9928e-06
-2.47425e-05
-3.49383e-06
-2.5106e-05
-4.42564e-06
-2.46713e-05
-4.90681e-06
-2.34549e-05
-5.03131e-06
-2.14789e-05
-4.88937e-06
-1.88042e-05
-4.53637e-06
-1.55704e-05
-4.00494e-06
-1.20625e-05
-3.31621e-06
-8.68073e-06
-2.50914e-06
-5.67725e-06
-1.68029e-06
-3.27302e-06
-9.15533e-07
-1.58885e-06
-3.06323e-07
-5.99864e-07
7.74613e-08
-1.45174e-07
2.31748e-07
-5.95256e-09
2.07408e-07
8.70135e-08
-3.21693e-08
6.55625e-07
-1.35626e-07
1.99058e-06
-3.36495e-07
3.43143e-06
-6.78123e-07
4.84403e-06
-1.22089e-06
6.02363e-06
-2.02108e-06
6.71593e-06
-3.11896e-06
6.73157e-06
-4.5525e-06
6.11802e-06
-6.34397e-06
5.236e-06
-8.43956e-06
4.51027e-06
-1.07559e-05
4.05498e-06
-1.31583e-05
3.71757e-06
-1.55576e-05
3.29047e-06
-1.78827e-05
2.60172e-06
-1.99987e-05
1.48185e-06
-2.17445e-05
-2.47016e-07
-2.29285e-05
-2.30986e-06
-2.35008e-05
-3.85329e-06
-2.35034e-05
-4.90421e-06
-2.29191e-05
-5.61562e-06
-2.17164e-05
-6.09206e-06
-1.98882e-05
-6.3646e-06
-1.74814e-05
-6.41174e-06
-1.4605e-05
-6.19256e-06
-1.14368e-05
-5.67734e-06
-8.24577e-06
-4.87136e-06
-5.33547e-06
-3.82582e-06
-2.98705e-06
-2.65475e-06
-1.37347e-06
-1.53611e-06
-4.67723e-07
-6.74003e-07
-8.35658e-08
-1.7675e-07
3.4477e-09
3.07743e-08
6.2485e-07
8.55445e-08
1.93581e-06
1.17605e-07
3.39937e-06
6.46093e-08
4.89703e-06
-1.53004e-07
6.24124e-06
-6.20788e-07
7.18371e-06
-1.39921e-06
7.50999e-06
-2.46252e-06
7.18133e-06
-3.67591e-06
6.44938e-06
-4.95009e-06
5.78445e-06
-6.24392e-06
5.34881e-06
-7.56674e-06
5.0404e-06
-8.9363e-06
4.66002e-06
-1.03605e-05
4.02591e-06
-1.18423e-05
2.96364e-06
-1.33327e-05
1.24339e-06
-1.44288e-05
-1.2137e-06
-1.51243e-05
-3.15784e-06
-1.5557e-05
-4.47154e-06
-1.57185e-05
-5.45408e-06
-1.55478e-05
-6.26277e-06
-1.49725e-05
-6.93986e-06
-1.39404e-05
-7.4439e-06
-1.24423e-05
-7.69061e-06
-1.05354e-05
-7.58424e-06
-8.34446e-06
-7.06231e-06
-6.05342e-06
-6.11686e-06
-3.88826e-06
-4.81991e-06
-2.08754e-06
-3.33684e-06
-8.39266e-07
-1.92227e-06
-1.81243e-07
-8.34773e-07
-1.77795e-07
7.70315e-08
5.47818e-07
2.58365e-07
1.75447e-06
4.89821e-07
3.16791e-06
7.01785e-07
4.68506e-06
8.10923e-07
6.1321e-06
7.17983e-07
7.27665e-06
3.38357e-07
7.88962e-06
-3.29094e-07
7.84878e-06
-1.14526e-06
7.26555e-06
-1.93181e-06
6.57099e-06
-2.60053e-06
6.01754e-06
-3.18402e-06
5.62388e-06
-3.75133e-06
5.22734e-06
-4.35866e-06
4.63323e-06
-5.05534e-06
3.66032e-06
-5.92489e-06
2.11294e-06
-6.75855e-06
-3.80044e-07
-7.42754e-06
-2.48885e-06
-8.06433e-06
-3.83475e-06
-8.66428e-06
-4.85414e-06
-9.17523e-06
-5.75182e-06
-9.50538e-06
-6.60971e-06
-9.54821e-06
-7.40106e-06
-9.19531e-06
-8.04352e-06
-8.39397e-06
-8.38558e-06
-7.15989e-06
-8.29639e-06
-5.59195e-06
-7.6848e-06
-3.86836e-06
-6.54351e-06
-2.23701e-06
-4.96818e-06
-9.64922e-07
-3.19436e-06
-2.2379e-07
-1.57591e-06
-4.01585e-07
9.71872e-08
4.50631e-07
3.47727e-07
1.50393e-06
7.04428e-07
2.81121e-06
1.09859e-06
4.2909e-06
1.44786e-06
5.78283e-06
1.66074e-06
7.06377e-06
1.65457e-06
7.89579e-06
1.39042e-06
8.11293e-06
9.26263e-07
7.72971e-06
4.5868e-07
7.03857e-06
1.32127e-07
6.34409e-06
-3.34711e-08
5.78948e-06
-1.06345e-07
5.30021e-06
-1.69613e-07
4.6965e-06
-2.95156e-07
3.78586e-06
-5.16314e-07
2.33409e-06
-1.03818e-06
1.41818e-07
-1.70624e-06
-1.82078e-06
-2.39435e-06
-3.14664e-06
-3.13373e-06
-4.11476e-06
-3.92007e-06
-4.96548e-06
-4.70106e-06
-5.82872e-06
-5.39271e-06
-6.70941e-06
-5.83211e-06
-7.60411e-06
-5.89452e-06
-8.32317e-06
-5.50235e-06
-8.68856e-06
-4.66753e-06
-8.51962e-06
-3.49184e-06
-7.7192e-06
-2.17772e-06
-6.2823e-06
-1.00709e-06
-4.36499e-06
-2.48165e-07
-2.33483e-06
-6.4975e-07
9.69228e-08
3.53709e-07
3.6388e-07
1.23697e-06
7.70488e-07
2.4046e-06
1.2589e-06
3.8025e-06
1.75436e-06
5.28736e-06
2.17484e-06
6.6433e-06
2.4438e-06
7.62682e-06
2.51321e-06
8.04352e-06
2.39863e-06
7.84429e-06
2.2232e-06
7.214e-06
2.13242e-06
6.43487e-06
2.20018e-06
5.72172e-06
2.39506e-06
5.10533e-06
2.6259e-06
4.46566e-06
2.79858e-06
3.61319e-06
2.83139e-06
2.30128e-06
2.55956e-06
4.13651e-07
1.99728e-06
-1.2585e-06
1.31879e-06
-2.46815e-06
5.71005e-07
-3.36698e-06
-2.50982e-07
-4.14349e-06
-1.1415e-06
-4.93821e-06
-2.07325e-06
-5.77765e-06
-2.923e-06
-6.75437e-06
-3.5497e-06
-7.69647e-06
-3.7944e-06
-8.44387e-06
-3.58997e-06
-8.72405e-06
-2.94931e-06
-8.35985e-06
-2.00183e-06
-7.22979e-06
-9.99134e-07
-5.36769e-06
-2.61809e-07
-3.07215e-06
-9.11559e-07
8.41944e-08
2.69515e-07
3.2948e-07
9.91689e-07
7.24808e-07
2.00928e-06
1.23029e-06
3.29701e-06
1.78585e-06
4.7318e-06
2.32371e-06
6.10544e-06
2.77935e-06
7.17118e-06
3.10532e-06
7.71755e-06
3.29165e-06
7.65796e-06
3.39801e-06
7.10764e-06
3.52299e-06
6.30989e-06
3.74382e-06
5.50089e-06
4.0637e-06
4.78546e-06
4.41737e-06
4.11199e-06
4.70869e-06
3.32187e-06
4.82301e-06
2.18697e-06
4.63646e-06
6.00195e-07
4.1676e-06
-7.89637e-07
3.52927e-06
-1.82982e-06
2.80795e-06
-2.64566e-06
2.03576e-06
-3.3713e-06
1.19823e-06
-4.10068e-06
2.99581e-07
-4.879e-06
-6.50596e-07
-5.80419e-06
-1.56103e-06
-6.78604e-06
-2.22526e-06
-7.77963e-06
-2.51513e-06
-8.43417e-06
-2.34926e-06
-8.52573e-06
-1.76993e-06
-7.80912e-06
-9.67606e-07
-6.17001e-06
-2.73046e-07
-3.76671e-06
-1.1846e-06
6.48218e-08
2.04693e-07
2.63839e-07
7.92672e-07
6.0327e-07
1.66985e-06
1.06552e-06
2.83476e-06
1.61218e-06
4.18514e-06
2.19548e-06
5.52214e-06
2.76665e-06
6.60001e-06
3.2817e-06
7.2025e-06
3.71161e-06
7.22805e-06
4.06623e-06
6.75302e-06
4.39132e-06
5.9848e-06
4.73934e-06
5.15287e-06
5.12743e-06
4.39737e-06
5.51985e-06
3.71956e-06
5.84001e-06
3.00172e-06
5.97748e-06
2.04949e-06
5.83085e-06
7.46827e-07
5.43281e-06
-3.91596e-07
4.86102e-06
-1.25804e-06
4.17996e-06
-1.96459e-06
3.43281e-06
-2.62416e-06
2.64589e-06
-3.31375e-06
1.84292e-06
-4.07603e-06
9.76319e-07
-4.93759e-06
5.76809e-08
-5.86741e-06
-8.37466e-07
-6.88448e-06
-1.48954e-06
-7.7821e-06
-1.73083e-06
-8.28444e-06
-1.50672e-06
-8.03322e-06
-9.24875e-07
-6.75186e-06
-2.88518e-07
-4.40307e-06
-1.47312e-06
4.12508e-08
1.63442e-07
1.76972e-07
6.56951e-07
4.28772e-07
1.41805e-06
8.05735e-07
2.4578e-06
1.29697e-06
3.69391e-06
1.87859e-06
4.94052e-06
2.51739e-06
5.96121e-06
3.17046e-06
6.54944e-06
3.79017e-06
6.60833e-06
4.34655e-06
6.19665e-06
4.84056e-06
5.49079e-06
5.2953e-06
4.69812e-06
5.7281e-06
3.96456e-06
6.12627e-06
3.32139e-06
6.43996e-06
2.68803e-06
6.58168e-06
1.90777e-06
6.47504e-06
8.53461e-07
6.15514e-06
-7.16982e-08
5.67642e-06
-7.79314e-07
5.08503e-06
-1.37321e-06
4.41642e-06
-1.95554e-06
3.69327e-06
-2.59061e-06
2.93052e-06
-3.31328e-06
2.12602e-06
-4.13309e-06
1.28654e-06
-5.02793e-06
3.71021e-07
-5.96896e-06
-4.96433e-07
-6.91465e-06
-1.0868e-06
-7.69407e-06
-1.20836e-06
-7.91166e-06
-8.69242e-07
-7.09098e-06
-3.12097e-07
-4.96021e-06
-1.78522e-06
1.08861e-08
1.52556e-07
6.39718e-08
6.03866e-07
2.03828e-07
1.27819e-06
4.74575e-07
2.18705e-06
8.92317e-07
3.27616e-06
1.45363e-06
4.37921e-06
2.13573e-06
5.2791e-06
2.89115e-06
5.79402e-06
3.65212e-06
5.84736e-06
4.35817e-06
5.4906e-06
4.97879e-06
4.87017e-06
5.51499e-06
4.16192e-06
5.98098e-06
3.49858e-06
6.38007e-06
2.9223e-06
6.68761e-06
2.38048e-06
6.84411e-06
1.75127e-06
6.79779e-06
8.9978e-07
6.5721e-06
1.54e-07
6.20458e-06
-4.11795e-07
5.7363e-06
-9.04927e-07
5.18619e-06
-1.40544e-06
4.56253e-06
-1.96694e-06
3.8687e-06
-2.61945e-06
3.1049e-06
-3.36928e-06
2.27597e-06
-4.199e-06
1.38699e-06
-5.07998e-06
4.52088e-07
-5.97975e-06
-3.90588e-07
-6.8514e-06
-8.56317e-07
-7.44593e-06
-7.89435e-07
-7.15786e-06
-3.43434e-07
-5.40622e-06
-2.12865e-06
-3.29376e-08
1.85494e-07
-8.57905e-08
6.56718e-07
-7.62401e-08
1.26864e-06
8.54512e-08
2.02536e-06
4.43439e-07
2.91817e-06
9.92822e-07
3.82983e-06
1.7117e-06
4.56023e-06
2.54389e-06
4.96184e-06
3.40238e-06
4.98887e-06
4.20763e-06
4.68535e-06
4.9126e-06
4.1652e-06
5.50693e-06
3.56759e-06
6.00372e-06
3.00178e-06
6.41723e-06
2.50879e-06
6.74206e-06
2.05566e-06
6.94185e-06
1.55148e-06
6.97293e-06
8.68708e-07
6.85308e-06
2.73844e-07
6.61421e-06
-1.72922e-07
6.28263e-06
-5.73352e-07
5.86423e-06
-9.87039e-07
5.35492e-06
-1.45763e-06
4.74674e-06
-2.01127e-06
4.03292e-06
-2.65546e-06
3.21509e-06
-3.38117e-06
2.3063e-06
-4.1712e-06
1.33491e-06
-5.00836e-06
3.56458e-07
-5.87294e-06
-4.19479e-07
-6.66999e-06
-6.63539e-07
-6.9138e-06
-3.74517e-07
-5.69524e-06
-2.50317e-06
-1.03162e-07
2.88656e-07
-2.8272e-07
8.36276e-07
-3.95803e-07
1.38172e-06
-3.22715e-07
1.95228e-06
6.17891e-09
2.58928e-06
5.65432e-07
3.27058e-06
1.32398e-06
3.80168e-06
2.21307e-06
4.07275e-06
3.13205e-06
4.06988e-06
3.9965e-06
3.8209e-06
4.75622e-06
3.40549e-06
5.39837e-06
2.92544e-06
5.93651e-06
2.46365e-06
6.39014e-06
2.05515e-06
6.76433e-06
1.68148e-06
7.03616e-06
1.27965e-06
7.15969e-06
7.45171e-07
7.14681e-06
2.86731e-07
7.02771e-06
-5.38254e-08
6.81799e-06
-3.63636e-07
6.51606e-06
-6.85112e-07
6.11113e-06
-1.05269e-06
5.58797e-06
-1.48811e-06
4.93265e-06
-2.00015e-06
4.13993e-06
-2.58845e-06
3.21906e-06
-3.25033e-06
2.19797e-06
-3.98727e-06
1.13089e-06
-4.80586e-06
1.36786e-07
-5.67589e-06
-4.56347e-07
-6.32067e-06
-3.86115e-07
-5.76547e-06
-2.88929e-06
-2.12065e-07
5.0072e-07
-5.20949e-07
1.14516e-06
-7.08507e-07
1.56928e-06
-6.63909e-07
1.90768e-06
-3.43173e-07
2.26854e-06
2.55778e-07
2.67163e-06
1.0674e-06
2.99005e-06
1.99765e-06
3.1425e-06
2.9518e-06
3.11573e-06
3.85383e-06
2.91886e-06
4.65834e-06
2.60098e-06
5.35299e-06
2.23078e-06
5.94892e-06
1.86772e-06
6.46337e-06
1.5407e-06
6.90257e-06
1.24228e-06
7.24855e-06
9.33666e-07
7.45085e-06
5.42867e-07
7.52045e-06
2.17135e-07
7.48842e-06
-2.17926e-08
7.36476e-06
-2.39976e-07
7.14666e-06
-4.67011e-07
6.82208e-06
-7.28118e-07
6.37336e-06
-1.03939e-06
5.78218e-06
-1.40896e-06
5.03556e-06
-1.84183e-06
4.13207e-06
-2.34684e-06
3.08804e-06
-2.94324e-06
1.94557e-06
-3.6634e-06
7.99089e-07
-4.52941e-06
-1.10988e-07
-5.41059e-06
-3.46367e-07
-5.53009e-06
-3.23565e-06
-3.4685e-07
8.4757e-07
-7.35904e-07
1.53421e-06
-8.92823e-07
1.7262e-06
-7.77211e-07
1.79206e-06
-3.91651e-07
1.88298e-06
2.63998e-07
2.01598e-06
1.12142e-06
2.13263e-06
2.07521e-06
2.18871e-06
3.04867e-06
2.14227e-06
3.97766e-06
1.98988e-06
4.82117e-06
1.75748e-06
5.56395e-06
1.488e-06
6.20948e-06
1.22219e-06
6.76752e-06
9.82667e-07
7.24146e-06
7.68326e-07
7.617e-06
5.58134e-07
7.84794e-06
3.11923e-07
7.95081e-06
1.14264e-07
7.95815e-06
-2.91336e-08
7.87831e-06
-1.60138e-07
7.71005e-06
-2.9875e-07
7.44263e-06
-4.60695e-07
7.05909e-06
-6.55849e-07
6.54e-06
-8.89877e-07
5.86704e-06
-1.16886e-06
5.02652e-06
-1.50632e-06
4.0147e-06
-1.93142e-06
2.84787e-06
-2.49657e-06
1.58791e-06
-3.26945e-06
4.1429e-07
-4.23697e-06
-2.12565e-07
-4.90323e-06
-3.44822e-06
-4.69322e-07
1.31689e-06
-7.50443e-07
1.81534e-06
-6.62016e-07
1.63777e-06
-3.22264e-07
1.45231e-06
2.20772e-07
1.33995e-06
9.50402e-07
1.28635e-06
1.81464e-06
1.2684e-06
2.75563e-06
1.24772e-06
3.71026e-06
1.18764e-06
4.62268e-06
1.07745e-06
5.45281e-06
9.27349e-07
6.18015e-06
7.60665e-07
6.80102e-06
6.01317e-07
7.32081e-06
4.62872e-07
7.74431e-06
3.44829e-07
8.06601e-06
2.36435e-07
8.25705e-06
1.2088e-07
8.33971e-06
3.16049e-08
8.3439e-06
-3.33229e-08
8.27721e-06
-9.34429e-08
8.1385e-06
-1.60043e-07
7.91825e-06
-2.40441e-07
7.60153e-06
-3.39129e-07
7.17055e-06
-4.58897e-07
6.60573e-06
-6.0404e-07
5.88538e-06
-7.85968e-07
4.98553e-06
-1.03157e-06
3.88375e-06
-1.39479e-06
2.58017e-06
-1.96587e-06
1.18296e-06
-2.83975e-06
1.13918e-07
-3.83419e-06
-3.3343e-06
-3.91672e-07
1.70856e-06
-3.1667e-08
1.45533e-06
6.33348e-07
9.72757e-07
1.31666e-06
7.68999e-07
2.02282e-06
6.3379e-07
2.77462e-06
5.34549e-07
3.5709e-06
4.72118e-07
4.39047e-06
4.2814e-07
5.19534e-06
3.82779e-07
5.9446e-06
3.28191e-07
6.60576e-06
2.66184e-07
7.16203e-06
2.04395e-07
7.61282e-06
1.50526e-07
7.96784e-06
1.07858e-07
8.23819e-06
7.4474e-08
8.42874e-06
4.58862e-08
8.53132e-06
1.8302e-08
8.56531e-06
-2.38078e-09
8.55015e-06
-1.81642e-08
8.49046e-06
-3.37527e-08
8.38314e-06
-5.27271e-08
8.21966e-06
-7.69576e-08
7.9881e-06
-1.0757e-07
7.67453e-06
-1.45329e-07
7.26247e-06
-1.91978e-07
6.72953e-06
-2.53034e-07
6.04105e-06
-3.43092e-07
5.14174e-06
-4.95476e-07
3.95226e-06
-7.76389e-07
2.40965e-06
-1.29714e-06
7.42808e-07
-2.16735e-06
-2.59149e-06
1.70856e-06
3.16389e-06
4.13665e-06
4.90565e-06
5.53944e-06
6.07399e-06
6.54611e-06
6.97425e-06
7.35703e-06
7.68522e-06
7.9514e-06
8.1558e-06
8.30632e-06
8.41418e-06
8.48865e-06
8.53454e-06
8.55284e-06
8.55046e-06
8.5323e-06
8.49854e-06
8.44582e-06
8.36886e-06
8.26129e-06
8.11596e-06
7.92398e-06
7.67095e-06
7.32786e-06
6.83238e-06
6.05599e-06
4.75885e-06
2.59149e-06
)
;

boundaryField
{
    movingWall
    {
        type            calculated;
        value           uniform 0;
    }
    fixedWalls
    {
        type            calculated;
        value           uniform 0;
    }
    floor
    {
        type            calculated;
        value           uniform 0;
    }
    frontAndBack
    {
        type            empty;
        value           nonuniform List<scalar> 0();
    }
}


// ************************************************************************* //
