/*--------------------------------*- C++ -*----------------------------------*\
| =========                 |                                                 |
| \\      /  F ield         | OpenFOAM: The Open Source CFD Toolbox           |
|  \\    /   O peration     | Version:  2212                                  |
|   \\  /    A nd           | Website:  www.openfoam.com                      |
|    \\/     M anipulation  |                                                 |
\*---------------------------------------------------------------------------*/
FoamFile
{
    version     2.0;
    format      ascii;
    arch        "LSB;label=64;scalar=64";
    class       volScalarField;
    location    "980";
    object      Saa;
}
// * * * * * * * * * * * * * * * * * * * * * * * * * * * * * * * * * * * * * //

dimensions      [1 -3 0 0 0 0 0];

internalField   nonuniform List<scalar> 
1024
(
0.0054629
0.00546293
0.00546302
0.00546317
0.00546341
0.00546374
0.00546418
0.00546469
0.00546525
0.00546583
0.00546638
0.00546686
0.00546722
0.00546736
0.00546726
0.00546689
0.00546629
0.00546558
0.00546487
0.00546416
0.00546345
0.00546275
0.00546208
0.00546146
0.0054609
0.00546044
0.00546007
0.0054598
0.00545962
0.0054595
0.00545944
0.00545941
0.00546291
0.00546294
0.00546303
0.00546318
0.00546343
0.00546377
0.00546421
0.00546473
0.0054653
0.00546588
0.00546643
0.00546691
0.00546726
0.00546741
0.0054673
0.00546692
0.00546632
0.00546562
0.0054649
0.00546419
0.00546348
0.00546279
0.00546212
0.00546149
0.00546093
0.00546046
0.00546009
0.00545981
0.00545963
0.00545951
0.00545944
0.00545941
0.00546292
0.00546296
0.00546305
0.00546321
0.00546346
0.00546382
0.00546427
0.0054648
0.00546538
0.00546597
0.00546653
0.00546702
0.00546738
0.00546752
0.00546739
0.005467
0.00546639
0.00546568
0.00546496
0.00546425
0.00546355
0.00546286
0.00546218
0.00546155
0.00546099
0.00546051
0.00546012
0.00545984
0.00545964
0.00545952
0.00545945
0.00545943
0.00546294
0.00546298
0.00546308
0.00546325
0.00546352
0.00546389
0.00546436
0.00546491
0.0054655
0.00546611
0.0054667
0.00546722
0.00546759
0.00546771
0.00546756
0.00546713
0.0054665
0.00546577
0.00546505
0.00546434
0.00546364
0.00546295
0.00546228
0.00546165
0.00546107
0.00546057
0.00546018
0.00545988
0.00545968
0.00545955
0.00545948
0.00545945
0.00546298
0.00546302
0.00546312
0.0054633
0.00546358
0.00546397
0.00546446
0.00546504
0.00546567
0.00546631
0.00546695
0.00546751
0.00546792
0.00546802
0.00546781
0.00546733
0.00546664
0.00546589
0.00546516
0.00546444
0.00546375
0.00546307
0.0054624
0.00546176
0.00546117
0.00546066
0.00546025
0.00545994
0.00545972
0.00545958
0.00545951
0.00545948
0.00546301
0.00546306
0.00546316
0.00546335
0.00546365
0.00546406
0.00546458
0.00546519
0.00546586
0.00546657
0.00546728
0.00546793
0.00546837
0.00546845
0.00546816
0.00546758
0.00546681
0.00546601
0.00546526
0.00546454
0.00546385
0.00546317
0.00546251
0.00546187
0.00546128
0.00546076
0.00546033
0.00546
0.00545977
0.00545962
0.00545954
0.00545951
0.00546305
0.0054631
0.00546321
0.0054634
0.00546371
0.00546414
0.00546469
0.00546534
0.00546608
0.00546688
0.00546771
0.00546846
0.00546896
0.00546901
0.00546861
0.00546789
0.005467
0.00546613
0.00546533
0.0054646
0.00546391
0.00546324
0.00546259
0.00546196
0.00546137
0.00546084
0.0054604
0.00546006
0.00545982
0.00545967
0.00545958
0.00545955
0.00546309
0.00546313
0.00546324
0.00546345
0.00546376
0.00546421
0.00546479
0.0054655
0.00546633
0.00546725
0.00546823
0.00546911
0.00546968
0.00546967
0.00546913
0.00546823
0.00546718
0.0054662
0.00546535
0.00546459
0.0054639
0.00546324
0.00546261
0.005462
0.00546142
0.00546089
0.00546045
0.0054601
0.00545986
0.0054597
0.00545962
0.00545958
0.00546312
0.00546316
0.00546327
0.00546348
0.0054638
0.00546426
0.00546488
0.00546565
0.00546659
0.00546768
0.00546883
0.00546988
0.00547049
0.00547041
0.00546969
0.00546857
0.00546733
0.00546621
0.00546528
0.00546448
0.00546378
0.00546314
0.00546253
0.00546194
0.00546138
0.00546088
0.00546045
0.00546011
0.00545987
0.00545972
0.00545963
0.0054596
0.00546313
0.00546317
0.00546328
0.00546349
0.00546382
0.0054643
0.00546495
0.00546581
0.00546689
0.00546817
0.00546955
0.00547075
0.00547139
0.0054712
0.00547027
0.0054689
0.00546743
0.00546614
0.0054651
0.00546425
0.00546353
0.00546289
0.00546231
0.00546176
0.00546124
0.00546077
0.00546038
0.00546007
0.00545984
0.0054597
0.00545962
0.00545959
0.00546312
0.00546317
0.00546328
0.00546349
0.00546382
0.00546432
0.00546503
0.00546599
0.00546724
0.00546876
0.00547039
0.00547177
0.0054724
0.00547205
0.00547089
0.00546925
0.00546753
0.00546604
0.00546484
0.00546389
0.00546313
0.00546249
0.00546194
0.00546144
0.00546098
0.00546057
0.00546022
0.00545995
0.00545976
0.00545963
0.00545956
0.00545952
0.00546309
0.00546314
0.00546326
0.00546347
0.00546382
0.00546435
0.00546513
0.00546623
0.0054677
0.00546952
0.00547145
0.00547298
0.00547357
0.00547304
0.00547165
0.0054698
0.00546784
0.00546608
0.00546466
0.00546354
0.00546266
0.00546198
0.00546144
0.00546099
0.00546059
0.00546026
0.00545998
0.00545976
0.0054596
0.00545949
0.00545943
0.0054594
0.00546305
0.0054631
0.00546322
0.00546345
0.00546382
0.00546441
0.0054653
0.00546659
0.00546836
0.00547054
0.00547279
0.00547447
0.00547501
0.00547434
0.00547285
0.00547092
0.00546881
0.00546678
0.00546501
0.00546356
0.00546242
0.00546157
0.00546094
0.00546048
0.00546013
0.00545986
0.00545964
0.00545949
0.00545937
0.0054593
0.00545926
0.00545925
0.00546301
0.00546306
0.0054632
0.00546345
0.00546388
0.00546456
0.00546561
0.00546717
0.00546933
0.00547196
0.00547456
0.00547637
0.00547692
0.00547629
0.00547499
0.0054733
0.00547129
0.00546914
0.00546703
0.00546509
0.00546344
0.00546212
0.00546113
0.00546044
0.00545997
0.00545967
0.0054595
0.00545942
0.0054594
0.00545942
0.00545945
0.00545947
0.00546303
0.00546309
0.00546324
0.00546354
0.00546405
0.00546488
0.00546618
0.00546813
0.00547078
0.0054739
0.00547685
0.00547885
0.00547958
0.00547938
0.00547874
0.00547782
0.0054765
0.00547477
0.00547278
0.00547067
0.00546859
0.00546668
0.00546503
0.00546371
0.00546274
0.00546209
0.00546175
0.00546164
0.0054617
0.00546182
0.00546193
0.005462
0.0054633
0.00546337
0.00546354
0.0054639
0.00546454
0.00546561
0.00546728
0.00546972
0.0054729
0.00547647
0.00547971
0.00548197
0.0054832
0.00548386
0.00548433
0.00548471
0.0054848
0.00548448
0.00548372
0.00548261
0.00548123
0.00547969
0.00547808
0.0054765
0.00547503
0.00547375
0.00547273
0.005472
0.00547156
0.00547136
0.00547129
0.00547129
0.00546399
0.00546405
0.00546423
0.00546463
0.00546536
0.00546659
0.00546848
0.00547117
0.00547457
0.00547831
0.00548178
0.00548449
0.0054864
0.00548786
0.00548921
0.00549052
0.00549171
0.00549267
0.00549334
0.00549376
0.00549392
0.0054938
0.00549339
0.00549272
0.00549181
0.00549073
0.00548959
0.00548851
0.0054876
0.00548694
0.00548656
0.00548641
0.0054649
0.00546495
0.0054651
0.00546545
0.00546614
0.00546733
0.00546916
0.00547173
0.00547497
0.00547856
0.00548203
0.00548497
0.00548724
0.00548901
0.00549051
0.00549181
0.00549287
0.00549373
0.00549449
0.00549523
0.00549594
0.00549658
0.0054971
0.00549746
0.00549762
0.00549756
0.0054973
0.00549688
0.00549641
0.00549598
0.00549568
0.00549554
0.00546586
0.00546588
0.00546598
0.00546625
0.00546681
0.00546781
0.00546941
0.00547168
0.00547458
0.00547788
0.0054812
0.00548417
0.0054866
0.0054885
0.00548998
0.00549112
0.00549189
0.00549245
0.005493
0.00549363
0.00549435
0.00549511
0.00549586
0.00549655
0.00549712
0.00549757
0.00549786
0.00549801
0.00549804
0.005498
0.00549794
0.0054979
0.00546685
0.00546684
0.00546688
0.00546704
0.00546744
0.00546821
0.00546949
0.00547139
0.00547387
0.00547678
0.00547983
0.0054827
0.00548517
0.00548716
0.00548869
0.00548981
0.00549053
0.00549103
0.00549154
0.00549218
0.00549298
0.0054939
0.00549487
0.0054958
0.00549661
0.00549726
0.00549772
0.00549803
0.0054982
0.00549829
0.00549832
0.00549832
0.00546785
0.00546782
0.0054678
0.00546786
0.00546809
0.00546863
0.0054696
0.0054711
0.00547315
0.00547562
0.00547832
0.00548098
0.00548339
0.00548543
0.00548706
0.00548832
0.00548919
0.00548982
0.00549043
0.00549113
0.00549199
0.00549299
0.00549407
0.00549517
0.00549617
0.005497
0.00549763
0.00549806
0.00549832
0.00549845
0.0054985
0.00549851
0.00546889
0.00546884
0.00546877
0.00546873
0.00546881
0.00546914
0.00546982
0.00547097
0.00547259
0.00547464
0.00547695
0.00547933
0.00548161
0.00548367
0.00548544
0.00548691
0.00548805
0.00548893
0.00548971
0.00549052
0.00549143
0.00549245
0.00549357
0.00549473
0.00549583
0.0054968
0.00549756
0.0054981
0.00549843
0.00549861
0.00549868
0.0054987
0.00547
0.00546993
0.00546981
0.00546967
0.00546962
0.00546975
0.00547019
0.00547102
0.00547229
0.00547395
0.0054759
0.00547801
0.00548016
0.00548223
0.00548415
0.00548587
0.0054873
0.00548844
0.0054894
0.00549032
0.00549127
0.00549229
0.00549339
0.00549453
0.00549566
0.00549668
0.00549752
0.00549815
0.00549855
0.00549877
0.00549886
0.00549888
0.00547126
0.00547117
0.00547098
0.00547075
0.00547056
0.00547052
0.00547074
0.00547132
0.00547229
0.00547365
0.00547534
0.00547726
0.00547933
0.00548143
0.00548348
0.00548542
0.0054871
0.00548844
0.00548953
0.00549052
0.00549147
0.00549246
0.00549349
0.00549457
0.00549565
0.00549666
0.00549753
0.00549821
0.00549866
0.00549892
0.00549904
0.00549906
0.00547278
0.00547265
0.00547239
0.00547206
0.00547173
0.00547153
0.00547157
0.00547196
0.00547274
0.00547392
0.00547546
0.0054773
0.00547934
0.00548148
0.00548362
0.00548569
0.0054875
0.00548894
0.00549009
0.00549108
0.005492
0.0054929
0.00549384
0.00549481
0.00549579
0.00549674
0.00549759
0.00549828
0.00549877
0.00549907
0.0054992
0.00549923
0.00547465
0.00547448
0.00547416
0.00547373
0.0054733
0.00547298
0.00547292
0.00547321
0.0054739
0.00547501
0.0054765
0.00547831
0.00548034
0.00548247
0.00548461
0.00548667
0.00548848
0.00548991
0.00549102
0.00549195
0.00549279
0.00549359
0.0054944
0.00549523
0.00549609
0.00549693
0.00549772
0.00549839
0.00549889
0.0054992
0.00549935
0.00549939
0.00547695
0.00547674
0.00547638
0.00547593
0.00547549
0.00547516
0.00547509
0.00547537
0.00547605
0.00547715
0.00547862
0.00548037
0.00548231
0.00548433
0.00548633
0.00548825
0.00548993
0.00549124
0.00549224
0.00549307
0.00549379
0.00549446
0.00549513
0.00549581
0.00549652
0.00549723
0.00549792
0.00549853
0.00549901
0.00549932
0.00549948
0.00549953
0.0054797
0.00547948
0.00547916
0.00547882
0.00547851
0.0054783
0.00547832
0.00547865
0.00547934
0.00548038
0.00548175
0.00548334
0.00548508
0.00548685
0.00548859
0.00549025
0.00549169
0.00549281
0.00549365
0.00549434
0.00549492
0.00549546
0.00549598
0.00549651
0.00549706
0.00549762
0.00549818
0.00549871
0.00549914
0.00549944
0.0054996
0.00549965
0.00548297
0.00548278
0.00548261
0.0054825
0.00548244
0.00548243
0.00548258
0.00548294
0.00548358
0.00548448
0.00548563
0.00548695
0.00548836
0.00548978
0.00549117
0.00549249
0.00549362
0.0054945
0.00549516
0.00549568
0.00549612
0.00549652
0.00549691
0.00549729
0.00549769
0.0054981
0.00549852
0.00549893
0.00549929
0.00549955
0.00549971
0.00549976
0.00548682
0.00548674
0.00548682
0.00548699
0.00548716
0.00548732
0.00548754
0.00548787
0.00548837
0.00548905
0.00548988
0.00549084
0.00549185
0.00549287
0.00549385
0.00549478
0.00549558
0.0054962
0.00549666
0.00549702
0.00549732
0.0054976
0.00549785
0.0054981
0.00549836
0.00549864
0.00549892
0.0054992
0.00549946
0.00549967
0.0054998
0.00549985
0.00549143
0.00549153
0.00549181
0.00549209
0.00549233
0.00549253
0.00549271
0.00549294
0.00549325
0.00549365
0.00549414
0.0054947
0.00549529
0.00549588
0.00549646
0.005497
0.00549746
0.00549782
0.00549809
0.00549829
0.00549847
0.00549862
0.00549876
0.0054989
0.00549905
0.00549919
0.00549935
0.00549951
0.00549967
0.0054998
0.00549988
0.00549992
0.005497
0.00549709
0.00549724
0.00549738
0.00549748
0.00549757
0.00549764
0.00549772
0.00549782
0.00549795
0.00549811
0.00549829
0.00549848
0.00549868
0.00549886
0.00549904
0.00549919
0.0054993
0.00549939
0.00549945
0.00549951
0.00549956
0.0054996
0.00549965
0.00549969
0.00549974
0.00549979
0.00549984
0.00549989
0.00549993
0.00549996
0.00549998
)
;

boundaryField
{
    movingWall
    {
        type            fixedValue;
        value           uniform 0.0055;
    }
    fixedWalls
    {
        type            zeroGradient;
    }
    floor
    {
        type            zeroGradient;
    }
    frontAndBack
    {
        type            empty;
    }
}


// ************************************************************************* //
