/*--------------------------------*- C++ -*----------------------------------*\
| =========                 |                                                 |
| \\      /  F ield         | OpenFOAM: The Open Source CFD Toolbox           |
|  \\    /   O peration     | Version:  2206                                  |
|   \\  /    A nd           | Website:  www.openfoam.com                      |
|    \\/     M anipulation  |                                                 |
\*---------------------------------------------------------------------------*/
FoamFile
{
    version     2.0;
    format      ascii;
    arch        "LSB;label=64;scalar=64";
    class       volVectorField;
    location    "676800";
    object      U;
}
// * * * * * * * * * * * * * * * * * * * * * * * * * * * * * * * * * * * * * //

dimensions      [0 1 -1 0 0 0 0];

internalField   nonuniform List<vector> 
16
(
(6.01907e-08 -5.14731e-08 0)
(1.4439e-07 -1.05157e-08 0)
(1.05093e-07 3.13417e-08 0)
(2.46194e-08 3.07452e-08 0)
(3.12499e-08 -1.53856e-07 0)
(6.60049e-08 -3.58359e-08 0)
(2.79739e-08 9.21124e-08 0)
(-1.59184e-09 9.70982e-08 0)
(-2.80287e-08 -1.47835e-07 0)
(-8.0859e-08 -5.12598e-09 0)
(-7.99845e-08 9.90987e-08 0)
(-2.92974e-08 5.52646e-08 0)
(-6.38985e-08 -4.68743e-08 0)
(-1.29008e-07 1.69717e-08 0)
(-5.34759e-08 3.78307e-08 0)
(7.05983e-09 -8.96843e-09 0)
)
;

boundaryField
{
    movingWall
    {
        type            noSlip;
    }
    fixedWalls
    {
        type            noSlip;
    }
    frontAndBack
    {
        type            empty;
    }
}


// ************************************************************************* //
