/*--------------------------------*- C++ -*----------------------------------*\
| =========                 |                                                 |
| \\      /  F ield         | OpenFOAM: The Open Source CFD Toolbox           |
|  \\    /   O peration     | Version:  2206                                  |
|   \\  /    A nd           | Website:  www.openfoam.com                      |
|    \\/     M anipulation  |                                                 |
\*---------------------------------------------------------------------------*/
FoamFile
{
    version     2.0;
    format      ascii;
    arch        "LSB;label=64;scalar=64";
    class       surfaceScalarField;
    location    "2.1/water";
    object      phi;
}
// * * * * * * * * * * * * * * * * * * * * * * * * * * * * * * * * * * * * * //

dimensions      [0 3 -1 0 0 0 0];

oriented        oriented;

internalField   nonuniform List<scalar> 
46280
(
1.15409373256e-09
-1.15414019856e-09
2.18729757164e-09
-1.03322413181e-09
3.05409653575e-09
-8.66860366067e-10
3.70281994997e-09
-6.48737467093e-10
4.12179606932e-09
-4.19038812499e-10
4.33080944713e-09
-2.09019546015e-10
4.33774175428e-09
-7.00093953396e-12
3.9585351435e-09
3.79208939144e-10
2.90449982755e-09
1.05396809929e-09
1.54653157862e-09
1.35798211628e-09
2.00406345807e-10
1.3460658011e-09
-1.14350804085e-09
1.34393940578e-09
-2.54579107972e-09
1.40223154915e-09
-4.04020661318e-09
1.49444964781e-09
-5.6348458744e-09
1.59459300713e-09
-7.32406155302e-09
1.68925585683e-09
-9.09691042083e-09
1.7728046877e-09
-1.09401119305e-08
1.84324513821e-09
-1.28402565973e-08
1.90010015542e-09
-1.4783746985e-08
1.94353582608e-09
-1.67577077957e-08
1.97391456348e-09
-1.87493510577e-08
1.99168956384e-09
-2.07467005547e-08
1.99730087391e-09
-2.27378753478e-08
1.99122150479e-09
-2.47118436343e-08
1.97391715468e-09
-2.66577114609e-08
1.94591465708e-09
-2.85655264568e-08
1.90776151424e-09
-3.04255641534e-08
1.86008448291e-09
-3.22291535352e-08
1.80353389295e-09
-3.39679350634e-08
1.73882807164e-09
-3.56346775649e-08
1.66668544171e-09
-3.72224934696e-08
1.58786203045e-09
-3.87256323499e-08
1.50308074567e-09
-4.01386577651e-08
1.41307087535e-09
-4.14572184589e-08
1.31850200113e-09
-4.26772040077e-08
1.22003011143e-09
-4.37955012781e-08
1.11823854691e-09
-4.48091483838e-08
1.01369048777e-09
-4.57160822334e-08
9.06875603883e-10
-4.65143065983e-08
7.98266319242e-10
-4.72026316498e-08
6.88267758642e-10
-4.77798662898e-08
5.77274903361e-10
-4.82455458397e-08
4.65623629949e-10
-4.85991538693e-08
3.53646405129e-10
-4.88408312923e-08
2.41623229206e-10
-4.89706310354e-08
1.29836048794e-10
-4.89892094681e-08
1.8526231291e-11
-4.88972039004e-08
-9.19714443913e-11
-4.86958824799e-08
-2.0137146168e-10
-4.83864135661e-08
-3.09437068403e-10
-4.79705435158e-08
-4.15917866744e-10
-4.74499971324e-08
-5.20516834604e-10
-4.68270952347e-08
-6.2294751967e-10
-4.61041758155e-08
-7.22892155238e-10
-4.52841718108e-08
-8.20047548761e-10
-4.4370064938e-08
-9.14081811235e-10
-4.33654281438e-08
-1.00467844944e-09
-4.22739100175e-08
-1.09149516808e-09
-4.10997425478e-08
-1.17420748116e-09
-3.98472517761e-08
-1.25246976847e-09
-3.8521331872e-08
-1.32595854913e-09
-3.71269771587e-08
-1.39433552286e-09
-3.56697241431e-08
-1.45729058876e-09
-3.41552000098e-08
-1.51450659155e-09
-3.25895345491e-08
-1.56570225163e-09
-3.09789200542e-08
-1.6105984713e-09
-2.93299948328e-08
-1.64896150383e-09
-2.76494093475e-08
-1.68057085565e-09
-2.59441822295e-08
-1.70526312887e-09
-2.42212672118e-08
-1.72290171611e-09
-2.24878812341e-08
-1.73342191583e-09
-2.0751066486e-08
-1.73680274252e-09
-1.90179884493e-08
-1.73311404953e-09
-1.72954866175e-08
-1.72249116287e-09
-1.55903374917e-08
-1.70518530752e-09
-1.39087854471e-08
-1.68154278729e-09
-1.22567604707e-08
-1.65206135142e-09
-1.06393747561e-08
-1.61737799566e-09
-9.06107285588e-09
-1.5783384161e-09
-7.52505921243e-09
-1.53600763024e-09
-6.03331505053e-09
-1.49178069192e-09
-4.58584060469e-09
-1.44747038391e-09
-3.1803237736e-09
-1.40555321568e-09
-1.81085920967e-09
-1.36946268605e-09
-4.66955517786e-10
-1.34393987071e-09
8.67239223534e-10
-1.33419518277e-09
2.20990097632e-09
-1.34269781521e-09
3.57648047424e-09
-1.36658224755e-09
4.9767828711e-09
-1.40033838193e-09
6.4160949855e-09
-1.43931699308e-09
7.89614581365e-09
-1.48008661733e-09
9.41615514533e-09
-1.52001604487e-09
1.09730999098e-08
-1.55698017659e-09
1.25622290945e-08
-1.5891374186e-09
1.41770557023e-08
-1.61486147434e-09
1.58097292353e-08
-1.63268299723e-09
1.74510070177e-08
-1.64131197762e-09
1.90906267563e-08
-1.63963020347e-09
2.07173235572e-08
-1.62673024517e-09
2.2319222265e-08
-1.60190999879e-09
2.3883888205e-08
-1.56469859156e-09
2.53987124196e-08
-1.51483621426e-09
2.68509613652e-08
-1.45228078857e-09
2.82281226435e-08
-1.37717390346e-09
2.95179258631e-08
-1.28983425121e-09
3.07086306067e-08
-1.19071793958e-09
3.17890087558e-08
-1.08040837103e-09
3.27485753407e-08
-9.59580306222e-10
3.35775410696e-08
-8.28995142177e-10
3.42670029863e-08
-6.89476126306e-10
3.48088888392e-08
-5.41914455833e-10
3.51961307131e-08
-3.87256536934e-10
3.54226152522e-08
-2.26512330599e-10
3.5483328063e-08
-6.07279007847e-11
3.53743150726e-08
1.08986007245e-10
3.50925146523e-08
2.81784918109e-10
3.46355388263e-08
4.56949638836e-10
3.40018937553e-08
6.33629152617e-10
3.31910116751e-08
8.10856662144e-10
3.22034146408e-08
9.87580675842e-10
3.10407252599e-08
1.16266469256e-09
2.97058133555e-08
1.334895074e-09
2.8202816279e-08
1.50297308383e-09
2.65372815104e-08
1.66551743065e-09
2.47162109019e-08
1.82104728391e-09
2.27482396851e-08
1.96795333019e-09
2.06438189477e-08
2.10439803714e-09
1.84157192234e-08
2.22808120678e-09
1.60800263529e-08
2.33567065134e-09
1.36584795426e-08
2.42152756318e-09
1.11835159349e-08
2.4749417458e-09
8.7087861897e-09
2.4747098057e-09
6.32729035275e-09
2.38147440034e-09
4.18686235882e-09
2.14040771818e-09
2.45867723096e-09
1.7281642055e-09
1.23476843341e-09
1.22388883308e-09
4.7037440056e-10
7.64375246006e-10
6.46469133314e-11
4.05709567221e-10
-5.75645466087e-11
1.22193619624e-10
-5.75693677103e-11
1.45862805624e-09
-2.61281407161e-09
2.8272449593e-09
-2.40187400728e-09
3.99184129482e-09
-2.03150918672e-09
4.88214113956e-09
-1.53906530743e-09
5.43095515325e-09
-9.67904449178e-10
5.52781907214e-09
-3.0590399543e-10
4.93137148848e-09
5.89395645633e-10
3.64910195741e-09
1.66146604563e-09
2.26857847374e-09
2.43444700347e-09
8.80288652885e-10
2.74626897984e-09
-6.19779946716e-10
2.84609772215e-09
-2.188701479e-09
2.912868046e-09
-3.80678124225e-09
3.02028239486e-09
-5.47789333339e-09
3.16557628716e-09
-7.2092684657e-09
3.32594430501e-09
-9.00322198999e-09
3.48322846049e-09
-1.08570070976e-08
3.62656817974e-09
-1.2763968838e-08
3.75022813599e-09
-1.47153247557e-08
3.85143455102e-09
-1.67007940351e-08
3.92902706073e-09
-1.87096034613e-08
3.98270138322e-09
-2.07305163048e-08
4.01262426487e-09
-2.27524711439e-08
4.01923145967e-09
-2.4764374454e-08
4.00314621637e-09
-2.67556195962e-08
3.96513629622e-09
-2.87157945468e-08
3.90611040753e-09
-3.06351660681e-08
3.8271053688e-09
-3.25043481064e-08
3.72928668118e-09
-3.43147687808e-08
3.6139254955e-09
-3.60583060946e-08
3.48238489099e-09
-3.77277338115e-08
3.33608295318e-09
-3.9316323371e-08
3.17647042963e-09
-4.08182641715e-08
3.00499055711e-09
-4.2228235258e-08
2.82306010238e-09
-4.35418013693e-08
2.63203664524e-09
-4.47549646029e-08
2.43321074092e-09
-4.58645425295e-08
2.22778487779e-09
-4.68677131721e-08
2.01687771905e-09
-4.77623821973e-08
1.80151318711e-09
-4.85467336991e-08
1.58263353523e-09
-4.92195914384e-08
1.36109450699e-09
-4.97799847717e-08
1.13768300637e-09
-5.02275059638e-08
9.13114498448e-10
-5.05618979582e-08
6.88052168435e-10
-5.07834092156e-08
4.63105043402e-10
-5.0892410457e-08
2.38850009627e-10
-5.0889752732e-08
1.58400627628e-11
-5.0776329596e-08
-2.0538294926e-10
-5.05534266163e-08
-4.24301794613e-10
-5.0222468393e-08
-6.40384785233e-10
-4.97853093419e-08
-8.53103189885e-10
-4.92439093408e-08
-1.06190747298e-09
-4.86006445968e-08
-1.26623748734e-09
-4.78580170488e-08
-1.46551148891e-09
-4.70189509205e-08
-1.65913796252e-09
-4.60865202998e-08
-1.84650535105e-09
-4.50642271127e-08
-2.02699510507e-09
-4.39557432023e-08
-2.19997310647e-09
-4.2765169064e-08
-2.36480444559e-09
-4.14967872241e-08
-2.52084670594e-09
-4.01553017066e-08
-2.66746641439e-09
-3.87455992924e-08
-2.80403406307e-09
-3.72729698277e-08
-2.92994211587e-09
-3.57428718069e-08
-3.04460172192e-09
-3.41611336363e-08
-3.1474623649e-09
-3.25337197327e-08
-3.23801043328e-09
-3.08669123929e-08
-3.31579084421e-09
-2.91670743351e-08
-3.38040789499e-09
-2.7440810181e-08
-3.43154947911e-09
-2.56947208934e-08
-3.46899090591e-09
-2.39355427355e-08
-3.49262260864e-09
-2.21698883171e-08
-3.50245800748e-09
-2.04043591175e-08
-3.49866622544e-09
-1.86452661117e-08
-3.48158601696e-09
-1.6898708529e-08
-3.45176641008e-09
-1.51702635821e-08
-3.40999066783e-09
-1.34650187614e-08
-3.35733028626e-09
-1.17872144744e-08
-3.29518641072e-09
-1.01402093661e-08
-3.22536826688e-09
-8.52605299341e-09
-3.15016947625e-09
-6.9453614993e-09
-3.07249754593e-09
-5.3968208998e-09
-2.99601800792e-09
-3.8770520388e-09
-2.92534804306e-09
-2.38036628415e-09
-2.86615721808e-09
-8.99475611587e-10
-2.82485708708e-09
5.73310687057e-10
-2.80699210291e-09
2.04577537933e-09
-2.81518959316e-09
3.52601540341e-09
-2.8468346456e-09
5.02137964026e-09
-2.89573012557e-09
6.53723316872e-09
-2.9551843958e-09
8.0763778427e-09
-3.0192590403e-09
9.6393109103e-09
-3.08296416715e-09
1.12243668701e-08
-3.14206391938e-09
1.28281079682e-08
-3.19289444776e-09
1.44454632267e-08
-3.23224438211e-09
1.60700518698e-08
-3.25728820117e-09
1.76942887405e-08
-3.26557623435e-09
1.93096757022e-08
-3.25503417586e-09
2.0906902088e-08
-3.22398368027e-09
2.24761215684e-08
-3.17114682038e-09
2.40070489178e-08
-3.09565260748e-09
2.54892144686e-08
-2.99701936346e-09
2.69120428699e-08
-2.8751354587e-09
2.82650709801e-08
-2.73021982636e-09
2.95379963279e-08
-2.5627854597e-09
3.07208512764e-08
-2.37359088776e-09
3.18040184208e-08
-2.16360096676e-09
3.27783634293e-08
-1.93394347998e-09
3.36352232725e-08
-1.68588001771e-09
3.43665067978e-08
-1.42077796072e-09
3.49646660733e-08
-1.14009833706e-09
3.54227763049e-08
-8.45385200281e-10
3.57345064774e-08
-5.38266669282e-10
3.58942196529e-08
-2.20459612608e-10
3.58969838305e-08
1.06198107549e-10
3.57387596808e-08
4.3999043568e-10
3.54161844147e-08
7.79501625332e-10
3.49267231582e-08
1.1230716727e-09
3.42686974029e-08
1.46885955651e-09
3.34414086693e-08
1.81485054149e-09
3.24451978402e-08
2.15885304587e-09
3.12815755085e-08
2.49849837155e-09
2.99532874412e-08
2.83123902624e-09
2.84644361849e-08
3.15434945338e-09
2.68205507492e-08
3.46491092405e-09
2.50287304403e-08
3.75975416898e-09
2.30978206191e-08
4.03528634227e-09
2.10388138604e-08
4.28706817776e-09
1.88655920879e-08
4.50887104447e-09
1.6596361276e-08
4.6907381447e-09
1.42559681148e-08
4.81531356005e-09
1.18788006445e-08
4.85185659723e-09
9.51076413245e-09
4.74948965106e-09
7.21325081887e-09
4.43790030736e-09
5.08468053403e-09
3.85671351939e-09
3.27064208389e-09
3.03790691239e-09
1.8718191702e-09
2.16317923913e-09
8.70827240054e-10
1.4066833736e-09
2.48623528213e-10
7.44379427735e-10
1.91049354328e-10
1.21810080989e-09
-3.83096633186e-09
2.35794187572e-09
-3.54175277089e-09
3.27460401982e-09
-2.9482267359e-09
3.83688056449e-09
-2.10137209882e-09
3.90925688227e-09
-1.04033301294e-09
3.39228500936e-09
2.11045512462e-10
2.448832396e-09
1.53280285417e-09
1.40877680993e-09
2.70150940542e-09
2.89684922837e-10
3.55349945275e-09
-1.02993422443e-09
4.0658868658e-09
-2.53433170381e-09
4.35046452605e-09
-4.17121586738e-09
4.54975962184e-09
-5.89127318643e-09
4.74031589333e-09
-7.66823462845e-09
4.94255162137e-09
-9.49285170114e-09
5.15054172843e-09
-1.1361617658e-08
5.35201208962e-09
-1.32714925034e-08
5.53642496725e-09
-1.52177513784e-08
5.69650629623e-09
-1.71940650914e-08
5.82772998587e-09
-1.91925191717e-08
5.9275007546e-09
-2.12043467158e-08
5.99450942149e-09
-2.32200053401e-08
6.02830213641e-09
-2.52298117979e-08
6.02901676719e-09
-2.72238718541e-08
5.9972249002e-09
-2.91926008675e-08
5.9338424533e-09
-3.11265447116e-08
5.84007215123e-09
-3.30168294225e-08
5.71736566162e-09
-3.48549108566e-08
5.56738531607e-09
-3.66329791345e-08
5.39196803968e-09
-3.83436580313e-08
5.19308029218e-09
-3.99803766001e-08
4.97277477218e-09
-4.15370315242e-08
4.73314120621e-09
-4.30083332716e-08
4.47626485068e-09
-4.4389442598e-08
4.20418460725e-09
-4.56762975736e-08
3.91886377959e-09
-4.68652356748e-08
3.62216335053e-09
-4.79533078011e-08
3.31582907498e-09
-4.89378969476e-08
3.00148064791e-09
-4.98170243426e-08
2.68061284495e-09
-5.05889743257e-08
2.35459654664e-09
-5.12525958885e-08
2.02468876566e-09
-5.18069409489e-08
1.69204027016e-09
-5.22515625788e-08
1.35770946404e-09
-5.25861716159e-08
1.02267255514e-09
-5.28109309775e-08
6.87838538498e-10
-5.29261317974e-08
3.54061267059e-10
-5.29324701364e-08
2.21534416003e-11
-5.2830736791e-08
-3.0710679377e-10
-5.26220768828e-08
-6.32985712996e-10
-5.23077507027e-08
-9.54702457033e-10
-5.18893965604e-08
-1.27148040769e-09
-5.13687634582e-08
-1.58253307672e-09
-5.0747967913e-08
-1.88705524135e-09
-5.00292522848e-08
-2.18422065796e-09
-4.92152309405e-08
-2.47318075511e-09
-4.83086648116e-08
-2.7530660487e-09
-4.73126925449e-08
-3.0229881997e-09
-4.62306170957e-08
-3.28204415256e-09
-4.50661206395e-08
-3.52932126737e-09
-4.382305995e-08
-3.76390398448e-09
-4.25056646823e-08
-3.9848817554e-09
-4.11183382704e-08
-4.1913580364e-09
-3.96658394634e-08
-4.38246087309e-09
-3.81530854359e-08
-4.55735423791e-09
-3.65853164042e-08
-4.71525138957e-09
-3.496789736e-08
-4.85542887365e-09
-3.33064652575e-08
-4.97724313504e-09
-3.16067255822e-08
-5.08014784274e-09
-2.98745810221e-08
-5.16371456339e-09
-2.81159186809e-08
-5.22765440359e-09
-2.63367183048e-08
-5.27184397011e-09
-2.45428255109e-08
-5.29635285685e-09
-2.27400363819e-08
-5.30147691556e-09
-2.09338511167e-08
-5.28777430282e-09
-1.91295300227e-08
-5.25610973674e-09
-1.73318210496e-08
-5.20770370875e-09
-1.55449811815e-08
-5.1441931317e-09
-1.37724734809e-08
-5.06769936051e-09
-1.20169550598e-08
-4.98091045072e-09
-1.027996023e-08
-4.8871709091e-09
-8.56190178095e-09
-4.79058056161e-09
-6.86185261099e-09
-4.69607537068e-09
-5.17778670784e-09
-4.60943930965e-09
-3.50686059087e-09
-4.53709331535e-09
-1.84634938594e-09
-4.48539440118e-09
-1.94127754316e-10
-4.45922557434e-09
1.45040168846e-09
-4.45974575129e-09
3.08894545363e-09
-4.48539195602e-09
4.72472871284e-09
-4.53154048609e-09
6.36050377955e-09
-4.59097442079e-09
7.99802814038e-09
-4.65681064572e-09
9.63763042031e-09
-4.72258246835e-09
1.12780968568e-08
-4.78255752691e-09
1.29168309824e-08
-4.83164534877e-09
1.45499183691e-08
-4.86535870409e-09
1.61723878107e-08
-4.87977492553e-09
1.77783113459e-08
-4.87152636751e-09
1.93610614226e-08
-4.83780187759e-09
2.09134031357e-08
-4.77635160179e-09
2.2427723748e-08
-4.68548529189e-09
2.38961052067e-08
-4.56405986878e-09
2.53105198314e-08
-4.41145202524e-09
2.6662877626e-08
-4.22751865263e-09
2.7945186008e-08
-4.01254639071e-09
2.91495711517e-08
-3.76719560992e-09
3.02684037225e-08
-3.49244177151e-09
3.12942971346e-08
-3.1895190009e-09
3.22202037686e-08
-2.85986854237e-09
3.30393950475e-08
-2.50509553671e-09
3.37455340943e-08
-2.12693553787e-09
3.43326439921e-08
-1.72723208879e-09
3.47951650861e-08
-1.30792490773e-09
3.5127923007e-08
-8.7104805122e-10
3.53261797934e-08
-4.1873508248e-10
3.5385581979e-08
4.67728585179e-11
3.53023946794e-08
5.23158990123e-10
3.50734749902e-08
1.00839864447e-09
3.46962307057e-08
1.50029713821e-09
3.41686319337e-08
1.99643602737e-09
3.34893001022e-08
2.4941634514e-09
3.26575505378e-08
2.99058064106e-09
3.16735042582e-08
3.48252558821e-09
3.05381648037e-08
3.96655680879e-09
2.92535634565e-08
4.43893156527e-09
2.78228928947e-08
4.8955600911e-09
2.6250733983e-08
5.33189363583e-09
2.45433356927e-08
5.74266346581e-09
2.27090643945e-08
6.12131974562e-09
2.07589973352e-08
6.45891703344e-09
1.87076428616e-08
6.74207247797e-09
1.65733394155e-08
6.94959590197e-09
1.43773686663e-08
7.04780681741e-09
1.2140733651e-08
6.98610358982e-09
9.88078558433e-09
6.69782769938e-09
7.62178990566e-09
6.11568841919e-09
5.44474053259e-09
5.21493597753e-09
3.50796606829e-09
4.09993482335e-09
1.91234347598e-09
3.00228796038e-09
6.8436062718e-10
1.97234444515e-09
8.75405203729e-10
5.08522570265e-10
-4.3395458393e-09
1.01038718941e-09
-4.04365867876e-09
1.28952684893e-09
-3.22742556838e-09
1.2334844913e-09
-2.04536457072e-09
8.24672482061e-10
-6.31573747611e-10
1.5476660418e-10
8.80929579548e-10
-6.45352160388e-10
2.33287524074e-09
-1.53846958643e-09
3.59461649727e-09
-2.566441754e-09
4.58143607719e-09
-3.78566760558e-09
5.28511236383e-09
-5.20934924861e-09
5.77411830192e-09
-6.7986782384e-09
6.13909763028e-09
-8.50554004984e-09
6.44715625188e-09
-1.02933300852e-08
6.73035684802e-09
-1.21395571997e-08
6.99675108015e-09
-1.40308673801e-08
7.24334082777e-09
-1.5958440905e-08
7.46398190538e-09
-1.79147716832e-08
7.65285695314e-09
-1.98925825643e-08
7.8055237526e-09
-2.1884043978e-08
7.91898215581e-09
-2.38810098238e-08
7.99145673827e-09
-2.5874831083e-08
8.02214290148e-09
-2.78568380277e-08
8.01100342784e-09
-2.98182065904e-08
7.95861225836e-09
-3.17504328326e-08
7.86604666558e-09
-3.36451424489e-08
7.73479980858e-09
-3.54945151553e-08
7.5667147702e-09
-3.72910297354e-08
7.36391720986e-09
-3.90278431479e-08
7.12875657162e-09
-4.06984855662e-08
6.86373934387e-09
-4.22972073648e-08
6.57147071778e-09
-4.38186413173e-08
6.25459114323e-09
-4.52581292872e-08
5.91572632936e-09
-4.66113662474e-08
5.55743691602e-09
-4.78747147721e-08
5.18218548824e-09
-4.90448422075e-08
4.79230548441e-09
-5.01190277384e-08
4.38998777311e-09
-5.10948013066e-08
3.97726823358e-09
-5.19702455887e-08
3.55603054221e-09
-5.27436432085e-08
3.12800745211e-09
-5.34137743275e-08
2.6947937854e-09
-5.39795769429e-08
2.25785538461e-09
-5.44404394662e-08
1.81854655613e-09
-5.47958770142e-08
1.37812176254e-09
-5.50458164874e-08
9.37753393618e-10
-5.51902873562e-08
4.98542907488e-10
-5.52296942361e-08
6.15365971539e-11
-5.51645252753e-08
-3.72265921117e-10
-5.49956108151e-08
-8.01922975718e-10
-5.47238723597e-08
-1.22643206919e-09
-5.43505763908e-08
-1.6447983012e-09
-5.38770862956e-08
-2.05601536279e-09
-5.33051083252e-08
-2.45905434088e-09
-5.26364612789e-08
-2.85286095516e-09
-5.18733098096e-08
-3.23635268587e-09
-5.1017949164e-08
-3.60842101575e-09
-5.00730240469e-08
-3.96793325699e-09
-4.90413248773e-08
-4.31373870641e-09
-4.79259911534e-08
-4.6446745792e-09
-4.67303159534e-08
-4.95957561133e-09
-4.54579334856e-08
-5.25728362621e-09
-4.4112628696e-08
-5.53666026342e-09
-4.2698509007e-08
-5.7965999519e-09
-4.12198159046e-08
-6.03604575369e-09
-3.96810809403e-08
-6.25400588695e-09
-3.80869361216e-08
-6.4495730474e-09
-3.64422540705e-08
-6.62194501244e-09
-3.47519540204e-08
-6.77044816593e-09
-3.30211257598e-08
-6.89456307225e-09
-3.12548280992e-08
-6.99395324807e-09
-2.9458195918e-08
-7.06849694299e-09
-2.76362282647e-08
-7.11832262754e-09
-2.579387778e-08
-7.14384883747e-09
-2.39358265118e-08
-7.14582867671e-09
-2.2066557881e-08
-7.12540054214e-09
-2.01901211907e-08
-7.08414458704e-09
-1.83101907159e-08
-7.02414658076e-09
-1.64298294649e-08
-6.94806601368e-09
-1.45515565479e-08
-6.8592071809e-09
-1.26771522955e-08
-6.76158195712e-09
-1.08078076568e-08
-6.65994986052e-09
-8.94409559842e-09
-6.55979582568e-09
-7.08637898963e-09
-6.46718140716e-09
-5.23512998243e-09
-6.38835248807e-09
-3.39156991086e-09
-6.32898071305e-09
-1.55782594197e-09
-6.2929815084e-09
2.63724788745e-10
-6.28132330834e-09
2.06969575718e-09
-6.2913765338e-09
3.85800786064e-09
-6.31987975285e-09
5.62877327056e-09
-6.36175478942e-09
7.38146231619e-09
-6.40952693209e-09
9.11525427286e-09
-6.45639040164e-09
1.08285179509e-08
-6.49584830282e-09
1.25188945838e-08
-6.5220386737e-09
1.41832052904e-08
-6.52969620972e-09
1.58176175917e-08
-6.51420439901e-09
1.74176788228e-08
-6.47161400384e-09
1.89785079928e-08
-6.39864853641e-09
2.0494836398e-08
-6.29270597783e-09
2.19611819632e-08
-6.15184856204e-09
2.3371875052e-08
-5.97477848584e-09
2.47212039995e-08
-5.7607988379e-09
2.60034219571e-08
-5.50976170944e-09
2.72128648479e-08
-5.22200727986e-09
2.83439425154e-08
-4.89829796494e-09
2.93912345197e-08
-4.53975189279e-09
3.03494700846e-08
-4.14777885788e-09
3.12136059643e-08
-3.72402264686e-09
3.19787983917e-08
-3.2703118678e-09
3.26404663414e-08
-2.78862180651e-09
3.31942584903e-08
-2.28104775371e-09
3.36361058033e-08
-1.749790618e-09
3.39621875764e-08
-1.19715294849e-09
3.41689761166e-08
-6.25542085476e-10
3.42531803323e-08
-3.74540885768e-11
3.42118735752e-08
5.64447224147e-10
3.40425788037e-08
1.17767107104e-09
3.37431407944e-08
1.79971654999e-09
3.33117181931e-08
2.42783664137e-09
3.27468336565e-08
3.05902928172e-09
3.20473856906e-08
3.69000693466e-09
3.12127318782e-08
4.31716054364e-09
3.02427499108e-08
4.93651738254e-09
2.91379784913e-08
5.54368394497e-09
2.78997646726e-08
6.13375277159e-09
2.65305100005e-08
6.70112905235e-09
2.50339540295e-08
7.23919851427e-09
2.34155476385e-08
7.73970660454e-09
2.16827845775e-08
8.19165925671e-09
1.98453192855e-08
8.57951782932e-09
1.79143508852e-08
8.8805434368e-09
1.5900595099e-08
9.06154220646e-09
1.38104514883e-08
9.07622633051e-09
1.16423863757e-08
8.86587236832e-09
9.39083646549e-09
8.36721764132e-09
7.07372278771e-09
7.53202949362e-09
4.79921515943e-09
6.37442374081e-09
2.74914000942e-09
5.05234519602e-09
1.05758528015e-09
3.66388146133e-09
1.93298574156e-09
-2.74820928421e-10
-4.06478717541e-09
-5.61015677875e-10
-3.75751011879e-09
-9.38055278049e-10
-2.85044962017e-09
-1.44420214798e-09
-1.53925218334e-09
-2.07710128631e-09
1.269030199e-12
-2.80124197733e-09
1.60504644948e-09
-3.60008520602e-09
3.13167456182e-09
-4.48857153033e-09
4.4830919701e-09
-5.50681653238e-09
5.59964506375e-09
-6.69562270427e-09
6.47392012946e-09
-8.06699029822e-09
7.14545972677e-09
-9.60179413818e-09
7.6739116544e-09
-1.12660939396e-08
8.1114363929e-09
-1.3026698853e-08
8.49097803183e-09
-1.48578425085e-08
8.82787851225e-09
-1.67408325141e-08
9.12635040985e-09
-1.86621117139e-08
9.38524578805e-09
-2.06108323431e-08
9.60159840196e-09
-2.25777087572e-08
9.77238411403e-09
-2.45539352142e-08
9.89522947784e-09
-2.65311165334e-08
9.96862043482e-09
-2.85008459497e-08
9.9918926483e-09
-3.04550160079e-08
9.9651540128e-09
-3.23855674981e-08
9.88918333946e-09
-3.42848803468e-08
9.76533823605e-09
-3.61455241309e-08
9.59546240855e-09
-3.79606374003e-08
9.38180517735e-09
-3.97236386203e-08
9.12693651573e-09
-4.1428577615e-08
8.83367142531e-09
-4.306980972e-08
8.50498885395e-09
-4.46423262436e-08
8.14396216047e-09
-4.6141406064e-08
7.75368773159e-09
-4.75629350552e-08
7.33722964194e-09
-4.89030483864e-08
6.89756638756e-09
-5.01584451803e-08
6.43755633538e-09
-5.13260307337e-08
5.95990654271e-09
-5.24032285546e-08
5.46715968216e-09
-5.33876283871e-08
4.96168289598e-09
-5.42772952168e-08
4.44567176242e-09
-5.50704271019e-08
3.92115344108e-09
-5.57656595608e-08
3.39000115809e-09
-5.63617360608e-08
2.85394519463e-09
-5.68578056506e-08
2.31459175626e-09
-5.72531078002e-08
1.77343637092e-09
-5.75472601905e-08
1.23188221078e-09
-5.77399567394e-08
6.91251002646e-10
-5.78312398617e-08
1.52797028841e-10
-5.78212128586e-08
-3.8228234615e-10
-5.77103391621e-08
-9.12818479699e-10
-5.74991337549e-08
-1.43762793424e-09
-5.7188431104e-08
-1.95552193748e-09
-5.67791458443e-08
-2.46529216741e-09
-5.62725179222e-08
-2.96570253381e-09
-5.56698847123e-08
-3.45548683563e-09
-5.49729111158e-08
-3.93334597866e-09
-5.41833757241e-08
-4.39795021707e-09
-5.33033864759e-08
-4.84794178821e-09
-5.2335177969e-08
-5.28194216075e-09
-5.12813119343e-08
-5.69855965472e-09
-5.01444826152e-08
-6.09640099279e-09
-4.89277019665e-08
-6.47408324564e-09
-4.76341101661e-08
-6.83024921079e-09
-4.62671458464e-08
-7.16358333719e-09
-4.48303589764e-08
-7.47283081446e-09
-4.33275666407e-08
-7.75681753613e-09
-4.1762665707e-08
-8.01447318028e-09
-4.01397747505e-08
-8.24485566709e-09
-3.84630442478e-08
-8.44717884539e-09
-3.67367853409e-08
-8.62084218306e-09
-3.49652758613e-08
-8.76546387324e-09
-3.31528769649e-08
-8.88091665417e-09
-3.13038344626e-08
-8.96736725936e-09
-2.94223854443e-08
-9.02531937295e-09
-2.75125568917e-08
-9.05566039491e-09
-2.55782674196e-08
-9.05971230692e-09
-2.36231306931e-08
-9.03928560053e-09
-2.16505647329e-08
-8.99673565968e-09
-1.96636196472e-08
-8.93501663208e-09
-1.76651235688e-08
-8.85772722441e-09
-1.56575793289e-08
-8.76913313069e-09
-1.3643408109e-08
-8.67414588358e-09
-1.16249938142e-08
-8.57821862313e-09
-9.60509300495e-09
-8.48710781261e-09
-7.58702204643e-09
-8.40643363746e-09
-5.57502751453e-09
-8.34100153572e-09
-3.57406808766e-09
-8.29395281581e-09
-1.58943772652e-09
-8.26598048496e-09
3.74197883827e-10
-8.25502557122e-09
2.31054462582e-09
-8.25625359699e-09
4.21493878284e-09
-8.26616365241e-09
6.08542526115e-09
-8.28004054647e-09
7.91939512571e-09
-8.29037595251e-09
9.71447022553e-09
-8.29095036402e-09
1.14681027533e-08
-8.27568759286e-09
1.31774236103e-08
-8.23904370442e-09
1.48393659543e-08
-8.1761636184e-09
1.64505974167e-08
-8.0828716913e-09
1.80076481938e-08
-7.95571651698e-09
1.950688106e-08
-7.79196461693e-09
2.09446058231e-08
-7.58959075606e-09
2.23170525689e-08
-7.34725054722e-09
2.36204711297e-08
-7.06423500035e-09
2.48510976187e-08
-6.74041307008e-09
2.60052388484e-08
-6.37616625131e-09
2.70792359949e-08
-5.97231955894e-09
2.80695390647e-08
-5.53007282794e-09
2.89726707601e-08
-5.05093459323e-09
2.9785292777e-08
-4.53666263907e-09
3.05041703481e-08
-3.98921308115e-09
3.11262309306e-08
-3.41070045985e-09
3.16485293007e-08
-2.80336936972e-09
3.20682992087e-08
-2.16957867531e-09
3.23829200881e-08
-1.51179667631e-09
3.25899643961e-08
-8.32604609481e-10
3.2687200723e-08
-1.34712867718e-10
3.26726046157e-08
5.79025052545e-10
3.25443914549e-08
1.30586216587e-09
3.23009920534e-08
2.04309759256e-09
3.19409798363e-08
2.78782714528e-09
3.14630962668e-08
3.53689437306e-09
3.08662367547e-08
4.28684503819e-09
3.01495064593e-08
5.03387219814e-09
2.93122541177e-08
5.77374858142e-09
2.83541838117e-08
6.50173541354e-09
2.72754693337e-08
7.21244635067e-09
2.6076952706e-08
7.89962662781e-09
2.47603479446e-08
8.55578259014e-09
2.33284706392e-08
9.17156457934e-09
2.1785329655e-08
9.73477963945e-09
2.01359102098e-08
1.0228917538e-08
1.83852546702e-08
1.06311783105e-08
1.65364966812e-08
1.09102800759e-08
1.45878531889e-08
1.10248491444e-08
1.25299317237e-08
1.09237734887e-08
1.03472015856e-08
1.05499273435e-08
8.03130269012e-09
9.84790834699e-09
5.62692629284e-09
8.77878148947e-09
3.30958788301e-09
7.36966586365e-09
1.31768705565e-09
5.65576470802e-09
3.250668092e-09
-8.36531786863e-10
-3.22832070492e-09
-1.68974210821e-09
-2.90434690639e-09
-2.54360760711e-09
-1.99664969153e-09
-3.40394898104e-09
-6.78950012105e-10
-4.27419452309e-09
8.71458662453e-10
-5.15619010492e-09
2.48701905117e-09
-6.07193407205e-09
4.04737118852e-09
-7.05222311223e-09
5.46337133895e-09
-8.13588026882e-09
6.6832687626e-09
-9.3564408503e-09
7.69448178393e-09
-1.07286330876e-08
8.51762688825e-09
-1.22453714581e-08
9.190661024e-09
-1.38858476037e-08
9.75189403443e-09
-1.56249188237e-08
1.02300665323e-08
-1.7439468891e-08
1.0642413575e-08
-1.93102260224e-08
1.09971281658e-08
-2.12218227137e-08
1.12968283428e-08
-2.31615495095e-08
1.15413470876e-08
-2.51186953601e-08
1.17295150072e-08
-2.70835781773e-08
1.18601342383e-08
-2.90474262323e-08
1.19324518726e-08
-3.10018564095e-08
1.19463442405e-08
-3.29390823592e-08
1.19023614187e-08
-3.48515719507e-08
1.18016936049e-08
-3.67323646565e-08
1.16461105416e-08
-3.8574761029e-08
1.14378786835e-08
-4.03726565393e-08
1.11796786753e-08
-4.21202142723e-08
1.08745134209e-08
-4.38121902767e-08
1.05256241351e-08
-4.54435852865e-08
1.01364023604e-08
-4.7009962574e-08
9.71031522802e-09
-4.85070884758e-08
9.25083149289e-09
-4.99312486735e-08
8.7613650529e-09
-5.12788875302e-08
8.24522247919e-09
-5.25469258344e-08
7.70556962288e-09
-5.37324053899e-08
7.14540269158e-09
-5.48328076181e-08
6.56753697094e-09
-5.58457069503e-08
5.97459813813e-09
-5.6769087639e-08
5.36902785086e-09
-5.76010081033e-08
4.75308906743e-09
-5.83399127462e-08
4.12888175225e-09
-5.89843088581e-08
3.49835564578e-09
-5.95330703602e-08
2.86332991693e-09
-5.9985128402e-08
2.22550785753e-09
-6.03397641515e-08
1.58649542753e-09
-6.05963136093e-08
9.47812944018e-10
-6.075444063e-08
3.10902370444e-10
-6.08138430941e-08
-3.22868428236e-10
-6.07746052269e-08
-9.52077192872e-10
-6.06368166814e-08
-1.57540613034e-09
-6.04008651174e-08
-2.19149359773e-09
-6.00672044184e-08
-2.7989436845e-09
-5.96365990199e-08
-3.39632740503e-09
-5.91098964458e-08
-3.98218143867e-09
-5.84882566216e-08
-4.55500480827e-09
-5.77729388491e-08
-5.11326124931e-09
-5.6965516452e-08
-5.65538289341e-09
-5.60676745641e-08
-6.17977853604e-09
-5.50814097901e-08
-6.68484301558e-09
-5.4008835972e-08
-7.16897050403e-09
-5.2852369084e-08
-7.63056876913e-09
-5.16145383322e-08
-8.06807682495e-09
-5.02981569675e-08
-8.4799835458e-09
-4.8906136398e-08
-8.86484937226e-09
-4.74416439694e-08
-9.22132915898e-09
-4.59079182011e-08
-9.54819801909e-09
-4.4308414896e-08
-9.8443786417e-09
-4.26466222431e-08
-1.01089716163e-08
-4.0926197053e-08
-1.03412876221e-08
-3.91507794799e-08
-1.05408825943e-08
-3.73241219809e-08
-1.07075950702e-08
-3.54499051582e-08
-1.08415862691e-08
-3.35318637903e-08
-1.09433823967e-08
-3.15736085549e-08
-1.1013918897e-08
-2.95787572276e-08
-1.10545860827e-08
-2.75507731146e-08
-1.10672741345e-08
-2.54931166792e-08
-1.10544153653e-08
-2.34091215693e-08
-1.10190174208e-08
-2.13021929241e-08
-1.09646799638e-08
-1.91757541727e-08
-1.0895578944e-08
-1.70335257687e-08
-1.08163991762e-08
-1.48795691804e-08
-1.07321837794e-08
-1.27186340571e-08
-1.06480685532e-08
-1.05562068938e-08
-1.05688709523e-08
-8.39869170064e-09
-1.04985429605e-08
-6.253094463e-09
-1.04395617703e-08
-4.12667259742e-09
-1.03924290318e-08
-2.02625292524e-09
-1.03554583946e-08
4.26999660932e-11
-1.03252334084e-08
2.07234161046e-09
-1.02958196586e-08