/*--------------------------------*- C++ -*----------------------------------*\
| =========                 |                                                 |
| \\      /  F ield         | OpenFOAM: The Open Source CFD Toolbox           |
|  \\    /   O peration     | Version:  2212                                  |
|   \\  /    A nd           | Website:  www.openfoam.com                      |
|    \\/     M anipulation  |                                                 |
\*---------------------------------------------------------------------------*/
FoamFile
{
    version     2.0;
    format      ascii;
    arch        "LSB;label=64;scalar=64";
    class       volScalarField::Internal;
    location    "1780";
    object      dGco2;
}
// * * * * * * * * * * * * * * * * * * * * * * * * * * * * * * * * * * * * * //

dimensions      [1 -3 -1 0 0 0 0];

value           nonuniform List<scalar> 
1024
(
0.000159817
0.000159875
0.000160017
0.000160278
0.0001607
0.000161332
0.000162224
0.000163418
0.000164935
0.000166762
0.000168846
0.000171091
0.000173372
0.000175562
0.000177542
0.000179197
0.000180275
0.000180603
0.000180269
0.000179412
0.000178165
0.00017666
0.00017504
0.000173448
0.000172013
0.000170816
0.000169887
0.000169213
0.000168757
0.000168473
0.000168318
0.000168255
0.000159835
0.000159893
0.000160037
0.0001603
0.000160727
0.000161365
0.000162266
0.00016347
0.000164997
0.000166835
0.000168927
0.000171177
0.000173461
0.000175651
0.000177631
0.000179286
0.000180368
0.000180701
0.00018037
0.000179512
0.000178262
0.000176753
0.000175126
0.000173525
0.000172078
0.000170868
0.000169927
0.000169245
0.000168783
0.000168496
0.00016834
0.000168276
0.000159879
0.000159938
0.000160085
0.000160354
0.00016079
0.000161442
0.000162362
0.000163588
0.00016514
0.000167001
0.000169111
0.000171372
0.000173662
0.000175854
0.000177836
0.000179499
0.000180594
0.00018094
0.000180615
0.000179749
0.000178482
0.000176954
0.000175306
0.000173682
0.00017221
0.000170976
0.000170014
0.000169316
0.000168843
0.00016855
0.000168391
0.000168327
0.000159958
0.000160019
0.000160171
0.000160449
0.0001609
0.000161575
0.000162525
0.000163789
0.000165381
0.000167279
0.00016942
0.000171701
0.000174001
0.000176199
0.000178191
0.000179874
0.000181002
0.000181379
0.000181061
0.000180171
0.000178858
0.000177279
0.000175586
0.000173922
0.000172412
0.000171143
0.000170152
0.000169433
0.000168947
0.000168647
0.000168484
0.000168419
0.000160083
0.000160147
0.000160305
0.000160596
0.000161068
0.000161776
0.000162769
0.000164087
0.000165736
0.00016769
0.000169875
0.000172187
0.000174505
0.000176719
0.000178735
0.000180462
0.000181654
0.000182087
0.000181777
0.000180835
0.00017943
0.000177753
0.000175976
0.000174243
0.000172679
0.000171367
0.000170344
0.000169602
0.000169104
0.000168797
0.000168633
0.000168567
0.000160265
0.000160332
0.000160497
0.000160805
0.000161305
0.000162055
0.000163106
0.000164494
0.000166221
0.000168247
0.000170494
0.00017285
0.000175201
0.000177447
0.000179512
0.000181319
0.00018262
0.00018314
0.00018284
0.000181813
0.000180256
0.000178413
0.000176493
0.000174654
0.000173015
0.000171652
0.000170597
0.000169837
0.000169331
0.000169023
0.00016886
0.000168795
0.000160513
0.000160583
0.000160758
0.000161085
0.00016162
0.000162421
0.000163544
0.000165019
0.000166841
0.000168962
0.000171289
0.000173708
0.000176112
0.000178416
0.000180566
0.000182503
0.000183967
0.000184614
0.000184327
0.000183185
0.000181414
0.000179326
0.000177188
0.000175189
0.000173446
0.000172023
0.000170938
0.000170168
0.000169663
0.000169362
0.000169207
0.000169147
0.000160835
0.000160909
0.000161095
0.000161444
0.000162017
0.000162878
0.000164084
0.000165662
0.0001676
0.000169836
0.000172266
0.000174774
0.000177258
0.000179657
0.000181938
0.00018406
0.000185748
0.000186565
0.000186311
0.000185047
0.000183022
0.000180615
0.000178176
0.000175946
0.000174057
0.000172557
0.000171442
0.000170672
0.000170181
0.000169898
0.000169758
0.000169707
0.000161237
0.000161314
0.000161511
0.000161883
0.000162498
0.000163425
0.000164723
0.000166418
0.00016849
0.000170863
0.000173423
0.000176048
0.000178649
0.000181182
0.00018364
0.000186002
0.000187967
0.000189011
0.00018885
0.000187519
0.000185267
0.000182515
0.000179705
0.000177161
0.000175062
0.000173449
0.000172292
0.000171522
0.000171053
0.000170799
0.000170683
0.000170647
0.000161719
0.000161799
0.000162006
0.000162402
0.000163059
0.000164055
0.000165451
0.000167273
0.000169494
0.000172025
0.000174741
0.000177516
0.000180265
0.000182966
0.000185634
0.000188266
0.00019055
0.000191899
0.000191967
0.000190739
0.000188419
0.000185418
0.000182239
0.000179314
0.000176915
0.000175118
0.000173873
0.000173081
0.000172626
0.0001724
0.000172311
0.00017229
0.000162277
0.00016236
0.000162576
0.000162993
0.000163691
0.000164754
0.000166248
0.000168202
0.000170581
0.000173286
0.000176177
0.000179121
0.000182035
0.000184911
0.000187782
0.000190671
0.000193288
0.000195051
0.000195579
0.00019478
0.000192749
0.000189813
0.000186465
0.000183215
0.000180446
0.000178345
0.000176903
0.000176008
0.000175516
0.000175288
0.00017521
0.000175199
0.000162901
0.000162986
0.00016321
0.000163645
0.000164378
0.0001655
0.000167085
0.000169163
0.000171696
0.000174572
0.000177637
0.000180742
0.000183798
0.0001868
0.0001898
0.000192855
0.000195766
0.000198053
0.000199333
0.000199413
0.000198227
0.000195939
0.000192928
0.000189684
0.000186668
0.000184205
0.000182421
0.00018127
0.000180616
0.0001803
0.000180182
0.000180158
0.000163572
0.000163658
0.000163887
0.000164333
0.00016509
0.000166256
0.000167909
0.000170084
0.00017274
0.000175756
0.000178954
0.000182162
0.000185275
0.000188277
0.000191229
0.000194251
0.000197307
0.00020013
0.000202374
0.000203736
0.000203978
0.000203057
0.000201151
0.000198606
0.000195848
0.000193275
0.000191176
0.000189664
0.000188706
0.000188179
0.00018794
0.000187866
0.000164253
0.00016434
0.000164569
0.000165017
0.000165779
0.000166957
0.000168635
0.000170851
0.000173563
0.000176638
0.000179876
0.000183073
0.000186086
0.000188872
0.000191495
0.000194149
0.000197033
0.000200199
0.000203366
0.000206133
0.000208101
0.000209039
0.000208911
0.00020786
0.000206161
0.000204164
0.000202216
0.000200583
0.000199393
0.000198643
0.00019825
0.000198104
0.000164884
0.000164969
0.000165193
0.000165629
0.000166368
0.000167511
0.000169145
0.00017131
0.000173966
0.000176972
0.000180109
0.000183131
0.000185841
0.00018815
0.00019011
0.000191981
0.000194236
0.000197344
0.000201134
0.000205102
0.000208699
0.000211522
0.000213367
0.000214208
0.00021416
0.000213447
0.00021236
0.000211192
0.000210176
0.000209439
0.000209002
0.00020882
0.000165368
0.000165451
0.000165664
0.000166069
0.00016675
0.000167798
0.000169298
0.000171291
0.000173743
0.000176519
0.000179389
0.000182071
0.000184309
0.000185948
0.000186999
0.000187755
0.000188949
0.000191528
0.000195521
0.000200373
0.000205375
0.000209917
0.000213608
0.000216275
0.000217926
0.000218693
0.000218793
0.000218483
0.00021801
0.000217565
0.000217254
0.000217107
0.000165564
0.000165644
0.00016584
0.000166205
0.000166805
0.000167717
0.000169015
0.000170741
0.000172871
0.000175289
0.000177776
0.000180042
0.000181791
0.000182802
0.000183022
0.000182708
0.000182727
0.000184403
0.000188085
0.000193359
0.000199465
0.000205581
0.000211039
0.00021544
0.000218648
0.000220729
0.000221876
0.000222343
0.000222396
0.000222264
0.000222108
0.000222017
0.000165441
0.000165517
0.000165699
0.000166027
0.000166552
0.000167334
0.000168431
0.000169882
0.000171676
0.000173717
0.000175817
0.000177708
0.000179092
0.00017972
0.000179488
0.000178592
0.000177889
0.000178778
0.000181821
0.000186895
0.000193444
0.000200638
0.00020759
0.000213612
0.00021833
0.000221666
0.000223763
0.000224888
0.000225351
0.000225443
0.000225387
0.000225325
0.000165097
0.00016517
0.000165341
0.000165641
0.000166107
0.000166783
0.000167715
0.000168933
0.000170431
0.000172135
0.000173893
0.000175475
0.000176614
0.000177068
0.00017672
0.00017572
0.000174871
0.000175457
0.000178046
0.0001827
0.000189117
0.000196661
0.000204456
0.000211652
0.000217637
0.00022213
0.000225154
0.000226935
0.000227803
0.000228102
0.000228128
0.000228085
0.000164637
0.000164705
0.000164863
0.000165136
0.000165553
0.000166146
0.000166947
0.000167976
0.000169227
0.000170644
0.000172104
0.000173426
0.000174391
0.000174799
0.000174553
0.0001738
0.000173259
0.000173991
0.000176458
0.000180789
0.000186853
0.00019424
0.000202259
0.000210075
0.000216935
0.000222366
0.000226227
0.00022865
0.000229938
0.000230463
0.000230578
0.000230554
0.000164208
0.000164264
0.000164397
0.00016463
0.000164989
0.000165501
0.000166188
0.00016706
0.000168107
0.000169282
0.000170494
0.000171607
0.000172467
0.000172938
0.000172976
0.000172747
0.000172853
0.000174049
0.000176648
0.000180799
0.000186486
0.000193464
0.000201246
0.000209157
0.000216454
0.000222534
0.000227085
0.000230101
0.000231813
0.000232581
0.000232797
0.000232795
0.000164047
0.000164077
0.000164157
0.000164312
0.000164574
0.000164974
0.000165532
0.000166255
0.000167127
0.000168111
0.000169142
0.000170138
0.000171013
0.000171705
0.000172224
0.000172756
0.000173731
0.000175559
0.000178406
0.000182432
0.000187714
0.000194158
0.000201437
0.00020904
0.000216348
0.000222751
0.000227802
0.000231331
0.000233452
0.000234478
0.000234809
0.000234834
0.000164487
0.000164469
0.00016445
0.000164465
0.00016456
0.000164783
0.000165169
0.00016573
0.000166456
0.000167321
0.000168294
0.000169339
0.000170429
0.000171553
0.000172753
0.000174198
0.00017611
0.000178575
0.000181652
0.000185522
0.000190338
0.000196131
0.000202729
0.000209762
0.000216743
0.000223139
0.000228458
0.000232385
0.000234882
0.000236171
0.000236632
0.000236689
0.000165898
0.000165806
0.00016564
0.000165448
0.000165303
0.000165284
0.000165457
0.000165861
0.000166505
0.000167383
0.000168485
0.000169807
0.00017134
0.000173086
0.000175074
0.000177426
0.000180164
0.000183121
0.000186308
0.000189939
0.000194215
0.00019926
0.000205034
0.00021131
0.000217719
0.000223823
0.000229157
0.000233324
0.000236133
0.000237677
0.000238279
0.000238375
0.000168606
0.000168416
0.000168069
0.000167641
0.000167241
0.000166986
0.000166984
0.000167311
0.000168005
0.000169073
0.000170508
0.000172295
0.00017441
0.000176824
0.000179531
0.000182595
0.000185887
0.000189095
0.00019222
0.00019551
0.00019919
0.000203436
0.0002083
0.000213679
0.00021933
0.000224912
0.000230017
0.00023423
0.000237247
0.000239015
0.000239761
0.000239904
0.000172832
0.00017253
0.000172012
0.000171408
0.000170865
0.000170521
0.000170505
0.000170928
0.000171842
0.000173248
0.000175117
0.000177402
0.000180039
0.000182965
0.000186134
0.000189571
0.000193063
0.000196249
0.000199143
0.000202005
0.000205065
0.000208511
0.000212446
0.000216858
0.000221617
0.000226489
0.000231147
0.000235197
0.000238278
0.000240208
0.00024109
0.000241286
0.00017869
0.000178282
0.000177678
0.000177086
0.000176658
0.000176505
0.000176726
0.000177433
0.000178672
0.000180424
0.000182641
0.000185246
0.000188151
0.00019127
0.00019454
0.000197964
0.000201309
0.000204229
0.000206756
0.000209138
0.000211588
0.000214279
0.00021733
0.00022078
0.000224584
0.000228611
0.000232633
0.000236317
0.000239291
0.000241286
0.000242275
0.000242527
0.00018624
0.00018577
0.000185268
0.000184986
0.000185002
0.00018532
0.000185972
0.000187036
0.000188539
0.000190469
0.000192777
0.000195386
0.000198206
0.000201153
0.000204166
0.000207238
0.000210158
0.000212636
0.00021471
0.000216594
0.00021847
0.000220482
0.000222737
0.000225297
0.000228164
0.000231287
0.000234535
0.000237669
0.000240357
0.000242287
0.000243329
0.000243631
0.000195585
0.000195163
0.000195044
0.000195368
0.000196023
0.000196894
0.000197952
0.000199241
0.000200794
0.000202624
0.000204708
0.00020699
0.0002094
0.000211871
0.000214351
0.000216835
0.000219154
0.000221085
0.000222666
0.000224065
0.000225421
0.000226842
0.000228415
0.000230197
0.000232212
0.000234453
0.000236865
0.00023931
0.000241539
0.000243258
0.000244268
0.000244602
0.000206975
0.000206815
0.000207331
0.000208293
0.000209429
0.000210604
0.000211787
0.000213018
0.000214344
0.000215804
0.000217404
0.000219117
0.000220898
0.000222702
0.000224493
0.000226265
0.0002279
0.000229248
0.000230336
0.000231281
0.000232177
0.000233099
0.000234106
0.00023524
0.000236528
0.000237976
0.000239574
0.000241262
0.000242895
0.00024425
0.000245119
0.000245445
0.000220889
0.000221225
0.00022221
0.000223311
0.000224385
0.000225383
0.000226297
0.000227166
0.000228035
0.000228948
0.000229921
0.000230947
0.000232006
0.000233072
0.000234123
0.000235156
0.000236103
0.000236879
0.000237501
0.000238035
0.000238533
0.000239039
0.000239585
0.000240196
0.000240888
0.00024167
0.000242544
0.000243493
0.000244455
0.000245312
0.000245915
0.000246173
0.00023791
0.000238174
0.000238681
0.000239164
0.000239602
0.000239992
0.000240334
0.000240644
0.000240943
0.000241248
0.000241569
0.000241905
0.00024225
0.000242596
0.000242936
0.00024327
0.000243575
0.000243824
0.000244023
0.000244193
0.000244351
0.000244509
0.000244679
0.000244868
0.000245081
0.000245322
0.000245592
0.000245888
0.000246195
0.000246481
0.000246699
0.000246805
)
;


// ************************************************************************* //
