/*--------------------------------*- C++ -*----------------------------------*\
| =========                 |                                                 |
| \\      /  F ield         | OpenFOAM: The Open Source CFD Toolbox           |
|  \\    /   O peration     | Version:  2212                                  |
|   \\  /    A nd           | Website:  www.openfoam.com                      |
|    \\/     M anipulation  |                                                 |
\*---------------------------------------------------------------------------*/
FoamFile
{
    version     2.0;
    format      ascii;
    arch        "LSB;label=64;scalar=64";
    class       volScalarField;
    location    "1780";
    object      Gco2;
}
// * * * * * * * * * * * * * * * * * * * * * * * * * * * * * * * * * * * * * //

dimensions      [1 -3 0 0 0 0 0];

internalField   nonuniform List<scalar> 
1024
(
0.0520835
0.0520579
0.0519948
0.0518789
0.0516916
0.0514111
0.0510154
0.0504859
0.0498132
0.0490026
0.0480785
0.0470835
0.0460725
0.0451027
0.0442263
0.0434946
0.0430181
0.0428739
0.0430223
0.0434024
0.0439552
0.0446217
0.0453398
0.0460448
0.0466807
0.0472111
0.0476228
0.0479216
0.0481237
0.0482495
0.0483181
0.0483461
0.0520755
0.0520496
0.0519859
0.051869
0.0516798
0.0513965
0.050997
0.0504629
0.0497853
0.0489702
0.0480426
0.0470454
0.0460334
0.0450635
0.0441871
0.0434549
0.0429768
0.0428307
0.0429779
0.0433581
0.0439121
0.0445806
0.0453017
0.046011
0.0466522
0.0471882
0.047605
0.0479075
0.0481122
0.0482393
0.0483087
0.0483369
0.052056
0.0520296
0.0519646
0.0518452
0.0516518
0.0513623
0.0509545
0.0504104
0.049722
0.0488968
0.0479611
0.0469588
0.0459444
0.0449737
0.0440963
0.043361
0.042877
0.0427247
0.0428696
0.0432532
0.0438147
0.0444918
0.0452219
0.0459412
0.0465934
0.0471403
0.0475665
0.0478761
0.0480855
0.0482152
0.0482858
0.0483144
0.0520208
0.0519936
0.0519265
0.0518031
0.051603
0.0513035
0.050882
0.0503214
0.0496152
0.0487733
0.0478242
0.0468131
0.0457941
0.0448206
0.043939
0.0431949
0.0426965
0.0425306
0.0426723
0.0430668
0.0436486
0.0443477
0.0450977
0.0458352
0.0465043
0.0470665
0.0475054
0.0478244
0.0480396
0.0481727
0.0482447
0.0482737
0.0519653
0.051937
0.0518671
0.051738
0.0515284
0.0512145
0.0507737
0.0501894
0.0494576
0.0485914
0.0476226
0.046598
0.0455707
0.0445904
0.0436983
0.0429347
0.042408
0.0422175
0.0423555
0.0427728
0.0433953
0.044138
0.0449255
0.0456929
0.0463859
0.0469672
0.0474205
0.0477492
0.0479702
0.0481059
0.0481789
0.048208
0.0518847
0.0518551
0.0517815
0.0516452
0.0514233
0.0510907
0.0506243
0.0500088
0.049243
0.0483442
0.0473484
0.0463041
0.0452627
0.0442683
0.0433546
0.0425555
0.0419808
0.0417515
0.0418853
0.0423403
0.0430298
0.043846
0.0446964
0.045511
0.0462372
0.0468409
0.0473084
0.0476451
0.0478696
0.048006
0.0480783
0.0481068
0.0517747
0.0517436
0.0516658
0.0515207
0.0512837
0.0509282
0.0504304
0.0497762
0.0489678
0.0480275
0.0469961
0.0459239
0.0448593
0.0438392
0.042888
0.0420317
0.0413846
0.0410995
0.0412272
0.0417334
0.0425174
0.0434423
0.0443889
0.0452744
0.0460466
0.0466769
0.0471575
0.0474986
0.0477223
0.0478556
0.0479246
0.0479509
0.0516316
0.051599
0.0515165
0.0513617
0.0511075
0.0507254
0.0501908
0.0494908
0.0486314
0.0476402
0.0465631
0.045452
0.0443518
0.0432902
0.0422812
0.0413427
0.040597
0.0402364
0.0403494
0.0409096
0.0418059
0.0428719
0.0439517
0.0449393
0.045776
0.0464405
0.0469342
0.0472756
0.0474932
0.0476185
0.0476805
0.0477028
0.0514534
0.0514192
0.051332
0.0511669
0.0508942
0.0504829
0.0499073
0.0491556
0.0482371
0.0471852
0.0460508
0.0448876
0.0437362
0.0426153
0.0415279
0.0404838
0.0396152
0.0391546
0.0392263
0.0398159
0.0408126
0.0420308
0.0432749
0.0444013
0.045331
0.0460454
0.0465579
0.0468989
0.0471066
0.0472193
0.0472706
0.0472869
0.0512397
0.0512041
0.0511123
0.0509369
0.0506454
0.0502038
0.0495847
0.0487766
0.0477923
0.0466702
0.0454668
0.044238
0.0430209
0.0418258
0.0406456
0.0394822
0.0384727
0.037877
0.0378479
0.0383915
0.0394184
0.0407463
0.0421533
0.0434481
0.0445103
0.0453064
0.0458578
0.0462087
0.04641
0.0465101
0.0465496
0.0465589
0.0509921
0.0509554
0.0508595
0.0506747
0.0503651
0.0498938
0.0492311
0.048365
0.0473106
0.0461117
0.0448308
0.0435274
0.0422375
0.0409653
0.0396955
0.0384187
0.0372622
0.0364832
0.0362504
0.036604
0.0375027
0.0388017
0.0402831
0.0417217
0.0429474
0.0438776
0.0445161
0.0449123
0.0451303
0.0452313
0.0452658
0.045271
0.0507153
0.0506777
0.0505785
0.0503857
0.0500606
0.049563
0.0488601
0.0479391
0.0468167
0.0455419
0.0441842
0.0428098
0.0414573
0.0401292
0.0388032
0.0374526
0.0361665
0.0351564
0.034591
0.0345558
0.0350802
0.0360921
0.0374239
0.038859
0.0401933
0.0412834
0.0420733
0.0425829
0.0428725
0.0430126
0.0430648
0.0430756
0.0504179
0.0503797
0.0502784
0.0500803
0.0497446
0.049228
0.048495
0.0475309
0.0463539
0.0450179
0.0436015
0.042181
0.0408037
0.0394762
0.0381713
0.0368362
0.0354864
0.0342393
0.033248
0.032646
0.0325387
0.0329454
0.033788
0.034913
0.0361328
0.0372705
0.0381995
0.0388683
0.0392922
0.0395256
0.0396315
0.0396642
0.0501159
0.0500775
0.0499759
0.0497771
0.0494392
0.0489172
0.0481733
0.0471912
0.0459896
0.0446273
0.0431929
0.0417776
0.0404449
0.0392131
0.0380538
0.0368819
0.035609
0.034211
0.0328115
0.0315891
0.0307186
0.0303035
0.0303594
0.0308234
0.031574
0.0324564
0.0333176
0.0340395
0.0345655
0.0348969
0.0350708
0.0351356
0.0498362
0.0497983
0.0496989
0.0495058
0.0491782
0.0486716
0.0479475
0.0469879
0.0458112
0.0444791
0.0430898
0.0417521
0.0405531
0.0395322
0.0386668
0.0378418
0.0368472
0.0354753
0.0338016
0.0320482
0.0304584
0.0292101
0.028394
0.0280217
0.028042
0.0283558
0.0288356
0.0293514
0.0298001
0.0301256
0.0303184
0.030399
0.0496213
0.0495845
0.0494905
0.0493107
0.0490089
0.0485442
0.0478797
0.0469964
0.0459096
0.0446795
0.0434085
0.0422209
0.0412304
0.0405061
0.0400427
0.0397107
0.0391858
0.0380482
0.036285
0.0341411
0.0319308
0.0299232
0.0282921
0.0271128
0.0263826
0.0260426
0.0259974
0.0261337
0.0263421
0.0265383
0.0266753
0.0267399
0.0495343
0.0494992
0.0494122
0.0492504
0.0489844
0.04858
0.0480048
0.04724
0.0462956
0.0452241
0.0441223
0.0431185
0.0423444
0.0418976
0.0418015
0.0419424
0.0419371
0.0411988
0.0395727
0.0372428
0.0345447
0.0318418
0.02943
0.0274852
0.0260672
0.0251472
0.0246398
0.0244326
0.0244086
0.0244665
0.0245348
0.0245751
0.0495888
0.0495551
0.0494744
0.0493289
0.0490962
0.0487499
0.0482635
0.04762
0.046825
0.0459204
0.0449897
0.0441517
0.0435385
0.0432606
0.0433638
0.0437621
0.0440758
0.0436852
0.0423419
0.0401003
0.0372065
0.0340274
0.0309557
0.0282945
0.02621
0.0247359
0.023809
0.0233113
0.023106
0.0230653
0.0230897
0.0231167
0.0497411
0.0497087
0.0496329
0.0495001
0.0492936
0.0489938
0.0485807
0.0480406
0.0473765
0.0466208
0.0458414
0.04514
0.0446353
0.0444339
0.0445885
0.0450322
0.04541
0.0451531
0.0440104
0.0419546
0.0391191
0.0357855
0.0323411
0.0291615
0.0265175
0.0245323
0.0231963
0.0224092
0.0220255
0.0218929
0.0218812
0.0218999
0.049945
0.0499147
0.0498447
0.0497236
0.0495388
0.0492759
0.048921
0.0484647
0.0479098
0.0472817
0.0466339
0.0460476
0.0456197
0.0454386
0.0455475
0.0458818
0.046123
0.0458016
0.0447126
0.0427997
0.0401198
0.0368556
0.0333124
0.0298591
0.0268284
0.0244292
0.0227236
0.0216532
0.0210839
0.0208517
0.0208006
0.020811
0.0501353
0.0501103
0.0500514
0.049948
0.0497886
0.0495616
0.0492572
0.0488705
0.0484061
0.0478849
0.0473475
0.0468537
0.0464722
0.0462631
0.0462465
0.0463486
0.0463034
0.0457766
0.0446291
0.0427954
0.0402825
0.0371991
0.0337602
0.0302651
0.0270416
0.0243557
0.0223454
0.0210132
0.0202572
0.0199176
0.0198218
0.0198224
0.0502069
0.0501935
0.0501583
0.0500895
0.049973
0.0497956
0.0495479
0.0492273
0.0488403
0.0484042
0.0479468
0.0475049
0.0471168
0.0468104
0.0465807
0.0463463
0.0459167
0.0451101
0.043853
0.0420745
0.0397401
0.0368925
0.0336762
0.0303174
0.0270887
0.0242603
0.0220298
0.020471
0.019534
0.019081
0.0189342
0.0189231
0.0500131
0.0500211
0.0500291
0.0500222
0.0499798
0.0498807
0.0497094
0.0494605
0.0491384
0.0487545
0.0483234
0.0478599
0.0473771
0.0468797
0.0463492
0.0457111
0.0448667
0.0437783
0.0424194
0.0407093
0.0385813
0.0360215
0.0331061
0.0299987
0.0269149
0.0240897
0.0217406
0.0200064
0.0189035
0.0183342
0.0181304
0.018105
0.0493901
0.0494309
0.049504
0.0495883
0.0496521
0.04966
0.0495826
0.0494031
0.0491175
0.0487286
0.0482402
0.0476553
0.0469767
0.0462046
0.0453257
0.0442862
0.0430769
0.0417704
0.0403625
0.0387582
0.0368689
0.0346395
0.0320882
0.0293155
0.0264839
0.0237881
0.0214324
0.0195922
0.0183517
0.01767
0.0174041
0.0173615
0.0481938
0.0482778
0.048431
0.0486195
0.0487959
0.0489081
0.0489086
0.0487632
0.0484557
0.0479829
0.0473478
0.0465571
0.0456219
0.0445545
0.043358
0.0420037
0.0405492
0.039132
0.037751
0.0362975
0.0346712
0.0327951
0.030646
0.0282696
0.025773
0.0233076
0.021053
0.0191926
0.0178603
0.0170797
0.01675
0.016687
0.0463263
0.0464598
0.0466887
0.0469551
0.0471948
0.0473466
0.0473531
0.0471657
0.046761
0.0461391
0.0453123
0.044302
0.043136
0.0418428
0.0404419
0.0389228
0.0373795
0.0359719
0.0346933
0.0334287
0.0320761
0.0305534
0.0288148
0.0268657
0.0247636
0.0226114
0.0205546
0.0187661
0.0174056
0.0165533
0.0161638
0.0160773
0.0437379
0.0439183
0.044185
0.0444465
0.0446351
0.0447028
0.0446045
0.0442915
0.0437438
0.042969
0.0419889
0.040837
0.039553
0.0381745
0.0367291
0.0352159
0.0337376
0.032447
0.0313306
0.0302781
0.0291954
0.0280062
0.0266583
0.0251341
0.0234536
0.0216746
0.0198985
0.0182719
0.0169587
0.0160781
0.0156411
0.0155299
0.040402
0.0406099
0.0408315
0.0409557
0.0409486
0.0408079
0.0405195
0.0400491
0.0393844
0.0385313
0.037511
0.0363577
0.0351112
0.0338086
0.0324771
0.0311194
0.0298287
0.0287337
0.0278176
0.0269848
0.0261557
0.0252669
0.0242703
0.0231396
0.0218729
0.0204935
0.0190591
0.0176752
0.0164885
0.0156363
0.0151766
0.015043
0.0362729
0.0364594
0.0365118
0.0363686
0.0360791
0.0356941
0.0352264
0.0346564
0.0339703
0.0331613
0.0322403
0.0312317
0.0301665
0.0290744
0.027978
0.0268804
0.0258557
0.0250022
0.0243036
0.0236853
0.0230862
0.0224582
0.0217632
0.0209759
0.0200856
0.0190959
0.0180307
0.0169512
0.0159668
0.0152079
0.0147623
0.0146148
0.0312407
0.0313116
0.0310831
0.0306583
0.0301564
0.0296369
0.0291138
0.0285698
0.0279841
0.0273385
0.0266313
0.0258745
0.0250874
0.02429
0.0234984
0.0227153
0.0219926
0.0213971
0.0209164
0.0204988
0.0201026
0.0196953
0.0192504
0.0187491
0.0181805
0.0175407
0.016835
0.0160898
0.0153688
0.0147705
0.0143869
0.0142429
0.0250934
0.0249447
0.0245098
0.0240233
0.0235485
0.0231075
0.0227035
0.0223198
0.0219358
0.0215323
0.0211021
0.0206484
0.0201806
0.0197097
0.0192449
0.0187884
0.0183697
0.0180267
0.017752
0.0175162
0.0172958
0.0170724
0.0168313
0.0165613
0.0162555
0.01591
0.0155241
0.0151052
0.0146803
0.0143021
0.0140358
0.0139221
0.0175734
0.017457
0.017233
0.0170196
0.016826
0.0166537
0.0165025
0.0163653
0.0162333
0.0160983
0.0159566
0.0158082
0.0156558
0.0155028
0.0153523
0.0152048
0.01507
0.0149598
0.0148719
0.0147969
0.0147273
0.0146573
0.0145823
0.0144987
0.0144044
0.014298
0.0141789
0.0140483
0.0139127
0.0137864
0.0136901
0.0136436
)
;

boundaryField
{
    movingWall
    {
        type            fixedValue;
        value           uniform 0.0135;
    }
    fixedWalls
    {
        type            zeroGradient;
    }
    floor
    {
        type            zeroGradient;
    }
    frontAndBack
    {
        type            empty;
    }
}


// ************************************************************************* //
