/*--------------------------------*- C++ -*----------------------------------*\
| =========                 |                                                 |
| \\      /  F ield         | OpenFOAM: The Open Source CFD Toolbox           |
|  \\    /   O peration     | Version:  2212                                  |
|   \\  /    A nd           | Website:  www.openfoam.com                      |
|    \\/     M anipulation  |                                                 |
\*---------------------------------------------------------------------------*/
FoamFile
{
    version     2.0;
    format      ascii;
    arch        "LSB;label=64;scalar=64";
    class       volScalarField;
    location    "1780";
    object      p;
}
// * * * * * * * * * * * * * * * * * * * * * * * * * * * * * * * * * * * * * //

dimensions      [0 2 -2 0 0 0 0];

internalField   nonuniform List<scalar> 
1024
(
0
-4.23826e-07
-1.15728e-06
-1.86796e-06
-2.22293e-06
-1.98283e-06
-1.09616e-06
2.94329e-07
1.96068e-06
3.77927e-06
5.90242e-06
8.9021e-06
1.38275e-05
2.24542e-05
3.75997e-05
6.22009e-05
9.34733e-05
0.000113673
0.00010758
7.52676e-05
2.60119e-05
-2.39411e-05
-6.14918e-05
-8.52347e-05
-9.90154e-05
-0.000106601
-0.00011043
-0.000111842
-0.000111576
-0.00011024
-0.00010858
-0.000107439
-0.0928115
-0.092812
-0.0928126
-0.0928132
-0.0928135
-0.0928133
-0.0928126
-0.0928114
-0.09281
-0.0928083
-0.0928063
-0.0928034
-0.0927986
-0.0927902
-0.0927755
-0.0927514
-0.092721
-0.092702
-0.0927089
-0.092741
-0.0927893
-0.0928379
-0.0928742
-0.092897
-0.09291
-0.0929171
-0.0929206
-0.0929219
-0.0929218
-0.0929208
-0.0929194
-0.0929182
-0.199425
-0.199425
-0.199426
-0.199426
-0.199427
-0.199427
-0.199426
-0.199425
-0.199424
-0.199423
-0.199421
-0.199419
-0.199414
-0.199406
-0.199392
-0.199369
-0.19934
-0.199323
-0.199331
-0.199363
-0.19941
-0.199457
-0.199492
-0.199513
-0.199524
-0.19953
-0.199533
-0.199534
-0.199534
-0.199533
-0.199532
-0.19953
-0.321892
-0.321893
-0.321894
-0.321895
-0.321895
-0.321895
-0.321895
-0.321895
-0.321894
-0.321893
-0.321892
-0.32189
-0.321887
-0.32188
-0.321867
-0.321845
-0.321818
-0.321802
-0.321811
-0.321843
-0.321889
-0.321935
-0.321968
-0.321987
-0.321996
-0.322001
-0.322002
-0.322003
-0.322002
-0.322001
-0.321999
-0.321997
-0.462573
-0.462574
-0.462575
-0.462576
-0.462576
-0.462577
-0.462577
-0.462577
-0.462578
-0.462578
-0.462577
-0.462577
-0.462574
-0.462568
-0.462557
-0.462537
-0.462513
-0.462499
-0.46251
-0.462542
-0.462586
-0.462631
-0.462662
-0.462678
-0.462685
-0.462687
-0.462687
-0.462686
-0.462685
-0.462683
-0.462681
-0.462679
-0.624175
-0.624176
-0.624178
-0.624179
-0.62418
-0.624181
-0.624182
-0.624183
-0.624184
-0.624185
-0.624187
-0.624187
-0.624186
-0.624183
-0.624174
-0.624157
-0.624135
-0.624123
-0.624136
-0.624168
-0.624211
-0.624254
-0.624284
-0.624297
-0.624301
-0.6243
-0.624297
-0.624295
-0.624292
-0.62429
-0.624288
-0.624285
-0.809812
-0.809814
-0.809815
-0.809817
-0.809818
-0.80982
-0.809822
-0.809824
-0.809826
-0.809829
-0.809832
-0.809835
-0.809836
-0.809836
-0.80983
-0.809816
-0.809798
-0.809788
-0.809801
-0.809833
-0.809874
-0.809915
-0.809943
-0.809954
-0.809954
-0.80995
-0.809945
-0.80994
-0.809937
-0.809934
-0.809932
-0.80993
-1.02306
-1.02306
-1.02306
-1.02306
-1.02307
-1.02307
-1.02307
-1.02308
-1.02308
-1.02308
-1.02309
-1.0231
-1.0231
-1.0231
-1.0231
-1.02309
-1.02308
-1.02307
-1.02308
-1.02311
-1.02315
-1.02319
-1.02321
-1.02322
-1.02322
-1.02321
-1.0232
-1.0232
-1.02319
-1.02319
-1.02319
-1.02319
-1.26802
-1.26803
-1.26803
-1.26803
-1.26803
-1.26804
-1.26804
-1.26805
-1.26805
-1.26806
-1.26807
-1.26808
-1.26808
-1.26809
-1.26809
-1.26809
-1.26808
-1.26807
-1.26808
-1.2681
-1.26814
-1.26817
-1.26819
-1.26819
-1.26819
-1.26818
-1.26817
-1.26817
-1.26816
-1.26816
-1.26816
-1.26816
-1.54943
-1.54943
-1.54943
-1.54943
-1.54944
-1.54944
-1.54945
-1.54945
-1.54946
-1.54947
-1.54948
-1.54949
-1.54951
-1.54952
-1.54952
-1.54952
-1.54952
-1.54951
-1.54951
-1.54953
-1.54955
-1.54957
-1.54959
-1.54959
-1.54958
-1.54957
-1.54957
-1.54956
-1.54956
-1.54955
-1.54955
-1.54955
-1.87269
-1.87269
-1.87269
-1.87269
-1.8727
-1.8727
-1.87271
-1.87272
-1.87273
-1.87274
-1.87275
-1.87277
-1.87278
-1.8728
-1.87281
-1.87282
-1.87281
-1.87281
-1.8728
-1.87281
-1.87281
-1.87282
-1.87282
-1.87282
-1.87281
-1.8728
-1.8728
-1.87279
-1.87279
-1.87279
-1.87279
-1.87279
-2.24403
-2.24403
-2.24404
-2.24404
-2.24404
-2.24405
-2.24405
-2.24406
-2.24407
-2.24409
-2.24411
-2.24412
-2.24415
-2.24417
-2.24418
-2.2442
-2.2442
-2.24419
-2.24418
-2.24417
-2.24416
-2.24414
-2.24413
-2.24411
-2.2441
-2.24409
-2.24409
-2.24409
-2.24409
-2.24409
-2.24409
-2.24409
-2.67061
-2.67061
-2.67062
-2.67062
-2.67062
-2.67063
-2.67063
-2.67064
-2.67066
-2.67067
-2.67069
-2.67072
-2.67074
-2.67077
-2.67079
-2.67081
-2.67081
-2.67081
-2.67079
-2.67077
-2.67074
-2.67071
-2.67067
-2.67065
-2.67063
-2.67061
-2.67061
-2.67061
-2.67062
-2.67062
-2.67062
-2.67062
-3.16064
-3.16064
-3.16064
-3.16065
-3.16065
-3.16066
-3.16066
-3.16068
-3.16069
-3.16071
-3.16073
-3.16075
-3.16078
-3.16081
-3.16084
-3.16087
-3.16088
-3.16087
-3.16085
-3.16082
-3.16078
-3.16073
-3.16069
-3.16065
-3.16062
-3.16061
-3.1606
-3.1606
-3.1606
-3.16061
-3.16061
-3.16061
-3.72355
-3.72355
-3.72355
-3.72356
-3.72356
-3.72357
-3.72358
-3.72359
-3.7236
-3.72362
-3.72364
-3.72367
-3.7237
-3.72374
-3.72377
-3.7238
-3.72382
-3.72381
-3.72379
-3.72376
-3.72371
-3.72366
-3.72361
-3.72357
-3.72353
-3.72351
-3.7235
-3.7235
-3.7235
-3.7235
-3.72351
-3.72351
-4.37017
-4.37017
-4.37018
-4.37018
-4.37018
-4.37019
-4.3702
-4.37021
-4.37022
-4.37024
-4.37027
-4.3703
-4.37033
-4.37037
-4.37041
-4.37044
-4.37046
-4.37046
-4.37044
-4.37041
-4.37037
-4.37032
-4.37027
-4.37022
-4.37019
-4.37016
-4.37014
-4.37014
-4.37014
-4.37014
-4.37014
-4.37015
-5.06154
-5.06154
-5.06154
-5.06154
-5.06154
-5.06155
-5.06156
-5.06157
-5.06159
-5.06161
-5.06163
-5.06166
-5.0617
-5.06174
-5.06178
-5.06181
-5.06183
-5.06183
-5.06182
-5.06179
-5.06176
-5.06172
-5.06168
-5.06163
-5.06159
-5.06156
-5.06154
-5.06153
-5.06153
-5.06153
-5.06154
-5.06154
-5.70813
-5.70813
-5.70813
-5.70813
-5.70813
-5.70814
-5.70815
-5.70816
-5.70818
-5.7082
-5.70823
-5.70826
-5.70829
-5.70833
-5.70838
-5.70841
-5.70843
-5.70843
-5.70842
-5.7084
-5.70838
-5.70835
-5.70831
-5.70827
-5.70823
-5.7082
-5.70818
-5.70816
-5.70816
-5.70816
-5.70817
-5.70817
-6.271
-6.271
-6.271
-6.271
-6.271
-6.27101
-6.27102
-6.27103
-6.27105
-6.27107
-6.2711
-6.27113
-6.27117
-6.27121
-6.27126
-6.2713
-6.27132
-6.27132
-6.2713
-6.27128
-6.27126
-6.27124
-6.27121
-6.27117
-6.27114
-6.2711
-6.27108
-6.27106
-6.27106
-6.27106
-6.27106
-6.27107
-6.76099
-6.76099
-6.76099
-6.76099
-6.76099
-6.761
-6.761
-6.76102
-6.76104
-6.76106
-6.76109
-6.76112
-6.76117
-6.76121
-6.76126
-6.7613
-6.76133
-6.76133
-6.76131
-6.76129
-6.76126
-6.76124
-6.76121
-6.76118
-6.76115
-6.76111
-6.76108
-6.76106
-6.76105
-6.76105
-6.76106
-6.76107
-7.18754
-7.18754
-7.18754
-7.18754
-7.18754
-7.18754
-7.18755
-7.18756
-7.18758
-7.1876
-7.18764
-7.18767
-7.18772
-7.18777
-7.18782
-7.18787
-7.1879
-7.1879
-7.18788
-7.18785
-7.18782
-7.18779
-7.18776
-7.18773
-7.18769
-7.18765
-7.18762
-7.18759
-7.18758
-7.18757
-7.18758
-7.18759
-7.55887
-7.55887
-7.55887
-7.55887
-7.55887
-7.55887
-7.55887
-7.55888
-7.5589
-7.55892
-7.55895
-7.55899
-7.55905
-7.5591
-7.55916
-7.55921
-7.55924
-7.55924
-7.55922
-7.5592
-7.55916
-7.55912
-7.55908
-7.55904
-7.559
-7.55895
-7.5589
-7.55886
-7.55884
-7.55883
-7.55883
-7.55884
-7.88213
-7.88213
-7.88213
-7.88212
-7.88212
-7.88212
-7.88212
-7.88212
-7.88213
-7.88216
-7.88219
-7.88224
-7.8823
-7.88236
-7.88243
-7.88248
-7.88252
-7.88252
-7.8825
-7.88247
-7.88242
-7.88238
-7.88232
-7.88227
-7.88221
-7.88214
-7.88208
-7.88202
-7.88198
-7.88196
-7.88196
-7.88197
-8.16354
-8.16354
-8.16354
-8.16354
-8.16353
-8.16352
-8.16352
-8.16351
-8.16352
-8.16354
-8.16358
-8.16363
-8.1637
-8.16377
-8.16384
-8.1639
-8.16394
-8.16394
-8.16392
-8.16389
-8.16384
-8.16378
-8.16372
-8.16364
-8.16355
-8.16346
-8.16337
-8.16328
-8.16321
-8.16318
-8.16317
-8.16318
-8.40853
-8.40853
-8.40853
-8.40852
-8.40851
-8.4085
-8.40848
-8.40847
-8.40847
-8.40849
-8.40853
-8.40859
-8.40867
-8.40875
-8.40883
-8.40889
-8.40893
-8.40894
-8.40892
-8.40888
-8.40883
-8.40876
-8.40868
-8.40857
-8.40845
-8.40832
-8.40819
-8.40806
-8.40795
-8.40788
-8.40786
-8.40787
-8.6218
-8.62181
-8.6218
-8.6218
-8.62178
-8.62176
-8.62173
-8.62172
-8.62171
-8.62173
-8.62178
-8.62185
-8.62193
-8.62201
-8.6221
-8.62217
-8.62221
-8.62222
-8.6222
-8.62216
-8.6221
-8.62203
-8.62192
-8.62179
-8.62163
-8.62145
-8.62126
-8.62107
-8.62091
-8.62079
-8.62074
-8.62073
-8.80748
-8.80749
-8.80748
-8.80747
-8.80744
-8.80741
-8.80738
-8.80735
-8.80735
-8.80737
-8.80742
-8.80749
-8.80758
-8.80767
-8.80776
-8.80784
-8.80788
-8.80789
-8.80787
-8.80783
-8.80777
-8.80768
-8.80756
-8.8074
-8.8072
-8.80697
-8.8067
-8.80644
-8.8062
-8.806
-8.8059
-8.80586
-8.96915
-8.96915
-8.96914
-8.96911
-8.96907
-8.96902
-8.96898
-8.96895
-8.96895
-8.96897
-8.96903
-8.96911
-8.9692
-8.9693
-8.96939
-8.96947
-8.96952
-8.96953
-8.96951
-8.96946
-8.9694
-8.9693
-8.96917
-8.96898
-8.96875
-8.96845
-8.96812
-8.96776
-8.96741
-8.96711
-8.9669
-8.96681
-9.10995
-9.10993
-9.1099
-9.10984
-9.10978
-9.10972
-9.10967
-9.10964
-9.10963
-9.10966
-9.10972
-9.1098
-9.1099
-9.11
-9.1101
-9.11018
-9.11022
-9.11024
-9.11022
-9.11017
-9.1101
-9.11
-9.10985
-9.10965
-9.10938
-9.10904
-9.10864
-9.10818
-9.1077
-9.10724
-9.10688
-9.10665
-9.23263
-9.23256
-9.23246
-9.23236
-9.23227
-9.23219
-9.23214
-9.2321
-9.2321
-9.23213
-9.2322
-9.23228
-9.23238
-9.23249
-9.23259
-9.23267
-9.23272
-9.23273
-9.23271
-9.23267
-9.2326
-9.23249
-9.23233
-9.23212
-9.23183
-9.23145
-9.231
-9.23045
-9.22983
-9.22916
-9.22852
-9.22797
-9.33976
-9.33937
-9.33913
-9.33898
-9.33888
-9.3388
-9.33874
-9.33871
-9.33872
-9.33875
-9.33882
-9.33891
-9.33901
-9.33912
-9.33922
-9.3393
-9.33936
-9.33937
-9.33935
-9.33931
-9.33923
-9.33912
-9.33896
-9.33874
-9.33844
-9.33805
-9.33756
-9.33696
-9.33622
-9.33532
-9.33421
-9.33295
-9.43362
-9.43238
-9.43192
-9.43177
-9.43167
-9.4316
-9.43154
-9.43152
-9.43153
-9.43157
-9.43164
-9.43173
-9.43184
-9.43195
-9.43205
-9.43214
-9.43219
-9.4322
-9.43219
-9.43214
-9.43207
-9.43196
-9.4318
-9.43157
-9.43127
-9.43088
-9.43038
-9.42975
-9.42894
-9.42784
-9.42624
-9.42398
)
;

boundaryField
{
    movingWall
    {
        type            calculated;
        value           nonuniform List<scalar> 
32
(
-9.47682
-9.47559
-9.47512
-9.47497
-9.47488
-9.4748
-9.47475
-9.47473
-9.47473
-9.47477
-9.47484
-9.47494
-9.47504
-9.47515
-9.47525
-9.47534
-9.47539
-9.47541
-9.47539
-9.47535
-9.47527
-9.47516
-9.475
-9.47478
-9.47448
-9.47409
-9.47359
-9.47296
-9.47215
-9.47105
-9.46944
-9.46718
)
;
    }
    fixedWalls
    {
        type            calculated;
        value           nonuniform List<scalar> 
64
(
6.93889e-18
-0.0928115
-0.199425
-0.321892
-0.462573
-0.624175
-0.809812
-1.02306
-1.26802
-1.54943
-1.87269
-2.24403
-2.67061
-3.16064
-3.72355
-4.37017
-5.06154
-5.70813
-6.271
-6.76099
-7.18754
-7.55887
-7.88213
-8.16354
-8.40853
-8.6218
-8.80748
-8.96915
-9.10995
-9.23263
-9.33976
-9.43362
-0.000107439
-0.0929182
-0.19953
-0.321997
-0.462679
-0.624285
-0.80993
-1.02319
-1.26816
-1.54955
-1.87279
-2.24409
-2.67062
-3.16061
-3.72351
-4.37015
-5.06154
-5.70817
-6.27107
-6.76107
-7.18759
-7.55884
-7.88197
-8.16318
-8.40787
-8.62073
-8.80586
-8.96681
-9.10665
-9.22797
-9.33295
-9.42398
)
;
    }
    floor
    {
        type            calculated;
        value           nonuniform List<scalar> 
32
(
0.0431943
0.0431939
0.0431932
0.0431925
0.0431921
0.0431924
0.0431933
0.0431947
0.0431964
0.0431982
0.0432004
0.0432034
0.0432083
0.043217
0.0432322
0.0432568
0.0432882
0.0433085
0.0433024
0.0432701
0.0432208
0.0431707
0.0431331
0.0431093
0.0430955
0.0430878
0.0430839
0.0430825
0.0430827
0.0430841
0.0430857
0.0430869
)
;
    }
    frontAndBack
    {
        type            empty;
    }
}


// ************************************************************************* //
