/*--------------------------------*- C++ -*----------------------------------*\
| =========                 |                                                 |
| \\      /  F ield         | OpenFOAM: The Open Source CFD Toolbox           |
|  \\    /   O peration     | Version:  2212                                  |
|   \\  /    A nd           | Website:  www.openfoam.com                      |
|    \\/     M anipulation  |                                                 |
\*---------------------------------------------------------------------------*/
FoamFile
{
    version     2.0;
    format      ascii;
    arch        "LSB;label=64;scalar=64";
    class       volScalarField;
    location    "1780";
    object      SIC;
}
// * * * * * * * * * * * * * * * * * * * * * * * * * * * * * * * * * * * * * //

dimensions      [1 -3 0 0 0 0 0];

internalField   nonuniform List<scalar> 
1024
(
0.0917722
0.0917744
0.0917798
0.0917898
0.0918058
0.0918299
0.0918639
0.0919094
0.0919672
0.0920369
0.0921163
0.0922019
0.0922888
0.0923723
0.0924478
0.0925108
0.092552
0.0925645
0.0925518
0.0925191
0.0924716
0.0924143
0.0923525
0.0922919
0.0922372
0.0921916
0.0921562
0.0921305
0.0921131
0.0921023
0.0920964
0.092094
0.0917729
0.0917751
0.0917806
0.0917906
0.0918069
0.0918312
0.0918655
0.0919114
0.0919696
0.0920397
0.0921194
0.0922051
0.0922922
0.0923757
0.0924511
0.0925143
0.0925555
0.0925682
0.0925556
0.0925229
0.0924753
0.0924178
0.0923558
0.0922948
0.0922396
0.0921935
0.0921577
0.0921317
0.0921141
0.0921031
0.0920972
0.0920948
0.0917745
0.0917768
0.0917824
0.0917927
0.0918093
0.0918341
0.0918692
0.0919159
0.0919751
0.092046
0.0921264
0.0922126
0.0922999
0.0923834
0.092459
0.0925224
0.0925641
0.0925773
0.0925649
0.092532
0.0924837
0.0924255
0.0923627
0.0923008
0.0922447
0.0921977
0.092161
0.0921344
0.0921164
0.0921052
0.0920992
0.0920967
0.0917776
0.0917799
0.0917857
0.0917963
0.0918135
0.0918392
0.0918754
0.0919236
0.0919842
0.0920566
0.0921382
0.0922251
0.0923128
0.0923966
0.0924725
0.0925367
0.0925797
0.0925941
0.0925819
0.092548
0.092498
0.0924379
0.0923734
0.0923099
0.0922524
0.092204
0.0921663
0.0921388
0.0921203
0.0921089
0.0921027
0.0921002
0.0917823
0.0917848
0.0917908
0.0918019
0.0918199
0.0918468
0.0918847
0.0919349
0.0919978
0.0920722
0.0921555
0.0922436
0.092332
0.0924164
0.0924933
0.0925591
0.0926045
0.092621
0.0926092
0.0925734
0.0925198
0.0924559
0.0923882
0.0923222
0.0922626
0.0922126
0.0921736
0.0921453
0.0921263
0.0921146
0.0921084
0.0921059
0.0917893
0.0917918
0.0917981
0.0918098
0.0918289
0.0918575
0.0918975
0.0919504
0.0920162
0.0920935
0.0921791
0.0922689
0.0923585
0.0924441
0.0925228
0.0925917
0.0926413
0.0926612
0.0926498
0.0926107
0.0925513
0.0924811
0.0924079
0.0923378
0.0922754
0.0922234
0.0921832
0.0921543
0.092135
0.0921232
0.092117
0.0921146
0.0917987
0.0918014
0.0918081
0.0918205
0.0918409
0.0918714
0.0919142
0.0919704
0.0920399
0.0921207
0.0922094
0.0923016
0.0923932
0.0924811
0.092563
0.0926369
0.0926927
0.0927174
0.0927065
0.092663
0.0925955
0.0925159
0.0924344
0.0923582
0.0922918
0.0922376
0.0921962
0.0921669
0.0921477
0.0921362
0.0921303
0.092128
0.091811
0.0918138
0.0918209
0.0918342
0.091856
0.0918889
0.0919348
0.091995
0.0920688
0.092154
0.0922467
0.0923422
0.0924369
0.0925283
0.0926153
0.0926962
0.0927606
0.0927917
0.0927821
0.092734
0.0926568
0.0925651
0.0924721
0.0923871
0.0923151
0.092258
0.0922155
0.0921861
0.0921674
0.0921566
0.0921513
0.0921494
0.0918263
0.0918293
0.0918367
0.0918509
0.0918744
0.0919097
0.0919592
0.0920238
0.0921027
0.0921932
0.0922907
0.0923908
0.0924899
0.0925865
0.0926802
0.0927702
0.0928451
0.092885
0.0928789
0.0928282
0.0927424
0.0926376
0.0925305
0.0924335
0.0923535
0.092292
0.0922479
0.0922186
0.0922007
0.092191
0.0921866
0.0921852
0.0918447
0.0918477
0.0918556
0.0918707
0.0918957
0.0919337
0.0919869
0.0920563
0.092141
0.0922375
0.092341
0.0924467
0.0925515
0.0926544
0.0927562
0.0928565
0.0929436
0.092995
0.0929977
0.0929509
0.0928626
0.0927483
0.0926271
0.0925156
0.0924242
0.0923557
0.0923082
0.092278
0.0922607
0.0922521
0.0922487
0.0922479
0.0918659
0.0918691
0.0918773
0.0918932
0.0919198
0.0919603
0.0920173
0.0920917
0.0921824
0.0922855
0.0923957
0.0925079
0.0926189
0.0927285
0.092838
0.0929481
0.0930479
0.0931151
0.0931353
0.093105
0.0930276
0.0929158
0.0927882
0.0926643
0.0925588
0.0924787
0.0924237
0.0923896
0.0923709
0.0923622
0.0923592
0.0923588
0.0918897
0.091893
0.0919015
0.0919181
0.091946
0.0919888
0.0920492
0.0921284
0.0922249
0.0923345
0.0924513
0.0925696
0.0926861
0.0928005
0.0929148
0.0930313
0.0931423
0.0932295
0.0932783
0.0932815
0.0932364
0.0931493
0.0930346
0.092911
0.092796
0.0927021
0.0926341
0.0925902
0.0925653
0.0925532
0.0925487
0.0925478
0.0919153
0.0919186
0.0919273
0.0919443
0.0919731
0.0920175
0.0920806
0.0921634
0.0922647
0.0923796
0.0925014
0.0926237
0.0927423
0.0928568
0.0929693
0.0930844
0.0932009
0.0933085
0.0933941
0.0934461
0.0934554
0.0934204
0.0933478
0.0932509
0.0931458
0.0930478
0.0929678
0.0929102
0.0928737
0.0928535
0.0928444
0.0928416
0.0919412
0.0919445
0.0919532
0.0919703
0.0919994
0.0920443
0.0921082
0.0921926
0.092296
0.0924132
0.0925366
0.0926584
0.0927732
0.0928794
0.0929794
0.0930805
0.0931903
0.093311
0.0934318
0.0935372
0.0936124
0.0936482
0.0936434
0.0936034
0.0935387
0.0934627
0.0933884
0.0933262
0.0932809
0.0932523
0.0932373
0.0932317
0.0919652
0.0919685
0.091977
0.0919936
0.0920218
0.0920653
0.0921276
0.0922101
0.0923113
0.0924259
0.0925454
0.0926606
0.0927638
0.0928518
0.0929265
0.0929977
0.0930836
0.0932021
0.0933465
0.0934978
0.0936349
0.0937426
0.093813
0.0938451
0.0938433
0.0938163
0.0937749
0.0937304
0.0936916
0.0936636
0.0936469
0.09364
0.0919837
0.0919868
0.0919949
0.0920104
0.0920363
0.0920763
0.0921334
0.0922093
0.0923028
0.0924086
0.0925179
0.0926201
0.0927054
0.0927679
0.0928079
0.0928367
0.0928821
0.0929803
0.0931325
0.0933175
0.0935081
0.0936813
0.0938221
0.0939238
0.0939867
0.094016
0.0940199
0.0940081
0.0939901
0.0939731
0.0939613
0.0939557
0.0919911
0.0919941
0.0920016
0.0920155
0.0920384
0.0920732
0.0921226
0.0921884
0.0922695
0.0923617
0.0924564
0.0925428
0.0926094
0.0926479
0.0926563
0.0926443
0.0926449
0.0927087
0.0928491
0.0930501
0.0932829
0.093516
0.0937241
0.0938919
0.0940142
0.0940936
0.0941373
0.0941551
0.0941572
0.0941521
0.0941462
0.0941427
0.0919864
0.0919893
0.0919962
0.0920087
0.0920287
0.0920585
0.0921003
0.0921556
0.092224
0.0923017
0.0923817
0.0924538
0.0925065
0.0925305
0.0925216
0.0924874
0.0924605
0.0924944
0.0926103
0.0928037
0.0930534
0.0933276
0.0935926
0.0938222
0.0940021
0.0941293
0.0942092
0.0942521
0.0942698
0.0942733
0.0942712
0.0942688
0.0919733
0.0919761
0.0919826
0.091994
0.0920117
0.0920375
0.092073
0.0921194
0.0921765
0.0922415
0.0923084
0.0923687
0.0924121
0.0924294
0.0924161
0.0923779
0.0923455
0.0923679
0.0924665
0.0926439
0.0928885
0.093176
0.0934732
0.0937475
0.0939757
0.094147
0.0942623
0.0943302
0.0943632
0.0943747
0.0943756
0.094374
0.0919557
0.0919583
0.0919643
0.0919747
0.0919906
0.0920132
0.0920437
0.0920829
0.0921306
0.0921846
0.0922402
0.0922906
0.0923274
0.0923429
0.0923335
0.0923048
0.0922841
0.092312
0.092406
0.0925711
0.0928022
0.0930838
0.0933895
0.0936874
0.0939489
0.094156
0.0943032
0.0943955
0.0944446
0.0944647
0.094469
0.0944681
0.0919393
0.0919415
0.0919466
0.0919554
0.0919691
0.0919886
0.0920148
0.092048
0.0920879
0.0921327
0.0921789
0.0922213
0.092254
0.092272
0.0922734
0.0922646
0.0922687
0.0923142
0.0924133
0.0925715
0.0927883
0.0930542
0.0933509
0.0936525
0.0939306
0.0941624
0.0943359
0.0944509
0.0945161
0.0945454
0.0945536
0.0945536
0.0919332
0.0919344
0.0919374
0.0919433
0.0919533
0.0919685
0.0919898
0.0920174
0.0920506
0.0920881
0.0921273
0.0921653
0.0921986
0.092225
0.0922447
0.092265
0.0923021
0.0923718
0.0924803
0.0926337
0.0928351
0.0930807
0.0933582
0.093648
0.0939266
0.0941707
0.0943632
0.0944977
0.0945786
0.0946177
0.0946303
0.0946313
0.09195
0.0919493
0.0919486
0.0919492
0.0919528
0.0919613
0.091976
0.0919973
0.092025
0.092058
0.092095
0.0921348
0.0921764
0.0922192
0.0922649
0.09232
0.0923928
0.0924868
0.092604
0.0927516
0.0929351
0.0931559
0.0934074
0.0936756
0.0939417
0.0941855
0.0943882
0.0945379
0.0946331
0.0946822
0.0946998
0.094702
0.0920038
0.0920002
0.0919939
0.0919866
0.0919811
0.0919803
0.091987
0.0920024
0.0920269
0.0920603
0.0921023
0.0921527
0.0922111
0.0922776
0.0923534
0.092443
0.0925473
0.0926601
0.0927815
0.0929199
0.0930829
0.0932752
0.0934953
0.0937346
0.0939789
0.0942115
0.0944149
0.0945737
0.0946808
0.0947396
0.0947626
0.0947662
0.092107
0.0920997
0.0920865
0.0920702
0.092055
0.0920452
0.0920451
0.0920576
0.0920841
0.0921247
0.0921794
0.0922475
0.0923281
0.0924201
0.0925233
0.0926401
0.0927655
0.0928878
0.0930069
0.0931323
0.0932726
0.0934344
0.0936198
0.0938249
0.0940403
0.0942531
0.0944477
0.0946082
0.0947233
0.0947906
0.0948191
0.0948245
0.0922681
0.0922566
0.0922368
0.0922138
0.0921931
0.09218
0.0921794
0.0921955
0.0922303
0.0922839
0.0923551
0.0924422
0.0925427
0.0926542
0.092775
0.092906
0.0930391
0.0931605
0.0932708
0.0933799
0.0934965
0.0936279
0.0937779
0.0939461
0.0941274
0.0943132
0.0944907
0.0946451
0.0947626
0.0948361
0.0948698
0.0948772
0.0924914
0.0924758
0.0924528
0.0924302
0.0924139
0.0924081
0.0924165
0.0924434
0.0924906
0.0925574
0.0926419
0.0927412
0.0928519
0.0929708
0.0930954
0.0932259
0.0933534
0.0934647
0.093561
0.0936518
0.0937452
0.0938478
0.093964
0.0940955
0.0942406
0.0943941
0.0945474
0.0946878
0.0948012
0.0948772
0.0949149
0.0949245
0.0927791
0.0927612
0.0927421
0.0927314
0.0927319
0.0927441
0.0927689
0.0928095
0.0928667
0.0929403
0.0930283
0.0931277
0.0932352
0.0933475
0.0934623
0.0935794
0.0936907
0.0937851
0.0938642
0.093936
0.0940075
0.0940842
0.0941702
0.0942677
0.094377
0.0944961
0.0946199
0.0947393
0.0948418
0.0949154
0.0949551
0.0949666
0.0931353
0.0931192
0.0931147
0.0931271
0.093152
0.0931852
0.0932255
0.0932747
0.0933339
0.0934036
0.093483
0.09357
0.0936618
0.093756
0.0938506
0.0939452
0.0940336
0.0941072
0.0941675
0.0942208
0.0942725
0.0943266
0.0943866
0.0944545
0.0945313
0.0946168
0.0947087
0.0948019
0.0948869
0.0949524
0.0949909
0.0950036
0.0935695
0.0935633
0.093583
0.0936197
0.093663
0.0937078
0.0937529
0.0937998
0.0938503
0.093906
0.093967
0.0940322
0.0941001
0.0941689
0.0942371
0.0943047
0.094367
0.0944183
0.0944598
0.0944958
0.09453
0.0945651
0.0946035
0.0946468
0.0946958
0.0947511
0.094812
0.0948763
0.0949385
0.0949902
0.0950233
0.0950358
0.0940998
0.0941126
0.0941501
0.0941921
0.0942331
0.0942711
0.0943059
0.094339
0.0943722
0.0944069
0.094444
0.0944832
0.0945235
0.0945641
0.0946042
0.0946436
0.0946797
0.0947093
0.0947329
0.0947533
0.0947723
0.0947916
0.0948124
0.0948357
0.0948621
0.0948919
0.0949252
0.0949613
0.094998
0.0950307
0.0950537
0.0950635
0.0947486
0.0947586
0.0947779
0.0947963
0.094813
0.0948279
0.0948409
0.0948528
0.0948642
0.0948758
0.094888
0.0949008
0.094914
0.0949272
0.0949401
0.0949529
0.0949645
0.094974
0.0949816
0.094988
0.094994
0.0950001
0.0950066
0.0950138
0.0950219
0.0950311
0.0950414
0.0950526
0.0950643
0.0950752
0.0950836
0.0950876
)
;

boundaryField
{
    movingWall
    {
        type            fixedValue;
        value           uniform 0.0951;
    }
    fixedWalls
    {
        type            zeroGradient;
    }
    floor
    {
        type            zeroGradient;
    }
    frontAndBack
    {
        type            empty;
    }
}


// ************************************************************************* //
