/*--------------------------------*- C++ -*----------------------------------*\
| =========                 |                                                 |
| \\      /  F ield         | OpenFOAM: The Open Source CFD Toolbox           |
|  \\    /   O peration     | Version:  2212                                  |
|   \\  /    A nd           | Website:  www.openfoam.com                      |
|    \\/     M anipulation  |                                                 |
\*---------------------------------------------------------------------------*/
FoamFile
{
    version     2.0;
    format      ascii;
    arch        "LSB;label=64;scalar=64";
    class       volScalarField;
    location    "1780";
    object      Xli;
}
// * * * * * * * * * * * * * * * * * * * * * * * * * * * * * * * * * * * * * //

dimensions      [1 -3 0 0 0 0 0];

internalField   nonuniform List<scalar> 
1024
(
0.0425568
0.0425576
0.0425596
0.0425632
0.0425691
0.042578
0.0425904
0.042607
0.0426279
0.0426531
0.0426815
0.0427118
0.0427422
0.0427707
0.0427959
0.0428162
0.0428288
0.0428317
0.0428264
0.0428144
0.0427976
0.0427775
0.0427559
0.0427346
0.0427154
0.0426993
0.0426868
0.0426777
0.0426716
0.0426678
0.0426657
0.0426648
0.0425571
0.0425579
0.0425599
0.0425636
0.0425695
0.0425784
0.042591
0.0426077
0.0426288
0.0426541
0.0426826
0.042713
0.0427433
0.0427719
0.042797
0.0428174
0.0428299
0.0428329
0.0428276
0.0428157
0.0427988
0.0427787
0.042757
0.0427356
0.0427162
0.0427
0.0426873
0.0426782
0.0426719
0.0426681
0.042666
0.0426651
0.0425577
0.0425585
0.0425605
0.0425643
0.0425704
0.0425795
0.0425923
0.0426093
0.0426308
0.0426563
0.0426851
0.0427156
0.042746
0.0427745
0.0427996
0.04282
0.0428328
0.0428359
0.0428306
0.0428186
0.0428016
0.0427812
0.0427593
0.0427376
0.0427179
0.0427014
0.0426885
0.0426791
0.0426727
0.0426688
0.0426666
0.0426658
0.0425588
0.0425596
0.0425617
0.0425656
0.0425719
0.0425813
0.0425945
0.0426121
0.042634
0.0426601
0.0426892
0.0427199
0.0427504
0.0427789
0.0428041
0.0428247
0.0428378
0.0428413
0.0428362
0.0428238
0.0428062
0.0427853
0.0427628
0.0427406
0.0427205
0.0427035
0.0426902
0.0426806
0.042674
0.04267
0.0426678
0.0426669
0.0425605
0.0425614
0.0425636
0.0425677
0.0425743
0.0425841
0.0425979
0.0426161
0.0426389
0.0426657
0.0426953
0.0427264
0.042757
0.0427856
0.042811
0.0428321
0.042846
0.0428501
0.042845
0.0428321
0.0428133
0.0427911
0.0427676
0.0427447
0.0427239
0.0427064
0.0426927
0.0426827
0.0426761
0.0426719
0.0426697
0.0426688
0.0425631
0.042564
0.0425663
0.0425706
0.0425775
0.042588
0.0426025
0.0426217
0.0426455
0.0426732
0.0427036
0.0427351
0.042766
0.0427949
0.0428208
0.0428429
0.042858
0.0428632
0.0428582
0.0428441
0.0428235
0.0427992
0.042774
0.0427498
0.0427281
0.04271
0.0426959
0.0426857
0.0426789
0.0426748
0.0426726
0.0426718
0.0425665
0.0425675
0.0425699
0.0425745
0.0425819
0.042593
0.0426085
0.0426289
0.0426539
0.0426828
0.0427142
0.0427464
0.0427779
0.0428074
0.0428342
0.0428577
0.0428748
0.0428815
0.0428766
0.042861
0.0428377
0.0428104
0.0427825
0.0427563
0.0427334
0.0427146
0.0427002
0.0426899
0.0426832
0.0426791
0.0426771
0.0426763
0.042571
0.042572
0.0425746
0.0425794
0.0425874
0.0425993
0.0426159
0.0426377
0.0426642
0.0426945
0.0427272
0.0427604
0.0427927
0.0428232
0.0428516
0.0428773
0.0428971
0.0429058
0.0429012
0.0428841
0.0428575
0.0428262
0.0427946
0.0427656
0.0427409
0.0427212
0.0427065
0.0426963
0.0426897
0.042686
0.0426841
0.0426834
0.0425766
0.0425777
0.0425804
0.0425855
0.042594
0.0426068
0.0426247
0.042648
0.0426762
0.0427083
0.0427425
0.0427771
0.0428107
0.0428428
0.0428732
0.0429017
0.0429248
0.0429363
0.0429327
0.0429147
0.0428853
0.0428497
0.0428135
0.0427806
0.0427533
0.0427323
0.0427172
0.042707
0.0427008
0.0426975
0.0426959
0.0426954
0.0425833
0.0425844
0.0425873
0.0425927
0.0426018
0.0426155
0.0426346
0.0426596
0.0426897
0.0427238
0.04276
0.0427963
0.0428316
0.0428656
0.0428984
0.0429302
0.0429571
0.0429722
0.0429714
0.0429547
0.0429245
0.0428858
0.042845
0.0428075
0.0427766
0.0427533
0.0427372
0.0427268
0.0427209
0.0427179
0.0427167
0.0427164
0.042591
0.0425922
0.0425952
0.0426009
0.0426105
0.0426251
0.0426455
0.0426721
0.0427043
0.0427406
0.0427789
0.0428173
0.0428545
0.0428904
0.0429256
0.0429604
0.0429913
0.0430114
0.0430163
0.043005
0.0429784
0.0429408
0.042898
0.0428565
0.0428211
0.0427942
0.0427757
0.0427642
0.0427578
0.0427548
0.0427538
0.0427536
0.0425997
0.0426009
0.0426039
0.0426099
0.04262
0.0426353
0.0426569
0.0426852
0.0427193
0.0427578
0.0427982
0.0428385
0.0428773
0.0429146
0.0429512
0.0429878
0.0430222
0.0430487
0.0430629
0.0430624
0.0430466
0.0430172
0.042979
0.0429379
0.0428997
0.0428685
0.0428458
0.0428311
0.0428228
0.0428188
0.0428173
0.042817
0.042609
0.0426102
0.0426133
0.0426194
0.0426298
0.0426457
0.0426682
0.0426976
0.0427334
0.0427736
0.0428156
0.0428571
0.0428965
0.0429336
0.0429694
0.0430054
0.0430412
0.0430742
0.0431001
0.0431156
0.0431175
0.0431054
0.0430813
0.0430494
0.0430148
0.0429826
0.0429563
0.0429374
0.0429253
0.0429187
0.0429157
0.0429148
0.0426185
0.0426197
0.0426228
0.0426289
0.0426393
0.0426553
0.0426781
0.0427081
0.0427445
0.0427855
0.042828
0.0428693
0.0429073
0.0429417
0.0429731
0.0430042
0.0430377
0.0430745
0.0431116
0.0431441
0.0431671
0.043178
0.0431761
0.0431631
0.0431422
0.0431177
0.0430938
0.0430738
0.0430591
0.0430499
0.0430451
0.0430433
0.0426274
0.0426285
0.0426316
0.0426375
0.0426475
0.0426631
0.0426852
0.0427145
0.0427502
0.0427903
0.0428316
0.0428707
0.042905
0.0429332
0.0429563
0.0429775
0.0430029
0.0430387
0.043083
0.0431298
0.0431723
0.0432059
0.0432279
0.0432381
0.0432378
0.0432296
0.0432169
0.0432031
0.043191
0.0431823
0.0431771
0.0431749
0.0426343
0.0426355
0.0426383
0.0426438
0.0426531
0.0426673
0.0426877
0.0427147
0.0427477
0.0427849
0.0428229
0.0428579
0.0428864
0.0429065
0.0429182
0.0429255
0.0429377
0.0429668
0.0430135
0.0430707
0.0431298
0.0431835
0.0432273
0.0432592
0.0432792
0.0432888
0.0432907
0.0432877
0.0432826
0.0432777
0.0432743
0.0432726
0.0426375
0.0426385
0.0426412
0.0426461
0.0426543
0.0426667
0.0426843
0.0427078
0.0427367
0.0427693
0.0428027
0.0428327
0.0428554
0.0428678
0.0428695
0.0428638
0.0428615
0.0428797
0.0429225
0.0429848
0.0430571
0.0431295
0.0431939
0.0432459
0.0432839
0.0433089
0.0433229
0.0433291
0.0433303
0.0433293
0.0433278
0.0433269
0.0426363
0.0426373
0.0426397
0.0426442
0.0426513
0.042662
0.042677
0.0426968
0.0427213
0.0427491
0.0427776
0.0428031
0.0428215
0.0428297
0.0428261
0.0428135
0.0428025
0.0428111
0.0428463
0.0429062
0.0429839
0.0430692
0.0431513
0.0432223
0.0432779
0.0433172
0.0433421
0.0433558
0.0433617
0.0433632
0.0433629
0.0433624
0.042632
0.042633
0.0426353
0.0426394
0.0426457
0.0426549
0.0426677
0.0426844
0.042705
0.0427285
0.0427526
0.0427743
0.04279
0.0427963
0.0427917
0.042778
0.0427655
0.0427705
0.0428001
0.042855
0.0429312
0.0430208
0.043113
0.0431978
0.0432681
0.0433208
0.0433563
0.0433775
0.043388
0.0433919
0.0433925
0.0433922
0.042626
0.042627
0.0426291
0.0426328
0.0426385
0.0426467
0.0426577
0.0426719
0.0426892
0.0427088
0.0427291
0.0427475
0.0427611
0.0427671
0.042764
0.0427537
0.0427452
0.042752
0.0427802
0.0428313
0.0429034
0.0429911
0.0430861
0.0431782
0.0432587
0.0433222
0.0433673
0.0433958
0.0434111
0.0434175
0.0434191
0.043419
0.0426203
0.0426211
0.0426229
0.0426261
0.0426311
0.0426381
0.0426476
0.0426597
0.0426743
0.0426907
0.0427077
0.0427234
0.0427356
0.0427424
0.042743
0.0427394
0.042739
0.0427517
0.0427816
0.0428306
0.0428982
0.0429811
0.0430733
0.0431666
0.0432522
0.0433232
0.0433762
0.0434113
0.0434314
0.0434406
0.0434434
0.0434435
0.0426177
0.0426181
0.0426193
0.0426216
0.0426253
0.042631
0.0426388
0.0426489
0.0426611
0.0426749
0.0426894
0.0427034
0.0427156
0.042725
0.0427316
0.0427375
0.0427479
0.0427685
0.0428016
0.0428492
0.042912
0.0429886
0.0430749
0.0431645
0.0432502
0.0433249
0.0433836
0.0434245
0.0434492
0.0434613
0.0434654
0.0434658
0.0426223
0.0426221
0.0426221
0.0426227
0.0426244
0.0426278
0.0426335
0.0426415
0.0426517
0.0426637
0.0426772
0.0426914
0.042706
0.0427206
0.0427354
0.0427525
0.0427746
0.0428032
0.0428393
0.0428851
0.0429424
0.0430112
0.0430894
0.0431723
0.0432541
0.0433287
0.0433904
0.0434359
0.0434648
0.0434798
0.0434854
0.0434862
0.0426386
0.0426376
0.0426358
0.0426338
0.0426326
0.0426331
0.0426361
0.042642
0.042651
0.0426629
0.0426776
0.0426948
0.0427144
0.0427363
0.0427607
0.0427889
0.0428212
0.042856
0.0428936
0.0429366
0.0429875
0.0430474
0.0431158
0.0431898
0.0432649
0.0433361
0.0433979
0.0434461
0.0434785
0.0434963
0.0435034
0.0435047
0.0426705
0.0426683
0.0426644
0.0426595
0.0426552
0.0426528
0.0426535
0.0426584
0.0426677
0.0426816
0.0427
0.0427225
0.0427489
0.0427786
0.0428115
0.0428484
0.0428876
0.0429256
0.0429626
0.0430017
0.0430454
0.0430959
0.0431535
0.0432169
0.0432831
0.0433481
0.0434073
0.0434559
0.0434906
0.043511
0.0435197
0.0435215
0.0427206
0.0427171
0.0427111
0.0427041
0.042698
0.0426944
0.0426949
0.0427007
0.0427124
0.0427301
0.0427534
0.0427816
0.042814
0.0428496
0.042888
0.0429294
0.0429711
0.043009
0.0430434
0.0430775
0.0431139
0.0431548
0.0432014
0.0432533
0.0433091
0.0433659
0.0434199
0.0434666
0.0435019
0.0435241
0.0435343
0.0435366
0.0427902
0.0427854
0.0427783
0.0427715
0.0427667
0.0427652
0.0427684
0.0427774
0.0427928
0.0428144
0.0428416
0.0428734
0.0429087
0.0429465
0.0429861
0.0430273
0.0430673
0.0431021
0.0431322
0.0431606
0.0431897
0.0432216
0.0432577
0.0432984
0.043343
0.0433899
0.0434365
0.043479
0.0435131
0.0435359
0.0435473
0.0435502
0.0428798
0.0428743
0.0428684
0.0428652
0.0428656
0.0428697
0.0428778
0.0428909
0.0429093
0.0429328
0.0429608
0.0429924
0.0430266
0.0430622
0.0430986
0.0431355
0.0431705
0.0432001
0.0432248
0.0432473
0.0432696
0.0432935
0.0433201
0.0433503
0.0433839
0.0434203
0.043458
0.0434941
0.0435249
0.0435469
0.0435588
0.0435623
0.0429907
0.0429857
0.0429843
0.0429883
0.0429962
0.0430067
0.0430195
0.0430352
0.043054
0.0430761
0.0431013
0.0431288
0.0431579
0.0431878
0.0432177
0.0432475
0.0432753
0.0432984
0.0433173
0.043334
0.0433501
0.0433669
0.0433856
0.0434065
0.0434302
0.0434563
0.0434843
0.0435125
0.043538
0.0435576
0.043569
0.0435728
0.0431256
0.0431237
0.0431298
0.0431413
0.0431548
0.0431689
0.0431831
0.0431979
0.0432138
0.0432315
0.0432507
0.0432714
0.0432928
0.0433146
0.0433362
0.0433575
0.0433771
0.0433932
0.0434062
0.0434175
0.0434281
0.0434391
0.043451
0.0434644
0.0434795
0.0434964
0.0435149
0.0435344
0.0435531
0.0435685
0.0435783
0.043582
0.0432901
0.0432941
0.0433058
0.0433188
0.0433316
0.0433435
0.0433544
0.0433648
0.0433753
0.0433862
0.0433979
0.0434103
0.0434231
0.0434359
0.0434486
0.043461
0.0434724
0.0434816
0.0434891
0.0434954
0.0435014
0.0435074
0.0435138
0.043521
0.0435292
0.0435383
0.0435484
0.0435594
0.0435704
0.0435801
0.0435869
0.0435898
0.0434912
0.0434943
0.0435003
0.043506
0.0435112
0.0435159
0.04352
0.0435237
0.0435273
0.0435309
0.0435348
0.0435388
0.043543
0.0435471
0.0435512
0.0435553
0.0435589
0.0435619
0.0435643
0.0435663
0.0435682
0.0435701
0.0435721
0.0435743
0.0435768
0.0435796
0.0435828
0.0435862
0.0435897
0.0435929
0.0435954
0.0435966
)
;

boundaryField
{
    movingWall
    {
        type            fixedValue;
        value           uniform 0.0436;
    }
    fixedWalls
    {
        type            zeroGradient;
    }
    floor
    {
        type            zeroGradient;
    }
    frontAndBack
    {
        type            empty;
    }
}


// ************************************************************************* //
