/*--------------------------------*- C++ -*----------------------------------*\
| =========                 |                                                 |
| \\      /  F ield         | OpenFOAM: The Open Source CFD Toolbox           |
|  \\    /   O peration     | Version:  2212                                  |
|   \\  /    A nd           | Website:  www.openfoam.com                      |
|    \\/     M anipulation  |                                                 |
\*---------------------------------------------------------------------------*/
FoamFile
{
    version     2.0;
    format      ascii;
    arch        "LSB;label=64;scalar=64";
    class       volScalarField;
    location    "1780";
    object      Xpr;
}
// * * * * * * * * * * * * * * * * * * * * * * * * * * * * * * * * * * * * * //

dimensions      [1 -3 0 0 0 0 0];

internalField   nonuniform List<scalar> 
1024
(
0.0821477
0.0821493
0.0821532
0.0821604
0.082172
0.0821893
0.0822138
0.0822464
0.0822877
0.0823371
0.0823931
0.0824527
0.0825124
0.0825686
0.0826181
0.0826581
0.0826828
0.0826885
0.082678
0.0826546
0.0826215
0.0825819
0.0825393
0.0824975
0.0824597
0.0824281
0.0824035
0.0823856
0.0823735
0.082366
0.0823619
0.0823602
0.0821482
0.0821498
0.0821538
0.082161
0.0821727
0.0821902
0.0822149
0.0822478
0.0822894
0.0823391
0.0823953
0.082455
0.0825147
0.0825708
0.0826203
0.0826603
0.0826851
0.0826909
0.0826804
0.082657
0.0826239
0.0825842
0.0825415
0.0824994
0.0824613
0.0824294
0.0824045
0.0823864
0.0823742
0.0823666
0.0823624
0.0823608
0.0821494
0.0821511
0.0821551
0.0821625
0.0821744
0.0821923
0.0822175
0.082251
0.0822932
0.0823435
0.0824001
0.0824601
0.0825198
0.0825759
0.0826254
0.0826655
0.0826906
0.0826968
0.0826864
0.0826628
0.0826293
0.0825892
0.082546
0.0825034
0.0824647
0.0824321
0.0824067
0.0823883
0.0823757
0.082368
0.0823638
0.082362
0.0821516
0.0821533
0.0821574
0.0821651
0.0821774
0.082196
0.0822219
0.0822564
0.0822997
0.0823509
0.0824083
0.0824686
0.0825286
0.0825847
0.0826342
0.0826748
0.0827006
0.0827075
0.0826973
0.0826731
0.0826384
0.0825972
0.0825529
0.0825094
0.0824697
0.0824363
0.0824102
0.0823912
0.0823784
0.0823704
0.0823661
0.0823644
0.082155
0.0821568
0.0821611
0.0821691
0.082182
0.0822014
0.0822286
0.0822644
0.0823092
0.0823619
0.0824203
0.0824813
0.0825415
0.0825978
0.0826478
0.0826893
0.0827166
0.0827248
0.0827147
0.0826892
0.0826523
0.0826087
0.0825625
0.0825173
0.0824764
0.082442
0.082415
0.0823955
0.0823823
0.0823742
0.0823699
0.0823681
0.08216
0.0821618
0.0821664
0.0821748
0.0821885
0.082209
0.0822377
0.0822754
0.0823222
0.0823767
0.0824365
0.0824985
0.0825593
0.0826162
0.0826672
0.0827105
0.0827403
0.0827505
0.0827406
0.0827129
0.0826723
0.0826247
0.082575
0.0825273
0.0824846
0.082449
0.0824213
0.0824014
0.082388
0.0823799
0.0823756
0.0823739
0.0821668
0.0821687
0.0821735
0.0821825
0.0821971
0.0822189
0.0822495
0.0822895
0.0823387
0.0823956
0.0824574
0.0825208
0.0825826
0.0826406
0.0826935
0.0827397
0.0827734
0.0827866
0.0827769
0.0827462
0.0827003
0.0826467
0.0825917
0.0825402
0.0824951
0.0824581
0.0824297
0.0824096
0.0823963
0.0823884
0.0823843
0.0823827
0.0821756
0.0821777
0.0821827
0.0821923
0.0822079
0.0822313
0.0822641
0.0823068
0.082359
0.0824187
0.0824829
0.0825483
0.0826119
0.0826719
0.0827276
0.0827782
0.0828172
0.0828343
0.0828253
0.0827915
0.0827393
0.0826778
0.0826155
0.0825584
0.0825099
0.0824711
0.0824422
0.0824221
0.0824092
0.0824018
0.0823981
0.0823968
0.0821866
0.0821887
0.0821941
0.0822042
0.082221
0.0822461
0.0822813
0.082327
0.0823826
0.0824458
0.0825131
0.0825812
0.0826473
0.0827103
0.0827701
0.0828263
0.0828717
0.0828942
0.0828873
0.0828518
0.0827939
0.082724
0.0826527
0.082588
0.0825344
0.082493
0.0824632
0.0824433
0.0824311
0.0824244
0.0824214
0.0824204
0.0821998
0.082202
0.0822076
0.0822184
0.0822362
0.0822631
0.0823008
0.0823499
0.0824092
0.0824763
0.0825474
0.0826189
0.0826884
0.0827552
0.0828198
0.0828823
0.0829352
0.0829649
0.0829634
0.0829305
0.082871
0.082795
0.0827148
0.0826409
0.0825801
0.0825344
0.0825026
0.0824822
0.0824705
0.0824647
0.0824623
0.0824617
0.0822151
0.0822173
0.0822232
0.0822344
0.0822533
0.082282
0.0823223
0.0823746
0.082438
0.0825094
0.0825847
0.0826601
0.0827333
0.0828041
0.0828733
0.0829417
0.0830025
0.0830421
0.0830518
0.0830294
0.0829772
0.0829031
0.082819
0.0827374
0.0826678
0.0826148
0.0825783
0.0825556
0.0825431
0.0825373
0.0825353
0.082535
0.0822321
0.0822344
0.0822405
0.0822522
0.0822719
0.0823021
0.0823447
0.0824002
0.0824674
0.0825431
0.0826226
0.0827018
0.0827782
0.0828517
0.0829236
0.0829957
0.0830632
0.0831153
0.0831433
0.0831425
0.0831113
0.0830535
0.0829783
0.0828975
0.0828223
0.0827608
0.0827162
0.0826874
0.082671
0.0826631
0.0826601
0.0826595
0.0822505
0.0822528
0.0822589
0.0822709
0.0822913
0.0823225
0.0823668
0.0824248
0.0824951
0.0825741
0.0826569
0.0827385
0.082816
0.0828891
0.0829595
0.0830302
0.0831008
0.0831655
0.0832166
0.083247
0.0832508
0.083227
0.0831796
0.0831168
0.0830488
0.0829854
0.0829337
0.0828964
0.0828727
0.0828597
0.0828539
0.082852
0.0822691
0.0822715
0.0822776
0.0822896
0.08231
0.0823416
0.0823864
0.0824453
0.082517
0.0825976
0.0826813
0.0827625
0.0828373
0.0829048
0.0829667
0.083028
0.0830937
0.0831662
0.0832391
0.083303
0.0833484
0.0833698
0.083366
0.0833405
0.0832994
0.0832512
0.0832042
0.0831647
0.083136
0.0831178
0.0831083
0.0831048
0.0822866
0.0822888
0.0822948
0.0823065
0.0823262
0.0823568
0.0824004
0.082458
0.0825282
0.082607
0.0826883
0.0827652
0.0828326
0.0828883
0.0829337
0.0829753
0.0830252
0.0830957
0.0831829
0.0832749
0.0833587
0.0834246
0.083468
0.0834881
0.0834875
0.0834713
0.0834462
0.0834191
0.0833954
0.0833782
0.083368
0.0833637
0.0823002
0.0823024
0.0823081
0.0823189
0.0823371
0.0823651
0.0824052
0.0824583
0.0825233
0.0825965
0.0826713
0.0827401
0.0827962
0.0828356
0.0828587
0.0828731
0.082897
0.0829544
0.0830461
0.0831586
0.0832749
0.0833807
0.0834668
0.0835295
0.0835688
0.0835878
0.0835915
0.0835855
0.0835755
0.0835659
0.0835592
0.083556
0.0823064
0.0823085
0.0823137
0.0823234
0.0823395
0.0823639
0.0823986
0.0824448
0.0825016
0.0825658
0.0826314
0.0826904
0.0827351
0.0827596
0.082763
0.0827516
0.0827472
0.0827829
0.0828672
0.0829897
0.083132
0.0832743
0.0834012
0.0835034
0.0835782
0.0836272
0.0836549
0.083667
0.0836695
0.0836674
0.0836645
0.0836627
0.082304
0.082306
0.0823109
0.0823196
0.0823337
0.0823546
0.0823841
0.0824231
0.0824713
0.082526
0.0825821
0.0826322
0.0826685
0.0826845
0.0826776
0.0826526
0.0826312
0.0826481
0.0827172
0.0828351
0.082988
0.0831557
0.0833174
0.083457
0.0835662
0.0836436
0.0836927
0.0837195
0.0837312
0.0837342
0.0837336
0.0837326
0.0822956
0.0822976
0.0823021
0.0823101
0.0823226
0.0823408
0.0823659
0.0823988
0.0824393
0.0824854
0.0825329
0.0825757
0.0826064
0.0826188
0.0826098
0.082583
0.0825583
0.0825681
0.0826264
0.0827344
0.0828844
0.0830605
0.083242
0.0834088
0.0835471
0.0836507
0.0837206
0.0837622
0.0837829
0.0837906
0.0837918
0.0837912
0.0822839
0.0822857
0.08229
0.0822973
0.0823085
0.0823245
0.0823461
0.082374
0.0824081
0.0824467
0.0824867
0.082523
0.0825497
0.0825614
0.0825554
0.0825351
0.0825183
0.0825318
0.0825873
0.0826877
0.0828295
0.0830022
0.083189
0.0833702
0.0835286
0.0836535
0.0837423
0.0837982
0.0838283
0.083841
0.0838442
0.083844
0.0822726
0.0822741
0.0822777
0.0822841
0.0822938
0.0823077
0.0823264
0.0823502
0.0823788
0.0824111
0.0824445
0.0824754
0.0824994
0.0825128
0.0825141
0.0825069
0.0825062
0.0825311
0.08259
0.0826863
0.0828193
0.0829825
0.0831639
0.0833473
0.0835157
0.0836554
0.0837597
0.0838288
0.0838683
0.0838864
0.0838919
0.0838922
0.0822674
0.0822683
0.0822707
0.0822751
0.0822825
0.0822936
0.082309
0.0823289
0.0823529
0.08238
0.0824085
0.082436
0.0824601
0.0824786
0.0824916
0.0825031
0.0825237
0.0825643
0.0826294
0.0827229
0.0828465
0.0829973
0.0831669
0.0833432
0.0835118
0.0836588
0.0837742
0.0838548
0.0839034
0.0839272
0.0839352
0.0839361
0.0822765
0.0822762
0.0822762
0.0822773
0.0822807
0.0822875
0.0822986
0.0823143
0.0823344
0.0823581
0.0823845
0.0824126
0.0824412
0.0824699
0.0824991
0.0825327
0.0825762
0.0826325
0.0827034
0.0827936
0.0829062
0.0830417
0.0831955
0.0833586
0.0835196
0.0836663
0.0837877
0.0838772
0.0839341
0.0839636
0.0839745
0.0839761
0.0823086
0.0823066
0.0823031
0.0822993
0.0822968
0.0822978
0.0823036
0.0823153
0.082333
0.0823565
0.0823853
0.0824192
0.0824578
0.0825009
0.0825488
0.0826042
0.0826678
0.0827363
0.0828103
0.082895
0.082995
0.0831129
0.0832475
0.083393
0.0835408
0.0836807
0.0838024
0.0838971
0.0839609
0.0839961
0.08401
0.0840125
0.0823714
0.0823671
0.0823593
0.0823498
0.0823413
0.0823365
0.082338
0.0823475
0.0823659
0.0823933
0.0824294
0.0824737
0.0825255
0.082584
0.0826488
0.0827213
0.0827984
0.0828732
0.0829461
0.0830229
0.083109
0.0832082
0.0833216
0.0834463
0.0835766
0.0837045
0.0838209
0.0839166
0.0839849
0.0840249
0.084042
0.0840455
0.08247
0.0824631
0.0824512
0.0824375
0.0824255
0.0824184
0.0824193
0.0824307
0.0824539
0.0824887
0.0825345
0.08259
0.0826536
0.0827238
0.0827994
0.0828807
0.0829628
0.0830374
0.0831051
0.083172
0.0832436
0.0833241
0.0834157
0.083518
0.0836277
0.0837394
0.0838456
0.0839375
0.0840071
0.0840507
0.0840707
0.0840753
0.0826069
0.0825974
0.0825835
0.08257
0.0825606
0.0825578
0.082564
0.0825817
0.082612
0.0826545
0.0827079
0.0827705
0.08284
0.0829144
0.0829922
0.0830732
0.083152
0.0832206
0.0832797
0.0833355
0.0833928
0.0834557
0.0835267
0.0836066
0.0836943
0.0837867
0.0838784
0.0839619
0.084029
0.0840739
0.0840962
0.084102
0.0827832
0.0827723
0.0827607
0.0827544
0.0827552
0.0827632
0.0827792
0.082805
0.0828411
0.0828874
0.0829425
0.0830047
0.0830719
0.083142
0.0832135
0.0832862
0.0833551
0.0834133
0.0834619
0.0835061
0.08355
0.0835969
0.0836494
0.0837087
0.0837749
0.0838465
0.0839206
0.0839916
0.0840522
0.0840955
0.0841189
0.0841258
0.0830013
0.0829915
0.0829888
0.0829965
0.0830121
0.0830328
0.0830581
0.0830888
0.0831258
0.0831693
0.0832189
0.0832731
0.0833303
0.083389
0.0834478
0.0835066
0.0835613
0.0836067
0.0836438
0.0836766
0.0837083
0.0837415
0.0837781
0.0838194
0.0838659
0.0839173
0.0839723
0.0840278
0.084078
0.0841165
0.0841391
0.0841466
0.0832666
0.0832629
0.083275
0.0832976
0.0833242
0.0833519
0.0833798
0.0834089
0.0834403
0.083475
0.0835129
0.0835535
0.0835957
0.0836385
0.0836809
0.0837229
0.0837615
0.0837932
0.0838187
0.0838409
0.0838619
0.0838834
0.0839068
0.0839332
0.0839629
0.0839961
0.0840326
0.0840709
0.0841077
0.084138
0.0841573
0.0841646
0.0835904
0.0835982
0.0836212
0.0836469
0.083672
0.0836954
0.0837169
0.0837373
0.0837579
0.0837795
0.0838025
0.0838268
0.0838519
0.0838771
0.0839021
0.0839265
0.0839489
0.0839672
0.0839818
0.0839943
0.084006
0.0840178
0.0840305
0.0840447
0.0840606
0.0840786
0.0840986
0.0841201
0.0841418
0.0841609
0.0841743
0.08418
0.083986
0.0839921
0.0840039
0.0840152
0.0840254
0.0840345
0.0840425
0.0840498
0.0840569
0.0840641
0.0840717
0.0840796
0.0840878
0.084096
0.0841041
0.084112
0.0841192
0.0841251
0.0841297
0.0841337
0.0841374
0.0841411
0.0841451
0.0841495
0.0841544
0.0841599
0.0841661
0.0841728
0.0841797
0.0841861
0.0841909
0.0841933
)
;

boundaryField
{
    movingWall
    {
        type            fixedValue;
        value           uniform 0.0842;
    }
    fixedWalls
    {
        type            zeroGradient;
    }
    floor
    {
        type            zeroGradient;
    }
    frontAndBack
    {
        type            empty;
    }
}


// ************************************************************************* //
