/*--------------------------------*- C++ -*----------------------------------*\
| =========                 |                                                 |
| \\      /  F ield         | OpenFOAM: The Open Source CFD Toolbox           |
|  \\    /   O peration     | Version:  2212                                  |
|   \\  /    A nd           | Website:  www.openfoam.com                      |
|    \\/     M anipulation  |                                                 |
\*---------------------------------------------------------------------------*/
FoamFile
{
    version     2.0;
    format      ascii;
    arch        "LSB;label=64;scalar=64";
    class       volScalarField;
    location    "1390";
    object      Gch4;
}
// * * * * * * * * * * * * * * * * * * * * * * * * * * * * * * * * * * * * * //

dimensions      [1 -3 0 0 0 0 0];

internalField   nonuniform List<scalar> 
1024
(
1.9334
1.93326
1.93292
1.93231
1.93135
1.92995
1.92809
1.92578
1.92311
1.92027
1.91746
1.91489
1.91272
1.911
1.90977
1.90911
1.90941
1.911
1.91371
1.91735
1.9217
1.9265
1.9314
1.93603
1.94011
1.94344
1.94601
1.94786
1.94911
1.94989
1.95031
1.95049
1.93335
1.93321
1.93287
1.93225
1.93126
1.92985
1.92795
1.92561
1.92292
1.92005
1.91723
1.91466
1.91249
1.91078
1.90955
1.9089
1.90919
1.91078
1.91348
1.91711
1.92146
1.92626
1.93118
1.93584
1.93995
1.94332
1.94592
1.94779
1.94906
1.94985
1.95028
1.95045
1.93323
1.93308
1.93273
1.93209
1.93108
1.92961
1.92766
1.92525
1.92248
1.91954
1.91666
1.91408
1.91191
1.91022
1.90901
1.90835
1.90865
1.91025
1.91298
1.91661
1.92096
1.92577
1.93072
1.93543
1.93961
1.94306
1.94572
1.94765
1.94895
1.94976
1.9502
1.95038
1.93301
1.93286
1.9325
1.93183
1.93077
1.92923
1.92718
1.92464
1.92173
1.91864
1.91563
1.91298
1.91082
1.90916
1.90798
1.90735
1.90768
1.90935
1.91214
1.91583
1.9202
1.92503
1.93002
1.93481
1.93909
1.94264
1.9454
1.94741
1.94876
1.94961
1.95007
1.95026
1.93267
1.93252
1.93214
1.93143
1.93031
1.92867
1.92647
1.92373
1.92057
1.91721
1.91398
1.9112
1.90902
1.9074
1.90629
1.90571
1.90613
1.90795
1.91092
1.91475
1.9192
1.92408
1.92913
1.93401
1.93841
1.9421
1.94498
1.94708
1.94851
1.94939
1.94988
1.95007
1.93216
1.932
1.93161
1.93087
1.92966
1.92789
1.92549
1.92246
1.91892
1.91514
1.91153
1.90853
1.90628
1.90472
1.90369
1.90322
1.90382
1.90596
1.90928
1.91338
1.91802
1.92301
1.92815
1.93314
1.93766
1.94148
1.94449
1.94669
1.94819
1.94912
1.94963
1.94983
1.93141
1.93126
1.93085
1.93006
1.92877
1.92683
1.92415
1.92072
1.91666
1.91229
1.90815
1.90479
1.90242
1.90088
1.89996
1.89965
1.90058
1.90326
1.90717
1.91178
1.91676
1.92196
1.92723
1.93233
1.93696
1.9409
1.94401
1.9463
1.94785
1.94882
1.94935
1.94956
1.93034
1.93018
1.92976
1.92893
1.92753
1.92538
1.92236
1.91841
1.91367
1.90854
1.90371
1.89986
1.89725
1.89569
1.89485
1.89477
1.89622
1.89975
1.9046
1.91
1.91554
1.9211
1.92657
1.93178
1.93649
1.94049
1.94365
1.94597
1.94755
1.94853
1.94905
1.94927
1.9288
1.92864
1.9282
1.92731
1.92578
1.92339
1.91995
1.91537
1.90981
1.90377
1.89811
1.89364
1.89068
1.88899
1.88821
1.88842
1.89062
1.89535
1.90155
1.90812
1.91451
1.9206
1.92636
1.9317
1.93643
1.9404
1.94351
1.94578
1.94732
1.94826
1.94877
1.94897
1.92657
1.9264
1.92594
1.92498
1.9233
1.92061
1.91666
1.91135
1.90487
1.89784
1.89126
1.88608
1.88264
1.8807
1.87989
1.88043
1.88358
1.88991
1.89789
1.90608
1.91368
1.92054
1.9267
1.93216
1.93685
1.94068
1.94362
1.94573
1.94713
1.94797
1.94841
1.94858
1.92335
1.92318
1.92267
1.92162
1.91974
1.91669
1.91218
1.90606
1.89858
1.89052
1.88302
1.87707
1.87306
1.8707
1.86969
1.87049
1.87466
1.88275
1.89288
1.90317
1.91245
1.92042
1.92718
1.93284
1.93745
1.94105
1.94369
1.9455
1.94663
1.94727
1.94758
1.94769
1.91883
1.91864
1.91807
1.91688
1.91473
1.91125
1.90607
1.89908
1.89061
1.88156
1.87318
1.86648
1.86177
1.85876
1.85723
1.85792
1.86264
1.87203
1.8841
1.89673
1.9083
1.91803
1.9259
1.93211
1.93681
1.9402
1.94247
1.94384
1.94456
1.94484
1.9449
1.94488
1.91273
1.9125
1.91184
1.91044
1.90794
1.90391
1.89798
1.89007
1.88063
1.87069
1.86154
1.8541
1.84853
1.84448
1.84184
1.84148
1.84529
1.85421
1.8667
1.88078
1.89457
1.90677
1.91672
1.92446
1.93001
1.93367
1.93579
1.93674
1.93693
1.93673
1.93642
1.93621
1.90507
1.90479
1.90399
1.90231
1.89932
1.89458
1.88775
1.87886
1.86853
1.85788
1.84814
1.83998
1.83332
1.82776
1.82318
1.82025
1.82062
1.82565
1.83487
1.84695
1.86035
1.87366
1.88574
1.89599
1.90386
1.90936
1.91263
1.9141
1.91437
1.91402
1.91353
1.91321
1.89666
1.89634
1.89543
1.89353
1.89018
1.88494
1.87753
1.86806
1.85718
1.84594
1.83542
1.82616
1.81804
1.81062
1.8036
1.79708
1.79199
1.78979
1.79109
1.79566
1.80292
1.8121
1.82235
1.83273
1.84234
1.85058
1.8569
1.86112
1.86349
1.86451
1.86476
1.86471
1.88867
1.88834
1.8874
1.88547
1.88208
1.87678
1.86932
1.85978
1.84875
1.83718
1.82607
1.81604
1.80707
1.7988
1.79075
1.78241
1.77365
1.76513
1.75794
1.75271
1.74987
1.74962
1.7519
1.75642
1.76261
1.76964
1.77662
1.78272
1.78737
1.7904
1.792
1.79258
1.88256
1.88225
1.88137
1.87959
1.87647
1.8716
1.8647
1.85578
1.84531
1.83413
1.82327
1.81352
1.80523
1.79828
1.79227
1.7864
1.77946
1.77054
1.76028
1.74971
1.73986
1.73151
1.72522
1.72129
1.71977
1.72043
1.72274
1.72595
1.72921
1.73185
1.73355
1.7343
1.87888
1.87859
1.8778
1.87623
1.87351
1.86927
1.86321
1.85531
1.84587
1.83564
1.8256
1.81671
1.80961
1.80452
1.80125
1.79901
1.79601
1.78988
1.78042
1.76862
1.75579
1.74322
1.73192
1.72261
1.71566
1.7111
1.70872
1.70805
1.70847
1.70933
1.71012
1.71055
1.87705
1.87678
1.87607
1.87469
1.87235
1.86873
1.86355
1.85672
1.84847
1.83937
1.83033
1.82232
1.81613
1.81221
1.81054
1.81043
1.8099
1.80607
1.79812
1.7865
1.7723
1.75697
1.74202
1.72874
1.71799
1.71009
1.70494
1.70208
1.70089
1.7007
1.70091
1.70112
1.87643
1.87617
1.87553
1.87431
1.8723
1.86922
1.86483
1.85903
1.85194
1.84403
1.83605
1.82887
1.82332
1.81991
1.81871
1.81911
1.81918
1.81625
1.80939
1.79865
1.7846
1.76835
1.75135
1.73519
1.72124
1.71032
1.70266
1.69795
1.69555
1.69467
1.69457
1.69469
1.8765
1.87626
1.87569
1.87463
1.87289
1.87027
1.86657
1.86169
1.8557
1.84894
1.84202
1.83565
1.83054
1.82715
1.82556
1.8252
1.82437
1.82102
1.81442
1.80439
1.79113
1.77524
1.75783
1.74034
1.72434
1.71108
1.70119
1.69469
1.69106
1.68949
1.6891
1.68914
1.87663
1.87645
1.876
1.87513
1.8737
1.87152
1.86843
1.86435
1.85934
1.85363
1.84766
1.84195
1.83702
1.8332
1.83053
1.82845
1.82572
1.8211
1.81413
1.8045
1.79212
1.77724
1.76053
1.74309
1.72631
1.71163
1.70005
1.69198
1.68716
1.68486
1.68415
1.68412
1.8759
1.87584
1.87562
1.8751
1.8741
1.87243
1.86995
1.86658
1.86237
1.85746
1.85212
1.84668
1.84146
1.83669
1.83234
1.82797
1.82291
1.81673
1.80919
1.79987
1.78846
1.77488
1.75949
1.74304
1.72663
1.71152
1.69894
1.68964
1.68374
1.68072
1.67965
1.67954
1.87313
1.87327
1.87345
1.87348
1.87311
1.87209
1.87023
1.86745
1.86374
1.85917
1.85389
1.8481
1.84202
1.83581
1.82948
1.82274
1.81547
1.80795
1.80003
1.79115
1.78085
1.76884
1.75518
1.74031
1.72504
1.71041
1.69756
1.6875
1.68073
1.67701
1.67557
1.67536
1.86708
1.86752
1.86826
1.869
1.86938
1.86906
1.86773
1.86524
1.86155
1.85671
1.85084
1.84412
1.83677
1.82897
1.82082
1.81217
1.80335
1.79504
1.78713
1.77894
1.76992
1.75966
1.748
1.73512
1.72154
1.70804
1.69564
1.68537
1.67801
1.6737
1.67189
1.67155
1.85679
1.85759
1.85891
1.86031
1.86129
1.86138
1.8602
1.85753
1.85333
1.84771
1.84085
1.83301
1.82447
1.81546
1.80615
1.79648
1.78703
1.77866
1.7712
1.76395
1.75633
1.74787
1.73832
1.72766
1.71615
1.70431
1.69295
1.68303
1.67547
1.67074
1.66858
1.6681
1.84168
1.84284
1.84454
1.84615
1.84711
1.84696
1.84531
1.84197
1.83697
1.8305
1.82284
1.81429
1.80519
1.79579
1.78627
1.77662
1.76749
1.75972
1.75313
1.747
1.7408
1.73411
1.72662
1.71822
1.70897
1.69915
1.68931
1.68027
1.67296
1.66805
1.66562
1.66501
1.82147
1.82286
1.82442
1.8254
1.82542
1.82426
1.82166
1.81753
1.81195
1.80514
1.79738
1.78899
1.78027
1.77146
1.7627
1.75402
1.74599
1.73933
1.73386
1.72896
1.72415
1.71909
1.71349
1.70721
1.70021
1.69258
1.68463
1.67693
1.67031
1.66556
1.66299
1.66225
1.79595
1.79722
1.7978
1.79722
1.79564
1.79317
1.7897
1.78523
1.77977
1.77347
1.76655
1.75926
1.75183
1.74445
1.73723
1.73019
1.72377
1.71855
1.71434
1.71066
1.70716
1.70355
1.69961
1.69521
1.69027
1.68478
1.67887
1.67287
1.66738
1.66314
1.66065
1.65982
1.76455
1.76509
1.76388
1.76152
1.75863
1.75542
1.75184
1.74785
1.74336
1.73841
1.73313
1.72766
1.72216
1.71676
1.71153
1.70648
1.70194
1.69827
1.69536
1.69286
1.69053
1.68817
1.68564
1.68282
1.67965
1.6761
1.67218
1.66803
1.66401
1.66067
1.65852
1.65772
1.72608
1.7252
1.72261
1.71975
1.71695
1.71426
1.71161
1.7089
1.70603
1.70297
1.69976
1.69647
1.6932
1.69
1.68692
1.68397
1.68132
1.67921
1.67754
1.67612
1.67482
1.67352
1.67214
1.67061
1.66891
1.66699
1.66484
1.66251
1.66014
1.65803
1.65654
1.6559
1.679
1.67828
1.67692
1.67564
1.67449
1.67344
1.67247
1.67152
1.67055
1.66953
1.66847
1.6674
1.66633
1.66529
1.66429
1.66333
1.66248
1.6618
1.66126
1.66081
1.6604
1.65999
1.65956
1.65909
1.65856
1.65797
1.65731
1.65658
1.65582
1.65512
1.65458
1.65432
)
;

boundaryField
{
    movingWall
    {
        type            fixedValue;
        value           uniform 1.6535;
    }
    fixedWalls
    {
        type            zeroGradient;
    }
    floor
    {
        type            zeroGradient;
    }
    frontAndBack
    {
        type            empty;
    }
}


// ************************************************************************* //
