/*--------------------------------*- C++ -*----------------------------------*\
| =========                 |                                                 |
| \\      /  F ield         | OpenFOAM: The Open Source CFD Toolbox           |
|  \\    /   O peration     | Version:  2212                                  |
|   \\  /    A nd           | Website:  www.openfoam.com                      |
|    \\/     M anipulation  |                                                 |
\*---------------------------------------------------------------------------*/
FoamFile
{
    version     2.0;
    format      ascii;
    arch        "LSB;label=64;scalar=64";
    class       volScalarField;
    location    "1390";
    object      Gco2;
}
// * * * * * * * * * * * * * * * * * * * * * * * * * * * * * * * * * * * * * //

dimensions      [1 -3 0 0 0 0 0];

internalField   nonuniform List<scalar> 
1024
(
0.058827
0.0588053
0.0587521
0.0586556
0.0585025
0.0582815
0.0579861
0.0576196
0.0571973
0.056746
0.0562997
0.0558921
0.0555454
0.0552707
0.0550725
0.0549639
0.0550057
0.0552532
0.0556796
0.0562536
0.0569413
0.0576997
0.0584738
0.0592056
0.059848
0.0603743
0.0607786
0.0610705
0.0612677
0.0613905
0.0614576
0.0614849
0.0588192
0.0587971
0.0587431
0.0586449
0.0584892
0.0582645
0.0579647
0.0575935
0.0571668
0.0567118
0.0562632
0.0558551
0.0555091
0.0552355
0.0550379
0.054929
0.0549699
0.055217
0.0556431
0.0562165
0.0569037
0.0576626
0.058439
0.0591751
0.059823
0.060355
0.0607644
0.0610602
0.0612601
0.0613844
0.0614524
0.06148
0.0588001
0.0587775
0.058722
0.0586206
0.0584597
0.0582274
0.0579179
0.0575356
0.057097
0.0566307
0.0561736
0.055762
0.0554171
0.0551462
0.0549509
0.0548425
0.0548839
0.0551333
0.0555621
0.0561369
0.0568244
0.0575848
0.0583659
0.0591104
0.0597694
0.0603131
0.060733
0.061037
0.0612426
0.0613703
0.0614401
0.0614684
0.0587659
0.0587426
0.0586849
0.0585791
0.0584105
0.0581667
0.0578413
0.0574391
0.0569772
0.0564867
0.0560094
0.0555881
0.0552432
0.0549775
0.0547873
0.0546824
0.0547287
0.0549882
0.0554283
0.056011
0.0567028
0.0574669
0.0582551
0.0590117
0.0596866
0.0602475
0.060683
0.0609993
0.0612134
0.0613465
0.061419
0.0614484
0.0587116
0.0586876
0.0586275
0.0585162
0.0583377
0.0580778
0.057729
0.0572951
0.0567939
0.0562604
0.0557459
0.055304
0.054956
0.0546974
0.0545164
0.0544199
0.0544803
0.054765
0.0552333
0.0558378
0.0565428
0.0573157
0.0581139
0.0588853
0.0595794
0.0601612
0.0606159
0.0609476
0.0611726
0.0613123
0.0613884
0.0614192
0.0586305
0.0586059
0.0585433
0.0584259
0.0582352
0.0579543
0.0575728
0.0570923
0.0565314
0.055931
0.0553569
0.0548785
0.0545205
0.0542694
0.0541016
0.0540208
0.0541104
0.0544452
0.0549691
0.0556189
0.0563536
0.0571448
0.0579576
0.0587456
0.0594599
0.0600633
0.0605381
0.060886
0.0611224
0.0612693
0.061349
0.0613812
0.0585127
0.0584877
0.0584227
0.0582986
0.0580933
0.0577859
0.057361
0.0568167
0.056172
0.0554776
0.0548184
0.0542833
0.0539035
0.0536562
0.0535039
0.053448
0.053589
0.0540098
0.0546296
0.05536
0.05615
0.0569754
0.0578103
0.0586164
0.0593487
0.0599703
0.0604617
0.0608229
0.0610686
0.0612212
0.0613038
0.0613371
0.0583432
0.0583179
0.0582505
0.0581188
0.0578965
0.0575564
0.0570764
0.0564496
0.0556966
0.0548812
0.0541112
0.053497
0.0530788
0.0528259
0.0526873
0.0526664
0.0528886
0.0534437
0.054213
0.0550718
0.0559528
0.0568349
0.0577027
0.0585281
0.0592733
0.0599048
0.0604038
0.0607704
0.0610195
0.0611737
0.061257
0.0612904
0.0580986
0.058073
0.0580028
0.0578623
0.0576197
0.05724
0.056693
0.0559656
0.0550818
0.0541224
0.05322
0.0525056
0.0520296
0.0517554
0.051623
0.0516468
0.0519863
0.0527345
0.0537187
0.0547657
0.0557834
0.0567516
0.0576661
0.0585117
0.0592614
0.0598891
0.060381
0.0607398
0.0609819
0.0611308
0.0612106
0.0612424
0.0577446
0.0577183
0.0576442
0.0574926
0.057225
0.0567981
0.056172
0.055328
0.0542962
0.0531771
0.0521288
0.051299
0.0507458
0.0504289
0.0502881
0.0503621
0.0508538
0.0518545
0.0531244
0.0544307
0.0556426
0.0567344
0.0577136
0.0585808
0.0593243
0.0599308
0.060396
0.060729
0.0609495
0.0610824
0.061152
0.061179
0.0572352
0.0572073
0.0571271
0.05696
0.0566607
0.0561767
0.0554591
0.0544858
0.0532959
0.0520118
0.050814
0.0498619
0.0492141
0.0488274
0.0486523
0.0487651
0.0494175
0.0506996
0.052312
0.0539543
0.0554357
0.0567059
0.0577824
0.0586828
0.059415
0.0599847
0.0604028
0.0606887
0.0608681
0.0609689
0.061017
0.0610335
0.0565178
0.0564867
0.0563966
0.0562073
0.0558661
0.055312
0.0544896
0.0533775
0.0520276
0.050584
0.0492441
0.0481692
0.0474081
0.0469133
0.0466538
0.0467465
0.047485
0.048973
0.0508957
0.0529108
0.0547586
0.0563124
0.0575678
0.0585564
0.0593049
0.0598427
0.0602023
0.0604195
0.0605321
0.0605766
0.0605847
0.0605809
0.0555499
0.0555135
0.0554081
0.0551867
0.0547887
0.0541465
0.0532028
0.0519438
0.0504388
0.0488512
0.0473864
0.0461909
0.0452897
0.0446274
0.044189
0.0441112
0.0447016
0.0461123
0.0481013
0.0503475
0.0525501
0.0544988
0.0560886
0.0573232
0.0582094
0.0587925
0.0591283
0.0592793
0.059309
0.0592757
0.059226
0.0591924
0.0543354
0.0542911
0.054163
0.0538958
0.0534205
0.0526647
0.0515763
0.0501602
0.0485118
0.0468101
0.0452484
0.0439353
0.0428597
0.0419551
0.0412054
0.0407153
0.0407525
0.0415397
0.0430003
0.0449242
0.0470645
0.049191
0.0511211
0.0527612
0.0540191
0.0548975
0.0554205
0.0556551
0.0556972
0.0556416
0.055563
0.0555109
0.0530014
0.0529508
0.0528049
0.0525025
0.0519695
0.0511341
0.0499524
0.0484425
0.0467055
0.0449091
0.0432227
0.0417349
0.0404257
0.0392237
0.0380838
0.0370195
0.0361807
0.0358039
0.0359928
0.036709
0.0378615
0.0393258
0.0409634
0.0426244
0.0441641
0.0454836
0.0464956
0.0471721
0.0475521
0.0477164
0.0477561
0.0477489
0.0517346
0.0516824
0.0515329
0.0512246
0.050684
0.0498402
0.0486505
0.04713
0.045369
0.0435201
0.0417428
0.0401332
0.0386918
0.0373572
0.0360552
0.0347002
0.0332703
0.0318759
0.0306945
0.0298308
0.0293562
0.0293014
0.0296581
0.0303774
0.0313684
0.0324971
0.033618
0.0345984
0.0353465
0.0358335
0.0360909
0.0361846
0.0507691
0.0507192
0.0505795
0.0502949
0.0497983
0.0490226
0.0479226
0.046502
0.0448323
0.0430492
0.0413143
0.039756
0.0384273
0.0373108
0.0363413
0.0353853
0.0342499
0.0327864
0.0311032
0.029371
0.0277555
0.0263868
0.0253542
0.024708
0.0244557
0.0245589
0.0249312
0.0254491
0.0259767
0.026405
0.0266795
0.0268005
0.050191
0.0501443
0.0500183
0.0497673
0.0493342
0.0486585
0.0476947
0.0464359
0.0449341
0.0433052
0.0417061
0.0402892
0.0391569
0.0383443
0.0378198
0.0374542
0.036956
0.0359448
0.0343893
0.0324516
0.0303468
0.0282841
0.0264318
0.0249056
0.0237663
0.0230218
0.0226336
0.0225252
0.0225952
0.0227375
0.0228671
0.0229372
0.0499066
0.0498628
0.0497492
0.0495294
0.0491569
0.0485801
0.047756
0.0466702
0.0453575
0.0439121
0.0424752
0.0412023
0.0402204
0.0395996
0.0393366
0.0393182
0.0392223
0.0385855
0.0372751
0.035368
0.0330393
0.0305262
0.028076
0.0258988
0.0241352
0.0228412
0.0219976
0.0215311
0.0213389
0.0213098
0.021346
0.0213804
0.0498134
0.0497721
0.0496689
0.0494751
0.0491542
0.0486639
0.0479664
0.0470444
0.0459193
0.0446639
0.0433972
0.0422605
0.0413822
0.0408447
0.0406592
0.040725
0.0407286
0.0402393
0.0391101
0.037347
0.035045
0.0323815
0.0295964
0.0269483
0.0246607
0.0228708
0.0216148
0.0208433
0.020451
0.0203093
0.0202951
0.0203148
0.0498291
0.0497917
0.0496998
0.0495304
0.049254
0.0488373
0.0482492
0.0474734
0.0465233
0.045453
0.044356
0.0433486
0.0425412
0.0420083
0.0417604
0.041703
0.0415623
0.0410065
0.039921
0.0382766
0.0361041
0.0335034
0.0306507
0.0277851
0.0251626
0.0229877
0.021367
0.0203013
0.0197066
0.0194502
0.0193878
0.0193963
0.0498523
0.049824
0.0497518
0.0496148
0.0493869
0.0490401
0.0485496
0.0479024
0.0471076
0.046204
0.0452586
0.0443555
0.0435756
0.0429728
0.0425481
0.0422133
0.0417659
0.0410061
0.0398625
0.0382851
0.036259
0.0338236
0.0310872
0.0282299
0.0254814
0.023073
0.0211746
0.0198508
0.0190602
0.0186844
0.018569
0.0185652
0.0497345
0.0497252
0.0496915
0.0496098
0.0494511
0.0491865
0.0487929
0.0482593
0.0475912
0.0468132
0.0459668
0.0451042
0.0442762
0.0435163
0.0428197
0.0421132
0.0412869
0.0402763
0.0390432
0.0375184
0.0356512
0.0334306
0.0309114
0.0282181
0.0255291
0.0230522
0.0209872
0.0194624
0.0184946
0.0179988
0.0178254
0.0178072
0.0492831
0.0493072
0.0493383
0.0493455
0.049289
0.0491291
0.0488362
0.0483951
0.0478052
0.0470788
0.0462386
0.0453158
0.0443438
0.043348
0.0423285
0.0412365
0.0400543
0.0388269
0.0375327
0.0360822
0.0343991
0.0324358
0.0302
0.0277658
0.0252648
0.0228658
0.0207578
0.0191076
0.0179953
0.0173859
0.017151
0.0171159
0.0482992
0.0483716
0.0484919
0.0486148
0.0486815
0.0486336
0.048425
0.0480299
0.0474416
0.0466676
0.0457269
0.0446483
0.043466
0.04221
0.0408932
0.0394912
0.0380573
0.0367048
0.0354138
0.034077
0.0326041
0.0309268
0.0290191
0.0269109
0.0246862
0.0224747
0.02044
0.0187546
0.017546
0.0168386
0.0165417
0.0164868
0.046624
0.0467549
0.0469704
0.0471997
0.0473625
0.0473825
0.0471961
0.0467685
0.0460948
0.0451907
0.0440863
0.0428225
0.0414436
0.0399885
0.0384807
0.0369127
0.0353769
0.0340146
0.0328002
0.0316177
0.0303728
0.0289913
0.0274295
0.025685
0.0237997
0.0218599
0.0199956
0.0183678
0.0171265
0.0163487
0.0159943
0.0159172
0.0441628
0.0443517
0.0446303
0.0448938
0.0450525
0.0450327
0.0447688
0.0442303
0.043424
0.0423792
0.04114
0.0397583
0.0382858
0.0367646
0.0352217
0.0336573
0.0321738
0.03091
0.0298355
0.028837
0.0278258
0.0267324
0.0255084
0.0241333
0.0226185
0.0210099
0.0193966
0.017913
0.0167118
0.0159052
0.0155056
0.0154051
0.0408723
0.041098
0.0413535
0.0415139
0.0415194
0.0413338
0.040914
0.0402455
0.039343
0.03824
0.0369828
0.0356234
0.0342107
0.0327826
0.0313635
0.0299549
0.0286502
0.027568
0.0266771
0.0258778
0.025094
0.0242672
0.0233533
0.022326
0.0211791
0.019929
0.0186245
0.0173612
0.0162745
0.0154927
0.0150709
0.0149492
0.0367148
0.0369227
0.0370168
0.036924
0.0366679
0.0362666
0.0357049
0.034979
0.0340943
0.0330732
0.031951
0.0307685
0.0295641
0.0283673
0.0271966
0.0260531
0.0250112
0.0241616
0.0234769
0.0228784
0.0223067
0.021717
0.0210743
0.0203545
0.0195453
0.0186467
0.0176773
0.0166916
0.0157897
0.0150928
0.0146832
0.0145481
0.0315996
0.031687
0.0314902
0.0311062
0.030636
0.0301147
0.0295341
0.0288848
0.0281561
0.0273536
0.0264959
0.0256084
0.0247167
0.0238406
0.0229926
0.0221736
0.0214352
0.0208395
0.0203658
0.0199591
0.0195787
0.0191935
0.0187795
0.0183188
0.0178003
0.0172185
0.016576
0.0158954
0.0152347
0.0146851
0.0143319
0.0141994
0.0253308
0.0251874
0.0247652
0.0242996
0.0238438
0.0234061
0.0229745
0.0225341
0.022068
0.0215716
0.0210506
0.0205172
0.0199855
0.0194663
0.0189671
0.0184881
0.0180589
0.0177147
0.0174431
0.0172126
0.0170001
0.016788
0.0165625
0.0163135
0.0160341
0.0157195
0.0153681
0.0149856
0.0145962
0.0142486
0.0140031
0.0138981
0.0176568
0.0175401
0.0173179
0.0171099
0.0169223
0.0167521
0.0165935
0.0164392
0.0162813
0.0161161
0.0159444
0.0157696
0.0155959
0.0154269
0.0152649
0.01511
0.0149716
0.0148608
0.0147738
0.0147003
0.0146331
0.0145665
0.0144962
0.014419
0.0143327
0.0142358
0.0141273
0.0140081
0.0138839
0.0137678
0.0136789
0.0136359
)
;

boundaryField
{
    movingWall
    {
        type            fixedValue;
        value           uniform 0.0135;
    }
    fixedWalls
    {
        type            zeroGradient;
    }
    floor
    {
        type            zeroGradient;
    }
    frontAndBack
    {
        type            empty;
    }
}


// ************************************************************************* //
