/*--------------------------------*- C++ -*----------------------------------*\
| =========                 |                                                 |
| \\      /  F ield         | OpenFOAM: The Open Source CFD Toolbox           |
|  \\    /   O peration     | Version:  2212                                  |
|   \\  /    A nd           | Website:  www.openfoam.com                      |
|    \\/     M anipulation  |                                                 |
\*---------------------------------------------------------------------------*/
FoamFile
{
    version     2.0;
    format      ascii;
    arch        "LSB;label=64;scalar=64";
    class       volScalarField;
    location    "1390";
    object      Xch;
}
// * * * * * * * * * * * * * * * * * * * * * * * * * * * * * * * * * * * * * //

dimensions      [1 -3 0 0 0 0 0];

internalField   nonuniform List<scalar> 
1024
(
0.0199014
0.0199017
0.0199025
0.019904
0.0199063
0.0199096
0.0199141
0.0199197
0.019926
0.0199328
0.0199395
0.0199456
0.0199507
0.0199547
0.0199573
0.0199586
0.0199574
0.0199533
0.0199465
0.0199376
0.019927
0.0199154
0.0199034
0.019892
0.0198821
0.0198739
0.0198676
0.019863
0.0198599
0.019858
0.0198569
0.0198565
0.0199015
0.0199018
0.0199026
0.0199041
0.0199065
0.0199099
0.0199144
0.0199201
0.0199265
0.0199334
0.0199401
0.0199462
0.0199512
0.0199552
0.0199578
0.0199591
0.0199579
0.0199538
0.0199471
0.0199382
0.0199276
0.0199159
0.0199039
0.0198925
0.0198824
0.0198742
0.0198678
0.0198632
0.01986
0.0198581
0.019857
0.0198566
0.0199018
0.0199021
0.019903
0.0199045
0.0199069
0.0199105
0.0199151
0.0199209
0.0199275
0.0199346
0.0199414
0.0199475
0.0199526
0.0199565
0.0199591
0.0199603
0.0199592
0.019955
0.0199482
0.0199394
0.0199288
0.0199171
0.019905
0.0198935
0.0198833
0.0198748
0.0198683
0.0198635
0.0198603
0.0198583
0.0198572
0.0198568
0.0199023
0.0199026
0.0199035
0.0199051
0.0199077
0.0199114
0.0199163
0.0199224
0.0199293
0.0199367
0.0199438
0.0199501
0.0199551
0.0199589
0.0199615
0.0199626
0.0199614
0.0199571
0.0199501
0.0199412
0.0199306
0.0199188
0.0199067
0.019895
0.0198845
0.0198758
0.019869
0.0198641
0.0198607
0.0198587
0.0198575
0.0198571
0.0199031
0.0199035
0.0199044
0.0199061
0.0199088
0.0199127
0.019918
0.0199245
0.0199321
0.0199401
0.0199477
0.0199543
0.0199594
0.019963
0.0199654
0.0199664
0.0199649
0.0199602
0.0199529
0.0199436
0.0199329
0.019921
0.0199088
0.0198969
0.0198861
0.0198771
0.01987
0.0198649
0.0198614
0.0198592
0.019858
0.0198575
0.0199043
0.0199047
0.0199057
0.0199074
0.0199103
0.0199146
0.0199203
0.0199276
0.019936
0.019945
0.0199535
0.0199605
0.0199657
0.0199692
0.0199713
0.019972
0.0199701
0.0199647
0.0199566
0.0199467
0.0199355
0.0199235
0.0199111
0.0198989
0.0198879
0.0198786
0.0198712
0.0198658
0.0198621
0.0198598
0.0198586
0.0198581
0.0199061
0.0199065
0.0199075
0.0199094
0.0199125
0.0199171
0.0199235
0.0199317
0.0199413
0.0199517
0.0199614
0.0199693
0.0199747
0.0199781
0.0199799
0.0199801
0.0199774
0.0199707
0.0199612
0.0199502
0.0199383
0.0199259
0.0199131
0.0199008
0.0198895
0.0198799
0.0198723
0.0198667
0.0198629
0.0198605
0.0198592
0.0198587
0.0199087
0.0199091
0.0199101
0.0199121
0.0199154
0.0199205
0.0199277
0.0199371
0.0199484
0.0199605
0.0199719
0.0199808
0.0199867
0.01999
0.0199915
0.0199911
0.0199871
0.0199784
0.0199668
0.019954
0.0199409
0.0199277
0.0199145
0.019902
0.0198906
0.0198808
0.0198731
0.0198674
0.0198636
0.0198612
0.0198599
0.0198594
0.0199124
0.0199128
0.0199138
0.0199159
0.0199196
0.0199253
0.0199335
0.0199444
0.0199575
0.0199717
0.019985
0.0199953
0.0200019
0.0200054
0.0200066
0.0200054
0.0199995
0.0199879
0.0199733
0.0199578
0.0199428
0.0199285
0.0199148
0.019902
0.0198905
0.0198809
0.0198733
0.0198678
0.019864
0.0198617
0.0198605
0.01986
0.0199177
0.0199181
0.0199192
0.0199215
0.0199255
0.0199319
0.0199413
0.0199539
0.0199692
0.0199857
0.020001
0.0200128
0.0200204
0.0200243
0.0200254
0.0200233
0.020015
0.0199997
0.0199809
0.0199619
0.0199442
0.0199281
0.0199136
0.0199005
0.0198893
0.01988
0.0198729
0.0198678
0.0198644
0.0198623
0.0198612
0.0198608
0.0199254
0.0199259
0.0199271
0.0199295
0.019934
0.0199412
0.0199519
0.0199664
0.019984
0.0200028
0.0200202
0.0200337
0.0200424
0.0200471
0.0200484
0.0200455
0.0200347
0.0200153
0.0199916
0.0199677
0.0199462
0.0199277
0.0199118
0.0198984
0.0198875
0.0198788
0.0198725
0.0198681
0.0198653
0.0198637
0.0198629
0.0198627
0.0199363
0.0199367
0.0199381
0.0199409
0.019946
0.0199542
0.0199664
0.0199829
0.0200027
0.0200238
0.020043
0.0200581
0.0200682
0.0200742
0.0200766
0.0200737
0.0200615
0.020039
0.0200107
0.0199815
0.0199548
0.0199323
0.019914
0.0198995
0.0198884
0.0198803
0.0198749
0.0198715
0.0198698
0.019869
0.0198688
0.0198689
0.0199509
0.0199514
0.019953
0.0199563
0.0199622
0.0199717
0.0199856
0.0200041
0.0200261
0.0200491
0.02007
0.0200866
0.0200985
0.0201068
0.0201115
0.0201109
0.0201007
0.0200791
0.0200497
0.0200171
0.0199852
0.0199571
0.0199342
0.0199163
0.0199033
0.0198948
0.0198898
0.0198875
0.0198869
0.0198873
0.019888
0.0198885
0.0199692
0.0199698
0.0199717
0.0199757
0.0199827
0.0199938
0.0200098
0.0200305
0.0200545
0.020079
0.020101
0.0201192
0.0201335
0.0201452
0.0201543
0.0201595
0.020157
0.0201441
0.020122
0.0200937
0.0200626
0.020032
0.0200043
0.0199807
0.0199626
0.01995
0.0199425
0.019939
0.0199384
0.0199392
0.0199403
0.019941
0.0199893
0.01999
0.0199922
0.0199966
0.0200044
0.0200167
0.020034
0.020056
0.0200812
0.020107
0.0201308
0.0201515
0.0201693
0.0201852
0.0202
0.0202133
0.0202231
0.0202263
0.0202218
0.0202103
0.020193
0.0201716
0.020148
0.0201243
0.0201024
0.0200837
0.0200694
0.0200598
0.0200544
0.0200521
0.0200516
0.0200517
0.0200085
0.0200093
0.0200114
0.0200159
0.0200238
0.0200362
0.0200536
0.0200758
0.0201014
0.020128
0.0201534
0.020176
0.020196
0.0202141
0.0202314
0.0202489
0.0202668
0.0202839
0.020298
0.020308
0.0203129
0.0203124
0.0203065
0.0202959
0.0202818
0.020266
0.0202504
0.0202368
0.0202264
0.0202197
0.0202162
0.0202149
0.0200234
0.0200241
0.0200261
0.0200302
0.0200375
0.0200489
0.020065
0.0200859
0.0201103
0.0201362
0.0201613
0.0201837
0.0202025
0.020218
0.0202311
0.0202434
0.0202573
0.0202749
0.0202952
0.0203162
0.0203358
0.0203524
0.0203649
0.0203726
0.0203753
0.0203736
0.0203685
0.0203616
0.0203546
0.0203489
0.0203453
0.0203437
0.0200325
0.0200332
0.020035
0.0200387
0.020045
0.020055
0.0200692
0.0200877
0.0201099
0.0201339
0.0201574
0.0201781
0.0201946
0.0202064
0.0202138
0.0202184
0.0202239
0.0202356
0.020254
0.0202772
0.0203026
0.0203275
0.0203499
0.0203684
0.0203823
0.0203915
0.0203964
0.0203979
0.0203971
0.0203955
0.0203939
0.0203931
0.0200373
0.0200379
0.0200396
0.0200428
0.0200482
0.0200567
0.020069
0.0200851
0.0201046
0.0201261
0.0201475
0.0201665
0.0201812
0.0201907
0.0201948
0.020195
0.0201954
0.0202023
0.0202177
0.0202406
0.0202688
0.0202992
0.0203289
0.0203553
0.0203767
0.0203924
0.0204027
0.0204086
0.0204111
0.0204117
0.0204114
0.020411
0.0200392
0.0200398
0.0200413
0.0200441
0.0200488
0.0200561
0.0200665
0.0200802
0.0200971
0.0201159
0.020135
0.0201522
0.0201657
0.0201742
0.0201774
0.0201766
0.0201758
0.020181
0.0201942
0.0202154
0.0202434
0.0202758
0.0203097
0.0203419
0.0203696
0.0203913
0.0204065
0.020416
0.0204209
0.0204227
0.0204231
0.0204229
0.0200395
0.02004
0.0200413
0.0200438
0.0200479
0.020054
0.0200628
0.0200744
0.0200887
0.0201049
0.0201216
0.020137
0.0201495
0.020158
0.0201621
0.020163
0.0201642
0.0201704
0.0201832
0.0202031
0.0202296
0.0202614
0.0202963
0.0203311
0.020363
0.0203893
0.0204089
0.0204218
0.0204291
0.0204323
0.0204332
0.0204332
0.0200394
0.0200398
0.0200408
0.0200429
0.0200462
0.0200514
0.0200587
0.0200685
0.0200805
0.0200942
0.0201087
0.0201225
0.0201345
0.0201438
0.0201502
0.0201548
0.0201601
0.0201691
0.0201829
0.0202021
0.020227
0.0202569
0.0202904
0.0203253
0.0203587
0.0203878
0.0204108
0.0204268
0.0204363
0.020441
0.0204425
0.0204426
0.0200409
0.0200411
0.0200417
0.020043
0.0200454
0.0200494
0.0200554
0.0200634
0.0200735
0.0200853
0.0200981
0.0201111
0.0201235
0.0201347
0.0201446
0.020154
0.0201644
0.0201769
0.020192
0.0202107
0.0202338
0.0202611
0.0202921
0.020325
0.0203577
0.0203877
0.0204127
0.020431
0.0204427
0.0204487
0.0204509
0.0204512
0.0200467
0.0200464
0.0200461
0.0200463
0.0200474
0.02005
0.0200545
0.0200612
0.02007
0.0200808
0.0200932
0.0201066
0.0201206
0.0201346
0.0201486
0.020163
0.0201782
0.0201935
0.0202097
0.0202277
0.0202485
0.0202728
0.0203003
0.0203301
0.0203606
0.0203897
0.0204151
0.020435
0.0204483
0.0204557
0.0204586
0.0204591
0.0200592
0.0200583
0.0200569
0.0200555
0.020055
0.0200561
0.0200594
0.0200653
0.0200739
0.020085
0.0200983
0.0201134
0.0201298
0.020147
0.0201647
0.0201831
0.0202016
0.0202187
0.0202349
0.0202516
0.02027
0.0202907
0.0203143
0.0203401
0.0203673
0.0203941
0.0204187
0.0204389
0.0204534
0.0204619
0.0204655
0.0204663
0.0200805
0.0200789
0.0200763
0.0200735
0.0200717
0.0200719
0.0200748
0.0200809
0.0200903
0.0201028
0.020118
0.0201351
0.0201538
0.0201733
0.0201933
0.0202138
0.0202336
0.020251
0.0202664
0.0202812
0.0202968
0.020314
0.0203332
0.0203547
0.0203777
0.0204013
0.0204238
0.0204433
0.0204582
0.0204675
0.0204718
0.0204727
0.0201118
0.0201095
0.020106
0.0201028
0.020101
0.0201016
0.0201054
0.0201128
0.0201237
0.0201377
0.0201543
0.0201727
0.0201923
0.0202125
0.0202328
0.0202532
0.0202724
0.0202886
0.0203022
0.0203148
0.0203275
0.0203411
0.0203563
0.0203732
0.0203917
0.0204113
0.0204308
0.0204486
0.020463
0.0204726
0.0204773
0.0204786
0.0201537
0.0201508
0.0201476
0.0201457
0.0201458
0.0201484
0.0201541
0.020163
0.0201749
0.0201895
0.0202061
0.020224
0.0202426
0.0202614
0.02028
0.0202984
0.0203153
0.0203292
0.0203405
0.0203506
0.0203605
0.0203708
0.0203821
0.0203948
0.0204088
0.020424
0.0204398
0.020455
0.020468
0.0204773
0.0204823
0.0204838
0.0202064
0.0202038
0.0202027
0.0202039
0.0202073
0.0202126
0.0202199
0.0202294
0.020241
0.0202543
0.020269
0.0202845
0.0203003
0.020316
0.0203313
0.0203462
0.0203597
0.0203706
0.0203793
0.0203869
0.0203941
0.0204015
0.0204095
0.0204184
0.0204283
0.0204392
0.020451
0.0204628
0.0204736
0.0204818
0.0204867
0.0204883
0.0202712
0.0202701
0.0202727
0.0202776
0.0202836
0.0202903
0.0202978
0.0203063
0.0203157
0.0203262
0.0203373
0.0203489
0.0203606
0.020372
0.0203831
0.0203937
0.0204033
0.020411
0.020417
0.0204222
0.020427
0.0204318
0.020437
0.0204427
0.020449
0.0204561
0.0204639
0.0204721
0.02048
0.0204865
0.0204907
0.0204922
0.0203506
0.0203524
0.0203577
0.0203637
0.0203695
0.0203751
0.0203806
0.0203863
0.0203923
0.0203988
0.0204055
0.0204125
0.0204194
0.0204262
0.0204327
0.0204389
0.0204445
0.0204489
0.0204524
0.0204554
0.020458
0.0204607
0.0204635
0.0204666
0.02047
0.0204739
0.0204781
0.0204827
0.0204874
0.0204915
0.0204944
0.0204956
0.0204475
0.020449
0.0204518
0.0204545
0.0204569
0.020459
0.0204611
0.020463
0.0204651
0.0204672
0.0204695
0.0204717
0.020474
0.0204762
0.0204783
0.0204803
0.0204821
0.0204836
0.0204847
0.0204856
0.0204865
0.0204873
0.0204882
0.0204891
0.0204902
0.0204914
0.0204927
0.0204941
0.0204956
0.020497
0.020498
0.0204985
)
;

boundaryField
{
    movingWall
    {
        type            fixedValue;
        value           uniform 0.0205;
    }
    fixedWalls
    {
        type            zeroGradient;
    }
    floor
    {
        type            zeroGradient;
    }
    frontAndBack
    {
        type            empty;
    }
}


// ************************************************************************* //
