/*--------------------------------*- C++ -*----------------------------------*\
| =========                 |                                                 |
| \\      /  F ield         | OpenFOAM: The Open Source CFD Toolbox           |
|  \\    /   O peration     | Version:  2212                                  |
|   \\  /    A nd           | Website:  www.openfoam.com                      |
|    \\/     M anipulation  |                                                 |
\*---------------------------------------------------------------------------*/
FoamFile
{
    version     2.0;
    format      ascii;
    arch        "LSB;label=64;scalar=64";
    class       volScalarField;
    location    "1390";
    object      Xli;
}
// * * * * * * * * * * * * * * * * * * * * * * * * * * * * * * * * * * * * * //

dimensions      [1 -3 0 0 0 0 0];

internalField   nonuniform List<scalar> 
1024
(
0.0422976
0.0422983
0.0423001
0.0423033
0.0423084
0.0423156
0.0423254
0.0423375
0.0423513
0.0423661
0.0423807
0.0423939
0.042405
0.0424136
0.0424194
0.0424221
0.0424196
0.0424106
0.0423959
0.0423766
0.0423535
0.0423281
0.042302
0.0422774
0.0422556
0.0422378
0.0422241
0.0422142
0.0422075
0.0422033
0.042201
0.0422001
0.0422979
0.0422986
0.0423004
0.0423036
0.0423088
0.0423162
0.0423261
0.0423383
0.0423523
0.0423672
0.0423819
0.0423951
0.0424062
0.0424147
0.0424205
0.0424232
0.0424207
0.0424117
0.0423971
0.0423778
0.0423547
0.0423293
0.0423032
0.0422784
0.0422565
0.0422384
0.0422246
0.0422145
0.0422077
0.0422035
0.0422012
0.0422002
0.0422985
0.0422993
0.0423011
0.0423044
0.0423098
0.0423174
0.0423276
0.0423402
0.0423546
0.0423699
0.0423848
0.0423981
0.0424091
0.0424175
0.0424233
0.0424259
0.0424234
0.0424143
0.0423996
0.0423803
0.0423573
0.0423318
0.0423056
0.0422805
0.0422582
0.0422398
0.0422256
0.0422153
0.0422083
0.0422039
0.0422016
0.0422006
0.0422996
0.0423004
0.0423023
0.0423058
0.0423114
0.0423194
0.0423301
0.0423433
0.0423585
0.0423745
0.04239
0.0424037
0.0424147
0.0424229
0.0424284
0.0424309
0.0424282
0.0424188
0.0424038
0.0423842
0.0423612
0.0423356
0.0423092
0.0422838
0.042261
0.042242
0.0422273
0.0422165
0.0422093
0.0422047
0.0422023
0.0422013
0.0423014
0.0423022
0.0423042
0.0423079
0.0423138
0.0423223
0.0423338
0.042348
0.0423644
0.0423818
0.0423985
0.0424128
0.0424238
0.0424317
0.0424369
0.042439
0.0424359
0.0424256
0.0424097
0.0423896
0.0423662
0.0423405
0.0423138
0.0422879
0.0422645
0.0422449
0.0422295
0.0422182
0.0422106
0.0422058
0.0422033
0.0422022
0.0423041
0.0423049
0.042307
0.0423108
0.0423171
0.0423264
0.0423389
0.0423546
0.0423729
0.0423925
0.042411
0.0424264
0.0424377
0.0424452
0.0424499
0.0424514
0.0424472
0.0424353
0.0424177
0.0423962
0.042372
0.0423458
0.0423187
0.0422924
0.0422684
0.042248
0.042232
0.0422202
0.0422122
0.0422072
0.0422045
0.0422034
0.042308
0.0423088
0.0423109
0.042315
0.0423218
0.0423319
0.0423458
0.0423636
0.0423846
0.0424071
0.0424284
0.0424454
0.0424572
0.0424645
0.0424685
0.042469
0.042463
0.0424484
0.0424278
0.0424039
0.0423781
0.0423509
0.0423233
0.0422964
0.0422719
0.042251
0.0422344
0.0422222
0.0422139
0.0422088
0.042206
0.0422048
0.0423136
0.0423144
0.0423166
0.0423209
0.0423282
0.0423393
0.042355
0.0423755
0.0423999
0.0424263
0.042451
0.0424705
0.0424833
0.0424906
0.0424938
0.0424929
0.0424841
0.0424652
0.0424399
0.0424121
0.0423836
0.0423548
0.0423263
0.042299
0.0422741
0.042253
0.0422362
0.0422238
0.0422154
0.0422102
0.0422074
0.0422062
0.0423216
0.0423224
0.0423247
0.0423293
0.0423373
0.0423497
0.0423675
0.0423912
0.0424198
0.0424507
0.0424795
0.042502
0.0425164
0.042524
0.0425266
0.0425239
0.0425111
0.042486
0.042454
0.0424205
0.0423879
0.0423566
0.0423268
0.0422989
0.0422741
0.0422532
0.0422367
0.0422246
0.0422165
0.0422114
0.0422087
0.0422076
0.0423333
0.0423341
0.0423365
0.0423415
0.0423502
0.0423641
0.0423845
0.0424118
0.0424452
0.0424811
0.0425143
0.0425402
0.0425567
0.0425651
0.0425676
0.0425628
0.0425449
0.0425117
0.0424708
0.0424292
0.0423907
0.0423558
0.0423242
0.0422958
0.0422714
0.0422513
0.0422357
0.0422246
0.0422171
0.0422126
0.0422103
0.0422093
0.04235
0.0423509
0.0423535
0.042359
0.0423687
0.0423844
0.0424077
0.0424391
0.0424774
0.0425184
0.0425561
0.0425854
0.0426045
0.0426146
0.0426176
0.0426112
0.0425878
0.0425455
0.0424939
0.0424419
0.0423952
0.0423549
0.0423204
0.0422913
0.0422674
0.0422486
0.0422348
0.0422252
0.0422191
0.0422157
0.042214
0.0422134
0.0423736
0.0423746
0.0423775
0.0423836
0.0423947
0.0424126
0.0424392
0.042475
0.0425181
0.0425639
0.0426058
0.0426386
0.0426607
0.0426737
0.0426788
0.0426725
0.0426461
0.0425971
0.0425356
0.042472
0.0424139
0.0423649
0.0423251
0.0422935
0.0422694
0.0422519
0.04224
0.0422328
0.0422289
0.0422273
0.0422269
0.0422269
0.0424054
0.0424065
0.0424099
0.0424171
0.0424299
0.0424506
0.0424809
0.0425212
0.0425691
0.0426191
0.0426645
0.0427006
0.0427266
0.0427445
0.0427548
0.0427535
0.0427313
0.0426843
0.0426204
0.0425493
0.0424801
0.042419
0.042369
0.04233
0.0423019
0.0422833
0.0422724
0.0422674
0.0422663
0.0422671
0.0422686
0.0422696
0.0424452
0.0424466
0.0424507
0.0424593
0.0424745
0.0424987
0.0425335
0.0425786
0.0426307
0.042684
0.0427321
0.0427715
0.0428027
0.042828
0.042848
0.0428592
0.0428538
0.0428256
0.0427775
0.042716
0.0426485
0.0425818
0.0425215
0.0424703
0.042431
0.0424035
0.042387
0.0423796
0.0423782
0.0423799
0.0423823
0.0423839
0.042489
0.0424906
0.0424952
0.0425048
0.0425219
0.0425485
0.0425862
0.0426341
0.0426888
0.042745
0.0427969
0.0428418
0.0428805
0.0429152
0.0429474
0.0429763
0.0429975
0.0430045
0.0429947
0.0429697
0.042932
0.0428855
0.0428342
0.0427826
0.042735
0.0426943
0.0426631
0.0426423
0.0426307
0.0426256
0.0426245
0.0426247
0.0425307
0.0425324
0.0425371
0.0425469
0.0425641
0.042591
0.0426289
0.0426772
0.0427328
0.0427908
0.042846
0.0428952
0.0429386
0.0429781
0.0430157
0.0430538
0.0430927
0.0431298
0.0431605
0.0431822
0.0431929
0.0431918
0.043179
0.043156
0.0431253
0.0430909
0.0430569
0.0430273
0.0430048
0.0429902
0.0429825
0.0429797
0.042563
0.0425646
0.042569
0.042578
0.0425938
0.0426186
0.0426537
0.042699
0.0427522
0.0428086
0.0428632
0.0429118
0.0429528
0.0429866
0.043015
0.0430417
0.0430719
0.0431103
0.0431546
0.0432002
0.0432428
0.0432789
0.043306
0.0433227
0.0433288
0.0433251
0.043314
0.0432989
0.0432836
0.0432712
0.0432633
0.0432599
0.042583
0.0425844
0.0425884
0.0425963
0.0426101
0.0426318
0.0426627
0.0427031
0.0427513
0.0428035
0.0428546
0.0428997
0.0429356
0.0429612
0.0429773
0.0429873
0.0429993
0.0430247
0.0430648
0.0431153
0.0431705
0.0432247
0.0432735
0.0433138
0.043344
0.043364
0.0433746
0.0433778
0.0433762
0.0433726
0.0433692
0.0433674
0.0425934
0.0425948
0.0425983
0.0426053
0.0426172
0.0426357
0.0426622
0.0426973
0.0427398
0.0427865
0.0428331
0.0428744
0.0429065
0.0429271
0.042936
0.0429364
0.0429373
0.0429523
0.0429858
0.0430356
0.0430969
0.0431632
0.0432279
0.0432852
0.0433317
0.0433659
0.0433884
0.0434011
0.0434066
0.0434078
0.0434072
0.0434064
0.0425976
0.0425989
0.0426021
0.0426082
0.0426185
0.0426342
0.0426568
0.0426867
0.0427234
0.0427644
0.0428059
0.0428434
0.0428727
0.0428911
0.0428982
0.0428964
0.0428948
0.042906
0.0429347
0.0429809
0.0430417
0.0431123
0.043186
0.043256
0.0433163
0.0433635
0.0433967
0.0434172
0.0434278
0.0434319
0.0434326
0.0434323
0.0425981
0.0425992
0.0426021
0.0426075
0.0426163
0.0426298
0.0426488
0.0426741
0.0427052
0.0427405
0.0427767
0.0428103
0.0428375
0.0428559
0.0428648
0.0428668
0.0428695
0.0428829
0.0429108
0.0429541
0.0430118
0.043081
0.0431568
0.0432327
0.0433019
0.0433592
0.0434018
0.04343
0.0434458
0.0434528
0.0434547
0.0434547
0.0425979
0.0425988
0.0426011
0.0426055
0.0426128
0.0426241
0.04264
0.0426612
0.0426874
0.0427172
0.0427486
0.0427787
0.0428048
0.042825
0.042839
0.0428489
0.0428606
0.0428802
0.0429101
0.042952
0.0430061
0.0430711
0.043144
0.0432199
0.0432925
0.043356
0.0434059
0.0434407
0.0434615
0.0434716
0.0434749
0.0434751
0.0426013
0.0426016
0.0426029
0.0426057
0.042611
0.0426197
0.0426327
0.0426502
0.0426722
0.0426978
0.0427257
0.042754
0.0427809
0.0428053
0.0428268
0.0428473
0.0428699
0.042897
0.0429299
0.0429707
0.0430208
0.0430803
0.0431476
0.0432192
0.0432904
0.0433557
0.04341
0.04345
0.0434754
0.0434885
0.0434932
0.0434938
0.0426138
0.0426132
0.0426126
0.0426129
0.0426153
0.0426209
0.0426308
0.0426453
0.0426645
0.042688
0.0427149
0.0427442
0.0427746
0.0428051
0.0428355
0.0428669
0.0428998
0.0429333
0.0429683
0.0430075
0.0430529
0.0431056
0.0431655
0.0432304
0.0432967
0.04336
0.0434153
0.0434585
0.0434876
0.0435036
0.0435099
0.043511
0.042641
0.0426391
0.042636
0.042633
0.0426319
0.0426343
0.0426415
0.0426543
0.042673
0.0426971
0.0427261
0.042759
0.0427947
0.042832
0.0428705
0.0429106
0.0429507
0.042988
0.0430233
0.0430596
0.0430995
0.0431447
0.0431959
0.0432522
0.0433112
0.0433696
0.0434231
0.0434672
0.0434987
0.0435172
0.043525
0.0435266
0.0426874
0.0426839
0.0426781
0.0426721
0.0426682
0.0426685
0.0426749
0.0426883
0.0427088
0.0427359
0.0427688
0.0428062
0.0428468
0.0428892
0.0429327
0.0429774
0.0430205
0.0430583
0.0430918
0.0431241
0.0431579
0.0431952
0.0432372
0.0432838
0.0433339
0.0433852
0.0434342
0.0434768
0.0435091
0.0435293
0.0435386
0.0435407
0.0427555
0.0427504
0.0427429
0.0427359
0.042732
0.0427332
0.0427415
0.0427576
0.0427813
0.0428118
0.0428479
0.042888
0.0429306
0.0429745
0.0430187
0.0430631
0.0431049
0.0431401
0.0431698
0.0431972
0.0432247
0.0432544
0.0432873
0.0433241
0.0433644
0.043407
0.0434494
0.0434882
0.0435194
0.0435403
0.0435507
0.0435534
0.0428465
0.0428403
0.0428334
0.0428292
0.0428295
0.0428351
0.0428474
0.0428668
0.0428928
0.0429245
0.0429606
0.0429996
0.0430401
0.0430809
0.0431214
0.0431614
0.0431981
0.0432283
0.043253
0.0432751
0.0432965
0.0433189
0.0433436
0.0433711
0.0434017
0.0434347
0.0434691
0.0435021
0.0435303
0.0435506
0.0435615
0.0435647
0.0429613
0.0429556
0.0429531
0.0429558
0.0429632
0.0429746
0.0429907
0.0430113
0.0430365
0.0430656
0.0430975
0.0431312
0.0431655
0.0431996
0.0432329
0.0432653
0.0432947
0.0433185
0.0433375
0.043354
0.0433697
0.0433857
0.0434031
0.0434224
0.043444
0.0434678
0.0434933
0.0435191
0.0435425
0.0435605
0.043571
0.0435746
0.0431023
0.0430999
0.0431054
0.0431161
0.0431292
0.0431439
0.0431602
0.0431785
0.0431991
0.0432218
0.0432461
0.0432713
0.0432966
0.0433215
0.0433456
0.0433688
0.0433897
0.0434063
0.0434195
0.0434308
0.0434412
0.0434517
0.0434629
0.0434753
0.0434891
0.0435046
0.0435215
0.0435393
0.0435565
0.0435707
0.0435797
0.0435831
0.0432749
0.0432788
0.0432905
0.0433034
0.043316
0.0433282
0.0433403
0.0433526
0.0433658
0.0433798
0.0433945
0.0434096
0.0434247
0.0434394
0.0434536
0.0434672
0.0434793
0.0434889
0.0434965
0.0435029
0.0435087
0.0435145
0.0435206
0.0435273
0.0435348
0.0435431
0.0435524
0.0435624
0.0435725
0.0435815
0.0435878
0.0435905
0.0434859
0.0434891
0.0434952
0.0435009
0.0435061
0.0435109
0.0435153
0.0435196
0.043524
0.0435287
0.0435335
0.0435385
0.0435434
0.0435482
0.0435528
0.0435572
0.0435611
0.0435642
0.0435666
0.0435687
0.0435705
0.0435723
0.0435743
0.0435763
0.0435786
0.0435812
0.0435841
0.0435872
0.0435904
0.0435934
0.0435957
0.0435968
)
;

boundaryField
{
    movingWall
    {
        type            fixedValue;
        value           uniform 0.0436;
    }
    fixedWalls
    {
        type            zeroGradient;
    }
    floor
    {
        type            zeroGradient;
    }
    frontAndBack
    {
        type            empty;
    }
}


// ************************************************************************* //
