/*--------------------------------*- C++ -*----------------------------------*\
| =========                 |                                                 |
| \\      /  F ield         | OpenFOAM: The Open Source CFD Toolbox           |
|  \\    /   O peration     | Version:  2212                                  |
|   \\  /    A nd           | Website:  www.openfoam.com                      |
|    \\/     M anipulation  |                                                 |
\*---------------------------------------------------------------------------*/
FoamFile
{
    version     2.0;
    format      ascii;
    arch        "LSB;label=64;scalar=64";
    class       volScalarField;
    location    "1100";
    object      Gh2;
}
// * * * * * * * * * * * * * * * * * * * * * * * * * * * * * * * * * * * * * //

dimensions      [1 -3 0 0 0 0 0];

internalField   nonuniform List<scalar> 
1024
(
1.2756e-05
1.27556e-05
1.27546e-05
1.27528e-05
1.275e-05
1.2746e-05
1.27407e-05
1.27342e-05
1.27269e-05
1.27193e-05
1.2712e-05
1.27055e-05
1.27006e-05
1.26984e-05
1.26996e-05
1.27049e-05
1.27139e-05
1.27246e-05
1.27357e-05
1.27472e-05
1.27593e-05
1.27721e-05
1.27853e-05
1.27982e-05
1.28099e-05
1.28199e-05
1.28278e-05
1.28337e-05
1.28377e-05
1.28402e-05
1.28416e-05
1.28422e-05
1.2756e-05
1.27556e-05
1.27546e-05
1.27527e-05
1.27499e-05
1.27458e-05
1.27404e-05
1.27339e-05
1.27265e-05
1.27189e-05
1.27115e-05
1.2705e-05
1.27001e-05
1.26979e-05
1.26992e-05
1.27045e-05
1.27135e-05
1.27242e-05
1.27353e-05
1.27468e-05
1.27589e-05
1.27717e-05
1.27848e-05
1.27977e-05
1.28095e-05
1.28195e-05
1.28275e-05
1.28335e-05
1.28375e-05
1.28401e-05
1.28415e-05
1.28421e-05
1.27559e-05
1.27555e-05
1.27544e-05
1.27526e-05
1.27496e-05
1.27454e-05
1.27399e-05
1.27332e-05
1.27258e-05
1.27181e-05
1.27106e-05
1.27039e-05
1.26989e-05
1.26967e-05
1.26981e-05
1.27036e-05
1.27128e-05
1.27236e-05
1.27347e-05
1.27461e-05
1.27581e-05
1.27707e-05
1.27838e-05
1.27967e-05
1.28086e-05
1.28188e-05
1.2827e-05
1.2833e-05
1.28372e-05
1.28399e-05
1.28413e-05
1.28419e-05
1.27558e-05
1.27553e-05
1.27543e-05
1.27523e-05
1.27493e-05
1.27449e-05
1.27393e-05
1.27324e-05
1.27248e-05
1.27169e-05
1.27091e-05
1.2702e-05
1.26967e-05
1.26945e-05
1.26962e-05
1.27021e-05
1.27116e-05
1.27226e-05
1.27337e-05
1.27451e-05
1.27569e-05
1.27694e-05
1.27824e-05
1.27952e-05
1.28072e-05
1.28176e-05
1.2826e-05
1.28323e-05
1.28367e-05
1.28394e-05
1.28409e-05
1.28416e-05
1.27556e-05
1.27552e-05
1.27541e-05
1.27521e-05
1.27489e-05
1.27444e-05
1.27386e-05
1.27316e-05
1.27237e-05
1.27154e-05
1.27069e-05
1.26991e-05
1.26932e-05
1.2691e-05
1.26932e-05
1.26999e-05
1.27101e-05
1.27215e-05
1.27327e-05
1.2744e-05
1.27557e-05
1.27679e-05
1.27807e-05
1.27935e-05
1.28055e-05
1.28162e-05
1.28249e-05
1.28314e-05
1.2836e-05
1.28388e-05
1.28404e-05
1.28411e-05
1.27554e-05
1.2755e-05
1.27539e-05
1.27518e-05
1.27487e-05
1.27441e-05
1.27382e-05
1.27309e-05
1.27226e-05
1.27135e-05
1.2704e-05
1.2695e-05
1.26882e-05
1.26858e-05
1.26888e-05
1.26968e-05
1.27081e-05
1.27202e-05
1.27318e-05
1.27432e-05
1.27546e-05
1.27666e-05
1.2779e-05
1.27917e-05
1.28038e-05
1.28146e-05
1.28236e-05
1.28304e-05
1.28351e-05
1.28381e-05
1.28398e-05
1.28405e-05
1.27552e-05
1.27547e-05
1.27537e-05
1.27517e-05
1.27486e-05
1.2744e-05
1.2738e-05
1.27304e-05
1.27214e-05
1.27112e-05
1.27002e-05
1.26893e-05
1.26812e-05
1.26786e-05
1.26828e-05
1.26927e-05
1.27058e-05
1.27191e-05
1.27314e-05
1.27429e-05
1.27543e-05
1.27659e-05
1.2778e-05
1.27904e-05
1.28024e-05
1.28133e-05
1.28224e-05
1.28294e-05
1.28343e-05
1.28374e-05
1.28392e-05
1.28399e-05
1.27546e-05
1.27543e-05
1.27533e-05
1.27515e-05
1.27485e-05
1.2744e-05
1.27379e-05
1.273e-05
1.27201e-05
1.27084e-05
1.26951e-05
1.26819e-05
1.26719e-05
1.26692e-05
1.26749e-05
1.26875e-05
1.27032e-05
1.27183e-05
1.27316e-05
1.27437e-05
1.27551e-05
1.27664e-05
1.27781e-05
1.27901e-05
1.28018e-05
1.28126e-05
1.28217e-05
1.28287e-05
1.28337e-05
1.28369e-05
1.28387e-05
1.28394e-05
1.27533e-05
1.2753e-05
1.27522e-05
1.27506e-05
1.27479e-05
1.27436e-05
1.27375e-05
1.2729e-05
1.2718e-05
1.27042e-05
1.26881e-05
1.26719e-05
1.26601e-05
1.26573e-05
1.26652e-05
1.26812e-05
1.27002e-05
1.27177e-05
1.27326e-05
1.27457e-05
1.27574e-05
1.27687e-05
1.27801e-05
1.27915e-05
1.28028e-05
1.28131e-05
1.2822e-05
1.28288e-05
1.28337e-05
1.28369e-05
1.28386e-05
1.28393e-05
1.27497e-05
1.27495e-05
1.2749e-05
1.27477e-05
1.27453e-05
1.27413e-05
1.2735e-05
1.27259e-05
1.27133e-05
1.26969e-05
1.26776e-05
1.26584e-05
1.26448e-05
1.26426e-05
1.26533e-05
1.26733e-05
1.26961e-05
1.27167e-05
1.27341e-05
1.27488e-05
1.27616e-05
1.27732e-05
1.27843e-05
1.27952e-05
1.28058e-05
1.28154e-05
1.28237e-05
1.28301e-05
1.28347e-05
1.28377e-05
1.28393e-05
1.284e-05
1.27404e-05
1.27404e-05
1.27402e-05
1.27393e-05
1.27372e-05
1.27333e-05
1.27267e-05
1.27166e-05
1.27021e-05
1.26831e-05
1.26608e-05
1.26392e-05
1.2625e-05
1.26244e-05
1.26384e-05
1.26625e-05
1.26891e-05
1.27134e-05
1.27342e-05
1.27519e-05
1.27668e-05
1.27796e-05
1.2791e-05
1.28015e-05
1.28112e-05
1.28199e-05
1.28272e-05
1.28329e-05
1.2837e-05
1.28397e-05
1.28412e-05
1.28419e-05
1.27197e-05
1.27197e-05
1.27197e-05
1.2719e-05
1.2717e-05
1.27129e-05
1.27057e-05
1.26944e-05
1.26782e-05
1.26573e-05
1.26336e-05
1.26117e-05
1.25989e-05
1.26011e-05
1.26185e-05
1.26451e-05
1.26742e-05
1.27021e-05
1.27279e-05
1.27509e-05
1.27703e-05
1.27861e-05
1.2799e-05
1.28097e-05
1.28188e-05
1.28265e-05
1.28326e-05
1.28374e-05
1.28407e-05
1.28429e-05
1.28442e-05
1.28447e-05
1.26803e-05
1.26802e-05
1.26798e-05
1.26787e-05
1.26763e-05
1.26716e-05
1.26637e-05
1.26517e-05
1.26351e-05
1.26145e-05
1.25922e-05
1.25731e-05
1.2564e-05
1.25692e-05
1.25872e-05
1.26119e-05
1.26395e-05
1.267e-05
1.27024e-05
1.27341e-05
1.27622e-05
1.27851e-05
1.28029e-05
1.28162e-05
1.28261e-05
1.28332e-05
1.28383e-05
1.28418e-05
1.28438e-05
1.28449e-05
1.28452e-05
1.28453e-05
1.26194e-05
1.26189e-05
1.26178e-05
1.26157e-05
1.26122e-05
1.26067e-05
1.25985e-05
1.25869e-05
1.25718e-05
1.25539e-05
1.25357e-05
1.25212e-05
1.25152e-05
1.25187e-05
1.25288e-05
1.25417e-05
1.25594e-05
1.25872e-05
1.26247e-05
1.26672e-05
1.27092e-05
1.27465e-05
1.27769e-05
1.27995e-05
1.28149e-05
1.28244e-05
1.28291e-05
1.28303e-05
1.28294e-05
1.28274e-05
1.28254e-05
1.28242e-05
1.25456e-05
1.25448e-05
1.2543e-05
1.254e-05
1.25356e-05
1.25293e-05
1.25206e-05
1.25093e-05
1.24951e-05
1.24788e-05
1.24623e-05
1.24476e-05
1.24354e-05
1.24235e-05
1.24096e-05
1.23942e-05
1.23854e-05
1.23937e-05
1.24206e-05
1.24614e-05
1.25103e-05
1.25616e-05
1.26101e-05
1.26513e-05
1.26834e-05
1.27052e-05
1.2717e-05
1.27205e-05
1.27184e-05
1.27139e-05
1.27096e-05
1.2707e-05
1.24762e-05
1.24752e-05
1.2473e-05
1.24691e-05
1.24629e-05
1.24539e-05
1.24414e-05
1.2425e-05
1.24045e-05
1.23802e-05
1.23527e-05
1.23215e-05
1.22847e-05
1.22398e-05
1.21857e-05
1.21244e-05
1.20664e-05
1.20267e-05
1.20101e-05
1.20135e-05
1.2034e-05
1.20676e-05
1.21101e-05
1.21571e-05
1.22048e-05
1.22491e-05
1.22861e-05
1.23133e-05
1.23302e-05
1.23385e-05
1.23412e-05
1.23414e-05
1.24244e-05
1.24233e-05
1.24207e-05
1.24155e-05
1.24067e-05
1.23932e-05
1.23738e-05
1.23478e-05
1.23148e-05
1.22744e-05
1.22263e-05
1.21697e-05
1.21032e-05
1.20256e-05
1.1937e-05
1.18394e-05
1.17435e-05
1.16648e-05
1.16058e-05
1.15622e-05
1.15335e-05
1.15198e-05
1.1521e-05
1.15368e-05
1.15651e-05
1.16027e-05
1.1645e-05
1.16864e-05
1.17215e-05
1.17466e-05
1.17612e-05
1.1767e-05
1.23907e-05
1.23897e-05
1.23869e-05
1.23812e-05
1.23712e-05
1.23553e-05
1.23319e-05
1.22998e-05
1.22582e-05
1.22069e-05
1.21462e-05
1.20763e-05
1.19974e-05
1.19106e-05
1.18185e-05
1.17256e-05
1.16431e-05
1.1579e-05
1.15262e-05
1.14774e-05
1.14313e-05
1.13893e-05
1.13541e-05
1.13285e-05
1.13143e-05
1.13124e-05
1.13214e-05
1.13384e-05
1.13586e-05
1.13769e-05
1.13897e-05
1.13957e-05
1.23688e-05
1.23678e-05
1.23651e-05
1.23595e-05
1.23496e-05
1.23337e-05
1.23098e-05
1.22765e-05
1.22329e-05
1.21789e-05
1.21151e-05
1.2043e-05
1.19642e-05
1.18818e-05
1.18e-05
1.17255e-05
1.16686e-05
1.16297e-05
1.15947e-05
1.15545e-05
1.15074e-05
1.14558e-05
1.14039e-05
1.13564e-05
1.13171e-05
1.12882e-05
1.12703e-05
1.12624e-05
1.12619e-05
1.12655e-05
1.12699e-05
1.12725e-05
1.23541e-05
1.23533e-05
1.23508e-05
1.23458e-05
1.23367e-05
1.2322e-05
1.22998e-05
1.22684e-05
1.2227e-05
1.21754e-05
1.21145e-05
1.20462e-05
1.19732e-05
1.18989e-05
1.18285e-05
1.17683e-05
1.17271e-05
1.17011e-05
1.16744e-05
1.16376e-05
1.15881e-05
1.15279e-05
1.14622e-05
1.13977e-05
1.13407e-05
1.12953e-05
1.12631e-05
1.12433e-05
1.12335e-05
1.12303e-05
1.12304e-05
1.12313e-05
1.23435e-05
1.23428e-05
1.23408e-05
1.23365e-05
1.23288e-05
1.2316e-05
1.22964e-05
1.22685e-05
1.22313e-05
1.21847e-05
1.21297e-05
1.20681e-05
1.20026e-05
1.19367e-05
1.18747e-05
1.18221e-05
1.17856e-05
1.17602e-05
1.17331e-05
1.1696e-05
1.16456e-05
1.15823e-05
1.15098e-05
1.14347e-05
1.13641e-05
1.13045e-05
1.12596e-05
1.12299e-05
1.12132e-05
1.1206e-05
1.12042e-05
1.12044e-05
1.23329e-05
1.23325e-05
1.23313e-05
1.23283e-05
1.23223e-05
1.23119e-05
1.22954e-05
1.22715e-05
1.22393e-05
1.21986e-05
1.21503e-05
1.20959e-05
1.20376e-05
1.19783e-05
1.19213e-05
1.18702e-05
1.18302e-05
1.17981e-05
1.17653e-05
1.1725e-05
1.16739e-05
1.16108e-05
1.15377e-05
1.14591e-05
1.13817e-05
1.13127e-05
1.12577e-05
1.1219e-05
1.11957e-05
1.11845e-05
1.1181e-05
1.11808e-05
1.23171e-05
1.23175e-05
1.23176e-05
1.23165e-05
1.2313e-05
1.23055e-05
1.22925e-05
1.22725e-05
1.2245e-05
1.22096e-05
1.21669e-05
1.21181e-05
1.20649e-05
1.20093e-05
1.19534e-05
1.18995e-05
1.18516e-05
1.18101e-05
1.177e-05
1.1726e-05
1.16744e-05
1.16135e-05
1.15434e-05
1.14669e-05
1.1389e-05
1.13162e-05
1.12549e-05
1.12092e-05
1.118e-05
1.1165e-05
1.11596e-05
1.11589e-05
1.22902e-05
1.22916e-05
1.22938e-05
1.22956e-05
1.22953e-05
1.22912e-05
1.22814e-05
1.22647e-05
1.22403e-05
1.22081e-05
1.21685e-05
1.21224e-05
1.2071e-05
1.20158e-05
1.19582e-05
1.18993e-05
1.18432e-05
1.17934e-05
1.17476e-05
1.17013e-05
1.16509e-05
1.15939e-05
1.15293e-05
1.14584e-05
1.13847e-05
1.13131e-05
1.12497e-05
1.11997e-05
1.11659e-05
1.11472e-05
1.11399e-05
1.11387e-05
1.22461e-05
1.2249e-05
1.22539e-05
1.2259e-05
1.22621e-05
1.22609e-05
1.22533e-05
1.2238e-05
1.22142e-05
1.21822e-05
1.21424e-05
1.20958e-05
1.20436e-05
1.19871e-05
1.19271e-05
1.1864e-05
1.18023e-05
1.17478e-05
1.16998e-05
1.16539e-05
1.16067e-05
1.15554e-05
1.14984e-05
1.14357e-05
1.13692e-05
1.13026e-05
1.1241e-05
1.11898e-05
1.11529e-05
1.11312e-05
1.1122e-05
1.11202e-05
1.21803e-05
1.2185e-05
1.21925e-05
1.22003e-05
1.22053e-05
1.22049e-05
1.21969e-05
1.21801e-05
1.21541e-05
1.21196e-05
1.20776e-05
1.20293e-05
1.19758e-05
1.19184e-05
1.18578e-05
1.17939e-05
1.17313e-05
1.16768e-05
1.16303e-05
1.15877e-05
1.15457e-05
1.15015e-05
1.14533e-05
1.14003e-05
1.13433e-05
1.12846e-05
1.1228e-05
1.11784e-05
1.11405e-05
1.11167e-05
1.11058e-05
1.11034e-05
1.20899e-05
1.20964e-05
1.21055e-05
1.21133e-05
1.21167e-05
1.21134e-05
1.21016e-05
1.20806e-05
1.20509e-05
1.20136e-05
1.19698e-05
1.1921e-05
1.18685e-05
1.1813e-05
1.17553e-05
1.16951e-05
1.16366e-05
1.15864e-05
1.15446e-05
1.15075e-05
1.1472e-05
1.14357e-05
1.13969e-05
1.13544e-05
1.13081e-05
1.12591e-05
1.12099e-05
1.11647e-05
1.11281e-05
1.11035e-05
1.10913e-05
1.10882e-05
1.19733e-05
1.19808e-05
1.19887e-05
1.19923e-05
1.19896e-05
1.19796e-05
1.19619e-05
1.19364e-05
1.19041e-05
1.18662e-05
1.18237e-05
1.17779e-05
1.17297e-05
1.168e-05
1.16292e-05
1.15768e-05
1.15265e-05
1.14839e-05
1.1449e-05
1.14187e-05
1.13904e-05
1.13622e-05
1.13324e-05
1.13001e-05
1.12647e-05
1.12264e-05
1.11866e-05
1.11481e-05
1.1115e-05
1.10913e-05
1.10784e-05
1.10747e-05
1.18286e-05
1.18355e-05
1.18378e-05
1.18327e-05
1.18209e-05
1.18036e-05
1.17811e-05
1.17539e-05
1.17227e-05
1.16881e-05
1.1651e-05
1.16121e-05
1.15721e-05
1.15315e-05
1.14906e-05
1.14491e-05
1.14096e-05
1.13764e-05
1.13495e-05
1.13265e-05
1.13054e-05
1.12848e-05
1.12635e-05
1.12405e-05
1.12153e-05
1.11876e-05
1.11579e-05
1.11279e-05
1.11005e-05
1.10793e-05
1.10669e-05
1.10628e-05
1.16522e-05
1.16551e-05
1.16476e-05
1.1633e-05
1.16145e-05
1.15939e-05
1.15715e-05
1.15474e-05
1.15217e-05
1.14946e-05
1.14665e-05
1.14376e-05
1.14084e-05
1.13791e-05
1.13499e-05
1.13206e-05
1.12929e-05
1.12698e-05
1.12512e-05
1.12354e-05
1.12212e-05
1.12076e-05
1.11936e-05
1.11787e-05
1.11624e-05
1.11444e-05
1.11247e-05
1.11039e-05
1.10838e-05
1.10672e-05
1.10565e-05
1.10525e-05
1.1437e-05
1.1432e-05
1.14172e-05
1.14004e-05
1.13835e-05
1.13669e-05
1.13505e-05
1.13343e-05
1.13178e-05
1.1301e-05
1.12839e-05
1.12665e-05
1.12492e-05
1.1232e-05
1.1215e-05
1.1198e-05
1.1182e-05
1.11687e-05
1.1158e-05
1.11491e-05
1.11411e-05
1.11335e-05
1.11258e-05
1.11176e-05
1.11088e-05
1.1099e-05
1.10882e-05
1.10765e-05
1.10647e-05
1.10542e-05
1.10468e-05
1.10436e-05
1.11742e-05
1.11702e-05
1.11625e-05
1.11551e-05
1.11483e-05
1.11419e-05
1.1136e-05
1.11303e-05
1.11247e-05
1.11191e-05
1.11134e-05
1.11077e-05
1.11021e-05
1.10965e-05
1.1091e-05
1.10855e-05
1.10804e-05
1.10761e-05
1.10727e-05
1.10698e-05
1.10673e-05
1.10649e-05
1.10625e-05
1.10599e-05
1.10572e-05
1.10542e-05
1.10508e-05
1.10472e-05
1.10434e-05
1.10399e-05
1.10372e-05
1.10359e-05
)
;

boundaryField
{
    movingWall
    {
        type            fixedValue;
        value           uniform 1.1032e-05;
    }
    fixedWalls
    {
        type            zeroGradient;
    }
    floor
    {
        type            zeroGradient;
    }
    frontAndBack
    {
        type            empty;
    }
}


// ************************************************************************* //
