/*--------------------------------*- C++ -*----------------------------------*\
| =========                 |                                                 |
| \\      /  F ield         | OpenFOAM: The Open Source CFD Toolbox           |
|  \\    /   O peration     | Version:  2212                                  |
|   \\  /    A nd           | Website:  www.openfoam.com                      |
|    \\/     M anipulation  |                                                 |
\*---------------------------------------------------------------------------*/
FoamFile
{
    version     2.0;
    format      ascii;
    arch        "LSB;label=64;scalar=64";
    class       volVectorField;
    location    "1100";
    object      U;
}
// * * * * * * * * * * * * * * * * * * * * * * * * * * * * * * * * * * * * * //

dimensions      [0 1 -1 0 0 0 0];

internalField   nonuniform List<vector> 
1024
(
(9.86521e-06 -1.04348e-05 0)
(-3.73426e-05 9.06905e-06 0)
(-0.000203623 3.00708e-05 0)
(-0.00047988 3.89959e-05 0)
(-0.000824696 3.95025e-05 0)
(-0.00120101 3.73447e-05 0)
(-0.00158654 3.48798e-05 0)
(-0.00195932 3.12855e-05 0)
(-0.00227396 2.41475e-05 0)
(-0.00243245 9.63272e-06 0)
(-0.00227747 -1.40301e-05 0)
(-0.00164552 -3.75754e-05 0)
(-0.000542337 -4.62028e-05 0)
(0.000700507 -3.4553e-05 0)
(0.00154591 -1.80612e-05 0)
(0.00202237 -4.8981e-06 0)
(0.00215048 8.98445e-07 0)
(0.00209941 4.03817e-06 0)
(0.00195597 6.3617e-06 0)
(0.0017661 7.81407e-06 0)
(0.00155906 8.86143e-06 0)
(0.00135039 9.47534e-06 0)
(0.00115138 9.61589e-06 0)
(0.000968301 9.49842e-06 0)
(0.000800209 9.68831e-06 0)
(0.000639423 1.09179e-05 0)
(0.000477623 1.33145e-05 0)
(0.000315387 1.56016e-05 0)
(0.000167394 1.52326e-05 0)
(5.67343e-05 9.88196e-06 0)
(2.02637e-07 1.65552e-07 0)
(-6.90315e-06 -6.93759e-06 0)
(-1.21262e-05 3.83922e-05 0)
(-0.000228025 0.000208917 0)
(-0.00072107 0.000368413 0)
(-0.00147383 0.000447211 0)
(-0.00239461 0.000452366 0)
(-0.0033902 0.00041693 0)
(-0.00438386 0.000361579 0)
(-0.00529265 0.000285982 0)
(-0.00598359 0.000176383 0)
(-0.00622328 1.42238e-05 0)
(-0.00566957 -0.000201045 0)
(-0.00400588 -0.000402948 0)
(-0.00122186 -0.000485399 0)
(0.0019811 -0.000378046 0)
(0.00419548 -0.000209574 0)
(0.00554154 -8.19338e-05 0)
(0.00599771 -9.44464e-06 0)
(0.00594334 3.16908e-05 0)
(0.00561559 6.1286e-05 0)
(0.00513756 8.31664e-05 0)
(0.00459018 0.00010025 0)
(0.00401972 0.000113116 0)
(0.00345884 0.000121935 0)
(0.00292668 0.00012888 0)
(0.00242491 0.000138678 0)
(0.00194056 0.000156021 0)
(0.00146084 0.000179334 0)
(0.000993428 0.000196107 0)
(0.00057469 0.000186855 0)
(0.000254672 0.000138867 0)
(6.70517e-05 6.25945e-05 0)
(1.76009e-07 -3.78038e-07 0)
(-4.25792e-05 0.0002369 0)
(-0.000459275 0.000732943 0)
(-0.00127331 0.00112552 0)
(-0.00244324 0.00131187 0)
(-0.00383468 0.00130866 0)
(-0.00530939 0.00118545 0)
(-0.0067357 0.000992255 0)
(-0.00796669 0.000736479 0)
(-0.00879762 0.000396178 0)
(-0.00891404 -6.15973e-05 0)
(-0.00787809 -0.000625456 0)
(-0.00539692 -0.00113707 0)
(-0.00143751 -0.00135482 0)
(0.00311533 -0.00106922 0)
(0.006389 -0.000614296 0)
(0.00854266 -0.000266354 0)
(0.00942608 -5.4647e-05 0)
(0.0094909 7.10603e-05 0)
(0.00909803 0.000162468 0)
(0.00843506 0.000233404 0)
(0.00762829 0.000291166 0)
(0.00675393 0.000337671 0)
(0.00586535 0.000373884 0)
(0.00499581 0.000405433 0)
(0.00415539 0.000443644 0)
(0.00333614 0.000498392 0)
(0.00253092 0.000563211 0)
(0.00175699 0.000605708 0)
(0.0010645 0.000579254 0)
(0.000519246 0.000455916 0)
(0.00017076 0.000258287 0)
(1.2396e-05 6.23588e-05 0)
(-6.60237e-05 0.000620547 0)
(-0.000643109 0.00165272 0)
(-0.00170733 0.00237168 0)
(-0.00318356 0.00268089 0)
(-0.00489507 0.00263016 0)
(-0.00666548 0.00233813 0)
(-0.00831733 0.00189476 0)
(-0.00965321 0.0013257 0)
(-0.0104223 0.000609456 0)
(-0.0102642 -0.000295335 0)
(-0.0087541 -0.00134063 0)
(-0.00572018 -0.00225602 0)
(-0.00112255 -0.00263729 0)
(0.00400437 -0.00210644 0)
(0.00796156 -0.0012637 0)
(0.010789 -0.00059777 0)
(0.0121647 -0.000167693 0)
(0.0124791 9.91468e-05 0)
(0.0121597 0.000296345 0)
(0.0114429 0.000454784 0)
(0.0104899 0.00058851 0)
(0.00940211 0.000701711 0)
(0.00825093 0.000796812 0)
(0.00708423 0.000883672 0)
(0.0059256 0.00098093 0)
(0.00478078 0.00110322 0)
(0.00365557 0.00123626 0)
(0.00257744 0.0013215 0)
(0.00160515 0.00127595 0)
(0.000817763 0.00104634 0)
(0.000288215 0.000658077 0)
(2.53947e-05 0.000212665 0)
(-7.419e-05 0.00116885 0)
(-0.000712117 0.00292943 0)
(-0.00187731 0.00405674 0)
(-0.00347999 0.00449108 0)
(-0.00531743 0.00434047 0)
(-0.00718371 0.00378745 0)
(-0.00886684 0.00297428 0)
(-0.0101364 0.00195809 0)
(-0.010719 0.000731055 0)
(-0.010228 -0.000740918 0)
(-0.0083561 -0.00234261 0)
(-0.00506204 -0.00369141 0)
(-0.000336955 -0.0042009 0)
(0.00464102 -0.00339473 0)
(0.00886632 -0.00213955 0)
(0.0121346 -0.0010967 0)
(0.0139779 -0.000385345 0)
(0.0146389 7.85362e-05 0)
(0.0145207 0.000429443 0)
(0.0138868 0.000719912 0)
(0.0129189 0.000973666 0)
(0.011734 0.00119824 0)
(0.0104161 0.00139799 0)
(0.0090259 0.00158658 0)
(0.00760276 0.0017884 0)
(0.00617079 0.00202056 0)
(0.004753 0.00225864 0)
(0.00338875 0.00241414 0)
(0.00214533 0.00235811 0)
(0.00111704 0.00199409 0)
(0.000405173 0.00132938 0)
(3.80503e-05 0.000478858 0)
(-6.27478e-05 0.00179254 0)
(-0.000630187 0.00439343 0)
(-0.00169829 0.00600122 0)
(-0.00320199 0.00658434 0)
(-0.00494924 0.00630676 0)
(-0.00672184 0.00542108 0)
(-0.00828472 0.00413609 0)
(-0.00938781 0.00255739 0)
(-0.00974978 0.000708826 0)
(-0.00896657 -0.00141111 0)
(-0.00691172 -0.00359115 0)
(-0.00363642 -0.00534182 0)
(0.000760937 -0.00588643 0)
(0.00512297 -0.00481293 0)
(0.00920499 -0.00318712 0)
(0.0125912 -0.00175679 0)
(0.0147519 -0.000733485 0)
(0.0157694 -3.07169e-05 0)
(0.01593 0.000519687 0)
(0.015489 0.000988135 0)
(0.0146292 0.00141132 0)
(0.0134699 0.00180141 0)
(0.0120994 0.0021648 0)
(0.0105868 0.00251752 0)
(0.00898523 0.00288647 0)
(0.00733727 0.00328739 0)
(0.00568455 0.00368257 0)
(0.00408117 0.00394902 0)
(0.00260642 0.00389978 0)
(0.00137154 0.00337196 0)
(0.000504129 0.00232835 0)
(4.88022e-05 0.000884533 0)
(-3.50932e-05 0.00234406 0)
(-0.000413892 0.005752 0)
(-0.0011929 0.00788835 0)
(-0.00236905 0.00869151 0)
(-0.00380983 0.00832984 0)
(-0.00531626 0.00710363 0)
(-0.00664728 0.0052959 0)
(-0.00754359 0.00308047 0)
(-0.00771875 0.000534213 0)
(-0.00674716 -0.00228024 0)
(-0.00469873 -0.00502034 0)
(-0.00167648 -0.00708031 0)
(0.00200489 -0.00754402 0)
(0.00557141 -0.00624766 0)
(0.00916287 -0.00431923 0)
(0.0123162 -0.00253325 0)
(0.0145421 -0.00120756 0)
(0.0157951 -0.000254265 0)
(0.0162412 0.000527793 0)
(0.0160468 0.0012144 0)
(0.0153805 0.00185535 0)
(0.0143498 0.00246871 0)
(0.0130368 0.00306274 0)
(0.0115121 0.00365371 0)
(0.00983791 0.0042669 0)
(0.00807148 0.00491126 0)
(0.00627214 0.00552979 0)
(0.0045115 0.00595657 0)
(0.00288498 0.00593182 0)
(0.00151992 0.00520421 0)
(0.000559846 0.00366963 0)
(5.46736e-05 0.00143472 0)
(-2.07448e-06 0.00266359 0)
(-0.000133487 0.00665594 0)
(-0.000497743 0.00930122 0)
(-0.00116152 0.0104304 0)
(-0.00209519 0.0101223 0)
(-0.0031652 0.00865426 0)
(-0.00415555 0.00636624 0)
(-0.00481452 0.0035124 0)
(-0.004845 0.000239887 0)
(-0.00381005 -0.00329341 0)
(-0.0019458 -0.00653664 0)
(0.000616047 -0.00874203 0)
(0.00327878 -0.00904299 0)
(0.00603753 -0.00759691 0)
(0.00888485 -0.00542693 0)
(0.0115006 -0.00334577 0)
(0.0135148 -0.00176412 0)
(0.0148065 -0.000584059 0)
(0.0154582 0.000433808 0)
(0.0154922 0.00136317 0)
(0.0150481 0.00226025 0)
(0.0142079 0.00314965 0)
(0.0130369 0.00404085 0)
(0.0115987 0.00494766 0)
(0.0099578 0.00588896 0)
(0.00818138 0.00685941 0)
(0.00634455 0.00777188 0)
(0.00453858 0.00840295 0)
(0.00287765 0.00840406 0)
(0.00149999 0.00742336 0)
(0.000546089 0.00528637 0)
(5.23216e-05 0.00209548 0)
(2.25834e-05 0.00265828 0)
(0.000114511 0.00683535 0)
(0.000172457 0.00982862 0)
(0.000102229 0.0113532 0)
(-0.000174299 0.0113061 0)
(-0.00063286 0.00982639 0)
(-0.00112688 0.00723871 0)
(-0.0014497 0.00385447 0)
(-0.00126365 -0.000119492 0)
(-0.000338781 -0.00436686 0)
(0.00116298 -0.00798341 0)
(0.00288753 -0.0100827 0)
(0.00462487 -0.0102824 0)
(0.00646641 -0.00873881 0)
(0.00838483 -0.00638271 0)
(0.0102349 -0.00409073 0)
(0.0118081 -0.00233204 0)
(0.0129529 -0.000980287 0)
(0.0136876 0.000247942 0)
(0.0138799 0.00142134 0)
(0.0136353 0.00259382 0)
(0.0130039 0.00379748 0)
(0.0120243 0.00504205 0)
(0.0107455 0.00633548 0)
(0.00922833 0.00768398 0)
(0.00754568 0.00905684 0)
(0.00578797 0.0103189 0)
(0.00406808 0.0111678 0)
(0.00251818 0.0111535 0)
(0.00127502 0.00983464 0)
(0.000448895 0.00699988 0)
(4.01963e-05 0.00277962 0)
(3.49013e-05 0.00233403 0)
(0.000276534 0.00622515 0)
(0.000658065 0.00924952 0)
(0.00109239 0.011027 0)
(0.00146797 0.0113106 0)
(0.00172466 0.010082 0)
(0.00189109 0.00751544 0)
(0.00208157 0.00385882 0)
(0.00258881 -0.000626499 0)
(0.00331641 -0.00521772 0)
(0.00420114 -0.00888914 0)
(0.00508411 -0.0109847 0)
(0.00588251 -0.0111136 0)
(0.0066768 -0.00949984 0)
(0.00751686 -0.00703092 0)
(0.00843828 -0.00464647 0)
(0.00941115 -0.00282803 0)
(0.0102879 -0.00138977 0)
(0.0110017 8.7845e-07 0)
(0.0112897 0.00139624 0)
(0.0112051 0.00283926 0)
(0.010777 0.00437381 0)
(0.0100128 0.00600915 0)
(0.0089422 0.00774296 0)
(0.00761962 0.00955944 0)
(0.00612432 0.0113845 0)
(0.00456479 0.0130073 0)
(0.00307697 0.0140208 0)
(0.00180271 0.0138769 0)
(0.000853263 0.0120978 0)
(0.000276316 0.00851707 0)
(2.00166e-05 0.0033509 0)
(3.4868e-05 0.00177101 0)
(0.000334836 0.00492682 0)
(0.000890787 0.0076017 0)
(0.00165331 0.00938445 0)
(0.00251496 0.00991524 0)
(0.00337962 0.00901232 0)
(0.00419648 0.00670236 0)
(0.00497689 0.00316762 0)
(0.0058221 -0.00127804 0)
(0.00644652 -0.00577105 0)
(0.00683109 -0.00933987 0)
(0.00691653 -0.0112995 0)
(0.00669906 -0.0113168 0)
(0.00633232 -0.00965595 0)
(0.00597569 -0.00717849 0)
(0.00586188 -0.00486645 0)
(0.00613016 -0.00315778 0)
(0.0066791 -0.00176074 0)
(0.00730408 -0.000285866 0)
(0.00769743 0.00128677 0)
(0.00776095 0.00297426 0)
(0.00754091 0.00483445 0)
(0.00701395 0.00687549 0)
(0.00619263 0.0090782 0)
(0.00513117 0.0113883 0)
(0.00392339 0.0136584 0)
(0.0027016 0.015565 0)
(0.00161964 0.0165791 0)
(0.000803639 0.0161022 0)
(0.000298628 0.0137316 0)
(6.21774e-05 0.00946241 0)
(-3.43392e-06 0.00364943 0)
(2.66291e-05 0.00111459 0)
(0.000300012 0.00324081 0)
(0.000867646 0.00520238 0)
(0.00173642 0.00665321 0)
(0.00283956 0.00720527 0)
(0.00408382 0.00656697 0)
(0.00538048 0.00463339 0)
(0.00666381 0.00151636 0)
(0.00778055 -0.00243128 0)
(0.00838897 -0.0062747 0)
(0.00837299 -0.00927581 0)
(0.00771621 -0.0108439 0)
(0.00646019 -0.0106468 0)
(0.00489153 -0.00895367 0)
(0.0032838 -0.006598 0)
(0.00212214 -0.00458527 0)
(0.00162712 -0.00321974 0)
(0.00179259 -0.00205803 0)
(0.00233973 -0.000628137 0)
(0.00290176 0.00105828 0)
(0.00313277 0.00294528 0)
(0.00316161 0.00510137 0)
(0.00292492 0.00754007 0)
(0.0024277 0.0102116 0)
(0.00174315 0.0129871 0)
(0.000995772 0.0155915 0)
(0.000332021 0.0175499 0)
(-0.000114414 0.0182431 0)
(-0.000293113 0.0171628 0)
(-0.000266511 0.0141784 0)
(-0.000140744 0.00949445 0)
(-2.27182e-05 0.00356005 0)
(1.50456e-05 0.000542154 0)
(0.000222425 0.00160888 0)
(0.000704804 0.00263265 0)
(0.00152114 0.0034071 0)
(0.00266249 0.00363968 0)
(0.00406085 0.0030409 0)
(0.00558797 0.0014209 0)
(0.00702996 -0.00113678 0)
(0.00807376 -0.00395052 0)
(0.00843497 -0.00659958 0)
(0.00794056 -0.00858687 0)
(0.00656189 -0.00945488 0)
(0.0042702 -0.00887399 0)
(0.00156833 -0.00715074 0)
(-0.00124403 -0.00503168 0)
(-0.00324808 -0.00367893 0)
(-0.00447249 -0.00292624 0)
(-0.00480793 -0.00220921 0)
(-0.00444892 -0.00105242 0)
(-0.00363318 0.000638329 0)
(-0.0031296 0.00266843 0)
(-0.00270277 0.00508107 0)
(-0.0024397 0.00789118 0)
(-0.00233887 0.0109325 0)
(-0.00231891 0.0139285 0)
(-0.00226812 0.0164587 0)
(-0.00208759 0.0180046 0)
(-0.00173406 0.0180773 0)
(-0.00124506 0.0164043 0)
(-0.000722728 0.0130659 0)
(-0.000291557 0.00843773 0)
(-3.45313e-05 0.00304027 0)
(1.31209e-05 5.0631e-05 0)
(0.000196797 7.43299e-05 0)
(0.000612717 9.12349e-06 0)
(0.00130854 -0.000192409 0)
(0.00227124 -0.000616825 0)
(0.00341745 -0.00135615 0)
(0.00457732 -0.0024061 0)
(0.00551898 -0.00364525 0)
(0.00597843 -0.00500259 0)
(0.00570511 -0.00623196 0)
(0.00452214 -0.00695112 0)
(0.00234438 -0.00684375 0)
(-0.00116613 -0.00561806 0)
(-0.00478104 -0.00404451 0)
(-0.00799265 -0.00286687 0)
(-0.0106789 -0.00227159 0)
(-0.0126827 -0.00216256 0)
(-0.013627 -0.00208954 0)
(-0.0134887 -0.00150703 0)
(-0.0125283 -0.000182374 0)
(-0.0111431 0.00180958 0)
(-0.00988457 0.00424537 0)
(-0.00861522 0.00704462 0)
(-0.00740285 0.0100037 0)
(-0.00622355 0.0127975 0)
(-0.00506892 0.0149452 0)
(-0.00393227 0.0159546 0)
(-0.00282639 0.0154858 0)
(-0.00180281 0.0134929 0)
(-0.000946411 0.0102658 0)
(-0.000347279 0.00631158 0)
(-3.53651e-05 0.00214917 0)
(2.1012e-05 -0.000614835 0)
(0.000156774 -0.00168333 0)
(0.000415789 -0.00261815 0)
(0.00078133 -0.00337837 0)
(0.00119406 -0.00394302 0)
(0.00155061 -0.00433095 0)
(0.00170387 -0.004598 0)
(0.00148543 -0.00478755 0)
(0.000734171 -0.00484517 0)
(-0.000886793 -0.00446864 0)
(-0.00332949 -0.00341029 0)
(-0.00686518 -0.00186232 0)
(-0.0108454 -0.000615564 0)
(-0.0146421 4.24719e-05 0)
(-0.018062 0.000261654 0)
(-0.0209592 3.49403e-05 0)
(-0.023147 -0.000639687 0)
(-0.0243472 -0.00143946 0)
(-0.0242103 -0.0018733 0)
(-0.0229433 -0.00160478 0)
(-0.0206833 -0.000454844 0)
(-0.0177537 0.00154806 0)
(-0.0146185 0.00408769 0)
(-0.0116104 0.00660586 0)
(-0.0087865 0.00886405 0)
(-0.0062936 0.0105306 0)
(-0.00423535 0.0111949 0)
(-0.00263463 0.010617 0)
(-0.00146161 0.00888242 0)
(-0.000669145 0.0063985 0)
(-0.000211686 0.00368952 0)
(-1.73214e-05 0.00116081 0)
(-2.22454e-05 -0.000666234 0)
(-0.000229243 -0.00174884 0)
(-0.000675003 -0.00253705 0)
(-0.00141085 -0.00288169 0)
(-0.00246024 -0.00266805 0)
(-0.00384096 -0.00190483 0)
(-0.0055755 -0.0007566 0)
(-0.00769559 0.000538428 0)
(-0.0102158 0.00178387 0)
(-0.0130638 0.00285076 0)
(-0.0160322 0.00363022 0)
(-0.018834 0.00402076 0)
(-0.0215684 0.00409732 0)
(-0.0243196 0.00386888 0)
(-0.0270643 0.00328311 0)
(-0.0296313 0.00223864 0)
(-0.0316296 0.000596967 0)
(-0.0324279 -0.00143945 0)
(-0.0321522 -0.00338195 0)
(-0.0308731 -0.00498156 0)
(-0.028601 -0.00602317 0)
(-0.0254085 -0.00633929 0)
(-0.0214707 -0.00578249 0)
(-0.0170646 -0.00422534 0)
(-0.0126511 -0.0018853 0)
(-0.00860088 0.000817552 0)
(-0.00521136 0.00329902 0)
(-0.00269355 0.00486767 0)
(-0.00111213 0.0050748 0)
(-0.000312688 0.00420845 0)
(-2.30554e-05 0.00275868 0)
(1.59569e-05 0.00100815 0)
(-3.41334e-05 0.00093437 0)
(-0.000386356 0.00262975 0)
(-0.00111805 0.00419044 0)
(-0.00226518 0.0055049 0)
(-0.00377599 0.00649347 0)
(-0.00555939 0.00716784 0)
(-0.00751951 0.00761502 0)
(-0.00959094 0.00791811 0)
(-0.0117547 0.00811355 0)
(-0.0140241 0.00820958 0)
(-0.0164085 0.00820714 0)
(-0.0188945 0.00809356 0)
(-0.0214624 0.00779781 0)
(-0.0240733 0.00718649 0)
(-0.0266645 0.00611647 0)
(-0.0290975 0.00442791 0)
(-0.0310853 0.00191296 0)
(-0.0320954 -0.0011999 0)
(-0.0320332 -0.00437497 0)
(-0.0312959 -0.0074954 0)
(-0.0298123 -0.01045 0)
(-0.0275696 -0.0131078 0)
(-0.0245956 -0.0152499 0)
(-0.0209892 -0.016557 0)
(-0.0169428 -0.0166674 0)
(-0.0127409 -0.0152834 0)
(-0.00872792 -0.0123119 0)
(-0.00526167 -0.0080869 0)
(-0.00264402 -0.00355425 0)
(-0.00102079 -0.000162768 0)
(-0.00024733 0.00125871 0)
(-4.40409e-06 0.000882134 0)
(-2.68505e-05 0.00209596 0)
(-0.000282145 0.00560625 0)
(-0.000803931 0.00848932 0)
(-0.00161957 0.0106218 0)
(-0.00270987 0.0120103 0)
(-0.00404366 0.0127821 0)
(-0.00558236 0.0131215 0)
(-0.00728257 0.0131891 0)
(-0.00910148 0.0130782 0)
(-0.0110029 0.0128237 0)
(-0.0129583 0.0124295 0)
(-0.0149428 0.01188 0)
(-0.0169342 0.0111283 0)
(-0.0189108 0.0100792 0)
(-0.0208456 0.00859079 0)
(-0.0226662 0.00645624 0)
(-0.0242007 0.00336603 0)
(-0.0251877 -0.000489636 0)
(-0.0254471 -0.00442806 0)
(-0.0254439 -0.00837647 0)
(-0.0250728 -0.0124544 0)
(-0.0242205 -0.0166435 0)
(-0.0227716 -0.0207474 0)
(-0.0206596 -0.0243603 0)
(-0.01791 -0.026903 0)
(-0.0146505 -0.0277207 0)
(-0.011106 -0.0262243 0)
(-0.0075826 -0.0221692 0)
(-0.0044419 -0.0160329 0)
(-0.00204865 -0.00927167 0)
(-0.000618486 -0.00377207 0)
(-3.78302e-05 -0.000569288 0)
(-5.26398e-06 0.0027267 0)
(-0.000112389 0.00732383 0)
(-0.000372981 0.0111384 0)
(-0.000837448 0.013987 0)
(-0.0015228 0.0158335 0)
(-0.00242022 0.0167999 0)
(-0.00349865 0.0171059 0)
(-0.00471377 0.0169731 0)
(-0.00601749 0.0165594 0)
(-0.0073633 0.0159518 0)
(-0.00870729 0.0151859 0)
(-0.010009 0.0142632 0)
(-0.0112355 0.0131493 0)
(-0.0123671 0.0117637 0)
(-0.0133945 0.00997301 0)
(-0.0142935 0.0075761 0)
(-0.0149684 0.00426153 0)
(-0.0153961 0.000191937 0)
(-0.0160059 -0.00386394 0)
(-0.0165846 -0.00789662 0)
(-0.0172151 -0.0122632 0)
(-0.0177168 -0.0171345 0)
(-0.017866 -0.0224703 0)
(-0.0174303 -0.0279181 0)
(-0.0162582 -0.032803 0)
(-0.0143075 -0.0362467 0)
(-0.0116731 -0.0372253 0)
(-0.00859683 -0.034849 0)
(-0.00545389 -0.0287808 0)
(-0.00273004 -0.0198807 0)
(-0.000894793 -0.0104317 0)
(-6.44787e-05 -0.00276573 0)
(6.71133e-06 0.00281783 0)
(1.58771e-05 0.00775062 0)
(-2.31081e-05 0.0120515 0)
(-0.000168728 0.0154391 0)
(-0.00047431 0.0177528 0)
(-0.000959245 0.019016 0)
(-0.00160386 0.0194149 0)
(-0.00235563 0.019197 0)
(-0.00314903 0.0185755 0)
(-0.00392242 0.0176908 0)
(-0.00462208 0.0166203 0)
(-0.00520429 0.0153964 0)
(-0.00563968 0.0140084 0)
(-0.00591837 0.0123933 0)
(-0.00604836 0.0104224 0)
(-0.00604388 0.00789133 0)
(-0.0058942 0.00455912 0)
(-0.0056561 0.000629904 0)
(-0.00634545 -0.00310356 0)
(-0.00727632 -0.00674498 0)
(-0.00851179 -0.0107746 0)
(-0.00994169 -0.0155348 0)
(-0.0113512 -0.0212428 0)
(-0.0124123 -0.0277521 0)
(-0.0128263 -0.0344178 0)
(-0.0123766 -0.040318 0)
(-0.0109859 -0.0441068 0)
(-0.00876713 -0.0443296 0)
(-0.00602234 -0.0397616 0)
(-0.00326351 -0.0302266 0)
(-0.00115423 -0.0176156 0)
(-9.60791e-05 -0.00532182 0)
(1.28404e-05 0.00267166 0)
(9.16845e-05 0.00753341 0)
(0.000198867 0.0119683 0)
(0.000283462 0.015654 0)
(0.000282764 0.0183338 0)
(0.000158753 0.0199104 0)
(-8.79162e-05 0.0204719 0)
(-0.000404117 0.0202335 0)
(-0.000711088 0.0194616 0)
(-0.000932681 0.0183571 0)
(-0.00100727 0.0170461 0)
(-0.000893769 0.015596 0)
(-0.000573217 0.0140213 0)
(-4.83823e-05 0.012267 0)
(0.000641867 0.0101864 0)
(0.00143785 0.00759151 0)
(0.00217254 0.0043147 0)
(0.00270654 0.000840876 0)
(0.00195813 -0.00234519 0)
(0.000827733 -0.00544954 0)
(-0.00072911 -0.00903443 0)
(-0.00257203 -0.0132177 0)
(-0.00463618 -0.0185622 0)
(-0.00672265 -0.0253375 0)
(-0.00843815 -0.0329832 0)
(-0.0094228 -0.040778 0)
(-0.00939158 -0.0471955 0)
(-0.0082728 -0.0503873 0)
(-0.00621569 -0.0483128 0)
(-0.00366775 -0.0395537 0)
(-0.00140331 -0.0248816 0)
(-0.000129364 -0.00812686 0)
(1.40866e-05 0.00243979 0)
(0.000121095 0.00704361 0)
(0.000300644 0.0114234 0)
(0.000517522 0.0152317 0)
(0.000717863 0.018135 0)
(0.000866228 0.0199319 0)
(0.000964689 0.0206212 0)
(0.00106175 0.0203819 0)
(0.00123608 0.0194897 0)
(0.00156795 0.0181991 0)
(0.00211653 0.0166914 0)
(0.00291044 0.0150718 0)
(0.00394775 0.0133748 0)
(0.00519756 0.0115598 0)
(0.00658218 0.00948845 0)
(0.00798734 0.00695938 0)
(0.00905751 0.00393465 0)
(0.00942623 0.000992832 0)
(0.00861297 -0.00171349 0)
(0.00728227 -0.00439515 0)
(0.00559486 -0.00735086 0)
(0.00361533 -0.0108822 0)
(0.00145954 -0.0154127 0)
(-0.00112494 -0.0219474 0)
(-0.00366429 -0.0297283 0)
(-0.00582831 -0.0386475 0)
(-0.00712161 -0.0471422 0)
(-0.00724075 -0.0532236 0)
(-0.0060981 -0.0542018 0)
(-0.00398042 -0.0473935 0)
(-0.00167126 -0.0319002 0)
(-0.000169597 -0.0110886 0)
(1.06793e-05 0.00222585 0)
(0.000103349 0.00654364 0)
(0.000277456 0.0107797 0)
(0.000525337 0.0145787 0)
(0.000823531 0.0175584 0)
(0.00115965 0.0194437 0)
(0.00154991 0.0201661 0)
(0.00204501 0.0198755 0)
(0.00271447 0.0188602 0)
(0.00362021 0.0174183 0)
(0.00479668 0.0157749 0)
(0.00624639 0.0140624 0)
(0.00794198 0.0123277 0)
(0.0098263 0.0105372 0)
(0.0117856 0.00856742 0)
(0.0136495 0.00623247 0)
(0.0149047 0.00360312 0)
(0.0151618 0.00119536 0)
(0.0142942 -0.00102286 0)
(0.0128112 -0.00328554 0)
(0.0109248 -0.00585786 0)
(0.00877103 -0.00900722 0)
(0.00648027 -0.0130607 0)
(0.00397131 -0.0184627 0)
(0.00120755 -0.0255755 0)
(-0.00175338 -0.0348861 0)
(-0.00422632 -0.0446921 0)
(-0.00566586 -0.0532442 0)
(-0.00565618 -0.0574598 0)
(-0.00420775 -0.0535124 0)
(-0.00199501 -0.0384957 0)
(-0.000226979 -0.014214 0)
(9.756e-07 0.00210111 0)
(2.30674e-05 0.00622621 0)
(9.43994e-05 0.010312 0)
(0.000260613 0.0139966 0)
(0.000561546 0.0168861 0)
(0.00102464 0.0186851 0)
(0.00168281 0.0193019 0)
(0.00258602 0.0188794 0)
(0.00378037 0.0177262 0)
(0.00528584 0.0161704 0)
(0.00709289 0.0144581 0)
(0.00916984 0.0127307 0)
(0.0114653 0.011037 0)
(0.0139022 0.00934653 0)
(0.0163412 0.00755205 0)
(0.018567 0.00549361 0)
(0.0199798 0.00329415 0)
(0.0202521 0.00136831 0)
(0.0194579 -0.000394949 0)
(0.0179983 -0.00223246 0)
(0.016078 -0.0043823 0)
(0.0138291 -0.00712203 0)
(0.0113579 -0.0107723 0)
(0.00869409 -0.0156789 0)
(0.00583141 -0.0220694 0)
(0.0027245 -0.030215 0)
(-0.000635197 -0.040461 0)
(-0.00340168 -0.0508359 0)
(-0.00476321 -0.0581575 0)
(-0.00428989 -0.0577178 0)
(-0.00240033 -0.0444882 0)
(-0.000320326 -0.0175713 0)
(-1.89793e-05 0.00214714 0)
(-0.000154384 0.00628736 0)
(-0.000314347 0.0102471 0)
(-0.000353667 0.0136698 0)
(-0.000127822 0.0162532 0)
(0.000449971 0.0177766 0)
(0.00140566 0.0181326 0)
(0.00276258 0.0174944 0)
(0.00452767 0.0161973 0)
(0.00665882 0.0145771 0)
(0.00909304 0.0128697 0)
(0.0117668 0.0112034 0)
(0.014613 0.00961828 0)
(0.0175455 0.00808408 0)
(0.0204139 0.00650962 0)
(0.0229814 0.00476193 0)
(0.0246199 0.00297194 0)
(0.025064 0.00145889 0)
(0.0245555 9.75927e-05 0)
(0.0232791 -0.00135458 0)
(0.0215173 -0.00310938 0)
(0.0193546 -0.00542871 0)
(0.0168486 -0.0086092 0)
(0.0140196 -0.0129545 0)
(0.0108734 -0.0187143 0)
(0.00742183 -0.0261031 0)
(0.00367129 -0.03528 0)
(-0.000225515 -0.0462928 0)
(-0.00318276 -0.0563196 0)
(-0.00408097 -0.0597742 0)
(-0.00287565 -0.0496104 0)
(-0.00047855 -0.0212547 0)
(-6.58846e-05 0.00247525 0)
(-0.000511918 0.00692605 0)
(-0.00105709 0.0107646 0)
(-0.00139489 0.013716 0)
(-0.00125614 0.015702 0)
(-0.000537368 0.0167064 0)
(0.000815913 0.0166835 0)
(0.0027162 0.01578 0)
(0.00511235 0.014361 0)
(0.00789602 0.012741 0)
(0.010957 0.0111122 0)
(0.0142133 0.00957206 0)
(0.0175951 0.00814533 0)
(0.0210194 0.00680132 0)
(0.0243394 0.00546438 0)
(0.0273222 0.00402575 0)
(0.0293322 0.00260155 0)
(0.0301326 0.00142932 0)
(0.0300207 0.000396062 0)
(0.0291273 -0.000720803 0)
(0.0277094 -0.00211953 0)
(0.0258012 -0.00402176 0)
(0.0234013 -0.00668652 0)
(0.0204848 -0.010386 0)
(0.0170337 -0.0153734 0)
(0.0130703 -0.0218868 0)
(0.0086698 -0.0301623 0)
(0.00398199 -0.0403621 0)
(-0.000572639 -0.0519172 0)
(-0.0033143 -0.0593761 0)
(-0.00332501 -0.0534652 0)
(-0.000732522 -0.0253102 0)
(-0.00017798 0.00329037 0)
(-0.00119539 0.00835981 0)
(-0.00226445 0.0119097 0)
(-0.00289358 0.0140583 0)
(-0.00273639 0.0151551 0)
(-0.0017293 0.015439 0)
(0.00014742 0.014939 0)
(0.00275239 0.0137642 0)
(0.0058615 0.0122854 0)
(0.0093466 0.0107392 0)
(0.0130706 0.00925291 0)
(0.0169504 0.00788613 0)
(0.0209232 0.00664785 0)
(0.0249152 0.00550835 0)
(0.028791 0.00440701 0)
(0.0323343 0.00325716 0)
(0.0348875 0.0021523 0)
(0.0362017 0.00126353 0)
(0.0365791 0.00049481 0)
(0.0361843 -0.000343911 0)
(0.0351939 -0.00142463 0)
(0.0336071 -0.00291946 0)
(0.0313737 -0.00504036 0)
(0.0284209 -0.00802165 0)
(0.0246907 -0.0121074 0)
(0.020182 -0.0175647 0)
(0.0149787 -0.0247162 0)
(0.00926637 -0.0339471 0)
(0.00340444 -0.0453 0)
(-0.00153204 -0.0561631 0)
(-0.0034966 -0.0555307 0)
(-0.0010809 -0.0296573 0)
(-0.000424036 0.00493157 0)
(-0.00237253 0.0107552 0)
(-0.00395403 0.0135284 0)
(-0.0046413 0.014429 0)
(-0.00415539 0.0143944 0)
(-0.00256497 0.0138555 0)
(0.000124414 0.0128394 0)
(0.00362588 0.0114519 0)
(0.00757915 0.0100082 0)
(0.0118747 0.00860755 0)
(0.0163722 0.00731283 0)
(0.020993 0.00615092 0)
(0.0256775 0.00511896 0)
(0.0303544 0.00419026 0)
(0.0348934 0.00331827 0)
(0.0390904 0.00243794 0)
(0.042246 0.00161831 0)
(0.04409 0.00097363 0)
(0.0449381 0.000423694 0)
(0.0450043 -0.000180878 0)
(0.0443803 -0.000971218 0)
(0.0430584 -0.0020732 0)
(0.0409627 -0.00364756 0)
(0.0379868 -0.00588043 0)
(0.0340297 -0.00898687 0)
(0.0290381 -0.0132409 0)
(0.0230465 -0.0190303 0)
(0.0162113 -0.0269191 0)
(0.00889478 -0.037496 0)
(0.00193716 -0.0498284 0)
(-0.00289742 -0.0551776 0)
(-0.0014295 -0.0340926 0)
(-0.000872598 0.00790423 0)
(-0.00403785 0.0139822 0)
(-0.00566336 0.0150583 0)
(-0.0057032 0.0142899 0)
(-0.00420697 0.0130566 0)
(-0.00146646 0.0117238 0)
(0.00255139 0.0102511 0)
(0.00710893 0.00883604 0)
(0.0120939 0.0075304 0)
(0.017351 0.0063403 0)
(0.0227458 0.00528098 0)
(0.0281918 0.0043553 0)
(0.0336175 0.00355265 0)
(0.0389414 0.00284997 0)
(0.0440317 0.0022124 0)
(0.0486918 0.00159512 0)
(0.0522118 0.00104186 0)
(0.0543482 0.000616439 0)
(0.0554488 0.000255185 0)
(0.0557589 -0.000143413 0)
(0.0553179 -0.0006667 0)
(0.0541272 -0.00140192 0)
(0.0521041 -0.00245913 0)
(0.0491252 -0.00396955 0)
(0.045055 -0.00609878 0)
(0.0397759 -0.00908908 0)
(0.0332199 -0.0133378 0)
(0.0254201 -0.019513 0)
(0.0166313 -0.0285877 0)
(0.00757174 -0.0409744 0)
(-0.000679567 -0.0515232 0)
(-0.00148577 -0.0380851 0)
(-0.0016165 0.0130148 0)
(-0.00550533 0.0172101 0)
(-0.00547679 0.0153632 0)
(-0.00322971 0.0128287 0)
(0.000613565 0.0105773 0)
(0.00540622 0.00873279 0)
(0.0108811 0.00719797 0)
(0.0167131 0.00593402 0)
(0.0227733 0.00487134 0)
(0.0289161 0.00396599 0)
(0.0350129 0.00319974 0)
(0.0409685 0.00255744 0)
(0.0467047 0.00202204 0)
(0.0521424 0.00157246 0)
(0.0571689 0.00118245 0)
(0.0616203 0.000823806 0)
(0.0648881 0.000516188 0)
(0.0668313 0.000284462 0)
(0.0678118 8.60186e-05 0)
(0.0680529 -0.000133749 0)
(0.0675926 -0.000424713 0)
(0.0664291 -0.000840599 0)
(0.0644757 -0.00144541 0)
(0.0616038 -0.00231655 0)
(0.0576618 -0.00355944 0)
(0.0524818 -0.00534919 0)
(0.045878 -0.00801729 0)
(0.0376644 -0.012208 0)
(0.0277709 -0.0190735 0)
(0.0164865 -0.0300319 0)
(0.00438555 -0.0434311 0)
(-0.000172383 -0.0395762 0)
(-0.00122957 0.0182828 0)
(-0.00299614 0.018167 0)
(0.00336919 0.0126304 0)
(0.0104927 0.00929386 0)
(0.0175357 0.00695275 0)
(0.0244173 0.00521202 0)
(0.0311892 0.00392992 0)
(0.0377622 0.00299421 0)
(0.0440873 0.00229157 0)
(0.0501019 0.00175174 0)
(0.055743 0.00133447 0)
(0.0609665 0.00101187 0)
(0.0657452 0.000762121 0)
(0.0700559 0.000566201 0)
(0.073853 0.000406033 0)
(0.0770503 0.000266853 0)
(0.0792722 0.000152361 0)
(0.0805009 6.66576e-05 0)
(0.0810321 -8.65818e-06 0)
(0.081004 -9.41646e-05 0)
(0.0804668 -0.00021145 0)
(0.0793922 -0.00038528 0)
(0.0776903 -0.000642996 0)
(0.0752411 -0.00101799 0)
(0.0719033 -0.00155937 0)
(0.0674989 -0.00236029 0)
(0.0617699 -0.00362571 0)
(0.0543086 -0.00581745 0)
(0.044496 -0.00991114 0)
(0.0315584 -0.0176053 0)
(0.0154723 -0.0297599 0)
(0.00630865 -0.0334399 0)
(0.0207938 0.0113541 0)
(0.0271765 0.00928139 0)
(0.0402336 0.00541776 0)
(0.0508581 0.00328641 0)
(0.058844 0.00205043 0)
(0.0651791 0.00126821 0)
(0.0703952 0.000779319 0)
(0.0747549 0.000483889 0)
(0.0784482 0.000304983 0)
(0.0816034 0.000195028 0)
(0.0843058 0.000126702 0)
(0.0866206 8.36382e-05 0)
(0.0886006 5.58729e-05 0)
(0.0902835 3.7147e-05 0)
(0.0916828 2.31171e-05 0)
(0.0927837 1.14881e-05 0)
(0.093476 2.12194e-06 0)
(0.0937865 -5.24379e-06 0)
(0.0938293 -1.23615e-05 0)
(0.0936544 -2.17058e-05 0)
(0.0932698 -3.64863e-05 0)
(0.0926363 -6.05137e-05 0)
(0.0916902 -9.75885e-05 0)
(0.0903569 -0.000152489 0)
(0.0885508 -0.000232919 0)
(0.0861525 -0.000355994 0)
(0.0829469 -0.000565701 0)
(0.078485 -0.000975211 0)
(0.0717965 -0.00186505 0)
(0.0608598 -0.0039814 0)
(0.0432779 -0.00919105 0)
(0.0285933 -0.0145294 0)
)
;

boundaryField
{
    movingWall
    {
        type            fixedValue;
        value           uniform (0.1 0 0);
    }
    fixedWalls
    {
        type            noSlip;
    }
    floor
    {
        type            noSlip;
    }
    frontAndBack
    {
        type            empty;
    }
}


// ************************************************************************* //
