/*--------------------------------*- C++ -*----------------------------------*\
| =========                 |                                                 |
| \\      /  F ield         | OpenFOAM: The Open Source CFD Toolbox           |
|  \\    /   O peration     | Version:  2212                                  |
|   \\  /    A nd           | Website:  www.openfoam.com                      |
|    \\/     M anipulation  |                                                 |
\*---------------------------------------------------------------------------*/
FoamFile
{
    version     2.0;
    format      ascii;
    arch        "LSB;label=64;scalar=64";
    class       volScalarField;
    location    "1100";
    object      Xli;
}
// * * * * * * * * * * * * * * * * * * * * * * * * * * * * * * * * * * * * * //

dimensions      [1 -3 0 0 0 0 0];

internalField   nonuniform List<scalar> 
1024
(
0.0423473
0.0423475
0.0423482
0.0423495
0.0423515
0.0423544
0.0423582
0.0423629
0.0423682
0.0423737
0.042379
0.0423837
0.0423872
0.0423889
0.042388
0.0423842
0.0423778
0.0423701
0.042362
0.0423537
0.042345
0.0423357
0.0423262
0.0423169
0.0423085
0.0423013
0.0422956
0.0422914
0.0422885
0.0422866
0.0422856
0.0422852
0.0423473
0.0423476
0.0423483
0.0423495
0.0423516
0.0423545
0.0423584
0.0423631
0.0423684
0.042374
0.0423793
0.042384
0.0423876
0.0423892
0.0423883
0.0423845
0.042378
0.0423703
0.0423623
0.042354
0.0423453
0.042336
0.0423265
0.0423173
0.0423088
0.0423015
0.0422958
0.0422915
0.0422886
0.0422867
0.0422857
0.0422853
0.0423473
0.0423476
0.0423483
0.0423497
0.0423518
0.0423548
0.0423588
0.0423636
0.042369
0.0423746
0.04238
0.0423848
0.0423885
0.0423901
0.0423891
0.0423852
0.0423786
0.0423708
0.0423628
0.0423545
0.0423459
0.0423367
0.0423273
0.042318
0.0423094
0.0423021
0.0422962
0.0422918
0.0422888
0.0422869
0.0422859
0.0422854
0.0423474
0.0423477
0.0423484
0.0423498
0.042352
0.0423552
0.0423592
0.0423642
0.0423697
0.0423754
0.0423811
0.0423862
0.0423901
0.0423917
0.0423905
0.0423862
0.0423794
0.0423715
0.0423634
0.0423552
0.0423467
0.0423377
0.0423283
0.0423191
0.0423104
0.0423029
0.0422968
0.0422923
0.0422892
0.0422872
0.0422861
0.0422857
0.0423475
0.0423478
0.0423486
0.04235
0.0423523
0.0423555
0.0423597
0.0423648
0.0423705
0.0423765
0.0423827
0.0423883
0.0423926
0.0423943
0.0423927
0.0423879
0.0423805
0.0423723
0.0423642
0.042356
0.0423476
0.0423388
0.0423296
0.0423203
0.0423116
0.042304
0.0422977
0.042293
0.0422897
0.0422876
0.0422865
0.042286
0.0423476
0.0423479
0.0423487
0.0423502
0.0423524
0.0423557
0.04236
0.0423653
0.0423713
0.0423779
0.0423848
0.0423913
0.0423963
0.042398
0.0423959
0.0423901
0.042382
0.0423732
0.0423648
0.0423566
0.0423484
0.0423397
0.0423307
0.0423216
0.0423129
0.0423051
0.0422986
0.0422937
0.0422903
0.0422881
0.0422869
0.0422864
0.0423478
0.0423481
0.0423488
0.0423503
0.0423525
0.0423558
0.0423602
0.0423656
0.0423721
0.0423795
0.0423875
0.0423954
0.0424014
0.0424032
0.0424003
0.0423931
0.0423836
0.0423741
0.0423652
0.0423569
0.0423487
0.0423403
0.0423315
0.0423226
0.0423139
0.0423061
0.0422995
0.0422945
0.0422909
0.0422886
0.0422874
0.0422869
0.0423481
0.0423484
0.0423491
0.0423504
0.0423526
0.0423558
0.0423602
0.042366
0.0423731
0.0423816
0.0423912
0.0424008
0.042408
0.0424101
0.042406
0.0423969
0.0423856
0.0423747
0.0423651
0.0423564
0.0423481
0.0423399
0.0423314
0.0423228
0.0423143
0.0423066
0.0423
0.0422949
0.0422913
0.042289
0.0422878
0.0422872
0.0423491
0.0423493
0.0423499
0.042351
0.042353
0.0423561
0.0423605
0.0423666
0.0423746
0.0423846
0.0423963
0.042408
0.0424166
0.0424187
0.0424131
0.0424016
0.0423878
0.0423752
0.0423644
0.0423549
0.0423464
0.0423382
0.04233
0.0423218
0.0423136
0.0423062
0.0422998
0.0422949
0.0422913
0.0422891
0.0422878
0.0422873
0.0423517
0.0423518
0.0423522
0.0423531
0.0423549
0.0423578
0.0423623
0.0423689
0.042378
0.0423899
0.0424039
0.0424178
0.0424277
0.0424294
0.0424218
0.0424074
0.0423909
0.0423759
0.0423634
0.0423527
0.0423435
0.042335
0.042327
0.0423191
0.0423115
0.0423045
0.0422986
0.042294
0.0422907
0.0422885
0.0422873
0.0422868
0.0423584
0.0423584
0.0423585
0.0423592
0.0423607
0.0423635
0.0423683
0.0423756
0.0423861
0.0423999
0.042416
0.0424317
0.0424421
0.0424426
0.0424326
0.0424152
0.042396
0.0423785
0.0423634
0.0423505
0.0423397
0.0423305
0.0423222
0.0423146
0.0423076
0.0423013
0.0422961
0.042292
0.042289
0.0422871
0.0422859
0.0422855
0.0423734
0.0423733
0.0423734
0.0423739
0.0423753
0.0423783
0.0423835
0.0423916
0.0424034
0.0424185
0.0424357
0.0424516
0.042461
0.0424595
0.0424471
0.0424278
0.0424069
0.0423867
0.042368
0.0423513
0.0423373
0.0423258
0.0423165
0.0423087
0.0423021
0.0422966
0.0422921
0.0422887
0.0422863
0.0422847
0.0422838
0.0422834
0.0424018
0.0424019
0.0424021
0.0424029
0.0424047
0.0424081
0.0424139
0.0424225
0.0424345
0.0424495
0.0424657
0.0424796
0.0424863
0.0424827
0.0424698
0.042452
0.042432
0.04241
0.0423865
0.0423636
0.0423432
0.0423266
0.0423137
0.0423041
0.0422969
0.0422918
0.0422881
0.0422856
0.0422841
0.0422834
0.0422831
0.0422831
0.0424459
0.0424462
0.042447
0.0424485
0.042451
0.042455
0.042461
0.0424694
0.0424804
0.0424934
0.0425067
0.0425172
0.0425217
0.0425193
0.0425121
0.0425028
0.04249
0.04247
0.0424428
0.0424121
0.0423816
0.0423546
0.0423326
0.0423163
0.0423051
0.0422982
0.0422948
0.0422939
0.0422946
0.0422961
0.0422975
0.0422984
0.0424992
0.0424998
0.0425011
0.0425033
0.0425065
0.0425111
0.0425174
0.0425256
0.042536
0.0425478
0.0425599
0.0425706
0.0425796
0.0425882
0.0425984
0.0426096
0.042616
0.0426101
0.0425906
0.0425611
0.0425257
0.0424886
0.0424534
0.0424236
0.0424004
0.0423846
0.0423761
0.0423735
0.042375
0.0423783
0.0423815
0.0423833
0.0425495
0.0425502
0.0425518
0.0425547
0.0425592
0.0425657
0.0425748
0.0425867
0.0426017
0.0426193
0.0426393
0.0426619
0.0426886
0.0427212
0.0427604
0.0428048
0.0428469
0.0428758
0.0428879
0.0428855
0.0428707
0.0428464
0.0428156
0.0427817
0.0427471
0.042715
0.0426882
0.0426685
0.0426563
0.0426502
0.0426483
0.0426482
0.042587
0.0425877
0.0425896
0.0425934
0.0425998
0.0426096
0.0426237
0.0426425
0.0426665
0.0426958
0.0427307
0.0427717
0.0428199
0.042876
0.0429402
0.043011
0.0430805
0.0431376
0.0431805
0.0432123
0.0432332
0.0432433
0.0432425
0.0432312
0.0432107
0.0431834
0.0431528
0.0431228
0.0430974
0.0430791
0.0430685
0.0430643
0.0426113
0.042612
0.042614
0.0426182
0.0426254
0.0426369
0.0426539
0.0426772
0.0427074
0.0427445
0.0427885
0.0428391
0.0428962
0.042959
0.0430257
0.043093
0.0431528
0.0431994
0.0432378
0.0432735
0.0433072
0.0433378
0.0433636
0.0433823
0.0433927
0.0433942
0.0433877
0.0433753
0.0433607
0.0433474
0.0433381
0.0433337
0.0426271
0.0426278
0.0426297
0.0426338
0.042641
0.0426526
0.0426699
0.042694
0.0427256
0.0427647
0.0428108
0.042863
0.04292
0.0429796
0.0430387
0.0430927
0.0431339
0.0431622
0.0431878
0.0432172
0.0432516
0.0432894
0.0433274
0.0433621
0.0433908
0.043412
0.043425
0.0434309
0.0434312
0.0434285
0.0434254
0.0434234
0.0426376
0.0426382
0.04264
0.0426437
0.0426502
0.0426609
0.042677
0.0426997
0.0427297
0.0427671
0.0428112
0.0428605
0.0429133
0.042967
0.0430179
0.0430614
0.0430912
0.0431101
0.0431296
0.0431566
0.0431927
0.0432368
0.0432849
0.043332
0.0433737
0.0434069
0.0434304
0.0434449
0.0434521
0.0434544
0.0434543
0.0434536
0.0426452
0.0426457
0.0426472
0.0426503
0.0426559
0.0426652
0.0426794
0.0426996
0.0427265
0.0427602
0.0428
0.0428446
0.0428919
0.0429395
0.0429843
0.0430223
0.0430488
0.0430671
0.0430869
0.043114
0.0431508
0.0431971
0.0432501
0.0433051
0.0433567
0.0434003
0.0434331
0.0434548
0.043467
0.0434723
0.0434736
0.0434734
0.0426529
0.0426531
0.042654
0.0426562
0.0426605
0.0426681
0.04268
0.0426973
0.0427207
0.0427501
0.0427851
0.0428244
0.0428665
0.0429093
0.0429506
0.0429875
0.0430164
0.0430397
0.0430636
0.043093
0.0431304
0.0431764
0.0432299
0.0432873
0.0433439
0.0433943
0.0434346
0.0434629
0.0434799
0.0434881
0.0434906
0.0434908
0.0426642
0.042664
0.0426639
0.0426647
0.0426672
0.0426727
0.0426821
0.0426965
0.0427165
0.0427421
0.042773
0.0428083
0.0428467
0.042887
0.0429274
0.0429664
0.043001
0.0430312
0.0430603
0.0430924
0.0431301
0.0431746
0.0432258
0.0432816
0.0433386
0.0433918
0.0434367
0.0434701
0.0434914
0.0435024
0.0435064
0.0435068
0.0426838
0.0426827
0.0426811
0.0426798
0.04268
0.042683
0.0426901
0.0427022
0.0427198
0.0427432
0.0427719
0.0428053
0.0428424
0.0428824
0.042924
0.0429667
0.0430074
0.0430436
0.0430769
0.0431106
0.0431474
0.043189
0.0432361
0.0432879
0.0433418
0.0433941
0.0434405
0.043477
0.0435018
0.0435154
0.0435208
0.0435216
0.0427158
0.0427137
0.0427101
0.0427064
0.0427042
0.042705
0.0427105
0.0427216
0.0427388
0.0427621
0.0427909
0.0428247
0.0428625
0.0429035
0.0429469
0.0429926
0.0430374
0.043077
0.043112
0.0431454
0.0431797
0.0432172
0.0432588
0.0433046
0.0433532
0.0434018
0.0434469
0.0434844
0.0435113
0.0435272
0.0435339
0.0435352
0.0427637
0.0427603
0.0427548
0.0427491
0.0427455
0.0427458
0.0427515
0.0427638
0.0427826
0.0428076
0.0428381
0.0428732
0.0429119
0.0429536
0.0429976
0.0430439
0.0430894
0.043129
0.0431628
0.0431938
0.0432245
0.0432566
0.0432918
0.0433305
0.0433721
0.0434151
0.0434565
0.0434927
0.0435204
0.0435378
0.0435458
0.0435476
0.0428295
0.0428248
0.0428181
0.0428124
0.0428099
0.0428123
0.0428209
0.0428361
0.0428577
0.0428849
0.0429166
0.0429521
0.0429902
0.0430305
0.0430724
0.0431161
0.0431586
0.043195
0.0432255
0.0432525
0.0432783
0.0433048
0.0433331
0.0433641
0.043398
0.0434338
0.0434697
0.0435027
0.0435295
0.0435475
0.0435564
0.0435587
0.0429144
0.0429088
0.0429031
0.0429005
0.0429025
0.0429097
0.0429226
0.0429411
0.0429646
0.0429922
0.0430231
0.0430564
0.0430914
0.0431275
0.0431644
0.0432024
0.043239
0.0432699
0.0432953
0.0433174
0.043338
0.0433586
0.0433802
0.0434038
0.0434297
0.0434577
0.0434868
0.0435149
0.0435391
0.0435565
0.0435659
0.0435686
0.0430197
0.0430147
0.043013
0.0430168
0.0430253
0.0430379
0.0430543
0.0430741
0.0430968
0.0431219
0.043149
0.0431772
0.0432063
0.0432357
0.0432655
0.0432956
0.0433244
0.0433485
0.043368
0.0433848
0.0434001
0.0434151
0.0434307
0.0434475
0.0434659
0.0434861
0.0435078
0.0435297
0.0435498
0.0435653
0.0435744
0.0435774
0.0431482
0.0431461
0.0431515
0.0431622
0.0431756
0.0431906
0.043207
0.0432245
0.0432432
0.0432629
0.0432834
0.0433044
0.0433256
0.0433469
0.0433681
0.0433894
0.0434095
0.0434263
0.0434399
0.0434513
0.0434617
0.0434716
0.0434818
0.0434927
0.0435046
0.0435177
0.0435321
0.0435473
0.043562
0.0435742
0.043582
0.0435849
0.043305
0.0433086
0.0433194
0.0433316
0.0433439
0.043356
0.0433679
0.0433798
0.0433918
0.043404
0.0434165
0.043429
0.0434416
0.0434541
0.0434665
0.0434789
0.0434905
0.0435002
0.0435079
0.0435144
0.0435202
0.0435258
0.0435314
0.0435373
0.0435438
0.0435509
0.0435588
0.0435674
0.043576
0.0435837
0.0435891
0.0435915
0.0434964
0.0434993
0.0435049
0.0435103
0.0435153
0.0435199
0.0435242
0.0435284
0.0435325
0.0435366
0.0435407
0.0435448
0.0435489
0.043553
0.043557
0.0435609
0.0435647
0.0435678
0.0435703
0.0435723
0.0435742
0.0435759
0.0435777
0.0435795
0.0435815
0.0435838
0.0435862
0.0435889
0.0435916
0.0435942
0.0435961
0.0435971
)
;

boundaryField
{
    movingWall
    {
        type            fixedValue;
        value           uniform 0.0436;
    }
    fixedWalls
    {
        type            zeroGradient;
    }
    floor
    {
        type            zeroGradient;
    }
    frontAndBack
    {
        type            empty;
    }
}


// ************************************************************************* //
