/*--------------------------------*- C++ -*----------------------------------*\
| =========                 |                                                 |
| \\      /  F ield         | OpenFOAM: The Open Source CFD Toolbox           |
|  \\    /   O peration     | Version:  2212                                  |
|   \\  /    A nd           | Website:  www.openfoam.com                      |
|    \\/     M anipulation  |                                                 |
\*---------------------------------------------------------------------------*/
FoamFile
{
    version     2.0;
    format      ascii;
    arch        "LSB;label=64;scalar=64";
    class       volScalarField;
    location    "1100";
    object      Xpr;
}
// * * * * * * * * * * * * * * * * * * * * * * * * * * * * * * * * * * * * * //

dimensions      [1 -3 0 0 0 0 0];

internalField   nonuniform List<scalar> 
1024
(
0.0817355
0.081736
0.0817374
0.0817399
0.0817438
0.0817495
0.081757
0.0817662
0.0817766
0.0817874
0.0817979
0.0818072
0.0818141
0.0818173
0.0818156
0.0818082
0.0817955
0.0817803
0.0817646
0.0817482
0.081731
0.0817127
0.081694
0.0816758
0.0816592
0.081645
0.0816338
0.0816255
0.0816198
0.0816162
0.0816142
0.0816134
0.0817355
0.0817361
0.0817374
0.08174
0.081744
0.0817498
0.0817574
0.0817667
0.0817771
0.081788
0.0817985
0.0818078
0.0818148
0.081818
0.0818163
0.0818088
0.081796
0.0817808
0.0817651
0.0817487
0.0817316
0.0817134
0.0816947
0.0816765
0.0816598
0.0816455
0.0816342
0.0816258
0.08162
0.0816164
0.0816144
0.0816135
0.0817356
0.0817361
0.0817376
0.0817402
0.0817444
0.0817503
0.0817582
0.0817676
0.0817782
0.0817892
0.0817999
0.0818094
0.0818166
0.0818197
0.0818178
0.08181
0.081797
0.0817817
0.081766
0.0817498
0.0817327
0.0817147
0.0816962
0.0816779
0.0816611
0.0816466
0.081635
0.0816264
0.0816205
0.0816167
0.0816147
0.0816138
0.0817357
0.0817363
0.0817378
0.0817405
0.0817449
0.081751
0.0817591
0.0817687
0.0817796
0.0817909
0.081802
0.0818121
0.0818197
0.0818229
0.0818205
0.0818122
0.0817987
0.0817831
0.0817673
0.0817512
0.0817344
0.0817166
0.0816982
0.08168
0.081663
0.0816482
0.0816363
0.0816274
0.0816212
0.0816173
0.0816152
0.0816143
0.0817359
0.0817365
0.081738
0.0817409
0.0817453
0.0817517
0.0817599
0.0817699
0.0817812
0.0817931
0.0818051
0.0818163
0.0818247
0.0818279
0.0818249
0.0818154
0.0818009
0.0817848
0.0817688
0.0817527
0.0817362
0.0817188
0.0817007
0.0816825
0.0816654
0.0816503
0.081638
0.0816287
0.0816222
0.0816181
0.0816159
0.081615
0.0817361
0.0817367
0.0817383
0.0817412
0.0817457
0.0817521
0.0817606
0.0817709
0.0817828
0.0817957
0.0818093
0.0818222
0.0818319
0.0818354
0.0818312
0.0818199
0.0818037
0.0817866
0.0817701
0.0817539
0.0817377
0.0817207
0.081703
0.0816851
0.0816679
0.0816525
0.0816398
0.0816302
0.0816234
0.0816191
0.0816168
0.0816158
0.0817364
0.0817371
0.0817386
0.0817414
0.0817458
0.0817523
0.0817609
0.0817716
0.0817844
0.0817989
0.0818147
0.0818302
0.0818419
0.0818456
0.0818398
0.0818257
0.0818071
0.0817882
0.0817708
0.0817544
0.0817382
0.0817217
0.0817045
0.0816869
0.0816699
0.0816544
0.0816415
0.0816316
0.0816246
0.0816202
0.0816177
0.0816167
0.0817372
0.0817377
0.0817391
0.0817417
0.0817459
0.0817522
0.0817609
0.0817722
0.0817863
0.081803
0.0818219
0.0818408
0.0818551
0.0818591
0.081851
0.0818332
0.0818109
0.0817894
0.0817705
0.0817534
0.0817371
0.081721
0.0817043
0.0816873
0.0816707
0.0816554
0.0816425
0.0816325
0.0816254
0.0816209
0.0816184
0.0816174
0.081739
0.0817395
0.0817406
0.0817429
0.0817468
0.0817528
0.0817616
0.0817736
0.0817893
0.0818089
0.0818319
0.081855
0.081872
0.081876
0.081865
0.0818423
0.0818153
0.0817904
0.0817691
0.0817506
0.0817338
0.0817177
0.0817016
0.0816853
0.0816693
0.0816546
0.0816421
0.0816324
0.0816254
0.081621
0.0816185
0.0816175
0.0817442
0.0817444
0.0817452
0.081747
0.0817504
0.0817562
0.0817651
0.0817781
0.081796
0.0818193
0.0818468
0.0818743
0.0818937
0.0818971
0.081882
0.0818537
0.0818212
0.0817919
0.0817672
0.0817462
0.081728
0.0817114
0.0816956
0.0816801
0.0816651
0.0816514
0.0816397
0.0816306
0.0816241
0.0816199
0.0816175
0.0816165
0.0817574
0.0817573
0.0817577
0.0817589
0.0817619
0.0817675
0.0817769
0.0817913
0.0818119
0.081839
0.0818708
0.0819016
0.081922
0.0819231
0.0819033
0.0818692
0.0818313
0.0817969
0.0817672
0.0817419
0.0817206
0.0817024
0.0816862
0.0816713
0.0816575
0.0816451
0.0816348
0.0816267
0.0816209
0.081617
0.0816149
0.0816139
0.0817868
0.0817867
0.0817868
0.0817878
0.0817906
0.0817965
0.0818067
0.0818228
0.0818458
0.0818756
0.0819096
0.0819408
0.0819592
0.0819563
0.0819318
0.081894
0.0818527
0.081813
0.0817762
0.0817435
0.0817159
0.0816934
0.081675
0.0816597
0.0816467
0.0816358
0.081627
0.0816203
0.0816156
0.0816124
0.0816107
0.0816099
0.0818428
0.0818429
0.0818434
0.081845
0.0818485
0.0818552
0.0818665
0.0818836
0.0819072
0.0819366
0.0819685
0.0819958
0.082009
0.0820018
0.0819766
0.0819415
0.0819023
0.0818589
0.0818127
0.0817676
0.0817276
0.0816948
0.0816695
0.0816505
0.0816365
0.0816263
0.081619
0.0816141
0.0816112
0.0816098
0.0816092
0.0816092
0.0819295
0.0819301
0.0819317
0.0819346
0.0819396
0.0819475
0.0819593
0.0819758
0.0819974
0.082023
0.0820491
0.0820699
0.0820787
0.0820739
0.0820598
0.0820415
0.0820164
0.0819769
0.0819235
0.081863
0.0818031
0.0817499
0.0817067
0.0816745
0.0816525
0.081639
0.0816323
0.0816306
0.081632
0.0816348
0.0816376
0.0816393
0.0820344
0.0820356
0.0820381
0.0820424
0.0820488
0.0820578
0.0820701
0.0820864
0.0821067
0.08213
0.0821537
0.0821748
0.0821925
0.0822096
0.0822295
0.0822516
0.0822642
0.0822525
0.0822143
0.0821562
0.0820866
0.0820135
0.0819444
0.0818857
0.08184
0.0818089
0.0817921
0.0817872
0.0817901
0.0817965
0.0818027
0.0818064
0.0821333
0.0821346
0.0821378
0.0821435
0.0821523
0.0821652
0.0821831
0.0822066
0.082236
0.0822706
0.08231
0.0823545
0.0824071
0.0824711
0.0825482
0.0826356
0.0827184
0.0827752
0.082799
0.0827944
0.0827653
0.0827175
0.0826569
0.0825901
0.082522
0.0824589
0.0824061
0.0823674
0.0823434
0.0823315
0.0823277
0.0823274
0.0822071
0.0822085
0.0822123
0.0822197
0.0822323
0.0822516
0.0822793
0.0823164
0.0823636
0.0824212
0.0824898
0.0825705
0.0826652
0.0827758
0.082902
0.0830412
0.0831779
0.0832903
0.0833748
0.0834373
0.0834784
0.0834983
0.0834967
0.0834744
0.0834341
0.0833805
0.0833202
0.0832612
0.0832111
0.0831752
0.0831544
0.0831462
0.0822549
0.0822563
0.0822603
0.0822684
0.0822827
0.0823054
0.0823388
0.0823846
0.082444
0.082517
0.0826034
0.082703
0.0828154
0.082939
0.0830702
0.0832026
0.0833202
0.0834118
0.0834875
0.0835576
0.0836239
0.0836843
0.0837349
0.0837718
0.0837922
0.0837951
0.0837823
0.083758
0.0837292
0.083703
0.0836847
0.0836761
0.082286
0.0822873
0.0822912
0.0822992
0.0823133
0.0823361
0.0823701
0.0824176
0.0824797
0.0825567
0.0826474
0.0827501
0.0828622
0.0829795
0.0830958
0.083202
0.0832831
0.0833386
0.083389
0.0834469
0.0835146
0.083589
0.0836637
0.083732
0.0837885
0.0838301
0.0838558
0.0838672
0.0838679
0.0838627
0.0838564
0.0838526
0.0823066
0.0823079
0.0823114
0.0823186
0.0823315
0.0823525
0.0823842
0.0824289
0.0824879
0.0825615
0.0826481
0.0827452
0.0828491
0.0829547
0.0830549
0.0831405
0.083199
0.0832363
0.0832746
0.0833276
0.0833988
0.0834854
0.08358
0.0836728
0.0837549
0.0838201
0.0838664
0.0838949
0.083909
0.0839136
0.0839133
0.0839121
0.0823217
0.0823227
0.0823256
0.0823316
0.0823427
0.082361
0.0823889
0.0824286
0.0824816
0.0825479
0.0826262
0.0827138
0.0828069
0.0829007
0.0829887
0.0830635
0.0831155
0.0831517
0.0831906
0.0832439
0.0833163
0.0834074
0.0835117
0.0836198
0.0837213
0.083807
0.0838716
0.0839144
0.0839384
0.0839488
0.0839513
0.0839509
0.0823367
0.0823372
0.0823389
0.0823432
0.0823518
0.0823667
0.0823902
0.0824242
0.0824701
0.082528
0.0825968
0.0826741
0.0827569
0.0828413
0.0829224
0.082995
0.083052
0.0830978
0.0831448
0.0832026
0.0832761
0.0833667
0.0834718
0.0835848
0.0836962
0.0837954
0.0838745
0.0839302
0.0839637
0.0839798
0.0839849
0.0839851
0.082359
0.0823586
0.0823584
0.0823599
0.0823649
0.0823756
0.0823943
0.0824226
0.0824619
0.0825123
0.082573
0.0826424
0.0827181
0.0827972
0.0828767
0.0829535
0.0830216
0.0830809
0.0831383
0.0832015
0.0832755
0.083363
0.0834637
0.0835737
0.0836857
0.0837904
0.0838787
0.0839444
0.0839863
0.084008
0.0840158
0.0840167
0.0823975
0.0823955
0.0823923
0.0823898
0.0823901
0.0823961
0.08241
0.0824337
0.0824685
0.0825144
0.0825708
0.0826365
0.0827096
0.0827882
0.0828702
0.0829541
0.0830342
0.0831054
0.0831709
0.0832372
0.0833095
0.0833914
0.0834842
0.083586
0.0836921
0.083795
0.0838862
0.0839581
0.0840068
0.0840336
0.0840441
0.0840458
0.0824605
0.0824563
0.0824494
0.0824421
0.0824376
0.0824393
0.0824501
0.082472
0.0825058
0.0825515
0.0826083
0.0826747
0.082749
0.0828297
0.0829152
0.0830051
0.0830932
0.0831712
0.0832399
0.0833056
0.0833732
0.0834468
0.0835287
0.0836189
0.0837145
0.0838102
0.0838988
0.0839725
0.0840256
0.0840568
0.08407
0.0840726
0.0825547
0.082548
0.0825372
0.0825261
0.0825189
0.0825194
0.0825308
0.0825549
0.0825919
0.0826412
0.0827011
0.0827701
0.0828464
0.0829283
0.0830148
0.083106
0.0831954
0.0832734
0.08334
0.083401
0.0834612
0.0835245
0.0835937
0.0836698
0.0837517
0.0838362
0.0839176
0.083989
0.0840435
0.0840777
0.0840934
0.0840969
0.0826841
0.0826749
0.0826618
0.0826506
0.0826457
0.0826504
0.0826673
0.0826973
0.0827397
0.0827931
0.0828556
0.0829253
0.0830004
0.0830796
0.083162
0.083248
0.0833316
0.0834033
0.0834632
0.0835163
0.0835672
0.0836192
0.0836749
0.083736
0.0838025
0.0838729
0.0839436
0.0840086
0.0840613
0.0840967
0.0841143
0.0841188
0.0828511
0.0828403
0.082829
0.0828238
0.0828278
0.082842
0.0828674
0.0829038
0.08295
0.0830043
0.0830651
0.0831306
0.0831994
0.0832704
0.0833431
0.0834178
0.0834897
0.0835507
0.0836006
0.083644
0.0836846
0.083725
0.0837677
0.0838141
0.083865
0.08392
0.0839772
0.0840326
0.0840802
0.0841145
0.0841329
0.0841383
0.0830584
0.0830485
0.0830452
0.0830526
0.0830695
0.0830943
0.0831264
0.0831654
0.08321
0.0832595
0.0833127
0.0833683
0.0834254
0.0834834
0.0835419
0.0836012
0.0836578
0.0837052
0.0837437
0.0837766
0.0838068
0.0838363
0.0838669
0.0838999
0.0839361
0.0839759
0.0840185
0.0840618
0.0841012
0.0841317
0.0841496
0.0841555
0.0833111
0.0833071
0.0833177
0.0833387
0.0833651
0.0833947
0.0834268
0.0834613
0.083498
0.0835368
0.0835771
0.0836185
0.0836602
0.083702
0.0837437
0.0837857
0.0838253
0.0838584
0.083885
0.0839075
0.0839278
0.0839474
0.0839675
0.0839889
0.0840123
0.0840381
0.0840665
0.0840963
0.0841252
0.0841492
0.0841646
0.0841704
0.0836195
0.0836267
0.0836479
0.0836719
0.0836962
0.08372
0.0837434
0.0837668
0.0837903
0.0838144
0.0838389
0.0838637
0.0838884
0.083913
0.0839374
0.0839617
0.0839846
0.0840036
0.0840188
0.0840317
0.0840431
0.084054
0.084065
0.0840767
0.0840894
0.0841035
0.084119
0.0841358
0.0841528
0.084168
0.0841786
0.0841832
0.0839962
0.0840019
0.084013
0.0840235
0.0840333
0.0840424
0.0840509
0.0840591
0.0840671
0.0840752
0.0840833
0.0840914
0.0840995
0.0841074
0.0841153
0.0841232
0.0841305
0.0841366
0.0841415
0.0841456
0.0841492
0.0841527
0.0841561
0.0841598
0.0841637
0.084168
0.0841728
0.0841781
0.0841835
0.0841886
0.0841924
0.0841943
)
;

boundaryField
{
    movingWall
    {
        type            fixedValue;
        value           uniform 0.0842;
    }
    fixedWalls
    {
        type            zeroGradient;
    }
    floor
    {
        type            zeroGradient;
    }
    frontAndBack
    {
        type            empty;
    }
}


// ************************************************************************* //
