/*--------------------------------*- C++ -*----------------------------------*\
| =========                 |                                                 |
| \\      /  F ield         | OpenFOAM: The Open Source CFD Toolbox           |
|  \\    /   O peration     | Version:  2206                                  |
|   \\  /    A nd           | Website:  www.openfoam.com                      |
|    \\/     M anipulation  |                                                 |
\*---------------------------------------------------------------------------*/
FoamFile
{
    version     2.0;
    format      ascii;
    arch        "LSB;label=64;scalar=64";
    class       volVectorField;
    location    "126000";
    object      U;
}
// * * * * * * * * * * * * * * * * * * * * * * * * * * * * * * * * * * * * * //

dimensions      [0 1 -1 0 0 0 0];

internalField   nonuniform List<vector> 
16
(
(4.55953e-08 -4.71465e-08 0)
(8.28267e-08 -3.02735e-08 0)
(1.14159e-07 2.29871e-08 0)
(7.2952e-08 5.39401e-08 0)
(3.12263e-08 -8.02667e-08 0)
(-5.94999e-08 -3.5734e-08 0)
(-2.67178e-08 -1.75353e-08 0)
(5.70873e-08 1.3471e-07 0)
(-1.96652e-08 -2.02994e-08 0)
(-6.10398e-08 2.86433e-08 0)
(-8.23483e-08 -9.41194e-08 0)
(-3.93351e-08 8.37477e-08 0)
(-5.52245e-08 6.58103e-10 0)
(3.65905e-08 2.43053e-08 0)
(-3.86581e-09 -3.76064e-08 0)
(-9.13325e-08 1.48264e-08 0)
)
;

boundaryField
{
    movingWall
    {
        type            noSlip;
    }
    fixedWalls
    {
        type            noSlip;
    }
    frontAndBack
    {
        type            empty;
    }
}


// ************************************************************************* //
