/*--------------------------------*- C++ -*----------------------------------*\
| =========                 |                                                 |
| \\      /  F ield         | OpenFOAM: The Open Source CFD Toolbox           |
|  \\    /   O peration     | Version:  2212                                  |
|   \\  /    A nd           | Website:  www.openfoam.com                      |
|    \\/     M anipulation  |                                                 |
\*---------------------------------------------------------------------------*/
FoamFile
{
    version     2.0;
    format      ascii;
    arch        "LSB;label=64;scalar=64";
    class       volScalarField::Internal;
    location    "1880";
    object      dGch4;
}
// * * * * * * * * * * * * * * * * * * * * * * * * * * * * * * * * * * * * * //

dimensions      [1 -3 -1 0 0 0 0];

value           nonuniform List<scalar> 
1024
(
0.0010193
0.00101959
0.00102029
0.00102157
0.00102365
0.00102678
0.00103122
0.00103719
0.00104485
0.00105416
0.00106487
0.00107647
0.00108832
0.00109975
0.00111021
0.00111922
0.00112565
0.00112855
0.00112825
0.00112536
0.00112045
0.00111413
0.0011071
0.00110009
0.0010937
0.00108834
0.00108418
0.00108115
0.0010791
0.00107783
0.00107714
0.00107686
0.00101939
0.00101968
0.00102039
0.00102168
0.00102378
0.00102694
0.00103142
0.00103745
0.00104516
0.00105452
0.00106527
0.0010769
0.00108876
0.00110019
0.00111065
0.00111966
0.00112611
0.00112903
0.00112876
0.00112588
0.00112095
0.00111461
0.00110755
0.00110049
0.00109404
0.00108863
0.0010844
0.00108134
0.00107927
0.00107798
0.00107728
0.001077
0.00101962
0.00101991
0.00102063
0.00102195
0.00102409
0.00102732
0.00103189
0.00103803
0.00104587
0.00105535
0.00106619
0.00107788
0.00108976
0.00110119
0.00111165
0.00112069
0.0011272
0.00113021
0.00113
0.00112714
0.00112216
0.00111571
0.00110854
0.00110135
0.00109477
0.00108923
0.00108491
0.00108177
0.00107966
0.00107835
0.00107763
0.00107735
0.00102001
0.00102031
0.00102106
0.00102242
0.00102464
0.00102798
0.0010327
0.00103902
0.00104707
0.00105674
0.00106774
0.00107952
0.00109144
0.00110287
0.00111335
0.00112247
0.00112915
0.00113237
0.00113229
0.00112943
0.00112429
0.0011176
0.00111016
0.00110273
0.00109594
0.00109022
0.00108576
0.00108252
0.00108034
0.001079
0.00107828
0.00107799
0.00102064
0.00102096
0.00102173
0.00102316
0.00102549
0.00102898
0.00103392
0.00104051
0.00104885
0.0010588
0.00107
0.00108191
0.00109388
0.00110534
0.00111588
0.0011252
0.00113221
0.00113582
0.00113599
0.0011331
0.00112766
0.00112051
0.00111259
0.00110474
0.00109762
0.00109165
0.001087
0.00108365
0.00108142
0.00108005
0.00107933
0.00107904
0.00102156
0.00102189
0.0010227
0.00102422
0.00102668
0.00103039
0.00103562
0.00104257
0.00105128
0.00106158
0.00107305
0.00108512
0.00109717
0.0011087
0.00111941
0.00112908
0.00113668
0.00114092
0.00114148
0.00113856
0.00113264
0.00112475
0.00111605
0.00110755
0.00109994
0.00109364
0.00108879
0.00108533
0.00108305
0.00108168
0.00108096
0.00108069
0.0010228
0.00102315
0.00102402
0.00102563
0.00102827
0.00103224
0.00103783
0.0010452
0.00105437
0.00106509
0.00107689
0.00108916
0.00110134
0.00111302
0.00112404
0.0011343
0.00114281
0.00114799
0.00114911
0.00114619
0.00113968
0.00113078
0.00112099
0.00111153
0.00110323
0.00109648
0.00109139
0.00108782
0.00108552
0.00108418
0.0010835
0.00108325
0.0010244
0.00102477
0.0010257
0.00102743
0.00103027
0.00103454
0.00104054
0.00104841
0.0010581
0.0010693
0.00108147
0.00109399
0.00110637
0.00111833
0.00112984
0.00114097
0.00115071
0.00115716
0.00115911
0.00115634
0.00114929
0.00113929
0.00112813
0.0011174
0.00110814
0.00110079
0.00109538
0.0010917
0.0010894
0.00108811
0.0010875
0.00108729
0.00102637
0.00102676
0.00102774
0.00102959
0.00103264
0.00103724
0.00104368
0.00105208
0.00106233
0.00107405
0.00108664
0.00109949
0.00111217
0.00112454
0.00113674
0.00114896
0.00116022
0.00116824
0.00117141
0.00116925
0.00116207
0.00115122
0.00113871
0.00112649
0.00111598
0.00110779
0.00110192
0.00109805
0.00109573
0.00109451
0.00109397
0.00109381
0.00102866
0.00102906
0.0010301
0.00103207
0.00103533
0.00104025
0.00104712
0.00105605
0.00106688
0.00107914
0.00109219
0.00110543
0.00111849
0.00113136
0.00114433
0.00115773
0.00117062
0.00118051
0.00118549
0.00118483
0.00117855
0.00116777
0.0011545
0.00114098
0.00112904
0.00111968
0.00111306
0.00110881
0.00110634
0.0011051
0.0011046
0.00110448
0.00103121
0.00103162
0.0010327
0.00103477
0.00103821
0.0010434
0.00105066
0.00106008
0.00107145
0.00108424
0.00109776
0.00111139
0.00112483
0.00113815
0.00115174
0.00116608
0.00118043
0.00119243
0.00120004
0.00120225
0.0011986
0.0011897
0.00117721
0.00116339
0.00115039
0.0011397
0.00113193
0.00112687
0.00112393
0.00112245
0.00112186
0.00112171
0.00103389
0.00103432
0.00103543
0.00103756
0.00104112
0.00104652
0.00105407
0.00106387
0.00107567
0.00108889
0.0011028
0.00111671
0.00113032
0.00114375
0.00115742
0.00117201
0.00118725
0.00120138
0.00121248
0.00121913
0.00122026
0.00121577
0.00120663
0.00119467
0.00118204
0.00117062
0.0011616
0.00115531
0.00115142
0.00114933
0.0011484
0.00114812
0.00103656
0.00103699
0.0010381
0.00104026
0.00104386
0.00104933
0.00105702
0.001067
0.00107902
0.00109246
0.0011065
0.00112037
0.00113368
0.00114647
0.00115922
0.00117283
0.00118787
0.00120373
0.00121872
0.00123095
0.00123868
0.001241
0.00123806
0.00123094
0.00122132
0.00121109
0.00120185
0.00119462
0.00118966
0.00118669
0.00118521
0.00118468
0.00103898
0.00103941
0.00104051
0.00104262
0.00104615
0.00105154
0.00105911
0.00106897
0.00108087
0.00109414
0.00110785
0.00112112
0.00113334
0.00114444
0.00115484
0.00116579
0.00117903
0.0011956
0.00121411
0.00123213
0.00124717
0.00125758
0.00126272
0.00126288
0.00125909
0.00125283
0.00124572
0.00123916
0.00123402
0.00123057
0.00122865
0.00122789
0.00104084
0.00104126
0.00104232
0.00104433
0.00104767
0.00105275
0.0010599
0.00106923
0.0010805
0.00109303
0.00110581
0.00111774
0.001128
0.00113625
0.00114286
0.00114939
0.00115896
0.00117468
0.00119565
0.00121889
0.0012411
0.00125973
0.0012734
0.00128176
0.00128526
0.00128494
0.00128215
0.00127829
0.00127454
0.00127164
0.00126983
0.00126905
0.00104171
0.00104211
0.00104311
0.00104495
0.00104797
0.00105251
0.00105888
0.00106721
0.00107727
0.00108842
0.00109961
0.00110959
0.00111726
0.00112198
0.00112396
0.00112491
0.00112917
0.00114213
0.00116389
0.00119134
0.00122038
0.00124735
0.00126979
0.00128653
0.00129756
0.00130359
0.00130579
0.00130553
0.00130409
0.00130246
0.00130123
0.00130063
0.00104106
0.00104145
0.00104237
0.00104403
0.00104667
0.00105057
0.00105597
0.00106299
0.00107147
0.00108084
0.0010901
0.00109799
0.00110323
0.00110492
0.00110297
0.00109894
0.00109767
0.00110617
0.00112613
0.00115536
0.00118974
0.00122465
0.00125615
0.00128177
0.00130062
0.00131302
0.00132007
0.00132322
0.00132396
0.00132355
0.00132289
0.00132247
0.00103902
0.00103939
0.00104026
0.00104177
0.0010441
0.00104743
0.00105197
0.00105778
0.00106476
0.00107243
0.00107994
0.00108611
0.00108969
0.00108967
0.00108576
0.00107921
0.00107473
0.0010795
0.00109614
0.00112396
0.00116006
0.00120001
0.00123887
0.00127273
0.00129936
0.00131828
0.00133024
0.00133673
0.00133948
0.00134012
0.00133989
0.00133958
0.00103614
0.0010365
0.00103733
0.00103873
0.00104083
0.00104375
0.00104762
0.00105248
0.00105824
0.00106451
0.00107058
0.00107548
0.00107806
0.00107741
0.00107317
0.00106639
0.00106145
0.00106484
0.00107918
0.00110467
0.00113972
0.00118102
0.00122381
0.00126341
0.0012964
0.00132121
0.00133794
0.00134782
0.00135267
0.00135438
0.00135456
0.00135434
0.0010329
0.00103324
0.00103401
0.00103531
0.00103722
0.00103983
0.0010432
0.00104734
0.00105214
0.00105728
0.00106221
0.00106613
0.00106814
0.00106751
0.00106402
0.00105869
0.00105545
0.0010596
0.00107324
0.00109692
0.00112993
0.00117007
0.00121364
0.00125613
0.00129344
0.00132298
0.00134399
0.00135718
0.0013642
0.00136708
0.00136772
0.0013676
0.00103006
0.00103034
0.00103099
0.00103209
0.00103375
0.00103603
0.00103896
0.00104251
0.00104654
0.00105079
0.00105482
0.00105806
0.00105989
0.00105988
0.00105806
0.00105557
0.00105567
0.00106211
0.00107626
0.0010988
0.00112962
0.00116738
0.00120943
0.00125215
0.00129152
0.00132431
0.00134883
0.00136508
0.00137431
0.00137845
0.00137962
0.00137962
0.00102885
0.00102899
0.00102936
0.00103006
0.00103124
0.00103299
0.00103536
0.00103831
0.00104168
0.00104526
0.00104872
0.00105174
0.00105402
0.00105546
0.00105636
0.00105792
0.00106248
0.00107204
0.00108726
0.0011089
0.00113736
0.00117208
0.00121128
0.00125217
0.00129143
0.00132578
0.00135286
0.00137176
0.00138313
0.00138862
0.00139039
0.00139053
0.00103095
0.00103084
0.00103071
0.00103069
0.00103101
0.00103186
0.0010334
0.00103562
0.00103842
0.00104164
0.00104511
0.00104873
0.00105248
0.00105648
0.00106115
0.00106756
0.00107695
0.00108966
0.00110586
0.00112646
0.00115222
0.00118329
0.00121871
0.00125644
0.00129384
0.00132806
0.00135649
0.00137746
0.00139079
0.00139767
0.00140013
0.00140043
0.00103824
0.00103775
0.00103686
0.00103578
0.00103486
0.00103449
0.00103495
0.00103643
0.00103892
0.00104238
0.00104677
0.00105211
0.00105847
0.001066
0.00107502
0.00108626
0.00109991
0.00111506
0.00113167
0.00115081
0.00117353
0.00120047
0.00123136
0.00126495
0.00129923
0.00133184
0.0013603
0.00138252
0.00139749
0.00140571
0.00140891
0.00140942
0.00105229
0.0010513
0.0010495
0.00104723
0.00104503
0.00104346
0.00104305
0.00104417
0.00104699
0.00105155
0.00105783
0.00106582
0.00107546
0.00108674
0.00109971
0.00111477
0.00113132
0.0011477
0.00116387
0.00118108
0.00120051
0.00122307
0.00124901
0.00127774
0.00130792
0.00133771
0.00136492
0.00138737
0.00140343
0.00141284
0.00141682
0.00141757
0.00107416
0.00107261
0.00106995
0.00106683
0.00106395
0.00106198
0.00106154
0.00106319
0.0010672
0.00107358
0.00108224
0.00109298
0.00110556
0.00111972
0.00113528
0.00115241
0.00117004
0.00118628
0.00120117
0.00121605
0.00123212
0.00125035
0.00127127
0.00129478
0.00132016
0.00134614
0.00137096
0.00139253
0.00140893
0.0014192
0.00142389
0.00142493
0.00110437
0.00110229
0.00109922
0.00109621
0.00109401
0.0010931
0.00109395
0.00109711
0.00110285
0.0011111
0.00112167
0.00113423
0.00114838
0.00116374
0.00117999
0.00119717
0.00121408
0.00122896
0.00124192
0.00125425
0.00126705
0.00128122
0.00129739
0.00131574
0.001336
0.00135746
0.00137888
0.00139849
0.00141432
0.00142493
0.0014302
0.00143154
0.00114321
0.00114082
0.00113831
0.00113694
0.00113708
0.00113867
0.00114182
0.00114689
0.00115408
0.00116336
0.00117453
0.00118726
0.00120114
0.00121577
0.00123083
0.00124629
0.00126108
0.00127369
0.0012843
0.00129402
0.00130377
0.00131433
0.00132624
0.00133983
0.00135508
0.00137171
0.001389
0.00140568
0.00141999
0.00143026
0.0014358
0.00143741
0.00119122
0.00118909
0.00118855
0.00119031
0.00119376
0.00119825
0.00120356
0.00120991
0.00121746
0.00122636
0.00123653
0.00124773
0.00125965
0.00127196
0.00128439
0.00129691
0.00130865
0.00131847
0.00132655
0.00133375
0.00134078
0.00134821
0.0013565
0.00136593
0.00137664
0.00138856
0.0014014
0.00141441
0.00142628
0.00143543
0.0014408
0.00144257
0.00124972
0.00124892
0.00125164
0.00125666
0.00126258
0.00126865
0.00127467
0.00128082
0.00128735
0.0012945
0.00130234
0.00131077
0.0013196
0.00132859
0.00133758
0.00134651
0.0013548
0.00136164
0.0013672
0.00137205
0.00137668
0.00138149
0.00138678
0.00139278
0.00139961
0.00140731
0.00141581
0.0014248
0.00143349
0.0014407
0.00144532
0.00144706
0.00132119
0.00132293
0.00132802
0.00133373
0.00133931
0.00134446
0.00134914
0.00135352
0.00135783
0.00136232
0.0013671
0.00137216
0.00137741
0.00138272
0.001388
0.0013932
0.001398
0.00140194
0.00140511
0.00140785
0.00141042
0.00141305
0.00141592
0.00141915
0.00142281
0.00142697
0.00143162
0.00143667
0.00144179
0.00144635
0.00144956
0.00145093
0.00140864
0.00141
0.00141261
0.00141511
0.00141738
0.0014194
0.00142115
0.00142272
0.00142421
0.00142572
0.00142729
0.00142895
0.00143066
0.00143238
0.00143409
0.00143577
0.00143732
0.00143858
0.0014396
0.00144047
0.00144128
0.0014421
0.00144299
0.00144399
0.00144512
0.0014464
0.00144784
0.00144941
0.00145105
0.00145257
0.00145373
0.00145429
)
;


// ************************************************************************* //
