/*--------------------------------*- C++ -*----------------------------------*\
| =========                 |                                                 |
| \\      /  F ield         | OpenFOAM: The Open Source CFD Toolbox           |
|  \\    /   O peration     | Version:  2212                                  |
|   \\  /    A nd           | Website:  www.openfoam.com                      |
|    \\/     M anipulation  |                                                 |
\*---------------------------------------------------------------------------*/
FoamFile
{
    version     2.0;
    format      ascii;
    arch        "LSB;label=64;scalar=64";
    class       volScalarField;
    location    "1880";
    object      p;
}
// * * * * * * * * * * * * * * * * * * * * * * * * * * * * * * * * * * * * * //

dimensions      [0 2 -2 0 0 0 0];

internalField   nonuniform List<scalar> 
1024
(
0
-2.98733e-07
-9.25496e-07
-1.63779e-06
-2.22386e-06
-2.51065e-06
-2.48941e-06
-2.33187e-06
-2.2919e-06
-2.5252e-06
-2.92548e-06
-2.9708e-06
-1.61022e-06
3.13206e-06
1.46381e-05
3.81489e-05
7.50231e-05
0.000111393
0.00012767
0.000116576
8.25558e-05
3.8229e-05
-2.23968e-06
-3.07235e-05
-4.83157e-05
-5.85061e-05
-6.39646e-05
-6.63405e-05
-6.66177e-05
-6.55592e-05
-6.40049e-05
-6.28363e-05
-0.0928116
-0.0928119
-0.0928124
-0.092813
-0.0928136
-0.0928139
-0.0928139
-0.0928139
-0.092814
-0.0928143
-0.0928148
-0.0928149
-0.0928137
-0.0928091
-0.092798
-0.092775
-0.0927389
-0.0927036
-0.0926884
-0.0927
-0.0927334
-0.0927765
-0.0928156
-0.0928429
-0.0928596
-0.0928691
-0.0928742
-0.0928764
-0.0928768
-0.092876
-0.0928747
-0.0928735
-0.199425
-0.199425
-0.199426
-0.199426
-0.199427
-0.199427
-0.199427
-0.199427
-0.199428
-0.199428
-0.199429
-0.19943
-0.199429
-0.199425
-0.199414
-0.199392
-0.199357
-0.199323
-0.199309
-0.199322
-0.199354
-0.199396
-0.199434
-0.199459
-0.199474
-0.199483
-0.199487
-0.199489
-0.199489
-0.199488
-0.199487
-0.199486
-0.321892
-0.321892
-0.321893
-0.321894
-0.321894
-0.321895
-0.321895
-0.321896
-0.321897
-0.321898
-0.321899
-0.3219
-0.3219
-0.321897
-0.321887
-0.321866
-0.321833
-0.321801
-0.321789
-0.321802
-0.321834
-0.321874
-0.32191
-0.321934
-0.321947
-0.321953
-0.321956
-0.321957
-0.321957
-0.321956
-0.321955
-0.321953
-0.462571
-0.462572
-0.462573
-0.462574
-0.462575
-0.462576
-0.462576
-0.462577
-0.462579
-0.462581
-0.462583
-0.462585
-0.462586
-0.462584
-0.462576
-0.462557
-0.462527
-0.462497
-0.462486
-0.4625
-0.462531
-0.46257
-0.462604
-0.462626
-0.462636
-0.46264
-0.462641
-0.462641
-0.46264
-0.462639
-0.462637
-0.462635
-0.624172
-0.624173
-0.624175
-0.624176
-0.624177
-0.624178
-0.624179
-0.624181
-0.624183
-0.624186
-0.62419
-0.624193
-0.624196
-0.624196
-0.624191
-0.624175
-0.624147
-0.62412
-0.62411
-0.624125
-0.624155
-0.624192
-0.624224
-0.624244
-0.624251
-0.624253
-0.624251
-0.624249
-0.624247
-0.624245
-0.624243
-0.624241
-0.809806
-0.809808
-0.809809
-0.809811
-0.809812
-0.809814
-0.809816
-0.809819
-0.809823
-0.809827
-0.809833
-0.809838
-0.809844
-0.809847
-0.809845
-0.809832
-0.809808
-0.809783
-0.809774
-0.809788
-0.809817
-0.809851
-0.80988
-0.809898
-0.809903
-0.809901
-0.809898
-0.809894
-0.809891
-0.809889
-0.809887
-0.809885
-1.02305
-1.02305
-1.02305
-1.02305
-1.02306
-1.02306
-1.02306
-1.02307
-1.02307
-1.02308
-1.02309
-1.0231
-1.0231
-1.02311
-1.02311
-1.0231
-1.02308
-1.02306
-1.02305
-1.02306
-1.02309
-1.02312
-1.02314
-1.02316
-1.02316
-1.02316
-1.02315
-1.02315
-1.02314
-1.02314
-1.02314
-1.02314
-1.26801
-1.26801
-1.26801
-1.26802
-1.26802
-1.26802
-1.26803
-1.26803
-1.26804
-1.26805
-1.26806
-1.26807
-1.26808
-1.26809
-1.2681
-1.2681
-1.26808
-1.26806
-1.26805
-1.26806
-1.26808
-1.2681
-1.26812
-1.26813
-1.26813
-1.26812
-1.26812
-1.26811
-1.26811
-1.26811
-1.26811
-1.26811
-1.5494
-1.54941
-1.54941
-1.54941
-1.54942
-1.54942
-1.54943
-1.54943
-1.54944
-1.54945
-1.54947
-1.54948
-1.5495
-1.54952
-1.54953
-1.54953
-1.54952
-1.5495
-1.54949
-1.54949
-1.54949
-1.54951
-1.54951
-1.54952
-1.54952
-1.54951
-1.54951
-1.5495
-1.5495
-1.5495
-1.5495
-1.5495
-1.87266
-1.87266
-1.87266
-1.87267
-1.87267
-1.87267
-1.87268
-1.87269
-1.8727
-1.87272
-1.87273
-1.87275
-1.87277
-1.87279
-1.87281
-1.87282
-1.87281
-1.87279
-1.87278
-1.87277
-1.87276
-1.87276
-1.87276
-1.87275
-1.87274
-1.87274
-1.87274
-1.87274
-1.87274
-1.87274
-1.87274
-1.87274
-2.24399
-2.244
-2.244
-2.244
-2.24401
-2.24401
-2.24402
-2.24403
-2.24404
-2.24406
-2.24408
-2.2441
-2.24413
-2.24415
-2.24418
-2.24419
-2.24419
-2.24417
-2.24415
-2.24413
-2.24411
-2.24409
-2.24407
-2.24406
-2.24404
-2.24404
-2.24404
-2.24404
-2.24404
-2.24404
-2.24404
-2.24404
-2.67057
-2.67057
-2.67057
-2.67057
-2.67058
-2.67058
-2.67059
-2.6706
-2.67062
-2.67064
-2.67066
-2.67069
-2.67071
-2.67074
-2.67077
-2.67079
-2.67079
-2.67078
-2.67076
-2.67073
-2.6707
-2.67067
-2.67063
-2.67061
-2.67059
-2.67058
-2.67057
-2.67057
-2.67058
-2.67058
-2.67058
-2.67058
-3.16059
-3.16059
-3.16059
-3.16059
-3.1606
-3.1606
-3.16061
-3.16063
-3.16064
-3.16066
-3.16068
-3.16071
-3.16074
-3.16077
-3.16081
-3.16083
-3.16084
-3.16083
-3.16081
-3.16077
-3.16074
-3.16069
-3.16065
-3.16062
-3.16059
-3.16057
-3.16057
-3.16057
-3.16057
-3.16057
-3.16058
-3.16058
-3.72348
-3.72349
-3.72349
-3.72349
-3.72349
-3.7235
-3.72351
-3.72352
-3.72354
-3.72356
-3.72358
-3.72361
-3.72364
-3.72368
-3.72371
-3.72374
-3.72375
-3.72375
-3.72373
-3.72369
-3.72365
-3.72361
-3.72356
-3.72352
-3.72349
-3.72347
-3.72346
-3.72346
-3.72346
-3.72346
-3.72347
-3.72347
-4.37009
-4.37009
-4.37009
-4.37009
-4.37009
-4.3701
-4.37011
-4.37012
-4.37014
-4.37016
-4.37018
-4.37021
-4.37024
-4.37028
-4.37032
-4.37035
-4.37036
-4.37036
-4.37034
-4.37032
-4.37028
-4.37024
-4.3702
-4.37015
-4.37012
-4.3701
-4.37008
-4.37007
-4.37007
-4.37008
-4.37008
-4.37008
-5.06142
-5.06142
-5.06142
-5.06142
-5.06143
-5.06143
-5.06144
-5.06146
-5.06147
-5.06149
-5.06152
-5.06155
-5.06158
-5.06162
-5.06165
-5.06169
-5.0617
-5.0617
-5.06169
-5.06167
-5.06164
-5.06161
-5.06157
-5.06153
-5.06149
-5.06146
-5.06145
-5.06144
-5.06144
-5.06144
-5.06144
-5.06145
-5.70799
-5.70799
-5.70799
-5.70799
-5.70799
-5.708
-5.70801
-5.70802
-5.70804
-5.70806
-5.70809
-5.70812
-5.70815
-5.70819
-5.70823
-5.70826
-5.70828
-5.70827
-5.70826
-5.70824
-5.70822
-5.7082
-5.70816
-5.70813
-5.7081
-5.70807
-5.70804
-5.70803
-5.70803
-5.70803
-5.70804
-5.70804
-6.27084
-6.27084
-6.27084
-6.27084
-6.27084
-6.27084
-6.27085
-6.27087
-6.27089
-6.27091
-6.27094
-6.27097
-6.271
-6.27104
-6.27108
-6.27112
-6.27114
-6.27113
-6.27112
-6.2711
-6.27108
-6.27106
-6.27103
-6.271
-6.27097
-6.27094
-6.27092
-6.2709
-6.2709
-6.2709
-6.2709
-6.27091
-6.76081
-6.76081
-6.76081
-6.76081
-6.76081
-6.76081
-6.76082
-6.76084
-6.76085
-6.76088
-6.76091
-6.76094
-6.76098
-6.76102
-6.76107
-6.76111
-6.76113
-6.76112
-6.76111
-6.76109
-6.76106
-6.76104
-6.76101
-6.76099
-6.76095
-6.76092
-6.76089
-6.76088
-6.76087
-6.76087
-6.76087
-6.76088
-7.18735
-7.18734
-7.18734
-7.18734
-7.18734
-7.18735
-7.18735
-7.18736
-7.18738
-7.1874
-7.18743
-7.18747
-7.18752
-7.18756
-7.18761
-7.18766
-7.18768
-7.18768
-7.18766
-7.18763
-7.1876
-7.18757
-7.18755
-7.18752
-7.18748
-7.18744
-7.18741
-7.18738
-7.18737
-7.18737
-7.18737
-7.18738
-7.55866
-7.55866
-7.55866
-7.55866
-7.55866
-7.55866
-7.55866
-7.55867
-7.55868
-7.5587
-7.55874
-7.55878
-7.55883
-7.55888
-7.55894
-7.55899
-7.55901
-7.55901
-7.55899
-7.55896
-7.55893
-7.55889
-7.55885
-7.55881
-7.55877
-7.55872
-7.55868
-7.55864
-7.55861
-7.55861
-7.55861
-7.55862
-7.88191
-7.88191
-7.88191
-7.8819
-7.8819
-7.8819
-7.8819
-7.8819
-7.88191
-7.88193
-7.88196
-7.88201
-7.88207
-7.88213
-7.88219
-7.88224
-7.88227
-7.88227
-7.88225
-7.88222
-7.88218
-7.88213
-7.88208
-7.88203
-7.88197
-7.88191
-7.88184
-7.88178
-7.88174
-7.88172
-7.88173
-7.88174
-8.16331
-8.16331
-8.16331
-8.16331
-8.1633
-8.16329
-8.16329
-8.16328
-8.16328
-8.1633
-8.16334
-8.16339
-8.16346
-8.16353
-8.1636
-8.16365
-8.16369
-8.16369
-8.16367
-8.16363
-8.16359
-8.16353
-8.16346
-8.16339
-8.1633
-8.16321
-8.16312
-8.16303
-8.16297
-8.16293
-8.16292
-8.16294
-8.40829
-8.40829
-8.40829
-8.40828
-8.40828
-8.40826
-8.40824
-8.40823
-8.40823
-8.40825
-8.40829
-8.40834
-8.40842
-8.40849
-8.40857
-8.40864
-8.40867
-8.40867
-8.40865
-8.40862
-8.40856
-8.4085
-8.40842
-8.40831
-8.4082
-8.40807
-8.40793
-8.40781
-8.4077
-8.40763
-8.40761
-8.40762
-8.62156
-8.62156
-8.62156
-8.62155
-8.62154
-8.62151
-8.62149
-8.62147
-8.62146
-8.62148
-8.62152
-8.62159
-8.62167
-8.62175
-8.62183
-8.6219
-8.62194
-8.62195
-8.62193
-8.62189
-8.62183
-8.62175
-8.62165
-8.62153
-8.62137
-8.62119
-8.621
-8.62081
-8.62065
-8.62053
-8.62048
-8.62047
-8.80723
-8.80724
-8.80723
-8.80722
-8.80719
-8.80716
-8.80713
-8.8071
-8.80709
-8.80711
-8.80716
-8.80723
-8.80731
-8.8074
-8.80749
-8.80756
-8.8076
-8.80761
-8.80759
-8.80755
-8.80749
-8.8074
-8.80729
-8.80713
-8.80693
-8.8067
-8.80644
-8.80617
-8.80593
-8.80574
-8.80563
-8.80559
-8.9689
-8.9689
-8.96889
-8.96886
-8.96882
-8.96877
-8.96873
-8.9687
-8.96869
-8.96871
-8.96876
-8.96884
-8.96893
-8.96902
-8.96911
-8.96919
-8.96923
-8.96924
-8.96922
-8.96918
-8.96911
-8.96902
-8.96888
-8.9687
-8.96847
-8.96818
-8.96784
-8.96749
-8.96714
-8.96684
-8.96663
-8.96653
-9.10969
-9.10968
-9.10964
-9.10959
-9.10952
-9.10946
-9.10941
-9.10938
-9.10937
-9.10939
-9.10945
-9.10953
-9.10962
-9.10972
-9.10981
-9.10989
-9.10994
-9.10995
-9.10993
-9.10988
-9.10981
-9.10971
-9.10957
-9.10937
-9.1091
-9.10876
-9.10836
-9.1079
-9.10742
-9.10696
-9.1066
-9.10637
-9.23237
-9.2323
-9.2322
-9.2321
-9.23201
-9.23194
-9.23188
-9.23184
-9.23183
-9.23186
-9.23192
-9.232
-9.2321
-9.2322
-9.2323
-9.23238
-9.23243
-9.23244
-9.23242
-9.23237
-9.2323
-9.23219
-9.23204
-9.23183
-9.23154
-9.23117
-9.23071
-9.23017
-9.22955
-9.22887
-9.22824
-9.22769
-9.3395
-9.33911
-9.33887
-9.33872
-9.33862
-9.33854
-9.33848
-9.33845
-9.33844
-9.33848
-9.33854
-9.33862
-9.33873
-9.33883
-9.33893
-9.33901
-9.33906
-9.33907
-9.33905
-9.33901
-9.33893
-9.33883
-9.33867
-9.33845
-9.33815
-9.33776
-9.33728
-9.33668
-9.33594
-9.33503
-9.33392
-9.33266
-9.43335
-9.43211
-9.43165
-9.4315
-9.43141
-9.43133
-9.43128
-9.43125
-9.43125
-9.43129
-9.43136
-9.43144
-9.43155
-9.43166
-9.43176
-9.43184
-9.43189
-9.4319
-9.43188
-9.43184
-9.43176
-9.43166
-9.4315
-9.43128
-9.43098
-9.43059
-9.43009
-9.42946
-9.42865
-9.42755
-9.42595
-9.42369
)
;

boundaryField
{
    movingWall
    {
        type            calculated;
        value           nonuniform List<scalar> 
32
(
-9.47655
-9.47532
-9.47485
-9.47471
-9.47461
-9.47454
-9.47448
-9.47446
-9.47446
-9.47449
-9.47456
-9.47465
-9.47475
-9.47486
-9.47496
-9.47504
-9.47509
-9.4751
-9.47509
-9.47504
-9.47497
-9.47486
-9.4747
-9.47448
-9.47418
-9.47379
-9.4733
-9.47267
-9.47186
-9.47076
-9.46915
-9.46689
)
;
    }
    fixedWalls
    {
        type            calculated;
        value           nonuniform List<scalar> 
64
(
6.93889e-18
-0.0928116
-0.199425
-0.321892
-0.462571
-0.624172
-0.809806
-1.02305
-1.26801
-1.5494
-1.87266
-2.24399
-2.67057
-3.16059
-3.72348
-4.37009
-5.06142
-5.70799
-6.27084
-6.76081
-7.18735
-7.55866
-7.88191
-8.16331
-8.40829
-8.62156
-8.80723
-8.9689
-9.10969
-9.23237
-9.3395
-9.43335
-6.28363e-05
-0.0928735
-0.199486
-0.321953
-0.462635
-0.624241
-0.809885
-1.02314
-1.26811
-1.5495
-1.87274
-2.24404
-2.67058
-3.16058
-3.72347
-4.37008
-5.06145
-5.70804
-6.27091
-6.76088
-7.18738
-7.55862
-7.88174
-8.16294
-8.40762
-8.62047
-8.80559
-8.96653
-9.10637
-9.22769
-9.33266
-9.42369
)
;
    }
    floor
    {
        type            calculated;
        value           nonuniform List<scalar> 
32
(
0.0431943
0.043194
0.0431934
0.0431927
0.0431921
0.0431918
0.0431918
0.043192
0.0431921
0.0431919
0.0431915
0.0431915
0.0431929
0.0431976
0.0432092
0.0432327
0.0432697
0.0433061
0.0433224
0.0433114
0.0432773
0.0432329
0.0431923
0.0431638
0.0431461
0.0431359
0.0431304
0.043128
0.0431277
0.0431287
0.0431303
0.0431315
)
;
    }
    frontAndBack
    {
        type            empty;
    }
}


// ************************************************************************* //
