/*--------------------------------*- C++ -*----------------------------------*\
| =========                 |                                                 |
| \\      /  F ield         | OpenFOAM: The Open Source CFD Toolbox           |
|  \\    /   O peration     | Version:  2212                                  |
|   \\  /    A nd           | Website:  www.openfoam.com                      |
|    \\/     M anipulation  |                                                 |
\*---------------------------------------------------------------------------*/
FoamFile
{
    version     2.0;
    format      ascii;
    arch        "LSB;label=64;scalar=64";
    class       volScalarField;
    location    "1880";
    object      Sch4;
}
// * * * * * * * * * * * * * * * * * * * * * * * * * * * * * * * * * * * * * //

dimensions      [1 -3 0 0 0 0 0];

internalField   nonuniform List<scalar> 
1024
(
0.0388541
0.0388649
0.0388916
0.0389405
0.0390198
0.039139
0.0393081
0.0395359
0.0398279
0.0401827
0.0405907
0.041033
0.0414847
0.0419203
0.042319
0.0426627
0.0429077
0.0430183
0.043007
0.0428971
0.0427097
0.0424689
0.0422012
0.0419339
0.0416905
0.0414864
0.0413276
0.0412123
0.0411343
0.0410858
0.0410594
0.0410486
0.0388575
0.0388685
0.0388953
0.0389447
0.0390248
0.0391451
0.0393158
0.0395455
0.0398396
0.0401965
0.0406061
0.0410495
0.0415015
0.0419372
0.0423357
0.0426796
0.0429252
0.0430368
0.0430263
0.0429168
0.0427291
0.0424874
0.0422183
0.0419491
0.0417035
0.0414971
0.0413363
0.0412195
0.0411405
0.0410916
0.0410649
0.0410541
0.038866
0.0388771
0.0389045
0.0389549
0.0390366
0.0391595
0.0393336
0.0395677
0.0398665
0.0402279
0.0406412
0.0410868
0.0415397
0.0419754
0.0423739
0.0427187
0.0429669
0.0430818
0.0430739
0.0429647
0.0427749
0.0425294
0.0422559
0.0419819
0.0417313
0.0415203
0.0413557
0.0412361
0.0411553
0.0411054
0.0410783
0.0410673
0.0388811
0.0388926
0.0389209
0.0389729
0.0390575
0.0391846
0.0393645
0.0396057
0.0399122
0.040281
0.0407001
0.0411492
0.0416035
0.0420394
0.0424387
0.0427866
0.0430412
0.0431638
0.0431612
0.043052
0.0428562
0.0426014
0.0423179
0.0420346
0.0417759
0.0415579
0.0413878
0.0412644
0.0411814
0.0411303
0.0411028
0.0410917
0.0389051
0.0389171
0.0389466
0.0390011
0.0390897
0.0392229
0.0394111
0.0396625
0.0399801
0.0403593
0.0407865
0.0412404
0.0416966
0.0421335
0.0425354
0.0428904
0.043158
0.0432954
0.043302
0.043192
0.0429848
0.0427121
0.0424103
0.0421111
0.0418397
0.0416122
0.0414354
0.0413077
0.0412225
0.0411705
0.0411428
0.0411318
0.0389399
0.0389525
0.0389836
0.0390413
0.0391353
0.0392766
0.0394759
0.0397406
0.0400727
0.0404652
0.0409026
0.0413627
0.0418219
0.0422614
0.0426696
0.0430383
0.0433282
0.0434899
0.0435112
0.0433999
0.0431746
0.0428738
0.0425425
0.0422184
0.0419284
0.0416882
0.0415035
0.0413716
0.0412846
0.0412324
0.0412052
0.0411946
0.0389874
0.0390006
0.0390337
0.0390952
0.0391959
0.0393473
0.0395601
0.0398412
0.0401907
0.0405993
0.041049
0.0415167
0.0419808
0.0424261
0.0428461
0.0432373
0.0435617
0.0437592
0.0438023
0.0436908
0.0434428
0.043104
0.0427308
0.0423702
0.0420538
0.0417967
0.0416026
0.0414667
0.0413789
0.0413277
0.0413018
0.0412923
0.0390485
0.0390625
0.0390977
0.0391637
0.039272
0.0394349
0.0396633
0.0399633
0.0403327
0.0407595
0.0412234
0.0417008
0.0421725
0.0426284
0.0430674
0.0434915
0.043863
0.0441087
0.0441832
0.0440779
0.0438092
0.0434281
0.043003
0.0425939
0.042241
0.041961
0.0417549
0.0416145
0.0415269
0.0414777
0.0414543
0.0414463
0.0391234
0.0391381
0.0391755
0.0392461
0.0393625
0.0395378
0.039783
0.0401032
0.0404941
0.0409407
0.0414207
0.0419104
0.0423935
0.0428651
0.0433301
0.043796
0.0442253
0.0445312
0.044652
0.0445698
0.0442965
0.0438832
0.0434063
0.0429407
0.0425401
0.0422278
0.0420042
0.0418567
0.0417684
0.0417216
0.0417011
0.041695
0.0392107
0.0392261
0.0392656
0.0393406
0.0394648
0.0396523
0.0399141
0.0402546
0.0406672
0.0411346
0.0416322
0.0421366
0.0426343
0.0431252
0.0436195
0.0441302
0.0446215
0.0449988
0.0451887
0.0451636
0.0449245
0.044514
0.0440083
0.043493
0.0430379
0.0426813
0.0424291
0.0422668
0.0421728
0.0421255
0.0421066
0.0421019
0.0393078
0.0393237
0.0393648
0.0394435
0.0395745
0.0397726
0.0400493
0.0404083
0.0408415
0.041329
0.0418444
0.0423639
0.042876
0.0433838
0.0439018
0.0444484
0.0449953
0.0454527
0.0457431
0.0458275
0.0456886
0.0453496
0.0448739
0.0443472
0.0438517
0.0434446
0.0431484
0.0429553
0.0428432
0.042787
0.0427644
0.0427588
0.0394102
0.0394264
0.0394686
0.0395498
0.0396854
0.0398912
0.0401791
0.0405525
0.0410022
0.0415063
0.0420361
0.0425665
0.0430854
0.043597
0.0441182
0.0446744
0.0452551
0.0457938
0.0462168
0.0464705
0.0465141
0.0463431
0.0459949
0.0455393
0.0450581
0.0446231
0.0442793
0.0440394
0.0438912
0.0438113
0.0437759
0.0437652
0.0395117
0.039528
0.0395706
0.0396526
0.0397898
0.0399985
0.0402913
0.0406718
0.04113
0.0416423
0.0421772
0.0427059
0.0432131
0.0437008
0.0441865
0.0447054
0.0452785
0.0458833
0.0464545
0.046921
0.0472158
0.0473045
0.0471927
0.0469214
0.0465549
0.046165
0.0458132
0.0455376
0.0453484
0.0452353
0.0451787
0.0451585
0.0396039
0.0396201
0.0396621
0.0397427
0.0398774
0.0400825
0.0403711
0.040747
0.0412004
0.041706
0.0422287
0.0427342
0.0432003
0.043623
0.0440195
0.0444369
0.0449413
0.045573
0.0462785
0.0469654
0.0475391
0.047936
0.048132
0.0481384
0.0479941
0.0477557
0.0474848
0.0472347
0.0470387
0.0469073
0.0468342
0.0468051
0.0396749
0.0396908
0.0397312
0.0398079
0.0399351
0.0401286
0.040401
0.0407567
0.0411862
0.0416637
0.0421506
0.0426056
0.0429966
0.0433109
0.0435628
0.0438118
0.0441763
0.0447755
0.0455746
0.0464606
0.0473071
0.0480176
0.0485387
0.0488574
0.0489911
0.0489789
0.0488726
0.0487256
0.048583
0.0484723
0.0484034
0.0483734
0.0397078
0.0397231
0.0397611
0.0398315
0.0399464
0.0401194
0.0403623
0.0406795
0.041063
0.0414879
0.0419143
0.0422947
0.042587
0.042767
0.0428423
0.0428784
0.0430409
0.0435346
0.044364
0.0454103
0.0465172
0.0475456
0.0484008
0.0490393
0.0494596
0.0496895
0.0497736
0.0497638
0.0497089
0.0496468
0.0495999
0.0495768
0.0396832
0.0396979
0.0397331
0.0397964
0.039897
0.0400454
0.0402513
0.0405189
0.040842
0.041199
0.0415521
0.0418527
0.0420523
0.0421165
0.0420424
0.0418886
0.0418403
0.0421641
0.042925
0.044039
0.0453496
0.0466804
0.0478809
0.0488576
0.0495762
0.050049
0.0503178
0.0504379
0.0504661
0.0504505
0.0504254
0.0504094
0.0396053
0.0396195
0.0396526
0.0397101
0.0397987
0.0399259
0.0400986
0.0403203
0.0405861
0.0408784
0.0411645
0.0413998
0.0415361
0.0415353
0.0413865
0.0411367
0.0409659
0.0411477
0.0417818
0.0428423
0.0442183
0.0457411
0.0472225
0.0485131
0.0495284
0.0502493
0.0507053
0.0509528
0.0510578
0.051082
0.0510731
0.0510614
0.0394954
0.0395092
0.0395407
0.0395941
0.039674
0.0397854
0.0399329
0.0401183
0.0403375
0.0405764
0.040808
0.0409944
0.041093
0.0410679
0.0409065
0.040648
0.0404595
0.0405889
0.0411352
0.0421068
0.0434431
0.0450172
0.0466482
0.0481579
0.0494156
0.0503613
0.0509988
0.0513756
0.0515605
0.0516255
0.0516324
0.0516241
0.039372
0.039385
0.0394144
0.0394638
0.0395366
0.039636
0.0397645
0.0399222
0.0401049
0.0403009
0.0404887
0.040638
0.0407149
0.0406908
0.0405578
0.0403546
0.0402308
0.0403889
0.0409089
0.0418117
0.0430698
0.0446
0.0462608
0.0478806
0.0493027
0.0504287
0.0512294
0.0517321
0.052
0.0521096
0.0521341
0.0521295
0.0392637
0.0392744
0.039299
0.0393411
0.0394043
0.0394912
0.0396028
0.0397379
0.0398916
0.0400537
0.0402073
0.0403306
0.0404004
0.0403998
0.0403306
0.0402354
0.0402393
0.0404847
0.0410242
0.0418835
0.0430583
0.0444973
0.0461004
0.0477286
0.0492294
0.0504792
0.0514142
0.0520336
0.0523852
0.0525432
0.0525878
0.0525877
0.0392174
0.0392228
0.0392368
0.0392638
0.0393086
0.0393754
0.0394657
0.0395779
0.0397065
0.0398427
0.0399748
0.0400897
0.0401766
0.0402314
0.0402659
0.0403251
0.040499
0.0408633
0.0414435
0.0422685
0.0433531
0.0446767
0.046171
0.0477297
0.0492261
0.0505356
0.0515675
0.0522882
0.0527213
0.0529306
0.0529984
0.0530035
0.0392977
0.0392936
0.0392883
0.0392877
0.0392997
0.0393324
0.0393909
0.0394755
0.0395822
0.0397048
0.0398372
0.0399752
0.0401179
0.0402703
0.0404485
0.0406927
0.0410505
0.041535
0.0421527
0.0429376
0.0439196
0.0451041
0.0464542
0.0478924
0.049318
0.0506225
0.0517061
0.0525055
0.0530136
0.0532757
0.0533695
0.0533811
0.0395753
0.0395568
0.0395228
0.0394818
0.0394468
0.0394324
0.0394502
0.0395064
0.0396015
0.0397333
0.0399005
0.0401039
0.0403464
0.0406335
0.0409769
0.0414054
0.0419258
0.0425034
0.0431364
0.043866
0.044732
0.0457587
0.0469364
0.0482168
0.0495235
0.0507663
0.0518513
0.0526982
0.0532687
0.0535822
0.0537043
0.0537238
0.0401109
0.0400735
0.0400046
0.0399182
0.0398344
0.0397747
0.0397589
0.0398015
0.0399091
0.0400829
0.0403223
0.0406265
0.0409942
0.0414239
0.0419181
0.0424924
0.043123
0.0437474
0.0443637
0.0450196
0.0457603
0.0466204
0.0476092
0.0487043
0.0498547
0.0509901
0.0520275
0.0528831
0.0534954
0.0538541
0.0540055
0.0540344
0.0409446
0.0408857
0.0407843
0.0406652
0.0405554
0.0404805
0.0404638
0.0405265
0.0406793
0.0409227
0.0412527
0.0416621
0.0421415
0.0426811
0.0432743
0.0439271
0.0445989
0.0452179
0.0457857
0.0463529
0.0469654
0.0476602
0.0484577
0.0493539
0.0503213
0.0513116
0.0522575
0.0530797
0.0537048
0.0540963
0.0542752
0.0543149
0.0420961
0.0420169
0.0419001
0.0417854
0.0417013
0.0416668
0.0416992
0.0418197
0.0420383
0.0423529
0.0427558
0.0432345
0.0437738
0.0443589
0.0449785
0.0456331
0.0462779
0.0468449
0.047339
0.0478087
0.0482966
0.048837
0.0494532
0.0501526
0.0509249
0.0517429
0.0525594
0.053307
0.0539103
0.0543149
0.0545156
0.0545666
0.0435766
0.0434856
0.0433898
0.0433378
0.043343
0.0434038
0.0435238
0.0437172
0.0439912
0.0443447
0.0447704
0.0452557
0.0457847
0.0463422
0.0469162
0.0475056
0.0480692
0.0485498
0.0489543
0.0493247
0.0496966
0.0500989
0.0505531
0.0510708
0.0516523
0.052286
0.0529452
0.0535812
0.0541264
0.054518
0.0547292
0.0547905
0.0454067
0.0453253
0.0453048
0.0453721
0.0455037
0.0456748
0.0458772
0.046119
0.0464071
0.0467463
0.0471337
0.0475607
0.0480149
0.048484
0.048958
0.0494351
0.0498826
0.050257
0.0505649
0.0508392
0.051107
0.0513903
0.0517062
0.052066
0.0524741
0.0529285
0.0534178
0.0539138
0.0543662
0.0547148
0.0549196
0.0549873
0.0476365
0.047606
0.0477095
0.047901
0.0481266
0.0483581
0.0485875
0.048822
0.0490708
0.0493435
0.0496423
0.0499636
0.0502999
0.0506428
0.0509853
0.0513259
0.0516415
0.0519025
0.0521141
0.052299
0.0524757
0.0526589
0.0528607
0.0530893
0.0533497
0.0536432
0.0539673
0.0543097
0.054641
0.0549159
0.0550922
0.0551584
0.0503608
0.0504271
0.0506211
0.0508387
0.0510512
0.0512478
0.051426
0.0515929
0.0517573
0.0519285
0.0521106
0.0523034
0.0525034
0.0527059
0.052907
0.0531055
0.0532883
0.0534385
0.0535594
0.0536637
0.0537618
0.0538621
0.0539713
0.0540943
0.0542342
0.0543926
0.0545698
0.0547622
0.0549574
0.0551312
0.0552536
0.0553059
0.0536941
0.0537458
0.0538454
0.0539406
0.0540271
0.0541039
0.0541708
0.0542307
0.0542875
0.0543449
0.054405
0.054468
0.0545331
0.0545989
0.0546641
0.0547281
0.054787
0.0548352
0.0548739
0.0549071
0.054938
0.0549694
0.0550034
0.0550414
0.0550845
0.0551333
0.055188
0.055248
0.0553103
0.0553683
0.0554126
0.0554339
)
;

boundaryField
{
    movingWall
    {
        type            fixedValue;
        value           uniform 0.0555;
    }
    fixedWalls
    {
        type            zeroGradient;
    }
    floor
    {
        type            zeroGradient;
    }
    frontAndBack
    {
        type            empty;
    }
}


// ************************************************************************* //
