/*--------------------------------*- C++ -*----------------------------------*\
| =========                 |                                                 |
| \\      /  F ield         | OpenFOAM: The Open Source CFD Toolbox           |
|  \\    /   O peration     | Version:  2212                                  |
|   \\  /    A nd           | Website:  www.openfoam.com                      |
|    \\/     M anipulation  |                                                 |
\*---------------------------------------------------------------------------*/
FoamFile
{
    version     2.0;
    format      ascii;
    arch        "LSB;label=64;scalar=64";
    class       volScalarField;
    location    "1880";
    object      Xpr;
}
// * * * * * * * * * * * * * * * * * * * * * * * * * * * * * * * * * * * * * //

dimensions      [1 -3 0 0 0 0 0];

internalField   nonuniform List<scalar> 
1024
(
0.0823259
0.0823273
0.0823307
0.082337
0.0823472
0.0823626
0.0823843
0.0824136
0.0824509
0.0824961
0.0825477
0.0826031
0.082659
0.082712
0.0827596
0.0827998
0.0828277
0.0828396
0.0828372
0.0828232
0.0828001
0.0827707
0.0827381
0.0827055
0.0826758
0.0826508
0.0826314
0.0826172
0.0826077
0.0826017
0.0825985
0.0825971
0.0823263
0.0823277
0.0823312
0.0823376
0.0823479
0.0823634
0.0823853
0.0824148
0.0824524
0.0824978
0.0825496
0.0826051
0.082661
0.082714
0.0827616
0.0828018
0.0828298
0.0828417
0.0828394
0.0828255
0.0828024
0.0827729
0.0827401
0.0827073
0.0826773
0.0826521
0.0826324
0.0826181
0.0826084
0.0826024
0.0825991
0.0825978
0.0823274
0.0823288
0.0823324
0.0823389
0.0823494
0.0823652
0.0823876
0.0824176
0.0824558
0.0825018
0.082554
0.0826097
0.0826657
0.0827186
0.0827661
0.0828064
0.0828346
0.0828469
0.0828449
0.082831
0.0828077
0.0827778
0.0827446
0.0827112
0.0826806
0.0826549
0.0826347
0.0826201
0.0826102
0.082604
0.0826007
0.0825994
0.0823293
0.0823308
0.0823345
0.0823412
0.0823521
0.0823684
0.0823915
0.0824224
0.0824616
0.0825084
0.0825613
0.0826174
0.0826734
0.0827262
0.0827737
0.0828142
0.0828432
0.0828564
0.0828549
0.0828411
0.0828171
0.0827862
0.0827518
0.0827174
0.0826859
0.0826593
0.0826385
0.0826234
0.0826133
0.082607
0.0826036
0.0826023
0.0823324
0.082334
0.0823378
0.0823448
0.0823562
0.0823733
0.0823975
0.0824296
0.0824701
0.0825182
0.082572
0.0826286
0.0826846
0.0827374
0.0827851
0.0828263
0.0828567
0.0828716
0.0828712
0.0828572
0.082832
0.082799
0.0827625
0.0827263
0.0826934
0.0826657
0.0826442
0.0826286
0.0826182
0.0826118
0.0826084
0.0826071
0.0823369
0.0823385
0.0823425
0.0823499
0.082362
0.0823802
0.0824057
0.0824395
0.0824818
0.0825315
0.0825864
0.0826435
0.0826997
0.0827526
0.0828008
0.0828435
0.0828763
0.082894
0.0828953
0.0828812
0.0828539
0.0828177
0.0827779
0.0827388
0.0827038
0.0826747
0.0826522
0.0826362
0.0826256
0.0826192
0.0826158
0.0826146
0.082343
0.0823447
0.0823489
0.0823568
0.0823698
0.0823892
0.0824164
0.0824522
0.0824966
0.0825482
0.0826044
0.0826623
0.0827188
0.0827721
0.0828214
0.0828665
0.0829033
0.082925
0.0829289
0.0829148
0.0828848
0.0828443
0.0827996
0.0827564
0.0827184
0.0826874
0.0826639
0.0826474
0.0826368
0.0826305
0.0826274
0.0826262
0.0823508
0.0823526
0.0823571
0.0823656
0.0823795
0.0824003
0.0824294
0.0824676
0.0825144
0.082568
0.0826258
0.0826846
0.0827417
0.0827959
0.0828472
0.082896
0.082938
0.0829653
0.0829727
0.0829594
0.0829271
0.0828817
0.0828311
0.0827824
0.0827402
0.0827066
0.0826818
0.0826649
0.0826543
0.0826483
0.0826455
0.0826445
0.0823604
0.0823623
0.0823671
0.0823761
0.082391
0.0824134
0.0824446
0.0824852
0.0825345
0.0825904
0.0826499
0.0827099
0.082768
0.0828237
0.0828777
0.0829311
0.0829797
0.0830138
0.0830266
0.083016
0.0829833
0.0829343
0.0828779
0.0828228
0.0827752
0.082738
0.0827112
0.0826935
0.0826829
0.0826773
0.0826748
0.0826741
0.0823716
0.0823736
0.0823786
0.0823882
0.082404
0.0824278
0.0824611
0.0825041
0.082556
0.0826143
0.0826757
0.082737
0.0827965
0.0828541
0.0829112
0.0829694
0.0830249
0.0830672
0.083088
0.0830841
0.0830556
0.0830073
0.0829478
0.0828871
0.0828334
0.0827912
0.0827613
0.082742
0.0827308
0.0827252
0.0827229
0.0827223
0.082384
0.082386
0.0823913
0.0824013
0.0824179
0.082443
0.082478
0.0825233
0.0825775
0.0826381
0.0827013
0.0827641
0.0828249
0.082884
0.0829434
0.0830054
0.0830671
0.0831184
0.0831509
0.0831599
0.0831433
0.0831036
0.0830481
0.0829865
0.0829285
0.0828808
0.082846
0.0828232
0.08281
0.0828034
0.0828007
0.0828001
0.0823971
0.0823991
0.0824045
0.0824148
0.082432
0.082458
0.0824943
0.0825412
0.0825973
0.0826596
0.0827243
0.082788
0.0828492
0.0829083
0.0829676
0.0830302
0.0830952
0.0831558
0.0832035
0.0832322
0.083237
0.0832173
0.0831772
0.0831245
0.0830688
0.0830183
0.0829784
0.0829505
0.0829332
0.0829239
0.0829198
0.0829186
0.08241
0.0824121
0.0824175
0.0824278
0.0824452
0.0824715
0.0825083
0.0825559
0.0826129
0.082676
0.0827411
0.0828042
0.0828636
0.0829194
0.0829739
0.0830315
0.0830951
0.083163
0.0832277
0.0832809
0.0833149
0.0833255
0.0833132
0.0832827
0.083241
0.0831966
0.0831563
0.0831247
0.0831031
0.0830901
0.0830836
0.0830813
0.0824218
0.0824238
0.0824291
0.0824393
0.0824562
0.082482
0.0825182
0.0825651
0.0826214
0.0826835
0.0827469
0.082807
0.0828611
0.0829087
0.0829522
0.0829972
0.0830523
0.0831229
0.0832029
0.0832814
0.0833474
0.0833934
0.0834168
0.0834186
0.0834033
0.0833771
0.083347
0.0833191
0.0832972
0.0832824
0.0832742
0.083271
0.0824308
0.0824328
0.0824379
0.0824476
0.0824636
0.0824878
0.0825219
0.0825663
0.0826195
0.0826781
0.0827371
0.082791
0.0828359
0.0828704
0.0828963
0.082921
0.0829593
0.0830259
0.0831166
0.0832179
0.083315
0.0833967
0.083457
0.0834945
0.0835111
0.0835113
0.0835007
0.0834853
0.08347
0.0834581
0.0834507
0.0834474
0.0824351
0.0824371
0.0824418
0.0824507
0.0824651
0.0824868
0.0825172
0.0825567
0.0826042
0.0826565
0.0827081
0.0827532
0.0827864
0.0828048
0.0828096
0.082809
0.0828234
0.0828777
0.082972
0.0830919
0.0832189
0.0833368
0.0834348
0.0835082
0.0835571
0.0835845
0.0835956
0.0835959
0.083591
0.0835849
0.0835803
0.0835779
0.0824322
0.082434
0.0824385
0.0824464
0.082459
0.0824777
0.0825034
0.0825369
0.082577
0.082621
0.082664
0.0826998
0.0827222
0.0827271
0.0827145
0.0826915
0.0826811
0.0827155
0.082802
0.08293
0.0830807
0.0832333
0.0833706
0.0834821
0.0835642
0.0836186
0.0836501
0.083665
0.0836693
0.0836686
0.0836664
0.0836649
0.0824225
0.0824243
0.0824285
0.0824357
0.0824468
0.0824628
0.0824845
0.0825123
0.0825454
0.0825817
0.0826167
0.082645
0.0826603
0.082658
0.0826369
0.0826029
0.0825782
0.0825958
0.0826675
0.0827895
0.0829479
0.0831228
0.0832923
0.0834393
0.0835547
0.0836367
0.0836889
0.0837177
0.0837305
0.0837341
0.0837337
0.0837327
0.0824087
0.0824104
0.0824144
0.0824212
0.0824312
0.0824453
0.0824638
0.0824871
0.0825146
0.0825444
0.082573
0.0825956
0.0826069
0.0826022
0.0825802
0.0825456
0.0825189
0.0825303
0.0825916
0.0827031
0.0828571
0.083038
0.0832246
0.0833965
0.0835391
0.0836461
0.0837183
0.0837613
0.0837829
0.0837909
0.0837923
0.0837917
0.082393
0.0823947
0.0823984
0.0824047
0.0824139
0.0824265
0.0824428
0.0824627
0.0824857
0.0825103
0.0825337
0.082552
0.0825609
0.0825568
0.0825387
0.0825111
0.0824922
0.0825069
0.0825649
0.0826682
0.0828131
0.0829889
0.0831789
0.0833633
0.0835243
0.0836513
0.0837415
0.0837983
0.0838289
0.0838418
0.0838451
0.0838449
0.0823789
0.0823803
0.0823835
0.0823889
0.082397
0.0824081
0.0824223
0.0824395
0.082459
0.0824794
0.0824987
0.0825139
0.0825222
0.0825212
0.0825109
0.0824964
0.0824927
0.0825177
0.0825778
0.0826759
0.0828109
0.0829762
0.0831595
0.0833447
0.0835144
0.0836551
0.0837601
0.0838296
0.0838693
0.0838875
0.083893
0.0838933
0.0823718
0.0823726
0.0823746
0.0823783
0.0823843
0.082393
0.0824047
0.0824191
0.0824355
0.0824528
0.0824693
0.0824835
0.0824938
0.0824993
0.0825015
0.0825053
0.0825218
0.0825608
0.0826256
0.0827195
0.082844
0.0829958
0.0831666
0.0833437
0.0835128
0.08366
0.0837756
0.0838562
0.0839047
0.0839284
0.0839364
0.0839373
0.0823793
0.082379
0.0823788
0.0823793
0.0823815
0.0823863
0.0823943
0.0824054
0.0824191
0.0824346
0.0824509
0.0824676
0.0824842
0.0825011
0.0825201
0.0825457
0.0825839
0.0826371
0.0827063
0.0827955
0.0829079
0.0830436
0.0831977
0.0833611
0.0835221
0.0836686
0.0837897
0.0838788
0.0839355
0.0839649
0.0839757
0.0839772
0.0824095
0.0824076
0.082404
0.0823999
0.0823967
0.0823961
0.0823993
0.082407
0.0824192
0.0824354
0.0824555
0.0824795
0.0825074
0.0825398
0.082578
0.0826252
0.0826826
0.0827468
0.0828179
0.0829008
0.0829997
0.0831171
0.0832514
0.0833967
0.0835442
0.0836836
0.0838048
0.083899
0.0839623
0.0839973
0.0840111
0.0840135
0.0824693
0.0824652
0.0824577
0.0824483
0.0824395
0.0824336
0.0824328
0.0824388
0.0824521
0.0824729
0.082501
0.0825362
0.0825783
0.0826271
0.0826827
0.082747
0.0828174
0.0828873
0.0829567
0.0830311
0.0831156
0.0832137
0.0833264
0.0834505
0.0835803
0.0837076
0.0838234
0.0839184
0.0839863
0.084026
0.084043
0.0840464
0.0825631
0.0825565
0.0825453
0.0825322
0.0825203
0.0825125
0.0825114
0.0825195
0.0825377
0.0825662
0.0826043
0.0826513
0.0827061
0.0827674
0.0828345
0.082908
0.0829835
0.083053
0.0831171
0.0831814
0.083251
0.0833302
0.0834209
0.0835224
0.0836315
0.0837425
0.083848
0.0839393
0.0840084
0.0840516
0.0840715
0.0840761
0.0826929
0.0826841
0.082671
0.0826584
0.0826492
0.0826459
0.0826502
0.0826645
0.08269
0.0827263
0.0827725
0.0828272
0.0828887
0.0829552
0.0830254
0.0830993
0.083172
0.0832359
0.0832916
0.0833448
0.0834003
0.0834617
0.0835317
0.0836109
0.0836979
0.0837896
0.0838807
0.0839636
0.0840302
0.0840747
0.0840969
0.0841026
0.0828599
0.0828497
0.082839
0.0828333
0.0828342
0.0828414
0.0828554
0.0828778
0.0829093
0.0829498
0.0829985
0.0830538
0.083114
0.0831773
0.0832424
0.0833091
0.0833727
0.0834269
0.0834726
0.0835145
0.0835567
0.0836024
0.0836539
0.0837125
0.083778
0.0838491
0.0839226
0.0839931
0.0840532
0.0840962
0.0841194
0.0841262
0.0830661
0.083057
0.0830547
0.0830624
0.0830775
0.083097
0.0831202
0.0831478
0.0831807
0.0832194
0.0832636
0.0833122
0.0833638
0.0834171
0.0834709
0.0835249
0.0835755
0.0836177
0.0836525
0.0836835
0.0837139
0.083746
0.0837818
0.0838225
0.0838685
0.0839194
0.083974
0.084029
0.0840789
0.0841171
0.0841395
0.0841469
0.0833171
0.0833136
0.0833253
0.083347
0.0833725
0.0833987
0.0834248
0.0834514
0.0834798
0.0835108
0.0835448
0.0835813
0.0836196
0.0836585
0.0836974
0.0837359
0.0837716
0.0838011
0.083825
0.0838459
0.0838659
0.0838867
0.0839095
0.0839354
0.0839647
0.0839976
0.0840338
0.0840718
0.0841083
0.0841384
0.0841576
0.0841648
0.0836233
0.0836307
0.0836526
0.0836771
0.083701
0.0837232
0.0837434
0.0837623
0.083781
0.0838005
0.0838212
0.0838431
0.0838658
0.0838888
0.0839116
0.0839341
0.0839548
0.0839718
0.0839855
0.0839972
0.0840084
0.0840197
0.0840321
0.084046
0.0840617
0.0840795
0.0840993
0.0841206
0.0841422
0.0841612
0.0841745
0.0841801
0.0839975
0.0840033
0.0840145
0.0840252
0.0840349
0.0840436
0.0840512
0.084058
0.0840644
0.0840709
0.0840778
0.0840849
0.0840923
0.0840998
0.0841072
0.0841145
0.0841211
0.0841266
0.0841309
0.0841347
0.0841382
0.0841417
0.0841456
0.0841499
0.0841547
0.0841602
0.0841663
0.084173
0.0841799
0.0841862
0.084191
0.0841933
)
;

boundaryField
{
    movingWall
    {
        type            fixedValue;
        value           uniform 0.0842;
    }
    fixedWalls
    {
        type            zeroGradient;
    }
    floor
    {
        type            zeroGradient;
    }
    frontAndBack
    {
        type            empty;
    }
}


// ************************************************************************* //
