/*--------------------------------*- C++ -*----------------------------------*\
| =========                 |                                                 |
| \\      /  F ield         | OpenFOAM: The Open Source CFD Toolbox           |
|  \\    /   O peration     | Version:  2212                                  |
|   \\  /    A nd           | Website:  www.openfoam.com                      |
|    \\/     M anipulation  |                                                 |
\*---------------------------------------------------------------------------*/
FoamFile
{
    version     2.0;
    format      ascii;
    arch        "LSB;label=64;scalar=64";
    class       volScalarField;
    location    "620";
    object      Gh2;
}
// * * * * * * * * * * * * * * * * * * * * * * * * * * * * * * * * * * * * * //

dimensions      [1 -3 0 0 0 0 0];

internalField   nonuniform List<scalar> 
1024
(
1.27907e-05
1.27892e-05
1.27857e-05
1.27795e-05
1.27699e-05
1.2757e-05
1.27409e-05
1.27225e-05
1.27031e-05
1.26839e-05
1.26662e-05
1.26512e-05
1.26402e-05
1.26348e-05
1.26366e-05
1.26475e-05
1.26671e-05
1.26909e-05
1.27151e-05
1.27387e-05
1.27613e-05
1.27826e-05
1.28027e-05
1.28214e-05
1.28382e-05
1.28527e-05
1.28646e-05
1.28736e-05
1.288e-05
1.28841e-05
1.28864e-05
1.28873e-05
1.27903e-05
1.27888e-05
1.27852e-05
1.27787e-05
1.27689e-05
1.27556e-05
1.27392e-05
1.27206e-05
1.2701e-05
1.26816e-05
1.26639e-05
1.26489e-05
1.26379e-05
1.26326e-05
1.26346e-05
1.26456e-05
1.26653e-05
1.26892e-05
1.27134e-05
1.2737e-05
1.27596e-05
1.27811e-05
1.28012e-05
1.282e-05
1.28369e-05
1.28516e-05
1.28638e-05
1.2873e-05
1.28796e-05
1.28838e-05
1.28862e-05
1.28871e-05
1.27895e-05
1.27879e-05
1.27841e-05
1.27772e-05
1.27669e-05
1.27529e-05
1.27358e-05
1.27166e-05
1.26965e-05
1.26767e-05
1.26585e-05
1.26433e-05
1.26323e-05
1.26272e-05
1.26296e-05
1.26411e-05
1.26613e-05
1.26855e-05
1.271e-05
1.27338e-05
1.27565e-05
1.27781e-05
1.27983e-05
1.28172e-05
1.28345e-05
1.28496e-05
1.28621e-05
1.28718e-05
1.28787e-05
1.28832e-05
1.28857e-05
1.28867e-05
1.27882e-05
1.27865e-05
1.27824e-05
1.2775e-05
1.27639e-05
1.2749e-05
1.27308e-05
1.27106e-05
1.26894e-05
1.26686e-05
1.26494e-05
1.26334e-05
1.26222e-05
1.26174e-05
1.26206e-05
1.26334e-05
1.26547e-05
1.26799e-05
1.2705e-05
1.27293e-05
1.27523e-05
1.2774e-05
1.27944e-05
1.28135e-05
1.2831e-05
1.28466e-05
1.28597e-05
1.287e-05
1.28774e-05
1.28822e-05
1.28849e-05
1.28859e-05
1.27864e-05
1.27846e-05
1.27801e-05
1.27722e-05
1.27601e-05
1.27441e-05
1.27245e-05
1.27026e-05
1.26796e-05
1.26567e-05
1.26356e-05
1.26182e-05
1.26063e-05
1.2602e-05
1.26067e-05
1.26216e-05
1.26452e-05
1.26722e-05
1.26987e-05
1.27239e-05
1.27474e-05
1.27694e-05
1.279e-05
1.28092e-05
1.28271e-05
1.28431e-05
1.28569e-05
1.28678e-05
1.28757e-05
1.28809e-05
1.28838e-05
1.28849e-05
1.27841e-05
1.27822e-05
1.27775e-05
1.2769e-05
1.2756e-05
1.27385e-05
1.27171e-05
1.26928e-05
1.26668e-05
1.26406e-05
1.26163e-05
1.25965e-05
1.25836e-05
1.25799e-05
1.2587e-05
1.26053e-05
1.26324e-05
1.26625e-05
1.26914e-05
1.27182e-05
1.27427e-05
1.27652e-05
1.27859e-05
1.28054e-05
1.28234e-05
1.28398e-05
1.28541e-05
1.28655e-05
1.2874e-05
1.28795e-05
1.28826e-05
1.28838e-05
1.27815e-05
1.27795e-05
1.27746e-05
1.27655e-05
1.27515e-05
1.27324e-05
1.27087e-05
1.26811e-05
1.26509e-05
1.26199e-05
1.2591e-05
1.25676e-05
1.25533e-05
1.25507e-05
1.25611e-05
1.25841e-05
1.26162e-05
1.2651e-05
1.26836e-05
1.27129e-05
1.27389e-05
1.27622e-05
1.27833e-05
1.28028e-05
1.28209e-05
1.28375e-05
1.28519e-05
1.28637e-05
1.28724e-05
1.28782e-05
1.28814e-05
1.28827e-05
1.27785e-05
1.27765e-05
1.27714e-05
1.27618e-05
1.27469e-05
1.27261e-05
1.26994e-05
1.26675e-05
1.26317e-05
1.25943e-05
1.25592e-05
1.25314e-05
1.25156e-05
1.25147e-05
1.25293e-05
1.25581e-05
1.25967e-05
1.26377e-05
1.26755e-05
1.27086e-05
1.2737e-05
1.27614e-05
1.2783e-05
1.28025e-05
1.28205e-05
1.28368e-05
1.28511e-05
1.28628e-05
1.28716e-05
1.28773e-05
1.28805e-05
1.28818e-05
1.27752e-05
1.27732e-05
1.27679e-05
1.2758e-05
1.27421e-05
1.27192e-05
1.2689e-05
1.26518e-05
1.26089e-05
1.25635e-05
1.25209e-05
1.2488e-05
1.2471e-05
1.24726e-05
1.24922e-05
1.25273e-05
1.25733e-05
1.26224e-05
1.26675e-05
1.27059e-05
1.27375e-05
1.27637e-05
1.27859e-05
1.28053e-05
1.28228e-05
1.28385e-05
1.28522e-05
1.28634e-05
1.28717e-05
1.28772e-05
1.28803e-05
1.28816e-05
1.27714e-05
1.27694e-05
1.2764e-05
1.27536e-05
1.27366e-05
1.27114e-05
1.2677e-05
1.26333e-05
1.25818e-05
1.25268e-05
1.24757e-05
1.24377e-05
1.242e-05
1.24247e-05
1.24493e-05
1.24904e-05
1.25443e-05
1.26034e-05
1.26583e-05
1.27043e-05
1.27407e-05
1.27694e-05
1.27925e-05
1.28117e-05
1.28284e-05
1.28429e-05
1.28555e-05
1.28656e-05
1.28731e-05
1.28781e-05
1.2881e-05
1.28822e-05
1.27668e-05
1.27647e-05
1.27591e-05
1.27482e-05
1.27297e-05
1.27016e-05
1.26621e-05
1.26106e-05
1.2549e-05
1.24831e-05
1.24229e-05
1.23801e-05
1.23622e-05
1.23697e-05
1.23977e-05
1.24429e-05
1.25042e-05
1.25752e-05
1.26438e-05
1.27014e-05
1.27455e-05
1.27782e-05
1.28028e-05
1.28219e-05
1.28374e-05
1.28503e-05
1.28611e-05
1.28698e-05
1.28762e-05
1.28806e-05
1.28831e-05
1.28843e-05
1.27608e-05
1.27586e-05
1.27527e-05
1.27408e-05
1.27204e-05
1.26886e-05
1.26427e-05
1.25817e-05
1.25081e-05
1.24301e-05
1.23607e-05
1.23134e-05
1.22952e-05
1.23032e-05
1.23306e-05
1.23755e-05
1.24419e-05
1.25259e-05
1.26124e-05
1.26881e-05
1.27461e-05
1.27871e-05
1.28155e-05
1.28352e-05
1.28495e-05
1.28605e-05
1.28693e-05
1.28762e-05
1.28813e-05
1.28849e-05
1.28871e-05
1.28881e-05
1.27523e-05
1.275e-05
1.27434e-05
1.27302e-05
1.27071e-05
1.26702e-05
1.26161e-05
1.25434e-05
1.2456e-05
1.23647e-05
1.22861e-05
1.22344e-05
1.22134e-05
1.22167e-05
1.22362e-05
1.22739e-05
1.23396e-05
1.24335e-05
1.25394e-05
1.264e-05
1.27229e-05
1.27834e-05
1.28235e-05
1.28483e-05
1.28635e-05
1.28732e-05
1.28799e-05
1.2885e-05
1.28888e-05
1.28915e-05
1.28932e-05
1.28939e-05
1.27399e-05
1.27372e-05
1.27298e-05
1.27145e-05
1.26873e-05
1.26434e-05
1.25785e-05
1.24917e-05
1.23886e-05
1.22834e-05
1.21955e-05
1.21378e-05
1.21092e-05
1.20994e-05
1.21019e-05
1.21223e-05
1.21746e-05
1.22645e-05
1.238e-05
1.2504e-05
1.26205e-05
1.27174e-05
1.27896e-05
1.28375e-05
1.28667e-05
1.28829e-05
1.28913e-05
1.28951e-05
1.2896e-05
1.28953e-05
1.2894e-05
1.28929e-05
1.27211e-05
1.27181e-05
1.27092e-05
1.26906e-05
1.26572e-05
1.26032e-05
1.25241e-05
1.24201e-05
1.23e-05
1.21819e-05
1.20854e-05
1.20194e-05
1.19778e-05
1.19485e-05
1.19275e-05
1.19209e-05
1.19404e-05
1.19951e-05
1.20834e-05
1.21966e-05
1.23226e-05
1.24475e-05
1.25602e-05
1.26531e-05
1.27241e-05
1.27717e-05
1.28004e-05
1.28133e-05
1.28149e-05
1.28103e-05
1.28043e-05
1.28004e-05
1.26931e-05
1.26894e-05
1.26785e-05
1.26556e-05
1.26147e-05
1.25495e-05
1.24562e-05
1.23371e-05
1.2204e-05
1.2076e-05
1.19712e-05
1.18952e-05
1.1841e-05
1.17983e-05
1.17638e-05
1.17378e-05
1.17198e-05
1.17121e-05
1.17214e-05
1.17522e-05
1.18054e-05
1.18773e-05
1.19611e-05
1.20493e-05
1.21342e-05
1.22092e-05
1.22714e-05
1.23175e-05
1.23472e-05
1.23627e-05
1.23684e-05
1.23692e-05
1.26605e-05
1.26563e-05
1.2644e-05
1.26185e-05
1.25735e-05
1.2503e-05
1.2404e-05
1.22802e-05
1.21434e-05
1.20124e-05
1.19048e-05
1.18282e-05
1.17792e-05
1.17516e-05
1.17419e-05
1.17449e-05
1.17442e-05
1.17229e-05
1.16813e-05
1.16298e-05
1.15791e-05
1.15385e-05
1.15141e-05
1.15083e-05
1.15207e-05
1.15479e-05
1.15843e-05
1.16237e-05
1.166e-05
1.16882e-05
1.17057e-05
1.1713e-05
1.26351e-05
1.26307e-05
1.26182e-05
1.25929e-05
1.25488e-05
1.24804e-05
1.2385e-05
1.2266e-05
1.21346e-05
1.2008e-05
1.19041e-05
1.18342e-05
1.18005e-05
1.18007e-05
1.18324e-05
1.18897e-05
1.19482e-05
1.19748e-05
1.19605e-05
1.19114e-05
1.1837e-05
1.17484e-05
1.16573e-05
1.15739e-05
1.15057e-05
1.14566e-05
1.14267e-05
1.14136e-05
1.14123e-05
1.14171e-05
1.14229e-05
1.14262e-05
1.26216e-05
1.26171e-05
1.26051e-05
1.25817e-05
1.25418e-05
1.24804e-05
1.23945e-05
1.22866e-05
1.21658e-05
1.20474e-05
1.19488e-05
1.18836e-05
1.18582e-05
1.18734e-05
1.19274e-05
1.20134e-05
1.21042e-05
1.21602e-05
1.21686e-05
1.2133e-05
1.20606e-05
1.19605e-05
1.18449e-05
1.17278e-05
1.1622e-05
1.15358e-05
1.14724e-05
1.14303e-05
1.14056e-05
1.13932e-05
1.13882e-05
1.13869e-05
1.262e-05
1.26153e-05
1.26039e-05
1.25829e-05
1.25484e-05
1.2496e-05
1.2423e-05
1.23301e-05
1.22241e-05
1.21175e-05
1.20262e-05
1.19643e-05
1.19409e-05
1.19592e-05
1.20181e-05
1.2111e-05
1.22111e-05
1.22785e-05
1.22992e-05
1.22737e-05
1.22061e-05
1.21023e-05
1.19719e-05
1.18293e-05
1.16916e-05
1.15738e-05
1.14842e-05
1.14239e-05
1.13883e-05
1.13705e-05
1.13634e-05
1.13616e-05
1.2629e-05
1.26242e-05
1.26133e-05
1.25943e-05
1.25647e-05
1.25211e-05
1.24612e-05
1.23849e-05
1.22964e-05
1.22053e-05
1.21249e-05
1.20681e-05
1.20447e-05
1.20596e-05
1.21128e-05
1.21978e-05
1.22888e-05
1.23499e-05
1.23685e-05
1.23445e-05
1.22803e-05
1.21793e-05
1.20479e-05
1.18969e-05
1.17426e-05
1.16025e-05
1.14902e-05
1.14111e-05
1.13631e-05
1.13389e-05
1.13297e-05
1.13277e-05
1.26456e-05
1.2641e-05
1.26307e-05
1.26135e-05
1.25877e-05
1.25515e-05
1.2503e-05
1.2442e-05
1.23712e-05
1.22976e-05
1.2231e-05
1.21824e-05
1.21602e-05
1.21696e-05
1.22105e-05
1.22767e-05
1.23445e-05
1.23853e-05
1.23899e-05
1.23587e-05
1.22928e-05
1.21944e-05
1.20668e-05
1.19177e-05
1.176e-05
1.16104e-05
1.14845e-05
1.13919e-05
1.13335e-05
1.13031e-05
1.12915e-05
1.12893e-05
1.26613e-05
1.26578e-05
1.26496e-05
1.26354e-05
1.26139e-05
1.25839e-05
1.25448e-05
1.24967e-05
1.24418e-05
1.23848e-05
1.23328e-05
1.22936e-05
1.22732e-05
1.22751e-05
1.22987e-05
1.23374e-05
1.23723e-05
1.23844e-05
1.23689e-05
1.23263e-05
1.2257e-05
1.21617e-05
1.20416e-05
1.19012e-05
1.17496e-05
1.16009e-05
1.14704e-05
1.13698e-05
1.13034e-05
1.12677e-05
1.12535e-05
1.12508e-05
1.26623e-05
1.26613e-05
1.26579e-05
1.265e-05
1.26355e-05
1.26131e-05
1.25829e-05
1.25459e-05
1.25041e-05
1.24609e-05
1.24209e-05
1.23883e-05
1.23663e-05
1.23564e-05
1.23571e-05
1.23625e-05
1.23604e-05
1.23423e-05
1.23067e-05
1.22534e-05
1.21822e-05
1.2092e-05
1.19827e-05
1.18558e-05
1.17168e-05
1.15766e-05
1.14487e-05
1.13457e-05
1.12745e-05
1.12342e-05
1.12177e-05
1.12143e-05
1.26336e-05
1.26365e-05
1.26407e-05
1.26434e-05
1.26405e-05
1.26294e-05
1.26097e-05
1.25831e-05
1.25513e-05
1.2517e-05
1.24823e-05
1.2449e-05
1.24184e-05
1.23905e-05
1.23641e-05
1.23355e-05
1.22996e-05
1.22563e-05
1.22056e-05
1.21461e-05
1.20763e-05
1.19942e-05
1.18984e-05
1.17884e-05
1.16667e-05
1.15405e-05
1.1421e-05
1.13203e-05
1.12473e-05
1.12038e-05
1.1185e-05
1.11808e-05
1.2565e-05
1.25723e-05
1.25856e-05
1.26011e-05
1.26131e-05
1.26164e-05
1.26088e-05
1.25912e-05
1.25651e-05
1.25324e-05
1.24944e-05
1.2452e-05
1.24059e-05
1.2357e-05
1.23051e-05
1.22487e-05
1.21887e-05
1.21298e-05
1.20718e-05
1.20118e-05
1.19473e-05
1.18759e-05
1.17954e-05
1.17041e-05
1.16024e-05
1.14942e-05
1.13876e-05
1.12936e-05
1.12218e-05
1.11767e-05
1.11558e-05
1.11508e-05
1.24526e-05
1.24639e-05
1.24846e-05
1.25102e-05
1.25345e-05
1.25502e-05
1.25523e-05
1.254e-05
1.25143e-05
1.2477e-05
1.24298e-05
1.23746e-05
1.23132e-05
1.22474e-05
1.21784e-05
1.21064e-05
1.20355e-05
1.19717e-05
1.19143e-05
1.18592e-05
1.18034e-05
1.17443e-05
1.16797e-05
1.16074e-05
1.15265e-05
1.14384e-05
1.13483e-05
1.12648e-05
1.11975e-05
1.11525e-05
1.11301e-05
1.11242e-05
1.22975e-05
1.23111e-05
1.23331e-05
1.23595e-05
1.23859e-05
1.24055e-05
1.24107e-05
1.2399e-05
1.23708e-05
1.23283e-05
1.2274e-05
1.22109e-05
1.21421e-05
1.20701e-05
1.19969e-05
1.19232e-05
1.18538e-05
1.17946e-05
1.17438e-05
1.16973e-05
1.16522e-05
1.16061e-05
1.15568e-05
1.15024e-05
1.14415e-05
1.13741e-05
1.13025e-05
1.12327e-05
1.11731e-05
1.11306e-05
1.11078e-05
1.11011e-05
1.21017e-05
1.21139e-05
1.21278e-05
1.21426e-05
1.21586e-05
1.21717e-05
1.21737e-05
1.21609e-05
1.21325e-05
1.20903e-05
1.20373e-05
1.1977e-05
1.19126e-05
1.18469e-05
1.17816e-05
1.17176e-05
1.1659e-05
1.16105e-05
1.15702e-05
1.15344e-05
1.15006e-05
1.1467e-05
1.14317e-05
1.13933e-05
1.13504e-05
1.13024e-05
1.12498e-05
1.11961e-05
1.11473e-05
1.111e-05
1.10884e-05
1.10812e-05
1.18634e-05
1.18689e-05
1.18663e-05
1.18629e-05
1.18633e-05
1.18656e-05
1.1863e-05
1.18509e-05
1.18275e-05
1.17935e-05
1.17512e-05
1.17038e-05
1.16539e-05
1.16037e-05
1.15546e-05
1.15072e-05
1.14646e-05
1.14299e-05
1.14016e-05
1.13769e-05
1.13541e-05
1.13318e-05
1.13087e-05
1.1284e-05
1.12565e-05
1.12256e-05
1.1191e-05
1.11542e-05
1.11187e-05
1.10896e-05
1.10712e-05
1.10643e-05
1.15744e-05
1.15682e-05
1.15519e-05
1.15381e-05
1.15298e-05
1.15258e-05
1.15216e-05
1.15133e-05
1.14987e-05
1.14778e-05
1.1452e-05
1.1423e-05
1.13928e-05
1.13626e-05
1.13332e-05
1.13052e-05
1.12801e-05
1.126e-05
1.12436e-05
1.12296e-05
1.12168e-05
1.12044e-05
1.11917e-05
1.11782e-05
1.11634e-05
1.11467e-05
1.11279e-05
1.11073e-05
1.10865e-05
1.10682e-05
1.10554e-05
1.105e-05
1.12223e-05
1.12169e-05
1.12075e-05
1.12001e-05
1.11953e-05
1.11927e-05
1.11907e-05
1.11878e-05
1.11831e-05
1.11763e-05
1.11678e-05
1.11583e-05
1.11484e-05
1.11385e-05
1.1129e-05
1.11199e-05
1.11118e-05
1.11053e-05
1.11001e-05
1.10956e-05
1.10915e-05
1.10876e-05
1.10836e-05
1.10795e-05
1.10749e-05
1.10698e-05
1.1064e-05
1.10575e-05
1.10509e-05
1.10448e-05
1.10402e-05
1.1038e-05
)
;

boundaryField
{
    movingWall
    {
        type            fixedValue;
        value           uniform 1.1032e-05;
    }
    fixedWalls
    {
        type            zeroGradient;
    }
    floor
    {
        type            zeroGradient;
    }
    frontAndBack
    {
        type            empty;
    }
}


// ************************************************************************* //
