/*--------------------------------*- C++ -*----------------------------------*\
| =========                 |                                                 |
| \\      /  F ield         | OpenFOAM: The Open Source CFD Toolbox           |
|  \\    /   O peration     | Version:  2212                                  |
|   \\  /    A nd           | Website:  www.openfoam.com                      |
|    \\/     M anipulation  |                                                 |
\*---------------------------------------------------------------------------*/
FoamFile
{
    version     2.0;
    format      ascii;
    arch        "LSB;label=64;scalar=64";
    class       volScalarField;
    location    "620";
    object      p;
}
// * * * * * * * * * * * * * * * * * * * * * * * * * * * * * * * * * * * * * //

dimensions      [0 2 -2 0 0 0 0];

internalField   nonuniform List<scalar> 
1024
(
0
-4.65171e-06
-8.02347e-06
-6.11037e-06
2.88123e-06
2.02151e-05
4.76562e-05
8.70157e-05
0.00013825
0.000195921
0.00024757
0.0002778
0.00027154
0.000228892
0.000143858
-3.46003e-06
-0.000200451
-0.000413527
-0.000604016
-0.000751615
-0.000854221
-0.000920484
-0.000960522
-0.000982945
-0.000994345
-0.000999612
-0.00100194
-0.00100275
-0.00100204
-0.000999345
-0.000995289
-0.000991881
-0.092813
-0.0928181
-0.0928218
-0.0928208
-0.0928141
-0.0927998
-0.0927757
-0.0927396
-0.0926916
-0.092637
-0.0925879
-0.0925594
-0.0925666
-0.0926095
-0.0926939
-0.0928398
-0.0930349
-0.0932458
-0.0934339
-0.0935792
-0.0936798
-0.0937443
-0.0937828
-0.0938038
-0.0938139
-0.0938178
-0.0938187
-0.0938182
-0.0938166
-0.0938137
-0.0938097
-0.093806
-0.199438
-0.199445
-0.19945
-0.199452
-0.199449
-0.19944
-0.199421
-0.199391
-0.199348
-0.199299
-0.199254
-0.199229
-0.199238
-0.199282
-0.199365
-0.199509
-0.1997
-0.199907
-0.200091
-0.200232
-0.200329
-0.20039
-0.200425
-0.200443
-0.20045
-0.200451
-0.200449
-0.200446
-0.200443
-0.200439
-0.200434
-0.200429
-0.321939
-0.321948
-0.321957
-0.321963
-0.321966
-0.321964
-0.321953
-0.321929
-0.321894
-0.321851
-0.321812
-0.321792
-0.321804
-0.32185
-0.321933
-0.322072
-0.322258
-0.32246
-0.322638
-0.322773
-0.322864
-0.32292
-0.32295
-0.322963
-0.322965
-0.322961
-0.322954
-0.322946
-0.32294
-0.322934
-0.322927
-0.32292
-0.46269
-0.462701
-0.462712
-0.462724
-0.462734
-0.462741
-0.462738
-0.462723
-0.462696
-0.462661
-0.462629
-0.462615
-0.462633
-0.462681
-0.462763
-0.462898
-0.463078
-0.463272
-0.463444
-0.463572
-0.463655
-0.463702
-0.463725
-0.463731
-0.463726
-0.463714
-0.463701
-0.463687
-0.463676
-0.463666
-0.463657
-0.463648
-0.624415
-0.624426
-0.624441
-0.624458
-0.624476
-0.62449
-0.624496
-0.62449
-0.624471
-0.624444
-0.624421
-0.624415
-0.624437
-0.624488
-0.62457
-0.6247
-0.624873
-0.625061
-0.625226
-0.625345
-0.625419
-0.625457
-0.625471
-0.625468
-0.625454
-0.625434
-0.625412
-0.625391
-0.625374
-0.62536
-0.625348
-0.625338
-0.81024
-0.81025
-0.810266
-0.810286
-0.81031
-0.810331
-0.810344
-0.810344
-0.810333
-0.810314
-0.8103
-0.810301
-0.810328
-0.810384
-0.810466
-0.810592
-0.810759
-0.810941
-0.8111
-0.811213
-0.811278
-0.811306
-0.811309
-0.811297
-0.811274
-0.811246
-0.811215
-0.811187
-0.811163
-0.811145
-0.811131
-0.81112
-1.02374
-1.02375
-1.02377
-1.02379
-1.02381
-1.02384
-1.02386
-1.02386
-1.02386
-1.02384
-1.02384
-1.02385
-1.02388
-1.02394
-1.02402
-1.02415
-1.02431
-1.02449
-1.02464
-1.02475
-1.02481
-1.02483
-1.02482
-1.0248
-1.02477
-1.02474
-1.0247
-1.02466
-1.02463
-1.02461
-1.0246
-1.02459
-1.26903
-1.26903
-1.26905
-1.26907
-1.26909
-1.26912
-1.26913
-1.26914
-1.26914
-1.26914
-1.26914
-1.26916
-1.2692
-1.26926
-1.26934
-1.26946
-1.26962
-1.2698
-1.26996
-1.27007
-1.27012
-1.27013
-1.27012
-1.27009
-1.27006
-1.27002
-1.26997
-1.26994
-1.2699
-1.26988
-1.26986
-1.26986
-1.55081
-1.55081
-1.55082
-1.55084
-1.55086
-1.55088
-1.5509
-1.5509
-1.55091
-1.55091
-1.55092
-1.55095
-1.55099
-1.55106
-1.55114
-1.55126
-1.55142
-1.5516
-1.55175
-1.55187
-1.55192
-1.55193
-1.55191
-1.55188
-1.55184
-1.5518
-1.55176
-1.55172
-1.55168
-1.55166
-1.55165
-1.55164
-1.87449
-1.87449
-1.8745
-1.87451
-1.87452
-1.87454
-1.87456
-1.87457
-1.87457
-1.87458
-1.8746
-1.87464
-1.87469
-1.87476
-1.87484
-1.87496
-1.87512
-1.87529
-1.87545
-1.87557
-1.87563
-1.87564
-1.87562
-1.87558
-1.87554
-1.8755
-1.87545
-1.87541
-1.87538
-1.87535
-1.87534
-1.87534
-2.2463
-2.2463
-2.2463
-2.24631
-2.24632
-2.24633
-2.24634
-2.24635
-2.24636
-2.24638
-2.24641
-2.24645
-2.24651
-2.24658
-2.24667
-2.24679
-2.24694
-2.24711
-2.24727
-2.24739
-2.24746
-2.24747
-2.24744
-2.2474
-2.24736
-2.24731
-2.24725
-2.24721
-2.24717
-2.24715
-2.24714
-2.24714
-2.67339
-2.67339
-2.6734
-2.6734
-2.67341
-2.67341
-2.67342
-2.67343
-2.67345
-2.67347
-2.67351
-2.67356
-2.67362
-2.6737
-2.6738
-2.67392
-2.67406
-2.67421
-2.67434
-2.67446
-2.67453
-2.67453
-2.6745
-2.67445
-2.67439
-2.67432
-2.67426
-2.67421
-2.67418
-2.67416
-2.67416
-2.67416
-3.16401
-3.16401
-3.16401
-3.16401
-3.16402
-3.16402
-3.16403
-3.16404
-3.16406
-3.16409
-3.16414
-3.1642
-3.16427
-3.16436
-3.16446
-3.16458
-3.1647
-3.16481
-3.1649
-3.16497
-3.165
-3.16499
-3.16494
-3.16486
-3.16478
-3.1647
-3.16464
-3.1646
-3.16457
-3.16457
-3.16457
-3.16457
-3.72761
-3.72762
-3.72762
-3.72762
-3.72762
-3.72762
-3.72762
-3.72764
-3.72767
-3.72771
-3.72777
-3.72784
-3.72793
-3.72803
-3.72814
-3.72825
-3.72835
-3.72841
-3.72843
-3.72841
-3.72834
-3.72825
-3.72814
-3.72803
-3.72792
-3.72785
-3.72781
-3.7278
-3.72779
-3.7278
-3.72781
-3.72781
-4.3751
-4.3751
-4.37511
-4.37511
-4.37511
-4.37512
-4.37513
-4.37515
-4.37518
-4.37523
-4.37529
-4.37538
-4.37548
-4.3756
-4.37572
-4.37583
-4.37591
-4.37593
-4.37588
-4.37579
-4.37564
-4.37546
-4.37528
-4.3751
-4.37497
-4.37488
-4.37484
-4.37483
-4.37483
-4.37484
-4.37484
-4.37485
-5.0675
-5.0675
-5.0675
-5.06751
-5.06752
-5.06753
-5.06755
-5.06758
-5.06762
-5.06767
-5.06774
-5.06783
-5.06793
-5.06805
-5.06818
-5.0683
-5.06837
-5.06836
-5.06829
-5.06816
-5.068
-5.06781
-5.06761
-5.06742
-5.06726
-5.06714
-5.06707
-5.06704
-5.06704
-5.06704
-5.06705
-5.06706
-5.7151
-5.7151
-5.7151
-5.71511
-5.71513
-5.71516
-5.71519
-5.71522
-5.71527
-5.71532
-5.7154
-5.71549
-5.7156
-5.71572
-5.71584
-5.71594
-5.71599
-5.71596
-5.71588
-5.71575
-5.7156
-5.71543
-5.71525
-5.71508
-5.71493
-5.71481
-5.71473
-5.71468
-5.71466
-5.71466
-5.71467
-5.71468
-6.2788
-6.2788
-6.2788
-6.27882
-6.27884
-6.27888
-6.27893
-6.27898
-6.27904
-6.2791
-6.27918
-6.27927
-6.27938
-6.2795
-6.27961
-6.27969
-6.27972
-6.27967
-6.27957
-6.27944
-6.2793
-6.27914
-6.27899
-6.27884
-6.2787
-6.27858
-6.27849
-6.27843
-6.2784
-6.27839
-6.2784
-6.27841
-6.76944
-6.76943
-6.76944
-6.76945
-6.76948
-6.76953
-6.7696
-6.76967
-6.76974
-6.76982
-6.76991
-6.77001
-6.77012
-6.77024
-6.77035
-6.77042
-6.77042
-6.77034
-6.77022
-6.77008
-6.76993
-6.76978
-6.76963
-6.76949
-6.76937
-6.76925
-6.76916
-6.7691
-6.76906
-6.76905
-6.76905
-6.76906
-7.19647
-7.19646
-7.19646
-7.19647
-7.19651
-7.19657
-7.19665
-7.19674
-7.19683
-7.19693
-7.19704
-7.19715
-7.19728
-7.1974
-7.19751
-7.19757
-7.19754
-7.19744
-7.1973
-7.19714
-7.19697
-7.19681
-7.19665
-7.19652
-7.1964
-7.19629
-7.1962
-7.19613
-7.19609
-7.19607
-7.19607
-7.19608
-7.56815
-7.56814
-7.56814
-7.56815
-7.56818
-7.56824
-7.56832
-7.56843
-7.56855
-7.56867
-7.56881
-7.56895
-7.56909
-7.56922
-7.56933
-7.56938
-7.56934
-7.56922
-7.56905
-7.56887
-7.56868
-7.56849
-7.56832
-7.56817
-7.56804
-7.56793
-7.56784
-7.56777
-7.56772
-7.5677
-7.5677
-7.5677
-7.89168
-7.89167
-7.89166
-7.89167
-7.89169
-7.89174
-7.89182
-7.89193
-7.89207
-7.89222
-7.89238
-7.89255
-7.89272
-7.89287
-7.89299
-7.89304
-7.89298
-7.89284
-7.89266
-7.89245
-7.89224
-7.89203
-7.89183
-7.89166
-7.89151
-7.89138
-7.89128
-7.89119
-7.89114
-7.89111
-7.89111
-7.89112
-8.17331
-8.1733
-8.17329
-8.17329
-8.1733
-8.17334
-8.1734
-8.1735
-8.17365
-8.17382
-8.17402
-8.17422
-8.17442
-8.17459
-8.17472
-8.17477
-8.17471
-8.17456
-8.17436
-8.17414
-8.1739
-8.17367
-8.17345
-8.17324
-8.17305
-8.1729
-8.17277
-8.17267
-8.1726
-8.17256
-8.17255
-8.17256
-8.41848
-8.41848
-8.41847
-8.41846
-8.41845
-8.41846
-8.4185
-8.41859
-8.41873
-8.41892
-8.41915
-8.41939
-8.41962
-8.41982
-8.41996
-8.42002
-8.41996
-8.4198
-8.41959
-8.41935
-8.4191
-8.41885
-8.4186
-8.41836
-8.41813
-8.41793
-8.41776
-8.41762
-8.41753
-8.41747
-8.41745
-8.41746
-8.63192
-8.63192
-8.63191
-8.63189
-8.63187
-8.63184
-8.63185
-8.63192
-8.63206
-8.63228
-8.63253
-8.63281
-8.63307
-8.63329
-8.63345
-8.63351
-8.63345
-8.63329
-8.63307
-8.63283
-8.63256
-8.63229
-8.63201
-8.63174
-8.63148
-8.63123
-8.631
-8.63081
-8.63066
-8.63056
-8.63052
-8.63052
-8.81774
-8.81774
-8.81773
-8.8177
-8.81765
-8.8176
-8.81757
-8.81763
-8.81777
-8.818
-8.81828
-8.81859
-8.81888
-8.81912
-8.81929
-8.81936
-8.81931
-8.81914
-8.81892
-8.81867
-8.81839
-8.81811
-8.81781
-8.81751
-8.81721
-8.81691
-8.81662
-8.81635
-8.81613
-8.81596
-8.81587
-8.81584
-8.97952
-8.97952
-8.9795
-8.97945
-8.97937
-8.97929
-8.97925
-8.97929
-8.97944
-8.97969
-8.97999
-8.98032
-8.98063
-8.98089
-8.98108
-8.98115
-8.9811
-8.98094
-8.98071
-8.98046
-8.98018
-8.97988
-8.97957
-8.97925
-8.97891
-8.97856
-8.9782
-8.97785
-8.97753
-8.97725
-8.97706
-8.97697
-9.12041
-9.1204
-9.12035
-9.12027
-9.12016
-9.12006
-9.12
-9.12004
-9.12019
-9.12045
-9.12078
-9.12113
-9.12145
-9.12172
-9.12192
-9.122
-9.12195
-9.12178
-9.12156
-9.1213
-9.12102
-9.12072
-9.1204
-9.12006
-9.11969
-9.1193
-9.11889
-9.11845
-9.11799
-9.11756
-9.11722
-9.117
-9.24319
-9.24312
-9.24301
-9.24287
-9.24273
-9.2426
-9.24253
-9.24257
-9.24274
-9.24301
-9.24335
-9.24371
-9.24405
-9.24433
-9.24453
-9.24461
-9.24456
-9.2444
-9.24418
-9.24392
-9.24363
-9.24333
-9.243
-9.24265
-9.24227
-9.24186
-9.24139
-9.24087
-9.24028
-9.23964
-9.23902
-9.23847
-9.35043
-9.35005
-9.34979
-9.3496
-9.34943
-9.34929
-9.34922
-9.34926
-9.34944
-9.34972
-9.35006
-9.35043
-9.35078
-9.35106
-9.35127
-9.35136
-9.35131
-9.35115
-9.35093
-9.35067
-9.35038
-9.35007
-9.34975
-9.34939
-9.34901
-9.34857
-9.34808
-9.3475
-9.3468
-9.34592
-9.34483
-9.34357
-9.44439
-9.44317
-9.44268
-9.44248
-9.44231
-9.44217
-9.4421
-9.44215
-9.44233
-9.44262
-9.44297
-9.44334
-9.44369
-9.44399
-9.44419
-9.44428
-9.44424
-9.44408
-9.44386
-9.4436
-9.44331
-9.443
-9.44268
-9.44232
-9.44193
-9.4415
-9.441
-9.44039
-9.43961
-9.43854
-9.43695
-9.43469
)
;

boundaryField
{
    movingWall
    {
        type            calculated;
        value           nonuniform List<scalar> 
32
(
-9.48764
-9.48641
-9.48593
-9.48573
-9.48556
-9.48541
-9.48535
-9.4854
-9.48558
-9.48586
-9.48622
-9.48659
-9.48694
-9.48723
-9.48744
-9.48753
-9.48749
-9.48733
-9.4871
-9.48684
-9.48656
-9.48625
-9.48593
-9.48557
-9.48518
-9.48475
-9.48425
-9.48364
-9.48286
-9.48179
-9.4802
-9.47794
)
;
    }
    fixedWalls
    {
        type            calculated;
        value           nonuniform List<scalar> 
64
(
6.93889e-18
-0.092813
-0.199438
-0.321939
-0.46269
-0.624415
-0.81024
-1.02374
-1.26903
-1.55081
-1.87449
-2.2463
-2.67339
-3.16401
-3.72761
-4.3751
-5.0675
-5.7151
-6.2788
-6.76944
-7.19647
-7.56815
-7.89168
-8.17331
-8.41848
-8.63192
-8.81774
-8.97952
-9.12041
-9.24319
-9.35043
-9.44439
-0.000991881
-0.093806
-0.200429
-0.32292
-0.463648
-0.625338
-0.81112
-1.02459
-1.26986
-1.55164
-1.87534
-2.24714
-2.67416
-3.16457
-3.72781
-4.37485
-5.06706
-5.71468
-6.27841
-6.76906
-7.19608
-7.5677
-7.89112
-8.17256
-8.41746
-8.63052
-8.81584
-8.97697
-9.117
-9.23847
-9.34357
-9.43469
)
;
    }
    floor
    {
        type            calculated;
        value           nonuniform List<scalar> 
32
(
0.0431957
0.0431911
0.0431878
0.04319
0.0431993
0.043217
0.0432449
0.0432846
0.0433363
0.0433944
0.0434464
0.0434769
0.0434708
0.0434283
0.0433432
0.0431957
0.0429984
0.042785
0.0425941
0.0424462
0.0423433
0.0422768
0.0422365
0.0422139
0.0422023
0.0421968
0.0421942
0.0421932
0.0421937
0.0421963
0.0422003
0.0422037
)
;
    }
    frontAndBack
    {
        type            empty;
    }
}


// ************************************************************************* //
