/*--------------------------------*- C++ -*----------------------------------*\
| =========                 |                                                 |
| \\      /  F ield         | OpenFOAM: The Open Source CFD Toolbox           |
|  \\    /   O peration     | Version:  2212                                  |
|   \\  /    A nd           | Website:  www.openfoam.com                      |
|    \\/     M anipulation  |                                                 |
\*---------------------------------------------------------------------------*/
FoamFile
{
    version     2.0;
    format      ascii;
    arch        "LSB;label=64;scalar=64";
    class       volScalarField;
    location    "620";
    object      p_rgh;
}
// * * * * * * * * * * * * * * * * * * * * * * * * * * * * * * * * * * * * * //

dimensions      [0 2 -2 0 0 0 0];

internalField   nonuniform List<scalar> 
1024
(
0.0431957
0.0431911
0.0431878
0.04319
0.0431993
0.043217
0.0432449
0.0432846
0.0433363
0.0433944
0.0434464
0.0434769
0.0434708
0.0434283
0.0433432
0.0431957
0.0429984
0.042785
0.0425941
0.0424462
0.0423433
0.0422768
0.0422365
0.0422139
0.0422023
0.0421968
0.0421942
0.0421932
0.0421937
0.0421963
0.0422003
0.0422037
0.0432072
0.0432026
0.0432004
0.0432037
0.0432138
0.0432319
0.04326
0.0433002
0.0433524
0.0434113
0.0434641
0.0434951
0.0434894
0.0434473
0.0433624
0.0432146
0.0430167
0.0428026
0.0426109
0.0424624
0.042359
0.0422919
0.0422511
0.042228
0.0422158
0.0422098
0.0422068
0.0422052
0.0422049
0.0422064
0.0422097
0.0422131
0.0432255
0.0432204
0.0432196
0.043226
0.0432395
0.0432608
0.0432921
0.0433356
0.0433915
0.0434538
0.043509
0.0435415
0.0435365
0.043495
0.0434101
0.0432613
0.0430618
0.0428454
0.042651
0.0424997
0.0423939
0.0423249
0.0422824
0.0422576
0.042244
0.0422365
0.0422317
0.042228
0.0422254
0.0422249
0.0422275
0.0422317
0.0432435
0.0432383
0.0432404
0.0432529
0.043274
0.0433036
0.0433431
0.0433945
0.0434581
0.0435262
0.0435848
0.0436189
0.0436145
0.0435734
0.0434883
0.0433388
0.0431377
0.0429183
0.0427195
0.0425629
0.0424526
0.0423796
0.0423335
0.0423055
0.0422889
0.0422783
0.0422699
0.0422618
0.0422546
0.0422505
0.042252
0.0422571
0.0432506
0.0432468
0.0432547
0.0432779
0.0433129
0.0433574
0.0434115
0.0434759
0.0435501
0.0436242
0.043685
0.0437188
0.0437138
0.0436724
0.0435874
0.0434389
0.0432384
0.0430179
0.0428156
0.0426529
0.0425367
0.042458
0.0424064
0.0423732
0.0423513
0.0423351
0.0423201
0.0423043
0.042289
0.0422786
0.0422774
0.0422829
0.0432342
0.0432336
0.043251
0.0432908
0.0433473
0.0434145
0.0434897
0.0435711
0.0436558
0.043733
0.0437922
0.0438228
0.0438153
0.0437716
0.043687
0.0435424
0.0433464
0.043129
0.0429274
0.0427618
0.042641
0.0425567
0.0424985
0.0424579
0.0424279
0.0424024
0.0423764
0.0423479
0.0423197
0.0422991
0.0422927
0.0422974
0.0431847
0.0431886
0.0432187
0.0432806
0.043366
0.0434635
0.0435651
0.0436651
0.0437574
0.0438337
0.0438874
0.0439115
0.0438996
0.0438515
0.0437667
0.0436273
0.0434387
0.0432287
0.0430333
0.0428723
0.0427514
0.0426644
0.0426006
0.0425514
0.0425102
0.0424707
0.0424277
0.0423799
0.0423326
0.0422971
0.0422824
0.0422849
0.0430996
0.0431085
0.0431525
0.0432401
0.0433602
0.0434938
0.0436253
0.0437438
0.0438411
0.0439137
0.0439598
0.0439756
0.0439572
0.0439046
0.0438172
0.0436813
0.0434991
0.0432971
0.0431109
0.0429616
0.0428474
0.0427638
0.0426977
0.0426404
0.0425855
0.0425269
0.0424598
0.042385
0.0423119
0.0422569
0.0422318
0.042231
0.0429852
0.0429986
0.0430556
0.0431694
0.0433268
0.0434999
0.0436633
0.0438007
0.0439031
0.0439728
0.0440117
0.0440189
0.0439929
0.0439341
0.043842
0.0437059
0.0435254
0.0433269
0.0431476
0.04301
0.0429102
0.0428374
0.0427747
0.0427114
0.042641
0.0425583
0.0424598
0.0423502
0.0422457
0.042169
0.0421331
0.0421288
0.0428533
0.04287
0.0429374
0.0430746
0.0432687
0.0434828
0.0436801
0.0438386
0.0439501
0.0440204
0.044054
0.0440524
0.0440172
0.0439502
0.0438513
0.0437115
0.0435265
0.0433235
0.0431431
0.0430134
0.0429316
0.042875
0.0428213
0.0427543
0.0426671
0.0425554
0.042419
0.0422694
0.0421319
0.0420356
0.0419918
0.0419847
0.042716
0.0427347
0.0428093
0.0429656
0.0431933
0.0434482
0.0436824
0.0438669
0.043994
0.0440692
0.0440989
0.0440879
0.0440413
0.0439636
0.0438552
0.0437079
0.0435151
0.0433004
0.043107
0.0429754
0.042913
0.042875
0.0428338
0.0427637
0.042657
0.0425116
0.0423331
0.0421446
0.0419816
0.0418751
0.041829
0.041821
0.0425818
0.0426015
0.0426809
0.042852
0.0431094
0.0434052
0.0436808
0.0438983
0.0440465
0.0441295
0.044155
0.0441328
0.0440728
0.0439824
0.0438626
0.0437051
0.0435009
0.0432702
0.0430593
0.0429065
0.0428341
0.042832
0.042805
0.0427277
0.0425978
0.0424171
0.042199
0.0419903
0.0418275
0.041729
0.0416885
0.0416812
0.0424525
0.042473
0.0425563
0.0427402
0.0430257
0.0433637
0.0436861
0.0439429
0.0441139
0.0442041
0.0442231
0.0441883
0.0441149
0.044012
0.0438807
0.0437127
0.0434986
0.043254
0.0430196
0.0428285
0.0427129
0.042693
0.0426742
0.0425942
0.042455
0.0422696
0.0420638
0.0418755
0.0417353
0.041655
0.041624
0.0416185
0.0423212
0.042343
0.042432
0.0426314
0.0429478
0.0433331
0.0437094
0.0440106
0.044203
0.0442863
0.0442933
0.0442483
0.0441662
0.0440559
0.0439175
0.043744
0.0435292
0.0432857
0.0430438
0.0428225
0.0426409
0.0425169
0.0424587
0.0424044
0.0423034
0.0421643
0.0420072
0.0418636
0.0417601
0.0417051
0.0416871
0.0416852
0.0421684
0.0421934
0.0422935
0.0425169
0.0428758
0.0433212
0.0437619
0.0441111
0.0443233
0.0444062
0.0443978
0.0443359
0.0442427
0.0441262
0.0439884
0.0438196
0.0436219
0.0434149
0.043223
0.0430531
0.0429052
0.0427725
0.0426444
0.0425124
0.0423897
0.0422912
0.0421754
0.0420659
0.0419906
0.0419582
0.0419555
0.0419608
0.0419404
0.0419714
0.042087
0.0423406
0.0427482
0.0432566
0.0437582
0.0441509
0.0443918
0.0444998
0.0445161
0.0444741
0.0443907
0.0442703
0.0441132
0.0439339
0.0437495
0.0435898
0.0434835
0.0434353
0.0434386
0.0434762
0.0435208
0.0435367
0.043483
0.0433292
0.0431332
0.0429341
0.0427768
0.0426984
0.0426817
0.0426852
0.0415851
0.0416222
0.0417496
0.042024
0.0424672
0.0430254
0.0435813
0.0440246
0.0443129
0.0444665
0.0445246
0.0445176
0.0444589
0.0443496
0.0441865
0.0439711
0.0437383
0.0435476
0.0434343
0.0433963
0.0434254
0.0435088
0.04363
0.0437697
0.0439089
0.0440318
0.0441262
0.0441887
0.0442172
0.0442074
0.0441851
0.0441765
0.041203
0.0412445
0.0413736
0.0416471
0.0420998
0.042686
0.0432892
0.0437898
0.0441366
0.0443413
0.044442
0.0444665
0.0444266
0.0443206
0.0441422
0.0438914
0.0435915
0.0433243
0.0431494
0.0430532
0.0430197
0.0430374
0.0430962
0.0431857
0.0432952
0.0434151
0.0435417
0.0436765
0.0438214
0.0439664
0.0440846
0.0441469
0.040913
0.0409584
0.0410849
0.04134
0.041758
0.0423191
0.0429479
0.0435114
0.0439207
0.0441817
0.0443278
0.0443859
0.044368
0.0442719
0.0440842
0.0437939
0.04342
0.0430853
0.0428639
0.0427335
0.0426635
0.0426379
0.0426479
0.0426883
0.0427532
0.0428363
0.0429343
0.0430473
0.0431782
0.0433236
0.0434592
0.0435412
0.0407383
0.0407873
0.0409096
0.0411423
0.0415165
0.0420259
0.0426152
0.043186
0.0436481
0.0439719
0.0441688
0.0442614
0.0442631
0.0441733
0.0439753
0.0436499
0.0432222
0.0428553
0.0426011
0.0424619
0.0423892
0.0423596
0.0423596
0.042382
0.042425
0.0424834
0.0425557
0.0426412
0.0427427
0.0428609
0.0429797
0.0430578
0.0406573
0.0407087
0.0408267
0.0410376
0.0413669
0.0418158
0.0423456
0.0428831
0.0433509
0.0437038
0.0439326
0.0440465
0.0440535
0.0439524
0.0437275
0.0433634
0.0429398
0.042608
0.0423827
0.0422514
0.0421898
0.0421763
0.0421917
0.0422215
0.0422684
0.0423226
0.0423838
0.0424519
0.0425298
0.0426214
0.042718
0.0427859
0.0406427
0.040693
0.040804
0.0409943
0.0412838
0.0416753
0.0421406
0.0426236
0.04306
0.0434025
0.0436301
0.0437412
0.0437372
0.0436156
0.0433677
0.0429939
0.0426047
0.0423253
0.0421473
0.0420546
0.0420275
0.0420475
0.0420965
0.0421612
0.0422327
0.0422989
0.0423634
0.0424265
0.0424904
0.0425611
0.0426372
0.0426938
0.0406829
0.040725
0.0408205
0.0409873
0.0412418
0.0415848
0.0419925
0.0424167
0.0428005
0.0431005
0.0432932
0.0433727
0.0433392
0.0431919
0.0429307
0.0425725
0.0422363
0.0420206
0.041903
0.0418647
0.0418867
0.0419526
0.0420463
0.0421551
0.0422651
0.0423639
0.0424484
0.042519
0.0425804
0.0426382
0.042697
0.042743
0.0407817
0.0408062
0.0408728
0.0410066
0.0412262
0.0415298
0.0418908
0.0422605
0.0425839
0.0428211
0.0429531
0.0429774
0.0428986
0.0427213
0.0424544
0.0421267
0.0418541
0.041708
0.0416571
0.0416801
0.0417584
0.0418765
0.0420204
0.0421776
0.0423353
0.0424792
0.0426001
0.0426938
0.0427671
0.0428228
0.0428693
0.0429054
0.0409346
0.0409366
0.040964
0.0410543
0.0412357
0.0415058
0.0418291
0.042149
0.0424086
0.0425718
0.042628
0.0425838
0.042451
0.0422428
0.0419765
0.0416878
0.0414815
0.041406
0.0414221
0.0415062
0.0416405
0.0418109
0.0420053
0.0422128
0.0424215
0.0426176
0.0427891
0.0429256
0.0430269
0.0430973
0.0431404
0.0431697
0.0411045
0.0410872
0.0410795
0.041128
0.0412728
0.0415133
0.0418036
0.042075
0.0422675
0.0423515
0.0423267
0.0422102
0.0420237
0.0417886
0.0415294
0.0412847
0.0411438
0.0411349
0.041213
0.0413526
0.0415369
0.0417536
0.0419935
0.042248
0.042508
0.0427606
0.042993
0.0431903
0.043342
0.0434517
0.0435096
0.0435409
0.0412515
0.0412218
0.0411943
0.0412175
0.0413372
0.0415525
0.04181
0.0420298
0.0421519
0.0421559
0.0420523
0.041869
0.0416366
0.0413835
0.0411385
0.0409402
0.0408607
0.0409105
0.0410414
0.041227
0.0414518
0.0417056
0.0419823
0.0422768
0.0425834
0.0428926
0.0431925
0.0434663
0.0436973
0.043875
0.0439812
0.0440335
0.0413484
0.0413146
0.0412875
0.0413137
0.0414218
0.0416178
0.0418398
0.0420033
0.0420541
0.0419828
0.0418103
0.0415725
0.0413069
0.0410462
0.040821
0.0406676
0.0406416
0.0407392
0.0409111
0.0411313
0.0413858
0.0416667
0.0419704
0.0422955
0.0426405
0.043001
0.0433698
0.0437323
0.0440691
0.044355
0.0445556
0.0446623
0.0413708
0.0413486
0.0413489
0.0414062
0.041522
0.0417011
0.0418846
0.0419895
0.0419733
0.0418371
0.0416097
0.0413328
0.0410471
0.0407875
0.0405838
0.0404688
0.0404848
0.0406177
0.0408184
0.0410622
0.0413366
0.0416355
0.0419571
0.0423032
0.0426763
0.0430779
0.0435088
0.043964
0.0444306
0.0448763
0.0452314
0.0454661
0.041256
0.0412974
0.0413761
0.041491
0.041631
0.0417982
0.0419399
0.0419886
0.0419147
0.0417275
0.0414607
0.0411585
0.0408629
0.0406083
0.040423
0.0403362
0.0403813
0.0405373
0.0407564
0.0410148
0.0413009
0.0416104
0.0419423
0.0423008
0.0426911
0.0431204
0.0435985
0.0441358
0.0447406
0.0453984
0.0460313
0.0465915
0.0407994
0.0411641
0.0414049
0.0415835
0.041749
0.0419041
0.042006
0.0420065
0.0418882
0.0416641
0.0413705
0.0410525
0.0407518
0.0405016
0.0403283
0.0402586
0.0403205
0.0404896
0.0407185
0.0409845
0.0412765
0.0415908
0.0419274
0.042291
0.0426887
0.0431315
0.0436364
0.0442294
0.0449492
0.0458446
0.0469531
0.048223
0.0397907
0.0410107
0.0414859
0.0416779
0.041845
0.0419892
0.0420654
0.0420358
0.0418899
0.041644
0.0413353
0.0410086
0.0407049
0.0404561
0.0402877
0.0402252
0.0402937
0.0404679
0.0407006
0.0409694
0.0412633
0.0415788
0.0419164
0.0422804
0.042679
0.0431248
0.0436388
0.0442585
0.0450514
0.0461388
0.0477475
0.0500209
)
;

boundaryField
{
    movingWall
    {
        type            fixedFluxPressure;
        gradient        uniform 0;
        value           nonuniform List<scalar> 
32
(
0.0397907
0.0410107
0.0414859
0.0416779
0.041845
0.0419892
0.0420654
0.0420358
0.0418899
0.041644
0.0413353
0.0410086
0.0407049
0.0404561
0.0402877
0.0402252
0.0402937
0.0404679
0.0407006
0.0409694
0.0412633
0.0415788
0.0419164
0.0422804
0.042679
0.0431248
0.0436388
0.0442585
0.0450514
0.0461388
0.0477475
0.0500209
)
;
    }
    fixedWalls
    {
        type            fixedFluxPressure;
        gradient        uniform 0;
        value           nonuniform List<scalar> 
64
(
0.0431957
0.0432072
0.0432255
0.0432435
0.0432506
0.0432342
0.0431847
0.0430996
0.0429852
0.0428533
0.042716
0.0425818
0.0424525
0.0423212
0.0421684
0.0419404
0.0415851
0.041203
0.040913
0.0407383
0.0406573
0.0406427
0.0406829
0.0407817
0.0409346
0.0411045
0.0412515
0.0413484
0.0413708
0.041256
0.0407994
0.0397907
0.0422037
0.0422131
0.0422317
0.0422571
0.0422829
0.0422974
0.0422849
0.042231
0.0421288
0.0419847
0.041821
0.0416812
0.0416185
0.0416852
0.0419608
0.0426852
0.0441765
0.0441469
0.0435412
0.0430578
0.0427859
0.0426938
0.042743
0.0429054
0.0431697
0.0435409
0.0440335
0.0446623
0.0454661
0.0465915
0.048223
0.0500209
)
;
    }
    floor
    {
        type            fixedFluxPressure;
        gradient        uniform 0;
        value           nonuniform List<scalar> 
32
(
0.0431957
0.0431911
0.0431878
0.04319
0.0431993
0.043217
0.0432449
0.0432846
0.0433363
0.0433944
0.0434464
0.0434769
0.0434708
0.0434283
0.0433432
0.0431957
0.0429984
0.042785
0.0425941
0.0424462
0.0423433
0.0422768
0.0422365
0.0422139
0.0422023
0.0421968
0.0421942
0.0421932
0.0421937
0.0421963
0.0422003
0.0422037
)
;
    }
    frontAndBack
    {
        type            empty;
    }
}


// ************************************************************************* //
