/*--------------------------------*- C++ -*----------------------------------*\
| =========                 |                                                 |
| \\      /  F ield         | OpenFOAM: The Open Source CFD Toolbox           |
|  \\    /   O peration     | Version:  2212                                  |
|   \\  /    A nd           | Website:  www.openfoam.com                      |
|    \\/     M anipulation  |                                                 |
\*---------------------------------------------------------------------------*/
FoamFile
{
    version     2.0;
    format      ascii;
    arch        "LSB;label=64;scalar=64";
    class       volScalarField;
    location    "620";
    object      Sco2;
}
// * * * * * * * * * * * * * * * * * * * * * * * * * * * * * * * * * * * * * //

dimensions      [1 -3 0 0 0 0 0];

internalField   nonuniform List<scalar> 
1024
(
0.0054677
0.00547065
0.00547785
0.00549068
0.00551025
0.00553696
0.00557014
0.00560804
0.00564823
0.00568815
0.00572516
0.00575678
0.0057803
0.00579261
0.00579003
0.00576874
0.00572922
0.00568083
0.0056314
0.00558306
0.00553681
0.0054931
0.00545214
0.00541427
0.00538021
0.00535082
0.00532684
0.00530853
0.00529563
0.00528737
0.00528278
0.0052809
0.00546839
0.00547145
0.00547891
0.00549218
0.00551236
0.00553977
0.00557362
0.00561205
0.00565263
0.00569281
0.00572998
0.00576166
0.00578512
0.00579726
0.0057944
0.00577282
0.00573308
0.00568453
0.00563497
0.00558653
0.00554017
0.00549634
0.00545522
0.00541713
0.00538274
0.00535293
0.00532848
0.00530972
0.00529646
0.00528795
0.00528323
0.0052813
0.00547002
0.00547326
0.00548118
0.00549526
0.0055166
0.00554537
0.00558058
0.00562025
0.00566191
0.00570305
0.00574104
0.00577327
0.00579685
0.00580863
0.00580494
0.0057823
0.00574159
0.00569228
0.00564217
0.00559332
0.00554667
0.00550261
0.00546122
0.00542274
0.00538777
0.00535718
0.00533183
0.00531221
0.00529823
0.00528924
0.00528426
0.00528222
0.00547271
0.00547618
0.00548469
0.00549985
0.00552276
0.00555346
0.00559079
0.00563264
0.00567651
0.00571991
0.00576001
0.00579381
0.00581802
0.00582923
0.00582383
0.00579875
0.00575564
0.00570436
0.00565278
0.00560294
0.00555567
0.00551119
0.00546946
0.00543052
0.00539484
0.00536324
0.0053367
0.0053159
0.00530094
0.00529127
0.0052859
0.00528372
0.00547644
0.00548014
0.00548929
0.00550567
0.00553042
0.00556357
0.00560384
0.0056491
0.00569684
0.00574447
0.00578868
0.00582565
0.00585129
0.00586172
0.00585333
0.00582384
0.00577614
0.00572095
0.00566642
0.00561458
0.00556607
0.00552089
0.00547871
0.00543931
0.00540294
0.00537032
0.00534251
0.00532041
0.00530435
0.0052939
0.0052881
0.00528575
0.00548111
0.005485
0.00549475
0.00551233
0.00553907
0.00557509
0.00561923
0.00566946
0.00572329
0.00577779
0.00582876
0.00587097
0.005899
0.00590826
0.00589527
0.0058589
0.00580383
0.0057421
0.00568249
0.00562713
0.00557648
0.0055301
0.0054873
0.00544748
0.0054106
0.00537717
0.00534829
0.00532504
0.00530798
0.00529682
0.00529062
0.00528812
0.00548655
0.00549058
0.00550082
0.00551948
0.00554822
0.00558752
0.00563656
0.00569361
0.00575618
0.00582073
0.00588153
0.00593125
0.00596253
0.00596989
0.00595042
0.00590458
0.00583911
0.00576768
0.00570025
0.00563934
0.00558524
0.00553697
0.00549329
0.00545312
0.00541601
0.00538221
0.00535276
0.00532883
0.00531114
0.00529953
0.00529306
0.00529045
0.00549265
0.00549677
0.00550736
0.00552696
0.00555769
0.00560066
0.00565572
0.00572163
0.00579588
0.00587389
0.0059477
0.006007
0.00604188
0.00604616
0.00601828
0.00596075
0.00588205
0.00579749
0.0057189
0.00564988
0.00559068
0.00553962
0.00549473
0.0054543
0.00541738
0.00538387
0.00535462
0.00533076
0.00531306
0.00530141
0.0052949
0.00529226
0.00549944
0.00550361
0.00551447
0.00553492
0.0055677
0.00561481
0.00567711
0.00575408
0.00584307
0.00593794
0.00602759
0.00609786
0.00613597
0.00613566
0.0060979
0.00602747
0.00593348
0.00583212
0.00573827
0.00565782
0.00559138
0.00553641
0.0054899
0.00544937
0.00541322
0.00538085
0.00535276
0.00532992
0.00531298
0.0053018
0.00529551
0.00529292
0.00550719
0.00551143
0.00552257
0.00554393
0.00557902
0.00563098
0.00570197
0.00579238
0.00589926
0.00601419
0.00612188
0.00620351
0.00624377
0.00623769
0.00619005
0.00610754
0.00599739
0.00587523
0.00576057
0.00566377
0.0055869
0.00552634
0.00547764
0.00543721
0.00540253
0.00537229
0.00534647
0.00532565
0.00531026
0.00530004
0.0052942
0.00529174
0.0055166
0.00552094
0.0055325
0.00555507
0.00559307
0.00565101
0.00573261
0.00583929
0.00596743
0.00610536
0.00623245
0.0063249
0.00636624
0.00635499
0.00630071
0.00621024
0.00608507
0.00593789
0.0057946
0.00567317
0.00557972
0.00551018
0.00545787
0.00541747
0.00538493
0.00535784
0.00533535
0.00531748
0.00530428
0.0052954
0.00529019
0.00528789
0.00552893
0.00553345
0.00554572
0.00557012
0.00561213
0.00567785
0.00577276
0.00589925
0.00605242
0.00621606
0.00636312
0.00646554
0.00650849
0.00649677
0.00644434
0.00635482
0.00621959
0.00604546
0.00586443
0.00570478
0.00558163
0.00549414
0.00543361
0.00539138
0.00536086
0.00533757
0.00531923
0.00530495
0.00529433
0.00528699
0.0052825
0.00528043
0.00554626
0.00555112
0.00556456
0.00559181
0.00563962
0.00571587
0.00582788
0.00597862
0.00616093
0.00635265
0.00651978
0.00663243
0.00668159
0.00668047
0.00664499
0.00657148
0.00643863
0.00624438
0.00602258
0.00581019
0.00563411
0.00550497
0.00541926
0.00536579
0.00533313
0.00531241
0.00529807
0.0052874
0.00527947
0.00527399
0.00527073
0.00526931
0.00557174
0.00557714
0.00559247
0.00562407
0.00568035
0.00577118
0.0059055
0.00608598
0.00630142
0.00652264
0.00671
0.00683593
0.00690153
0.00692807
0.00692927
0.00689346
0.00679016
0.00660574
0.0063645
0.00610274
0.0058555
0.00564882
0.00549424
0.0053915
0.00532868
0.00529379
0.00527581
0.00526782
0.00526594
0.00526766
0.00527069
0.00527291
0.00561003
0.00561635
0.00563469
0.00567315
0.00574225
0.00585398
0.00601805
0.0062346
0.00648583
0.00673497
0.00694088
0.00708423
0.00717747
0.00724527
0.00729667
0.00731959
0.00728819
0.00718077
0.0069991
0.00676166
0.00649495
0.00622873
0.00598785
0.00578871
0.00563634
0.0055338
0.00547218
0.0054443
0.00544067
0.00545044
0.00546327
0.00547162
0.00566739
0.00567509
0.00569765
0.00574505
0.0058298
0.00596493
0.00615881
0.00640703
0.00668579
0.00695552
0.00717871
0.00734256
0.00746188
0.00755782
0.00763832
0.00770389
0.00775477
0.00778356
0.00777401
0.0077157
0.00760686
0.00745569
0.00727704
0.00708794
0.00690491
0.00674268
0.00660794
0.00650752
0.00644277
0.00640881
0.00639612
0.00639416
0.00573403
0.00574287
0.0057683
0.00582111
0.00591436
0.00606061
0.00626624
0.00652426
0.00681014
0.00708531
0.00731296
0.00747677
0.00758335
0.00764631
0.0076735
0.00767714
0.00769226
0.00775336
0.007857
0.00798026
0.00809934
0.00819415
0.00825171
0.00826671
0.00824075
0.00818117
0.00810088
0.00801348
0.00793271
0.00786987
0.0078308
0.00781437
0.00578569
0.00579504
0.00582091
0.00587332
0.00596458
0.00610635
0.00630426
0.00655141
0.00682513
0.00708972
0.0073078
0.00745559
0.00752805
0.00753007
0.00746709
0.00735304
0.00724012
0.00719773
0.00724391
0.00736456
0.00753892
0.00774268
0.00795023
0.00813873
0.00829173
0.00840075
0.00846575
0.00849295
0.00849335
0.00848034
0.00846605
0.00845792
0.00581266
0.00582221
0.00584707
0.00589548
0.00597796
0.00610508
0.00628271
0.00650621
0.0067569
0.00700311
0.0072086
0.00734492
0.00739836
0.00736715
0.00725574
0.00707938
0.00689596
0.00678896
0.00678439
0.00687464
0.0070445
0.00727418
0.00753711
0.00780244
0.00804191
0.00823621
0.00837843
0.00847164
0.00852514
0.00855084
0.00856025
0.00856229
0.00581513
0.00582487
0.00584847
0.0058919
0.00596324
0.0060713
0.00622211
0.00641384
0.006633
0.00685357
0.00704272
0.00717094
0.00721939
0.00718112
0.00705873
0.00686715
0.00666347
0.00653117
0.00649949
0.00656691
0.00672511
0.00696197
0.00725702
0.00757872
0.00788948
0.00815551
0.00835763
0.00849329
0.00857251
0.00861129
0.0086259
0.00862918
0.00579558
0.0058055
0.00582818
0.00586742
0.00592862
0.00601829
0.00614173
0.00629896
0.00648125
0.00666892
0.00683477
0.00695171
0.00699948
0.00696799
0.00685772
0.00668286
0.00649836
0.00637923
0.00635136
0.00641479
0.00656491
0.00679465
0.00709117
0.00743088
0.00777858
0.00809461
0.00834845
0.00852707
0.00863511
0.00868887
0.00870861
0.00871235
0.00576111
0.00577054
0.00579168
0.00582714
0.00588015
0.0059547
0.0060544
0.00617973
0.00632513
0.0064765
0.00661309
0.00671286
0.00675789
0.00673816
0.00665382
0.00651911
0.0063841
0.00630831
0.00630993
0.00638854
0.00654145
0.00676504
0.00705221
0.00738731
0.00774221
0.00807971
0.00836429
0.00857405
0.00870632
0.00877442
0.00879983
0.00880433
0.00573009
0.00573697
0.00575331
0.00578207
0.00582601
0.00588736
0.00596757
0.0060661
0.00617881
0.00629563
0.00640199
0.00648233
0.00652401
0.00652032
0.00647328
0.00639737
0.00633306
0.0063187
0.00636322
0.00646586
0.00662557
0.00684169
0.00711192
0.00742745
0.0077683
0.00810368
0.00839901
0.00862717
0.00877777
0.00885867
0.00889006
0.00889576
0.0057329
0.00573419
0.00573979
0.00575443
0.00578288
0.00582778
0.00588914
0.00596468
0.00605026
0.00613864
0.00622079
0.006288
0.00633394
0.00635639
0.00635917
0.00635522
0.00637048
0.00642098
0.00650845
0.00663334
0.0067968
0.00700085
0.00724691
0.0075321
0.00784458
0.00816093
0.00845042
0.00868444
0.00884653
0.00893786
0.00897508
0.00898225
0.00580201
0.00579488
0.00578348
0.00577471
0.00577732
0.00579739
0.00583586
0.00588966
0.00595447
0.00602521
0.00609737
0.00616755
0.00623389
0.00629645
0.00635843
0.00642852
0.00651665
0.00662106
0.00674043
0.00687806
0.00703762
0.00722331
0.0074391
0.00768635
0.00796008
0.0082448
0.00851545
0.00874428
0.00891093
0.00900996
0.0090527
0.00906164
0.00596009
0.0059431
0.00591168
0.00587438
0.00584402
0.00583234
0.00584448
0.00587911
0.00593259
0.00600119
0.00608239
0.00617444
0.00627587
0.00638561
0.00650398
0.00663445
0.00677433
0.00691172
0.00704598
0.00718362
0.00733042
0.00749194
0.00767343
0.00787871
0.0081076
0.00835183
0.00859324
0.00880711
0.00897118
0.00907449
0.00912211
0.00913312
0.00621537
0.00618934
0.00614185
0.00608238
0.00602501
0.00598615
0.00597736
0.00600102
0.00605477
0.00613483
0.00623756
0.00635922
0.00649573
0.00664327
0.00679921
0.00696333
0.00712615
0.00727273
0.0074046
0.00753049
0.00765724
0.00779081
0.00793663
0.00809935
0.00828151
0.00848031
0.00868459
0.0088747
0.00902882
0.00913205
0.00918325
0.0091965
0.00656562
0.00653464
0.00648446
0.00642382
0.00636227
0.00631559
0.00630075
0.00632381
0.00638392
0.00647673
0.00659644
0.00673638
0.00688987
0.00705114
0.0072162
0.00738332
0.00754139
0.00767677
0.00779275
0.00789855
0.00800091
0.00810531
0.00821657
0.00833907
0.00847622
0.00862861
0.00879096
0.00894985
0.00908645
0.00918415
0.00923662
0.00925193
0.00700699
0.00697921
0.00694756
0.00691362
0.00687615
0.0068448
0.00683789
0.00686438
0.00692579
0.00701846
0.00713584
0.00727015
0.00741393
0.00756124
0.00770818
0.00785296
0.0079859
0.0080964
0.00818826
0.00826964
0.00834624
0.00842248
0.00850214
0.00858871
0.00868529
0.00879382
0.00891301
0.00903543
0.00914733
0.00923316
0.00928324
0.00929981
0.00754378
0.00753146
0.00753711
0.00754448
0.00754287
0.00753642
0.0075406
0.00756619
0.0076173
0.00769229
0.00778602
0.00789183
0.00800341
0.00811591
0.00822631
0.0083333
0.00842985
0.00850871
0.0085731
0.00862908
0.00868081
0.0087314
0.00878343
0.00883929
0.0089012
0.00897108
0.00904944
0.0091333
0.00921467
0.00928186
0.00932464
0.00934067
0.00819549
0.00820954
0.00824623
0.00827706
0.00829536
0.00830388
0.00831247
0.00833031
0.00836214
0.00840816
0.00846555
0.0085301
0.00859777
0.00866548
0.00873139
0.00879471
0.00885135
0.00889719
0.00893424
0.00896611
0.00899522
0.00902335
0.00905194
0.00908234
0.00911575
0.0091534
0.00919606
0.00924298
0.00929078
0.00933314
0.00936275
0.00937535
0.00899008
0.00900222
0.00902345
0.0090401
0.00905075
0.00905652
0.0090607
0.0090669
0.0090773
0.00909231
0.00911111
0.00913227
0.00915443
0.00917654
0.00919798
0.00921851
0.00923681
0.00925157
0.00926344
0.00927361
0.00928284
0.0092917
0.00930066
0.00931011
0.00932044
0.00933202
0.00934516
0.00935975
0.00937499
0.00938914
0.00939984
0.00940499
)
;

boundaryField
{
    movingWall
    {
        type            fixedValue;
        value           uniform 0.00942;
    }
    fixedWalls
    {
        type            zeroGradient;
    }
    floor
    {
        type            zeroGradient;
    }
    frontAndBack
    {
        type            empty;
    }
}


// ************************************************************************* //
