/*--------------------------------*- C++ -*----------------------------------*\
| =========                 |                                                 |
| \\      /  F ield         | OpenFOAM: The Open Source CFD Toolbox           |
|  \\    /   O peration     | Version:  2212                                  |
|   \\  /    A nd           | Website:  www.openfoam.com                      |
|    \\/     M anipulation  |                                                 |
\*---------------------------------------------------------------------------*/
FoamFile
{
    version     2.0;
    format      ascii;
    arch        "LSB;label=64;scalar=64";
    class       volVectorField;
    location    "620";
    object      U;
}
// * * * * * * * * * * * * * * * * * * * * * * * * * * * * * * * * * * * * * //

dimensions      [0 1 -1 0 0 0 0];

internalField   nonuniform List<vector> 
1024
(
(7.15642e-06 -8.79438e-06 0)
(-0.000151834 4.02756e-05 0)
(-0.000552434 7.53411e-05 0)
(-0.00110906 7.88801e-05 0)
(-0.00169579 6.79128e-05 0)
(-0.00223175 5.36814e-05 0)
(-0.00266624 3.80216e-05 0)
(-0.0029431 1.96234e-05 0)
(-0.00298916 -1.93693e-06 0)
(-0.00272689 -2.55736e-05 0)
(-0.00210792 -4.17787e-05 0)
(-0.00118833 -4.77315e-05 0)
(-0.000131568 -4.06501e-05 0)
(0.0010251 -3.54142e-05 0)
(0.00219527 -3.28215e-05 0)
(0.00333723 -2.42679e-05 0)
(0.00426707 -1.75946e-05 0)
(0.00482902 -6.51504e-06 0)
(0.00494547 8.33393e-06 0)
(0.00470499 2.08861e-05 0)
(0.00424417 2.85815e-05 0)
(0.00369481 3.25855e-05 0)
(0.0031345 3.40871e-05 0)
(0.00260416 3.37831e-05 0)
(0.00212429 3.19128e-05 0)
(0.00169858 2.98948e-05 0)
(0.00131176 3.02845e-05 0)
(0.000938275 3.49236e-05 0)
(0.000570024 4.00553e-05 0)
(0.000246032 3.4321e-05 0)
(3.84822e-05 8.5984e-06 0)
(-1.66991e-05 -1.74291e-05 0)
(-5.21378e-05 0.00015815 0)
(-0.000623656 0.000551743 0)
(-0.00172237 0.000799929 0)
(-0.00315986 0.000823259 0)
(-0.00465267 0.000706578 0)
(-0.00599845 0.000536317 0)
(-0.0070528 0.000347743 0)
(-0.00767519 0.000147521 0)
(-0.00771504 -6.09412e-05 0)
(-0.00701822 -0.000261713 0)
(-0.0055032 -0.00040575 0)
(-0.0032809 -0.000465559 0)
(-0.000661644 -0.000446662 0)
(0.00237887 -0.000410617 0)
(0.00542378 -0.000364033 0)
(0.00842898 -0.000287715 0)
(0.0109298 -0.000209008 0)
(0.0125077 -0.000102773 0)
(0.0130086 2.79628e-05 0)
(0.012625 0.000149806 0)
(0.0116488 0.000241436 0)
(0.0103761 0.000303671 0)
(0.00900199 0.000343664 0)
(0.00763941 0.000367434 0)
(0.00634914 0.000380043 0)
(0.00515049 0.000392987 0)
(0.00402375 0.000422376 0)
(0.00293251 0.00047215 0)
(0.00187739 0.000505972 0)
(0.000947925 0.000449251 0)
(0.000300948 0.000260456 0)
(1.30766e-05 3.85049e-05 0)
(-0.000121667 0.000680711 0)
(-0.00112798 0.00175836 0)
(-0.00284937 0.00231762 0)
(-0.00498924 0.0023152 0)
(-0.0071542 0.00196024 0)
(-0.00906262 0.00145596 0)
(-0.0105003 0.000903005 0)
(-0.0112719 0.000336733 0)
(-0.0111907 -0.000226065 0)
(-0.0100883 -0.000738672 0)
(-0.00793462 -0.00110028 0)
(-0.00487139 -0.00125995 0)
(-0.00124456 -0.00125138 0)
(0.00316875 -0.00117368 0)
(0.00754762 -0.00103635 0)
(0.0119494 -0.000835611 0)
(0.0157316 -0.000621483 0)
(0.0182566 -0.00034231 0)
(0.0193295 1.48493e-06 0)
(0.0191083 0.000332553 0)
(0.0179914 0.000598873 0)
(0.0163577 0.000797735 0)
(0.0144775 0.000942554 0)
(0.0125184 0.00104766 0)
(0.0105769 0.00112738 0)
(0.00869482 0.00120812 0)
(0.00687013 0.00132247 0)
(0.00508496 0.00147109 0)
(0.00336034 0.00156601 0)
(0.00181492 0.00143752 0)
(0.00066865 0.000974768 0)
(6.00997e-05 0.000310582 0)
(-0.000171728 0.00161501 0)
(-0.00150704 0.00376206 0)
(-0.00368922 0.00470494 0)
(-0.00631463 0.00458253 0)
(-0.00890262 0.00381756 0)
(-0.0111205 0.00277423 0)
(-0.0127125 0.00164709 0)
(-0.0134581 0.000521649 0)
(-0.0131622 -0.000555478 0)
(-0.0117113 -0.00148722 0)
(-0.00916934 -0.00212237 0)
(-0.0056973 -0.00240822 0)
(-0.00162303 -0.00243637 0)
(0.00345997 -0.00231695 0)
(0.0084982 -0.00205076 0)
(0.0136974 -0.00168876 0)
(0.0183647 -0.00129389 0)
(0.0216922 -0.000782736 0)
(0.0234417 -0.000140604 0)
(0.0236398 0.000499785 0)
(0.0227083 0.0010382 0)
(0.0210607 0.00146631 0)
(0.0190029 0.00180437 0)
(0.0167319 0.00207747 0)
(0.0143666 0.00231229 0)
(0.0119708 0.00255103 0)
(0.00957049 0.0028399 0)
(0.00717994 0.00317011 0)
(0.00484534 0.00339011 0)
(0.00270857 0.0032015 0)
(0.00105459 0.00234839 0)
(0.000108663 0.000899295 0)
(-0.000187268 0.00290843 0)
(-0.00165855 0.0064757 0)
(-0.00405383 0.00786931 0)
(-0.00690631 0.00752582 0)
(-0.0096721 0.00617237 0)
(-0.0119784 0.00438521 0)
(-0.0135448 0.00248386 0)
(-0.0141496 0.000628146 0)
(-0.0136151 -0.00108195 0)
(-0.0119412 -0.00248291 0)
(-0.00926477 -0.00339869 0)
(-0.00575304 -0.00380704 0)
(-0.00169397 -0.00387661 0)
(0.00334145 -0.00371669 0)
(0.00838637 -0.0033148 0)
(0.0137684 -0.00279562 0)
(0.0188703 -0.0022169 0)
(0.0227663 -0.00145444 0)
(0.0251435 -0.000467461 0)
(0.0259129 0.000561407 0)
(0.0253835 0.00146 0)
(0.023984 0.00220802 0)
(0.0220296 0.00283548 0)
(0.0197226 0.00338178 0)
(0.0171878 0.00388778 0)
(0.0145026 0.00440875 0)
(0.0117186 0.00499748 0)
(0.00888243 0.00562761 0)
(0.00606961 0.0060724 0)
(0.00345086 0.0058656 0)
(0.00137526 0.00450764 0)
(0.000149017 0.00187326 0)
(-0.00016411 0.00440423 0)
(-0.00155389 0.00965603 0)
(-0.00388968 0.0116053 0)
(-0.00670906 0.0109937 0)
(-0.00943755 0.00890726 0)
(-0.0116677 0.00619333 0)
(-0.0131027 0.00334103 0)
(-0.0135366 0.000617789 0)
(-0.0128368 -0.00179358 0)
(-0.0111248 -0.00366475 0)
(-0.00855859 -0.00483581 0)
(-0.00530231 -0.00534083 0)
(-0.00160037 -0.00542435 0)
(0.00285003 -0.00521593 0)
(0.00741083 -0.00470634 0)
(0.0124711 -0.00407625 0)
(0.0175877 -0.00335545 0)
(0.0217813 -0.00236016 0)
(0.0246231 -0.00101936 0)
(0.0259623 0.000447793 0)
(0.0259074 0.00177886 0)
(0.0248899 0.0029258 0)
(0.0232214 0.00393349 0)
(0.0210917 0.0048619 0)
(0.0186154 0.00576797 0)
(0.0158711 0.00671629 0)
(0.0129257 0.0077573 0)
(0.00985299 0.00883375 0)
(0.00676054 0.00962139 0)
(0.00385598 0.00943803 0)
(0.00154091 0.00744956 0)
(0.000167911 0.00322776 0)
(-0.000114252 0.00587875 0)
(-0.00125028 0.0129454 0)
(-0.00329724 0.0156099 0)
(-0.0058672 0.014783 0)
(-0.00839673 0.0118971 0)
(-0.0104532 0.00812666 0)
(-0.0117288 0.00419086 0)
(-0.0120411 0.000509664 0)
(-0.0113226 -0.0026213 0)
(-0.0097648 -0.00493493 0)
(-0.00751534 -0.00632349 0)
(-0.00473516 -0.00688931 0)
(-0.00162696 -0.00693871 0)
(0.00193666 -0.00667272 0)
(0.00572995 -0.00610713 0)
(0.0101355 -0.00544536 0)
(0.0149424 -0.00466353 0)
(0.0192043 -0.00348499 0)
(0.0223395 -0.00180479 0)
(0.0241215 0.000127266 0)
(0.0244968 0.00194415 0)
(0.0238713 0.00354851 0)
(0.0225613 0.00500842 0)
(0.0207362 0.00641475 0)
(0.0184862 0.00784403 0)
(0.0158774 0.00936655 0)
(0.0129807 0.0110193 0)
(0.00989017 0.0126917 0)
(0.0067484 0.0139232 0)
(0.00380499 0.0137611 0)
(0.00149218 0.010986 0)
(0.000155652 0.0048462 0)
(-5.88776e-05 0.00711823 0)
(-0.000859574 0.0159627 0)
(-0.00247743 0.0195342 0)
(-0.0046545 0.0186606 0)
(-0.00688596 0.0150204 0)
(-0.00873167 0.0101475 0)
(-0.00987639 0.00505969 0)
(-0.010159 0.000382796 0)
(-0.0095781 -0.00345054 0)
(-0.00832593 -0.00616913 0)
(-0.00654643 -0.0077343 0)
(-0.00440002 -0.00832248 0)
(-0.00204277 -0.00829586 0)
(0.00051371 -0.00796379 0)
(0.00340252 -0.00741058 0)
(0.00696938 -0.00681986 0)
(0.0112349 -0.00609614 0)
(0.0154024 -0.00481943 0)
(0.0187443 -0.00282065 0)
(0.0208132 -0.00041041 0)
(0.021566 0.00193632 0)
(0.0212736 0.00403672 0)
(0.0203134 0.00599247 0)
(0.0188445 0.00794459 0)
(0.0169227 0.00999756 0)
(0.0145892 0.0122241 0)
(0.0119094 0.0146316 0)
(0.00899448 0.0170206 0)
(0.00602573 0.0187369 0)
(0.00329531 0.0185062 0)
(0.00123288 0.0147453 0)
(0.000114476 0.00650383 0)
(-1.56184e-05 0.00799347 0)
(-0.000494289 0.0184105 0)
(-0.00164649 0.0230581 0)
(-0.00336836 0.0223995 0)
(-0.00525862 0.018172 0)
(-0.00689483 0.0122521 0)
(-0.00795961 0.00601741 0)
(-0.00830296 0.000354899 0)
(-0.00797312 -0.0041464 0)
(-0.00712824 -0.00722578 0)
(-0.0059316 -0.00891863 0)
(-0.00453832 -0.00948951 0)
(-0.00304737 -0.00937088 0)
(-0.00147512 -0.00897668 0)
(0.000408952 -0.00851012 0)
(0.00303752 -0.00810735 0)
(0.00657777 -0.00760252 0)
(0.0104996 -0.00637392 0)
(0.0140267 -0.00410587 0)
(0.0164494 -0.0011783 0)
(0.0175774 0.00174901 0)
(0.0175463 0.0043765 0)
(0.0168875 0.00683923 0)
(0.0157798 0.00936751 0)
(0.0142356 0.012111 0)
(0.0122601 0.0151408 0)
(0.00990996 0.0184089 0)
(0.00731833 0.021571 0)
(0.00471286 0.0237063 0)
(0.00242135 0.0231938 0)
(0.000821863 0.0182208 0)
(5.6879e-05 0.00791787 0)
(8.51031e-06 0.00849179 0)
(-0.000226811 0.0201559 0)
(-0.000967721 0.0259633 0)
(-0.00224702 0.0258134 0)
(-0.00379572 0.0212662 0)
(-0.005239 0.0144557 0)
(-0.00626796 0.00715198 0)
(-0.00673714 0.000555058 0)
(-0.006724 -0.00456407 0)
(-0.00636355 -0.00793674 0)
(-0.00584644 -0.00968935 0)
(-0.00530403 -0.0102056 0)
(-0.00476251 -0.0100128 0)
(-0.00414876 -0.00960497 0)
(-0.00324185 -0.0092859 0)
(-0.00167975 -0.00919111 0)
(0.000971668 -0.00908824 0)
(0.00441888 -0.00814818 0)
(0.00804736 -0.00578078 0)
(0.0109744 -0.00231507 0)
(0.0127494 0.00131746 0)
(0.0130177 0.00453523 0)
(0.012638 0.00749093 0)
(0.0118959 0.0105952 0)
(0.0107506 0.014068 0)
(0.00916678 0.017969 0)
(0.00720502 0.022149 0)
(0.00504235 0.0260325 0)
(0.00296662 0.0283578 0)
(0.00131461 0.0272104 0)
(0.000339625 0.0208344 0)
(-2.03885e-06 0.00881237 0)
(1.53895e-05 0.00870043 0)
(-7.94528e-05 0.0212585 0)
(-0.000523368 0.0281923 0)
(-0.00143427 0.0287955 0)
(-0.00267516 0.0242412 0)
(-0.00394661 0.0167764 0)
(-0.00496794 0.00855128 0)
(-0.00560537 0.00112157 0)
(-0.00595587 -0.00452836 0)
(-0.00616441 -0.00808002 0)
(-0.0064217 -0.00980291 0)
(-0.006811 -0.0102427 0)
(-0.00727712 -0.0100354 0)
(-0.00766273 -0.00972212 0)
(-0.00771641 -0.00964262 0)
(-0.00710982 -0.00993504 0)
(-0.00553677 -0.0103508 0)
(-0.00294651 -0.0100166 0)
(0.000495609 -0.00797895 0)
(0.00391509 -0.00413703 0)
(0.00675323 0.000583129 0)
(0.00773501 0.00445082 0)
(0.00769165 0.0078298 0)
(0.00735036 0.0114992 0)
(0.00660382 0.0157359 0)
(0.00540731 0.0205499 0)
(0.00386426 0.0256096 0)
(0.00224854 0.0299895 0)
(0.000918771 0.032044 0)
(0.000127387 0.0297834 0)
(-0.000119008 0.0219507 0)
(-4.78439e-05 0.00896354 0)
(1.0531e-05 0.00876513 0)
(-3.88638e-05 0.0219451 0)
(-0.000323435 0.0298774 0)
(-0.000983794 0.0313601 0)
(-0.00198283 0.0270785 0)
(-0.00311167 0.0192358 0)
(-0.00414632 0.0103067 0)
(-0.00499444 0.00222687 0)
(-0.00577118 -0.00379427 0)
(-0.00665376 -0.00735254 0)
(-0.00777253 -0.00895082 0)
(-0.00914663 -0.00932829 0)
(-0.0106484 -0.00920972 0)
(-0.0120665 -0.00913735 0)
(-0.0131385 -0.00943683 0)
(-0.0135544 -0.0102322 0)
(-0.012992 -0.0112803 0)
(-0.0112349 -0.0116076 0)
(-0.00853421 -0.0103003 0)
(-0.00524405 -0.00705487 0)
(-0.00196902 -0.00206041 0)
(0.00133012 0.00364378 0)
(0.00174892 0.00760326 0)
(0.00185673 0.0119075 0)
(0.00146312 0.0170243 0)
(0.000681006 0.0228059 0)
(-0.000239688 0.0285976 0)
(-0.000935522 0.0327197 0)
(-0.00118769 0.0336137 0)
(-0.000978525 0.0299276 0)
(-0.000514427 0.0212069 0)
(-8.39844e-05 0.00829654 0)
(-5.38518e-07 0.00885438 0)
(-7.67789e-05 0.0225582 0)
(-0.000333124 0.0313385 0)
(-0.000883153 0.0336864 0)
(-0.00173835 0.0298497 0)
(-0.00277519 0.0218933 0)
(-0.00385344 0.0125469 0)
(-0.00496788 0.00411845 0)
(-0.00626649 -0.00202735 0)
(-0.00794231 -0.00538574 0)
(-0.00998701 -0.00679751 0)
(-0.0123582 -0.00717942 0)
(-0.0148736 -0.00729381 0)
(-0.017309 -0.00762926 0)
(-0.0194211 -0.00846158 0)
(-0.0209268 -0.00990026 0)
(-0.0214838 -0.0117399 0)
(-0.0207161 -0.0129511 0)
(-0.0187509 -0.0124905 0)
(-0.0159039 -0.0100048 0)
(-0.0125289 -0.00553747 0)
(-0.00863569 0.000509137 0)
(-0.00644004 0.00630849 0)
(-0.0056324 0.0118737 0)
(-0.00522011 0.017944 0)
(-0.00499639 0.0240895 0)
(-0.00466245 0.0293535 0)
(-0.00402065 0.0323277 0)
(-0.00304267 0.031775 0)
(-0.00187173 0.0269792 0)
(-0.000800615 0.0182029 0)
(-0.000101941 0.00672962 0)
(-1.38283e-05 0.00913893 0)
(-0.00016502 0.023502 0)
(-0.000500195 0.0330497 0)
(-0.0010821 0.0361472 0)
(-0.00192282 0.0327833 0)
(-0.00296424 0.0249131 0)
(-0.00416517 0.0154839 0)
(-0.00563804 0.00714198 0)
(-0.00760939 0.00134279 0)
(-0.0100974 -0.0019501 0)
(-0.0130949 -0.00326003 0)
(-0.0164163 -0.00368972 0)
(-0.0198011 -0.0041581 0)
(-0.0230898 -0.00504703 0)
(-0.0261031 -0.00654608 0)
(-0.0286155 -0.00873203 0)
(-0.0303111 -0.0114503 0)
(-0.0307133 -0.0136833 0)
(-0.0297933 -0.0143289 0)
(-0.0277399 -0.0129607 0)
(-0.024746 -0.00939056 0)
(-0.0210583 -0.00372991 0)
(-0.0169193 0.0032756 0)
(-0.0142705 0.0097983 0)
(-0.0121388 0.0160316 0)
(-0.0101947 0.0216378 0)
(-0.00821623 0.0257854 0)
(-0.00617161 0.0273813 0)
(-0.0041334 0.0256472 0)
(-0.0022798 0.0205276 0)
(-0.000874572 0.0129288 0)
(-9.57299e-05 0.00439328 0)
(-2.79061e-05 0.00980616 0)
(-0.000272242 0.0252419 0)
(-0.00075105 0.0356423 0)
(-0.00149184 0.039388 0)
(-0.00249742 0.0364496 0)
(-0.00377046 0.0288494 0)
(-0.00537956 0.0198075 0)
(-0.00750634 0.0121856 0)
(-0.0103012 0.00723184 0)
(-0.0136925 0.00450447 0)
(-0.0174007 0.00289995 0)
(-0.0211618 0.0016018 0)
(-0.0248749 0.000223312 0)
(-0.028459 -0.00150596 0)
(-0.0318765 -0.0037235 0)
(-0.0349645 -0.00665258 0)
(-0.0374697 -0.0102239 0)
(-0.0389001 -0.0134895 0)
(-0.0390782 -0.0153955 0)
(-0.0380286 -0.0155824 0)
(-0.035719 -0.0138356 0)
(-0.032171 -0.0100708 0)
(-0.0275271 -0.00439966 0)
(-0.0220968 0.00277684 0)
(-0.0170655 0.00967056 0)
(-0.0127669 0.0144023 0)
(-0.00897665 0.0174382 0)
(-0.00583056 0.0181796 0)
(-0.00335918 0.0162573 0)
(-0.00157803 0.0120987 0)
(-0.000499387 0.00693445 0)
(-3.59118e-05 0.00208583 0)
(-2.83135e-05 0.0108799 0)
(-0.000285493 0.0279416 0)
(-0.000811825 0.0395448 0)
(-0.00164955 0.0441503 0)
(-0.00281554 0.0418517 0)
(-0.00434129 0.0348617 0)
(-0.00630195 0.0265813 0)
(-0.00878156 0.0197216 0)
(-0.0117636 0.0151004 0)
(-0.0151322 0.0121193 0)
(-0.0187639 0.00991244 0)
(-0.0225544 0.00787665 0)
(-0.0263973 0.00565546 0)
(-0.030174 0.00301896 0)
(-0.0337184 -0.000201325 0)
(-0.0368293 -0.00394697 0)
(-0.0394359 -0.00829703 0)
(-0.041268 -0.0125655 0)
(-0.0420681 -0.0158681 0)
(-0.0417571 -0.0180475 0)
(-0.0402111 -0.0190463 0)
(-0.0373533 -0.0188334 0)
(-0.0332082 -0.0173715 0)
(-0.0279507 -0.0145937 0)
(-0.0219818 -0.0103879 0)
(-0.0158887 -0.00471129 0)
(-0.0104674 0.000783126 0)
(-0.00605103 0.00494016 0)
(-0.00287507 0.00683102 0)
(-0.000990475 0.00626922 0)
(-0.000163679 0.0042173 0)
(2.5555e-05 0.00154787 0)
(-3.42644e-06 0.0117302 0)
(-0.000118008 0.0303033 0)
(-0.000444549 0.0433502 0)
(-0.00109119 0.0492746 0)
(-0.00213354 0.0480695 0)
(-0.0035997 0.0419169 0)
(-0.00547704 0.0342174 0)
(-0.00771205 0.0275905 0)
(-0.0102147 0.0228132 0)
(-0.0129077 0.0194013 0)
(-0.0157521 0.016615 0)
(-0.0187283 0.0139137 0)
(-0.0218154 0.0109739 0)
(-0.0249889 0.00759564 0)
(-0.0282027 0.00364584 0)
(-0.0313149 -0.000960904 0)
(-0.0335769 -0.00603109 0)
(-0.0353139 -0.0110147 0)
(-0.0363589 -0.0153374 0)
(-0.0365976 -0.0190132 0)
(-0.0359164 -0.0221045 0)
(-0.0342343 -0.0246245 0)
(-0.0315382 -0.0264936 0)
(-0.0278996 -0.0275157 0)
(-0.023478 -0.0273866 0)
(-0.0185249 -0.0257389 0)
(-0.0134277 -0.0222618 0)
(-0.00867824 -0.0169468 0)
(-0.00475458 -0.0104335 0)
(-0.00201503 -0.0042452 0)
(-0.00054195 -0.00033072 0)
(-2.08658e-05 0.000686499 0)
(3.03433e-05 0.0117279 0)
(0.000149114 0.0308343 0)
(0.00019942 0.0450092 0)
(1.0426e-05 0.0525422 0)
(-0.000605906 0.0528803 0)
(-0.00174501 0.0477109 0)
(-0.00333565 0.0403394 0)
(-0.00517608 0.0335333 0)
(-0.00708946 0.0283078 0)
(-0.00899876 0.0243782 0)
(-0.0108853 0.021104 0)
(-0.0127574 0.0179648 0)
(-0.0146285 0.014627 0)
(-0.0165105 0.0108771 0)
(-0.0184017 0.00656328 0)
(-0.0202847 0.0015783 0)
(-0.0223307 -0.00404861 0)
(-0.023735 -0.00940522 0)
(-0.0249442 -0.0142215 0)
(-0.0257306 -0.0186949 0)
(-0.0260017 -0.0230126 0)
(-0.0256623 -0.0272622 0)
(-0.0246287 -0.0313878 0)
(-0.0228474 -0.03513 0)
(-0.020326 -0.038001 0)
(-0.0171457 -0.0393395 0)
(-0.0134881 -0.0383312 0)
(-0.00964486 -0.0342634 0)
(-0.00599508 -0.0270017 0)
(-0.00297504 -0.0176332 0)
(-0.000977192 -0.00853358 0)
(-7.37853e-05 -0.00191742 0)
(6.57998e-05 0.0108485 0)
(0.000450887 0.0294021 0)
(0.000955853 0.0440834 0)
(0.00136403 0.0529611 0)
(0.00140985 0.0551736 0)
(0.000898415 0.0516875 0)
(-0.000204242 0.0448796 0)
(-0.00166101 0.037643 0)
(-0.00312131 0.0317652 0)
(-0.00441169 0.0272008 0)
(-0.00547557 0.0234133 0)
(-0.00634233 0.0198846 0)
(-0.00706674 0.016251 0)
(-0.00771038 0.0122697 0)
(-0.00833548 0.00779238 0)
(-0.00893552 0.00272567 0)
(-0.00999887 -0.00281167 0)
(-0.0111271 -0.00810261 0)
(-0.0124322 -0.0128978 0)
(-0.0136474 -0.0174745 0)
(-0.014694 -0.0221123 0)
(-0.0154948 -0.0269858 0)
(-0.0159487 -0.0321729 0)
(-0.0159227 -0.0375458 0)
(-0.0152879 -0.0426366 0)
(-0.0139386 -0.0467439 0)
(-0.0118456 -0.0487016 0)
(-0.00913819 -0.0471575 0)
(-0.00612041 -0.0410209 0)
(-0.00327238 -0.0303758 0)
(-0.00116306 -0.0173134 0)
(-9.97852e-05 -0.00508343 0)
(8.96381e-05 0.00929973 0)
(0.000713909 0.0263003 0)
(0.00167636 0.0408448 0)
(0.00272373 0.0507283 0)
(0.0035258 0.0546739 0)
(0.00381193 0.0530218 0)
(0.00345705 0.0475266 0)
(0.0025897 0.0405682 0)
(0.001565 0.0340834 0)
(0.000731924 0.0287032 0)
(0.000275819 0.024259 0)
(0.000206691 0.0203086 0)
(0.000441887 0.0164463 0)
(0.000871865 0.0123832 0)
(0.00131042 0.00795959 0)
(0.00188354 0.00310218 0)
(0.00182949 -0.0020069 0)
(0.000796221 -0.00685647 0)
(-0.000728864 -0.0115098 0)
(-0.00236066 -0.0158895 0)
(-0.00402645 -0.0203867 0)
(-0.00564919 -0.0251984 0)
(-0.00716177 -0.0305247 0)
(-0.00847659 -0.0364895 0)
(-0.00940028 -0.042726 0)
(-0.00972653 -0.048808 0)
(-0.00922768 -0.0534528 0)
(-0.00784277 -0.054858 0)
(-0.00572551 -0.050998 0)
(-0.00331169 -0.0407156 0)
(-0.0012703 -0.025201 0)
(-0.000125206 -0.00816853 0)
(9.83295e-05 0.00744982 0)
(0.00088834 0.0222024 0)
(0.00223693 0.0360018 0)
(0.00387953 0.0464674 0)
(0.00543595 0.0518951 0)
(0.00657676 0.0520439 0)
(0.00710211 0.0480668 0)
(0.00703934 0.0418629 0)
(0.0066685 0.0352711 0)
(0.00638004 0.0293102 0)
(0.00646782 0.0242268 0)
(0.00703127 0.0198132 0)
(0.00800684 0.0157185 0)
(0.00923945 0.0116276 0)
(0.0104748 0.00731736 0)
(0.0116324 0.00272221 0)
(0.0120102 -0.00179693 0)
(0.0111341 -0.00596855 0)
(0.00954548 -0.00994638 0)
(0.00752621 -0.0139409 0)
(0.00529732 -0.0181045 0)
(0.00300753 -0.0225881 0)
(0.000747952 -0.0276197 0)
(-0.0015401 -0.0336187 0)
(-0.00358913 -0.0401344 0)
(-0.00526755 -0.0473243 0)
(-0.00620812 -0.0540219 0)
(-0.0061587 -0.0582846 0)
(-0.00505471 -0.0572978 0)
(-0.00320937 -0.0485927 0)
(-0.00132861 -0.0319972 0)
(-0.000143033 -0.0110694 0)
(9.24185e-05 0.00561775 0)
(0.000951246 0.0177974 0)
(0.00255498 0.0303569 0)
(0.00466918 0.0409435 0)
(0.00689069 0.0474971 0)
(0.00885227 0.0492456 0)
(0.0103032 0.0467905 0)
(0.0111925 0.0415928 0)
(0.0117054 0.0353051 0)
(0.0121794 0.0291208 0)
(0.012926 0.023606 0)
(0.0141019 0.0188212 0)
(0.0156814 0.0145499 0)
(0.0174957 0.0104995 0)
(0.0192507 0.00642285 0)
(0.0206813 0.00223639 0)
(0.021078 -0.00170063 0)
(0.0201395 -0.00524233 0)
(0.0183403 -0.00864535 0)
(0.0159578 -0.0121043 0)
(0.0132224 -0.0157956 0)
(0.0103271 -0.0198751 0)
(0.00741743 -0.0244915 0)
(0.00452908 -0.0298246 0)
(0.00174054 -0.0360453 0)
(-0.000944245 -0.0436614 0)
(-0.00309621 -0.0516637 0)
(-0.00432282 -0.0583855 0)
(-0.00428504 -0.0604727 0)
(-0.00308705 -0.0542001 0)
(-0.00139949 -0.0377053 0)
(-0.000160938 -0.0137363 0)
(7.60804e-05 0.00402515 0)
(0.000904489 0.0136593 0)
(0.00259432 0.024659 0)
(0.00499151 0.0349272 0)
(0.00771135 0.0421836 0)
(0.0103784 0.0451943 0)
(0.0127206 0.0440759 0)
(0.0146339 0.0399117 0)
(0.0162097 0.0341635 0)
(0.0176794 0.0280811 0)
(0.0192855 0.0224299 0)
(0.0211707 0.0174836 0)
(0.0233259 0.0131701 0)
(0.0255913 0.00925606 0)
(0.0276648 0.00550266 0)
(0.0291828 0.0018034 0)
(0.0294124 -0.00153723 0)
(0.0282569 -0.00446332 0)
(0.0261731 -0.00726227 0)
(0.0234334 -0.0101428 0)
(0.0202534 -0.0132889 0)
(0.0168175 -0.0168725 0)
(0.0132799 -0.0210591 0)
(0.00975767 -0.02601 0)
(0.00635437 -0.0318684 0)
(0.00310436 -0.0388828 0)
(3.36227e-05 -0.0473336 0)
(-0.00238198 -0.0559868 0)
(-0.0034722 -0.061104 0)
(-0.0030155 -0.0578758 0)
(-0.00155112 -0.0425446 0)
(-0.000190556 -0.0162725 0)
(5.43182e-05 0.00278595 0)
(0.000762143 0.0101854 0)
(0.00234834 0.0195171 0)
(0.00479187 0.0291013 0)
(0.00778734 0.0366094 0)
(0.0109931 0.0404477 0)
(0.0141475 0.0403386 0)
(0.0171104 0.0370706 0)
(0.0198713 0.0319438 0)
(0.0225177 0.0261998 0)
(0.0251634 0.0206977 0)
(0.0278786 0.0158406 0)
(0.0306387 0.0116653 0)
(0.0332968 0.00800269 0)
(0.0355653 0.00463939 0)
(0.0370486 0.00146215 0)
(0.0370366 -0.0012969 0)
(0.0356216 -0.0036503 0)
(0.0332667 -0.00588621 0)
(0.0302404 -0.00820851 0)
(0.0267359 -0.0107976 0)
(0.0229099 -0.0138315 0)
(0.0188965 -0.0174886 0)
(0.014816 -0.0219467 0)
(0.0107808 -0.0273871 0)
(0.00688185 -0.0340367 0)
(0.00318151 -0.0421348 0)
(-0.000211982 -0.0516508 0)
(-0.00253506 -0.0595928 0)
(-0.00298696 -0.0598505 0)
(-0.00184482 -0.0467144 0)
(-0.000253754 -0.0188677 0)
(2.66304e-05 0.00194318 0)
(0.000511647 0.00761809 0)
(0.00177715 0.0153771 0)
(0.00400098 0.0239982 0)
(0.0070373 0.0312932 0)
(0.0106201 0.0354573 0)
(0.014518 0.0359433 0)
(0.0185483 0.033345 0)
(0.0225714 0.0288337 0)
(0.0264979 0.0235898 0)
(0.0302831 0.0184748 0)
(0.033899 0.0139389 0)
(0.0372875 0.0100807 0)
(0.040312 0.00678271 0)
(0.0427137 0.00386349 0)
(0.0441095 0.00121627 0)
(0.0438798 -0.000999494 0)
(0.0422752 -0.00284365 0)
(0.0397618 -0.00458172 0)
(0.0365971 -0.00639862 0)
(0.0329444 -0.00846021 0)
(0.0289201 -0.0109384 0)
(0.0246183 -0.0140165 0)
(0.0201288 -0.0178907 0)
(0.0155498 -0.0227729 0)
(0.0109865 -0.0289145 0)
(0.00654467 -0.0366242 0)
(0.00235815 -0.0460786 0)
(-0.00123947 -0.0561287 0)
(-0.00288904 -0.0601604 0)
(-0.00230796 -0.0502624 0)
(-0.000387316 -0.0217556 0)
(-2.3336e-05 0.00155342 0)
(3.96196e-05 0.00616036 0)
(0.000697621 0.0125734 0)
(0.00244902 0.0199764 0)
(0.00537472 0.0265493 0)
(0.00926355 0.0304987 0)
(0.0139023 0.0311439 0)
(0.0190368 0.0289807 0)
(0.0243592 0.0250577 0)
(0.0295867 0.0204319 0)
(0.0345189 0.0158882 0)
(0.039035 0.011858 0)
(0.0430462 0.00846114 0)
(0.0464302 0.0056162 0)
(0.0489695 0.00317387 0)
(0.0503276 0.00103808 0)
(0.0500185 -0.000693966 0)
(0.0483927 -0.00210437 0)
(0.0459037 -0.0034202 0)
(0.0427891 -0.00479931 0)
(0.0391804 -0.00638436 0)
(0.0351533 -0.00832887 0)
(0.030755 -0.0108075 0)
(0.0260292 -0.0140223 0)
(0.021037 -0.0182107 0)
(0.0158695 -0.023664 0)
(0.0106484 -0.0307612 0)
(0.00554055 -0.0399051 0)
(0.000784295 -0.05078 0)
(-0.00244236 -0.0586265 0)
(-0.00286736 -0.0530003 0)
(-0.000634158 -0.0251301 0)
(-0.000147972 0.00187849 0)
(-0.000867693 0.00623472 0)
(-0.00114283 0.011338 0)
(-0.000103724 0.0170477 0)
(0.00274004 0.0224209 0)
(0.00705216 0.0256511 0)
(0.0125213 0.02608 0)
(0.0188137 0.0241825 0)
(0.0254289 0.0208437 0)
(0.0319079 0.0169286 0)
(0.0379293 0.0130867 0)
(0.0433083 0.00968721 0)
(0.047942 0.0068443 0)
(0.0517326 0.00450128 0)
(0.0545132 0.00253906 0)
(0.0560101 0.000873933 0)
(0.0558517 -0.000441357 0)
(0.0544116 -0.00148979 0)
(0.0521255 -0.00245349 0)
(0.0492167 -0.00346027 0)
(0.0457976 -0.00462541 0)
(0.0419159 -0.00607579 0)
(0.0375808 -0.00796353 0)
(0.0327881 -0.0104789 0)
(0.0275462 -0.0138667 0)
(0.0219002 -0.0184521 0)
(0.0159481 -0.024681 0)
(0.00984967 -0.0331249 0)
(0.00388978 -0.0440399 0)
(-0.00112579 -0.0548874 0)
(-0.0032591 -0.0544928 0)
(-0.00100423 -0.0290388 0)
(-0.000450148 0.00336418 0)
(-0.00247378 0.0081563 0)
(-0.00378447 0.0117906 0)
(-0.00339647 0.0151445 0)
(-0.000691475 0.0185409 0)
(0.00440343 0.0207894 0)
(0.0108641 0.0208056 0)
(0.0183626 0.0191219 0)
(0.0262281 0.0163988 0)
(0.0338841 0.013261 0)
(0.040942 0.0101949 0)
(0.0471858 0.00748879 0)
(0.052511 0.00523893 0)
(0.0568411 0.00340798 0)
(0.0600467 0.00190673 0)
(0.061899 0.000667019 0)
(0.0620811 -0.000285902 0)
(0.060942 -0.00102526 0)
(0.0589327 -0.00169084 0)
(0.0562873 -0.00238053 0)
(0.0531191 -0.00318152 0)
(0.0494651 -0.00419042 0)
(0.0453115 -0.00552718 0)
(0.0406143 -0.00735216 0)
(0.0353227 -0.00989083 0)
(0.0294056 -0.0134721 0)
(0.022882 -0.0185857 0)
(0.0158542 -0.0259372 0)
(0.00859287 -0.0362542 0)
(0.00178043 -0.0486286 0)
(-0.00292112 -0.0540802 0)
(-0.00139591 -0.0333444 0)
(-0.00101389 0.00664325 0)
(-0.00470139 0.0116924 0)
(-0.00662539 0.0130393 0)
(-0.00628425 0.0137144 0)
(-0.00339808 0.0147824 0)
(0.00264158 0.0157153 0)
(0.0102618 0.0153369 0)
(0.0189548 0.0139335 0)
(0.0280048 0.011874 0)
(0.0367849 0.00954482 0)
(0.0448728 0.00727629 0)
(0.0520235 0.00527771 0)
(0.0581114 0.00362632 0)
(0.0630507 0.00230228 0)
(0.066719 0.00124481 0)
(0.0689137 0.000401762 0)
(0.0693641 -0.000221126 0)
(0.0684372 -0.000686663 0)
(0.0666401 -0.00109693 0)
(0.0642305 -0.00151987 0)
(0.0613275 -0.00201505 0)
(0.0579628 -0.00264836 0)
(0.0541076 -0.00350348 0)
(0.0496889 -0.00469853 0)
(0.0446029 -0.00641318 0)
(0.0387296 -0.00893579 0)
(0.0319585 -0.0127413 0)
(0.0242424 -0.0185989 0)
(0.0157272 -0.027574 0)
(0.00700135 -0.0400707 0)
(-0.000943966 -0.0507292 0)
(-0.00150258 -0.0374875 0)
(-0.00181865 0.0123489 0)
(-0.006454 0.0156837 0)
(-0.00719449 0.0136699 0)
(-0.00531233 0.0117821 0)
(-0.00117974 0.0108097 0)
(0.00588673 0.0104212 0)
(0.0144007 0.00979657 0)
(0.0240269 0.00876074 0)
(0.0339929 0.00738606 0)
(0.0436427 0.00585982 0)
(0.0524983 0.00438079 0)
(0.0602508 0.00308842 0)
(0.0667255 0.00203986 0)
(0.0718225 0.00122573 0)
(0.0754518 0.000605209 0)
(0.0774957 0.00013757 0)
(0.0778154 -0.000187778 0)
(0.076882 -0.000420816 0)
(0.0752108 -0.000625063 0)
(0.0730439 -0.000838453 0)
(0.0704815 -0.00109461 0)
(0.0675383 -0.0014311 0)
(0.0641703 -0.00189684 0)
(0.0602857 -0.00256441 0)
(0.055746 -0.00355218 0)
(0.0503601 -0.00506843 0)
(0.0438784 -0.00749608 0)
(0.0360164 -0.0115415 0)
(0.0265859 -0.0184089 0)
(0.0157565 -0.0295038 0)
(0.00402064 -0.0430394 0)
(-0.000232801 -0.0392526 0)
(-0.00131941 0.0181134 0)
(-0.00364019 0.0174731 0)
(0.0017235 0.0117619 0)
(0.00818345 0.00854298 0)
(0.0148091 0.00662736 0)
(0.0224267 0.00549643 0)
(0.0310436 0.00475297 0)
(0.0404393 0.00406498 0)
(0.050005 0.00331735 0)
(0.0591088 0.00253727 0)
(0.0672408 0.00180538 0)
(0.0740709 0.00118984 0)
(0.0794523 0.000717619 0)
(0.083372 0.000377649 0)
(0.0858758 0.000140401 0)
(0.0870168 -2.22806e-05 0)
(0.0868388 -0.000126271 0)
(0.0858471 -0.000198903 0)
(0.0844116 -0.000265737 0)
(0.0826844 -0.000340037 0)
(0.0807122 -0.000434839 0)
(0.0784813 -0.000565575 0)
(0.0759355 -0.000753253 0)
(0.07298 -0.00103085 0)
(0.0694724 -0.00145612 0)
(0.0651982 -0.0021407 0)
(0.0598254 -0.00331578 0)
(0.0528447 -0.00547149 0)
(0.043527 -0.00960196 0)
(0.0310054 -0.0173928 0)
(0.0152101 -0.0296388 0)
(0.00625712 -0.0333458 0)
(0.0208121 0.0113748 0)
(0.0270347 0.00916541 0)
(0.039647 0.00526496 0)
(0.0497575 0.00313078 0)
(0.0572871 0.00193879 0)
(0.063613 0.00123471 0)
(0.069486 0.000833067 0)
(0.0751553 0.000585438 0)
(0.0804955 0.000405856 0)
(0.0852336 0.000261629 0)
(0.0891308 0.000148939 0)
(0.0920817 6.99615e-05 0)
(0.0941229 2.15368e-05 0)
(0.0953753 -4.84776e-06 0)
(0.0959714 -1.83846e-05 0)
(0.0960095 -2.47691e-05 0)
(0.0955949 -2.77566e-05 0)
(0.0949557 -3.05999e-05 0)
(0.0942068 -3.50266e-05 0)
(0.0933782 -4.16587e-05 0)
(0.0924646 -5.18812e-05 0)
(0.0914399 -6.77296e-05 0)
(0.0902615 -9.22409e-05 0)
(0.0888673 -0.000130595 0)
(0.0871649 -0.000192626 0)
(0.0850039 -0.000299292 0)
(0.0821144 -0.000499303 0)
(0.0779777 -0.000909796 0)
(0.071555 -0.00181252 0)
(0.0607825 -0.00395034 0)
(0.0432704 -0.00918028 0)
(0.0286043 -0.0145204 0)
)
;

boundaryField
{
    movingWall
    {
        type            fixedValue;
        value           uniform (0.1 0 0);
    }
    fixedWalls
    {
        type            noSlip;
    }
    floor
    {
        type            noSlip;
    }
    frontAndBack
    {
        type            empty;
    }
}


// ************************************************************************* //
