/*--------------------------------*- C++ -*----------------------------------*\
| =========                 |                                                 |
| \\      /  F ield         | OpenFOAM: The Open Source CFD Toolbox           |
|  \\    /   O peration     | Version:  2212                                  |
|   \\  /    A nd           | Website:  www.openfoam.com                      |
|    \\/     M anipulation  |                                                 |
\*---------------------------------------------------------------------------*/
FoamFile
{
    version     2.0;
    format      ascii;
    arch        "LSB;label=64;scalar=64";
    class       volScalarField;
    location    "620";
    object      Xch;
}
// * * * * * * * * * * * * * * * * * * * * * * * * * * * * * * * * * * * * * //

dimensions      [1 -3 0 0 0 0 0];

internalField   nonuniform List<scalar> 
1024
(
0.0199111
0.0199116
0.0199128
0.0199149
0.019918
0.0199224
0.0199277
0.0199339
0.0199403
0.0199467
0.0199526
0.0199577
0.0199613
0.0199631
0.0199625
0.0199589
0.0199524
0.0199444
0.0199364
0.0199285
0.019921
0.0199139
0.0199072
0.019901
0.0198954
0.0198905
0.0198866
0.0198835
0.0198814
0.0198801
0.0198793
0.019879
0.0199112
0.0199117
0.0199129
0.0199151
0.0199184
0.0199228
0.0199283
0.0199345
0.019941
0.0199475
0.0199534
0.0199584
0.0199621
0.0199639
0.0199632
0.0199596
0.019953
0.019945
0.019937
0.0199291
0.0199215
0.0199144
0.0199077
0.0199014
0.0198958
0.0198909
0.0198868
0.0198837
0.0198816
0.0198801
0.0198794
0.0198791
0.0199115
0.019912
0.0199133
0.0199156
0.0199191
0.0199237
0.0199294
0.0199358
0.0199425
0.0199491
0.0199552
0.0199603
0.019964
0.0199657
0.0199649
0.019961
0.0199543
0.0199463
0.0199381
0.0199302
0.0199226
0.0199154
0.0199086
0.0199023
0.0198966
0.0198916
0.0198874
0.0198842
0.0198818
0.0198804
0.0198795
0.0198792
0.0199119
0.0199125
0.0199139
0.0199163
0.0199201
0.019925
0.0199311
0.0199378
0.0199449
0.0199518
0.0199582
0.0199636
0.0199673
0.0199689
0.0199679
0.0199636
0.0199565
0.0199481
0.0199398
0.0199317
0.019924
0.0199168
0.01991
0.0199036
0.0198977
0.0198926
0.0198882
0.0198848
0.0198823
0.0198807
0.0198798
0.0198794
0.0199125
0.0199131
0.0199146
0.0199173
0.0199213
0.0199267
0.0199332
0.0199405
0.0199482
0.0199558
0.0199628
0.0199687
0.0199726
0.0199741
0.0199725
0.0199676
0.0199597
0.0199507
0.0199419
0.0199335
0.0199256
0.0199183
0.0199114
0.019905
0.0198991
0.0198937
0.0198891
0.0198855
0.0198828
0.0198811
0.0198802
0.0198798
0.0199133
0.0199139
0.0199155
0.0199184
0.0199227
0.0199285
0.0199357
0.0199438
0.0199524
0.0199612
0.0199693
0.0199759
0.0199802
0.0199815
0.0199791
0.019973
0.019964
0.0199539
0.0199443
0.0199354
0.0199272
0.0199197
0.0199128
0.0199063
0.0199003
0.0198948
0.0198901
0.0198862
0.0198834
0.0198816
0.0198806
0.0198802
0.0199142
0.0199148
0.0199165
0.0199195
0.0199242
0.0199305
0.0199385
0.0199477
0.0199577
0.0199681
0.0199777
0.0199856
0.0199903
0.0199912
0.0199878
0.0199801
0.0199694
0.0199578
0.0199469
0.0199372
0.0199285
0.0199207
0.0199137
0.0199072
0.0199011
0.0198956
0.0198908
0.0198868
0.0198839
0.019882
0.019881
0.0198805
0.0199152
0.0199158
0.0199176
0.0199207
0.0199257
0.0199327
0.0199416
0.0199522
0.0199641
0.0199766
0.0199883
0.0199976
0.0200029
0.0200032
0.0199984
0.0199888
0.0199759
0.0199623
0.0199496
0.0199386
0.0199291
0.019921
0.0199138
0.0199073
0.0199013
0.0198958
0.019891
0.0198871
0.0198842
0.0198823
0.0198812
0.0198808
0.0199163
0.019917
0.0199187
0.019922
0.0199273
0.019935
0.019945
0.0199574
0.0199717
0.0199869
0.0200011
0.0200121
0.0200178
0.0200173
0.0200108
0.0199991
0.0199837
0.0199674
0.0199523
0.0199395
0.019929
0.0199202
0.0199128
0.0199063
0.0199005
0.0198953
0.0198907
0.019887
0.0198842
0.0198824
0.0198813
0.0198809
0.0199175
0.0199182
0.01992
0.0199235
0.0199292
0.0199376
0.019949
0.0199636
0.0199808
0.0199991
0.0200162
0.0200289
0.0200348
0.0200333
0.0200251
0.0200114
0.0199935
0.0199738
0.0199554
0.0199401
0.0199279
0.0199183
0.0199106
0.0199042
0.0198987
0.0198938
0.0198896
0.0198862
0.0198837
0.019882
0.0198811
0.0198807
0.0199191
0.0199198
0.0199216
0.0199253
0.0199314
0.0199408
0.019954
0.0199712
0.0199917
0.0200137
0.0200338
0.0200481
0.0200541
0.0200517
0.0200423
0.0200273
0.0200069
0.0199832
0.0199603
0.0199411
0.0199263
0.0199154
0.0199072
0.0199008
0.0198957
0.0198913
0.0198877
0.0198848
0.0198827
0.0198812
0.0198804
0.01988
0.0199211
0.0199218
0.0199238
0.0199277
0.0199345
0.0199452
0.0199605
0.0199808
0.0200054
0.0200314
0.0200546
0.0200704
0.0200765
0.0200739
0.0200648
0.0200498
0.0200277
0.0199997
0.0199708
0.0199455
0.0199262
0.0199125
0.019903
0.0198964
0.0198916
0.0198879
0.019885
0.0198827
0.019881
0.0198798
0.0198791
0.0198787
0.0199239
0.0199247
0.0199269
0.0199313
0.019939
0.0199513
0.0199694
0.0199936
0.0200228
0.0200532
0.0200795
0.0200968
0.0201038
0.0201028
0.0200963
0.0200838
0.0200619
0.0200305
0.0199952
0.0199616
0.0199339
0.0199137
0.0199003
0.019892
0.0198869
0.0198837
0.0198815
0.0198798
0.0198785
0.0198776
0.019877
0.0198768
0.0199281
0.0199289
0.0199314
0.0199365
0.0199456
0.0199603
0.0199819
0.0200109
0.0200453
0.0200804
0.0201097
0.020129
0.0201386
0.0201419
0.0201411
0.0201344
0.020117
0.020087
0.0200485
0.020007
0.0199681
0.0199358
0.0199116
0.0198957
0.0198859
0.0198805
0.0198777
0.0198764
0.0198761
0.0198763
0.0198768
0.0198771
0.0199343
0.0199353
0.0199383
0.0199445
0.0199556
0.0199736
0.02
0.0200347
0.0200748
0.0201143
0.0201465
0.0201685
0.0201825
0.0201923
0.0201993
0.0202016
0.0201952
0.020177
0.0201475
0.0201097
0.0200677
0.0200259
0.0199883
0.0199573
0.0199336
0.0199176
0.0199081
0.0199038
0.0199032
0.0199048
0.0199068
0.0199081
0.0199437
0.0199449
0.0199485
0.0199562
0.0199698
0.0199916
0.0200227
0.0200624
0.0201069
0.0201496
0.0201846
0.0202099
0.0202281
0.0202424
0.0202539
0.0202627
0.0202688
0.0202715
0.0202684
0.0202582
0.0202405
0.0202165
0.0201885
0.020159
0.0201307
0.0201056
0.0200848
0.0200694
0.0200595
0.0200543
0.0200524
0.0200521
0.0199545
0.0199559
0.01996
0.0199685
0.0199835
0.0200071
0.0200401
0.0200814
0.0201271
0.0201708
0.0202067
0.0202323
0.0202486
0.0202579
0.0202612
0.0202602
0.0202605
0.0202678
0.0202817
0.0202991
0.0203161
0.0203297
0.0203379
0.0203399
0.0203357
0.0203266
0.0203145
0.0203013
0.0202892
0.0202797
0.0202739
0.0202714
0.019963
0.0199645
0.0199686
0.0199771
0.0199918
0.0200146
0.0200464
0.0200861
0.02013
0.0201722
0.0202069
0.0202302
0.0202415
0.0202414
0.0202308
0.0202117
0.0201923
0.0201835
0.0201884
0.0202049
0.0202298
0.0202595
0.0202901
0.0203181
0.0203409
0.0203573
0.0203673
0.0203717
0.0203721
0.0203705
0.0203686
0.0203674
0.0199675
0.019969
0.019973
0.0199808
0.0199941
0.0200146
0.0200432
0.0200792
0.0201195
0.020159
0.0201919
0.0202137
0.0202221
0.0202171
0.020199
0.0201704
0.0201401
0.0201215
0.0201188
0.0201307
0.020155
0.0201886
0.0202273
0.0202666
0.020302
0.0203309
0.0203521
0.0203662
0.0203745
0.0203786
0.0203803
0.0203807
0.019968
0.0199696
0.0199734
0.0199804
0.0199919
0.0200094
0.0200337
0.0200647
0.0201001
0.0201356
0.0201661
0.0201867
0.0201945
0.0201884
0.0201687
0.0201378
0.0201044
0.0200819
0.0200751
0.0200837
0.0201064
0.0201412
0.0201849
0.0202326
0.0202788
0.0203182
0.0203482
0.0203684
0.0203803
0.0203863
0.0203886
0.0203892
0.019965
0.0199666
0.0199703
0.0199766
0.0199865
0.020001
0.020021
0.0200465
0.020076
0.0201063
0.0201331
0.0201521
0.0201599
0.0201549
0.0201371
0.0201088
0.0200785
0.0200581
0.020052
0.0200601
0.0200816
0.0201155
0.0201595
0.02021
0.0202617
0.0203086
0.0203463
0.0203728
0.0203888
0.0203969
0.0204
0.0204007
0.0199595
0.019961
0.0199645
0.0199702
0.0199788
0.0199909
0.020007
0.0200274
0.020051
0.0200756
0.0200977
0.020114
0.0201213
0.0201182
0.0201046
0.0200825
0.0200599
0.0200464
0.0200449
0.0200554
0.0200775
0.0201105
0.0201532
0.0202031
0.0202559
0.020306
0.0203482
0.0203792
0.0203988
0.020409
0.0204128
0.0204136
0.0199543
0.0199554
0.0199581
0.0199629
0.0199701
0.0199801
0.0199931
0.0200091
0.0200275
0.0200465
0.0200638
0.0200769
0.0200837
0.020083
0.0200752
0.0200623
0.0200507
0.0200467
0.020052
0.0200663
0.0200895
0.0201215
0.0201617
0.0202087
0.0202594
0.0203092
0.020353
0.0203867
0.0204089
0.0204209
0.0204256
0.0204265
0.019954
0.0199543
0.0199554
0.019958
0.0199629
0.0199703
0.0199804
0.0199927
0.0200067
0.0200211
0.0200344
0.0200453
0.0200526
0.0200559
0.0200558
0.020054
0.0200548
0.0200609
0.0200729
0.0200907
0.0201146
0.0201448
0.0201814
0.0202239
0.0202704
0.0203174
0.0203602
0.0203948
0.0204186
0.0204321
0.0204376
0.0204388
0.0199636
0.0199626
0.0199612
0.0199603
0.0199612
0.0199649
0.0199715
0.0199804
0.0199909
0.0200024
0.020014
0.0200251
0.0200353
0.0200447
0.0200535
0.0200631
0.0200752
0.0200897
0.0201067
0.0201267
0.0201501
0.0201776
0.0202097
0.0202465
0.0202872
0.0203295
0.0203695
0.0204033
0.0204277
0.0204423
0.0204486
0.02045
0.0199866
0.0199841
0.0199797
0.0199745
0.0199704
0.0199693
0.0199718
0.0199777
0.0199864
0.0199973
0.02001
0.0200242
0.0200396
0.020056
0.0200734
0.0200923
0.0201124
0.0201322
0.0201516
0.0201717
0.0201933
0.0202172
0.0202442
0.0202747
0.0203088
0.020345
0.0203807
0.0204122
0.0204363
0.0204514
0.0204584
0.0204601
0.0200242
0.0200204
0.0200135
0.0200049
0.0199968
0.0199915
0.0199908
0.0199949
0.0200035
0.0200159
0.0200317
0.0200502
0.0200707
0.0200928
0.0201159
0.02014
0.0201637
0.0201851
0.0202044
0.0202228
0.0202415
0.0202613
0.0202829
0.0203072
0.0203342
0.0203637
0.0203939
0.0204219
0.0204445
0.0204595
0.020467
0.020469
0.0200762
0.0200716
0.0200642
0.0200554
0.0200465
0.02004
0.0200382
0.0200421
0.0200515
0.0200658
0.0200839
0.0201051
0.0201281
0.0201522
0.0201767
0.0202014
0.0202246
0.0202445
0.0202615
0.0202771
0.0202922
0.0203076
0.0203241
0.0203423
0.0203627
0.0203853
0.0204093
0.0204327
0.0204526
0.0204669
0.0204745
0.0204768
0.0201418
0.0201376
0.020133
0.0201281
0.0201227
0.0201183
0.0201176
0.0201219
0.0201314
0.0201455
0.0201632
0.0201834
0.020205
0.020227
0.0202488
0.0202703
0.0202899
0.0203061
0.0203197
0.0203316
0.0203429
0.0203542
0.020366
0.0203789
0.0203932
0.0204093
0.0204269
0.0204449
0.0204613
0.0204738
0.0204811
0.0204835
0.0202215
0.0202197
0.0202206
0.0202217
0.0202216
0.0202208
0.0202216
0.0202257
0.0202335
0.0202449
0.0202591
0.020275
0.0202917
0.0203085
0.0203249
0.0203408
0.020355
0.0203667
0.0203762
0.0203844
0.020392
0.0203995
0.0204072
0.0204155
0.0204247
0.0204351
0.0204467
0.020459
0.0204709
0.0204806
0.0204868
0.0204891
0.0203183
0.0203204
0.0203259
0.0203305
0.0203333
0.0203346
0.020336
0.0203388
0.0203437
0.0203507
0.0203593
0.020369
0.0203791
0.0203892
0.0203991
0.0204085
0.0204168
0.0204236
0.0204291
0.0204338
0.0204381
0.0204422
0.0204465
0.020451
0.0204559
0.0204615
0.0204678
0.0204747
0.0204817
0.0204879
0.0204921
0.0204939
0.0204363
0.0204381
0.0204412
0.0204437
0.0204453
0.0204462
0.0204468
0.0204478
0.0204494
0.0204517
0.0204545
0.0204577
0.020461
0.0204643
0.0204675
0.0204705
0.0204733
0.0204754
0.0204772
0.0204787
0.02048
0.0204814
0.0204827
0.0204841
0.0204856
0.0204873
0.0204893
0.0204914
0.0204937
0.0204957
0.0204972
0.020498
)
;

boundaryField
{
    movingWall
    {
        type            fixedValue;
        value           uniform 0.0205;
    }
    fixedWalls
    {
        type            zeroGradient;
    }
    floor
    {
        type            zeroGradient;
    }
    frontAndBack
    {
        type            empty;
    }
}


// ************************************************************************* //
