/*--------------------------------*- C++ -*----------------------------------*\
| =========                 |                                                 |
| \\      /  F ield         | OpenFOAM: The Open Source CFD Toolbox           |
|  \\    /   O peration     | Version:  2212                                  |
|   \\  /    A nd           | Website:  www.openfoam.com                      |
|    \\/     M anipulation  |                                                 |
\*---------------------------------------------------------------------------*/
FoamFile
{
    version     2.0;
    format      ascii;
    arch        "LSB;label=64;scalar=64";
    class       volScalarField;
    location    "620";
    object      Xpr;
}
// * * * * * * * * * * * * * * * * * * * * * * * * * * * * * * * * * * * * * //

dimensions      [1 -3 0 0 0 0 0];

internalField   nonuniform List<scalar> 
1024
(
0.0816797
0.0816817
0.0816867
0.0816956
0.0817092
0.0817277
0.0817507
0.0817769
0.0818046
0.0818321
0.0818573
0.0818788
0.0818944
0.0819022
0.0818997
0.0818841
0.0818562
0.0818223
0.0817878
0.0817541
0.0817219
0.0816914
0.0816627
0.0816361
0.0816122
0.0815915
0.0815745
0.0815616
0.0815525
0.0815466
0.0815434
0.0815421
0.0816801
0.0816823
0.0816874
0.0816967
0.0817107
0.0817297
0.0817531
0.0817797
0.0818077
0.0818353
0.0818607
0.0818821
0.0818977
0.0819054
0.0819026
0.0818869
0.0818588
0.0818248
0.0817902
0.0817565
0.0817242
0.0816936
0.0816649
0.0816381
0.0816139
0.0815929
0.0815757
0.0815624
0.0815531
0.0815471
0.0815437
0.0815424
0.0816813
0.0816835
0.081689
0.0816988
0.0817136
0.0817336
0.0817579
0.0817854
0.0818141
0.0818423
0.0818682
0.0818901
0.0819057
0.0819131
0.0819097
0.0818933
0.0818645
0.08183
0.0817951
0.0817611
0.0817286
0.0816979
0.081669
0.081642
0.0816175
0.0815959
0.081578
0.0815642
0.0815543
0.081548
0.0815444
0.081543
0.0816831
0.0816855
0.0816914
0.081702
0.0817179
0.0817392
0.081765
0.0817939
0.0818241
0.0818539
0.0818813
0.0819041
0.0819202
0.0819271
0.0819225
0.0819043
0.0818739
0.081838
0.0818022
0.0817676
0.0817347
0.0817038
0.0816747
0.0816474
0.0816224
0.0816001
0.0815814
0.0815668
0.0815562
0.0815494
0.0815456
0.081544
0.0816857
0.0816883
0.0816946
0.081706
0.0817232
0.0817462
0.081774
0.0818053
0.0818382
0.0818708
0.081901
0.0819259
0.0819429
0.0819491
0.0819424
0.0819211
0.0818875
0.081849
0.0818112
0.0817753
0.0817417
0.0817103
0.081681
0.0816535
0.081628
0.0816051
0.0815855
0.0815699
0.0815586
0.0815512
0.0815471
0.0815454
0.0816889
0.0816916
0.0816984
0.0817106
0.0817292
0.0817541
0.0817847
0.0818194
0.0818564
0.0818938
0.0819285
0.0819569
0.0819754
0.0819807
0.0819706
0.0819445
0.0819058
0.0818629
0.0818216
0.0817834
0.0817484
0.0817164
0.0816867
0.081659
0.0816332
0.0816098
0.0815895
0.0815731
0.0815611
0.0815532
0.0815489
0.0815471
0.0816927
0.0816955
0.0817026
0.0817156
0.0817355
0.0817627
0.0817967
0.081836
0.0818791
0.0819234
0.0819648
0.0819982
0.0820186
0.0820224
0.0820076
0.0819749
0.081929
0.0818794
0.0818329
0.081791
0.0817539
0.0817206
0.0816905
0.0816626
0.0816368
0.0816132
0.0815925
0.0815757
0.0815633
0.0815551
0.0815505
0.0815487
0.081697
0.0816998
0.0817072
0.0817207
0.0817421
0.0817718
0.0818099
0.0818554
0.0819065
0.08196
0.0820102
0.0820499
0.0820725
0.0820738
0.082053
0.0820121
0.081957
0.0818984
0.0818444
0.0817972
0.0817567
0.0817218
0.0816909
0.0816631
0.0816375
0.0816141
0.0815937
0.081577
0.0815645
0.0815564
0.0815518
0.0815499
0.0817017
0.0817046
0.0817121
0.0817263
0.081749
0.0817816
0.0818247
0.0818778
0.0819391
0.082004
0.0820649
0.0821119
0.0821363
0.082134
0.0821061
0.0820561
0.0819904
0.0819204
0.081856
0.0818012
0.081756
0.0817186
0.0816869
0.0816591
0.0816342
0.0816118
0.0815922
0.0815762
0.0815644
0.0815565
0.0815521
0.0815503
0.0817071
0.08171
0.0817177
0.0817325
0.0817568
0.0817928
0.0818419
0.0819043
0.0819778
0.0820564
0.0821293
0.0821837
0.0822091
0.0822025
0.0821675
0.0821089
0.082032
0.0819477
0.0818693
0.0818035
0.0817514
0.0817105
0.0816775
0.08165
0.0816262
0.0816054
0.0815875
0.0815731
0.0815623
0.0815552
0.0815511
0.0815493
0.0817136
0.0817166
0.0817246
0.0817403
0.0817666
0.0818067
0.0818631
0.0819367
0.0820247
0.0821188
0.0822047
0.082266
0.0822917
0.0822811
0.0822412
0.0821769
0.0820895
0.081988
0.0818901
0.0818078
0.0817447
0.081698
0.0816627
0.0816355
0.0816134
0.0815949
0.0815795
0.0815671
0.0815579
0.0815517
0.0815481
0.0815465
0.0817222
0.0817254
0.0817339
0.0817508
0.0817799
0.0818253
0.0818909
0.081978
0.082083
0.0821946
0.0822937
0.0823613
0.0823875
0.0823762
0.0823373
0.0822732
0.0821786
0.0820586
0.081935
0.0818269
0.081744
0.0816853
0.0816448
0.0816165
0.0815961
0.0815803
0.0815678
0.081558
0.0815507
0.0815456
0.0815424
0.081541
0.0817343
0.0817377
0.081747
0.0817659
0.0817989
0.0818516
0.0819289
0.0820326
0.0821575
0.0822879
0.0824003
0.0824743
0.0825043
0.0824999
0.0824721
0.0824185
0.0823248
0.0821907
0.0820395
0.0818957
0.0817772
0.0816906
0.0816334
0.0815979
0.0815762
0.0815623
0.0815527
0.0815454
0.0815399
0.0815361
0.0815338
0.0815328
0.0817521
0.0817559
0.0817665
0.0817883
0.0818272
0.0818899
0.0819825
0.0821065
0.0822538
0.082404
0.0825296
0.0826123
0.0826532
0.0826674
0.0826641
0.0826352
0.0825606
0.0824323
0.0822674
0.0820901
0.0819237
0.0817851
0.0816818
0.0816134
0.0815716
0.0815484
0.0815364
0.081531
0.0815297
0.0815307
0.0815327
0.0815341
0.0817789
0.0817832
0.0817959
0.0818225
0.0818702
0.0819472
0.0820602
0.0822087
0.0823802
0.0825491
0.082687
0.0827813
0.082841
0.082883
0.0829132
0.0829229
0.0828954
0.0828175
0.0826914
0.0825297
0.0823497
0.082171
0.08201
0.0818772
0.0817757
0.0817075
0.0816666
0.0816481
0.0816458
0.0816523
0.081661
0.0816665
0.0818189
0.0818242
0.0818397
0.0818724
0.0819309
0.0820239
0.0821572
0.0823273
0.0825174
0.0827002
0.08285
0.0829586
0.0830363
0.0830974
0.0831468
0.0831844
0.0832105
0.0832218
0.0832089
0.0831651
0.0830892
0.0829866
0.0828667
0.0827407
0.0826192
0.0825119
0.082423
0.082357
0.0823145
0.0822924
0.0822843
0.0822831
0.0818654
0.0818714
0.081889
0.0819253
0.0819896
0.0820903
0.0822316
0.0824085
0.0826038
0.0827909
0.0829446
0.0830541
0.0831241
0.0831638
0.0831778
0.0831737
0.083175
0.083206
0.0832659
0.08334
0.0834128
0.0834711
0.0835063
0.0835146
0.083497
0.083458
0.083406
0.0833496
0.0832976
0.0832572
0.0832322
0.0832217
0.0819016
0.081908
0.0819258
0.0819619
0.0820248
0.0821225
0.0822588
0.0824286
0.0826162
0.082797
0.0829453
0.0830452
0.0830934
0.0830932
0.0830479
0.0829662
0.0828829
0.0828452
0.0828662
0.0829369
0.0830437
0.0831709
0.0833017
0.0834213
0.083519
0.0835893
0.0836321
0.0836509
0.0836527
0.0836456
0.0836374
0.0836327
0.0819209
0.0819274
0.0819445
0.0819779
0.0820348
0.0821226
0.0822451
0.0823991
0.0825716
0.0827407
0.0828814
0.0829745
0.0830108
0.082989
0.0829119
0.0827892
0.0826596
0.08258
0.0825683
0.0826196
0.0827236
0.0828673
0.083033
0.0832009
0.0833527
0.0834763
0.0835672
0.0836274
0.0836628
0.0836805
0.0836876
0.0836895
0.0819232
0.0819299
0.0819462
0.0819761
0.0820254
0.0821001
0.0822044
0.082337
0.0824883
0.0826404
0.0827708
0.0828591
0.0828925
0.0828664
0.0827822
0.0826496
0.0825068
0.0824107
0.0823815
0.0824183
0.0825154
0.0826643
0.0828513
0.0830557
0.0832531
0.0834221
0.0835505
0.0836369
0.0836879
0.0837133
0.0837234
0.083726
0.0819103
0.0819171
0.0819328
0.0819599
0.0820022
0.0820643
0.0821499
0.0822588
0.0823851
0.0825151
0.0826299
0.0827109
0.0827442
0.0827229
0.082647
0.0825257
0.0823958
0.0823088
0.0822826
0.0823172
0.0824094
0.0825542
0.0827426
0.082959
0.0831802
0.083381
0.083542
0.0836554
0.0837242
0.0837589
0.083772
0.0837748
0.0818867
0.0818932
0.0819079
0.0819325
0.0819693
0.082021
0.0820902
0.0821772
0.0822782
0.0823834
0.0824783
0.0825477
0.0825793
0.082566
0.0825075
0.0824131
0.0823164
0.0822584
0.0822521
0.0822972
0.0823917
0.0825329
0.0827156
0.0829293
0.0831554
0.0833698
0.0835503
0.083683
0.0837669
0.0838103
0.0838269
0.0838301
0.0818643
0.0818692
0.0818809
0.0819012
0.0819319
0.0819747
0.0820305
0.0820991
0.0821775
0.0822589
0.082333
0.082389
0.0824181
0.0824154
0.0823818
0.0823266
0.082277
0.0822601
0.0822825
0.0823438
0.0824432
0.0825799
0.0827519
0.0829532
0.0831704
0.0833836
0.0835707
0.0837149
0.08381
0.0838613
0.0838815
0.0838855
0.081863
0.0818644
0.0818692
0.0818804
0.0819011
0.0819331
0.0819761
0.0820289
0.0820886
0.0821502
0.0822074
0.0822539
0.0822852
0.0822994
0.0822987
0.0822911
0.0822944
0.0823207
0.0823719
0.0824483
0.0825506
0.0826798
0.0828364
0.0830183
0.0832174
0.0834185
0.0836018
0.0837495
0.0838517
0.0839093
0.0839331
0.0839379
0.0819042
0.0819001
0.0818939
0.0818901
0.0818941
0.0819099
0.0819379
0.0819759
0.0820212
0.0820703
0.0821198
0.0821673
0.0822112
0.0822511
0.082289
0.0823302
0.0823818
0.0824441
0.0825169
0.0826023
0.0827025
0.0828201
0.0829574
0.083115
0.0832894
0.0834703
0.0836416
0.0837859
0.0838907
0.083953
0.0839801
0.083986
0.0820026
0.0819922
0.081973
0.0819507
0.0819335
0.0819287
0.0819393
0.0819645
0.0820017
0.0820484
0.0821028
0.0821635
0.0822294
0.0822996
0.0823741
0.082455
0.082541
0.0826257
0.0827089
0.0827949
0.0828874
0.0829897
0.0831051
0.0832359
0.0833817
0.0835368
0.0836895
0.0838243
0.0839273
0.0839921
0.084022
0.0840292
0.0821638
0.0821475
0.0821179
0.0820811
0.0820463
0.0820237
0.0820205
0.0820381
0.0820748
0.0821282
0.0821956
0.0822747
0.0823627
0.082457
0.0825559
0.0826591
0.0827608
0.0828523
0.0829347
0.0830138
0.0830937
0.0831783
0.083271
0.0833746
0.0834905
0.0836167
0.083746
0.0838657
0.0839623
0.0840268
0.0840589
0.0840674
0.0823861
0.0823665
0.082335
0.0822971
0.0822592
0.0822311
0.0822236
0.0822403
0.0822806
0.0823415
0.0824193
0.0825096
0.0826082
0.0827113
0.0828163
0.0829219
0.0830214
0.0831064
0.0831792
0.0832458
0.0833104
0.0833766
0.0834472
0.0835252
0.0836124
0.0837091
0.0838118
0.0839118
0.0839973
0.0840583
0.084091
0.0841006
0.0826667
0.0826491
0.0826292
0.0826081
0.082585
0.0825663
0.0825633
0.0825817
0.0826223
0.0826827
0.0827586
0.082845
0.0829372
0.0830314
0.083125
0.0832168
0.0833007
0.0833703
0.0834281
0.0834794
0.0835278
0.0835761
0.0836267
0.0836817
0.0837431
0.083812
0.0838873
0.0839644
0.0840344
0.0840878
0.0841189
0.0841293
0.0830082
0.0830004
0.0830041
0.083009
0.0830084
0.083005
0.0830087
0.083026
0.0830596
0.0831083
0.0831688
0.0832368
0.0833083
0.0833802
0.0834506
0.0835185
0.0835796
0.0836293
0.0836699
0.0837053
0.083738
0.08377
0.083803
0.0838385
0.0838778
0.0839222
0.0839717
0.0840245
0.0840754
0.0841172
0.0841436
0.0841536
0.0834225
0.0834314
0.0834548
0.0834745
0.0834863
0.0834921
0.0834981
0.0835101
0.0835309
0.0835608
0.0835978
0.0836393
0.0836827
0.083726
0.083768
0.0838082
0.0838441
0.083873
0.0838964
0.0839165
0.0839349
0.0839527
0.0839709
0.0839902
0.0840114
0.0840353
0.0840623
0.0840918
0.0841217
0.084148
0.0841663
0.084174
0.0839272
0.0839349
0.0839484
0.083959
0.0839658
0.0839696
0.0839724
0.0839766
0.0839834
0.0839931
0.0840053
0.0840189
0.0840331
0.0840472
0.0840609
0.0840739
0.0840855
0.0840948
0.0841023
0.0841088
0.0841146
0.0841202
0.0841259
0.0841319
0.0841385
0.0841458
0.0841541
0.0841633
0.0841728
0.0841816
0.0841882
0.0841914
)
;

boundaryField
{
    movingWall
    {
        type            fixedValue;
        value           uniform 0.0842;
    }
    fixedWalls
    {
        type            zeroGradient;
    }
    floor
    {
        type            zeroGradient;
    }
    frontAndBack
    {
        type            empty;
    }
}


// ************************************************************************* //
