/*--------------------------------*- C++ -*----------------------------------*\
| =========                 |                                                 |
| \\      /  F ield         | OpenFOAM: The Open Source CFD Toolbox           |
|  \\    /   O peration     | Version:  2206                                  |
|   \\  /    A nd           | Website:  www.openfoam.com                      |
|    \\/     M anipulation  |                                                 |
\*---------------------------------------------------------------------------*/
FoamFile
{
    version     2.0;
    format      ascii;
    arch        "LSB;label=64;scalar=64";
    class       surfaceScalarField;
    location    "108000";
    object      phi;
}
// * * * * * * * * * * * * * * * * * * * * * * * * * * * * * * * * * * * * * //

dimensions      [0 3 -1 0 0 0 0];

oriented        oriented;

internalField   nonuniform List<scalar> 
24
(
2.83824e-10
-2.83824e-10
3.70035e-10
-8.6211e-11
2.50328e-10
1.19707e-10
2.50328e-10
6.35831e-12
-2.90182e-10
-3.32772e-11
-4.65755e-11
9.51192e-11
-8.68965e-12
3.45447e-10
-1.40696e-10
-1.49486e-10
-2.36897e-10
4.96257e-11
-1.44792e-10
-1.00794e-10
2.00655e-10
-1.49486e-10
-9.98607e-11
-2.00655e-10
)
;

boundaryField
{
    movingWall
    {
        type            calculated;
        value           nonuniform List<scalar> 4(0 2.01948e-28 1.00974e-28 0);
    }
    fixedWalls
    {
        type            calculated;
        value           uniform 0;
    }
    frontAndBack
    {
        type            empty;
        value           nonuniform List<scalar> 0();
    }
}


// ************************************************************************* //
