/*--------------------------------*- C++ -*----------------------------------*\
| =========                 |                                                 |
| \\      /  F ield         | OpenFOAM: The Open Source CFD Toolbox           |
|  \\    /   O peration     | Version:  2212                                  |
|   \\  /    A nd           | Website:  www.openfoam.com                      |
|    \\/     M anipulation  |                                                 |
\*---------------------------------------------------------------------------*/
FoamFile
{
    version     2.0;
    format      ascii;
    arch        "LSB;label=64;scalar=64";
    class       volScalarField::Internal;
    location    "1530";
    object      dGco2;
}
// * * * * * * * * * * * * * * * * * * * * * * * * * * * * * * * * * * * * * //

dimensions      [1 -3 -1 0 0 0 0];

value           nonuniform List<scalar> 
1024
(
0.000143918
0.000143958
0.000144056
0.000144234
0.000144517
0.000144931
0.000145491
0.000146197
0.000147026
0.000147928
0.000148834
0.000149671
0.000150384
0.000150962
0.000151423
0.000151784
0.00015193
0.000151644
0.000150898
0.000149763
0.000148357
0.000146817
0.000145285
0.000143878
0.000142679
0.000141719
0.000140996
0.000140481
0.000140137
0.000139924
0.000139808
0.000139761
0.000143933
0.000143974
0.000144073
0.000144253
0.000144542
0.000144962
0.00014553
0.000146245
0.000147083
0.000147993
0.000148905
0.000149743
0.000150456
0.000151031
0.000151492
0.000151856
0.000152007
0.000151725
0.00015098
0.000149844
0.000148436
0.000146891
0.000145351
0.000143935
0.000142724
0.000141754
0.000141022
0.000140501
0.000140153
0.000139938
0.000139821
0.000139773
0.000143969
0.000144011
0.000144113
0.000144299
0.000144596
0.00014503
0.000145616
0.000146352
0.000147213
0.000148145
0.000149076
0.000149923
0.000150635
0.000151206
0.000151665
0.000152035
0.000152196
0.000151919
0.000151171
0.000150027
0.000148609
0.000147052
0.000145494
0.000144056
0.000142823
0.000141832
0.000141083
0.000140549
0.000140192
0.000139972
0.000139853
0.000139804
0.000144034
0.000144077
0.000144183
0.000144377
0.000144688
0.000145143
0.000145758
0.000146531
0.000147436
0.000148415
0.000149387
0.000150258
0.000150972
0.000151536
0.000151991
0.000152369
0.000152545
0.000152267
0.000151501
0.000150334
0.000148891
0.000147308
0.00014572
0.000144248
0.00014298
0.000141957
0.000141182
0.000140629
0.00014026
0.000140033
0.00013991
0.00013986
0.000144138
0.000144182
0.000144292
0.000144496
0.000144825
0.000145309
0.000145967
0.000146798
0.000147776
0.000148838
0.000149886
0.000150804
0.000151528
0.000152084
0.000152534
0.000152925
0.000153117
0.000152825
0.000152013
0.000150788
0.000149293
0.000147663
0.000146029
0.000144511
0.000143196
0.000142132
0.000141324
0.000140747
0.000140362
0.000140126
0.000139999
0.000139947
0.000144292
0.000144338
0.000144453
0.000144668
0.00014502
0.000145542
0.000146259
0.000147175
0.000148263
0.000149454
0.000150624
0.000151623
0.000152376
0.000152928
0.000153377
0.000153787
0.000153994
0.000153662
0.000152755
0.000151419
0.000149825
0.000148115
0.000146413
0.000144833
0.000143464
0.000142352
0.000141507
0.000140904
0.000140504
0.000140259
0.000140127
0.000140075
0.000144517
0.000144563
0.000144683
0.000144911
0.000145289
0.000145859
0.000146655
0.000147688
0.000148934
0.000150308
0.000151655
0.00015278
0.000153591
0.000154157
0.000154617
0.00015506
0.000155278
0.000154864
0.000153791
0.000152262
0.0001505
0.000148659
0.000146858
0.0001452
0.000143768
0.000142608
0.000141729
0.000141104
0.000140691
0.00014044
0.000140307
0.000140255
0.000144841
0.000144888
0.000145012
0.000145254
0.000145663
0.000146292
0.000147188
0.000148375
0.000149829
0.000151446
0.000153027
0.000154332
0.000155247
0.000155863
0.000156367
0.000156866
0.000157087
0.000156534
0.000155198
0.000153366
0.000151339
0.000149296
0.000147351
0.000145595
0.000144096
0.000142894
0.000141989
0.000141353
0.000140938
0.00014069
0.000140561
0.000140511
0.000145308
0.000145356
0.000145485
0.000145742
0.000146188
0.00014689
0.000147911
0.00014929
0.000151003
0.00015292
0.000154791
0.000156332
0.00015741
0.000158139
0.000158747
0.000159342
0.000159558
0.000158795
0.000157083
0.000154815
0.000152399
0.000150061
0.000147914
0.00014603
0.000144461
0.000143227
0.000142316
0.000141688
0.000141288
0.000141056
0.00014094
0.000140898
0.000145988
0.000146036
0.000146172
0.000146449
0.000146941
0.00014773
0.000148902
0.000150511
0.000152531
0.000154798
0.000157007
0.000158838
0.00016015
0.000161082
0.000161887
0.000162642
0.000162855
0.000161826
0.000159642
0.000156813
0.000153865
0.000151108
0.000148675
0.00014662
0.000144967
0.00014371
0.000142814
0.000142221
0.000141863
0.00014167
0.000141582
0.000141555
0.000146976
0.000147026
0.000147172
0.000147477
0.000148027
0.000148925
0.000150278
0.000152154
0.00015452
0.000157172
0.000159757
0.000161927
0.000163557
0.000164806
0.000165934
0.000166947
0.000167216
0.000165961
0.000163317
0.000159878
0.000156275
0.000152944
0.000150088
0.000147765
0.000145975
0.000144679
0.000143808
0.000143276
0.000142991
0.000142865
0.000142829
0.000142828
0.000148389
0.000148445
0.000148608
0.000148954
0.000149584
0.000150621
0.00015219
0.00015437
0.00015711
0.000160168
0.000163151
0.000165708
0.000167746
0.000169453
0.000171061
0.000172493
0.000173019
0.000171819
0.000169009
0.000165166
0.000160948
0.000156911
0.000153418
0.00015061
0.000148514
0.000147069
0.00014617
0.000145689
0.00014549
0.000145455
0.000145489
0.000145526
0.000150331
0.000150396
0.000150587
0.000150993
0.000151734
0.000152952
0.000154785
0.000157307
0.000160442
0.000163909
0.000167296
0.000170283
0.000172828
0.000175139
0.000177403
0.000179498
0.000180703
0.000180209
0.000177995
0.000174476
0.00017019
0.000165701
0.000161497
0.000157908
0.000155128
0.00015318
0.000151989
0.000151383
0.000151168
0.000151171
0.000151252
0.000151319
0.000152806
0.000152884
0.000153112
0.000153597
0.000154478
0.00015591
0.000158034
0.0001609
0.000164397
0.000168221
0.000171985
0.000175434
0.000178577
0.000181611
0.000184679
0.000187692
0.00019008
0.000191115
0.000190603
0.00018869
0.000185638
0.000181815
0.000177649
0.000173576
0.000169962
0.000167062
0.000165003
0.000163728
0.000163074
0.000162832
0.000162802
0.000162834
0.000155598
0.000155685
0.000155942
0.000156487
0.00015747
0.000159054
0.000161371
0.000164458
0.000168197
0.000172309
0.000176453
0.000180399
0.000184137
0.000187811
0.00019154
0.000195327
0.000198841
0.000201595
0.000203364
0.000204075
0.000203674
0.000202199
0.000199802
0.000196744
0.000193371
0.000190079
0.000187205
0.000184977
0.000183468
0.000182597
0.000182192
0.000182068
0.000158351
0.000158439
0.0001587
0.000159252
0.000160245
0.000161842
0.000164177
0.000167295
0.000171102
0.000175356
0.000179738
0.000183986
0.000188003
0.000191822
0.000195498
0.000199086
0.000202539
0.000205873
0.00020908
0.000212
0.000214363
0.000215932
0.000216569
0.000216248
0.000215073
0.000213272
0.000211166
0.000209117
0.000207417
0.000206218
0.000205528
0.00020525
0.000160552
0.000160636
0.000160877
0.000161381
0.000162286
0.000163745
0.000165892
0.000168794
0.000172396
0.000176497
0.000180789
0.000184952
0.000188756
0.00019208
0.00019487
0.000197163
0.000199176
0.00020157
0.000204718
0.000208467
0.000212408
0.000216112
0.000219234
0.000221559
0.000222999
0.000223591
0.000223481
0.000222903
0.000222135
0.000221424
0.000220928
0.000220695
0.000161962
0.000162039
0.000162254
0.000162693
0.000163473
0.00016473
0.000166594
0.000169145
0.000172364
0.000176096
0.000180061
0.000183913
0.00018733
0.000190069
0.00019198
0.000193058
0.000193664
0.000194866
0.000197391
0.000201229
0.000205951
0.000210969
0.000215714
0.000219764
0.000222892
0.000225049
0.000226325
0.000226897
0.000226996
0.000226856
0.00022667
0.000226556
0.000162749
0.00016282
0.00016301
0.000163389
0.000164051
0.000165112
0.000166689
0.000168867
0.000171655
0.000174941
0.000178489
0.000181968
0.000185029
0.000187373
0.000188796
0.000189274
0.000189216
0.000189776
0.000191768
0.000195367
0.000200325
0.000206116
0.000212058
0.000217504
0.000222004
0.000225356
0.000227581
0.000228854
0.00022943
0.000229582
0.000229545
0.000229484
0.000163148
0.000163212
0.000163379
0.000163704
0.000164264
0.000165153
0.000166474
0.000168306
0.000170672
0.000173499
0.000176598
0.000179683
0.000182428
0.000184535
0.000185795
0.000186185
0.000186123
0.000186643
0.000188444
0.000191775
0.000196572
0.000202505
0.000208989
0.000215325
0.000220895
0.000225304
0.000228428
0.00023037
0.000231381
0.000231769
0.000231831
0.000231795
0.000163377
0.000163429
0.000163564
0.000163831
0.000164293
0.000165029
0.000166124
0.00016765
0.000169632
0.000172023
0.00017468
0.000177378
0.000179847
0.000181833
0.000183164
0.000183843
0.000184251
0.000185179
0.000187136
0.00019037
0.00019493
0.000200655
0.000207147
0.000213815
0.000220003
0.00022518
0.000229059
0.000231624
0.000233069
0.000233703
0.000233868
0.000233855
0.000163707
0.000163733
0.000163814
0.000163995
0.000164336
0.000164911
0.000165794
0.000167046
0.000168691
0.000170699
0.00017297
0.000175345
0.000177626
0.000179629
0.000181235
0.000182486
0.000183663
0.000185244
0.000187545
0.000190801
0.000195133
0.000200505
0.000206676
0.000213214
0.000219564
0.000225163
0.000229593
0.000232691
0.000234548
0.000235438
0.000235716
0.00023573
0.000164489
0.000164469
0.000164455
0.000164498
0.000164666
0.000165042
0.000165701
0.000166703
0.000168073
0.000169794
0.000171808
0.000174009
0.000176272
0.000178474
0.000180544
0.000182541
0.000184601
0.000186877
0.000189537
0.00019281
0.00019687
0.000201786
0.000207451
0.000213564
0.000219702
0.000225374
0.000230112
0.000233617
0.000235846
0.000236992
0.000237395
0.00023744
0.00016611
0.000166018
0.000165863
0.000165709
0.000165648
0.000165784
0.000166216
0.000167014
0.000168212
0.000169807
0.000171763
0.000174012
0.000176465
0.000179036
0.000181674
0.000184431
0.000187283
0.000190119
0.000193015
0.000196212
0.00019992
0.000204282
0.000209299
0.000214801
0.000220474
0.000225921
0.000230708
0.000234459
0.00023699
0.000238379
0.000238916
0.000238997
0.000168922
0.000168733
0.000168403
0.000168025
0.000167726
0.000167646
0.000167913
0.00016862
0.000169811
0.000171483
0.000173598
0.000176089
0.000178871
0.000181865
0.000185019
0.000188364
0.000191747
0.000194887
0.000197827
0.00020082
0.000204095
0.000207832
0.000212106
0.000216856
0.000221881
0.000226879
0.000231476
0.000235283
0.000238015
0.000239615
0.000240287
0.000240412
0.000173178
0.000172878
0.000172378
0.00017183
0.0001714
0.000171249
0.000171521
0.000172322
0.00017369
0.000175601
0.000177992
0.000180777
0.000183861
0.000187158
0.000190609
0.000194227
0.00019779
0.000200947
0.00020373
0.000206401
0.000209185
0.000212268
0.000215764
0.000219685
0.000223932
0.000228304
0.000232504
0.00023617
0.000238966
0.000240719
0.000241518
0.000241693
0.000179023
0.000178615
0.000178026
0.000177484
0.000177166
0.000177206
0.000177717
0.00017879
0.000180434
0.000182599
0.000185203
0.000188147
0.000191329
0.000194665
0.000198098
0.000201632
0.000205029
0.000207942
0.000210408
0.000212672
0.000214943
0.000217386
0.000220123
0.000223208
0.000226615
0.000230234
0.000233864
0.000237201
0.000239902
0.000241717
0.000242617
0.000242843
0.00018654
0.000186067
0.00018557
0.000185323
0.000185427
0.000185914
0.000186827
0.000188216
0.000190063
0.000192321
0.000194911
0.000197744
0.00020073
0.000203797
0.000206896
0.000210032
0.000212989
0.00021547
0.000217512
0.000219328
0.000221091
0.000222941
0.000224983
0.000227285
0.000229861
0.000232671
0.000235604
0.000238444
0.000240887
0.000242645
0.000243594
0.000243868
0.000195843
0.000195415
0.000195291
0.000195627
0.00019634
0.000197337
0.000198599
0.000200146
0.000201968
0.000204047
0.000206334
0.000208765
0.000211276
0.000213812
0.000216338
0.000218857
0.000221201
0.000223139
0.000224705
0.000226066
0.000227354
0.000228674
0.00023011
0.000231722
0.000233537
0.000235556
0.000237735
0.00023995
0.000241977
0.000243544
0.000244466
0.00024477
0.000207181
0.000207013
0.000207517
0.000208475
0.000209639
0.000210891
0.00021221
0.000213616
0.00021513
0.000216765
0.000218506
0.000220318
0.000222161
0.000224002
0.000225818
0.00022761
0.000229261
0.000230615
0.000231697
0.000232622
0.00023348
0.000234343
0.000235268
0.000236299
0.000237461
0.000238768
0.000240212
0.000241741
0.000243226
0.000244462
0.000245256
0.000245554
0.000221027
0.000221356
0.000222327
0.00022342
0.000224503
0.000225537
0.000226521
0.000227486
0.000228464
0.00022948
0.000230536
0.000231621
0.000232716
0.000233802
0.000234866
0.00023591
0.000236866
0.000237647
0.000238266
0.00023879
0.00023927
0.000239746
0.00024025
0.000240806
0.000241432
0.000242138
0.000242928
0.000243788
0.000244663
0.000245444
0.000245996
0.000246233
0.000237959
0.00023822
0.000238721
0.0002392
0.000239639
0.000240038
0.000240401
0.000240742
0.000241075
0.000241414
0.000241763
0.000242118
0.000242475
0.000242828
0.000243172
0.000243509
0.000243817
0.000244068
0.000244267
0.000244434
0.000244586
0.000244735
0.000244892
0.000245064
0.000245258
0.000245475
0.000245719
0.000245987
0.000246266
0.000246527
0.000246727
0.000246824
)
;


// ************************************************************************* //
