/*--------------------------------*- C++ -*----------------------------------*\
| =========                 |                                                 |
| \\      /  F ield         | OpenFOAM: The Open Source CFD Toolbox           |
|  \\    /   O peration     | Version:  2212                                  |
|   \\  /    A nd           | Website:  www.openfoam.com                      |
|    \\/     M anipulation  |                                                 |
\*---------------------------------------------------------------------------*/
FoamFile
{
    version     2.0;
    format      ascii;
    arch        "LSB;label=64;scalar=64";
    class       volScalarField;
    location    "1530";
    object      Gch4;
}
// * * * * * * * * * * * * * * * * * * * * * * * * * * * * * * * * * * * * * //

dimensions      [1 -3 0 0 0 0 0];

internalField   nonuniform List<scalar> 
1024
(
1.93539
1.93528
1.935
1.9345
1.93371
1.93255
1.93098
1.929
1.92668
1.92416
1.92162
1.91929
1.9173
1.9157
1.91442
1.91344
1.91307
1.91391
1.91602
1.91922
1.92318
1.92752
1.93184
1.9358
1.93919
1.9419
1.94394
1.94539
1.94636
1.94697
1.94729
1.94743
1.93535
1.93523
1.93496
1.93445
1.93364
1.93246
1.93087
1.92887
1.92652
1.92398
1.92143
1.91909
1.9171
1.9155
1.91423
1.91324
1.91286
1.91368
1.91579
1.919
1.92296
1.92731
1.93165
1.93565
1.93906
1.9418
1.94386
1.94533
1.94632
1.94693
1.94726
1.94739
1.93524
1.93513
1.93484
1.93432
1.93349
1.93227
1.93063
1.92857
1.92616
1.92355
1.92095
1.91858
1.9166
1.91502
1.91375
1.91275
1.91233
1.91314
1.91527
1.91849
1.92248
1.92686
1.93125
1.93531
1.93878
1.94158
1.9437
1.9452
1.94621
1.94683
1.94717
1.9473
1.93506
1.93494
1.93465
1.9341
1.93323
1.93196
1.93023
1.92807
1.92554
1.9228
1.92008
1.91765
1.91566
1.9141
1.91285
1.91182
1.91137
1.91218
1.91435
1.91764
1.9217
1.92615
1.93062
1.93477
1.93834
1.94123
1.94342
1.94498
1.94602
1.94666
1.94701
1.94715
1.93477
1.93465
1.93434
1.93377
1.93285
1.93149
1.92965
1.92732
1.92459
1.92162
1.91869
1.91613
1.91411
1.91257
1.91134
1.91028
1.90978
1.91063
1.91293
1.91638
1.92058
1.92516
1.92976
1.93404
1.93774
1.94074
1.94302
1.94465
1.94573
1.9464
1.94676
1.94691
1.93434
1.93421
1.93389
1.93329
1.9323
1.93084
1.92883
1.92627
1.92323
1.9199
1.91663
1.91385
1.91175
1.91023
1.909
1.90789
1.90735
1.90832
1.91088
1.91463
1.91911
1.92391
1.92869
1.93314
1.937
1.94013
1.94251
1.94421
1.94534
1.94603
1.9464
1.94655
1.93371
1.93358
1.93324
1.93261
1.93155
1.92995
1.92772
1.92483
1.92135
1.91751
1.91376
1.91062
1.90837
1.90681
1.90555
1.90436
1.9038
1.90499
1.90802
1.91231
1.91724
1.92241
1.92746
1.93212
1.93615
1.93942
1.94189
1.94366
1.94482
1.94553
1.9459
1.94605
1.9328
1.93267
1.93232
1.93165
1.9305
1.92874
1.92623
1.92291
1.91885
1.91434
1.90993
1.9063
1.90377
1.90207
1.9007
1.89936
1.89879
1.90038
1.90414
1.90927
1.91494
1.92065
1.9261
1.93104
1.93525
1.93863
1.94117
1.94297
1.94414
1.94484
1.9452
1.94534
1.93149
1.93136
1.931
1.93028
1.92903
1.92706
1.92421
1.92036
1.91557
1.91022
1.90501
1.90073
1.89775
1.89575
1.8941
1.8925
1.89197
1.89415
1.89895
1.90528
1.91203
1.91856
1.92457
1.92984
1.93425
1.93771
1.94028
1.94204
1.94317
1.94382
1.94415
1.94427
1.92959
1.92945
1.92907
1.9283
1.92692
1.92471
1.92144
1.91694
1.9113
1.90499
1.89884
1.89376
1.89014
1.88759
1.88541
1.88338
1.88286
1.88579
1.89191
1.8998
1.90801
1.9157
1.92249
1.92824
1.93287
1.93639
1.93891
1.94057
1.94158
1.94213
1.94238
1.94245
1.92682
1.92668
1.92627
1.92542
1.92388
1.92137
1.91759
1.91235
1.90575
1.89837
1.89118
1.88517
1.88068
1.87726
1.8742
1.87147
1.87082
1.87439
1.88178
1.89136
1.90139
1.91067
1.91862
1.9251
1.9301
1.93373
1.93617
1.93766
1.93846
1.93882
1.93893
1.93893
1.92286
1.9227
1.92225
1.92128
1.91952
1.91662
1.91224
1.90616
1.89853
1.89002
1.88174
1.87467
1.86906
1.86439
1.86001
1.85613
1.85479
1.85821
1.86608
1.87678
1.88851
1.89973
1.90944
1.91726
1.92309
1.92712
1.92963
1.93098
1.93154
1.93164
1.93155
1.93145
1.91742
1.91724
1.91671
1.91558
1.91351
1.91011
1.90499
1.89796
1.88924
1.8796
1.87022
1.86196
1.85496
1.84863
1.84245
1.83675
1.83353
1.83502
1.84124
1.85105
1.86297
1.87543
1.8871
1.89707
1.90479
1.9102
1.91351
1.9152
1.9158
1.9158
1.91557
1.91539
1.9105
1.91028
1.90964
1.90829
1.90584
1.90184
1.89593
1.88795
1.87823
1.86761
1.85718
1.84766
1.83901
1.83068
1.82227
1.81404
1.80757
1.80484
1.80637
1.81175
1.82025
1.83087
1.84243
1.85371
1.86373
1.87176
1.87746
1.881
1.88281
1.88348
1.88356
1.88347
1.90268
1.90244
1.90173
1.90021
1.89747
1.89306
1.88661
1.87803
1.86764
1.85623
1.84475
1.83384
1.82354
1.81343
1.8032
1.79283
1.78326
1.7758
1.77106
1.76922
1.77043
1.77458
1.78124
1.78971
1.79904
1.80813
1.81607
1.82222
1.82639
1.82879
1.82991
1.83025
1.89498
1.89473
1.89401
1.89247
1.88971
1.88527
1.87877
1.8701
1.85952
1.8477
1.83556
1.8238
1.81271
1.80218
1.79208
1.78225
1.77286
1.76383
1.75518
1.74731
1.74096
1.73677
1.7351
1.73604
1.7393
1.74427
1.75006
1.75569
1.76036
1.76365
1.76555
1.76631
1.88879
1.88856
1.88789
1.88649
1.88398
1.87992
1.87394
1.86587
1.85585
1.84445
1.83253
1.82099
1.81045
1.80126
1.79357
1.78728
1.78183
1.7754
1.76695
1.75687
1.74627
1.7363
1.72789
1.72163
1.71775
1.71616
1.71646
1.71803
1.72012
1.72205
1.7234
1.72403
1.88481
1.8846
1.88401
1.88279
1.88062
1.87712
1.87194
1.86483
1.85587
1.84548
1.83445
1.82374
1.81424
1.80663
1.80132
1.79834
1.79672
1.79353
1.78677
1.77647
1.76377
1.75027
1.73751
1.72661
1.71819
1.71237
1.70893
1.70737
1.70709
1.70745
1.70794
1.70824
1.88257
1.88237
1.88185
1.8808
1.87896
1.87601
1.87162
1.86555
1.85778
1.84862
1.83873
1.82903
1.8205
1.81395
1.80996
1.80861
1.80878
1.80732
1.802
1.79233
1.77899
1.7634
1.74741
1.73275
1.72065
1.71163
1.70564
1.7022
1.70063
1.70021
1.7003
1.70046
1.88141
1.88123
1.88077
1.87987
1.87832
1.87584
1.87217
1.86706
1.86046
1.85257
1.84392
1.8353
1.82763
1.82172
1.81817
1.81704
1.81721
1.81585
1.81103
1.80208
1.78916
1.77318
1.75572
1.73867
1.72368
1.71183
1.70342
1.69819
1.69546
1.69441
1.69423
1.69432
1.88073
1.88059
1.88021
1.87947
1.87819
1.87615
1.87309
1.86884
1.86331
1.85663
1.84921
1.84166
1.83475
1.82917
1.82542
1.8235
1.82238
1.8199
1.81464
1.80593
1.79364
1.77821
1.76072
1.74277
1.72612
1.7122
1.70177
1.69487
1.69098
1.68927
1.68881
1.68884
1.87979
1.87972
1.87949
1.87899
1.87804
1.87644
1.87398
1.87049
1.86589
1.86028
1.85393
1.84729
1.84091
1.8353
1.8308
1.82733
1.8241
1.81983
1.81362
1.80484
1.79315
1.77866
1.76203
1.74442
1.72733
1.71228
1.70037
1.69204
1.68705
1.68465
1.68389
1.68385
1.87764
1.87769
1.87772
1.8776
1.87712
1.87607
1.87423
1.87143
1.8676
1.86279
1.85717
1.85103
1.84472
1.83858
1.83284
1.82733
1.8217
1.81553
1.80833
1.79949
1.78853
1.77526
1.75998
1.74351
1.72699
1.71174
1.699
1.68958
1.68359
1.68051
1.67942
1.6793
1.87321
1.87346
1.87388
1.87429
1.87444
1.87404
1.87282
1.87059
1.86725
1.86281
1.85737
1.85113
1.84432
1.83721
1.82993
1.82236
1.81458
1.80688
1.79903
1.79037
1.78035
1.76858
1.75504
1.74022
1.72494
1.71029
1.69743
1.68735
1.68055
1.67682
1.67537
1.67515
1.86556
1.86607
1.86696
1.86798
1.86878
1.86897
1.86821
1.86624
1.86294
1.85831
1.85246
1.84559
1.83792
1.82967
1.82101
1.81186
1.80263
1.79409
1.78611
1.77801
1.76915
1.75905
1.74752
1.73472
1.72118
1.70774
1.69538
1.68516
1.67782
1.67353
1.67172
1.67138
1.854
1.85481
1.85616
1.85764
1.8588
1.85919
1.85842
1.8562
1.85243
1.84718
1.84061
1.83295
1.82449
1.81545
1.806
1.79611
1.78639
1.77781
1.77025
1.76301
1.75547
1.74714
1.7377
1.72713
1.71569
1.70393
1.69264
1.68279
1.67529
1.67058
1.66844
1.66797
1.83813
1.83923
1.84083
1.84229
1.84314
1.84302
1.84161
1.83867
1.83416
1.82823
1.8211
1.81304
1.80433
1.79521
1.78582
1.77617
1.76691
1.75899
1.75229
1.74615
1.74
1.73339
1.726
1.71768
1.7085
1.69876
1.68901
1.68004
1.67279
1.66793
1.66551
1.6649
1.81773
1.81901
1.82036
1.82102
1.82073
1.8194
1.81691
1.81311
1.80807
1.80191
1.79483
1.78709
1.77893
1.77056
1.76209
1.75353
1.74548
1.73873
1.73318
1.72825
1.72347
1.71847
1.71295
1.70674
1.6998
1.69224
1.68435
1.67672
1.67017
1.66545
1.66291
1.66217
1.7925
1.79366
1.79399
1.79308
1.79114
1.78843
1.78499
1.78078
1.77581
1.77015
1.76391
1.75728
1.75043
1.7435
1.73661
1.72974
1.72335
1.71808
1.71382
1.71013
1.70663
1.70306
1.69918
1.69483
1.68994
1.6845
1.67865
1.6727
1.66726
1.66306
1.66059
1.65977
1.76176
1.76221
1.76085
1.75825
1.75509
1.75169
1.7481
1.74428
1.74016
1.73571
1.73096
1.72603
1.721
1.71597
1.71102
1.70613
1.70163
1.69795
1.69501
1.6925
1.69017
1.68783
1.68533
1.68255
1.67942
1.6759
1.67201
1.66791
1.66392
1.66061
1.65848
1.65768
1.72423
1.72334
1.7207
1.71774
1.7148
1.712
1.70932
1.7067
1.70404
1.70128
1.6984
1.69545
1.69246
1.6895
1.6866
1.68375
1.68114
1.67902
1.67733
1.67591
1.67461
1.67332
1.67196
1.67046
1.66877
1.66687
1.66474
1.66243
1.66009
1.65799
1.65651
1.65588
1.67835
1.67764
1.67628
1.67498
1.67379
1.67271
1.67173
1.6708
1.66989
1.66897
1.66802
1.66705
1.66608
1.66512
1.66418
1.66326
1.66242
1.66174
1.6612
1.66074
1.66033
1.65993
1.6595
1.65904
1.65852
1.65793
1.65727
1.65655
1.6558
1.65511
1.65457
1.65431
)
;

boundaryField
{
    movingWall
    {
        type            fixedValue;
        value           uniform 1.6535;
    }
    fixedWalls
    {
        type            zeroGradient;
    }
    floor
    {
        type            zeroGradient;
    }
    frontAndBack
    {
        type            empty;
    }
}


// ************************************************************************* //
