/*--------------------------------*- C++ -*----------------------------------*\
| =========                 |                                                 |
| \\      /  F ield         | OpenFOAM: The Open Source CFD Toolbox           |
|  \\    /   O peration     | Version:  2212                                  |
|   \\  /    A nd           | Website:  www.openfoam.com                      |
|    \\/     M anipulation  |                                                 |
\*---------------------------------------------------------------------------*/
FoamFile
{
    version     2.0;
    format      ascii;
    arch        "LSB;label=64;scalar=64";
    class       volScalarField;
    location    "1530";
    object      SIC;
}
// * * * * * * * * * * * * * * * * * * * * * * * * * * * * * * * * * * * * * //

dimensions      [1 -3 0 0 0 0 0];

internalField   nonuniform List<scalar> 
1024
(
0.0911657
0.0911673
0.091171
0.0911778
0.0911886
0.0912043
0.0912257
0.0912526
0.0912842
0.0913186
0.0913532
0.0913851
0.0914123
0.0914344
0.091452
0.0914658
0.0914715
0.0914607
0.0914322
0.091389
0.0913354
0.0912766
0.0912182
0.0911645
0.0911188
0.0910822
0.0910546
0.0910349
0.0910218
0.0910137
0.0910093
0.0910075
0.0911663
0.0911678
0.0911716
0.0911785
0.0911895
0.0912055
0.0912272
0.0912544
0.0912864
0.0913211
0.0913559
0.0913878
0.091415
0.091437
0.0914546
0.0914686
0.0914744
0.0914637
0.0914354
0.0913921
0.0913384
0.0912795
0.0912207
0.0911667
0.0911205
0.0910835
0.0910556
0.0910357
0.0910224
0.0910142
0.0910098
0.0910079
0.0911677
0.0911693
0.0911731
0.0911802
0.0911916
0.0912081
0.0912305
0.0912585
0.0912913
0.0913269
0.0913624
0.0913947
0.0914219
0.0914437
0.0914612
0.0914754
0.0914816
0.0914711
0.0914426
0.0913991
0.091345
0.0912856
0.0912262
0.0911713
0.0911243
0.0910865
0.0910579
0.0910375
0.0910239
0.0910155
0.091011
0.0910091
0.0911702
0.0911718
0.0911758
0.0911832
0.0911951
0.0912124
0.0912359
0.0912654
0.0912998
0.0913372
0.0913743
0.0914075
0.0914347
0.0914562
0.0914736
0.0914882
0.0914949
0.0914844
0.0914552
0.0914107
0.0913557
0.0912953
0.0912348
0.0911787
0.0911303
0.0910913
0.0910617
0.0910406
0.0910265
0.0910178
0.0910131
0.0910112
0.0911741
0.0911758
0.09118
0.0911878
0.0912003
0.0912188
0.0912438
0.0912756
0.0913128
0.0913533
0.0913933
0.0914283
0.0914559
0.0914771
0.0914944
0.0915094
0.0915168
0.0915057
0.0914748
0.0914281
0.0913711
0.0913089
0.0912466
0.0911887
0.0911385
0.0910979
0.0910671
0.0910451
0.0910304
0.0910214
0.0910165
0.0910146
0.09118
0.0911817
0.0911861
0.0911943
0.0912077
0.0912276
0.091255
0.0912899
0.0913314
0.0913768
0.0914214
0.0914595
0.0914882
0.0915093
0.0915265
0.0915422
0.0915502
0.0915376
0.0915031
0.0914521
0.0913914
0.0913261
0.0912612
0.091201
0.0911487
0.0911063
0.0910741
0.0910511
0.0910358
0.0910265
0.0910214
0.0910194
0.0911886
0.0911903
0.0911949
0.0912036
0.091218
0.0912398
0.0912701
0.0913095
0.091357
0.0914094
0.0914607
0.0915036
0.0915346
0.0915562
0.0915738
0.0915908
0.0915992
0.0915835
0.0915426
0.0914843
0.0914171
0.0913469
0.0912782
0.0912149
0.0911603
0.0911161
0.0910825
0.0910587
0.0910429
0.0910334
0.0910283
0.0910263
0.0912009
0.0912027
0.0912074
0.0912167
0.0912323
0.0912563
0.0912905
0.0913357
0.0913911
0.0914528
0.0915131
0.0915628
0.0915977
0.0916212
0.0916406
0.0916597
0.0916683
0.0916472
0.0915963
0.0915264
0.0914491
0.0913712
0.091297
0.09123
0.0911728
0.091127
0.0910925
0.0910682
0.0910524
0.0910429
0.091038
0.0910361
0.0912188
0.0912206
0.0912255
0.0912353
0.0912523
0.0912791
0.091318
0.0913706
0.0914359
0.091509
0.0915803
0.0916391
0.0916802
0.091708
0.0917313
0.0917542
0.0917625
0.0917335
0.0916682
0.0915817
0.0914895
0.0914003
0.0913184
0.0912466
0.0911868
0.0911397
0.0911049
0.091081
0.0910657
0.0910569
0.0910524
0.0910508
0.0912447
0.0912465
0.0912517
0.0912623
0.091281
0.0913111
0.0913558
0.0914172
0.0914942
0.0915806
0.0916649
0.0917346
0.0917847
0.0918203
0.0918511
0.09188
0.0918883
0.0918491
0.0917658
0.0916579
0.0915454
0.0914403
0.0913475
0.0912691
0.091206
0.0911581
0.0911239
0.0911013
0.0910876
0.0910803
0.0910769
0.0910759
0.0912823
0.0912843
0.0912898
0.0913015
0.0913225
0.0913567
0.0914083
0.0914799
0.0915701
0.0916712
0.0917697
0.0918525
0.0919146
0.0919623
0.0920055
0.0920442
0.0920546
0.0920068
0.091906
0.0917748
0.0916374
0.0915103
0.0914013
0.0913127
0.0912445
0.091195
0.0911618
0.0911415
0.0911306
0.0911259
0.0911245
0.0911244
0.0913362
0.0913384
0.0913446
0.0913578
0.0913818
0.0914214
0.0914813
0.0915644
0.0916689
0.0917854
0.0918992
0.0919967
0.0920744
0.0921396
0.092201
0.0922557
0.0922759
0.0922302
0.092123
0.0919765
0.0918156
0.0916616
0.0915284
0.0914213
0.0913413
0.0912862
0.0912519
0.0912335
0.091226
0.0912246
0.0912259
0.0912273
0.0914102
0.0914127
0.09142
0.0914355
0.0914638
0.0915103
0.0915802
0.0916764
0.0917959
0.0919281
0.0920572
0.0921711
0.0922682
0.0923563
0.0924428
0.0925227
0.0925688
0.09255
0.0924656
0.0923315
0.092168
0.0919968
0.0918365
0.0916996
0.0915936
0.0915193
0.0914738
0.0914507
0.0914425
0.0914426
0.0914457
0.0914483
0.0915045
0.0915075
0.0915162
0.0915347
0.0915683
0.091623
0.0917039
0.0918133
0.0919466
0.0920924
0.0922359
0.0923674
0.0924873
0.092603
0.0927201
0.092835
0.092926
0.0929655
0.0929461
0.0928732
0.0927569
0.0926112
0.0924523
0.092297
0.0921592
0.0920486
0.0919701
0.0919215
0.0918965
0.0918873
0.0918861
0.0918873
0.0916109
0.0916142
0.091624
0.0916448
0.0916823
0.0917427
0.0918311
0.0919488
0.0920913
0.0922481
0.0924062
0.0925566
0.0926991
0.0928392
0.0929814
0.0931257
0.0932596
0.0933646
0.0934321
0.0934593
0.0934441
0.0933879
0.0932966
0.0931801
0.0930515
0.092926
0.0928165
0.0927315
0.0926739
0.0926407
0.0926253
0.0926206
0.0917157
0.0917191
0.0917291
0.0917501
0.091788
0.0918489
0.0919379
0.0920568
0.092202
0.0923642
0.0925312
0.0926932
0.0928463
0.0929918
0.0931319
0.0932686
0.0934002
0.0935272
0.0936495
0.0937609
0.093851
0.0939109
0.0939352
0.0939231
0.0938783
0.0938097
0.0937295
0.0936514
0.0935866
0.0935409
0.0935146
0.093504
0.0917996
0.0918028
0.091812
0.0918312
0.0918657
0.0919213
0.0920032
0.0921139
0.0922512
0.0924076
0.0925712
0.0927299
0.0928749
0.0930015
0.0931078
0.0931951
0.0932718
0.093363
0.093483
0.0936259
0.0937762
0.0939174
0.0940365
0.0941252
0.0941801
0.0942027
0.0941985
0.0941766
0.0941473
0.0941202
0.0941013
0.0940924
0.0918533
0.0918563
0.0918645
0.0918812
0.0919109
0.0919589
0.0920299
0.0921272
0.0922499
0.0923922
0.0925434
0.0926902
0.0928204
0.0929248
0.0929976
0.0930386
0.0930616
0.0931074
0.0932036
0.09335
0.09353
0.0937214
0.0939023
0.0940567
0.094176
0.0942582
0.0943069
0.0943287
0.0943325
0.0943272
0.0943201
0.0943157
0.0918833
0.091886
0.0918933
0.0919077
0.091933
0.0919734
0.0920335
0.0921166
0.0922229
0.0923481
0.0924834
0.092616
0.0927327
0.092822
0.0928762
0.0928943
0.0928921
0.0929134
0.0929893
0.0931266
0.0933156
0.0935364
0.0937629
0.0939706
0.0941421
0.0942699
0.0943548
0.0944033
0.0944253
0.094431
0.0944296
0.0944273
0.0918985
0.091901
0.0919073
0.0919197
0.0919411
0.091975
0.0920253
0.0920951
0.0921854
0.0922931
0.0924112
0.0925289
0.0926335
0.0927138
0.0927618
0.0927766
0.0927742
0.092794
0.0928627
0.0929897
0.0931726
0.0933987
0.0936459
0.0938875
0.0940999
0.0942679
0.094387
0.0944611
0.0944996
0.0945144
0.0945168
0.0945154
0.0919072
0.0919092
0.0919144
0.0919245
0.0919421
0.0919702
0.092012
0.0920701
0.0921457
0.0922368
0.0923381
0.092441
0.0925351
0.0926108
0.0926615
0.0926874
0.0927029
0.0927383
0.0928129
0.0929362
0.09311
0.0933283
0.0935757
0.09383
0.0940659
0.0942632
0.0944111
0.0945089
0.094564
0.0945881
0.0945944
0.094594
0.0919198
0.0919208
0.0919239
0.0919308
0.0919438
0.0919657
0.0919994
0.0920471
0.0921098
0.0921863
0.0922729
0.0923634
0.0924504
0.0925267
0.092588
0.0926356
0.0926805
0.0927408
0.0928285
0.0929526
0.0931178
0.0933226
0.0935578
0.0938071
0.0940491
0.0942626
0.0944315
0.0945496
0.0946204
0.0946543
0.0946649
0.0946654
0.0919496
0.0919488
0.0919483
0.0919499
0.0919564
0.0919707
0.0919958
0.092034
0.0920862
0.0921519
0.0922286
0.0923125
0.0923988
0.0924827
0.0925616
0.0926377
0.0927163
0.092803
0.0929045
0.0930292
0.093184
0.0933714
0.0935874
0.0938204
0.0940544
0.0942706
0.0944513
0.0945849
0.0946698
0.0947135
0.0947289
0.0947306
0.0920114
0.0920079
0.092002
0.0919961
0.0919938
0.091999
0.0920154
0.0920459
0.0920915
0.0921523
0.0922269
0.0923126
0.0924061
0.0925041
0.0926047
0.0927098
0.0928186
0.0929266
0.0930371
0.093159
0.0933003
0.0934666
0.0936578
0.0938676
0.0940839
0.0942915
0.094474
0.094617
0.0947135
0.0947664
0.0947869
0.09479
0.0921186
0.0921114
0.0920988
0.0920844
0.092073
0.09207
0.0920801
0.0921071
0.0921525
0.0922162
0.0922968
0.0923918
0.0924979
0.092612
0.0927323
0.0928597
0.0929887
0.0931084
0.0932205
0.0933346
0.0934595
0.0936019
0.0937649
0.0939459
0.0941375
0.094328
0.0945032
0.0946484
0.0947525
0.0948135
0.0948391
0.0948439
0.0922808
0.0922694
0.0922504
0.0922295
0.0922131
0.0922073
0.0922176
0.0922482
0.0923003
0.0923732
0.0924643
0.0925705
0.0926881
0.0928138
0.0929453
0.0930833
0.0932191
0.0933394
0.0934455
0.0935474
0.0936535
0.093771
0.0939043
0.0940538
0.0942157
0.0943823
0.0945424
0.0946822
0.0947888
0.0948556
0.0948861
0.0948927
0.0925037
0.0924881
0.0924657
0.092445
0.0924329
0.0924344
0.0924538
0.0924947
0.0925574
0.0926399
0.0927392
0.0928514
0.0929728
0.0931
0.0932308
0.0933655
0.093495
0.0936061
0.0937001
0.0937864
0.093873
0.0939661
0.0940705
0.0941881
0.0943179
0.0944559
0.0945943
0.0947215
0.0948245
0.0948936
0.0949279
0.0949366
0.0927902
0.0927722
0.0927532
0.0927438
0.0927478
0.0927663
0.0928011
0.0928541
0.0929245
0.0930105
0.0931093
0.0932173
0.0933311
0.0934481
0.0935662
0.0936858
0.0937985
0.0938931
0.0939709
0.0940401
0.0941074
0.0941779
0.0942557
0.0943435
0.0944417
0.0945488
0.0946606
0.0947689
0.094862
0.094929
0.0949652
0.0949756
0.0931449
0.0931286
0.0931238
0.0931366
0.0931638
0.0932018
0.0932499
0.0933088
0.0933783
0.0934575
0.0935447
0.0936374
0.0937332
0.0938299
0.0939262
0.0940222
0.0941115
0.0941854
0.0942451
0.094297
0.0943461
0.0943964
0.0944512
0.0945126
0.0945818
0.0946588
0.0947418
0.0948263
0.0949036
0.0949633
0.0949984
0.09501
0.0935771
0.0935707
0.0935899
0.0936264
0.0936708
0.0937185
0.0937688
0.0938224
0.0938801
0.0939424
0.0940088
0.0940778
0.0941481
0.0942183
0.0942875
0.0943559
0.0944188
0.0944704
0.0945117
0.0945469
0.0945797
0.0946125
0.0946478
0.0946871
0.0947314
0.0947812
0.0948363
0.0948946
0.0949512
0.0949983
0.0950286
0.0950399
0.0941049
0.0941175
0.0941545
0.0941961
0.0942374
0.0942768
0.0943143
0.0943511
0.0943884
0.0944271
0.0944674
0.0945088
0.0945505
0.0945919
0.0946325
0.0946723
0.0947087
0.0947385
0.0947621
0.0947821
0.0948004
0.0948185
0.0948377
0.0948589
0.0948828
0.0949097
0.0949398
0.0949726
0.0950059
0.0950357
0.0950568
0.0950658
0.0947504
0.0947603
0.0947794
0.0947977
0.0948144
0.0948296
0.0948435
0.0948564
0.0948692
0.0948821
0.0948954
0.0949089
0.0949225
0.094936
0.0949491
0.094962
0.0949737
0.0949833
0.0949908
0.0949972
0.095003
0.0950087
0.0950147
0.0950212
0.0950286
0.0950369
0.0950462
0.0950564
0.0950671
0.095077
0.0950846
0.0950883
)
;

boundaryField
{
    movingWall
    {
        type            fixedValue;
        value           uniform 0.0951;
    }
    fixedWalls
    {
        type            zeroGradient;
    }
    floor
    {
        type            zeroGradient;
    }
    frontAndBack
    {
        type            empty;
    }
}


// ************************************************************************* //
