/*--------------------------------*- C++ -*----------------------------------*\
| =========                 |                                                 |
| \\      /  F ield         | OpenFOAM: The Open Source CFD Toolbox           |
|  \\    /   O peration     | Version:  2212                                  |
|   \\  /    A nd           | Website:  www.openfoam.com                      |
|    \\/     M anipulation  |                                                 |
\*---------------------------------------------------------------------------*/
FoamFile
{
    version     2.0;
    format      ascii;
    arch        "LSB;label=64;scalar=64";
    class       volScalarField;
    location    "1370";
    object      Gh2;
}
// * * * * * * * * * * * * * * * * * * * * * * * * * * * * * * * * * * * * * //

dimensions      [1 -3 0 0 0 0 0];

internalField   nonuniform List<scalar> 
1024
(
1.28492e-05
1.28481e-05
1.28455e-05
1.28408e-05
1.28334e-05
1.28227e-05
1.28085e-05
1.27909e-05
1.27707e-05
1.27493e-05
1.27283e-05
1.27097e-05
1.26948e-05
1.26847e-05
1.26799e-05
1.26811e-05
1.26899e-05
1.27071e-05
1.27308e-05
1.27598e-05
1.27928e-05
1.28279e-05
1.28628e-05
1.28952e-05
1.29233e-05
1.29461e-05
1.29635e-05
1.2976e-05
1.29844e-05
1.29896e-05
1.29925e-05
1.29937e-05
1.28488e-05
1.28478e-05
1.28451e-05
1.28404e-05
1.28328e-05
1.28219e-05
1.28075e-05
1.27896e-05
1.27693e-05
1.27477e-05
1.27267e-05
1.2708e-05
1.26932e-05
1.26832e-05
1.26784e-05
1.26795e-05
1.26884e-05
1.27055e-05
1.27291e-05
1.27582e-05
1.27912e-05
1.28263e-05
1.28614e-05
1.28939e-05
1.29222e-05
1.29453e-05
1.29629e-05
1.29755e-05
1.29841e-05
1.29894e-05
1.29923e-05
1.29934e-05
1.2848e-05
1.28469e-05
1.28442e-05
1.28393e-05
1.28315e-05
1.28202e-05
1.28053e-05
1.2787e-05
1.27661e-05
1.2744e-05
1.27226e-05
1.27038e-05
1.26891e-05
1.26792e-05
1.26746e-05
1.26758e-05
1.26847e-05
1.27019e-05
1.27256e-05
1.27547e-05
1.27877e-05
1.2823e-05
1.28582e-05
1.28912e-05
1.292e-05
1.29435e-05
1.29616e-05
1.29746e-05
1.29833e-05
1.29888e-05
1.29917e-05
1.2993e-05
1.28465e-05
1.28454e-05
1.28426e-05
1.28374e-05
1.28292e-05
1.28175e-05
1.28018e-05
1.27826e-05
1.27606e-05
1.27375e-05
1.27152e-05
1.2696e-05
1.26814e-05
1.26718e-05
1.26675e-05
1.2669e-05
1.26781e-05
1.26957e-05
1.27199e-05
1.27492e-05
1.27824e-05
1.28179e-05
1.28535e-05
1.2887e-05
1.29165e-05
1.29408e-05
1.29595e-05
1.2973e-05
1.29821e-05
1.29878e-05
1.29909e-05
1.29921e-05
1.28442e-05
1.2843e-05
1.28401e-05
1.28347e-05
1.2826e-05
1.28134e-05
1.27967e-05
1.2776e-05
1.27523e-05
1.27273e-05
1.27034e-05
1.26833e-05
1.26687e-05
1.26597e-05
1.26561e-05
1.26581e-05
1.26679e-05
1.26865e-05
1.27117e-05
1.27418e-05
1.27756e-05
1.28114e-05
1.28475e-05
1.28817e-05
1.2912e-05
1.29372e-05
1.29567e-05
1.29708e-05
1.29804e-05
1.29863e-05
1.29896e-05
1.29909e-05
1.28408e-05
1.28396e-05
1.28365e-05
1.28308e-05
1.28215e-05
1.28079e-05
1.27897e-05
1.27669e-05
1.27405e-05
1.27125e-05
1.2686e-05
1.26644e-05
1.26496e-05
1.26413e-05
1.26387e-05
1.26418e-05
1.26529e-05
1.26735e-05
1.27008e-05
1.27327e-05
1.27675e-05
1.28041e-05
1.28409e-05
1.28759e-05
1.29071e-05
1.29331e-05
1.29534e-05
1.29683e-05
1.29783e-05
1.29845e-05
1.29879e-05
1.29892e-05
1.28359e-05
1.28347e-05
1.28315e-05
1.28254e-05
1.28154e-05
1.28005e-05
1.27803e-05
1.27545e-05
1.27244e-05
1.26923e-05
1.26621e-05
1.26382e-05
1.26228e-05
1.26152e-05
1.26139e-05
1.26186e-05
1.26321e-05
1.26561e-05
1.2687e-05
1.2722e-05
1.2759e-05
1.2797e-05
1.28347e-05
1.28704e-05
1.29024e-05
1.29292e-05
1.29502e-05
1.29656e-05
1.2976e-05
1.29824e-05
1.29859e-05
1.29873e-05
1.28291e-05
1.28278e-05
1.28244e-05
1.28179e-05
1.28071e-05
1.27907e-05
1.27678e-05
1.27382e-05
1.27032e-05
1.26656e-05
1.26307e-05
1.26037e-05
1.25872e-05
1.25803e-05
1.25804e-05
1.25872e-05
1.26042e-05
1.26334e-05
1.26702e-05
1.27101e-05
1.27507e-05
1.2791e-05
1.283e-05
1.28666e-05
1.28992e-05
1.29264e-05
1.29477e-05
1.29632e-05
1.29737e-05
1.29802e-05
1.29837e-05
1.29851e-05
1.28194e-05
1.28181e-05
1.28145e-05
1.28076e-05
1.27957e-05
1.27773e-05
1.27512e-05
1.27169e-05
1.26758e-05
1.26318e-05
1.25912e-05
1.25604e-05
1.25424e-05
1.25356e-05
1.25369e-05
1.25461e-05
1.25678e-05
1.26044e-05
1.26496e-05
1.26971e-05
1.27433e-05
1.27871e-05
1.28281e-05
1.28656e-05
1.28983e-05
1.29254e-05
1.29464e-05
1.29616e-05
1.29717e-05
1.29779e-05
1.29812e-05
1.29825e-05
1.28057e-05
1.28043e-05
1.28005e-05
1.27929e-05
1.27797e-05
1.27589e-05
1.27289e-05
1.2689e-05
1.2641e-05
1.25898e-05
1.25431e-05
1.25081e-05
1.24878e-05
1.24804e-05
1.24821e-05
1.24934e-05
1.25206e-05
1.25667e-05
1.26232e-05
1.26812e-05
1.27356e-05
1.27848e-05
1.28288e-05
1.28673e-05
1.28999e-05
1.29262e-05
1.29461e-05
1.29601e-05
1.29693e-05
1.29748e-05
1.29777e-05
1.29787e-05
1.27862e-05
1.27847e-05
1.27806e-05
1.27722e-05
1.27573e-05
1.27336e-05
1.26989e-05
1.26526e-05
1.2597e-05
1.25382e-05
1.24853e-05
1.24459e-05
1.24228e-05
1.24133e-05
1.24137e-05
1.24256e-05
1.24576e-05
1.25136e-05
1.25833e-05
1.26552e-05
1.27214e-05
1.27789e-05
1.28277e-05
1.28683e-05
1.29009e-05
1.29259e-05
1.2944e-05
1.29561e-05
1.29636e-05
1.29676e-05
1.29695e-05
1.29701e-05
1.2759e-05
1.27574e-05
1.27527e-05
1.27431e-05
1.2726e-05
1.26986e-05
1.26585e-05
1.26051e-05
1.25416e-05
1.24753e-05
1.24164e-05
1.23726e-05
1.23454e-05
1.23314e-05
1.23271e-05
1.23357e-05
1.23681e-05
1.24298e-05
1.25104e-05
1.25972e-05
1.26794e-05
1.27503e-05
1.28084e-05
1.28544e-05
1.2889e-05
1.29136e-05
1.29297e-05
1.29392e-05
1.2944e-05
1.29456e-05
1.29458e-05
1.29455e-05
1.2722e-05
1.27201e-05
1.27147e-05
1.27034e-05
1.26834e-05
1.26514e-05
1.26049e-05
1.25438e-05
1.24723e-05
1.23992e-05
1.23349e-05
1.22861e-05
1.22526e-05
1.223e-05
1.22155e-05
1.22131e-05
1.22352e-05
1.22896e-05
1.23695e-05
1.24634e-05
1.25593e-05
1.26474e-05
1.27221e-05
1.27814e-05
1.28249e-05
1.28538e-05
1.28706e-05
1.28784e-05
1.28803e-05
1.28791e-05
1.28769e-05
1.28755e-05
1.26743e-05
1.26721e-05
1.26655e-05
1.2652e-05
1.2628e-05
1.25901e-05
1.2536e-05
1.24667e-05
1.23877e-05
1.23088e-05
1.22398e-05
1.2185e-05
1.21423e-05
1.21065e-05
1.20751e-05
1.20518e-05
1.20475e-05
1.20726e-05
1.21266e-05
1.22024e-05
1.22914e-05
1.2384e-05
1.24721e-05
1.25496e-05
1.26121e-05
1.26572e-05
1.26858e-05
1.27005e-05
1.27053e-05
1.27046e-05
1.2702e-05
1.27001e-05
1.26195e-05
1.26169e-05
1.26094e-05
1.25939e-05
1.25667e-05
1.25242e-05
1.24648e-05
1.239e-05
1.23059e-05
1.22217e-05
1.21459e-05
1.20816e-05
1.20262e-05
1.19747e-05
1.19246e-05
1.18765e-05
1.18372e-05
1.1816e-05
1.18176e-05
1.18413e-05
1.18848e-05
1.19442e-05
1.20142e-05
1.20884e-05
1.21603e-05
1.22237e-05
1.22745e-05
1.23103e-05
1.23318e-05
1.23424e-05
1.2346e-05
1.23465e-05
1.25648e-05
1.25621e-05
1.25543e-05
1.25382e-05
1.251e-05
1.24665e-05
1.24057e-05
1.23294e-05
1.22428e-05
1.21545e-05
1.20723e-05
1.19999e-05
1.19362e-05
1.18773e-05
1.18206e-05
1.17641e-05
1.17082e-05
1.16551e-05
1.16092e-05
1.15739e-05
1.15528e-05
1.15482e-05
1.15607e-05
1.15891e-05
1.163e-05
1.16784e-05
1.17277e-05
1.17717e-05
1.1806e-05
1.18289e-05
1.18413e-05
1.18459e-05
1.25213e-05
1.25186e-05
1.25112e-05
1.24961e-05
1.24698e-05
1.24291e-05
1.23719e-05
1.22992e-05
1.22153e-05
1.21277e-05
1.20445e-05
1.19712e-05
1.19095e-05
1.18583e-05
1.18159e-05
1.17791e-05
1.17423e-05
1.16965e-05
1.16407e-05
1.15799e-05
1.15204e-05
1.14679e-05
1.14266e-05
1.13991e-05
1.13865e-05
1.13878e-05
1.14e-05
1.14189e-05
1.14389e-05
1.14557e-05
1.14667e-05
1.14716e-05
1.24946e-05
1.24921e-05
1.24853e-05
1.24718e-05
1.24485e-05
1.24125e-05
1.23616e-05
1.2296e-05
1.22188e-05
1.21365e-05
1.20569e-05
1.1987e-05
1.1931e-05
1.18903e-05
1.18645e-05
1.18508e-05
1.18399e-05
1.18142e-05
1.17674e-05
1.17032e-05
1.16293e-05
1.15541e-05
1.14849e-05
1.14267e-05
1.13822e-05
1.13519e-05
1.13347e-05
1.13281e-05
1.13285e-05
1.13323e-05
1.13363e-05
1.13386e-05
1.24814e-05
1.2479e-05
1.24729e-05
1.2461e-05
1.24408e-05
1.24098e-05
1.23658e-05
1.23083e-05
1.22396e-05
1.21648e-05
1.20911e-05
1.20257e-05
1.19741e-05
1.19395e-05
1.19225e-05
1.19203e-05
1.19224e-05
1.1909e-05
1.1871e-05
1.18089e-05
1.17284e-05
1.16383e-05
1.15485e-05
1.14676e-05
1.14014e-05
1.13522e-05
1.13195e-05
1.13006e-05
1.12919e-05
1.12895e-05
1.12899e-05
1.12907e-05
1.24774e-05
1.24752e-05
1.24696e-05
1.2459e-05
1.24417e-05
1.24152e-05
1.23777e-05
1.23285e-05
1.2269e-05
1.2203e-05
1.21365e-05
1.20765e-05
1.20285e-05
1.19963e-05
1.1981e-05
1.198e-05
1.19826e-05
1.19711e-05
1.19371e-05
1.18791e-05
1.17997e-05
1.17051e-05
1.16045e-05
1.15078e-05
1.14235e-05
1.13569e-05
1.13098e-05
1.12803e-05
1.12647e-05
1.12584e-05
1.12571e-05
1.12575e-05
1.2479e-05
1.24769e-05
1.24719e-05
1.24627e-05
1.24477e-05
1.24252e-05
1.23936e-05
1.23521e-05
1.23016e-05
1.22449e-05
1.21867e-05
1.21328e-05
1.20881e-05
1.20561e-05
1.20377e-05
1.20302e-05
1.20239e-05
1.20058e-05
1.19696e-05
1.19132e-05
1.1837e-05
1.17444e-05
1.16419e-05
1.15382e-05
1.14427e-05
1.13631e-05
1.13034e-05
1.12638e-05
1.12412e-05
1.1231e-05
1.1228e-05
1.1228e-05
1.24816e-05
1.24799e-05
1.24758e-05
1.24682e-05
1.24558e-05
1.2437e-05
1.24107e-05
1.23761e-05
1.23339e-05
1.22862e-05
1.22362e-05
1.21882e-05
1.21459e-05
1.21117e-05
1.20862e-05
1.20664e-05
1.20454e-05
1.20155e-05
1.19734e-05
1.19163e-05
1.18433e-05
1.17556e-05
1.1657e-05
1.15539e-05
1.14545e-05
1.13672e-05
1.12981e-05
1.12496e-05
1.12203e-05
1.12061e-05
1.12013e-05
1.12008e-05
1.24788e-05
1.24781e-05
1.24757e-05
1.24707e-05
1.24615e-05
1.24469e-05
1.24257e-05
1.23974e-05
1.23624e-05
1.2322e-05
1.22785e-05
1.22342e-05
1.21916e-05
1.21521e-05
1.21158e-05
1.20803e-05
1.20422e-05
1.19994e-05
1.19506e-05
1.18927e-05
1.18234e-05
1.17422e-05
1.16507e-05
1.15533e-05
1.14563e-05
1.1367e-05
1.12924e-05
1.12371e-05
1.12018e-05
1.11835e-05
1.11767e-05
1.11758e-05
1.24626e-05
1.24633e-05
1.24639e-05
1.24629e-05
1.24586e-05
1.24491e-05
1.24331e-05
1.24102e-05
1.23804e-05
1.23444e-05
1.23034e-05
1.22587e-05
1.22118e-05
1.21636e-05
1.21146e-05
1.2063e-05
1.20092e-05
1.19558e-05
1.19023e-05
1.1845e-05
1.17809e-05
1.17078e-05
1.16259e-05
1.15375e-05
1.14471e-05
1.13607e-05
1.12848e-05
1.12254e-05
1.11853e-05
1.11631e-05
1.11543e-05
1.11527e-05
1.24244e-05
1.24272e-05
1.24318e-05
1.24362e-05
1.24379e-05
1.24341e-05
1.24231e-05
1.24037e-05
1.23759e-05
1.23399e-05
1.22966e-05
1.22471e-05
1.21926e-05
1.21346e-05
1.20737e-05
1.20095e-05
1.19448e-05
1.18853e-05
1.18305e-05
1.17761e-05
1.17186e-05
1.16551e-05
1.15845e-05
1.15075e-05
1.14268e-05
1.13471e-05
1.1274e-05
1.12136e-05
1.11702e-05
1.11447e-05
1.11339e-05
1.11317e-05
1.23577e-05
1.23631e-05
1.2372e-05
1.23816e-05
1.23883e-05
1.23889e-05
1.23804e-05
1.23615e-05
1.23318e-05
1.2292e-05
1.22431e-05
1.21869e-05
1.2125e-05
1.20594e-05
1.19911e-05
1.19203e-05
1.18515e-05
1.17913e-05
1.1739e-05
1.16898e-05
1.16401e-05
1.1587e-05
1.15285e-05
1.14643e-05
1.13957e-05
1.13256e-05
1.12586e-05
1.12004e-05
1.11561e-05
1.11283e-05
1.11155e-05
1.11125e-05
1.22588e-05
1.22667e-05
1.22786e-05
1.22904e-05
1.22982e-05
1.22986e-05
1.22886e-05
1.22667e-05
1.22328e-05
1.21881e-05
1.21344e-05
1.20738e-05
1.20087e-05
1.19408e-05
1.18718e-05
1.18017e-05
1.17355e-05
1.16796e-05
1.16329e-05
1.15907e-05
1.15496e-05
1.15068e-05
1.14604e-05
1.14094e-05
1.1354e-05
1.12958e-05
1.12378e-05
1.11847e-05
1.11419e-05
1.11133e-05
1.1099e-05
1.10953e-05
1.21263e-05
1.21357e-05
1.21469e-05
1.21551e-05
1.21576e-05
1.21524e-05
1.21372e-05
1.21109e-05
1.20739e-05
1.20274e-05
1.19734e-05
1.19143e-05
1.18522e-05
1.1789e-05
1.17258e-05
1.16631e-05
1.16051e-05
1.15571e-05
1.15181e-05
1.1484e-05
1.14516e-05
1.14188e-05
1.13837e-05
1.13453e-05
1.13032e-05
1.12578e-05
1.12108e-05
1.11656e-05
1.1127e-05
1.10993e-05
1.10844e-05
1.108e-05
1.19593e-05
1.19679e-05
1.19725e-05
1.19705e-05
1.19626e-05
1.1949e-05
1.19285e-05
1.19003e-05
1.18645e-05
1.18219e-05
1.1774e-05
1.17228e-05
1.16702e-05
1.16174e-05
1.15655e-05
1.15147e-05
1.14685e-05
1.14308e-05
1.14007e-05
1.13749e-05
1.13511e-05
1.13274e-05
1.13024e-05
1.12753e-05
1.12454e-05
1.12126e-05
1.11776e-05
1.11424e-05
1.11104e-05
1.10858e-05
1.10714e-05
1.10666e-05
1.17542e-05
1.17579e-05
1.17507e-05
1.17366e-05
1.17196e-05
1.17007e-05
1.16793e-05
1.16542e-05
1.1625e-05
1.15917e-05
1.15554e-05
1.15171e-05
1.14783e-05
1.14398e-05
1.14023e-05
1.1366e-05
1.13332e-05
1.13068e-05
1.12859e-05
1.12683e-05
1.12523e-05
1.12366e-05
1.12204e-05
1.12029e-05
1.11836e-05
1.11623e-05
1.11391e-05
1.11147e-05
1.10913e-05
1.1072e-05
1.10596e-05
1.1055e-05
1.15037e-05
1.1498e-05
1.14815e-05
1.14635e-05
1.14464e-05
1.14301e-05
1.1414e-05
1.13971e-05
1.13785e-05
1.13581e-05
1.13361e-05
1.13132e-05
1.12901e-05
1.12673e-05
1.12453e-05
1.12241e-05
1.1205e-05
1.11898e-05
1.11778e-05
1.11677e-05
1.11587e-05
1.11501e-05
1.11412e-05
1.11316e-05
1.11212e-05
1.11097e-05
1.10969e-05
1.10832e-05
1.10694e-05
1.10572e-05
1.10486e-05
1.1045e-05
1.11976e-05
1.11929e-05
1.11841e-05
1.1176e-05
1.11688e-05
1.11624e-05
1.11565e-05
1.11506e-05
1.11443e-05
1.11376e-05
1.11303e-05
1.11228e-05
1.11153e-05
1.11079e-05
1.11008e-05
1.10939e-05
1.10878e-05
1.10828e-05
1.1079e-05
1.10758e-05
1.10729e-05
1.10702e-05
1.10674e-05
1.10645e-05
1.10612e-05
1.10577e-05
1.10537e-05
1.10495e-05
1.1045e-05
1.1041e-05
1.10379e-05
1.10364e-05
)
;

boundaryField
{
    movingWall
    {
        type            fixedValue;
        value           uniform 1.1032e-05;
    }
    fixedWalls
    {
        type            zeroGradient;
    }
    floor
    {
        type            zeroGradient;
    }
    frontAndBack
    {
        type            empty;
    }
}


// ************************************************************************* //
