/*--------------------------------*- C++ -*----------------------------------*\
| =========                 |                                                 |
| \\      /  F ield         | OpenFOAM: The Open Source CFD Toolbox           |
|  \\    /   O peration     | Version:  2212                                  |
|   \\  /    A nd           | Website:  www.openfoam.com                      |
|    \\/     M anipulation  |                                                 |
\*---------------------------------------------------------------------------*/
FoamFile
{
    version     2.0;
    format      ascii;
    arch        "LSB;label=64;scalar=64";
    class       volScalarField;
    location    "1370";
    object      p_rgh;
}
// * * * * * * * * * * * * * * * * * * * * * * * * * * * * * * * * * * * * * //

dimensions      [0 2 -2 0 0 0 0];

internalField   nonuniform List<scalar> 
1024
(
0.0431945
0.0431929
0.0431914
0.0431917
0.0431952
0.043203
0.043216
0.0432346
0.0432577
0.0432794
0.0432902
0.0432807
0.0432524
0.0432095
0.0431588
0.0431003
0.0430317
0.0429587
0.042897
0.0428544
0.0428293
0.0428161
0.0428097
0.0428069
0.0428058
0.0428054
0.0428054
0.0428059
0.042807
0.0428084
0.0428098
0.0428106
0.0431978
0.0431961
0.043195
0.0431957
0.0431994
0.043207
0.0432195
0.0432377
0.0432604
0.0432817
0.0432923
0.0432833
0.0432553
0.0432127
0.0431619
0.0431032
0.0430345
0.0429617
0.0429001
0.0428578
0.0428327
0.0428195
0.042813
0.04281
0.0428087
0.0428082
0.042808
0.0428083
0.0428091
0.0428103
0.0428115
0.0428123
0.043203
0.0432011
0.0432001
0.0432013
0.0432055
0.0432135
0.0432264
0.043245
0.0432682
0.04329
0.0433008
0.0432919
0.043264
0.0432212
0.0431702
0.0431111
0.0430421
0.0429689
0.042907
0.0428644
0.0428393
0.0428258
0.042819
0.0428158
0.0428141
0.0428131
0.0428126
0.0428125
0.0428128
0.0428136
0.0428148
0.0428159
0.0432085
0.0432063
0.0432055
0.0432075
0.0432128
0.0432222
0.0432368
0.0432573
0.0432824
0.0433055
0.0433169
0.0433081
0.0432798
0.0432365
0.0431851
0.0431256
0.0430559
0.0429817
0.0429185
0.0428751
0.0428494
0.0428354
0.0428282
0.0428244
0.0428221
0.0428204
0.0428191
0.0428182
0.0428179
0.0428184
0.0428197
0.0428212
0.0432125
0.0432103
0.04321
0.0432132
0.0432205
0.0432326
0.0432504
0.0432744
0.0433026
0.0433276
0.0433395
0.0433307
0.043302
0.0432586
0.043207
0.0431472
0.0430767
0.0430009
0.0429354
0.0428902
0.0428634
0.0428487
0.0428407
0.0428361
0.0428329
0.04283
0.0428274
0.0428253
0.0428241
0.0428242
0.0428256
0.0428275
0.0432128
0.0432111
0.0432118
0.0432168
0.0432271
0.0432433
0.043266
0.0432949
0.0433266
0.0433533
0.0433653
0.0433563
0.0433278
0.0432851
0.0432344
0.0431749
0.0431038
0.0430259
0.0429574
0.0429095
0.042881
0.0428652
0.0428562
0.0428503
0.0428457
0.0428411
0.0428367
0.0428329
0.0428304
0.0428298
0.0428311
0.0428334
0.0432083
0.0432075
0.0432096
0.0432171
0.0432313
0.0432529
0.0432818
0.0433163
0.0433516
0.0433793
0.0433904
0.043381
0.0433531
0.0433122
0.0432633
0.0432052
0.0431339
0.043054
0.0429821
0.0429307
0.0429002
0.0428831
0.0428727
0.0428652
0.0428585
0.0428516
0.0428447
0.0428385
0.0428343
0.0428326
0.0428336
0.0428358
0.0431995
0.0431997
0.0432034
0.0432136
0.0432323
0.0432601
0.043296
0.0433366
0.0433754
0.0434034
0.0434128
0.0434021
0.0433746
0.0433357
0.0432894
0.0432332
0.043162
0.0430799
0.0430048
0.0429496
0.0429174
0.0428991
0.0428871
0.0428774
0.0428678
0.0428577
0.0428476
0.0428386
0.0428323
0.0428293
0.0428295
0.0428314
0.0431884
0.0431893
0.0431946
0.0432076
0.0432309
0.0432652
0.0433087
0.043356
0.0433987
0.0434266
0.0434332
0.0434197
0.0433915
0.043354
0.0433099
0.0432552
0.0431834
0.0430981
0.043019
0.0429607
0.0429271
0.0429084
0.0428949
0.0428824
0.0428694
0.0428554
0.0428414
0.0428294
0.042821
0.0428166
0.0428159
0.0428171
0.0431778
0.0431794
0.043186
0.0432016
0.0432294
0.0432705
0.0433221
0.0433772
0.0434246
0.043452
0.0434543
0.0434361
0.0434056
0.0433681
0.0433249
0.0432707
0.0431974
0.0431068
0.043022
0.0429607
0.0429249
0.0429067
0.0428918
0.0428766
0.0428597
0.0428416
0.0428241
0.0428096
0.0427997
0.0427945
0.0427929
0.0427931
0.0431706
0.0431727
0.0431805
0.0431986
0.0432312
0.0432798
0.0433408
0.0434048
0.0434571
0.0434828
0.0434794
0.0434554
0.0434207
0.0433812
0.043337
0.0432821
0.0432068
0.043114
0.043023
0.0429505
0.0429103
0.0428933
0.0428773
0.0428596
0.0428395
0.0428184
0.0427988
0.0427834
0.0427734
0.0427681
0.042766
0.0427654
0.0431685
0.0431709
0.0431802
0.0432017
0.0432405
0.0432983
0.0433704
0.0434432
0.0434982
0.0435198
0.0435097
0.0434798
0.0434413
0.0433994
0.043354
0.0432991
0.0432256
0.0431341
0.0430391
0.0429559
0.0429031
0.0428772
0.0428588
0.0428397
0.0428183
0.0427967
0.0427776
0.0427633
0.0427543
0.0427496
0.0427474
0.0427465
0.0431712
0.0431742
0.0431858
0.0432129
0.0432613
0.0433323
0.0434178
0.0434976
0.0435466
0.0435596
0.0435438
0.0435114
0.0434722
0.0434309
0.0433873
0.0433372
0.0432742
0.0431973
0.0431151
0.0430358
0.0429658
0.042908
0.0428717
0.0428463
0.0428214
0.0427989
0.04278
0.0427667
0.0427591
0.042756
0.0427551
0.0427547
0.04318
0.0431841
0.0432005
0.0432377
0.0433023
0.043393
0.0434947
0.0435796
0.0436244
0.0436289
0.0436078
0.0435745
0.0435358
0.0434944
0.0434522
0.0434117
0.0433692
0.0433244
0.0432814
0.043242
0.0432018
0.0431508
0.0430793
0.0429988
0.0429331
0.0428921
0.0428603
0.0428393
0.0428298
0.0428282
0.0428301
0.0428318
0.0431665
0.0431723
0.0431942
0.0432419
0.0433209
0.0434259
0.0435361
0.0436238
0.0436725
0.0436852
0.0436745
0.0436511
0.0436208
0.0435859
0.0435479
0.0435091
0.0434835
0.0434713
0.043474
0.0434908
0.0435156
0.043537
0.0435407
0.0435116
0.0434381
0.0433267
0.0432152
0.0431297
0.0430894
0.0430744
0.0430722
0.043074
0.0430982
0.0431059
0.0431321
0.0431872
0.0432763
0.043392
0.0435117
0.0436091
0.0436697
0.0436965
0.0437
0.0436894
0.0436692
0.0436413
0.0436072
0.0435703
0.0435409
0.0435349
0.043551
0.0435866
0.0436374
0.0436958
0.043752
0.043796
0.0438194
0.0438173
0.0437879
0.0437339
0.0436625
0.0436057
0.0435743
0.0435641
0.0429728
0.042982
0.0430102
0.0430683
0.0431624
0.0432864
0.0434188
0.0435326
0.0436112
0.0436548
0.0436728
0.0436736
0.043662
0.0436395
0.0436081
0.0435721
0.0435407
0.0435264
0.0435294
0.0435479
0.0435807
0.0436253
0.0436769
0.0437283
0.0437725
0.043805
0.0438242
0.0438317
0.0438307
0.0438245
0.0438163
0.0438097
0.0428409
0.0428509
0.0428793
0.0429366
0.0430305
0.0431584
0.0433017
0.0434327
0.043532
0.043594
0.0436267
0.0436388
0.0436359
0.0436213
0.043598
0.0435723
0.0435534
0.0435364
0.0435246
0.0435183
0.0435189
0.0435293
0.0435506
0.0435803
0.0436134
0.0436439
0.0436677
0.0436837
0.0436939
0.0436999
0.043702
0.043701
0.0427431
0.0427535
0.0427808
0.0428344
0.0429224
0.0430461
0.0431944
0.0433405
0.0434592
0.0435404
0.0435883
0.0436114
0.0436167
0.043609
0.0435934
0.0435781
0.0435745
0.0435642
0.0435505
0.0435333
0.0435124
0.0434921
0.043479
0.0434777
0.0434878
0.0435047
0.0435225
0.0435368
0.0435471
0.0435539
0.0435571
0.0435567
0.0426842
0.0426947
0.0427205
0.04277
0.0428513
0.0429674
0.0431111
0.0432617
0.0433948
0.0434944
0.043558
0.0435919
0.0436036
0.0435994
0.043586
0.0435721
0.04357
0.0435713
0.0435687
0.0435569
0.0435349
0.0435036
0.0434677
0.0434397
0.0434259
0.0434259
0.0434344
0.0434446
0.043453
0.0434584
0.0434607
0.0434596
0.0426568
0.0426668
0.0426907
0.0427359
0.04281
0.0429174
0.0430536
0.0432022
0.0433412
0.0434522
0.0435279
0.0435706
0.0435865
0.043583
0.0435674
0.0435491
0.0435412
0.0435467
0.0435537
0.0435566
0.0435511
0.0435325
0.0434905
0.0434504
0.0434202
0.0434074
0.0434088
0.0434161
0.0434234
0.0434279
0.0434287
0.0434262
0.0426524
0.0426612
0.0426825
0.0427229
0.0427901
0.0428892
0.043017
0.0431598
0.0432979
0.0434124
0.0434934
0.0435402
0.0435574
0.0435518
0.0435317
0.0435072
0.0434937
0.0435003
0.0435148
0.04353
0.0435401
0.0435389
0.0435211
0.0434919
0.0434573
0.0434403
0.0434411
0.0434512
0.0434613
0.0434668
0.0434667
0.0434626
0.0426634
0.0426704
0.0426883
0.0427238
0.0427852
0.0428773
0.0429976
0.0431334
0.0432654
0.0433759
0.0434542
0.0434982
0.0435119
0.0435015
0.0434755
0.043445
0.0434276
0.0434341
0.0434552
0.0434813
0.0435065
0.0435251
0.0435333
0.0435317
0.0435237
0.0435161
0.0435256
0.0435472
0.0435678
0.0435789
0.0435794
0.0435739
0.0426835
0.0426884
0.0427026
0.0427337
0.0427907
0.0428783
0.0429932
0.0431216
0.0432442
0.0433437
0.0434111
0.0434452
0.0434498
0.0434315
0.0433986
0.0433629
0.0433428
0.0433491
0.0433762
0.0434122
0.0434522
0.0434919
0.0435285
0.0435621
0.0435939
0.043625
0.0436597
0.0437028
0.0437447
0.0437697
0.0437745
0.043769
0.0427065
0.0427089
0.04272
0.0427486
0.042804
0.0428903
0.043002
0.0431229
0.0432326
0.0433156
0.0433652
0.0433829
0.0433734
0.0433441
0.0433032
0.0432627
0.043241
0.0432487
0.04328
0.0433247
0.0433788
0.0434401
0.0435075
0.0435817
0.0436628
0.0437487
0.043835
0.0439174
0.0439936
0.0440461
0.0440626
0.0440607
0.0427272
0.0427269
0.0427364
0.0427657
0.0428236
0.0429119
0.0430219
0.0431341
0.0432275
0.0432892
0.0433161
0.0433128
0.0432858
0.0432431
0.0431931
0.0431477
0.0431253
0.0431346
0.043169
0.0432222
0.04329
0.0433725
0.0434715
0.0435893
0.0437261
0.0438777
0.0440346
0.0441834
0.0443131
0.0444131
0.0444568
0.044467
0.0427381
0.042736
0.0427472
0.0427829
0.0428476
0.0429395
0.0430484
0.0431497
0.0432232
0.0432599
0.0432614
0.043235
0.043189
0.0431319
0.0430724
0.0430227
0.0430004
0.0430122
0.043051
0.0431118
0.0431924
0.0432948
0.043424
0.0435845
0.0437784
0.0440013
0.0442413
0.0444793
0.0446935
0.0448676
0.0449664
0.0450053
0.0427247
0.0427249
0.0427449
0.0427953
0.0428728
0.0429686
0.0430747
0.0431618
0.0432122
0.0432224
0.0431982
0.0431491
0.0430848
0.0430144
0.0429469
0.0428946
0.0428741
0.0428895
0.0429337
0.0430019
0.0430944
0.0432147
0.0433704
0.0435689
0.0438151
0.0441071
0.0444347
0.0447777
0.0451083
0.0453932
0.0455895
0.0456873
0.0426599
0.0426748
0.0427197
0.0427972
0.0428928
0.0429945
0.0430927
0.0431617
0.0431881
0.0431732
0.043126
0.0430574
0.0429783
0.0428982
0.042826
0.0427739
0.042757
0.0427773
0.0428273
0.042903
0.0430056
0.0431405
0.043317
0.0435455
0.0438336
0.0441839
0.044592
0.0450442
0.0455162
0.0459659
0.046317
0.0465444
0.0424857
0.0425618
0.0426724
0.0427931
0.0429084
0.0430141
0.0430992
0.0431479
0.0431523
0.0431168
0.0430518
0.0429695
0.042881
0.0427958
0.0427226
0.0426731
0.0426611
0.0426867
0.0427421
0.0428243
0.0429345
0.0430795
0.0432701
0.0435183
0.0438345
0.0442255
0.0446948
0.0452422
0.0458626
0.0465298
0.0471599
0.0477116
0.0419992
0.0423911
0.042643
0.0428102
0.0429351
0.0430347
0.0431035
0.0431331
0.0431197
0.0430691
0.0429922
0.0429018
0.0428086
0.0427218
0.0426498
0.0426036
0.0425959
0.0426256
0.0426851
0.0427714
0.042886
0.0430364
0.0432341
0.0434921
0.0438219
0.0442335
0.044737
0.0453469
0.0460883
0.0469975
0.0481056
0.0493655
0.0409789
0.0422159
0.0426893
0.0428554
0.0429713
0.0430609
0.0431153
0.0431309
0.043106
0.0430464
0.0429632
0.0428686
0.0427734
0.0426862
0.0426149
0.0425706
0.042565
0.0425968
0.0426582
0.0427462
0.0428622
0.0430142
0.0432138
0.0434739
0.0438067
0.0442235
0.0447381
0.0453765
0.0461927
0.0472959
0.048906
0.051171
)
;

boundaryField
{
    movingWall
    {
        type            fixedFluxPressure;
        gradient        uniform 0;
        value           nonuniform List<scalar> 
32
(
0.0409789
0.0422159
0.0426893
0.0428554
0.0429713
0.0430609
0.0431153
0.0431309
0.043106
0.0430464
0.0429632
0.0428686
0.0427734
0.0426862
0.0426149
0.0425706
0.042565
0.0425968
0.0426582
0.0427462
0.0428622
0.0430142
0.0432138
0.0434739
0.0438067
0.0442235
0.0447381
0.0453765
0.0461927
0.0472959
0.048906
0.051171
)
;
    }
    fixedWalls
    {
        type            fixedFluxPressure;
        gradient        uniform 0;
        value           nonuniform List<scalar> 
64
(
0.0431945
0.0431978
0.043203
0.0432085
0.0432125
0.0432128
0.0432083
0.0431995
0.0431884
0.0431778
0.0431706
0.0431685
0.0431712
0.04318
0.0431665
0.0430982
0.0429728
0.0428409
0.0427431
0.0426842
0.0426568
0.0426524
0.0426634
0.0426835
0.0427065
0.0427272
0.0427381
0.0427247
0.0426599
0.0424857
0.0419992
0.0409789
0.0428106
0.0428123
0.0428159
0.0428212
0.0428275
0.0428334
0.0428358
0.0428314
0.0428171
0.0427931
0.0427654
0.0427465
0.0427547
0.0428318
0.043074
0.0435641
0.0438097
0.043701
0.0435567
0.0434596
0.0434262
0.0434626
0.0435739
0.043769
0.0440607
0.044467
0.0450053
0.0456873
0.0465444
0.0477116
0.0493655
0.051171
)
;
    }
    floor
    {
        type            fixedFluxPressure;
        gradient        uniform 0;
        value           nonuniform List<scalar> 
32
(
0.0431945
0.0431929
0.0431914
0.0431917
0.0431952
0.043203
0.043216
0.0432346
0.0432577
0.0432794
0.0432902
0.0432807
0.0432524
0.0432095
0.0431588
0.0431003
0.0430317
0.0429587
0.042897
0.0428544
0.0428293
0.0428161
0.0428097
0.0428069
0.0428058
0.0428054
0.0428054
0.0428059
0.042807
0.0428084
0.0428098
0.0428106
)
;
    }
    frontAndBack
    {
        type            empty;
    }
}


// ************************************************************************* //
