/*--------------------------------*- C++ -*----------------------------------*\
| =========                 |                                                 |
| \\      /  F ield         | OpenFOAM: The Open Source CFD Toolbox           |
|  \\    /   O peration     | Version:  2212                                  |
|   \\  /    A nd           | Website:  www.openfoam.com                      |
|    \\/     M anipulation  |                                                 |
\*---------------------------------------------------------------------------*/
FoamFile
{
    version     2.0;
    format      ascii;
    arch        "LSB;label=64;scalar=64";
    class       volScalarField;
    location    "1370";
    object      Saa;
}
// * * * * * * * * * * * * * * * * * * * * * * * * * * * * * * * * * * * * * //

dimensions      [1 -3 0 0 0 0 0];

internalField   nonuniform List<scalar> 
1024
(
0.00546227
0.0054623
0.00546238
0.00546251
0.00546272
0.00546303
0.00546343
0.00546393
0.0054645
0.00546511
0.00546569
0.0054662
0.0054666
0.00546686
0.00546695
0.00546685
0.00546653
0.00546599
0.00546527
0.00546442
0.00546345
0.00546242
0.00546138
0.00546042
0.00545958
0.0054589
0.00545838
0.005458
0.00545775
0.00545759
0.0054575
0.00545747
0.00546228
0.00546231
0.00546239
0.00546252
0.00546274
0.00546305
0.00546346
0.00546397
0.00546454
0.00546515
0.00546574
0.00546625
0.00546665
0.0054669
0.00546699
0.00546689
0.00546657
0.00546603
0.00546532
0.00546446
0.0054635
0.00546246
0.00546143
0.00546046
0.00545961
0.00545892
0.0054584
0.00545801
0.00545776
0.0054576
0.00545751
0.00545747
0.0054623
0.00546234
0.00546241
0.00546255
0.00546278
0.0054631
0.00546352
0.00546404
0.00546463
0.00546525
0.00546585
0.00546636
0.00546676
0.005467
0.00546709
0.00546699
0.00546667
0.00546612
0.00546541
0.00546456
0.00546359
0.00546256
0.00546152
0.00546054
0.00545968
0.00545898
0.00545843
0.00545804
0.00545778
0.00545761
0.00545752
0.00545749
0.00546235
0.00546238
0.00546246
0.00546261
0.00546284
0.00546317
0.00546362
0.00546416
0.00546478
0.00546543
0.00546605
0.00546657
0.00546696
0.0054672
0.00546727
0.00546716
0.00546683
0.00546628
0.00546556
0.0054647
0.00546373
0.0054627
0.00546165
0.00546066
0.00545978
0.00545905
0.00545849
0.00545809
0.00545781
0.00545764
0.00545755
0.00545751
0.00546241
0.00546245
0.00546253
0.00546268
0.00546293
0.00546329
0.00546376
0.00546434
0.00546501
0.00546571
0.00546637
0.00546692
0.0054673
0.00546752
0.00546757
0.00546744
0.00546709
0.0054665
0.00546576
0.00546488
0.00546391
0.00546287
0.00546181
0.0054608
0.0054599
0.00545916
0.00545857
0.00545815
0.00545786
0.00545768
0.00545759
0.00545755
0.00546251
0.00546254
0.00546263
0.00546279
0.00546306
0.00546344
0.00546396
0.0054646
0.00546533
0.00546611
0.00546684
0.00546742
0.00546781
0.005468
0.00546801
0.00546785
0.00546745
0.00546682
0.00546602
0.00546511
0.00546411
0.00546306
0.00546199
0.00546096
0.00546004
0.00545927
0.00545866
0.00545822
0.00545792
0.00545773
0.00545763
0.00545759
0.00546264
0.00546268
0.00546277
0.00546294
0.00546323
0.00546365
0.00546422
0.00546494
0.00546578
0.00546666
0.00546749
0.00546813
0.00546852
0.00546867
0.00546864
0.00546842
0.00546795
0.00546722
0.00546633
0.00546535
0.00546431
0.00546323
0.00546214
0.0054611
0.00546016
0.00545937
0.00545875
0.00545829
0.00545798
0.00545779
0.00545768
0.00545764
0.00546284
0.00546287
0.00546297
0.00546315
0.00546346
0.00546392
0.00546456
0.00546539
0.00546636
0.00546739
0.00546833
0.00546905
0.00546945
0.00546957
0.00546948
0.00546918
0.00546861
0.00546774
0.0054667
0.0054656
0.00546447
0.00546335
0.00546224
0.00546118
0.00546024
0.00545944
0.00545881
0.00545835
0.00545803
0.00545784
0.00545774
0.00545769
0.00546311
0.00546315
0.00546325
0.00546344
0.00546378
0.00546429
0.00546502
0.00546597
0.0054671
0.0054683
0.00546939
0.00547019
0.00547061
0.00547071
0.00547056
0.00547017
0.00546946
0.00546838
0.00546713
0.00546584
0.00546459
0.00546339
0.00546224
0.00546117
0.00546023
0.00545944
0.00545883
0.00545838
0.00545808
0.00545789
0.00545779
0.00545775
0.0054635
0.00546354
0.00546364
0.00546385
0.00546422
0.0054648
0.00546563
0.00546674
0.00546805
0.00546944
0.00547068
0.00547156
0.00547202
0.0054721
0.0054719
0.00547143
0.00547055
0.00546922
0.00546767
0.00546613
0.00546468
0.00546335
0.00546214
0.00546106
0.00546013
0.00545938
0.0054588
0.00545839
0.00545811
0.00545795
0.00545786
0.00545783
0.00546405
0.00546409
0.0054642
0.00546444
0.00546485
0.00546551
0.00546646
0.00546773
0.00546925
0.00547082
0.00547221
0.00547318
0.00547368
0.00547377
0.00547358
0.00547306
0.00547202
0.00547042
0.00546853
0.00546663
0.00546489
0.00546337
0.00546205
0.00546094
0.00546003
0.00545932
0.0054588
0.00545845
0.00545823
0.0054581
0.00545804
0.00545802
0.00546481
0.00546486
0.00546498
0.00546525
0.00546572
0.00546648
0.00546758
0.00546903
0.00547075
0.0054725
0.00547402
0.00547508
0.00547564
0.00547582
0.00547571
0.00547524
0.00547416
0.0054724
0.00547021
0.00546793
0.00546579
0.00546394
0.0054624
0.00546117
0.00546024
0.00545956
0.0054591
0.00545883
0.00545868
0.00545862
0.00545861
0.00545862
0.00546585
0.0054659
0.00546605
0.00546636
0.00546691
0.00546778
0.00546905
0.0054707
0.00547261
0.00547452
0.00547615
0.00547731
0.005478
0.00547837
0.0054785
0.00547829
0.00547745
0.00547584
0.00547365
0.00547116
0.00546867
0.00546639
0.00546445
0.00546291
0.00546177
0.005461
0.00546055
0.00546033
0.00546026
0.00546028
0.00546033
0.00546037
0.00546719
0.00546725
0.00546743
0.00546779
0.00546845
0.00546948
0.00547094
0.00547279
0.00547488
0.00547692
0.00547865
0.00547993
0.00548085
0.00548155
0.00548211
0.00548242
0.00548221
0.0054813
0.00547971
0.00547765
0.00547531
0.00547291
0.00547065
0.00546867
0.00546708
0.00546593
0.00546519
0.00546481
0.00546469
0.0054647
0.00546476
0.00546481
0.00546873
0.0054688
0.005469
0.00546942
0.00547015
0.0054713
0.0054729
0.00547489
0.0054771
0.00547927
0.00548117
0.00548271
0.00548397
0.00548509
0.00548613
0.00548706
0.00548771
0.00548788
0.00548752
0.00548668
0.00548541
0.00548381
0.005482
0.00548012
0.00547832
0.00547675
0.00547549
0.00547461
0.00547408
0.00547382
0.00547374
0.00547373
0.00547028
0.00547035
0.00547056
0.00547099
0.00547175
0.00547292
0.00547455
0.0054766
0.00547888
0.00548118
0.00548328
0.00548507
0.00548659
0.00548795
0.00548921
0.00549037
0.0054914
0.00549227
0.00549295
0.00549341
0.00549358
0.00549344
0.00549296
0.00549217
0.00549113
0.00548995
0.00548878
0.00548774
0.00548694
0.00548641
0.00548612
0.00548601
0.00547154
0.00547161
0.0054718
0.00547221
0.00547292
0.00547402
0.00547557
0.00547753
0.00547978
0.00548211
0.00548429
0.00548618
0.00548773
0.005489
0.00548999
0.00549074
0.00549135
0.00549201
0.0054928
0.00549367
0.00549454
0.00549531
0.00549591
0.00549629
0.00549644
0.00549634
0.00549605
0.00549565
0.00549523
0.00549488
0.00549466
0.00549456
0.00547235
0.00547241
0.00547259
0.00547296
0.00547358
0.00547457
0.00547595
0.00547775
0.00547985
0.00548208
0.00548424
0.00548611
0.00548762
0.00548871
0.00548938
0.00548969
0.00548978
0.00549003
0.00549062
0.0054915
0.00549254
0.00549362
0.00549462
0.00549547
0.00549614
0.00549662
0.00549691
0.00549705
0.00549707
0.00549703
0.00549699
0.00549696
0.00547279
0.00547285
0.00547301
0.00547333
0.00547388
0.00547473
0.00547594
0.00547753
0.00547943
0.0054815
0.00548354
0.00548536
0.00548681
0.00548781
0.00548834
0.00548844
0.0054883
0.00548835
0.0054888
0.00548967
0.00549084
0.00549216
0.00549348
0.00549466
0.00549563
0.00549636
0.00549687
0.00549718
0.00549735
0.00549743
0.00549745
0.00549746
0.00547297
0.00547303
0.00547318
0.00547346
0.00547393
0.00547466
0.0054757
0.00547707
0.00547874
0.00548059
0.00548247
0.00548418
0.00548558
0.00548655
0.00548707
0.00548716
0.00548704
0.00548709
0.00548752
0.00548835
0.00548954
0.00549097
0.00549248
0.00549392
0.00549516
0.00549614
0.00549684
0.00549729
0.00549755
0.00549767
0.00549772
0.00549773
0.00547299
0.00547304
0.00547318
0.00547342
0.00547383
0.00547445
0.00547533
0.0054765
0.00547793
0.00547954
0.00548121
0.00548278
0.00548409
0.00548507
0.00548565
0.0054859
0.00548598
0.0054862
0.00548672
0.00548758
0.00548876
0.0054902
0.00549177
0.00549333
0.00549475
0.00549592
0.0054968
0.00549739
0.00549774
0.00549792
0.00549799
0.005498
0.00547295
0.005473
0.00547311
0.00547332
0.00547366
0.00547418
0.00547492
0.0054759
0.0054771
0.00547847
0.00547991
0.00548131
0.00548255
0.00548355
0.00548428
0.00548478
0.00548518
0.00548567
0.00548635
0.00548728
0.00548846
0.00548986
0.0054914
0.00549298
0.00549447
0.00549577
0.00549678
0.00549749
0.00549793
0.00549815
0.00549825
0.00549827
0.005473
0.00547303
0.0054731
0.00547325
0.00547352
0.00547394
0.00547454
0.00547535
0.00547635
0.0054775
0.00547874
0.00548
0.00548119
0.00548227
0.0054832
0.00548402
0.00548479
0.00548557
0.00548643
0.00548742
0.00548858
0.0054899
0.00549136
0.00549288
0.00549436
0.00549569
0.00549678
0.00549758
0.0054981
0.00549838
0.0054985
0.00549852
0.0054733
0.0054733
0.00547331
0.00547338
0.00547354
0.00547384
0.00547431
0.00547496
0.0054758
0.0054768
0.00547792
0.00547912
0.00548034
0.00548154
0.0054827
0.00548384
0.00548494
0.00548596
0.00548695
0.00548797
0.00548907
0.00549029
0.00549163
0.00549302
0.00549441
0.00549571
0.00549682
0.00549768
0.00549826
0.00549859
0.00549873
0.00549877
0.00547402
0.00547398
0.00547391
0.00547387
0.0054739
0.00547407
0.00547442
0.00547497
0.00547571
0.00547665
0.00547774
0.00547896
0.00548027
0.00548162
0.00548299
0.00548436
0.00548569
0.00548685
0.00548789
0.00548889
0.0054899
0.00549099
0.00549215
0.00549338
0.00549464
0.00549584
0.00549692
0.0054978
0.00549842
0.00549878
0.00549895
0.00549899
0.00547529
0.00547519
0.00547504
0.00547489
0.00547482
0.00547489
0.00547516
0.00547566
0.00547639
0.00547734
0.00547848
0.00547977
0.00548116
0.00548262
0.0054841
0.00548559
0.00548699
0.00548819
0.0054892
0.00549012
0.00549101
0.00549194
0.00549291
0.00549395
0.00549503
0.0054961
0.00549709
0.00549794
0.00549856
0.00549896
0.00549914
0.0054992
0.00547716
0.00547702
0.00547681
0.00547661
0.00547651
0.00547656
0.00547684
0.00547736
0.00547813
0.00547912
0.0054803
0.00548162
0.00548303
0.00548448
0.00548594
0.0054874
0.00548875
0.00548987
0.00549078
0.00549158
0.00549233
0.00549308
0.00549387
0.00549471
0.00549558
0.00549648
0.00549734
0.00549811
0.00549872
0.00549912
0.00549932
0.00549938
0.00547966
0.00547948
0.00547929
0.00547915
0.00547914
0.00547929
0.00547964
0.00548021
0.005481
0.00548199
0.00548313
0.00548437
0.00548568
0.005487
0.00548832
0.00548962
0.0054908
0.00549176
0.00549253
0.00549318
0.00549378
0.00549437
0.00549497
0.00549561
0.00549628
0.00549698
0.00549769
0.00549834
0.00549889
0.00549927
0.00549948
0.00549954
0.00548279
0.00548264
0.00548256
0.00548261
0.00548278
0.00548307
0.0054835
0.00548408
0.00548482
0.0054857
0.00548669
0.00548774
0.00548883
0.00548992
0.005491
0.00549204
0.00549298
0.00549374
0.00549433
0.00549483
0.00549528
0.00549571
0.00549614
0.0054966
0.00549708
0.00549759
0.00549812
0.00549863
0.00549908
0.00549942
0.00549961
0.00549968
0.00548662
0.00548656
0.0054867
0.00548697
0.0054873
0.00548768
0.00548811
0.00548861
0.0054892
0.00548987
0.00549061
0.00549139
0.00549219
0.00549298
0.00549375
0.0054945
0.00549516
0.0054957
0.00549611
0.00549645
0.00549676
0.00549704
0.00549732
0.00549762
0.00549793
0.00549827
0.00549862
0.00549898
0.00549931
0.00549957
0.00549973
0.0054998
0.00549128
0.00549139
0.0054917
0.00549204
0.00549236
0.00549268
0.005493
0.00549333
0.0054937
0.00549411
0.00549455
0.00549502
0.00549549
0.00549596
0.00549641
0.00549684
0.00549723
0.00549754
0.00549778
0.00549797
0.00549815
0.0054983
0.00549846
0.00549862
0.00549879
0.00549898
0.00549917
0.00549937
0.00549957
0.00549973
0.00549984
0.00549989
0.00549695
0.00549703
0.0054972
0.00549735
0.00549749
0.00549761
0.00549772
0.00549784
0.00549796
0.0054981
0.00549825
0.0054984
0.00549855
0.0054987
0.00549885
0.00549899
0.00549911
0.00549921
0.00549929
0.00549935
0.00549941
0.00549946
0.00549951
0.00549956
0.00549961
0.00549967
0.00549973
0.00549979
0.00549985
0.00549991
0.00549995
0.00549997
)
;

boundaryField
{
    movingWall
    {
        type            fixedValue;
        value           uniform 0.0055;
    }
    fixedWalls
    {
        type            zeroGradient;
    }
    floor
    {
        type            zeroGradient;
    }
    frontAndBack
    {
        type            empty;
    }
}


// ************************************************************************* //
