/*--------------------------------*- C++ -*----------------------------------*\
| =========                 |                                                 |
| \\      /  F ield         | OpenFOAM: The Open Source CFD Toolbox           |
|  \\    /   O peration     | Version:  2212                                  |
|   \\  /    A nd           | Website:  www.openfoam.com                      |
|    \\/     M anipulation  |                                                 |
\*---------------------------------------------------------------------------*/
FoamFile
{
    version     2.0;
    format      ascii;
    arch        "LSB;label=64;scalar=64";
    class       volScalarField;
    location    "1370";
    object      Sch4;
}
// * * * * * * * * * * * * * * * * * * * * * * * * * * * * * * * * * * * * * //

dimensions      [1 -3 0 0 0 0 0];

internalField   nonuniform List<scalar> 
1024
(
0.0345389
0.0345494
0.0345752
0.0346219
0.0346958
0.0348024
0.0349445
0.0351204
0.0353225
0.0355376
0.0357487
0.0359378
0.0360905
0.0361979
0.0362552
0.0362558
0.0361812
0.0360213
0.0357925
0.0355084
0.0351847
0.0348409
0.0345002
0.0341851
0.033913
0.0336925
0.0335243
0.0334036
0.0333223
0.0332718
0.0332442
0.033233
0.0345424
0.034553
0.0345792
0.0346267
0.0347019
0.0348103
0.0349546
0.0351327
0.0353368
0.0355536
0.0357657
0.035955
0.0361074
0.0362143
0.0362712
0.0362719
0.0361977
0.036038
0.0358093
0.0355253
0.0352015
0.0348571
0.0345151
0.034198
0.0339234
0.0337005
0.0335302
0.0334079
0.0333255
0.0332743
0.0332464
0.0332351
0.0345506
0.0345616
0.0345886
0.0346377
0.0347154
0.0348275
0.0349763
0.0351596
0.0353692
0.0355911
0.0358072
0.0359982
0.0361499
0.0362553
0.0363109
0.0363111
0.0362367
0.0360762
0.0358464
0.0355615
0.0352369
0.0348911
0.0345464
0.0342252
0.0339457
0.0337178
0.0335432
0.0334175
0.0333328
0.0332803
0.0332517
0.03324
0.0345654
0.0345768
0.0346048
0.0346562
0.0347377
0.0348554
0.0350118
0.0352044
0.0354246
0.0356575
0.0358828
0.0360784
0.0362298
0.0363323
0.0363847
0.0363828
0.0363061
0.0361415
0.0359071
0.0356186
0.0352914
0.0349429
0.034594
0.0342669
0.0339802
0.0337449
0.0335639
0.0334332
0.033345
0.0332904
0.0332607
0.0332486
0.0345886
0.0346004
0.0346298
0.0346839
0.0347704
0.0348959
0.0350634
0.0352708
0.0355089
0.0357613
0.0360037
0.0362088
0.036361
0.0364589
0.0365056
0.0364986
0.0364156
0.0362408
0.035995
0.0356971
0.0353634
0.0350097
0.0346551
0.0343206
0.0340251
0.0337808
0.0335918
0.0334548
0.0333623
0.033305
0.0332739
0.0332613
0.0346228
0.034635
0.0346658
0.0347231
0.0348158
0.0349515
0.0351345
0.0353636
0.0356292
0.035912
0.0361816
0.0364032
0.0365588
0.036651
0.036689
0.0366731
0.0365771
0.036382
0.0361135
0.0357965
0.0354493
0.0350863
0.0347236
0.0343806
0.0340758
0.033822
0.0336245
0.0334809
0.0333839
0.0333238
0.0332913
0.0332782
0.0346716
0.0346841
0.0347163
0.0347773
0.0348774
0.0350261
0.0352299
0.0354889
0.0357933
0.0361191
0.0364275
0.0366742
0.0368374
0.0369243
0.0369515
0.0369218
0.0368038
0.0365739
0.0362661
0.0359151
0.0355435
0.0351643
0.0347903
0.0344379
0.0341243
0.0338623
0.0336577
0.0335087
0.033408
0.0333458
0.0333122
0.0332987
0.0347404
0.0347533
0.034787
0.0348522
0.0349611
0.0351261
0.0353566
0.0356547
0.0360098
0.0363915
0.0367501
0.037031
0.037208
0.0372922
0.0373085
0.0372612
0.0371099
0.036826
0.0364566
0.0360511
0.0356394
0.0352339
0.0348437
0.034481
0.0341605
0.0338934
0.0336853
0.033534
0.0334321
0.0333694
0.0333358
0.0333224
0.0348376
0.0348508
0.0348864
0.0349566
0.0350763
0.0352613
0.0355249
0.0358718
0.0362891
0.0367383
0.0371566
0.0374797
0.0376775
0.0377651
0.0377742
0.0377076
0.0375111
0.037151
0.0366927
0.036206
0.035733
0.0352874
0.0348739
0.0344998
0.0341752
0.0339084
0.0337025
0.0335543
0.0334554
0.0333953
0.0333634
0.0333508
0.0349754
0.0349892
0.0350273
0.0351039
0.0352371
0.0354468
0.0357506
0.0361553
0.0366448
0.03717
0.0376545
0.0380254
0.0382514
0.0383524
0.0383639
0.0382814
0.0380319
0.0375752
0.036999
0.0363989
0.0358362
0.0353308
0.0348834
0.0344949
0.034169
0.0339085
0.0337124
0.0335744
0.0334847
0.0334317
0.0334046
0.0333944
0.0351707
0.0351856
0.0352273
0.0353127
0.0354632
0.0357034
0.0360551
0.0365263
0.0370956
0.0377014
0.0382544
0.0386761
0.0389388
0.0390689
0.0391019
0.0390196
0.0387249
0.0381675
0.0374526
0.0367054
0.0360154
0.0354197
0.0349174
0.0345038
0.0341743
0.0339238
0.0337443
0.033625
0.0335526
0.0335138
0.0334965
0.0334913
0.0354442
0.0354608
0.0355079
0.0356055
0.035779
0.0360573
0.0364656
0.0370111
0.0376645
0.038351
0.038971
0.0394462
0.0397589
0.039944
0.0400333
0.039992
0.0396988
0.0390862
0.0382582
0.0373544
0.0364945
0.0357543
0.0351494
0.0346748
0.0343198
0.0340701
0.033908
0.0338141
0.0337689
0.0337543
0.0337548
0.0337587
0.035816
0.0358352
0.0358904
0.0360051
0.0362093
0.0365358
0.0370111
0.0376379
0.0383764
0.0391393
0.0398223
0.0403564
0.0407415
0.0410218
0.0412241
0.0413033
0.0411256
0.0405957
0.0397809
0.0388061
0.0378022
0.0368773
0.0360924
0.0354715
0.0350181
0.0347193
0.0345465
0.0344679
0.0344507
0.0344657
0.0344893
0.0345056
0.0362954
0.0363186
0.0363855
0.0365243
0.0367699
0.0371581
0.037713
0.0384278
0.0392478
0.0400761
0.0408142
0.0414154
0.041901
0.0423221
0.0427026
0.0430069
0.0431149
0.0429051
0.042376
0.0416004
0.0406748
0.039702
0.0387726
0.0379527
0.0372921
0.0368155
0.0365134
0.0363589
0.036309
0.036317
0.0363445
0.0363655
0.0368464
0.0368732
0.0369503
0.0371099
0.0373897
0.0378257
0.0384376
0.0392107
0.0400857
0.0409709
0.041781
0.0424814
0.0430982
0.0436809
0.0442582
0.0448264
0.0453142
0.0456121
0.0456589
0.0454566
0.0450279
0.0444167
0.0436816
0.0428936
0.0421271
0.0414473
0.0409024
0.0405177
0.0402857
0.0401716
0.0401318
0.0401267
0.0373942
0.0374226
0.0375034
0.0376692
0.0379584
0.0384063
0.0390316
0.0398206
0.040719
0.0416434
0.0425136
0.04329
0.0439847
0.0446352
0.045273
0.045927
0.0465986
0.0472568
0.0478412
0.0483038
0.0485996
0.0487009
0.0486007
0.0483142
0.0478791
0.0473554
0.0468177
0.046335
0.0459575
0.0457055
0.0455686
0.0455171
0.0378242
0.0378519
0.0379289
0.0380847
0.0383547
0.0387728
0.0393593
0.0401066
0.0409713
0.0418789
0.0427472
0.0435181
0.0441736
0.0447248
0.0451927
0.0456182
0.0460749
0.0466628
0.0473784
0.0481571
0.0489177
0.0495882
0.0501159
0.0504694
0.0506391
0.0506382
0.050503
0.0502886
0.0500574
0.0498635
0.0497361
0.0496789
0.0380808
0.0381071
0.0381775
0.0383167
0.038555
0.0389234
0.0394432
0.0401137
0.0409025
0.0417458
0.0425636
0.0432838
0.0438619
0.0442824
0.044551
0.0447054
0.0448589
0.0452113
0.0458282
0.0466594
0.0476103
0.0485748
0.0494606
0.0502031
0.0507677
0.0511475
0.0513586
0.0514352
0.0514229
0.0513702
0.0513174
0.0512875
0.0381994
0.0382243
0.0382884
0.0384111
0.0386173
0.0389338
0.0393815
0.0399647
0.0406612
0.0414193
0.0421667
0.0428285
0.0433468
0.0436895
0.0438512
0.0438667
0.0438622
0.0440628
0.0445686
0.045369
0.0463974
0.0475462
0.0486909
0.0497232
0.0505683
0.0511945
0.0516079
0.0518417
0.0519439
0.0519661
0.0519543
0.0519404
0.0382253
0.0382489
0.0383073
0.0384158
0.0385937
0.038863
0.0392425
0.0397393
0.0403393
0.0410026
0.0416683
0.0422676
0.0427412
0.0430512
0.0431879
0.0431853
0.0431694
0.0433401
0.043789
0.0445316
0.0455387
0.0467365
0.0480129
0.0492439
0.0503185
0.0511668
0.051767
0.0521394
0.0523321
0.0524048
0.0524152
0.0524074
0.0381972
0.0382187
0.0382709
0.0383659
0.038519
0.0387473
0.0390665
0.0394836
0.03999
0.040556
0.0411337
0.0416669
0.0421042
0.0424117
0.0425827
0.0426528
0.0427343
0.0429755
0.0434399
0.0441528
0.0451107
0.0462755
0.0475695
0.0488839
0.0500979
0.0511129
0.0518747
0.0523792
0.0526633
0.0527879
0.0528201
0.0528174
0.0381639
0.0381806
0.0382223
0.0382999
0.0384266
0.0386165
0.0388817
0.0392277
0.0396486
0.0401232
0.0406174
0.0410911
0.0415074
0.0418433
0.0420981
0.0423086
0.0425577
0.0429279
0.0434534
0.0441636
0.0450725
0.0461685
0.0474069
0.0487086
0.049969
0.051081
0.0519633
0.0525821
0.052954
0.0531325
0.0531886
0.0531914
0.0381977
0.0382044
0.0382259
0.0382745
0.0383645
0.0385103
0.0387224
0.0390049
0.0393537
0.0397552
0.040189
0.0406315
0.0410615
0.0414662
0.0418491
0.0422423
0.0426873
0.0432011
0.0437961
0.0445065
0.0453607
0.046369
0.0475123
0.0487372
0.0499647
0.0511007
0.0520528
0.0527596
0.0532103
0.0534426
0.0535248
0.0535341
0.038393
0.0383824
0.0383699
0.0383715
0.0384072
0.0384963
0.0386521
0.0388803
0.0391797
0.0395438
0.0399627
0.0404245
0.040917
0.0414312
0.0419683
0.0425498
0.0431745
0.0438069
0.0444498
0.0451448
0.0459297
0.0468308
0.0478501
0.0489584
0.0500989
0.0511958
0.052163
0.0529234
0.0534381
0.0537212
0.0538311
0.053848
0.0388483
0.0388127
0.0387532
0.0386924
0.0386597
0.0386845
0.0387884
0.0389825
0.0392694
0.0396462
0.0401063
0.0406394
0.0412321
0.0418721
0.0425533
0.0432859
0.0440357
0.0447354
0.0453877
0.0460417
0.0467409
0.0475199
0.0483949
0.0493572
0.0503718
0.051382
0.0523135
0.0530874
0.053644
0.0539708
0.0541085
0.0541343
0.0396418
0.0395763
0.039466
0.039345
0.0392536
0.0392311
0.0393096
0.0395065
0.039825
0.0402593
0.0407976
0.0414225
0.0421139
0.042853
0.0436277
0.04444
0.0452382
0.0459435
0.0465631
0.0471508
0.047751
0.0484003
0.0491222
0.0499215
0.0507825
0.0516684
0.0525211
0.053267
0.053837
0.0541949
0.0543583
0.0543941
0.0408187
0.0407239
0.0405789
0.0404328
0.0403306
0.0403124
0.0404141
0.040654
0.0410311
0.0415332
0.0421401
0.042827
0.0435679
0.0443411
0.0451319
0.045939
0.0467073
0.0473613
0.0479126
0.0484145
0.0489086
0.0494286
0.0499991
0.0506323
0.0513257
0.0520608
0.0527984
0.0534775
0.054028
0.0543981
0.0545817
0.0546281
0.0423971
0.0422841
0.0421481
0.0420468
0.0420105
0.0420626
0.0422308
0.042528
0.0429501
0.0434821
0.044101
0.04478
0.0454931
0.0462196
0.0469462
0.0476713
0.0483454
0.0489051
0.0493638
0.0497689
0.050156
0.0505535
0.0509831
0.0514588
0.0519855
0.0525575
0.0531539
0.0537317
0.0542292
0.0545873
0.0547807
0.0548365
0.0443914
0.0442878
0.0442303
0.0442515
0.0443413
0.0444968
0.0447325
0.0450573
0.0454715
0.0459646
0.0465182
0.0471101
0.0477188
0.0483279
0.0489269
0.0495147
0.0500522
0.0504914
0.0508446
0.0511496
0.0514344
0.0517205
0.0520251
0.0523604
0.0527332
0.0531451
0.0535885
0.0540393
0.0544518
0.0547707
0.0549582
0.0550201
0.0468421
0.0467979
0.0468834
0.0470501
0.0472503
0.0474711
0.0477222
0.048014
0.0483545
0.0487413
0.0491641
0.0496082
0.0500588
0.0505045
0.050938
0.0513586
0.0517391
0.052047
0.0522916
0.0524996
0.0526904
0.0528786
0.0530762
0.0532919
0.0535316
0.0537988
0.0540929
0.0544041
0.0547061
0.0549575
0.0551191
0.0551797
0.0498422
0.0499098
0.0501075
0.050321
0.0505249
0.0507173
0.0509071
0.0511053
0.0513223
0.0515607
0.0518168
0.0520833
0.0523517
0.0526157
0.0528707
0.0531165
0.0533376
0.0535155
0.0536558
0.0537739
0.0538809
0.0539851
0.0540932
0.0542103
0.0543398
0.0544845
0.0546455
0.0548204
0.0549984
0.0551574
0.0552696
0.0553176
0.0535124
0.053568
0.0536732
0.0537701
0.0538555
0.0539315
0.0540017
0.0540711
0.0541444
0.0542234
0.0543077
0.0543949
0.0544825
0.0545684
0.0546511
0.0547306
0.0548019
0.0548591
0.0549041
0.0549418
0.0549757
0.0550085
0.0550422
0.0550786
0.0551187
0.0551633
0.055213
0.0552676
0.0553243
0.0553774
0.055418
0.0554377
)
;

boundaryField
{
    movingWall
    {
        type            fixedValue;
        value           uniform 0.0555;
    }
    fixedWalls
    {
        type            zeroGradient;
    }
    floor
    {
        type            zeroGradient;
    }
    frontAndBack
    {
        type            empty;
    }
}


// ************************************************************************* //
