/*--------------------------------*- C++ -*----------------------------------*\
| =========                 |                                                 |
| \\      /  F ield         | OpenFOAM: The Open Source CFD Toolbox           |
|  \\    /   O peration     | Version:  2212                                  |
|   \\  /    A nd           | Website:  www.openfoam.com                      |
|    \\/     M anipulation  |                                                 |
\*---------------------------------------------------------------------------*/
FoamFile
{
    version     2.0;
    format      ascii;
    arch        "LSB;label=64;scalar=64";
    class       volScalarField;
    location    "1370";
    object      Sco2;
}
// * * * * * * * * * * * * * * * * * * * * * * * * * * * * * * * * * * * * * //

dimensions      [1 -3 0 0 0 0 0];

internalField   nonuniform List<scalar> 
1024
(
0.00547268
0.00547466
0.0054795
0.00548831
0.00550223
0.00552231
0.00554908
0.00558222
0.00562028
0.00566081
0.00570057
0.00573618
0.00576492
0.00578512
0.00579585
0.0057959
0.00578177
0.00575159
0.00570847
0.00565496
0.005594
0.00552929
0.00546517
0.00540589
0.00535468
0.0053132
0.00528157
0.00525886
0.00524357
0.00523407
0.00522888
0.00522677
0.00547332
0.00547533
0.00548026
0.00548921
0.00550338
0.0055238
0.00555097
0.00558452
0.00562297
0.00566381
0.00570377
0.00573942
0.0057681
0.0057882
0.00579886
0.00579893
0.00578487
0.00575473
0.00571163
0.00565814
0.00559716
0.00553234
0.00546796
0.0054083
0.00535664
0.0053147
0.00528268
0.00525966
0.00524417
0.00523455
0.0052293
0.00522716
0.00547487
0.00547694
0.00548202
0.00549127
0.00550592
0.00552703
0.00555507
0.0055896
0.00562908
0.00567088
0.00571158
0.00574755
0.00577612
0.00579594
0.00580635
0.00580631
0.00579222
0.00576192
0.00571861
0.00566495
0.00560383
0.00553874
0.00547385
0.00541342
0.00536084
0.00531796
0.00528512
0.00526147
0.00524555
0.00523567
0.00523028
0.00522809
0.00547765
0.00547979
0.00548508
0.00549475
0.00551012
0.00553229
0.00556175
0.00559803
0.00563951
0.00568338
0.00572582
0.00576265
0.00579117
0.00581042
0.00582024
0.0058198
0.00580528
0.00577422
0.00573004
0.00567569
0.00561408
0.00554847
0.00548281
0.00542126
0.00536733
0.00532307
0.00528901
0.00526442
0.00524784
0.00523757
0.00523198
0.00522971
0.00548202
0.00548424
0.00548977
0.00549997
0.00551627
0.00553991
0.00557147
0.00561053
0.00565539
0.00570293
0.00574858
0.00578722
0.00581588
0.00583428
0.00584301
0.00584162
0.0058259
0.00579292
0.00574659
0.00569047
0.00562764
0.00556106
0.00549431
0.00543136
0.00537578
0.00532982
0.00529426
0.00526849
0.00525109
0.00524032
0.00523447
0.0052321
0.00548846
0.00549075
0.00549654
0.00550735
0.00552481
0.00555037
0.00558486
0.005628
0.00567804
0.0057313
0.00578209
0.00582384
0.00585313
0.00587046
0.00587755
0.00587445
0.00585629
0.0058195
0.00576889
0.00570918
0.00564381
0.00557547
0.00550722
0.00544267
0.00538531
0.00533757
0.00530042
0.00527341
0.00525516
0.00524386
0.00523774
0.00523527
0.00549763
0.00549999
0.00550605
0.00551755
0.00553639
0.00556441
0.00560281
0.0056516
0.00570892
0.0057703
0.00582839
0.00587487
0.0059056
0.00592191
0.00592696
0.00592128
0.00589897
0.00585561
0.00579762
0.00573152
0.00566156
0.00559017
0.00551978
0.00545345
0.00539444
0.00534515
0.00530666
0.00527863
0.00525969
0.00524799
0.00524167
0.00523914
0.00551056
0.00551298
0.00551934
0.00553162
0.00555214
0.00558322
0.00562664
0.00568281
0.00574968
0.0058216
0.00588914
0.00594206
0.00597538
0.00599119
0.00599417
0.00598516
0.00595657
0.00590306
0.00583348
0.00575712
0.00567961
0.00560328
0.00552983
0.00546158
0.00540125
0.00535102
0.00531187
0.00528341
0.00526424
0.00525245
0.00524612
0.0052436
0.00552882
0.00553131
0.00553802
0.00555125
0.0055738
0.00560866
0.00565832
0.00572366
0.00580227
0.00588688
0.00596569
0.00602656
0.00606379
0.00608023
0.00608185
0.00606918
0.00603209
0.00596423
0.00587793
0.00578631
0.00569726
0.00561336
0.00553553
0.00546513
0.00540404
0.00535384
0.00531511
0.00528723
0.00526863
0.00525732
0.00525132
0.00524896
0.00555472
0.00555732
0.0055645
0.00557894
0.00560403
0.00564354
0.00570077
0.00577701
0.00586924
0.00596818
0.00605946
0.00612931
0.00617184
0.00619079
0.00619284
0.0061772
0.00613013
0.0060441
0.00593561
0.00582265
0.00571672
0.00562157
0.00553736
0.00546424
0.00540291
0.0053539
0.00531699
0.00529104
0.00527416
0.00526419
0.0052591
0.00525718
0.00559142
0.00559423
0.00560209
0.00561817
0.00564654
0.0056918
0.00575806
0.00584684
0.00595409
0.00606822
0.00617241
0.00625184
0.00630127
0.00632568
0.00633177
0.00631617
0.00626061
0.00615565
0.00602107
0.00588042
0.00575054
0.00563839
0.00554384
0.00546597
0.00540396
0.00535681
0.00532305
0.00530059
0.00528697
0.00527967
0.00527643
0.00527544
0.0056428
0.00564592
0.00565481
0.0056732
0.00570589
0.00575835
0.00583528
0.00593807
0.00606117
0.00619052
0.00630733
0.00639684
0.00645568
0.00649044
0.00650715
0.00649927
0.00644403
0.00632871
0.00617286
0.00600274
0.00584087
0.00570152
0.00558763
0.00549828
0.00543145
0.00538444
0.00535391
0.00533624
0.00532776
0.00532501
0.0053251
0.00532584
0.00571266
0.00571629
0.00572668
0.0057483
0.00578678
0.00584833
0.00593788
0.00605601
0.00619517
0.00633894
0.00646763
0.00656822
0.00664069
0.00669338
0.0067314
0.00674626
0.00671279
0.00661307
0.00645974
0.00627627
0.00608732
0.00591318
0.00576539
0.00564847
0.00556308
0.0055068
0.00547426
0.00545944
0.00545621
0.00545903
0.00546348
0.00546654
0.00580278
0.00580715
0.00581975
0.00584591
0.0058922
0.00596536
0.00606994
0.00620466
0.00635922
0.00651531
0.0066544
0.00676763
0.00685906
0.00693829
0.00700991
0.0070672
0.00708757
0.00704813
0.0069486
0.00680266
0.00662846
0.00644532
0.00627033
0.00611593
0.0059915
0.00590171
0.00584479
0.00581565
0.00580625
0.00580773
0.00581291
0.00581686
0.00590639
0.00591145
0.00592599
0.00595606
0.0060088
0.00609099
0.00620633
0.00635207
0.00651701
0.00668385
0.00683649
0.00696844
0.00708459
0.00719431
0.00730303
0.00741004
0.00750194
0.0075581
0.00756697
0.00752897
0.00744832
0.00733328
0.0071949
0.0070465
0.00690214
0.00677409
0.00667143
0.00659895
0.00655521
0.00653368
0.00652618
0.0065252
0.00600947
0.00601482
0.00603005
0.00606132
0.00611584
0.00620029
0.00631818
0.00646691
0.00663627
0.00681051
0.0069745
0.00712079
0.00725167
0.0073742
0.00749436
0.00761757
0.00774404
0.00786798
0.00797803
0.00806514
0.00812087
0.00813998
0.00812116
0.00806722
0.00798529
0.00788667
0.00778539
0.00769446
0.00762333
0.00757586
0.00755005
0.00754035
0.0060904
0.00609563
0.00611015
0.00613953
0.00619044
0.00626927
0.00637984
0.00652074
0.00668375
0.00685484
0.00701852
0.0071638
0.00728734
0.00739123
0.00747944
0.00755961
0.0076456
0.00775622
0.00789088
0.00803746
0.00818066
0.00830691
0.0084063
0.00847289
0.00850486
0.00850471
0.00847927
0.00843889
0.00839536
0.00835883
0.00833484
0.00832407
0.00613871
0.00614367
0.00615694
0.00618318
0.00622811
0.00629757
0.00639559
0.00652201
0.0066707
0.00682969
0.00698387
0.00711966
0.00722866
0.00730798
0.00735866
0.00738783
0.00741673
0.00748299
0.00759903
0.00775544
0.00793443
0.00811602
0.00828281
0.00842265
0.00852898
0.00860051
0.00864029
0.00865472
0.00865241
0.0086425
0.00863254
0.00862692
0.00616101
0.00616571
0.00617779
0.00620093
0.00623981
0.00629948
0.00638389
0.00649385
0.00662516
0.00676809
0.006909
0.00703381
0.00713158
0.00719627
0.00722688
0.0072299
0.00722909
0.00726679
0.00736192
0.00751251
0.00770609
0.00792234
0.00813788
0.00833227
0.00849142
0.00860934
0.00868719
0.00873123
0.00875048
0.00875467
0.00875245
0.00874983
0.00616587
0.00617033
0.00618135
0.00620179
0.00623533
0.00628609
0.00635764
0.00645129
0.00656441
0.00668947
0.00681498
0.00692802
0.00701738
0.00707594
0.00710187
0.00710154
0.00709861
0.00713075
0.00721519
0.00735491
0.00754446
0.00776994
0.00801024
0.00824202
0.00844438
0.00860411
0.00871714
0.00878728
0.00882356
0.00883726
0.00883921
0.00883776
0.00616059
0.00616465
0.00617448
0.00619239
0.00622123
0.00626427
0.00632443
0.00640306
0.00649851
0.00660522
0.00671416
0.00681472
0.00689724
0.00695535
0.00698775
0.00700113
0.00701661
0.00706206
0.00714948
0.00728364
0.00746392
0.0076832
0.0079268
0.00817428
0.00840287
0.00859398
0.00873742
0.00883242
0.00888593
0.00890939
0.00891545
0.00891495
0.00615436
0.00615751
0.00616536
0.00617997
0.00620384
0.00623962
0.00628959
0.00635481
0.00643414
0.00652361
0.0066168
0.00670613
0.0067847
0.00684814
0.00689633
0.00693618
0.00698325
0.00705305
0.00715201
0.00728569
0.00745678
0.0076631
0.00789626
0.00814131
0.00837861
0.008588
0.00875411
0.00887063
0.00894066
0.00897426
0.00898482
0.00898536
0.00616079
0.00616205
0.0061661
0.00617523
0.00619218
0.00621964
0.00625959
0.00631282
0.00637855
0.00645424
0.00653602
0.00661947
0.00670059
0.006777
0.00684932
0.00692358
0.00700757
0.00710442
0.00721649
0.00735027
0.00751107
0.0077009
0.00791613
0.00814674
0.00837784
0.00859171
0.00877097
0.00890405
0.00898892
0.00903266
0.00904814
0.00904989
0.00619768
0.00619567
0.00619331
0.00619358
0.00620028
0.00621703
0.00624637
0.00628935
0.00634577
0.00641437
0.00649334
0.00658041
0.00667329
0.00677031
0.00687165
0.00698138
0.00709921
0.00721843
0.00733955
0.00747043
0.00761821
0.00778787
0.00797977
0.00818841
0.00840312
0.00860964
0.00879173
0.00893489
0.00903179
0.0090851
0.00910579
0.00910897
0.00628354
0.00627683
0.00626559
0.0062541
0.00624791
0.00625254
0.00627207
0.00630861
0.00636265
0.00643363
0.00652035
0.00662083
0.00673259
0.00685328
0.00698176
0.00711993
0.00726132
0.0073932
0.0075161
0.00763929
0.00777095
0.0079176
0.00808235
0.0082635
0.00845452
0.0086447
0.00882008
0.00896577
0.00907057
0.0091321
0.00915802
0.00916288
0.00643309
0.00642073
0.00639994
0.00637712
0.00635983
0.00635554
0.00637028
0.00640731
0.00646728
0.00654911
0.00665053
0.00676831
0.00689863
0.00703798
0.00718405
0.00733721
0.0074877
0.00762063
0.00773737
0.00784807
0.00796111
0.00808337
0.00821927
0.00836975
0.00853184
0.00869864
0.00885916
0.0089996
0.0091069
0.00917429
0.00920506
0.0092118
0.00665483
0.00663697
0.00660963
0.00658208
0.00656276
0.00655926
0.00657835
0.00662348
0.00669448
0.00678904
0.0069034
0.00703283
0.00717248
0.00731823
0.00746731
0.00761947
0.00776428
0.00788755
0.00799144
0.00808599
0.00817905
0.00827696
0.00838437
0.00850357
0.00863412
0.00877251
0.00891137
0.00903922
0.00914287
0.00921255
0.00924712
0.00925584
0.00695217
0.00693089
0.00690525
0.00688612
0.00687923
0.00688896
0.00692057
0.00697648
0.00705595
0.00715615
0.00727275
0.00740069
0.00753508
0.00767202
0.00780899
0.00794566
0.00807272
0.00817822
0.00826465
0.00834096
0.00841388
0.00848872
0.00856962
0.00865918
0.00875833
0.00886602
0.0089783
0.00908709
0.00918074
0.00924817
0.00928457
0.00929509
0.00732782
0.00730831
0.00729745
0.00730141
0.00731827
0.00734749
0.00739183
0.00745294
0.00753091
0.00762378
0.00772808
0.0078396
0.00795432
0.00806912
0.00818202
0.0082928
0.00839412
0.00847689
0.00854344
0.00860092
0.00865456
0.00870844
0.00876579
0.00882891
0.00889911
0.00897666
0.00906013
0.00914499
0.00922266
0.00928269
0.009318
0.00932964
0.0077894
0.00778107
0.00779717
0.00782855
0.00786621
0.00790775
0.00795499
0.0080099
0.008074
0.00814685
0.00822649
0.00831016
0.00839508
0.00847908
0.00856079
0.00864005
0.00871178
0.0087698
0.0088159
0.00885509
0.00889102
0.00892647
0.00896367
0.00900428
0.00904941
0.00909972
0.00915508
0.00921367
0.00927054
0.00931787
0.00934829
0.0093597
0.00835442
0.00836716
0.00840439
0.0084446
0.00848297
0.00851919
0.0085549
0.0085922
0.00863305
0.00867794
0.00872619
0.00877639
0.00882698
0.00887672
0.0089248
0.00897112
0.00901279
0.00904631
0.00907275
0.00909501
0.00911516
0.00913479
0.00915515
0.00917718
0.00920158
0.00922881
0.00925912
0.00929206
0.00932557
0.00935549
0.00937662
0.00938566
0.00904567
0.00905614
0.00907595
0.00909419
0.00911027
0.00912457
0.00913779
0.00915085
0.00916465
0.00917953
0.0091954
0.00921183
0.00922834
0.00924452
0.00926012
0.0092751
0.00928853
0.00929931
0.00930779
0.00931489
0.00932128
0.00932746
0.00933382
0.00934066
0.00934821
0.00935661
0.00936597
0.00937624
0.00938693
0.00939692
0.00940457
0.00940827
)
;

boundaryField
{
    movingWall
    {
        type            fixedValue;
        value           uniform 0.00942;
    }
    fixedWalls
    {
        type            zeroGradient;
    }
    floor
    {
        type            zeroGradient;
    }
    frontAndBack
    {
        type            empty;
    }
}


// ************************************************************************* //
