/*--------------------------------*- C++ -*----------------------------------*\
| =========                 |                                                 |
| \\      /  F ield         | OpenFOAM: The Open Source CFD Toolbox           |
|  \\    /   O peration     | Version:  2212                                  |
|   \\  /    A nd           | Website:  www.openfoam.com                      |
|    \\/     M anipulation  |                                                 |
\*---------------------------------------------------------------------------*/
FoamFile
{
    version     2.0;
    format      ascii;
    arch        "LSB;label=64;scalar=64";
    class       volScalarField;
    location    "1370";
    object      SIC;
}
// * * * * * * * * * * * * * * * * * * * * * * * * * * * * * * * * * * * * * //

dimensions      [1 -3 0 0 0 0 0];

internalField   nonuniform List<scalar> 
1024
(
0.091153
0.091155
0.0911599
0.0911687
0.0911826
0.0912026
0.0912294
0.0912625
0.0913006
0.0913411
0.0913808
0.0914164
0.0914452
0.0914654
0.0914762
0.0914763
0.0914623
0.0914321
0.0913891
0.0913356
0.0912746
0.0912099
0.0911457
0.0910864
0.0910351
0.0909936
0.090962
0.0909392
0.0909239
0.0909144
0.0909092
0.0909071
0.0911537
0.0911557
0.0911606
0.0911696
0.0911837
0.0912041
0.0912313
0.0912648
0.0913033
0.0913441
0.091384
0.0914197
0.0914484
0.0914685
0.0914792
0.0914793
0.0914654
0.0914353
0.0913922
0.0913388
0.0912778
0.0912129
0.0911485
0.0910888
0.0910371
0.0909951
0.0909631
0.09094
0.0909245
0.0909149
0.0909096
0.0909075
0.0911552
0.0911573
0.0911624
0.0911716
0.0911863
0.0912074
0.0912354
0.0912699
0.0913094
0.0913511
0.0913918
0.0914278
0.0914564
0.0914762
0.0914867
0.0914867
0.0914727
0.0914425
0.0913992
0.0913456
0.0912844
0.0912193
0.0911544
0.0910939
0.0910413
0.0909984
0.0909655
0.0909418
0.0909259
0.090916
0.0909106
0.0909084
0.091158
0.0911601
0.0911654
0.0911751
0.0911905
0.0912126
0.0912421
0.0912783
0.0913198
0.0913636
0.0914061
0.0914429
0.0914714
0.0914907
0.0915006
0.0915002
0.0914858
0.0914548
0.0914106
0.0913563
0.0912947
0.0912291
0.0911634
0.0911018
0.0910478
0.0910035
0.0909694
0.0909448
0.0909282
0.0909179
0.0909123
0.09091
0.0911624
0.0911646
0.0911701
0.0911803
0.0911966
0.0912202
0.0912518
0.0912908
0.0913357
0.0913832
0.0914288
0.0914675
0.0914961
0.0915146
0.0915233
0.091522
0.0915064
0.0914735
0.0914272
0.0913711
0.0913083
0.0912417
0.0911749
0.0911119
0.0910563
0.0910103
0.0909747
0.0909489
0.0909315
0.0909207
0.0909148
0.0909124
0.0911688
0.0911711
0.0911769
0.0911877
0.0912052
0.0912307
0.0912652
0.0913083
0.0913583
0.0914116
0.0914623
0.0915041
0.0915334
0.0915507
0.0915579
0.0915549
0.0915368
0.0915001
0.0914495
0.0913898
0.0913244
0.0912561
0.0911878
0.0911232
0.0910658
0.091018
0.0909808
0.0909538
0.0909355
0.0909242
0.0909181
0.0909156
0.091178
0.0911804
0.0911864
0.0911979
0.0912168
0.0912448
0.0912831
0.0913319
0.0913892
0.0914506
0.0915086
0.0915551
0.0915858
0.0916022
0.0916073
0.0916017
0.0915795
0.0915362
0.0914782
0.0914121
0.0913422
0.0912708
0.0912004
0.091134
0.0910749
0.0910256
0.0909871
0.090959
0.0909401
0.0909283
0.090922
0.0909195
0.091191
0.0911934
0.0911997
0.091212
0.0912325
0.0912636
0.091307
0.0913631
0.09143
0.0915019
0.0915694
0.0916223
0.0916556
0.0916715
0.0916745
0.0916656
0.0916371
0.0915837
0.0915141
0.0914378
0.0913602
0.0912839
0.0912104
0.0911421
0.0910817
0.0910315
0.0909923
0.0909638
0.0909446
0.0909328
0.0909265
0.0909239
0.0912093
0.0912117
0.0912184
0.0912317
0.0912542
0.091289
0.0913387
0.091404
0.0914826
0.0915672
0.0916459
0.0917068
0.091744
0.0917605
0.0917622
0.0917497
0.0917127
0.0916449
0.0915586
0.0914669
0.0913779
0.0912939
0.0912161
0.0911456
0.0910845
0.0910343
0.0909955
0.0909676
0.090949
0.0909377
0.0909317
0.0909293
0.0912352
0.0912378
0.091245
0.0912594
0.0912845
0.091324
0.0913812
0.0914574
0.0915496
0.0916485
0.0917397
0.0918095
0.0918521
0.0918711
0.0918733
0.0918577
0.0918108
0.0917247
0.0916162
0.0915032
0.0913973
0.0913021
0.0912179
0.0911447
0.0910834
0.0910343
0.0909974
0.0909714
0.0909545
0.0909445
0.0909394
0.0909375
0.091272
0.0912748
0.0912826
0.0912987
0.0913271
0.0913723
0.0914385
0.0915273
0.0916344
0.0917485
0.0918526
0.0919321
0.0919815
0.092006
0.0920122
0.0919967
0.0919412
0.0918363
0.0917017
0.091561
0.091431
0.0913189
0.0912243
0.0911464
0.0910844
0.0910372
0.0910034
0.0909809
0.0909673
0.09096
0.0909567
0.0909557
0.0913235
0.0913266
0.0913355
0.0913538
0.0913865
0.0914389
0.0915158
0.0916185
0.0917416
0.0918708
0.0919876
0.0920771
0.092136
0.0921708
0.0921876
0.0921798
0.0921246
0.0920093
0.0918534
0.0916832
0.0915212
0.0913819
0.091268
0.0911786
0.0911118
0.0910647
0.0910342
0.0910165
0.091008
0.0910053
0.0910054
0.0910061
0.0913935
0.0913971
0.0914075
0.0914291
0.0914675
0.091529
0.0916185
0.0917366
0.0918756
0.0920193
0.0921479
0.0922485
0.092321
0.0923737
0.0924118
0.0924268
0.0923933
0.0922935
0.0921401
0.0919565
0.0917675
0.0915933
0.0914455
0.0913286
0.0912433
0.091187
0.0911544
0.0911396
0.0911364
0.0911392
0.0911437
0.0911467
0.0914838
0.0914881
0.0915007
0.0915269
0.0915731
0.0916462
0.0917507
0.0918853
0.0920397
0.0921957
0.0923347
0.0924479
0.0925393
0.0926186
0.0926902
0.0927475
0.0927679
0.0927284
0.0926287
0.0924827
0.0923084
0.0921252
0.0919502
0.0917958
0.0916714
0.0915817
0.0915248
0.0914957
0.0914863
0.0914878
0.091493
0.091497
0.0915875
0.0915926
0.0916071
0.0916371
0.0916898
0.0917719
0.0918871
0.0920327
0.0921975
0.0923642
0.0925167
0.0926486
0.0927647
0.0928745
0.0929832
0.0930902
0.093182
0.0932381
0.0932469
0.0932088
0.0931281
0.093013
0.0928746
0.0927262
0.0925819
0.0924539
0.0923513
0.0922788
0.0922351
0.0922136
0.0922062
0.0922052
0.0916907
0.091696
0.0917112
0.0917425
0.0917969
0.0918812
0.091999
0.0921476
0.0923167
0.0924908
0.0926547
0.0928008
0.0929317
0.0930542
0.0931743
0.0932974
0.0934239
0.0935478
0.0936579
0.093745
0.0938007
0.0938197
0.0938009
0.0937469
0.093665
0.0935664
0.0934651
0.0933742
0.0933031
0.0932557
0.0932299
0.0932202
0.0917716
0.0917769
0.0917913
0.0918207
0.0918715
0.0919503
0.0920607
0.0922014
0.0923642
0.0925351
0.0926987
0.0928438
0.0929672
0.093071
0.0931591
0.0932393
0.0933253
0.093436
0.0935707
0.0937173
0.0938606
0.0939868
0.0940862
0.0941528
0.0941847
0.0941845
0.0941591
0.0941187
0.0940752
0.0940386
0.0940147
0.0940039
0.09182
0.0918249
0.0918382
0.0918644
0.0919092
0.0919786
0.0920765
0.0922028
0.0923513
0.0925101
0.0926641
0.0927997
0.0929085
0.0929877
0.0930383
0.0930674
0.0930963
0.0931627
0.0932788
0.0934353
0.0936144
0.093796
0.0939628
0.0941026
0.0942089
0.0942804
0.0943202
0.0943346
0.0943323
0.0943224
0.0943124
0.0943068
0.0918423
0.091847
0.091859
0.0918822
0.091921
0.0919806
0.0920649
0.0921747
0.0923059
0.0924486
0.0925893
0.092714
0.0928116
0.0928761
0.0929065
0.0929094
0.0929086
0.0929464
0.0930416
0.0931923
0.093386
0.0936023
0.0938179
0.0940122
0.0941714
0.0942893
0.0943671
0.0944111
0.0944304
0.0944346
0.0944323
0.0944297
0.0918472
0.0918516
0.0918626
0.091883
0.0919165
0.0919672
0.0920387
0.0921323
0.0922452
0.0923701
0.0924955
0.0926083
0.0926975
0.0927559
0.0927816
0.0927812
0.0927781
0.0928103
0.0928948
0.0930347
0.0932243
0.0934498
0.0936902
0.093922
0.0941243
0.0942841
0.0943971
0.0944672
0.0945035
0.0945172
0.0945191
0.0945177
0.0918419
0.0918459
0.0918558
0.0918736
0.0919025
0.0919455
0.0920056
0.0920841
0.0921795
0.092286
0.0923948
0.0924952
0.0925776
0.0926355
0.0926677
0.0926809
0.0926962
0.0927416
0.0928291
0.0929633
0.0931437
0.093363
0.0936067
0.0938542
0.0940828
0.0942739
0.0944173
0.0945123
0.0945659
0.0945893
0.0945954
0.0945949
0.0918356
0.0918388
0.0918466
0.0918612
0.0918851
0.0919208
0.0919708
0.0920359
0.0921152
0.0922045
0.0922976
0.0923868
0.0924652
0.0925284
0.0925764
0.0926161
0.092663
0.0927327
0.0928316
0.0929653
0.0931365
0.0933429
0.0935761
0.0938212
0.0940585
0.0942679
0.094434
0.0945506
0.0946206
0.0946542
0.0946648
0.0946653
0.091842
0.0918432
0.0918473
0.0918564
0.0918734
0.0919008
0.0919408
0.091994
0.0920597
0.0921353
0.0922169
0.0923003
0.0923812
0.0924574
0.0925295
0.0926036
0.0926874
0.0927841
0.0928961
0.0930299
0.0931908
0.0933806
0.0935959
0.0938266
0.0940577
0.0942716
0.0944509
0.094584
0.0946689
0.0947126
0.0947281
0.0947298
0.0918787
0.0918767
0.0918744
0.0918747
0.0918814
0.0918982
0.0919275
0.0919705
0.0920269
0.0920954
0.0921743
0.0922613
0.092354
0.0924509
0.092552
0.0926615
0.0927791
0.0928982
0.0930193
0.0931501
0.0932979
0.0934676
0.0936595
0.0938682
0.094083
0.0942895
0.0944716
0.0946148
0.0947117
0.0947651
0.0947857
0.0947889
0.0919645
0.0919578
0.0919466
0.0919351
0.091929
0.0919336
0.0919532
0.0919897
0.0920438
0.0921147
0.0922014
0.0923017
0.0924134
0.0925339
0.0926621
0.0928001
0.0929413
0.093073
0.0931959
0.093319
0.0934507
0.0935973
0.0937621
0.0939433
0.0941344
0.0943246
0.0945
0.0946457
0.0947505
0.0948121
0.094838
0.0948428
0.0921139
0.0921016
0.0920808
0.092058
0.0920408
0.0920366
0.0920514
0.0920884
0.0921484
0.0922302
0.0923315
0.0924492
0.0925794
0.0927186
0.0928644
0.0930174
0.0931677
0.0933005
0.0934172
0.0935278
0.0936409
0.0937631
0.0938991
0.0940496
0.0942117
0.0943785
0.0945391
0.0946795
0.0947869
0.0948542
0.094885
0.0948918
0.0923355
0.0923177
0.0922903
0.0922629
0.0922436
0.0922402
0.0922593
0.0923045
0.0923755
0.09247
0.0925843
0.0927137
0.0928532
0.0929988
0.0931477
0.0932997
0.0934443
0.0935675
0.0936713
0.0937658
0.0938588
0.0939568
0.0940642
0.0941834
0.094314
0.0944524
0.0945913
0.0947192
0.0948228
0.0948925
0.0949271
0.0949358
0.0926327
0.0926115
0.0925858
0.0925668
0.0925599
0.0925697
0.0926014
0.0926574
0.0927369
0.092837
0.0929536
0.0930814
0.0932157
0.0933525
0.0934893
0.0936259
0.0937528
0.0938582
0.0939445
0.0940208
0.0940937
0.0941686
0.0942495
0.0943391
0.0944382
0.0945459
0.0946582
0.094767
0.0948607
0.0949281
0.0949646
0.0949751
0.0930083
0.0929887
0.0929779
0.0929819
0.0929988
0.0930281
0.0930725
0.0931336
0.0932116
0.0933045
0.0934087
0.0935202
0.0936348
0.0937495
0.0938623
0.093973
0.0940742
0.0941569
0.0942234
0.0942808
0.0943344
0.0943883
0.0944457
0.0945088
0.094579
0.0946566
0.0947401
0.0948249
0.0949026
0.0949627
0.094998
0.0950096
0.0934697
0.0934614
0.0934775
0.0935089
0.0935466
0.0935882
0.0936354
0.0936904
0.0937545
0.0938273
0.0939069
0.0939906
0.0940754
0.0941594
0.094241
0.0943202
0.0943918
0.0944498
0.0944959
0.094535
0.0945709
0.0946064
0.0946436
0.0946842
0.0947294
0.0947797
0.094835
0.0948936
0.0949505
0.0949979
0.0950283
0.0950397
0.0940346
0.0940474
0.0940846
0.0941248
0.0941632
0.0941994
0.0942352
0.0942725
0.0943133
0.0943582
0.0944065
0.0944566
0.0945072
0.0945569
0.0946049
0.0946512
0.0946928
0.0947263
0.0947527
0.094775
0.0947951
0.0948147
0.0948351
0.0948571
0.0948815
0.0949088
0.0949391
0.094972
0.0950056
0.0950355
0.0950566
0.0950657
0.0947257
0.0947362
0.094756
0.0947743
0.0947903
0.0948046
0.0948179
0.0948309
0.0948447
0.0948596
0.0948755
0.0948919
0.0949084
0.0949246
0.0949402
0.0949551
0.0949685
0.0949793
0.0949878
0.0949949
0.0950013
0.0950074
0.0950138
0.0950207
0.0950282
0.0950366
0.095046
0.0950562
0.0950669
0.0950769
0.0950846
0.0950883
)
;

boundaryField
{
    movingWall
    {
        type            fixedValue;
        value           uniform 0.0951;
    }
    fixedWalls
    {
        type            zeroGradient;
    }
    floor
    {
        type            zeroGradient;
    }
    frontAndBack
    {
        type            empty;
    }
}


// ************************************************************************* //
