/*--------------------------------*- C++ -*----------------------------------*\
| =========                 |                                                 |
| \\      /  F ield         | OpenFOAM: The Open Source CFD Toolbox           |
|  \\    /   O peration     | Version:  2212                                  |
|   \\  /    A nd           | Website:  www.openfoam.com                      |
|    \\/     M anipulation  |                                                 |
\*---------------------------------------------------------------------------*/
FoamFile
{
    version     2.0;
    format      ascii;
    arch        "LSB;label=64;scalar=64";
    class       volVectorField;
    location    "1370";
    object      U;
}
// * * * * * * * * * * * * * * * * * * * * * * * * * * * * * * * * * * * * * //

dimensions      [0 1 -1 0 0 0 0];

internalField   nonuniform List<vector> 
1024
(
(4.97559e-06 -5.12416e-06 0)
(-3.94066e-05 1.11692e-05 0)
(-0.000175611 2.69592e-05 0)
(-0.000393792 3.33543e-05 0)
(-0.00065462 3.19808e-05 0)
(-0.00090992 2.57384e-05 0)
(-0.0011081 1.59746e-05 0)
(-0.00118873 2.60218e-06 0)
(-0.00107629 -1.46862e-05 0)
(-0.000699625 -3.03641e-05 0)
(-6.73418e-05 -3.61863e-05 0)
(0.00064139 -2.67161e-05 0)
(0.00116933 -1.49578e-05 0)
(0.00151701 -6.7777e-06 0)
(0.00174371 -4.6234e-06 0)
(0.00197423 -5.57485e-06 0)
(0.00223534 -5.4152e-06 0)
(0.0023861 -9.76859e-08 0)
(0.00232039 7.63945e-06 0)
(0.00207322 1.29715e-05 0)
(0.00174854 1.48914e-05 0)
(0.00142561 1.46021e-05 0)
(0.00114005 1.33716e-05 0)
(0.000899555 1.1976e-05 0)
(0.00069815 1.10245e-05 0)
(0.000524172 1.0992e-05 0)
(0.000367358 1.17992e-05 0)
(0.000225905 1.23214e-05 0)
(0.000108627 1.07058e-05 0)
(2.87472e-05 5.64582e-06 0)
(-6.5585e-06 -1.74279e-06 0)
(-6.23335e-06 -6.29122e-06 0)
(-1.23056e-05 3.99315e-05 0)
(-0.000181833 0.000173863 0)
(-0.000554376 0.00029071 0)
(-0.00111094 0.000340891 0)
(-0.00176263 0.000321476 0)
(-0.00239089 0.000248633 0)
(-0.00286088 0.000137465 0)
(-0.00302054 -3.1792e-06 0)
(-0.00269679 -0.000166019 0)
(-0.00174496 -0.000309197 0)
(-0.000166059 -0.000367622 0)
(0.00164782 -0.000294339 0)
(0.00304364 -0.000181935 0)
(0.00403286 -0.000102164 0)
(0.00472693 -7.10087e-05 0)
(0.00541216 -7.03735e-05 0)
(0.00614708 -6.0948e-05 0)
(0.00659068 -1.1827e-05 0)
(0.00649085 6.10532e-05 0)
(0.00591734 0.000121861 0)
(0.0051035 0.000155893 0)
(0.00424878 0.000167568 0)
(0.00345783 0.000166657 0)
(0.00276496 0.000161249 0)
(0.00216623 0.000157651 0)
(0.00164091 0.000159585 0)
(0.00117031 0.000164909 0)
(0.000753738 0.000163637 0)
(0.000411292 0.000142615 0)
(0.000169185 9.60018e-05 0)
(3.84392e-05 3.54059e-05 0)
(-1.74464e-06 -7.02143e-06 0)
(-3.20028e-05 0.000189781 0)
(-0.000330205 0.000559262 0)
(-0.00090678 0.000838593 0)
(-0.00172469 0.000948608 0)
(-0.00265667 0.000879693 0)
(-0.00353459 0.000665301 0)
(-0.00416302 0.000346282 0)
(-0.00432707 -4.51198e-05 0)
(-0.00379605 -0.000479756 0)
(-0.00242271 -0.000854795 0)
(-0.000204941 -0.00101603 0)
(0.00237673 -0.000833781 0)
(0.0044384 -0.000537574 0)
(0.00600541 -0.000322643 0)
(0.00718027 -0.000229279 0)
(0.00832575 -0.000217343 0)
(0.00951085 -0.000185498 0)
(0.0102722 -5.22641e-05 0)
(0.0102508 0.000147208 0)
(0.00952093 0.000324121 0)
(0.00838195 0.000436732 0)
(0.00711536 0.000489654 0)
(0.005888 0.000505135 0)
(0.00476999 0.000504192 0)
(0.00377394 0.000503678 0)
(0.00288512 0.000512849 0)
(0.00208771 0.000525467 0)
(0.00138532 0.000516778 0)
(0.000804061 0.000456393 0)
(0.000376109 0.000332864 0)
(0.000117816 0.00017162 0)
(7.35704e-06 3.24398e-05 0)
(-4.42474e-05 0.000454124 0)
(-0.000430644 0.00119201 0)
(-0.00114632 0.00169212 0)
(-0.00213247 0.00186344 0)
(-0.00322971 0.00169881 0)
(-0.00423621 0.00125633 0)
(-0.00491913 0.000614462 0)
(-0.0050274 -0.000155165 0)
(-0.00431367 -0.00097706 0)
(-0.0026842 -0.00166645 0)
(-0.000165589 -0.00196558 0)
(0.00276369 -0.00164425 0)
(0.00521937 -0.00110352 0)
(0.00722536 -0.000700073 0)
(0.00883456 -0.000510063 0)
(0.0104094 -0.000471881 0)
(0.0120105 -0.000403165 0)
(0.0131246 -0.000147465 0)
(0.0133097 0.000241076 0)
(0.0126037 0.000602761 0)
(0.0113285 0.000854534 0)
(0.00981084 0.000995691 0)
(0.0082633 0.00106172 0)
(0.00679204 0.00108969 0)
(0.00543598 0.00111012 0)
(0.00419943 0.00113939 0)
(0.00307968 0.00116612 0)
(0.00208807 0.0011472 0)
(0.00125528 0.00102992 0)
(0.000620215 0.000792229 0)
(0.000212552 0.000468592 0)
(1.77983e-05 0.000139513 0)
(-4.67093e-05 0.00080898 0)
(-0.000457583 0.00202896 0)
(-0.00121703 0.00280047 0)
(-0.00225762 0.00302903 0)
(-0.0034029 0.00272078 0)
(-0.0044312 0.00196818 0)
(-0.0050897 0.000899812 0)
(-0.00511161 -0.000354068 0)
(-0.00427296 -0.00164183 0)
(-0.00256111 -0.00267867 0)
(-6.84868e-05 -0.00311159 0)
(0.00278393 -0.0026459 0)
(0.0053212 -0.00184979 0)
(0.00755011 -0.0012361 0)
(0.00946553 -0.000927954 0)
(0.0113796 -0.000850704 0)
(0.0133364 -0.000736922 0)
(0.0148293 -0.000333717 0)
(0.0153532 0.000297818 0)
(0.0148413 0.000912644 0)
(0.0136171 0.00137079 0)
(0.0120282 0.00166104 0)
(0.0103144 0.00183075 0)
(0.00860895 0.00193257 0)
(0.00697776 0.00201028 0)
(0.00545054 0.00208693 0)
(0.00404483 0.00214557 0)
(0.00278469 0.00212307 0)
(0.00170873 0.0019389 0)
(0.000866934 0.00154952 0)
(0.00030794 0.000985354 0)
(2.81599e-05 0.000338764 0)
(-3.98108e-05 0.00120321 0)
(-0.00040886 0.00297196 0)
(-0.00110907 0.00405855 0)
(-0.00208563 0.00435336 0)
(-0.00316908 0.00387289 0)
(-0.00413407 0.00274858 0)
(-0.00472093 0.00117246 0)
(-0.00466332 -0.000641692 0)
(-0.00378994 -0.0024312 0)
(-0.00216962 -0.00379574 0)
(1.93351e-05 -0.00431457 0)
(0.00245497 -0.00371956 0)
(0.00476536 -0.00270647 0)
(0.00694942 -0.00189948 0)
(0.00896382 -0.00147542 0)
(0.0110545 -0.00135932 0)
(0.0132562 -0.00120833 0)
(0.0151145 -0.000656097 0)
(0.0160933 0.000260754 0)
(0.0159212 0.00119565 0)
(0.0149102 0.00192961 0)
(0.0134212 0.00243709 0)
(0.0117083 0.00277713 0)
(0.00991934 0.00301594 0)
(0.00814002 0.00320728 0)
(0.00642399 0.00337776 0)
(0.00481153 0.0035027 0)
(0.00334435 0.00349616 0)
(0.00207431 0.00324228 0)
(0.00106554 0.00266181 0)
(0.000384554 0.00176512 0)
(3.6606e-05 0.000648202 0)
(-2.67868e-05 0.00157018 0)
(-0.000305143 0.00388443 0)
(-0.000863785 0.00531555 0)
(-0.00167775 0.0057093 0)
(-0.00261023 0.00506751 0)
(-0.00345192 0.00355046 0)
(-0.00394907 0.00142297 0)
(-0.0038508 -0.000988442 0)
(-0.00304925 -0.00327145 0)
(-0.0016803 -0.00489711 0)
(2.07722e-06 -0.00542566 0)
(0.0018068 -0.00472748 0)
(0.00363174 -0.0035675 0)
(0.00550051 -0.00261966 0)
(0.00736305 -0.0021113 0)
(0.00940754 -0.00197934 0)
(0.0116784 -0.00182577 0)
(0.0138225 -0.0011591 0)
(0.0153109 6.48284e-05 0)
(0.0156027 0.00138346 0)
(0.0149312 0.0024621 0)
(0.013684 0.00325496 0)
(0.0121272 0.00383655 0)
(0.0104118 0.00428544 0)
(0.00863358 0.00466092 0)
(0.00686406 0.00498752 0)
(0.00516511 0.00522689 0)
(0.00359912 0.0052637 0)
(0.00223488 0.00493805 0)
(0.00114892 0.00412385 0)
(0.000415529 0.00280074 0)
(4.00363e-05 0.0010637 0)
(-1.26803e-05 0.00184932 0)
(-0.000182635 0.00463038 0)
(-0.000560157 0.00640849 0)
(-0.00115484 0.00695209 0)
(-0.0018803 0.00620665 0)
(-0.00256368 0.0043319 0)
(-0.00297223 0.00166271 0)
(-0.00288635 -0.00133483 0)
(-0.00225918 -0.00405792 0)
(-0.00127625 -0.00584206 0)
(-0.000222086 -0.00629914 0)
(0.000843045 -0.00552675 0)
(0.00200045 -0.00430078 0)
(0.0033287 -0.00328848 0)
(0.00479717 -0.00275465 0)
(0.00655116 -0.00265634 0)
(0.00865917 -0.00257009 0)
(0.0109381 -0.00186906 0)
(0.0128534 -0.000370613 0)
(0.0137556 0.0013906 0)
(0.0135211 0.00288582 0)
(0.0126211 0.00402725 0)
(0.0113498 0.0049176 0)
(0.00985261 0.00564926 0)
(0.00822555 0.00628243 0)
(0.00655245 0.0068314 0)
(0.00491499 0.00723312 0)
(0.00339728 0.00733204 0)
(0.00208442 0.00691808 0)
(0.00105639 0.00582002 0)
(0.000376327 0.00399356 0)
(3.53879e-05 0.00153935 0)
(-2.01904e-06 0.00200973 0)
(-7.83933e-05 0.00512332 0)
(-0.000285833 0.00721345 0)
(-0.000658928 0.00795466 0)
(-0.00116383 0.00719623 0)
(-0.0016787 0.00505473 0)
(-0.00200891 0.00191552 0)
(-0.00198472 -0.00159966 0)
(-0.00162068 -0.00465722 0)
(-0.00113154 -0.00647184 0)
(-0.000758572 -0.00678487 0)
(-0.000478044 -0.00597146 0)
(-8.98236e-05 -0.00476474 0)
(0.000542492 -0.00377265 0)
(0.00142303 -0.00328934 0)
(0.00266305 -0.00329369 0)
(0.00435199 -0.00338192 0)
(0.00655027 -0.0027869 0)
(0.0087431 -0.00112526 0)
(0.0103998 0.00111605 0)
(0.0106735 0.00310792 0)
(0.0101862 0.00464809 0)
(0.00930319 0.00590219 0)
(0.00815013 0.00697863 0)
(0.00681378 0.00793306 0)
(0.00538739 0.0087567 0)
(0.00397244 0.00934524 0)
(0.00267347 0.00949066 0)
(0.00158421 0.0089377 0)
(0.000770831 0.00749661 0)
(0.00026201 0.00513408 0)
(2.22445e-05 0.00197973 0)
(2.95895e-06 0.00206318 0)
(-1.67839e-05 0.00536416 0)
(-0.000107174 0.00769837 0)
(-0.000309849 0.00865587 0)
(-0.000628371 0.00797347 0)
(-0.000993556 0.00568851 0)
(-0.00126576 0.00220871 0)
(-0.00134668 -0.00168424 0)
(-0.00132681 -0.0049017 0)
(-0.00141655 -0.00660107 0)
(-0.00175738 -0.00673007 0)
(-0.00224058 -0.00588737 0)
(-0.00263578 -0.00479557 0)
(-0.00278368 -0.00395449 0)
(-0.00262369 -0.00360423 0)
(-0.002073 -0.00376717 0)
(-0.001033 -0.00413923 0)
(0.00081758 -0.00386595 0)
(0.00299795 -0.00228389 0)
(0.0054715 0.000498259 0)
(0.00646198 0.00304935 0)
(0.00645844 0.0049948 0)
(0.00607122 0.00664068 0)
(0.00538098 0.00810142 0)
(0.00446632 0.00941597 0)
(0.00343466 0.0105304 0)
(0.00240834 0.0112782 0)
(0.00150439 0.0113958 0)
(0.00080718 0.0106131 0)
(0.000346225 0.00878077 0)
(9.89582e-05 0.005934 0)
(4.38587e-06 0.00226058 0)
(2.46294e-06 0.00206044 0)
(-4.68454e-06 0.00545034 0)
(-5.29254e-05 0.0079553 0)
(-0.000174706 0.00910795 0)
(-0.000385718 0.00855029 0)
(-0.000656824 0.00623713 0)
(-0.000916334 0.00258859 0)
(-0.00115757 -0.00145326 0)
(-0.00156568 -0.00457356 0)
(-0.00229486 -0.00600821 0)
(-0.00336105 -0.00596325 0)
(-0.00458641 -0.00516754 0)
(-0.00574242 -0.00427259 0)
(-0.00666805 -0.00367296 0)
(-0.00727059 -0.00356402 0)
(-0.00745906 -0.00397766 0)
(-0.00710103 -0.00466665 0)
(-0.00595017 -0.00482779 0)
(-0.00411905 -0.00371946 0)
(-0.00184568 -0.0010856 0)
(0.000894186 0.00244181 0)
(0.00158879 0.00491167 0)
(0.00188719 0.00696024 0)
(0.00179863 0.00881362 0)
(0.00144564 0.0104856 0)
(0.000965077 0.0118423 0)
(0.00049597 0.0126413 0)
(0.000144024 0.0125908 0)
(-4.54691e-05 0.0114732 0)
(-9.24536e-05 0.00926998 0)
(-5.99481e-05 0.0061263 0)
(-1.14283e-05 0.00228256 0)
(-2.29337e-06 0.00208295 0)
(-3.54026e-05 0.00556849 0)
(-0.000116902 0.00821321 0)
(-0.000261417 0.00951917 0)
(-0.000473652 0.00907922 0)
(-0.000745637 0.00681427 0)
(-0.00108109 0.00319636 0)
(-0.00157649 -0.000681623 0)
(-0.0025061 -0.00340993 0)
(-0.00390999 -0.00447062 0)
(-0.00567909 -0.004307 0)
(-0.00759651 -0.00366306 0)
(-0.00945636 -0.00307014 0)
(-0.0111123 -0.0028148 0)
(-0.0124596 -0.00304891 0)
(-0.0133882 -0.00381745 0)
(-0.0137268 -0.00492496 0)
(-0.0131844 -0.00558063 0)
(-0.0117727 -0.00501291 0)
(-0.00960751 -0.00295973 0)
(-0.006534 0.00045527 0)
(-0.00426465 0.00376865 0)
(-0.00298704 0.00638774 0)
(-0.00221552 0.00869321 0)
(-0.00178206 0.0106919 0)
(-0.00152488 0.0121637 0)
(-0.00130327 0.0128549 0)
(-0.00104294 0.0125436 0)
(-0.00073547 0.011146 0)
(-0.00042304 0.00876284 0)
(-0.000170295 0.00562993 0)
(-2.02817e-05 0.00203283 0)
(-8.13337e-06 0.00220454 0)
(-9.98179e-05 0.00591614 0)
(-0.000284529 0.00875087 0)
(-0.000559703 0.010185 0)
(-0.000905833 0.00981655 0)
(-0.00132302 0.0076294 0)
(-0.00189571 0.0042424 0)
(-0.00285668 0.000884353 0)
(-0.00435155 -0.00133364 0)
(-0.00642253 -0.00202328 0)
(-0.00882788 -0.00178872 0)
(-0.0113107 -0.00136393 0)
(-0.0136978 -0.00115259 0)
(-0.0158987 -0.0013263 0)
(-0.0178212 -0.00199991 0)
(-0.0193508 -0.00321775 0)
(-0.0203058 -0.00483573 0)
(-0.0203504 -0.00613807 0)
(-0.0194019 -0.00635833 0)
(-0.0174863 -0.0052094 0)
(-0.0146437 -0.00265567 0)
(-0.0110852 0.000885565 0)
(-0.00814276 0.0042728 0)
(-0.00609652 0.00701962 0)
(-0.0045818 0.00925623 0)
(-0.00343666 0.0107889 0)
(-0.00250418 0.0114153 0)
(-0.0017223 0.0109804 0)
(-0.00106717 0.00951892 0)
(-0.00055054 0.00725427 0)
(-0.000200677 0.00450182 0)
(-2.08945e-05 0.00156137 0)
(-2.16592e-05 0.00261149 0)
(-0.000214742 0.00695495 0)
(-0.000590873 0.0102209 0)
(-0.0011453 0.0118777 0)
(-0.00185428 0.0116261 0)
(-0.00274637 0.00967837 0)
(-0.00395904 0.00690637 0)
(-0.0056809 0.00449502 0)
(-0.00792879 0.00309327 0)
(-0.0104901 0.00249672 0)
(-0.0131317 0.00223113 0)
(-0.0157124 0.00196024 0)
(-0.0181622 0.00149376 0)
(-0.0204176 0.000694904 0)
(-0.0224469 -0.000524652 0)
(-0.0242258 -0.00221108 0)
(-0.0255506 -0.00437079 0)
(-0.0260581 -0.00639585 0)
(-0.0255915 -0.00757491 0)
(-0.0241104 -0.00768113 0)
(-0.0215975 -0.00663284 0)
(-0.0181785 -0.00444339 0)
(-0.0141503 -0.00119317 0)
(-0.0101699 0.00253389 0)
(-0.00688022 0.00567381 0)
(-0.00444774 0.00754809 0)
(-0.0026924 0.00843033 0)
(-0.00152765 0.00826381 0)
(-0.000786419 0.00714695 0)
(-0.00033589 0.00537079 0)
(-9.86089e-05 0.00326718 0)
(-6.84925e-06 0.00110474 0)
(-2.53374e-05 0.00339154 0)
(-0.000264005 0.00894279 0)
(-0.000744342 0.0130791 0)
(-0.00148077 0.0152853 0)
(-0.00245889 0.0154086 0)
(-0.00369727 0.0138741 0)
(-0.00525845 0.0116145 0)
(-0.00717876 0.00955966 0)
(-0.00940274 0.00809545 0)
(-0.011831 0.00709439 0)
(-0.014377 0.00628154 0)
(-0.0169672 0.00543916 0)
(-0.0195356 0.00441706 0)
(-0.0220185 0.00309851 0)
(-0.0243309 0.00137187 0)
(-0.0262941 -0.000870446 0)
(-0.027734 -0.00358195 0)
(-0.0285049 -0.00633697 0)
(-0.028455 -0.00853712 0)
(-0.0275186 -0.0100506 0)
(-0.0256457 -0.0108192 0)
(-0.0228671 -0.0107688 0)
(-0.0193156 -0.00978315 0)
(-0.0152514 -0.00773934 0)
(-0.0110519 -0.00460872 0)
(-0.00718795 -0.000773239 0)
(-0.00413587 0.00260686 0)
(-0.00202001 0.00467763 0)
(-0.000801092 0.00505471 0)
(-0.000213653 0.00435811 0)
(-1.23034e-05 0.00295685 0)
(1.14806e-05 0.00111508 0)
(-1.73457e-05 0.00427241 0)
(-0.000205904 0.0112804 0)
(-0.000613554 0.0166018 0)
(-0.00128398 0.019691 0)
(-0.00222741 0.0204297 0)
(-0.00344709 0.0193117 0)
(-0.00493809 0.0172843 0)
(-0.00666943 0.0152315 0)
(-0.00858893 0.0135456 0)
(-0.0106531 0.0121688 0)
(-0.0128329 0.0108862 0)
(-0.0150989 0.0095148 0)
(-0.0174134 0.0079285 0)
(-0.0197313 0.00602685 0)
(-0.0219938 0.00371451 0)
(-0.024086 0.000904628 0)
(-0.0257405 -0.00245871 0)
(-0.0266355 -0.00586773 0)
(-0.0269771 -0.00893302 0)
(-0.0266562 -0.011653 0)
(-0.0255962 -0.0140153 0)
(-0.0237643 -0.0159066 0)
(-0.0212018 -0.0171048 0)
(-0.0180338 -0.0173216 0)
(-0.0144596 -0.0162751 0)
(-0.0107458 -0.0138089 0)
(-0.00722782 -0.0100642 0)
(-0.00426003 -0.00562351 0)
(-0.00209445 -0.0015006 0)
(-0.000810876 0.00102781 0)
(-0.000202233 0.00172144 0)
(-4.88109e-06 0.000944916 0)
(-3.79405e-06 0.00483186 0)
(-8.50272e-05 0.0129029 0)
(-0.000301973 0.0192766 0)
(-0.000722598 0.0233332 0)
(-0.00139383 0.0248428 0)
(-0.00232884 0.0241988 0)
(-0.00349809 0.0223119 0)
(-0.00483847 0.020121 0)
(-0.00628641 0.0181396 0)
(-0.0078068 0.0164162 0)
(-0.00938997 0.0147798 0)
(-0.0110334 0.0130492 0)
(-0.0127326 0.0110916 0)
(-0.0144814 0.00879846 0)
(-0.0162651 0.00605875 0)
(-0.0180282 0.0027665 0)
(-0.0196811 -0.00111677 0)
(-0.0206452 -0.00500967 0)
(-0.0214151 -0.00859907 0)
(-0.0218455 -0.0121319 0)
(-0.0218093 -0.015713 0)
(-0.0211773 -0.0192683 0)
(-0.0198618 -0.0225237 0)
(-0.0178559 -0.0250308 0)
(-0.015246 -0.0262493 0)
(-0.0122127 -0.0256565 0)
(-0.00901654 -0.0229292 0)
(-0.00596721 -0.0181887 0)
(-0.00338148 -0.0122547 0)
(-0.00151614 -0.00656335 0)
(-0.000450868 -0.00241716 0)
(-2.73177e-05 -0.000253639 0)
(8.95208e-06 0.00490266 0)
(3.83809e-05 0.0133314 0)
(3.06396e-05 0.0203245 0)
(-9.17424e-05 0.0252043 0)
(-0.000413764 0.0275219 0)
(-0.000986403 0.0274454 0)
(-0.00179146 0.0257566 0)
(-0.00274283 0.0234377 0)
(-0.00374389 0.0211567 0)
(-0.00473727 0.0191031 0)
(-0.00570554 0.0171705 0)
(-0.00665215 0.0151854 0)
(-0.00758584 0.0130078 0)
(-0.00851727 0.0105292 0)
(-0.00945301 0.00764559 0)
(-0.010363 0.00424259 0)
(-0.0112446 0.000231749 0)
(-0.0123081 -0.00376428 0)
(-0.0133378 -0.00734383 0)
(-0.0144137 -0.0110335 0)
(-0.0153747 -0.0151252 0)
(-0.016028 -0.0197018 0)
(-0.0161519 -0.0245695 0)
(-0.0155829 -0.0292322 0)
(-0.0142533 -0.0329808 0)
(-0.0122163 -0.0349553 0)
(-0.00965034 -0.0343349 0)
(-0.00684151 -0.0306051 0)
(-0.0041586 -0.0239749 0)
(-0.00199663 -0.0157474 0)
(-0.000634377 -0.00795269 0)
(-4.39091e-05 -0.0020414 0)
(1.92487e-05 0.00461954 0)
(0.000144299 0.0128579 0)
(0.000324285 0.020035 0)
(0.000483546 0.0254282 0)
(0.000516691 0.0284835 0)
(0.000337984 0.0291152 0)
(-8.19516e-05 0.0277985 0)
(-0.000671058 0.0254332 0)
(-0.00129369 0.0228763 0)
(-0.00184741 0.0204921 0)
(-0.00228335 0.0182758 0)
(-0.00260098 0.0160778 0)
(-0.00282422 0.0137479 0)
(-0.00298824 0.0111628 0)
(-0.00313704 0.0082083 0)
(-0.00329612 0.00478215 0)
(-0.00334544 0.000884696 0)
(-0.0043546 -0.00277467 0)
(-0.0054603 -0.00597281 0)
(-0.00679921 -0.0092833 0)
(-0.00830808 -0.0131467 0)
(-0.00985583 -0.0178811 0)
(-0.0111683 -0.0235222 0)
(-0.0119538 -0.0296528 0)
(-0.0119865 -0.0355493 0)
(-0.0111568 -0.0401271 0)
(-0.00951504 -0.0421634 0)
(-0.00726155 -0.0405174 0)
(-0.00474437 -0.0345865 0)
(-0.00243745 -0.0250103 0)
(-0.000822533 -0.0140107 0)
(-6.41955e-05 -0.00412323 0)
(2.48545e-05 0.00412711 0)
(0.000219517 0.0117952 0)
(0.000550217 0.0188295 0)
(0.000948202 0.024487 0)
(0.00129787 0.0281026 0)
(0.00149252 0.029386 0)
(0.00147309 0.0285828 0)
(0.00127027 0.0264049 0)
(0.00100763 0.0236895 0)
(0.000831928 0.020984 0)
(0.000841305 0.0184606 0)
(0.00105786 0.0160483 0)
(0.00144577 0.0136026 0)
(0.00193448 0.0109841 0)
(0.00242914 0.00805926 0)
(0.00280066 0.00471379 0)
(0.00305974 0.0012224 0)
(0.0022278 -0.00190682 0)
(0.00108147 -0.00470799 0)
(-0.000357419 -0.00763452 0)
(-0.00202419 -0.010965 0)
(-0.00391214 -0.0152138 0)
(-0.00592767 -0.0208484 0)
(-0.00772519 -0.0276269 0)
(-0.00895958 -0.035016 0)
(-0.00934241 -0.0418312 0)
(-0.00875986 -0.0465892 0)
(-0.0072714 -0.0476231 0)
(-0.00513726 -0.0434838 0)
(-0.00283736 -0.0337912 0)
(-0.00101791 -0.0203026 0)
(-8.64529e-05 -0.00642713 0)
(2.66897e-05 0.00356802 0)
(0.000261419 0.010474 0)
(0.000695361 0.0171386 0)
(0.00127553 0.0228434 0)
(0.00188702 0.0268434 0)
(0.00241354 0.0286779 0)
(0.00277735 0.0283838 0)
(0.0029789 0.0264881 0)
(0.00311454 0.0237571 0)
(0.00333387 0.0208321 0)
(0.0037616 0.0180435 0)
(0.00444307 0.0154376 0)
(0.00534008 0.0129135 0)
(0.00635128 0.0103302 0)
(0.0073265 0.00754409 0)
(0.00805132 0.00444346 0)
(0.00828626 0.00139992 0)
(0.00749557 -0.00127103 0)
(0.00625314 -0.00372187 0)
(0.00474245 -0.00619529 0)
(0.00303226 -0.00897726 0)
(0.00120183 -0.0124656 0)
(-0.00106359 -0.0176972 0)
(-0.0034035 -0.0243424 0)
(-0.00552871 -0.032453 0)
(-0.00699821 -0.0408752 0)
(-0.00751172 -0.0480545 0)
(-0.0069344 -0.0519591 0)
(-0.00536988 -0.0503695 0)
(-0.00322438 -0.0417082 0)
(-0.00124207 -0.0266276 0)
(-0.00011391 -0.00890234 0)
(2.52847e-05 0.00303314 0)
(0.000269909 0.00913356 0)
(0.000751703 0.0153025 0)
(0.00144253 0.0208827 0)
(0.00224358 0.0250908 0)
(0.00304444 0.0273337 0)
(0.0037635 0.0274729 0)
(0.00438337 0.0258742 0)
(0.00496923 0.0232202 0)
(0.00564239 0.0201892 0)
(0.00651645 0.0172249 0)
(0.00763938 0.0144875 0)
(0.00897199 0.0119392 0)
(0.0103954 0.00945504 0)
(0.0117206 0.0068918 0)
(0.0126732 0.00415004 0)
(0.0128867 0.00158504 0)
(0.0120963 -0.000630869 0)
(0.0107568 -0.00271053 0)
(0.00907885 -0.00487243 0)
(0.00720207 -0.00736358 0)
(0.00525144 -0.0104854 0)
(0.00314726 -0.0147265 0)
(0.000785052 -0.0206287 0)
(-0.00183632 -0.0288008 0)
(-0.00417779 -0.0380789 0)
(-0.00576584 -0.0471182 0)
(-0.00622428 -0.0537515 0)
(-0.00542197 -0.0551514 0)
(-0.00360423 -0.0485236 0)
(-0.00152124 -0.0328892 0)
(-0.000152047 -0.0115634 0)
(2.05256e-05 0.00258305 0)
(0.000240461 0.00794822 0)
(0.000702939 0.0135862 0)
(0.00141525 0.0189165 0)
(0.00231632 0.0231558 0)
(0.00332315 0.0256248 0)
(0.00436745 0.0260551 0)
(0.00542406 0.0246927 0)
(0.00652229 0.0221517 0)
(0.00772927 0.0191162 0)
(0.00911031 0.0160933 0)
(0.0106879 0.0133225 0)
(0.012416 0.0108232 0)
(0.0141722 0.00849465 0)
(0.015754 0.00620143 0)
(0.0168643 0.00384945 0)
(0.0170986 0.00173054 0)
(0.0163914 -5.94662e-05 0)
(0.0150281 -0.00175756 0)
(0.0132795 -0.00356319 0)
(0.0112778 -0.00572977 0)
(0.00914298 -0.00856145 0)
(0.00692146 -0.0124361 0)
(0.00458755 -0.0176851 0)
(0.00204623 -0.0247079 0)
(-0.000836168 -0.0341027 0)
(-0.00339515 -0.0442891 0)
(-0.00500265 -0.0532416 0)
(-0.00519246 -0.0577786 0)
(-0.00393671 -0.0540056 0)
(-0.00187831 -0.0389718 0)
(-0.000210836 -0.0144619 0)
(1.07021e-05 0.00226645 0)
(0.000157078 0.00706143 0)
(0.000510034 0.0122073 0)
(0.00113368 0.0171934 0)
(0.00203754 0.0212765 0)
(0.00318929 0.0237511 0)
(0.00454606 0.0242797 0)
(0.00607552 0.0230436 0)
(0.00775746 0.0206137 0)
(0.0095797 0.0176591 0)
(0.0115318 0.0147002 0)
(0.013591 0.01201 0)
(0.0157 0.00964262 0)
(0.0177449 0.00751969 0)
(0.0195343 0.00551818 0)
(0.0207849 0.00354458 0)
(0.0211055 0.00181756 0)
(0.0205754 0.000408042 0)
(0.0193042 -0.000933813 0)
(0.0176344 -0.00240326 0)
(0.0156657 -0.00423964 0)
(0.0134864 -0.00673611 0)
(0.0111466 -0.0102285 0)
(0.0086533 -0.0150366 0)
(0.00597822 -0.0214386 0)
(0.00302386 -0.0296547 0)
(-0.000233985 -0.0399667 0)
(-0.00304356 -0.0506277 0)
(-0.00449573 -0.0581775 0)
(-0.00412571 -0.057874 0)
(-0.00232466 -0.0446702 0)
(-0.000307957 -0.0176745 0)
(-9.48277e-06 0.00213914 0)
(-2.78487e-05 0.00661558 0)
(7.80165e-05 0.0113583 0)
(0.000486658 0.0159012 0)
(0.00132076 0.0196022 0)
(0.0026008 0.0218256 0)
(0.00429946 0.0222358 0)
(0.00636555 0.0210024 0)
(0.00870672 0.0186746 0)
(0.01121 0.0158784 0)
(0.013779 0.0130984 0)
(0.0163436 0.0105971 0)
(0.0188389 0.00843834 0)
(0.0211706 0.00655983 0)
(0.0231789 0.00485316 0)
(0.0246232 0.00322572 0)
(0.0251477 0.00183167 0)
(0.0248527 0.000734108 0)
(0.0238627 -0.000300072 0)
(0.0224566 -0.0014738 0)
(0.0207057 -0.00299463 0)
(0.0186531 -0.00513266 0)
(0.0163108 -0.00819239 0)
(0.0136647 -0.0124722 0)
(0.0106948 -0.0182316 0)
(0.00738689 -0.0256744 0)
(0.00374504 -0.0349411 0)
(-8.99281e-05 -0.0460547 0)
(-0.00306625 -0.0562385 0)
(-0.00400438 -0.0597885 0)
(-0.00283799 -0.0496553 0)
(-0.000471211 -0.0212827 0)
(-5.67296e-05 0.00233037 0)
(-0.000401537 0.00686574 0)
(-0.000717733 0.011231 0)
(-0.000654121 0.015089 0)
(8.02126e-05 0.0181315 0)
(0.00155951 0.0198572 0)
(0.00369741 0.0199524 0)
(0.00639352 0.0186262 0)
(0.00946648 0.0164118 0)
(0.0126952 0.0138503 0)
(0.0159096 0.0113464 0)
(0.0190083 0.00911966 0)
(0.021931 0.00722542 0)
(0.0246133 0.00561214 0)
(0.0269392 0.00418746 0)
(0.0287253 0.00286381 0)
(0.0296374 0.00174802 0)
(0.0297415 0.00089567 0)
(0.0292392 0.000110372 0)
(0.0282162 -0.00080973 0)
(0.0268111 -0.00204012 0)
(0.0250069 -0.00381098 0)
(0.0227602 -0.00638785 0)
(0.0200125 -0.0100421 0)
(0.0167215 -0.0150278 0)
(0.0128914 -0.0215771 0)
(0.00859151 -0.0299155 0)
(0.00397185 -0.0401971 0)
(-0.000552633 -0.0518339 0)
(-0.00329684 -0.0593561 0)
(-0.00331541 -0.0534674 0)
(-0.000730204 -0.0253122 0)
(-0.000171545 0.0030411 0)
(-0.00112246 0.00803309 0)
(-0.00202546 0.011935 0)
(-0.00232321 0.0147867 0)
(-0.0016284 0.0167573 0)
(0.000167954 0.0177428 0)
(0.00294663 0.0174057 0)
(0.00639361 0.0159595 0)
(0.0102721 0.0139037 0)
(0.01427 0.0116486 0)
(0.0181778 0.00949092 0)
(0.0218874 0.00759207 0)
(0.0253538 0.00599083 0)
(0.0285433 0.0046449 0)
(0.0313788 0.00347989 0)
(0.0337244 0.00241971 0)
(0.0352225 0.00153893 0)
(0.0358737 0.000881125 0)
(0.0359071 0.000290911 0)
(0.0353739 -0.00040803 0)
(0.0343777 -0.00136955 0)
(0.0328682 -0.00277191 0)
(0.0307586 -0.0048317 0)
(0.0279467 -0.00778313 0)
(0.0243527 -0.0118693 0)
(0.0199612 -0.0173532 0)
(0.0148493 -0.0245509 0)
(0.00920121 -0.03384 0)
(0.00337631 -0.0452511 0)
(-0.0015444 -0.0561556 0)
(-0.0035019 -0.0555349 0)
(-0.00108225 -0.0296609 0)
(-0.000429369 0.00464158 0)
(-0.00237992 0.0103076 0)
(-0.00388519 0.0132938 0)
(-0.00433658 0.0146974 0)
(-0.00339644 0.0153274 0)
(-0.00107288 0.0153691 0)
(0.0026377 0.0145379 0)
(0.00698381 0.013034 0)
(0.0117681 0.0112089 0)
(0.0166289 0.00931633 0)
(0.0213519 0.00754378 0)
(0.0258342 0.00599571 0)
(0.0300385 0.00469609 0)
(0.0339416 0.00361306 0)
(0.0374807 0.00269128 0)
(0.040539 0.0018714 0)
(0.0427002 0.00120407 0)
(0.0439105 0.000716547 0)
(0.0444242 0.000289686 0)
(0.0443404 -0.000217829 0)
(0.0436924 -0.000926969 0)
(0.0424246 -0.00196733 0)
(0.0404276 -0.0035025 0)
(0.0375683 -0.00571847 0)
(0.0337259 -0.00882905 0)
(0.0288349 -0.0131051 0)
(0.0229228 -0.0189297 0)
(0.0161442 -0.026861 0)
(0.00886215 -0.0374785 0)
(0.00192039 -0.0498396 0)
(-0.00290542 -0.0551955 0)
(-0.00143225 -0.0341066 0)
(-0.00089902 0.00766257 0)
(-0.00415083 0.0135656 0)
(-0.00580744 0.0147299 0)
(-0.00574015 0.0142686 0)
(-0.00393163 0.0134787 0)
(-0.000528482 0.0125478 0)
(0.00435509 0.011291 0)
(0.00978426 0.00986248 0)
(0.0156107 0.00834375 0)
(0.0214751 0.00685107 0)
(0.0271636 0.00548306 0)
(0.0325602 0.00429908 0)
(0.0376078 0.00331262 0)
(0.0422655 0.0025017 0)
(0.0464633 0.00182747 0)
(0.05009 0.00124759 0)
(0.0527011 0.000790705 0)
(0.054251 0.000464924 0)
(0.0550371 0.000182857 0)
(0.0552028 -0.000153491 0)
(0.054739 -0.000626639 0)
(0.0535979 -0.00132529 0)
(0.0516642 -0.002361 0)
(0.0487891 -0.00386482 0)
(0.0448195 -0.00600121 0)
(0.0396264 -0.00901005 0)
(0.0331366 -0.0132852 0)
(0.025382 -0.01949 0)
(0.0166186 -0.0285912 0)
(0.00756874 -0.0409947 0)
(-0.000681343 -0.0515488 0)
(-0.00148737 -0.0381054 0)
(-0.00165396 0.0128786 0)
(-0.00567703 0.01692 0)
(-0.00577444 0.0150691 0)
(-0.0035701 0.0126787 0)
(0.000385032 0.010678 0)
(0.00562036 0.00907301 0)
(0.0117419 0.00770119 0)
(0.018342 0.00648314 0)
(0.0251867 0.00533633 0)
(0.0319574 0.0042773 0)
(0.038428 0.0033396 0)
(0.044454 0.00254738 0)
(0.0499515 0.00190352 0)
(0.0548697 0.00139066 0)
(0.0591533 0.000980712 0)
(0.0627273 0.000644848 0)
(0.065227 0.000391816 0)
(0.0666835 0.000215476 0)
(0.0674146 6.09233e-05 0)
(0.0675584 -0.000125522 0)
(0.0671048 -0.000391329 0)
(0.0660057 -0.000790024 0)
(0.0641445 -0.00138627 0)
(0.0613706 -0.00225738 0)
(0.0575175 -0.00350798 0)
(0.0524085 -0.00531156 0)
(0.0458545 -0.00799727 0)
(0.0376699 -0.0122061 0)
(0.0277879 -0.0190861 0)
(0.0165024 -0.0300518 0)
(0.00439437 -0.0434519 0)
(-0.000171197 -0.0395937 0)
(-0.00124884 0.0182446 0)
(-0.00312488 0.0180362 0)
(0.00307589 0.0124634 0)
(0.0100754 0.0091692 0)
(0.0170818 0.00691747 0)
(0.0241292 0.00527753 0)
(0.0312689 0.00408524 0)
(0.0383839 0.00319496 0)
(0.0453311 0.00247565 0)
(0.0518992 0.00187939 0)
(0.0579122 0.0013915 0)
(0.0632603 0.00100572 0)
(0.0679006 0.00071178 0)
(0.0718372 0.000492667 0)
(0.0750843 0.000328456 0)
(0.0776445 0.000202218 0)
(0.0793331 0.000111966 0)
(0.0802499 4.93587e-05 0)
(0.080647 -8.51888e-06 0)
(0.0805988 -8.19503e-05 0)
(0.0801072 -0.000191112 0)
(0.0791102 -0.000360119 0)
(0.0774962 -0.000616597 0)
(0.0751302 -0.000993941 0)
(0.0718606 -0.00154084 0)
(0.0675046 -0.00234959 0)
(0.0618034 -0.00362386 0)
(0.0543517 -0.00582372 0)
(0.0445352 -0.00992271 0)
(0.0315863 -0.017618 0)
(0.0154872 -0.0297709 0)
(0.00631224 -0.0334491 0)
(0.0207951 0.0113562 0)
(0.0271438 0.0092582 0)
(0.0401211 0.00538547 0)
(0.050646 0.00325746 0)
(0.0585627 0.00203274 0)
(0.0649181 0.00126433 0)
(0.0702688 0.000789864 0)
(0.0748736 0.000502653 0)
(0.078868 0.000321908 0)
(0.0822924 0.000204365 0)
(0.0851632 0.000127172 0)
(0.0875135 7.7364e-05 0)
(0.0893993 4.62351e-05 0)
(0.0908869 2.70116e-05 0)
(0.092031 1.45402e-05 0)
(0.0928656 5.88052e-06 0)
(0.0933608 2.47011e-07 0)
(0.0935805 -4.16514e-06 0)
(0.0936095 -9.51029e-06 0)
(0.0934634 -1.79928e-05 0)
(0.0931256 -3.24187e-05 0)
(0.092544 -5.64434e-05 0)
(0.0916471 -9.3997e-05 0)
(0.0903544 -0.000149875 0)
(0.0885766 -0.000231692 0)
(0.0861936 -0.000356388 0)
(0.0829912 -0.000567695 0)
(0.0785236 -0.000978476 0)
(0.0718246 -0.00186896 0)
(0.060877 -0.00398521 0)
(0.0432866 -0.00919426 0)
(0.0285959 -0.0145323 0)
)
;

boundaryField
{
    movingWall
    {
        type            fixedValue;
        value           uniform (0.1 0 0);
    }
    fixedWalls
    {
        type            noSlip;
    }
    floor
    {
        type            noSlip;
    }
    frontAndBack
    {
        type            empty;
    }
}


// ************************************************************************* //
