/*--------------------------------*- C++ -*----------------------------------*\
| =========                 |                                                 |
| \\      /  F ield         | OpenFOAM: The Open Source CFD Toolbox           |
|  \\    /   O peration     | Version:  2212                                  |
|   \\  /    A nd           | Website:  www.openfoam.com                      |
|    \\/     M anipulation  |                                                 |
\*---------------------------------------------------------------------------*/
FoamFile
{
    version     2.0;
    format      ascii;
    arch        "LSB;label=64;scalar=64";
    class       volScalarField;
    location    "1370";
    object      Xch;
}
// * * * * * * * * * * * * * * * * * * * * * * * * * * * * * * * * * * * * * //

dimensions      [1 -3 0 0 0 0 0];

internalField   nonuniform List<scalar> 
1024
(
0.0198935
0.0198938
0.0198947
0.0198963
0.0198987
0.0199023
0.019907
0.0199128
0.0199195
0.0199266
0.0199335
0.0199397
0.0199447
0.019948
0.0199496
0.0199493
0.0199464
0.0199407
0.0199329
0.0199232
0.0199123
0.0199007
0.0198891
0.0198784
0.0198691
0.0198616
0.0198559
0.0198517
0.0198489
0.0198472
0.0198462
0.0198459
0.0198936
0.019894
0.0198948
0.0198964
0.0198989
0.0199025
0.0199073
0.0199132
0.01992
0.0199271
0.0199341
0.0199403
0.0199452
0.0199485
0.0199501
0.0199498
0.0199469
0.0199412
0.0199334
0.0199238
0.0199129
0.0199012
0.0198896
0.0198788
0.0198695
0.0198619
0.019856
0.0198519
0.019849
0.0198473
0.0198463
0.0198459
0.0198939
0.0198942
0.0198951
0.0198968
0.0198994
0.0199031
0.019908
0.0199141
0.019921
0.0199284
0.0199354
0.0199417
0.0199466
0.0199498
0.0199514
0.019951
0.0199481
0.0199424
0.0199346
0.0199249
0.019914
0.0199023
0.0198907
0.0198798
0.0198702
0.0198625
0.0198565
0.0198522
0.0198493
0.0198475
0.0198465
0.0198461
0.0198944
0.0198948
0.0198957
0.0198974
0.0199001
0.019904
0.0199092
0.0199156
0.0199228
0.0199305
0.0199379
0.0199443
0.0199491
0.0199523
0.0199537
0.0199533
0.0199503
0.0199445
0.0199365
0.0199268
0.0199158
0.019904
0.0198922
0.0198811
0.0198714
0.0198634
0.0198572
0.0198527
0.0198497
0.0198478
0.0198468
0.0198464
0.0198951
0.0198955
0.0198965
0.0198983
0.0199012
0.0199053
0.0199109
0.0199177
0.0199256
0.0199339
0.0199418
0.0199485
0.0199533
0.0199563
0.0199576
0.0199569
0.0199537
0.0199475
0.0199392
0.0199292
0.019918
0.0199062
0.0198942
0.0198829
0.0198729
0.0198645
0.0198581
0.0198534
0.0198502
0.0198483
0.0198472
0.0198468
0.0198963
0.0198967
0.0198977
0.0198996
0.0199027
0.0199072
0.0199132
0.0199208
0.0199295
0.0199388
0.0199476
0.0199547
0.0199597
0.0199624
0.0199633
0.0199623
0.0199587
0.0199519
0.0199428
0.0199323
0.0199207
0.0199086
0.0198964
0.0198848
0.0198745
0.0198659
0.0198592
0.0198543
0.019851
0.0198489
0.0198478
0.0198473
0.0198979
0.0198983
0.0198994
0.0199014
0.0199047
0.0199096
0.0199163
0.0199249
0.0199349
0.0199455
0.0199555
0.0199635
0.0199686
0.0199711
0.0199716
0.01997
0.0199656
0.0199577
0.0199474
0.0199358
0.0199236
0.019911
0.0198985
0.0198867
0.0198761
0.0198672
0.0198602
0.0198552
0.0198517
0.0198496
0.0198484
0.019848
0.0199002
0.0199006
0.0199017
0.0199038
0.0199074
0.0199129
0.0199205
0.0199303
0.0199419
0.0199543
0.0199659
0.0199749
0.0199804
0.0199827
0.0199827
0.0199805
0.0199749
0.0199652
0.019953
0.0199398
0.0199263
0.019913
0.0199
0.0198879
0.0198771
0.0198681
0.0198611
0.0198559
0.0198525
0.0198503
0.0198492
0.0198487
0.0199034
0.0199038
0.019905
0.0199073
0.0199112
0.0199173
0.019926
0.0199374
0.019951
0.0199656
0.019979
0.0199893
0.0199953
0.0199976
0.0199972
0.0199942
0.019987
0.0199749
0.0199599
0.0199441
0.0199288
0.0199143
0.0199007
0.0198883
0.0198774
0.0198685
0.0198615
0.0198565
0.0198531
0.0198511
0.01985
0.0198496
0.0199079
0.0199084
0.0199096
0.0199121
0.0199165
0.0199234
0.0199334
0.0199466
0.0199625
0.0199795
0.019995
0.0200067
0.0200134
0.0200159
0.0200154
0.0200117
0.0200027
0.0199874
0.0199687
0.0199495
0.0199314
0.0199151
0.0199005
0.0198877
0.0198769
0.0198682
0.0198616
0.019857
0.0198539
0.0198521
0.0198512
0.0198508
0.0199144
0.0199148
0.0199162
0.019919
0.019924
0.0199318
0.0199433
0.0199587
0.0199771
0.0199966
0.0200142
0.0200273
0.020035
0.0200382
0.0200382
0.0200343
0.0200237
0.0200051
0.019982
0.0199582
0.0199362
0.0199171
0.0199009
0.0198874
0.0198766
0.0198683
0.0198623
0.0198583
0.0198559
0.0198545
0.0198539
0.0198537
0.0199234
0.0199239
0.0199255
0.0199287
0.0199343
0.0199434
0.0199567
0.0199744
0.0199955
0.0200175
0.0200371
0.0200517
0.0200607
0.0200655
0.020067
0.0200642
0.0200535
0.0200331
0.0200063
0.0199775
0.0199502
0.0199267
0.0199073
0.0198921
0.0198806
0.0198725
0.0198671
0.019864
0.0198624
0.0198618
0.0198618
0.0198619
0.0199357
0.0199363
0.0199381
0.0199418
0.0199484
0.0199591
0.0199745
0.0199948
0.0200185
0.0200428
0.0200642
0.0200804
0.0200916
0.0200991
0.0201041
0.0201049
0.0200977
0.0200797
0.0200532
0.020022
0.0199902
0.0199609
0.0199361
0.0199164
0.0199019
0.0198924
0.0198868
0.0198842
0.0198836
0.019884
0.0198847
0.0198852
0.0199514
0.0199522
0.0199544
0.0199589
0.0199668
0.0199794
0.0199973
0.0200203
0.0200466
0.0200728
0.0200957
0.020114
0.0201282
0.0201402
0.0201507
0.0201585
0.02016
0.0201518
0.0201339
0.0201088
0.0200792
0.0200485
0.0200192
0.0199934
0.0199727
0.0199577
0.0199482
0.0199433
0.0199417
0.019942
0.0199428
0.0199435
0.0199696
0.0199705
0.019973
0.0199781
0.0199872
0.0200012
0.020021
0.0200458
0.0200737
0.0201017
0.0201269
0.0201483
0.0201667
0.0201839
0.0202006
0.0202167
0.0202299
0.020237
0.0202366
0.0202288
0.0202144
0.0201947
0.0201715
0.0201468
0.0201229
0.0201018
0.0200849
0.020073
0.0200659
0.0200624
0.0200611
0.020061
0.0199877
0.0199886
0.0199912
0.0199966
0.0200059
0.0200204
0.0200405
0.0200659
0.0200946
0.020124
0.0201513
0.0201753
0.0201965
0.0202161
0.020235
0.0202539
0.0202726
0.0202904
0.0203058
0.0203177
0.0203248
0.0203264
0.0203223
0.0203129
0.0202993
0.0202832
0.0202668
0.0202522
0.0202407
0.0202331
0.020229
0.0202275
0.0200022
0.020003
0.0200055
0.0200105
0.0200192
0.0200328
0.0200517
0.0200759
0.0201037
0.0201328
0.0201604
0.0201847
0.0202052
0.0202223
0.0202364
0.0202487
0.020261
0.0202764
0.0202951
0.0203155
0.0203355
0.0203532
0.020367
0.0203763
0.0203805
0.0203801
0.020376
0.0203698
0.0203631
0.0203575
0.0203538
0.0203521
0.020011
0.0200118
0.0200141
0.0200186
0.0200263
0.0200382
0.0200551
0.0200769
0.0201025
0.0201298
0.0201562
0.0201794
0.020198
0.0202115
0.02022
0.0202246
0.0202283
0.0202369
0.0202527
0.0202743
0.0202991
0.0203243
0.0203476
0.0203671
0.0203821
0.0203922
0.020398
0.0204002
0.0204
0.0203988
0.0203974
0.0203967
0.0200153
0.0200161
0.0200182
0.0200221
0.0200288
0.0200391
0.0200537
0.0200727
0.0200955
0.0201203
0.0201448
0.0201665
0.0201835
0.020195
0.0202006
0.0202013
0.0202007
0.0202052
0.020218
0.0202389
0.0202659
0.0202961
0.0203263
0.0203534
0.0203757
0.0203922
0.0204032
0.0204095
0.0204124
0.0204132
0.0204131
0.0204128
0.0200166
0.0200174
0.0200192
0.0200227
0.0200285
0.0200373
0.0200497
0.020066
0.0200858
0.0201076
0.0201296
0.0201495
0.0201654
0.0201761
0.0201811
0.0201814
0.0201805
0.0201844
0.0201959
0.0202154
0.020242
0.0202738
0.0203075
0.02034
0.0203683
0.0203907
0.0204065
0.0204164
0.0204216
0.0204237
0.0204241
0.020424
0.0200161
0.0200168
0.0200184
0.0200215
0.0200265
0.0200339
0.0200444
0.0200582
0.0200749
0.0200937
0.020113
0.0201308
0.0201456
0.0201562
0.0201623
0.0201647
0.0201668
0.0201729
0.0201851
0.020204
0.0202296
0.0202606
0.020295
0.0203298
0.0203619
0.0203886
0.0204087
0.020422
0.0204295
0.020433
0.0204339
0.020434
0.0200152
0.0200158
0.0200171
0.0200196
0.0200238
0.02003
0.0200387
0.0200502
0.0200642
0.02008
0.0200965
0.0201124
0.0201264
0.0201377
0.0201462
0.0201528
0.0201598
0.0201698
0.0201839
0.0202031
0.0202275
0.0202569
0.02029
0.0203246
0.020358
0.0203873
0.0204105
0.0204268
0.0204366
0.0204414
0.020443
0.0204431
0.0200161
0.0200164
0.0200172
0.0200188
0.0200219
0.0200267
0.0200337
0.0200431
0.0200547
0.0200681
0.0200825
0.0200972
0.0201113
0.0201244
0.0201364
0.0201483
0.020161
0.0201753
0.0201917
0.0202111
0.0202343
0.0202615
0.0202922
0.0203248
0.0203574
0.0203874
0.0204124
0.020431
0.0204428
0.020449
0.0204512
0.0204516
0.0200216
0.0200213
0.0200211
0.0200214
0.0200229
0.020026
0.0200313
0.0200389
0.0200487
0.0200607
0.0200743
0.0200891
0.0201047
0.0201207
0.020137
0.0201542
0.0201722
0.02019
0.0202079
0.0202271
0.0202486
0.0202731
0.0203005
0.0203302
0.0203605
0.0203895
0.020415
0.0204349
0.0204484
0.0204559
0.0204588
0.0204593
0.0200344
0.0200334
0.0200318
0.0200304
0.0200298
0.020031
0.0200347
0.0200411
0.0200503
0.0200623
0.0200766
0.0200931
0.0201112
0.0201306
0.0201508
0.0201723
0.0201939
0.0202137
0.0202321
0.0202503
0.0202695
0.0202908
0.0203145
0.0203403
0.0203673
0.0203941
0.0204186
0.0204389
0.0204535
0.020462
0.0204657
0.0204664
0.0200566
0.0200548
0.0200518
0.0200486
0.0200464
0.0200462
0.0200489
0.0200552
0.0200651
0.0200784
0.0200946
0.0201134
0.020134
0.0201558
0.0201786
0.0202022
0.0202252
0.0202453
0.0202628
0.0202793
0.0202959
0.0203137
0.0203333
0.0203548
0.0203778
0.0204013
0.0204238
0.0204434
0.0204582
0.0204676
0.0204719
0.0204729
0.0200897
0.0200871
0.0200831
0.0200791
0.0200765
0.0200763
0.0200796
0.020087
0.0200982
0.0201131
0.020131
0.0201512
0.020173
0.0201956
0.0202186
0.020242
0.0202641
0.0202828
0.0202984
0.0203125
0.0203263
0.0203406
0.0203561
0.0203732
0.0203918
0.0204113
0.0204308
0.0204486
0.020463
0.0204726
0.0204774
0.0204787
0.020134
0.0201309
0.0201271
0.0201244
0.0201235
0.0201253
0.0201303
0.0201391
0.0201514
0.0201669
0.0201849
0.0202047
0.0202254
0.0202465
0.0202676
0.0202885
0.0203079
0.0203239
0.0203369
0.0203483
0.0203592
0.0203701
0.0203819
0.0203948
0.0204089
0.0204241
0.0204399
0.0204551
0.020468
0.0204773
0.0204823
0.0204838
0.0201899
0.020187
0.0201854
0.0201861
0.0201887
0.0201933
0.0202001
0.0202095
0.0202215
0.0202357
0.0202517
0.0202688
0.0202863
0.020304
0.0203213
0.0203382
0.0203537
0.0203662
0.0203763
0.0203849
0.0203929
0.0204008
0.0204092
0.0204183
0.0204283
0.0204393
0.020451
0.0204629
0.0204736
0.0204819
0.0204867
0.0204883
0.0202584
0.0202572
0.0202596
0.0202643
0.02027
0.0202763
0.0202835
0.0202918
0.0203016
0.0203127
0.0203248
0.0203376
0.0203506
0.0203634
0.020376
0.0203881
0.020399
0.0204078
0.0204148
0.0204207
0.0204261
0.0204313
0.0204367
0.0204426
0.0204491
0.0204562
0.020464
0.0204722
0.02048
0.0204865
0.0204907
0.0204923
0.0203422
0.0203441
0.0203497
0.0203557
0.0203614
0.0203668
0.0203722
0.0203779
0.0203841
0.0203909
0.0203982
0.0204059
0.0204136
0.0204212
0.0204286
0.0204356
0.020442
0.0204471
0.0204511
0.0204544
0.0204575
0.0204604
0.0204633
0.0204665
0.02047
0.0204739
0.0204782
0.0204828
0.0204874
0.0204915
0.0204944
0.0204956
0.0204446
0.0204462
0.0204491
0.0204518
0.0204542
0.0204564
0.0204584
0.0204603
0.0204624
0.0204647
0.0204671
0.0204696
0.0204721
0.0204746
0.020477
0.0204793
0.0204813
0.0204829
0.0204842
0.0204853
0.0204863
0.0204872
0.0204881
0.0204891
0.0204902
0.0204914
0.0204927
0.0204941
0.0204956
0.020497
0.020498
0.0204985
)
;

boundaryField
{
    movingWall
    {
        type            fixedValue;
        value           uniform 0.0205;
    }
    fixedWalls
    {
        type            zeroGradient;
    }
    floor
    {
        type            zeroGradient;
    }
    frontAndBack
    {
        type            empty;
    }
}


// ************************************************************************* //
