/*--------------------------------*- C++ -*----------------------------------*\
| =========                 |                                                 |
| \\      /  F ield         | OpenFOAM: The Open Source CFD Toolbox           |
|  \\    /   O peration     | Version:  2212                                  |
|   \\  /    A nd           | Website:  www.openfoam.com                      |
|    \\/     M anipulation  |                                                 |
\*---------------------------------------------------------------------------*/
FoamFile
{
    version     2.0;
    format      ascii;
    arch        "LSB;label=64;scalar=64";
    class       volScalarField::Internal;
    location    "1490";
    object      dGco2;
}
// * * * * * * * * * * * * * * * * * * * * * * * * * * * * * * * * * * * * * //

dimensions      [1 -3 -1 0 0 0 0];

value           nonuniform List<scalar> 
1024
(
0.000145371
0.000145407
0.000145496
0.000145659
0.000145918
0.000146296
0.000146809
0.000147455
0.000148213
0.000149035
0.000149856
0.000150597
0.000151195
0.000151608
0.00015181
0.000151778
0.000151456
0.000150813
0.000149894
0.000148749
0.000147451
0.000146094
0.000144778
0.000143589
0.000142582
0.000141779
0.000141175
0.000140745
0.000140457
0.00014028
0.000140183
0.000140143
0.000145383
0.00014542
0.00014551
0.000145675
0.000145938
0.000146322
0.000146842
0.000147497
0.000148262
0.000149091
0.000149917
0.000150661
0.000151258
0.000151668
0.000151868
0.000151835
0.000151515
0.000150873
0.000149956
0.00014881
0.000147511
0.000146151
0.000144829
0.000143632
0.000142617
0.000141806
0.000141195
0.000140761
0.00014047
0.000140291
0.000140193
0.000140153
0.000145412
0.00014545
0.000145542
0.000145712
0.000145983
0.000146379
0.000146914
0.000147586
0.000148371
0.000149221
0.000150065
0.000150819
0.000151416
0.00015182
0.000152013
0.000151975
0.000151655
0.000151014
0.000150095
0.000148947
0.000147642
0.000146274
0.00014494
0.000143726
0.000142693
0.000141866
0.000141242
0.000140797
0.0001405
0.000140316
0.000140217
0.000140176
0.000145465
0.000145504
0.000145599
0.000145775
0.000146057
0.00014647
0.000147028
0.000147731
0.000148554
0.000149446
0.000150332
0.000151113
0.000151713
0.000152105
0.000152281
0.000152232
0.000151906
0.000151258
0.000150329
0.000149171
0.000147854
0.00014647
0.000145115
0.000143876
0.000142816
0.000141964
0.000141319
0.000140859
0.000140552
0.000140362
0.000140259
0.000140217
0.00014555
0.000145589
0.000145688
0.000145871
0.000146166
0.000146601
0.000147193
0.000147942
0.000148826
0.000149794
0.000150756
0.000151588
0.000152201
0.000152575
0.000152723
0.00015265
0.000152307
0.000151638
0.000150681
0.000149495
0.000148152
0.000146741
0.000145355
0.000144082
0.000142986
0.000142101
0.000141429
0.000140949
0.000140629
0.000140432
0.000140325
0.000140282
0.000145678
0.000145718
0.000145819
0.000146009
0.000146319
0.000146781
0.000147417
0.000148233
0.000149212
0.000150296
0.000151379
0.000152297
0.000152937
0.000153292
0.000153398
0.000153287
0.000152909
0.000152193
0.000151177
0.000149932
0.000148539
0.000147082
0.000145652
0.000144335
0.000143196
0.000142274
0.000141572
0.00014107
0.000140736
0.000140531
0.000140421
0.000140377
0.000145869
0.000145908
0.00014601
0.000146206
0.000146532
0.000147026
0.000147719
0.000148627
0.000149737
0.000150989
0.000152242
0.000153288
0.000153981
0.000154318
0.000154375
0.000154212
0.000153779
0.000152978
0.000151855
0.000150502
0.000149017
0.000147486
0.000145993
0.000144621
0.000143435
0.000142474
0.000141743
0.000141222
0.000140876
0.000140666
0.000140553
0.000140509
0.000146153
0.000146191
0.000146294
0.000146495
0.000146837
0.000147367
0.000148131
0.000149157
0.000150441
0.000151911
0.000153388
0.000154604
0.00015538
0.000155716
0.000155729
0.000155512
0.000155005
0.000154072
0.00015277
0.000151237
0.000149598
0.000147948
0.000146365
0.000144925
0.00014369
0.000142694
0.000141941
0.000141408
0.000141058
0.000140848
0.000140737
0.000140694
0.000146585
0.000146622
0.000146723
0.000146929
0.000147289
0.000147863
0.000148712
0.000149884
0.000151382
0.000153117
0.000154859
0.000156285
0.000157177
0.000157544
0.000157543
0.000157294
0.000156706
0.00015559
0.000154023
0.000152209
0.000150328
0.000148492
0.000146778
0.000145252
0.000143965
0.000142943
0.000142181
0.000141651
0.00014131
0.00014111
0.000141008
0.00014097
0.000147251
0.000147286
0.000147388
0.0001476
0.000147984
0.000148612
0.000149565
0.000150908
0.000152653
0.000154685
0.000156718
0.000158378
0.000159422
0.000159873
0.000159925
0.000159708
0.000159064
0.00015773
0.000155812
0.000153597
0.000151354
0.000149236
0.000147324
0.000145676
0.000144327
0.000143286
0.000142534
0.000142029
0.000141718
0.000141546
0.000141466
0.000141439
0.000148277
0.000148313
0.000148419
0.000148647
0.000149067
0.000149767
0.000150846
0.000152387
0.0001544
0.000156738
0.000159062
0.000160964
0.0001622
0.00016282
0.00016305
0.000162995
0.000162392
0.000160873
0.000158569
0.000155853
0.000153103
0.000150561
0.000148335
0.000146486
0.000145034
0.000143965
0.000143235
0.00014278
0.000142528
0.000142411
0.000142372
0.000142366
0.000149816
0.000149856
0.000149976
0.000150234
0.000150713
0.000151515
0.000152755
0.00015452
0.000156808
0.000159438
0.000162032
0.000164177
0.000165667
0.000166601
0.000167214
0.000167559
0.000167237
0.000165752
0.000163212
0.000160032
0.000156683
0.000153536
0.000150788
0.000148561
0.000146874
0.0001457
0.000144964
0.000144565
0.000144397
0.000144365
0.000144391
0.00014442
0.00015199
0.00015204
0.000152187
0.0001525
0.000153073
0.000154022
0.000155468
0.000157494
0.000160068
0.000162968
0.000165808
0.000168218
0.000170078
0.00017155
0.000172853
0.000173969
0.000174396
0.000173504
0.000171288
0.000168104
0.00016441
0.000160648
0.000157161
0.000154238
0.000151981
0.000150429
0.000149502
0.00014905
0.000148915
0.00014895
0.000149039
0.000149105
0.000154772
0.000154839
0.00015503
0.00015543
0.00015615
0.000157319
0.000159056
0.000161416
0.00016431
0.000167475
0.000170549
0.000173282
0.00017568
0.000177946
0.000180257
0.000182568
0.000184366
0.000184933
0.000184086
0.000182004
0.00017897
0.000175342
0.000171513
0.000167875
0.000164712
0.00016226
0.000160582
0.0001596
0.000159149
0.00015903
0.000159063
0.000159118
0.000157838
0.000157917
0.000158146
0.000158622
0.00015947
0.000160825
0.000162793
0.000165403
0.000168548
0.000171985
0.00017543
0.000178716
0.000181883
0.000185105
0.000188519
0.00019212
0.0001955
0.000198012
0.0001994
0.000199656
0.000198804
0.000196943
0.000194267
0.000191059
0.000187682
0.000184495
0.000181797
0.000179772
0.000178453
0.000177729
0.000177417
0.000177333
0.00016074
0.000160824
0.000161064
0.000161565
0.000162457
0.000163877
0.000165935
0.000168666
0.000171984
0.000175685
0.000179522
0.000183325
0.000187077
0.000190861
0.00019474
0.000198731
0.00020262
0.000206135
0.000209217
0.000211791
0.000213677
0.00021471
0.000214798
0.000213957
0.000212323
0.00021015
0.000207782
0.000205573
0.000203793
0.000202569
0.000201882
0.000201613
0.000162972
0.000163052
0.00016328
0.000163751
0.000164589
0.000165928
0.000167885
0.000170516
0.000173771
0.000177481
0.000181403
0.000185304
0.000189044
0.000192554
0.000195782
0.000198705
0.00020134
0.000204055
0.000207196
0.00021071
0.000214289
0.000217579
0.000220281
0.0002222
0.000223255
0.000223489
0.000223057
0.000222208
0.000221232
0.000220382
0.000219811
0.000219548
0.000164358
0.000164433
0.000164639
0.000165058
0.000165797
0.000166978
0.000168719
0.00017109
0.000174073
0.000177536
0.000181243
0.000184916
0.000188309
0.000191228
0.00019352
0.000195116
0.000196198
0.000197622
0.000200111
0.000203718
0.000208087
0.000212705
0.000217061
0.000220774
0.000223632
0.000225579
0.00022669
0.000227131
0.000227127
0.000226912
0.00022668
0.000226545
0.000165109
0.000165179
0.000165364
0.000165731
0.000166367
0.00016738
0.000168877
0.000170936
0.000173564
0.00017666
0.000180018
0.000183355
0.000186376
0.000188826
0.000190502
0.000191326
0.000191565
0.000192238
0.000194178
0.000197603
0.000202293
0.00020776
0.000213356
0.000218483
0.000222716
0.000225866
0.000227951
0.000229133
0.000229653
0.000229772
0.000229718
0.000229651
0.000165471
0.000165534
0.000165699
0.000166017
0.000166562
0.00016742
0.000168688
0.00017044
0.000172696
0.000175387
0.000178343
0.000181309
0.000183996
0.000186138
0.000187536
0.000188126
0.000188218
0.000188766
0.00019049
0.000193669
0.000198256
0.000203938
0.000210148
0.000216222
0.000221562
0.000225789
0.000228781
0.000230636
0.000231595
0.000231955
0.000232006
0.000231967
0.000165665
0.000165716
0.000165851
0.000166115
0.000166568
0.000167285
0.000168345
0.000169816
0.000171721
0.000174014
0.000176562
0.000179159
0.000181558
0.00018353
0.00018491
0.000185676
0.000186135
0.000187031
0.000188889
0.000191975
0.00019635
0.000201866
0.000208137
0.000214593
0.000220591
0.000225611
0.000229374
0.000231861
0.000233258
0.000233868
0.000234023
0.000234008
0.000165959
0.000165987
0.000166069
0.000166251
0.000166588
0.000167152
0.000168013
0.000169226
0.000170815
0.000172751
0.000174937
0.000177224
0.000179428
0.00018138
0.000182969
0.000184219
0.000185371
0.00018688
0.000189072
0.000192188
0.000196354
0.000201542
0.000207527
0.000213888
0.000220081
0.000225548
0.000229875
0.000232902
0.000234715
0.000235581
0.00023585
0.000235861
0.000166698
0.000166681
0.000166673
0.000166721
0.000166894
0.000167266
0.000167913
0.000168889
0.000170217
0.000171881
0.000173822
0.000175939
0.000178113
0.000180233
0.000182232
0.000184162
0.000186145
0.000188326
0.000190875
0.000194021
0.000197938
0.000202698
0.000208203
0.000214166
0.000220169
0.000225725
0.00023037
0.000233808
0.000235994
0.000237116
0.000237509
0.000237552
0.00016826
0.000168173
0.000168029
0.000167889
0.000167841
0.000167986
0.000168417
0.000169198
0.000170362
0.000171904
0.000173786
0.000175942
0.000178289
0.000180747
0.000183274
0.000185919
0.000188662
0.000191392
0.000194184
0.000197272
0.00020086
0.000205093
0.000209978
0.00021535
0.000220905
0.000226247
0.000230948
0.000234634
0.000237122
0.000238486
0.000239012
0.000239091
0.000170985
0.000170805
0.000170492
0.000170138
0.000169865
0.000169807
0.000170084
0.000170783
0.000171941
0.000173554
0.000175582
0.000177961
0.000180615
0.000183472
0.000186487
0.000189695
0.000192955
0.000195991
0.000198836
0.000201738
0.000204918
0.000208551
0.000212718
0.00021736
0.000222282
0.000227186
0.000231702
0.000235446
0.000238133
0.000239707
0.000240368
0.00024049
0.000175119
0.000174831
0.000174355
0.00017384
0.000173447
0.000173329
0.000173619
0.000174415
0.000175746
0.000177585
0.000179871
0.000182527
0.000185465
0.00018861
0.000191911
0.000195386
0.000198825
0.000201884
0.000204586
0.000207183
0.000209892
0.000212895
0.000216307
0.00022014
0.0002243
0.000228591
0.000232717
0.000236322
0.000239074
0.000240799
0.000241585
0.000241755
0.000180801
0.000180408
0.000179846
0.00017934
0.000179062
0.000179137
0.000179668
0.000180733
0.000182333
0.000184415
0.000186903
0.000189708
0.00019274
0.000195923
0.000199209
0.000202607
0.00020589
0.000208717
0.000211114
0.00021332
0.000215532
0.000217916
0.000220589
0.000223606
0.000226943
0.000230494
0.00023406
0.00023734
0.000239999
0.000241785
0.00024267
0.000242893
0.000188113
0.000187656
0.000187184
0.000186965
0.000187099
0.000187612
0.000188537
0.000189911
0.00019171
0.000193882
0.000196359
0.000199059
0.000201905
0.000204833
0.000207801
0.000210817
0.000213677
0.000216085
0.000218073
0.000219843
0.000221564
0.000223369
0.000225365
0.000227617
0.000230139
0.000232896
0.000235776
0.000238568
0.000240971
0.000242702
0.000243636
0.000243905
0.000197168
0.000196754
0.000196642
0.000196988
0.00019771
0.000198715
0.000199977
0.000201504
0.00020328
0.000205284
0.000207474
0.000209794
0.000212188
0.00021461
0.00021703
0.000219453
0.000221719
0.000223601
0.000225126
0.000226452
0.00022771
0.000229
0.000230403
0.000231979
0.000233757
0.000235737
0.000237876
0.000240054
0.000242048
0.00024359
0.000244497
0.000244796
0.000208208
0.000208046
0.000208543
0.000209489
0.000210643
0.000211887
0.000213196
0.000214583
0.000216061
0.000217641
0.00021931
0.000221041
0.000222799
0.000224558
0.000226297
0.000228021
0.000229617
0.000230931
0.000231984
0.000232886
0.000233724
0.000234567
0.000235472
0.00023648
0.000237618
0.000238899
0.000240316
0.000241819
0.000243279
0.000244496
0.000245278
0.000245572
0.000221696
0.000222017
0.000222966
0.000224037
0.000225103
0.000226124
0.000227098
0.000228049
0.000229005
0.000229989
0.000231003
0.000232041
0.000233085
0.000234123
0.000235142
0.000236146
0.00023707
0.000237827
0.00023843
0.000238941
0.00023941
0.000239874
0.000240367
0.000240911
0.000241524
0.000242216
0.000242991
0.000243836
0.000244696
0.000245466
0.00024601
0.000246242
0.000238194
0.000238447
0.000238936
0.000239405
0.000239836
0.000240229
0.000240587
0.000240923
0.00024125
0.000241579
0.000241914
0.000242253
0.000242594
0.000242931
0.000243261
0.000243585
0.000243883
0.000244126
0.000244319
0.000244482
0.00024463
0.000244776
0.00024493
0.000245098
0.000245288
0.000245501
0.00024574
0.000246003
0.000246278
0.000246535
0.000246731
0.000246827
)
;


// ************************************************************************* //
