/*--------------------------------*- C++ -*----------------------------------*\
| =========                 |                                                 |
| \\      /  F ield         | OpenFOAM: The Open Source CFD Toolbox           |
|  \\    /   O peration     | Version:  2212                                  |
|   \\  /    A nd           | Website:  www.openfoam.com                      |
|    \\/     M anipulation  |                                                 |
\*---------------------------------------------------------------------------*/
FoamFile
{
    version     2.0;
    format      ascii;
    arch        "LSB;label=64;scalar=64";
    class       volScalarField;
    location    "1490";
    object      Gh2;
}
// * * * * * * * * * * * * * * * * * * * * * * * * * * * * * * * * * * * * * //

dimensions      [1 -3 0 0 0 0 0];

internalField   nonuniform List<scalar> 
1024
(
1.28015e-05
1.28008e-05
1.2799e-05
1.27957e-05
1.27904e-05
1.27828e-05
1.27725e-05
1.27595e-05
1.27443e-05
1.27279e-05
1.27116e-05
1.2697e-05
1.26853e-05
1.26775e-05
1.26741e-05
1.26756e-05
1.26832e-05
1.26973e-05
1.27168e-05
1.27409e-05
1.27681e-05
1.27966e-05
1.28244e-05
1.28495e-05
1.28708e-05
1.28879e-05
1.29007e-05
1.29099e-05
1.2916e-05
1.29198e-05
1.29219e-05
1.29227e-05
1.28013e-05
1.28005e-05
1.27987e-05
1.27954e-05
1.279e-05
1.27823e-05
1.27718e-05
1.27587e-05
1.27433e-05
1.27268e-05
1.27104e-05
1.26957e-05
1.26841e-05
1.26763e-05
1.26729e-05
1.26745e-05
1.26821e-05
1.26961e-05
1.27156e-05
1.27397e-05
1.27669e-05
1.27955e-05
1.28233e-05
1.28486e-05
1.28701e-05
1.28873e-05
1.29003e-05
1.29096e-05
1.29158e-05
1.29196e-05
1.29217e-05
1.29225e-05
1.28007e-05
1.27999e-05
1.2798e-05
1.27946e-05
1.27891e-05
1.27812e-05
1.27704e-05
1.27569e-05
1.27412e-05
1.27243e-05
1.27075e-05
1.26926e-05
1.2681e-05
1.26734e-05
1.26702e-05
1.26718e-05
1.26794e-05
1.26934e-05
1.27129e-05
1.2737e-05
1.27643e-05
1.2793e-05
1.28211e-05
1.28467e-05
1.28686e-05
1.28861e-05
1.28994e-05
1.29088e-05
1.29152e-05
1.29191e-05
1.29212e-05
1.29221e-05
1.27996e-05
1.27988e-05
1.27969e-05
1.27933e-05
1.27876e-05
1.27793e-05
1.27681e-05
1.2754e-05
1.27376e-05
1.27198e-05
1.27023e-05
1.26869e-05
1.26753e-05
1.26679e-05
1.2665e-05
1.2667e-05
1.26747e-05
1.26888e-05
1.27085e-05
1.27327e-05
1.27602e-05
1.27891e-05
1.28176e-05
1.28437e-05
1.28661e-05
1.28841e-05
1.28978e-05
1.29076e-05
1.29141e-05
1.29182e-05
1.29204e-05
1.29213e-05
1.27979e-05
1.27971e-05
1.27951e-05
1.27914e-05
1.27855e-05
1.27767e-05
1.27648e-05
1.27498e-05
1.27322e-05
1.2713e-05
1.2694e-05
1.26777e-05
1.26658e-05
1.26589e-05
1.26566e-05
1.26591e-05
1.26671e-05
1.26817e-05
1.27018e-05
1.27265e-05
1.27544e-05
1.27838e-05
1.28129e-05
1.28396e-05
1.28627e-05
1.28814e-05
1.28956e-05
1.29058e-05
1.29126e-05
1.29168e-05
1.29191e-05
1.292e-05
1.27953e-05
1.27945e-05
1.27924e-05
1.27886e-05
1.27824e-05
1.27731e-05
1.27604e-05
1.27441e-05
1.27246e-05
1.27031e-05
1.26818e-05
1.26639e-05
1.26516e-05
1.26451e-05
1.26438e-05
1.26471e-05
1.26559e-05
1.26714e-05
1.26926e-05
1.27183e-05
1.27471e-05
1.27773e-05
1.28071e-05
1.28347e-05
1.28586e-05
1.2878e-05
1.28928e-05
1.29035e-05
1.29105e-05
1.29149e-05
1.29173e-05
1.29182e-05
1.27914e-05
1.27906e-05
1.27886e-05
1.27846e-05
1.27781e-05
1.27682e-05
1.27544e-05
1.27363e-05
1.27143e-05
1.26895e-05
1.26649e-05
1.26446e-05
1.26315e-05
1.26255e-05
1.26253e-05
1.26298e-05
1.26398e-05
1.2657e-05
1.26802e-05
1.27079e-05
1.27383e-05
1.27698e-05
1.28007e-05
1.28292e-05
1.2854e-05
1.28742e-05
1.28895e-05
1.29005e-05
1.29079e-05
1.29123e-05
1.29147e-05
1.29157e-05
1.27857e-05
1.27849e-05
1.27829e-05
1.27788e-05
1.2772e-05
1.27614e-05
1.27462e-05
1.27258e-05
1.27004e-05
1.26715e-05
1.26426e-05
1.26191e-05
1.26046e-05
1.25989e-05
1.25998e-05
1.26056e-05
1.26173e-05
1.26371e-05
1.26637e-05
1.26947e-05
1.27279e-05
1.27615e-05
1.2794e-05
1.28237e-05
1.28493e-05
1.28701e-05
1.28859e-05
1.28971e-05
1.29045e-05
1.29089e-05
1.29113e-05
1.29122e-05
1.27769e-05
1.27762e-05
1.27742e-05
1.27701e-05
1.27629e-05
1.27515e-05
1.27346e-05
1.27114e-05
1.26819e-05
1.26479e-05
1.2614e-05
1.25867e-05
1.25701e-05
1.25642e-05
1.25658e-05
1.25726e-05
1.25862e-05
1.26096e-05
1.26413e-05
1.26775e-05
1.27152e-05
1.27521e-05
1.27869e-05
1.28181e-05
1.28446e-05
1.28657e-05
1.28816e-05
1.28927e-05
1.28998e-05
1.29041e-05
1.29063e-05
1.29071e-05
1.27635e-05
1.27628e-05
1.27608e-05
1.27566e-05
1.2749e-05
1.27365e-05
1.27177e-05
1.26912e-05
1.26569e-05
1.26172e-05
1.25779e-05
1.25464e-05
1.25273e-05
1.25203e-05
1.25214e-05
1.25281e-05
1.25431e-05
1.2571e-05
1.26094e-05
1.26531e-05
1.26975e-05
1.27395e-05
1.27778e-05
1.28111e-05
1.28385e-05
1.28598e-05
1.28754e-05
1.28859e-05
1.28924e-05
1.28961e-05
1.28978e-05
1.28985e-05
1.27429e-05
1.27422e-05
1.27401e-05
1.27356e-05
1.27273e-05
1.27135e-05
1.26922e-05
1.26619e-05
1.26226e-05
1.25772e-05
1.25326e-05
1.24968e-05
1.24746e-05
1.24649e-05
1.24632e-05
1.24673e-05
1.24821e-05
1.25138e-05
1.25597e-05
1.2613e-05
1.26667e-05
1.27166e-05
1.27605e-05
1.27972e-05
1.28263e-05
1.28479e-05
1.28628e-05
1.28722e-05
1.28775e-05
1.28801e-05
1.2881e-05
1.28812e-05
1.27119e-05
1.27111e-05
1.27088e-05
1.27037e-05
1.26943e-05
1.26786e-05
1.26543e-05
1.26199e-05
1.25754e-05
1.25248e-05
1.24754e-05
1.24355e-05
1.24091e-05
1.2394e-05
1.23855e-05
1.23826e-05
1.23925e-05
1.2424e-05
1.24746e-05
1.25368e-05
1.26017e-05
1.26628e-05
1.27162e-05
1.27597e-05
1.27928e-05
1.28161e-05
1.28308e-05
1.2839e-05
1.28426e-05
1.28434e-05
1.28431e-05
1.28426e-05
1.26683e-05
1.26674e-05
1.26645e-05
1.26584e-05
1.26473e-05
1.26288e-05
1.26007e-05
1.25614e-05
1.25119e-05
1.24565e-05
1.2403e-05
1.23587e-05
1.23257e-05
1.23008e-05
1.22796e-05
1.22625e-05
1.22587e-05
1.22794e-05
1.23243e-05
1.23867e-05
1.24582e-05
1.25306e-05
1.25976e-05
1.26538e-05
1.26973e-05
1.27274e-05
1.27454e-05
1.27543e-05
1.27572e-05
1.27567e-05
1.2755e-05
1.27538e-05
1.26127e-05
1.26114e-05
1.26078e-05
1.26001e-05
1.25862e-05
1.25636e-05
1.25301e-05
1.24848e-05
1.24295e-05
1.23696e-05
1.23123e-05
1.22622e-05
1.22193e-05
1.21794e-05
1.21392e-05
1.20996e-05
1.20703e-05
1.2064e-05
1.20838e-05
1.21259e-05
1.21852e-05
1.22551e-05
1.23282e-05
1.23974e-05
1.24575e-05
1.25041e-05
1.25359e-05
1.25546e-05
1.25632e-05
1.25655e-05
1.25649e-05
1.25639e-05
1.25515e-05
1.255e-05
1.25457e-05
1.25366e-05
1.25203e-05
1.24944e-05
1.24567e-05
1.24068e-05
1.23471e-05
1.22823e-05
1.22179e-05
1.21574e-05
1.20996e-05
1.20414e-05
1.19801e-05
1.19162e-05
1.18575e-05
1.18157e-05
1.17948e-05
1.17943e-05
1.18137e-05
1.18509e-05
1.19025e-05
1.19634e-05
1.20269e-05
1.20866e-05
1.2137e-05
1.21748e-05
1.21994e-05
1.22128e-05
1.22186e-05
1.22202e-05
1.24933e-05
1.24918e-05
1.24873e-05
1.24778e-05
1.24608e-05
1.24337e-05
1.23943e-05
1.23422e-05
1.22791e-05
1.22091e-05
1.21369e-05
1.20659e-05
1.19963e-05
1.19267e-05
1.1856e-05
1.17844e-05
1.17166e-05
1.16574e-05
1.1607e-05
1.15659e-05
1.15369e-05
1.15224e-05
1.15241e-05
1.15417e-05
1.15728e-05
1.16131e-05
1.16566e-05
1.16969e-05
1.17292e-05
1.17515e-05
1.17639e-05
1.17688e-05
1.24479e-05
1.24464e-05
1.24422e-05
1.24333e-05
1.24174e-05
1.23918e-05
1.23544e-05
1.2304e-05
1.22417e-05
1.2171e-05
1.20964e-05
1.20224e-05
1.19519e-05
1.18861e-05
1.18262e-05
1.17734e-05
1.17282e-05
1.16842e-05
1.16345e-05
1.15791e-05
1.15227e-05
1.14707e-05
1.14281e-05
1.13979e-05
1.13816e-05
1.13787e-05
1.13866e-05
1.14014e-05
1.14183e-05
1.14329e-05
1.14427e-05
1.14472e-05
1.24187e-05
1.24174e-05
1.24135e-05
1.24057e-05
1.23917e-05
1.23691e-05
1.23357e-05
1.22902e-05
1.22327e-05
1.21661e-05
1.20947e-05
1.20241e-05
1.19588e-05
1.19027e-05
1.18587e-05
1.18287e-05
1.18104e-05
1.17887e-05
1.17505e-05
1.16944e-05
1.1626e-05
1.15535e-05
1.1485e-05
1.14265e-05
1.13813e-05
1.13502e-05
1.13321e-05
1.13245e-05
1.13241e-05
1.13271e-05
1.13305e-05
1.13325e-05
1.24019e-05
1.24007e-05
1.23973e-05
1.23904e-05
1.23784e-05
1.23591e-05
1.23303e-05
1.22906e-05
1.22397e-05
1.21796e-05
1.21144e-05
1.20493e-05
1.19902e-05
1.19418e-05
1.19082e-05
1.18912e-05
1.1887e-05
1.18776e-05
1.18482e-05
1.17947e-05
1.17208e-05
1.16344e-05
1.15461e-05
1.14654e-05
1.13987e-05
1.13491e-05
1.1316e-05
1.1297e-05
1.12882e-05
1.12857e-05
1.12861e-05
1.12869e-05
1.23928e-05
1.23917e-05
1.23887e-05
1.23828e-05
1.23725e-05
1.23561e-05
1.23318e-05
1.22979e-05
1.2254e-05
1.22015e-05
1.21435e-05
1.20851e-05
1.20317e-05
1.19886e-05
1.19596e-05
1.19465e-05
1.19444e-05
1.19366e-05
1.19103e-05
1.18603e-05
1.17875e-05
1.16973e-05
1.1599e-05
1.15031e-05
1.1419e-05
1.13526e-05
1.13055e-05
1.12761e-05
1.12606e-05
1.12544e-05
1.12532e-05
1.12536e-05
1.23873e-05
1.23864e-05
1.23839e-05
1.2379e-05
1.23705e-05
1.23569e-05
1.23365e-05
1.2308e-05
1.22708e-05
1.22258e-05
1.21755e-05
1.2124e-05
1.2076e-05
1.2036e-05
1.20074e-05
1.19911e-05
1.19825e-05
1.19684e-05
1.19392e-05
1.18902e-05
1.18203e-05
1.17323e-05
1.16326e-05
1.15304e-05
1.14359e-05
1.1357e-05
1.1298e-05
1.12589e-05
1.12367e-05
1.12268e-05
1.1224e-05
1.1224e-05
1.23807e-05
1.23802e-05
1.23786e-05
1.23752e-05
1.23688e-05
1.2358e-05
1.23414e-05
1.23178e-05
1.22867e-05
1.22486e-05
1.22053e-05
1.21599e-05
1.21159e-05
1.20768e-05
1.20449e-05
1.20205e-05
1.19999e-05
1.1975e-05
1.19397e-05
1.18896e-05
1.18226e-05
1.17394e-05
1.16439e-05
1.1543e-05
1.14452e-05
1.13593e-05
1.12916e-05
1.12442e-05
1.12157e-05
1.12018e-05
1.11973e-05
1.11969e-05
1.2367e-05
1.23672e-05
1.23672e-05
1.23661e-05
1.23626e-05
1.23552e-05
1.23425e-05
1.23234e-05
1.22974e-05
1.22648e-05
1.22267e-05
1.21851e-05
1.21425e-05
1.21012e-05
1.20629e-05
1.20271e-05
1.19924e-05
1.19558e-05
1.1914e-05
1.18628e-05
1.17995e-05
1.17229e-05
1.16347e-05
1.15399e-05
1.1445e-05
1.13577e-05
1.12849e-05
1.12313e-05
1.11971e-05
1.11794e-05
1.1173e-05
1.11721e-05
1.23398e-05
1.23413e-05
1.23436e-05
1.23456e-05
1.23459e-05
1.23425e-05
1.23337e-05
1.23184e-05
1.22958e-05
1.2266e-05
1.22298e-05
1.21886e-05
1.21441e-05
1.2098e-05
1.20514e-05
1.20038e-05
1.19562e-05
1.19101e-05
1.18638e-05
1.18132e-05
1.17548e-05
1.16864e-05
1.16081e-05
1.15224e-05
1.14345e-05
1.13505e-05
1.12769e-05
1.12194e-05
1.11806e-05
1.11593e-05
1.11509e-05
1.11495e-05
1.22935e-05
1.22965e-05
1.23016e-05
1.23073e-05
1.23114e-05
1.23115e-05
1.23056e-05
1.2292e-05
1.22701e-05
1.22399e-05
1.22023e-05
1.21583e-05
1.21096e-05
1.20577e-05
1.20035e-05
1.19469e-05
1.18907e-05
1.18393e-05
1.17918e-05
1.17439e-05
1.16919e-05
1.1633e-05
1.1566e-05
1.14919e-05
1.14139e-05
1.13366e-05
1.12659e-05
1.12076e-05
1.11658e-05
1.11413e-05
1.11309e-05
1.11289e-05
1.2224e-05
1.22288e-05
1.22366e-05
1.2245e-05
1.22511e-05
1.22524e-05
1.22465e-05
1.22316e-05
1.22074e-05
1.21742e-05
1.2133e-05
1.20854e-05
1.20329e-05
1.1977e-05
1.19187e-05
1.1858e-05
1.17989e-05
1.17471e-05
1.17018e-05
1.16588e-05
1.16143e-05
1.15655e-05
1.15105e-05
1.14492e-05
1.13831e-05
1.13155e-05
1.12508e-05
1.11947e-05
1.1152e-05
1.11253e-05
1.1113e-05
1.11102e-05
1.2129e-05
1.21355e-05
1.21448e-05
1.2153e-05
1.21573e-05
1.21555e-05
1.21458e-05
1.21268e-05
1.20986e-05
1.2062e-05
1.20182e-05
1.19689e-05
1.19157e-05
1.18599e-05
1.18025e-05
1.17437e-05
1.16874e-05
1.16395e-05
1.15992e-05
1.15625e-05
1.1526e-05
1.14872e-05
1.1444e-05
1.13956e-05
1.13426e-05
1.12865e-05
1.12306e-05
1.11795e-05
1.11383e-05
1.11108e-05
1.10971e-05
1.10935e-05
1.20073e-05
1.20149e-05
1.20226e-05
1.20261e-05
1.20236e-05
1.20146e-05
1.19986e-05
1.19749e-05
1.19438e-05
1.19062e-05
1.18633e-05
1.18165e-05
1.17671e-05
1.17162e-05
1.16648e-05
1.16128e-05
1.15638e-05
1.15229e-05
1.14895e-05
1.146e-05
1.14315e-05
1.1402e-05
1.13697e-05
1.13335e-05
1.12934e-05
1.12498e-05
1.12046e-05
1.11611e-05
1.11239e-05
1.10972e-05
1.10829e-05
1.10787e-05
1.1857e-05
1.18638e-05
1.18657e-05
1.18598e-05
1.18476e-05
1.18307e-05
1.18093e-05
1.17833e-05
1.1753e-05
1.17187e-05
1.16811e-05
1.16412e-05
1.15999e-05
1.15581e-05
1.15163e-05
1.14746e-05
1.14359e-05
1.14039e-05
1.13782e-05
1.1356e-05
1.13352e-05
1.13141e-05
1.12913e-05
1.12659e-05
1.12376e-05
1.12062e-05
1.11726e-05
1.11387e-05
1.11078e-05
1.10841e-05
1.10702e-05
1.10656e-05
1.16742e-05
1.16769e-05
1.16686e-05
1.16529e-05
1.16337e-05
1.16129e-05
1.15909e-05
1.15675e-05
1.15425e-05
1.15156e-05
1.14871e-05
1.14575e-05
1.14273e-05
1.1397e-05
1.13671e-05
1.13375e-05
1.13102e-05
1.12878e-05
1.12701e-05
1.12549e-05
1.1241e-05
1.12272e-05
1.12125e-05
1.11962e-05
1.1178e-05
1.11577e-05
1.11355e-05
1.1112e-05
1.10894e-05
1.10708e-05
1.10588e-05
1.10543e-05
1.14514e-05
1.1446e-05
1.14304e-05
1.14126e-05
1.13949e-05
1.13779e-05
1.13617e-05
1.13457e-05
1.13296e-05
1.13129e-05
1.12956e-05
1.12779e-05
1.126e-05
1.12422e-05
1.12247e-05
1.12074e-05
1.11916e-05
1.11787e-05
1.11685e-05
1.116e-05
1.11522e-05
1.11445e-05
1.11365e-05
1.11277e-05
1.11179e-05
1.11069e-05
1.10947e-05
1.10815e-05
1.10682e-05
1.10564e-05
1.10482e-05
1.10446e-05
1.11792e-05
1.1175e-05
1.1167e-05
1.11592e-05
1.11521e-05
1.11455e-05
1.11395e-05
1.11339e-05
1.11284e-05
1.11229e-05
1.11172e-05
1.11114e-05
1.11055e-05
1.10998e-05
1.10941e-05
1.10885e-05
1.10834e-05
1.10793e-05
1.1076e-05
1.10733e-05
1.10708e-05
1.10684e-05
1.10659e-05
1.10632e-05
1.10602e-05
1.10568e-05
1.1053e-05
1.10489e-05
1.10446e-05
1.10407e-05
1.10377e-05
1.10363e-05
)
;

boundaryField
{
    movingWall
    {
        type            fixedValue;
        value           uniform 1.1032e-05;
    }
    fixedWalls
    {
        type            zeroGradient;
    }
    floor
    {
        type            zeroGradient;
    }
    frontAndBack
    {
        type            empty;
    }
}


// ************************************************************************* //
