/*--------------------------------*- C++ -*----------------------------------*\
| =========                 |                                                 |
| \\      /  F ield         | OpenFOAM: The Open Source CFD Toolbox           |
|  \\    /   O peration     | Version:  2212                                  |
|   \\  /    A nd           | Website:  www.openfoam.com                      |
|    \\/     M anipulation  |                                                 |
\*---------------------------------------------------------------------------*/
FoamFile
{
    version     2.0;
    format      ascii;
    arch        "LSB;label=64;scalar=64";
    class       volScalarField;
    location    "1490";
    object      p;
}
// * * * * * * * * * * * * * * * * * * * * * * * * * * * * * * * * * * * * * //

dimensions      [0 2 -2 0 0 0 0];

internalField   nonuniform List<scalar> 
1024
(
0
-1.48969e-06
-3.01077e-06
-3.17854e-06
-8.05787e-07
5.16392e-06
1.5886e-05
3.26332e-05
5.6077e-05
8.367e-05
0.000105214
0.000107637
8.86701e-05
5.16205e-05
7.67761e-06
-3.84135e-05
-8.40825e-05
-0.000126904
-0.000161388
-0.000185403
-0.000200634
-0.000209806
-0.000215239
-0.000218518
-0.000220598
-0.000221912
-0.000222555
-0.000222503
-0.000221813
-0.000220741
-0.000219687
-0.000219089
-0.0928109
-0.0928125
-0.0928138
-0.0928138
-0.0928116
-0.0928063
-0.0927966
-0.0927811
-0.0927591
-0.0927331
-0.0927128
-0.0927104
-0.0927282
-0.0927641
-0.0928072
-0.0928528
-0.0928981
-0.0929405
-0.0929745
-0.0929981
-0.093013
-0.0930219
-0.0930271
-0.0930301
-0.093032
-0.0930331
-0.0930336
-0.0930335
-0.0930329
-0.093032
-0.0930311
-0.0930305
-0.199424
-0.199426
-0.199428
-0.199428
-0.199426
-0.199422
-0.199414
-0.1994
-0.19938
-0.199356
-0.199338
-0.199335
-0.199352
-0.199386
-0.199428
-0.199472
-0.199517
-0.199558
-0.199592
-0.199615
-0.199629
-0.199637
-0.199642
-0.199644
-0.199646
-0.199646
-0.199647
-0.199647
-0.199646
-0.199645
-0.199644
-0.199643
-0.321895
-0.321898
-0.3219
-0.3219
-0.3219
-0.321897
-0.321891
-0.321879
-0.321862
-0.32184
-0.321823
-0.321821
-0.321836
-0.321869
-0.321908
-0.321951
-0.321994
-0.322034
-0.322067
-0.322089
-0.322102
-0.322109
-0.322113
-0.322115
-0.322115
-0.322115
-0.322115
-0.322115
-0.322114
-0.322113
-0.322112
-0.322111
-0.462584
-0.462586
-0.462589
-0.46259
-0.462591
-0.46259
-0.462586
-0.462577
-0.462562
-0.462543
-0.462529
-0.462527
-0.462541
-0.462571
-0.462608
-0.462648
-0.462689
-0.462728
-0.462759
-0.462779
-0.462791
-0.462797
-0.462799
-0.462799
-0.462799
-0.462798
-0.462797
-0.462796
-0.462795
-0.462794
-0.462792
-0.462791
-0.624201
-0.624203
-0.624206
-0.624208
-0.62421
-0.624211
-0.62421
-0.624204
-0.624192
-0.624175
-0.624164
-0.624163
-0.624177
-0.624204
-0.624237
-0.624273
-0.624311
-0.624348
-0.624378
-0.624397
-0.624406
-0.62441
-0.62441
-0.624409
-0.624407
-0.624405
-0.624403
-0.624401
-0.624399
-0.624398
-0.624396
-0.624394
-0.809859
-0.809861
-0.809863
-0.809866
-0.809869
-0.809872
-0.809873
-0.809869
-0.80986
-0.809847
-0.809839
-0.80984
-0.809854
-0.809878
-0.809907
-0.809939
-0.809973
-0.810008
-0.810037
-0.810054
-0.810061
-0.810062
-0.810059
-0.810056
-0.810051
-0.810048
-0.810044
-0.810041
-0.810039
-0.810037
-0.810035
-0.810033
-1.02313
-1.02313
-1.02313
-1.02314
-1.02314
-1.02314
-1.02315
-1.02315
-1.02314
-1.02313
-1.02313
-1.02313
-1.02314
-1.02317
-1.02319
-1.02322
-1.02325
-1.02328
-1.02331
-1.02332
-1.02333
-1.02333
-1.02332
-1.02332
-1.02331
-1.0233
-1.0233
-1.02329
-1.02329
-1.02329
-1.02329
-1.02328
-1.26812
-1.26812
-1.26812
-1.26812
-1.26813
-1.26813
-1.26814
-1.26814
-1.26813
-1.26813
-1.26813
-1.26814
-1.26815
-1.26817
-1.26819
-1.26822
-1.26825
-1.26828
-1.2683
-1.26832
-1.26832
-1.26831
-1.2683
-1.26829
-1.26828
-1.26828
-1.26827
-1.26826
-1.26826
-1.26826
-1.26826
-1.26825
-1.54954
-1.54954
-1.54954
-1.54954
-1.54955
-1.54955
-1.54955
-1.54955
-1.54955
-1.54955
-1.54956
-1.54957
-1.54959
-1.54961
-1.54963
-1.54965
-1.54967
-1.5497
-1.54973
-1.54974
-1.54974
-1.54973
-1.54972
-1.5497
-1.54969
-1.54968
-1.54967
-1.54967
-1.54966
-1.54966
-1.54966
-1.54966
-1.87281
-1.87281
-1.87281
-1.87281
-1.87281
-1.87281
-1.87281
-1.87282
-1.87282
-1.87282
-1.87283
-1.87285
-1.87287
-1.87289
-1.87291
-1.87293
-1.87295
-1.87298
-1.873
-1.87301
-1.873
-1.87299
-1.87297
-1.87296
-1.87295
-1.87293
-1.87293
-1.87292
-1.87291
-1.87291
-1.87291
-1.87291
-2.24415
-2.24415
-2.24415
-2.24415
-2.24415
-2.24415
-2.24415
-2.24415
-2.24415
-2.24416
-2.24418
-2.2442
-2.24423
-2.24425
-2.24427
-2.24429
-2.2443
-2.24432
-2.24433
-2.24434
-2.24433
-2.24431
-2.24429
-2.24427
-2.24426
-2.24425
-2.24424
-2.24423
-2.24423
-2.24423
-2.24423
-2.24423
-2.67071
-2.67071
-2.67071
-2.67071
-2.67071
-2.67071
-2.67071
-2.67071
-2.67072
-2.67073
-2.67075
-2.67078
-2.67081
-2.67083
-2.67086
-2.67088
-2.67089
-2.6709
-2.67089
-2.67088
-2.67086
-2.67083
-2.67081
-2.67079
-2.67077
-2.67076
-2.67076
-2.67075
-2.67075
-2.67075
-2.67075
-2.67076
-3.16071
-3.16071
-3.16071
-3.16071
-3.16071
-3.16071
-3.16071
-3.16072
-3.16073
-3.16075
-3.16078
-3.16081
-3.16084
-3.16087
-3.1609
-3.16093
-3.16094
-3.16094
-3.16092
-3.16088
-3.16083
-3.16079
-3.16075
-3.16072
-3.1607
-3.16069
-3.16069
-3.1607
-3.1607
-3.1607
-3.1607
-3.1607
-3.72361
-3.72362
-3.72362
-3.72362
-3.72362
-3.72362
-3.72363
-3.72363
-3.72365
-3.72367
-3.72369
-3.72373
-3.72377
-3.72381
-3.72385
-3.72389
-3.72391
-3.72391
-3.72387
-3.72382
-3.72376
-3.72369
-3.72363
-3.72358
-3.72355
-3.72353
-3.72353
-3.72353
-3.72354
-3.72354
-3.72354
-3.72354
-4.37027
-4.37027
-4.37027
-4.37027
-4.37028
-4.37028
-4.37029
-4.3703
-4.37032
-4.37034
-4.37037
-4.37041
-4.37045
-4.3705
-4.37056
-4.37061
-4.37064
-4.37064
-4.37061
-4.37056
-4.37049
-4.37041
-4.37034
-4.37027
-4.37023
-4.37019
-4.37018
-4.37017
-4.37018
-4.37018
-4.37019
-4.37019
-5.06172
-5.06172
-5.06172
-5.06172
-5.06172
-5.06173
-5.06174
-5.06175
-5.06177
-5.0618
-5.06183
-5.06187
-5.06192
-5.06198
-5.06204
-5.0621
-5.06215
-5.06215
-5.06214
-5.06209
-5.06203
-5.06196
-5.06189
-5.06181
-5.06175
-5.06171
-5.06168
-5.06167
-5.06167
-5.06167
-5.06168
-5.06168
-5.70842
-5.70842
-5.70842
-5.70842
-5.70843
-5.70844
-5.70845
-5.70846
-5.70848
-5.70851
-5.70854
-5.70859
-5.70864
-5.7087
-5.70877
-5.70883
-5.70888
-5.70889
-5.70888
-5.70885
-5.70881
-5.70875
-5.70868
-5.70862
-5.70855
-5.7085
-5.70846
-5.70844
-5.70844
-5.70844
-5.70845
-5.70845
-6.2714
-6.2714
-6.2714
-6.2714
-6.27141
-6.27141
-6.27143
-6.27144
-6.27146
-6.27149
-6.27153
-6.27157
-6.27162
-6.27169
-6.27175
-6.27182
-6.27187
-6.27188
-6.27187
-6.27185
-6.27182
-6.27177
-6.27172
-6.27167
-6.2716
-6.27155
-6.27151
-6.27148
-6.27147
-6.27147
-6.27148
-6.27148
-6.76149
-6.76149
-6.76149
-6.76149
-6.76149
-6.7615
-6.76151
-6.76152
-6.76154
-6.76157
-6.76161
-6.76165
-6.76171
-6.76177
-6.76184
-6.76191
-6.76196
-6.76197
-6.76196
-6.76194
-6.76191
-6.76188
-6.76183
-6.76179
-6.76173
-6.76168
-6.76163
-6.7616
-6.76158
-6.76158
-6.76159
-6.7616
-7.18812
-7.18812
-7.18812
-7.18812
-7.18812
-7.18813
-7.18813
-7.18815
-7.18817
-7.18819
-7.18823
-7.18828
-7.18833
-7.1884
-7.18847
-7.18854
-7.18859
-7.18861
-7.1886
-7.18857
-7.18854
-7.1885
-7.18846
-7.18842
-7.18837
-7.18831
-7.18826
-7.18822
-7.1882
-7.1882
-7.1882
-7.18821
-7.55951
-7.55951
-7.55951
-7.55951
-7.55951
-7.55952
-7.55952
-7.55953
-7.55955
-7.55958
-7.55961
-7.55966
-7.55972
-7.55979
-7.55987
-7.55994
-7.55999
-7.56001
-7.55999
-7.55996
-7.55992
-7.55988
-7.55984
-7.55979
-7.55974
-7.55968
-7.55962
-7.55957
-7.55954
-7.55953
-7.55953
-7.55954
-7.88283
-7.88283
-7.88283
-7.88283
-7.88282
-7.88282
-7.88283
-7.88283
-7.88284
-7.88287
-7.8829
-7.88296
-7.88302
-7.88309
-7.88318
-7.88326
-7.88331
-7.88332
-7.88331
-7.88328
-7.88323
-7.88318
-7.88312
-7.88306
-7.88299
-7.88292
-7.88285
-7.88278
-7.88274
-7.88271
-7.88272
-7.88273
-8.16429
-8.16429
-8.16429
-8.16429
-8.16428
-8.16428
-8.16427
-8.16427
-8.16428
-8.1643
-8.16434
-8.16439
-8.16446
-8.16454
-8.16463
-8.16472
-8.16477
-8.16479
-8.16477
-8.16474
-8.16469
-8.16462
-8.16455
-8.16447
-8.16438
-8.16428
-8.16418
-8.16409
-8.16402
-8.16398
-8.16397
-8.16398
-8.40932
-8.40932
-8.40932
-8.40931
-8.4093
-8.40929
-8.40928
-8.40927
-8.40928
-8.4093
-8.40934
-8.4094
-8.40947
-8.40956
-8.40965
-8.40974
-8.4098
-8.40982
-8.4098
-8.40976
-8.40971
-8.40963
-8.40954
-8.40943
-8.40931
-8.40917
-8.40903
-8.4089
-8.40879
-8.40872
-8.4087
-8.40871
-8.62263
-8.62263
-8.62263
-8.62262
-8.62261
-8.62258
-8.62256
-8.62255
-8.62255
-8.62257
-8.62262
-8.62268
-8.62276
-8.62285
-8.62295
-8.62304
-8.6231
-8.62312
-8.62311
-8.62307
-8.62301
-8.62292
-8.62282
-8.62268
-8.62251
-8.62233
-8.62213
-8.62194
-8.62178
-8.62166
-8.62161
-8.6216
-8.80834
-8.80834
-8.80834
-8.80832
-8.8083
-8.80826
-8.80824
-8.80822
-8.80822
-8.80824
-8.80829
-8.80835
-8.80844
-8.80854
-8.80864
-8.80873
-8.8088
-8.80882
-8.80881
-8.80876
-8.8087
-8.8086
-8.80848
-8.80831
-8.80811
-8.80787
-8.8076
-8.80734
-8.80709
-8.8069
-8.80679
-8.80676
-8.97003
-8.97003
-8.97002
-8.96999
-8.96995
-8.96991
-8.96987
-8.96985
-8.96984
-8.96987
-8.96992
-8.96999
-8.97008
-8.97018
-8.97029
-8.97039
-8.97045
-8.97048
-8.97046
-8.97042
-8.97035
-8.97025
-8.9701
-8.96992
-8.96967
-8.96938
-8.96904
-8.96868
-8.96833
-8.96803
-8.96782
-8.96772
-9.11085
-9.11083
-9.1108
-9.11074
-9.11068
-9.11062
-9.11058
-9.11055
-9.11055
-9.11058
-9.11063
-9.11071
-9.1108
-9.11091
-9.11102
-9.11111
-9.11118
-9.11121
-9.11119
-9.11115
-9.11107
-9.11096
-9.11081
-9.1106
-9.11033
-9.10998
-9.10958
-9.10912
-9.10864
-9.10818
-9.10782
-9.10759
-9.23355
-9.23347
-9.23337
-9.23327
-9.23319
-9.23312
-9.23306
-9.23304
-9.23304
-9.23307
-9.23313
-9.23321
-9.23331
-9.23341
-9.23352
-9.23362
-9.23369
-9.23372
-9.23371
-9.23366
-9.23358
-9.23347
-9.23331
-9.23309
-9.23279
-9.23241
-9.23195
-9.23141
-9.23079
-9.23011
-9.22948
-9.22893
-9.34069
-9.3403
-9.34006
-9.33991
-9.33981
-9.33974
-9.33969
-9.33966
-9.33967
-9.3397
-9.33977
-9.33985
-9.33995
-9.34006
-9.34017
-9.34027
-9.34034
-9.34037
-9.34036
-9.34031
-9.34024
-9.34012
-9.33995
-9.33973
-9.33942
-9.33903
-9.33854
-9.33794
-9.3372
-9.33629
-9.33518
-9.33393
-9.43456
-9.43332
-9.43286
-9.43271
-9.43261
-9.43254
-9.4325
-9.43248
-9.4325
-9.43253
-9.4326
-9.43269
-9.43279
-9.4329
-9.43302
-9.43312
-9.43319
-9.43322
-9.43321
-9.43316
-9.43308
-9.43297
-9.4328
-9.43257
-9.43227
-9.43187
-9.43137
-9.43074
-9.42993
-9.42883
-9.42723
-9.42497
)
;

boundaryField
{
    movingWall
    {
        type            calculated;
        value           nonuniform List<scalar> 
32
(
-9.47777
-9.47653
-9.47607
-9.47592
-9.47583
-9.47575
-9.47571
-9.47569
-9.47571
-9.47575
-9.47581
-9.4759
-9.476
-9.47611
-9.47623
-9.47633
-9.4764
-9.47643
-9.47642
-9.47637
-9.4763
-9.47618
-9.47601
-9.47578
-9.47548
-9.47508
-9.47458
-9.47395
-9.47314
-9.47204
-9.47044
-9.46818
)
;
    }
    fixedWalls
    {
        type            calculated;
        value           nonuniform List<scalar> 
64
(
6.93889e-18
-0.0928109
-0.199424
-0.321895
-0.462584
-0.624201
-0.809859
-1.02313
-1.26812
-1.54954
-1.87281
-2.24415
-2.67071
-3.16071
-3.72361
-4.37027
-5.06172
-5.70842
-6.2714
-6.76149
-7.18812
-7.55951
-7.88283
-8.16429
-8.40932
-8.62263
-8.80834
-8.97003
-9.11085
-9.23355
-9.34069
-9.43456
-0.000219089
-0.0930305
-0.199643
-0.322111
-0.462791
-0.624394
-0.810033
-1.02328
-1.26825
-1.54966
-1.87291
-2.24423
-2.67076
-3.1607
-3.72354
-4.37019
-5.06168
-5.70845
-6.27148
-6.7616
-7.18821
-7.55954
-7.88273
-8.16398
-8.40871
-8.6216
-8.80676
-8.96772
-9.10759
-9.22893
-9.33393
-9.42497
)
;
    }
    floor
    {
        type            calculated;
        value           nonuniform List<scalar> 
32
(
0.0431944
0.0431929
0.0431914
0.0431913
0.0431937
0.0431997
0.0432105
0.0432274
0.0432509
0.0432786
0.0433003
0.0433027
0.0432837
0.0432466
0.0432025
0.0431564
0.0431107
0.0430678
0.0430332
0.0430092
0.0429939
0.0429847
0.0429792
0.0429759
0.0429738
0.0429725
0.0429718
0.0429718
0.0429725
0.0429736
0.0429746
0.0429752
)
;
    }
    frontAndBack
    {
        type            empty;
    }
}


// ************************************************************************* //
