/*--------------------------------*- C++ -*----------------------------------*\
| =========                 |                                                 |
| \\      /  F ield         | OpenFOAM: The Open Source CFD Toolbox           |
|  \\    /   O peration     | Version:  2212                                  |
|   \\  /    A nd           | Website:  www.openfoam.com                      |
|    \\/     M anipulation  |                                                 |
\*---------------------------------------------------------------------------*/
FoamFile
{
    version     2.0;
    format      ascii;
    arch        "LSB;label=64;scalar=64";
    class       surfaceScalarField;
    location    "1490";
    object      phi;
}
// * * * * * * * * * * * * * * * * * * * * * * * * * * * * * * * * * * * * * //

dimensions      [0 3 -1 0 0 0 0];

oriented        oriented;

internalField   nonuniform List<scalar> 
1984
(
-6.01746e-10
5.93318e-10
-7.08043e-09
6.47869e-09
-2.09746e-08
1.38942e-08
-4.0652e-08
1.96774e-08
-6.3274e-08
2.26221e-08
-8.56183e-08
2.23442e-08
-1.03868e-07
1.825e-08
-1.12671e-07
8.80271e-09
-1.03591e-07
-9.07963e-09
-6.69169e-08
-3.66743e-08
-3.24597e-09
-6.36709e-08
6.28872e-08
-6.61331e-08
1.10075e-07
-4.7188e-08
1.35227e-07
-2.5152e-08
1.46037e-07
-1.08098e-08
1.51561e-07
-5.52412e-09
1.54423e-07
-2.86222e-09
1.50073e-07
4.35026e-09
1.37353e-07
1.27204e-08
1.20044e-07
1.73092e-08
1.01896e-07
1.81479e-08
8.49342e-08
1.69616e-08
6.9802e-08
1.51322e-08
5.63533e-08
1.34487e-08
4.40527e-08
1.23006e-08
3.24337e-08
1.1619e-08
2.15196e-08
1.09141e-08
1.19595e-08
9.56007e-09
4.75323e-09
7.20618e-09
6.45962e-10
4.10728e-09
-4.97728e-10
1.14373e-09
-4.97746e-10
-6.88701e-09
7.48034e-09
-3.07768e-08
3.03685e-08
-7.32801e-08
5.63975e-08
-1.31018e-07
7.74151e-08
-1.96601e-07
8.82049e-08
-2.60139e-07
8.58829e-08
-3.09411e-07
6.7522e-08
-3.28533e-07
2.79244e-08
-2.9546e-07
-4.21525e-08
-1.8734e-07
-1.44794e-07
-3.73294e-09
-2.47278e-07
1.91629e-07
-2.61495e-07
3.35675e-07
-1.91234e-07
4.21232e-07
-1.1071e-07
4.64474e-07
-5.40517e-08
4.88788e-07
-2.98383e-08
5.00947e-07
-1.50212e-08
4.90303e-07
1.49949e-08
4.54288e-07
4.87356e-08
4.02737e-07
6.88597e-08
3.4646e-07
7.4425e-08
2.91971e-07
7.14507e-08
2.41829e-07
6.52738e-08
1.96168e-07
5.91096e-08
1.53979e-07
5.449e-08
1.14458e-07
5.11405e-08
7.80609e-08
4.73107e-08
4.67073e-08
4.09137e-08
2.28273e-08
3.10863e-08
7.85954e-09
1.9075e-08
1.20003e-09
7.80316e-09
7.02281e-10
-1.58637e-08
2.3344e-08
-6.15439e-08
7.60488e-08
-1.36006e-07
1.30859e-07
-2.33192e-07
1.74602e-07
-3.41206e-07
1.96219e-07
-4.43207e-07
1.87884e-07
-5.17955e-07
1.4227e-07
-5.39077e-07
4.90461e-08
-4.73562e-07
-1.07667e-07
-2.91202e-07
-3.27153e-07
8.51514e-09
-5.46996e-07
3.2989e-07
-5.8287e-07
5.7661e-07
-4.37953e-07
7.37131e-07
-2.71231e-07
8.29439e-07
-1.4636e-07
8.86311e-07
-8.67105e-08
9.1662e-07
-4.53294e-08
9.05139e-07
2.64758e-08
8.48772e-07
1.05102e-07
7.62635e-07
1.54997e-07
6.64453e-07
1.72607e-07
5.65928e-07
1.69975e-07
4.72467e-07
1.58735e-07
3.8538e-07
1.46196e-07
3.04052e-07
1.35818e-07
2.28048e-07
1.27145e-07
1.58632e-07
1.16727e-07
9.89436e-08
1.00602e-07
5.25339e-08
7.74959e-08
2.13773e-08
5.02316e-08
4.79492e-09
2.43855e-08
5.49716e-09
-2.43801e-08
4.77242e-08
-9.14822e-08
1.43151e-07
-1.96852e-07
2.36229e-07
-3.30626e-07
3.08376e-07
-4.76024e-07
3.41617e-07
-6.09398e-07
3.21258e-07
-7.00832e-07
2.33704e-07
-7.14403e-07
6.26169e-08
-6.09683e-07
-2.12387e-07
-3.55618e-07
-5.81218e-07
4.01973e-08
-9.42811e-07
4.63579e-07
-1.00625e-06
8.06511e-07
-7.80886e-07
1.04979e-06
-5.14511e-07
1.2074e-06
-3.03967e-07
1.31457e-06
-1.9388e-07
1.37811e-06
-1.08867e-07
1.37744e-06
2.71416e-08
1.30922e-06
1.73317e-07
1.19336e-06
2.70867e-07
1.05396e-06
3.12004e-07
9.08213e-07
3.15721e-07
7.65191e-07
3.01757e-07
6.28478e-07
2.82909e-07
4.98995e-07
2.65301e-07
3.77563e-07
2.48576e-07
2.66668e-07
2.27622e-07
1.70687e-07
1.96583e-07
9.43533e-08
1.5383e-07
4.06956e-08
1.03889e-07
9.94195e-09
5.51393e-08
1.54391e-08
-2.97192e-08
7.74434e-08
-1.11385e-07
2.24816e-07
-2.38831e-07
3.63676e-07
-3.99225e-07
4.68769e-07
-5.71404e-07
5.13797e-07
-7.25484e-07
4.75338e-07
-8.23627e-07
3.31847e-07
-8.21609e-07
6.05985e-08
-6.75775e-07
-3.58221e-07
-3.61176e-07
-8.95816e-07
9.38573e-08
-1.39784e-06
5.75966e-07
-1.48836e-06
9.91835e-07
-1.19676e-06
1.31225e-06
-8.34926e-07
1.54411e-06
-5.35823e-07
1.71904e-06
-3.68818e-07
1.83653e-06
-2.26351e-07
1.86616e-06
-2.49473e-09
1.80186e-06
2.37625e-07
1.66793e-06
4.04792e-07
1.49445e-06
4.85483e-07
1.30405e-06
5.06121e-07
1.10995e-06
4.95859e-07
9.18959e-07
4.73902e-07
7.34719e-07
4.49542e-07
5.60323e-07
4.22972e-07
4.00136e-07
3.8781e-07
2.60161e-07
3.36558e-07
1.46798e-07
2.67193e-07
6.4886e-08
1.85801e-07
1.63225e-08
1.03703e-07
3.17616e-08
-2.95008e-08
1.06944e-07
-1.12647e-07
3.07963e-07
-2.44993e-07
4.96021e-07
-4.13954e-07
6.37731e-07
-5.96416e-07
6.96258e-07
-7.57892e-07
6.36813e-07
-8.53822e-07
4.27777e-07
-8.3295e-07
3.97266e-08
-6.52553e-07
-5.38618e-07
-3.00257e-07
-1.24811e-06
1.66001e-07
-1.8641e-06
6.51978e-07
-1.97434e-06
1.09845e-06
-1.64322e-06
1.46996e-06
-1.20644e-06
1.76796e-06
-8.33823e-07
2.01877e-06
-6.19635e-07
2.21181e-06
-4.19385e-07
2.29879e-06
-8.94736e-08
2.26282e-06
2.73587e-07
2.13039e-06
5.37227e-07
1.93774e-06
6.78128e-07
1.71305e-06
7.30811e-07
1.47373e-06
7.35176e-07
1.23039e-06
7.17251e-07
9.90275e-07
6.89653e-07
7.59814e-07
6.53433e-07
5.46241e-07
6.01382e-07
3.58045e-07
5.24755e-07
2.03974e-07
4.21264e-07
9.11141e-08
2.98661e-07
2.31946e-08
1.71622e-07
5.49562e-08
-2.27943e-08
1.29739e-07
-9.1053e-08
3.76221e-07
-2.05533e-07
6.10501e-07
-3.58432e-07
7.90631e-07
-5.29181e-07
8.67007e-07
-6.82286e-07
7.89919e-07
-7.69146e-07
5.14636e-07
-7.32334e-07
2.91533e-09
-5.34184e-07
-7.36769e-07
-1.79793e-07
-1.6025e-06
2.43984e-07
-2.28788e-06
6.75842e-07
-2.4062e-06
1.09333e-06
-2.06071e-06
1.46646e-06
-1.57957e-06
1.79739e-06
-1.16475e-06
2.11122e-06
-9.33468e-07
2.39072e-06
-6.98877e-07
2.56649e-06
-2.65251e-07
2.5936e-06
2.46481e-07
2.49066e-06
6.40169e-07
2.30217e-06
8.66612e-07
2.06262e-06
9.70363e-07
1.79335e-06
1.00445e-06
1.50882e-06
1.00178e-06
1.22046e-06
9.78016e-07
9.39044e-07
9.34848e-07
6.75983e-07
8.64444e-07
4.43361e-07
7.57376e-07
2.5273e-07
6.11894e-07
1.13012e-07
4.3838e-07
2.88235e-08
2.5581e-07
8.37797e-08
-1.11219e-08
1.4086e-07
-5.02421e-08
4.15342e-07
-1.24553e-07
6.84812e-07
-2.34508e-07
9.00585e-07
-3.6746e-07
9.99959e-07
-4.92711e-07
9.1517e-07
-5.6138e-07
5.83305e-07
-5.19069e-07
-3.93952e-08
-3.28399e-07
-9.27439e-07
-2.03974e-08
-1.9105e-06
3.02865e-07
-2.61114e-06
6.20337e-07
-2.72367e-06
9.36138e-07
-2.37651e-06
1.24063e-06
-1.88406e-06
1.54439e-06
-1.46851e-06
1.87871e-06
-1.26779e-06
2.23324e-06
-1.05341e-06
2.52628e-06
-5.58292e-07
2.66116e-06
1.11608e-07
2.62478e-06
6.76548e-07
2.47287e-06
1.01852e-06
2.24801e-06
1.19522e-06
1.97495e-06
1.27751e-06
1.67169e-06
1.30504e-06
1.35426e-06
1.29544e-06
1.03899e-06
1.25012e-06
7.42939e-07
1.1605e-06
4.82737e-07
1.01758e-06
2.72291e-07
8.2234e-07
1.20504e-07
5.90167e-07
3.04271e-08
3.45888e-07
1.14207e-07
1.59399e-09
1.39266e-07
-2.71648e-09
4.19652e-07
-2.37525e-08
7.05848e-07
-6.98512e-08
9.46684e-07
-1.39886e-07
1.06999e-06
-2.15119e-07
9.90403e-07
-2.55478e-07
6.23664e-07
-2.10419e-07
-8.4455e-08
-5.86019e-08
-1.07926e-06
1.35863e-07
-2.10497e-06
2.96954e-07
-2.77223e-06
4.3109e-07
-2.8578e-06
5.62099e-07
-2.50752e-06
7.13466e-07
-2.03543e-06
9.08403e-07
-1.66345e-06
1.18881e-06
-1.54819e-06
1.57244e-06
-1.43704e-06
1.98806e-06
-9.73904e-07
2.28612e-06
-1.86456e-07
2.37594e-06
5.86726e-07
2.30712e-06
1.08735e-06
2.13996e-06
1.36238e-06
1.90256e-06
1.5149e-06
1.61661e-06
1.59099e-06
1.30364e-06
1.60842e-06
9.87199e-07
1.56656e-06
6.915e-07
1.4562e-06
4.37655e-07
1.27142e-06
2.39715e-07
1.02028e-06
1.02935e-07
7.26947e-07
2.51693e-08
4.23653e-07
1.39376e-07
1.10869e-08
1.28179e-07
3.61157e-08
3.94623e-07
6.53024e-08
6.76661e-07
8.69353e-08
9.25051e-07
9.29527e-08
1.06398e-06
8.74217e-08
9.95934e-07
9.1559e-08
6.19527e-07
1.29151e-07
-1.22047e-07
1.89954e-07
-1.14006e-06
2.14054e-07
-2.12907e-06
1.42035e-07
-2.70021e-06
-3.73762e-09
-2.71203e-06
-1.36263e-07
-2.375e-06
-2.24414e-07
-1.94728e-06
-2.28935e-07
-1.65893e-06
-1.01527e-07
-1.6756e-06
2.14991e-07
-1.75356e-06
6.96085e-07
-1.455e-06
1.22034e-06
-7.10711e-07
1.55394e-06
2.53129e-07
1.64307e-06
9.98214e-07
1.59975e-06
1.4057e-06
1.45626e-06
1.6584e-06
1.24156e-06
1.80569e-06
9.85095e-07
1.86489e-06
7.19999e-07
1.83165e-06
4.78054e-07
1.69814e-06
2.82289e-07
1.46719e-06
1.4246e-07
1.16011e-06
5.58364e-08
8.13571e-07
1.22114e-08
4.67278e-07
1.51587e-07
1.51324e-08
1.13047e-07
5.56904e-08
3.54065e-07
1.15675e-07
6.16677e-07
1.84931e-07
8.55794e-07
2.52224e-07
9.96684e-07
3.09723e-07
9.38434e-07
3.52543e-07
5.76708e-07
3.62601e-07
-1.32105e-07
2.93892e-07
-1.07135e-06
7.63432e-08
-1.91152e-06
-3.26927e-07
-2.29694e-06
-8.2501e-07
-2.21395e-06
-1.3146e-06
-1.88541e-06
-1.72635e-06
-1.53553e-06
-2.02079e-06
-1.36448e-06
-2.14057e-06
-1.55582e-06
-1.98707e-06
-1.90706e-06
-1.55168e-06
-1.89039e-06
-8.64551e-07
-1.39784e-06
-1.51851e-07
-4.5957e-07
2.97304e-07
5.49059e-07
4.94649e-07
1.20835e-06
5.37361e-07
1.61568e-06
4.78237e-07
1.86481e-06
3.58454e-07
1.98467e-06
2.22734e-07
1.96737e-06
1.07616e-07
1.81326e-06
3.19176e-08
1.54289e-06
-3.8365e-09
1.19586e-06
-1.11259e-08
8.2086e-07
-5.34079e-09
4.61493e-07
1.46247e-07
1.22349e-08
1.00812e-07
4.83857e-08
3.17914e-07
1.0687e-07
5.58193e-07
1.81504e-07
7.8116e-07
2.62078e-07
9.16111e-07
3.33418e-07
8.67094e-07
3.67479e-07
5.42647e-07
3.11648e-07
-7.62744e-08
3.36805e-08
-7.93382e-07
-5.50392e-07
-1.32745e-06
-1.38191e-06
-1.46543e-06
-2.30432e-06
-1.29154e-06
-3.2011e-06
-9.88629e-07
-3.99807e-06
-7.38562e-07
-4.64647e-06
-7.1608e-07
-5.0804e-06
-1.1219e-06
-5.15089e-06
-1.83657e-06
-4.8134e-06
-2.22788e-06
-4.11218e-06
-2.09905e-06
-3.11731e-06
-1.45444e-06
-2.10165e-06
-4.66603e-07
-1.37036e-06
4.77059e-07
-9.41673e-07
1.187e-06
-6.76495e-07
1.59963e-06
-5.2395e-07
1.83213e-06
-4.25072e-07
1.86849e-06
-3.37893e-07
1.72608e-06
-2.4699e-07
1.45198e-06
-1.55681e-07
1.10455e-06
-7.6177e-08
7.41355e-07
-2.11807e-08
4.06497e-07
1.25066e-07
1.94526e-09
9.8867e-08
6.26385e-09
3.13596e-07
1.39165e-08
5.5054e-07
2.67485e-08
7.68328e-07
4.22697e-08
9.00589e-07
4.08399e-08
8.68524e-07
-4.3559e-08
6.27045e-07
-3.56789e-07
2.36956e-07
-1.03584e-06
-1.14326e-07
-2.10631e-06
-2.56982e-07
-3.41765e-06
-1.54089e-07
-4.79266e-06
8.34805e-08
-6.09839e-06
3.171e-07
-7.24944e-06
4.12484e-07
-8.20731e-06
2.41791e-07
-8.93098e-06
-3.98222e-07
-9.23531e-06
-1.53225e-06
-9.03823e-06
-2.42495e-06
-8.37668e-06
-2.76061e-06
-7.28e-06
-2.55112e-06
-5.82e-06
-1.92661e-06
-4.30655e-06
-1.03639e-06
-3.0635e-06
-5.60565e-08
-2.13946e-06
6.75595e-07
-1.50113e-06
1.19379e-06
-1.04703e-06
1.4144e-06
-7.02975e-07
1.38202e-06
-4.40823e-07
1.18983e-06
-2.44695e-07
9.08427e-07
-1.0796e-07
6.0462e-07
-2.74713e-08
3.26008e-07
9.75947e-08
-3.31662e-08
1.32033e-07
-1.30276e-07
4.10706e-07
-2.92143e-07
7.12407e-07
-5.17772e-07
9.93957e-07
-8.16108e-07
1.19893e-06
-1.22848e-06
1.28089e-06
-1.84566e-06
1.24423e-06
-2.77627e-06
1.16757e-06
-4.04026e-06
1.14966e-06
-5.52684e-06
1.2296e-06
-7.07235e-06
1.39142e-06
-8.55965e-06
1.57078e-06
-9.93946e-06
1.6969e-06
-1.12057e-05
1.6787e-06
-1.23164e-05
1.35254e-06
-1.31944e-05
4.79776e-07
-1.36454e-05
-1.08124e-06
-1.35868e-05
-2.48354e-06
-1.30198e-05
-3.32764e-06
-1.19529e-05
-3.61801e-06
-1.04292e-05
-3.45028e-06
-8.53026e-06
-2.93537e-06
-6.40154e-06
-2.18478e-06
-4.43604e-06
-1.2899e-06
-2.81164e-06
-4.30619e-07
-1.62366e-06
2.26424e-07
-8.54194e-07
6.12556e-07
-4.07875e-07
7.43512e-07
-1.68658e-07
6.69209e-07
-5.26009e-08
4.88564e-07
-8.03114e-09
2.81439e-07
8.95636e-08
-6.39403e-08
1.95973e-07
-2.56348e-07
6.03113e-07
-5.86084e-07
1.04214e-06
-1.05714e-06
1.46501e-06
-1.67706e-06
1.81885e-06
-2.46881e-06
2.07264e-06
-3.46725e-06
2.24267e-06
-4.68607e-06
2.38639e-06
-6.09334e-06
2.55693e-06
-7.63111e-06
2.76737e-06
-9.23507e-06
2.99538e-06
-1.08594e-05
3.19512e-06
-1.24612e-05
3.29868e-06
-1.39834e-05
3.20096e-06
-1.53591e-05
2.72822e-06
-1.64893e-05
1.60997e-06
-1.71066e-05
-4.63961e-07
-1.71972e-05
-2.39296e-06
-1.67925e-05
-3.73229e-06
-1.58881e-05
-4.52245e-06
-1.44917e-05
-4.84666e-06
-1.26479e-05
-4.7792e-06
-1.0454e-05
-4.37862e-06
-8.03864e-06
-3.70528e-06
-5.62826e-06
-2.841e-06
-3.52011e-06
-1.88173e-06
-1.92771e-06
-9.79837e-07
-8.8963e-07
-2.9457e-07
-3.24123e-07
1.03702e-07
-7.83792e-08
2.4282e-07
-4.60301e-09
2.07663e-07
8.49606e-08
-6.54984e-08
2.61472e-07
-2.69169e-07
8.06784e-07
-6.30556e-07
1.40353e-06
-1.16437e-06
1.99883e-06
-1.8797e-06
2.53418e-06
-2.7803e-06
2.97324e-06
-3.86203e-06
3.3244e-06
-5.10857e-06
3.63294e-06
-6.49477e-06
3.94313e-06
-7.99405e-06
4.26665e-06
-9.5789e-06
4.58022e-06
-1.12193e-05
4.83549e-06
-1.28792e-05
4.95858e-06
-1.45112e-05
4.83304e-06
-1.60538e-05
4.27076e-06
-1.74147e-05
2.97086e-06
-1.82735e-05
3.94801e-07
-1.85932e-05
-2.07321e-06
-1.84885e-05
-3.83699e-06
-1.79497e-05
-5.06129e-06
-1.69434e-05
-5.85296e-06
-1.54588e-05
-6.26378e-06
-1.35324e-05
-6.30503e-06
-1.1259e-05
-5.97864e-06
-8.79291e-06
-5.3071e-06
-6.32196e-06
-4.35268e-06
-4.07399e-06
-3.22781e-06
-2.27902e-06
-2.08954e-06
-1.06064e-06
-1.11468e-06
-3.74354e-07
-4.43469e-07
-7.1018e-08
-9.5673e-08
1.39425e-08
-3.16672e-08
2.93139e-07
-1.42137e-07
9.17254e-07
-3.59578e-07
1.62097e-06
-7.12587e-07
2.35183e-06
-1.22248e-06
3.04407e-06
-1.8948e-06
3.64556e-06
-2.71594e-06
4.14554e-06
-3.65934e-06
4.57635e-06
-4.69776e-06
4.98155e-06
-5.81029e-06
5.37918e-06
-6.98047e-06
5.75041e-06
-8.19135e-06
6.04637e-06
-9.42323e-06
6.19045e-06
-1.06543e-05
6.06408e-06
-1.18622e-05
5.47866e-06
-1.30223e-05
4.13102e-06
-1.39681e-05
1.34057e-06
-1.45426e-05
-1.49866e-06
-1.48757e-05
-3.50397e-06
-1.49767e-05
-4.96022e-06
-1.4765e-05
-6.06467e-06
-1.41465e-05
-6.88226e-06
-1.30598e-05
-7.39174e-06
-1.15096e-05
-7.52889e-06
-9.57549e-06
-7.2412e-06
-7.40911e-06
-6.51906e-06
-5.21897e-06
-5.41795e-06
-3.24083e-06
-4.06768e-06
-1.68376e-06
-2.67175e-06
-6.61035e-07
-1.46619e-06
-1.41536e-07
-6.15172e-07
-1.27594e-07
3.54792e-09
2.89591e-07
-4.33485e-09
9.25137e-07
-5.12102e-08
1.66785e-06
-1.71116e-07
2.47174e-06
-3.96682e-07
3.26964e-06
-7.4618e-07
3.99505e-06
-1.21231e-06
4.61166e-06
-1.76424e-06
5.12828e-06
-2.36774e-06
5.58505e-06
-2.9964e-06
6.00784e-06
-3.63246e-06
6.38647e-06
-4.26232e-06
6.67623e-06
-4.87406e-06
6.80219e-06
-5.45781e-06
6.64784e-06
-6.00789e-06
6.02874e-06
-6.54124e-06
4.66437e-06
-7.07691e-06
1.87623e-06
-7.59517e-06
-9.80401e-07
-8.14835e-06
-2.95078e-06
-8.73583e-06
-4.37274e-06
-9.25249e-06
-5.54802e-06
-9.5625e-06
-6.57225e-06
-9.51514e-06
-7.4391e-06
-9.01293e-06
-8.0311e-06
-8.03613e-06
-8.218e-06
-6.65324e-06
-7.90196e-06
-5.01225e-06
-7.05894e-06
-3.32668e-06
-5.75325e-06
-1.84232e-06
-4.1561e-06
-7.65824e-07
-2.54269e-06
-1.73083e-07
-1.20791e-06
-3.00677e-07
2.38588e-08
2.65732e-07
7.88346e-08
8.70161e-07
1.4291e-07
1.60377e-06
1.84002e-07
2.43065e-06
1.66212e-07
3.28743e-06
6.21448e-08
4.09912e-06
-1.32495e-07
4.8063e-06
-3.94021e-07
5.3898e-06
-6.83155e-07
5.87418e-06
-9.63524e-07
6.28821e-06
-1.21118e-06
6.63413e-06
-1.41337e-06
6.87842e-06
-1.56545e-06
6.95427e-06
-1.67045e-06
6.75283e-06
-1.73788e-06
6.09617e-06
-1.77762e-06
4.70412e-06
-1.92423e-06
2.02284e-06
-2.31163e-06
-5.93001e-07
-2.87885e-06
-2.38357e-06
-3.60771e-06
-3.64388e-06
-4.43365e-06
-4.72207e-06
-5.27078e-06
-5.73512e-06
-5.92857e-06
-6.78131e-06
-6.23862e-06
-7.72104e-06
-6.09081e-06
-8.36581e-06
-5.46741e-06
-8.52536e-06
-4.43883e-06
-8.08751e-06
-3.16316e-06
-7.02892e-06
-1.87223e-06
-5.44703e-06
-8.23713e-07
-3.59121e-06
-1.95248e-07
-1.83638e-06
-4.95926e-07
3.12279e-08
2.34504e-07
1.14255e-07
7.87133e-07
2.34372e-07
1.48365e-06
3.65629e-07
2.29939e-06
4.75969e-07
3.17709e-06
5.37517e-07
4.03757e-06
5.38549e-07
4.80527e-06
4.91727e-07
5.43663e-06
4.32817e-07
5.93309e-06
4.02427e-07
6.3186e-06
4.29831e-07
6.60672e-06
5.27759e-07
6.78049e-06
6.93846e-07
6.78819e-06
9.11805e-07
6.53487e-06
1.15062e-06
5.85736e-06
1.37103e-06
4.48371e-06
1.38173e-06
2.01213e-06
1.06506e-06
-2.76333e-07
5.41389e-07
-1.85989e-06
-1.41404e-07
-2.96109e-06
-9.77283e-07
-3.88619e-06
-1.94207e-06
-4.77033e-06
-2.91452e-06
-5.80887e-06
-3.72002e-06
-6.91554e-06
-4.16739e-06
-7.91843e-06
-4.16393e-06
-8.52882e-06
-3.69736e-06
-8.55408e-06
-2.85266e-06
-7.87363e-06
-1.81486e-06
-6.48483e-06
-8.48929e-07
-4.55714e-06
-2.10621e-07
-2.47469e-06
-7.06547e-07
3.01544e-08
2.0435e-07
1.16202e-07
7.01086e-07
2.51607e-07
1.34825e-06
4.18977e-07
2.13202e-06
5.9349e-07
3.00257e-06
7.51502e-07
3.87956e-06
8.81149e-07
4.67563e-06
9.90181e-07
5.32759e-06
1.1065e-06
5.81677e-06
1.26573e-06
6.15937e-06
1.49513e-06
6.37732e-06
1.80405e-06
6.47156e-06
2.18271e-06
6.40953e-06
2.60294e-06
6.11465e-06
3.01448e-06
5.44582e-06
3.32858e-06
4.16961e-06
3.34235e-06
1.99836e-06
3.03151e-06
3.45088e-08
2.52219e-06
-1.35057e-06
1.89915e-06
-2.33806e-06
1.16294e-06
-3.14998e-06
3.11871e-07
-3.91926e-06
-6.60843e-07
-4.83615e-06
-1.66426e-06
-5.91212e-06
-2.46686e-06
-7.11584e-06
-2.91629e-06
-8.07939e-06
-2.91921e-06
-8.55115e-06
-2.47997e-06
-8.31287e-06
-1.71573e-06
-7.24907e-06
-8.62996e-07
-5.40988e-06
-2.25723e-07
-3.11196e-06
-9.32269e-07
2.41454e-08
1.80205e-07
9.67763e-08
6.28455e-07
2.1836e-07
1.22666e-06
3.81465e-07
1.96892e-06
5.71995e-07
2.81204e-06
7.7522e-07
3.67633e-06
9.8397e-07
4.46688e-06
1.20442e-06
5.10715e-06
1.45607e-06
5.56513e-06
1.76334e-06
5.8521e-06
2.14372e-06
5.99694e-06
2.599e-06
6.01628e-06
3.1125e-06
5.89603e-06
3.64789e-06
5.57926e-06
4.14262e-06
4.95109e-06
4.48713e-06
3.82509e-06
4.51392e-06
1.97157e-06
4.22612e-06
3.22313e-07
3.71626e-06
-8.40716e-07
3.08938e-06
-1.71118e-06
2.39413e-06
-2.45472e-06
1.66529e-06
-3.19042e-06
8.49654e-07
-4.02051e-06
-7.12814e-08
-4.99119e-06
-1.02218e-06
-6.16494e-06
-1.76658e-06
-7.33499e-06
-2.14368e-06
-8.17405e-06
-2.07255e-06
-8.384e-06
-1.58922e-06
-7.7324e-06
-8.74122e-07
-6.12498e-06
-2.45289e-07
-3.74079e-06
-1.17756e-06
1.45308e-08
1.65674e-07
6.13401e-08
5.81646e-07
1.47161e-07
1.14084e-06
2.76553e-07
1.83952e-06
4.49913e-07
2.63868e-06
6.6449e-07
3.46176e-06
9.20299e-07
4.21107e-06
1.2227e-06
4.80474e-06
1.58145e-06
5.20638e-06
2.00576e-06
5.42779e-06
2.49886e-06
5.50384e-06
3.05306e-06
5.46208e-06
3.6464e-06
5.30269e-06
4.23927e-06
4.9864e-06
4.76581e-06
4.42454e-06
5.11603e-06
3.47488e-06
5.15264e-06
1.93497e-06
4.90455e-06
5.70396e-07
4.45335e-06
-3.89516e-07
3.88063e-06
-1.13846e-06
3.235e-06
-1.80909e-06
2.55045e-06
-2.50587e-06
1.83291e-06
-3.30297e-06
1.07367e-06
-4.23195e-06
1.98722e-07
-5.28999e-06
-6.8731e-07
-6.44896e-06
-1.35415e-06
-7.50721e-06
-1.61849e-06
-8.11967e-06
-1.42519e-06
-7.9257e-06
-8.77533e-07
-6.67263e-06
-2.72042e-07
-4.34628e-06
-1.4496e-06
1.90849e-10
1.65483e-07
7.50754e-09
5.74329e-07
3.80842e-08
1.11027e-06
1.1424e-07
1.76337e-06
2.53778e-07
2.49915e-06
4.64752e-07
3.25078e-06
7.52266e-07
3.92355e-06
1.11973e-06
4.43728e-06
1.56506e-06
4.76105e-06
2.08028e-06
4.91257e-06
2.65396e-06
4.93015e-06
3.27014e-06
4.8459e-06
3.90445e-06
4.66838e-06
4.51868e-06
4.37217e-06
5.05136e-06
3.89187e-06
5.40544e-06
3.1208e-06
5.47258e-06
1.86783e-06
5.29082e-06
7.52154e-07
4.93338e-06
-3.20758e-08
4.46101e-06
-6.66097e-07
3.90805e-06
-1.25613e-06
3.30009e-06
-1.89791e-06
2.64725e-06
-2.65012e-06
1.94767e-06
-3.53237e-06
1.18483e-06
-4.52716e-06
3.24733e-07
-5.58886e-06
-5.19177e-07
-6.6633e-06
-1.09149e-06
-7.54736e-06
-1.20285e-06
-7.81434e-06
-8.61136e-07
-7.01434e-06
-3.07041e-07
-4.90038e-06
-1.75664e-06
-2.10595e-08
1.86542e-07
-6.90258e-08
6.22296e-07
-1.10094e-07
1.15133e-06
-9.77181e-08
1.75099e-06
6.80678e-09
2.39462e-06
2.1624e-07
3.04135e-06
5.33784e-07
3.60601e-06
9.58164e-07
4.0129e-06
1.47358e-06
4.24563e-06
2.05579e-06
4.33036e-06
2.6823e-06
4.30365e-06
3.33256e-06
4.19563e-06
3.98327e-06
4.01767e-06
4.60148e-06
3.75396e-06
5.13544e-06
3.35791e-06
5.50714e-06
2.7491e-06
5.63028e-06
1.74468e-06
5.54697e-06
8.35465e-07
5.30935e-06
2.05543e-07
4.95849e-06
-3.1523e-07
4.52624e-06
-8.23886e-07
4.02332e-06
-1.39499e-06
3.44886e-06
-2.07566e-06
2.79688e-06
-2.88038e-06
2.06148e-06
-3.79176e-06
1.24322e-06
-4.7706e-06
3.51261e-07
-5.77134e-06
-4.62618e-07
-6.73348e-06
-8.97656e-07
-7.3793e-06
-8.08058e-07
-7.10394e-06
-3.47745e-07
-5.36069e-06
-2.10439e-06
-5.60896e-08
2.42632e-07
-1.78412e-07
7.44618e-07
-2.98694e-07
1.27162e-06
-3.45014e-07
1.79731e-06
-2.67526e-07
2.31713e-06
-4.3835e-08
2.81766e-06
3.13663e-07
3.24851e-06
7.93014e-07
3.53355e-06
1.36486e-06
3.67379e-06
1.99377e-06
3.70144e-06
2.6526e-06
3.64482e-06
3.32089e-06
3.52734e-06
3.97928e-06
3.35928e-06
4.60232e-06
3.13092e-06
5.1502e-06
2.81002e-06
5.56344e-06
2.33587e-06
5.76576e-06
1.54236e-06
5.78686e-06
8.14365e-07
5.67445e-06
3.17953e-07
5.45857e-06
-9.93542e-08
5.15793e-06
-5.23249e-07
4.77005e-06
-1.00711e-06
4.28264e-06
-1.58825e-06
3.68223e-06
-2.27997e-06
2.96236e-06
-3.0719e-06
2.13085e-06
-3.93908e-06
1.21381e-06
-4.85431e-06
2.67437e-07
-5.7871e-06
-4.80442e-07
-6.63143e-06
-6.94562e-07
-6.88982e-06
-3.8437e-07
-5.67088e-06
-2.48876e-06
-1.15178e-07
3.5781e-07
-3.30139e-07
9.5958e-07
-5.19984e-07
1.46146e-06
-5.95524e-07
1.87285e-06
-5.1212e-07
2.23373e-06
-2.59264e-07
2.5648e-06
1.5073e-07
2.83852e-06
6.88706e-07
2.99557e-06
1.3079e-06
3.0546e-06
1.97173e-06
3.03761e-06
2.655e-06
2.96155e-06
3.34045e-06
2.84189e-06
4.01351e-06
2.68622e-06
4.65562e-06
2.48881e-06
5.23721e-06
2.22843e-06
5.71186e-06
1.86122e-06
6.00254e-06
1.25167e-06
6.12451e-06
6.92403e-07
6.12547e-06
3.16988e-07
6.02914e-06
-3.02241e-09
5.84263e-06
-3.36741e-07
5.55516e-06
-7.19633e-07
5.14751e-06
-1.18061e-06
4.5998e-06
-1.73226e-06
3.90046e-06
-2.37256e-06
3.0543e-06
-3.09292e-06
2.08753e-06
-3.88754e-06
1.05614e-06
-4.75571e-06
8.52568e-08
-5.66054e-06
-4.85983e-07
-6.31858e-06
-3.96831e-07
-5.76004e-06
-2.88559e-06
-2.07212e-07
5.65022e-07
-5.15919e-07
1.26829e-06
-7.34114e-07
1.67966e-06
-7.83164e-07
1.9219e-06
-6.45308e-07
2.09587e-06
-3.28342e-07
2.24784e-06
1.54174e-07
2.356e-06
7.54406e-07
2.39534e-06
1.41856e-06
2.39045e-06
2.11718e-06
2.33899e-06
2.82937e-06
2.24937e-06
3.54071e-06
2.13054e-06
4.23932e-06
1.98761e-06
4.91022e-06
1.81791e-06
5.52982e-06
1.60883e-06
6.05878e-06
1.33226e-06
6.41663e-06
8.93823e-07
6.61033e-06
4.98706e-07
6.69125e-06
2.36068e-07
6.6773e-06
1.09299e-08
6.56809e-06
-2.27531e-07
6.35156e-06
-5.03104e-07
6.00673e-06
-8.35774e-07
5.51048e-06
-1.23602e-06
4.84517e-06
-1.70725e-06
4.00616e-06
-2.25391e-06
3.00864e-06
-2.89002e-06
1.89588e-06
-3.64295e-06
7.66042e-07
-4.53071e-06
-1.31558e-07
-5.42098e-06
-3.54205e-07
-5.53739e-06
-3.23979e-06
-3.25276e-07
8.90298e-07
-6.84137e-07
1.62715e-06
-8.3195e-07
1.82747e-06
-7.58546e-07
1.8485e-06
-4.94316e-07
1.83164e-06
-5.67049e-08
1.81023e-06
5.21751e-07
1.77755e-06
1.18177e-06
1.73532e-06
1.89112e-06
1.6811e-06
2.62488e-06
1.60522e-06
3.36416e-06
1.51009e-06
4.09491e-06
1.39979e-06
4.80502e-06
1.27751e-06
5.48034e-06
1.1426e-06
6.1006e-06
9.88566e-07
6.63233e-06
8.0053e-07
7.0004e-06
5.25759e-07
7.21272e-06
2.86388e-07
7.32084e-06
1.27946e-07
7.34087e-06
-9.10095e-09
7.26958e-06
-1.56246e-07
7.09505e-06
-3.2857e-07
6.79807e-06
-5.38794e-07
6.35574e-06
-7.93687e-07
5.74646e-06
-1.09796e-06
4.95459e-06
-1.46204e-06
3.97614e-06
-1.91157e-06
2.82894e-06
-2.49575e-06
1.57816e-06
-3.27993e-06
4.07759e-07
-4.25058e-06
-2.15494e-07
-4.91414e-06
-3.45529e-06
-4.43421e-07
1.33372e-06
-6.80575e-07
1.8643e-06
-5.55415e-07
1.70231e-06
-2.08055e-07
1.50114e-06
2.80508e-07
1.34308e-06
8.73443e-07
1.21729e-06
1.53637e-06
1.11462e-06
2.24337e-06
1.02832e-06
2.97347e-06
9.50997e-07
3.7059e-06
8.72798e-07
4.42381e-06
7.92175e-07
5.11381e-06
7.09795e-07
5.7646e-06
6.26714e-07
6.36466e-06
5.42535e-07
6.89929e-06
4.53935e-07
7.34516e-06
3.54664e-07
7.64723e-06
2.23686e-07
7.81926e-06
1.14358e-07
7.90604e-06
4.117e-08
7.9199e-06
-2.29566e-08
7.85718e-06
-9.35332e-08
7.70803e-06
-1.79414e-07
7.4556e-06
-2.86364e-07
7.07942e-06
-4.17515e-07
6.55766e-06
-5.76201e-07
5.86759e-06
-7.71972e-07
4.98571e-06
-1.02969e-06
3.8915e-06
-1.40154e-06
2.58823e-06
-1.97666e-06
1.18785e-06
-2.85019e-06
1.15787e-07
-3.84208e-06
-3.3395e-06
-3.75805e-07
1.70952e-06
1.83726e-08
1.47012e-06
7.26915e-07
9.93766e-07
1.43849e-06
7.89567e-07
2.13932e-06
6.42249e-07
2.83503e-06
5.21584e-07
3.5188e-06
4.3085e-07
4.18406e-06
3.63051e-07
4.82472e-06
3.10344e-07
5.43145e-06
2.66062e-07
5.99613e-06
2.27495e-07
6.51262e-06
1.93311e-07
6.97663e-06
1.62702e-07
7.38448e-06
1.34681e-07
7.73088e-06
1.07539e-07
8.00609e-06
7.94584e-08
8.18334e-06
4.64328e-08
8.27763e-06
2.00637e-08
8.31712e-06
1.68186e-09
8.30927e-06
-1.51074e-08
8.25059e-06
-3.48483e-08
8.13187e-06
-6.06935e-08
7.93952e-06
-9.4016e-08
7.65758e-06
-1.35576e-07
7.26806e-06
-1.86685e-07
6.74822e-06
-2.52126e-07
6.06425e-06
-3.45722e-07
5.1629e-06
-5.00178e-07
3.96765e-06
-7.81411e-07
2.41854e-06
-1.30109e-06
7.46302e-07
-2.16983e-06
-2.5932e-06
1.70952e-06
3.17965e-06
4.17341e-06
4.96298e-06
5.60523e-06
6.12681e-06
6.55766e-06
6.92072e-06
7.23106e-06
7.49712e-06
7.72462e-06
7.91793e-06
8.08063e-06
8.21531e-06
8.32285e-06
8.40231e-06
8.44874e-06
8.4688e-06
8.47048e-06
8.45538e-06
8.42053e-06
8.35984e-06
8.26582e-06
8.13024e-06
7.94356e-06
7.69143e-06
7.34571e-06
6.84553e-06
6.06412e-06
4.76303e-06
2.5932e-06
)
;

boundaryField
{
    movingWall
    {
        type            calculated;
        value           uniform 0;
    }
    fixedWalls
    {
        type            calculated;
        value           uniform 0;
    }
    floor
    {
        type            calculated;
        value           uniform 0;
    }
    frontAndBack
    {
        type            empty;
        value           nonuniform List<scalar> 0();
    }
}


// ************************************************************************* //
