/*--------------------------------*- C++ -*----------------------------------*\
| =========                 |                                                 |
| \\      /  F ield         | OpenFOAM: The Open Source CFD Toolbox           |
|  \\    /   O peration     | Version:  2212                                  |
|   \\  /    A nd           | Website:  www.openfoam.com                      |
|    \\/     M anipulation  |                                                 |
\*---------------------------------------------------------------------------*/
FoamFile
{
    version     2.0;
    format      ascii;
    arch        "LSB;label=64;scalar=64";
    class       volScalarField;
    location    "1490";
    object      Saa;
}
// * * * * * * * * * * * * * * * * * * * * * * * * * * * * * * * * * * * * * //

dimensions      [1 -3 0 0 0 0 0];

internalField   nonuniform List<scalar> 
1024
(
0.00546424
0.00546425
0.0054643
0.00546439
0.00546454
0.00546475
0.00546504
0.0054654
0.00546582
0.00546627
0.00546672
0.00546711
0.00546742
0.00546762
0.00546768
0.00546759
0.00546731
0.00546686
0.00546626
0.00546553
0.00546471
0.00546385
0.00546301
0.00546224
0.00546159
0.00546106
0.00546067
0.00546039
0.0054602
0.00546008
0.00546002
0.00545999
0.00546424
0.00546426
0.00546431
0.0054644
0.00546455
0.00546477
0.00546506
0.00546542
0.00546585
0.0054663
0.00546675
0.00546715
0.00546745
0.00546765
0.00546771
0.00546761
0.00546734
0.00546689
0.00546629
0.00546556
0.00546474
0.00546388
0.00546304
0.00546227
0.00546161
0.00546108
0.00546068
0.0054604
0.0054602
0.00546009
0.00546002
0.00546
0.00546426
0.00546428
0.00546433
0.00546442
0.00546458
0.0054648
0.0054651
0.00546547
0.0054659
0.00546637
0.00546683
0.00546723
0.00546753
0.00546772
0.00546778
0.00546768
0.00546741
0.00546696
0.00546636
0.00546563
0.00546481
0.00546395
0.0054631
0.00546232
0.00546165
0.00546112
0.00546071
0.00546042
0.00546022
0.0054601
0.00546003
0.00546001
0.00546429
0.00546431
0.00546436
0.00546446
0.00546462
0.00546485
0.00546516
0.00546555
0.005466
0.00546649
0.00546697
0.00546738
0.00546768
0.00546786
0.00546791
0.0054678
0.00546753
0.00546707
0.00546647
0.00546575
0.00546492
0.00546406
0.0054632
0.00546241
0.00546172
0.00546117
0.00546075
0.00546045
0.00546025
0.00546012
0.00546006
0.00546003
0.00546433
0.00546435
0.00546441
0.00546451
0.00546468
0.00546492
0.00546525
0.00546566
0.00546615
0.00546667
0.00546719
0.00546762
0.00546793
0.00546809
0.00546812
0.005468
0.00546771
0.00546725
0.00546664
0.0054659
0.00546507
0.0054642
0.00546333
0.00546252
0.00546182
0.00546125
0.00546081
0.0054605
0.00546029
0.00546016
0.00546009
0.00546006
0.0054644
0.00546443
0.00546448
0.00546459
0.00546476
0.00546502
0.00546537
0.00546582
0.00546635
0.00546694
0.00546751
0.00546798
0.0054683
0.00546844
0.00546844
0.00546829
0.00546798
0.00546749
0.00546685
0.0054661
0.00546525
0.00546436
0.00546348
0.00546265
0.00546193
0.00546134
0.00546089
0.00546056
0.00546034
0.00546021
0.00546014
0.00546011
0.00546451
0.00546453
0.00546459
0.0054647
0.00546488
0.00546515
0.00546553
0.00546603
0.00546663
0.0054673
0.00546796
0.00546849
0.00546882
0.00546894
0.0054689
0.00546871
0.00546836
0.00546782
0.00546714
0.00546634
0.00546546
0.00546454
0.00546363
0.00546279
0.00546204
0.00546144
0.00546097
0.00546064
0.00546041
0.00546027
0.0054602
0.00546017
0.00546467
0.00546469
0.00546475
0.00546486
0.00546505
0.00546534
0.00546576
0.00546631
0.005467
0.00546778
0.00546854
0.00546915
0.00546951
0.00546961
0.00546952
0.00546929
0.00546888
0.00546827
0.00546751
0.00546663
0.00546569
0.00546472
0.00546378
0.00546291
0.00546215
0.00546153
0.00546106
0.00546072
0.00546049
0.00546036
0.00546028
0.00546025
0.00546491
0.00546493
0.00546499
0.0054651
0.0054653
0.00546561
0.00546607
0.0054667
0.0054675
0.00546841
0.0054693
0.00546999
0.00547038
0.00547047
0.00547035
0.00547006
0.00546959
0.00546888
0.00546799
0.00546699
0.00546594
0.00546491
0.00546392
0.00546302
0.00546225
0.00546162
0.00546115
0.00546082
0.0054606
0.00546047
0.0054604
0.00546037
0.00546529
0.00546531
0.00546536
0.00546548
0.00546569
0.00546603
0.00546654
0.00546725
0.00546817
0.00546922
0.00547024
0.00547103
0.00547146
0.00547156
0.00547142
0.00547111
0.00547058
0.00546974
0.00546867
0.00546749
0.00546629
0.00546513
0.00546407
0.00546313
0.00546235
0.00546173
0.00546128
0.00546097
0.00546077
0.00546065
0.0054606
0.00546058
0.00546587
0.00546589
0.00546594
0.00546607
0.00546629
0.00546666
0.00546724
0.00546805
0.00546909
0.00547028
0.00547142
0.00547229
0.00547278
0.00547291
0.00547281
0.00547253
0.00547198
0.00547103
0.00546977
0.00546835
0.00546692
0.00546559
0.0054644
0.0054634
0.00546259
0.00546198
0.00546155
0.00546128
0.00546111
0.00546103
0.005461
0.00546099
0.00546674
0.00546676
0.00546682
0.00546695
0.0054672
0.00546762
0.00546827
0.00546918
0.00547035
0.00547165
0.00547289
0.00547384
0.0054744
0.00547464
0.00547468
0.00547455
0.00547409
0.00547313
0.00547173
0.00547008
0.00546839
0.00546679
0.00546539
0.00546424
0.00546335
0.00546271
0.0054623
0.00546207
0.00546196
0.00546192
0.00546192
0.00546193
0.00546795
0.00546798
0.00546805
0.00546821
0.0054685
0.00546899
0.00546973
0.00547075
0.00547203
0.00547343
0.00547474
0.00547577
0.00547647
0.00547692
0.00547726
0.00547747
0.00547734
0.00547661
0.00547534
0.00547367
0.00547181
0.00546994
0.00546822
0.00546678
0.00546566
0.00546487
0.0054644
0.00546416
0.00546407
0.00546408
0.00546411
0.00546414
0.00546949
0.00546953
0.00546962
0.00546982
0.00547018
0.00547076
0.00547162
0.00547278
0.00547418
0.00547567
0.00547705
0.0054782
0.00547913
0.00547996
0.00548077
0.00548153
0.00548201
0.00548192
0.00548124
0.00548004
0.00547846
0.00547666
0.00547481
0.00547306
0.00547156
0.00547039
0.00546959
0.00546912
0.00546891
0.00546885
0.00546886
0.00546889
0.00547119
0.00547122
0.00547133
0.00547156
0.00547197
0.00547263
0.0054736
0.00547486
0.00547635
0.00547795
0.0054795
0.00548092
0.00548224
0.00548354
0.00548489
0.00548625
0.00548743
0.00548816
0.0054884
0.00548818
0.00548752
0.00548648
0.00548515
0.00548362
0.00548206
0.0054806
0.00547938
0.00547847
0.00547788
0.00547756
0.00547742
0.00547739
0.00547281
0.00547284
0.00547295
0.00547319
0.00547362
0.0054743
0.0054753
0.00547662
0.0054782
0.00547995
0.00548171
0.00548343
0.00548508
0.00548671
0.00548833
0.0054899
0.00549128
0.00549237
0.00549321
0.00549382
0.00549419
0.00549427
0.00549405
0.00549352
0.00549273
0.00549177
0.00549076
0.00548983
0.0054891
0.00548859
0.00548831
0.0054882
0.00547411
0.00547414
0.00547424
0.00547446
0.00547486
0.00547551
0.00547646
0.00547774
0.00547932
0.00548112
0.00548299
0.00548484
0.00548658
0.00548819
0.00548962
0.00549081
0.00549169
0.00549239
0.00549311
0.0054939
0.0054947
0.00549544
0.00549605
0.00549647
0.00549668
0.00549668
0.00549649
0.00549618
0.00549585
0.00549556
0.00549537
0.00549528
0.00547499
0.00547502
0.00547511
0.0054753
0.00547565
0.00547622
0.00547708
0.00547825
0.00547973
0.00548145
0.00548328
0.0054851
0.00548678
0.00548823
0.00548936
0.0054901
0.00549045
0.00549071
0.00549119
0.00549194
0.00549288
0.00549389
0.00549485
0.00549568
0.00549634
0.00549681
0.0054971
0.00549725
0.00549728
0.00549726
0.00549723
0.00549721
0.00547555
0.00547557
0.00547565
0.00547582
0.00547612
0.00547661
0.00547734
0.00547837
0.0054797
0.00548127
0.00548299
0.00548471
0.00548629
0.0054876
0.00548854
0.00548904
0.00548914
0.00548919
0.00548954
0.00549027
0.00549132
0.00549256
0.00549382
0.00549496
0.0054959
0.00549661
0.00549709
0.00549739
0.00549755
0.00549762
0.00549765
0.00549765
0.0054759
0.00547592
0.00547599
0.00547613
0.00547638
0.00547679
0.00547742
0.0054783
0.00547946
0.00548085
0.0054824
0.00548398
0.00548544
0.00548665
0.00548751
0.00548795
0.00548803
0.00548808
0.00548841
0.00548911
0.00549017
0.00549149
0.00549292
0.00549429
0.00549548
0.00549642
0.00549708
0.00549751
0.00549775
0.00549787
0.00549792
0.00549793
0.00547613
0.00547615
0.00547621
0.00547632
0.00547653
0.00547687
0.0054774
0.00547814
0.00547913
0.00548033
0.0054817
0.00548311
0.00548444
0.00548558
0.00548643
0.00548693
0.00548715
0.00548735
0.00548776
0.00548848
0.00548953
0.00549084
0.00549232
0.0054938
0.00549514
0.00549625
0.00549707
0.00549762
0.00549795
0.00549811
0.00549817
0.00549819
0.00547635
0.00547636
0.0054764
0.00547649
0.00547665
0.00547692
0.00547735
0.00547797
0.0054788
0.00547983
0.005481
0.00548225
0.00548347
0.00548456
0.00548545
0.00548611
0.00548656
0.00548698
0.00548754
0.00548831
0.00548935
0.00549062
0.00549205
0.00549353
0.00549493
0.00549613
0.00549707
0.00549773
0.00549813
0.00549834
0.00549842
0.00549844
0.00547668
0.00547668
0.00547668
0.00547672
0.00547683
0.00547703
0.00547736
0.00547787
0.00547856
0.00547944
0.00548046
0.00548158
0.00548272
0.00548381
0.00548479
0.00548564
0.00548636
0.00548703
0.00548773
0.00548855
0.00548956
0.00549075
0.00549209
0.00549349
0.00549486
0.00549609
0.00549709
0.00549783
0.0054983
0.00549855
0.00549865
0.00549868
0.00547723
0.0054772
0.00547717
0.00547715
0.00547718
0.0054773
0.00547755
0.00547796
0.00547855
0.00547932
0.00548025
0.0054813
0.00548241
0.00548354
0.00548464
0.00548569
0.00548665
0.00548751
0.00548831
0.00548916
0.0054901
0.00549118
0.00549238
0.00549366
0.00549494
0.00549613
0.00549714
0.00549792
0.00549845
0.00549874
0.00549887
0.0054989
0.0054781
0.00547805
0.00547797
0.00547788
0.00547784
0.00547788
0.00547807
0.00547842
0.00547897
0.0054797
0.0054806
0.00548164
0.00548277
0.00548395
0.00548515
0.00548634
0.00548745
0.00548841
0.00548925
0.00549007
0.00549093
0.00549187
0.00549291
0.00549403
0.00549517
0.00549626
0.00549724
0.00549803
0.00549859
0.00549892
0.00549907
0.0054991
0.00547937
0.00547929
0.00547916
0.00547902
0.00547894
0.00547896
0.00547913
0.00547948
0.00548004
0.00548078
0.00548169
0.00548274
0.00548388
0.00548508
0.00548631
0.00548755
0.00548871
0.00548968
0.00549049
0.00549124
0.00549198
0.00549278
0.00549364
0.00549457
0.00549554
0.0054965
0.0054974
0.00549816
0.00549872
0.00549907
0.00549924
0.00549929
0.00548107
0.00548096
0.0054808
0.00548067
0.00548061
0.00548068
0.0054809
0.00548131
0.0054819
0.00548267
0.00548358
0.00548461
0.00548571
0.00548687
0.00548804
0.00548922
0.00549031
0.00549121
0.00549194
0.00549258
0.0054932
0.00549384
0.00549452
0.00549526
0.00549605
0.00549685
0.00549763
0.00549832
0.00549886
0.00549922
0.0054994
0.00549945
0.00548322
0.00548309
0.00548296
0.00548291
0.00548297
0.00548315
0.00548347
0.00548394
0.00548456
0.00548531
0.00548616
0.0054871
0.0054881
0.00548912
0.00549015
0.00549118
0.00549212
0.00549289
0.0054935
0.00549403
0.00549452
0.005495
0.00549552
0.00549608
0.00549667
0.0054973
0.00549793
0.00549852
0.00549901
0.00549935
0.00549954
0.00549959
0.00548584
0.00548573
0.0054857
0.00548581
0.00548603
0.00548634
0.00548675
0.00548724
0.00548782
0.00548848
0.00548921
0.00548999
0.0054908
0.00549163
0.00549246
0.00549328
0.00549402
0.00549462
0.0054951
0.00549549
0.00549586
0.00549621
0.00549658
0.00549697
0.00549739
0.00549785
0.00549832
0.00549878
0.00549918
0.00549948
0.00549966
0.00549972
0.00548901
0.00548896
0.00548911
0.00548938
0.00548972
0.0054901
0.0054905
0.00549093
0.0054914
0.0054919
0.00549245
0.00549302
0.00549361
0.0054942
0.00549479
0.00549537
0.00549589
0.00549631
0.00549664
0.00549692
0.00549716
0.00549739
0.00549763
0.00549789
0.00549816
0.00549846
0.00549877
0.00549909
0.00549938
0.00549962
0.00549977
0.00549982
0.00549284
0.00549293
0.0054932
0.00549351
0.00549382
0.00549412
0.00549441
0.0054947
0.005495
0.00549531
0.00549564
0.00549598
0.00549632
0.00549667
0.00549701
0.00549735
0.00549765
0.0054979
0.00549809
0.00549824
0.00549838
0.00549851
0.00549864
0.00549878
0.00549893
0.00549909
0.00549926
0.00549944
0.00549962
0.00549976
0.00549986
0.0054999
0.00549749
0.00549757
0.00549771
0.00549784
0.00549796
0.00549808
0.00549818
0.00549829
0.00549839
0.00549849
0.0054986
0.00549871
0.00549882
0.00549893
0.00549904
0.00549915
0.00549925
0.00549933
0.00549939
0.00549944
0.00549948
0.00549952
0.00549956
0.00549961
0.00549965
0.0054997
0.00549976
0.00549981
0.00549987
0.00549992
0.00549995
0.00549997
)
;

boundaryField
{
    movingWall
    {
        type            fixedValue;
        value           uniform 0.0055;
    }
    fixedWalls
    {
        type            zeroGradient;
    }
    floor
    {
        type            zeroGradient;
    }
    frontAndBack
    {
        type            empty;
    }
}


// ************************************************************************* //
