/*--------------------------------*- C++ -*----------------------------------*\
| =========                 |                                                 |
| \\      /  F ield         | OpenFOAM: The Open Source CFD Toolbox           |
|  \\    /   O peration     | Version:  2212                                  |
|   \\  /    A nd           | Website:  www.openfoam.com                      |
|    \\/     M anipulation  |                                                 |
\*---------------------------------------------------------------------------*/
FoamFile
{
    version     2.0;
    format      ascii;
    arch        "LSB;label=64;scalar=64";
    class       volScalarField;
    location    "1490";
    object      SIC;
}
// * * * * * * * * * * * * * * * * * * * * * * * * * * * * * * * * * * * * * //

dimensions      [1 -3 0 0 0 0 0];

internalField   nonuniform List<scalar> 
1024
(
0.0912209
0.0912223
0.0912257
0.0912319
0.0912417
0.0912562
0.0912757
0.0913004
0.0913292
0.0913606
0.0913918
0.0914201
0.0914429
0.0914587
0.0914664
0.0914652
0.091453
0.0914285
0.0913935
0.0913498
0.0913003
0.0912486
0.0911984
0.0911531
0.0911147
0.0910841
0.091061
0.0910446
0.0910337
0.0910269
0.0910232
0.0910217
0.0912214
0.0912228
0.0912262
0.0912325
0.0912425
0.0912572
0.091277
0.0913019
0.0913311
0.0913627
0.0913942
0.0914225
0.0914453
0.091461
0.0914686
0.0914674
0.0914552
0.0914308
0.0913958
0.0913522
0.0913026
0.0912508
0.0912004
0.0911547
0.091116
0.0910851
0.0910618
0.0910453
0.0910342
0.0910273
0.0910236
0.0910221
0.0912225
0.0912239
0.0912274
0.0912339
0.0912442
0.0912593
0.0912797
0.0913053
0.0913353
0.0913676
0.0913998
0.0914286
0.0914513
0.0914668
0.0914741
0.0914727
0.0914605
0.0914361
0.0914011
0.0913574
0.0913076
0.0912555
0.0912046
0.0911583
0.0911189
0.0910874
0.0910636
0.0910466
0.0910353
0.0910283
0.0910245
0.091023
0.0912245
0.091226
0.0912296
0.0912363
0.0912471
0.0912628
0.0912841
0.0913109
0.0913422
0.0913762
0.09141
0.0914398
0.0914627
0.0914776
0.0914843
0.0914825
0.0914701
0.0914455
0.0914101
0.0913659
0.0913157
0.0912629
0.0912113
0.091164
0.0911236
0.0910911
0.0910665
0.091049
0.0910373
0.0910301
0.0910261
0.0910245
0.0912277
0.0912292
0.091233
0.0912399
0.0912512
0.0912678
0.0912903
0.0913189
0.0913526
0.0913895
0.0914262
0.0914579
0.0914813
0.0914956
0.0915012
0.0914985
0.0914854
0.09146
0.0914235
0.0913783
0.0913271
0.0912733
0.0912204
0.0911719
0.0911301
0.0910964
0.0910707
0.0910525
0.0910402
0.0910327
0.0910287
0.091027
0.0912326
0.0912341
0.091238
0.0912452
0.091257
0.0912746
0.0912989
0.09133
0.0913673
0.0914087
0.0914499
0.0914849
0.0915094
0.0915229
0.0915269
0.0915227
0.0915084
0.0914811
0.0914425
0.091395
0.0913419
0.0912863
0.0912318
0.0911815
0.0911381
0.0911029
0.0910762
0.0910571
0.0910443
0.0910365
0.0910323
0.0910306
0.0912399
0.0912414
0.0912453
0.0912527
0.0912652
0.091284
0.0913104
0.091345
0.0913874
0.0914351
0.0914829
0.0915227
0.0915491
0.091562
0.0915642
0.0915581
0.0915416
0.0915112
0.0914683
0.0914168
0.0913601
0.0913017
0.0912448
0.0911925
0.0911473
0.0911106
0.0910827
0.0910629
0.0910497
0.0910416
0.0910374
0.0910357
0.0912507
0.0912522
0.0912561
0.0912637
0.0912768
0.091297
0.0913261
0.0913653
0.0914142
0.0914703
0.0915265
0.0915729
0.0916025
0.0916154
0.0916159
0.0916077
0.0915884
0.0915529
0.0915033
0.0914448
0.0913823
0.0913194
0.091259
0.0912041
0.091157
0.091119
0.0910903
0.09107
0.0910566
0.0910486
0.0910444
0.0910427
0.0912672
0.0912686
0.0912724
0.0912803
0.091294
0.0913159
0.0913483
0.091393
0.0914501
0.0915162
0.0915826
0.091637
0.091671
0.0916851
0.0916851
0.0916757
0.0916534
0.0916109
0.0915512
0.091482
0.0914102
0.0913402
0.0912748
0.0912166
0.0911675
0.0911285
0.0910995
0.0910793
0.0910662
0.0910586
0.0910547
0.0910533
0.0912926
0.0912939
0.0912978
0.0913059
0.0913205
0.0913445
0.0913808
0.091432
0.0914985
0.091576
0.0916536
0.0917169
0.0917567
0.0917739
0.091776
0.0917679
0.0917434
0.0916926
0.0916195
0.091535
0.0914494
0.0913686
0.0912957
0.0912328
0.0911813
0.0911416
0.0911129
0.0910937
0.0910818
0.0910753
0.0910722
0.0910712
0.0913317
0.091333
0.0913371
0.0913458
0.0913618
0.0913885
0.0914296
0.0914884
0.0915651
0.0916543
0.0917429
0.0918155
0.0918626
0.0918864
0.0918953
0.0918933
0.0918705
0.0918126
0.0917248
0.0916211
0.0915162
0.0914192
0.0913343
0.0912638
0.0912084
0.0911676
0.0911397
0.0911224
0.0911128
0.0911083
0.0911068
0.0911066
0.0913903
0.0913918
0.0913964
0.0914063
0.0914245
0.0914551
0.0915024
0.0915697
0.0916569
0.0917572
0.0918562
0.0919381
0.0919949
0.0920306
0.0920542
0.0920675
0.0920554
0.0919988
0.091902
0.0917807
0.0916529
0.0915328
0.091428
0.091343
0.0912786
0.0912338
0.0912058
0.0911905
0.0911841
0.0911829
0.0911839
0.091185
0.0914732
0.0914751
0.0914807
0.0914926
0.0915145
0.0915506
0.0916058
0.0916831
0.0917812
0.0918919
0.0920002
0.0920922
0.0921632
0.0922195
0.0922693
0.092312
0.0923284
0.0922945
0.09221
0.0920886
0.0919477
0.0918042
0.0916712
0.0915597
0.0914736
0.0914143
0.0913789
0.0913617
0.0913566
0.0913579
0.0913613
0.0913638
0.0915792
0.0915817
0.091589
0.0916043
0.0916317
0.0916763
0.0917426
0.0918326
0.091943
0.0920637
0.092181
0.0922853
0.0923768
0.0924633
0.0925516
0.0926398
0.0927085
0.0927302
0.0926979
0.0926186
0.0925029
0.0923646
0.0922186
0.0920798
0.0919592
0.0918657
0.0918016
0.0917642
0.091747
0.0917424
0.0917436
0.0917458
0.091696
0.0916991
0.0917078
0.0917259
0.0917583
0.0918099
0.091885
0.0919846
0.0921045
0.0922356
0.092367
0.0924924
0.0926132
0.0927362
0.0928664
0.0930037
0.0931326
0.0932284
0.0932814
0.0932912
0.0932588
0.0931879
0.0930859
0.0929636
0.0928349
0.0927134
0.0926105
0.0925333
0.092483
0.0924554
0.0924434
0.0924403
0.0918067
0.0918098
0.091819
0.0918381
0.0918721
0.0919263
0.0920048
0.0921089
0.0922354
0.0923766
0.0925229
0.092668
0.0928111
0.0929553
0.0931032
0.0932553
0.0934035
0.0935374
0.0936549
0.0937531
0.093825
0.0938645
0.0938679
0.093836
0.0937738
0.093691
0.0936007
0.0935165
0.0934487
0.0934021
0.0933759
0.0933656
0.0918917
0.0918948
0.0919035
0.0919214
0.0919534
0.0920044
0.0920791
0.0921794
0.0923035
0.092445
0.0925945
0.0927433
0.0928858
0.0930196
0.0931426
0.093254
0.0933543
0.0934578
0.0935775
0.0937115
0.0938479
0.0939734
0.0940764
0.0941496
0.0941899
0.0941989
0.0941825
0.0941502
0.094113
0.0940806
0.0940589
0.0940489
0.0919446
0.0919474
0.0919553
0.0919713
0.0919994
0.0920445
0.0921108
0.0922012
0.092315
0.092447
0.0925884
0.0927284
0.0928578
0.092969
0.0930563
0.0931171
0.0931583
0.0932125
0.0933074
0.0934449
0.0936115
0.0937875
0.0939536
0.0940952
0.0942042
0.0942784
0.0943208
0.0943377
0.0943375
0.0943294
0.0943205
0.0943154
0.0919732
0.0919759
0.0919829
0.0919969
0.0920212
0.0920598
0.0921169
0.0921954
0.0922955
0.0924136
0.0925416
0.0926688
0.092784
0.0928774
0.0929413
0.0929726
0.0929817
0.0930073
0.0930813
0.0932118
0.0933907
0.0935991
0.0938125
0.0940079
0.0941693
0.0942894
0.0943689
0.0944139
0.0944338
0.0944383
0.0944363
0.0944337
0.091987
0.0919894
0.0919957
0.0920078
0.0920286
0.0920613
0.0921097
0.0921764
0.0922625
0.0923651
0.0924778
0.0925908
0.0926933
0.092775
0.0928282
0.0928507
0.0928542
0.092875
0.0929408
0.093062
0.0932368
0.0934534
0.0936902
0.0939217
0.0941253
0.0942865
0.0944005
0.0944712
0.0945078
0.0945216
0.0945235
0.094522
0.0919944
0.0919964
0.0920015
0.0920116
0.0920288
0.0920562
0.0920966
0.0921527
0.0922253
0.0923127
0.0924099
0.0925089
0.0926003
0.0926755
0.0927281
0.0927573
0.0927748
0.092809
0.0928798
0.0929975
0.0931642
0.0933745
0.0936136
0.0938597
0.0940883
0.0942797
0.0944232
0.094518
0.0945712
0.0945944
0.0946004
0.0945998
0.0920057
0.0920067
0.0920098
0.0920168
0.0920296
0.0920511
0.0920839
0.0921302
0.0921908
0.0922646
0.0923479
0.0924351
0.0925191
0.0925935
0.0926541
0.0927018
0.0927457
0.0928032
0.0928868
0.0930056
0.0931644
0.0933622
0.0935903
0.0938328
0.0940689
0.0942773
0.0944423
0.0945576
0.0946267
0.0946598
0.09467
0.0946704
0.0920338
0.0920332
0.0920329
0.0920347
0.0920413
0.0920555
0.0920801
0.0921173
0.092168
0.0922314
0.0923054
0.0923861
0.092469
0.0925498
0.092626
0.0926996
0.0927752
0.0928584
0.0929556
0.0930755
0.0932248
0.0934063
0.0936161
0.0938434
0.0940723
0.094284
0.0944611
0.0945922
0.0946755
0.0947183
0.0947333
0.0947349
0.0920934
0.0920901
0.0920846
0.0920792
0.0920774
0.0920829
0.0920993
0.0921291
0.0921735
0.0922323
0.0923041
0.0923862
0.0924757
0.0925694
0.0926658
0.0927666
0.0928712
0.0929753
0.0930817
0.0931994
0.0933362
0.0934976
0.0936838
0.0938886
0.0941003
0.094304
0.0944832
0.0946237
0.0947185
0.0947705
0.0947906
0.0947936
0.0921973
0.0921904
0.0921785
0.092165
0.0921546
0.0921524
0.0921629
0.0921895
0.0922337
0.0922952
0.0923725
0.0924632
0.0925644
0.0926733
0.0927883
0.0929106
0.0930348
0.0931506
0.0932591
0.0933697
0.0934909
0.0936294
0.0937882
0.0939652
0.0941528
0.0943398
0.0945119
0.0946546
0.094757
0.094817
0.0948422
0.0948469
0.0923548
0.0923439
0.0923257
0.0923061
0.0922911
0.0922866
0.0922977
0.092328
0.0923787
0.0924488
0.092536
0.0926373
0.0927493
0.0928692
0.092995
0.0931275
0.0932586
0.0933752
0.0934782
0.0935772
0.0936805
0.093795
0.093925
0.0940712
0.0942298
0.0943933
0.0945506
0.094688
0.0947929
0.0948586
0.0948886
0.0948951
0.0925714
0.0925565
0.0925351
0.0925158
0.0925052
0.092508
0.0925283
0.0925689
0.0926298
0.0927092
0.0928041
0.092911
0.0930266
0.093148
0.0932732
0.0934028
0.0935279
0.0936357
0.0937271
0.0938112
0.0938955
0.0939864
0.0940883
0.0942033
0.0943305
0.0944658
0.0946018
0.0947268
0.0948282
0.0948962
0.09493
0.0949385
0.0928502
0.0928328
0.0928148
0.0928064
0.0928115
0.0928311
0.0928663
0.0929187
0.0929873
0.0930701
0.0931645
0.0932675
0.093376
0.0934876
0.0936008
0.0937157
0.0938248
0.0939166
0.0939923
0.0940598
0.0941254
0.0941942
0.0942703
0.0943562
0.0944523
0.0945574
0.0946672
0.0947736
0.0948652
0.0949312
0.0949668
0.094977
0.0931954
0.0931796
0.0931753
0.0931885
0.0932161
0.0932544
0.0933025
0.0933607
0.0934284
0.0935048
0.0935883
0.0936767
0.093768
0.0938603
0.0939526
0.0940449
0.0941313
0.0942031
0.0942612
0.0943118
0.0943597
0.0944089
0.0944624
0.0945225
0.0945902
0.0946657
0.0947472
0.0948302
0.0949063
0.094965
0.0949996
0.095011
0.0936162
0.0936101
0.093629
0.0936651
0.093709
0.0937565
0.0938064
0.0938592
0.0939156
0.0939758
0.0940395
0.0941054
0.0941725
0.0942395
0.0943058
0.0943715
0.0944324
0.0944825
0.0945226
0.094557
0.094589
0.0946211
0.0946556
0.094694
0.0947374
0.0947862
0.0948402
0.0948975
0.0949532
0.0949996
0.0950294
0.0950406
0.0941304
0.0941427
0.0941788
0.0942196
0.0942603
0.0942992
0.0943363
0.0943726
0.094409
0.0944465
0.0944852
0.0945248
0.0945646
0.0946041
0.094643
0.0946813
0.0947165
0.0947454
0.0947683
0.0947878
0.0948057
0.0948234
0.0948422
0.0948629
0.0948863
0.0949127
0.0949422
0.0949744
0.0950072
0.0950365
0.0950573
0.0950661
0.0947593
0.094769
0.0947876
0.0948055
0.0948219
0.0948369
0.0948506
0.0948634
0.0948758
0.0948884
0.0949011
0.0949141
0.0949271
0.0949399
0.0949525
0.0949649
0.0949762
0.0949855
0.0949928
0.094999
0.0950047
0.0950103
0.0950161
0.0950225
0.0950298
0.0950379
0.095047
0.095057
0.0950675
0.0950773
0.0950848
0.0950884
)
;

boundaryField
{
    movingWall
    {
        type            fixedValue;
        value           uniform 0.0951;
    }
    fixedWalls
    {
        type            zeroGradient;
    }
    floor
    {
        type            zeroGradient;
    }
    frontAndBack
    {
        type            empty;
    }
}


// ************************************************************************* //
