/*--------------------------------*- C++ -*----------------------------------*\
| =========                 |                                                 |
| \\      /  F ield         | OpenFOAM: The Open Source CFD Toolbox           |
|  \\    /   O peration     | Version:  2212                                  |
|   \\  /    A nd           | Website:  www.openfoam.com                      |
|    \\/     M anipulation  |                                                 |
\*---------------------------------------------------------------------------*/
FoamFile
{
    version     2.0;
    format      ascii;
    arch        "LSB;label=64;scalar=64";
    class       volScalarField;
    location    "1490";
    object      Xli;
}
// * * * * * * * * * * * * * * * * * * * * * * * * * * * * * * * * * * * * * //

dimensions      [1 -3 0 0 0 0 0];

internalField   nonuniform List<scalar> 
1024
(
0.0423146
0.0423151
0.0423164
0.0423187
0.0423225
0.042328
0.0423354
0.0423448
0.0423557
0.0423675
0.0423793
0.0423899
0.0423983
0.042404
0.0424064
0.0424054
0.0423999
0.0423898
0.0423758
0.0423585
0.0423389
0.0423184
0.0422984
0.0422803
0.042265
0.0422527
0.0422435
0.0422369
0.0422325
0.0422298
0.0422283
0.0422277
0.0423147
0.0423153
0.0423166
0.042319
0.0423228
0.0423284
0.0423359
0.0423454
0.0423564
0.0423683
0.0423802
0.0423908
0.0423992
0.0424048
0.0424073
0.0424062
0.0424007
0.0423907
0.0423767
0.0423593
0.0423397
0.0423192
0.0422992
0.042281
0.0422655
0.0422531
0.0422438
0.0422371
0.0422327
0.0422299
0.0422284
0.0422278
0.0423152
0.0423157
0.042317
0.0423195
0.0423234
0.0423292
0.0423369
0.0423466
0.042358
0.0423702
0.0423823
0.042393
0.0424014
0.0424069
0.0424093
0.0424081
0.0424027
0.0423926
0.0423786
0.0423613
0.0423416
0.042321
0.0423008
0.0422823
0.0422666
0.042254
0.0422445
0.0422377
0.0422331
0.0422303
0.0422288
0.0422281
0.0423159
0.0423165
0.0423179
0.0423204
0.0423245
0.0423305
0.0423386
0.0423487
0.0423606
0.0423734
0.042386
0.0423971
0.0424055
0.0424109
0.042413
0.0424116
0.0424061
0.0423959
0.0423818
0.0423644
0.0423446
0.0423238
0.0423033
0.0422845
0.0422684
0.0422554
0.0422456
0.0422385
0.0422338
0.0422309
0.0422294
0.0422287
0.0423171
0.0423177
0.0423191
0.0423218
0.0423261
0.0423324
0.0423409
0.0423517
0.0423644
0.0423783
0.042392
0.0424038
0.0424124
0.0424174
0.0424191
0.0424173
0.0424116
0.0424011
0.0423866
0.0423688
0.0423488
0.0423276
0.0423067
0.0422875
0.0422708
0.0422574
0.0422472
0.0422398
0.0422349
0.0422319
0.0422303
0.0422296
0.042319
0.0423196
0.042321
0.0423238
0.0423283
0.042335
0.0423441
0.0423559
0.0423699
0.0423854
0.0424008
0.0424138
0.0424227
0.0424273
0.0424283
0.042426
0.0424197
0.0424086
0.0423933
0.0423748
0.042354
0.0423323
0.0423109
0.042291
0.0422738
0.0422598
0.0422492
0.0422415
0.0422364
0.0422333
0.0422316
0.0422309
0.0423218
0.0423223
0.0423238
0.0423267
0.0423314
0.0423385
0.0423485
0.0423615
0.0423774
0.0423952
0.042413
0.0424277
0.0424372
0.0424415
0.0424417
0.0424385
0.0424313
0.042419
0.0424023
0.0423823
0.0423604
0.0423378
0.0423155
0.042295
0.0422771
0.0422626
0.0422516
0.0422436
0.0422384
0.0422352
0.0422334
0.0422328
0.0423259
0.0423265
0.0423279
0.0423308
0.0423358
0.0423434
0.0423544
0.0423691
0.0423874
0.0424083
0.0424291
0.0424461
0.0424566
0.0424608
0.0424602
0.042456
0.0424477
0.0424334
0.0424143
0.0423919
0.042368
0.0423438
0.0423204
0.042299
0.0422805
0.0422656
0.0422542
0.0422462
0.0422408
0.0422376
0.0422359
0.0422353
0.0423322
0.0423327
0.0423342
0.0423371
0.0423423
0.0423505
0.0423627
0.0423795
0.0424008
0.0424253
0.0424498
0.0424696
0.0424815
0.0424859
0.0424848
0.0424799
0.0424702
0.0424534
0.0424305
0.0424044
0.0423772
0.0423506
0.0423255
0.0423031
0.042284
0.0422688
0.0422573
0.0422494
0.0422442
0.0422411
0.0422396
0.042239
0.0423419
0.0423424
0.0423438
0.0423469
0.0423524
0.0423613
0.0423749
0.0423941
0.0424188
0.0424475
0.0424759
0.0424987
0.0425125
0.0425177
0.042517
0.0425122
0.0425015
0.0424814
0.0424537
0.0424221
0.0423901
0.0423598
0.0423321
0.0423082
0.0422884
0.042273
0.0422619
0.0422543
0.0422496
0.0422469
0.0422457
0.0422452
0.0423568
0.0423573
0.0423588
0.042362
0.042368
0.042378
0.0423933
0.0424152
0.0424436
0.0424764
0.0425086
0.0425345
0.0425506
0.0425577
0.0425591
0.0425562
0.0425457
0.0425228
0.0424897
0.0424513
0.0424124
0.0423765
0.0423448
0.0423182
0.0422973
0.0422817
0.042271
0.0422642
0.0422604
0.0422585
0.0422579
0.0422577
0.0423791
0.0423796
0.0423813
0.042385
0.0423917
0.0424031
0.0424206
0.0424455
0.0424776
0.0425143
0.04255
0.0425788
0.042598
0.0426091
0.0426153
0.0426176
0.0426105
0.0425879
0.0425514
0.0425065
0.0424596
0.0424155
0.0423769
0.0423455
0.0423215
0.0423048
0.0422941
0.0422883
0.0422857
0.0422851
0.0422853
0.0422857
0.0424105
0.0424112
0.0424133
0.0424176
0.0424257
0.042439
0.0424594
0.0424877
0.0425236
0.0425636
0.0426023
0.0426344
0.0426584
0.0426765
0.0426919
0.0427045
0.0427074
0.0426926
0.0426602
0.0426152
0.0425635
0.0425112
0.0424628
0.0424221
0.0423907
0.042369
0.0423559
0.0423495
0.0423475
0.0423478
0.042349
0.0423499
0.0424506
0.0424515
0.0424542
0.0424598
0.0424698
0.0424861
0.0425103
0.0425431
0.042583
0.0426264
0.0426679
0.0427042
0.0427353
0.0427643
0.0427935
0.0428223
0.0428437
0.0428484
0.0428342
0.0428038
0.042761
0.0427106
0.0426577
0.0426076
0.0425642
0.0425305
0.0425075
0.042494
0.0424878
0.0424861
0.0424865
0.0424873
0.0424948
0.0424959
0.042499
0.0425056
0.0425173
0.0425361
0.0425633
0.0425994
0.0426426
0.0426895
0.0427361
0.0427799
0.0428218
0.042864
0.0429085
0.0429549
0.0429975
0.0430279
0.0430433
0.0430438
0.0430299
0.043003
0.0429658
0.0429217
0.0428758
0.0428326
0.0427961
0.0427688
0.042751
0.0427412
0.042737
0.0427359
0.0425367
0.0425379
0.0425411
0.042548
0.0425603
0.0425799
0.0426083
0.042646
0.0426916
0.0427423
0.0427945
0.0428459
0.0428963
0.0429467
0.042998
0.0430499
0.0430991
0.0431422
0.043179
0.043209
0.0432302
0.0432409
0.0432398
0.0432272
0.0432047
0.0431755
0.043144
0.0431148
0.0430913
0.0430752
0.0430662
0.0430627
0.0425695
0.0425705
0.0425736
0.0425801
0.0425916
0.04261
0.0426371
0.0426735
0.0427185
0.0427697
0.0428237
0.0428771
0.0429282
0.0429758
0.0430191
0.0430574
0.0430903
0.0431223
0.0431587
0.0431991
0.0432404
0.0432783
0.0433095
0.0433315
0.0433435
0.0433457
0.0433399
0.0433292
0.0433169
0.0433063
0.0432992
0.0432959
0.0425905
0.0425915
0.0425942
0.0425999
0.04261
0.0426263
0.0426505
0.0426834
0.0427249
0.0427731
0.0428246
0.0428757
0.0429229
0.0429634
0.0429952
0.0430169
0.0430302
0.0430461
0.043074
0.0431151
0.0431651
0.0432181
0.0432681
0.0433109
0.0433439
0.0433667
0.0433799
0.0433854
0.0433857
0.0433835
0.043381
0.0433795
0.0426025
0.0426034
0.0426059
0.0426109
0.0426196
0.0426335
0.0426543
0.042683
0.0427198
0.0427632
0.0428103
0.0428573
0.0429
0.0429349
0.0429591
0.0429713
0.0429744
0.0429813
0.0430028
0.0430419
0.043096
0.0431591
0.0432236
0.0432826
0.0433313
0.0433676
0.0433917
0.0434057
0.0434121
0.0434139
0.0434136
0.043413
0.042609
0.0426099
0.042612
0.0426163
0.0426237
0.0426355
0.0426532
0.0426777
0.0427093
0.0427473
0.0427891
0.0428313
0.0428698
0.0429009
0.0429217
0.0429312
0.0429327
0.0429383
0.0429576
0.0429942
0.0430473
0.0431132
0.0431851
0.0432552
0.0433166
0.0433652
0.0433996
0.043421
0.0434323
0.0434368
0.0434377
0.0434374
0.0426129
0.0426136
0.0426154
0.0426189
0.0426251
0.042635
0.0426497
0.0426703
0.0426971
0.0427296
0.0427659
0.0428031
0.0428377
0.0428666
0.0428871
0.0428988
0.042905
0.0429153
0.0429366
0.0429725
0.0430235
0.0430877
0.0431606
0.0432352
0.0433043
0.043362
0.0434051
0.0434337
0.0434499
0.0434571
0.0434592
0.0434592
0.0426177
0.042618
0.0426192
0.0426216
0.0426263
0.0426341
0.0426461
0.0426631
0.0426856
0.0427131
0.0427443
0.0427771
0.0428088
0.042837
0.04286
0.0428776
0.0428926
0.0429107
0.0429365
0.042973
0.0430219
0.0430826
0.0431524
0.0432261
0.0432975
0.0433603
0.0434099
0.0434445
0.0434653
0.0434754
0.0434787
0.043479
0.0426276
0.0426274
0.0426274
0.0426282
0.0426307
0.0426361
0.0426452
0.042659
0.0426778
0.0427013
0.0427289
0.0427589
0.0427896
0.0428194
0.0428471
0.042873
0.0428983
0.0429249
0.0429554
0.0429927
0.0430389
0.0430948
0.0431592
0.0432284
0.0432977
0.0433616
0.0434147
0.043454
0.043479
0.0434919
0.0434966
0.0434972
0.0426473
0.0426463
0.0426446
0.0426431
0.0426429
0.0426453
0.0426516
0.0426627
0.042679
0.0427005
0.0427267
0.0427565
0.0427886
0.042822
0.0428558
0.0428902
0.0429248
0.0429584
0.0429921
0.043029
0.0430716
0.0431215
0.0431787
0.0432412
0.0433055
0.0433669
0.0434207
0.0434627
0.043491
0.0435066
0.0435128
0.0435138
0.042681
0.0426788
0.0426751
0.0426709
0.042668
0.0426678
0.0426721
0.0426819
0.0426978
0.0427196
0.0427469
0.0427787
0.0428139
0.0428516
0.0428909
0.042932
0.0429728
0.0430102
0.0430448
0.0430797
0.0431176
0.0431606
0.0432095
0.0432636
0.0433206
0.043377
0.0434287
0.0434714
0.0435019
0.0435198
0.0435274
0.0435289
0.0427316
0.0427281
0.0427224
0.0427163
0.0427118
0.0427109
0.0427151
0.0427259
0.0427434
0.0427675
0.0427974
0.0428319
0.04287
0.0429106
0.0429529
0.0429969
0.0430399
0.0430776
0.0431106
0.0431419
0.0431743
0.04321
0.0432501
0.0432949
0.0433431
0.0433925
0.0434398
0.0434808
0.043512
0.0435316
0.0435406
0.0435426
0.0428007
0.042796
0.0427893
0.0427833
0.0427801
0.0427814
0.0427885
0.0428022
0.0428227
0.0428493
0.0428811
0.0429169
0.0429555
0.042996
0.0430377
0.0430805
0.0431214
0.0431563
0.0431856
0.0432123
0.0432389
0.0432672
0.0432987
0.043334
0.0433728
0.0434137
0.0434546
0.0434919
0.0435221
0.0435422
0.0435523
0.0435548
0.0428894
0.0428839
0.0428782
0.0428757
0.0428775
0.042884
0.0428957
0.0429129
0.0429355
0.0429628
0.042994
0.043028
0.0430639
0.0431009
0.0431382
0.0431761
0.0432116
0.0432414
0.0432657
0.0432872
0.043308
0.0433295
0.0433531
0.0433795
0.0434088
0.0434406
0.0434736
0.0435054
0.0435327
0.0435522
0.0435627
0.0435657
0.0429989
0.0429939
0.0429926
0.0429968
0.0430057
0.043018
0.0430336
0.0430525
0.0430746
0.0430995
0.0431268
0.0431558
0.0431858
0.0432162
0.0432466
0.0432769
0.0433051
0.0433283
0.043347
0.0433632
0.0433784
0.0433938
0.0434104
0.0434289
0.0434496
0.0434725
0.043497
0.0435219
0.0435444
0.0435618
0.0435719
0.0435753
0.043132
0.0431301
0.0431361
0.0431476
0.0431616
0.0431767
0.0431927
0.0432097
0.043228
0.0432475
0.0432682
0.0432898
0.0433117
0.0433337
0.0433555
0.043377
0.0433969
0.0434131
0.0434261
0.0434371
0.0434472
0.0434573
0.043468
0.0434799
0.0434931
0.043508
0.0435243
0.0435414
0.0435579
0.0435716
0.0435803
0.0435836
0.0432944
0.0432983
0.0433097
0.0433226
0.0433355
0.0433479
0.0433598
0.0433714
0.0433831
0.0433952
0.0434078
0.0434207
0.0434337
0.0434467
0.0434594
0.0434719
0.0434834
0.0434928
0.0435002
0.0435065
0.0435121
0.0435177
0.0435236
0.04353
0.0435371
0.0435452
0.0435541
0.0435637
0.0435734
0.0435821
0.0435881
0.0435907
0.0434927
0.0434958
0.0435017
0.0435073
0.0435125
0.0435173
0.0435216
0.0435257
0.0435297
0.0435338
0.0435379
0.0435421
0.0435464
0.0435506
0.0435547
0.0435587
0.0435624
0.0435655
0.0435678
0.0435698
0.0435716
0.0435734
0.0435752
0.0435772
0.0435794
0.0435819
0.0435846
0.0435876
0.0435907
0.0435936
0.0435958
0.0435969
)
;

boundaryField
{
    movingWall
    {
        type            fixedValue;
        value           uniform 0.0436;
    }
    fixedWalls
    {
        type            zeroGradient;
    }
    floor
    {
        type            zeroGradient;
    }
    frontAndBack
    {
        type            empty;
    }
}


// ************************************************************************* //
