/*--------------------------------*- C++ -*----------------------------------*\
| =========                 |                                                 |
| \\      /  F ield         | OpenFOAM: The Open Source CFD Toolbox           |
|  \\    /   O peration     | Version:  2206                                  |
|   \\  /    A nd           | Website:  www.openfoam.com                      |
|    \\/     M anipulation  |                                                 |
\*---------------------------------------------------------------------------*/
FoamFile
{
    version     2.0;
    format      ascii;
    arch        "LSB;label=64;scalar=64";
    class       surfaceScalarField;
    location    "18";
    object      phi;
}
// * * * * * * * * * * * * * * * * * * * * * * * * * * * * * * * * * * * * * //

dimensions      [0 3 -1 0 0 0 0];

oriented        oriented;

internalField   nonuniform List<scalar> 
1984
(
3.75973e-12
-3.76694e-12
1.46457e-12
2.29488e-12
-1.58477e-11
1.73119e-11
-5.34413e-11
3.75931e-11
-1.13341e-10
5.98997e-11
-1.95086e-10
8.17443e-11
-2.96632e-10
1.01545e-10
-4.15568e-10
1.18936e-10
-5.50016e-10
1.34447e-10
-6.98484e-10
1.48467e-10
-8.58742e-10
1.60257e-10
-1.02634e-09
1.67599e-10
-1.19313e-09
1.66787e-10
-1.34553e-09
1.52398e-10
-1.46276e-09
1.17231e-10
-1.5145e-09
5.17437e-11
-1.47359e-09
-4.09169e-11
-1.36367e-09
-1.09921e-10
-1.21494e-09
-1.48735e-10
-1.04885e-09
-1.66089e-10
-8.7989e-10
-1.68958e-10
-7.17049e-10
-1.62842e-10
-5.65417e-10
-1.51634e-10
-4.27679e-10
-1.37739e-10
-3.05633e-10
-1.22047e-10
-2.0135e-10
-1.04284e-10
-1.17343e-10
-8.40084e-11
-5.56961e-11
-6.16476e-11
-1.68808e-11
-3.88164e-11
1.14012e-12
-1.80218e-11
3.74644e-12
-2.60718e-12
3.74613e-12
-2.2834e-12
-1.48378e-12
-2.72213e-11
2.72324e-11
-9.51513e-11
8.52414e-11
-2.21259e-10
1.637e-10
-4.14231e-10
2.52872e-10
-6.75642e-10
3.43154e-10
-1.0014e-09
4.27304e-10
-1.38498e-09
5.02514e-10
-1.82033e-09
5.69796e-10
-2.30201e-09
6.30148e-10
-2.82216e-09
6.80399e-10
-3.36591e-09
7.11355e-10
-3.90651e-09
7.07379e-10
-4.39978e-09
6.45666e-10
-4.77801e-09
4.95464e-10
-4.94326e-09
2.16992e-10
-4.80931e-09
-1.74865e-10
-4.4523e-09
-4.66933e-10
-3.96972e-09
-6.31318e-10
-3.43124e-09
-7.04571e-10
-2.88364e-09
-7.16564e-10
-2.35609e-09
-6.90396e-10
-1.86531e-09
-6.4242e-10
-1.42049e-09
-5.82561e-10
-1.02796e-09
-5.14575e-10
-6.94331e-10
-4.37915e-10
-4.26423e-10
-3.51918e-10
-2.2843e-10
-2.59642e-10
-9.87578e-11
-1.6849e-10
-2.85932e-11
-8.81878e-11
-2.58357e-12
-2.86179e-11
1.16227e-12
-1.72787e-11
1.57947e-11
-8.5211e-11
9.51643e-11
-2.28584e-10
2.28614e-10
-4.7084e-10
4.05955e-10
-8.28362e-10
6.10394e-10
-1.30714e-09
8.21931e-10
-1.9032e-09
1.02337e-09
-2.60689e-09
1.2062e-09
-3.40769e-09
1.3706e-09
-4.29507e-09
1.51753e-09
-5.25371e-09
1.63905e-09
-6.25564e-09
1.71328e-09
-7.25105e-09
1.70279e-09
-8.15835e-09
1.55297e-09
-8.85253e-09
1.18965e-09
-9.1536e-09
5.18055e-10
-8.9046e-09
-4.23864e-10
-8.24577e-09
-1.12576e-09
-7.35632e-09
-1.52077e-09
-6.36451e-09
-1.69638e-09
-5.35627e-09
-1.7248e-09
-4.38538e-09
-1.66129e-09
-3.48293e-09
-1.54487e-09
-2.66644e-09
-1.39905e-09
-1.94795e-09
-1.23307e-09
-1.33888e-09
-1.04699e-09
-8.49366e-10
-8.41434e-10
-4.83518e-10
-6.25492e-10
-2.35265e-10
-4.16745e-10
-8.79915e-11
-2.35462e-10
-1.79337e-11
-9.86768e-11
-1.67717e-11
-3.76e-11
5.33944e-11
-1.63989e-10
2.21553e-10
-4.06812e-10
4.71436e-10
-7.94639e-10
7.93782e-10
-1.35004e-09
1.1658e-09
-2.08387e-09
1.55575e-09
-2.99382e-09
1.93331e-09
-4.06851e-09
2.28089e-09
-5.29343e-09
2.59552e-09
-6.65233e-09
2.87643e-09
-8.12093e-09
3.10764e-09
-9.65552e-09
3.24787e-09
-1.11793e-08
3.22653e-09
-1.25668e-08
2.94051e-09
-1.36265e-08
2.24938e-09
-1.40833e-08
9.74848e-10
-1.36987e-08
-8.08542e-10
-1.26879e-08
-2.13651e-09
-1.13251e-08
-2.88355e-09
-9.80643e-09
-3.21509e-09
-8.26314e-09
-3.26809e-09
-6.77765e-09
-3.14679e-09
-5.39793e-09
-2.92459e-09
-4.15136e-09
-2.64562e-09
-3.05625e-09
-2.32818e-09
-2.12838e-09
-1.97487e-09
-1.37975e-09
-1.59006e-09
-8.12822e-10
-1.19242e-09
-4.16599e-10
-8.1297e-10
-1.68186e-10
-4.83876e-10
-3.86444e-11
-2.2822e-10
-5.54163e-11
-6.02078e-11
1.13602e-10
-2.54652e-10
4.15996e-10
-6.15062e-10
8.31846e-10
-1.17377e-09
1.35249e-09
-1.95732e-09
1.94936e-09
-2.98006e-09
2.57849e-09
-4.24143e-09
3.19468e-09
-5.72928e-09
3.76873e-09
-7.4259e-09
4.29214e-09
-9.3093e-09
4.75982e-09
-1.13452e-08
5.14355e-09
-1.34722e-08
5.37485e-09
-1.5583e-08
5.33736e-09
-1.75035e-08
4.861e-09
-1.89681e-08
3.71394e-09
-1.95962e-08
1.60294e-09
-1.90591e-08
-1.34562e-09
-1.76563e-08
-3.53929e-09
-1.57671e-08
-4.7728e-09
-1.36626e-08
-5.31956e-09
-1.15246e-08
-5.40603e-09
-9.46741e-09
-5.20403e-09
-7.55778e-09
-4.83423e-09
-5.83387e-09
-4.36953e-09
-4.32032e-09
-3.84174e-09
-3.03639e-09
-3.25879e-09
-1.99503e-09
-2.63142e-09
-1.19695e-09
-1.9905e-09
-6.27605e-10
-1.38232e-09
-2.60053e-10
-8.51429e-10
-6.15536e-11
-4.26721e-10
-1.1697e-10
-8.29943e-11
1.96596e-10
-3.49207e-10
6.82209e-10
-8.37232e-10
1.31987e-09
-1.58394e-09
2.09919e-09
-2.61872e-09
2.98414e-09
-3.95751e-09
3.91728e-09
-5.60017e-09
4.83734e-09
-7.53358e-09
5.70214e-09
-9.73732e-09
6.49588e-09
-1.21839e-08
7.20644e-09
-1.48287e-08
7.78835e-09
-1.75911e-08
8.13725e-09
-2.03312e-08
8.07739e-09
-2.28222e-08
7.35201e-09
-2.47195e-08
5.61125e-09
-2.55301e-08
2.41354e-09
-2.4829e-08
-2.04671e-09
-2.3006e-08
-5.3623e-09
-2.05525e-08
-7.22625e-09
-1.78201e-08
-8.05199e-09
-1.50445e-08
-8.18168e-09
-1.2374e-08
-7.87454e-09
-9.89572e-09
-7.31248e-09
-7.6591e-09
-6.60615e-09
-5.69472e-09
-5.80612e-09
-4.02493e-09
-4.92858e-09
-2.66377e-09
-3.99258e-09
-1.61156e-09
-3.04271e-09
-8.52111e-10
-2.14177e-09
-3.55567e-10
-1.34797e-09
-8.45572e-11
-6.97731e-10
-2.01527e-10
-1.05026e-10
3.01621e-10
-4.43189e-10
1.02037e-09
-1.06285e-09
1.93953e-09
-2.00767e-09
3.04401e-09
-3.31044e-09
4.28691e-09
-4.98764e-09
5.59448e-09
-7.03779e-09
6.88749e-09
-9.44549e-09
8.10984e-09
-1.21872e-08
9.23755e-09
-1.52299e-08
1.02492e-08
-1.85183e-08
1.10768e-08
-2.19518e-08
1.15707e-08
-2.53556e-08
1.14812e-08
-2.84479e-08
1.04443e-08
-3.0801e-08
7.96439e-09
-3.18042e-08
3.41677e-09
-3.09313e-08
-2.91967e-09
-2.86665e-08
-7.62707e-09
-2.56189e-08
-1.02738e-08
-2.22242e-08
-1.14468e-08
-1.87749e-08
-1.16309e-08
-1.54558e-08
-1.11937e-08
-1.23752e-08
-1.0393e-08
-9.59424e-09
-9.38712e-09
-7.14954e-09
-8.25082e-09
-5.06703e-09
-7.01109e-09
-3.36323e-09
-5.69639e-09
-2.03983e-09
-4.36612e-09
-1.08003e-09
-3.10157e-09
-4.50452e-10
-1.97756e-09
-1.06783e-10
-1.0414e-09
-3.08311e-10
-1.26997e-10
4.28617e-10
-5.3834e-10
1.43171e-09
-1.29447e-09
2.69566e-09
-2.44842e-09
4.19796e-09
-4.03831e-09
5.8768e-09
-6.08143e-09
7.63761e-09
-8.57381e-09
9.37987e-09
-1.1496e-08
1.1032e-08
-1.48198e-08
1.25614e-08
-1.85062e-08
1.39356e-08
-2.24882e-08
1.50588e-08
-2.66436e-08
1.5726e-08
-3.07605e-08
1.55981e-08
-3.44979e-08
1.41817e-08
-3.73402e-08
1.08067e-08
-3.85518e-08
4.62836e-09
-3.7498e-08
-3.97347e-09
-3.47629e-08
-1.03622e-08
-3.10799e-08
-1.39568e-08
-2.69741e-08
-1.55525e-08
-2.27996e-08
-1.58054e-08
-1.87803e-08
-1.52131e-08
-1.50478e-08
-1.41255e-08
-1.1676e-08
-1.27589e-08
-8.70866e-09
-1.12181e-08
-6.17685e-09
-9.5429e-09
-4.10142e-09
-7.77182e-09
-2.48663e-09
-5.98091e-09
-1.31472e-09
-4.27348e-09
-5.46827e-10
-2.74545e-09
-1.29027e-10
-1.4592e-09
-4.37338e-10
-1.51157e-10
5.79774e-10
-6.43046e-10
1.9236e-09
-1.55012e-09
3.60273e-09
-2.93728e-09
5.58512e-09
-4.8502e-09
7.78972e-09
-7.30832e-09
1.00957e-08
-1.03048e-08
1.23763e-08
-1.38145e-08
1.45418e-08
-1.78029e-08
1.65497e-08
-2.22225e-08
1.83552e-08
-2.69928e-08
1.98291e-08
-3.19668e-08
2.06999e-08
-3.68903e-08
2.05217e-08
-4.13562e-08
1.86475e-08
-4.4751e-08
1.42015e-08
-4.62007e-08
6.07812e-09
-4.49494e-08
-5.22483e-09
-4.16899e-08
-1.36217e-08
-3.72931e-08
-1.83535e-08
-3.23842e-08
-2.04615e-08
-2.73864e-08
-2.08031e-08
-2.2569e-08
-2.00305e-08
-1.80911e-08
-1.86035e-08
-1.40419e-08
-1.68081e-08
-1.04748e-08
-1.47852e-08
-7.42832e-09
-1.25894e-08
-4.92932e-09
-1.02708e-08
-2.98498e-09
-7.92525e-09
-1.5753e-09
-5.68316e-09
-6.53548e-10
-3.66721e-09
-1.53656e-10
-1.9591e-09
-5.90994e-10
-1.80689e-10
7.60462e-10
-7.70248e-10
2.51316e-09
-1.85966e-09
4.69215e-09
-3.52833e-09
7.25378e-09
-5.83186e-09
1.00933e-08
-8.79323e-09
1.30571e-08
-1.24028e-08
1.59859e-08
-1.66282e-08
1.87672e-08
-2.14259e-08
2.13475e-08
-2.67372e-08
2.36665e-08
-3.24637e-08
2.55556e-08
-3.84274e-08
2.66636e-08
-4.4323e-08
2.64173e-08
-4.9664e-08
2.39885e-08
-5.37219e-08
1.82594e-08
-5.54612e-08
7.8175e-09
-5.39824e-08
-6.70371e-09
-5.01031e-08
-1.7501e-08
-4.48544e-08
-2.36022e-08
-3.89794e-08
-2.63365e-08
-3.29853e-08
-2.67973e-08
-2.71969e-08
-2.58188e-08
-2.18085e-08
-2.39919e-08
-1.69301e-08
-2.16865e-08
-1.26284e-08
-1.90868e-08
-8.95238e-09
-1.62654e-08
-5.93666e-09
-1.32865e-08
-3.59143e-09
-1.02705e-08
-1.89292e-09
-7.38166e-09
-7.84103e-10
-4.77603e-09
-1.83982e-10
-2.55922e-09
-7.74976e-10
-2.1937e-10
9.79831e-10
-9.36052e-10
3.22984e-09
-2.26173e-09
6.01782e-09
-4.29399e-09
9.28604e-09
-7.10116e-09
1.29004e-08
-1.0711e-08
1.66669e-08
-1.51105e-08
2.03853e-08
-2.02581e-08
2.39149e-08
-2.60978e-08
2.71871e-08
-3.25547e-08
3.01234e-08
-3.95057e-08
3.25066e-08
-4.67314e-08
3.38893e-08
-5.38603e-08
3.35462e-08
-6.03067e-08
3.04349e-08
-6.52003e-08
2.3153e-08
-6.73094e-08
9.92663e-09
-6.55574e-08
-8.45573e-09
-6.09105e-08
-2.21479e-08
-5.45938e-08
-2.99189e-08
-4.74958e-08
-3.34345e-08
-4.02299e-08
-3.40632e-08
-3.31945e-08
-3.28542e-08
-2.6631e-08
-3.05554e-08
-2.06793e-08
-2.76383e-08
-1.54255e-08
-2.43406e-08
-1.09332e-08
-2.07577e-08
-7.24749e-09
-1.69723e-08
-4.38209e-09
-1.31359e-08
-2.30816e-09
-9.45559e-09
-9.55399e-10
-6.12879e-09
-2.23971e-10
-3.29065e-09
-9.98947e-10
-2.72262e-10
1.25209e-09
-1.16226e-09
4.11984e-09
-2.80922e-09
7.66478e-09
-5.33478e-09
1.18116e-08
-8.82385e-09
1.63895e-08
-1.33102e-08
2.11533e-08
-1.87758e-08
2.5851e-08
-2.51661e-08
3.03051e-08
-3.24065e-08
3.44276e-08
-4.03986e-08
3.81155e-08
-4.89828e-08
4.10909e-08
-5.78819e-08
4.27883e-08
-6.66349e-08
4.22992e-08
-7.45267e-08
3.83268e-08
-8.05091e-08
2.91354e-08
-8.31067e-08
1.25242e-08
-8.10199e-08
-1.05426e-08
-7.53941e-08
-2.77737e-08
-6.76935e-08
-3.76195e-08
-5.89904e-08
-4.21376e-08
-5.00373e-08
-4.30162e-08
-4.13331e-08
-4.15585e-08
-3.31872e-08
-3.87013e-08
-2.57836e-08
-3.50419e-08
-1.92382e-08
-3.0886e-08
-1.36366e-08
-2.63594e-08
-9.03882e-09
-2.157e-08
-5.46423e-09
-1.67105e-08
-2.87746e-09
-1.20424e-08
-1.1907e-09
-7.81556e-09
-2.79028e-10
-4.20232e-09
-1.27797e-09
-3.47386e-10
1.59948e-09
-1.48328e-09
5.25574e-09
-3.5855e-09
9.76699e-09
-6.809e-09
1.50351e-08
-1.12612e-08
2.08417e-08
-1.69833e-08
2.68753e-08
-2.39485e-08
3.28162e-08
-3.20814e-08
3.8438e-08
-4.12789e-08
4.36251e-08
-5.14045e-08
4.82411e-08
-6.2243e-08
5.19293e-08
-7.34314e-08
5.39767e-08
-8.4384e-08
5.32518e-08
-9.42141e-08
4.81569e-08
-1.01647e-07
3.65686e-08
-1.04907e-07
1.57836e-08
-1.0241e-07
-1.30396e-08
-9.55161e-08
-3.46673e-08
-8.59838e-08
-4.71517e-08
-7.51176e-08
-5.30037e-08
-6.38561e-08
-5.42778e-08
-5.28405e-08
-5.25741e-08
-4.24825e-08
-4.90593e-08
-3.30356e-08
-4.44889e-08
-2.46639e-08
-3.92576e-08
-1.74885e-08
-3.35348e-08
-1.15941e-08
-2.74644e-08
-7.00945e-09
-2.12951e-08
-3.69114e-09
-1.53607e-08
-1.5273e-09
-9.9794e-09
-3.57858e-10
-5.37177e-09
-1.63583e-09
-4.58714e-10
2.05819e-09
-1.95874e-09
6.75576e-09
-4.73443e-09
1.25427e-08
-8.98907e-09
1.92897e-08
-1.48618e-08
2.67144e-08
-2.24019e-08
3.44154e-08
-3.15666e-08
4.19809e-08
-4.22445e-08
4.91159e-08
-5.42831e-08
5.56637e-08
-6.74808e-08
6.14388e-08
-8.15307e-08
6.59792e-08
-9.59374e-08
6.83835e-08
-1.09935e-07
6.72491e-08
-1.22407e-07
6.06288e-08
-1.31797e-07
4.59592e-08
-1.35968e-07
1.99547e-08
-1.32985e-07
-1.60234e-08
-1.24451e-07
-4.32012e-08
-1.1247e-07
-5.9132e-08
-9.86351e-08
-6.6839e-08
-8.41327e-08
-6.87802e-08
-6.98125e-08
-6.68943e-08
-5.62468e-08
-6.2625e-08
-4.38062e-08
-5.69295e-08
-3.27395e-08
-5.03243e-08
-2.32308e-08
-4.30435e-08
-1.54078e-08
-3.52874e-08
-9.31767e-09
-2.73853e-08
-4.90747e-09
-1.97709e-08
-2.03077e-09
-1.28561e-08
-4.75838e-10
-6.92671e-09
-2.11167e-09
-6.3199e-10
2.69018e-09
-2.69844e-09
8.82221e-09
-6.52075e-09
1.6365e-08
-1.23754e-08
2.51444e-08
-2.04473e-08
3.47863e-08
-3.07931e-08
4.47613e-08
-4.33362e-08
5.4524e-08
-5.78972e-08
6.36769e-08
-7.42297e-08
7.19962e-08
-9.20108e-08
7.92199e-08
-1.10771e-07
8.47391e-08
-1.29798e-07
8.74107e-08
-1.48059e-07
8.55107e-08
-1.64139e-07
7.67079e-08
-1.76156e-07
5.79763e-08
-1.81586e-07
2.53851e-08
-1.78084e-07
-1.9526e-08
-1.67495e-07
-5.37897e-08
-1.52281e-07
-7.43458e-08
-1.34353e-07
-8.47678e-08
-1.15219e-07
-8.79139e-08
-9.60373e-08
-8.60759e-08
-7.76464e-08
-8.10159e-08
-6.06278e-08
-7.39481e-08
-4.53925e-08
-6.55595e-08
-3.22474e-08
-5.61886e-08
-2.14046e-08
-4.61303e-08
-1.29505e-08
-3.58393e-08
-6.82294e-09
-2.58984e-08
-2.82393e-09
-1.68551e-08
-6.61744e-10
-9.0889e-09
-2.77341e-09
-9.18512e-10
3.6087e-09
-3.92146e-09
1.18252e-08
-9.47248e-09
2.1916e-08
-1.79644e-08
3.36363e-08
-2.96491e-08
4.64709e-08
-4.45802e-08
5.96925e-08
-6.26022e-08
7.25459e-08
-8.33903e-08
8.4465e-08
-1.06501e-07
9.51066e-08
-1.31361e-07
1.0408e-07
-1.57189e-07
1.10567e-07
-1.82902e-07
1.13124e-07
-2.07072e-07
1.09681e-07
-2.27927e-07
9.75632e-08
-2.4331e-07
7.33585e-08
-2.50428e-07
3.25033e-08
-2.46561e-07
-2.33928e-08
-2.33684e-07
-6.6667e-08
-2.14465e-07
-9.35647e-08
-1.9105e-07
-1.08183e-07
-1.65304e-07
-1.13659e-07
-1.38829e-07
-1.12551e-07
-1.12918e-07
-1.06927e-07
-8.85626e-08
-9.8303e-08
-6.65164e-08
-8.76057e-08
-4.73537e-08
-7.53514e-08
-3.1474e-08
-6.201e-08
-1.90585e-08
-4.82548e-08
-1.00456e-08
-3.49114e-08
-4.15862e-09
-2.27421e-08
-9.74486e-10
-1.2273e-08
-3.7479e-09
-1.22704e-09
4.83574e-09
-5.23403e-09
1.58321e-08
-1.26303e-08
2.93123e-08
-2.39198e-08
4.49259e-08
-3.93999e-08
6.1951e-08
-5.90776e-08
7.93702e-08
-8.26463e-08
9.61146e-08
-1.09533e-07
1.11352e-07
-1.38966e-07
1.24539e-07
-1.69979e-07
1.35094e-07
-2.01361e-07
1.41949e-07
-2.31625e-07
1.43388e-07
-2.59081e-07
1.37137e-07
-2.81958e-07
1.2044e-07
-2.98435e-07
8.98361e-08
-3.06323e-07
4.03907e-08
-3.03229e-07
-2.64867e-08
-2.90654e-07
-7.92414e-08
-2.70601e-07
-1.13618e-07
-2.44741e-07
-1.34042e-07
-2.14829e-07
-1.43571e-07
-1.82701e-07
-1.44679e-07
-1.50125e-07
-1.39504e-07
-1.18661e-07
-1.29767e-07
-8.96176e-08
-1.16649e-07
-6.40393e-08
-1.0093e-07
-4.26675e-08
-8.33818e-08
-2.58759e-08
-6.50464e-08
-1.36521e-08
-4.71352e-08
-5.65538e-09
-3.07388e-08
-1.32613e-09
-1.66023e-08
-5.07404e-09
-1.46943e-09
6.30516e-09
-6.25981e-09
2.06225e-08
-1.50823e-08
3.81348e-08
-2.85005e-08
5.83441e-08
-4.67966e-08
8.02471e-08
-6.98571e-08
1.02431e-07
-9.71334e-08
1.23391e-07
-1.27697e-07
1.41915e-07
-1.60335e-07
1.57177e-07
-1.93611e-07
1.6837e-07
-2.25903e-07
1.74241e-07
-2.55512e-07
1.72996e-07
-2.80884e-07
1.6251e-07
-3.00846e-07
1.40401e-07
-3.14655e-07
1.03645e-07
-3.21604e-07
4.73394e-08
-3.20433e-07
-2.76569e-08
-3.11677e-07
-8.79983e-08
-2.95847e-07
-1.29448e-07
-2.73334e-07
-1.56556e-07
-2.45015e-07
-1.7189e-07
-2.12373e-07
-1.77322e-07
-1.77318e-07
-1.74558e-07
-1.4192e-07
-1.65165e-07
-1.08166e-07
-1.50403e-07
-7.77756e-08
-1.3132e-07
-5.20255e-08
-1.09132e-07
-3.16262e-08
-8.54457e-08
-1.67084e-08
-6.2053e-08
-6.92697e-09
-4.05204e-08
-1.62543e-09
-2.1904e-08
-6.69946e-09
-1.77981e-09
8.08497e-09
-7.57499e-09
2.64177e-08
-1.82173e-08
4.8777e-08
-3.43178e-08
7.44447e-08
-5.60833e-08
1.02013e-07
-8.316e-08
1.29507e-07
-1.14581e-07
1.54811e-07
-1.48851e-07
1.76185e-07
-1.84126e-07
1.92453e-07
-2.18395e-07
2.02639e-07
-2.49674e-07
2.0552e-07
-2.76281e-07
1.99604e-07
-2.97161e-07
1.8339e-07
-3.12117e-07
1.55357e-07
-3.21767e-07
1.13295e-07
-3.27066e-07
5.26381e-08
-3.2809e-07
-2.66331e-08
-3.24442e-07
-9.1646e-08
-3.15091e-07
-1.38798e-07
-2.98882e-07
-1.72765e-07
-2.75311e-07
-1.95461e-07
-2.44898e-07
-2.07735e-07
-2.09206e-07
-2.1025e-07
-1.70606e-07
-2.03764e-07
-1.31885e-07
-1.89124e-07
-9.57716e-08
-1.67434e-07
-6.44668e-08
-1.40437e-07
-3.93284e-08
-1.10584e-07
-2.08113e-08
-8.05703e-08
-8.63047e-09
-5.27012e-08
-2.0238e-09
-2.85106e-08
-8.72327e-09
-2.19888e-09
1.02839e-08
-9.34149e-09
3.35603e-08
-2.23962e-08
6.18318e-08
-4.19813e-08
9.40297e-08
-6.81058e-08
1.28137e-07
-9.9964e-08
1.61366e-07
-1.35895e-07
1.90743e-07
-1.73572e-07
2.13862e-07
-2.10354e-07
2.29235e-07
-2.43687e-07
2.35972e-07
-2.71488e-07
2.33321e-07
-2.92522e-07
2.20637e-07
-3.06677e-07
1.97545e-07
-3.15015e-07
1.63696e-07
-3.19538e-07
1.17818e-07
-3.22685e-07
5.57857e-08
-3.25804e-07
-2.35149e-08
-3.27805e-07
-8.96449e-08
-3.26454e-07
-1.40149e-07
-3.19201e-07
-1.80018e-07
-3.03911e-07
-2.10751e-07
-2.79487e-07
-2.3216e-07
-2.46303e-07
-2.43434e-07
-2.0636e-07
-2.43707e-07
-1.63016e-07
-2.32468e-07
-1.20276e-07
-2.10174e-07
-8.18244e-08
-1.78889e-07
-5.02297e-08
-1.42179e-07
-2.66583e-08
-1.04142e-07
-1.10625e-08
-6.8297e-08
-2.59163e-09
-3.69815e-08
-1.13149e-08
-2.79284e-09
1.30767e-08
-1.1827e-08
4.25945e-08
-2.82073e-08
7.82121e-08
-5.24468e-08
1.18269e-07
-8.41078e-08
1.59798e-07
-1.21568e-07
1.98826e-07
-1.62087e-07
2.31261e-07
-2.02236e-07
2.54011e-07
-2.38574e-07
2.65573e-07
-2.68311e-07
2.65708e-07
-2.89807e-07
2.54817e-07
-3.02855e-07
2.33684e-07
-3.08668e-07
2.03358e-07
-3.09604e-07
1.64632e-07
-3.0875e-07
1.16964e-07
-3.09553e-07
5.65893e-08
-3.14322e-07
-1.87466e-08
-3.21604e-07
-8.23625e-08
-3.2859e-07
-1.33164e-07
-3.31934e-07
-1.76674e-07
-3.28139e-07
-2.14546e-07
-3.14153e-07
-2.46146e-07
-2.88204e-07
-2.69383e-07
-2.50664e-07
-2.81248e-07
-2.04499e-07
-2.78633e-07
-1.5479e-07
-2.59883e-07
-1.07269e-07
-2.26409e-07
-6.66425e-08
-1.82805e-07
-3.56039e-08
-1.3518e-07
-1.48124e-08
-8.90883e-08
-3.46861e-09
-4.83252e-08
-1.47835e-08
-3.67848e-09
1.67552e-08
-1.54754e-08
5.43915e-08
-3.65601e-08
9.92968e-08
-6.70601e-08
1.48769e-07
-1.05611e-07
1.98349e-07
-1.49209e-07
2.42424e-07
-1.93597e-07
2.75649e-07
-2.34158e-07
2.94572e-07
-2.67003e-07
2.98418e-07
-2.89805e-07
2.8851e-07
-3.02143e-07
2.67156e-07
-3.05371e-07
2.36912e-07
-3.02139e-07
2.00125e-07
-2.95805e-07
1.58299e-07
-2.9e-07
1.11158e-07
-2.88543e-07
5.51331e-08
-2.9427e-07
-1.30197e-08
-3.05652e-07
-7.09811e-08
-3.19954e-07
-1.18862e-07
-3.33897e-07
-1.6273e-07
-3.43466e-07
-2.04977e-07
-3.44068e-07
-2.45543e-07
-3.31307e-07
-2.82144e-07
-3.02442e-07
-3.10112e-07
-2.58114e-07
-3.22961e-07
-2.03116e-07
-3.1488e-07
-1.45179e-07
-2.84347e-07
-9.22486e-08
-2.35736e-07
-5.00208e-08
-1.77408e-07
-2.09904e-08
-1.18119e-07
-4.93639e-09
-6.43792e-08
-1.97199e-08
-5.04556e-09
2.18007e-08
-2.09405e-08
7.02864e-08
-4.8634e-08
1.2699e-07
-8.72393e-08
1.87375e-07
-1.33637e-07
2.44746e-07
-1.82733e-07
2.91521e-07
-2.28511e-07
3.21427e-07
-2.6557e-07
3.31631e-07
-2.90499e-07
3.23347e-07
-3.02494e-07
3.00505e-07
-3.03116e-07
2.67778e-07
-2.95493e-07
2.29289e-07
-2.83407e-07
1.88039e-07
-2.70626e-07
1.45518e-07
-2.60679e-07
1.01212e-07
-2.57162e-07
5.16168e-08
-2.62999e-07
-7.18311e-09
-2.76732e-07
-5.72476e-08
-2.96125e-07
-9.94697e-08
-3.18702e-07
-1.40153e-07
-3.41052e-07
-1.82626e-07
-3.58308e-07
-2.28287e-07
-3.64168e-07
-2.76284e-07
-3.52143e-07
-3.22138e-07
-3.18285e-07
-3.56819e-07
-2.642e-07
-3.68965e-07
-1.97773e-07
-3.50774e-07
-1.30431e-07
-3.03078e-07
-7.2725e-08
-2.35114e-07
-3.11287e-08
-1.59715e-07
-7.43118e-09
-8.80766e-08
-2.71511e-08
-7.14037e-09
2.89411e-08
-2.89016e-08
9.20477e-08
-6.52387e-08
1.63327e-07
-1.13048e-07
2.35184e-07
-1.66303e-07
2.98001e-07
-2.17305e-07
3.42524e-07
-2.58741e-07
3.62863e-07
-2.85705e-07
3.58595e-07
-2.96787e-07
3.34428e-07
-2.93828e-07
2.97546e-07
-2.80726e-07
2.54677e-07
-2.62025e-07
2.10588e-07
-2.41911e-07
1.67924e-07
-2.23819e-07
1.27425e-07
-2.106e-07
8.79934e-08
-2.05179e-07
4.61956e-08
-2.10213e-07
-2.14931e-09
-2.24325e-07
-4.31355e-08
-2.45835e-07
-7.79595e-08
-2.73361e-07
-1.12628e-07
-3.04913e-07
-1.51075e-07
-3.36891e-07
-1.96309e-07
-3.63109e-07
-2.50067e-07
-3.74748e-07
-3.10498e-07
-3.62626e-07
-3.68942e-07
-3.2193e-07
-4.0966e-07
-2.56451e-07
-4.16253e-07
-1.78504e-07
-3.81025e-07
-1.03997e-07
-3.09621e-07
-4.60641e-08
-2.17648e-07
-1.13214e-08
-1.22819e-07
-3.84725e-08
-1.02029e-08
3.9144e-08
-3.96313e-08
1.21476e-07
-8.55732e-08
2.09269e-07
-1.4084e-07
2.9045e-07
-1.9548e-07
3.52641e-07
-2.39689e-07
3.86733e-07
-2.66699e-07
3.89873e-07
-2.74386e-07
3.66282e-07
-2.65033e-07
3.25075e-07
-2.43674e-07
2.76188e-07
-2.16041e-07
2.27043e-07
-1.8707e-07
1.81618e-07
-1.60353e-07
1.41208e-07
-1.383e-07
1.05372e-07
-1.22699e-07
7.23925e-08
-1.15556e-07
3.90525e-08
-1.19041e-07
1.33524e-09
-1.3179e-07
-3.03862e-08
-1.52487e-07
-5.72624e-08
-1.80633e-07
-8.44817e-08
-2.1575e-07
-1.15958e-07
-2.56401e-07
-1.55657e-07
-2.98725e-07
-2.07744e-07
-3.34889e-07
-2.74334e-07
-3.53161e-07
-3.5067e-07
-3.41774e-07
-4.21046e-07
-2.95742e-07
-4.62285e-07
-2.21955e-07
-4.54812e-07
-1.37945e-07
-3.93631e-07
-6.44094e-08
-2.91183e-07
-1.65725e-08
-1.70656e-07
-5.5045e-08
-1.45234e-08
5.36673e-08
-5.28357e-08
1.59788e-07
-1.06485e-07
2.62919e-07
-1.62098e-07
3.46063e-07
-2.06161e-07
3.96703e-07
-2.2944e-07
4.10012e-07
-2.29205e-07
3.89638e-07
-2.08688e-07
3.45765e-07
-1.74631e-07
2.91018e-07
-1.3441e-07
2.35967e-07
-9.40111e-08
1.86643e-07
-5.73124e-08
1.44919e-07
-2.63861e-08
1.10281e-07
-2.20713e-09
8.1193e-08
1.45857e-08
5.55997e-08
2.29767e-08
3.06615e-08
2.12963e-08
3.01567e-09
1.09772e-08
-2.0067e-08
-6.8426e-09
-3.94426e-08
-3.21251e-08
-5.91992e-08
-6.54e-08
-8.26828e-08
-1.07199e-07
-1.13858e-07
-1.56925e-07
-1.58017e-07
-2.10798e-07
-2.20461e-07
-2.59489e-07
-3.01979e-07
-2.88381e-07
-3.92154e-07
-2.8293e-07
-4.67736e-07
-2.37726e-07
-5.00017e-07
-1.63057e-07
-4.683e-07
-8.27017e-08
-3.71538e-07
-2.28694e-08
-2.30488e-07
-7.79145e-08
-2.07776e-08
7.4445e-08
-6.79491e-08
2.0696e-07
-1.22559e-07
3.17528e-07
-1.64469e-07
3.87974e-07
-1.80426e-07
4.1266e-07
-1.67148e-07
3.96734e-07
-1.29811e-07
3.52301e-07
-7.7934e-08
2.93888e-07
-2.11829e-08
2.34267e-07
3.32163e-08
1.81568e-07
8.11666e-08
1.38693e-07
1.21063e-07
1.05022e-07
1.52764e-07
7.85807e-08
1.7668e-07
5.72772e-08
1.93143e-07
3.91364e-08
2.01852e-07
2.19526e-08
2.01693e-07
3.17464e-09
1.94027e-07
-1.2401e-08
1.79936e-07
-2.53513e-08
1.59321e-07
-3.8584e-08
1.3124e-07
-5.46018e-08
9.40357e-08
-7.66544e-08
4.56771e-08
-1.09659e-07
-1.47046e-08
-1.6008e-07
-8.39638e-08
-2.32719e-07
-1.51233e-07
-3.24885e-07
-1.97963e-07
-4.21006e-07
-2.05208e-07
-4.92772e-07
-1.66392e-07
-5.07117e-07
-9.68825e-08
-4.41047e-07
-3.0218e-08
-2.97153e-07
-1.08132e-07
-3.0035e-08
1.0448e-07
-8.30159e-08
2.59941e-07
-1.24356e-07
3.58869e-07
-1.3218e-07
3.95797e-07
-1.0232e-07
3.828e-07
-4.33842e-08
3.37799e-07
3.0682e-08
2.78235e-07
1.06945e-07
2.17625e-07
1.76728e-07
1.64484e-07
2.35979e-07
1.22317e-07
2.83953e-07
9.07188e-08
3.21596e-07
6.73794e-08
3.50358e-07
4.98193e-08
3.71556e-07
3.60787e-08
3.86064e-07
2.4628e-08
3.9404e-07
1.39775e-08
3.94768e-07
2.44646e-09
3.89445e-07
-7.07836e-09
3.79038e-07
-1.49442e-08
3.63449e-07
-2.29947e-08
3.41719e-07
-3.28723e-08
3.11897e-07
-4.68327e-08
2.70785e-07
-6.8546e-08
2.14227e-07
-1.03522e-07
1.39258e-07
-1.57751e-07
4.86792e-08
-2.34306e-07
-4.38667e-08
-3.2846e-07
-1.137e-07
-4.22939e-07
-1.35274e-07
-4.85543e-07
-1.01411e-07
-4.7491e-07
-3.87282e-08
-3.59836e-07
-1.46861e-07
-4.1525e-08
1.46005e-07
-8.90269e-08
3.07443e-07
-9.25476e-08
3.62389e-07
-4.4782e-08
3.48032e-07
3.87192e-08
2.99299e-07
1.37202e-07
2.39316e-07
2.33594e-07
1.81843e-07
3.17868e-07
1.33351e-07
3.86443e-07
9.59094e-08
4.39916e-07
6.88438e-08
4.80713e-07
4.99219e-08
5.11486e-07
3.66066e-08
5.34419e-07
2.6886e-08
5.51086e-07
1.9412e-08
5.6246e-07
1.32542e-08
5.6886e-07
7.57745e-09
5.69848e-07
1.45833e-09
5.66359e-07
-3.58907e-09
5.59161e-07
-7.7463e-09
5.48183e-07
-1.20167e-08
5.3263e-07
-1.73193e-08
5.1076e-07
-2.49626e-08
4.79374e-07
-3.71608e-08
4.33358e-07
-5.75049e-08
3.66301e-07
-9.06942e-08
2.73512e-07
-1.41517e-07
1.57977e-07
-2.12925e-07
3.72548e-08
-3.02216e-07
-5.52293e-08
-3.93059e-07
-8.42914e-08
-4.45847e-07
-4.58346e-08
-3.98293e-07
-1.92695e-07
-5.02538e-08
1.96259e-07
-5.96205e-08
3.16809e-07
7.94675e-09
2.94822e-07
1.19675e-07
2.36304e-07
2.42322e-07
1.76651e-07
3.55278e-07
1.26361e-07
4.48939e-07
8.81816e-08
5.2154e-07
6.075e-08
5.75622e-07
4.18277e-08
6.15249e-07
2.92164e-08
6.44283e-07
2.08878e-08
6.65661e-07
1.52288e-08
6.81379e-07
1.11679e-08
6.92726e-07
8.06523e-09
7.00465e-07
5.51496e-09
7.04878e-07
3.16429e-09
7.05706e-07
6.3047e-10
7.03579e-07
-1.46231e-09
6.99022e-07
-3.18915e-09
6.91981e-07
-4.97585e-09
6.81884e-07
-7.22218e-09
6.67435e-07
-1.0514e-08
6.46136e-07
-1.58613e-08
6.13607e-07
-2.49757e-08
5.63249e-07
-4.03367e-08
4.87005e-07
-6.52732e-08
3.78379e-07
-1.04299e-07
2.39196e-07
-1.63033e-07
9.00066e-08
-2.43869e-07
-2.26179e-08
-3.33223e-07
-4.51979e-08
-3.75713e-07
-2.37893e-07
-2.76207e-08
2.23879e-07
7.11706e-08
2.18018e-07
2.24319e-07
1.41674e-07
3.69492e-07
9.11305e-08
4.88381e-07
5.77618e-08
5.78625e-07
3.61166e-08
6.43935e-07
2.28717e-08
6.89905e-07
1.47798e-08
7.21941e-07
9.79217e-09
7.44442e-07
6.71509e-09
7.60551e-07
4.77861e-09
7.72289e-07
3.49156e-09
7.80885e-07
2.57104e-09
7.87087e-07
1.86367e-09
7.91324e-07
1.27818e-09
7.93755e-07
7.33321e-10
7.94242e-07
1.4331e-10
7.93126e-07
-3.46208e-10
7.9069e-07
-7.5321e-10
7.86894e-07
-1.18015e-09
7.81398e-07
-1.72598e-09
7.73425e-07
-2.54078e-09
7.61448e-07
-3.88501e-09
7.42685e-07
-6.21284e-09
7.12572e-07
-1.02228e-08
6.64316e-07
-1.70172e-08
5.88665e-07
-2.86484e-08
4.74949e-07
-4.93169e-08
3.17192e-07
-8.61131e-08
1.32234e-07
-1.48265e-07
-5.4312e-09
-2.38047e-07
-2.43324e-07
2.23879e-07
4.41898e-07
5.83572e-07
6.74702e-07
7.32464e-07
7.68581e-07
7.91452e-07
8.06232e-07
8.16024e-07
8.22739e-07
8.27518e-07
8.3101e-07
8.33581e-07
8.35444e-07
8.36722e-07
8.37456e-07
8.37599e-07
8.37253e-07
8.365e-07
8.3532e-07
8.33594e-07
8.31053e-07
8.27168e-07
8.20955e-07
8.10732e-07
7.93715e-07
7.65067e-07
7.1575e-07
6.29637e-07
4.81372e-07
2.43324e-07
)
;

boundaryField
{
    movingWall
    {
        type            calculated;
        value           uniform 0;
    }
    fixedWalls
    {
        type            calculated;
        value           uniform 0;
    }
    frontAndBack
    {
        type            empty;
        value           nonuniform List<scalar> 0();
    }
}


// ************************************************************************* //
