/*--------------------------------*- C++ -*----------------------------------*\
| =========                 |                                                 |
| \\      /  F ield         | OpenFOAM: The Open Source CFD Toolbox           |
|  \\    /   O peration     | Version:  2206                                  |
|   \\  /    A nd           | Website:  www.openfoam.com                      |
|    \\/     M anipulation  |                                                 |
\*---------------------------------------------------------------------------*/
FoamFile
{
    version     2.0;
    format      ascii;
    arch        "LSB;label=64;scalar=64";
    class       volScalarField;
    location    "18";
    object      Sch4;
}
// * * * * * * * * * * * * * * * * * * * * * * * * * * * * * * * * * * * * * //

dimensions      [0 0 0 0 0 0 0];

internalField   nonuniform List<scalar> 
1024
(
1.59221e-10
1.65647e-10
1.85425e-10
2.21062e-10
2.76009e-10
3.54576e-10
4.61664e-10
6.02207e-10
7.80217e-10
9.97368e-10
1.25123e-09
1.53351e-09
1.82898e-09
2.11576e-09
2.3659e-09
2.54173e-09
2.5814e-09
2.47396e-09
2.27005e-09
2.00665e-09
1.71506e-09
1.42271e-09
1.15072e-09
9.12293e-10
7.13284e-10
5.54028e-10
4.31495e-10
3.41133e-10
2.7816e-10
2.38204e-10
2.17487e-10
2.12961e-10
1.80544e-10
1.87673e-10
2.09707e-10
2.49409e-10
3.10563e-10
3.97883e-10
5.16715e-10
6.72419e-10
8.69321e-10
1.10917e-09
1.38918e-09
1.70015e-09
2.02532e-09
2.34064e-09
2.61552e-09
2.80882e-09
2.85291e-09
2.73563e-09
2.51219e-09
2.22295e-09
1.90221e-09
1.58012e-09
1.27997e-09
1.01646e-09
7.96191e-10
6.19669e-10
4.8367e-10
3.83264e-10
3.1323e-10
2.68743e-10
2.45618e-10
2.40469e-10
2.40833e-10
2.49976e-10
2.78396e-10
3.29571e-10
4.08232e-10
5.20234e-10
6.72178e-10
8.70631e-10
1.12081e-09
1.42466e-09
1.77846e-09
2.17043e-09
2.57944e-09
2.97541e-09
3.32023e-09
3.56295e-09
3.61953e-09
3.47446e-09
3.1958e-09
2.8336e-09
2.43056e-09
2.02452e-09
1.64496e-09
1.3107e-09
1.03046e-09
8.05236e-10
6.31247e-10
5.02496e-10
4.12514e-10
3.55225e-10
3.25321e-10
3.18504e-10
3.65262e-10
3.78481e-10
4.19837e-10
4.94232e-10
6.08278e-10
7.70098e-10
9.88773e-10
1.27324e-09
1.63046e-09
2.06273e-09
2.56433e-09
3.11836e-09
3.69494e-09
4.2519e-09
4.73629e-09
5.07767e-09
5.15954e-09
4.95955e-09
4.57123e-09
4.06373e-09
3.49642e-09
2.92247e-09
2.38377e-09
1.90749e-09
1.50664e-09
1.1833e-09
9.32667e-10
7.46656e-10
6.16315e-10
5.33081e-10
4.89419e-10
4.79228e-10
6.05764e-10
6.26598e-10
6.92236e-10
8.10192e-10
9.90518e-10
1.24546e-09
1.5886e-09
2.03315e-09
2.58913e-09
3.2593e-09
4.03418e-09
4.88722e-09
5.77238e-09
6.62536e-09
7.36611e-09
7.88891e-09
8.01819e-09
7.71895e-09
7.13069e-09
6.3571e-09
5.48792e-09
4.60438e-09
3.77135e-09
3.03164e-09
2.40647e-09
1.90018e-09
1.50633e-09
1.21311e-09
1.00704e-09
8.75013e-10
8.05412e-10
7.8881e-10
1.07317e-09
1.10818e-09
1.2193e-09
1.41879e-09
1.72294e-09
2.15144e-09
2.72591e-09
3.46715e-09
4.3905e-09
5.49921e-09
6.77645e-09
8.17771e-09
9.6272e-09
1.10204e-08
1.22285e-08
1.30824e-08
1.33004e-08
1.28241e-08
1.18751e-08
1.06187e-08
9.19911e-09
7.74863e-09
6.3744e-09
5.14845e-09
4.10779e-09
3.26154e-09
2.60077e-09
2.10721e-09
1.75927e-09
1.53559e-09
1.41711e-09
1.38833e-09
2.0157e-09
2.07791e-09
2.27686e-09
2.6337e-09
3.17627e-09
3.93802e-09
4.95534e-09
6.26274e-09
7.88483e-09
9.82492e-09
1.20514e-08
1.44852e-08
1.69942e-08
1.9399e-08
2.14808e-08
2.29549e-08
2.33441e-08
2.25458e-08
2.09311e-08
1.87772e-08
1.63285e-08
1.38122e-08
1.14154e-08
9.26642e-09
7.43353e-09
5.93652e-09
4.76298e-09
3.88329e-09
3.26108e-09
2.8597e-09
2.64618e-09
2.59353e-09
4.02197e-09
4.13896e-09
4.51595e-09
5.19145e-09
6.21574e-09
7.64872e-09
9.555e-09
1.19948e-08
1.50093e-08
1.85997e-08
2.2703e-08
2.71703e-08
3.17582e-08
3.61414e-08
3.99286e-08
4.26157e-08
4.33511e-08
4.19452e-08
3.90518e-08
3.51593e-08
3.07025e-08
2.60927e-08
2.16751e-08
1.76916e-08
1.42761e-08
1.14729e-08
9.26573e-09
7.60477e-09
6.4257e-09
5.66236e-09
5.25465e-09
5.153e-09
8.58099e-09
8.81493e-09
9.57491e-09
1.09352e-08
1.2992e-08
1.58588e-08
1.96569e-08
2.44969e-08
3.04499e-08
3.75077e-08
4.55361e-08
5.42361e-08
6.31318e-08
7.15985e-08
7.8898e-08
8.40885e-08
8.55657e-08
8.29592e-08
7.74836e-08
7.00441e-08
6.1455e-08
5.25039e-08
4.38652e-08
3.60244e-08
2.92607e-08
2.36788e-08
1.9262e-08
1.59234e-08
1.35439e-08
1.19976e-08
1.11685e-08
1.09601e-08
1.97361e-08
2.02369e-08
2.18778e-08
2.48115e-08
2.92338e-08
3.53737e-08
4.34722e-08
5.3743e-08
6.63124e-08
8.11367e-08
9.79094e-08
1.15988e-07
1.34377e-07
1.51803e-07
1.66786e-07
1.77466e-07
1.80638e-07
1.75535e-07
1.64543e-07
1.49433e-07
1.31818e-07
1.13297e-07
9.52754e-08
7.87929e-08
6.44744e-08
5.25821e-08
4.31182e-08
3.59282e-08
3.07803e-08
2.74216e-08
2.56141e-08
2.51574e-08
4.9343e-08
5.04984e-08
5.43184e-08
6.11392e-08
7.13877e-08
8.55567e-08
1.04155e-07
1.27616e-07
1.56165e-07
1.89633e-07
2.27267e-07
2.67575e-07
3.08331e-07
3.46748e-07
3.79678e-07
4.0321e-07
4.10533e-07
3.99949e-07
3.76443e-07
3.43681e-07
3.05048e-07
2.64002e-07
2.23673e-07
1.86459e-07
1.53866e-07
1.26593e-07
1.04746e-07
8.80498e-08
7.60345e-08
6.81606e-08
6.39079e-08
6.283e-08
1.35134e-07
1.38021e-07
1.47662e-07
1.64855e-07
1.90596e-07
2.26018e-07
2.72262e-07
3.30249e-07
4.00354e-07
4.81975e-07
5.73093e-07
6.69979e-07
7.67253e-07
8.58384e-07
9.36202e-07
9.91969e-07
1.01022e-06
9.86943e-07
9.33238e-07
8.57143e-07
7.66198e-07
6.68378e-07
5.71171e-07
4.80527e-07
4.00371e-07
3.32718e-07
2.78101e-07
2.3608e-07
2.05661e-07
1.8563e-07
1.7477e-07
1.72013e-07
4.08002e-07
4.15841e-07
4.4232e-07
4.89471e-07
5.59794e-07
6.5607e-07
7.80997e-07
9.36591e-07
1.12331e-06
1.33898e-06
1.57776e-06
1.82952e-06
2.08022e-06
2.31341e-06
2.51163e-06
2.65409e-06
2.70329e-06
2.64913e-06
2.51797e-06
2.32845e-06
2.09832e-06
1.8472e-06
1.5943e-06
1.35554e-06
1.14202e-06
9.59952e-07
8.11638e-07
6.9662e-07
6.12798e-07
5.57294e-07
5.27081e-07
5.19414e-07
1.36417e-06
1.3873e-06
1.46649e-06
1.60731e-06
1.81644e-06
2.10112e-06
2.46804e-06
2.92152e-06
3.46115e-06
4.07883e-06
4.75619e-06
5.46344e-06
6.16107e-06
6.80449e-06
7.34841e-06
7.7404e-06
7.88361e-06
7.75121e-06
7.40987e-06
6.90502e-06
6.28043e-06
5.58717e-06
4.87786e-06
4.19839e-06
3.58257e-06
3.05114e-06
2.61358e-06
2.27109e-06
2.01952e-06
1.85189e-06
1.76024e-06
1.73702e-06
5.05979e-06
5.13367e-06
5.39066e-06
5.84702e-06
6.52171e-06
7.43441e-06
8.60187e-06
1.00324e-05
1.17184e-05
1.36285e-05
1.57003e-05
1.78395e-05
1.99262e-05
2.18316e-05
2.3431e-05
2.45862e-05
2.50332e-05
2.46982e-05
2.37599e-05
2.23329e-05
2.05282e-05
1.84843e-05
1.63535e-05
1.42765e-05
1.23639e-05
1.06895e-05
9.29327e-06
8.18832e-06
7.36919e-06
6.81933e-06
6.51718e-06
6.44081e-06
2.0772e-05
2.10246e-05
2.19208e-05
2.35103e-05
2.58489e-05
2.89908e-05
3.2976e-05
3.78121e-05
4.34509e-05
4.97643e-05
5.65274e-05
6.34197e-05
7.00555e-05
7.60405e-05
8.10186e-05
8.46156e-05
8.60883e-05
8.52341e-05
8.25563e-05
7.83468e-05
7.28833e-05
6.65462e-05
5.97894e-05
5.30636e-05
4.67495e-05
4.11248e-05
3.6362e-05
3.25425e-05
2.96795e-05
2.77407e-05
2.66692e-05
2.63993e-05
8.86108e-05
8.94732e-05
9.26022e-05
9.81458e-05
0.000106259
0.000117078
0.000130674
0.000146999
0.000165809
0.000186596
0.000208551
0.000230591
0.00025148
0.000270032
0.000285268
0.000296243
0.000300967
0.000298954
0.000291606
0.000279613
0.000263585
0.00024447
0.000223538
0.00020217
0.000181637
0.000162955
0.000146839
0.000133707
0.000123734
0.00011691
0.000113114
0.000112164
0.000326752
0.00032921
0.00033835
0.000354533
0.000378102
0.000409311
0.000448199
0.00049443
0.000547103
0.000604586
0.00066445
0.000723613
0.000778741
0.000826858
0.000865774
0.000893626
0.000906118
0.000902463
0.000886008
0.000858082
0.000819626
0.000772412
0.000719196
0.000663324
0.000608197
0.000556824
0.000511558
0.000474006
0.000445061
0.000425034
0.000413812
0.000411024
0.000941429
0.000946773
0.000967208
0.00100342
0.00105602
0.00112536
0.00121128
0.00131272
0.00142735
0.00155121
0.00167865
0.00180281
0.00191663
0.00201425
0.00209197
0.00214716
0.00217275
0.00216816
0.00213989
0.00209008
0.00201965
0.00193086
0.00182795
0.00171679
0.00160405
0.00149624
0.00139906
0.00131685
0.00125247
0.00120738
0.00118191
0.0011756
0.00220527
0.0022145
0.00225098
0.00231585
0.00241011
0.00253426
0.00268783
0.00286861
0.00307193
0.00329001
0.00351209
0.00372554
0.00391803
0.00408026
0.00420729
0.00429665
0.0043391
0.0043353
0.00429599
0.00422446
0.00412132
0.00398854
0.00383086
0.00365584
0.00347315
0.00329353
0.00312743
0.00298382
0.00286934
0.00278804
0.00274165
0.00273012
0.00434935
0.00436245
0.00441643
0.00451315
0.00465436
0.00484108
0.00507274
0.00534579
0.00565233
0.00597929
0.00630897
0.00662145
0.00689855
0.00712788
0.00730447
0.00742734
0.00748658
0.00748517
0.00743859
0.00735187
0.0072257
0.00706152
0.00686324
0.00663791
0.00639589
0.00615054
0.00591687
0.00570947
0.00554051
0.00541846
0.0053479
0.0053301
0.00746269
0.00747838
0.00754684
0.00767126
0.00785489
0.00810012
0.00840681
0.00876994
0.00917746
0.00960956
0.0100404
0.0104426
0.010793
0.0110776
0.0112932
0.0114414
0.0115133
0.0115148
0.0114654
0.0113726
0.0112382
0.0110639
0.0108527
0.0106091
0.0103406
0.0100593
0.00978165
0.00952683
0.0093132
0.00915527
0.00906221
0.00903801
0.011464
0.01148
0.0115565
0.011699
0.0119133
0.0122044
0.0125728
0.0130114
0.0135029
0.0140196
0.0145277
0.0149939
0.0153926
0.0157108
0.0159479
0.0161091
0.0161872
0.0161907
0.0161421
0.0160509
0.0159211
0.0157564
0.0155601
0.0153344
0.0150815
0.0148074
0.0145249
0.0142537
0.0140171
0.013836
0.0137262
0.0136962
0.016147
0.0161606
0.0162375
0.0163867
0.016618
0.0169393
0.0173513
0.0178433
0.0183913
0.0189601
0.0195101
0.0200055
0.0204214
0.0207478
0.0209876
0.0211488
0.0212266
0.0212309
0.0211851
0.0211004
0.020983
0.0208395
0.0206754
0.0204929
0.0202896
0.0200632
0.0198175
0.0195668
0.0193347
0.0191478
0.0190292
0.0189941
0.0212538
0.0212627
0.0213334
0.02148
0.021717
0.0220541
0.0224902
0.0230089
0.0235796
0.0241617
0.0247141
0.0252024
0.0256056
0.0259174
0.0261436
0.0262943
0.0263666
0.0263705
0.0263289
0.0262532
0.0261512
0.0260319
0.0259044
0.0257729
0.0256341
0.0254789
0.0253005
0.0251024
0.0249024
0.0247282
0.0246098
0.0245706
0.0265363
0.026539
0.0265998
0.0267389
0.0269743
0.0273147
0.027754
0.0282696
0.0288262
0.0293827
0.0299006
0.0303508
0.0307172
0.0309971
0.0311983
0.0313313
0.0313945
0.0313976
0.0313611
0.0312957
0.0312094
0.0311128
0.0310171
0.0309301
0.0308504
0.0307675
0.0306668
0.0305399
0.0303932
0.0302491
0.0301402
0.0300988
0.031789
0.0317855
0.0318367
0.031968
0.0321972
0.0325278
0.032947
0.033428
0.0339353
0.0344323
0.0348869
0.0352766
0.0355903
0.0358277
0.0359971
0.0361084
0.0361609
0.036163
0.0361322
0.0360776
0.0360067
0.0359297
0.0358585
0.035803
0.0357654
0.0357378
0.0357041
0.0356485
0.0355649
0.0354641
0.0353746
0.0353339
0.0368591
0.0368514
0.0368969
0.0370223
0.0372393
0.0375436
0.0379174
0.0383341
0.0387637
0.0391769
0.03955
0.0398665
0.0401192
0.0403092
0.040444
0.0405322
0.0405735
0.0405749
0.0405501
0.0405065
0.0404504
0.0403904
0.0403375
0.0403016
0.0402875
0.0402913
0.040301
0.0402998
0.0402743
0.0402222
0.0401606
0.0401247
0.0416424
0.0416346
0.04168
0.0417986
0.0419921
0.0422499
0.0425545
0.0428847
0.0432185
0.0435355
0.0438189
0.0440578
0.0442475
0.0443896
0.04449
0.0445555
0.044586
0.0445868
0.0445681
0.0445354
0.0444933
0.0444487
0.0444102
0.0443862
0.044382
0.044397
0.0444243
0.044452
0.0444663
0.0444574
0.0444277
0.0444016
0.0460754
0.0460729
0.0461201
0.0462232
0.0463761
0.0465682
0.0467871
0.0470193
0.0472511
0.0474693
0.0476635
0.0478265
0.0479556
0.048052
0.04812
0.0481642
0.0481848
0.0481851
0.0481723
0.04815
0.0481213
0.0480908
0.0480646
0.0480487
0.0480474
0.0480615
0.0480879
0.0481203
0.0481501
0.0481674
0.0481659
0.0481532
0.0501247
0.0501304
0.0501711
0.0502421
0.0503379
0.0504528
0.0505806
0.0507145
0.0508472
0.0509718
0.0510824
0.0511751
0.0512483
0.051303
0.0513415
0.0513664
0.051378
0.0513782
0.0513708
0.0513581
0.0513417
0.0513243
0.0513092
0.0513001
0.0512994
0.051308
0.0513246
0.0513469
0.0513712
0.0513924
0.0514048
0.051405
0.0537759
0.0537803
0.0537968
0.0538217
0.0538536
0.053891
0.0539322
0.0539752
0.0540177
0.0540576
0.0540929
0.0541225
0.0541459
0.0541633
0.0541755
0.0541835
0.0541872
0.0541872
0.0541849
0.0541808
0.0541755
0.0541699
0.054165
0.054162
0.0541618
0.0541645
0.0541699
0.0541773
0.054186
0.0541946
0.0542016
0.0542041
)
;

boundaryField
{
    movingWall
    {
        type            fixedValue;
        value           uniform 0.0555;
    }
    fixedWalls
    {
        type            zeroGradient;
    }
    frontAndBack
    {
        type            empty;
    }
}


// ************************************************************************* //
