/*--------------------------------*- C++ -*----------------------------------*\
| =========                 |                                                 |
| \\      /  F ield         | OpenFOAM: The Open Source CFD Toolbox           |
|  \\    /   O peration     | Version:  2206                                  |
|   \\  /    A nd           | Website:  www.openfoam.com                      |
|    \\/     M anipulation  |                                                 |
\*---------------------------------------------------------------------------*/
FoamFile
{
    version     2.0;
    format      ascii;
    arch        "LSB;label=64;scalar=64";
    class       volScalarField;
    location    "3.2/water";
    object      alphat.gas;
}
// * * * * * * * * * * * * * * * * * * * * * * * * * * * * * * * * * * * * * //

dimensions      [1 -1 -1 0 0 0 0];

internalField   nonuniform List<scalar> 
23300
(
7.39100782777e-05
7.24944580718e-05
7.03406157386e-05
6.7620862341e-05
6.45178480533e-05
6.11756187176e-05
5.77070835927e-05
5.42034053633e-05
5.07368505059e-05
4.73655685974e-05
4.41336430255e-05
4.10742973842e-05
3.82095964784e-05
3.5553267353e-05
3.31107537332e-05
3.08818298691e-05
2.88609041762e-05
2.70392821766e-05
2.54054474485e-05
2.3946841579e-05
2.26499419931e-05
2.15015413799e-05
2.04885842373e-05
1.95990257551e-05
1.88214840193e-05
1.81458041582e-05
1.75626170219e-05
1.7063729949e-05
1.66416706063e-05
1.62899921606e-05
1.60028470114e-05
1.57752550787e-05
1.56027206731e-05
1.54814840094e-05
1.54081771483e-05
1.53800651062e-05
1.53947322211e-05
1.54503159242e-05
1.55452171055e-05
1.56783312631e-05
1.58487817406e-05
1.60561582945e-05
1.63002818751e-05
1.65814740025e-05
1.69001736168e-05
1.72564563812e-05
1.76508259465e-05
1.80842700706e-05
1.85579644474e-05
1.90734785406e-05
1.96325385194e-05
2.02372576815e-05
2.08899137146e-05
2.1593186227e-05
2.23499414222e-05
2.31634724417e-05
2.40372891261e-05
2.49753588745e-05
2.59818982895e-05
2.70616116169e-05
2.82194786022e-05
2.94609849771e-05
3.07918966842e-05
3.22184720546e-05
3.37472057252e-05
3.53850043402e-05
3.71388729995e-05
3.90160243477e-05
4.1023465106e-05
4.31679904759e-05
4.54556060045e-05
4.78913328881e-05
5.04783681541e-05
5.32175848469e-05
5.61062840102e-05
5.91372055185e-05
6.22966183787e-05
6.55624744627e-05
6.89012438286e-05
7.2264220908e-05
7.55814165304e-05
7.87531779766e-05
8.16365107007e-05
8.40251578129e-05
8.56228043278e-05
8.60463290054e-05
8.51278096662e-05
8.31920250841e-05
8.05779573762e-05
7.7530436458e-05
7.42205219502e-05
7.07698771672e-05
6.72669094804e-05
6.37771369266e-05
6.03493708648e-05
5.70199341338e-05
5.38153037589e-05
5.07542001214e-05
4.78490073827e-05
4.51070607441e-05
4.2531583172e-05
4.01225984052e-05
3.78776120489e-05
3.57922839614e-05
3.38609203769e-05
3.2076954448e-05
3.04332813806e-05
2.89225846556e-05
2.75375489192e-05
2.62710738592e-05
2.5116406077e-05
2.4067288468e-05
2.31180645569e-05
2.22638382048e-05
2.15001252901e-05
2.0823156642e-05
2.02300735166e-05
1.97190045998e-05
1.92891547309e-05
1.89409517657e-05
1.86762109865e-05
1.84983581562e-05
1.84126701951e-05
1.84265519094e-05
1.85497849037e-05
1.87947144943e-05
1.91762504158e-05
1.97115555755e-05
2.04192157387e-05
2.13176955037e-05
2.24229067093e-05
2.3744878845e-05
2.52837947835e-05
2.7026034884e-05
2.89411937348e-05
3.09808608761e-05
3.30786026849e-05
3.51468035877e-05
3.70581155615e-05
3.85865638079e-05
6.26755183766e-05
6.19500412231e-05
6.06336441678e-05
5.8844339138e-05
5.6696165933e-05
5.42920103513e-05
5.17216350666e-05
4.9062002331e-05
4.63779453936e-05
4.37231337058e-05
4.11407707032e-05
3.86645200627e-05
3.63192796011e-05
3.41222336121e-05
3.20838038284e-05
3.02088026218e-05
2.84974385969e-05
2.69464037401e-05
2.55497547736e-05
2.42997869622e-05
2.31876793774e-05
2.22040961887e-05
2.13395762023e-05
2.05848827884e-05
1.9931183156e-05
1.93702129402e-05
1.88943173992e-05
1.84965055369e-05
1.81704205556e-05
1.79103426151e-05
1.77111340943e-05
1.75682257155e-05
1.74775590546e-05
1.74355708763e-05
1.74391402807e-05
1.74855756295e-05
1.75725676455e-05
1.76981802903e-05
1.78608105304e-05
1.80591851087e-05
1.82923288844e-05
1.85595696864e-05
1.88605142549e-05
1.9195053356e-05
1.9563181156e-05
1.99646279353e-05
2.0399476303e-05
2.08681141118e-05
2.13711754384e-05
2.19095295229e-05
2.24842500191e-05
2.30966226874e-05
2.37481264878e-05
2.44404488417e-05
2.51754714117e-05
2.59552880271e-05
2.67821914681e-05
2.765869068e-05
2.85874950632e-05
2.95715269019e-05
3.06138981906e-05
3.17179120715e-05
3.28870243792e-05
3.41248242636e-05
3.54349681647e-05
3.68211243888e-05
3.82868607743e-05
3.98355303607e-05
4.14700850287e-05
4.3192868673e-05
4.50053162677e-05
4.690760536e-05
4.88981811011e-05
5.09731940212e-05
5.31257643823e-05
5.53451007464e-05
5.76153719443e-05
5.9914333186e-05
6.2211568092e-05
6.44663029546e-05
6.66246543909e-05
6.86164376263e-05
7.0352066513e-05
7.17215631777e-05
7.26008471256e-05
7.28769336292e-05
7.2506318793e-05
7.15503125524e-05
7.01156143147e-05
6.83120272874e-05
6.62367172951e-05
6.39708610858e-05
6.15807531031e-05
5.91200620664e-05
5.66320334638e-05
5.41513449091e-05
5.17055772165e-05
4.93163879309e-05
4.70004486165e-05
4.47702279627e-05
4.26346536696e-05
4.05996980043e-05
3.86688910744e-05
3.68437835669e-05
3.51243508053e-05
3.3509352804e-05
3.19966412947e-05
3.05834285354e-05
2.9266511295e-05
2.80424660154e-05
2.69078108374e-05
2.58591510212e-05
2.48933044423e-05
2.40074199677e-05
2.31989147876e-05
2.24655436709e-05
2.18056141627e-05
2.12180718857e-05
2.07025893316e-05
2.02596681926e-05
1.98907483417e-05
1.95983245455e-05
1.93860530357e-05
1.92588309289e-05
1.92228064931e-05
1.92852699168e-05
1.94543453298e-05
1.97383979973e-05
2.01450627789e-05
2.06798389049e-05
2.13442735854e-05
2.21339147481e-05
2.30364333362e-05
2.40306002338e-05
2.50871068261e-05
2.61725511746e-05
2.72584618405e-05
2.83389448806e-05
2.94665830785e-05
3.0832317035e-05
5.48553970703e-05
5.44104103805e-05
5.35448622955e-05
5.23158183265e-05
5.07883406814e-05
4.90290807934e-05
4.71022678598e-05
4.50673223452e-05
4.29774682754e-05
4.0878995653e-05
3.88109490621e-05
3.68051629013e-05
3.48865557067e-05
3.30736494783e-05
3.13792369196e-05
2.98111548414e-05
2.83730907993e-05
2.70653871639e-05
2.58857905774e-05
2.48301302512e-05
2.38928989934e-05
2.30677395065e-05
2.23478301017e-05
2.17261841572e-05
2.11958688931e-05
2.07501615429e-05
2.03826522012e-05
2.00873091986e-05
1.98585149905e-05
1.96910832743e-05
1.95802622045e-05
1.95217293249e-05
1.95115805719e-05
1.95463155749e-05
1.9622820511e-05
1.97383491091e-05
1.98905029419e-05
2.00772109733e-05
2.02967096065e-05
2.054752281e-05
2.08284431708e-05
2.11385123599e-05
2.1476999867e-05
2.18433762116e-05
2.22373767218e-05
2.2658604266e-05
2.31068901506e-05
2.35822790944e-05
2.40850092807e-05
2.4615494822e-05
2.51743116605e-05
2.57621873385e-05
2.63799928044e-05
2.70287365702e-05
2.77095590383e-05
2.84237278107e-05
2.91726314724e-05
2.99577729605e-05
3.07807595127e-05
3.16432903641e-05
3.25471385189e-05
3.34941275825e-05
3.44860991347e-05
3.55248711882e-05
3.66121821972e-05
3.77496204635e-05
3.8938532249e-05
4.01799075234e-05
4.14742353843e-05
4.28213269187e-05
4.4220096151e-05
4.56682954757e-05
4.71621950003e-05
4.86962014595e-05
5.0262406778e-05
5.18500645135e-05
5.34449902049e-05
5.5028893868e-05
5.65786588374e-05
5.80656107764e-05
5.9454870087e-05
6.0705002368e-05
6.17683957556e-05
6.25931420706e-05
6.31276292335e-05
6.33295799136e-05
6.31789847777e-05
6.26857889858e-05
6.18821333914e-05
6.08109830053e-05
5.95182892546e-05
5.80485131993e-05
5.64424830946e-05
5.47365952787e-05
5.29627013e-05
5.11483085187e-05
4.93169002301e-05
4.74882873416e-05
4.56789565467e-05
4.39024075862e-05
4.2169478709e-05
4.04886625864e-05
3.88664105762e-05
3.7307423974e-05
3.58149275731e-05
3.43909238463e-05
3.30364243733e-05
3.17516590793e-05
3.05362623167e-05
2.93894384626e-05
2.83101076474e-05
2.72970349846e-05
2.63489435209e-05
2.54646132197e-05
2.46430089992e-05
2.38832481715e-05
2.31847324945e-05
2.25472278052e-05
2.19709363342e-05
2.14565627696e-05
2.10053694574e-05
2.06192130772e-05
2.0300546912e-05
2.00523662427e-05
1.98780630303e-05
1.97811477429e-05
1.97647880884e-05
1.98311180956e-05
1.99802896129e-05
2.02092874192e-05
2.051061302e-05
2.08710670511e-05
2.12710103125e-05
2.16846336872e-05
2.20818709785e-05
2.24325893134e-05
2.27134998076e-05
2.29177971832e-05
2.30685414921e-05
2.32068263087e-05
4.96624713291e-05
4.93334302395e-05
4.86916374179e-05
4.77686562066e-05
4.66053147471e-05
4.52472034045e-05
4.3741169862e-05
4.21327508439e-05
4.04643736657e-05
3.8774167057e-05
3.70952606773e-05
3.54554748909e-05
3.38773247821e-05
3.23782641356e-05
3.09711053137e-05
2.96645493472e-05
2.8463773859e-05
2.73710293788e-05
2.63862121277e-05
2.55073856888e-05
2.47312411124e-05
2.40534861806e-05
2.34691684419e-05
2.29729331069e-05
2.25592276212e-05
2.22224572656e-05
2.19571050024e-05
2.17578187518e-05
2.16194776352e-05
2.15372374519e-05
2.15065645063e-05
2.15232554045e-05
2.15834502336e-05
2.16836352512e-05
2.18206417882e-05
2.19916369802e-05
2.21941128114e-05
2.24258689519e-05
2.26849955846e-05
2.29698515152e-05
2.32790432061e-05
2.36113997747e-05
2.39659488321e-05
2.434188716e-05
2.47388619945e-05
2.51564753824e-05
2.55944631261e-05
2.60527062445e-05
2.65312259373e-05
2.70301724637e-05
2.75498155363e-05
2.80905338268e-05
2.86528069247e-05
2.92372065242e-05
2.98443892984e-05
3.04750883515e-05
3.11301051599e-05
3.18102991089e-05
3.25165760412e-05
3.32498730717e-05
3.40111405525e-05
3.48013184589e-05
3.56213074836e-05
3.647193198e-05
3.73538943892e-05
3.82677180402e-05
3.92136772933e-05
4.019171159e-05
4.12013217505e-05
4.22414447308e-05
4.33103046381e-05
4.44052359807e-05
4.55224768831e-05
4.66569290437e-05
4.78018843947e-05
4.8948720224e-05
5.00865719094e-05
5.12020005028e-05
5.22786886564e-05
5.32972194552e-05
5.42350285234e-05
5.50666688678e-05
5.57645942941e-05
5.63007213524e-05
5.66490069333e-05
5.67890342014e-05
5.6709792604e-05
5.64117183811e-05
5.59059860858e-05
5.52110240553e-05
5.43493275128e-05
5.33450307225e-05
5.22222402532e-05
5.10040052941e-05
4.97117416278e-05
4.83649479297e-05
4.69810987235e-05
4.55756405867e-05
4.41620496485e-05
4.27519275915e-05
4.1355123507e-05
3.99798735291e-05
3.86329517471e-05
3.73198269527e-05
3.60448201503e-05
3.48112590163e-05
3.36216259861e-05
3.24776981248e-05
3.13806771896e-05
3.03313095568e-05
2.93299954182e-05
2.83768874423e-05
2.74719781504e-05
2.6615175505e-05
2.58065267761e-05
2.50461543616e-05
2.43342936284e-05
2.36713518957e-05
2.30579545633e-05
2.24949753531e-05
2.19835438412e-05
2.15250201029e-05
2.11209205018e-05
2.07727735218e-05
2.04818781421e-05
2.02489341144e-05
2.00735142135e-05
1.99533604455e-05
1.98835130165e-05
1.9855330874e-05
1.98555363915e-05
1.98655111167e-05
1.98611643543e-05
1.98137597005e-05
1.9692067885e-05
1.94660610753e-05
1.91119975842e-05
1.86181848003e-05
1.79936671354e-05
1.72561348825e-05
4.58430490488e-05
4.55900711062e-05
4.50951955697e-05
4.43791901821e-05
4.34700106393e-05
4.24002847419e-05
4.1204898145e-05
3.9918934207e-05
3.8576044559e-05
3.72072489014e-05
3.58401382691e-05
3.44984280473e-05
3.32018073235e-05
3.19660165636e-05
3.08030956376e-05
2.97217388846e-05
2.87277111466e-05
2.78242794081e-05
2.7012634922e-05
2.62922818302e-05
2.56613865561e-05
2.51170795922e-05
2.46557155754e-05
2.42730904611e-05
2.39646258533e-05
2.37255204721e-05
2.35508787553e-05
2.3435815074e-05
2.33755421069e-05
2.336543999e-05
2.34011135769e-05
2.34784333148e-05
2.35935666589e-05
2.37429953074e-05
2.39235253124e-05
2.41322855589e-05
2.43667217973e-05
2.46245818602e-05
2.49038990217e-05
2.52029690889e-05
2.55203278804e-05
2.58547252834e-05
2.62051036012e-05
2.65705790281e-05
2.69505798597e-05
2.73450167917e-05
2.77536025634e-05
2.81761668145e-05
2.86126418077e-05
2.90630508669e-05
2.95275000985e-05
3.00061689436e-05
3.04993027437e-05
3.10072040035e-05
3.15302251579e-05
3.20687597385e-05
3.26232342114e-05
3.31940975955e-05
3.37818106704e-05
3.43868320868e-05
3.50096027514e-05
3.56505259379e-05
3.63099440552e-05
3.69881095837e-05
3.76851506789e-05
3.84010289501e-05
3.91354895329e-05
3.98880009577e-05
4.06576846645e-05
4.14432317437e-05
4.2242806704e-05
4.30539361991e-05
4.38733830515e-05
4.46970048601e-05
4.55195999611e-05
4.63347445444e-05
4.71346311078e-05
4.79099236205e-05
4.86496560574e-05
4.93412115778e-05
4.99704354621e-05
5.05219471483e-05
5.09797255387e-05
5.13280274412e-05
5.15526437402e-05
5.16423677984e-05
5.15903449412e-05
5.13948206186e-05
5.10591761473e-05
5.05912429001e-05
5.0001795539e-05
4.93034534056e-05
4.85097626653e-05
4.76344976917e-05
4.66911637906e-05
4.56926602375e-05
4.46510625324e-05
4.35774903946e-05
4.24820376628e-05
4.13737476509e-05
4.02606225587e-05
3.91496585332e-05
3.80468996261e-05
3.69575052459e-05
3.58858263942e-05
3.48354871169e-05
3.38094679975e-05
3.28101895804e-05
3.18395936878e-05
3.08992214787e-05
2.9990286796e-05
2.91137439797e-05
2.8270348672e-05
2.74607106152e-05
2.6685553697e-05
2.59456509144e-05
2.52417834203e-05
2.45747746486e-05
2.39455085356e-05
2.3354926684e-05
2.28039961195e-05
2.22936366778e-05
2.18245927513e-05
2.13972310357e-05
2.10112426964e-05
2.06652292324e-05
2.0356156832e-05
2.00786802908e-05
1.98243668339e-05
1.95808981317e-05
1.93313939273e-05
1.90540789913e-05
1.8722589323e-05
1.83072586001e-05
1.77777059021e-05
1.71069271792e-05
1.62768428541e-05
1.52848638012e-05
1.41518053231e-05
1.29214103428e-05
4.30148517043e-05
4.28153461164e-05
4.24243466543e-05
4.18568532206e-05
4.11333676198e-05
4.02783450996e-05
3.93185258814e-05
3.82813751082e-05
3.71937520682e-05
3.60808628504e-05
3.49655184327e-05
3.3867676695e-05
3.28042360032e-05
3.1789025668e-05
3.08329452665e-05
2.99441971646e-05
2.91285739224e-05
2.83897617913e-05
2.77296418755e-05
2.71485699376e-05
2.66456334643e-05
2.62188796805e-05
2.58655215001e-05
2.55821191365e-05
2.5364745707e-05
2.52091336197e-05
2.51108086482e-05
2.50652065284e-05
2.50677777418e-05
2.5114074312e-05
2.51998241877e-05
2.53209872393e-05
2.547379921e-05
2.56547984959e-05
2.58608429981e-05
2.60891127272e-05
2.63371058605e-05
2.66026243053e-05
2.68837563166e-05
2.71788522471e-05
2.748650061e-05
2.78055008676e-05
2.81348401803e-05
2.84736706199e-05
2.88212905503e-05
2.91779101963e-05
2.95433203887e-05
2.99173893761e-05
3.03000542484e-05
3.06913106922e-05
3.10912056171e-05
3.14998288882e-05
3.19173072021e-05
3.23437966868e-05
3.27794769667e-05
3.32245436819e-05
3.36792018006e-05
3.414365701e-05
3.46181071177e-05
3.51027310002e-05
3.55976766567e-05
3.6103046115e-05
3.66188783998e-05
3.71451284754e-05
3.76816430621e-05
3.82281313712e-05
3.87841314209e-05
3.93489701293e-05
3.99217177444e-05
4.05011350683e-05
4.10856141749e-05
4.1673111623e-05
4.22610755124e-05
4.28463666704e-05
4.34251772044e-05
4.39929498421e-05
4.45443058715e-05
4.50729916968e-05
4.55718602942e-05
4.60329074958e-05
4.64473888837e-05
4.68060432029e-05
4.70994450006e-05
4.7318492673e-05
4.74550088241e-05
4.75023820314e-05
4.74561300206e-05
4.73142456104e-05
4.70772378435e-05
4.67481110279e-05
4.6331866868e-05
4.58348894977e-05
4.52644985899e-05
4.46285604297e-05
4.39351683022e-05
4.31923914621e-05
4.24080848172e-05
4.15897496209e-05
4.07444359356e-05
3.98786789619e-05
3.89984626745e-05
3.81092054349e-05
3.72157629431e-05
3.63224448162e-05
3.54330413855e-05
3.45508581654e-05
3.3678755495e-05
3.28191916473e-05
3.19742674971e-05
3.11457715331e-05
3.03352235451e-05
2.95439158793e-05
2.87729505247e-05
2.80232708542e-05
2.7295918524e-05
2.65919907518e-05
2.59125334516e-05
2.52585516359e-05
2.46310020609e-05
2.4030762036e-05
2.3458565509e-05
2.2914895644e-05
2.23998199896e-05
2.19127529496e-05
2.1452129343e-05
2.10149764474e-05
2.05963803278e-05
2.01888608217e-05
1.9781699552e-05
1.93603114763e-05
1.8905811163e-05
1.83949981931e-05
1.78010599354e-05
1.7095348e-05
1.62505991133e-05
1.52459082258e-05
1.40735666226e-05
1.27474422752e-05
1.13121336131e-05
9.84725254876e-06
4.09254147884e-05
4.07653215985e-05
4.04512719897e-05
3.99947694781e-05
3.94116270297e-05
3.8720901834e-05
3.79436762082e-05
3.7101861341e-05
3.62171339964e-05
3.53100688465e-05
3.43995028483e-05
3.35021243957e-05
3.26322678012e-05
3.18018684019e-05
3.10205397112e-05
3.02957249817e-05
2.9632892814e-05
2.90357449072e-05
2.85064241672e-05
2.80457091889e-05
2.76531980093e-05
2.73274770153e-05
2.70662832292e-05
2.68666569479e-05
2.67250917243e-05
2.66376758159e-05
2.66002294636e-05
2.66084297976e-05
2.66579267396e-05
2.67444414802e-05
2.6863851823e-05
2.7012257313e-05
2.7186030206e-05
2.73818469172e-05
2.75967075032e-05
2.78279390611e-05
2.80731912581e-05
2.83304203686e-05
2.85978698443e-05
2.88740437263e-05
2.91576802861e-05
2.94477221239e-05
2.97432895949e-05
3.00436538461e-05
3.03482149961e-05
3.0657257526e-05
3.09707324888e-05
3.12886218944e-05
3.16109393212e-05
3.19377245421e-05
3.22690391192e-05
3.26049605158e-05
3.29455781926e-05
3.32909883998e-05
3.36412904029e-05
3.39965812012e-05
3.43569511197e-05
3.47224776879e-05
3.50932198212e-05
3.54692100108e-05
3.58504461979e-05
3.62368812895e-05
3.66284116956e-05
3.70248630617e-05
3.74259743292e-05
3.78313784956e-05
3.82405810308e-05
3.86529345369e-05
3.90676105545e-05
3.94835674059e-05
3.98995151276e-05
4.0313876897e-05
4.07247485184e-05
4.11298563457e-05
4.15265164155e-05
4.1911597055e-05
4.22814901626e-05
4.26320966693e-05
4.29588350569e-05
4.32566822117e-05
4.35202580622e-05
4.37439631204e-05
4.39221749983e-05
4.4049500271e-05
4.41210660102e-05
4.4132818501e-05
4.4081784656e-05
4.39662498794e-05
4.37858254385e-05
4.35413784079e-05
4.32350404851e-05
4.28699205153e-05
4.24498267639e-05
4.19790686174e-05
4.14622788344e-05
4.0904258465e-05
4.03098474783e-05
3.96838203509e-05
3.90308045308e-05
3.83552190069e-05
3.766123013e-05
3.69527222136e-05
3.62332804496e-05
3.55061842145e-05
3.47744087281e-05
3.40406336203e-05
3.33072567038e-05
3.25764118397e-05
3.18499893687e-05
3.11296581328e-05
3.04168875343e-05
2.97129685591e-05
2.90190320124e-05
2.83360627678e-05
2.76651228588e-05
2.7007360542e-05
2.63638420481e-05
2.57355418036e-05
2.51233137509e-05
2.4527837469e-05
2.39495303554e-05
2.33884158663e-05
2.28439356757e-05
2.23146935733e-05
2.1798119688e-05
2.12900491344e-05
2.07842194025e-05
2.02717106159e-05
1.97403828879e-05
1.91744097702e-05
1.85540651583e-05
1.78559931928e-05
1.70542694517e-05
1.61226373684e-05
1.50383538113e-05
1.37880625041e-05
1.2375944314e-05
1.08338570378e-05
9.23195699427e-06
7.68412091739e-06
3.93945712966e-05
3.92645998282e-05
3.90095638404e-05
3.86386672791e-05
3.81645730481e-05
3.76026012733e-05
3.69697826033e-05
3.62839097672e-05
3.55626807115e-05
3.48229894756e-05
3.40804021455e-05
3.33488137337e-05
3.26402714452e-05
3.19649255814e-05
3.13310761353e-05
3.07452739973e-05
3.02124535341e-05
2.97360709317e-05
2.93182427557e-05
2.89598754433e-05
2.86607926295e-05
2.84198582367e-05
2.82351047404e-05
2.81038629677e-05
2.80228993526e-05
2.79885525324e-05
2.79968716496e-05
2.80437456977e-05
2.81250255983e-05
2.82366288763e-05
2.83746304259e-05
2.85353315255e-05
2.87153131435e-05
2.89114680689e-05
2.91210198122e-05
2.93415243278e-05
2.95708632466e-05
2.98072251891e-05
3.00490835629e-05
3.02951672488e-05
3.05444317361e-05
3.07960268502e-05
3.10492680056e-05
3.13036075439e-05
3.15586129416e-05
3.18145603179e-05
3.20715976837e-05
3.23298629891e-05
3.25894905352e-05
3.28506101535e-05
3.31133462137e-05
3.33778145994e-05
3.36441214638e-05
3.39123606129e-05
3.41826122688e-05
3.44549403062e-05
3.47293903691e-05
3.50059863613e-05
3.52847273941e-05
3.55655830042e-05
3.58484884094e-05
3.61333378891e-05
3.64199777818e-05
3.67081974319e-05
3.69977193565e-05
3.72881871878e-05
3.75791525055e-05
3.7870059347e-05
3.81602274469e-05
3.84488332809e-05
3.87348900503e-05
3.90172260968e-05
3.92944632002e-05
3.95649949036e-05
3.98269669974e-05
4.00782613597e-05
4.03164864376e-05
4.05389770486e-05
4.07428081839e-05
4.09248267278e-05
4.10817060744e-05
4.12100264074e-05
4.1306381974e-05
4.13675116109e-05
4.13904443589e-05
4.13726456782e-05
4.13121469948e-05
4.12076412431e-05
4.10585331471e-05
4.08649429229e-05
4.06276132454e-05
4.03479333936e-05
4.00278074885e-05
3.96695037413e-05
3.92755619638e-05
3.88487079973e-05
3.83917761428e-05
3.79076427032e-05
3.73991704067e-05
3.68691631475e-05
3.63203300614e-05
3.57552581212e-05
3.51763921309e-05
3.45860213899e-05
3.39862719419e-05
3.33791037897e-05
3.27663119978e-05
3.21495310923e-05
3.15302416067e-05
3.09097781014e-05
3.02893373067e-05
2.96699854623e-05
2.90526631714e-05
2.84381866105e-05
2.782740962e-05
2.72213219774e-05
2.66208166652e-05
2.60266643882e-05
2.54394684824e-05
2.48595941135e-05
2.42870636041e-05
2.37214090168e-05
2.3161471797e-05
2.26051402878e-05
2.20490179511e-05
2.14880219416e-05
2.09149230085e-05
2.03198580334e-05
1.96898762031e-05
1.90086230616e-05
1.825632295e-05
1.7410291535e-05
1.64462926515e-05
1.53411436445e-05
1.40770550133e-05
1.26482263168e-05
1.10701024769e-05
9.39111446915e-06
7.70491611859e-06
6.15576437796e-06
3.82896365105e-05
3.81833673229e-05
3.79748767316e-05
3.76717609855e-05
3.7284450694e-05
3.6825562574e-05
3.63091241215e-05
3.57497937124e-05
3.51621566878e-05
3.45601458818e-05
3.39566188008e-05
3.33630851098e-05
3.2789570688e-05
3.22445814164e-05
3.17351390816e-05
3.1266853236e-05
3.08440116919e-05
3.0469669567e-05
3.01457368573e-05
2.98730594048e-05
2.96515036815e-05
2.94800450282e-05
2.93568697819e-05
2.92794870592e-05
2.92448552904e-05
2.92495135428e-05
2.92897185237e-05
2.93615747102e-05
2.94611581847e-05
2.95846228154e-05
2.97282919017e-05
2.988872695e-05
3.0062779812e-05
3.02476226739e-05
3.0440764259e-05
3.06400483921e-05
3.08436440195e-05
3.1050023331e-05
3.12579366899e-05
3.14663807787e-05
3.16745676871e-05
3.18818909582e-05
3.2087895421e-05
3.22922468378e-05
3.24947073071e-05
3.26954817441e-05
3.28949393079e-05
3.30933958789e-05
3.32911303185e-05
3.34883884795e-05
3.36853857349e-05
3.38823067882e-05
3.40793070941e-05
3.42765128713e-05
3.44740224488e-05
3.46719060222e-05
3.48702062256e-05
3.50689370577e-05
3.52680832903e-05
3.54675982505e-05
3.56674018058e-05
3.58673767305e-05
3.60673650173e-05
3.62671625671e-05
3.64665136055e-05
3.66651034925e-05
3.6862551115e-05
3.7058399755e-05
3.72521075381e-05
3.74430366046e-05
3.76304421233e-05
3.78134606023e-05
3.79910987698e-05
3.8162222907e-05
3.83255502296e-05
3.84796427836e-05
3.86229059429e-05
3.87535926355e-05
3.88698158342e-05
3.89695707715e-05
3.90507691347e-05
3.91112857701e-05
3.91490180409e-05
3.91619552269e-05
3.91482539198e-05
3.91063126267e-05
3.90348384305e-05
3.89328985705e-05
3.87999526229e-05
3.86358631682e-05
3.84408875252e-05
3.82155843617e-05
3.79608039461e-05
3.76776991022e-05
3.73676156382e-05
3.70320402795e-05
3.66725578133e-05
3.62908126868e-05
3.58884754481e-05
3.54672137623e-05
3.50286679705e-05
3.45744312153e-05
3.41060335637e-05
3.36249299606e-05
3.31324913997e-05
3.26299991589e-05
3.21186413989e-05
3.15995118838e-05
3.10736099407e-05
3.05418412318e-05
3.00050181701e-05
2.94638592064e-05
2.89189853714e-05
2.83709128678e-05
2.78201288073e-05
2.72673196317e-05
2.6713066455e-05
2.61578086745e-05
2.56017873199e-05
2.50449626298e-05
2.44868985873e-05
2.3926606863e-05
2.33623419113e-05
2.2791340799e-05
2.22095042607e-05
2.16110231455e-05
2.09879662945e-05
2.03298661873e-05
1.96233674371e-05
1.88520445102e-05
1.79965487229e-05
1.70353139544e-05
1.5946135085e-05
1.47090349318e-05
1.33109485008e-05
1.17528529368e-05
1.00599498344e-05
8.2949694287e-06
6.57232935347e-06
5.06313428756e-06
3.75100535146e-05
3.74229120548e-05
3.72520447586e-05
3.70038656028e-05
3.66871474643e-05
3.63124681322e-05
3.58915463894e-05
3.54365794906e-05
3.49596539761e-05
3.44722703104e-05
3.39850081573e-05
3.35073212656e-05
3.30474458458e-05
3.26123859285e-05
3.22079504736e-05
3.18388096742e-05
3.15085580844e-05
3.12197691121e-05
3.09740456492e-05
3.07720651598e-05
3.06136326185e-05
3.04977422333e-05
3.04226592173e-05
3.03860168051e-05
3.03849330109e-05
3.04161357098e-05
3.04760959597e-05
3.05611556277e-05
3.06676492938e-05
3.07920082422e-05
3.09308496018e-05
3.10810419948e-05
3.1239754224e-05
3.14044814412e-05
3.15730575514e-05
3.17436500011e-05
3.19147463749e-05
3.20851294045e-05
3.22538493399e-05
3.24201900209e-05
3.25836365647e-05
3.27438406414e-05
3.29005903989e-05
3.30537814525e-05
3.32033965715e-05
3.33494932667e-05
3.34926831713e-05
3.36334629308e-05
3.37722642077e-05
3.39094605766e-05
3.40453722731e-05
3.41802682465e-05
3.43143699931e-05
3.44478540662e-05
3.45808559119e-05
3.4713472023e-05
3.48457627919e-05
3.49777536054e-05
3.51094363503e-05
3.52407692705e-05
3.53716770614e-05
3.55020494427e-05
3.56317398298e-05
3.57605626021e-05
3.58882903688e-05
3.6014649964e-05
3.61393184035e-05
3.62619177481e-05
3.63820099974e-05
3.64990911746e-05
3.66125856808e-05
3.6721840322e-05
3.68261191232e-05
3.69245986147e-05
3.70163648275e-05
3.71004120111e-05
3.71756444798e-05
3.72408819071e-05
3.72948695455e-05
3.73362937468e-05
3.73638039004e-05
3.73760405586e-05
3.73716696577e-05
3.73494210712e-05
3.73081294412e-05
3.72467738068e-05
3.71645127957e-05
3.7060712141e-05
3.69349628e-05
3.67870890072e-05
3.6617146389e-05
3.64254114239e-05
3.62123314319e-05
3.59783627209e-05
3.57242170009e-05
3.54506930019e-05
3.51586496141e-05
3.48489869076e-05
3.45226282267e-05
3.4180502199e-05
3.38235273333e-05
3.34525991705e-05
3.30685796152e-05
3.2672288445e-05
3.22644965015e-05
3.18459205986e-05
3.14172196034e-05
3.09789916468e-05
3.05317717316e-05
3.00760294826e-05
2.96121660197e-05
2.91405093709e-05
2.86613069664e-05
2.81747140616e-05
2.76807615371e-05
2.71797447446e-05
2.66718462169e-05
2.61570920664e-05
2.56352876178e-05
2.51059276472e-05
2.45680750047e-05
2.40202013752e-05
2.34599837063e-05
2.28840522912e-05
2.22876900565e-05
2.16644907563e-05
2.10059957883e-05
2.03013491527e-05
1.95370374678e-05
1.8696820965e-05
1.77620122178e-05
1.6712326605e-05
1.5527614688e-05
1.41909000688e-05
1.26932928921e-05
1.10415238199e-05
9.26895379202e-06
7.45048990987e-06
5.71897222066e-06
4.26944038187e-06
3.69774931453e-05
3.69061580673e-05
3.67664170278e-05
3.65637743752e-05
3.63057173961e-05
3.60012215178e-05
3.56601622709e-05
3.52927373962e-05
3.49089655717e-05
3.45182968244e-05
3.41293545677e-05
3.37497927017e-05
3.33862486907e-05
3.30443545696e-05
3.27287821982e-05
3.24432929449e-05
3.21907834993e-05
3.19733162854e-05
3.17921432801e-05
3.16477243852e-05
3.15397561636e-05
3.14672128149e-05
3.1428411329e-05
3.14210954893e-05
3.14425428814e-05
3.14896823882e-05
3.15592215719e-05
3.16477690504e-05
3.1751951634e-05
3.18685134867e-05
3.19944005332e-05
3.21268212432e-05
3.22632906668e-05
3.24016520583e-05
3.25400851862e-05
3.2677097363e-05
3.28115068809e-05
3.29424153063e-05
3.30691777559e-05
3.31913673123e-05
3.33087415516e-05
3.34212068392e-05
3.35287871712e-05
3.36315930726e-05
3.37297965206e-05
3.38236066225e-05
3.39135238579e-05
3.4000262991e-05
3.40844259266e-05
3.41665234628e-05
3.4246987278e-05
3.43261763043e-05
3.44043837346e-05
3.44818422502e-05
3.4558730378e-05
3.46351769776e-05
3.47112662444e-05
3.4787040761e-05
3.48625048063e-05
3.49376259021e-05
3.50123365414e-05
3.50865343878e-05
3.51600826196e-05
3.52328089616e-05
3.5304504851e-05
3.53749235058e-05
3.54437781619e-05
3.55107394489e-05
3.55754330378e-05
3.56374367219e-05
3.56962779763e-05
3.57514313508e-05
3.58023167034e-05
3.58482978299e-05
3.58886825011e-05
3.59227236643e-05
3.59496228334e-05
3.59685355765e-05
3.59785800545e-05
3.59788484987e-05
3.59684222537e-05
3.59463899009e-05
3.59118683508e-05
3.58640256457e-05
3.58021043678e-05
3.57254436684e-05
3.56334983268e-05
3.55258531552e-05
3.54022320256e-05
3.52625013085e-05
3.51066682762e-05
3.4934875329e-05
3.47473910252e-05
3.45446105531e-05
3.43267479764e-05
3.40942556733e-05
3.38476029885e-05
3.35872770744e-05
3.33137731971e-05
3.30275806885e-05
3.27291732609e-05
3.24190006768e-05
3.20974817137e-05
3.17649984898e-05
3.14218917256e-05
3.1068456992e-05
3.07049414026e-05
3.03315407933e-05
2.99483967204e-05
2.95555931256e-05
2.9153151756e-05
2.87410259808e-05
2.83190919737e-05
2.78871373623e-05
2.74447398844e-05
2.69917353856e-05
2.65278687648e-05
2.6052714579e-05
2.55656067119e-05
2.50655445245e-05
2.45510694366e-05
2.4020106683e-05
2.34697672661e-05
2.28961081136e-05
2.22938524388e-05
2.16560806757e-05
2.09739141969e-05
2.0236233054e-05
1.94294948246e-05
1.85377583331e-05
1.75430641647e-05
1.64263894156e-05
1.51694825188e-05
1.37580099126e-05
1.21866286266e-05
1.04668550257e-05
8.63886236626e-06
6.7880651658e-06
5.06389647962e-06
3.68266679348e-06
3.66292749861e-05
3.65713224913e-05
3.64579564439e-05
3.62939503026e-05
3.60857506468e-05
3.58410207858e-05
3.55681056652e-05
3.5275517762e-05
3.49715068201e-05
3.46637426977e-05
3.43591258242e-05
3.40637025793e-05
3.37826620595e-05
3.35203747294e-05
3.32804499472e-05
3.30657846946e-05
3.28785987717e-05
3.27204481953e-05
3.25922290848e-05
3.24941754399e-05
3.24258686263e-05
3.23862611023e-05
3.23737269291e-05
3.23861333005e-05
3.24209371637e-05
3.24752936369e-05
3.25461754896e-05
3.26304881591e-05
3.2725180158e-05
3.28273357564e-05
3.29342534421e-05
3.30435010642e-05
3.31529548647e-05
3.32608165411e-05
3.33656177155e-05
3.34662076258e-05
3.35617339222e-05
3.36516127969e-05
3.37354977135e-05
3.38132426837e-05
3.38848681747e-05
3.39505250804e-05
3.40104635585e-05
3.40650020204e-05
3.41145026827e-05
3.41593506028e-05
3.41999030067e-05
3.42370379616e-05
3.42715181321e-05
3.430398975e-05
3.43349946018e-05
3.43649798027e-05
3.4394307982e-05
3.44232653067e-05
3.44520704161e-05
3.44808812554e-05
3.45098021907e-05
3.45388889107e-05
3.456815337e-05
3.45975667842e-05
3.46270626901e-05
3.46565383987e-05
3.46858565758e-05
3.47148455231e-05
3.47432996545e-05
3.47709789561e-05
3.47976087287e-05
3.48228785942e-05
3.48464419079e-05
3.48679147325e-05
3.48868753988e-05
3.4902863968e-05
3.49153825399e-05
3.49238958735e-05
3.49278332031e-05
3.49265908546e-05
3.49195364773e-05
3.49060145875e-05
3.48853541062e-05
3.48568775585e-05
3.48199123355e-05
3.47738034533e-05
3.47179277235e-05
3.46517083645e-05
3.45746294148e-05
3.448624869e-05