/*--------------------------------*- C++ -*----------------------------------*\
| =========                 |                                                 |
| \\      /  F ield         | OpenFOAM: The Open Source CFD Toolbox           |
|  \\    /   O peration     | Version:  2206                                  |
|   \\  /    A nd           | Website:  www.openfoam.com                      |
|    \\/     M anipulation  |                                                 |
\*---------------------------------------------------------------------------*/
FoamFile
{
    version     2.0;
    format      ascii;
    arch        "LSB;label=64;scalar=64";
    class       volScalarField;
    location    "3.2/water";
    object      d.gas;
}
// * * * * * * * * * * * * * * * * * * * * * * * * * * * * * * * * * * * * * //

dimensions      [0 1 0 0 0 0 0];

internalField   nonuniform List<scalar> 
23300
(
0.00498778590835
0.00498778497969
0.00498778515371
0.0049877853916
0.00498778569177
0.00498778604612
0.00498778644502
0.00498778687876
0.00498778733882
0.00498778781773
0.00498778830972
0.00498778881035
0.00498778931685
0.0049877898277
0.00498779034264
0.0049877908622
0.00498779138763
0.00498779192034
0.00498779246192
0.0049877930135
0.0049877935761
0.00498779414978
0.00498779473443
0.00498779532872
0.00498779593129
0.00498779653945
0.00498779715081
0.00498779776164
0.00498779836893
0.00498779896833
0.00498779955667
0.00498780012949
0.00498780068389
0.00498780121569
0.00498780172265
0.00498780220118
0.00498780264991
0.00498780306603
0.00498780344919
0.00498780379743
0.00498780411139
0.00498780438998
0.00498780463476
0.00498780484552
0.00498780502504
0.00498780517404
0.00498780529568
0.004987805391
0.00498780546382
0.00498780551573
0.00498780555106
0.00498780557181
0.00498780558263
0.00498780558578
0.00498780558611
0.00498780558601
0.00498780559037
0.0049878056016
0.00498780562451
0.00498780566137
0.00498780571681
0.00498780579287
0.00498780589386
0.00498780602152
0.00498780617976
0.00498780636989
0.00498780659536
0.00498780685701
0.00498780715772
0.00498780749776
0.00498780787937
0.00498780830213
0.00498780876749
0.00498780927416
0.00498780982252
0.00498781041008
0.00498781103578
0.00498781169543
0.0049878123859
0.00498781310065
0.00498781383391
0.00498781457647
0.00498781532041
0.00498781605688
0.00498781678486
0.00498781750516
0.00498781821618
0.00498781890748
0.00498781957378
0.00498782021765
0.00498782084725
0.00498782146919
0.00498782209033
0.00498782271443
0.00498782334508
0.00498782398312
0.00498782462944
0.00498782528273
0.00498782594203
0.00498782660464
0.00498782726848
0.00498782793014
0.00498782858702
0.00498782923549
0.00498782987282
0.00498783049551
0.00498783110102
0.00498783168619
0.00498783224883
0.00498783278628
0.00498783329681
0.00498783377839
0.00498783422986
0.00498783464984
0.00498783503784
0.00498783539314
0.00498783571579
0.00498783600571
0.00498783626354
0.0049878364898
0.0049878366857
0.00498783685233
0.0049878369913
0.0049878371041
0.00498783719248
0.00498783725786
0.00498783730155
0.00498783732411
0.00498783732543
0.00498783730417
0.00498783725798
0.00498783718337
0.00498783707667
0.00498783693509
0.00498783675887
0.00498783655377
0.00498783633439
0.00498783612778
0.00498783597541
0.00498783492527
0.00498791784808
0.00498791688143
0.00498791695028
0.00498791707016
0.0049879172367
0.00498791744651
0.00498791769554
0.00498791797929
0.00498791829373
0.00498791863532
0.00498791900152
0.00498791939056
0.00498791980167
0.00498792023477
0.00498792069045
0.00498792116964
0.00498792167352
0.0049879222031
0.0049879227593
0.00498792334245
0.00498792395253
0.00498792458867
0.00498792524961
0.00498792593309
0.00498792663662
0.0049879273567
0.00498792808986
0.00498792883169
0.00498792957816
0.00498793032442
0.00498793106635
0.00498793179912
0.00498793251899
0.00498793322158
0.00498793390384
0.00498793456214
0.00498793519437
0.00498793579778
0.0049879363713
0.00498793691316
0.00498793742328
0.00498793790081
0.00498793834662
0.0049879387607
0.0049879391449
0.00498793950007
0.00498793982857
0.00498794013169
0.00498794041231
0.00498794067212
0.00498794091435
0.00498794114099
0.00498794135547
0.00498794155992
0.00498794175787
0.00498794195144
0.00498794214409
0.00498794233784
0.00498794253594
0.00498794274018
0.00498794295351
0.00498794317736
0.00498794341427
0.00498794366523
0.00498794393231
0.00498794421599
0.00498794451779
0.00498794483765
0.00498794517653
0.00498794553385
0.00498794591
0.0049879463039
0.00498794671546
0.00498794714316
0.00498794758652
0.00498794804373
0.00498794851407
0.00498794899564
0.00498794948782
0.0049879499892
0.0049879505002
0.00498795102153
0.00498795155746
0.00498795211533
0.00498795270852
0.00498795334725
0.00498795403065
0.00498795474502
0.00498795547314
0.00498795620019
0.00498795691839
0.0049879576231
0.00498795831271
0.004987958986
0.00498795964303
0.00498796028332
0.00498796090713
0.00498796151397
0.00498796210388
0.00498796267622
0.00498796323078
0.00498796376672
0.00498796428365
0.00498796478059
0.004987965257
0.00498796571183
0.00498796614445
0.00498796655382
0.00498796693929
0.0049879672999
0.00498796763511
0.00498796794415
0.00498796822667
0.00498796848222
0.00498796871086
0.00498796891251
0.00498796908756
0.00498796923637
0.00498796935982
0.00498796945882
0.00498796953481
0.00498796958934
0.00498796962446
0.00498796964232
0.00498796964547
0.00498796963647
0.00498796961796
0.00498796959218
0.00498796956085
0.00498796952457
0.0049879694826
0.0049879694325
0.00498796937034
0.00498796929129
0.00498796919107
0.0049879690681
0.0049879689265
0.00498796878016
0.00498796866066
0.00498796759907
0.0049880513731
0.00498805043039
0.00498805049033
0.0049880505976
0.00498805074784
0.00498805093699
0.00498805116118
0.00498805141646
0.00498805169919
0.00498805200628
0.00498805233552
0.00498805268553
0.00498805305593
0.00498805344712
0.00498805386023
0.0049880542968
0.00498805475869
0.00498805524764
0.00498805576528
0.00498805631266
0.00498805689041
0.00498805749826
0.00498805813544
0.00498805880012
0.00498805949011
0.00498806020214
0.00498806093283
0.00498806167788
0.00498806243317
0.00498806319382
0.00498806395553
0.00498806471334
0.00498806546322
0.0049880662006
0.00498806692205
0.0049880676237
0.004988068303
0.00498806895691
0.00498806958385
0.00498807018171
0.00498807074987
0.0049880712871
0.00498807179364
0.00498807226908
0.00498807271478
0.00498807313132
0.00498807352038
0.00498807388277
0.00498807422068
0.0049880745353
0.00498807482919
0.00498807510381
0.00498807536191
0.00498807560512
0.00498807583626
0.00498807605701
0.00498807627016
0.0049880764773
0.0049880766811
0.00498807688299
0.00498807708542
0.00498807728957
0.0049880774976
0.00498807771039
0.00498807792979
0.00498807815637
0.00498807839163
0.00498807863584
0.00498807889023
0.00498807915481
0.0049880794306
0.00498807971749
0.00498808001639
0.00498808032724
0.00498808065105
0.00498808098799
0.00498808133943
0.00498808170609
0.00498808209012
0.00498808249331
0.00498808291934
0.00498808337218
0.00498808385841
0.00498808438566
0.00498808496359
0.00498808559801
0.00498808628499
0.00498808701423
0.00498808777491
0.00498808855303
0.00498808933813
0.0049880901217
0.00498809089801
0.00498809166221
0.00498809241113
0.0049880931418
0.00498809385236
0.00498809454083
0.00498809520605
0.00498809584665
0.00498809646191
0.00498809705085
0.00498809761304
0.00498809814778
0.00498809865483
0.00498809913366
0.00498809958419
0.00498810000605
0.00498810039925
0.0049881007636
0.00498810109924
0.00498810140616
0.00498810168472
0.00498810193518
0.00498810215827
0.0049881023546
0.00498810252514
0.0049881026709
0.00498810279328
0.00498810289377
0.00498810297429
0.00498810303686
0.00498810308388
0.00498810311783
0.00498810314139
0.0049881031571
0.00498810316733
0.00498810317375
0.00498810317714
0.00498810317681
0.0049881031703
0.00498810315317
0.0049881031192
0.00498810306113
0.00498810297225
0.00498810284858
0.004988102692
0.00498810251437
0.00498810234354
0.00498810122768
0.00498818450177
0.0049881835692
0.00498818363579
0.00498818374638
0.00498818389757
0.00498818408532
0.00498818430569
0.00498818455483
0.00498818482932
0.00498818512633
0.00498818544381
0.00498818578065
0.00498818613669
0.00498818651262
0.00498818690986
0.00498818733034
0.0049881877763
0.00498818824992
0.00498818875328
0.00498818928788
0.00498818985478
0.00498819045411
0.00498819108545
0.00498819174727
0.00498819243759
0.00498819315334
0.00498819389124
0.00498819464706
0.00498819541671
0.00498819619528
0.00498819697843
0.0049881977611
0.00498819853915
0.00498819930784
0.00498820006359
0.00498820080228
0.00498820152112
0.0049882022168
0.00498820288744
0.00498820353058
0.00498820414524
0.0049882047298
0.00498820528413
0.00498820580729
0.00498820630035
0.00498820676359
0.00498820719828
0.00498820760475
0.00498820798476
0.00498820833903
0.00498820866967
0.0049882089777
0.00498820926546
0.00498820953416
0.00498820978627
0.00498821002308
0.0049882102471
0.00498821045963
0.0049882106631
0.00498821085877
0.00498821104894
0.00498821123473
0.0049882114183
0.00498821160061
0.00498821178365
0.00498821196821
0.00498821215613
0.00498821234811
0.00498821254586
0.00498821275005
0.0049882129624
0.00498821318365
0.00498821341565
0.00498821365937
0.00498821391696
0.00498821418979
0.0049882144805
0.00498821479111
0.004988215125
0.0049882154851
0.00498821587591
0.00498821630173
0.00498821676853
0.00498821728193
0.00498821784793
0.00498821846958
0.0049882191429
0.00498821985861
0.00498822060985
0.00498822138756
0.00498822218208
0.00498822298453
0.00498822378804
0.00498822458624
0.00498822537433
0.00498822614776
0.00498822690318
0.0049882276373
0.00498822834785
0.00498822903251
0.00498822968981
0.00498823031819
0.0049882309168
0.00498823148466
0.00498823202142
0.00498823252654
0.00498823300002
0.00498823344165
0.00498823385173
0.00498823423034
0.00498823457798
0.00498823489503
0.00498823518223
0.00498823544028
0.00498823567034
0.00498823587345
0.00498823605097
0.00498823620427
0.00498823633511
0.00498823644526
0.0049882365369
0.00498823661223
0.00498823667376
0.00498823672398
0.00498823676547
0.0049882368005
0.00498823683103
0.00498823685815
0.00498823688191
0.00498823690071
0.00498823691115
0.00498823690773
0.00498823688315
0.00498823682901
0.00498823673728
0.00498823660236
0.0049882364239
0.00498823621019
0.00498823598219
0.00498823485384
0.00498831739397
0.00498831645983
0.00498831653538
0.00498831665445
0.00498831681373
0.00498831700921
0.00498831723685
0.00498831749281
0.00498831777358
0.00498831807637
0.00498831839915
0.00498831874086
0.00498831910135
0.00498831948141
0.00498831988255
0.00498832030685
0.0049883207567
0.0049883212345
0.00498832174255
0.00498832228257
0.00498832285586
0.00498832346274
0.00498832410299
0.00498832477524
0.00498832547763
0.00498832620717
0.00498832696068
0.00498832773393
0.00498832852288
0.00498832932261
0.00498833012875
0.00498833093622
0.0049883317408
0.00498833253767
0.00498833332316
0.00498833409302
0.00498833484432
0.00498833557356
0.00498833627866
0.00498833695691
0.00498833760712
0.00498833822736
0.00498833881723
0.00498833937548
0.00498833990283
0.00498834039932
0.00498834086608
0.00498834130313
0.00498834171186
0.0049883420927
0.00498834244742
0.00498834277676
0.00498834308277
0.00498834336643
0.00498834362995
0.00498834387446
0.00498834410228
0.00498834431461
0.00498834451381
0.00498834470107
0.00498834487874
0.00498834504799
0.00498834521112
0.00498834536925
0.00498834552461
0.00498834567831
0.00498834583252
0.00498834598836
0.00498834614804
0.00498834631274
0.00498834648476
0.00498834666545
0.00498834685733
0.00498834706203
0.00498834728237
0.00498834752037
0.00498834777929
0.00498834806167
0.0049883483713
0.00498834871133
0.00498834908618
0.00498834949968
0.00498834995674
0.0049883504612
0.00498835101693
0.00498835162492
0.00498835228408
0.00498835298482
0.00498835371998
0.00498835448497
0.0049883552719
0.00498835607265
0.00498835688043
0.00498835768854
0.00498835849161
0.00498835928432
0.00498836006255
0.0049883608222
0.00498836156023
0.00498836227358
0.00498836296016
0.00498836361783
0.00498836424528
0.00498836484113
0.00498836540473
0.00498836593533
0.00498836643279
0.00498836689686
0.00498836732781
0.0049883677258
0.00498836809144
0.00498836842523
0.0049883687281
0.00498836900094
0.00498836924517
0.00498836946207
0.00498836965319
0.0049883698201
0.00498836996471
0.00498837008895
0.00498837019507
0.00498837028531
0.00498837036217
0.00498837042803
0.00498837048526
0.00498837053587
0.00498837058143
0.00498837062255
0.00498837065872
0.00498837068778
0.00498837070569
0.0049883707063
0.00498837068164
0.00498837062247
0.00498837051967
0.0049883703661
0.00498837015928
0.00498836990437
0.00498836961783
0.00498836851715
0.00498845011384
0.00498844917352
0.00498844925921
0.00498844938949
0.00498844956106
0.00498844977002
0.00498845001226
0.0049884502838
0.0049884505811
0.00498845090123
0.00498845124202
0.0049884516023
0.00498845198181
0.00498845238122
0.00498845280196
0.00498845324606
0.00498845371588
0.00498845421382
0.00498845474219
0.00498845530274
0.00498845589682
0.00498845652479
0.00498845718647
0.00498845788049
0.00498845860505
0.00498845935715
0.00498846013362
0.00498846093022
0.00498846174293
0.00498846256682
0.00498846339751
0.00498846422991
0.00498846505982
0.00498846588238
0.00498846669389
0.00498846749004
0.00498846826786
0.00498846902374
0.00498846975551
0.00498847046033
0.00498847113687
0.00498847178303
0.00498847239823
0.00498847298109
0.00498847353194
0.00498847405061
0.00498847453842
0.00498847499511
0.00498847542189
0.00498847581894
0.00498847618785
0.00498847652917
0.00498847684479
0.00498847713552
0.00498847740349
0.0049884776497
0.00498847787644
0.00498847808486
0.00498847827733
0.0049884784551
0.0049884786206
0.00498847877513
0.00498847892114
0.00498847905997
0.00498847919409
0.00498847932488
0.00498847945485
0.00498847958547
0.0049884797193
0.00498847985794
0.00498848000409
0.00498848015953
0.00498848032718
0.00498848050906
0.00498848070835
0.00498848092741
0.00498848116972
0.00498848143799
0.00498848173605
0.00498848206694
0.00498848243477
0.00498848284276
0.00498848329492
0.00498848379391
0.0049884843423
0.00498848494023
0.00498848558666
0.00498848627585
0.00498848699915
0.00498848775069
0.00498848852682
0.0049884893202
0.00498849012449
0.00498849093314
0.00498849174069
0.00498849254161
0.00498849333142
0.00498849410562
0.00498849486072
0.00498849559321
0.00498849630054
0.00498849698015
0.00498849763033
0.00498849824934
0.00498849883623
0.00498849938997
0.00498849991022
0.00498850039656
0.00498850084916
0.00498850126809
0.00498850165394
0.00498850200721
0.00498850232882
0.00498850261973
0.00498850288149
0.00498850311547
0.00498850332332
0.00498850350664
0.00498850366739
0.00498850380753
0.0049885039293
0.00498850403489
0.00498850412669
0.00498850420692
0.00498850427775
0.0049885043409
0.00498850439757
0.00498850444801
0.00498850449128
0.00498850452475
0.00498850454394
0.00498850454228
0.00498850451126
0.00498850444105
0.00498850432166
0.00498850414483
0.00498850390675
0.00498850361121
0.00498850327382
0.00498850223111
0.00498858269098
0.00498858174362
0.00498858184059
0.00498858198447
0.00498858217199
0.00498858239926
0.00498858266211
0.00498858295655
0.00498858327881
0.0049885836258
0.00498858399513
0.00498858438542
0.00498858479612
0.00498858522769
0.0049885856813
0.00498858615875
0.00498858666221
0.0049885871939
0.00498858775597
0.00498858835004
0.00498858897733
0.00498858963809
0.00498859033206
0.00498859105777
0.00498859181335
0.00498859259573
0.00498859340172
0.00498859422703
0.00498859506764
0.0049885959186
0.00498859677558
0.0049885976335
0.00498859848818
0.0049885993348
0.00498860016971
0.0049886009886
0.00498860178852
0.00498860256585
0.00498860331843
0.00498860404336
0.00498860473927
0.00498860540399
0.00498860603687
0.00498860663643
0.00498860720258
0.00498860773519
0.00498860823582
0.00498860870407
0.00498860914103
0.00498860954675
0.00498860992271
0.00498861026934
0.00498861058846
0.0049886108808
0.00498861114843
0.00498861139235
0.00498861161484
0.00498861181707
0.00498861200148
0.00498861216939
0.00498861232335
0.00498861246481
0.00498861259639
0.00498861271962
0.0049886128372
0.00498861295076
0.00498861306308
0.00498861317589
0.00498861329207
0.00498861341347
0.00498861354311
0.00498861368302
0.00498861383638
0.00498861400544
0.00498861419355
0.00498861440318
0.00498861463791
0.00498861490039
0.00498861519435
0.00498861552258
0.0049886158888
0.00498861629567
0.00498861674644
0.00498861724294
0.0049886177869
0.0049886183779
0.0049886190147
0.00498861969372
0.00498862040879
0.00498862115128
0.00498862191708
0.00498862270204
0.00498862350037
0.00498862430582
0.00498862511308
0.00498862591665
0.00498862671196
0.00498862749434
0.00498862826007
0.0049886290054
0.00498862972749
0.00498863042348
0.00498863109136
0.00498863172912
0.00498863233553
0.00498863290933
0.00498863344994
0.00498863395677
0.00498863442982
0.00498863486903
0.00498863527488
0.00498863564778
0.00498863598861
0.00498863629825
0.00498863657828
0.00498863683013
0.00498863705541
0.0049886372557
0.00498863743295
0.00498863758902
0.0049886377261
0.00498863784626
0.00498863795176
0.0049886380446
0.00498863812675
0.00498863819961
0.00498863826411
0.00498863832011
0.00498863836633
0.0049886383998
0.00498863841573
0.00498863840722
0.00498863836548
0.00498863828029
0.00498863814122
0.00498863793951
0.00498863767106
0.00498863734006
0.00498863696407
0.00498863599669
0.0049887151436
0.00498871419092
0.00498871430026
0.00498871445993
0.00498871466661
0.00498871491649
0.00498871520533
0.004988715529
0.00498871588358
0.00498871626577
0.00498871667285
0.00498871710312
0.00498871755568
0.00498871803061
0.00498871852871
0.00498871905142
0.00498871960053
0.00498872017794
0.00498872078549
0.00498872142451
0.00498872209597
0.00498872279988
0.00498872353578
0.004988724302
0.00498872509656
0.00498872591624
0.00498872675778
0.00498872761685
0.00498872848939
0.00498872937048
0.00498873025583
0.0049887311404
0.00498873202012
0.00498873289022
0.00498873374715
0.00498873458668
0.00498873540596
0.0049887362014
0.00498873697092
0.00498873771165
0.00498873842226
0.00498873910057
0.00498873974597
0.00498874035693
0.00498874093285
0.00498874147377
0.00498874198162
0.00498874245594
0.00498874289776
0.00498874330707
0.00498874368531
0.00498874403285
0.00498874435147
0.00498874464189
0.00498874490618
0.00498874514533
0.00498874536168
0.00498874555645
0.00498874573216
0.00498874589024
0.00498874603335
0.00498874616308
0.00498874628223
0.00498874639251
0.00498874649682
0.00498874659699
0.00498874669602
0.00498874679586
0.00498874689961
0.00498874700934
0.00498874712827
0.0049887472586
0.00498874740367
0.00498874756584
0.00498874774854
0.00498874795427
0.00498874818655
0.00498874844796
0.00498874874201
0.00498874907122
0.00498874943891
0.00498874984724
0.00498875029888
0.00498875079501
0.00498875133681
0.00498875192349
0.00498875255383
0.00498875322446
0.00498875393171
0.00498875466859
0.00498875542784
0.00498875620512
0.00498875699714
0.00498875779816
0.00498875860307
0.00498875940652
0.00498876020397
0.00498876099073
0.00498876176299
0.00498876251688
0.00498876324938
0.00498876395744
0.00498876463888
0.00498876529146
0.00498876591374
0.00498876650426
0.00498876706225
0.00498876758692
0.00498876807813
0.00498876853565
0.00498876895984
0.00498876935098
0.00498876970985
0.0049887700372
0.00498877033458
0.00498877060343
0.00498877084529
0.00498877106168
0.00498877125442
0.00498877142531
0.00498877157638
0.00498877170958
0.00498877182697
0.00498877193037
0.00498877202147
0.00498877210144
0.00498877217087
0.00498877222936
0.00498877227533
0.00498877230554
0.004988772315
0.00498877229666
0.00498877224162
0.00498877213962
0.00498877198018
0.00498877175471
0.00498877145969
0.00498877110099
0.00498877069982
0.0049887698148
0.00498884748273
0.00498884652855
0.00498884665126
0.00498884682873
0.00498884705764
0.00498884733413
0.00498884765388
0.00498884801271
0.00498884840641
0.00498884883142
0.00498884928467
0.00498884976407
0.00498885026823
0.00498885079676
0.00498885134995
0.00498885192873
0.00498885253441
0.00498885316841
0.00498885383213
0.00498885452649
0.00498885525207
0.00498885600855
0.00498885679517
0.00498885761003
0.00498885845092
0.00498885931448
0.00498886019735
0.00498886109511
0.00498886200374
0.00498886291831
0.00498886383461
0.00498886474768
0.00498886565358
0.00498886654764
0.00498886742648
0.00498886828598
0.00498886912342
0.00498886993535
0.00498887071979
0.00498887147397
0.00498887219665
0.00498887288571
0.0049888735406
0.00498887415992
0.00498887474254
0.00498887528846
0.00498887580006
0.00498887627704
0.00498887672046
0.00498887713027
0.00498887750789
0.00498887785368
0.00498887816943
0.00498887845585
0.00498887871505
0.00498887894806
0.00498887915727
0.00498887934395
0.00498887951075
0.00498887965917
0.00498887979202
0.00498887991101
0.0049888800191
0.00498888011817
0.00498888021128
0.00498888030045
0.00498888038886
0.00498888047863
0.00498888057304
0.00498888067432
0.00498888078583
0.0049888809099
0.00498888104996
0.00498888120841
0.00498888138873
0.00498888159337
0.00498888182578
0.00498888208837
0.00498888238447
0.00498888271631
0.00498888308684
0.00498888349779
0.00498888395137
0.00498888444826
0.00498888498925
0.00498888557331
0.00498888619919
0.00498888686377
0.00498888756374
0.00498888829425
0.00498888904967
0.00498888982238
0.00498889060862
0.00498889140479
0.00498889220641
0.00498889300823
0.00498889380581
0.00498889459447
0.00498889537043
0.00498889612974
0.00498889686932
0.00498889758602
0.0049888982775
0.0049888989414
0.00498889957611
0.00498890018002
0.00498890075219
0.0049889012917
0.00498890179822
0.00498890227141
0.00498890271148
0.0049889031186
0.00498890349341
0.00498890383647
0.00498890414926
0.00498890443326
0.00498890468992
0.00498890492062
0.00498890512708
0.00498890531096
0.00498890547415
0.00498890561844
0.00498890574568
0.00498890585748
0.00498890595531
0.00498890604006
0.00498890611209
0.00498890617072
0.00498890621414
0.00498890623897
0.00498890624011
0.00498890621052
0.0049889061414
0.00498890602271
0.00498890584436
0.00498890559836
0.00498890528242
0.0049889049048
0.00498890449105
0.00498890368877
0.00498897971434
0.00498897876418
0.00498897890137
0.00498897909873
0.00498897935282
0.00498897965984
0.00498898001537
0.00498898041505
0.00498898085444
0.00498898132968
0.00498898183724
0.00498898237453
0.00498898293961
0.0049889835315
0.00498898414983
0.00498898479494
0.00498898546749
0.00498898616832
0.00498898689824
0.00498898765767
0.00498898844672
0.00498898926463
0.00498899011029
0.00498899098148
0.00498899187578
0.00498899278963
0.00498899371957
0.00498899466111
0.00498899561024
0.00498899656206
0.00498899751249
0.00498899845664
0.00498899939075
0.0049890003103
0.00498900121209
0.00498900209217
0.004989002948
0.00498900377628
0.00498900457519
0.00498900534208
0.00498900607584
0.00498900677445
0.00498900743743
0.00498900806332
0.00498900865209
0.00498900920226
0.00498900971547
0.00498901019322
0.00498901063645
0.00498901104508
0.00498901142053
0.00498901176316
0.00498901207479
0.00498901235614
0.00498901260936
0.00498901283552
0.00498901303709
0.00498901321542
0.00498901337324
0.00498901351216
0.00498901363512
0.00498901374395
0.00498901384175
0.00498901393054
0.00498901401357
0.00498901409297
0.00498901417211
0.00498901425324
0.0049890143398
0.00498901443413
0.00498901453971
0.00498901465895
0.00498901479534
0.00498901495132
0.00498901513035
0.00498901533482
0.00498901556809
0.00498901583242
0.00498901613092
0.00498901646556
0.00498901683898
0.00498901725254
0.00498901770806
0.00498901820587
0.00498901874644
0.00498901932857
0.00498901995097
0.00498902061069
0.0049890213047
0.00498902202858
0.00498902277793
0.00498902354763
0.00498902433039
0.00498902512167
0.00498902591948
0.00498902671856
0.00498902751477
0.00498902830345
0.00498902908087
0.00498902984309
0.004989030587
0.00498903130939
0.00498903200785
0.0049890326799
0.00498903332383
0.00498903393791
0.0049890345211
0.00498903507231
0.00498903559112
0.00498903607704
0.00498903653017
0.00498903695056
0.00498903733873
0.00498903769504
0.00498903802079
0.00498903831759
0.00498903858675
0.00498903882953
0.00498903904753
0.00498903924226
0.00498903941546
0.00498903956874
0.00498903970377
0.00498903982196
0.00498903992454
0.00498904001218
0.00498904008502
0.00498904014217
0.00498904018169
0.0049890402001
0.00498904019232
0.00498904015145
0.004989040069
0.00498903993536
0.0049890397411
0.0049890394792
0.0049890391489
0.00498903876109
0.00498903834558
0.00498903762282
0.00498911184065
0.00498911090163
0.0049891110545
0.00498911127385
0.00498911155624
0.00498911189781
0.00498911229403
0.00498911274043
0.00498911323222
0.00498911376515
0.0049891143352
0.00498911493921
0.00498911557453
0.00498911623948
0.00498911693295
0.00498911765448
0.00498911840402
0.00498911918168
0.00498911998761
0.00498912082159
0.0049891216832
0.00498912257118
0.00498912348403
0.00498912441918
0.00498912537394
0.00498912634457
0.0049891273275
0.00498912831819
0.00498912931266
0.00498913030604
0.00498913129439
0.00498913227296
0.00498913323818
0.0049891341857
0.00498913511254
0.00498913601493
0.00498913689056
0.0049891377363
0.00498913855054
0.00498913933077
0.00498914007605
0.00498914078446
0.00498914145569
0.00498914208837
0.00498914268269
0.00498914323625
0.00498914375098
0.00498914422907
0.00498914467155
0.0049891450784
0.0049891454511
0.00498914578999
0.00498914609696
0.00498914637275
0.00498914661957
0.00498914683855
0.00498914703221
0.00498914720199
0.00498914735073
0.00498914748012
0.00498914759322
0.00498914769199
0.00498914777968
0.00498914785842
0.00498914793161
0.00498914800152
0.00498914807166
0.00498914814442
0.00498914822335
0.00498914831091
0.00498914841067
0.00498914852509
0.00498914865774
0.00498914881104
0.00498914898843
0.00498914919226
0.00498914942578
0.00498914969109
0.00498914999113
0.00498915032761
0.0049891507029
0.00498915111808
0.00498915157463
0.00498915207259
0.00498915261221
0.00498915319213
0.00498915381106
0.00498915446613
0.00498915515453
0.0049891558721
0.00498915661499
0.0049891573781
0.00498915815737
0.0049891589454
0.00498915973837
0.00498916053407
0.00498916132736
0.00498916211428
0.00498916289113
0.00498916365399
0.00498916439976
0.00498916512517
0.00498916582779
0.00498916650506
0.00498916715522
0.00498916777642
0.00498916836754
0.00498916892739
0.00498916945545
0.00498916995112
0.00498917041439
0.0049891708452
0.00498917124399
0.00498917161092
0.00498917194708
0.00498917225411
0.00498917253328
0.00498917278574
0.00498917301297
0.00498917321634
0.00498917339742
0.00498917355767
0.00498917369857
0.00498917382135
0.00498917392704
0.00498917401613
0.00498917408856
0.00498917414331
0.00498917417835
0.00498917419021
0.00498917417392
0.00498917412284
0.00498917402891
0.00498917388314
0.00498917367694
0.00498917340444
0.0049891730665
0.00498917267655
0.0049891722681
0.00498917162002
0.00498924386068
0.00498924294135
0.00498924311126
0.00498924335496
0.0049892436689
0.0049892440493
0.00498924449149
0.00498924499073
0.00498924554196
0.00498924614048
0.00498924678163
0.00498924746158
0.00498924817687
0.00498924892496
0.00498924970384
0.00498925051219
0.00498925134905
0.00498925221371
0.00498925310557
0.00498925402371
0.00498925496709
0.00498925593392
0.00498925692225
0.00498925792915
0.00498925895167
0.00498925998588
0.0049892610281
0.00498926207376
0.0049892631189
0.00498926415876
0.00498926518951
0.00498926620658
0.0049892672066
0.00498926818541
0.0049892691403
0.00498927006767
0.00498927096548
0.00498927183078
0.00498927266218
0.00498927345734
0.00498927421551
0.00498927493493
0.00498927561542
0.00498927625576
0.00498927685643
0.00498927741417
0.00498927793087
0.00498927840936
0.0049892788511
0.00498927925611
0.00498927962592
0.00498927996091
0.00498928026302
0.004989280533
0.00498928077317
0.00498928098466
0.00498928117012
0.00498928133103
0.00498928147034
0.00498928158983
0.0049892816927
0.004989281781
0.00498928185812
0.00498928192632
0.00498928198913
0.00498928204896
0.00498928210946
0.00498928217311
0.0049892822436
0.00498928232347
0.0049892824164
0.0049892825249
0.00498928265257
0.00498928280183
0.00498928297614
0.00498928317774
0.00498928340981
0.00498928367433
0.00498928397404
0.00498928431046
0.00498928468573
0.00498928510064
0.00498928555646
0.00498928605298
0.00498928659025
0.00498928716681
0.00498928778135
0.00498928843104
0.00498928911324
0.004989289824
0.00498929055968
0.00498929131565
0.00498929208771
0.00498929287042
0.00498929365964
0.00498929445023
0.00498929523935
0.00498929602259
0.00498929679675
0.00498929755804
0.00498929830326
0.00498929902915
0.00498929973327
0.00498930041301
0.00498930106654
0.00498930169197
0.00498930228809
0.00498930285364
0.00498930338801
0.00498930389052
0.00498930436106
0.00498930479949
0.00498930520612
0.00498930558121
0.00498930592536
0.00498930624
0.0049893065267
0.00498930678647
0.00498930702067
0.00498930723053
0.00498930741749
0.00498930758284
0.00498930772793
0.00498930785379
0.0049893079613
0.00498930805079
0.00498930812207
0.00498930817405
0.00498930820465
0.00498930821048
0.00498930818679
0.00498930812727
0.00498930802441
0.00498930786994
0.0049893076562
0.00498930737852
0.00498930703935
0.00498930665434
0.00498930625985
0.00498930568115
0.00498937577052
0.00498937488086
0.00498937506932
0.00498937533986
0.00498937568901
0.00498937611288
0.00498937660667
0.00498937716552
0.00498937778387
0.00498937845652
0.00498937917812
0.00498937994399
0.00498938074973
0.00498938159179
0.0049893824671
0.00498938337329
0.00498938430842
0.00498938527085
0.00498938625908
0.00498938727146
0.00498938830627
0.00498938936115
0.00498939043368
0.00498939152058
0.00498939261864
0.00498939372371
0.00498939483207
0.00498939593908
0.00498939704088
0.00498939813276
0.00498939921109
0.00498940027144
0.00498940131069
0.00498940232489
0.00498940331157
0.00498940426736
0.00498940519047
0.00498940607815
0.00498940692926
0.00498940774163
0.0049894085147
0.00498940924684
0.00498940993805