/*--------------------------------*- C++ -*----------------------------------*\
| =========                 |                                                 |
| \\      /  F ield         | OpenFOAM: The Open Source CFD Toolbox           |
|  \\    /   O peration     | Version:  2206                                  |
|   \\  /    A nd           | Website:  www.openfoam.com                      |
|    \\/     M anipulation  |                                                 |
\*---------------------------------------------------------------------------*/
FoamFile
{
    version     2.0;
    format      ascii;
    arch        "LSB;label=64;scalar=64";
    class       volScalarField;
    location    "3.2/water";
    object      epsilonm;
}
// * * * * * * * * * * * * * * * * * * * * * * * * * * * * * * * * * * * * * //

dimensions      [0 2 -3 0 0 0 0];

internalField   nonuniform List<scalar> 
23300
(
0.000648981685136
0.000662378729221
0.00068413931417
0.000713959691032
0.000751532658446
0.000796894135824
0.000850331372646
0.000912270365613
0.000983238012451
0.00106377664974
0.00115443075155
0.00125566103023
0.00136784046158
0.00149116579487
0.0016256659055
0.00177112119781
0.00192709623603
0.00209287922481
0.0022675494047
0.00244993995712
0.0026387389837
0.00283246569488
0.00302959102995
0.00322850914576
0.00342766036762
0.00362548351958
0.00382053073998
0.00401139663286
0.00419682387784
0.00437561371199
0.00454672649848
0.00470918064209
0.00486215232104
0.00500486839382
0.00513670711779
0.00525708816427
0.005365574018
0.00546175854671
0.00554536753747
0.00561614614308
0.0056739557815
0.00571865887031
0.00575020662592
0.00576851514339
0.00577362643482
0.00576592151007
0.00574573903421
0.00571336191188
0.0056691377026
0.00561340276508
0.00554657117908
0.00546905474738
0.00538134127855
0.00528391952192
0.00517734973697
0.00506219530836
0.00493908588137
0.00480865569013
0.00467159929311
0.00452861607218
0.00438045869758
0.00422788304844
0.00407168965122
0.00391267821208
0.00375168239373
0.00358952818766
0.00342706254208
0.00326511497824
0.00310452080984
0.00294608579094
0.00279060505811
0.00263883117315
0.00249149045757
0.00234925561715
0.00221276182125
0.00208258616859
0.00195926747631
0.00184329787302
0.00173515497357
0.00163531868821
0.00154433735267
0.00146290454531
0.00139202016989
0.00133323266857
0.00128904129683
0.00126306267465
0.001256361527
0.00126413148679
0.00128217980959
0.00130781593392
0.00133930873477
0.00137546741837
0.00141540423779
0.00145838865235
0.00150377213773
0.00155093577086
0.00159926866581
0.0016481490083
0.00169694315058
0.00174500126089
0.00179166553378
0.00183627260247
0.00187816518907
0.00191669692857
0.00195124424676
0.00198121115485
0.0020060396904
0.00202521347703
0.00203826601528
0.00204478249443
0.00204440558657
0.00203683491858
0.00202182908768
0.00199919957803
0.00196886517957
0.00193083104495
0.00188517789689
0.00183206778663
0.00177175327204
0.00170458473411
0.00163102175378
0.0015516435241
0.00146716237315
0.00137843516077
0.00128647376876
0.00119244795808
0.00109767798839
0.00100360887463
0.000911762496136
0.00082366409702
0.000740748001053
0.000664253949093
0.000595133104749
0.000533984101717
0.00048103457488
0.000436174981784
0.000399046511417
0.000369195241872
0.000346345063501
0.000330931615258
0.000766264127554
0.00077606914686
0.000794621120669
0.000821430533509
0.000856245939395
0.000899027832948
0.000949899954278
0.0010090927158
0.0010768934272
0.0011535933871
0.00123944245805
0.00133459816206
0.00143908406748
0.00155274485321
0.00167521714114
0.00180590321292
0.00194396900369
0.00208835024115
0.00223778737649
0.00239086650185
0.0025460846412
0.00270190942087
0.00285685157299
0.00300951658892
0.00315865868499
0.00330320392508
0.00344227309269
0.00357517290915
0.00370139239705
0.00382057297148
0.0039324919732
0.00403702608508
0.00413413463538
0.00422382644148
0.00430614948466
0.0043811650528
0.00444894490739
0.00450955233848
0.00456304504118
0.00460946096569
0.00464882439437
0.00468113465085
0.00470637439444
0.00472450299236
0.00473549831628
0.00473940602082
0.0047362453924
0.00472601455948
0.0047087100209
0.00468432840732
0.00465288027003
0.00461438882477
0.00456890091963
0.00451648512727
0.00445724131293
0.00439129883061
0.00431882499724
0.00424002339894
0.00415514114652
0.00406446699916
0.00396833710971
0.00386713254625
0.0037612831719
0.00365126410854
0.00353759740874
0.00342084705721
0.00330161820366
0.00318055047927
0.00305831482779
0.00293560529552
0.00281313399028
0.00269162211507
0.00257179428476
0.0024543703479
0.00234006110585
0.00222956341204
0.00212356060659
0.00202272529628
0.00192773063818
0.00183926881519
0.00175808257197
0.00168500719105
0.00162102037788
0.00156727391352
0.00152503754393
0.00149536588954
0.00147822322718
0.00147199927468
0.00147465545403
0.00148436407315
0.00149963776926
0.00151928757057
0.00154234672347
0.00156800185503
0.00159554179013
0.00162432160261
0.00165373971737
0.00168322384973
0.0017122242675
0.00174021135023
0.00176667675329
0.00179113596408
0.00181313214837
0.00183223969565
0.001848067817
0.00186026303276
0.00186851119506
0.00187253813626
0.00187210975324
0.0018670307611
0.00185714300819
0.00184232268253
0.0018224774293
0.00179754318646
0.00176749834774
0.00173236516592
0.00169219776684
0.00164708444769
0.00159715250851
0.00154257532823
0.00148358262677
0.0014204735585
0.00135363295047
0.00128354933492
0.00121083325507
0.00113623215283
0.00106063738768
0.000985077322036
0.000910691195749
0.000838680471211
0.000770239431486
0.000706472682078
0.000648312410118
0.000596448843249
0.000551281650106
0.000512887413359
0.000480978550223
0.000454794557588
0.000432791407335
0.000411878471529
0.000878882427462
0.000887065753991
0.000903438804561
0.000927807103187
0.000960062778864
0.00100019248374
0.00104826074596
0.00110437957919
0.0011686724698
0.00124123376407
0.00132208802452
0.00141114837173
0.00150817943327
0.00161276440441
0.00172428378529
0.00184190515502
0.00196459180903
0.00209112662376
0.00222015639762
0.00235024733427
0.00247995329425
0.00260788233982
0.002732762442
0.00285349090538
0.00296917243708
0.00307913352945
0.00318292451399
0.00328030047971
0.00337119709054
0.00345569332406
0.00353397835067
0.00360631273667
0.00367300006341
0.00373435655472
0.00379069327345
0.00384229667904
0.00388942113916
0.00393227857728
0.00397103844973
0.00400582352304
0.00403671449818
0.00406374982216
0.004086933712
0.00410624002088
0.00412159131202
0.0041328674026
0.00413994075069
0.00414267271838
0.0041409192338
0.00413453286371
0.00412336978478
0.00410729223921
0.00408617503433
0.0040599080163
0.00402840216519
0.00399159218685
0.00394944225487
0.00390194865028
0.00384914502104
0.00379110482447
0.00372794582846
0.00365983198282
0.00358697678408
0.00350964412246
0.00342815008269
0.00334286230037
0.00325419980471
0.00316263051501
0.00306866890219
0.00297287152579
0.00287583266405
0.00277817827415
0.00268056030287
0.00258365005861
0.00248813249885
0.00239470052846
0.00230405101895
0.00221688197759
0.00213389240444
0.00205578416679
0.00198326606783
0.00191705653334
0.00185787875949
0.00180643435036
0.0017633333095
0.00172894049995
0.00170315543887
0.00168533374765
0.00167446513672
0.00166945751197
0.00166926930826
0.0016729594995
0.00167969390173
0.00168873312508
0.0016994159005
0.00171114354791
0.00172336808067
0.00173558406898
0.00174732402498
0.00175815624658
0.00176768446742
0.00177554830416
0.00178142409781
0.00178502548912
0.0017861036422
0.00178444674268
0.00177987889382
0.00177225821257
0.00176147437061
0.00174744549777
0.00173011478523
0.00170944683271
0.00168542424389
0.00165804472529
0.00162731661455
0.00159326587296
0.00155593085108
0.00151536318242
0.00147163108639
0.00142482530393
0.00137506814345
0.00132252575711
0.00126742366792
0.00121006479903
0.00115084856471
0.00109028830971
0.00102902335808
0.000967821036131
0.000907564318833
0.000849222398248
0.000793804896389
0.000742304665621
0.000695637569796
0.00065458800558
0.000619764605342
0.000591561373332
0.00057010712696
0.000555172171243
0.000545950676439
0.000541330766462
0.000977378015131
0.000985119554112
0.00100059175186
0.00102374900647
0.00105455793118
0.00109301176433
0.00113912532661
0.00119291609316
0.00125437791554
0.00132344906305
0.00139997956658
0.00148369831562
0.001574185481
0.00167085065733
0.00177292324565
0.00187945445915
0.00198933680117
0.00210133703625
0.00221414569064
0.00232643406282
0.00243691881161
0.00254442139088
0.00264792251346
0.00274659921058
0.00283984891489
0.00292729165954
0.00300876051417
0.00308427456963
0.00315400812303
0.00321825079339
0.00327737248787
0.00333178602425
0.00338191977194
0.00342819076152
0.00347098902448
0.00351066214963
0.00354750993411
0.0035817777548
0.00361365825078
0.00364329031126
0.00367076486087
0.00369612707331
0.00371938425116
0.00374050972842
0.00375940483734
0.00377588048225
0.00378974680857
0.00380080759612
0.00380886250992
0.00381370747466
0.00381513928655
0.00381295731678
0.00380696851996
0.0037969896502
0.0037828523356
0.00376440564984
0.00374152116384
0.00371409575753
0.00368205652039
0.00364536360461
0.00360401475194
0.00355804788882
0.00350754496318
0.00345263389719
0.00339349134957
0.00333034359653
0.00326346782127
0.00319319152363
0.00311989202226
0.00304399414872
0.00296596787964
0.00288632438589
0.00280561208699
0.00272441152417
0.00264333047663
0.00256299834107
0.00248406093264
0.00240717472898
0.00233300124466
0.00226220016052
0.00219542077768
0.00213328886709
0.00207638588371
0.00202521499638
0.00198014988226
0.00194136622749
0.00190877683995
0.00188205972504
0.00186065955758
0.00184388837717
0.00183102694599
0.00182137258205
0.00181426415076
0.00180909177568
0.00180529826153
0.00180237662922
0.0017998667332
0.00179735208652
0.00179445756669
0.00179084777024
0.00178622595703
0.00178033310643
0.00177294699605
0.00176388094865
0.00175298228158
0.001740130253
0.00172523363788
0.00170822783438
0.00168907169937
0.00166774409621
0.00164424041284
0.00161856912347
0.00159074873703
0.00156080532326
0.00152876073344
0.00149464000761
0.00145847187465
0.00142028964459
0.00138013416516
0.00133805913502
0.00129413917783
0.00124848084176
0.00120123654684
0.00115262095545
0.00110292867965
0.00105255135685
0.00100199140183
0.000951869234791
0.000902921112263
0.000855986055275
0.000811982944212
0.000771882084306
0.000736678434514
0.000707374928535
0.000684982856787
0.000670541936587
0.000665156513828
0.00067003511542
0.000686369195517
0.000715825596581
0.00107006629454
0.0010775311592
0.00109244935041
0.00111480201855
0.00114456779724
0.0011817225243
0.00122623122129
0.00127803150434
0.00133701239436
0.00140298895426
0.00147567758032
0.00155467212078
0.00163942646902
0.00172924340402
0.00182327561066
0.00192053712329
0.00201992995374
0.00212028082062
0.00222039026334
0.00231908499643
0.00241527385551
0.00250799583645
0.00259646150822
0.00268007731373
0.0027584580719
0.00283142040909
0.00289896705474
0.00296125718393
0.00301857517847
0.00307129296415
0.00311983802934
0.00316466046609
0.00320620957157
0.00324491139335
0.00328115634622
0.00331528718632
0.00334759574277
0.00337831852537
0.00340763938514
0.00343568973213
0.00346255436712
0.00348827390254
0.00351285139782
0.00353625443153
0.00355840682147
0.00357908313736
0.00359807309586
0.00361516041206
0.00363012542883
0.00364274510171
0.00365279648222
0.00366005770051
0.00366431194414
0.00366534906606
0.00366296981025
0.0036569878771
0.00364723428129
0.00363355975405
0.003615839116
0.00359397385559
0.00356789634346
0.0035375723573
0.00350300489378
0.00346423633934
0.00342135157186
0.00337447942439
0.00332379473264
0.0032695187274
0.00321191970345
0.00315131203748
0.00308805525974
0.00302255154915
0.0029552431772
0.00288660852894
0.00281715803869
0.00274742882006
0.00267797904424
0.00260938081834
0.00254221218632
0.00247704679345
0.00241444129206
0.00235491874876
0.00229894779695
0.00224691634348
0.00219910146048
0.00215563912086
0.00211650348462
0.00208150962149
0.00205041184829
0.00202279198367
0.00199818257978
0.00197609957837
0.00195606571665
0.00193762509503
0.00192035164284
0.00190385334583
0.00188777417803
0.00187179457336
0.0018556312847
0.00183903670709
0.00182179797666
0.00180373567588
0.00178470231488
0.00176458041386
0.00174328034776
0.00172073782696
0.00169691119049
0.00167177843771
0.001645334194
0.001617586588
0.00158855426107
0.00155826354289
0.00152674604677
0.00149403677241
0.00146016001776
0.00142513609189
0.0013889858071
0.00135173180027
0.0013134015927
0.00127403265357
0.0012336798148
0.00119242519183
0.00115039065828
0.00110775252297
0.00106475768188
0.00102173995087
0.000979134901054
0.000937491370511
0.00089747836486
0.000859887449544
0.000825633151301
0.000795757123536
0.000771445518791
0.000754072809321
0.000745289166625
0.000747172873567
0.000762474419151
0.000794981727183
0.000849944050983
0.000934969245423
0.00115743077953
0.00116473613281
0.00117932858888
0.00120118101499
0.00123025379127
0.00126648772467
0.00130979321646
0.00136003419345
0.00141701030965
0.00148043693485
0.00154992768027
0.0016249789724
0.00170496198099
0.00178912075935
0.00187658177912
0.00196637185199
0.00205744836006
0.00214873584017
0.0022391710111
0.00232774735132
0.00241356042252
0.00249584381132
0.00257399831997
0.00264760554451
0.00271643196169
0.00278041721691
0.00283965621918
0.00289437037297
0.00294487911656
0.00299156677137
0.00303485538338
0.00307517699179
0.00311295465124
0.00314858411455
0.00318242436974
0.00321478815335
0.00324594006413
0.00327609335042
0.0033054128105
0.00333401524863
0.00336197480636
0.00338932505063
0.00341606483697
0.00344216029116
0.00346754995919
0.00349202373963
0.00351536250818
0.00353734402909
0.00355774411551
0.00357633597286
0.00359289291621
0.00360718881925
0.00361900136542
0.00362811311755
0.00363431505989
0.00363740813641
0.00363720697624
0.00363354178933
0.00362626217064
0.00361523921943
0.00360036928489
0.00358157613182
0.00355881444333
0.00353207180449
0.00350137172785
0.00346677518015
0.0034283828558
0.00338633594248
0.00334081735161
0.00329205142157
0.00324030383649
0.00318588001086
0.00312912348609
0.00307041280043
0.00301015818467
0.00294879669145
0.00288678687463
0.00282460168071
0.00276272039202
0.00270161831535
0.0026417548929
0.00258355920463
0.00252741386185
0.00247363724963
0.00242246641292
0.00237404250266
0.0023284027978
0.00228548155176
0.00224515493817
0.00220727549276
0.0021715741646
0.00213775586642
0.00210551599839
0.00207455335996
0.00204457950111
0.00201532503882
0.00198654384469
0.00195801541112
0.00192954609951
0.00190096935419
0.00187214532652
0.0018429598545
0.00181332310018
0.00178316775077
0.00175244701913
0.00172113235399
0.00168921106516
0.00165668379687
0.00162356204372
0.00158986567371
0.00155562065446
0.0015208569843
0.00148560703072
0.00144990430863
0.00141376942012
0.00137721538329
0.00134025526314
0.00130290398042
0.00126518159775
0.00122711830217
0.00118876137996
0.00115018432641
0.0011114981734
0.00107286484503
0.00103451214575
0.00099674968679
0.000959984977604
0.000924739106466
0.000891662278666
0.000861551175495
0.000835372940432
0.000814304839616
0.000799804751904
0.00079373680276
0.000798591210079
0.00081786274356
0.000856696081126
0.00092297776901
0.00102910526581
0.00119495853139
0.00124004620852
0.00124729334417
0.00126175646044
0.0012833865974
0.00131211183517
0.00134782789692
0.00139038659799
0.00143958085437
0.00149513011826
0.00155666545142
0.00162371881214
0.00169571531462
0.00177197338814
0.00185171054255
0.001934059178
0.0020180882971
0.00210283443832
0.00218733536876
0.00227066882483
0.00235198798147
0.00243055592933
0.0025057703862
0.00257718254537
0.0026445024491
0.00270759756791
0.00276647874974
0.00282128267863
0.00287224594069
0.0029196807854
0.00296394721026
0.00300543095647
0.00304452078254
0.00308159354823
0.00311699934124
0.00315105432623
0.0031840330064
0.00321616714076
0.00324764302509
0.0032786042175
0.00330915175514
0.00333934882499
0.00336922234347
0.00339876814955
0.00342795264115
0.00345671734281
0.0034849053301
0.00351229260306
0.00353865533393
0.00356376963503
0.00358741011042
0.00360935191091
0.00362937072768
0.00364724551337
0.00366275910541
0.00367570124064
0.00368586962219
0.00369307311735
0.00369713316406
0.00369788705728
0.00369518957936
0.00368891626179
0.00367896509822
0.00366525964079
0.00364775062219
0.00362641871184
0.00360127583845
0.00357236739656
0.00353977302925
0.0035036080461
0.0034640234028
0.00342120607323
0.00337537795184
0.00332679491466
0.0032757443643
0.00322254269944
0.00316753119252
0.00311107153247
0.00305353965225
0.00299531894297
0.00293679165668
0.00287832958658
0.00282028321337
0.0027629706939
0.00270666655305
0.00265159193243
0.00259790683189
0.00254570620776
0.00249501998937
0.00244581763029
0.00239807468427
0.00235176027255
0.0023067404634
0.00226286585416
0.0022199801959
0.00217792811051
0.00213656085214
0.00209574073026
0.00205534397104
0.0020152625765
0.00197540513444
0.00193569701817
0.0018960799058
0.00185651095688
0.00181696155815
0.00177741590252
0.00173786931315
0.00169832653108
0.00165879989385
0.00161930759781
0.00157987199607
0.00154051811316
0.00150127235803
0.00146216161154
0.00142321269383
0.00138443978401
0.00134584702808
0.00130743938676
0.00126922487024
0.00123121804153
0.0011934449685
0.00115594988013
0.00111880366657
0.00108211434798
0.00104603947237
0.00101080034008
0.000976697874552
0.000944130138385
0.000913612008905
0.000885798726038
0.000861517214419
0.000841812784399
0.000828024884077
0.00082191567525
0.000825893002019
0.000843402592069
0.000879629608849
0.000942780691079
0.00104647851258
0.00121426133553
0.00148798390499
0.00131865730621
0.00132594258426
0.00134046540576
0.00136214825345
0.00139087937922
0.00142650330905
0.00146881002315
0.00151752197456
0.00157228331749
0.00163265014124
0.0016980862954
0.00176796276266
0.00184156488641
0.0019181041451
0.00199673818937
0.00207659406274
0.00215679762891
0.00223650254324
0.0023149215781
0.00239135271908
0.00246520347851
0.00253600584593
0.00260342686915
0.00266726811804
0.00272746104625
0.00278405252217
0.00283718915953
0.00288709510903
0.00293405249961
0.00297837869321
0.00302040915127
0.00306047912851
0.0030989122499
0.00313600838396
0.00317203826371
0.00320723690636
0.00324180295146
0.00327589601756
0.00330963904278
0.00334311800523
0.00337638585585
0.00340946341643
0.0034423438079
0.00347499345878
0.00350735596041
0.00353934335569
0.00357072936762
0.00360129020966
0.00363080334377
0.00365904558587
0.00368579480073
0.00371082958381
0.00373393161906
0.00375488593271
0.00377348350276
0.00378952191075
0.00380280811087
0.00381315939144
0.00382040622041
0.00382439341367
0.00382498296003
0.00382205527919
0.00381551191602
0.00380527675479
0.00379129845397
0.00377355146146
0.00375203803673
0.00372678888624
0.00369786459161
0.00366535565694
0.00362938313206
0.00359009783598
0.00354767993634
0.00350233708945
0.00345430271722
0.00340383279668
0.00335120258647
0.00329670184811
0.00324062988602
0.00318328919891
0.00312497906497
0.00306598818502
0.00300658780667
0.00294702480332
0.00288751613556
0.00282824424959
0.00276935450714
0.00271095399263
0.00265311226073
0.00259586349857
0.00253928806347
0.00248347912201
0.00242842341227
0.0023740958966
0.00232046382808
0.00226749140367
0.00221514326807
0.00216338700718
0.002112195009
0.00206154553908
0.0020114233902
0.00196181995497
0.00191273304497
0.00186416632915
0.00181612865394
0.00176863313437
0.00172169623384
0.00167533674418
0.00162957485495
0.00158443125015
0.00153992640501
0.00149608005204
0.00145291098019
0.00141043716152
0.00136866597847
0.00132759183918
0.00128721114129
0.00124752484069
0.00120854212057
0.00117028531251
0.0011327962959
0.00109614451954
0.00106043681473
0.00102582909385
0.000992540080506
0.000960867315483
0.000931206073472
0.000904072620123
0.000880134798928
0.000860255710911
0.000845561054327
0.000837549104098
0.000838277549463
0.000850690661084
0.000879209593699
0.000930835347252
0.00101729519942
0.00115940093143
0.0013961862171
0.00180413092569
0.00139408202618
0.00140150123269
0.00141627293204
0.00143828681742
0.00146738632714
0.00150336013471
0.00154593318677
0.00159475656895
0.00164940101458
0.00170935267461
0.00177401539203
0.00184271658527
0.0019147205669
0.00198924487038
0.00206548277436
0.00214262624075
0.00221989225151
0.00229654595541
0.00237192415699
0.00244545236519
0.00251665999286
0.00258518710321
0.0026507885929
0.00271332958559
0.00277277922967
0.00282919701825
0.00288271978719
0.00293354350554
0.00298190835211
0.00302808074115
0.00307234057033
0.0031149666942
0.00315622844531
0.00319637567357
0.00323563473029
0.00327420263734
0.00331224661673
0.00334990128068
0.00338727050152
0.00342442651005
0.00346141308212
0.00349824565563
0.00353491490293
0.00357138667011
0.00360760401484
0.00364354918334
0.00367900616494
0.00371375212849
0.00374756460626
0.00378022095436
0.00381150018471
0.00384118241542
0.00386905093761
0.00389489212299
0.00391849770224
0.00393966503793
0.00395819954267
0.00397391523923
0.00398663724237
0.00399620251126
0.00400246230844
0.00400528304347
0.00400454862083
0.00400016127069
0.00399204369261
0.00398013976054
0.003964416356
0.00394486381896
0.00392149734412
0.00389435702789
0.00386350867644
0.00382904327476
0.00379107703027
0.00374975007175
0.00370522554328
0.00365768735345
0.00360733817742
0.00355439616924
0.00349909188555
0.00344166410915
0.00338235602495
0.00332141068431
0.00325906715437
0.00319555645191
0.00313109846106
0.00306589890468
0.00300014724546
0.00293401457705
0.00286765234147
0.00280119109185
0.00273474052362
0.00266846386504
0.00260258886581
0.00253720622148
0.00247239250167
0.00240821397722
0.00234472911066
0.00228198989605
0.00222004326617
0.00215893215599
0.00209869640307
0.00203937324822
0.00198099772374
0.00192360274617
0.00186721916242
0.00181187560064
0.00175759833558
0.00170441105525
0.00165233471129
0.001601387375
0.00155158426543
0.00150293790821
0.00145545858553
0.00140915507348
0.0013640292654
0.00132006548203
0.00127725118327
0.0012355797655
0.00119505434148
0.00115569262111
0.00111753309173
0.00108064264889
0.00104512589
0.00101113628032
0.000978889541392
0.00094867984857
0.000920899981756
0.000896067606145
0.000874861757385
0.000858176976019
0.000847208519056
0.000843593043662
0.000849650116928
0.000868812379761
0.000906423349612
0.000971289165433
0.00107886778688
0.00125822210757
0.00156798054418
0.00213365184771
0.00146715459207
0.00147480448406
0.00149001668895
0.00151264480035
0.00154248327787
0.00157926075483
0.00162263356268
0.00167217912573
0.00172739439423
0.00178769734924
0.00185243567057
0.00192089875477
0.00199233620861
0.0020659775443
0.00214105582413
0.00221682897378
0.00229260197207
0.00236774356584
0.00244170191819
0.00251401318231
0.00258430868298
0.00265231484983
0.00271785252382
0.00278082965221
0.00284123465254
0.00289912423073
0.00295461340799
0.00300786126474
0.00305906039423
0.00310842320837
0.00315617306209
0.00320253293158
0.00324771942173
0.0032919345205
0.00333536265346
0.00337816532332
0.0034204806998
0.00346242050578
0.00350407140688
0.00354549346531
0.00358672270521
0.00362777066771
0.00366862781879
0.00370926411802
0.00374963363154
0.00378967667277
0.00382931765562
0.00386831461201
0.00390643669652
0.0039434573058
0.00397915344236
0.00401330407779
0.00404569170642
0.00407610183962
0.00410432498273
0.00413015654806
0.00415339898091
0.00417386195597
0.00419136456502
0.00420573570418
0.0042168162442
0.00422445951905
0.00422853340718
0.00422892083974
0.00422552172727
0.00421825340817
0.00420705235269
0.00419187446667
0.00417269649408
0.00414951607876
0.00412235277057
0.00409124773304
0.00405626424297
0.00401748692386
0.00397502162984
0.00392899410595
0.00387954919421
0.0038268489068
0.00377107101839
0.00371240670574
0.00365105878019
0.0035872392234
0.00352116741697
0.00345306786253
0.00338316852397
0.00331169858446
0.00323888650326
0.00316495730705
0.00309013003395
0.00301461475098
0.00293861011792
0.00286230128109
0.00278588837474
0.00270975816034
0.00263407511951
0.0025589963736
0.00248466529385
0.00241121101984
0.00233874917985
0.0022673828599
0.00219720358992
0.00212829209069
0.00206071907247
0.00199454584144
0.00192982494923
0.00186660069624
0.00180490968812
0.0017447813019
0.00168623823618
0.00162929704639
0.00157396882402
0.00152025996328
0.00146817316836
0.00141770869811
0.00136886539219
0.00132161772333
0.00127594407593
0.00123182972788
0.00118927073976
0.00114827881323
0.00110888729242
0.00107115847236
0.00103519247086
0.00100113797212
0.000969205358175
0.000939683085843
0.000912958855443
0.000889548346417
0.000870136492744
0.000855640203293
0.000847308562075
0.000846890044439
0.000856923051273
0.000881262448924
0.000926081027029
0.00100188650879
0.00112786444721
0.0013419380079
0.00172570468898
0.00246823894971
0.0015387053749
0.00154668449939
0.00156253250842
0.0015860638601
0.00161702008863
0.0016550653366
0.00169978303832
0.00175067338922
0.00180715703699
0.00186858273261
0.00193424240714
0.00200338891302
0.00207525908716
0.00214909588306
0.00222417210226
0.00229980913122
0.00237539428341
0.00245039078065
0.00252434573412
0.00259689084975
0.00266774256186
0.00273669628333
0.00280362200193
0.00286845525678
0.00293119082161
0.00299187241524
0.00305058588684
0.003107448735
0.00316260362798
0.00321620852334
0.00326843122767
0.00331944080491
0.00336940371162
0.00341847692192
0.0034668058437
0.00351451922831
0.00356172873747
0.0036085254266
0.00365498064172
0.00370114376843
0.00374704414234
0.00379268983124
0.00383807033778
0.0038831561542
0.00392790161707
0.0039722435175
0.00401621494194
0.00405956614923
0.00410205968366
0.00414346345958
0.00418354989086
0.00422209391222
0.00425887430873
0.00429367289008
0.0043262762352
0.00435647527183
0.00438406716028
0.00440885515687
0.00443065056757
0.00444927281761
0.00446455140801
0.0044763261132
0.00448444888226
0.0044887841
0.00448921038879
0.00448562087931
0.00447792487452
0.00446604807856
0.00444993408069
0.00442954448587
0.00440486016766
0.00437588123638
0.00434262800168
0.0043051407122
0.00426348017249
0.00421772720612
0.004167982905
0.00411436782274
0.00405702190596
0.00399610350526
0.00393178910424
0.00386427225337
0.00379376313891
0.00372048734474
0.00364468497409
0.00356660874464
0.00348652204272
0.00340469577378
0.00332140505904
0.00323692502316
0.00315152687806
0.00306547378625
0.00297901731416
0.00289238576061
0.0028060648197
0.00272030388919
0.00263532490325
0.00255132760137
0.00246849021697
0.00238697187888
0.0023069131269
0.00222843672243
0.00215164865465
0.00207663906686
0.00200348333764
0.00193224307658
0.00186296722732
0.00179569310316
0.0017304475217
0.00166724791677
0.001606103577
0.00154701693122
0.00148998500446
0.00143500094527
0.00138206177461
0.00133113503561
0.00128219009944
0.00123520355205
0.00119016333432
0.00114707361996
0.00110596067451
0.00106687989614
0.00102992434086
0.000995235125204
0.000963014355474
0.000933541654507
0.000907196147154
0.000884487154714
0.000866099304541
0.000852962198254
0.000846362967355
0.000848135922419
0.000860995837012
0.000889151528092
0.000939498697717
0.00102409477953
0.00116570172698
0.0014113037681
0.0018678826079
0.00280120653118
0.00160956244215
0.00161797186494
0.00163465597028
0.00165938697385
0.00169184921246
0.00173163741842
0.00177825683428
0.00183112522041
0.00188958238497
0.0019529041715
0.00202032404391
0.00209105648402
0.00216432411429
0.00223938162695
0.00231553886539
0.00239217628436
0.0024687569729
0.00254482971876
0.00262002952018
0.00269407092821
0.0027667419042
0.00283789324426
0.0029074313282
0.0029753080658
0.00304151540559
0.00310607715803
0.00316904536882
0.00323049341205
0.0032905132971
0.00334920921046
0.0034066951588
0.00346308873217
0.00351850909403
0.00357307121153
0.0036268844793
0.00368004774604
0.00373264879874
0.00378476036452
0.00383644050476
0.00388772960527
0.00393865161151
0.00398921193758
0.00403939936536
0.00408918443644
0.00413852069768
0.004187340137
0.00423576850175
0.00428357238871
0.00433051046372
0.0043763427502
0.00442083362988
0.0044637505042
0.00450486508953
0.00454395228126
0.00458079168311
0.00461516685204
0.0046468669682
0.00467568638283
0.00470142638478
0.00472389499168
0.00474290875873
0.00475829274444
0.00476988231408
0.00477752322768
0.00478107340938
0.00478040312246
0.00477539668689
0.00476595271266
0.00475198574802
0.00473342654091
0.00471022359402
0.00468234341884
0.00464977196692
0.00461251483843
0.00457059855844
0.00452407070938
0.00447300103339
0.00441748147771
0.00435762712275
0.00429357613702
0.00422549050692
0.0041535558189
0.00407798160906
0.00399900064526
0.0039168684078
0.00383186124789
0.00374427434606
0.00365441822187
0.00356261496183
0.00346919331463
0.00337448388375
0.00327881382359
0.0031825022893
0.00308585545906
0.00298916716039
0.00289284591458
0.00279732562417
0.00270286668091
0.00260970126981
0.00251804115221
0.00242807358926
0.00233996259207
0.0022538497173
0.00216985512423
0.00208807891745
0.00200860246347
0.00193148988041
0.00185678949388
0.00178453542349
0.0017147491599
0.00164744128344
0.00158261324705
0.00152025938519
0.00146036915769
0.00140292991165
0.00134791564988
0.00129528552647
0.00124500648616
0.0011970572196
0.00115143290325
0.00110815087746
0.00106725744495
0.00102883610948
0.000993017706861
0.000959993179582
0.000930030232098
0.00090349597399
0.000880889177518
0.000862888450549
0.000850427504068
0.000844817820104
0.000847957055917
0.0008626989973
0.000893544031409
0.000948006779387
0.00103952571317
0.00119420051866
0.00146795856476
0.00199458933725
0.00312714756597
0.00168056675734
0.00168951098738
0.00170723814648
0.00173347481043
0.00176784338224
0.00180986325131
0.00185895484841
0.00191444659767
0.00197559056662
0.00204158335826
0.00211159447832
0.00218479532022
0.0022603902214
0.00233764175298
0.00241589261286
0.00249457727979
0.0025732283127
0.00265147231539
0.00272902307726
0.00280566788905
0.00288125567268
0.00295568219168
0.00302888058053
0.00310081075088
0.00317145509192
0.0032408125512
0.00330889821227
0.00337573979902
0.00344137856021
0.00350586593255
0.00356926400504
0.00363164134724