/*--------------------------------*- C++ -*----------------------------------*\
| =========                 |                                                 |
| \\      /  F ield         | OpenFOAM: The Open Source CFD Toolbox           |
|  \\    /   O peration     | Version:  2206                                  |
|   \\  /    A nd           | Website:  www.openfoam.com                      |
|    \\/     M anipulation  |                                                 |
\*---------------------------------------------------------------------------*/
FoamFile
{
    version     2.0;
    format      ascii;
    arch        "LSB;label=64;scalar=64";
    class       volScalarField;
    location    "2.8/water";
    object      alpha.gas;
}
// * * * * * * * * * * * * * * * * * * * * * * * * * * * * * * * * * * * * * //

dimensions      [0 0 0 0 0 0 0];

internalField   nonuniform List<scalar> 
23300
(
1e-15
1e-15
1e-15
1e-15
1e-15
1e-15
1e-15
1e-15
1e-15
1e-15
1e-15
1e-15
1e-15
1e-15
1e-15
1e-15
1e-15
1e-15
1e-15
1e-15
1e-15
1e-15
1e-15
1e-15
1e-15
1e-15
1e-15
1e-15
1e-15
1e-15
1e-15
1e-15
1e-15
1e-15
1e-15
1e-15
1e-15
1e-15
1e-15
1e-15
1e-15
1e-15
1e-15
1e-15
1e-15
1e-15
1e-15
1e-15
1e-15
1e-15
1e-15
1e-15
1e-15
1e-15
1e-15
1e-15
1e-15
1e-15
1e-15
1e-15
1e-15
1e-15
1e-15
1e-15
1e-15
1e-15
1e-15
1e-15
1e-15
1e-15
1e-15
1e-15
1e-15
1e-15
1e-15
1e-15
1e-15
1e-15
1e-15
1e-15
1e-15
1e-15
1e-15
1e-15
1e-15
1e-15
1e-15
1e-15
1e-15
1e-15
1e-15
1e-15
1e-15
1e-15
1e-15
1e-15
1e-15
1e-15
1e-15
1e-15
1e-15
1e-15
1e-15
1e-15
1e-15
1e-15
1e-15
1e-15
1e-15
1e-15
1e-15
1e-15
1e-15
1e-15
1e-15
1e-15
1e-15
1e-15
1e-15
1e-15
1e-15
1e-15
1e-15
1e-15
1e-15
1e-15
1e-15
1e-15
1e-15
1e-15
1e-15
1e-15
1e-15
1e-15
1e-15
1e-15
1e-15
1e-15
1e-15
1e-15
1e-15
1e-15
1e-15
1e-15
1e-15
1e-15
1e-15
1e-15
1e-15
1e-15
1e-15
1e-15
1e-15
1e-15
1e-15
1e-15
1e-15
1e-15
1e-15
1e-15
1e-15
1e-15
1e-15
1e-15
1e-15
1e-15
1e-15
1e-15
1e-15
1e-15
1e-15
1e-15
1e-15
1e-15
1e-15
1e-15
1e-15
1e-15
1e-15
1e-15
1e-15
1e-15
1e-15
1e-15
1e-15
1e-15
1e-15
1e-15
1e-15
1e-15
1e-15
1e-15
1e-15
1e-15
1e-15
1e-15
1e-15
1e-15
1e-15
1e-15
1e-15
1e-15
1e-15
1e-15
1e-15
1e-15
1e-15
1e-15
1e-15
1e-15
1e-15
1e-15
1e-15
1e-15
1e-15
1e-15
1e-15
1e-15
1e-15
1e-15
1e-15
1e-15
1e-15
1e-15
1e-15
1e-15
1e-15
1e-15
1e-15
1e-15
1e-15
1e-15
1e-15
1e-15
1e-15
1e-15
1e-15
1e-15
1e-15
1e-15
1e-15
1e-15
1e-15
1e-15
1e-15
1e-15
1e-15
1e-15
1e-15
1e-15
1e-15
1e-15
1e-15
1e-15
1e-15
1e-15
1e-15
1e-15
1e-15
1e-15
1e-15
1e-15
1e-15
1e-15
1e-15
1e-15
1e-15
1e-15
1e-15
1e-15
1e-15
1e-15
1e-15
1e-15
1e-15
1e-15
1e-15
1e-15
1e-15
1e-15
1e-15
1e-15
1e-15
1e-15
1e-15
1e-15
1e-15
1e-15
1e-15
1e-15
1e-15
1e-15
1e-15
1e-15
1e-15
1e-15
1e-15
1e-15
1e-15
1e-15
1e-15
1e-15
1e-15
1e-15
1e-15
1e-15
1e-15
1e-15
1e-15
1e-15
1e-15
1e-15
1e-15
1e-15
1e-15
1e-15
1e-15
1e-15
1e-15
1e-15
1e-15
1e-15
1e-15
1e-15
1e-15
1e-15
1e-15
1e-15
1e-15
1e-15
1e-15
1e-15
1e-15
1e-15
1e-15
1e-15
1e-15
1e-15
1e-15
1e-15
1e-15
1e-15
1e-15
1e-15
1e-15
1e-15
1e-15
1e-15
1e-15
1e-15
1e-15
1e-15
1e-15
1e-15
1e-15
1e-15
1e-15
1e-15
1e-15
1e-15
1e-15
1e-15
1e-15
1e-15
1e-15
1e-15
1e-15
1e-15
1e-15
1e-15
1e-15
1e-15
1e-15
1e-15
1e-15
1e-15
1e-15
1e-15
1e-15
1e-15
1e-15
1e-15
1e-15
1e-15
1e-15
1e-15
1e-15
1e-15
1e-15
1e-15
1e-15
1e-15
1e-15
1e-15
1e-15
1e-15
1e-15
1e-15
1e-15
1e-15
1e-15
1e-15
1e-15
1e-15
1e-15
1e-15
1e-15
1e-15
1e-15
1e-15
1e-15
1e-15
1e-15
1e-15
1e-15
1e-15
1e-15
1e-15
1e-15
1e-15
1e-15
1e-15
1e-15
1e-15
1e-15
1e-15
1e-15
1e-15
1e-15
1e-15
1e-15
1e-15
1e-15
1e-15
1e-15
1e-15
1e-15
1e-15
1e-15
1e-15
1e-15
1e-15
1e-15
1e-15
1e-15
1e-15
1e-15
1e-15
1e-15
1e-15
1e-15
1e-15
1e-15
1e-15
1e-15
1e-15
1e-15
1e-15
1e-15
1e-15
1e-15
1e-15
1e-15
1e-15
1e-15
1e-15
1e-15
1e-15
1e-15
1e-15
1e-15
1e-15
1e-15
1e-15
1e-15
1e-15
1e-15
1e-15
1e-15
1e-15
1e-15
1e-15
1e-15
1e-15
1e-15
1e-15
1e-15
1e-15
1e-15
1e-15
1e-15
1e-15
1e-15
1e-15
1e-15
1e-15
1e-15
1e-15
1e-15
1e-15
1e-15
1e-15
1e-15
1e-15
1e-15
1e-15
1e-15
1e-15
1e-15
1e-15
1e-15
1e-15
1e-15
1e-15
1e-15
1e-15
1e-15
1e-15
1e-15
1e-15
1e-15
1e-15
1e-15
1e-15
1e-15
1e-15
1e-15
1e-15
1e-15
1e-15
1e-15
1e-15
1e-15
1e-15
1e-15
1e-15
1e-15
1e-15
1e-15
1e-15
1e-15
1e-15
1e-15
1e-15
1e-15
1e-15
1e-15
1e-15
1e-15
1e-15
1e-15
1e-15
1e-15
1e-15
1e-15
1e-15
1e-15
1e-15
1e-15
1e-15
1.01387215334e-15
1e-15
1e-15
1e-15
1e-15
1e-15
1e-15
1e-15
1e-15
1e-15
1e-15
1e-15
1e-15
1e-15
1e-15
1e-15
1e-15
1e-15
1e-15
1e-15
1e-15
1e-15
1e-15
1e-15
1e-15
1e-15
1e-15
1e-15
1e-15
1e-15
1e-15
1e-15
1e-15
1e-15
1e-15
1e-15
1e-15
1e-15
1e-15
1e-15
1e-15
1e-15
1e-15
1e-15
1e-15
1e-15
1e-15
1e-15
1e-15
1e-15
1e-15
1e-15
1e-15
1e-15
1e-15
1e-15
1e-15
1e-15
1e-15
1e-15
1e-15
1e-15
1e-15
1e-15
1e-15
1e-15
1e-15
1e-15
1e-15
1e-15
1e-15
1e-15
1e-15
1e-15
1e-15
1e-15
1e-15
1e-15
1e-15
1e-15
1e-15
1e-15
1e-15
1e-15
1e-15
1e-15
1e-15
1e-15
1e-15
1e-15
1e-15
1e-15
1e-15
1e-15
1e-15
1e-15
1e-15
1e-15
1e-15
1e-15
1e-15
1e-15
1e-15
1e-15
1e-15
1e-15
1e-15
1e-15
1e-15
1e-15
1e-15
1e-15
1e-15
1e-15
1e-15
1e-15
1e-15
1e-15
1e-15
1e-15
1e-15
1e-15
1e-15
1e-15
1e-15
1e-15
1e-15
1e-15
1e-15
1e-15
1e-15
1e-15
1e-15
1.0240795139e-15
1.0232064566e-15
1.02399856619e-15
1e-15
1e-15
1.0010604249e-15
1e-15
1.00884614388e-15
1e-15
1e-15
1e-15
1e-15
1e-15
1e-15
1e-15
1e-15
1e-15
1e-15
1e-15
1e-15
1e-15
1e-15
1e-15
1e-15
1e-15
1e-15
1e-15
1e-15
1e-15
1e-15
1e-15
1e-15
1e-15
1e-15
1e-15
1e-15
1e-15
1e-15
1e-15
1e-15
1e-15
1e-15
1e-15
1e-15
1e-15
1e-15
1e-15
1e-15
1e-15
1e-15
1e-15
1e-15
1e-15
1e-15
1e-15
1e-15
1e-15
1e-15
1e-15
1e-15
1e-15
1e-15
1e-15
1e-15
1e-15
1e-15
1e-15
1e-15
1e-15
1e-15
1e-15
1e-15
1e-15
1e-15
1e-15
1e-15
1e-15
1e-15
1e-15
1e-15
1e-15
1e-15
1e-15
1e-15
1e-15
1e-15
1e-15
1e-15
1e-15
1e-15
1e-15
1e-15
1e-15
1e-15
1e-15
1e-15
1e-15
1e-15
1e-15
1e-15
1e-15
1e-15
1e-15
1e-15
1e-15
1e-15
1e-15
1e-15
1e-15
1e-15
1e-15
1e-15
1e-15
1e-15
1e-15
1e-15
1e-15
1e-15
1e-15
1e-15
1e-15
1e-15
1e-15
1e-15
1e-15
1e-15
1e-15
1e-15
1e-15
1e-15
1e-15
1e-15
1e-15
1e-15
1e-15
1e-15
1e-15
1e-15
1e-15
1.00414148848e-15
1.0232064566e-15
1.0244910925e-15
1.0232064566e-15
1e-15
1e-15
1.00085103611e-15
1e-15
1.01380748007e-15
1e-15
1e-15
1e-15
1e-15
1e-15
1e-15
1e-15
1e-15
1e-15
1e-15
1e-15
1e-15
1e-15
1e-15
1e-15
1e-15
1e-15
1e-15
1e-15
1e-15
1e-15
1e-15
1e-15
1e-15
1e-15
1e-15
1e-15
1e-15
1e-15
1e-15
1e-15
1e-15
1.00000011151e-15
1.00000202307e-15
1.0000481781e-15
1.00110997726e-15
1.00141656965e-15
1.00145619291e-15
1.00141656965e-15
1.00146376239e-15
1.00141656965e-15
1.00146742185e-15
1.00141656965e-15
1.00146993788e-15
1.00141656965e-15
1.00147234116e-15
1.00141656965e-15
1.00146290525e-15
1.00141656965e-15
1.00145940537e-15
1.00141656965e-15
1.00144998169e-15
1.00095761172e-15
1.00037893597e-15
1.0003717707e-15
1.00035263605e-15
1.00033203946e-15
1.00030817366e-15
1.00027882179e-15
1.00024523187e-15
1.00021637877e-15
1.00020004499e-15
1.00015091055e-15
1.00009695109e-15
1.00003381144e-15
1.00000119649e-15
1e-15
1e-15
1e-15
1e-15
1e-15
1e-15
1e-15
1e-15
1e-15
1e-15
1e-15
1e-15
1e-15
1e-15
1e-15
1e-15
1e-15
1e-15
1e-15
1e-15
1e-15
1e-15
1e-15
1e-15
1e-15
1e-15
1e-15
1e-15
1e-15
1e-15
1e-15
1e-15
1.00000167929e-15
1.00004672542e-15
1.00014660066e-15
1.0002189477e-15
1.00027812574e-15
1.00032234488e-15
1.00035867623e-15
1.00038779803e-15
1.00041078893e-15
1.00042761672e-15
1.00043935626e-15
1.00044606609e-15
1.00045092933e-15
1.00040361695e-15
1.00037596002e-15
1.00225319753e-15
1.00448857663e-15
1.0046015627e-15
1.00334755104e-15
1.0013840537e-15
1.00028808864e-15
1.00023040572e-15
1.00023177899e-15
1.00021257345e-15
1.00016340142e-15
1.0001183511e-15
1.00007573431e-15
1.00003863533e-15
1.00001372947e-15
1.00000643963e-15
1.00002569357e-15
1.00008816894e-15
1.00023301182e-15
1.02320600004e-15
1.02443098253e-15
1.0232064566e-15
1.02430440508e-15
1.00148555683e-15
1e-15
1.0010376689e-15
1e-15
1.00884614388e-15
1e-15
1e-15
1e-15
1e-15
1e-15
1e-15
1e-15
1e-15
1e-15
1e-15
1e-15
1e-15
1e-15
1e-15
1e-15
1e-15
1e-15
1e-15
1e-15
1e-15
1e-15
1e-15
1e-15
1e-15
1e-15
1e-15
1e-15
1e-15
1e-15
1e-15
1e-15
1e-15
1e-15
1.0000213386e-15
1.00048981523e-15
1.00141656965e-15
1.00146490785e-15
1.00141656965e-15
1.00146523016e-15
1.00141656965e-15
1.00146778991e-15
1.00141656965e-15
1.00146982196e-15
1.00141656965e-15
1.00147272341e-15
1.00141656965e-15
1.00146836112e-15
1.00141656965e-15
1.00146486505e-15
1.00141656965e-15
1.00146103942e-15
1.00141656965e-15
1.00144825352e-15
1.00087101424e-15
1.00078270598e-15
1.00073387953e-15
1.00066529576e-15
1.00059495418e-15
1.00053595355e-15
1.00047025033e-15
1.0003511712e-15
1.00022688234e-15
1.00015273728e-15
1.00008796954e-15
1.00001816102e-15
1e-15
1e-15
1e-15
1e-15
1e-15
1e-15
1e-15
1e-15
1e-15
1e-15
1e-15
1e-15
1e-15
1e-15
1e-15
1e-15
1e-15
1e-15
1e-15
1e-15
1e-15
1e-15
1e-15
1e-15
1e-15
1e-15
1e-15
1e-15
1e-15
1e-15
1e-15
1e-15
1e-15
1.00001091775e-15
1.0002204633e-15
1.00035603194e-15
1.00049447018e-15
1.00063519051e-15
1.0007540612e-15
1.00084891514e-15
1.00092552777e-15
1.00098561099e-15
1.00103160675e-15
1.00106477257e-15
1.00108233335e-15
1.0011039276e-15
1.00145182471e-15
1.01001834841e-15
1.01369404262e-15
1.01410034804e-15
1.01395252819e-15
1.01409468941e-15
1.01322224488e-15
1.010386851e-15
1.00533712051e-15
1.00076435824e-15
1.00052839571e-15
1.0005146833e-15
1.00043816533e-15
1.00036714165e-15
1.00030884499e-15
1.00026807077e-15
1.00025837476e-15
1.00029692289e-15
1.00040825736e-15
1.00068265882e-15
1.02405940212e-15
1.0232064566e-15
1.02445363263e-15
1.0232064566e-15
1.00352632449e-15
1.00041902572e-15
1.00086347364e-15
1e-15
1.01307016108e-15
1e-15
1e-15
1e-15
1e-15
1e-15
1e-15
1e-15
1e-15
1e-15
1e-15
1e-15
1e-15
1e-15
1e-15
1e-15
1e-15
1e-15
1e-15
1e-15
1e-15
1e-15
1e-15
1e-15
1e-15
1e-15
1e-15
1e-15
1e-15
1e-15
1e-15
1.00000007932e-15
1.00000617621e-15
1.000073013e-15
1.00032935596e-15
1.00141656965e-15
1.00145514487e-15
1.00141656965e-15
1.00146401575e-15
1.00141656965e-15
1.00146509542e-15
1.00141656965e-15
1.00146515655e-15
1.00141656965e-15
1.00146615115e-15
1.00141656965e-15
1.00146836098e-15
1.00141656965e-15
1.00145613618e-15
1.00141656965e-15
1.00144981174e-15
1.00141656965e-15
1.00144223133e-15
1.00141656965e-15
1.00142685061e-15
1.00099174647e-15
1.00091235118e-15
1.00082385111e-15
1.00073963986e-15
1.00057810833e-15
1.00042713552e-15
1.00027108772e-15
1.00011830282e-15
1.00002832499e-15
1e-15
1e-15
1e-15
1e-15
1e-15
1e-15
1e-15
1e-15
1e-15
1e-15
1e-15
1e-15
1e-15
1e-15
1e-15
1e-15
1e-15
1e-15
1e-15
1e-15
1e-15
1e-15
1e-15
1e-15
1e-15
1e-15
1e-15
1e-15
1e-15
1e-15
1e-15
1e-15
1e-15
1e-15
1e-15
1.00008074989e-15
1.00024030657e-15
1.00041692158e-15
1.00066971946e-15
1.00090995075e-15
1.00110962503e-15
1.00126979881e-15
1.00140036346e-15
1.0015045461e-15
1.00158607832e-15
1.00164614538e-15
1.00169872346e-15
1.0016107851e-15
1.01187942999e-15
1.01394692182e-15
1.01415749597e-15
1.01395252819e-15
1.01418924566e-15
1.01396022821e-15
1.01418738126e-15
1.01396022821e-15
1.01412357995e-15
1.01113950159e-15
1.0018955912e-15
1.00078418349e-15
1.00070519103e-15
1.00060037301e-15
1.00053286481e-15
1.00049270882e-15
1.00048932286e-15
1.0005399764e-15
1.00068588814e-15
1.00113109767e-15
1.0232064566e-15
1.02437695871e-15
1.0232064566e-15
1.02422452313e-15
1.00546885325e-15
1.00087106162e-15
1.00091284532e-15
1e-15
1.00884614388e-15
1e-15
1e-15
1e-15
1e-15
1e-15
1e-15
1e-15
1e-15
1e-15
1e-15
1e-15
1e-15
1e-15
1e-15
1e-15
1e-15
1e-15
1e-15
1e-15
1e-15
1e-15
1e-15
1e-15
1e-15
1e-15
1e-15
1e-15
1e-15
1e-15
1e-15
1.00000044012e-15
1.00009058616e-15
1.00019686595e-15
1.00062574522e-15
1.00144719106e-15
1.00141656965e-15
1.0014552578e-15
1.00141656965e-15
1.00146068407e-15
1.00141656965e-15
1.00146347582e-15
1.00141656965e-15
1.00146245078e-15
1.00141656965e-15
1.00146335721e-15
1.00141656965e-15
1.00145922975e-15
1.00141656965e-15
1.00144324507e-15
1.00141656965e-15
1.00143869589e-15
1.00141656965e-15
1.00143159591e-15
1.00141656965e-15
1.00118123256e-15
1.00104889907e-15
1.00087756725e-15
1.00070032747e-15
1.00050842373e-15
1.00028428753e-15
1.00006705344e-15
1e-15
1e-15
1e-15
1e-15
1e-15
1e-15
1e-15
1e-15
1e-15
1e-15
1e-15
1e-15
1e-15
1e-15
1e-15
1e-15
1e-15
1e-15
1e-15
1e-15
1e-15
1e-15
1e-15
1e-15
1e-15
1e-15
1e-15
1e-15
1e-15
1e-15
1e-15
1e-15
1e-15
1e-15
1e-15
1e-15
1e-15
1.00008055189e-15
1.00022801955e-15
1.00048340077e-15
1.00086199964e-15
1.0011902295e-15
1.00145892138e-15
1.00168077675e-15
1.00186496663e-15
1.00201506379e-15
1.00213442621e-15
1.00222336204e-15
1.00227844975e-15
1.00782082359e-15
1.01394692182e-15
1.01415406219e-15
1.01395252819e-15
1.01416470391e-15
1.01396022821e-15
1.01419794241e-15
1.01396022821e-15
1.01418753354e-15
1.01396299973e-15
1.01417017108e-15
1.01244408068e-15
1.00170823562e-15
1.00096192005e-15
1.00083529034e-15
1.00073477024e-15
1.00068153838e-15
1.00068215968e-15
1.00075187899e-15
1.00096402547e-15
1.0016352585e-15
1.02407259569e-15
1.0232064566e-15
1.02438178779e-15
1.0232064566e-15
1.00722927508e-15
1.00084224967e-15
1.00086335434e-15
1e-15
1.01229788677e-15
1e-15
1e-15
1e-15
1e-15
1e-15
1e-15
1e-15
1e-15
1e-15
1e-15
1e-15
1e-15
1e-15
1e-15
1e-15
1e-15
1e-15
1e-15
1e-15
1e-15
1e-15
1e-15
1e-15
1e-15
1e-15
1e-15
1e-15
1e-15
1e-15
1e-15
1.00006922319e-15
1.00016719548e-15
1.00037643765e-15
1.00104767071e-15
1.00141656965e-15
1.0014440427e-15
1.00141656965e-15
1.0014487219e-15
1.00141656965e-15
1.00145147417e-15
1.00141656965e-15
1.00145016775e-15
1.00141656965e-15
1.00144925411e-15
1.00141656965e-15
1.00145208264e-15
1.00141656965e-15
1.00143611972e-15
1.00141656965e-15
1.00143088887e-15
1.00141656965e-15
1.0014244616e-15
1.00141656965e-15
1.00141877025e-15
1.00126183283e-15
1.00102858262e-15
1.00082386098e-15
1.00058357592e-15
1.00031781166e-15
1.00004498985e-15
1e-15
1e-15
1e-15
1e-15
1e-15
1e-15
1e-15
1e-15
1e-15
1e-15
1e-15
1e-15
1e-15
1e-15
1e-15
1e-15
1e-15
1e-15
1e-15
1e-15
1e-15
1e-15
1e-15
1e-15
1e-15
1e-15
1e-15
1e-15
1e-15
1e-15
1e-15
1e-15
1e-15
1e-15
1e-15
1e-15
1e-15
1e-15
1.0000736139e-15
1.00023362879e-15
1.00063935826e-15
1.00113441018e-15
1.00153270492e-15
1.00186411411e-15
1.00214643627e-15
1.00238496488e-15
1.00258222732e-15
1.00274018943e-15
1.00286798408e-15
1.00289141845e-15
1.01394692182e-15
1.01412259518e-15
1.01395252819e-15
1.01416400116e-15
1.01396022821e-15
1.01416758114e-15
1.01396022821e-15
1.01418390052e-15
1.01396299973e-15
1.01416858733e-15
1.0139658864e-15
1.01415956385e-15
1.01121402953e-15
1.00165714283e-15
1.00117410668e-15
1.00104263337e-15
1.000955908e-15
1.00095318844e-15
1.0010549552e-15
1.00136540168e-15
1.00225206531e-15
1.0232064566e-15
1.0243185092e-15
1.0232064566e-15
1.02414779354e-15
1.00880009043e-15
1.0006803951e-15
1.00085412346e-15
1e-15
1.00884614388e-15
1e-15
1e-15
1e-15
1e-15
1e-15
1e-15
1e-15
1e-15
1e-15
1e-15
1e-15
1e-15
1e-15
1e-15
1e-15
1e-15
1e-15
1e-15
1e-15
1e-15
1e-15
1e-15
1e-15
1e-15
1e-15
1e-15
1e-15
1e-15
1e-15
1.00002446784e-15
1.00011800321e-15
1.00026450033e-15
1.00064934128e-15
1.00141656965e-15
1.00143763819e-15
1.00141656965e-15
1.0014415516e-15
1.00141656965e-15
1.00144399906e-15
1.00141656965e-15
1.00144481729e-15
1.00141656965e-15
1.00144233292e-15
1.00141656965e-15
1.00144127172e-15
1.00141656965e-15
1.00144201305e-15
1.00141656965e-15
1.0014254524e-15
1.00141656965e-15
1.00142339662e-15
1.00141656965e-15
1.00141871949e-15
1.00140838217e-15
1.00120780406e-15
1.00093731118e-15
1.00066631801e-15
1.00033237389e-15
1.00002399468e-15
1e-15
1e-15
1e-15
1e-15
1e-15
1e-15
1e-15
1e-15
1e-15
1e-15
1e-15
1e-15
1e-15
1e-15
1e-15
1e-15
1e-15
1e-15
1e-15
1e-15
1e-15
1e-15
1e-15
1e-15
1e-15
1e-15
1e-15
1e-15
1e-15
1e-15
1e-15
1e-15
1e-15
1e-15
1e-15
1e-15
1e-15
1e-15
1e-15
1.00009311321e-15
1.00030894747e-15
1.00087103133e-15
1.00144839159e-15
1.00191831914e-15
1.00231715404e-15
1.00266334224e-15
1.00295939815e-15
1.00320573729e-15
1.00340480922e-15
1.00356077173e-15
1.00957996615e-15
1.01410344879e-15
1.01395252819e-15
1.01413887195e-15
1.01396022821e-15
1.01416951477e-15
1.01396022821e-15
1.01416744431e-15
1.01396299973e-15
1.0141739529e-15
1.0139658864e-15
1.01416691003e-15
1.01396702257e-15
1.01415584102e-15
1.00737613636e-15
1.0018047142e-15
1.0015085062e-15
1.00137830753e-15
1.00136939198e-15
1.00151107583e-15
1.00191543215e-15
1.00294876582e-15
1.02407248595e-15
1.0232064566e-15
1.02431131718e-15
1.0232064566e-15
1.01019232511e-15
1.00037948795e-15
1.00074053253e-15
1e-15
1.01149085514e-15
1e-15
1e-15
1e-15
1e-15
1e-15
1e-15
1e-15
1e-15
1e-15
1e-15
1e-15
1e-15
1e-15
1e-15
1e-15
1e-15
1e-15
1e-15
1e-15
1e-15
1e-15
1e-15
1e-15
1e-15
1e-15
1e-15
1e-15
1e-15
1e-15
1.00008275004e-15
1.00015772755e-15
1.00038423024e-15
1.00088512536e-15
1.00142952214e-15
1.00141656965e-15
1.00143276092e-15
1.00141656965e-15
1.00143472199e-15
1.00141656965e-15
1.00143563022e-15
1.00141656965e-15
1.00143530384e-15
1.00141656965e-15
1.00143191059e-15
1.00141656965e-15
1.00143349883e-15
1.00141656965e-15
1.00142253556e-15
1.00141656965e-15
1.00141871207e-15
1.00141656965e-15
1.00140983408e-15
1.00136766335e-15
1.00128915857e-15
1.00104737749e-15
1.0007144665e-15
1.00033022123e-15
1.00000045548e-15
1e-15
1e-15
1e-15
1e-15
1e-15
1e-15
1e-15
1e-15
1e-15
1e-15
1e-15
1e-15
1e-15
1e-15
1e-15
1e-15
1e-15
1e-15
1e-15
1e-15
1e-15
1e-15
1e-15
1e-15
1e-15
1e-15
1e-15
1e-15
1e-15
1e-15
1e-15
1e-15
1e-15
1e-15
1e-15
1e-15
1e-15
1e-15
1e-15
1e-15
1.0001167216e-15
1.00039159736e-15
1.00113418374e-15
1.00176114713e-15
1.00229113315e-15
1.00277634088e-15
1.00319665426e-15
1.00355254281e-15
1.003849702e-15
1.00409431101e-15
1.00419402571e-15
1.01405040366e-15
1.01395252819e-15
1.01413078425e-15
1.01396022821e-15
1.01413881381e-15
1.01396022821e-15
1.01416874331e-15
1.01396299973e-15
1.01416648551e-15
1.0139658864e-15
1.01417061376e-15
1.01396702257e-15
1.01415911523e-15
1.01396864453e-15
1.01411094391e-15
1.00292831521e-15
1.00202052159e-15
1.00191832564e-15
1.00190909111e-15
1.00208150759e-15
1.002541809e-15
1.0036696409e-15
1.0232064566e-15
1.02425982507e-15
1.0232064566e-15
1.02407781671e-15
1.01137247628e-15
1e-15
1.00027154935e-15
1e-15
1.00884614388e-15
1e-15
1e-15
1e-15
1e-15
1e-15
1e-15
1e-15
1e-15
1e-15
1e-15
1e-15
1e-15
1e-15
1e-15
1e-15
1e-15
1e-15
1e-15
1e-15
1e-15
1e-15
1e-15
1e-15
1e-15
1e-15
1e-15
1e-15
1e-15
1.00002570279e-15
1.00010974977e-15
1.00019982767e-15
1.00048758802e-15
1.0010534021e-15
1.00141656965e-15
1.00142793339e-15
1.00141656965e-15
1.00142941716e-15
1.00141656965e-15
1.00143019182e-15
1.00141656965e-15
1.0014302609e-15
1.00141656965e-15
1.00142568594e-15
1.00141656965e-15
1.00142490787e-15
1.00141656965e-15
1.00142622663e-15
1.00141656965e-15
1.00140943441e-15
1.00138235572e-15
1.00134287018e-15
1.00127999341e-15
1.00117554441e-15
1.00102427174e-15
1.00072689366e-15
1.00029630616e-15
1e-15
1e-15
1e-15
1e-15
1e-15
1e-15
1e-15
1e-15
1e-15
1e-15
1e-15
1e-15
1e-15
1e-15
1e-15
1e-15
1e-15
1e-15
1e-15
1e-15
1e-15
1e-15
1e-15
1e-15
1e-15
1e-15
1e-15
1e-15
1e-15
1e-15
1e-15
1e-15
1e-15
1e-15
1e-15
1e-15
1e-15
1e-15
1e-15
1e-15
1e-15
1e-15
1.00010454912e-15
1.00051938813e-15
1.00131864063e-15
1.00199730392e-15
1.00267941722e-15
1.00323580559e-15
1.00371187943e-15
1.00413508709e-15
1.00448903281e-15
1.00477063203e-15
1.00689536444e-15
1.01395252819e-15
1.01410101411e-15
1.01396022821e-15
1.01413209537e-15
1.01396022821e-15
1.01413875023e-15
1.01396299973e-15
1.01416182577e-15
1.0139658864e-15
1.01415944806e-15
1.01396702257e-15
1.01415899518e-15
1.01396864592e-15
1.01414352175e-15
1.01397142903e-15
1.01110173978e-15
1.00289965846e-15
1.00249152152e-15
1.00249069473e-15
1.00268076119e-15
1.00316706405e-15
1.00437651918e-15
1.0240626716e-15
1.0232064566e-15
1.02424544932e-15
1.0232064566e-15
1.01235044808e-15
1e-15
1e-15
1e-15
1.01069156712e-15
1e-15
1e-15
1e-15
1e-15
1e-15
1e-15
1e-15
1e-15
1e-15
1e-15
1e-15
1e-15
1e-15
1e-15
1e-15
1e-15
1e-15
1e-15
1e-15
1e-15
1e-15
1e-15
1e-15
1e-15
1e-15
1e-15
1e-15
1e-15
1.00007624697e-15
1.00012159439e-15
1.0002093913e-15
1.00058880272e-15
1.00119725996e-15
1.00142153373e-15
1.00141656965e-15
1.00142242875e-15
1.00141656965e-15
1.00142289429e-15
1.00141656965e-15
1.0014229913e-15
1.00141656965e-15
1.00142251692e-15
1.00141656965e-15
1.00141905235e-15
1.00141656965e-15
1.00141879882e-15
1.00141656965e-15
1.00138501485e-15
1.00127612207e-15
1.00121072599e-15
1.00112219767e-15
1.00101991989e-15
1.00087728712e-15
1.00062194154e-15
1.00022902603e-15
1e-15
1e-15
1e-15
1e-15
1e-15
1e-15
1e-15
1e-15
1e-15
1e-15
1e-15
1e-15
1e-15
1e-15
1e-15
1e-15
1e-15
1e-15
1e-15
1e-15
1e-15
1e-15
1e-15
1e-15
1e-15
1e-15
1e-15
1e-15
1e-15
1e-15
1e-15
1e-15
1e-15
1e-15
1e-15
1e-15
1e-15
1e-15
1e-15
1e-15
1e-15
1e-15
1.00000324679e-15
1.00013764689e-15
1.00064420074e-15
1.00146243898e-15
1.00224513205e-15
1.00301671223e-15
1.00365995723e-15
1.00425598187e-15
1.00472627736e-15
1.00511492374e-15
1.00546741727e-15
1.01355795829e-15
1.01407484588e-15
1.01396022821e-15
1.01410585282e-15
1.01396022821e-15
1.01412918529e-15
1.01396299973e-15
1.01413868647e-15
1.0139658864e-15
1.01415486747e-15
1.01396702257e-15
1.01415146025e-15
1.01396888363e-15
1.01414781326e-15
1.01397170551e-15
1.01414521969e-15
1.01397142903e-15
1.00379152851e-15
1.00298975082e-15
1.00304418388e-15
1.00325060317e-15
1.00375454936e-15
1.005052069e-15
1.0232064566e-15
1.02420285994e-15
1.0232064566e-15
1.02401755028e-15
1.01312199348e-15
1e-15
1e-15
1e-15
1.00884614388e-15
1e-15
1e-15
1e-15
1e-15
1e-15
1e-15
1e-15
1e-15
1e-15
1e-15
1e-15
1e-15
1e-15
1e-15
1e-15
1e-15
1e-15
1e-15
1e-15
1e-15
1e-15
1e-15
1e-15
1e-15
1e-15
1e-15
1e-15
1.00005787193e-15
1.00009413325e-15
1.00012839136e-15
1.00021861467e-15
1.0006981646e-15
1.00124531169e-15
1.00141656965e-15
1.00141858353e-15
1.00141656965e-15
1.00141878115e-15
1.00141656965e-15
1.00141885149e-15
1.00141656965e-15
1.0014187981e-15
1.00141656965e-15
1.00141107033e-15
1.00140121399e-15
1.00139520294e-15
1.00139400338e-15
1.00139980778e-15
1.00120135951e-15
1.00100232576e-15
1.00093061267e-15
1.00083286125e-15
1.00070667163e-15
1.00045608162e-15
1.00011090118e-15
1e-15
1e-15
1e-15
1e-15
1e-15
1e-15
1e-15
1e-15
1e-15
1e-15
1e-15
1e-15
1e-15
1e-15
1e-15
1e-15
1e-15
1e-15
1e-15
1e-15
1e-15
1e-15
1e-15
1e-15
1e-15
1e-15
1e-15
1e-15
1e-15
1e-15
1e-15
1e-15
1e-15
1e-15
1e-15
1e-15
1e-15
1e-15
1e-15
1e-15
1e-15
1e-15
1e-15
1.00002282413e-15
1.00016127549e-15
1.00077891005e-15
1.00167894061e-15
1.00255359958e-15
1.0033683682e-15
1.00409915813e-15
1.00476022717e-15
1.0052989688e-15
1.00579399638e-15
1.00611051811e-15
1.01403575232e-15
1.01396022821e-15
1.01409537783e-15
1.01396022821e-15
1.0141058409e-15
1.01396299973e-15
1.01413114964e-15
1.0139658864e-15
1.01413554599e-15
1.01396702257e-15
1.01414475113e-15
1.01396888363e-15
1.01414361748e-15
1.01397170551e-15
1.01414158054e-15
1.01397170551e-15
1.01412001363e-15
1.01011135933e-15
1.00372679129e-15
1.00356857532e-15
1.00378055428e-15
1.00430748487e-15
1.00570212265e-15
1.02404496356e-15
1.0232064566e-15
1.02418658315e-15
1.0232064566e-15
1.01373639056e-15
1e-15
1e-15
1.00142821016e-15
1.0099563738e-15
1e-15
1e-15
1e-15
1e-15
1e-15
1e-15
1e-15
1e-15
1e-15
1e-15
1e-15
1e-15
1e-15
1e-15
1e-15
1e-15
1e-15
1e-15
1e-15
1e-15
1e-15
1e-15
1e-15
1e-15
1e-15
1e-15
1.00001015111e-15
1.00008573525e-15
1.0001056276e-15
1.00013014885e-15
1.00022638421e-15
1.00075941408e-15
1.00121969788e-15
1.00138547589e-15
1.00138800887e-15
1.0013848532e-15
1.00137513831e-15
1.00136857589e-15
1.00135482592e-15
1.00134386616e-15
1.00132460011e-15
1.0013023259e-15
1.00126595183e-15
1.00124026382e-15
1.00122575128e-15
1.00123712923e-15
1.00124220007e-15
1.00095420733e-15
1.00072605732e-15
1.00063103607e-15
1.00050138295e-15
1.00026310213e-15
1.00000235641e-15
1e-15
1e-15
1e-15
1e-15
1e-15
1e-15
1e-15
1e-15
1e-15
1e-15
1e-15
1e-15
1e-15
1e-15
1e-15
1e-15
1e-15
1e-15
1e-15
1e-15
1e-15
1e-15
1e-15
1e-15
1e-15
1e-15
1e-15
1e-15
1e-15
1e-15
1e-15
1e-15
1e-15
1e-15
1e-15
1e-15
1e-15
1e-15
1e-15
1e-15
1e-15
1e-15
1e-15
1e-15
1.00002298984e-15
1.0001727484e-15
1.00093697446e-15
1.00195748397e-15
1.00295518421e-15
1.00382555371e-15
1.00460512034e-15
1.00527844471e-15
1.00589151881e-15
1.00643274802e-15
1.00839760181e-15
1.01396022821e-15
1.01407465565e-15
1.01396022821e-15
1.01409250558e-15
1.01396299973e-15
1.01410611282e-15
1.01396588686e-15
1.01412655625e-15
1.01396702257e-15
1.01413228872e-15
1.01396888363e-15
1.01413475516e-15
1.01397170551e-15
1.0141296689e-15
1.01397170551e-15
1.01412001363e-15
1.01397215091e-15
1.01409670146e-15
1.00457555564e-15
1.00408762894e-15
1.00430364167e-15
1.00486036606e-15
1.00635398728e-15
1.0232064566e-15
1.02415076798e-15
1.0232064566e-15
1.02396756924e-15
1.01422946398e-15
1e-15
1e-15
1.01371851606e-15
1.00884614388e-15
1e-15
1e-15
1e-15
1e-15
1e-15
1e-15
1e-15
1e-15
1e-15
1e-15
1e-15
1e-15
1e-15
1e-15
1e-15
1e-15
1e-15
1e-15
1e-15
1e-15
1e-15
1e-15
1e-15
1e-15
1e-15
1.00000361842e-15
1.00007134042e-15
1.00009891038e-15
1.00010874477e-15
1.00012709516e-15
1.0002221467e-15
1.00073888833e-15
1.00111282765e-15
1.00122673388e-15
1.00121977284e-15
1.00120394127e-15
1.00117495038e-15
1.00115399171e-15
1.00112025053e-15
1.00109360197e-15
1.00105470093e-15
1.00101889358e-15
1.00097184369e-15
1.00093817256e-15
1.00092161527e-15
1.00094739917e-15
1.00094837066e-15
1.00072962664e-15
1.00044758377e-15
1.0001924546e-15
1.00004209024e-15
1e-15
1e-15
1e-15
1e-15
1e-15
1e-15
1e-15
1e-15
1e-15
1e-15
1e-15
1e-15
1e-15
1e-15
1e-15
1e-15
1e-15
1e-15
1e-15
1e-15
1e-15
1e-15
1e-15
1e-15
1e-15
1e-15
1e-15
1e-15
1e-15
1e-15
1e-15
1e-15
1e-15
1e-15
1e-15
1e-15
1e-15
1e-15
1e-15
1e-15
1e-15
1e-15
1e-15
1e-15
1e-15
1e-15
1.00001726988e-15
1.00019192613e-15
1.00113605036e-15
1.00230160411e-15
1.00338173816e-15
1.00431362164e-15
1.00517862462e-15
1.005892818e-15
1.00655244105e-15
1.00710857287e-15
1.01346041362e-15
1.01406383511e-15
1.01396022821e-15
1.01407335742e-15
1.01396299973e-15
1.01408980656e-15
1.01396588686e-15
1.01410571697e-15
1.01396702257e-15
1.01412113264e-15
1.01396888363e-15
1.01412229681e-15
1.01397170551e-15
1.01412480823e-15
1.01397170551e-15
1.01411854292e-15
1.01397215091e-15
1.01410892177e-15
1.01397331704e-15
1.00560734049e-15
1.00462028081e-15
1.00486181197e-15
1.00545277469e-15
1.00701776908e-15
1.02402240142e-15
1.0232064566e-15
1.02413604702e-15
1.0232064566e-15
1.01464855768e-15
1e-15
1e-15
1.01298708452e-15
1.00934875673e-15
1e-15
1e-15
1e-15
1e-15
1e-15
1e-15
1e-15
1e-15
1e-15
1e-15
1e-15
1e-15
1e-15
1e-15
1e-15
1e-15
1e-15
1e-15
1e-15
1e-15
1e-15
1e-15
1e-15
1e-15
1e-15
1.00008565804e-15
1.00009793872e-15
1.00010888741e-15
1.00010723995e-15
1.00011850681e-15
1.0001993538e-15
1.0006474185e-15
1.00090980888e-15
1.00095930401e-15
1.00092497384e-15
1.00089550351e-15
1.00085401755e-15
1.000823353e-15
1.00078291955e-15
1.00075190147e-15
1.00071174566e-15
1.00067774704e-15
1.00063501122e-15
1.0006060087e-15
1.00059424805e-15
1.00062648379e-15
1.00062691955e-15
1.00048267845e-15
1.00011696973e-15
1e-15
1e-15
1e-15
1e-15
1e-15
1e-15
1e-15
1e-15
1e-15
1e-15
1e-15
1e-15
1e-15
1e-15
1e-15
1e-15
1e-15
1e-15
1e-15
1e-15
1e-15
1e-15
1e-15
1e-15
1e-15
1e-15
1e-15
1e-15
1e-15
1e-15
1e-15
1e-15
1e-15
1e-15
1e-15
1e-15
1e-15
1e-15
1e-15
1e-15
1e-15
1e-15
1e-15
1e-15
1e-15
1e-15
1e-15
1e-15
1.0000023997e-15
1.00024880712e-15
1.00136644671e-15
1.0026425729e-15
1.00377425638e-15
1.00479668621e-15
1.00573068809e-15
1.00650376369e-15
1.00724000909e-15
1.00794312478e-15
1.01404494455e-15
1.01396022821e-15
1.01405311181e-15
1.01396299973e-15
1.01406795241e-15
1.01396588686e-15
1.01409283831e-15
1.01396702257e-15
1.01409855112e-15
1.01396888363e-15
1.01410671422e-15
1.01397170551e-15
1.01411572057e-15
1.01397170551e-15
1.01411455846e-15
1.01397215091e-15
1.01410096759e-15
1.01397331704e-15
1.0140962377e-15
1.01110893534e-15
1.00535098265e-15
1.0054816765e-15
1.00608842173e-15
1.00763481449e-15
1.0232064566e-15
1.02410587396e-15
1.0232064566e-15
1.02392795075e-15
1.01499768169e-15
1e-15
1e-15
1.01400824152e-15
1.00884479633e-15
1e-15
1e-15
1e-15
1e-15
1e-15
1e-15
1e-15
1e-15
1e-15
1e-15
1e-15
1e-15
1e-15
1e-15
1e-15
1e-15
1e-15
1e-15
1e-15
1e-15
1e-15
1e-15
1e-15
1.0000360526e-15
1.00010015049e-15
1.00012843957e-15
1.0001199303e-15
1.00011782415e-15
1.00010345579e-15
1.00010316928e-15
1.00013914436e-15
1.0004126829e-15
1.00054975613e-15
1.00054508323e-15
1.0004860298e-15
1.00044451625e-15
1.0003914748e-15
1.00035163988e-15
1.00030511734e-15
1.00027064802e-15
1.00022974285e-15
1.00019721146e-15
1.00015648056e-15
1.00012964212e-15
1.00011582247e-15
1.00013212114e-15
1.00012212886e-15
1.00007338434e-15
1e-15
1e-15
1e-15
1e-15
1e-15
1e-15
1e-15
1e-15
1e-15
1e-15
1e-15
1e-15
1e-15
1e-15
1e-15
1e-15
1e-15
1e-15
1e-15
1e-15
1e-15
1e-15
1e-15
1e-15
1e-15
1e-15
1e-15
1e-15
1e-15
1e-15
1e-15
1e-15
1e-15
1e-15
1e-15
1e-15
1e-15
1e-15
1e-15
1e-15
1e-15
1e-15
1e-15
1e-15
1e-15
1e-15
1e-15
1e-15
1e-15
1e-15
1.00033434126e-15
1.00157930305e-15
1.0029138584e-15
1.0041091224e-15
1.0052289956e-15
1.00622166012e-15
1.00707586474e-15
1.00785958437e-15
1.00872536394e-15
1.01396022821e-15
1.01402986901e-15
1.01396299973e-15
1.01404703608e-15
1.01396588686e-15
1.01407446255e-15
1.01396702257e-15
1.01407892715e-15
1.01396888363e-15
1.01408387903e-15
1.01397170551e-15
1.0141034884e-15
1.01397170551e-15
1.01410701333e-15
1.01397215091e-15
1.01409234275e-15
1.01397331704e-15
1.01409345836e-15
1.01397379465e-15
1.01406088363e-15
1.00625864728e-15
1.00613216891e-15
1.00672586916e-15
1.01374823472e-15
1.02399671939e-15
1.0232064566e-15
1.0240955445e-15
1.0232064566e-15
1.01527942533e-15
1e-15
1e-15
1.01298708452e-15
1.00895509531e-15
1e-15
1e-15
1e-15
1e-15
1e-15
1e-15
1e-15
1e-15
1e-15
1e-15
1e-15
1e-15
1e-15
1e-15
1e-15
1e-15
1e-15
1e-15
1e-15
1e-15
1e-15
1.00005183548e-15
1.00010883862e-15
1.00016994391e-15
1.00016928319e-15
1.00016615255e-15
1.00014329454e-15
1.00012705373e-15
1.00009772779e-15
1.00008039682e-15
1.00006644876e-15
1.00012033529e-15
1.00013570475e-15
1.00009664031e-15
1.00003550225e-15
1.00000813998e-15
1.00000331952e-15
1.00000037514e-15
1e-15
1e-15
1e-15
1e-15
1e-15
1e-15
1e-15
1e-15
1e-15
1e-15
1e-15
1e-15
1e-15
1e-15
1e-15
1e-15
1e-15
1e-15
1e-15
1e-15
1e-15
1e-15
1e-15
1e-15
1e-15
1e-15
1e-15
1e-15
1e-15
1e-15