/*--------------------------------*- C++ -*----------------------------------*\
| =========                 |                                                 |
| \\      /  F ield         | OpenFOAM: The Open Source CFD Toolbox           |
|  \\    /   O peration     | Version:  2206                                  |
|   \\  /    A nd           | Website:  www.openfoam.com                      |
|    \\/     M anipulation  |                                                 |
\*---------------------------------------------------------------------------*/
FoamFile
{
    version     2.0;
    format      ascii;
    arch        "LSB;label=64;scalar=64";
    class       volScalarField;
    location    "2.8/water";
    object      d.gas;
}
// * * * * * * * * * * * * * * * * * * * * * * * * * * * * * * * * * * * * * //

dimensions      [0 1 0 0 0 0 0];

internalField   nonuniform List<scalar> 
23300
(
0.004987779572
0.00498777880806
0.004987778948
0.00498777913831
0.00498777937909
0.00498777966476
0.00498777998907
0.00498778034816
0.00498778073885
0.00498778116046
0.00498778161169
0.00498778209314
0.00498778260346
0.00498778314301
0.00498778370927
0.00498778430178
0.00498778491681
0.0049877855533
0.00498778620674
0.00498778687596
0.0049877875561
0.00498778824616
0.00498778894114
0.00498778964025
0.0049877903383
0.00498779103458
0.00498779172363
0.00498779240472
0.00498779307208
0.00498779372493
0.0049877943573
0.00498779496853
0.00498779555263
0.00498779610926
0.00498779663272
0.0049877971232
0.00498779757553
0.00498779799063
0.00498779836404
0.00498779869751
0.00498779898739
0.00498779923633
0.0049877994415
0.00498779960639
0.00498779972902
0.00498779981417
0.00498779986117
0.00498779987511
0.00498779985557
0.00498779980828
0.00498779973357
0.00498779963779
0.00498779952186
0.00498779939257
0.0049877992513
0.00498779910514
0.00498779895575
0.00498779881037
0.00498779867081
0.00498779854427
0.00498779843255
0.00498779834266
0.00498779827622
0.00498779823989
0.00498779823497
0.00498779826766
0.00498779833881
0.00498779845402
0.00498779861359
0.00498779882244
0.00498779908025
0.00498779939118
0.00498779975418
0.00498780017258
0.00498780064448
0.00498780117217
0.00498780175267
0.0049878023869
0.00498780307033
0.00498780380191
0.00498780457477
0.00498780538498
0.00498780622246
0.00498780707967
0.00498780794337
0.00498780880468
0.00498780965519
0.00498781049866
0.00498781133263
0.00498781214901
0.00498781293684
0.00498781369889
0.0049878144416
0.00498781517611
0.00498781590841
0.00498781664596
0.00498781739066
0.00498781814594
0.00498781891039
0.00498781968453
0.00498782046475
0.00498782124972
0.00498782203459
0.00498782281704
0.00498782359172
0.0049878243559
0.00498782510425
0.00498782583404
0.00498782654028
0.00498782722051
0.0049878278703
0.00498782848765
0.00498782906882
0.00498782961241
0.00498783011553
0.00498783057751
0.0049878309964
0.00498783137225
0.00498783170393
0.00498783199216
0.00498783223666
0.00498783243883
0.00498783259924
0.00498783271998
0.00498783280242
0.00498783284924
0.00498783286253
0.00498783284539
0.00498783280035
0.00498783273049
0.004987832638
0.00498783252467
0.00498783239038
0.00498783223334
0.00498783204984
0.00498783183704
0.00498783159851
0.00498783135354
0.00498783114655
0.00498783031654
0.00498791176095
0.00498791095179
0.00498791099143
0.00498791107281
0.00498791119544
0.00498791136013
0.00498791156652
0.0049879118144
0.004987912103
0.00498791243225
0.00498791280122
0.00498791320969
0.00498791365608
0.00498791413967
0.00498791465805
0.00498791521004
0.00498791579269
0.00498791640469
0.0049879170429
0.00498791770614
0.00498791839115
0.00498791909682
0.00498791981967
0.00498792055841
0.00498792130906
0.00498792206992
0.00498792283638
0.00498792360626
0.00498792437434
0.00498792513811
0.00498792589201
0.00498792663349
0.00498792735702
0.00498792806036
0.00498792873838
0.00498792938944
0.00498793000911
0.00498793059658
0.00498793114827
0.00498793166431
0.00498793214206
0.00498793258258
0.00498793298417
0.00498793334883
0.00498793367566
0.00498793396772
0.00498793422515
0.00498793445153
0.0049879346475
0.00498793481718
0.00498793496175
0.00498793508578
0.00498793519087
0.00498793528189
0.00498793536073
0.00498793543244
0.00498793549903
0.00498793556556
0.00498793563404
0.00498793570936
0.00498793579336
0.00498793589063
0.00498793600267
0.00498793613362
0.00498793628452
0.00498793645892
0.00498793665727
0.00498793688245
0.00498793713425
0.0049879374148
0.00498793772318
0.00498793806079
0.00498793842601
0.00498793881951
0.00498793923905
0.0049879396847
0.00498794015371
0.00498794064568
0.00498794115755
0.00498794168869
0.00498794223607
0.00498794279933
0.00498794337631
0.00498794396849
0.0049879445774
0.00498794521126
0.0049879458823
0.00498794660807
0.00498794739134
0.00498794822172
0.00498794907848
0.00498794994213
0.00498795079882
0.00498795164242
0.00498795246826
0.00498795327549
0.00498795406239
0.00498795482955
0.00498795557593
0.00498795630224
0.0049879570074
0.00498795769187
0.00498795835432
0.00498795899486
0.00498795961195
0.00498796020535
0.00498796077331
0.00498796131534
0.00498796182958
0.00498796231539
0.0049879627709
0.00498796319546
0.00498796358735
0.00498796394606
0.00498796427019
0.0049879645596
0.00498796481353
0.00498796503231
0.00498796521566
0.00498796536437
0.00498796547884
0.00498796556051
0.00498796561057
0.00498796563116
0.00498796562426
0.00498796559274
0.00498796553937
0.0049879654677
0.00498796538116
0.00498796528366
0.00498796517863
0.00498796506897
0.0049879649557
0.00498796483719
0.00498796470832
0.00498796456165
0.00498796439155
0.00498796420266
0.00498796402414
0.00498796318927
0.00498804518442
0.00498804438857
0.00498804442099
0.00498804449032
0.00498804459602
0.00498804473836
0.0049880449175
0.00498804513403
0.00498804538797
0.00498804567996
0.00498804600979
0.00498804637783
0.00498804678323
0.00498804722577
0.00498804770373
0.00498804821637
0.00498804876135
0.0049880493377
0.00498804994284
0.00498805057583
0.00498805123393
0.00498805191621
0.00498805261968
0.00498805334314
0.00498805408309
0.00498805483785
0.00498805560322
0.00498805637695
0.00498805715418
0.00498805793221
0.00498805870575
0.00498805947196
0.00498806022549
0.00498806096369
0.00498806168154
0.0049880623769
0.00498806304535
0.00498806368553
0.00498806429377
0.00498806486961
0.00498806541026
0.00498806591612
0.0049880663853
0.00498806681904
0.00498806721624
0.00498806757929
0.00498806790822
0.00498806820584
0.00498806847244
0.00498806871129
0.0049880689232
0.00498806911185
0.00498806927843
0.00498806942689
0.00498806955869
0.00498806967794
0.00498806978622
0.00498806988768
0.00498806998389
0.00498807007888
0.00498807017411
0.00498807027335
0.00498807037783
0.00498807049098
0.00498807061366
0.00498807074891
0.00498807089715
0.00498807106095
0.00498807124029
0.00498807143728
0.00498807165148
0.00498807188458
0.00498807213584
0.00498807240664
0.00498807269608
0.00498807300545
0.00498807333392
0.00498807368296
0.00498807405213
0.00498807444343
0.00498807485727
0.00498807529678
0.00498807576398
0.00498807626428
0.00498807680299
0.00498807738983
0.00498807803476
0.00498807874933
0.00498807953157
0.00498808037205
0.0049880812575
0.0049880821725
0.00498808310129
0.00498808403322
0.00498808495876
0.0049880858722
0.00498808676777
0.00498808764244
0.0049880884925
0.00498808931636
0.00498809011148
0.00498809087709
0.00498809161134
0.00498809231392
0.00498809298343
0.00498809361978
0.00498809422183
0.00498809478962
0.00498809532215
0.00498809581954
0.00498809628091
0.00498809670645
0.00498809709548
0.00498809744832
0.00498809776455
0.00498809804477
0.00498809828918
0.00498809849879
0.0049880986741
0.00498809881649
0.00498809892703
0.00498809900765
0.00498809906009
0.00498809908687
0.00498809909042
0.00498809907384
0.00498809904013
0.00498809899278
0.004988098935
0.00498809886996
0.00498809879988
0.00498809872562
0.00498809864535
0.00498809855382
0.00498809844167
0.00498809829704
0.00498809811004
0.00498809788145
0.00498809763542
0.00498809675662
0.00498817825418
0.00498817745611
0.00498817749483
0.00498817756743
0.00498817767364
0.00498817781356
0.00498817798733
0.00498817819574
0.00498817843912
0.00498817871846
0.00498817903392
0.00498817938629
0.00498817977513
0.00498818020068
0.00498818066169
0.00498818115785
0.00498818168727
0.00498818224937
0.00498818284193
0.00498818346428
0.00498818411401
0.00498818479036
0.00498818549057
0.0049881862136
0.00498818695609
0.00498818771649
0.00498818849072
0.0049881892766
0.00498819006938
0.00498819086638
0.00498819166239
0.00498819245452
0.00498819323744
0.00498819400842
0.00498819476235
0.00498819549695
0.00498819620765
0.00498819689284
0.00498819754865
0.00498819817428
0.00498819876666
0.0049881993258
0.00498819984947
0.00498820033846
0.00498820079128
0.00498820120985
0.00498820159389
0.00498820194584
0.00498820226555
0.00498820255574
0.00498820281676
0.00498820305174
0.00498820326142
0.00498820344921
0.00498820361614
0.00498820376581
0.00498820389941
0.00498820402062
0.00498820413068
0.00498820423325
0.00498820432951
0.00498820442299
0.00498820451472
0.00498820460802
0.00498820470372
0.00498820480486
0.00498820491202
0.00498820502795
0.00498820515298
0.00498820528962
0.00498820543801
0.00498820560046
0.00498820577706
0.00498820597009
0.00498820617972
0.00498820640841
0.00498820665664
0.00498820692728
0.00498820722141
0.00498820754258
0.00498820789278
0.00498820827662
0.0049882086974
0.0049882091613
0.00498820967352
0.00498821024209
0.00498821087332
0.00498821157375
0.0049882123414
0.00498821316677
0.00498821403935
0.00498821495095
0.00498821588785
0.00498821683952
0.00498821779531
0.00498821874771
0.00498821968896
0.00498822061398
0.00498822151717
0.0049882223952
0.00498822324408
0.00498822406177
0.00498822484545
0.00498822559406
0.00498822630564
0.00498822697978
0.00498822761519
0.0049882282119
0.00498822876906
0.00498822928703
0.00498822976528
0.00498823020441
0.00498823060419
0.00498823096544
0.00498823128825
0.00498823157373
0.00498823182262
0.00498823203648
0.00498823221624
0.00498823236369
0.00498823248027
0.00498823256822
0.00498823262954
0.00498823266694
0.00498823268294
0.00498823268065
0.00498823266295
0.00498823263306
0.0049882325937
0.00498823254729
0.00498823249497
0.00498823243618
0.00498823236734
0.00498823228117
0.00498823216611
0.00498823200781
0.0049882317934
0.00498823151975
0.00498823120554
0.00498823033045
0.00498831109674
0.00498831028581
0.00498831033399
0.00498831041549
0.00498831052997
0.00498831067742
0.00498831085786
0.004988311072
0.00498831132017
0.0049883116034
0.00498831192196
0.00498831227679
0.00498831266766
0.00498831309504
0.00498831355798
0.00498831405644
0.00498831458885
0.00498831515485
0.00498831575247
0.00498831638121
0.0049883170388
0.00498831772459
0.00498831843587
0.00498831917165
0.00498831992861
0.00498832070521
0.0049883214974
0.00498832230301
0.00498832311732
0.00498832393766
0.00498832475885
0.00498832557801
0.00498832638981
0.00498832719149
0.00498832797791
0.0049883287467
0.0049883294932
0.00498833021566
0.00498833091006
0.00498833157538
0.00498833220834
0.00498833280867
0.00498833337387
0.00498833390442
0.00498833439851
0.00498833485762
0.00498833528124
0.00498833567171
0.0049883360285
0.00498833635396
0.00498833664808
0.00498833691361
0.00498833715095
0.00498833736318
0.00498833755102
0.00498833771778
0.00498833786439
0.0049883379943
0.00498833810858
0.00498833821071
0.0049883383018
0.0049883383853
0.00498833846227
0.00498833853607
0.00498833860765
0.00498833868023
0.00498833875465
0.00498833883399
0.00498833891897
0.00498833901254
0.00498833911541
0.00498833923047
0.00498833935849
0.00498833950246
0.00498833966333
0.00498833984436
0.00498834004685
0.00498834027449
0.00498834052913
0.00498834081504
0.00498834113477
0.00498834149336
0.00498834189419
0.00498834234314
0.00498834284439
0.0049883434042
0.00498834402625
0.00498834471431
0.00498834546734
0.0049883462779
0.00498834713398
0.00498834802986
0.00498834895666
0.00498834990485
0.00498835086416
0.00498835182685
0.0049883527845
0.0049883537312
0.00498835466035
0.00498835556765
0.00498835644812
0.0049883572988
0.00498835811606
0.0049883588981
0.00498835964236
0.00498836034795
0.00498836101318
0.00498836163784
0.00498836222091
0.00498836276268
0.00498836326267
0.00498836372153
0.00498836413921
0.0049883645167
0.00498836485431
0.00498836515339
0.00498836541502
0.00498836564107
0.00498836583267
0.00498836599185
0.00498836612019
0.0049883662201
0.00498836629364
0.00498836634357
0.00498836637237
0.00498836638304
0.00498836637826
0.00498836636092
0.00498836633326
0.00498836629709
0.00498836625268
0.00498836619842
0.00498836612947
0.00498836603714
0.0049883659083
0.00498836572681
0.00498836547767
0.00498836515574
0.00498836477956
0.00498836394216
0.00498844377011
0.00498844294074
0.00498844300011
0.00498844309368
0.00498844322114
0.00498844338248
0.00498844357758
0.00498844380701
0.00498844407097
0.00498844437037
0.0049884447054
0.00498844507694
0.0049884454848
0.0049884459295
0.00498844641018
0.00498844692692
0.00498844747825
0.00498844806392
0.00498844868202
0.00498844933209
0.00498845001187
0.00498845072064
0.00498845145568
0.00498845221588
0.0049884529979
0.00498845380006
0.00498845461831
0.0049884554504
0.0049884562916
0.00498845713922
0.00498845798809
0.00498845883533
0.00498845967565
0.00498846050627
0.00498846132208
0.00498846212067
0.00498846289737
0.00498846365034
0.00498846437551
0.00498846507173
0.00498846573559
0.00498846636668
0.00498846696231
0.00498846752276
0.00498846804604
0.0049884685331
0.0049884689834
0.00498846939936
0.00498846978022
0.00498847012805
0.00498847044259
0.00498847072637
0.00498847097956
0.00498847120503
0.00498847140332
0.00498847157757
0.00498847172859
0.00498847185973
0.00498847197197
0.00498847206879
0.00498847215128
0.00498847222295
0.00498847228495
0.00498847234078
0.00498847239158
0.0049884724408
0.00498847248956
0.00498847254124
0.00498847259695
0.00498847266005
0.00498847273166
0.00498847281519
0.00498847291186
0.0049884730252
0.00498847315665
0.00498847330997
0.00498847348693
0.00498847369162
0.00498847392624
0.00498847419532
0.00498847450153
0.00498847484982
0.00498847524332
0.00498847568729
0.00498847618495
0.00498847674115
0.00498847735793
0.0049884780376
0.00498847877811
0.00498847957678
0.00498848042143
0.0049884813031
0.00498848221655
0.00498848315498
0.00498848410875
0.00498848507045
0.0049884860317
0.00498848698637
0.0049884879275
0.00498848885031
0.00498848974928
0.00498849062092
0.004988491461
0.00498849226718
0.00498849303642
0.00498849376736
0.00498849445792
0.00498849510755
0.00498849571499
0.00498849628031
0.00498849680289
0.00498849728333
0.00498849772151
0.00498849811844
0.00498849847445
0.00498849879096
0.00498849906921
0.0049884993112
0.00498849951818
0.00498849969219
0.00498849983489
0.00498849994867
0.00498850003559
0.00498850009835
0.0049885001393
0.0049885001613
0.00498850016675
0.00498850015825
0.00498850013758
0.00498850010597
0.00498850006298
0.00498850000615
0.00498849992967
0.00498849982383
0.00498849967448
0.00498849946452
0.00498849917842
0.00498849881206
0.0049884983892
0.00498849760897
0.00498857630789
0.00498857545794
0.00498857552969
0.00498857563773
0.00498857578182
0.00498857596193
0.00498857617789
0.0049885764301
0.00498857671859
0.00498857704404
0.00498857740646
0.00498857780656
0.004988578244
0.00498857871919
0.00498857923121
0.00498857978005
0.00498858036421
0.00498858098335
0.00498858163549
0.00498858232004
0.00498858303461
0.00498858377832
0.00498858454829
0.00498858534321
0.00498858615959
0.0049885869956
0.00498858784707
0.00498858871164
0.00498858958455
0.00498859046305
0.004988591342
0.00498859221853
0.00498859308738
0.00498859394581
0.00498859478878
0.00498859561389
0.00498859641652
0.00498859719483
0.00498859794476
0.0049885986651
0.00498859935245
0.0049886000063
0.0049886006239
0.00498860120542
0.00498860174879
0.00498860225436
0.00498860272168
0.00498860315344
0.00498860354874
0.00498860390949
0.0049886042353
0.00498860452854
0.00498860478925
0.00498860502018
0.00498860522179
0.00498860539713
0.00498860554697
0.00498860567463
0.00498860578111
0.0049886058699
0.00498860594218
0.00498860600156
0.00498860604932
0.00498860608912
0.00498860612231
0.00498860615257
0.00498860618127
0.00498860621211
0.00498860624648
0.0049886062881
0.00498860633842
0.00498860640121
0.00498860647805
0.00498860657279
0.00498860668721
0.00498860682536
0.00498860698923
0.00498860718312
0.00498860740932
0.00498860767237
0.00498860797483
0.00498860832142
0.00498860871482
0.00498860915967
0.00498860965833
0.00498861021459
0.00498861082937
0.00498861150404
0.00498861223625
0.00498861302333
0.00498861385911
0.00498861473237
0.00498861563393
0.00498861656157
0.00498861750699
0.00498861846332
0.00498861942244
0.00498862037831
0.00498862132394
0.00498862225439
0.00498862316388
0.0049886240486
0.004988624904
0.00498862572736
0.00498862651526
0.004988627266
0.00498862797715
0.00498862864786
0.00498862927659
0.00498862986319
0.00498863040683
0.00498863090794
0.00498863136631
0.00498863178283
0.00498863215776
0.00498863249246
0.0049886327882
0.00498863304708
0.0049886332703
0.00498863345987
0.00498863361741
0.00498863374525
0.00498863384534
0.00498863392026
0.00498863397223
0.00498863400388
0.00498863401738
0.00498863401496
0.00498863399802
0.00498863396726
0.00498863392165
0.00498863385801
0.00498863376987
0.00498863364687
0.00498863347444
0.00498863323551
0.00498863291553
0.00498863251377
0.00498863206219
0.00498863134663
0.00498870873312
0.00498870786318
0.00498870794821
0.00498870807269
0.00498870823641
0.00498870843939
0.00498870868141
0.00498870896267
0.00498870928304
0.00498870964293
0.00498871004209
0.00498871048093
0.00498871095886
0.00498871147602
0.00498871203128
0.00498871262439
0.00498871325365
0.00498871391846
0.00498871461664
0.00498871534732
0.00498871610786
0.00498871689708
0.00498871771186
0.00498871855061
0.00498871940963
0.00498872028686
0.00498872117798
0.00498872208051
0.00498872298961
0.0049887239025
0.00498872481406
0.00498872572142
0.00498872661944
0.00498872750541
0.0049887283744
0.0049887292241
0.00498873004998
0.00498873085027
0.00498873162096
0.00498873236091
0.00498873306673
0.00498873373793
0.00498873437177
0.0049887349684
0.00498873552579
0.00498873604368
0.0049887365216
0.0049887369626
0.00498873736587
0.00498873773324
0.00498873806426
0.0049887383612
0.00498873862404
0.00498873885549
0.00498873905595
0.00498873922848
0.00498873937381
0.00498873949532
0.00498873959403
0.00498873967353
0.00498873973508
0.00498873978242
0.00498873981696
0.00498873984257
0.00498873986075
0.00498873987543
0.0049887398882
0.00498873990302
0.00498873992154
0.00498873994773
0.00498873998334
0.00498874003238
0.00498874009668
0.00498874018034
0.00498874028531
0.00498874041582
0.00498874057397
0.0049887407641
0.00498874098847
0.00498874125153
0.00498874155563
0.00498874190516
0.00498874230235
0.00498874275125
0.0049887432535
0.00498874381209
0.00498874442712
0.00498874509937
0.0049887458262
0.00498874660523
0.00498874743066
0.00498874829733
0.00498874919281
0.00498875011079
0.00498875104769
0.00498875199719
0.00498875295174
0.00498875390546
0.00498875485151
0.00498875578493
0.00498875669986
0.00498875759237
0.00498875845769
0.00498875929289
0.00498876009428
0.00498876085991
0.00498876158709
0.00498876227472
0.00498876292101
0.0049887635256
0.00498876408746
0.00498876460685
0.00498876508339
0.00498876551784
0.00498876591034
0.0049887662621
0.00498876657436
0.00498876684928
0.00498876708796
0.00498876729234
0.00498876746392
0.00498876760493
0.0049887677172
0.00498876780317
0.00498876786485
0.00498876790467
0.00498876792454
0.00498876792638
0.00498876791121
0.00498876787929
0.00498876782909
0.00498876775695
0.00498876765595
0.0049887675155
0.00498876732118
0.00498876705672
0.00498876670969
0.004988766284
0.00498876582036
0.00498876517033
0.00498884106213
0.00498884017515
0.00498884027418
0.0049888404168
0.00498884060286
0.00498884083236
0.00498884110503
0.00498884142095
0.00498884177974
0.00498884218151
0.00498884262573
0.0049888431124
0.00498884364059
0.00498884421003
0.00498884481924
0.00498884546756
0.00498884615295
0.00498884687442
0.00498884762943
0.0049888484167
0.00498884923325
0.00498885007751
0.00498885094601
0.00498885183683
0.004988852746
0.00498885367121
0.00498885460797
0.00498885555363
0.00498885650333
0.00498885745421
0.00498885840122
0.00498885934152
0.00498886027007
0.00498886118429
0.00498886207936
0.00498886295311
0.00498886380115
0.00498886462182
0.00498886541124
0.00498886616834
0.00498886688986
0.00498886757532
0.00498886822206
0.00498886883024
0.00498886939778
0.00498886992516
0.0049888704106
0.00498887085662
0.00498887126389
0.00498887163411
0.00498887196674
0.00498887226402
0.0049888725259
0.00498887275506
0.0049888729519
0.00498887311948
0.00498887325859
0.00498887337263
0.00498887346271
0.0049888735325
0.00498887358336
0.00498887361917
0.0049888736415
0.00498887365436
0.00498887365946
0.00498887366091
0.00498887366052
0.00498887366245
0.00498887366858
0.00498887368311
0.00498887370797
0.00498887374741
0.0049888738034
0.00498887388024
0.00498887397997
0.00498887410692
0.00498887426321
0.00498887445318
0.00498887467899
0.00498887494492
0.00498887525308
0.00498887560754
0.00498887601009
0.00498887646426
0.00498887697108
0.00498887753291
0.00498887814927
0.0049888788205
0.0049888795438
0.00498888031688
0.00498888113439
0.00498888199171
0.00498888288157
0.00498888379482
0.00498888472394
0.00498888566652
0.00498888661523
0.00498888756493
0.00498888850887
0.0049888894422
0.00498889035909
0.00498889125552
0.00498889212664
0.00498889296941
0.00498889377996
0.00498889455617
0.00498889529516
0.00498889599563
0.0049888966556
0.00498889727453
0.00498889785122
0.00498889838576
0.0049888988776
0.00498889932739
0.00498889973513
0.00498890010181
0.00498890042858
0.00498890071769
0.00498890097012
0.00498890118771
0.00498890137184
0.00498890152461
0.0049889016477
0.00498890174339
0.00498890181351
0.0049889018603
0.00498890188539
0.00498890189044
0.00498890187614
0.00498890184239
0.00498890178729
0.00498890170688
0.00498890159404
0.00498890143829
0.00498890122581
0.00498890094173
0.00498890057632
0.00498890013849
0.00498889967665
0.00498889909014
0.00498897330586
0.00498897240688
0.00498897252067
0.00498897268311
0.00498897289405
0.00498897315355
0.00498897346126
0.00498897381707
0.00498897422042
0.0049889746711
0.00498897516815
0.00498897571116
0.00498897629871
0.00498897693003
0.00498897760313
0.00498897831683
0.00498897906859
0.0049889798569
0.00498898067872
0.00498898153227
0.00498898241412
0.00498898332222
0.00498898425272
0.00498898520331
0.00498898616971
0.00498898714933
0.00498898813752
0.00498898913148
0.00498899012629
0.00498899111908
0.00498899210484
0.00498899308082
0.00498899404212
0.00498899498627
0.00498899590865
0.00498899680722
0.00498899767779
0.00498899851883
0.00498899932665
0.00498900010031
0.00498900083664
0.00498900153531
0.00498900219373
0.00498900281214
0.00498900338851
0.0049890039236
0.00498900441462
0.00498900486411
0.00498900527367
0.004989005645
0.00498900597756
0.00498900627359
0.00498900653305
0.00498900675862
0.00498900695071
0.00498900711242
0.00498900724459
0.00498900735068
0.00498900743186
0.00498900749193
0.00498900753234
0.00498900755711
0.00498900756795
0.00498900756903
0.00498900756222
0.00498900755183
0.00498900753984
0.0049890075306
0.00498900752618
0.00498900753097
0.00498900754708
0.0049890075789
0.00498900762856
0.00498900770045
0.00498900779672
0.00498900792171
0.00498900807755
0.00498900826853
0.00498900849668
0.00498900876612
0.0049890090787
0.00498900943816
0.0049890098459
0.00498901030501
0.00498901081601
0.00498901138077
0.00498901199835
0.0049890126688
0.00498901338914
0.00498901415719
0.00498901496786
0.00498901581698
0.00498901669791
0.00498901760496
0.00498901852963
0.0049890194657
0.0049890204081
0.00498902135215
0.004989022292
0.00498902322291
0.00498902413895
0.00498902503619
0.00498902590973
0.00498902675646
0.00498902757243
0.00498902835539
0.00498902910232
0.00498902981179
0.00498903048168
0.00498903111129
0.00498903169928
0.0049890322456
0.00498903274958
0.00498903321173
0.00498903363194
0.00498903401097
0.00498903434979
0.00498903465078
0.00498903491482
0.00498903514364
0.00498903533849
0.00498903550136
0.00498903563377
0.00498903573787
0.00498903581529
0.00498903586808
0.00498903589767
0.00498903590546
0.00498903589187
0.00498903585653
0.00498903579732
0.00498903571009
0.00498903558778
0.0049890354203
0.00498903519474
0.00498903489798
0.00498903452324
0.00498903408415
0.004989033635
0.00498903310902
0.00498910547056
0.00498910456663
0.00498910469599
0.00498910487996
0.00498910511846
0.00498910541145
0.00498910575856
0.00498910615956
0.0049891066136
0.00498910712007
0.00498910767765
0.00498910828534
0.00498910894117
0.00498910964373
0.0049891103904
0.00498911117933
0.00498911200736
0.0049891128723
0.00498911377055
0.00498911469969
0.00498911565577
0.0049891166362
0.00498911763671
0.00498911865454
0.00498911968513
0.00498912072558
0.00498912177108
0.00498912281869
0.00498912386346
0.00498912490251
0.00498912593092
0.00498912694603
0.00498912794311
0.00498912891982
0.00498912987178
0.00498913079711
0.00498913169182
0.00498913255458
0.00498913338187
0.00498913417291
0.0049891349247
0.00498913563702
0.00498913630742
0.00498913693623
0.00498913752155
0.00498913806434
0.00498913856088
0.00498913901373
0.00498913942514
0.00498913979709
0.00498914012912
0.00498914042345
0.00498914068005
0.00498914090164
0.00498914108866
0.00498914124424
0.00498914136927
0.00498914146729
0.00498914153956
0.00498914158996
0.00498914162006
0.004989141634
0.00498914163363
0.00498914162329
0.00498914160499
0.0049891415832
0.00498914156008
0.00498914154017
0.00498914152568
0.00498914152119
0.00498914152893
0.00498914155345
0.00498914159698
0.00498914166402
0.00498914175676
0.00498914187957
0.00498914203455
0.00498914222591
0.00498914245558
0.0049891427275
0.00498914304326
0.00498914340632
0.00498914381775
0.00498914428022
0.00498914479384
0.0049891453601
0.00498914597771
0.00498914664645
0.00498914736326
0.00498914812598
0.00498914892974
0.00498914977069
0.00498915064255
0.00498915154041
0.00498915245689
0.00498915338776
0.00498915432358
0.00498915526049
0.00498915619498
0.00498915712116
0.00498915803386
0.00498915892908
0.00498915980199
0.00498916064945
0.00498916146744
0.00498916225365
0.00498916300496
0.00498916371987
0.0049891643961
0.00498916503289
0.00498916562875
0.00498916618354
0.00498916669647
0.00498916716794
0.00498916759774
0.00498916798652
0.00498916833492
0.00498916864533
0.00498916891868
0.00498916915663
0.0049891693603
0.00498916953155
0.00498916967181
0.00498916978304
0.00498916986675
0.0049891699248
0.00498916995843
0.00498916996884
0.00498916995624
0.0049891699201
0.00498916985812
0.00498916976618
0.00498916963743
0.00498916946237
0.00498916922926
0.00498916892688
0.00498916855138
0.00498916812045
0.00498916769222
0.00498916722352
0.00498923755801
0.00498923665806
0.00498923680401
0.00498923701145
0.00498923728028
0.0049892376105
0.00498923800171
0.00498923845339
0.0049892389645
0.00498923953402
0.0049892401601
0.0049892408411
0.0049892415744
0.00498924235779
0.00498924318791
0.00498924406208
0.00498924497638
0.00498924592785
0.00498924691218
0.00498924792627
0.00498924896555
0.00498925002687
0.00498925110547
0.00498925219817
0.00498925330006
0.00498925440801
0.00498925551702
0.00498925662403
0.00498925772408
0.00498925881432
0.00498925988992
0.00498926094833
0.00498926198501
0.00498926299781
0.00498926398255
0.00498926493755
0.00498926585906
0.00498926674592
0.00498926759484
0.00498926840518
0.00498926917415
0.00498926990164
0.00498927058533
0.00498927122565
0.0049892718208
0.00498927237171
0.00498927287605
0.00498927333422
0.0049892737474
0.00498927412014
0.00498927445178
0.00498927474455
0.00498927499842
0.0049892752161
0.00498927539807
0.00498927554752
0.00498927566537
0.00498927575525
0.00498927581848
0.00498927585906
0.00498927587865
0.00498927588154
0.00498927586969
0.00498927584759
0.0049892758174
0.00498927578377
0.004989275749
0.0049892757178
0.00498927569254
0.00498927567794
0.00498927567638
0.00498927569254
0.00498927572875
0.00498927578958
0.00498927587726
0.0049892759962
0.00498927614846
0.00498927633819
0.00498927656719
0.00498927683923
0.00498927715569
0.00498927751978
0.00498927793224
0.00498927839542
0.00498927890911
0.00498927947444
0.00498928008985
0.00498928075495
0.00498928146657
0.00498928222261
0.00498928301833
0.00498928385012
0.00498928471206
0.00498928559951
0.00498928650608
0.00498928742656
0.00498928835442
0.0049892892842
0.00498929021017
0.00498929113
0.00498929203644
0.00498929292674
0.00498929379608
0.00498929464115
0.00498929545794
0.00498929624412
0.00498929699649
0.00498929771347
0.00498929839272
0.00498929903338
0.00498929963388
0.00498930019398
0.00498930071282
0.0049893011907
0.00498930162731
0.00498930202338
0.00498930237899
0.00498930269637
0.00498930297681
0.00498930322183
0.00498930343246
0.00498930361048
0.00498930375716
0.00498930387436
0.00498930396345
0.00498930402614
0.00498930406352
0.00498930407663
0.00498930406554
0.00498930402958
0.00498930396644
0.00498930387212
0.00498930374013
0.00498930356174
0.00498930332647
0.00498930302511
0.00498930265651
0.00498930224157
0.00498930184021
0.00498930142548
0.00498936956584
0.00498936868061
0.00498936884434
0.00498936907738
0.00498936937974
0.00498936975133
0.00498937019168
0.00498937070015
0.00498937127536
0.00498937191576
0.00498937261901
0.00498937338267
0.00498937420334
0.00498937507785
0.00498937600196
0.004989376972
0.00498937798317
0.00498937903159
0.00498938011216
0.004989381221
0.00498938235289
0.00498938350406
0.00498938466925
0.00498938584486
0.00498938702566
0.00498938820824
0.00498938938748
0.0049893905602
0.00498939172148
0.00498939286846
0.00498939399648
0.00498939510309
0.00498939618397
0.00498939723715
0.00498939825867
0.00498939924709
0.00498940019887
0.00498940111306
0.0049894019866
0.00498940281902
0.0049894036077
0.0049894043527
0.00498940505184