/*--------------------------------*- C++ -*----------------------------------*\
| =========                 |                                                 |
| \\      /  F ield         | OpenFOAM: The Open Source CFD Toolbox           |
|  \\    /   O peration     | Version:  2206                                  |
|   \\  /    A nd           | Website:  www.openfoam.com                      |
|    \\/     M anipulation  |                                                 |
\*---------------------------------------------------------------------------*/
FoamFile
{
    version     2.0;
    format      ascii;
    arch        "LSB;label=64;scalar=64";
    class       volScalarField;
    location    "2.8/water";
    object      epsilon.gas;
}
// * * * * * * * * * * * * * * * * * * * * * * * * * * * * * * * * * * * * * //

dimensions      [0 2 -3 0 0 0 0];

internalField   nonuniform List<scalar> 
23300
(
0.00451363083268
0.00464057426776
0.00487079634895
0.00519625087998
0.00561478261843
0.00612832025541
0.00674121231589
0.00745878693579
0.00828662120341
0.00922954516186
0.010291336016
0.0114739561968
0.0127776120697
0.0142002287184
0.0157378271425
0.0173841717576
0.0191313669091
0.0209695714295
0.0228877401724
0.0248733403025
0.026913205976
0.0289932222783
0.0310992641493
0.033216805638
0.0353318946331
0.0374306390024
0.0395001659798
0.0415279583197
0.0435027737501
0.0454138429382
0.0472517567969
0.049007566678
0.0506736621011
0.052242818131
0.0537090793032
0.0550667870092
0.0563114701865
0.057438870526
0.0584458279789
0.059329310565
0.0600872730929
0.0607176844413
0.0612193159512
0.0615907154
0.0618308009791
0.0619375781344
0.0619152217906
0.0617666003097
0.0614943433436
0.0611007356329
0.0605886468695
0.0599609534671
0.0592212118693
0.0583730695699
0.0574208438841
0.0563689854303
0.0552225871883
0.0539869077128
0.0526678154089
0.0512713676221
0.0498041925344
0.0482731163368
0.0466854876306
0.0450488416288
0.0433711716673
0.0416606213878
0.0399257060281
0.0381750249136
0.0364174350171
0.034661777598
0.0329170074525
0.0311919308162
0.0294952966954
0.0278355487971
0.0262208907432
0.0246590623941
0.0231573980661
0.0217226478084
0.0203610618081
0.0190783030859
0.0178796396134
0.0167700830001
0.0157549213245
0.0148404664785
0.0140355610523
0.0133539688862
0.0128184247267
0.0124650451706
0.0123262722363
0.0123655139291
0.0125324410782
0.0127933876789
0.0131266035751
0.0135171662033
0.0139540011225
0.0144281240343
0.0149316894215
0.015457355095
0.0159979744399
0.0165463553752
0.0170952175988
0.0176371329824
0.0181646094941
0.0186701124799
0.0191461978297
0.0195855565233
0.0199811534564
0.020326265862
0.0206146063257
0.0208403423027
0.0209981938049
0.0210834285088
0.0210919266524
0.0210201393862
0.0208650878379
0.0206242008435
0.0202959821941
0.0198802342937
0.0193774664396
0.0187889558612
0.0181168659235
0.0173643215576
0.0165355546888
0.015636034384
0.014672677303
0.0136540676534
0.0125907567088
0.0114955680144
0.0103839199899
0.00927403105266
0.00818688253432
0.00714566710438
0.00617447955338
0.00529609709157
0.00452911766891
0.00388525381305
0.00336794359156
0.00297323106377
0.00269343352489
0.00252429632289
0.00546502467602
0.0055703001697
0.0057755913715
0.00607748179558
0.00647492881822
0.00696896968016
0.00756197407818
0.00825677524891
0.00905587783637
0.00996071917635
0.0109711233651
0.0120848736391
0.0132975437966
0.0146024483455
0.0159908311932
0.017452093392
0.0189741888938
0.0205439690455
0.0221476488978
0.0237711660612
0.0254006472024
0.0270227260314
0.0286249565367
0.0301960306667
0.0317260736421
0.0332067015741
0.0346311530198
0.0359941682396
0.0372919677811
0.0385219969351
0.0396828159513
0.0407737900116
0.0417949696356
0.0427467983721
0.0436300365055
0.0444455234755
0.0451941606044
0.045876731487
0.0464939332695
0.0470462404434
0.0475339646155
0.0479571439069
0.0483156144723
0.0486089195311
0.0488364061542
0.0489972191577
0.0490917369874
0.0491197138234
0.0490807212407
0.0489741820304
0.0487995262239
0.0485561975266
0.0482437659828
0.0478619170029
0.0474105458822
0.0468897476184
0.0462999040104
0.0456416787905
0.0449160991023
0.044124554736
0.0432688723757
0.042351315385
0.0413746476211
0.0403421287724
0.0392575635634
0.0381252868286
0.0369501932209
0.0357377060681
0.0344937827823
0.0332248624256
0.0319378436243
0.0306400086976
0.0293389750144
0.0280425993364
0.0267589105687
0.0254960061456
0.0242619828175
0.0230648465587
0.0219124698865
0.0208125547858
0.0197726754987
0.0188003840222
0.0179034687459
0.0170903658465
0.0163707687561
0.0157562530511
0.0152603934552
0.0148967515996
0.0146715566515
0.014573195519
0.0145803840186
0.0146720860088
0.0148303824499
0.0150406012693
0.0152907131048
0.0155706408473
0.0158716911373
0.0161861150863
0.0165068134892
0.0168271418427
0.0171408146737
0.0174418616943
0.0177246366612
0.0179838389215
0.0182145557677
0.0184122951796
0.0185730229052
0.0186931804762
0.0187697006454
0.0188000012406
0.0187819742398
0.0187139537839
0.0185946789308
0.0184232364939
0.0181989986157
0.0179215463239
0.0175907114728
0.01720694171
0.0167708672926
0.0162832845576
0.0157451718875
0.0151577309249
0.0145224687854
0.0138413244225
0.0131168594267
0.0123525198611
0.0115529846234
0.0107245942838
0.00987584090051
0.00901784858297
0.0081647168374
0.00733351669656
0.00654368834497
0.00581564379296
0.00516860501398
0.00461802375765
0.00417304423892
0.00383397924775
0.00358848612336
0.0034029152659
0.00636869398867
0.00646467325574
0.00665606816961
0.00694221870346
0.00732325398875
0.00780005260973
0.0083738407687
0.00904560421441
0.0098154700915
0.0106821314647
0.0116424176907
0.0126910261448
0.0138204757196
0.0150212274295
0.0162819884023
0.0175900952988
0.0189319922294
0.0202936938881
0.0216612813341
0.023021326926
0.0243613236666
0.0256700075461
0.0269376639697
0.0281562940035
0.0293197493471
0.0304237078645
0.0314656242273
0.032444531626
0.0333608538213
0.0342161049567
0.035012649081
0.0357533890217
0.0364415551447
0.037080450174
0.037673311823
0.038223138258
0.0387326292379
0.0392040840702
0.0396394029415
0.0400400361927
0.0404070236192
0.0407409772174
0.0410421459057
0.0413104291226
0.0415454756444
0.0417467480949
0.0419125312971
0.0420412075587
0.0421311109357
0.0421804894231
0.0421875484763
0.0421504601175
0.0420674179941
0.0419366541123
0.0417564941333
0.0415253797085
0.0412419247355
0.0409049436527
0.040513508784
0.0400669834768
0.0395650791549
0.0390078906875
0.0383959503683
0.0377302615298
0.0370123453511
0.0362442675024
0.035428672544
0.0345687974871
0.0336684878888
0.0327321920818
0.0317649535619
0.030772381134
0.029760614791
0.0287362710136
0.0277063845316
0.0266783341843
0.0256597694224
0.0246585284317
0.0236825640654
0.0227398719802
0.0218384382324
0.0209862050307
0.020191070501
0.0194609099631
0.0188035899194
0.0182268600518
0.0177379001877
0.0173420898909
0.0170406607069
0.0168288835005
0.0166966683915
0.0166318077189
0.0166220367018
0.0166559797001
0.0167234676055
0.0168155257951
0.0169242278522
0.0170425181382
0.0171640594607
0.0172831211871
0.0173945112226
0.0174935395651
0.0175760053273
0.017638193689
0.0176768778032
0.0176893170505
0.017673251029
0.0176268844137
0.0175488645988
0.0174382492358
0.0172944668278
0.0171172685985
0.0169066756859
0.0166629211867
0.0163863931404
0.0160775816482
0.0157369312214
0.0153650133984
0.0149623792664
0.0145295238079
0.0140668756291
0.0135748145307
0.0130537269109
0.0125041080862
0.0119267270891
0.0113228670405
0.0106946556452
0.0100454892602
0.00938053835773
0.00870728668569
0.00803601046237
0.00738005016343
0.00675570437518
0.00618162505631
0.00567775181661
0.00526402440597
0.00495914608007
0.0047792543026
0.00473562025094
0.0048324711449
0.00720210798778
0.00729477579545
0.00748011375534
0.00775828152297
0.00812965925788
0.00859469701795
0.009153569391
0.00980570722059
0.0105493217104
0.0113809813877
0.0122953365675
0.0132850016125
0.0143406423069
0.0154512108932
0.0166043355774
0.0177867665075
0.0189848873071
0.0201851931308
0.0213747729648
0.0225417043049
0.0236754221509
0.0247669681259
0.0258091976977
0.0267968470687
0.0277265554289
0.028596746214
0.0294074840122
0.0301602157425
0.0308575288035
0.0315028344018
0.0321001130341
0.0326536218806
0.0331676949358
0.0336465240877
0.0340940421496
0.0345137880135
0.0349088668499
0.0352818839692
0.0356349602041
0.0359697115536
0.0362872975565
0.0365884286842
0.0368734337206
0.0371422860182
0.0373946835824
0.037630087009
0.0378460692762
0.0380404871639
0.038211198162
0.038356011702
0.0384727030097
0.0385590078091
0.0386126562688
0.0386313827241
0.0386129666485
0.0385552512929
0.0384561890043
0.0383138671468
0.0381265568563
0.0378927449862
0.0376111851315
0.0372809336843
0.0369014011095
0.0364723891979
0.0359941394964
0.0354673677394
0.0348933052148
0.0342737253224
0.033610972723
0.0329079763223
0.0321682607565
0.031395940435
0.0305957089786
0.0297728109643
0.0289330077881
0.0280825272895
0.0272280081008
0.0263764302712
0.0255350415379
0.0247112712393
0.0239126384785
0.0231466451844
0.0224206551688
0.0217417417465
0.0211164860099
0.0205506785998
0.0200488697307
0.0196137148243
0.0192452030764
0.0189404537194
0.0186941141147
0.0184985781697
0.0183455804561
0.0182268980286
0.0181347625489
0.0180620476477
0.0180023191112
0.0179498148344
0.0178994016371
0.0178465305711
0.0177872016194
0.0177179365692
0.0176357590565
0.0175381763097
0.0174231612011
0.0172891305764
0.0171349201895
0.0169597538553
0.0167632083876
0.0165451729379
0.0163058050656
0.0160454828451
0.0157647560158
0.0154642963684
0.0151448516328
0.014807204837
0.0144520014931
0.0140797523693
0.0136908708663
0.0132856437681
0.0128642205834
0.012426626176
0.0119728063888
0.0115027160181
0.0110164635216
0.0105145259554
0.0099980491693
0.00946924078823
0.00893185280921
0.00839172732421
0.00785735267407
0.00734035495866
0.00685586499259
0.00642279093058
0.00606423234202
0.00580858126623
0.00569216276461
0.00576426135409
0.00609438092269
0.00678185631201
0.00798694340697
0.0080783500481
0.00826115050268
0.00853543788454
0.00890125335429
0.00935833525444
0.00990577576027
0.0105416211934
0.0112625088469
0.0120633782589
0.0129373360173
0.0138756655912
0.0148680194993
0.015902727012
0.016967224455
0.0180485127427
0.0191336561606
0.0202102287179
0.021266747199
0.0222930036861
0.0232803580714
0.0242219042993
0.0251125874906
0.0259491866071
0.0267302569462
0.0274559512052
0.028127829533
0.028748580345
0.0293217712918
0.0298515491513
0.0303424069906
0.0307989287491
0.0312256217773
0.0316267382754
0.0320061872257
0.0323674326158
0.0327134729174
0.0330467978866
0.0333694135548
0.0336828359163
0.0339881411935
0.0342859797452
0.0345766379095
0.0348600613208
0.0351359178318
0.0354036177085
0.0356607724694
0.0359050455044
0.0361341267676
0.0363456844782
0.0365373680353
0.0367067952957
0.0368515749178
0.0369693094636
0.0370576266532
0.0371141922533
0.0371367468384
0.0371231261567
0.0370713019902
0.036979408598
0.0368457865727
0.0366690138254
0.0364479509389
0.0361817745665
0.0358700220587
0.0355126243412
0.0351099467214
0.0346628174381
0.0341725606733
0.033641016196
0.0330705599513
0.0324641098615
0.0318251293306
0.0311576147124
0.0304660779202
0.02975551225
0.0290313513728
0.0282994107108
0.0275658192849
0.0268369311573
0.0261192216923
0.0254191567272
0.0247430369033
0.0240968047838
0.0234858159561
0.0229145654009
0.0223863798132
0.0219030961951
0.0214647988614
0.021069733991
0.0207152163921
0.0203971027874
0.0201101796001
0.0198489992884
0.0196081897259
0.0193826522113
0.0191676753766
0.0189589902173
0.0187527920868
0.0185457428917
0.0183349645799
0.0181180261106
0.0178929276004
0.017658080129
0.0174122830434
0.0171546968885
0.0168848137559
0.0166024235604
0.01630757827
0.0160005530105
0.0156818063078
0.0153519387623
0.0150116526771
0.0146617124268
0.0143029087319
0.0139360276289
0.0135616924123
0.0131802775786
0.0127920407536
0.0123971050668
0.0119954558997
0.0115869569349
0.0111713946386
0.0107485599654
0.0103183803839
0.00988111504667
0.00943762809102
0.00898975071382
0.00854073776722
0.00809581349832
0.00766279525713
0.00725279431593
0.00688105644653
0.00656817336479
0.0063422610817
0.00624340817542
0.00633301992085
0.00671301285441
0.00756286450445
0.009204424291
0.00873005604417
0.00882146117208
0.00900402289282
0.00927742567088
0.009641082441
0.0100938560698
0.0106337366648
0.0112575071868
0.0119604818063
0.0127363343571
0.0135770814547
0.0144731926624
0.015413855273
0.0163873202965
0.0173813393513
0.0183836011737
0.0193821890169
0.0203659711347
0.0213249673312
0.0222506091426
0.0231359553098
0.0239757828819
0.0247666318803
0.0255067273303
0.0261958720577
0.0268352379854
0.0274271609228
0.0279748671579
0.0284822407039
0.028953554648
0.0293932715949
0.0298058285942
0.0301955038188
0.0305662734512
0.0309217486499
0.0312650981524
0.0315990412021
0.0319258177703
0.0322472174212
0.0325645782277
0.0328788343623
0.0331905296018
0.0334998719581
0.0338067522309
0.0341107961978
0.0344113773449
0.0347065257249
0.0349938269712
0.0352709163217
0.0355354290319
0.0357849972212
0.0360172331583
0.0362297449027
0.0364201349383
0.0365860248647
0.0367250635509
0.0368349574009
0.0369134855612
0.0369585341484
0.0369681170076
0.0369404127716
0.0368737897909
0.0367668447943
0.0366184303244
0.0364276933537
0.0361941030513
0.0359174871175
0.035598057078
0.0352364394097
0.0348336948836
0.0343913408575
0.0339113605748
0.0333962124458
0.0328488248179
0.032272587769
0.0316713286737
0.0310492817404
0.0304110391408
0.0297614923894
0.0291057519945
0.0284490524039
0.0277966309586
0.0271535876807
0.0265247181275
0.0259143306431
0.025326049987
0.024762630116
0.0242257934495
0.0237161329018
0.0232330996198
0.0227751060492
0.022340979285
0.0219281442447
0.0215334817624
0.0211537715902
0.0207858465945
0.0204267044945
0.0200735832497
0.0197240097999
0.0193758263204
0.0190272022069
0.0186766336028
0.0183229358696
0.0179652287828
0.0176029178803
0.0172356709318
0.0168633921835
0.016486193242
0.0161043629651
0.0157183353452
0.0153286576403
0.0149359579095
0.0145409141695
0.0141442246234
0.0137465815618
0.013348649228
0.0129509248561
0.0125536172598
0.0121568247615
0.0117605285382
0.011364597945
0.010968812396
0.0105729081329
0.0101766578564
0.00977999498965
0.00938319449475
0.00898712500187
0.00859358554459
0.0082057407313
0.00782866804994
0.00747004368652
0.00714103447627
0.0068575792173
0.00664251366372
0.00652960309164
0.00657192028894
0.00686024793177
0.00756505540738
0.00903352249631
0.0120035698909
0.00943971687483
0.00953206181892
0.00971617959828
0.0099912082759
0.0103558084178
0.0108078994043
0.0113443811943
0.0119608733615
0.0126515508819
0.0134090777674
0.0142246887083
0.0150883746802
0.0159891942073
0.0169156319047
0.0178560186879
0.0187989275434
0.0197335738185
0.0206501386361
0.0215400631964
0.0223962366534
0.0232131414286
0.023986881819
0.0247151747207
0.0253972323047
0.0260336285925
0.0266260824637
0.0271772568703
0.027690505267
0.028169665637
0.0286188273494
0.0290421663021
0.0294437665305
0.0298275169419
0.0301969963848
0.0305554299052
0.0309056281064
0.031249988461
0.0315904725578
0.0319286353262
0.0322656244753
0.0326022236305
0.0329388626562
0.0332756654257
0.0336124635938
0.0339488418605
0.0342841475165
0.0346170325922
0.0349450419761
0.0352657914807
0.0355769136573
0.035876051467
0.0361608398838
0.0364289178958
0.0366779241417
0.0369055171199
0.0371093795465
0.0372872437328
0.0374369023809
0.0375562374969
0.0376432360591
0.0376960212767
0.0377128717818
0.0376922541154
0.0376328440223
0.037533558861
0.0373935793128
0.0372123800606
0.0369897498244
0.0367258181792
0.0364210713325
0.0360763723805
0.0356929696628
0.0352725071142
0.034817021412
0.0343289384175
0.0338110547003
0.0332665154019
0.0326987750942
0.0321115518014
0.0315087618011
0.0308944447668
0.0302726686654
0.0296474249201
0.0290225073511
0.0284013892963
0.02778709932
0.0271821149361
0.026588279064
0.0260067560488
0.0254380260403
0.024881918014
0.0243376872621
0.0238059923048
0.0232857635608
0.0227756561657
0.0222742528692
0.0217801485048
0.0212920146657
0.0208086509121
0.0203290191008
0.0198522645483
0.0193777242097
0.0189049275023
0.0184335893823
0.0179635995705
0.0174950068386
0.0170280013573
0.0165628939129
0.0161000945346
0.0156400894207
0.01518341842
0.0147306520681
0.0142823702372
0.0138391416599
0.0134015067077
0.0129699635741
0.012544848069
0.0121261959156
0.0117139489107
0.011307957462
0.0109079936103
0.0105137787121
0.0101250333282
0.00974155648074
0.00936334485166
0.00899076299765
0.00862477915545
0.00826728222701
0.00792150074618
0.00759255376581
0.00728819204895
0.00701985680939
0.00680435006781
0.00666679422618
0.00664645879756
0.00680925291199
0.00727659081216
0.00829712578926
0.0104357803943
0.0150692668286
0.010123955496
0.010218039715
0.010405281021
0.0106842200182
0.0110527222066
0.011507752455
0.0120451555206
0.012659474749
0.0133438832467
0.0140902116831
0.014889112163
0.0157303008605
0.0166028962654
0.0174957732734
0.0183979526625
0.0192989453423
0.0201890883767
0.0210597976107
0.0219037902505
0.0227152049876
0.02348968642
0.0242243638129
0.0249178037679
0.0255698699781
0.0261815801539
0.0267548943688
0.0272925298913
0.027797733759
0.0282741070072
0.0287254058792
0.0291554090341
0.0295677702041
0.0299659397645
0.0303530712731
0.0307319920307
0.0311051535127
0.031474637617
0.0318421369629
0.0322089827269
0.0325761422461
0.0329442573547
0.0333136504012
0.0336843656312
0.0340561771639
0.0344286257751
0.0348010169176
0.0351726896682
0.0355412358742
0.0359042652332
0.0362594025485
0.0366042929911
0.0369365858758
0.0372539447393
0.0375540403784
0.0378345675475
0.0380932459239
0.0383278415844
0.0385361739119
0.0387161402099
0.0388657269019
0.0389830359997
0.0390662992143
0.03911390519
0.0391244152303
0.0390965902026
0.0390294065021
0.0389220813688
0.0387740875077
0.0385851752836
0.0383553841139
0.0380850596221
0.0377748595149
0.0374257632874
0.0370390697984
0.0366163965603
0.0361596657117
0.0356710894512
0.0351531408378
0.0346085219703
0.0340401166998
0.0334509397061
0.0328440711139
0.0322225893059
0.0315894942579
0.0309476357892
0.0302996423852
0.0296478653015
0.0289943333789
0.0283407283054
0.0276883703465
0.0270382197367
0.0263908768904
0.0257466142113
0.0251077439775
0.0244746287171
0.0238473956061
0.0232260825654
0.0226106764405
0.0220011533811
0.0213975131347
0.0207998037308
0.020208134123
0.0196226813703
0.0190436910136
0.0184714745773
0.0179064025964
0.0173488962102
0.0167994157857
0.0162584491475
0.0157264980628
0.015204065224
0.0146916405464
0.0141896887761
0.0136986375533
0.0132188682787
0.0127507099839
0.012294342168
0.0118496320462
0.011416371547
0.010994287321
0.0105830602187
0.0101823580128
0.00979188822822
0.00941147753431
0.00904118729495
0.00868147568774
0.00833342092155
0.00799902320843
0.00768161226313
0.00738640388755
0.00712129082498
0.00689804608166
0.00673433174959
0.0066574027051
0.0067116015721
0.0069748986273
0.00759879513851
0.00891436938405
0.0117406517215
0.0183036851074
0.0107897813096
0.0108863441098
0.0110781821546
0.0113632285022
0.0117385519141
0.012200180132
0.012742947213
0.013360393916
0.0140447894666
0.0147872454253
0.0155779495981
0.0164064518788
0.0172620175755
0.0181339668449
0.01901202597
0.0198866153447
0.0207491190818
0.0215920672776
0.0224092902698
0.0231959770682
0.0239487079684
0.0246653942417
0.0253452050964
0.0259884161887
0.0265962678327
0.0271707666104
0.0277145215436
0.02823054467
0.0287221053651
0.0291925626774
0.0296452607787
0.0300834071083
0.0305100140429
0.0309278215019
0.0313392780448
0.0317464983795
0.0321512723803
0.0325550460439
0.0329589472406
0.0333637804387
0.0337700607714
0.0341780160617
0.0345876241494
0.034998618824
0.0354105282478
0.0358226855282
0.0362343577753
0.0366441101274
0.0370494082999
0.0374478068407
0.0378369170521
0.0382143757282
0.0385778479083
0.0389250153567
0.0392535896033
0.0395613094325
0.0398459589655
0.0401053709537
0.0403374477956
0.0405401687648
0.0407116125513
0.0408499669848
0.0409535520121
0.0410208306939
0.0410504316643
0.0410411602439
0.0409920194174
0.0409022198572
0.0407711983404
0.0405986253514
0.0403844196637
0.0401287519928
0.039832054205
0.0394950172403
0.039118593123
0.0387039851609
0.038252640794
0.0377662321843
0.0372466383818
0.0366959154294
0.0361162680391
0.0355100109341
0.0348795336641
0.0342272589449
0.0335556082173
0.0328669655551
0.0321636517323
0.0314478984117
0.0307218303086
0.0299874438202
0.0292465875657
0.0285009376337
0.0277519668733
0.0270009359435
0.0262512770767
0.0255048486185
0.0247629610907
0.0240267831969
0.0232973479203
0.0225755979993
0.0218624083465
0.0211585991317
0.0204649470353
0.0197821909681
0.0191110363933
0.0184521559427
0.0178061893816
0.0171737408988
0.0165553762739
0.0159516182252
0.0153629421478
0.0147897708366
0.0142324701645
0.0136913447402
0.0131666359183
0.0126585225421
0.0121670588427
0.0116919556132
0.0112328648261
0.0107893954654
0.0103611384695
0.00994770378413
0.00954877573262
0.00916419262783
0.0087940595015
0.00843890391962
0.00809988954755
0.00777910705253
0.00747997430184
0.0072078008995
0.00697062476393
0.0067805424596
0.00665601387784
0.00662622649986
0.00674011620444
0.00708676342873
0.00784636686764
0.00943305854484
0.0129428453132
0.0216231361878
0.0114431316634
0.0115429006878
0.0117407975972
0.0120341570951
0.0124192670927
0.0128912464421
0.0134439601188
0.0140700001206
0.0147607943144
0.0155067984415
0.0162977915444
0.0171231974666
0.0179724458223
0.0188352918367
0.0197021264509
0.0205642067354
0.0214138597777
0.0222445968025
0.0230512034745
0.0238297425312
0.0245775423933
0.025293106202
0.0259760221039
0.0266268083728
0.0272467797617
0.027837866587
0.0284024747196
0.0289433137524
0.0294632797839
0.0299653151688
0.0304523284339
0.0309270931265
0.0313922057397
0.0318500202425
0.0323026369919
0.0327518645188
0.0331992299563
0.0336459591217
0.0340929998803
0.0345410133119
0.034990403763
0.0354413164817
0.0358936708658
0.0363471624974
0.0368012981782
0.037255401049
0.0377086425518
0.0381606622885
0.0386088085945
0.039050557262
0.0394834649728
0.039905130393
0.0403131928703
0.0407053175102
0.0410792052663
0.0414325870661
0.04176323885
0.0420689813835
0.0423476981538
0.0425973390001
0.0428159394367
0.0430016266389
0.0431526391149
0.0432673338834
0.0433442056563
0.0433818942229
0.0433792024109
0.0433351027673
0.0432487535754
0.0431195039315
0.0429469070512
0.0427307228164
0.0424709275375
0.0421677130169
0.0418214918912
0.041432892307
0.0410027580837
0.0405321384167
0.0400222826457
0.0394746253037
0.0388907765282
0.0382725043626
0.0376217235124
0.0369404781379
0.0362309319877
0.0354953535098
0.0347361066897
0.0339556344444
0.0331564428451
0.0323410739144
0.0315120759097
0.0306719616873
0.0298231672222
0.0289679952696
0.0281085853019
0.0272486509928
0.0263918301513
0.0255403429846
0.0246961299083
0.0238609764558
0.0230365122194
0.0222242129387
0.0214254160219
0.0206413301585
0.0198730446877
0.0191215359053
0.018387673502
0.0176722246881
0.0169758586348
0.0162991491596
0.0156425778338
0.0150065358458
0.014391326565
0.013797167618
0.0132241946811
0.0126724672343
0.0121419610888
0.0116322513707
0.0111428639687
0.0106732970657
0.0102230517215
0.00979167305959
0.00937880789882
0.00898428458729
0.00860822350228
0.00825118796233
0.0079143905132
0.00759997600855
0.0073114179977
0.00705409323569
0.00683616105505
0.00667000661359
0.00657480582712
0.00658147595013
0.00674308066993
0.00715883504391
0.00803585763336
0.00986966451486
0.0140448676363
0.0249532081185
0.0120891832189
0.0121929072185
0.0123983710824
0.0127023271024
0.0131003029717
0.0135865338063
0.0141539450229
0.0147942109709
0.0154979455573
0.0162549685948
0.0170546579114
0.0178863015902
0.0187394642107
0.0196042853439
0.0204717480858
0.0213338525766
0.0221837558802
0.0230158206728
0.023825645638
0.0246100172526
0.0253668605157
0.026095123516
0.0267946774092
0.0274661632341
0.0281108705952
0.0287305762139
0.0293274285146
0.0299038020064
0.0304622064809
0.0310051707004
0.0315351835223
0.0320546095596
0.0325656603757
0.033070337788
0.0335704286276
0.0340674687794
0.0345627541326
0.035057318745
0.035551955701
0.0360472042583
0.036543376048
0.0370405478137
0.0375385901077
0.0380371634056
0.0385357460619
0.0390336267059
0.0395299124371
0.0400251647358
0.0405168076522
0.0410022628163
0.0414790125335
0.0419445867819
0.0423965672028
0.042832570506
0.0432502558806
0.0436473155219
0.0440214866553
0.0443705478186
0.0446923339219
0.0449847365401
0.045245720595
0.0454733271804
0.0456656907964
0.0458210435849
0.0459377323718
0.0460142234681
0.0460491189723
0.0460411614562
0.0459892490767
0.0458924395634
0.0457499637398
0.0455612283139
0.0453258274624
0.0450435440318
0.0447143589401
0.044338450581
0.0439162020135
0.0434481987092
0.0429352339283
0.0423783055186
0.0417786204794
0.0411375920497
0.0404568446213
0.0397382117799
0.0389837409538
0.0381956897847
0.0373765251709
0.0365289099791
0.035655686879
0.0347598465869
0.0338444913864
0.0329127858176
0.0319679057857
0.0310129820215
0.0300510437168
0.0290849805994
0.0281177702818
0.0271555035802
0.0262006087071
0.0252556667897
0.0243230215221
0.0234047513564
0.022502722163
0.0216185951738
0.0207538412054
0.0199097511074
0.0190874467183
0.0182878896101
0.0175118906766
0.0167601181602
0.016033106343
0.0153312629654
0.0146548773316
0.0140041276618
0.0133790895494
0.0127797446904
0.0122060172427
0.0116574079764
0.0111333309517
0.0106331802866
0.0101563671514
0.00970236479316
0.00927076806264
0.00886137341524
0.00847428765474
0.00811007508919
0.00776995846374
0.00745609681396
0.00717198075479
0.006923018357
0.0067174545005
0.00656791472964
0.00649419932339
0.00652875316863
0.00672831845595
0.00720127557976
0.00817968668643
0.0102372751188
0.0150499322164
0.0282263655751
0.012732778895
0.0128412499404
0.0130558744874
0.013372837151
0.0137869206324
0.0142914916403
0.0148785472373
0.0155388480016
0.016262188766
0.0170377357378
0.017854433533
0.0187013882408
0.0195682383651
0.0204454327356
0.0213244586161
0.0221979594897
0.023059812752
0.023905115029
0.0247301557603
0.0255323216668
0.0263100140368
0.0270625131166
0.027789872186
0.0284927693418
0.029172401114
0.0298303413497
0.0304684504441
0.0310887543685
0.0316933783695
0.0322844516413
0.0328640670227
0.0334342103671
0.0339967426973
0.0345533498291
0.0351055414849
0.0356546160169
0.0362016712189
0.036747579764
0.0372930075284
0.0378383964782
0.0383839874998
0.0389298086895
0.0394757011848
0.0400213126721
0.0405661272756
0.0411094678857
0.0416505398378
0.0421890821849
0.0427245486456
0.0432540247697
0.0437748027681
0.0442842842318
0.0447799520926
0.0452593398001
0.0457200321091
0.0461596505924
0.0465758622923
0.0469663722923
0.0473289361093
0.0476613568308
0.0479614996258
0.0482272918971
0.0484567388295
0.0486479254597
0.0487990325874
0.0489083400221
0.0489742424508
0.0489952533458
0.0489700205263
0.0488973303539
0.048776122814
0.0486054957478
0.048384719372
0.048113240443
0.0477906962608
0.0474169188563
0.0469919487111
0.0465160392969
0.0459896709485
0.045413556266
0.044788654586
0.0441161784772
0.0433976084236
0.0426346990219
0.0418294908469
0.0409843112887
0.0401017762638
0.0391847766404
0.0382364603208
0.0372601965985
0.0362595351968
0.0352381510324
0.0341997885081
0.0331481979493
0.0320870773949
0.0310200120586
0.0299504251829
0.0288814580209
0.0278187902652
0.0267665076728
0.0257276712622
0.0247048534052
0.0237004270025
0.0227164930807
0.0217549068605
0.0208172881019
0.0199050363505
0.0190193425801
0.0181612020688
0.0173314257451
0.0165306525504
0.0157593606283
0.0150178794163
0.0143064011277
0.0136249938041
0.0129736160254
0.01235213795
0.0117600971678
0.0111968040443
0.0106615554786
0.0101536743818
0.00967255697668
0.00921773369167
0.0087889493289
0.00838627050782
0.00801023004067
0.00766202406451
0.00734378666183
0.00705898597626
0.00681302206713
0.00661418307
0.00647527812928
0.0064166322873
0.00647201395719
0.0067014041702
0.00722139011445
0.00828689189089
0.0105456334686
0.0159603185781
0.0313819002455
0.0133788629114
0.0134929322573
0.0137184249136
0.0140509662243
0.014484599342
0.0150118207867
0.015623688026
0.0163100243052
0.0170597666991
0.0178613755842
0.0187032981253
0.0195743832979
0.0204642606711
0.0213635996304
0.022264298647
0.0231595483654
0.0240438479223
0.0249129277483
0.0257636678638
0.0265939569847
0.0274025791936
0.0281890609674
0.0289535624403
0.0296967363786
0.0304196385843
0.0311236075871
0.0318101984842
0.0324810852834
0.033138017605
0.0337827439713
0.0344169880276
0.0350423891358
0.0356604936611
0.036272708896
0.0368803052878
0.0374843804746
0.0380858693203
0.0386855158202
0.0392838886934
0.03988135957
0.0404781224573
0.0410741771873
0.0416693520159
0.0422632928095
0.0428554903279
0.0434452783029
0.0440318691147
0.0446143566535
0.0451940704655
0.0457678854028
0.0463329270394
0.0468864569487
0.04742583426
0.0479484793176
0.0484518714427
0.0489335305701
0.0493910229737
0.0498219501819
0.050223958871
0.0505947349697
0.0509320163538
0.0512335906926
0.0514973099043
0.0517210906672
0.0519029300086
0.0520409078084
0.0521332032083
0.0521780986964
0.0521739971847
0.0521194274102
0.0520130616057
0.0518537220571
0.0516403993529
0.0513722600421
0.0510486655185
0.0506691808366
0.0502335943521
0.0497419278192
0.0491944568647
0.0485917223317
0.047934551241
0.0472240685616
0.0464617169813
0.0456492662939
0.0447888275948
0.0438828542255
0.04293414272
0.0419458167789
0.0409213068041
0.0398643109477
0.0387787512567
0.0376687150642
0.0365383962553
0.0353920295869
0.0342338317664
0.0330679442255
0.0318983906891
0.0307290318271
0.0295635786238
0.0284049964298
0.0272609912723
0.0261339319573
0.0250268516438
0.0239422785713
0.0228824720464
0.0218493983073
0.0208447619428
0.0198700177222
0.0189263870111
0.0180148709292
0.0171362648775
0.0162911717266
0.0154800161911
0.0147030587579
0.0139604114812
0.013252055783
0.0125778663547
0.0119374902749
0.011330153796
0.0107550685461
0.0102114741815
0.00969868782661
0.00921616620665
0.00876358607587
0.00834095078603
0.00794873270734
0.00758806779578
0.00726102846289
0.00697102175744
0.00672339909017
0.00652644560514
0.00639309108441
0.00634407939197
0.00641429620978
0.00666652968023