/*--------------------------------*- C++ -*----------------------------------*\
| =========                 |                                                 |
| \\      /  F ield         | OpenFOAM: The Open Source CFD Toolbox           |
|  \\    /   O peration     | Version:  2206                                  |
|   \\  /    A nd           | Website:  www.openfoam.com                      |
|    \\/     M anipulation  |                                                 |
\*---------------------------------------------------------------------------*/
FoamFile
{
    version     2.0;
    format      ascii;
    arch        "LSB;label=64;scalar=64";
    class       volScalarField;
    location    "2.8/water";
    object      reactingEulerHtcModel(T.liquid);
}
// * * * * * * * * * * * * * * * * * * * * * * * * * * * * * * * * * * * * * //

dimensions      [1 0 -3 -1 0 0 0];

internalField   uniform 0;

boundaryField
{
    maxY
    {
        type            calculated;
        value           uniform 0;
    }
    symmetric
    {
        type            symmetry;
    }
    maxX
    {
        type            calculated;
        value           uniform 0;
    }
    minY
    {
        type            calculated;
        value           uniform 0;
    }
    emptyPatch
    {
        type            empty;
    }
    water_to_solid
    {
        type            calculated;
        value           nonuniform List<scalar> 
70
(
-105.075335173
-105.313411843
-105.641350501
-105.864199085
-106.11198392
-107.30311521
-110.690243051
-120.142197602
-166.827172087
-222.230566113
-243.757041449
-242.274821742
-240.896526568
-239.843800485
-240.155243299
-243.504917822
-244.704976996
-207.906846497
-200.216886086
-204.80598323
-195.87026354
-204.497549698
-195.368747509
-203.848111048
-194.69497915
-202.758086982
-194.559948375
-202.787526311
-195.851295514
-203.068128516
-198.110341757
-203.782070212
-201.811477705
-204.636399833
-213.732930543
-238.875913921
-248.007335848
-245.745711605
-242.419098668
-242.191921111
-245.357700943
-238.052923159
-116.818861271
-106.604238676
-112.585732509
-103.262133467
-111.023246242
-102.680824395
-110.393935
-103.389722862
-110.071407353
-104.65221097
-109.828492272
-106.102865551
-109.59688491
-107.343331713
-109.365911485
-108.811483703
-110.573285106
-231.230511502
-232.200612395
-232.70750638
-233.180153799
-233.59618018
-233.974589181
-234.428395771
-235.100304102
-235.240197515
-162.21232767
-228.062428699
)
;
    }
}


// ************************************************************************* //
