/*--------------------------------*- C++ -*----------------------------------*\
| =========                 |                                                 |
| \\      /  F ield         | OpenFOAM: The Open Source CFD Toolbox           |
|  \\    /   O peration     | Version:  2206                                  |
|   \\  /    A nd           | Website:  www.openfoam.com                      |
|    \\/     M anipulation  |                                                 |
\*---------------------------------------------------------------------------*/
FoamFile
{
    version     2.0;
    format      ascii;
    arch        "LSB;label=64;scalar=64";
    class       volVectorField;
    location    "547200";
    object      U;
}
// * * * * * * * * * * * * * * * * * * * * * * * * * * * * * * * * * * * * * //

dimensions      [0 1 -1 0 0 0 0];

internalField   nonuniform List<vector> 
16
(
(1.1415e-07 -8.73969e-08 0)
(1.97595e-07 -1.88439e-08 0)
(1.70993e-07 1.45314e-08 0)
(9.69624e-08 9.15659e-08 0)
(2.13845e-08 -2.24066e-07 0)
(8.50292e-08 -3.66028e-08 0)
(3.81139e-08 8.42832e-08 0)
(-1.28448e-08 1.76219e-07 0)
(-6.76253e-08 -1.91953e-07 0)
(-1.03058e-07 -3.79942e-08 0)
(-8.53798e-08 1.13222e-07 0)
(-5.51897e-08 1.18665e-07 0)
(-7.22562e-08 -5.56318e-08 0)
(-1.76754e-07 -2.11606e-08 0)
(-1.25168e-07 3.90987e-08 0)
(-2.96593e-08 3.47654e-08 0)
)
;

boundaryField
{
    movingWall
    {
        type            noSlip;
    }
    fixedWalls
    {
        type            noSlip;
    }
    frontAndBack
    {
        type            empty;
    }
}


// ************************************************************************* //
