/*--------------------------------*- C++ -*----------------------------------*\
| =========                 |                                                 |
| \\      /  F ield         | OpenFOAM: The Open Source CFD Toolbox           |
|  \\    /   O peration     | Version:  2206                                  |
|   \\  /    A nd           | Website:  www.openfoam.com                      |
|    \\/     M anipulation  |                                                 |
\*---------------------------------------------------------------------------*/
FoamFile
{
    version     2.0;
    format      ascii;
    arch        "LSB;label=64;scalar=64";
    class       volVectorField;
    location    "698400";
    object      U;
}
// * * * * * * * * * * * * * * * * * * * * * * * * * * * * * * * * * * * * * //

dimensions      [0 1 -1 0 0 0 0];

internalField   nonuniform List<vector> 
16
(
(-8.96825e-09 -3.00246e-08 0)
(1.6428e-07 -4.91783e-08 0)
(1.48769e-07 4.18313e-08 0)
(-1.72491e-08 3.84818e-08 0)
(1.55297e-08 -1.24018e-07 0)
(8.90438e-08 -1.15158e-07 0)
(2.96403e-08 1.48237e-07 0)
(-3.37339e-08 8.96908e-08 0)
(4.59631e-09 -1.30149e-07 0)
(-9.18147e-08 -6.72167e-08 0)
(-9.76895e-08 1.64393e-07 0)
(-4.39575e-09 3.54836e-08 0)
(-1.26377e-08 -3.95852e-08 0)
(-1.60532e-07 -9.36792e-09 0)
(-8.21021e-08 5.74434e-08 0)
(5.7662e-08 -1.16598e-08 0)
)
;

boundaryField
{
    movingWall
    {
        type            noSlip;
    }
    fixedWalls
    {
        type            noSlip;
    }
    frontAndBack
    {
        type            empty;
    }
}


// ************************************************************************* //
