/*--------------------------------*- C++ -*----------------------------------*\
| =========                 |                                                 |
| \\      /  F ield         | OpenFOAM: The Open Source CFD Toolbox           |
|  \\    /   O peration     | Version:  2206                                  |
|   \\  /    A nd           | Website:  www.openfoam.com                      |
|    \\/     M anipulation  |                                                 |
\*---------------------------------------------------------------------------*/
FoamFile
{
    version     2.0;
    format      ascii;
    arch        "LSB;label=64;scalar=64";
    class       volScalarField;
    location    "20";
    object      Gch4_0;
}
// * * * * * * * * * * * * * * * * * * * * * * * * * * * * * * * * * * * * * //

dimensions      [0 0 0 0 0 0 0];

internalField   nonuniform List<scalar> 
1024
(
1.31295e-08
1.36221e-08
1.513e-08
1.7832e-08
2.19731e-08
2.78571e-08
3.58275e-08
4.6227e-08
5.93326e-08
7.52576e-08
9.38299e-08
1.14467e-07
1.36095e-07
1.57141e-07
1.75564e-07
1.8858e-07
1.91638e-07
1.83893e-07
1.69035e-07
1.49802e-07
1.28502e-07
1.07129e-07
8.72044e-08
6.96793e-08
5.49847e-08
4.31617e-08
3.4012e-08
2.72274e-08
2.24792e-08
1.94602e-08
1.78957e-08
1.75553e-08
1.47406e-08
1.52822e-08
1.69467e-08
1.99293e-08
2.44967e-08
3.09783e-08
3.97454e-08
5.11676e-08
6.5541e-08
8.2983e-08
1.03299e-07
1.25849e-07
1.49459e-07
1.72416e-07
1.92501e-07
2.06698e-07
2.10068e-07
2.01682e-07
1.85529e-07
1.64579e-07
1.41339e-07
1.17985e-07
9.61812e-08
7.69755e-08
6.08493e-08
4.78572e-08
3.77903e-08
3.0318e-08
2.50844e-08
2.17532e-08
2.00225e-08
1.96384e-08
1.92669e-08
1.99481e-08
2.20533e-08
2.58242e-08
3.15875e-08
3.97452e-08
5.0747e-08
6.50377e-08
8.29681e-08
1.04667e-07
1.29878e-07
1.578e-07
1.86977e-07
2.15305e-07
2.40068e-07
2.57589e-07
2.61838e-07
2.51647e-07
2.31853e-07
2.06077e-07
1.77389e-07
1.48472e-07
1.21393e-07
9.74718e-08
7.7329e-08
6.10564e-08
4.84158e-08
3.90131e-08
3.24157e-08
2.82072e-08
2.60111e-08
2.55112e-08
2.84997e-08
2.94606e-08
3.2449e-08
3.77977e-08
4.59524e-08
5.74566e-08
7.2914e-08
9.2915e-08
1.17916e-07
1.48065e-07
1.82981e-07
2.21539e-07
2.61729e-07
3.00672e-07
3.34673e-07
3.58766e-07
3.64773e-07
3.51054e-07
3.24104e-07
2.88815e-07
2.49366e-07
2.09438e-07
1.71899e-07
1.3861e-07
1.10475e-07
8.76645e-08
6.98873e-08
5.66272e-08
4.73006e-08
4.13333e-08
3.82033e-08
3.74728e-08
4.60525e-08
4.75279e-08
5.2148e-08
6.04099e-08
7.29728e-08
9.06341e-08
1.14272e-07
1.44734e-07
1.82661e-07
2.28225e-07
2.8081e-07
3.38694e-07
3.98861e-07
4.57029e-07
5.07751e-07
5.4375e-07
5.53006e-07
5.3301e-07
4.93209e-07
4.40764e-07
3.81837e-07
3.21914e-07
2.65327e-07
2.14931e-07
1.72162e-07
1.37352e-07
1.10127e-07
8.97594e-08
7.5393e-08
6.6171e-08
6.13085e-08
6.01479e-08
7.94556e-08
8.18694e-08
8.94819e-08
1.03084e-07
1.23712e-07
1.52612e-07
1.91142e-07
2.406e-07
3.01935e-07
3.75342e-07
4.59759e-07
5.52378e-07
6.48365e-07
7.40938e-07
8.2155e-07
8.78866e-07
8.94084e-07
8.63123e-07
8.00594e-07
7.17631e-07
6.23891e-07
5.28081e-07
4.3717e-07
3.55834e-07
2.86507e-07
2.29852e-07
1.85382e-07
1.52006e-07
1.28394e-07
1.13185e-07
1.05126e-07
1.03166e-07
1.45139e-07
1.49308e-07
1.62555e-07
1.86202e-07
2.21972e-07
2.71914e-07
3.38244e-07
4.23051e-07
5.27813e-07
6.52716e-07
7.95824e-07
9.5229e-07
1.11393e-06
1.26941e-06
1.4046e-06
1.50092e-06
1.52737e-06
1.47697e-06
1.37351e-06
1.23518e-06
1.07792e-06
9.16272e-07
7.62083e-07
6.23449e-07
5.0473e-07
4.07294e-07
3.30518e-07
2.72699e-07
2.31661e-07
2.05136e-07
1.91017e-07
1.87531e-07
2.8096e-07
2.88562e-07
3.12895e-07
3.56293e-07
4.21763e-07
5.12858e-07
6.3338e-07
7.86855e-07
9.75675e-07
1.19989e-06
1.45578e-06
1.73448e-06
2.02137e-06
2.29651e-06
2.53536e-06
2.70591e-06
2.75447e-06
2.66847e-06
2.4886e-06
2.24602e-06
1.96827e-06
1.68094e-06
1.40524e-06
1.15596e-06
9.41395e-07
7.64453e-07
6.24441e-07
5.18601e-07
4.43213e-07
3.9431e-07
3.68173e-07
3.61643e-07
5.79682e-07
5.94372e-07
6.41764e-07
7.26199e-07
8.53226e-07
1.02933e-06
1.2614e-06
1.55567e-06
1.91614e-06
2.34232e-06
2.82654e-06
3.35165e-06
3.88998e-06
4.40448e-06
4.85026e-06
5.16937e-06
5.26384e-06
5.1099e-06
4.78067e-06
4.33212e-06
3.8143e-06
3.27464e-06
2.75324e-06
2.27882e-06
1.86803e-06
1.52746e-06
1.25668e-06
1.05111e-06
9.04115e-07
8.08406e-07
7.57052e-07
7.44119e-07
1.28443e-06
1.3147e-06
1.41316e-06
1.58839e-06
1.85123e-06
2.21424e-06
2.69056e-06
3.29178e-06
4.02474e-06
4.88702e-06
5.86183e-06
6.91366e-06
7.98682e-06
9.00829e-06
9.8913e-06
1.05252e-05
1.0721e-05
1.04312e-05
9.79434e-06
8.91622e-06
7.89266e-06
6.81661e-06
5.76859e-06
4.8079e-06
3.97038e-06
3.27173e-06
2.71318e-06
2.28708e-06
1.98105e-06
1.78099e-06
1.67326e-06
1.64598e-06
3.08057e-06
3.14749e-06
3.36705e-06
3.75733e-06
4.34089e-06
5.14355e-06
6.19182e-06
7.50829e-06
9.10459e-06
1.0972e-05
1.30709e-05
1.53224e-05
1.76067e-05
1.97707e-05
2.16361e-05
2.29792e-05
2.3414e-05
2.2839e-05
2.15323e-05
1.97047e-05
1.755e-05
1.52615e-05
1.30115e-05
1.0931e-05
9.10277e-06
7.5667e-06
6.33083e-06
5.38269e-06
4.69834e-06
4.24906e-06
4.00621e-06
3.94452e-06
8.05608e-06
8.21552e-06
8.74372e-06
9.68139e-06
1.10786e-05
1.29919e-05
1.54778e-05
1.8582e-05
2.23231e-05
2.66714e-05
3.15261e-05
3.66985e-05
4.19122e-05
4.68232e-05
5.10427e-05
5.40909e-05
5.51285e-05
5.39262e-05
5.10754e-05
4.70201e-05
4.2174e-05
3.69644e-05
3.17852e-05
2.69471e-05
2.26559e-05
1.90201e-05
1.60731e-05
1.37974e-05
1.21455e-05
1.10559e-05
1.04647e-05
1.03143e-05
2.3111e-05
2.35216e-05
2.48968e-05
2.73348e-05
3.09542e-05
3.58861e-05
4.22572e-05
5.01624e-05
5.96238e-05
7.054e-05
8.26335e-05
9.54179e-05
0.000108207
0.000120174
0.000130415
0.000137838
0.000140505
0.000137865
0.000131253
0.000121653
0.000109997
9.72872e-05
8.44845e-05
7.23801e-05
6.15256e-05
5.22379e-05
4.46437e-05
3.87347e-05
3.44177e-05
3.15547e-05
2.99954e-05
2.95987e-05
7.30331e-05
7.41758e-05
7.80515e-05
8.4913e-05
9.50591e-05
0.00010881
0.000126461
0.000148206
0.000174028
0.000203571
0.000236012
0.000269999
0.000303699
0.000334989
0.000361633
0.000381013
0.000388381
0.000382347
0.000366106
0.000341941
0.000312041
0.000278879
0.000244953
0.000212415
0.000182855
0.000157265
0.000136125
0.000119528
0.000107311
9.91598e-05
9.47007e-05
9.35678e-05
0.00025458
0.000257999
0.000269775
0.000290596
0.000321252
0.000362558
0.000415207
0.000479551
0.00055529
0.00064112
0.000734427
0.00083117
0.00092612
0.00101346
0.00108737
0.00114129
0.00116301
0.00114893
0.0011071
0.00104297
0.00096183
0.000870006
0.000774302
0.00068093
0.000594772
0.000519136
0.000455879
0.00040569
0.000368414
0.000343365
0.000329595
0.000326104
0.000976318
0.000987195
0.00102536
0.00109277
0.00119158
0.00132386
0.00149119
0.00169388
0.00193014
0.00219501
0.00247969
0.00277134
0.00305414
0.00331135
0.00352717
0.00368483
0.00375213
0.00371973
0.00360884
0.00343263
0.00320362
0.00293814
0.00265516
0.00237328
0.00210818
0.00187146
0.00167051
0.00150901
0.00138777
0.00130562
0.00126019
0.00124871
0.00387033
0.00390464
0.00402764
0.00424472
0.0045614
0.00498252
0.00551078
0.00614464
0.00687563
0.00768566
0.00854521
0.00941384
0.010244
0.0109884
0.0116057
0.0120557
0.012258
0.0121917
0.0119118
0.0114478
0.010826
0.0100845
0.00927259
0.00844317
0.00764484
0.00691699
0.00628775
0.00577415
0.00538365
0.00511638
0.00496766
0.00493027
0.0132813
0.0133717
0.0137038
0.0142896
0.0151407
0.0162657
0.0176666
0.0193334
0.0212373
0.0233243
0.0255118
0.0276917
0.0297433
0.0315533
0.033033
0.0341059
0.0346095
0.0345118
0.0339363
0.032938
0.0315569
0.02986
0.0279468
0.0259362
0.0239491
0.0220936
0.0204557
0.0190951
0.0180457
0.0173196
0.0169128
0.0168111
0.0359178
0.0361017
0.0367946
0.0380188
0.0397941
0.0421331
0.0450339
0.0484679
0.0523659
0.0566048
0.0610033
0.065332
0.0693457
0.0728299
0.0756356
0.0776554
0.0786364
0.0785554
0.0776418
0.0759832
0.0736223
0.0706409
0.067182
0.0634401
0.0596365
0.0559916
0.0526999
0.0499125
0.047729
0.0462
0.0453362
0.0451205
0.0797394
0.0800392
0.0812063
0.083277
0.0862841
0.0902487
0.0951657
0.100981
0.107565
0.114687
0.122014
0.12914
0.135649
0.141205
0.145608
0.148749
0.150312
0.150319
0.149138
0.146902
0.14365
0.139454
0.134461
0.128903
0.123082
0.117341
0.112019
0.107412
0.103738
0.10113
0.0996411
0.0992668
0.150505
0.150911
0.152558
0.155505
0.159811
0.165521
0.172638
0.181083
0.190646
0.200952
0.211468
0.221565
0.230643
0.238257
0.244193
0.24838
0.250493
0.250636
0.249326
0.246763
0.242999
0.238088
0.23214
0.225349
0.218015
0.210539
0.203389
0.197028
0.191841
0.188092
0.185923
0.185368
0.249343
0.249809
0.25182
0.255474
0.260881
0.268136
0.277271
0.288182
0.300556
0.313831
0.327241
0.339933
0.351148
0.360386
0.367468
0.372406
0.37491
0.375183
0.373873
0.37126
0.367446
0.362498
0.356486
0.349507
0.341743
0.333528
0.325358
0.317823
0.311487
0.306797
0.304026
0.303291
0.372646
0.373105
0.375282
0.379346
0.385493
0.393898
0.404633
0.417548
0.43219
0.447781
0.463325
0.477792
0.490345
0.500501
0.508162
0.51344
0.516116
0.516469
0.515236
0.512772
0.509252
0.50481
0.499522
0.493399
0.486439
0.478769
0.47075
0.462977
0.456148
0.450904
0.447709
0.446811
0.513782
0.514157
0.516287
0.520448
0.526956
0.536081
0.547908
0.562199
0.578316
0.59527
0.611893
0.627084
0.640026
0.650324
0.65798
0.663196
0.665826
0.666199
0.665076
0.662857
0.659792
0.656107
0.651953
0.647325
0.642073
0.636055
0.629348
0.62237
0.615827
0.610516
0.607119
0.606081
0.665201
0.665428
0.667342
0.671364
0.677946
0.68742
0.699822
0.71476
0.731401
0.748608
0.765163
0.780013
0.792455
0.802211
0.809375
0.814208
0.816628
0.816973
0.815972
0.814029
0.811442
0.808516
0.805502
0.802465
0.799217
0.795412
0.7908
0.785474
0.779961
0.775087
0.771732
0.770584
0.819993
0.820037
0.82165
0.825428
0.831922
0.841436
0.853865
0.868631
0.88477
0.901121
0.916553
0.930164
0.941406
0.950116
0.956449
0.960688
0.962794
0.963085
0.962212
0.960553
0.958408
0.95612
0.954014
0.952259
0.950733
0.949044
0.946716
0.943491
0.939561
0.935592
0.932539
0.931334
0.972623
0.97249
0.973831
0.977386
0.9837
0.992923
1.00475
1.01848
1.03313
1.04767
1.06116
1.0729
1.08248
1.08984
1.09515
1.09868
1.10043
1.10065
1.09992
1.09854
1.0968
1.09501
1.09354
1.09261
1.09222
1.09207
1.09163
1.09043
1.08831
1.0856
1.08311
1.08194
1.11907
1.11882
1.12002
1.12343
1.12942
1.13791
1.14844
1.16031
1.17268
1.18474
1.19578
1.20528
1.21298
1.21885
1.22307
1.22586
1.22723
1.22739
1.2268
1.22571
1.22433
1.22296
1.2219
1.22142
1.22158
1.22222
1.22293
1.22324
1.22275
1.22141
1.21972
1.2187
1.25666
1.25642
1.25763
1.26089
1.26625
1.27345
1.28203
1.29141
1.30101
1.31024
1.31861
1.32576
1.33153
1.33592
1.33905
1.34112
1.34213
1.34225
1.3418
1.34098
1.33995
1.33893
1.33817
1.33789
1.3382
1.33903
1.34015
1.3412
1.34179
1.34165
1.34087
1.34013
1.38382
1.38373
1.38502
1.38788
1.39213
1.3975
1.40366
1.41025
1.41691
1.42325
1.42898
1.43386
1.43778
1.44075
1.44287
1.44426
1.44494
1.44502
1.44471
1.44415
1.44344
1.44274
1.44223
1.44205
1.44231
1.44299
1.44397
1.44507
1.44605
1.44662
1.44662
1.44626
1.49976
1.49991
1.50105
1.50302
1.50569
1.5089
1.5125
1.5163
1.52011
1.52373
1.52698
1.52975
1.53198
1.53366
1.53486
1.53565
1.53603
1.53607
1.53589
1.53557
1.53517
1.53477
1.53447
1.53437
1.53452
1.53492
1.53552
1.53626
1.53702
1.53767
1.53805
1.53806
1.6042
1.60433
1.60479
1.60548
1.60637
1.60742
1.60857
1.60979
1.61101
1.61217
1.61321
1.6141
1.6148
1.61534
1.61572
1.61597
1.6161
1.61611
1.61605
1.61595
1.61582
1.61569
1.61559
1.61556
1.6156
1.61573
1.61593
1.61617
1.61644
1.6167
1.61691
1.61698
)
;

boundaryField
{
    movingWall
    {
        type            fixedValue;
        value           uniform 1.6535;
    }
    fixedWalls
    {
        type            zeroGradient;
    }
    frontAndBack
    {
        type            empty;
    }
}


// ************************************************************************* //
