/*--------------------------------*- C++ -*----------------------------------*\
| =========                 |                                                 |
| \\      /  F ield         | OpenFOAM: The Open Source CFD Toolbox           |
|  \\    /   O peration     | Version:  2206                                  |
|   \\  /    A nd           | Website:  www.openfoam.com                      |
|    \\/     M anipulation  |                                                 |
\*---------------------------------------------------------------------------*/
FoamFile
{
    version     2.0;
    format      ascii;
    arch        "LSB;label=64;scalar=64";
    class       volScalarField;
    location    "20";
    object      Gch4;
}
// * * * * * * * * * * * * * * * * * * * * * * * * * * * * * * * * * * * * * //

dimensions      [0 0 0 0 0 0 0];

internalField   nonuniform List<scalar> 
1024
(
1.8083e-08
1.87433e-08
2.07643e-08
2.43815e-08
2.99161e-08
3.77651e-08
4.83755e-08
6.21931e-08
7.95766e-08
1.00672e-07
1.25253e-07
1.52559e-07
1.81184e-07
2.09064e-07
2.33494e-07
2.50784e-07
2.549e-07
2.44705e-07
2.25071e-07
1.99636e-07
1.71463e-07
1.43184e-07
1.16802e-07
9.3571e-08
7.40628e-08
5.83397e-08
4.61504e-08
3.70968e-08
3.07518e-08
2.67127e-08
2.46174e-08
2.41598e-08
2.02374e-08
2.0961e-08
2.31848e-08
2.71655e-08
3.32513e-08
4.18715e-08
5.35082e-08
6.86404e-08
8.76509e-08
1.1069e-07
1.37504e-07
1.67259e-07
1.98421e-07
2.28749e-07
2.55313e-07
2.74122e-07
2.78646e-07
2.67636e-07
2.46348e-07
2.18718e-07
1.88064e-07
1.5725e-07
1.28461e-07
1.03074e-07
8.17269e-08
6.44993e-08
5.11275e-08
4.11859e-08
3.42132e-08
2.977e-08
2.74589e-08
2.6944e-08
2.62794e-08
2.71836e-08
2.99779e-08
3.49779e-08
4.26081e-08
5.33886e-08
6.79001e-08
8.67151e-08
1.10285e-07
1.38772e-07
1.71846e-07
2.08469e-07
2.46753e-07
2.83956e-07
3.16516e-07
3.39595e-07
3.45264e-07
3.31963e-07
3.06031e-07
2.72238e-07
2.34623e-07
1.96698e-07
1.6116e-07
1.29734e-07
1.03233e-07
8.17895e-08
6.5104e-08
5.26729e-08
4.39389e-08
3.8361e-08
3.54468e-08
3.4781e-08
3.85594e-08
3.98242e-08
4.37578e-08
5.07914e-08
6.14992e-08
7.65788e-08
9.68031e-08
1.22926e-07
1.5553e-07
1.948e-07
2.40248e-07
2.90428e-07
3.42757e-07
3.9351e-07
4.37879e-07
4.69374e-07
4.77328e-07
4.59565e-07
4.24531e-07
3.78624e-07
3.27301e-07
2.75342e-07
2.26464e-07
1.83075e-07
1.46353e-07
1.16533e-07
9.32553e-08
7.58659e-08
6.36184e-08
5.57733e-08
5.16534e-08
5.06884e-08
6.17829e-08
6.37077e-08
6.97352e-08
8.05041e-08
9.68563e-08
1.19806e-07
1.50468e-07
1.89914e-07
2.38954e-07
2.97803e-07
3.65674e-07
4.4038e-07
5.18071e-07
5.93257e-07
6.58905e-07
7.05584e-07
7.1774e-07
6.92073e-07
6.40766e-07
5.73111e-07
4.97088e-07
4.19764e-07
3.46704e-07
2.81572e-07
2.26222e-07
1.81103e-07
1.45761e-07
1.19279e-07
1.00576e-07
8.85561e-08
8.22109e-08
8.06911e-08
1.0568e-07
1.08801e-07
1.18643e-07
1.36213e-07
1.62824e-07
2.00046e-07
2.49586e-07
3.13072e-07
3.9169e-07
4.85682e-07
5.93707e-07
7.12223e-07
8.35118e-07
9.5377e-07
1.05724e-06
1.13094e-06
1.15077e-06
1.11138e-06
1.03147e-06
9.25355e-07
8.05452e-07
6.8288e-07
5.66512e-07
4.62301e-07
3.73359e-07
3.00565e-07
2.43339e-07
2.00326e-07
1.69856e-07
1.50207e-07
1.39783e-07
1.37239e-07
1.91307e-07
1.96646e-07
2.13611e-07
2.4387e-07
2.89585e-07
3.53315e-07
4.3782e-07
5.45692e-07
6.78763e-07
8.37257e-07
1.01875e-06
1.2172e-06
1.42234e-06
1.61989e-06
1.79191e-06
1.91472e-06
1.94887e-06
1.88535e-06
1.7543e-06
1.57895e-06
1.37958e-06
1.17463e-06
9.79024e-07
8.02992e-07
6.52059e-07
5.28001e-07
4.30102e-07
3.5627e-07
3.038e-07
2.69846e-07
2.51752e-07
2.4727e-07
3.66734e-07
3.7637e-07
4.07217e-07
4.62192e-07
5.45029e-07
6.6012e-07
8.12155e-07
1.00547e-06
1.24299e-06
1.52477e-06
1.8462e-06
2.19634e-06
2.55702e-06
2.90335e-06
3.20447e-06
3.41995e-06
3.48208e-06
3.37477e-06
3.14912e-06
2.84452e-06
2.49574e-06
2.1349e-06
1.7885e-06
1.47503e-06
1.20488e-06
9.8179e-07
8.05006e-07
6.71184e-07
5.75746e-07
5.13767e-07
4.80605e-07
4.72297e-07
7.48557e-07
7.66971e-07
8.26384e-07
9.32162e-07
1.09112e-06
1.3112e-06
1.60079e-06
1.96747e-06
2.41609e-06
2.94602e-06
3.54792e-06
4.20078e-06
4.87063e-06
5.51168e-06
6.06802e-06
6.46718e-06
6.58685e-06
6.39689e-06
5.98816e-06
5.43078e-06
4.78731e-06
4.11667e-06
3.46845e-06
2.87815e-06
2.36646e-06
1.94165e-06
1.60344e-06
1.34633e-06
1.16226e-06
1.04228e-06
9.77837e-07
9.61564e-07
1.63894e-06
1.67642e-06
1.79834e-06
2.01517e-06
2.34009e-06
2.78827e-06
3.37553e-06
4.11579e-06
5.01723e-06
6.07691e-06
7.27458e-06
8.56729e-06
9.88748e-06
1.11459e-05
1.22357e-05
1.30198e-05
1.32652e-05
1.2912e-05
1.21305e-05
1.10519e-05
9.79461e-06
8.47287e-06
7.18511e-06
6.00379e-06
4.97284e-06
4.11173e-06
3.42241e-06
2.89588e-06
2.51728e-06
2.26953e-06
2.13597e-06
2.10207e-06
3.87907e-06
3.96079e-06
4.22895e-06
4.70534e-06
5.41698e-06
6.39469e-06
7.66991e-06
9.2694e-06
1.12069e-05
1.3472e-05
1.60176e-05
1.87495e-05
2.15243e-05
2.4157e-05
2.64308e-05
2.80722e-05
2.86102e-05
2.79193e-05
2.63366e-05
2.41205e-05
2.15077e-05
1.87329e-05
1.60039e-05
1.34789e-05
1.1258e-05
9.38971e-06
7.88472e-06
6.72876e-06
5.89348e-06
5.34457e-06
5.04759e-06
4.97196e-06
9.99626e-06
1.0188e-05
1.08234e-05
1.19507e-05
1.36291e-05
1.59249e-05
1.89042e-05
2.26204e-05
2.70951e-05
3.22935e-05
3.80972e-05
4.42848e-05
5.05296e-05
5.64222e-05
6.14954e-05
6.51703e-05
6.6437e-05
6.50153e-05
6.16123e-05
5.67649e-05
5.09724e-05
4.4746e-05
3.85548e-05
3.2768e-05
2.76309e-05
2.32736e-05
1.97377e-05
1.70043e-05
1.50182e-05
1.37068e-05
1.29947e-05
1.28131e-05
2.82148e-05
2.87004e-05
3.03268e-05
3.32087e-05
3.74841e-05
4.33043e-05
5.08149e-05
6.01247e-05
7.12591e-05
8.41009e-05
9.83307e-05
0.000113386
0.000128468
0.000142609
0.000154737
0.000163554
0.000166761
0.000163696
0.00015593
0.000144638
0.000130927
0.000115977
0.000100917
8.6671e-05
7.38864e-05
6.29365e-05
5.39739e-05
4.69932e-05
4.18884e-05
3.85001e-05
3.66531e-05
3.61821e-05
8.75793e-05
8.89057e-05
9.34042e-05
0.000101365
0.00011313
0.00012906
0.00014949
0.000174638
0.000204485
0.000238628
0.000276135
0.000315472
0.000354543
0.000390897
0.000421929
0.000444573
0.000453291
0.000446437
0.000427708
0.000399783
0.000365227
0.000326909
0.000287705
0.000250091
0.000215897
0.000186269
0.000161771
0.000142522
0.00012834
0.00011887
0.000113685
0.000112365
0.000299341
0.000303229
0.000316615
0.000340278
0.0003751
0.000421985
0.000481703
0.000554639
0.000640464
0.000737735
0.000843553
0.000953415
0.00106145
0.00116108
0.00124561
0.00130748
0.00133273
0.00131716
0.00126989
0.00119725
0.0011053
0.00100127
0.000892843
0.000787026
0.000689327
0.000603497
0.000531657
0.000474614
0.000432217
0.000403708
0.000388024
0.000384039
0.00112352
0.00113561
0.001178
0.00125288
0.00136258
0.00150938
0.00169497
0.0019197
0.00218163
0.00247543
0.00279152
0.00311591
0.00343118
0.0037187
0.00396068
0.00413811
0.00421485
0.00418024
0.00405785
0.00386265
0.0036088
0.00331455
0.00300091
0.00268841
0.00239437
0.00213165
0.00190847
0.001729
0.00159418
0.00150277
0.0014522
0.00143938
0.00435213
0.00438932
0.00452259
0.00475776
0.00510076
0.00555674
0.00612862
0.00681481
0.00760643
0.00848443
0.00941751
0.0103625
0.0112681
0.0120827
0.0127604
0.0132565
0.0134826
0.0134153
0.0131145
0.0126131
0.0119404
0.0111381
0.0102596
0.00936192
0.00849749
0.00770894
0.00702684
0.00646983
0.00604612
0.00575599
0.00559444
0.00555371
0.0146024
0.0146981
0.0150491
0.0156685
0.0165683
0.0177577
0.0192391
0.0210025
0.0230186
0.0252317
0.0275563
0.0298791
0.0320722
0.034014
0.0356072
0.0367675
0.03732
0.0372294
0.0366275
0.0355753
0.034117
0.0323243
0.0303026
0.0281771
0.0260755
0.024112
0.022378
0.0209371
0.0198253
0.0190558
0.0186243
0.0185161
0.038724
0.0389144
0.0396315
0.0408989
0.0427372
0.0451604
0.0481676
0.0517312
0.0557824
0.0601972
0.0647904
0.0693256
0.0735466
0.0772251
0.0801989
0.0823497
0.0834095
0.0833529
0.0824217
0.0807123
0.0782727
0.0751892
0.0716097
0.0677349
0.0637934
0.0600141
0.0565993
0.0537067
0.0514402
0.0498526
0.0489551
0.0487301
0.0845644
0.0848695
0.086056
0.0881625
0.0912235
0.0952629
0.100279
0.106221
0.112963
0.120276
0.127824
0.135193
0.141951
0.147745
0.152356
0.15566
0.157328
0.157382
0.156207
0.153949
0.150654
0.146395
0.141323
0.135671
0.129745
0.123894
0.118466
0.113765
0.110015
0.107351
0.10583
0.105446
0.157488
0.157895
0.159545
0.162501
0.166825
0.172567
0.179737
0.188265
0.197949
0.208419
0.219143
0.229483
0.23882
0.246687
0.252844
0.257209
0.259443
0.259654
0.258381
0.25584
0.252093
0.247197
0.241259
0.234466
0.227113
0.219604
0.212414
0.206011
0.200786
0.197009
0.194821
0.194257
0.258152
0.258613
0.260604
0.264229
0.269601
0.276825
0.285943
0.296867
0.309295
0.32268
0.336256
0.349161
0.360618
0.370097
0.377394
0.382505
0.385134
0.38549
0.384243
0.381696
0.377962
0.373115
0.367215
0.360346
0.352677
0.344536
0.336418
0.328916
0.322601
0.317921
0.315153
0.314413
0.382616
0.383064
0.385199
0.389195
0.395254
0.403563
0.414207
0.427059
0.441684
0.45732
0.472975
0.487612
0.500372
0.510743
0.518598
0.524035
0.526828
0.52727
0.526117
0.523748
0.520356
0.516081
0.510991
0.505075
0.498314
0.490816
0.482938
0.475273
0.468522
0.463328
0.460157
0.459257
0.524136
0.524496
0.526568
0.530631
0.537009
0.545984
0.557661
0.571825
0.587863
0.604803
0.621486
0.636801
0.649911
0.66039
0.668213
0.673566
0.676302
0.676761
0.675724
0.673614
0.670702
0.66722
0.663312
0.658951
0.653962
0.648182
0.641675
0.634858
0.628435
0.623203
0.619847
0.61881
0.675231
0.675442
0.677288
0.681195
0.687622
0.696914
0.709125
0.723892
0.740409
0.75756
0.774133
0.789069
0.801641
0.811544
0.818846
0.823794
0.826305
0.826728
0.825809
0.823976
0.821545
0.818829
0.816071
0.813317
0.81035
0.806804
0.802415
0.797271
0.791896
0.787118
0.783814
0.78267
0.829151
0.829179
0.830725
0.834384
0.840713
0.85003
0.862249
0.876823
0.892816
0.909085
0.924507
0.938173
0.949513
0.958339
0.964783
0.969115
0.971296
0.971654
0.970856
0.969297
0.967296
0.965202
0.963336
0.961845
0.960583
0.959136
0.957015
0.953962
0.950167
0.946294
0.943296
0.942099
0.98054
0.980394
0.981673
0.985116
0.991268
1.0003
1.01192
1.02545
1.03996
1.05441
1.06787
1.07964
1.08929
1.09674
1.10214
1.10574
1.10755
1.10783
1.10716
1.10587
1.10425
1.10263
1.10136
1.10066
1.1005
1.10054
1.10028
1.09922
1.09721
1.09458
1.09215
1.09098
1.12554
1.12528
1.12642
1.12973
1.13558
1.14389
1.15423
1.16593
1.17816
1.19014
1.20114
1.21066
1.21841
1.22435
1.22863
1.23148
1.23289
1.23311
1.23256
1.23153
1.23026
1.22902
1.22813
1.22782
1.22817
1.22896
1.22981
1.23021
1.2298
1.22852
1.22688
1.22587
1.2616
1.26135
1.26252
1.26569
1.27092
1.27798
1.2864
1.29565
1.30513
1.31429
1.32263
1.32979
1.3356
1.34003
1.34321
1.34532
1.34636
1.34651
1.3461
1.34533
1.34437
1.34345
1.34282
1.34268
1.34312
1.34406
1.34527
1.34638
1.34702
1.34692
1.34617
1.34543
1.38723
1.38714
1.3884
1.39118
1.39534
1.4006
1.40665
1.41315
1.41972
1.42601
1.43172
1.4366
1.44054
1.44354
1.4457
1.44712
1.44782
1.44792
1.44763
1.4471
1.44645
1.44582
1.44539
1.4453
1.44565
1.4464
1.44744
1.44859
1.44959
1.45018
1.45018
1.44983
1.50173
1.50188
1.50298
1.50492
1.50753
1.51068
1.51421
1.51795
1.52171
1.5253
1.52854
1.53131
1.53355
1.53525
1.53647
1.53727
1.53766
1.53772
1.53755
1.53725
1.53688
1.53652
1.53627
1.53622
1.53641
1.53686
1.5375
1.53825
1.53903
1.53968
1.54006
1.54007
1.60483
1.60496
1.60541
1.60609
1.60696
1.60798
1.60912
1.61032
1.61153
1.61267
1.61371
1.61459
1.61531
1.61585
1.61624
1.61649
1.61662
1.61663
1.61658
1.61649
1.61636
1.61625
1.61617
1.61615
1.61621
1.61635
1.61656
1.61681
1.61708
1.61734
1.61755
1.61762
)
;

boundaryField
{
    movingWall
    {
        type            fixedValue;
        value           uniform 1.6535;
    }
    fixedWalls
    {
        type            zeroGradient;
    }
    frontAndBack
    {
        type            empty;
    }
}


// ************************************************************************* //
