/*--------------------------------*- C++ -*----------------------------------*\
| =========                 |                                                 |
| \\      /  F ield         | OpenFOAM: The Open Source CFD Toolbox           |
|  \\    /   O peration     | Version:  2206                                  |
|   \\  /    A nd           | Website:  www.openfoam.com                      |
|    \\/     M anipulation  |                                                 |
\*---------------------------------------------------------------------------*/
FoamFile
{
    version     2.0;
    format      ascii;
    arch        "LSB;label=64;scalar=64";
    class       surfaceScalarField;
    location    "20";
    object      phi;
}
// * * * * * * * * * * * * * * * * * * * * * * * * * * * * * * * * * * * * * //

dimensions      [0 3 -1 0 0 0 0];

oriented        oriented;

internalField   nonuniform List<scalar> 
1984
(
3.94731e-12
-3.95042e-12
2.58858e-12
1.35863e-12
-1.31026e-11
1.5691e-11
-4.86697e-11
3.5567e-11
-1.06685e-10
5.80156e-11
-1.87241e-10
8.05557e-11
-2.8863e-10
1.01389e-10
-4.08421e-10
1.1979e-10
-5.44439e-10
1.36018e-10
-6.94888e-10
1.50449e-10
-8.57385e-10
1.62496e-10
-1.02743e-09
1.70049e-10
-1.19682e-09
1.69389e-10
-1.35183e-09
1.55008e-10
-1.47139e-09
1.19553e-10
-1.52466e-09
5.3278e-11
-1.48381e-09
-4.0852e-11
-1.37262e-09
-1.11197e-10
-1.22175e-09
-1.50869e-10
-1.05308e-09
-1.6867e-10
-8.81391e-10
-1.71691e-10
-7.15858e-10
-1.65534e-10
-5.61726e-10
-1.54133e-10
-4.21911e-10
-1.39816e-10
-2.98567e-10
-1.23345e-10
-1.94085e-10
-1.04484e-10
-1.11003e-10
-8.30825e-11
-5.10638e-11
-5.99404e-11
-1.41681e-11
-3.68966e-11
2.29082e-12
-1.64597e-11
3.95058e-12
-1.66049e-12
3.95032e-12
-1.34602e-12
-2.6045e-12
-2.35687e-11
2.35811e-11
-8.70819e-11
7.92041e-11
-2.07985e-10
1.56469e-10
-3.96386e-10
2.46417e-10
-6.55455e-10
3.39624e-10
-9.82214e-10
4.28148e-10
-1.37024e-09
5.07818e-10
-1.81272e-09
5.78493e-10
-2.30326e-09
6.40989e-10
-2.83341e-09
6.92652e-10
-3.38803e-09
7.24668e-10
-3.93996e-09
7.21318e-10
-4.4443e-09
6.59346e-10
-4.83201e-09
5.0726e-10
-5.00297e-09
2.24235e-10
-4.86833e-09
-1.75497e-10
-4.50514e-09
-4.74385e-10
-4.01301e-09
-6.42999e-10
-3.4633e-09
-7.18386e-10
-2.90397e-09
-7.31015e-10
-2.36502e-09
-7.04493e-10
-1.86378e-09
-6.55377e-10
-1.41026e-09
-5.93331e-10
-1.0119e-09
-5.21705e-10
-6.76158e-10
-4.40231e-10
-4.09757e-10
-3.49485e-10
-2.1576e-10
-2.53938e-10
-9.09392e-11
-1.61719e-10
-2.5017e-11
-8.2383e-11
-1.63941e-12
-2.50391e-11
2.31065e-12
-1.56536e-11
1.3049e-11
-7.91627e-11
8.709e-11
-2.15976e-10
2.16017e-10
-4.50968e-10
3.9146e-10
-8.02832e-10
5.98282e-10
-1.28024e-09
8.17027e-10
-1.88122e-09
1.02913e-09
-2.59653e-09
1.22312e-09
-3.41447e-09
1.39643e-09
-4.32286e-09
1.54938e-09
-5.30519e-09
1.67499e-09
-6.33267e-09
1.75215e-09
-7.35446e-09
1.74311e-09
-8.2871e-09
1.59198e-09
-9.00241e-09
1.22257e-09
-9.31538e-09
5.37201e-10
-9.06341e-09
-4.27466e-10
-8.38936e-09
-1.14844e-09
-7.47733e-09
-1.55503e-09
-6.45936e-09
-1.73635e-09
-5.42408e-09
-1.76629e-09
-4.42706e-09
-1.70152e-09
-3.50078e-09
-1.58166e-09
-2.66439e-09
-1.42973e-09
-1.93182e-09
-1.25427e-09
-1.31583e-09
-1.05622e-09
-8.26186e-10
-8.39135e-10
-4.64938e-10
-6.15188e-10
-2.23272e-10
-4.03387e-10
-8.21761e-11
-2.2348e-10
-1.63691e-11
-9.0847e-11
-1.40586e-11
-3.5561e-11
4.86098e-11
-1.5671e-10
2.08239e-10
-3.92226e-10
4.51533e-10
-7.72836e-10
7.72071e-10
-1.32437e-09
1.14982e-09
-2.06147e-09
1.55412e-09
-2.9848e-09
1.95246e-09
-4.08377e-09
2.32209e-09
-5.34238e-09
2.65504e-09
-6.74196e-09
2.94896e-09
-8.25626e-09
3.18929e-09
-9.83993e-09
3.33581e-09
-1.14139e-08
3.31709e-09
-1.28491e-08
3.02717e-09
-1.39477e-08
2.32123e-09
-1.44253e-08
1.01471e-09
-1.40331e-08
-8.19667e-10
-1.29921e-08
-2.18937e-09
-1.15858e-08
-2.96135e-09
-1.00173e-08
-3.30492e-09
-8.42276e-09
-3.36079e-09
-6.888e-09
-3.23628e-09
-5.46348e-09
-3.00617e-09
-4.17917e-09
-2.71404e-09
-3.05617e-09
-2.37726e-09
-2.11197e-09
-2.00043e-09
-1.35783e-09
-1.59328e-09
-7.9316e-10
-1.17986e-09
-4.03085e-10
-7.93463e-10
-1.61337e-10
-4.65229e-10
-3.67064e-11
-2.15478e-10
-5.07652e-11
-5.82873e-11
1.06897e-10
-2.48057e-10
3.98008e-10
-6.02665e-10
8.0614e-10
-1.15738e-09
1.32679e-09
-1.94305e-09
1.93549e-09
-2.97892e-09
2.58999e-09
-4.26837e-09
3.24191e-09
-5.80046e-09
3.85418e-09
-7.55572e-09
4.4103e-09
-9.50899e-09
4.90223e-09
-1.1623e-08
5.30334e-09
-1.38336e-08
5.54636e-09
-1.60294e-08
5.5129e-09
-1.80297e-08
5.02749e-09
-1.95585e-08
3.84997e-09
-2.02192e-08
1.6754e-09
-1.9667e-08
-1.37179e-09
-1.82117e-08
-3.64467e-09
-1.62481e-08
-4.92495e-09
-1.40592e-08
-5.49383e-09
-1.18349e-08
-5.5851e-09
-9.69486e-09
-5.37635e-09
-7.70991e-09
-4.99113e-09
-5.92199e-09
-4.50196e-09
-4.3594e-09
-3.93985e-09
-3.04348e-09
-3.31635e-09
-1.98598e-09
-2.65078e-09
-1.1836e-09
-1.98224e-09
-6.16759e-10
-1.36031e-09
-2.5409e-10
-8.27899e-10
-5.97811e-11
-4.09788e-10
-1.10547e-10
-8.17259e-11
1.88623e-10
-3.45375e-10
6.61657e-10
-8.31706e-10
1.29247e-09
-1.58137e-09
2.07645e-09
-2.6291e-09
2.98322e-09
-3.99687e-09
3.95776e-09
-5.68939e-09
4.93443e-09
-7.69512e-09
5.85992e-09
-9.99159e-09
6.70677e-09
-1.25474e-08
7.45804e-09
-1.53138e-08
8.06972e-09
-1.82057e-08
8.43833e-09
-2.10769e-08
8.38409e-09
-2.36903e-08
7.64084e-09
-2.56848e-08
5.84446e-09
-2.6543e-08
2.53361e-09
-2.58162e-08
-2.0986e-09
-2.39105e-08
-5.55034e-09
-2.13416e-08
-7.49387e-09
-1.84787e-08
-8.35671e-09
-1.557e-08
-8.49378e-09
-1.27721e-08
-8.17428e-09
-1.01779e-08
-7.58535e-09
-7.84184e-09
-6.838e-09
-5.79918e-09
-5.9825e-09
-4.07465e-09
-5.04089e-09
-2.68074e-09
-4.0447e-09
-1.61283e-09
-3.05014e-09
-8.48554e-10
-2.12459e-09
-3.52535e-10
-1.32392e-09
-8.34747e-11
-6.78849e-10
-1.94021e-10
-1.04727e-10
2.9335e-10
-4.43506e-10
1.00044e-09
-1.06756e-09
1.91653e-09
-2.02526e-09
3.03415e-09
-3.3559e-09
4.31385e-09
-5.08309e-09
5.68495e-09
-7.21102e-09
7.06235e-09
-9.72611e-09
8.37501e-09
-1.26024e-08
9.58302e-09
-1.58021e-08
1.06578e-08
-1.92646e-08
1.15323e-08
-2.28831e-08
1.20568e-08
-2.64735e-08
1.19745e-08
-2.9739e-08
1.09063e-08
-3.22286e-08
8.33407e-09
-3.32971e-08
3.60204e-09
-3.23852e-08
-3.01043e-09
-3.00015e-08
-7.9341e-09
-2.67889e-08
-1.07064e-08
-2.32083e-08
-1.19373e-08
-1.95699e-08
-1.21323e-08
-1.60696e-08
-1.16746e-08
-1.28238e-08
-1.08311e-08
-9.90021e-09
-9.76163e-09
-7.34095e-09
-8.54176e-09
-5.17478e-09
-7.20705e-09
-3.41647e-09
-5.80301e-09
-2.06193e-09
-4.40468e-09
-1.08703e-09
-3.09949e-09
-4.51684e-10
-1.95926e-09
-1.06692e-10
-1.02384e-09
-3.00713e-10
-1.27631e-10
4.20981e-10
-5.42869e-10
1.41567e-09
-1.30993e-09
2.68359e-09
-2.48774e-09
4.21196e-09
-4.12218e-09
5.9483e-09
-6.23896e-09
7.80173e-09
-8.84053e-09
9.66392e-09
-1.19094e-08
1.14438e-08
-1.54143e-08
1.3088e-08
-1.93105e-08
1.45539e-08
-2.35244e-08
1.57462e-08
-2.79256e-08
1.6458e-08
-3.229e-08
1.63389e-08
-3.62564e-08
1.48728e-08
-3.92783e-08
1.13559e-08
-4.05745e-08
4.89823e-09
-3.94677e-08
-4.11721e-09
-3.6574e-08
-1.08278e-08
-3.2672e-08
-1.46085e-08
-2.83197e-08
-1.62896e-08
-2.38942e-08
-1.65578e-08
-1.96343e-08
-1.59344e-08
-1.56822e-08
-1.47833e-08
-1.21195e-08
-1.33243e-08
-8.99684e-09
-1.16644e-08
-6.34879e-09
-9.85511e-09
-4.19431e-09
-7.95748e-09
-2.5311e-09
-6.0679e-09
-1.33276e-09
-4.29784e-09
-5.52364e-10
-2.73966e-09
-1.29883e-10
-1.44632e-09
-4.30596e-10
-1.52425e-10
5.73405e-10
-6.50769e-10
1.91402e-09
-1.57439e-09
3.60721e-09
-2.99551e-09
5.63308e-09
-4.96925e-09
7.92204e-09
-7.52494e-09
1.03574e-08
-1.06631e-08
1.28021e-08
-1.43607e-08
1.51414e-08
-1.85791e-08
1.73063e-08
-2.3264e-08
1.92388e-08
-2.83268e-08
2.0809e-08
-3.36104e-08
2.17416e-08
-3.88452e-08
2.15737e-08
-4.35986e-08
1.96261e-08
-4.72183e-08
1.49757e-08
-4.87738e-08
6.45374e-09
-4.74559e-08
-5.43514e-09
-4.39975e-08
-1.42862e-08
-3.93256e-08
-1.92804e-08
-3.41067e-08
-2.15085e-08
-2.87929e-08
-2.18715e-08
-2.36723e-08
-2.10551e-08
-1.89166e-08
-1.95389e-08
-1.46251e-08
-1.76158e-08
-1.08594e-08
-1.54301e-08
-7.66243e-09
-1.30521e-08
-5.0592e-09
-1.05607e-08
-3.04933e-09
-8.07777e-09
-1.60258e-09
-5.74459e-09
-6.62429e-10
-3.67981e-09
-1.55172e-10
-1.95358e-09
-5.85768e-10
-1.82296e-10
7.55701e-10
-7.80093e-10
2.51181e-09
-1.89057e-09
4.71769e-09
-3.60222e-09
7.34472e-09
-5.98218e-09
1.0302e-08
-9.06535e-09
1.34406e-08
-1.28507e-08
1.65875e-08
-1.73081e-08
1.95988e-08
-2.23889e-08
2.23871e-08
-2.80257e-08
2.48756e-08
-3.41106e-08
2.68939e-08
-4.04531e-08
2.80842e-08
-4.6729e-08
2.78496e-08
-5.24212e-08
2.53183e-08
-5.67541e-08
1.93085e-08
-5.86237e-08
8.32337e-09
-5.70657e-08
-6.99314e-09
-5.29456e-08
-1.84063e-08
-4.73622e-08
-2.48638e-08
-4.11087e-08
-2.77619e-08
-3.47275e-08
-2.82528e-08
-2.85668e-08
-2.72158e-08
-2.28364e-08
-2.52693e-08
-1.76587e-08
-2.27935e-08
-1.31108e-08
-1.9978e-08
-9.24729e-09
-1.69156e-08
-6.10103e-09
-1.3707e-08
-3.67321e-09
-1.05056e-08
-1.92769e-09
-7.49011e-09
-7.95423e-10
-4.81207e-09
-1.85903e-10
-2.5631e-09
-7.71671e-10
-2.21211e-10
9.76911e-10
-9.47697e-10
3.2383e-09
-2.29884e-09
6.06883e-09
-4.3835e-09
9.42937e-09
-7.28421e-09
1.32027e-08
-1.10434e-08
1.71997e-08
-1.56584e-08
2.12026e-08
-2.10902e-08
2.50305e-08
-2.7276e-08
2.8573e-08
-3.41306e-08
3.17302e-08
-4.15187e-08
3.42819e-08
-4.92059e-08
3.57713e-08
-5.67976e-08
3.54414e-08
-6.36712e-08
3.21919e-08
-6.89001e-08
2.45375e-08
-7.11706e-08
1.05939e-08
-6.93276e-08
-8.83615e-09
-6.43929e-08
-2.33409e-08
-5.76723e-08
-3.15845e-08
-5.01146e-08
-3.53196e-08
-4.23761e-08
-3.59912e-08
-3.48843e-08
-3.47077e-08
-2.79003e-08
-3.22533e-08
-2.15796e-08
-2.91142e-08
-1.60217e-08
-2.55359e-08
-1.12976e-08
-2.16398e-08
-7.45026e-09
-1.75543e-08
-4.48267e-09
-1.34732e-08
-2.35069e-09
-9.6221e-09
-9.69119e-10
-6.19365e-09
-2.26254e-10
-3.30597e-09
-9.97925e-10
-2.74406e-10
1.25132e-09
-1.1762e-09
4.14009e-09
-2.85421e-09
7.74685e-09
-5.44416e-09
1.20193e-08
-9.04874e-09
1.68073e-08
-1.372e-08
2.1871e-08
-1.94528e-08
2.69355e-08
-2.61952e-08
3.17729e-08
-3.38646e-08
3.62424e-08
-4.23488e-08
4.02143e-08
-5.1473e-08
4.34062e-08
-6.09412e-08
4.52396e-08
-7.02642e-08
4.47643e-08
-7.8682e-08
4.06097e-08
-8.50785e-08
3.0934e-08
-8.78802e-08
1.33955e-08
-8.5691e-08
-1.10253e-08
-7.97205e-08
-2.93114e-08
-7.15289e-08
-3.97761e-08
-6.22614e-08
-4.45871e-08
-5.27238e-08
-4.55289e-08
-4.34516e-08
-4.39799e-08
-3.47803e-08
-4.09246e-08
-2.69143e-08
-3.69801e-08
-1.99871e-08
-3.24631e-08
-1.4094e-08
-2.75328e-08
-9.29319e-09
-2.23551e-08
-5.59022e-09
-1.71761e-08
-2.9306e-09
-1.22817e-08
-1.20777e-09
-7.91648e-09
-2.81847e-10
-4.2319e-09
-1.27977e-09
-3.50026e-10
1.60134e-09
-1.50067e-09
5.29074e-09
-3.64201e-09
9.88818e-09
-6.94699e-09
1.53243e-08
-1.15457e-08
2.1406e-08
-1.75025e-08
2.78278e-08
-2.48073e-08
3.42402e-08
-3.33875e-08
4.03532e-08
-4.31293e-08
4.59842e-08
-5.38782e-08
5.09632e-08
-6.53991e-08
5.49271e-08
-7.73049e-08
5.71454e-08
-8.8974e-08
5.64334e-08
-9.94645e-08
5.11002e-08
-1.0742e-07
3.88893e-08
-1.10944e-07
1.69202e-08
-1.08336e-07
-1.36338e-08
-1.01027e-07
-3.66205e-08
-9.08895e-08
-4.99135e-08
-7.93177e-08
-5.61589e-08
-6.73169e-08
-5.75297e-08
-5.55767e-08
-5.572e-08
-4.45442e-08
-5.19572e-08
-3.45011e-08
-4.70232e-08
-2.56358e-08
-4.13285e-08
-1.80831e-08
-3.50856e-08
-1.19252e-08
-2.8513e-08
-7.17373e-09
-2.19276e-08
-3.7606e-09
-1.56949e-08
-1.54969e-09
-1.01274e-08
-3.61578e-10
-5.42001e-09
-1.64135e-09
-4.6217e-10
2.06351e-09
-1.98158e-09
6.81015e-09
-4.80876e-09
1.27154e-08
-9.17067e-09
1.96862e-08
-1.52362e-08
2.74716e-08
-2.30853e-08
3.56768e-08
-3.26962e-08
4.38512e-08
-4.39611e-08
5.16181e-08
-5.67123e-08
5.87354e-08
-7.07237e-08
6.49746e-08
-8.56611e-08
6.98644e-08
-1.00997e-07
7.24809e-08
-1.15917e-07
7.13542e-08
-1.29238e-07
6.4421e-08
-1.39303e-07
4.89539e-08
-1.4383e-07
2.14473e-08
-1.40733e-07
-1.67307e-08
-1.31697e-07
-4.56566e-08
-1.18961e-07
-6.26495e-08
-1.04225e-07
-7.0895e-08
-8.87624e-08
-7.29921e-08
-7.34887e-08
-7.09937e-08
-5.90265e-08
-6.64194e-08
-4.57882e-08
-6.02614e-08
-3.40579e-08
-5.30588e-08
-2.40399e-08
-4.51035e-08
-1.58602e-08
-3.66927e-08
-9.5433e-09
-2.82445e-08
-5.00351e-09
-2.02347e-08
-2.06202e-09
-1.30689e-08
-4.81119e-10
-7.00092e-09
-2.12247e-09
-6.36851e-10
2.70036e-09
-2.73027e-09
8.90357e-09
-6.62392e-09
1.6609e-08
-1.26267e-08
2.5689e-08
-2.09643e-08
3.58092e-08
-3.17346e-08
4.64471e-08
-4.48892e-08
5.70058e-08
-6.02519e-08
6.69807e-08
-7.75538e-08
7.60373e-08
-9.64359e-08
8.38567e-08
-1.16389e-07
8.98174e-08
-1.36655e-07
9.2747e-08
-1.56138e-07
9.08374e-08
-1.73334e-07
8.16167e-08
-1.86241e-07
6.18611e-08
-1.92165e-07
2.73715e-08
-1.88569e-07
-2.03264e-08
-1.77382e-07
-5.68437e-08
-1.6122e-07
-7.88122e-08
-1.42121e-07
-8.9994e-08
-1.21706e-07
-9.3407e-08
-1.01224e-07
-9.14753e-08
-8.15913e-08
-8.60524e-08
-6.3455e-08
-7.83977e-08
-4.72823e-08
-6.92315e-08
-3.34135e-08
-5.89723e-08
-2.20608e-08
-4.80454e-08
-1.32805e-08
-3.70249e-08
-6.96485e-09
-2.65503e-08
-2.87078e-09
-1.71629e-08
-6.69866e-10
-9.20183e-09
-2.79234e-09
-9.25839e-10
3.6262e-09
-3.96881e-09
1.19465e-08
-9.62488e-09
2.22651e-08
-1.83338e-08
3.4398e-08
-3.04058e-08
4.78811e-08
-4.59528e-08
6.19941e-08
-6.48573e-08
7.59103e-08
-8.67954e-08
8.89189e-08
-1.11286e-07
1.00528e-07
-1.37699e-07
1.1027e-07
-1.65189e-07
1.17308e-07
-1.92603e-07
1.20161e-07
-2.18426e-07
1.16661e-07
-2.40774e-07
1.03965e-07
-2.57349e-07
7.8436e-08
-2.65172e-07
3.5194e-08
-2.61288e-07
-2.42105e-08
-2.47739e-07
-7.03928e-08
-2.27352e-07
-9.91985e-08
-2.02413e-07
-1.14933e-07
-1.74922e-07
-1.20898e-07
-1.4661e-07
-1.19788e-07
-1.18894e-07
-1.13768e-07
-9.28823e-08
-1.04409e-07
-6.94265e-08
-9.26874e-08
-4.91638e-08
-7.9235e-08
-3.25018e-08
-6.47074e-08
-1.95808e-08
-4.99459e-08
-1.02732e-08
-3.58579e-08
-4.23502e-09
-2.32011e-08
-9.88111e-10
-1.24487e-08
-3.78045e-09
-1.23744e-09
4.86364e-09
-5.30001e-09
1.60091e-08
-1.28403e-08
2.98054e-08
-2.44243e-08
4.5982e-08
-4.04251e-08
6.38819e-08
-6.09232e-08
8.24922e-08
-8.56563e-08
1.00643e-07
-1.14043e-07
1.17306e-07
-1.45252e-07
1.31736e-07
-1.78229e-07
1.43247e-07
-2.11668e-07
1.50747e-07
-2.43985e-07
1.52478e-07
-2.73382e-07
1.46057e-07
-2.97972e-07
1.28555e-07
-3.15816e-07
9.62802e-08
-3.24577e-07
4.3955e-08
-3.21643e-07
-2.71452e-08
-3.0853e-07
-8.35052e-08
-2.87341e-07
-1.20388e-07
-2.59836e-07
-1.42438e-07
-2.27884e-07
-1.52851e-07
-1.9347e-07
-1.54201e-07
-1.58536e-07
-1.48702e-07
-1.24828e-07
-1.38117e-07
-9.38255e-08
-1.2369e-07
-6.66892e-08
-1.06371e-07
-4.41918e-08
-8.72049e-08
-2.66616e-08
-6.7476e-08
-1.40001e-08
-4.85194e-08
-5.77462e-09
-3.14267e-08
-1.34806e-09
-1.68753e-08
-5.1285e-09
-1.48311e-09
6.34675e-09
-6.34394e-09
2.08699e-08
-1.53452e-08
3.88067e-08
-2.91234e-08
5.97601e-08
-4.80468e-08
8.28053e-08
-7.20818e-08
1.06527e-07
-1.00721e-07
1.29283e-07
-1.3301e-07
1.49595e-07
-1.67647e-07
1.66373e-07
-2.03074e-07
1.78674e-07
-2.37544e-07
1.85217e-07
-2.6924e-07
1.84174e-07
-2.965e-07
1.73317e-07
-3.18065e-07
1.5012e-07
-3.33141e-07
1.11356e-07
-3.4098e-07
5.17943e-08
-3.40191e-07
-2.79343e-08
-3.31264e-07
-9.24324e-08
-3.14702e-07
-1.3695e-07
-2.90865e-07
-1.66275e-07
-2.60654e-07
-1.83062e-07
-2.25652e-07
-1.89203e-07
-1.87959e-07
-1.86395e-07
-1.49895e-07
-1.76181e-07
-1.13712e-07
-1.59873e-07
-8.13288e-08
-1.38755e-07
-5.41035e-08
-1.1443e-07
-3.27158e-08
-8.88638e-08
-1.72001e-08
-6.40352e-08
-7.09902e-09
-4.15279e-08
-1.65805e-09
-2.23164e-08
-6.78656e-09
-1.7986e-09
8.14535e-09
-7.68598e-09
2.67573e-08
-1.8556e-08
4.96767e-08
-3.51043e-08
7.63084e-08
-5.76344e-08
1.05335e-07
-8.58751e-08
1.34768e-07
-1.18888e-07
1.62295e-07
-1.55123e-07
1.85831e-07
-1.92606e-07
2.03856e-07
-2.29159e-07
2.15227e-07
-2.62641e-07
2.18699e-07
-2.91238e-07
2.1277e-07
-3.13803e-07
1.95883e-07
-3.30107e-07
1.66424e-07
-3.40801e-07
1.2205e-07
-3.46926e-07
5.79191e-08
-3.48545e-07
-2.63152e-08
-3.45185e-07
-9.57921e-08
-3.35702e-07
-1.46433e-07
-3.18779e-07
-1.83198e-07
-2.93786e-07
-2.08055e-07
-2.61218e-07
-2.2177e-07
-2.22772e-07
-2.24842e-07
-1.81109e-07
-2.17844e-07
-1.39398e-07
-2.01584e-07
-1.00705e-07
-1.77448e-07
-6.74166e-08
-1.47718e-07
-4.09074e-08
-1.15373e-07
-2.15382e-08
-8.34045e-08
-8.8902e-09
-5.41758e-08
-2.07441e-09
-2.91322e-08
-8.86097e-09
-2.22638e-09
1.03717e-08
-9.49566e-09
3.40266e-08
-2.2851e-08
6.3032e-08
-4.30074e-08
9.64648e-08
-7.0078e-08
1.32406e-07
-1.03333e-07
1.68023e-07
-1.41116e-07
2.00078e-07
-1.80999e-07
2.25713e-07
-2.20155e-07
2.43012e-07
-2.55816e-07
2.50888e-07
-2.85715e-07
2.48598e-07
-3.08489e-07
2.35544e-07
-3.23976e-07
2.1137e-07
-3.33277e-07
1.75725e-07
-3.38519e-07
1.27292e-07
-3.42346e-07
6.17468e-08
-3.46221e-07
-2.24403e-08
-3.4898e-07
-9.30332e-08
-3.48221e-07
-1.47192e-07
-3.41131e-07
-1.90288e-07
-3.25284e-07
-2.23903e-07
-2.99351e-07
-2.47703e-07
-2.63662e-07
-2.6053e-07
-2.20445e-07
-2.61061e-07
-1.73528e-07
-2.48501e-07
-1.27446e-07
-2.2353e-07
-8.62586e-08
-1.88905e-07
-5.26768e-08
-1.48955e-07
-2.78173e-08
-1.08264e-07
-1.14883e-08
-7.05048e-08
-2.67739e-09
-3.7943e-08
-1.15384e-08
-2.83586e-09
1.32076e-08
-1.20528e-08
4.32436e-08
-2.88434e-08
7.98226e-08
-5.38264e-08
1.21448e-07
-8.66656e-08
1.65245e-07
-1.25795e-07
2.07153e-07
-1.68433e-07
2.42716e-07
-2.1099e-07
2.6827e-07
-2.49776e-07
2.81798e-07
-2.81744e-07
2.82857e-07
-3.05067e-07
2.7192e-07
-3.19441e-07
2.49918e-07
-3.26097e-07
2.18026e-07
-3.27514e-07
1.77142e-07
-3.26987e-07
1.26765e-07
-3.28254e-07
6.30137e-08
-3.33845e-07
-1.68495e-08
-3.42265e-07
-8.46133e-08
-3.50549e-07
-1.38908e-07
-3.55076e-07
-1.85761e-07
-3.51949e-07
-2.27029e-07
-3.37663e-07
-2.6199e-07
-3.10086e-07
-2.88107e-07
-2.6956e-07
-3.01588e-07
-2.19459e-07
-2.98602e-07
-1.65561e-07
-2.77428e-07
-1.14266e-07
-2.402e-07
-7.06798e-08
-1.92541e-07
-3.75963e-08
-1.41347e-07
-1.55742e-08
-9.25269e-08
-3.62939e-09
-4.98878e-08
-1.51677e-08
-3.74699e-09
1.69546e-08
-1.58092e-08
5.53058e-08
-3.74504e-08
1.01464e-07
-6.89002e-08
1.52898e-07
-1.08876e-07
2.05221e-07
-1.54389e-07
2.52667e-07
-2.01082e-07
2.89409e-07
-2.44107e-07
3.11295e-07
-2.7927e-07
3.16962e-07
-3.03972e-07
3.07559e-07
-3.1763e-07
2.85578e-07
-3.21576e-07
2.53864e-07
-3.18566e-07
2.15016e-07
-3.12156e-07
1.70732e-07
-3.06238e-07
1.20847e-07
-3.04956e-07
6.1732e-08
-3.11433e-07
-1.03731e-08
-3.24133e-07
-7.19131e-08
-3.4023e-07
-1.22811e-07
-3.56255e-07
-1.69736e-07
-3.67826e-07
-2.15458e-07
-3.69778e-07
-2.60038e-07
-3.57025e-07
-3.00859e-07
-3.26338e-07
-3.32275e-07
-2.78419e-07
-3.46521e-07
-2.18731e-07
-3.37116e-07
-1.55946e-07
-3.02985e-07
-9.88046e-08
-2.49682e-07
-5.34196e-08
-1.86732e-07
-2.23531e-08
-1.23593e-07
-5.24029e-09
-6.70005e-08
-2.0408e-08
-5.14234e-09
2.20969e-08
-2.13802e-08
7.15437e-08
-4.97464e-08
1.2983e-07
-8.9432e-08
1.92583e-07
-1.3736e-07
2.53148e-07
-1.88395e-07
3.03702e-07
-2.36354e-07
3.37368e-07
-2.75551e-07
3.50491e-07
-3.02245e-07
3.43656e-07
-3.15389e-07
3.20703e-07
-3.16465e-07
2.86654e-07
-3.08687e-07
2.46087e-07
-2.96038e-07
2.02366e-07
-2.82535e-07
1.5723e-07
-2.71976e-07
1.10287e-07
-2.68254e-07
5.80104e-08
-2.74588e-07
-4.03927e-09
-2.89533e-07
-5.69683e-08
-3.10813e-07
-1.01531e-07
-3.359e-07
-1.44649e-07
-3.61185e-07
-1.90174e-07
-3.81323e-07
-2.39899e-07
-3.89202e-07
-2.9298e-07
-3.77414e-07
-3.44062e-07
-3.41517e-07
-3.82417e-07
-2.83401e-07
-3.95233e-07
-2.11893e-07
-3.74493e-07
-1.3953e-07
-3.22045e-07
-7.76863e-08
-2.48576e-07
-3.32137e-08
-1.68066e-07
-7.92135e-09
-9.22929e-08
-2.83294e-08
-7.23554e-09
2.93325e-08
-2.93118e-08
9.36199e-08
-6.62362e-08
1.66754e-07
-1.14944e-07
2.41291e-07
-1.69404e-07
3.07608e-07
-2.21823e-07
3.56121e-07
-2.64679e-07
3.80224e-07
-2.92767e-07
3.78579e-07
-3.04391e-07
3.5528e-07
-3.01251e-07
3.17563e-07
-2.87301e-07
2.72703e-07
-2.67297e-07
2.26083e-07
-2.45692e-07
1.80761e-07
-2.26172e-07
1.37709e-07
-2.11804e-07
9.59199e-08
-2.05727e-07
5.19336e-08
-2.1085e-07
1.08339e-09
-2.25786e-07
-4.20327e-08
-2.4882e-07
-7.84965e-08
-2.78613e-07
-1.14857e-07
-3.13166e-07
-1.5562e-07
-3.48681e-07
-2.04384e-07
-3.78384e-07
-2.63278e-07
-3.92495e-07
-3.29951e-07
-3.80952e-07
-3.93961e-07
-3.38623e-07
-4.37562e-07
-2.69781e-07
-4.43335e-07
-1.87712e-07
-4.04113e-07
-1.0932e-07
-3.26969e-07
-4.84176e-08
-2.28968e-07
-1.19041e-08
-1.28806e-07
-4.02334e-08
-1.02266e-08
3.95591e-08
-3.97368e-08
1.2313e-07
-8.58375e-08
2.12855e-07
-1.41345e-07
2.96799e-07
-1.96266e-07
3.62528e-07
-2.40677e-07
4.00533e-07
-2.67607e-07
4.07154e-07
-2.74698e-07
3.8567e-07
-2.6408e-07
3.44662e-07
-2.40815e-07
2.94297e-07
-2.10844e-07
2.42733e-07
-1.79403e-07
1.94642e-07
-1.50347e-07
1.51705e-07
-1.26269e-07
1.13632e-07
-1.09082e-07
7.87323e-08
-1.00882e-07
4.37337e-08
-1.04036e-07
4.23787e-09
-1.17099e-07
-2.89699e-08
-1.38697e-07
-5.68985e-08
-1.68387e-07
-8.51663e-08
-2.05787e-07
-1.18221e-07
-2.49538e-07
-1.60633e-07
-2.95629e-07
-2.17186e-07
-3.35679e-07
-2.89901e-07
-3.57206e-07
-3.72434e-07
-3.47686e-07
-4.47081e-07
-3.01902e-07
-4.8912e-07
-2.27041e-07
-4.78974e-07
-1.41287e-07
-4.12723e-07
-6.60361e-08
-3.04219e-07
-1.70098e-08
-1.77833e-07
-5.72432e-08
-1.44226e-08
5.39816e-08
-5.24484e-08
1.61156e-07
-1.05622e-07
2.66029e-07
-1.60551e-07
3.51727e-07
-2.03657e-07
4.05635e-07
-2.25594e-07
4.2247e-07
-2.23492e-07
4.05052e-07
-2.00493e-07
3.62671e-07
-1.63383e-07
3.07552e-07
-1.19753e-07
2.50667e-07
-7.5898e-08
1.98878e-07
-3.59893e-08
1.54733e-07
-2.28226e-09
1.17998e-07
2.41729e-08
8.71766e-08
4.27382e-08
6.0167e-08
5.23629e-08
3.4109e-08
5.13097e-08
5.2911e-09
4.10763e-08
-1.87365e-08
2.29036e-08
-3.87258e-08
-3.13371e-09
-5.91289e-08
-3.77431e-08
-8.36112e-08
-8.16692e-08
-1.16707e-07
-1.34542e-07
-1.64314e-07
-1.92513e-07
-2.3193e-07
-2.46119e-07
-3.18828e-07
-2.79824e-07
-4.13376e-07
-2.78396e-07
-4.90548e-07
-2.35936e-07
-5.21435e-07
-1.62691e-07
-4.85967e-07
-8.27948e-08
-3.84116e-07
-2.29518e-08
-2.37676e-07
-8.0195e-08
-2.05858e-08
7.45675e-08
-6.72049e-08
2.07775e-07
-1.20872e-07
3.19696e-07
-1.61393e-07
3.92248e-07
-1.75425e-07
4.19667e-07
-1.59592e-07
4.06637e-07
-1.19026e-07
3.64486e-07
-6.33353e-08
3.0698e-07
-2.43893e-09
2.46656e-07
5.60915e-08
1.92136e-07
1.07835e-07
1.47134e-07
1.50999e-07
1.11569e-07
1.8538e-07
8.36178e-08
2.11413e-07
6.11429e-08
2.29491e-07
4.20892e-08
2.3938e-07
2.42201e-08
2.39923e-07
4.74808e-09
2.32566e-07
-1.13791e-08
2.1851e-07
-2.46698e-08
1.97648e-07
-3.82677e-08
1.68941e-07
-5.49039e-08
1.30475e-07
-7.82409e-08
7.98218e-08
-1.13661e-07
1.553e-08
-1.67638e-07
-5.86205e-08
-2.44678e-07
-1.31886e-07
-3.40111e-07
-1.84747e-07
-4.37687e-07
-1.97336e-07
-5.08845e-07
-1.62475e-07
-5.20829e-07
-9.5399e-08
-4.51191e-07
-2.99092e-08
-3.03165e-07
-1.10104e-07
-2.98556e-08
1.04423e-07
-8.22883e-08
2.60208e-07
-1.2263e-07
3.60037e-07
-1.28887e-07
3.98505e-07
-9.67638e-08
3.87544e-07
-3.47863e-08
3.44659e-07
4.30463e-08
2.86654e-07
1.23542e-07
2.26485e-07
1.9762e-07
1.72578e-07
2.60829e-07
1.28927e-07
3.12188e-07
9.57752e-08
3.52582e-07
7.11752e-08
3.83512e-07
5.26885e-08
4.06385e-07
3.82696e-08
4.22164e-07
2.63101e-08
4.3109e-07
1.52944e-08
4.32437e-07
3.40086e-09
4.27469e-07
-6.41137e-09
4.17248e-07
-1.4449e-08
4.01677e-07
-2.2696e-08
3.79711e-07
-3.29386e-08
3.49166e-07
-4.76952e-08
3.06446e-07
-7.09414e-08
2.47032e-07
-1.08224e-07
1.67588e-07
-1.65234e-07
7.13749e-08
-2.43897e-07
-2.73453e-08
-3.38967e-07
-1.03059e-07
-4.33131e-07
-1.29479e-07
-4.94409e-07
-9.89833e-08
-4.81687e-07
-3.81576e-08
-3.63991e-07
-1.48262e-07
-4.14435e-08
1.45867e-07
-8.86171e-08
3.07381e-07
-9.14147e-08
3.62835e-07
-4.23532e-08
3.49444e-07
4.31821e-08
3.02008e-07
1.44503e-07
2.43339e-07
2.44405e-07
1.86751e-07
3.32501e-07
1.3839e-07
4.0474e-07
1.00338e-07
4.61372e-07
7.22957e-08
5.04699e-07
5.24473e-08
5.3743e-07
3.84448e-08
5.61861e-07
2.82577e-08
5.7967e-07
2.04606e-08
5.91912e-07
1.40678e-08
5.98977e-07
8.22934e-09
6.00427e-07
1.95072e-09
5.97241e-07
-3.22458e-09
5.90249e-07
-7.45702e-09
5.79376e-07
-1.18235e-08
5.63758e-07
-1.73204e-08
5.41464e-07
-2.54012e-08
5.08972e-07
-3.84497e-08
4.60817e-07
-6.0069e-08
3.90352e-07
-9.47689e-08
2.93148e-07
-1.46693e-07
1.72687e-07
-2.18506e-07
4.71178e-08
-3.07561e-07
-4.95696e-08
-3.97722e-07
-8.17899e-08
-4.49466e-07
-4.52106e-08
-4.0057e-07
-1.93473e-07
-5.02744e-08
1.96141e-07
-5.95683e-08
3.16675e-07
8.35693e-09
2.9491e-07
1.20933e-07
2.36868e-07
2.45084e-07
1.77857e-07
3.60238e-07
1.28185e-07
4.56611e-07
9.03772e-08
5.32068e-07
6.29326e-08
5.88744e-07
4.36625e-08
6.30465e-07
3.05751e-08
6.61076e-07
2.18365e-08
6.83621e-07
1.58997e-08
7.00213e-07
1.16652e-08
7.12225e-07
8.44867e-09
7.20475e-07
5.81759e-09
7.2529e-07
3.41396e-09
7.26414e-07
8.27261e-10
7.24499e-07
-1.3092e-09
7.20103e-07
-3.06159e-09
7.13166e-07
-4.88657e-09
7.03062e-07
-7.2163e-09
6.88361e-07
-1.06997e-08
6.66332e-07
-1.64205e-08
6.3235e-07
-2.60875e-08
5.79673e-07
-4.20918e-08
5.00443e-07
-6.74627e-08
3.8853e-07
-1.06594e-07
2.46132e-07
-1.65163e-07
9.41023e-08
-2.45692e-07
-2.07251e-08
-3.34639e-07
-4.47034e-08
-3.76592e-07
-2.38176e-07
-2.76969e-08
2.23838e-07
7.10304e-08
2.17948e-07
2.24275e-07
1.41665e-07
3.69883e-07
9.12605e-08
4.89668e-07
5.80721e-08
5.81266e-07
3.65867e-08
6.48223e-07
2.34199e-08
6.95857e-07
1.52991e-08
7.29316e-07
1.02031e-08
7.52892e-07
6.99981e-09
7.69762e-07
4.96638e-09
7.82041e-07
3.62054e-09
7.91039e-07
2.66689e-09
7.97549e-07
1.93916e-09
8.02027e-07
1.33952e-09
8.04655e-07
7.86167e-10
8.05295e-07
1.87237e-10
8.04296e-07
-3.10216e-10
8.01956e-07
-7.21864e-10
7.98227e-07
-1.15779e-09
7.92735e-07
-1.72449e-09
7.84624e-07
-2.58796e-09
7.7223e-07
-4.02716e-09
7.52635e-07
-6.49235e-09
7.21203e-07
-1.06596e-08
6.71287e-07
-1.75469e-08
5.93873e-07
-2.91795e-08
4.78492e-07
-4.97828e-08
3.19292e-07
-8.64915e-08
1.33201e-07
-1.48548e-07
-5.18009e-09
-2.38211e-07
-2.43356e-07
2.23838e-07
4.41786e-07
5.83451e-07
6.74711e-07
7.32783e-07
7.6937e-07
7.9279e-07
8.08089e-07
8.18292e-07
8.25292e-07
8.30258e-07
8.33879e-07
8.36546e-07
8.38485e-07
8.39824e-07
8.4061e-07
8.40798e-07
8.40487e-07
8.39766e-07
8.38608e-07
8.36883e-07
8.34295e-07
8.30268e-07
8.23776e-07
8.13116e-07
7.95569e-07
7.6639e-07
7.16607e-07
6.30115e-07
4.81567e-07
2.43356e-07
)
;

boundaryField
{
    movingWall
    {
        type            calculated;
        value           uniform 0;
    }
    fixedWalls
    {
        type            calculated;
        value           uniform 0;
    }
    frontAndBack
    {
        type            empty;
        value           nonuniform List<scalar> 0();
    }
}


// ************************************************************************* //
