/*--------------------------------*- C++ -*----------------------------------*\
| =========                 |                                                 |
| \\      /  F ield         | OpenFOAM: The Open Source CFD Toolbox           |
|  \\    /   O peration     | Version:  2206                                  |
|   \\  /    A nd           | Website:  www.openfoam.com                      |
|    \\/     M anipulation  |                                                 |
\*---------------------------------------------------------------------------*/
FoamFile
{
    version     2.0;
    format      ascii;
    arch        "LSB;label=64;scalar=64";
    class       surfaceScalarField;
    location    "20";
    object      phi_0;
}
// * * * * * * * * * * * * * * * * * * * * * * * * * * * * * * * * * * * * * //

dimensions      [0 3 -1 0 0 0 0];

oriented        oriented;

internalField   nonuniform List<scalar> 
1984
(
3.90524e-12
-3.91189e-12
2.32936e-12
1.57561e-12
-1.37511e-11
1.60802e-11
-4.98087e-11
3.60572e-11
-1.08288e-10
5.84792e-11
-1.89148e-10
8.08594e-11
-2.90594e-10
1.01446e-10
-4.10192e-10
1.19597e-10
-5.45834e-10
1.35641e-10
-6.958e-10
1.49965e-10
-8.57747e-10
1.61947e-10
-1.0272e-09
1.69448e-10
-1.19595e-09
1.6875e-10
-1.35031e-09
1.54365e-10
-1.46929e-09
1.18979e-10
-1.52219e-09
5.28951e-11
-1.48131e-09
-4.08734e-11
-1.37043e-09
-1.10886e-10
-1.22008e-09
-1.50345e-10
-1.05205e-09
-1.68034e-10
-8.81035e-10
-1.71017e-10
-7.16167e-10
-1.6487e-10
-5.6265e-10
-1.53518e-10
-4.2334e-10
-1.39312e-10
-3.003e-10
-1.23041e-10
-1.95849e-10
-1.04452e-10
-1.12529e-10
-8.33217e-11
-5.21686e-11
-6.03611e-11
-1.48079e-11
-3.73617e-11
2.02859e-12
-1.68373e-11
3.90673e-12
-1.87894e-12
3.90644e-12
-1.56489e-12
-2.34722e-12
-2.44362e-11
2.44466e-11
-8.90092e-11
8.06527e-11
-2.11179e-10
1.58227e-10
-4.00721e-10
2.4802e-10
-6.60416e-10
3.40553e-10
-9.87003e-10
4.28032e-10
-1.37401e-09
5.06603e-10
-1.81479e-09
5.76417e-10
-2.30319e-09
6.38364e-10
-2.83091e-09
6.89671e-10
-3.38289e-09
7.21424e-10
-3.93206e-09
7.17916e-10
-4.43369e-09
6.55998e-10
-4.81907e-09
5.04361e-10
-4.98862e-09
2.22436e-10
-4.85412e-09
-1.75372e-10
-4.49243e-09
-4.72583e-10
-4.00262e-09
-6.40153e-10
-3.45565e-09
-7.1501e-10
-2.89919e-09
-7.27477e-10
-2.36302e-09
-7.0104e-10
-1.86433e-09
-6.52215e-10
-1.41291e-09
-5.90732e-10
-1.01592e-09
-5.20031e-10
-6.80623e-10
-4.39749e-10
-4.13803e-10
-3.50144e-10
-2.18808e-10
-2.55358e-10
-9.28052e-11
-1.63365e-10
-2.58668e-11
-8.3777e-11
-1.85741e-12
-2.58894e-11
2.04876e-12
-1.60443e-11
1.36969e-11
-8.06151e-11
8.9017e-11
-2.19019e-10
2.19056e-10
-4.55802e-10
3.95009e-10
-8.09114e-10
6.01333e-10
-1.28697e-09
8.18412e-10
-1.88691e-09
1.02797e-09
-2.59952e-09
1.21921e-09
-3.41339e-09
1.39028e-09
-4.31672e-09
1.5417e-09
-5.29333e-09
1.66628e-09
-6.31462e-09
1.74271e-09
-7.33001e-09
1.73331e-09
-8.25649e-09
1.58247e-09
-8.96664e-09
1.21451e-09
-9.27667e-09
5.32465e-10
-9.02537e-09
-4.2667e-10
-8.35499e-09
-1.14297e-09
-7.44842e-09
-1.54672e-09
-6.43681e-09
-1.72663e-09
-5.4081e-09
-1.75618e-09
-4.41743e-09
-1.69171e-09
-3.49693e-09
-1.57272e-09
-2.66531e-09
-1.42235e-09
-1.93606e-09
-1.24928e-09
-1.32162e-09
-1.05419e-09
-8.3189e-10
-8.39875e-10
-4.69456e-10
-6.17794e-10
-2.26164e-10
-4.06658e-10
-8.35725e-11
-2.2637e-10
-1.67471e-11
-9.27158e-11
-1.46986e-11
-3.60547e-11
4.97512e-11
-1.5848e-10
2.11442e-10
-3.95797e-10
4.56373e-10
-7.78235e-10
7.77447e-10
-1.33086e-09
1.15395e-09
-2.06737e-09
1.55493e-09
-2.9877e-09
1.9483e-09
-4.08101e-09
2.31251e-09
-5.3316e-09
2.64087e-09
-6.72141e-09
2.93151e-09
-8.22468e-09
3.16955e-09
-9.79649e-09
3.31452e-09
-1.13583e-08
3.29512e-09
-1.27819e-08
3.0061e-09
-1.38711e-08
2.30369e-09
-1.43435e-08
1.00488e-09
-1.39531e-08
-8.17129e-10
-1.29194e-08
-2.17664e-09
-1.15236e-08
-2.94251e-09
-9.96712e-09
-3.28311e-09
-8.38504e-09
-3.33826e-09
-6.86222e-09
-3.21454e-09
-5.44853e-09
-2.98641e-09
-4.17327e-09
-2.69762e-09
-3.05685e-09
-2.3657e-09
-2.11639e-09
-1.99466e-09
-1.36338e-09
-1.59288e-09
-7.98032e-10
-1.18315e-09
-4.06393e-10
-7.98298e-10
-1.63001e-10
-4.69763e-10
-3.71756e-11
-2.18542e-10
-5.18744e-11
-5.87599e-11
1.08511e-10
-2.49695e-10
4.02376e-10
-6.05785e-10
8.12463e-10
-1.16161e-09
1.33328e-09
-1.94701e-09
1.93935e-09
-2.98002e-09
2.58793e-09
-4.26302e-09
3.2313e-09
-5.7847e-09
3.8342e-09
-7.52598e-09
4.38214e-09
-9.46245e-09
4.86798e-09
-1.15577e-08
5.26476e-09
-1.3748e-08
5.50487e-09
-1.59232e-08
5.47037e-09
-1.79042e-08
4.98706e-09
-1.94173e-08
3.81681e-09
-2.007e-08
1.65756e-09
-1.95214e-08
-1.36572e-09
-1.80788e-08
-3.6193e-09
-1.61331e-08
-4.88813e-09
-1.39647e-08
-5.45158e-09
-1.17613e-08
-5.54164e-09
-9.6413e-09
-5.33454e-09
-7.67454e-09
-4.95317e-09
-5.90198e-09
-4.47018e-09
-4.35101e-09
-3.91667e-09
-3.04253e-09
-3.30314e-09
-1.98864e-09
-2.64677e-09
-1.18708e-09
-1.98471e-09
-6.19495e-10
-1.36589e-09
-2.55571e-10
-8.33688e-10
-6.02172e-11
-4.13898e-10
-1.12092e-10
-8.2049e-11
1.90559e-10
-3.46378e-10
6.66704e-10
-8.33242e-10
1.29933e-09
-1.5824e-09
2.08243e-09
-2.62732e-09
2.98426e-09
-3.98848e-09
3.9491e-09
-5.66937e-09
4.91218e-09
-7.65796e-09
5.82279e-09
-9.93222e-09
6.6564e-09
-1.24617e-08
7.39746e-09
-1.51987e-08
8.00173e-09
-1.80593e-08
8.36545e-09
-2.08986e-08
8.30974e-09
-2.34822e-08
7.57068e-09
-2.54531e-08
5.78762e-09
-2.62996e-08
2.50406e-09
-2.55789e-08
-2.08643e-09
-2.36932e-08
-5.505e-09
-2.11522e-08
-7.42907e-09
-1.8321e-08
-8.2828e-09
-1.54446e-08
-8.41803e-09
-1.26776e-08
-8.10155e-09
-1.01114e-08
-7.51933e-09
-7.79933e-09
-6.7823e-09
-5.77533e-09
-5.94067e-09
-4.06366e-09
-5.01481e-09
-2.67731e-09
-4.03313e-09
-1.61291e-09
-3.04911e-09
-8.49599e-10
-2.1292e-09
-3.53338e-10
-1.32995e-09
-8.37515e-11
-6.83485e-10
-1.95843e-10
-1.04818e-10
2.95377e-10
-4.43517e-10
1.0054e-09
-1.06665e-09
1.92246e-09
-2.02148e-09
3.03726e-09
-3.34573e-09
4.30851e-09
-5.06126e-09
5.66463e-09
-7.17081e-09
7.02173e-09
-9.66025e-09
8.31223e-09
-1.25041e-08
9.50022e-09
-1.56658e-08
1.05592e-08
-1.9086e-08
1.1422e-08
-2.26595e-08
1.19389e-08
-2.62045e-08
1.18547e-08
-2.94277e-08
1.07939e-08
-3.1884e-08
8.24387e-09
-3.29363e-08
3.55643e-09
-3.20338e-08
-2.98896e-09
-2.96789e-08
-7.85988e-09
-2.65065e-08
-1.06015e-08
-2.29712e-08
-1.18181e-08
-1.93789e-08
-1.20104e-08
-1.59227e-08
-1.15578e-08
-1.27171e-08
-1.07249e-08
-9.82793e-09
-9.67143e-09
-7.29616e-09
-8.47244e-09
-5.14986e-09
-7.16111e-09
-3.40435e-09
-5.77864e-09
-2.05702e-09
-4.39644e-09
-1.08555e-09
-3.10067e-09
-4.51467e-10
-1.96403e-09
-1.06731e-10
-1.02822e-09
-3.02575e-10
-1.27491e-10
4.22868e-10
-5.41842e-10
1.41975e-09
-1.30638e-09
2.687e-09
-2.47864e-09
4.20951e-09
-4.10262e-09
5.9325e-09
-6.20197e-09
7.76398e-09
-8.77746e-09
9.59723e-09
-1.1811e-08
1.13457e-08
-1.5272e-08
1.29613e-08
-1.91171e-08
1.44042e-08
-2.32744e-08
1.55793e-08
-2.76156e-08
1.628e-08
-3.19194e-08
1.61586e-08
-3.58297e-08
1.47042e-08
-3.88075e-08
1.12216e-08
-4.00828e-08
4.83173e-09
-3.89888e-08
-4.08296e-09
-3.61338e-08
-1.07148e-08
-3.22853e-08
-1.445e-08
-2.79934e-08
-1.61101e-08
-2.36293e-08
-1.63745e-08
-1.94283e-08
-1.57588e-08
-1.55298e-08
-1.46235e-08
-1.20135e-08
-1.31877e-08
-8.92837e-09
-1.15576e-08
-6.30817e-09
-9.7813e-09
-4.17249e-09
-7.91432e-09
-2.52071e-09
-6.04822e-09
-1.32856e-09
-4.29281e-09
-5.51085e-10
-2.74151e-09
-1.29687e-10
-1.44962e-09
-4.32262e-10
-1.52122e-10
5.74989e-10
-6.48932e-10
1.91656e-09
-1.56863e-09
3.6067e-09
-2.98169e-09
5.62258e-09
-4.94097e-09
7.89177e-09
-7.47333e-09
1.02963e-08
-1.05774e-08
1.27013e-08
-1.42295e-08
1.49978e-08
-1.83918e-08
1.71236e-08
-2.30118e-08
1.90242e-08
-2.8003e-08
2.05704e-08
-3.32106e-08
2.14876e-08
-3.83689e-08
2.13169e-08
-4.30516e-08
1.93869e-08
-4.66159e-08
1.4786e-08
-4.81452e-08
6.36103e-09
-4.68434e-08
-5.38474e-09
-4.34337e-08
-1.41245e-08
-3.88294e-08
-1.90543e-08
-3.36867e-08
-2.12528e-08
-2.84506e-08
-2.16106e-08
-2.34045e-08
-2.08049e-08
-1.87169e-08
-1.9311e-08
-1.44846e-08
-1.742e-08
-1.07671e-08
-1.5275e-08
-7.60644e-09
-1.2942e-08
-5.02821e-09
-1.04926e-08
-3.03399e-09
-8.04244e-09
-1.59607e-09
-5.73074e-09
-6.60306e-10
-3.67728e-09
-1.54807e-10
-1.95512e-09
-5.87069e-10
-1.81903e-10
7.56891e-10
-7.77715e-10
2.51237e-09
-1.88315e-09
4.71213e-09
-3.58451e-09
7.32394e-09
-5.94617e-09
1.02534e-08
-9.00008e-09
1.33503e-08
-1.2743e-08
1.64442e-08
-1.7144e-08
1.93988e-08
-2.21556e-08
2.21352e-08
-2.77126e-08
2.45812e-08
-3.37094e-08
2.65672e-08
-3.99587e-08
2.77369e-08
-4.61409e-08
2.74991e-08
-5.17465e-08
2.49925e-08
-5.60115e-08
1.90509e-08
-5.78488e-08
8.19831e-09
-5.631e-08
-6.92349e-09
-5.22491e-08
-1.81854e-08
-4.67481e-08
-2.45553e-08
-4.05879e-08
-2.7413e-08
-3.4302e-08
-2.78964e-08
-2.8233e-08
-2.68739e-08
-2.25867e-08
-2.49574e-08
-1.74823e-08
-2.25244e-08
-1.29944e-08
-1.97629e-08
-9.17633e-09
-1.67601e-08
-6.06153e-09
-1.36074e-08
-3.65355e-09
-1.04504e-08
-1.91931e-09
-7.46498e-09
-7.92682e-10
-4.80391e-09
-1.85433e-10
-2.56237e-09
-7.72502e-10
-2.20759e-10
9.77649e-10
-9.44876e-10
3.23649e-09
-2.2899e-09
6.05715e-09
-4.36199e-09
9.39603e-09
-7.24026e-09
1.31317e-08
-1.09635e-08
1.70735e-08
-1.55264e-08
2.10072e-08
-2.0889e-08
2.47614e-08
-2.69902e-08
2.82364e-08
-3.37471e-08
3.13382e-08
-4.10277e-08
3.38478e-08
-4.86012e-08
3.53105e-08
-5.60789e-08
3.49768e-08
-6.2847e-08
3.17606e-08
-6.7993e-08
2.41969e-08
-7.02234e-08
1.04287e-08
-6.84025e-08
-8.7444e-09
-6.35385e-08
-2.30493e-08
-5.69174e-08
-3.11764e-08
-4.94731e-08
-3.48574e-08
-4.18512e-08
-3.55183e-08
-3.44719e-08
-3.42533e-08
-2.75914e-08
-3.18378e-08
-2.13613e-08
-2.87545e-08
-1.58776e-08
-2.52466e-08
-1.12097e-08
-2.1428e-08
-7.40141e-09
-1.74156e-08
-4.45843e-09
-1.33934e-08
-2.34042e-09
-9.58299e-09
-9.65787e-10
-6.17854e-09
-2.25694e-10
-3.30247e-09
-9.98196e-10
-2.73881e-10
1.25153e-09
-1.17283e-09
4.13543e-09
-2.84338e-09
7.72771e-09
-5.4179e-09
1.19705e-08
-8.99476e-09
1.67086e-08
-1.36215e-08
2.17002e-08
-1.92897e-08
2.66754e-08
-2.59464e-08
3.14181e-08
-3.35108e-08
3.58008e-08
-4.18741e-08
3.97014e-08
-5.08655e-08
4.28391e-08
-6.01935e-08
4.46385e-08
-6.93759e-08
4.41592e-08
-7.76638e-08
4.00486e-08
-8.39579e-08
3.0491e-08
-8.67087e-08
1.31795e-08
-8.45443e-08
-1.09088e-08
-7.86585e-08
-2.89351e-08
-7.05879e-08
-3.92471e-08
-6.14597e-08
-4.39856e-08
-5.20663e-08
-4.49117e-08
-4.29342e-08
-4.33854e-08
-3.43923e-08
-4.03797e-08
-2.66399e-08
-3.6507e-08
-1.98059e-08
-3.20805e-08
-1.39836e-08
-2.72503e-08
-9.23187e-09
-2.21674e-08
-5.55983e-09
-1.70654e-08
-2.91775e-09
-1.22251e-08
-1.20363e-09
-7.89267e-09
-2.81155e-10
-4.22494e-09
-1.27935e-09
-3.4938e-10
1.60091e-09
-1.49647e-09
5.28252e-09
-3.62842e-09
9.85966e-09
-6.91389e-09
1.5256e-08
-1.14775e-08
2.12722e-08
-1.73778e-08
2.76005e-08
-2.46004e-08
3.3898e-08
-3.30718e-08
3.98895e-08
-4.26805e-08
4.54095e-08
-5.32763e-08
5.02973e-08
-6.46293e-08
5.41921e-08
-7.63584e-08
5.63676e-08
-8.78507e-08
5.56516e-08
-9.81781e-08
5.0376e-08
-1.06004e-07
3.83169e-08
-1.09462e-07
1.66379e-08
-1.06881e-07
-1.34906e-08
-9.96737e-08
-3.61422e-08
-8.96854e-08
-4.92354e-08
-7.82876e-08
-5.53833e-08
-6.64693e-08
-5.673e-08
-5.4908e-08
-5.49466e-08
-4.40418e-08
-5.1246e-08
-3.41452e-08
-4.64036e-08
-2.54005e-08
-4.08252e-08
-1.79395e-08
-3.47113e-08
-1.18453e-08
-2.82615e-08
-7.13408e-09
-2.17767e-08
-3.7438e-09
-1.56154e-08
-1.54425e-09
-1.00922e-08
-3.60666e-10
-5.40852e-09
-1.64002e-09
-4.61326e-10
2.06223e-09
-1.97607e-09
6.79726e-09
-4.7909e-09
1.26745e-08
-9.12713e-09
1.95922e-08
-1.51464e-08
2.72915e-08
-2.29212e-08
3.53752e-08
-3.24242e-08
4.34011e-08
-4.35463e-08
5.10116e-08
-5.61232e-08
5.79864e-08
-6.99349e-08
6.41089e-08
-8.46539e-08
6.89111e-08
-9.97605e-08
7.14743e-08
-1.14454e-07
7.03445e-08
-1.27564e-07
6.34869e-08
-1.37462e-07
4.82144e-08
-1.419e-07
2.1076e-08
-1.3883e-07
-1.65608e-08
-1.29917e-07
-4.50552e-08
-1.17367e-07
-6.17853e-08
-1.02853e-07
-6.98972e-08
-8.76276e-08
-7.19553e-08
-7.25894e-08
-6.99848e-08
-5.83484e-08
-6.5487e-08
-4.53063e-08
-5.94457e-08
-3.37383e-08
-5.23932e-08
-2.38443e-08
-4.46053e-08
-1.57509e-08
-3.63549e-08
-9.48877e-09
-2.80389e-08
-4.98025e-09
-2.01239e-08
-2.05442e-09
-1.3018e-08
-4.79822e-10
-6.98313e-09
-2.11984e-09
-6.35665e-10
2.6979e-09
-2.72259e-09
8.88419e-09
-6.59914e-09
1.6551e-08
-1.25665e-08
2.55596e-08
-2.08404e-08
3.55654e-08
-3.15086e-08
4.60434e-08
-4.45154e-08
5.64078e-08
-5.9683e-08
6.61792e-08
-7.67479e-08
7.50512e-08
-9.53598e-08
8.27208e-08
-1.15019e-07
8.85706e-08
-1.3498e-07
9.1435e-08
-1.54162e-07
8.95261e-08
-1.71081e-07
8.04062e-08
-1.83767e-07
6.09005e-08
-1.89567e-07
2.68761e-08
-1.85992e-07
-2.01357e-08
-1.74951e-07
-5.60961e-08
-1.59022e-07
-7.77146e-08
-1.40212e-07
-8.87074e-08
-1.20114e-07
-9.20535e-08
-9.99536e-08
-9.01449e-08
-8.06274e-08
-8.48132e-08
-6.27664e-08
-7.73067e-08
-4.68234e-08
-6.83361e-08
-3.3131e-08
-5.82978e-08
-2.1902e-08
-4.75839e-08
-1.32006e-08
-3.67403e-08
-6.93041e-09
-2.6394e-08
-2.85936e-09
-1.70891e-08
-6.67868e-10
-9.17462e-09
-2.78771e-09
-9.24053e-10
3.62196e-09
-3.95739e-09
1.19175e-08
-9.58828e-09
2.21819e-08
-1.82453e-08
3.42166e-08
-3.02244e-08
4.75445e-08
-4.56233e-08
6.14423e-08
-6.43145e-08
7.5099e-08
-8.5973e-08
8.78377e-08
-1.10126e-07
9.92043e-08
-1.36158e-07
1.08753e-07
-1.63239e-07
1.15652e-07
-1.90234e-07
1.1843e-07
-2.15649e-07
1.14941e-07
-2.37627e-07
1.02384e-07
-2.53905e-07
7.71783e-08
-2.61549e-07
3.45211e-08
-2.57666e-07
-2.40194e-08
-2.4428e-07
-6.94823e-08
-2.2418e-07
-9.78144e-08
-1.99617e-07
-1.13271e-07
-1.72557e-07
-1.19113e-07
-1.447e-07
-1.18002e-07
-1.1743e-07
-1.12082e-07
-9.18276e-08
-1.0291e-07
-6.87179e-08
-9.14458e-08
-4.8724e-08
-7.82917e-08
-3.22522e-08
-6.40556e-08
-1.94539e-08
-4.95386e-08
-1.02178e-08
-3.56302e-08
-4.21634e-09
-2.30905e-08
-9.84752e-10
-1.24062e-08
-3.77246e-09
-1.23491e-09
4.85686e-09
-5.2841e-09
1.59667e-08
-1.27899e-08
2.96877e-08
-2.43034e-08
4.57301e-08
-4.01794e-08
6.34205e-08
-6.04803e-08
8.17432e-08
-8.4932e-08
9.95507e-08
-1.12954e-07
1.1586e-07
-1.43729e-07
1.29979e-07
-1.76224e-07
1.41248e-07
-2.09157e-07
1.48585e-07
-2.40967e-07
1.5024e-07
-2.69884e-07
1.43857e-07
-2.94048e-07
1.26549e-07
-3.11551e-07
9.46809e-08
-3.2009e-07
4.30606e-08
-3.1711e-07
-2.69995e-08
-3.04126e-07
-8.24668e-08
-2.83214e-07
-1.18727e-07
-2.56113e-07
-1.40371e-07
-2.24666e-07
-1.50561e-07
-1.90819e-07
-1.51849e-07
-1.56469e-07
-1.46432e-07
-1.23317e-07
-1.36062e-07
-9.2797e-08
-1.21966e-07
-6.60427e-08
-1.05046e-07
-4.38201e-08
-8.62782e-08
-2.64699e-08
-6.68888e-08
-1.3915e-08
-4.81851e-08
-5.74534e-09
-3.12602e-08
-1.34263e-09
-1.68089e-08
-5.11509e-09
-1.47978e-09
6.33664e-09
-6.32364e-09
2.08106e-08
-1.52821e-08
3.86461e-08
-2.8974e-08
5.9422e-08
-4.77471e-08
8.21936e-08
-7.15478e-08
1.05544e-07
-9.98577e-08
1.27861e-07
-1.31727e-07
1.4773e-07
-1.65876e-07
1.64127e-07
-2.00775e-07
1.76147e-07
-2.34709e-07
1.82518e-07
-2.65888e-07
1.8142e-07
-2.9268e-07
1.70649e-07
-3.13846e-07
1.47714e-07
-3.28604e-07
1.09439e-07
-3.36216e-07
5.06729e-08
-3.35325e-07
-2.78906e-08
-3.26432e-07
-9.13593e-08
-3.10045e-07
-1.35114e-07
-2.86532e-07
-1.63884e-07
-2.56788e-07
-1.80305e-07
-2.22372e-07
-1.86265e-07
-1.85334e-07
-1.83469e-07
-1.47932e-07
-1.73464e-07
-1.1235e-07
-1.57548e-07
-8.04571e-08
-1.36939e-07
-5.35939e-08
-1.13141e-07
-3.24483e-08
-8.80344e-08
-1.70791e-08
-6.35543e-08
-7.05652e-09
-4.1283e-08
-1.64994e-09
-2.22156e-08
-6.76503e-09
-1.79402e-09
8.13067e-09
-7.65917e-09
2.66757e-08
-1.84745e-08
4.94615e-08
-3.49155e-08
7.58631e-08
-5.72624e-08
1.0454e-07
-8.52232e-08
1.33505e-07
-1.17851e-07
1.60489e-07
-1.53609e-07
1.83488e-07
-1.90553e-07
2.01071e-07
-2.26545e-07
2.12139e-07
-2.59484e-07
2.15457e-07
-2.87588e-07
2.09524e-07
-3.09733e-07
1.92795e-07
-3.25699e-07
1.6368e-07
-3.36129e-07
1.19868e-07
-3.42041e-07
5.65856e-08
-3.43504e-07
-2.64276e-08
-3.40064e-07
-9.47995e-08
-3.30605e-07
-1.44573e-07
-3.13851e-07
-1.80638e-07
-2.89206e-07
-2.0495e-07
-2.57171e-07
-2.183e-07
-2.1941e-07
-2.2123e-07
-1.7851e-07
-2.14365e-07
-1.37541e-07
-1.98517e-07
-9.94861e-08
-1.74993e-07
-6.66876e-08
-1.4594e-07
-4.05166e-08
-1.14205e-07
-2.13578e-08
-8.27132e-08
-8.8255e-09
-5.38152e-08
-2.06172e-09
-2.89794e-08
-8.82675e-09
-2.21967e-09
1.03503e-08
-9.45835e-09
3.39144e-08
-2.27414e-08
6.27445e-08
-4.27609e-08
9.58825e-08
-6.96047e-08
1.31384e-07
-1.02524e-07
1.66425e-07
-1.39861e-07
1.97825e-07
-1.79208e-07
2.22835e-07
-2.17784e-07
2.39647e-07
-2.52873e-07
2.47228e-07
-2.82253e-07
2.44837e-07
-3.04594e-07
2.31865e-07
-3.19747e-07
2.07948e-07
-3.28804e-07
1.72737e-07
-3.33861e-07
1.24925e-07
-3.37512e-07
6.02372e-08
-3.41191e-07
-2.27491e-08
-3.43752e-07
-9.22388e-08
-3.42834e-07
-1.45491e-07
-3.35691e-07
-1.8778e-07
-3.19973e-07
-2.20669e-07
-2.94408e-07
-2.43864e-07
-2.59341e-07
-2.56298e-07
-2.16939e-07
-2.56767e-07
-1.70911e-07
-2.44544e-07
-1.2566e-07
-2.20245e-07
-8.51524e-08
-1.86447e-07
-5.20649e-08
-1.47293e-07
-2.75265e-08
-1.07252e-07
-1.1381e-08
-6.99608e-08
-2.65563e-09
-3.77047e-08
-1.14824e-08
-2.82536e-09
1.31757e-08
-1.19982e-08
4.30872e-08
-2.86902e-08
7.94366e-08
-5.34952e-08
1.20687e-07
-8.60525e-08
1.63942e-07
-1.24782e-07
2.05154e-07
-1.6691e-07
2.39953e-07
-2.08883e-07
2.64809e-07
-2.47072e-07
2.77835e-07
-2.78491e-07
2.78648e-07
-3.01361e-07
2.67706e-07
-3.15402e-07
2.45906e-07
-3.21844e-07
2.1439e-07
-3.23135e-07
1.74028e-07
-3.22522e-07
1.24311e-07
-3.23667e-07
6.13828e-08
-3.29047e-07
-1.73692e-08
-3.37175e-07
-8.41104e-08
-3.45124e-07
-1.37542e-07
-3.49342e-07
-1.83562e-07
-3.46034e-07
-2.23978e-07
-3.31808e-07
-2.5809e-07
-3.04628e-07
-2.83478e-07
-2.64841e-07
-2.96554e-07
-2.15719e-07
-2.93666e-07
-1.62864e-07
-2.731e-07
-1.1251e-07
-2.36801e-07
-6.96636e-08
-1.90139e-07
-3.70929e-08
-1.39822e-07
-1.53808e-08
-9.16728e-08
-3.58828e-09
-4.94971e-08
-1.50707e-08
-3.73043e-09
1.69061e-08
-1.57291e-08
5.50859e-08
-3.72377e-08
1.00945e-07
-6.84619e-08
1.51912e-07
-1.08099e-07
2.03579e-07
-1.53157e-07
2.50212e-07
-1.99299e-07
2.86094e-07
-2.41731e-07
3.0724e-07
-2.76331e-07
3.12436e-07
-3.00566e-07
3.02883e-07
-3.13897e-07
2.81037e-07
-3.17661e-07
2.49671e-07
-3.14591e-07
2.11319e-07
-3.08195e-07
1.67633e-07
-3.02301e-07
1.18417e-07
-3.00973e-07
6.0055e-08
-3.07261e-07
-1.10812e-08
-3.19629e-07
-7.17428e-08
-3.35271e-07
-1.21899e-07
-3.50766e-07
-1.68068e-07
-3.61822e-07
-2.12922e-07
-3.6342e-07
-2.56492e-07
-3.50649e-07
-2.96249e-07
-3.20405e-07
-3.26798e-07
-2.73371e-07
-3.407e-07
-2.14844e-07
-3.31627e-07
-1.53261e-07
-2.98384e-07
-9.71654e-08
-2.46235e-07
-5.25671e-08
-1.84421e-07
-2.20099e-08
-1.2223e-07
-5.16332e-09
-6.63436e-08
-2.0234e-08
-5.11963e-09
2.20258e-08
-2.12775e-08
7.12438e-08
-4.94873e-08
1.29155e-07
-8.89221e-08
1.91346e-07
-1.36494e-07
2.51151e-07
-1.87077e-07
3.00796e-07
-2.34525e-07
3.33542e-07
-2.73216e-07
3.45931e-07
-2.99489e-07
3.38709e-07
-3.12357e-07
3.15751e-07
-3.13323e-07
2.82003e-07
-3.05583e-07
2.41931e-07
-2.93073e-07
1.98809e-07
-2.7975e-07
1.5431e-07
-2.69344e-07
1.08011e-07
-2.65676e-07
5.6387e-08
-2.71892e-07
-4.86554e-09
-2.86538e-07
-5.70962e-08
-3.0735e-07
-1.01087e-07
-3.31812e-07
-1.43606e-07
-3.5636e-07
-1.88374e-07
-3.7577e-07
-2.37082e-07
-3.83134e-07
-2.88885e-07
-3.71274e-07
-3.38659e-07
-3.35865e-07
-3.76108e-07
-2.78726e-07
-3.88767e-07
-2.08451e-07
-3.68658e-07
-1.37309e-07
-3.17377e-07
-7.64724e-08
-2.45257e-07
-3.27021e-08
-1.66e-07
-7.80063e-09
-9.12451e-08
-2.80346e-08
-7.21469e-09
2.92405e-08
-2.9222e-08
9.32511e-08
-6.60177e-08
1.65951e-07
-1.14528e-07
2.39857e-07
-1.68722e-07
3.05345e-07
-2.20828e-07
3.52901e-07
-2.63368e-07
3.76083e-07
-2.91208e-07
3.73771e-07
-3.02718e-07
3.50218e-07
-2.99634e-07
3.12667e-07
-2.85902e-07
2.6827e-07
-2.66227e-07
2.22256e-07
-2.44997e-07
1.77579e-07
-2.25836e-07
1.35149e-07
-2.11761e-07
9.39363e-08
-2.05855e-07
5.0481e-08
-2.10968e-07
2.47843e-10
-2.2571e-07
-4.23546e-08
-2.48377e-07
-7.84201e-08
-2.7762e-07
-1.14363e-07
-3.11439e-07
-1.54555e-07
-3.46084e-07
-2.02437e-07
-3.74923e-07
-2.60045e-07
-3.88415e-07
-3.25167e-07
-3.76705e-07
-3.87818e-07
-3.34737e-07
-4.30735e-07
-2.66667e-07
-4.36729e-07
-1.85555e-07
-3.98489e-07
-1.08069e-07
-3.22743e-07
-4.7863e-08
-2.26206e-07
-1.17663e-08
-1.27342e-07
-3.9801e-08
-1.0224e-08
3.94645e-08
-3.97242e-08
1.22751e-07
-8.58034e-08
2.1203e-07
-1.41277e-07
2.9533e-07
-1.96159e-07
3.60227e-07
-2.40555e-07
3.97297e-07
-2.67536e-07
4.03064e-07
-2.74797e-07
3.81032e-07
-2.64507e-07
3.39928e-07
-2.41722e-07
2.89883e-07
-2.12336e-07
2.38884e-07
-1.81513e-07
1.91433e-07
-1.53044e-07
1.4911e-07
-1.29476e-07
1.11581e-07
-1.12691e-07
7.71517e-08
-1.04765e-07
4.25544e-08
-1.08013e-07
3.49611e-09
-1.21013e-07
-2.93541e-08
-1.42403e-07
-5.70306e-08
-1.71734e-07
-8.5032e-08
-2.0859e-07
-1.17699e-07
-2.51594e-07
-1.59432e-07
-2.96768e-07
-2.14871e-07
-3.35853e-07
-2.86082e-07
-3.56566e-07
-3.67105e-07
-3.46543e-07
-4.40758e-07
-3.00629e-07
-4.82643e-07
-2.25955e-07
-4.73164e-07
-1.40559e-07
-4.08138e-07
-6.56776e-08
-3.01088e-07
-1.69125e-08
-1.76107e-07
-5.67135e-08
-1.44489e-08
5.39134e-08
-5.25499e-08
1.60852e-07
-1.05849e-07
2.65329e-07
-1.60958e-07
3.50439e-07
-2.04313e-07
4.03583e-07
-2.26594e-07
4.19578e-07
-2.24962e-07
4.01431e-07
-2.02579e-07
3.5865e-07
-1.66222e-07
3.03571e-07
-1.23432e-07
2.47092e-07
-8.04304e-08
1.95883e-07
-4.13179e-08
1.52321e-07
-8.30324e-09
1.16095e-07
1.7581e-08
8.56966e-08
3.57027e-08
5.90299e-08
4.50124e-08
3.32447e-08
4.37938e-08
4.71471e-09
3.35239e-08
-1.90841e-08
1.54126e-08
-3.89193e-08
-1.04459e-08
-5.91735e-08
-4.47458e-08
-8.33994e-08
-8.81676e-08
-1.1601e-07
-1.40282e-07
-1.62757e-07
-1.97222e-07
-2.29142e-07
-2.49637e-07
-3.1469e-07
-2.82137e-07
-4.08257e-07
-2.79681e-07
-4.85099e-07
-2.36498e-07
-5.16347e-07
-1.62856e-07
-4.81781e-07
-8.28066e-08
-3.81137e-07
-2.29406e-08
-2.35973e-07
-7.96541e-08
-2.06311e-08
7.45445e-08
-6.73813e-08
2.07602e-07
-1.21273e-07
3.19221e-07
-1.62127e-07
3.91292e-07
-1.7662e-07
4.18077e-07
-1.61401e-07
4.04358e-07
-1.21611e-07
3.61642e-07
-6.68402e-08
3.03878e-07
-6.94813e-09
2.43679e-07
5.05754e-08
1.89568e-07
1.01389e-07
1.45069e-07
1.43748e-07
1.09962e-07
1.77465e-07
8.2378e-08
2.02973e-07
6.01888e-08
2.20647e-07
4.1356e-08
2.30238e-07
2.36537e-08
2.306e-07
4.35229e-09
2.23157e-07
-1.16409e-08
2.09084e-07
-2.48461e-08
1.88269e-07
-3.83582e-08
1.59703e-07
-5.48341e-08
1.21536e-07
-7.78424e-08
7.14329e-08
-1.12654e-07
8.01942e-09
-1.65729e-07
-6.48614e-08
-2.4181e-07
-1.36647e-07
-3.36471e-07
-1.88006e-07
-4.3374e-07
-1.99287e-07
-5.05066e-07
-1.63452e-07
-5.17615e-07
-9.5773e-08
-4.48816e-07
-2.99882e-08
-3.01758e-07
-1.09642e-07
-2.98957e-08
1.0444e-07
-8.24523e-08
2.60159e-07
-1.23022e-07
3.5979e-07
-1.29639e-07
3.9791e-07
-9.80412e-08
3.86478e-07
-3.67746e-08
3.43092e-07
4.01702e-08
2.84697e-07
1.19658e-07
2.24391e-07
1.92703e-07
1.70634e-07
2.54952e-07
1.27319e-07
3.05485e-07
9.45368e-08
3.45203e-07
7.02431e-08
3.75598e-07
5.19829e-08
3.98058e-07
3.77297e-08
4.13521e-07
2.5893e-08
4.22208e-07
1.49662e-08
4.23398e-07
3.16207e-09
4.18337e-07
-6.58019e-09
4.08066e-07
-1.45743e-08
3.92482e-07
-2.27745e-08
3.70569e-07
-3.29213e-08
3.40199e-07
-4.74722e-08
2.97874e-07
-7.03294e-08
2.3919e-07
-1.07045e-07
1.60812e-07
-1.63431e-07
6.59572e-08
-2.41617e-07
-3.12847e-08
-3.36498e-07
-1.05596e-07
-4.30755e-07
-1.30862e-07
-4.9235e-07
-9.95638e-08
-4.80114e-07
-3.82944e-08
-3.63027e-07
-1.47937e-07
-4.14602e-08
1.459e-07
-8.8704e-08
3.07403e-07
-9.16608e-08
3.62747e-07
-4.28896e-08
3.49139e-07
4.21837e-08
3.01405e-07
1.42851e-07
2.42424e-07
2.41935e-07
1.85613e-07
3.29127e-07
1.37199e-07
4.00487e-07
9.92729e-08
4.56353e-07
7.14538e-08
4.99063e-07
5.18272e-08
5.31313e-07
3.79928e-08
5.55375e-07
2.79203e-08
5.72903e-07
2.02023e-08
5.8493e-07
1.38662e-08
5.91829e-07
8.06711e-09
5.93163e-07
1.82808e-09
5.89899e-07
-3.31603e-09
5.82853e-07
-7.5291e-09
5.71952e-07
-1.18726e-08
5.56348e-07
-1.73179e-08
5.34161e-07
-2.52846e-08
5.01948e-07
-3.81164e-08
4.54331e-07
-5.94283e-08
3.84685e-07
-9.37851e-08
2.88536e-07
-1.45467e-07
1.69241e-07
-2.17203e-07
4.48092e-08
-3.06323e-07
-5.08939e-08
-3.96646e-07
-8.23754e-08
-4.48633e-07
-4.53568e-08
-4.00046e-07
-1.93293e-07
-5.02681e-08
1.96168e-07
-5.95742e-08
3.16709e-07
8.27619e-09
2.94896e-07
1.20667e-07
2.36748e-07
2.44481e-07
1.7759e-07
3.59134e-07
1.27772e-07
4.54879e-07
8.98687e-08
5.29662e-07
6.24163e-08
5.85715e-07
4.32197e-08
6.26926e-07
3.02422e-08
6.57151e-07
2.16026e-08
6.79409e-07
1.57344e-08
6.95787e-07
1.15428e-08
7.07635e-07
8.35425e-09
7.15759e-07
5.74256e-09
7.20474e-07
3.35188e-09
7.21524e-07
7.78462e-10
7.19555e-07
-1.34735e-09
7.15119e-07
-3.09298e-09
7.08155e-07
-4.90891e-09
6.98053e-07
-7.21619e-09
6.83418e-07
-1.06491e-08
6.61576e-07
-1.62742e-08
6.27957e-07
-2.581e-08
5.7584e-07
-4.16681e-08
4.97319e-07
-6.69464e-08
3.86178e-07
-1.06061e-07
2.44527e-07
-1.64673e-07
9.31551e-08
-2.45274e-07
-2.11629e-08
-3.34315e-07
-4.48178e-08
-3.76391e-07
-2.38111e-07
-2.76788e-08
2.23847e-07
7.10656e-08
2.17965e-07
2.24293e-07
1.41669e-07
3.69808e-07
9.12336e-08
4.89395e-07
5.80037e-08
5.80686e-07
3.64802e-08
6.47262e-07
2.32927e-08
6.94502e-07
1.51758e-08
7.27619e-07
1.01033e-08
7.50932e-07
6.92952e-09
7.67614e-07
4.91975e-09
7.7976e-07
3.58861e-09
7.8866e-07
2.64326e-09
7.95093e-07
1.92056e-09
7.99512e-07
1.32427e-09
8.0209e-07
7.73029e-10
8.02693e-07
1.76417e-10
8.01664e-07
-3.1911e-10
7.99301e-07
-7.29465e-10
7.95555e-07
-1.16335e-09
7.90063e-07
-1.72434e-09
7.81989e-07
-2.57481e-09
7.69704e-07
-3.98957e-09
7.50317e-07
-6.42276e-09
7.19203e-07
-1.05542e-08
6.69679e-07
-1.74226e-08
5.92676e-07
-2.9057e-08
4.77679e-07
-4.96765e-08
3.1881e-07
-8.64054e-08
1.32979e-07
-1.48483e-07
-5.23764e-09
-2.38174e-07
-2.43349e-07
2.23847e-07
4.41812e-07
5.83481e-07
6.74714e-07
7.32718e-07
7.69198e-07
7.92491e-07
8.07667e-07
8.1777e-07
8.247e-07
8.29619e-07
8.33208e-07
8.35851e-07
8.37772e-07
8.39096e-07
8.39869e-07
8.40046e-07
8.39726e-07
8.38997e-07
8.37834e-07
8.36109e-07
8.33534e-07
8.29545e-07
8.23122e-07
8.12568e-07
7.95145e-07
7.66088e-07
7.16412e-07
6.30006e-07
4.81523e-07
2.43349e-07
)
;

boundaryField
{
    movingWall
    {
        type            calculated;
        value           uniform 0;
    }
    fixedWalls
    {
        type            calculated;
        value           uniform 0;
    }
    frontAndBack
    {
        type            empty;
        value           nonuniform List<scalar> 0();
    }
}


// ************************************************************************* //
