/*--------------------------------*- C++ -*----------------------------------*\
| =========                 |                                                 |
| \\      /  F ield         | OpenFOAM: The Open Source CFD Toolbox           |
|  \\    /   O peration     | Version:  2206                                  |
|   \\  /    A nd           | Website:  www.openfoam.com                      |
|    \\/     M anipulation  |                                                 |
\*---------------------------------------------------------------------------*/
FoamFile
{
    version     2.0;
    format      ascii;
    arch        "LSB;label=64;scalar=64";
    class       volScalarField;
    location    "20";
    object      Sch4;
}
// * * * * * * * * * * * * * * * * * * * * * * * * * * * * * * * * * * * * * //

dimensions      [0 0 0 0 0 0 0];

internalField   nonuniform List<scalar> 
1024
(
6.0696e-10
6.29122e-10
6.96956e-10
8.1837e-10
1.00414e-09
1.26759e-09
1.62373e-09
2.08752e-09
2.671e-09
3.37906e-09
4.20413e-09
5.12068e-09
6.08149e-09
7.01726e-09
7.83728e-09
8.41761e-09
8.55578e-09
8.21357e-09
7.55453e-09
6.70081e-09
5.75517e-09
4.80601e-09
3.92049e-09
3.14073e-09
2.48593e-09
1.95818e-09
1.54904e-09
1.24516e-09
1.03219e-09
8.96617e-10
8.26286e-10
8.10927e-10
6.79271e-10
7.0356e-10
7.78202e-10
9.11816e-10
1.11609e-09
1.40542e-09
1.79601e-09
2.30393e-09
2.94202e-09
3.71533e-09
4.61534e-09
5.61407e-09
6.66004e-09
7.678e-09
8.56963e-09
9.20095e-09
9.35279e-09
8.98325e-09
8.26872e-09
7.34131e-09
6.3124e-09
5.27812e-09
4.3118e-09
3.4597e-09
2.74318e-09
2.16493e-09
1.7161e-09
1.38241e-09
1.14837e-09
9.99234e-10
9.21661e-10
9.04381e-10
8.82072e-10
9.12423e-10
1.00621e-09
1.17404e-09
1.43015e-09
1.792e-09
2.27908e-09
2.91061e-09
3.70172e-09
4.65791e-09
5.76805e-09
6.99728e-09
8.28229e-09
9.53104e-09
1.06239e-08
1.13986e-08
1.15888e-08
1.11424e-08
1.0272e-08
9.13771e-09
7.87517e-09
6.60219e-09
5.40938e-09
4.35453e-09
3.46504e-09
2.74528e-09
2.18523e-09
1.76797e-09
1.47482e-09
1.28759e-09
1.18978e-09
1.16743e-09
1.29425e-09
1.33671e-09
1.46874e-09
1.70482e-09
2.06423e-09
2.57038e-09
3.24921e-09
4.12604e-09
5.22038e-09
6.53849e-09
8.06395e-09
9.74827e-09
1.15047e-08
1.32082e-08
1.46975e-08
1.57546e-08
1.60216e-08
1.54254e-08
1.42494e-08
1.27086e-08
1.09859e-08
9.24189e-09
7.6013e-09
6.14494e-09
4.91235e-09
3.91144e-09
3.13013e-09
2.54645e-09
2.13536e-09
1.87204e-09
1.73375e-09
1.70136e-09
2.07375e-09
2.13836e-09
2.34067e-09
2.70213e-09
3.251e-09
4.02132e-09
5.05047e-09
6.3745e-09
8.02054e-09
9.99579e-09
1.22739e-08
1.47814e-08
1.73891e-08
1.99128e-08
2.21163e-08
2.3683e-08
2.40911e-08
2.32296e-08
2.15074e-08
1.92366e-08
1.66848e-08
1.40895e-08
1.16372e-08
9.45101e-09
7.59319e-09
6.07876e-09
4.89248e-09
4.00362e-09
3.37585e-09
2.9724e-09
2.75942e-09
2.70841e-09
3.54718e-09
3.65192e-09
3.98227e-09
4.572e-09
5.46521e-09
6.71457e-09
8.3774e-09
1.05083e-08
1.31472e-08
1.6302e-08
1.99279e-08
2.39059e-08
2.80309e-08
3.20135e-08
3.54863e-08
3.79604e-08
3.86256e-08
3.73036e-08
3.46213e-08
3.10597e-08
2.70351e-08
2.2921e-08
1.90151e-08
1.55172e-08
1.25319e-08
1.00885e-08
8.16771e-09
6.72398e-09
5.70125e-09
5.04172e-09
4.69185e-09
4.60646e-09
6.42124e-09
6.60045e-09
7.16987e-09
8.18555e-09
9.71997e-09
1.18591e-08
1.46955e-08
1.83163e-08
2.27828e-08
2.81027e-08
3.41947e-08
4.08555e-08
4.7741e-08
5.43717e-08
6.01458e-08
6.42679e-08
6.54143e-08
6.32821e-08
5.88835e-08
5.29978e-08
4.63059e-08
3.94265e-08
3.28611e-08
2.69526e-08
2.18865e-08
1.77224e-08
1.44364e-08
1.19583e-08
1.01971e-08
9.05741e-09
8.45011e-09
8.29967e-09
1.23095e-08
1.26329e-08
1.36683e-08
1.55135e-08
1.8294e-08
2.2157e-08
2.72601e-08
3.37487e-08
4.17211e-08
5.11792e-08
6.19681e-08
7.37204e-08
8.58268e-08
9.74516e-08
1.07559e-07
1.14791e-07
1.16877e-07
1.13275e-07
1.05701e-07
9.54767e-08
8.37698e-08
7.16583e-08
6.00312e-08
4.95097e-08
4.0442e-08
3.29539e-08
2.70201e-08
2.25284e-08
1.9325e-08
1.72447e-08
1.61316e-08
1.58527e-08
2.51254e-08
2.57435e-08
2.77377e-08
3.12882e-08
3.66237e-08
4.40107e-08
5.37307e-08
6.60383e-08
8.10965e-08
9.88838e-08
1.19087e-07
1.41e-07
1.63484e-07
1.85e-07
2.03674e-07
2.17072e-07
2.21089e-07
2.14713e-07
2.00994e-07
1.82285e-07
1.60687e-07
1.38177e-07
1.16419e-07
9.66057e-08
7.94305e-08
6.51719e-08
5.38196e-08
4.51899e-08
3.90115e-08
3.49843e-08
3.28213e-08
3.22751e-08
5.50112e-08
5.62692e-08
6.03615e-08
6.76396e-08
7.85455e-08
9.35889e-08
1.133e-07
1.38147e-07
1.68404e-07
2.03973e-07
2.44172e-07
2.87563e-07
3.31875e-07
3.74114e-07
4.10692e-07
4.37012e-07
4.45248e-07
4.33392e-07
4.07162e-07
3.70958e-07
3.28758e-07
2.84393e-07
2.4117e-07
2.01518e-07
1.66914e-07
1.38011e-07
1.14874e-07
9.72007e-08
8.44928e-08
7.61771e-08
7.16942e-08
7.05562e-08
1.30202e-07
1.32945e-07
1.41946e-07
1.57935e-07
1.81822e-07
2.14639e-07
2.57442e-07
3.11129e-07
3.76162e-07
4.52191e-07
5.37633e-07
6.2933e-07
7.22467e-07
8.10833e-07
8.87155e-07
9.42249e-07
9.60307e-07
9.37116e-07
8.83992e-07
8.09608e-07
7.2191e-07
6.28771e-07
5.37175e-07
4.52423e-07
3.77876e-07
3.15167e-07
2.64652e-07
2.25852e-07
1.97816e-07
1.79391e-07
1.69423e-07
1.66885e-07
3.35526e-07
3.41963e-07
3.63288e-07
4.01126e-07
4.57462e-07
5.34521e-07
6.34523e-07
7.59258e-07
9.09453e-07
1.08394e-06
1.27874e-06
1.48643e-06
1.69603e-06
1.89382e-06
2.0641e-06
2.18745e-06
2.22997e-06
2.18225e-06
2.06803e-06
1.90532e-06
1.7109e-06
1.50191e-06
1.2941e-06
1.09986e-06
9.27434e-07
7.81182e-07
6.62499e-07
5.70752e-07
5.04087e-07
4.60071e-07
4.3617e-07
4.30075e-07
9.47034e-07
9.63334e-07
1.01792e-06
1.11466e-06
1.25816e-06
1.45351e-06
1.70561e-06
2.0181e-06
2.39182e-06
2.82286e-06
3.30048e-06
3.80582e-06
4.31206e-06
4.78669e-06
5.19376e-06
5.4897e-06
5.59736e-06
5.49448e-06
5.23383e-06
4.8548e-06
4.39457e-06
3.89278e-06
3.38729e-06
2.90913e-06
2.48001e-06
2.11247e-06
1.81164e-06
1.57733e-06
1.40599e-06
1.29226e-06
1.23027e-06
1.21446e-06
2.93961e-06
2.98414e-06
3.13513e-06
3.40234e-06
3.79721e-06
4.33193e-06
5.01767e-06
5.86176e-06
6.86358e-06
8.00957e-06
9.26853e-06
1.05889e-05
1.19003e-05
1.31205e-05
1.41621e-05
1.49222e-05
1.52148e-05
1.49847e-05
1.43561e-05
1.34188e-05
1.22589e-05
1.09727e-05
9.65686e-06
8.39436e-06
7.24662e-06
6.25217e-06
5.42988e-06
4.78377e-06
4.30774e-06
3.98988e-06
3.81586e-06
3.77155e-06
1.00474e-05
1.01779e-05
1.06272e-05
1.14215e-05
1.25903e-05
1.4164e-05
1.61684e-05
1.86166e-05
2.14973e-05
2.47622e-05
2.8314e-05
3.20015e-05
3.56278e-05
3.89718e-05
4.18089e-05
4.38857e-05
4.47334e-05
4.42106e-05
4.26242e-05
4.0186e-05
3.70997e-05
3.36078e-05
2.99684e-05
2.64167e-05
2.31374e-05
2.02565e-05
1.78452e-05
1.59305e-05
1.45074e-05
1.35505e-05
1.30241e-05
1.28903e-05
3.77112e-05
3.81169e-05
3.95399e-05
4.2053e-05
4.57353e-05
5.06627e-05
5.6892e-05
6.44351e-05
7.32269e-05
8.30883e-05
9.3698e-05
0.000104586
0.000115168
0.000124819
0.000132941
0.000138896
0.000141472
0.00014031
0.000136203
0.000129651
0.00012113
0.000111253
0.000100726
9.02369e-05
8.03675e-05
7.15492e-05
6.40582e-05
5.8034e-05
5.3509e-05
5.04407e-05
4.87433e-05
4.83131e-05
0.00014608
0.000147328
0.000151802
0.000159695
0.000171208
0.000186513
0.000205708
0.00022874
0.000255311
0.000284781
0.0003161
0.000347818
0.000378216
0.000405556
0.000428304
0.000444956
0.000452546
0.000450287
0.000440189
0.00042336
0.000400781
0.000373853
0.000344366
0.000314234
0.00028522
0.000258752
0.000235857
0.000217161
0.000202939
0.000193201
0.000187778
0.000186411
0.000490131
0.000493344
0.000505127
0.000525916
0.000556117
0.00059604
0.000645764
0.000704953
0.000772623
0.000846908
0.000924931
0.0010029
0.00107651
0.00114169
0.00119516
0.00123411
0.00125265
0.00124961
0.00122941
0.00119409
0.00114514
0.00108497
0.00101711
0.00094577
0.000875227
0.000809324
0.000751123
0.000702756
0.00066544
0.00063961
0.000625128
0.000621496
0.00129978
0.00130617
0.00133024
0.00137278
0.00143448
0.00151582
0.00161675
0.00173637
0.00187234
0.00202053
0.0021747
0.00232693
0.0024686
0.00259207
0.00269189
0.00276408
0.00279965
0.00279775
0.0027665
0.00270912
0.00262723
0.00252374
0.00240359
0.00227353
0.00214124
0.00201438
0.00189977
0.00180267
0.0017266
0.00167331
0.00164319
0.00163563
0.00283842
0.00284866
0.00288848
0.00295919
0.00306193
0.00319752
0.00336588
0.00356533
0.00379161
0.00403707
0.00429044
0.00453776
0.00476462
0.00495909
0.00511384
0.00522475
0.00528072
0.00528255
0.00524312
0.00516732
0.00505671
0.00491379
0.00474355
0.00455383
0.00435491
0.00415851
0.00397634
0.00381855
0.00369267
0.00360327
0.00355221
0.0035393
0.00528611
0.00529977
0.00535516
0.00545439
0.00559952
0.00579224
0.00603291
0.00631914
0.00664418
0.00699562
0.00735556
0.00770264
0.00801604
0.00828009
0.00848676
0.00863328
0.00870824
0.00871534
0.0086726
0.0085873
0.00846154
0.00829722
0.0080979
0.00786987
0.00762307
0.00737105
0.00712972
0.0069148
0.00673942
0.00661263
0.0065392
0.00652026
0.0086649
0.00868039
0.00874723
0.00886888
0.0090492
0.00929167
0.00959774
0.00996437
0.0103815
0.0108308
0.0112865
0.0117197
0.0121042
0.0124224
0.0126673
0.0128389
0.0129271
0.012939
0.0128972
0.0128117
0.0126864
0.0125237
0.0123256
0.0120951
0.0118377
0.0115644
0.0112919
0.0110401
0.0108282
0.0106711
0.0105782
0.0105533
0.0128426
0.0128576
0.0129293
0.0130634
0.0132668
0.0135457
0.0139029
0.0143343
0.0148252
0.01535
0.0158755
0.0163668
0.0167951
0.0171432
0.0174068
0.0175893
0.0176831
0.0176979
0.0176592
0.0175797
0.0174659
0.0173224
0.0171515
0.0169529
0.016726
0.0164743
0.0162099
0.0159526
0.015726
0.0155517
0.0154452
0.015415
0.0175927
0.0176048
0.0176743
0.0178107
0.0180248
0.018326
0.018718
0.0191934
0.0197317
0.0203003
0.0208603
0.0213743
0.0218144
0.0221661
0.0224287
0.0226084
0.0227002
0.0227156
0.0226808
0.02261
0.0225122
0.0223954
0.0222642
0.0221178
0.0219503
0.0217563
0.0215379
0.0213091
0.0210935
0.0209179
0.0208053
0.0207705
0.0226642
0.0226713
0.0227333
0.0228644
0.0230802
0.023392
0.0238019
0.0242975
0.024852
0.0254276
0.0259839
0.0264852
0.0269072
0.0272396
0.0274847
0.0276508
0.0277351
0.0277493
0.0277184
0.0276569
0.0275753
0.0274841
0.0273916
0.0272991
0.0271995
0.0270805
0.0269332
0.0267605
0.0265801
0.0264198
0.0263089
0.0262705
0.0278306
0.0278315
0.0278834
0.0280062
0.0282187
0.0285314
0.0289415
0.0294307
0.0299675
0.0305136
0.0310312
0.0314899
0.0318706
0.0321668
0.0323831
0.0325285
0.0326017
0.0326137
0.0325869
0.0325346
0.0324674
0.0323972
0.0323345
0.0322845
0.0322421
0.0321935
0.0321224
0.0320199
0.0318925
0.0317625
0.0316619
0.0316217
0.032912
0.0329071
0.03295
0.0330656
0.0332721
0.0335751
0.0339652
0.0344194
0.0349063
0.0353913
0.0358433
0.0362382
0.0365624
0.0368123
0.0369935
0.0371145
0.037175
0.0371846
0.037162
0.0371186
0.0370642
0.0370099
0.0369673
0.0369438
0.0369384
0.0369399
0.0369309
0.0368955
0.0368281
0.0367397
0.036658
0.036619
0.0377788
0.0377702
0.0378086
0.0379196
0.0381158
0.0383948
0.038742
0.0391345
0.0395452
0.0399471
0.0403165
0.040636
0.0408962
0.0410955
0.0412392
0.0413348
0.0413823
0.0413894
0.0413712
0.0413367
0.0412938
0.0412522
0.0412223
0.0412121
0.0412236
0.0412503
0.0412786
0.0412923
0.0412784
0.0412356
0.0411803
0.0411464
0.0423457
0.0423374
0.0423767
0.0424829
0.0426588
0.0428955
0.0431782
0.0434885
0.0438069
0.0441143
0.0443942
0.0446347
0.0448296
0.0449783
0.0450851
0.0451559
0.0451909
0.0451959
0.0451821
0.0451561
0.045124
0.0450932
0.0450719
0.0450672
0.045082
0.0451137
0.0451541
0.0451916
0.0452131
0.0452098
0.0451843
0.0451597
0.0465626
0.0465596
0.0466018
0.0466953
0.0468348
0.0470115
0.0472145
0.0474325
0.0476531
0.0478644
0.0480558
0.0482197
0.048352
0.0484528
0.048525
0.0485727
0.0485963
0.0485995
0.04859
0.0485722
0.0485503
0.0485291
0.0485146
0.0485119
0.0485235
0.0485487
0.0485837
0.048622
0.0486556
0.0486754
0.0486757
0.0486639
0.0504057
0.0504108
0.0504479
0.0505127
0.0506004
0.0507061
0.0508246
0.0509501
0.0510764
0.0511968
0.0513057
0.0513988
0.0514739
0.0515309
0.0515718
0.0515987
0.051612
0.0516137
0.0516083
0.0515981
0.0515856
0.0515734
0.051565
0.0515633
0.05157
0.0515848
0.0516063
0.0516317
0.0516577
0.0516797
0.0516923
0.0516926
0.0538665
0.0538707
0.0538858
0.0539086
0.0539378
0.0539723
0.0540105
0.0540507
0.0540911
0.0541296
0.0541644
0.0541941
0.0542181
0.0542363
0.0542493
0.0542579
0.0542621
0.0542626
0.0542609
0.0542576
0.0542536
0.0542496
0.0542469
0.0542463
0.0542483
0.0542531
0.05426
0.0542684
0.0542776
0.0542863
0.0542932
0.0542956
)
;

boundaryField
{
    movingWall
    {
        type            fixedValue;
        value           uniform 0.0555;
    }
    fixedWalls
    {
        type            zeroGradient;
    }
    frontAndBack
    {
        type            empty;
    }
}


// ************************************************************************* //
