/*--------------------------------*- C++ -*----------------------------------*\
| =========                 |                                                 |
| \\      /  F ield         | OpenFOAM: The Open Source CFD Toolbox           |
|  \\    /   O peration     | Version:  2212                                  |
|   \\  /    A nd           | Website:  www.openfoam.com                      |
|    \\/     M anipulation  |                                                 |
\*---------------------------------------------------------------------------*/
FoamFile
{
    version     2.0;
    format      ascii;
    arch        "LSB;label=64;scalar=64";
    class       volScalarField;
    location    "1860";
    object      p;
}
// * * * * * * * * * * * * * * * * * * * * * * * * * * * * * * * * * * * * * //

dimensions      [0 2 -2 0 0 0 0];

internalField   nonuniform List<scalar> 
1024
(
0
-3.23219e-07
-9.75461e-07
-1.69522e-06
-2.25056e-06
-2.46263e-06
-2.32733e-06
-2.02549e-06
-1.81443e-06
-1.84798e-06
-2.01374e-06
-1.77865e-06
-8.80886e-08
5.01809e-06
1.68506e-05
4.04016e-05
7.63516e-05
0.000110381
0.000122398
0.000107366
6.98501e-05
2.30741e-05
-1.7803e-05
-4.59348e-05
-6.31026e-05
-7.29388e-05
-7.81487e-05
-8.03639e-05
-8.05378e-05
-7.94114e-05
-7.78159e-05
-7.66318e-05
-0.0928116
-0.0928119
-0.0928125
-0.0928131
-0.0928136
-0.0928138
-0.0928138
-0.0928136
-0.0928136
-0.0928137
-0.092814
-0.0928138
-0.0928123
-0.0928074
-0.0927958
-0.0927728
-0.0927377
-0.0927047
-0.0926938
-0.0927093
-0.0927461
-0.0927916
-0.0928311
-0.0928581
-0.0928743
-0.0928835
-0.0928883
-0.0928904
-0.0928907
-0.0928899
-0.0928885
-0.0928873
-0.199425
-0.199425
-0.199426
-0.199426
-0.199427
-0.199427
-0.199427
-0.199427
-0.199427
-0.199428
-0.199428
-0.199429
-0.199427
-0.199423
-0.199412
-0.19939
-0.199356
-0.199325
-0.199315
-0.199331
-0.199367
-0.199411
-0.199449
-0.199474
-0.199489
-0.199497
-0.199501
-0.199503
-0.199503
-0.199502
-0.199501
-0.199499
-0.321892
-0.321893
-0.321893
-0.321894
-0.321895
-0.321895
-0.321895
-0.321896
-0.321897
-0.321897
-0.321899
-0.321899
-0.321899
-0.321895
-0.321886
-0.321865
-0.321833
-0.321803
-0.321795
-0.321812
-0.321847
-0.321889
-0.321926
-0.321949
-0.321962
-0.321968
-0.32197
-0.321971
-0.321971
-0.32197
-0.321968
-0.321967
-0.462571
-0.462572
-0.462573
-0.462574
-0.462575
-0.462576
-0.462577
-0.462578
-0.462579
-0.462581
-0.462583
-0.462584
-0.462585
-0.462583
-0.462575
-0.462556
-0.462527
-0.462499
-0.462492
-0.46251
-0.462544
-0.462585
-0.46262
-0.462641
-0.462651
-0.462655
-0.462656
-0.462655
-0.462654
-0.462653
-0.462651
-0.462648
-0.624172
-0.624174
-0.624175
-0.624176
-0.624177
-0.624178
-0.62418
-0.624182
-0.624184
-0.624187
-0.62419
-0.624194
-0.624196
-0.624196
-0.624191
-0.624175
-0.624148
-0.624123
-0.624117
-0.624136
-0.624169
-0.624208
-0.624241
-0.62426
-0.624267
-0.624267
-0.624266
-0.624264
-0.624262
-0.62426
-0.624257
-0.624255
-0.809807
-0.809809
-0.80981
-0.809812
-0.809813
-0.809815
-0.809817
-0.80982
-0.809824
-0.809828
-0.809834
-0.809839
-0.809844
-0.809847
-0.809845
-0.809832
-0.809809
-0.809787
-0.809782
-0.809799
-0.809831
-0.809867
-0.809898
-0.809915
-0.809919
-0.809917
-0.809913
-0.809909
-0.809906
-0.809903
-0.809901
-0.809899
-1.02305
-1.02305
-1.02305
-1.02306
-1.02306
-1.02306
-1.02306
-1.02307
-1.02307
-1.02308
-1.02309
-1.0231
-1.02311
-1.02311
-1.02311
-1.02311
-1.02309
-1.02307
-1.02306
-1.02308
-1.0231
-1.02314
-1.02316
-1.02318
-1.02318
-1.02317
-1.02317
-1.02316
-1.02316
-1.02316
-1.02316
-1.02315
-1.26801
-1.26801
-1.26802
-1.26802
-1.26802
-1.26802
-1.26803
-1.26804
-1.26804
-1.26805
-1.26806
-1.26807
-1.26809
-1.2681
-1.2681
-1.2681
-1.26808
-1.26807
-1.26806
-1.26807
-1.26809
-1.26812
-1.26814
-1.26815
-1.26815
-1.26814
-1.26813
-1.26813
-1.26813
-1.26812
-1.26812
-1.26812
-1.54941
-1.54941
-1.54941
-1.54942
-1.54942
-1.54942
-1.54943
-1.54944
-1.54945
-1.54946
-1.54947
-1.54949
-1.54951
-1.54952
-1.54953
-1.54953
-1.54952
-1.54951
-1.5495
-1.5495
-1.54951
-1.54952
-1.54953
-1.54954
-1.54954
-1.54953
-1.54952
-1.54952
-1.54952
-1.54952
-1.54952
-1.54952
-1.87266
-1.87267
-1.87267
-1.87267
-1.87268
-1.87268
-1.87269
-1.8727
-1.87271
-1.87272
-1.87274
-1.87276
-1.87278
-1.8728
-1.87282
-1.87282
-1.87282
-1.8728
-1.87279
-1.87278
-1.87278
-1.87278
-1.87277
-1.87277
-1.87276
-1.87276
-1.87275
-1.87275
-1.87275
-1.87275
-1.87275
-1.87275
-2.244
-2.24401
-2.24401
-2.24401
-2.24402
-2.24402
-2.24403
-2.24404
-2.24405
-2.24407
-2.24409
-2.24411
-2.24414
-2.24416
-2.24418
-2.2442
-2.2442
-2.24418
-2.24417
-2.24415
-2.24413
-2.24411
-2.24409
-2.24407
-2.24406
-2.24405
-2.24405
-2.24405
-2.24406
-2.24406
-2.24406
-2.24406
-2.67058
-2.67058
-2.67058
-2.67059
-2.67059
-2.6706
-2.67061
-2.67062
-2.67063
-2.67065
-2.67067
-2.6707
-2.67073
-2.67076
-2.67078
-2.6708
-2.6708
-2.67079
-2.67077
-2.67075
-2.67071
-2.67068
-2.67065
-2.67062
-2.6706
-2.67059
-2.67059
-2.67059
-2.67059
-2.67059
-2.67059
-2.6706
-3.1606
-3.1606
-3.16061
-3.16061
-3.16061
-3.16062
-3.16063
-3.16064
-3.16066
-3.16068
-3.1607
-3.16073
-3.16076
-3.16079
-3.16082
-3.16085
-3.16085
-3.16085
-3.16082
-3.16079
-3.16075
-3.16071
-3.16067
-3.16063
-3.1606
-3.16059
-3.16058
-3.16058
-3.16058
-3.16059
-3.16059
-3.16059
-3.7235
-3.72351
-3.72351
-3.72351
-3.72351
-3.72352
-3.72353
-3.72354
-3.72356
-3.72358
-3.7236
-3.72363
-3.72366
-3.7237
-3.72373
-3.72376
-3.72377
-3.72377
-3.72375
-3.72372
-3.72367
-3.72363
-3.72358
-3.72354
-3.72351
-3.72349
-3.72348
-3.72348
-3.72348
-3.72348
-3.72348
-3.72349
-4.37011
-4.37011
-4.37011
-4.37012
-4.37012
-4.37013
-4.37014
-4.37015
-4.37017
-4.37019
-4.37021
-4.37024
-4.37027
-4.37031
-4.37034
-4.37037
-4.37039
-4.37039
-4.37037
-4.37034
-4.37031
-4.37026
-4.37022
-4.37018
-4.37014
-4.37012
-4.3701
-4.3701
-4.3701
-4.3701
-4.3701
-4.37011
-5.06146
-5.06145
-5.06145
-5.06146
-5.06146
-5.06147
-5.06148
-5.06149
-5.06151
-5.06153
-5.06155
-5.06158
-5.06161
-5.06165
-5.06169
-5.06172
-5.06174
-5.06173
-5.06172
-5.0617
-5.06167
-5.06164
-5.0616
-5.06156
-5.06152
-5.06149
-5.06147
-5.06146
-5.06146
-5.06146
-5.06147
-5.06147
-5.70803
-5.70803
-5.70803
-5.70803
-5.70803
-5.70804
-5.70805
-5.70806
-5.70808
-5.7081
-5.70813
-5.70816
-5.70819
-5.70823
-5.70827
-5.7083
-5.70832
-5.70831
-5.7083
-5.70828
-5.70826
-5.70823
-5.7082
-5.70816
-5.70813
-5.7081
-5.70808
-5.70807
-5.70806
-5.70806
-5.70807
-5.70807
-6.27088
-6.27088
-6.27088
-6.27088
-6.27088
-6.27089
-6.2709
-6.27091
-6.27093
-6.27095
-6.27098
-6.27101
-6.27105
-6.27109
-6.27113
-6.27116
-6.27118
-6.27118
-6.27116
-6.27114
-6.27112
-6.2711
-6.27107
-6.27104
-6.27101
-6.27098
-6.27095
-6.27094
-6.27093
-6.27094
-6.27094
-6.27095
-6.76085
-6.76085
-6.76085
-6.76085
-6.76085
-6.76086
-6.76087
-6.76088
-6.7609
-6.76092
-6.76095
-6.76099
-6.76103
-6.76107
-6.76112
-6.76115
-6.76117
-6.76117
-6.76115
-6.76113
-6.76111
-6.76108
-6.76106
-6.76103
-6.761
-6.76096
-6.76093
-6.76092
-6.76091
-6.76091
-6.76091
-6.76092
-7.18739
-7.18739
-7.18739
-7.18739
-7.18739
-7.18739
-7.1874
-7.18741
-7.18743
-7.18745
-7.18748
-7.18752
-7.18757
-7.18762
-7.18767
-7.18771
-7.18773
-7.18773
-7.18771
-7.18768
-7.18765
-7.18762
-7.18759
-7.18756
-7.18753
-7.18749
-7.18745
-7.18743
-7.18741
-7.18741
-7.18742
-7.18743
-7.55871
-7.55871
-7.55871
-7.55871
-7.55871
-7.55871
-7.55871
-7.55872
-7.55873
-7.55875
-7.55879
-7.55883
-7.55888
-7.55894
-7.55899
-7.55904
-7.55907
-7.55906
-7.55904
-7.55901
-7.55898
-7.55894
-7.5589
-7.55886
-7.55882
-7.55877
-7.55872
-7.55868
-7.55866
-7.55865
-7.55866
-7.55867
-7.88196
-7.88196
-7.88196
-7.88195
-7.88195
-7.88195
-7.88195
-7.88195
-7.88196
-7.88198
-7.88202
-7.88206
-7.88212
-7.88218
-7.88225
-7.8823
-7.88233
-7.88233
-7.88231
-7.88227
-7.88223
-7.88218
-7.88213
-7.88208
-7.88202
-7.88195
-7.88189
-7.88183
-7.88179
-7.88177
-7.88177
-7.88178
-8.16336
-8.16336
-8.16336
-8.16336
-8.16335
-8.16334
-8.16334
-8.16333
-8.16334
-8.16336
-8.16339
-8.16345
-8.16351
-8.16358
-8.16365
-8.16371
-8.16374
-8.16375
-8.16372
-8.16369
-8.16364
-8.16358
-8.16351
-8.16344
-8.16335
-8.16326
-8.16317
-8.16308
-8.16301
-8.16298
-8.16297
-8.16298
-8.40834
-8.40834
-8.40834
-8.40834
-8.40833
-8.40831
-8.4083
-8.40828
-8.40828
-8.4083
-8.40834
-8.4084
-8.40847
-8.40855
-8.40863
-8.4087
-8.40873
-8.40873
-8.40871
-8.40867
-8.40862
-8.40855
-8.40847
-8.40837
-8.40825
-8.40812
-8.40798
-8.40786
-8.40775
-8.40768
-8.40766
-8.40767
-8.62161
-8.62161
-8.62161
-8.6216
-8.62159
-8.62156
-8.62154
-8.62152
-8.62151
-8.62153
-8.62158
-8.62164
-8.62173
-8.62181
-8.6219
-8.62196
-8.622
-8.62201
-8.62198
-8.62194
-8.62189
-8.62181
-8.62171
-8.62158
-8.62142
-8.62124
-8.62105
-8.62086
-8.6207
-8.62058
-8.62053
-8.62052
-8.80728
-8.80729
-8.80728
-8.80727
-8.80724
-8.80721
-8.80718
-8.80715
-8.80714
-8.80716
-8.80721
-8.80728
-8.80737
-8.80746
-8.80755
-8.80763
-8.80767
-8.80767
-8.80765
-8.80761
-8.80754
-8.80746
-8.80734
-8.80718
-8.80698
-8.80675
-8.80649
-8.80622
-8.80598
-8.80579
-8.80568
-8.80564
-8.96895
-8.96895
-8.96894
-8.96891
-8.96887
-8.96882
-8.96878
-8.96875
-8.96874
-8.96876
-8.96882
-8.96889
-8.96899
-8.96908
-8.96918
-8.96925
-8.96929
-8.9693
-8.96928
-8.96924
-8.96917
-8.96907
-8.96894
-8.96876
-8.96852
-8.96823
-8.9679
-8.96754
-8.96719
-8.96689
-8.96668
-8.96658
-9.10974
-9.10973
-9.10969
-9.10964
-9.10958
-9.10951
-9.10946
-9.10943
-9.10942
-9.10944
-9.1095
-9.10958
-9.10968
-9.10978
-9.10988
-9.10995
-9.11
-9.11001
-9.10999
-9.10994
-9.10987
-9.10977
-9.10962
-9.10942
-9.10915
-9.10882
-9.10841
-9.10795
-9.10747
-9.10701
-9.10665
-9.10642
-9.23242
-9.23235
-9.23225
-9.23215
-9.23206
-9.23199
-9.23193
-9.23189
-9.23189
-9.23191
-9.23198
-9.23206
-9.23216
-9.23227
-9.23236
-9.23244
-9.23249
-9.2325
-9.23248
-9.23243
-9.23236
-9.23225
-9.2321
-9.23188
-9.23159
-9.23122
-9.23077
-9.23022
-9.2296
-9.22893
-9.22829
-9.22774
-9.33955
-9.33916
-9.33892
-9.33877
-9.33867
-9.33859
-9.33853
-9.3385
-9.3385
-9.33853
-9.33859
-9.33868
-9.33879
-9.33889
-9.33899
-9.33908
-9.33912
-9.33913
-9.33911
-9.33907
-9.33899
-9.33888
-9.33872
-9.3385
-9.33821
-9.33782
-9.33733
-9.33673
-9.33599
-9.33508
-9.33397
-9.33272
-9.4334
-9.43217
-9.4317
-9.43156
-9.43146
-9.43138
-9.43133
-9.4313
-9.43131
-9.43134
-9.43141
-9.4315
-9.43161
-9.43172
-9.43182
-9.4319
-9.43195
-9.43196
-9.43194
-9.4319
-9.43182
-9.43171
-9.43156
-9.43133
-9.43103
-9.43064
-9.43015
-9.42952
-9.42871
-9.42761
-9.426
-9.42374
)
;

boundaryField
{
    movingWall
    {
        type            calculated;
        value           nonuniform List<scalar> 
32
(
-9.47661
-9.47537
-9.47491
-9.47476
-9.47466
-9.47459
-9.47453
-9.47451
-9.47451
-9.47455
-9.47462
-9.47471
-9.47481
-9.47492
-9.47502
-9.47511
-9.47516
-9.47517
-9.47515
-9.4751
-9.47503
-9.47492
-9.47476
-9.47454
-9.47424
-9.47385
-9.47335
-9.47272
-9.47191
-9.47081
-9.4692
-9.46694
)
;
    }
    fixedWalls
    {
        type            calculated;
        value           nonuniform List<scalar> 
64
(
6.93889e-18
-0.0928116
-0.199425
-0.321892
-0.462571
-0.624172
-0.809807
-1.02305
-1.26801
-1.54941
-1.87266
-2.244
-2.67058
-3.1606
-3.7235
-4.37011
-5.06146
-5.70803
-6.27088
-6.76085
-7.18739
-7.55871
-7.88196
-8.16336
-8.40834
-8.62161
-8.80728
-8.96895
-9.10974
-9.23242
-9.33955
-9.4334
-7.66318e-05
-0.0928873
-0.199499
-0.321967
-0.462648
-0.624255
-0.809899
-1.02315
-1.26812
-1.54952
-1.87275
-2.24406
-2.6706
-3.16059
-3.72349
-4.37011
-5.06147
-5.70807
-6.27095
-6.76092
-7.18743
-7.55867
-7.88178
-8.16298
-8.40767
-8.62052
-8.80564
-8.96658
-9.10642
-9.22774
-9.33272
-9.42374
)
;
    }
    floor
    {
        type            calculated;
        value           nonuniform List<scalar> 
32
(
0.0431943
0.043194
0.0431933
0.0431926
0.0431921
0.0431919
0.043192
0.0431923
0.0431926
0.0431926
0.0431924
0.0431927
0.0431944
0.0431995
0.0432114
0.043235
0.043271
0.0433051
0.0433172
0.0433022
0.0432646
0.0432177
0.0431768
0.0431486
0.0431314
0.0431215
0.0431162
0.043114
0.0431138
0.0431149
0.0431165
0.0431177
)
;
    }
    frontAndBack
    {
        type            empty;
    }
}


// ************************************************************************* //
