/*--------------------------------*- C++ -*----------------------------------*\
| =========                 |                                                 |
| \\      /  F ield         | OpenFOAM: The Open Source CFD Toolbox           |
|  \\    /   O peration     | Version:  2212                                  |
|   \\  /    A nd           | Website:  www.openfoam.com                      |
|    \\/     M anipulation  |                                                 |
\*---------------------------------------------------------------------------*/
FoamFile
{
    version     2.0;
    format      ascii;
    arch        "LSB;label=64;scalar=64";
    class       volScalarField;
    location    "1860";
    object      p_rgh;
}
// * * * * * * * * * * * * * * * * * * * * * * * * * * * * * * * * * * * * * //

dimensions      [0 2 -2 0 0 0 0];

internalField   nonuniform List<scalar> 
1024
(
0.0431943
0.043194
0.0431933
0.0431926
0.0431921
0.0431919
0.043192
0.0431923
0.0431926
0.0431926
0.0431924
0.0431927
0.0431944
0.0431995
0.0432114
0.043235
0.043271
0.0433051
0.0433172
0.0433022
0.0432646
0.0432177
0.0431768
0.0431486
0.0431314
0.0431215
0.0431162
0.043114
0.0431138
0.0431149
0.0431165
0.0431177
0.0431952
0.0431949
0.0431944
0.0431938
0.0431934
0.0431933
0.0431935
0.0431938
0.0431941
0.0431942
0.0431942
0.0431946
0.0431964
0.0432016
0.0432135
0.0432371
0.0432728
0.0433065
0.0433178
0.0433025
0.0432652
0.043219
0.0431787
0.043151
0.0431342
0.0431245
0.0431192
0.0431168
0.0431163
0.043117
0.0431183
0.0431195
0.0431975
0.043197
0.0431965
0.043196
0.0431958
0.0431959
0.0431963
0.0431968
0.0431973
0.0431976
0.0431978
0.0431985
0.0432006
0.043206
0.0432181
0.0432418
0.0432776
0.0433111
0.043322
0.0433061
0.0432688
0.0432226
0.0431823
0.0431549
0.0431383
0.0431286
0.0431233
0.0431206
0.0431197
0.04312
0.0431212
0.0431226
0.0432011
0.0432004
0.0431998
0.0431994
0.0431995
0.0431999
0.0432007
0.0432017
0.0432026
0.0432033
0.0432039
0.043205
0.0432075
0.0432133
0.0432258
0.0432499
0.0432862
0.0433198
0.0433306
0.0433139
0.0432759
0.0432289
0.0431876
0.0431596
0.0431428
0.0431331
0.0431274
0.0431243
0.0431229
0.043123
0.0431243
0.043126
0.0432062
0.0432053
0.0432045
0.0432043
0.0432047
0.0432058
0.0432073
0.0432091
0.0432107
0.043212
0.0432132
0.0432148
0.0432179
0.0432243
0.0432373
0.043262
0.0432988
0.0433323
0.0433427
0.0433246
0.0432855
0.0432372
0.043194
0.0431644
0.043147
0.0431368
0.0431307
0.043127
0.0431252
0.043125
0.0431263
0.0431282
0.0432126
0.0432114
0.0432106
0.0432106
0.0432117
0.0432137
0.0432165
0.0432195
0.0432222
0.0432245
0.0432265
0.0432288
0.0432324
0.0432394
0.043253
0.0432779
0.0433144
0.0433466
0.0433555
0.0433358
0.0432954
0.0432456
0.0432001
0.043168
0.0431495
0.0431384
0.0431316
0.0431273
0.043125
0.0431245
0.0431255
0.0431273
0.0432199
0.0432185
0.0432176
0.0432181
0.0432202
0.0432238
0.0432284
0.0432332
0.0432375
0.0432411
0.0432441
0.0432471
0.0432513
0.0432586
0.0432721
0.0432961
0.0433303
0.0433592
0.0433654
0.0433444
0.043303
0.0432523
0.0432047
0.0431696
0.0431491
0.0431368
0.0431289
0.043124
0.0431211
0.0431201
0.0431207
0.0431219
0.0432268
0.0432253
0.0432246
0.0432259
0.0432295
0.0432353
0.0432425
0.0432499
0.0432564
0.0432616
0.0432657
0.0432694
0.0432737
0.0432805
0.0432924
0.0433134
0.0433427
0.0433666
0.0433699
0.0433484
0.0433075
0.0432578
0.043209
0.0431707
0.0431467
0.0431323
0.043123
0.0431171
0.0431137
0.0431123
0.0431122
0.0431127
0.0432315
0.0432299
0.0432296
0.0432321
0.0432379
0.0432467
0.0432574
0.0432682
0.0432775
0.0432847
0.0432899
0.0432938
0.0432974
0.043302
0.0433103
0.0433256
0.043348
0.0433666
0.0433681
0.0433486
0.0433115
0.0432649
0.0432178
0.0431771
0.0431465
0.0431291
0.0431176
0.0431103
0.043106
0.043104
0.0431033
0.0431032
0.0432308
0.0432293
0.0432296
0.0432337
0.0432424
0.0432553
0.0432706
0.0432857
0.0432985
0.0433079
0.043314
0.0433173
0.0433186
0.0433193
0.0433217
0.0433295
0.0433443
0.0433585
0.0433607
0.0433469
0.0433187
0.0432809
0.0432392
0.0431977
0.043161
0.043136
0.0431201
0.0431101
0.0431042
0.0431013
0.0431
0.0430995
0.0432209
0.0432197
0.0432209
0.043227
0.0432393
0.0432572
0.0432781
0.0432985
0.0433154
0.0433273
0.0433338
0.0433355
0.0433333
0.0433286
0.0433239
0.0433235
0.0433311
0.0433423
0.0433477
0.0433435
0.0433298
0.0433085
0.0432812
0.0432477
0.0432089
0.0431694
0.0431437
0.0431273
0.0431179
0.0431134
0.0431116
0.043111
0.0431978
0.0431969
0.0431992
0.0432076
0.043224
0.0432476
0.0432752
0.0433019
0.0433236
0.043338
0.0433447
0.0433444
0.043338
0.0433272
0.0433153
0.0433071
0.0433082
0.0433171
0.0433268
0.043334
0.043338
0.0433384
0.0433333
0.043319
0.0432924
0.0432543
0.0432103
0.04318
0.0431626
0.0431541
0.0431509
0.04315
0.0431578
0.0431574
0.0431607
0.0431715
0.043192
0.0432218
0.0432568
0.0432907
0.0433179
0.0433354
0.0433426
0.0433404
0.0433301
0.0433141
0.0432959
0.0432809
0.0432757
0.0432818
0.0432944
0.0433108
0.04333
0.04335
0.0433671
0.043376
0.0433721
0.0433532
0.0433213
0.0432828
0.0432521
0.0432354
0.0432279
0.0432255
0.0430987
0.0430988
0.0431031
0.0431158
0.0431401
0.0431759
0.0432185
0.0432604
0.0432943
0.0433161
0.043325
0.0433222
0.0433095
0.0432899
0.0432672
0.0432468
0.0432358
0.0432377
0.0432495
0.0432692
0.0432956
0.0433262
0.0433567
0.0433819
0.0433972
0.0434004
0.0433919
0.043375
0.0433546
0.0433356
0.0433238
0.0433189
0.0430216
0.0430222
0.0430271
0.043041
0.0430678
0.0431084
0.0431585
0.0432091
0.0432512
0.0432794
0.0432923
0.0432912
0.0432788
0.0432584
0.043234
0.043211
0.0431959
0.0431926
0.043199
0.043214
0.0432372
0.0432667
0.0432989
0.0433288
0.0433522
0.0433667
0.0433723
0.0433708
0.0433652
0.0433583
0.0433522
0.0433482
0.0429326
0.0429336
0.0429388
0.0429527
0.0429801
0.0430235
0.0430796
0.0431392
0.0431915
0.043229
0.043249
0.0432531
0.0432444
0.0432269
0.043205
0.0431838
0.0431682
0.0431605
0.0431579
0.0431608
0.0431711
0.043189
0.0432126
0.0432379
0.0432606
0.0432775
0.0432876
0.0432915
0.0432913
0.0432889
0.0432856
0.0432828
0.0428516
0.0428529
0.0428578
0.0428705
0.0428962
0.0429386
0.0429977
0.0430647
0.0431275
0.0431762
0.0432063
0.0432186
0.0432164
0.0432046
0.0431889
0.0431756
0.0431702
0.0431606
0.0431491
0.0431375
0.0431291
0.0431278
0.0431347
0.0431484
0.0431649
0.0431795
0.0431895
0.0431943
0.0431949
0.0431929
0.0431896
0.0431864
0.0428007
0.0428021
0.0428066
0.0428179
0.0428411
0.0428805
0.0429372
0.0430056
0.0430752
0.0431345
0.0431762
0.0431979
0.0432029
0.043197
0.0431868
0.0431799
0.0431848
0.0431806
0.0431693
0.0431523
0.0431305
0.0431099
0.0430969
0.043094
0.0430996
0.0431084
0.0431159
0.0431198
0.0431198
0.0431172
0.0431131
0.0431091
0.0427804
0.0427819
0.042786
0.0427959
0.0428162
0.0428516
0.0429043
0.0429708
0.0430423
0.0431078
0.0431578
0.0431879
0.0431996
0.0431981
0.0431905
0.0431846
0.0431874
0.0431904
0.0431885
0.0431794
0.0431561
0.0431268
0.0430982
0.0430793
0.0430723
0.0430737
0.0430778
0.0430803
0.0430798
0.0430765
0.0430714
0.0430666
0.042781
0.0427824
0.042786
0.0427945
0.0428124
0.0428441
0.0428924
0.0429554
0.0430261
0.0430939
0.0431485
0.043184
0.0432
0.0432007
0.0431926
0.0431839
0.0431824
0.0431879
0.0431929
0.0431927
0.0431824
0.0431608
0.0431252
0.043096
0.0430797
0.0430754
0.0430774
0.0430797
0.0430793
0.0430756
0.0430695
0.0430634
0.0427936
0.0427948
0.042798
0.0428053
0.0428211
0.04285
0.0428948
0.0429546
0.0430232
0.0430904
0.043146
0.043183
0.0431998
0.0431997
0.043189
0.0431756
0.0431697
0.0431758
0.0431858
0.043194
0.0431953
0.0431861
0.0431644
0.0431344
0.0431141
0.0431085
0.0431125
0.0431179
0.0431199
0.043117
0.0431101
0.0431025
0.0428118
0.0428128
0.0428153
0.0428217
0.0428363
0.0428635
0.0429065
0.0429644
0.0430308
0.0430959
0.043149
0.0431832
0.0431968
0.0431927
0.0431771
0.0431584
0.0431485
0.0431543
0.0431684
0.0431842
0.0431964
0.043201
0.0431961
0.0431832
0.0431698
0.0431684
0.0431807
0.0431956
0.0432048
0.0432055
0.0431987
0.0431894
0.0428313
0.0428318
0.0428336
0.0428395
0.0428538
0.0428811
0.0429244
0.0429822
0.0430472
0.0431087
0.0431562
0.0431836
0.0431901
0.0431789
0.0431566
0.043132
0.0431181
0.0431226
0.0431405
0.0431631
0.0431858
0.0432053
0.0432197
0.0432301
0.0432403
0.0432549
0.0432819
0.0433147
0.0433391
0.0433484
0.0433438
0.0433331
0.042849
0.0428486
0.0428498
0.042856
0.0428718
0.0429013
0.0429472
0.0430066
0.0430704
0.043127
0.0431661
0.0431833
0.0431791
0.0431582
0.0431277
0.0430966
0.0430791
0.0430825
0.0431025
0.0431308
0.0431636
0.0431985
0.0432348
0.0432737
0.0433173
0.043366
0.04342
0.0434792
0.0435297
0.0435563
0.0435577
0.0435473
0.0428629
0.0428613
0.0428621
0.0428698
0.0428888
0.0429236
0.042974
0.043036
0.0430982
0.043148
0.0431762
0.0431805
0.0431634
0.0431308
0.0430908
0.043053
0.0430317
0.0430339
0.0430545
0.0430883
0.0431306
0.0431812
0.0432413
0.043313
0.043398
0.0434943
0.0435956
0.0436945
0.0437834
0.0438408
0.043856
0.0438501
0.0428708
0.0428675
0.0428686
0.04288
0.0429056
0.042947
0.0430033
0.0430681
0.0431277
0.0431684
0.0431836
0.043173
0.0431416
0.0430965
0.0430465
0.0430017
0.0429768
0.0429781
0.043
0.0430381
0.0430892
0.0431552
0.0432398
0.043347
0.0434792
0.0436332
0.0437988
0.0439606
0.0441036
0.0442115
0.0442562
0.0442633
0.0428662
0.0428618
0.0428652
0.042884
0.04292
0.0429713
0.0430327
0.0430994
0.0431542
0.0431837
0.0431843
0.0431583
0.0431123
0.0430547
0.042995
0.0429441
0.0429165
0.0429174
0.042941
0.0429832
0.0430429
0.0431237
0.0432319
0.0433744
0.0435556
0.0437731
0.044015
0.044261
0.0444857
0.0446695
0.0447709
0.0448079
0.0428352
0.0428333
0.042845
0.0428781
0.0429295
0.0429926
0.0430594
0.0431253
0.0431726
0.0431894
0.0431751
0.0431342
0.0430748
0.0430062
0.0429385
0.0428831
0.0428544
0.042856
0.042882
0.0429286
0.0429964
0.0430904
0.0432197
0.0433942
0.043621
0.0439008
0.0442241
0.0445699
0.0449076
0.0452001
0.0454001
0.0454971
0.0427517
0.0427642
0.0428002
0.0428602
0.0429325
0.0430082
0.0430804
0.0431419
0.0431792
0.0431832
0.0431554
0.0431018
0.0430316
0.0429549
0.0428819
0.0428243
0.0427962
0.0427996
0.0428282
0.0428793
0.0429542
0.0430592
0.0432055
0.0434055
0.0436697
0.0440029
0.0444016
0.0448519
0.045327
0.0457817
0.0461358
0.0463628
0.0425621
0.0426361
0.0427373
0.0428414
0.0429357
0.0430219
0.0430957
0.0431498
0.0431764
0.043169
0.0431303
0.0430673
0.0429898
0.042908
0.0428325
0.0427747
0.0427482
0.0427538
0.0427852
0.0428401
0.0429204
0.0430331
0.043191
0.0434083
0.0436979
0.044069
0.0445256
0.0450675
0.0456874
0.0463566
0.046988
0.0475388
0.0420681
0.0424591
0.042701
0.0428517
0.0429584
0.0430452
0.0431135
0.043158
0.0431741
0.0431573
0.0431105
0.0430411
0.0429589
0.0428744
0.0427978
0.0427406
0.0427157
0.0427231
0.0427565
0.0428139
0.0428972
0.043014
0.0431778
0.0434037
0.0437058
0.0440961
0.0445853
0.0451876
0.045926
0.0468345
0.0479417
0.0491996
0.0410486
0.0422841
0.0427476
0.042897
0.0429963
0.0430771
0.0431364
0.0431714
0.0431793
0.0431558
0.0431036
0.0430302
0.0429453
0.0428591
0.0427819
0.0427248
0.0427006
0.0427089
0.0427431
0.0428015
0.0428857
0.0430037
0.0431689
0.0433967
0.0437016
0.0440967
0.0445965
0.0452263
0.0460383
0.0471394
0.0487472
0.0510088
)
;

boundaryField
{
    movingWall
    {
        type            fixedFluxPressure;
        gradient        uniform 0;
        value           nonuniform List<scalar> 
32
(
0.0410486
0.0422841
0.0427476
0.042897
0.0429963
0.0430771
0.0431364
0.0431714
0.0431793
0.0431558
0.0431036
0.0430302
0.0429453
0.0428591
0.0427819
0.0427248
0.0427006
0.0427089
0.0427431
0.0428015
0.0428857
0.0430037
0.0431689
0.0433967
0.0437016
0.0440967
0.0445965
0.0452263
0.0460383
0.0471394
0.0487472
0.0510088
)
;
    }
    fixedWalls
    {
        type            fixedFluxPressure;
        gradient        uniform 0;
        value           nonuniform List<scalar> 
64
(
0.0431943
0.0431952
0.0431975
0.0432011
0.0432062
0.0432126
0.0432199
0.0432268
0.0432315
0.0432308
0.0432209
0.0431978
0.0431578
0.0430987
0.0430216
0.0429326
0.0428516
0.0428007
0.0427804
0.042781
0.0427936
0.0428118
0.0428313
0.042849
0.0428629
0.0428708
0.0428662
0.0428352
0.0427517
0.0425621
0.0420681
0.0410486
0.0431177
0.0431195
0.0431226
0.043126
0.0431282
0.0431273
0.0431219
0.0431127
0.0431032
0.0430995
0.043111
0.04315
0.0432255
0.0433189
0.0433482
0.0432828
0.0431864
0.0431091
0.0430666
0.0430634
0.0431025
0.0431894
0.0433331
0.0435473
0.0438501
0.0442633
0.0448079
0.0454971
0.0463628
0.0475388
0.0491996
0.0510088
)
;
    }
    floor
    {
        type            fixedFluxPressure;
        gradient        uniform 0;
        value           nonuniform List<scalar> 
32
(
0.0431943
0.043194
0.0431933
0.0431926
0.0431921
0.0431919
0.043192
0.0431923
0.0431926
0.0431926
0.0431924
0.0431927
0.0431944
0.0431995
0.0432114
0.043235
0.043271
0.0433051
0.0433172
0.0433022
0.0432646
0.0432177
0.0431768
0.0431486
0.0431314
0.0431215
0.0431162
0.043114
0.0431138
0.0431149
0.0431165
0.0431177
)
;
    }
    frontAndBack
    {
        type            empty;
    }
}


// ************************************************************************* //
