/*--------------------------------*- C++ -*----------------------------------*\
| =========                 |                                                 |
| \\      /  F ield         | OpenFOAM: The Open Source CFD Toolbox           |
|  \\    /   O peration     | Version:  2212                                  |
|   \\  /    A nd           | Website:  www.openfoam.com                      |
|    \\/     M anipulation  |                                                 |
\*---------------------------------------------------------------------------*/
FoamFile
{
    version     2.0;
    format      ascii;
    arch        "LSB;label=64;scalar=64";
    class       surfaceScalarField;
    location    "1860";
    object      phi;
}
// * * * * * * * * * * * * * * * * * * * * * * * * * * * * * * * * * * * * * //

dimensions      [0 3 -1 0 0 0 0];

oriented        oriented;

internalField   nonuniform List<scalar> 
1984
(
3.63107e-10
-3.63311e-10
-8.09995e-11
4.44117e-10
-2.18245e-09
2.10147e-09
-6.19213e-09
4.00971e-09
-1.16946e-08
5.50253e-09
-1.79152e-08
6.22062e-09
-2.41606e-08
6.24541e-09
-3.02454e-08
6.08482e-09
-3.66298e-08
6.38432e-09
-4.4191e-08
7.5612e-09
-5.38582e-08
9.66716e-09
-6.62592e-08
1.2401e-08
-8.16087e-08
1.53495e-08
-9.91897e-08
1.75811e-08
-1.16058e-07
1.68686e-08
-1.24274e-07
8.21618e-09
-1.08462e-07
-1.58127e-08
-6.19845e-08
-4.64773e-08
8.98518e-09
-7.09697e-08
8.2724e-08
-7.37388e-08
1.3335e-07
-5.06257e-08
1.50829e-07
-1.74792e-08
1.41877e-07
8.95172e-09
1.20206e-07
2.16718e-08
9.48887e-08
2.53169e-08
7.00952e-08
2.47934e-08
4.75081e-08
2.25871e-08
2.81128e-08
1.93952e-08
1.30538e-08
1.50591e-08
3.51976e-09
9.53405e-09
-1.64078e-10
3.68382e-09
-1.6407e-10
-4.36858e-10
7.35534e-11
-3.68625e-09
3.69356e-09
-1.17426e-08
1.01579e-08
-2.52544e-08
1.75216e-08
-4.34362e-08
2.36844e-08
-6.44234e-08
2.72077e-08
-8.63549e-08
2.8177e-08
-1.08597e-07
2.83273e-08
-1.32274e-07
3.00605e-08
-1.59758e-07
3.50451e-08
-1.936e-07
4.351e-08
-2.35429e-07
5.42299e-08
-2.85229e-07
6.51489e-08
-3.39656e-07
7.20087e-08
-3.88221e-07
6.54334e-08
-4.06507e-07
2.65021e-08
-3.51406e-07
-7.09135e-08
-2.09521e-07
-1.88363e-07
3.30257e-09
-2.83793e-07
2.23072e-07
-2.93509e-07
3.7752e-07
-2.05074e-07
4.40452e-07
-8.04109e-08
4.27558e-07
2.18452e-08
3.72793e-07
7.64376e-08
3.01504e-07
9.66052e-08
2.27713e-07
9.85851e-08
1.58628e-07
9.16717e-08
9.87384e-08
7.92849e-08
5.17135e-08
6.2084e-08
2.01209e-08
4.11266e-08
3.98347e-09
1.98213e-08
3.81938e-09
-2.32562e-09
2.3992e-09
-1.10953e-08
1.24633e-08
-2.84649e-08
2.75276e-08
-5.53231e-08
4.43798e-08
-9.05631e-08
5.89244e-08
-1.31456e-07
6.81001e-08
-1.75176e-07
7.18976e-08
-2.20673e-07
7.38241e-08
-2.69564e-07
7.89518e-08
-3.2544e-07
9.09208e-08
-3.92094e-07
1.10163e-07
-4.71601e-07
1.33737e-07
-5.62644e-07
1.56191e-07
-6.57519e-07
1.66884e-07
-7.36147e-07
1.44062e-07
-7.56518e-07
4.68736e-08
-6.50992e-07
-1.7644e-07
-4.06858e-07
-4.32497e-07
-5.24095e-08
-6.38242e-07
3.17996e-07
-6.63914e-07
5.89953e-07
-4.77031e-07
7.1826e-07
-2.08718e-07
7.20594e-07
1.9512e-08
6.45436e-07
1.51596e-07
5.33992e-07
2.08048e-07
4.11622e-07
2.20956e-07
2.93293e-07
2.1e-07
1.8869e-07
1.83888e-07
1.04658e-07
1.46117e-07
4.52572e-08
1.00527e-07
1.1112e-08
5.39665e-08
1.49313e-08
-5.24695e-09
7.64618e-09
-2.23884e-08
2.96048e-08
-5.35615e-08
5.87008e-08
-9.93138e-08
9.01322e-08
-1.57864e-07
1.17475e-07
-2.25596e-07
1.35832e-07
-2.98926e-07
1.45228e-07
-3.76521e-07
1.51419e-07
-4.60301e-07
1.62732e-07
-5.54502e-07
1.85121e-07
-6.6331e-07
2.18972e-07
-7.8819e-07
2.58617e-07
-9.25122e-07
2.93123e-07
-1.06048e-06
3.02237e-07
-1.16373e-06
2.47318e-07
-1.17626e-06
5.94054e-08
-1.01284e-06
-3.39862e-07
-6.69639e-07
-7.75698e-07
-1.94509e-07
-1.11337e-06
3.11622e-07
-1.17005e-06
7.1214e-07
-8.77549e-07
9.30274e-07
-4.26851e-07
9.7389e-07
-2.41047e-08
8.98286e-07
2.272e-07
7.60607e-07
3.45728e-07
5.97963e-07
3.83599e-07
4.34329e-07
3.73634e-07
2.85798e-07
3.32419e-07
1.63312e-07
2.68603e-07
7.34735e-08
1.90365e-07
1.9019e-08
1.08421e-07
3.39502e-08
-9.23946e-09
1.68857e-08
-3.80663e-08
5.84317e-08
-8.85035e-08
1.09138e-07
-1.6024e-07
1.61869e-07
-2.50219e-07
2.07454e-07
-3.5363e-07
2.39243e-07
-4.66164e-07
2.57761e-07
-5.86248e-07
2.71503e-07
-7.15756e-07
2.9224e-07
-8.58678e-07
3.28043e-07
-1.01835e-06
3.78646e-07
-1.19428e-06
4.34544e-07
-1.37852e-06
4.77368e-07
-1.55088e-06
4.7459e-07
-1.67129e-06
3.67733e-07
-1.66788e-06
5.59967e-08
-1.44729e-06
-5.6046e-07
-1.02118e-06
-1.2018e-06
-4.63088e-07
-1.67147e-06
1.43964e-07
-1.7771e-06
6.7269e-07
-1.40627e-06
1.00573e-06
-7.59896e-07
1.12253e-06
-1.40896e-07
1.07364e-06
2.76087e-07
9.31269e-07
4.88097e-07
7.45129e-07
5.69739e-07
5.48915e-07
5.69849e-07
3.65858e-07
5.15475e-07
2.11754e-07
4.22708e-07
9.64991e-08
3.0562e-07
2.52986e-08
1.79621e-07
5.92487e-08
-1.44834e-08
3.13691e-08
-5.87582e-08
1.02707e-07
-1.34671e-07
1.85051e-07
-2.40574e-07
2.67772e-07
-3.71467e-07
3.38347e-07
-5.20831e-07
3.88607e-07
-6.83371e-07
4.20301e-07
-8.57028e-07
4.45161e-07
-1.04302e-06
4.78231e-07
-1.24402e-06
5.29047e-07
-1.46126e-06
5.95879e-07
-1.69119e-06
6.64478e-07
-1.92157e-06
7.07752e-07
-2.12646e-06
6.7948e-07
-2.25906e-06
5.00328e-07
-2.23967e-06
3.66075e-08
-1.97561e-06
-8.24524e-07
-1.49484e-06
-1.68256e-06
-8.89156e-07
-2.27715e-06
-2.3184e-07
-2.43441e-06
3.97616e-07
-2.03573e-06
8.66772e-07
-1.22905e-06
1.09396e-06
-3.68079e-07
1.10485e-06
2.65197e-07
9.85414e-07
6.07529e-07
8.00249e-07
7.54904e-07
5.93758e-07
7.7634e-07
3.96543e-07
7.1269e-07
2.2912e-07
5.90131e-07
1.03918e-07
4.30822e-07
2.70257e-08
2.56514e-07
8.62744e-08
-2.1053e-08
5.24221e-08
-8.46372e-08
1.66291e-07
-1.92324e-07
2.92737e-07
-3.40702e-07
4.1615e-07
-5.22216e-07
5.19861e-07
-7.28025e-07
5.94416e-07
-9.51299e-07
6.43574e-07
-1.18889e-06
6.82753e-07
-1.44062e-06
7.29959e-07
-1.70697e-06
7.95399e-07
-1.98631e-06
8.75224e-07
-2.27188e-06
9.50046e-07
-2.54791e-06
9.83781e-07
-2.78493e-06
9.165e-07
-2.93326e-06
6.48659e-07
-2.91142e-06
1.47617e-08
-2.63133e-06
-1.10462e-06
-2.13042e-06
-2.18347e-06
-1.50497e-06
-2.90261e-06
-8.36286e-07
-3.10309e-06
-1.59892e-07
-2.71213e-06
4.38151e-07
-1.8271e-06
8.17854e-07
-7.47783e-07
9.30373e-07
1.52678e-07
8.66921e-07
6.70982e-07
7.14312e-07
9.07512e-07
5.29311e-07
9.61341e-07
3.49293e-07
8.92708e-07
1.97892e-07
7.41531e-07
8.74944e-08
5.4122e-07
2.20241e-08
3.21984e-07
1.08299e-07
-2.86732e-08
8.10952e-08
-1.14629e-07
2.52247e-07
-2.59139e-07
4.37247e-07
-4.56816e-07
6.13826e-07
-6.97142e-07
7.60188e-07
-9.68381e-07
8.65655e-07
-1.26146e-06
9.36657e-07
-1.57142e-06
9.92708e-07
-1.8961e-06
1.05464e-06
-2.23355e-06
1.13285e-06
-2.57949e-06
1.22116e-06
-2.9247e-06
1.29526e-06
-3.2516e-06
1.31068e-06
-3.52983e-06
1.19474e-06
-3.71026e-06
8.29081e-07
-3.71316e-06
1.76623e-08
-3.45255e-06
-1.36522e-06
-2.96635e-06
-2.66967e-06
-2.34814e-06
-3.52082e-06
-1.67575e-06
-3.77548e-06
-9.92858e-07
-3.39502e-06
-3.31773e-07
-2.48818e-06
2.12176e-07
-1.29173e-06
4.98189e-07
-1.33335e-07
5.38869e-07
6.30302e-07
4.62198e-07
9.84183e-07
3.39978e-07
1.08356e-06
2.16507e-07
1.01618e-06
1.15936e-07
8.42103e-07
4.7586e-08
6.0957e-07
1.08146e-08
3.58756e-07
1.19113e-07
-3.656e-08
1.17655e-07
-1.45874e-07
3.6156e-07
-3.29244e-07
6.20618e-07
-5.79618e-07
8.642e-07
-8.83581e-07
1.06415e-06
-1.22618e-06
1.20825e-06
-1.59548e-06
1.30596e-06
-1.98415e-06
1.38138e-06
-2.38796e-06
1.45844e-06
-2.80299e-06
1.54789e-06
-3.22329e-06
1.64146e-06
-3.63852e-06
1.71049e-06
-4.0309e-06
1.70305e-06
-4.37083e-06
1.53467e-06
-4.61057e-06
1.06882e-06
-4.67205e-06
7.91458e-08
-4.46544e-06
-1.57183e-06
-4.02563e-06
-3.10948e-06
-3.44154e-06
-4.10491e-06
-2.783e-06
-4.43402e-06
-2.09074e-06
-4.08727e-06
-1.39731e-06
-3.18161e-06
-7.55399e-07
-1.93364e-06
-2.51961e-07
-6.36773e-07
-2.12274e-09
3.80464e-07
6.08896e-08
9.21171e-07
5.28464e-08
1.0916e-06
2.62367e-08
1.04279e-06
5.4764e-09
8.62863e-07
-3.00036e-09
6.18046e-07
-2.49215e-09
3.58247e-07
1.16621e-07
-4.35018e-08
1.61157e-07
-1.74004e-07
4.92063e-07
-3.93793e-07
8.40407e-07
-6.95303e-07
1.16571e-06
-1.06305e-06
1.4319e-06
-1.47902e-06
1.62421e-06
-1.92811e-06
1.75505e-06
-2.40041e-06
1.85369e-06
-2.8899e-06
1.94793e-06
-3.39158e-06
2.04957e-06
-3.8989e-06
2.14878e-06
-4.40138e-06
2.21296e-06
-4.88147e-06
2.18314e-06
-5.30981e-06
1.96302e-06
-5.63818e-06
1.39719e-06
-5.78806e-06
2.29019e-07
-5.66332e-06
-1.69657e-06
-5.29851e-06
-3.47429e-06
-4.77665e-06
-4.62677e-06
-4.15387e-06
-5.05681e-06
-3.45882e-06
-4.78231e-06
-2.71516e-06
-3.92527e-06
-1.95833e-06
-2.69047e-06
-1.25645e-06
-1.33866e-06
-7.37136e-07
-1.38851e-07
-4.40104e-07
6.24139e-07
-2.73873e-07
9.25373e-07
-1.71348e-07
9.40263e-07
-9.94209e-08
7.90935e-07
-4.69139e-08
5.6554e-07
-1.29537e-08
3.24287e-07
1.03667e-07
-4.81702e-08
2.09327e-07
-1.9415e-07
6.38043e-07
-4.42783e-07
1.08904e-06
-7.88105e-07
1.51103e-06
-1.21434e-06
1.85813e-06
-1.70119e-06
2.11107e-06
-2.23044e-06
2.2843e-06
-2.78951e-06
2.41276e-06
-3.37087e-06
2.52929e-06
-3.96905e-06
2.64774e-06
-4.57737e-06
2.75711e-06
-5.18508e-06
2.82068e-06
-5.77378e-06
2.77184e-06
-6.31228e-06
2.50152e-06
-6.74974e-06
1.83465e-06
-7.00766e-06
4.86939e-07
-6.98606e-06
-1.71817e-06
-6.72266e-06
-3.73769e-06
-6.2912e-06
-5.05824e-06
-5.72674e-06
-5.62126e-06
-5.03819e-06
-5.47087e-06
-4.23438e-06
-4.72909e-06
-3.34409e-06
-3.58075e-06
-2.42879e-06
-2.25395e-06
-1.57561e-06
-9.92036e-07
-9.5554e-07
4.07061e-09
-5.64704e-07
5.34537e-07
-3.20734e-07
6.96293e-07
-1.65094e-07
6.35295e-07
-6.86187e-08
4.69064e-07
-1.64916e-08
2.7216e-07
8.71756e-08
-4.93334e-08
2.58661e-07
-2.01564e-07
7.90273e-07
-4.66014e-07
1.35349e-06
-8.41267e-07
1.88629e-06
-1.31402e-06
2.33089e-06
-1.86325e-06
2.6603e-06
-2.46772e-06
2.88877e-06
-3.11176e-06
3.0568e-06
-3.78603e-06
3.20356e-06
-4.48438e-06
3.34609e-06
-5.19966e-06
3.47239e-06
-5.91994e-06
3.54095e-06
-6.6245e-06
3.4764e-06
-7.27912e-06
3.15614e-06
-7.83075e-06
2.38628e-06
-8.20525e-06
8.61438e-07
-8.30284e-06
-1.62058e-06
-8.16485e-06
-3.87568e-06
-7.85087e-06
-5.37221e-06
-7.36827e-06
-6.10386e-06
-6.70074e-06
-6.13839e-06
-5.84082e-06
-5.58901e-06
-4.81231e-06
-4.60927e-06
-3.68225e-06
-3.38402e-06
-2.56056e-06
-2.11372e-06
-1.56482e-06
-9.9167e-07
-8.6276e-07
-1.67525e-07
-4.33213e-07
2.66746e-07
-1.93233e-07
3.95315e-07
-6.78619e-08
3.43693e-07
-1.29766e-08
2.17275e-07
7.4199e-08
-4.57423e-08
3.04403e-07
-1.91134e-07
9.35664e-07
-4.51838e-07
1.61419e-06
-8.34525e-07
2.26897e-06
-1.33226e-06
2.82863e-06
-1.92565e-06
3.25368e-06
-2.59057e-06
3.55369e-06
-3.30694e-06
3.77317e-06
-4.06208e-06
3.9587e-06
-4.84816e-06
4.13216e-06
-5.65694e-06
4.28117e-06
-6.47494e-06
4.35894e-06
-7.27922e-06
4.28069e-06
-8.03385e-06
3.91077e-06
-8.68725e-06
3.03968e-06
-9.17533e-06
1.34951e-06
-9.40213e-06
-1.39377e-06
-9.41144e-06
-3.86637e-06
-9.24581e-06
-5.53784e-06
-8.88131e-06
-6.46836e-06
-8.27407e-06
-6.74563e-06
-7.40027e-06
-6.46281e-06
-6.28058e-06
-5.72896e-06
-4.98953e-06
-4.67506e-06
-3.64893e-06
-3.45433e-06
-2.40466e-06
-2.23594e-06
-1.38642e-06
-1.18576e-06
-6.93012e-07
-4.26667e-07
-2.91946e-07
-5.75042e-09
-9.39576e-08
1.45705e-07
-1.57157e-08
1.39033e-07
5.84833e-08
-3.59569e-08
3.4036e-07
-1.56678e-07
1.05639e-06
-3.85416e-07
1.84293e-06
-7.40634e-07
2.62419e-06
-1.22696e-06
3.31495e-06
-1.8306e-06
3.85732e-06
-2.52512e-06
4.24821e-06
-3.2836e-06
4.53165e-06
-4.08697e-06
4.76208e-06
-4.92382e-06
4.969e-06
-5.78468e-06
5.14204e-06
-6.6558e-06
5.23006e-06
-7.51464e-06
5.13953e-06
-8.32778e-06
4.7239e-06
-9.05089e-06
3.7628e-06
-9.63504e-06
1.93365e-06
-9.99108e-06
-1.03773e-06
-1.01674e-05
-3.69009e-06
-1.01919e-05
-5.51327e-06
-1.0009e-05
-6.65127e-06
-9.54488e-06
-7.20977e-06
-8.75462e-06
-7.25307e-06
-7.64707e-06
-6.83652e-06
-6.29239e-06
-6.02974e-06
-4.81402e-06
-4.9327e-06
-3.3684e-06
-3.68156e-06
-2.11111e-06
-2.44305e-06
-1.15044e-06
-1.38734e-06
-5.23499e-07
-6.32687e-07
-1.8246e-07
-1.95334e-07
-3.41653e-08
-9.26177e-09
2.4318e-08
-1.86946e-08
3.59054e-07
-9.20046e-08
1.1297e-06
-2.50451e-07
2.00138e-06
-5.26952e-07
2.90069e-06
-9.4383e-07
3.73183e-06
-1.49994e-06
4.41344e-06
-2.16968e-06
4.91795e-06
-2.91679e-06
5.27876e-06
-3.71075e-06
5.55604e-06
-4.533e-06
5.79125e-06
-5.37259e-06
5.98164e-06
-6.21847e-06
6.07594e-06
-7.05393e-06
5.97499e-06
-7.85497e-06
5.52494e-06
-8.59219e-06
4.50001e-06
-9.23628e-06
2.57775e-06
-9.70479e-06
-5.69218e-07
-1.00623e-05
-3.3326e-06
-1.03315e-05
-5.244e-06
-1.04269e-05
-6.55587e-06
-1.0239e-05
-7.39773e-06
-9.6888e-06
-7.80326e-06
-8.75481e-06
-7.77051e-06
-7.48328e-06
-7.30126e-06
-5.982e-06
-6.43398e-06
-4.40517e-06
-5.25839e-06
-2.92859e-06
-3.91963e-06
-1.71073e-06
-2.6052e-06
-8.42195e-07
-1.50123e-06
-3.16915e-07
-7.20615e-07
-6.54556e-08
-2.60721e-07
-4.11376e-08
5.09544e-09
3.53959e-07
4.04146e-10
1.13439e-06
-4.66028e-08
2.04839e-06
-1.79326e-07
3.03342e-06
-4.41279e-07
3.99378e-06
-8.56285e-07
4.82844e-06
-1.41105e-06
5.47272e-06
-2.06104e-06
5.92875e-06
-2.75945e-06
6.25445e-06
-3.47359e-06
6.50539e-06
-4.18675e-06
6.6948e-06
-4.89211e-06
6.7813e-06
-5.58541e-06
6.66829e-06
-6.26253e-06
6.20206e-06
-6.9239e-06
5.16138e-06
-7.57677e-06
3.23061e-06
-8.13968e-06
-6.29977e-09
-8.67288e-06
-2.7994e-06
-9.24305e-06
-4.67383e-06
-9.74055e-06
-6.05838e-06
-1.00112e-05
-7.12707e-06
-9.92099e-06
-7.89348e-06
-9.38785e-06
-8.30365e-06
-8.408e-06
-8.28112e-06
-7.05496e-06
-7.78703e-06
-5.46977e-06
-6.84358e-06
-3.84135e-06
-5.54804e-06
-2.37385e-06
-4.0727e-06
-1.23325e-06
-2.64183e-06
-4.89317e-07
-1.46454e-06
-1.07195e-07
-6.42843e-07
-1.48332e-07
2.76182e-08
3.26341e-07
9.25151e-08
1.06949e-06
1.68934e-07
1.97197e-06
2.15314e-07
2.98704e-06
1.8065e-07
4.02845e-06
2.11814e-08
4.98791e-06
-2.75749e-07
5.76965e-06
-6.82813e-07
6.33581e-06
-1.14633e-06
6.71797e-06
-1.6134e-06
6.97246e-06
-2.04801e-06
7.1294e-06
-2.44291e-06
7.1762e-06
-2.80347e-06
7.02885e-06
-3.13945e-06
6.53804e-06
-3.46371e-06
5.48564e-06
-3.82308e-06
3.58998e-06
-4.28947e-06
4.60093e-07
-4.89492e-06
-2.19395e-06
-5.66175e-06
-3.907e-06
-6.52076e-06
-5.19937e-06
-7.31266e-06
-6.33517e-06
-7.86671e-06
-7.33943e-06
-8.01592e-06
-8.15443e-06
-7.67439e-06
-8.62265e-06
-6.84571e-06
-8.61571e-06
-5.62304e-06
-8.06625e-06
-4.17471e-06
-6.99637e-06
-2.7194e-06
-5.52801e-06
-1.47987e-06
-3.88136e-06
-6.09572e-07
-2.33484e-06
-1.38065e-07
-1.11435e-06
-2.86397e-07
3.89194e-08
2.87421e-07
1.43662e-07
9.64747e-07
2.96971e-07
1.81866e-06
4.65687e-07
2.81832e-06
6.04802e-07
3.88933e-06
6.68884e-07
4.92383e-06
6.27265e-07
5.81127e-06
4.8256e-07
6.48052e-06
2.75233e-07
6.9253e-06
6.26935e-08
7.185e-06
-1.06102e-07
7.2982e-06
-2.10055e-07
7.28015e-06
-2.53973e-07
7.07277e-06
-2.58638e-07
6.54271e-06
-2.56363e-07
5.48337e-06
-2.59957e-07
3.59357e-06
-4.95012e-07
6.95147e-07
-1.01136e-06
-1.6776e-06
-1.70391e-06
-3.21446e-06
-2.58293e-06
-4.32034e-06
-3.56569e-06
-5.35241e-06
-4.53407e-06
-6.37105e-06
-5.25849e-06
-7.43001e-06
-5.58057e-06
-8.30057e-06
-5.41827e-06
-8.77801e-06
-4.78741e-06
-8.6971e-06
-3.79448e-06
-7.9893e-06
-2.62233e-06
-6.70017e-06
-1.50077e-06
-5.00292e-06
-6.41593e-07
-3.19402e-06
-1.49256e-07
-1.60669e-06
-4.35653e-07
4.19249e-08
2.45496e-07
1.62239e-07
8.44433e-07
3.52648e-07
1.62825e-06
5.88641e-07
2.58233e-06
8.31577e-07
3.64639e-06
1.03768e-06
4.71773e-06
1.17208e-06
5.67687e-06
1.22464e-06
6.42796e-06
1.21934e-06
6.93059e-06
1.20492e-06
7.19941e-06
1.23034e-06
7.27278e-06
1.3291e-06
7.18139e-06
1.50291e-06
6.89896e-06
1.72209e-06
6.32353e-06
1.9313e-06
5.27416e-06
2.03877e-06
3.4861e-06
1.84633e-06
8.87589e-07
1.38928e-06
-1.22055e-06
7.90656e-07
-2.61583e-06
4.98183e-08
-3.5795e-06
-8.65711e-07
-4.43688e-06
-1.92114e-06
-5.31562e-06
-2.92645e-06
-6.4247e-06
-3.68185e-06
-7.54517e-06
-4.02892e-06
-8.43094e-06
-3.90612e-06
-8.81991e-06
-3.34758e-06
-8.54784e-06
-2.47916e-06
-7.56858e-06
-1.5071e-06
-5.97498e-06
-6.74837e-07
-4.02628e-06
-1.62056e-07
-2.11947e-06
-5.97709e-07
3.91045e-08
2.06392e-07
1.56638e-07
7.269e-07
3.52399e-07
1.43249e-06
6.11438e-07
2.32329e-06
9.03869e-07
3.35396e-06
1.19175e-06
4.42984e-06
1.4414e-06
5.42723e-06
1.6373e-06
6.23205e-06
1.79135e-06
6.77655e-06
1.93899e-06
7.05177e-06
2.12213e-06
7.08965e-06
2.37209e-06
6.93143e-06
2.69093e-06
6.58012e-06
3.04378e-06
5.97068e-06
3.35678e-06
4.96116e-06
3.49783e-06
3.34505e-06
3.30197e-06
1.08345e-06
2.8487e-06
-7.67282e-07
2.26094e-06
-2.02807e-06
1.6105e-06
-2.92906e-06
8.43796e-07
-3.67018e-06
-6.80634e-08
-4.40376e-06
-1.11173e-06
-5.38103e-06
-2.08225e-06
-6.57465e-06
-2.77177e-06
-7.74142e-06
-3.049e-06
-8.54268e-06
-2.87464e-06
-8.7222e-06
-2.30654e-06
-8.13668e-06
-1.50432e-06
-6.7772e-06
-7.13012e-07
-4.81758e-06
-1.77676e-07
-2.6548e-06
-7.75385e-07
3.26515e-08
1.7374e-07
1.34812e-07
6.2474e-07
3.12493e-07
1.25481e-06
5.60218e-07
2.07556e-06
8.58851e-07
3.05533e-06
1.18013e-06
4.10857e-06
1.4967e-06
5.11066e-06
1.79339e-06
5.93536e-06
2.07424e-06
6.4957e-06
2.36067e-06
6.76534e-06
2.6801e-06
6.77022e-06
3.05236e-06
6.55916e-06
3.47375e-06
6.15872e-06
3.9061e-06
5.53833e-06
4.26948e-06
4.59778e-06
4.42707e-06
3.18746e-06
4.24663e-06
1.26388e-06
3.80906e-06
-3.29711e-07
3.22446e-06
-1.44348e-06
2.56309e-06
-2.26769e-06
1.85819e-06
-2.96528e-06
1.11831e-06
-3.66388e-06
2.32284e-07
-4.49501e-06
-7.54589e-07
-5.58778e-06
-1.64047e-06
-6.85554e-06
-2.21745e-06
-7.9657e-06
-2.37608e-06
-8.56357e-06
-2.10107e-06
-8.41169e-06
-1.48904e-06
-7.38923e-06
-7.58112e-07
-5.54851e-06
-1.98591e-07
-3.21432e-06
-9.73976e-07
2.38677e-08
1.49873e-07
1.0184e-07
5.46767e-07
2.44142e-07
1.1125e-06
4.54431e-07
1.86527e-06
7.26227e-07
2.78353e-06
1.04441e-06
3.79038e-06
1.39206e-06
4.76301e-06
1.75807e-06
5.56935e-06
2.14098e-06
6.11279e-06
2.5474e-06
6.35891e-06
2.98592e-06
6.33171e-06
3.45978e-06
6.08531e-06
3.95615e-06
5.66235e-06
4.43526e-06
5.05922e-06
4.8207e-06
4.21234e-06
4.99012e-06
3.01804e-06
4.84324e-06
1.41076e-06
4.45014e-06
6.3393e-08
3.90306e-06
-8.96399e-07
3.26488e-06
-1.62951e-06
2.58281e-06
-2.2832e-06
1.88521e-06
-2.96629e-06
1.15868e-06
-3.76849e-06
3.20423e-07
-4.74952e-06
-5.96849e-07
-5.93827e-06
-1.38109e-06
-7.18146e-06
-1.8263e-06
-8.11835e-06
-1.83977e-06
-8.39823e-06
-1.44324e-06
-7.78576e-06
-8.03123e-07
-6.18863e-06
-2.25756e-07
-3.79169e-06
-1.19973e-06
1.28377e-08
1.37035e-07
5.87294e-08
5.00876e-07
1.5103e-07
1.0202e-06
3.04077e-07
1.71223e-06
5.26924e-07
2.56069e-06
8.19507e-07
3.4978e-06
1.17689e-06
4.40563e-06
1.59258e-06
5.15365e-06
2.05933e-06
5.64604e-06
2.56769e-06
5.85055e-06
3.1062e-06
5.7932e-06
3.66104e-06
5.53047e-06
4.21049e-06
5.1129e-06
4.71533e-06
4.55438e-06
5.10852e-06
3.81915e-06
5.29051e-06
2.83606e-06
5.19451e-06
1.50676e-06
4.87267e-06
3.85234e-07
4.39186e-06
-4.15589e-07
3.8193e-06
-1.05695e-06
3.19407e-06
-1.65797e-06
2.54361e-06
-2.31582e-06
1.87503e-06
-3.09991e-06
1.16688e-06
-4.04137e-06
3.55792e-07
-5.12717e-06
-5.07832e-07
-6.31784e-06
-1.19368e-06
-7.4325e-06
-1.49337e-06
-8.09854e-06
-1.34267e-06
-7.93646e-06
-8.35391e-07
-6.69591e-06
-2.59681e-07
-4.3674e-06
-1.45941e-06
-2.24883e-09
1.39284e-07
-5.48754e-10
4.99176e-07
2.61814e-08
9.93474e-07
1.08568e-07
1.62984e-06
2.74596e-07
2.39466e-06
5.36216e-07
3.23618e-06
8.97084e-07
4.04476e-06
1.35343e-06
4.6973e-06
1.89031e-06
5.10917e-06
2.48133e-06
5.25953e-06
3.09702e-06
5.17752e-06
3.71015e-06
4.91734e-06
4.29332e-06
4.52972e-06
4.81062e-06
4.03709e-06
5.20763e-06
3.42213e-06
5.40888e-06
2.6348e-06
5.36626e-06
1.54939e-06
5.12991e-06
6.21585e-07
4.75496e-06
-4.06472e-08
4.29143e-06
-5.93408e-07
3.76509e-06
-1.13164e-06
3.19456e-06
-1.74529e-06
2.5849e-06
-2.49025e-06
1.92736e-06
-3.38384e-06
1.20262e-06
-4.40243e-06
3.78601e-07
-5.49382e-06
-4.54894e-07
-6.59901e-06
-1.03603e-06
-7.51741e-06
-1.16373e-06
-7.80876e-06
-8.40075e-07
-7.01956e-06
-3.00438e-07
-4.90704e-06
-1.75985e-06
-2.42311e-08
1.63515e-07
-8.1092e-08
5.56036e-07
-1.34146e-07
1.04653e-06
-1.2936e-07
1.62505e-06
-1.72214e-08
2.28252e-06
2.24271e-07
2.99469e-06
5.95392e-07
3.67364e-06
1.09065e-06
4.20204e-06
1.68598e-06
4.51384e-06
2.3389e-06
4.60661e-06
3.00733e-06
4.50909e-06
3.65692e-06
4.26775e-06
4.25935e-06
3.92729e-06
4.78498e-06
3.51146e-06
5.19367e-06
3.01344e-06
5.43289e-06
2.39558e-06
5.46608e-06
1.5162e-06
5.34164e-06
7.46027e-07
5.09432e-06
2.06669e-07
4.75632e-06
-2.55405e-07
4.35168e-06
-7.27003e-07
3.88464e-06
-1.27825e-06
3.34911e-06
-1.95471e-06
2.73394e-06
-2.76867e-06
2.02999e-06
-3.69848e-06
1.23655e-06
-4.70038e-06
3.62342e-07
-5.7248e-06
-4.46774e-07
-6.70829e-06
-8.84559e-07
-7.37098e-06
-8.00461e-07
-7.10366e-06
-3.45226e-07
-5.36227e-06
-2.10508e-06
-6.06345e-08
2.24149e-07
-1.95476e-07
6.90878e-07
-3.33513e-07
1.18457e-06
-3.96634e-07
1.68817e-06
-3.25192e-07
2.21108e-06
-8.52509e-08
2.75475e-06
3.11842e-07
3.27655e-06
8.4965e-07
3.66424e-06
1.49293e-06
3.87056e-06
2.18817e-06
3.91137e-06
2.88892e-06
3.80835e-06
3.56059e-06
3.59607e-06
4.17843e-06
3.30945e-06
4.72093e-06
2.96896e-06
5.16153e-06
2.57284e-06
5.46552e-06
2.0916e-06
5.59628e-06
1.38544e-06
5.58713e-06
7.55184e-07
5.47024e-06
3.23558e-07
5.26726e-06
-5.2432e-08
4.99098e-06
-4.50715e-07
4.63363e-06
-9.20908e-07
4.1789e-06
-1.49998e-06
3.60941e-06
-2.19918e-06
2.91603e-06
-3.00511e-06
2.10518e-06
-3.88953e-06
1.20263e-06
-4.82225e-06
2.64662e-07
-5.77032e-06
-4.80452e-07
-6.62586e-06
-6.94115e-07
-6.89e-06
-3.84272e-07
-5.67212e-06
-2.48935e-06
-1.21593e-07
3.45743e-07
-3.52393e-07
9.21678e-07
-5.63985e-07
1.39616e-06
-6.62026e-07
1.78622e-06
-5.9378e-07
2.14283e-06
-3.37403e-07
2.49837e-06
1.00034e-07
2.83911e-06
6.8767e-07
3.0766e-06
1.37055e-06
3.18768e-06
2.09517e-06
3.18675e-06
2.81899e-06
3.08452e-06
3.51203e-06
2.90304e-06
4.15495e-06
2.66653e-06
4.73318e-06
2.39073e-06
5.22947e-06
2.07654e-06
5.61859e-06
1.70247e-06
5.85397e-06
1.15006e-06
5.95329e-06
6.55871e-07
5.95379e-06
3.23054e-07
5.86907e-06
3.22916e-08
5.70111e-06
-2.82757e-07
5.43769e-06
-6.57489e-07
5.05613e-06
-1.11842e-06
4.5334e-06
-1.67645e-06
3.85574e-06
-2.32745e-06
3.02672e-06
-3.06051e-06
2.07217e-06
-3.8677e-06
1.04843e-06
-4.74658e-06
8.15089e-08
-5.65894e-06
-4.8794e-07
-6.32055e-06
-3.97664e-07
-5.76239e-06
-2.88701e-06
-2.14637e-07
5.60379e-07
-5.40119e-07
1.24716e-06
-7.81212e-07
1.63725e-06
-8.55367e-07
1.86037e-06
-7.38985e-07
2.02645e-06
-4.29832e-07
2.18922e-06
6.78803e-08
2.3414e-06
7.09522e-07
2.43496e-06
1.42762e-06
2.46958e-06
2.1792e-06
2.43517e-06
2.92906e-06
2.33467e-06
3.65223e-06
2.17986e-06
4.3327e-06
1.98607e-06
4.95843e-06
1.765e-06
5.51542e-06
1.51955e-06
5.98081e-06
1.23709e-06
6.29713e-06
8.33737e-07
6.47371e-06
4.79287e-07
6.55335e-06
2.4342e-07
6.54852e-06
3.71216e-08
6.45518e-06
-1.89417e-07
6.25845e-06
-4.60761e-07
5.93465e-06
-7.94616e-07
5.45837e-06
-1.20017e-06
4.8103e-06
-1.67938e-06
3.98486e-06
-2.23506e-06
2.99694e-06
-2.87978e-06
1.89008e-06
-3.63972e-06
7.63176e-07
-4.53204e-06
-1.33104e-07
-5.42427e-06
-3.54896e-07
-5.5406e-06
-3.24191e-06
-3.31085e-07
8.91464e-07
-7.03642e-07
1.61972e-06
-8.71725e-07
1.80533e-06
-8.22415e-07
1.81106e-06
-5.82768e-07
1.7868e-06
-1.62912e-07
1.76936e-06
4.19066e-07
1.75942e-06
1.10834e-06
1.74569e-06
1.85835e-06
1.71957e-06
2.6346e-06
1.65891e-06
3.40726e-06
1.56201e-06
4.15355e-06
1.43357e-06
4.85712e-06
1.2825e-06
5.50483e-06
1.11728e-06
6.08285e-06
9.4153e-07
6.56993e-06
7.50016e-07
6.90834e-06
4.9532e-07
7.10866e-06
2.7897e-07
7.21599e-06
1.36085e-07
7.24382e-06
9.29472e-09
7.18642e-06
-1.32016e-07
7.02834e-06
-3.02677e-07
6.7482e-06
-5.14482e-07
6.3214e-06
-7.73373e-07
5.72513e-06
-1.0831e-06
4.94311e-06
-1.45305e-06
3.97126e-06
-1.90792e-06
2.82771e-06
-2.49618e-06
1.57837e-06
-3.2827e-06
4.08044e-07
-4.25394e-06
-2.15456e-07
-4.9171e-06
-3.45736e-06
-4.45331e-07
1.3368e-06
-6.89647e-07
1.86403e-06
-5.78608e-07
1.69429e-06
-2.52338e-07
1.48479e-06
2.12856e-07
1.32161e-06
7.87694e-07
1.19452e-06
1.4463e-06
1.10081e-06
2.16484e-06
1.02715e-06
2.91934e-06
9.65063e-07
3.68165e-06
8.966e-07
4.42656e-06
8.17098e-07
5.13312e-06
7.27016e-07
5.78528e-06
6.30345e-07
6.37086e-06
5.31698e-07
6.8792e-06
4.33187e-07
7.29605e-06
3.33166e-07
7.57917e-06
2.12204e-07
7.74456e-06
1.13577e-07
7.833e-06
4.76422e-08
7.85459e-06
-1.2291e-08
7.80355e-06
-8.09805e-08
7.66747e-06
-1.66593e-07
7.42783e-06
-2.7484e-07
7.06289e-06
-4.08436e-07
6.54998e-06
-5.70193e-07
5.86603e-06
-7.69099e-07
4.98762e-06
-1.02951e-06
3.89466e-06
-1.40322e-06
2.59113e-06
-1.97916e-06
1.18975e-06
-2.85256e-06
1.16569e-07
-3.84393e-06
-3.3408e-06
-3.74387e-07
1.71118e-06
1.83037e-08
1.47134e-06
7.20283e-07
9.92314e-07
1.41973e-06
7.85343e-07
2.10534e-06
6.35998e-07
2.78556e-06
5.14307e-07
3.46053e-06
4.2584e-07
4.12602e-06
3.61662e-07
4.77728e-06
3.13806e-07
5.40118e-06
2.72695e-07
5.9838e-06
2.34478e-07
6.51296e-06
1.97854e-07
6.98016e-06
1.63155e-07
7.38072e-06
1.3113e-07
7.7122e-06
1.01711e-07
7.9712e-06
7.41614e-08
8.139e-06
4.44036e-08
8.23157e-06
2.10101e-08
8.27474e-06
4.46881e-09
8.27388e-06
-1.14236e-08
8.22381e-06
-3.09179e-08
8.11414e-06
-5.69149e-08
7.93013e-06
-9.08332e-08
7.65501e-06
-1.33313e-07
7.27031e-06
-1.85491e-07
6.75316e-06
-2.51953e-07
6.07e-06
-3.46346e-07
5.16803e-06
-5.01247e-07
3.97139e-06
-7.82524e-07
2.42077e-06
-1.30194e-06
7.47209e-07
-2.17037e-06
-2.59359e-06
1.71118e-06
3.18252e-06
4.17484e-06
4.96018e-06
5.59618e-06
6.11049e-06
6.53633e-06
6.89799e-06
7.21179e-06
7.48449e-06
7.71897e-06
7.91682e-06
8.07998e-06
8.21111e-06
8.31282e-06
8.38698e-06
8.43138e-06
8.45239e-06
8.45686e-06
8.44544e-06
8.41452e-06
8.3576e-06
8.26677e-06
8.13346e-06
7.94797e-06
7.69601e-06
7.34967e-06
6.84842e-06
6.0659e-06
4.76395e-06
2.59359e-06
)
;

boundaryField
{
    movingWall
    {
        type            calculated;
        value           uniform 0;
    }
    fixedWalls
    {
        type            calculated;
        value           uniform 0;
    }
    floor
    {
        type            calculated;
        value           uniform 0;
    }
    frontAndBack
    {
        type            empty;
        value           nonuniform List<scalar> 0();
    }
}


// ************************************************************************* //
