/*--------------------------------*- C++ -*----------------------------------*\
| =========                 |                                                 |
| \\      /  F ield         | OpenFOAM: The Open Source CFD Toolbox           |
|  \\    /   O peration     | Version:  2212                                  |
|   \\  /    A nd           | Website:  www.openfoam.com                      |
|    \\/     M anipulation  |                                                 |
\*---------------------------------------------------------------------------*/
FoamFile
{
    version     2.0;
    format      ascii;
    arch        "LSB;label=64;scalar=64";
    class       volScalarField;
    location    "1860";
    object      Saa;
}
// * * * * * * * * * * * * * * * * * * * * * * * * * * * * * * * * * * * * * //

dimensions      [1 -3 0 0 0 0 0];

internalField   nonuniform List<scalar> 
1024
(
0.00548037
0.0054804
0.00548046
0.00548056
0.00548074
0.00548099
0.00548136
0.00548184
0.00548246
0.00548319
0.005484
0.00548485
0.00548566
0.0054864
0.00548701
0.00548748
0.00548776
0.00548783
0.00548772
0.00548747
0.00548711
0.00548667
0.00548618
0.0054857
0.00548525
0.00548487
0.00548458
0.00548436
0.00548422
0.00548413
0.00548408
0.00548406
0.00548038
0.0054804
0.00548046
0.00548057
0.00548075
0.00548101
0.00548137
0.00548186
0.00548248
0.00548321
0.00548403
0.00548488
0.00548569
0.00548642
0.00548703
0.0054875
0.00548778
0.00548785
0.00548775
0.0054875
0.00548714
0.0054867
0.00548621
0.00548572
0.00548527
0.00548489
0.00548459
0.00548438
0.00548423
0.00548414
0.00548409
0.00548407
0.0054804
0.00548042
0.00548048
0.00548059
0.00548077
0.00548104
0.00548141
0.00548191
0.00548254
0.00548328
0.0054841
0.00548494
0.00548576
0.00548648
0.00548709
0.00548756
0.00548784
0.00548791
0.00548781
0.00548757
0.0054872
0.00548676
0.00548626
0.00548577
0.00548531
0.00548493
0.00548462
0.0054844
0.00548425
0.00548416
0.00548411
0.00548409
0.00548043
0.00548046
0.00548052
0.00548063
0.00548082
0.00548109
0.00548148
0.00548199
0.00548263
0.00548338
0.00548421
0.00548505
0.00548586
0.00548658
0.00548718
0.00548765
0.00548794
0.00548802
0.00548793
0.00548768
0.00548731
0.00548685
0.00548635
0.00548585
0.00548538
0.00548498
0.00548467
0.00548444
0.00548429
0.0054842
0.00548414
0.00548412
0.00548048
0.00548051
0.00548057
0.00548069
0.00548088
0.00548117
0.00548157
0.0054821
0.00548276
0.00548353
0.00548437
0.00548522
0.00548602
0.00548673
0.00548733
0.0054878
0.0054881
0.0054882
0.00548812
0.00548787
0.00548748
0.005487
0.00548647
0.00548595
0.00548547
0.00548506
0.00548474
0.00548451
0.00548435
0.00548425
0.0054842
0.00548418
0.00548056
0.00548059
0.00548065
0.00548078
0.00548098
0.00548128
0.00548171
0.00548226
0.00548295
0.00548374
0.00548458
0.00548543
0.00548623
0.00548693
0.00548753
0.00548801
0.00548834
0.00548847
0.0054884
0.00548815
0.00548773
0.00548721
0.00548665
0.00548609
0.00548559
0.00548517
0.00548484
0.0054846
0.00548444
0.00548435
0.0054843
0.00548428
0.00548066
0.00548069
0.00548076
0.00548089
0.00548111
0.00548143
0.00548188
0.00548247
0.00548318
0.00548399
0.00548485
0.0054857
0.00548649
0.00548719
0.00548779
0.00548829
0.00548866
0.00548884
0.00548879
0.00548853
0.00548808
0.00548751
0.00548689
0.00548629
0.00548575
0.00548531
0.00548498
0.00548473
0.00548458
0.00548448
0.00548444
0.00548442
0.00548079
0.00548082
0.0054809
0.00548104
0.00548127
0.00548161
0.00548209
0.00548271
0.00548346
0.0054843
0.00548517
0.00548602
0.0054868
0.0054875
0.00548811
0.00548865
0.00548908
0.00548932
0.00548931
0.00548905
0.00548856
0.00548793
0.00548724
0.00548658
0.005486
0.00548553
0.00548518
0.00548494
0.00548479
0.0054847
0.00548466
0.00548465
0.00548095
0.00548098
0.00548106
0.00548121
0.00548146
0.00548182
0.00548233
0.00548299
0.00548377
0.00548463
0.00548552
0.00548638
0.00548716
0.00548786
0.0054885
0.00548908
0.00548958
0.00548989
0.00548994
0.00548971
0.00548921
0.00548853
0.00548777
0.00548704
0.0054864
0.0054859
0.00548553
0.00548529
0.00548514
0.00548506
0.00548503
0.00548502
0.00548114
0.00548117
0.00548125
0.00548141
0.00548167
0.00548206
0.0054826
0.00548329
0.0054841
0.00548499
0.0054859
0.00548676
0.00548755
0.00548826
0.00548891
0.00548955
0.00549012
0.00549052
0.00549066
0.0054905
0.00549006
0.00548939
0.00548859
0.00548779
0.00548709
0.00548653
0.00548614
0.00548589
0.00548574
0.00548566
0.00548563
0.00548562
0.00548134
0.00548138
0.00548146
0.00548163
0.0054819
0.00548231
0.00548287
0.00548359
0.00548443
0.00548535
0.00548627
0.00548714
0.00548793
0.00548864
0.00548931
0.00548998
0.00549061
0.00549111
0.00549138
0.00549139
0.0054911
0.00549054
0.0054898
0.00548899
0.00548825
0.00548763
0.00548719
0.0054869
0.00548674
0.00548665
0.00548662
0.00548661
0.00548156
0.0054816
0.00548168
0.00548185
0.00548213
0.00548255
0.00548313
0.00548387
0.00548474
0.00548568
0.00548661
0.00548748
0.00548826
0.00548895
0.0054896
0.00549025
0.00549091
0.00549151
0.00549197
0.00549222
0.0054922
0.0054919
0.00549136
0.00549068
0.00548998
0.00548934
0.00548885
0.00548851
0.0054883
0.00548819
0.00548814
0.00548812
0.00548178
0.00548182
0.0054819
0.00548207
0.00548235
0.00548277
0.00548336
0.00548411
0.00548498
0.00548593
0.00548686
0.00548771
0.00548845
0.00548909
0.00548966
0.00549022
0.00549084
0.00549152
0.00549219
0.00549274
0.00549307
0.00549315
0.00549297
0.00549258
0.00549208
0.00549154
0.00549106
0.00549069
0.00549043
0.00549028
0.00549021
0.00549018
0.00548199
0.00548202
0.0054821
0.00548227
0.00548254
0.00548295
0.00548353
0.00548426
0.00548513
0.00548606
0.00548696
0.00548776
0.00548842
0.00548894
0.00548935
0.00548973
0.00549023
0.00549094
0.00549178
0.00549262
0.00549333
0.00549383
0.00549408
0.0054941
0.00549394
0.00549366
0.00549333
0.00549302
0.00549278
0.00549262
0.00549254
0.0054925
0.00548215
0.00548218
0.00548226
0.00548242
0.00548268
0.00548306
0.00548361
0.0054843
0.00548512
0.005486
0.00548685
0.00548757
0.0054881
0.00548843
0.0054886
0.00548872
0.005489
0.00548964
0.00549061
0.0054917
0.00549276
0.00549365
0.00549432
0.00549475
0.00549497
0.00549502
0.00549495
0.00549482
0.00549469
0.00549458
0.00549451
0.00549448
0.00548225
0.00548228
0.00548235
0.00548249
0.00548272
0.00548307
0.00548356
0.00548418
0.00548492
0.00548572
0.00548647
0.00548708
0.00548746
0.00548759
0.00548749
0.00548728
0.00548725
0.00548775
0.00548875
0.00549007
0.00549145
0.00549274
0.0054938
0.00549461
0.00549517
0.00549551
0.00549568
0.00549575
0.00549575
0.00549572
0.0054957
0.00549569
0.00548223
0.00548226
0.00548233
0.00548246
0.00548266
0.00548296
0.00548337
0.00548391
0.00548454
0.00548523
0.00548587
0.00548637
0.00548664
0.00548661
0.00548629
0.00548581
0.00548547
0.00548573
0.00548664
0.00548806
0.00548973
0.0054914
0.00549288
0.00549407
0.00549496
0.00549556
0.00549594
0.00549614
0.00549624
0.00549628
0.00549629
0.00549628
0.00548211
0.00548214
0.0054822
0.00548232
0.0054825
0.00548275
0.00548311
0.00548356
0.00548409
0.00548467
0.00548522
0.00548564
0.00548583
0.00548574
0.00548534
0.00548473
0.00548422
0.00548427
0.005485
0.00548635
0.00548811
0.00549004
0.00549188
0.00549345
0.00549467
0.00549554
0.0054961
0.00549644
0.00549661
0.00549669
0.00549672
0.00549672
0.00548191
0.00548194
0.005482
0.00548211
0.00548227
0.0054825
0.00548281
0.00548319
0.00548364
0.00548413
0.00548459
0.00548495
0.00548512
0.00548502
0.00548464
0.00548405
0.00548352
0.00548348
0.00548407
0.00548529
0.00548701
0.00548901
0.00549104
0.00549287
0.00549437
0.00549548
0.00549623
0.0054967
0.00549695
0.00549707
0.00549711
0.00549712
0.00548167
0.0054817
0.00548176
0.00548186
0.00548201
0.00548222
0.00548249
0.00548282
0.0054832
0.00548362
0.00548401
0.00548432
0.00548447
0.0054844
0.0054841
0.00548361
0.00548319
0.00548319
0.00548373
0.00548485
0.00548646
0.0054884
0.00549047
0.00549243
0.00549411
0.00549542
0.00549634
0.00549693
0.00549726
0.00549742
0.00549748
0.00549749
0.00548144
0.00548146
0.00548152
0.00548161
0.00548175
0.00548193
0.00548217
0.00548246
0.00548279
0.00548314
0.00548347
0.00548374
0.00548389
0.00548387
0.00548368
0.00548338
0.00548315
0.00548328
0.00548385
0.0054849
0.00548639
0.00548821
0.0054902
0.00549217
0.00549394
0.00549537
0.00549643
0.00549713
0.00549754
0.00549774
0.00549782
0.00549784
0.00548128
0.00548129
0.00548133
0.00548141
0.00548152
0.00548168
0.00548189
0.00548214
0.00548242
0.00548272
0.005483
0.00548325
0.00548341
0.00548348
0.00548345
0.00548338
0.00548341
0.00548371
0.00548434
0.00548534
0.00548671
0.00548837
0.00549023
0.00549211
0.00549386
0.00549535
0.0054965
0.0054973
0.00549779
0.00549804
0.00549814
0.00549816
0.00548128
0.00548128
0.0054813
0.00548134
0.00548141
0.00548152
0.00548168
0.00548188
0.00548212
0.00548239
0.00548265
0.00548291
0.00548314
0.00548333
0.00548351
0.00548371
0.00548401
0.0054845
0.00548519
0.00548613
0.00548736
0.00548884
0.00549051
0.00549224
0.0054939
0.00549538
0.00549658
0.00549745
0.005498
0.0054983
0.00549842
0.00549845
0.00548154
0.00548152
0.0054815
0.00548149
0.00548149
0.00548154
0.00548164
0.0054818
0.00548201
0.00548227
0.00548256
0.00548288
0.00548322
0.00548359
0.00548399
0.00548445
0.005485
0.00548563
0.00548635
0.00548723
0.0054883
0.00548958
0.00549102
0.00549256
0.00549408
0.00549548
0.00549667
0.00549758
0.00549819
0.00549853
0.00549868
0.00549871
0.00548213
0.00548209
0.00548202
0.00548195
0.00548189
0.00548187
0.00548192
0.00548204
0.00548225
0.00548254
0.00548291
0.00548334
0.00548383
0.00548437
0.00548497
0.00548564
0.00548636
0.00548707
0.00548778
0.00548857
0.00548948
0.00549055
0.00549175
0.00549306
0.00549439
0.00549567
0.00549681
0.00549772
0.00549836
0.00549874
0.00549891
0.00549895
0.0054831
0.00548303
0.00548292
0.0054828
0.0054827
0.00548265
0.00548269
0.00548282
0.00548307
0.00548343
0.00548388
0.00548443
0.00548505
0.00548573
0.00548646
0.00548724
0.00548803
0.00548875
0.00548942
0.0054901
0.00549085
0.0054917
0.00549267
0.00549374
0.00549486
0.00549597
0.005497
0.00549787
0.00549852
0.00549893
0.00549912
0.00549917
0.00548445
0.00548436
0.00548423
0.00548411
0.00548403
0.00548402
0.0054841
0.00548429
0.0054846
0.00548503
0.00548556
0.00548618
0.00548686
0.0054876
0.00548836
0.00548916
0.00548993
0.0054906
0.00549119
0.00549175
0.00549234
0.005493
0.00549374
0.00549457
0.00549547
0.00549638
0.00549727
0.00549806
0.00549869
0.00549909
0.0054993
0.00549936
0.00548619
0.00548609
0.00548598
0.00548593
0.00548595
0.00548604
0.00548621
0.00548648
0.00548684
0.0054873
0.00548785
0.00548846
0.00548913
0.00548983
0.00549054
0.00549126
0.00549194
0.00549251
0.00549299
0.00549344
0.00549389
0.00549437
0.00549492
0.00549553
0.0054962
0.00549691
0.00549763
0.0054983
0.00549886
0.00549925
0.00549946
0.00549953
0.00548834
0.00548825
0.00548823
0.00548831
0.00548848
0.00548869
0.00548895
0.00548925
0.00548962
0.00549005
0.00549054
0.00549108
0.00549165
0.00549223
0.00549282
0.0054934
0.00549395
0.0054944
0.00549476
0.00549509
0.00549542
0.00549576
0.00549614
0.00549656
0.00549703
0.00549754
0.00549808
0.0054986
0.00549906
0.0054994
0.0054996
0.00549967
0.00549094
0.00549091
0.00549103
0.00549126
0.00549153
0.0054918
0.00549208
0.00549237
0.00549268
0.00549303
0.0054934
0.0054938
0.00549422
0.00549465
0.00549507
0.00549549
0.00549587
0.00549619
0.00549644
0.00549666
0.00549688
0.0054971
0.00549734
0.00549761
0.00549791
0.00549824
0.00549859
0.00549896
0.00549929
0.00549956
0.00549973
0.00549979
0.0054941
0.00549418
0.0054944
0.00549466
0.00549491
0.00549514
0.00549535
0.00549556
0.00549576
0.00549597
0.0054962
0.00549644
0.00549669
0.00549694
0.00549719
0.00549743
0.00549765
0.00549784
0.00549798
0.00549811
0.00549822
0.00549835
0.00549848
0.00549862
0.00549878
0.00549896
0.00549916
0.00549936
0.00549956
0.00549973
0.00549984
0.00549989
0.00549793
0.00549799
0.00549811
0.00549822
0.00549832
0.00549841
0.00549849
0.00549856
0.00549863
0.0054987
0.00549878
0.00549886
0.00549894
0.00549902
0.0054991
0.00549918
0.00549925
0.00549931
0.00549936
0.0054994
0.00549943
0.00549947
0.00549951
0.00549956
0.00549961
0.00549966
0.00549972
0.00549979
0.00549985
0.00549991
0.00549995
0.00549997
)
;

boundaryField
{
    movingWall
    {
        type            fixedValue;
        value           uniform 0.0055;
    }
    fixedWalls
    {
        type            zeroGradient;
    }
    floor
    {
        type            zeroGradient;
    }
    frontAndBack
    {
        type            empty;
    }
}


// ************************************************************************* //
