/*--------------------------------*- C++ -*----------------------------------*\
| =========                 |                                                 |
| \\      /  F ield         | OpenFOAM: The Open Source CFD Toolbox           |
|  \\    /   O peration     | Version:  2212                                  |
|   \\  /    A nd           | Website:  www.openfoam.com                      |
|    \\/     M anipulation  |                                                 |
\*---------------------------------------------------------------------------*/
FoamFile
{
    version     2.0;
    format      ascii;
    arch        "LSB;label=64;scalar=64";
    class       volScalarField;
    location    "1860";
    object      Xli;
}
// * * * * * * * * * * * * * * * * * * * * * * * * * * * * * * * * * * * * * //

dimensions      [1 -3 0 0 0 0 0];

internalField   nonuniform List<scalar> 
1024
(
0.0426354
0.0426362
0.042638
0.0426413
0.0426467
0.0426547
0.0426661
0.0426814
0.0427009
0.0427243
0.042751
0.0427795
0.0428081
0.042835
0.0428591
0.0428792
0.0428929
0.0428983
0.0428964
0.0428885
0.0428758
0.04286
0.0428425
0.042825
0.0428091
0.0427958
0.0427853
0.0427778
0.0427726
0.0427695
0.0427677
0.042767
0.0426357
0.0426364
0.0426382
0.0426416
0.042647
0.0426552
0.0426667
0.0426821
0.0427017
0.0427252
0.042752
0.0427805
0.0428091
0.0428361
0.0428601
0.0428802
0.042894
0.0428994
0.0428975
0.0428896
0.042877
0.0428611
0.0428435
0.042826
0.0428099
0.0427964
0.0427859
0.0427782
0.042773
0.0427698
0.042768
0.0427673
0.0426362
0.042637
0.0426389
0.0426423
0.0426478
0.0426561
0.0426679
0.0426836
0.0427035
0.0427273
0.0427543
0.0427829
0.0428115
0.0428384
0.0428624
0.0428826
0.0428965
0.0429021
0.0429003
0.0428925
0.0428797
0.0428636
0.0428458
0.0428279
0.0428116
0.0427978
0.042787
0.0427792
0.0427739
0.0427706
0.0427688
0.0427681
0.0426373
0.042638
0.04264
0.0426435
0.0426492
0.0426578
0.0426699
0.0426861
0.0427065
0.0427308
0.0427581
0.0427869
0.0428155
0.0428424
0.0428664
0.0428867
0.0429009
0.042907
0.0429055
0.0428976
0.0428845
0.0428678
0.0428494
0.0428311
0.0428143
0.0428001
0.0427889
0.0427809
0.0427754
0.0427721
0.0427702
0.0427695
0.0426389
0.0426397
0.0426417
0.0426454
0.0426514
0.0426604
0.0426731
0.0426899
0.042711
0.0427359
0.0427637
0.0427927
0.0428214
0.0428482
0.0428723
0.042893
0.042908
0.0429149
0.0429139
0.0429058
0.042892
0.0428742
0.0428548
0.0428355
0.042818
0.0428032
0.0427917
0.0427834
0.0427778
0.0427744
0.0427726
0.0427718
0.0426412
0.0426421
0.0426442
0.0426481
0.0426545
0.042664
0.0426774
0.0426951
0.0427171
0.0427429
0.0427712
0.0428005
0.0428293
0.0428562
0.0428806
0.042902
0.0429183
0.0429266
0.0429264
0.0429181
0.042903
0.0428835
0.0428623
0.0428416
0.042823
0.0428076
0.0427956
0.0427871
0.0427814
0.042778
0.0427762
0.0427755
0.0426444
0.0426453
0.0426476
0.0426517
0.0426585
0.0426687
0.042683
0.0427018
0.0427249
0.0427516
0.0427807
0.0428104
0.0428393
0.0428664
0.0428915
0.0429142
0.0429325
0.0429428
0.0429437
0.0429351
0.0429185
0.0428966
0.0428729
0.0428501
0.04283
0.0428136
0.0428012
0.0427925
0.0427868
0.0427834
0.0427817
0.0427811
0.0426486
0.0426495
0.0426519
0.0426563
0.0426636
0.0426746
0.0426899
0.0427098
0.0427342
0.0427621
0.0427919
0.0428221
0.0428514
0.0428791
0.0429052
0.0429298
0.0429508
0.0429639
0.0429664
0.0429579
0.0429398
0.0429152
0.0428882
0.0428626
0.0428405
0.0428228
0.0428098
0.0428009
0.0427953
0.0427921
0.0427906
0.04279
0.0426536
0.0426546
0.0426571
0.0426619
0.0426697
0.0426814
0.0426978
0.0427191
0.0427448
0.0427739
0.0428047
0.0428356
0.0428654
0.0428939
0.0429215
0.0429486
0.0429729
0.0429894
0.0429944
0.0429871
0.0429684
0.0429415
0.0429113
0.0428822
0.0428573
0.0428379
0.042824
0.0428148
0.0428092
0.0428063
0.042805
0.0428046
0.0426595
0.0426605
0.0426632
0.0426682
0.0426765
0.0426891
0.0427065
0.0427291
0.0427562
0.0427865
0.0428184
0.0428501
0.0428807
0.0429103
0.0429396
0.0429692
0.0429972
0.0430178
0.0430268
0.0430227
0.0430057
0.0429787
0.0429465
0.0429142
0.042886
0.0428641
0.0428486
0.0428387
0.0428329
0.0428301
0.0428289
0.0428286
0.0426661
0.0426671
0.0426699
0.0426751
0.0426839
0.0426971
0.0427155
0.0427393
0.0427677
0.0427993
0.0428322
0.0428648
0.0428962
0.0429268
0.0429573
0.042989
0.0430202
0.0430455
0.0430606
0.043063
0.0430519
0.043029
0.0429983
0.042965
0.0429342
0.0429092
0.0428912
0.0428796
0.0428729
0.0428696
0.0428683
0.042868
0.042673
0.0426741
0.0426769
0.0426824
0.0426914
0.0427051
0.0427243
0.042749
0.0427784
0.0428111
0.0428449
0.0428781
0.0429099
0.0429405
0.0429711
0.0430032
0.0430364
0.0430667
0.0430899
0.0431027
0.0431027
0.0430899
0.0430667
0.0430376
0.0430075
0.0429806
0.0429597
0.0429453
0.0429365
0.0429319
0.0429299
0.0429293
0.04268
0.0426811
0.0426839
0.0426894
0.0426986
0.0427125
0.042732
0.0427571
0.0427872
0.0428204
0.0428545
0.0428875
0.0429185
0.0429475
0.0429758
0.0430055
0.0430382
0.0430727
0.0431051
0.0431309
0.0431464
0.0431496
0.0431409
0.043123
0.0430998
0.0430756
0.043054
0.0430374
0.0430261
0.0430194
0.0430161
0.043015
0.0426865
0.0426876
0.0426904
0.0426957
0.0427047
0.0427184
0.0427376
0.0427625
0.0427923
0.0428251
0.0428585
0.0428901
0.0429184
0.0429433
0.042966
0.0429894
0.043018
0.0430543
0.0430949
0.0431342
0.0431667
0.0431888
0.043199
0.0431982
0.0431886
0.0431738
0.0431572
0.0431421
0.0431304
0.0431226
0.0431183
0.0431166
0.0426917
0.0426927
0.0426954
0.0427005
0.042709
0.042722
0.0427401
0.0427638
0.0427921
0.0428232
0.0428545
0.0428829
0.0429066
0.0429247
0.0429384
0.0429514
0.0429715
0.0430058
0.0430522
0.0431035
0.0431523
0.0431931
0.0432228
0.0432409
0.0432484
0.0432474
0.0432411
0.0432325
0.0432242
0.0432178
0.0432138
0.0432121
0.0426945
0.0426955
0.042698
0.0427027
0.0427104
0.042722
0.0427382
0.0427594
0.0427849
0.0428128
0.0428404
0.0428644
0.042882
0.0428919
0.0428947
0.0428947
0.0429024
0.0429304
0.0429786
0.0430396
0.0431038
0.0431632
0.0432124
0.0432492
0.0432735
0.043287
0.0432922
0.043292
0.0432892
0.0432859
0.0432834
0.0432822
0.0426935
0.0426945
0.0426968
0.0427011
0.0427078
0.0427178
0.0427316
0.0427496
0.0427713
0.042795
0.0428181
0.0428374
0.0428496
0.0428526
0.0428464
0.0428349
0.0428297
0.0428474
0.0428915
0.0429566
0.0430331
0.0431103
0.0431796
0.0432358
0.0432772
0.0433046
0.0433204
0.0433278
0.0433299
0.0433294
0.0433283
0.0433275
0.042689
0.04269
0.0426922
0.042696
0.0427019
0.0427105
0.0427222
0.0427372
0.0427551
0.0427748
0.0427939
0.0428094
0.0428181
0.0428175
0.0428071
0.0427899
0.0427773
0.0427862
0.0428225
0.0428845
0.0429649
0.0430535
0.0431394
0.0432138
0.0432722
0.0433137
0.0433401
0.0433546
0.0433611
0.0433629
0.0433627
0.0433622
0.0426823
0.0426832
0.0426853
0.0426889
0.0426942
0.0427017
0.0427117
0.0427243
0.0427393
0.0427556
0.0427713
0.042784
0.0427907
0.042789
0.0427782
0.0427608
0.0427471
0.0427527
0.0427835
0.04284
0.0429181
0.0430098
0.0431045
0.0431917
0.043264
0.0433183
0.043355
0.0433768
0.0433877
0.0433918
0.0433925
0.0433922
0.0426744
0.0426753
0.0426773
0.0426806
0.0426855
0.0426922
0.042701
0.0427117
0.0427243
0.0427378
0.0427508
0.0427612
0.0427668
0.0427655
0.0427568
0.0427429
0.0427333
0.0427405
0.0427696
0.0428218
0.0428952
0.0429844
0.0430809
0.0431745
0.0432563
0.0433208
0.0433667
0.0433955
0.0434111
0.0434177
0.0434193
0.0434192
0.0426672
0.042668
0.0426697
0.0426726
0.0426769
0.0426828
0.0426905
0.0426998
0.0427104
0.0427217
0.0427324
0.0427412
0.0427463
0.0427466
0.042742
0.0427349
0.0427331
0.0427456
0.0427759
0.0428254
0.0428938
0.0429776
0.0430707
0.0431648
0.0432511
0.0433227
0.0433761
0.0434115
0.0434317
0.0434409
0.0434437
0.0434439
0.0426635
0.042664
0.042665
0.042667
0.0426703
0.042675
0.0426813
0.0426891
0.0426981
0.0427076
0.0427169
0.042725
0.042731
0.0427346
0.0427363
0.0427386
0.0427472
0.042767
0.0427998
0.0428473
0.0429104
0.0429874
0.0430741
0.0431642
0.0432502
0.0433251
0.0433839
0.0434249
0.0434496
0.0434617
0.0434658
0.0434662
0.0426672
0.0426671
0.042667
0.0426674
0.0426687
0.0426714
0.0426758
0.0426818
0.0426893
0.0426978
0.0427068
0.042716
0.0427252
0.0427345
0.0427447
0.0427583
0.042778
0.0428052
0.0428404
0.0428857
0.0429427
0.0430116
0.0430899
0.0431729
0.0432548
0.0433294
0.0433911
0.0434364
0.0434653
0.0434803
0.0434858
0.0434866
0.0426825
0.0426815
0.0426797
0.0426777
0.0426762
0.042676
0.0426779
0.0426822
0.0426888
0.0426976
0.0427084
0.0427212
0.042736
0.0427532
0.0427732
0.0427979
0.0428275
0.0428605
0.0428968
0.042939
0.0429893
0.0430489
0.0431171
0.043191
0.043266
0.043337
0.0433987
0.0434467
0.043479
0.0434968
0.0435038
0.0435051
0.0427129
0.0427108
0.042707
0.0427022
0.0426978
0.0426948
0.0426946
0.0426979
0.042705
0.042716
0.0427308
0.0427493
0.0427713
0.0427968
0.0428258
0.0428592
0.0428956
0.0429316
0.0429672
0.0430051
0.0430481
0.043098
0.0431553
0.0432184
0.0432845
0.0433493
0.0434082
0.0434566
0.0434912
0.0435114
0.0435201
0.0435218
0.0427609
0.0427575
0.0427517
0.042745
0.0427388
0.0427349
0.0427344
0.0427386
0.0427481
0.042763
0.0427828
0.0428073
0.0428358
0.0428677
0.0429026
0.0429407
0.0429798
0.0430156
0.0430485
0.0430814
0.043117
0.0431573
0.0432034
0.0432551
0.0433106
0.0433671
0.0434208
0.0434672
0.0435024
0.0435245
0.0435346
0.0435369
0.0428274
0.0428228
0.0428161
0.0428095
0.0428047
0.0428029
0.042805
0.0428124
0.0428256
0.0428444
0.0428683
0.0428967
0.0429287
0.0429632
0.0429996
0.043038
0.0430756
0.0431086
0.0431372
0.0431645
0.0431928
0.0432242
0.0432598
0.0433001
0.0433444
0.0433911
0.0434374
0.0434796
0.0435135
0.0435362
0.0435475
0.0435504
0.0429129
0.0429077
0.0429021
0.0428991
0.0428994
0.042903
0.04291
0.0429214
0.0429376
0.0429586
0.0429837
0.0430124
0.0430437
0.0430765
0.0431103
0.0431449
0.0431778
0.0432058
0.0432293
0.0432508
0.0432724
0.0432958
0.043322
0.0433518
0.0433852
0.0434213
0.0434588
0.0434947
0.0435253
0.0435472
0.043559
0.0435624
0.0430187
0.043014
0.0430128
0.0430166
0.0430241
0.043034
0.0430457
0.0430598
0.0430767
0.0430967
0.0431195
0.0431447
0.0431714
0.0431991
0.043227
0.043255
0.0432812
0.043303
0.0433209
0.0433369
0.0433524
0.0433689
0.0433871
0.0434078
0.0434312
0.0434572
0.0434849
0.0435129
0.0435383
0.0435578
0.0435692
0.043573
0.0431473
0.0431456
0.0431515
0.0431625
0.0431755
0.0431888
0.0432021
0.0432156
0.0432302
0.0432461
0.0432637
0.0432826
0.0433024
0.0433226
0.0433428
0.0433628
0.0433812
0.0433965
0.0434088
0.0434196
0.0434298
0.0434405
0.0434521
0.0434653
0.0434802
0.043497
0.0435154
0.0435347
0.0435533
0.0435686
0.0435784
0.0435821
0.0433043
0.0433081
0.0433193
0.0433318
0.0433441
0.0433554
0.0433656
0.0433753
0.0433848
0.0433949
0.0434055
0.0434169
0.0434287
0.0434406
0.0434524
0.0434641
0.0434748
0.0434836
0.0434906
0.0434967
0.0435024
0.0435082
0.0435145
0.0435216
0.0435296
0.0435387
0.0435487
0.0435596
0.0435706
0.0435802
0.043587
0.0435899
0.0434962
0.0434992
0.0435049
0.0435104
0.0435153
0.0435198
0.0435236
0.0435271
0.0435304
0.0435337
0.0435372
0.043541
0.0435448
0.0435487
0.0435525
0.0435563
0.0435597
0.0435625
0.0435648
0.0435667
0.0435685
0.0435703
0.0435723
0.0435745
0.043577
0.0435798
0.0435829
0.0435863
0.0435897
0.043593
0.0435954
0.0435966
)
;

boundaryField
{
    movingWall
    {
        type            fixedValue;
        value           uniform 0.0436;
    }
    fixedWalls
    {
        type            zeroGradient;
    }
    floor
    {
        type            zeroGradient;
    }
    frontAndBack
    {
        type            empty;
    }
}


// ************************************************************************* //
