/*--------------------------------*- C++ -*----------------------------------*\
| =========                 |                                                 |
| \\      /  F ield         | OpenFOAM: The Open Source CFD Toolbox           |
|  \\    /   O peration     | Version:  2212                                  |
|   \\  /    A nd           | Website:  www.openfoam.com                      |
|    \\/     M anipulation  |                                                 |
\*---------------------------------------------------------------------------*/
FoamFile
{
    version     2.0;
    format      ascii;
    arch        "LSB;label=64;scalar=64";
    class       volScalarField;
    location    "710";
    object      p;
}
// * * * * * * * * * * * * * * * * * * * * * * * * * * * * * * * * * * * * * //

dimensions      [0 2 -2 0 0 0 0];

internalField   nonuniform List<scalar> 
1024
(
0
-4.84947e-06
-9.96875e-06
-1.2242e-05
-1.0403e-05
-3.36851e-06
1.17611e-05
4.06466e-05
9.17395e-05
0.00017517
0.000295839
0.000436163
0.000544376
0.000557461
0.000491416
0.000343758
0.000189568
7.02985e-05
-9.80413e-06
-6.08896e-05
-9.2089e-05
-0.000109728
-0.000118447
-0.000121884
-0.000122751
-0.000122856
-0.000123021
-0.000123063
-0.000122267
-0.00012024
-0.000117557
-0.000115544
-0.0928127
-0.0928179
-0.092823
-0.0928257
-0.0928254
-0.0928208
-0.0928084
-0.0927826
-0.0927349
-0.0926552
-0.0925387
-0.0924024
-0.0922974
-0.092282
-0.0923432
-0.0924867
-0.0926375
-0.0927545
-0.0928329
-0.0928826
-0.0929125
-0.0929291
-0.0929368
-0.0929393
-0.0929393
-0.0929385
-0.0929377
-0.092937
-0.0929358
-0.0929338
-0.0929312
-0.0929291
-0.199435
-0.199442
-0.199449
-0.199453
-0.199456
-0.199456
-0.199449
-0.199429
-0.199388
-0.199314
-0.199204
-0.199074
-0.198973
-0.198954
-0.199007
-0.199143
-0.199288
-0.1994
-0.199475
-0.199522
-0.199549
-0.199563
-0.199569
-0.199569
-0.199567
-0.199564
-0.199561
-0.199559
-0.199557
-0.199555
-0.199551
-0.199548
-0.321931
-0.32194
-0.321949
-0.321958
-0.321967
-0.321974
-0.321975
-0.321963
-0.32193
-0.321865
-0.321762
-0.321639
-0.321543
-0.321517
-0.321562
-0.321687
-0.321822
-0.321926
-0.321995
-0.322037
-0.32206
-0.32207
-0.322072
-0.322069
-0.322063
-0.322057
-0.322051
-0.322046
-0.322042
-0.322039
-0.322034
-0.32203
-0.462673
-0.462683
-0.462696
-0.462709
-0.462726
-0.462742
-0.462753
-0.462751
-0.462727
-0.462672
-0.462577
-0.46246
-0.462369
-0.462335
-0.462371
-0.462484
-0.462606
-0.4627
-0.462761
-0.462795
-0.462812
-0.462817
-0.462813
-0.462804
-0.462793
-0.462781
-0.46277
-0.462762
-0.462755
-0.462749
-0.462743
-0.462737
-0.624385
-0.624395
-0.62441
-0.624429
-0.624453
-0.624478
-0.624499
-0.624507
-0.624493
-0.624446
-0.624358
-0.624248
-0.624159
-0.624119
-0.624147
-0.624246
-0.624356
-0.624437
-0.624487
-0.624513
-0.624522
-0.624519
-0.624508
-0.624492
-0.624473
-0.624455
-0.624438
-0.624424
-0.624413
-0.624405
-0.624397
-0.624389
-0.810189
-0.810199
-0.810214
-0.810237
-0.810267
-0.810299
-0.810327
-0.810343
-0.810337
-0.810297
-0.810214
-0.810108
-0.810021
-0.809976
-0.81
-0.810088
-0.810185
-0.810254
-0.810293
-0.810309
-0.810309
-0.810298
-0.810279
-0.810255
-0.810228
-0.810201
-0.810177
-0.810156
-0.810141
-0.810129
-0.810119
-0.810111
-1.02366
-1.02367
-1.02368
-1.02371
-1.02374
-1.02378
-1.02381
-1.02383
-1.02383
-1.02379
-1.02371
-1.02361
-1.02353
-1.02348
-1.0235
-1.02358
-1.02367
-1.02373
-1.02375
-1.02376
-1.02375
-1.02373
-1.02371
-1.02368
-1.02364
-1.02361
-1.02357
-1.02355
-1.02353
-1.02351
-1.0235
-1.02349
-1.26889
-1.2689
-1.26891
-1.26893
-1.26896
-1.269
-1.26904
-1.26906
-1.26906
-1.26903
-1.26896
-1.26886
-1.26878
-1.26873
-1.26875
-1.26883
-1.26891
-1.26896
-1.26898
-1.26898
-1.26896
-1.26894
-1.26891
-1.26887
-1.26883
-1.26879
-1.26875
-1.26872
-1.26869
-1.26868
-1.26866
-1.26866
-1.55058
-1.55058
-1.55058
-1.5506
-1.55063
-1.55067
-1.55071
-1.55074
-1.55074
-1.55071
-1.55065
-1.55056
-1.55048
-1.55045
-1.55048
-1.55055
-1.55062
-1.55066
-1.55068
-1.55067
-1.55066
-1.55063
-1.55059
-1.55055
-1.55051
-1.55047
-1.55043
-1.55039
-1.55037
-1.55035
-1.55034
-1.55033
-1.8741
-1.8741
-1.87411
-1.87412
-1.87414
-1.87418
-1.87422
-1.87425
-1.87426
-1.87424
-1.87419
-1.87412
-1.87406
-1.87404
-1.87408
-1.87415
-1.87422
-1.87426
-1.87427
-1.87427
-1.87425
-1.87422
-1.87419
-1.87415
-1.87411
-1.87406
-1.87402
-1.87399
-1.87396
-1.87394
-1.87393
-1.87393
-2.24569
-2.24569
-2.24569
-2.24569
-2.24571
-2.24574
-2.24577
-2.2458
-2.24582
-2.24581
-2.24578
-2.24575
-2.24572
-2.24574
-2.24579
-2.24587
-2.24594
-2.24597
-2.24599
-2.24598
-2.24596
-2.24594
-2.24591
-2.24587
-2.24583
-2.24579
-2.24575
-2.24572
-2.24569
-2.24567
-2.24567
-2.24566
-2.67248
-2.67248
-2.67248
-2.67248
-2.67249
-2.6725
-2.67252
-2.67255
-2.67257
-2.67258
-2.67259
-2.6726
-2.67262
-2.67267
-2.67275
-2.67284
-2.67291
-2.67295
-2.67296
-2.67296
-2.67295
-2.67293
-2.6729
-2.67286
-2.67282
-2.67278
-2.67274
-2.6727
-2.67268
-2.67266
-2.67266
-2.67266
-3.16273
-3.16272
-3.16272
-3.16272
-3.16272
-3.16272
-3.16274
-3.16275
-3.16278
-3.16281
-3.16286
-3.16291
-3.16298
-3.16307
-3.16317
-3.16327
-3.16336
-3.1634
-3.16342
-3.16342
-3.16341
-3.16339
-3.16335
-3.16331
-3.16326
-3.16321
-3.16316
-3.16312
-3.1631
-3.16309
-3.16308
-3.16309
-3.72591
-3.72591
-3.72591
-3.7259
-3.7259
-3.7259
-3.72591
-3.72593
-3.72597
-3.72601
-3.72607
-3.72615
-3.72625
-3.72637
-3.72649
-3.7266
-3.72669
-3.72675
-3.72678
-3.72677
-3.72675
-3.72671
-3.72666
-3.72659
-3.72652
-3.72646
-3.7264
-3.72636
-3.72634
-3.72633
-3.72633
-3.72633
-4.37293
-4.37293
-4.37293
-4.37293
-4.37293
-4.37293
-4.37295
-4.37297
-4.373
-4.37305
-4.37311
-4.37319
-4.3733
-4.37342
-4.37354
-4.37366
-4.37375
-4.3738
-4.37382
-4.3738
-4.37375
-4.37367
-4.37357
-4.37348
-4.37338
-4.37331
-4.37326
-4.37322
-4.37321
-4.37321
-4.37321
-4.37322
-5.06485
-5.06485
-5.06485
-5.06485
-5.06485
-5.06486
-5.06487
-5.06488
-5.06491
-5.06494
-5.065
-5.06507
-5.06516
-5.06527
-5.06537
-5.06548
-5.06555
-5.06557
-5.06555
-5.06548
-5.06537
-5.06524
-5.06509
-5.06495
-5.06485
-5.06478
-5.06475
-5.06474
-5.06474
-5.06475
-5.06475
-5.06476
-5.71194
-5.71194
-5.71195
-5.71195
-5.71196
-5.71198
-5.712
-5.71204
-5.71208
-5.71213
-5.7122
-5.71227
-5.71235
-5.71243
-5.71253
-5.71261
-5.71267
-5.71267
-5.71263
-5.71253
-5.7124
-5.71223
-5.71206
-5.71191
-5.71179
-5.71172
-5.71169
-5.71168
-5.71169
-5.7117
-5.71171
-5.71171
-6.27544
-6.27544
-6.27545
-6.27546
-6.27546
-6.27548
-6.2755
-6.27553
-6.27557
-6.27562
-6.27569
-6.27576
-6.27584
-6.27592
-6.27601
-6.2761
-6.27616
-6.27618
-6.27616
-6.2761
-6.27599
-6.27585
-6.27569
-6.27554
-6.2754
-6.2753
-6.27525
-6.27523
-6.27523
-6.27524
-6.27525
-6.27526
-6.76605
-6.76605
-6.76606
-6.76606
-6.76607
-6.76609
-6.76611
-6.76614
-6.76618
-6.76623
-6.76629
-6.76636
-6.76644
-6.76652
-6.76661
-6.76669
-6.76676
-6.7668
-6.76681
-6.76678
-6.76671
-6.76662
-6.76649
-6.76635
-6.76622
-6.7661
-6.76602
-6.76597
-6.76595
-6.76595
-6.76596
-6.76597
-7.19316
-7.19316
-7.19317
-7.19317
-7.19318
-7.1932
-7.19322
-7.19325
-7.19329
-7.19334
-7.1934
-7.19347
-7.19354
-7.19362
-7.19371
-7.1938
-7.19387
-7.19392
-7.19394
-7.19393
-7.19389
-7.19383
-7.19374
-7.19362
-7.1935
-7.19337
-7.19327
-7.1932
-7.19316
-7.19315
-7.19315
-7.19317
-7.56498
-7.56498
-7.56498
-7.56498
-7.56499
-7.56501
-7.56503
-7.56506
-7.5651
-7.56515
-7.5652
-7.56527
-7.56535
-7.56543
-7.56552
-7.56561
-7.56569
-7.56574
-7.56576
-7.56575
-7.56573
-7.56568
-7.56561
-7.56552
-7.56541
-7.56529
-7.56517
-7.56508
-7.56502
-7.565
-7.565
-7.56502
-7.88864
-7.88864
-7.88864
-7.88865
-7.88865
-7.88867
-7.88869
-7.88871
-7.88875
-7.8888
-7.88886
-7.88893
-7.88901
-7.8891
-7.88919
-7.88928
-7.88936
-7.88942
-7.88944
-7.88943
-7.8894
-7.88936
-7.88929
-7.8892
-7.8891
-7.88898
-7.88885
-7.88874
-7.88867
-7.88863
-7.88863
-7.88864
-8.1704
-8.1704
-8.1704
-8.1704
-8.17041
-8.17041
-8.17043
-8.17045
-8.17049
-8.17054
-8.1706
-8.17068
-8.17076
-8.17085
-8.17095
-8.17104
-8.17113
-8.17118
-8.1712
-8.17119
-8.17116
-8.17111
-8.17103
-8.17093
-8.17081
-8.17068
-8.17055
-8.17042
-8.17032
-8.17026
-8.17025
-8.17026
-8.41568
-8.41568
-8.41568
-8.41568
-8.41567
-8.41567
-8.41568
-8.4157
-8.41574
-8.41579
-8.41586
-8.41594
-8.41603
-8.41613
-8.41623
-8.41633
-8.41642
-8.41647
-8.41649
-8.41648
-8.41644
-8.41637
-8.41628
-8.41615
-8.41601
-8.41585
-8.41568
-8.41552
-8.41539
-8.4153
-8.41528
-8.41528
-8.62921
-8.62921
-8.62921
-8.6292
-8.62919
-8.62918
-8.62918
-8.62919
-8.62923
-8.62929
-8.62936
-8.62945
-8.62954
-8.62965
-8.62975
-8.62986
-8.62995
-8.63
-8.63002
-8.63
-8.62996
-8.62988
-8.62976
-8.62961
-8.62943
-8.62922
-8.629
-8.6288
-8.62862
-8.62848
-8.62843
-8.62842
-8.8151
-8.8151
-8.81509
-8.81508
-8.81505
-8.81503
-8.81502
-8.81504
-8.81508
-8.81514
-8.81522
-8.81531
-8.81541
-8.81552
-8.81563
-8.81574
-8.81583
-8.81589
-8.8159
-8.81589
-8.81583
-8.81574
-8.81561
-8.81543
-8.8152
-8.81494
-8.81465
-8.81437
-8.81412
-8.81392
-8.81381
-8.81377
-8.97695
-8.97694
-8.97693
-8.97689
-8.97685
-8.97682
-8.9768
-8.97682
-8.97686
-8.97693
-8.97701
-8.97711
-8.97722
-8.97733
-8.97745
-8.97756
-8.97765
-8.97771
-8.97773
-8.9777
-8.97765
-8.97754
-8.97739
-8.97718
-8.97692
-8.9766
-8.97624
-8.97587
-8.97552
-8.97521
-8.97501
-8.97491
-9.11789
-9.11787
-9.11783
-9.11777
-9.1177
-9.11766
-9.11764
-9.11765
-9.1177
-9.11777
-9.11786
-9.11797
-9.11808
-9.1182
-9.11832
-9.11843
-9.11852
-9.11858
-9.1186
-9.11857
-9.11851
-9.1184
-9.11824
-9.11801
-9.11771
-9.11735
-9.11692
-9.11645
-9.11596
-9.1155
-9.11515
-9.11492
-9.24069
-9.24061
-9.24051
-9.2404
-9.24031
-9.24025
-9.24023
-9.24025
-9.2403
-9.24038
-9.24048
-9.24059
-9.2407
-9.24082
-9.24095
-9.24106
-9.24115
-9.24121
-9.24123
-9.24121
-9.24114
-9.24103
-9.24085
-9.24061
-9.24029
-9.2399
-9.23942
-9.23886
-9.23824
-9.23757
-9.23694
-9.23639
-9.34793
-9.34754
-9.34728
-9.34713
-9.34703
-9.34697
-9.34695
-9.34697
-9.34703
-9.34711
-9.34722
-9.34733
-9.34745
-9.34758
-9.3477
-9.34782
-9.34791
-9.34797
-9.34799
-9.34797
-9.3479
-9.34778
-9.34761
-9.34736
-9.34703
-9.34662
-9.34611
-9.3455
-9.34476
-9.34385
-9.34275
-9.34149
-9.44189
-9.44065
-9.44017
-9.44001
-9.43991
-9.43986
-9.43985
-9.43988
-9.43994
-9.44003
-9.44014
-9.44026
-9.44038
-9.44051
-9.44063
-9.44075
-9.44085
-9.44091
-9.44093
-9.44091
-9.44084
-9.44072
-9.44054
-9.4403
-9.43997
-9.43955
-9.43904
-9.4384
-9.43759
-9.43649
-9.43488
-9.43263
)
;

boundaryField
{
    movingWall
    {
        type            calculated;
        value           nonuniform List<scalar> 
32
(
-9.48514
-9.4839
-9.48342
-9.48326
-9.48317
-9.48311
-9.4831
-9.48313
-9.4832
-9.48329
-9.48339
-9.48351
-9.48364
-9.48376
-9.48389
-9.48401
-9.4841
-9.48416
-9.48418
-9.48416
-9.48409
-9.48398
-9.4838
-9.48355
-9.48322
-9.48281
-9.48229
-9.48166
-9.48084
-9.47974
-9.47814
-9.47588
)
;
    }
    fixedWalls
    {
        type            calculated;
        value           nonuniform List<scalar> 
64
(
6.93889e-18
-0.0928127
-0.199435
-0.321931
-0.462673
-0.624385
-0.810189
-1.02366
-1.26889
-1.55058
-1.8741
-2.24569
-2.67248
-3.16273
-3.72591
-4.37293
-5.06485
-5.71194
-6.27544
-6.76605
-7.19316
-7.56498
-7.88864
-8.1704
-8.41568
-8.62921
-8.8151
-8.97695
-9.11789
-9.24069
-9.34793
-9.44189
-0.000115544
-0.0929291
-0.199548
-0.32203
-0.462737
-0.624389
-0.810111
-1.02349
-1.26866
-1.55033
-1.87393
-2.24566
-2.67266
-3.16309
-3.72633
-4.37322
-5.06476
-5.71171
-6.27526
-6.76597
-7.19317
-7.56502
-7.88864
-8.17026
-8.41528
-8.62842
-8.81377
-8.97491
-9.11492
-9.23639
-9.34149
-9.43263
)
;
    }
    floor
    {
        type            calculated;
        value           nonuniform List<scalar> 
32
(
0.0431956
0.0431908
0.0431858
0.0431837
0.0431859
0.0431932
0.0432087
0.0432379
0.0432894
0.0433733
0.0434944
0.0436352
0.0437438
0.0437566
0.04369
0.0435418
0.0433871
0.0432675
0.0431871
0.0431358
0.0431044
0.0430865
0.0430777
0.0430741
0.043073
0.0430728
0.0430725
0.0430723
0.043073
0.0430749
0.0430776
0.0430795
)
;
    }
    frontAndBack
    {
        type            empty;
    }
}


// ************************************************************************* //
