/*--------------------------------*- C++ -*----------------------------------*\
| =========                 |                                                 |
| \\      /  F ield         | OpenFOAM: The Open Source CFD Toolbox           |
|  \\    /   O peration     | Version:  2212                                  |
|   \\  /    A nd           | Website:  www.openfoam.com                      |
|    \\/     M anipulation  |                                                 |
\*---------------------------------------------------------------------------*/
FoamFile
{
    version     2.0;
    format      ascii;
    arch        "LSB;label=64;scalar=64";
    class       volScalarField;
    location    "710";
    object      p_rgh;
}
// * * * * * * * * * * * * * * * * * * * * * * * * * * * * * * * * * * * * * //

dimensions      [0 2 -2 0 0 0 0];

internalField   nonuniform List<scalar> 
1024
(
0.0431956
0.0431908
0.0431858
0.0431837
0.0431859
0.0431932
0.0432087
0.0432379
0.0432894
0.0433733
0.0434944
0.0436352
0.0437438
0.0437566
0.04369
0.0435418
0.0433871
0.0432675
0.0431871
0.0431358
0.0431044
0.0430865
0.0430777
0.0430741
0.043073
0.0430728
0.0430725
0.0430723
0.043073
0.0430749
0.0430776
0.0430795
0.0432071
0.0432023
0.0431983
0.0431977
0.0432008
0.0432087
0.0432245
0.0432538
0.0433052
0.0433889
0.0435102
0.0436509
0.0437589
0.0437717
0.0437056
0.0435568
0.0434012
0.0432807
0.0431996
0.0431476
0.0431157
0.0430973
0.0430879
0.0430838
0.0430823
0.0430815
0.0430807
0.04308
0.0430801
0.0430814
0.0430835
0.0430855
0.0432267
0.0432212
0.0432184
0.0432204
0.0432263
0.0432365
0.043254
0.0432848
0.0433378
0.0434235
0.0435469
0.0436892
0.0437975
0.0438107
0.0437439
0.043593
0.0434347
0.0433115
0.0432283
0.0431745
0.0431409
0.0431211
0.0431103
0.0431048
0.043102
0.0430999
0.0430976
0.0430953
0.0430938
0.0430937
0.0430956
0.0430981
0.0432478
0.0432417
0.0432408
0.0432472
0.0432583
0.0432732
0.0432949
0.0433294
0.0433858
0.0434751
0.0436008
0.0437441
0.0438525
0.0438694
0.0438036
0.043652
0.043491
0.0433642
0.0432775
0.0432205
0.0431838
0.0431612
0.0431478
0.04314
0.0431348
0.0431301
0.0431248
0.0431192
0.0431144
0.0431122
0.0431136
0.043117
0.0432585
0.043253
0.0432559
0.0432693
0.043289
0.0433122
0.0433409
0.0433809
0.0434409
0.0435317
0.0436559
0.0437962
0.0439037
0.0439296
0.0438711
0.043726
0.0435671
0.0434389
0.0433489
0.0432881
0.0432473
0.0432205
0.0432031
0.0431915
0.0431825
0.0431735
0.0431632
0.0431518
0.0431416
0.0431356
0.0431357
0.0431397
0.0432448
0.0432414
0.0432503
0.043274
0.0433063
0.0433419
0.0433804
0.0434262
0.0434871
0.0435734
0.0436906
0.0438244
0.0439314
0.0439707
0.043926
0.0437972
0.0436499
0.0435281
0.0434383
0.043375
0.0433302
0.0432986
0.0432761
0.0432592
0.0432444
0.0432287
0.0432104
0.0431901
0.0431713
0.043159
0.0431563
0.0431603
0.0431965
0.0431964
0.0432126
0.043249
0.0432978
0.0433494
0.0433997
0.0434503
0.043508
0.0435835
0.043691
0.0438193
0.0439288
0.043982
0.0439528
0.0438466
0.0437202
0.0436144
0.0435326
0.0434718
0.0434256
0.04339
0.0433619
0.0433381
0.0433153
0.0432898
0.0432598
0.0432263
0.0431948
0.0431728
0.0431652
0.0431684
0.0431144
0.0431175
0.0431404
0.0431893
0.0432558
0.0433257
0.0433888
0.0434429
0.0434941
0.0435566
0.0436572
0.0437865
0.0439023
0.043966
0.0439491
0.0438647
0.0437628
0.0436791
0.0436142
0.0435629
0.0435202
0.0434834
0.0434505
0.0434189
0.0433854
0.0433463
0.0432997
0.0432477
0.0431986
0.0431633
0.0431487
0.0431498
0.0430124
0.0430181
0.0430445
0.0431011
0.0431819
0.0432693
0.0433452
0.0434023
0.0434472
0.0434993
0.0436008
0.0437399
0.0438639
0.0439328
0.0439225
0.0438539
0.0437737
0.0437128
0.0436692
0.0436331
0.0435991
0.0435648
0.0435289
0.0434891
0.0434424
0.0433852
0.0433161
0.0432396
0.0431678
0.043116
0.0430927
0.043091
0.0429179
0.0429244
0.0429498
0.0430051
0.0430899
0.043189
0.0432754
0.0433361
0.0433765
0.0434276
0.0435423
0.0436947
0.0438268
0.0438944
0.0438834
0.0438229
0.0437587
0.0437169
0.0436935
0.0436744
0.0436523
0.0436235
0.0435861
0.0435377
0.043475
0.0433947
0.043297
0.0431899
0.0430914
0.0430215
0.0429893
0.0429844
0.0428612
0.0428674
0.0428894
0.0429378
0.0430146
0.0431071
0.0431929
0.0432561
0.0433014
0.043373
0.043507
0.0436733
0.0438065
0.0438624
0.043841
0.0437807
0.0437269
0.0437001
0.0436927
0.0436886
0.0436779
0.0436551
0.0436164
0.0435579
0.043476
0.0433674
0.0432352
0.0430932
0.0429666
0.04288
0.0428404
0.0428328
0.0428669
0.0428714
0.042887
0.0429241
0.0429863
0.0430646
0.0431408
0.0432024
0.0432626
0.043372
0.0435357
0.0437068
0.0438218
0.043848
0.0438025
0.0437338
0.0436858
0.0436716
0.0436772
0.0436844
0.0436819
0.0436622
0.0436195
0.0435477
0.0434417
0.0432995
0.0431285
0.042951
0.0428007
0.0427034
0.0426601
0.0426506
0.0429551
0.0429556
0.0429617
0.0429834
0.0430271
0.0430889
0.0431573
0.0432281
0.0433288
0.0434868
0.04367
0.0438193
0.0438857
0.0438575
0.0437723
0.0436865
0.0436404
0.0436387
0.0436577
0.0436717
0.0436711
0.0436482
0.0435948
0.0435021
0.0433652
0.0431852
0.0429769
0.0427728
0.0426126
0.0425176
0.0424767
0.042467
0.0431558
0.0431507
0.0431452
0.0431496
0.043174
0.0432229
0.043297
0.0434068
0.0435772
0.0437671
0.0439275
0.0440089
0.0439905
0.0438852
0.0437493
0.04364
0.0435887
0.0435958
0.0436284
0.0436397
0.0436304
0.0435941
0.0435198
0.0433921
0.0432174
0.0430093
0.0427917
0.0425973
0.0424542
0.0423718
0.0423367
0.0423275
0.0435342
0.043527
0.0435164
0.0435128
0.0435319
0.0435909
0.043713
0.0438908
0.0440599
0.0441924
0.0442565
0.0442191
0.0440926
0.0439078
0.0437272
0.0435903
0.0435121
0.0434951
0.043506
0.043495
0.0434647
0.0434084
0.0433178
0.0431877
0.0430227
0.0428361
0.0426516
0.0424951
0.0423851
0.0423239
0.0422983
0.0422911
0.0441921
0.0441966
0.0442078
0.0442328
0.0442817
0.0443602
0.0444494
0.0445251
0.0445715
0.0445712
0.0445047
0.0443386
0.0441262
0.0439093
0.0437027
0.0435134
0.0433574
0.0432503
0.0431871
0.0431597
0.0431369
0.0431064
0.0430574
0.0429817
0.0428781
0.0427559
0.0426341
0.0425335
0.0424675
0.0424357
0.0424262
0.0424248
0.0447786
0.0447831
0.0447941
0.0448141
0.0448427
0.0448737
0.0448922
0.0448772
0.0448128
0.0446995
0.0445499
0.0443769
0.0441873
0.0439824
0.043765
0.0435431
0.0433372
0.0431775
0.0430801
0.0430412
0.0430508
0.0430803
0.043109
0.0431178
0.0430962
0.0430474
0.0429888
0.0429438
0.0429284
0.0429414
0.0429659
0.0429826
0.0452394
0.0452423
0.0452534
0.0452709
0.0452875
0.045293
0.0452789
0.0452432
0.0451896
0.0451227
0.0450458
0.044959
0.0448623
0.044757
0.0446476
0.0445454
0.044474
0.0444546
0.0444854
0.0445564
0.0446556
0.0447742
0.0448893
0.0449747
0.0450095
0.0449854
0.0449087
0.0447998
0.0446892
0.0446093
0.0445763
0.0445748
0.0452759
0.0452777
0.0452896
0.0453149
0.0453505
0.0453886
0.0454207
0.0454429
0.0454548
0.0454592
0.0454574
0.0454491
0.0454332
0.0454088
0.045377
0.0453438
0.045326
0.0453315
0.0453655
0.0454365
0.0455413
0.0456729
0.0458171
0.0459548
0.0460663
0.0461379
0.046165
0.0461525
0.0461103
0.0460517
0.0459938
0.0459567
0.0452313
0.0452341
0.0452467
0.0452751
0.0453196
0.0453749
0.045433
0.0454879
0.0455373
0.0455803
0.0456171
0.0456456
0.0456639
0.0456696
0.0456621
0.0456431
0.0456228
0.0456062
0.0455935
0.0455994
0.0456301
0.0456863
0.0457652
0.0458586
0.0459533
0.0460359
0.0460967
0.0461322
0.0461457
0.0461441
0.0461341
0.0461231
0.0451699
0.0451734
0.0451861
0.0452147
0.0452622
0.0453263
0.0453997
0.0454747
0.0455464
0.0456114
0.0456686
0.0457155
0.0457498
0.0457692
0.0457734
0.0457625
0.0457438
0.045721
0.0456926
0.0456651
0.0456475
0.0456454
0.0456646
0.0457069
0.045768
0.0458378
0.0459035
0.0459534
0.0459828
0.0459941
0.0459933
0.0459868
0.0451243
0.0451281
0.0451402
0.0451666
0.0452129
0.0452795
0.0453601
0.0454458
0.0455299
0.0456064
0.0456731
0.0457267
0.0457656
0.0457886
0.0457966
0.0457902
0.0457768
0.0457623
0.0457473
0.0457197
0.045689
0.0456604
0.0456413
0.0456416
0.0456669
0.0457149
0.0457744
0.0458297
0.0458682
0.0458859
0.0458867
0.0458792
0.0450984
0.0451023
0.0451138
0.0451385
0.0451827
0.0452482
0.0453303
0.04542
0.0455095
0.0455897
0.0456572
0.0457089
0.0457438
0.0457623
0.0457661
0.0457576
0.0457423
0.045729
0.0457247
0.0457178
0.0457046
0.0456875
0.0456641
0.0456495
0.0456563
0.0456882
0.0457416
0.0458017
0.0458502
0.0458759
0.0458791
0.0458707
0.0450877
0.0450909
0.0451016
0.0451258
0.0451694
0.0452348
0.0453173
0.0454071
0.0454945
0.0455706
0.0456308
0.045673
0.0456974
0.0457053
0.0456996
0.0456835
0.0456617
0.0456455
0.0456439
0.0456519
0.0456597
0.0456675
0.0456745
0.0456872
0.0457119
0.0457449
0.045802
0.0458736
0.0459387
0.045978
0.0459867
0.0459793
0.0450845
0.045087
0.0450979
0.0451231
0.0451688
0.0452362
0.0453189
0.0454058
0.0454855
0.0455508
0.0455974
0.0456244
0.0456334
0.0456268
0.0456081
0.0455813
0.0455513
0.045531
0.0455302
0.0455468
0.0455723
0.0456067
0.0456507
0.0457073
0.0457772
0.0458562
0.0459467
0.0460402
0.0461325
0.0461965
0.0462174
0.0462148
0.0450834
0.0450847
0.0450964
0.0451255
0.0451771
0.045249
0.0453323
0.0454134
0.0454808
0.0455295
0.0455572
0.0455649
0.0455552
0.0455315
0.0454978
0.0454588
0.0454204
0.0453963
0.0453959
0.0454185
0.045459
0.0455188
0.0456002
0.0457059
0.0458351
0.0459818
0.0461369
0.0462874
0.0464238
0.0465307
0.0465781
0.0465884
0.0450781
0.0450788
0.0450946
0.0451323
0.0451918
0.0452699
0.0453527
0.0454247
0.0454755
0.045503
0.0455081
0.0454939
0.045464
0.0454224
0.0453736
0.0453227
0.0452771
0.0452504
0.0452512
0.0452793
0.0453336
0.0454167
0.0455333
0.0456873
0.0458789
0.0461014
0.0463413
0.0465788
0.0467924
0.046972
0.0470715
0.0471102
0.0450535
0.0450578
0.0450841
0.0451375
0.0452101
0.0452938
0.0453733
0.0454315
0.0454621
0.045466
0.0454475
0.0454112
0.0453618
0.0453039
0.0452421
0.0451819
0.0451319
0.0451045
0.0451079
0.0451424
0.0452093
0.0453128
0.0454599
0.0456567
0.0459054
0.0462016
0.0465325
0.0468768
0.0472068
0.0474913
0.0476872
0.0477848
0.0449863
0.0450056
0.0450572
0.0451374
0.0452273
0.0453156
0.0453863
0.0454266
0.0454353
0.0454161
0.0453758
0.0453204
0.0452552
0.045185
0.0451143
0.0450491
0.044998
0.0449724
0.0449796
0.0450211
0.0450991
0.0452189
0.0453896
0.0456195
0.0459137
0.0462716
0.0466862
0.0471421
0.0476146
0.0480628
0.0484125
0.0486389
0.0448159
0.0448968
0.0450142
0.0451361
0.0452441
0.0453319
0.0453888
0.0454097
0.0453979
0.0453592
0.045302
0.0452327
0.0451571
0.0450798
0.0450051
0.0449389
0.0448896
0.0448671
0.0448785
0.0449263
0.0450126
0.0451436
0.0453299
0.0455815
0.0459057
0.0463063
0.046784
0.047337
0.0479594
0.0486259
0.0492542
0.0498045
0.0443343
0.0447308
0.0449901
0.0451577
0.0452719
0.0453503
0.0453905
0.0453931
0.0453643
0.0453114
0.0452427
0.0451652
0.0450842
0.045004
0.0449287
0.0448637
0.0448168
0.0447973
0.0448121
0.0448639
0.0449549
0.0450918
0.0452858
0.0455478
0.0458864
0.0463084
0.0468212
0.0474378
0.0481824
0.0490918
0.0501985
0.051457
0.0433152
0.0445577
0.0450385
0.0452048
0.0453083
0.0453751
0.0454009
0.0453901
0.0453502
0.0452887
0.0452138
0.045132
0.0450486
0.0449675
0.0448923
0.0448283
0.0447828
0.0447648
0.0447812
0.0448346
0.0449271
0.0450656
0.0452616
0.0455259
0.0458677
0.0462949
0.0468191
0.0474644
0.0482844
0.0493887
0.050998
0.0532616
)
;

boundaryField
{
    movingWall
    {
        type            fixedFluxPressure;
        gradient        uniform 0;
        value           nonuniform List<scalar> 
32
(
0.0433152
0.0445577
0.0450385
0.0452048
0.0453083
0.0453751
0.0454009
0.0453901
0.0453502
0.0452887
0.0452138
0.045132
0.0450486
0.0449675
0.0448923
0.0448283
0.0447828
0.0447648
0.0447812
0.0448346
0.0449271
0.0450656
0.0452616
0.0455259
0.0458677
0.0462949
0.0468191
0.0474644
0.0482844
0.0493887
0.050998
0.0532616
)
;
    }
    fixedWalls
    {
        type            fixedFluxPressure;
        gradient        uniform 0;
        value           nonuniform List<scalar> 
64
(
0.0431956
0.0432071
0.0432267
0.0432478
0.0432585
0.0432448
0.0431965
0.0431144
0.0430124
0.0429179
0.0428612
0.0428669
0.0429551
0.0431558
0.0435342
0.0441921
0.0447786
0.0452394
0.0452759
0.0452313
0.0451699
0.0451243
0.0450984
0.0450877
0.0450845
0.0450834
0.0450781
0.0450535
0.0449863
0.0448159
0.0443343
0.0433152
0.0430795
0.0430855
0.0430981
0.043117
0.0431397
0.0431603
0.0431684
0.0431498
0.043091
0.0429844
0.0428328
0.0426506
0.042467
0.0423275
0.0422911
0.0424248
0.0429826
0.0445748
0.0459567
0.0461231
0.0459868
0.0458792
0.0458707
0.0459793
0.0462148
0.0465884
0.0471102
0.0477848
0.0486389
0.0498045
0.051457
0.0532616
)
;
    }
    floor
    {
        type            fixedFluxPressure;
        gradient        uniform 0;
        value           nonuniform List<scalar> 
32
(
0.0431956
0.0431908
0.0431858
0.0431837
0.0431859
0.0431932
0.0432087
0.0432379
0.0432894
0.0433733
0.0434944
0.0436352
0.0437438
0.0437566
0.04369
0.0435418
0.0433871
0.0432675
0.0431871
0.0431358
0.0431044
0.0430865
0.0430777
0.0430741
0.043073
0.0430728
0.0430725
0.0430723
0.043073
0.0430749
0.0430776
0.0430795
)
;
    }
    frontAndBack
    {
        type            empty;
    }
}


// ************************************************************************* //
