/*--------------------------------*- C++ -*----------------------------------*\
| =========                 |                                                 |
| \\      /  F ield         | OpenFOAM: The Open Source CFD Toolbox           |
|  \\    /   O peration     | Version:  2212                                  |
|   \\  /    A nd           | Website:  www.openfoam.com                      |
|    \\/     M anipulation  |                                                 |
\*---------------------------------------------------------------------------*/
FoamFile
{
    version     2.0;
    format      ascii;
    arch        "LSB;label=64;scalar=64";
    class       volScalarField;
    location    "710";
    object      Sch4;
}
// * * * * * * * * * * * * * * * * * * * * * * * * * * * * * * * * * * * * * //

dimensions      [1 -3 0 0 0 0 0];

internalField   nonuniform List<scalar> 
1024
(
0.0365927
0.0365985
0.0366125
0.0366372
0.0366749
0.0367264
0.0367903
0.0368632
0.0369406
0.0370186
0.0370943
0.0371643
0.0372209
0.0372494
0.037238
0.0371807
0.0370835
0.0369721
0.036863
0.0367583
0.036656
0.036553
0.0364472
0.0363402
0.0362368
0.0361434
0.0360653
0.0360051
0.0359626
0.0359354
0.0359202
0.035914
0.0365933
0.0365992
0.0366136
0.036639
0.0366777
0.0367302
0.036795
0.0368683
0.0369459
0.0370239
0.0371
0.0371706
0.0372281
0.0372568
0.0372448
0.0371865
0.0370886
0.0369768
0.0368675
0.0367629
0.036661
0.0365586
0.0364534
0.0363466
0.0362429
0.0361488
0.0360697
0.0360085
0.0359651
0.0359373
0.0359218
0.0359155
0.0365944
0.0366006
0.0366157
0.0366424
0.0366826
0.0367368
0.0368028
0.0368768
0.0369547
0.0370333
0.0371109
0.0371844
0.037245
0.0372746
0.0372608
0.0371994
0.0370987
0.0369854
0.0368757
0.0367713
0.0366704
0.0365693
0.0364655
0.0363596
0.0362556
0.0361601
0.036079
0.0360157
0.0359706
0.0359416
0.0359255
0.0359189
0.0365958
0.0366024
0.0366183
0.0366463
0.0366883
0.0367442
0.0368114
0.036886
0.0369647
0.0370451
0.0371268
0.0372068
0.0372747
0.0373066
0.0372888
0.0372203
0.0371134
0.0369967
0.0368857
0.0367816
0.0366822
0.0365835
0.0364822
0.0363779
0.0362741
0.0361772
0.0360934
0.0360271
0.0359795
0.0359487
0.0359316
0.0359246
0.0365969
0.0366037
0.0366203
0.0366494
0.0366926
0.0367494
0.0368173
0.0368925
0.0369726
0.0370568
0.0371463
0.0372386
0.0373194
0.0373562
0.0373316
0.0372499
0.0371312
0.0370077
0.036894
0.0367901
0.0366928
0.0365976
0.0365001
0.036399
0.0362963
0.0361983
0.0361118
0.0360422
0.0359915
0.0359586
0.0359403
0.0359329
0.0365964
0.0366034
0.0366202
0.0366495
0.0366927
0.0367494
0.0368169
0.0368924
0.0369748
0.0370655
0.0371677
0.0372793
0.0373804
0.0374252
0.0373907
0.037288
0.0371496
0.0370144
0.0368958
0.0367915
0.0366969
0.0366064
0.0365145
0.0364182
0.0363182
0.0362204
0.0361319
0.0360592
0.0360056
0.0359706
0.0359511
0.0359432
0.0365927
0.0365997
0.0366162
0.0366445
0.0366862
0.036741
0.0368068
0.036882
0.0369675
0.0370675
0.0371881
0.0373275
0.0374569
0.0375136
0.0374654
0.037332
0.0371641
0.0370108
0.0368844
0.036779
0.0366877
0.0366032
0.0365186
0.0364293
0.0363344
0.0362388
0.03615
0.0360757
0.03602
0.0359833
0.0359629
0.0359547
0.0365839
0.0365907
0.0366062
0.0366325
0.036671
0.0367219
0.0367842
0.0368581
0.0369472
0.0370593
0.0372045
0.0373813
0.0375478
0.0376194
0.0375522
0.0373763
0.0371674
0.0369889
0.0368514
0.0367443
0.0366572
0.0365806
0.0365057
0.0364258
0.0363385
0.036248
0.0361617
0.0360879
0.0360319
0.0359947
0.0359739
0.0359655
0.0365671
0.0365736
0.0365879
0.0366114
0.0366453
0.0366903
0.0367473
0.0368187
0.0369117
0.0370394
0.0372172
0.0374427
0.0376545
0.0377407
0.0376447
0.0374119
0.0371496
0.0369387
0.0367872
0.0366785
0.0365975
0.0365314
0.0364689
0.0364013
0.036325
0.0362429
0.0361624
0.0360923
0.0360383
0.0360021
0.0359817
0.0359734
0.0365394
0.0365455
0.0365585
0.0365788
0.0366075
0.0366458
0.0366962
0.0367645
0.0368631
0.0370124
0.0372347
0.037522
0.0377844
0.0378775
0.0377358
0.0374274
0.0370983
0.0368489
0.0366823
0.0365733
0.0365014
0.0364494
0.036403
0.0363514
0.0362895
0.0362196
0.0361488
0.0360856
0.0360363
0.0360028
0.0359836
0.0359757
0.0364984
0.036504
0.0365154
0.0365328
0.0365568
0.0365892
0.0366345
0.0367028
0.0368137
0.0369974
0.0372819
0.0376433
0.037953
0.038033
0.0378186
0.0374116
0.0370026
0.0367108
0.0365298
0.0364239
0.0363653
0.0363318
0.0363057
0.0362739
0.0362302
0.0361762
0.0361187
0.0360658
0.0360235
0.0359941
0.0359768
0.0359693
0.0364516
0.0364556
0.0364643
0.0364785
0.0364993
0.0365298
0.0365773
0.0366574
0.0367986
0.0370404
0.0374078
0.0378469
0.0381823
0.0382105
0.0378868
0.0373584
0.0368602
0.0365251
0.0363324
0.0362333
0.0361921
0.0361812
0.0361789
0.0361703
0.0361479
0.036113
0.0360715
0.0360311
0.0359974
0.0359729
0.0359577
0.0359507
0.0364453
0.0364464
0.0364504
0.0364601
0.0364796
0.036516
0.0365818
0.0366994
0.0369042
0.0372351
0.0376963
0.0381883
0.0384933
0.0384092
0.0379386
0.0372784
0.0366926
0.0363163
0.0361124
0.0360206
0.0359975
0.0360097
0.0360319
0.0360472
0.0360473
0.0360325
0.0360081
0.0359807
0.0359556
0.0359358
0.0359223
0.0359156
0.0366153
0.0366144
0.0366155
0.0366242
0.0366499
0.0367063
0.0368137
0.037
0.0372974
0.0377253
0.0382461
0.0387105
0.0388875
0.0386252
0.0379973
0.0372298
0.0365757
0.0361569
0.0359307
0.0358331
0.0358171
0.0358444
0.0358845
0.0359174
0.035934
0.0359346
0.0359241
0.0359078
0.0358899
0.0358739
0.035862
0.0358557
0.0371663
0.0371689
0.0371784
0.0372025
0.0372541
0.0373515
0.0375179
0.037778
0.0381468
0.0386093
0.0390814
0.039388
0.0393443
0.038898
0.0381827
0.0373905
0.0367007
0.0362165
0.0359215
0.0357684
0.0357167
0.0357289
0.0357704
0.0358138
0.0358422
0.0358506
0.0358423
0.0358247
0.0358054
0.0357896
0.0357795
0.035775
0.0381686
0.0381803
0.0382094
0.0382642
0.0383568
0.038503
0.0387193
0.0390159
0.039383
0.0397716
0.0400761
0.0401585
0.0399446
0.0394788
0.0388679
0.0381869
0.0375112
0.036933
0.0364841
0.0361511
0.0359076
0.0357387
0.0356307
0.0355703
0.0355463
0.035551
0.0355798
0.0356283
0.0356885
0.0357486
0.0357957
0.0358206
0.0392784
0.0392979
0.039345
0.0394301
0.0395652
0.0397612
0.0400224
0.0403376
0.0406723
0.0409672
0.0411569
0.0412053
0.0411259
0.0409534
0.0407091
0.0403905
0.0400048
0.0395991
0.0392135
0.0388559
0.0385284
0.0382349
0.0379888
0.037801
0.0376805
0.0376328
0.0376567
0.0377406
0.0378608
0.0379848
0.0380816
0.038132
0.0400503
0.0400752
0.0401378
0.0402538
0.0404383
0.0406995
0.0410305
0.0414055
0.041785
0.0421334
0.0424373
0.0427081
0.0429692
0.0432391
0.0435274
0.0438412
0.0441668
0.044468
0.0447244
0.0449371
0.0451009
0.0452016
0.0452366
0.0452031
0.0451045
0.0449517
0.0447649
0.0445729
0.0444076
0.0442924
0.0442316
0.044211
0.040402
0.0404255
0.0404866
0.0406024
0.0407902
0.0410614
0.0414148
0.0418325
0.0422848
0.0427442
0.0432018
0.0436707
0.0441752
0.0447377
0.0453781
0.0461214
0.0469456
0.0477612
0.0485096
0.0491914
0.0497932
0.0502965
0.0506826
0.0509335
0.0510371
0.0509924
0.0508154
0.0505444
0.0502385
0.0499654
0.0497774
0.049691
0.0405579
0.0405799
0.0406365
0.0407435
0.0409181
0.0411738
0.0415149
0.0419313
0.0424005
0.0428984
0.0434127
0.0439504
0.0445322
0.0451813
0.0459199
0.0467708
0.0476931
0.0485738
0.0493579
0.0500622
0.050696
0.0512629
0.0517607
0.0521793
0.0525022
0.0527132
0.0528041
0.0527823
0.052676
0.052533
0.0524079
0.0523401
0.0406128
0.040633
0.0406839
0.040779
0.0409336
0.0411615
0.0414697
0.0418536
0.0422969
0.0427786
0.0432839
0.043814
0.0443847
0.0450184
0.045737
0.0465584
0.0474305
0.0482383
0.0489432
0.0495802
0.0501791
0.0507599
0.0513287
0.051873
0.0523638
0.0527678
0.0530615
0.0532386
0.0533115
0.0533099
0.0532746
0.0532452
0.0406257
0.0406426
0.0406854
0.0407659
0.0408975
0.0410931
0.0413604
0.0416985
0.0420964
0.0425375
0.0430084
0.0435076
0.0440474
0.0446478
0.0453296
0.0461079
0.0469284
0.0476814
0.0483386
0.0489429
0.0495346
0.0501438
0.0507839
0.0514423
0.052079
0.052641
0.0530852
0.0533915
0.0535663
0.053638
0.0536474
0.0536368
0.0406601
0.0406701
0.0406988
0.0407583
0.0408621
0.0410227
0.0412486
0.0415411
0.0418942
0.0422969
0.0427398
0.0432214
0.0437503
0.0443422
0.0450134
0.0457765
0.0465779
0.0473132
0.0479575
0.048553
0.0491412
0.0497567
0.0504199
0.0511271
0.0518439
0.052513
0.053076
0.0534924
0.0537536
0.0538819
0.0539201
0.0539185
0.0407977
0.0407946
0.0407989
0.0408261
0.0408934
0.041016
0.0412046
0.0414633
0.0417902
0.0421791
0.0426236
0.043121
0.0436745
0.0442919
0.0449826
0.0457552
0.0465565
0.0472872
0.0479249
0.0485101
0.0490829
0.0496783
0.0503209
0.0510153
0.0517402
0.052449
0.0530805
0.0535781
0.0539133
0.0540941
0.0541598
0.0541659
0.0411316
0.0411081
0.0410761
0.041059
0.0410824
0.0411687
0.0413332
0.0415826
0.0419166
0.0423292
0.0428122
0.043358
0.043962
0.0446229
0.0453424
0.0461253
0.0469195
0.0476328
0.0482473
0.0488034
0.0493399
0.0498905
0.0504807
0.0511208
0.0518003
0.0524878
0.0531312
0.0536702
0.0540585
0.0542848
0.0543773
0.0543918
0.0417468
0.0416965
0.0416219
0.041559
0.0415453
0.0416124
0.0417802
0.0420547
0.0424312
0.0428981
0.0434405
0.0440437
0.0446955
0.0453877
0.0461166
0.0468851
0.0476444
0.0483125
0.0488786
0.0493828
0.0498617
0.0503461
0.0508602
0.0514174
0.0520168
0.0526396
0.0532471
0.0537846
0.0541981
0.0544577
0.0545746
0.0545982
0.0427023
0.0426239
0.0425154
0.0424295
0.0424119
0.0424976
0.0427049
0.0430326
0.0434672
0.0439891
0.0445771
0.0452113
0.0458758
0.0465596
0.0472573
0.0479715
0.0486594
0.0492527
0.049747
0.0501805
0.0505862
0.0509904
0.0514145
0.0518728
0.05237
0.0528987
0.0534344
0.053933
0.0543409
0.0546165
0.0547526
0.0547855
0.0440294
0.0439309
0.043822
0.0437655
0.0437992
0.0439468
0.0442159
0.0445954
0.0450662
0.0456054
0.0461906
0.0468019
0.0474242
0.0480476
0.0486673
0.0492864
0.0498699
0.0503646
0.050771
0.0511225
0.0514468
0.0517653
0.0520955
0.0524502
0.0528366
0.0532549
0.0536935
0.0541225
0.0544956
0.0547662
0.0549124
0.0549536
0.0457464
0.045652
0.0456022
0.0456392
0.0457682
0.045991
0.0463041
0.0466944
0.0471459
0.0476398
0.0481584
0.0486861
0.0492112
0.0497267
0.0502292
0.0507219
0.0511788
0.0515609
0.0518714
0.052137
0.0523788
0.0526131
0.0528531
0.0531087
0.0533872
0.0536922
0.0540211
0.054358
0.0546694
0.0549123
0.0550558
0.0551027
0.0478855
0.0478412
0.0479111
0.0480644
0.0482718
0.0485257
0.0488237
0.0491598
0.0495266
0.0499136
0.05031
0.0507059
0.0510938
0.0514692
0.0518305
0.0521801
0.0525004
0.0527659
0.05298
0.0531614
0.0533248
0.0534813
0.0536396
0.0538068
0.0539882
0.0541879
0.0544072
0.0546407
0.0548695
0.0550619
0.0551866
0.0552332
0.0505201
0.0505755
0.050744
0.0509326
0.0511268
0.051328
0.0515391
0.0517613
0.0519941
0.0522337
0.0524753
0.0527139
0.0529455
0.0531677
0.0533799
0.0535836
0.0537689
0.0539215
0.054044
0.0541472
0.0542393
0.0543266
0.0544142
0.0545059
0.0546048
0.0547136
0.0548341
0.0549655
0.0551006
0.0552225
0.0553096
0.0553469
0.0537499
0.0537975
0.053888
0.0539727
0.0540517
0.0541279
0.0542035
0.0542803
0.0543589
0.0544388
0.0545187
0.0545971
0.0546728
0.0547452
0.0548141
0.0548799
0.0549395
0.0549885
0.0550278
0.0550607
0.0550899
0.0551175
0.055145
0.0551737
0.0552044
0.055238
0.0552753
0.0553163
0.0553594
0.0554001
0.0554317
0.0554471
)
;

boundaryField
{
    movingWall
    {
        type            fixedValue;
        value           uniform 0.0555;
    }
    fixedWalls
    {
        type            zeroGradient;
    }
    floor
    {
        type            zeroGradient;
    }
    frontAndBack
    {
        type            empty;
    }
}


// ************************************************************************* //
