/*--------------------------------*- C++ -*----------------------------------*\
| =========                 |                                                 |
| \\      /  F ield         | OpenFOAM: The Open Source CFD Toolbox           |
|  \\    /   O peration     | Version:  2212                                  |
|   \\  /    A nd           | Website:  www.openfoam.com                      |
|    \\/     M anipulation  |                                                 |
\*---------------------------------------------------------------------------*/
FoamFile
{
    version     2.0;
    format      ascii;
    arch        "LSB;label=64;scalar=64";
    class       volScalarField;
    location    "710";
    object      SIC;
}
// * * * * * * * * * * * * * * * * * * * * * * * * * * * * * * * * * * * * * //

dimensions      [1 -3 0 0 0 0 0];

internalField   nonuniform List<scalar> 
1024
(
0.0915398
0.0915408
0.0915435
0.0915481
0.0915552
0.0915649
0.0915769
0.0915907
0.0916053
0.0916199
0.0916342
0.0916474
0.091658
0.0916634
0.0916613
0.0916505
0.0916322
0.0916112
0.0915906
0.0915709
0.0915517
0.0915323
0.0915124
0.0914922
0.0914727
0.0914551
0.0914404
0.0914291
0.0914211
0.0914159
0.0914131
0.0914119
0.0915399
0.091541
0.0915437
0.0915485
0.0915557
0.0915656
0.0915778
0.0915916
0.0916062
0.0916209
0.0916353
0.0916486
0.0916594
0.0916648
0.0916625
0.0916516
0.0916331
0.0916121
0.0915915
0.0915718
0.0915526
0.0915333
0.0915135
0.0914934
0.0914739
0.0914561
0.0914412
0.0914297
0.0914215
0.0914163
0.0914134
0.0914122
0.0915401
0.0915412
0.0915441
0.0915491
0.0915567
0.0915669
0.0915793
0.0915932
0.0916079
0.0916227
0.0916373
0.0916512
0.0916626
0.0916682
0.0916655
0.091654
0.091635
0.0916137
0.091593
0.0915734
0.0915544
0.0915353
0.0915158
0.0914958
0.0914763
0.0914583
0.091443
0.0914311
0.0914226
0.0914171
0.0914141
0.0914128
0.0915403
0.0915416
0.0915446
0.0915498
0.0915577
0.0915683
0.0915809
0.091595
0.0916098
0.0916249
0.0916403
0.0916554
0.0916682
0.0916742
0.0916708
0.0916579
0.0916378
0.0916158
0.0915949
0.0915753
0.0915566
0.091538
0.0915189
0.0914993
0.0914798
0.0914615
0.0914457
0.0914332
0.0914243
0.0914185
0.0914152
0.0914139
0.0915405
0.0915418
0.0915449
0.0915504
0.0915585
0.0915692
0.091582
0.0915962
0.0916113
0.0916271
0.091644
0.0916614
0.0916766
0.0916835
0.0916789
0.0916635
0.0916412
0.0916179
0.0915965
0.0915769
0.0915586
0.0915407
0.0915223
0.0915033
0.0914839
0.0914655
0.0914492
0.0914361
0.0914265
0.0914203
0.0914169
0.0914155
0.0915404
0.0915418
0.0915449
0.0915504
0.0915586
0.0915692
0.091582
0.0915962
0.0916117
0.0916288
0.091648
0.091669
0.0916881
0.0916965
0.09169
0.0916707
0.0916446
0.0916191
0.0915968
0.0915772
0.0915594
0.0915423
0.091525
0.0915069
0.0914881
0.0914696
0.091453
0.0914393
0.0914292
0.0914226
0.0914189
0.0914175
0.0915397
0.0915411
0.0915442
0.0915495
0.0915574
0.0915677
0.0915801
0.0915942
0.0916103
0.0916292
0.0916519
0.0916781
0.0917025
0.0917132
0.0917041
0.091679
0.0916473
0.0916185
0.0915947
0.0915748
0.0915576
0.0915417
0.0915258
0.091509
0.0914911
0.0914731
0.0914564
0.0914424
0.0914319
0.091425
0.0914212
0.0914196
0.0915381
0.0915394
0.0915423
0.0915472
0.0915545
0.0915641
0.0915758
0.0915897
0.0916065
0.0916276
0.091655
0.0916882
0.0917196
0.0917331
0.0917204
0.0916873
0.091648
0.0916144
0.0915885
0.0915683
0.0915519
0.0915375
0.0915234
0.0915083
0.0914919
0.0914748
0.0914586
0.0914447
0.0914341
0.0914271
0.0914232
0.0914217
0.0915349
0.0915361
0.0915388
0.0915433
0.0915496
0.0915581
0.0915689
0.0915823
0.0915998
0.0916239
0.0916573
0.0916998
0.0917397
0.0917559
0.0917378
0.091694
0.0916446
0.0916049
0.0915764
0.0915559
0.0915406
0.0915282
0.0915164
0.0915037
0.0914893
0.0914739
0.0914587
0.0914455
0.0914353
0.0914285
0.0914247
0.0914231
0.0915297
0.0915309
0.0915333
0.0915371
0.0915425
0.0915497
0.0915592
0.0915721
0.0915907
0.0916188
0.0916606
0.0917147
0.0917642
0.0917817
0.091755
0.0916969
0.0916349
0.091588
0.0915566
0.0915361
0.0915226
0.0915128
0.091504
0.0914943
0.0914826
0.0914695
0.0914562
0.0914443
0.091435
0.0914287
0.0914251
0.0914236
0.091522
0.091523
0.0915252
0.0915285
0.091533
0.0915391
0.0915476
0.0915605
0.0915814
0.091616
0.0916695
0.0917376
0.0917959
0.091811
0.0917706
0.091694
0.0916169
0.091562
0.0915279
0.091508
0.0914969
0.0914906
0.0914857
0.0914797
0.0914715
0.0914613
0.0914505
0.0914405
0.0914326
0.091427
0.0914238
0.0914224
0.0915132
0.0915139
0.0915156
0.0915182
0.0915222
0.0915279
0.0915368
0.0915519
0.0915785
0.0916241
0.0916932
0.0917759
0.0918391
0.0918444
0.0917834
0.0916839
0.0915901
0.091527
0.0914907
0.0914721
0.0914643
0.0914623
0.0914618
0.0914602
0.091456
0.0914494
0.0914416
0.091434
0.0914277
0.091423
0.0914202
0.0914189
0.091512
0.0915122
0.091513
0.0915148
0.0915185
0.0915253
0.0915377
0.0915598
0.0915984
0.0916607
0.0917476
0.0918402
0.0918976
0.0918818
0.0917932
0.0916689
0.0915586
0.0914877
0.0914493
0.091432
0.0914277
0.09143
0.0914342
0.091437
0.091437
0.0914343
0.0914297
0.0914245
0.0914198
0.091416
0.0914135
0.0914123
0.091544
0.0915438
0.091544
0.0915457
0.0915505
0.0915611
0.0915814
0.0916164
0.0916724
0.091753
0.0918511
0.0919385
0.0919719
0.0919225
0.0918042
0.0916597
0.0915365
0.0914577
0.0914151
0.0913967
0.0913937
0.0913988
0.0914064
0.0914126
0.0914157
0.0914158
0.0914139
0.0914108
0.0914074
0.0914044
0.0914022
0.091401
0.0916478
0.0916482
0.09165
0.0916546
0.0916643
0.0916826
0.091714
0.091763
0.0918324
0.0919195
0.0920084
0.0920661
0.0920579
0.0919738
0.0918391
0.09169
0.0915601
0.0914689
0.0914133
0.0913845
0.0913748
0.0913771
0.0913849
0.0913931
0.0913984
0.0914
0.0913984
0.0913951
0.0913915
0.0913885
0.0913866
0.0913858
0.0918365
0.0918387
0.0918442
0.0918545
0.0918719
0.0918995
0.0919402
0.0919961
0.0920652
0.0921383
0.0921957
0.0922112
0.0921709
0.0920832
0.0919682
0.0918399
0.0917127
0.0916038
0.0915193
0.0914566
0.0914107
0.0913789
0.0913586
0.0913472
0.0913427
0.0913436
0.091349
0.0913581
0.0913695
0.0913808
0.0913897
0.0913944
0.0920455
0.0920491
0.092058
0.092074
0.0920995
0.0921364
0.0921856
0.0922449
0.0923079
0.0923635
0.0923992
0.0924083
0.0923934
0.0923609
0.0923149
0.0922549
0.0921822
0.0921058
0.0920332
0.0919659
0.0919042
0.091849
0.0918026
0.0917673
0.0917446
0.0917356
0.0917401
0.0917559
0.0917785
0.0918019
0.0918201
0.0918296
0.0921908
0.0921955
0.0922073
0.0922291
0.0922639
0.0923131
0.0923754
0.092446
0.0925175
0.0925831
0.0926403
0.0926913
0.0927404
0.0927913
0.0928456
0.0929046
0.092966
0.0930227
0.093071
0.093111
0.0931418
0.0931608
0.0931674
0.0931611
0.0931425
0.0931138
0.0930786
0.0930424
0.0930113
0.0929896
0.0929782
0.0929743
0.092257
0.0922615
0.092273
0.0922948
0.0923301
0.0923812
0.0924477
0.0925264
0.0926116
0.0926981
0.0927842
0.0928725
0.0929675
0.0930735
0.093194
0.093334
0.0934892
0.0936428
0.0937837
0.0939121
0.0940254
0.0941202
0.0941929
0.0942401
0.0942596
0.0942512
0.0942179
0.0941669
0.0941093
0.0940578
0.0940224
0.0940062
0.0922864
0.0922905
0.0923012
0.0923214
0.0923542
0.0924024
0.0924666
0.092545
0.0926334
0.0927271
0.092824
0.0929252
0.0930348
0.093157
0.0932961
0.0934563
0.09363
0.0937958
0.0939434
0.0940761
0.0941954
0.0943022
0.0943959
0.0944747
0.0945355
0.0945752
0.0945924
0.0945883
0.0945682
0.0945413
0.0945178
0.094505
0.0922967
0.0923005
0.0923101
0.092328
0.0923571
0.0924001
0.0924581
0.0925304
0.0926139
0.0927046
0.0927997
0.0928995
0.093007
0.0931263
0.0932616
0.0934163
0.0935805
0.0937326
0.0938654
0.0939853
0.0940981
0.0942074
0.0943145
0.094417
0.0945094
0.0945855
0.0946408
0.0946742
0.0946879
0.0946876
0.094681
0.0946754
0.0922992
0.0923024
0.0923104
0.0923256
0.0923504
0.0923872
0.0924375
0.0925012
0.0925761
0.0926592
0.0927478
0.0928418
0.0929435
0.0930565
0.0931849
0.0933315
0.093486
0.0936278
0.0937515
0.0938653
0.0939767
0.0940914
0.094212
0.0943359
0.0944558
0.0945617
0.0946453
0.094703
0.0947359
0.0947494
0.0947512
0.0947492
0.0923056
0.0923075
0.0923129
0.0923241
0.0923437
0.0923739
0.0924165
0.0924715
0.092538
0.0926139
0.0926973
0.0927879
0.0928875
0.092999
0.0931254
0.0932691
0.09342
0.0935584
0.0936797
0.0937919
0.0939026
0.0940185
0.0941434
0.0942766
0.0944116
0.0945376
0.0946436
0.094722
0.0947712
0.0947953
0.0948025
0.0948022
0.0923316
0.092331
0.0923318
0.0923369
0.0923496
0.0923727
0.0924082
0.0924569
0.0925184
0.0925917
0.0926754
0.092769
0.0928733
0.0929895
0.0931196
0.093265
0.0934159
0.0935535
0.0936736
0.0937838
0.0938917
0.0940038
0.0941248
0.0942555
0.094392
0.0945255
0.0946444
0.0947381
0.0948012
0.0948353
0.0948476
0.0948488
0.0923944
0.09239
0.092384
0.0923808
0.0923852
0.0924014
0.0924324
0.0924794
0.0925422
0.0926199
0.0927109
0.0928137
0.0929274
0.0930518
0.0931873
0.0933347
0.0934843
0.0936186
0.0937343
0.093839
0.0939401
0.0940437
0.0941549
0.0942754
0.0944033
0.0945328
0.094654
0.0947555
0.0948286
0.0948712
0.0948886
0.0948913
0.0925103
0.0925008
0.0924868
0.0924749
0.0924723
0.092485
0.0925166
0.0925683
0.0926391
0.0927271
0.0928292
0.0929428
0.0930655
0.0931959
0.0933331
0.0934778
0.0936208
0.0937466
0.0938532
0.0939481
0.0940383
0.0941295
0.0942263
0.0943312
0.0944441
0.0945614
0.0946758
0.094777
0.0948549
0.0949038
0.0949258
0.0949302
0.0926902
0.0926754
0.092655
0.0926388
0.0926355
0.0926516
0.0926907
0.0927524
0.0928342
0.0929325
0.0930432
0.0931626
0.0932878
0.0934165
0.0935479
0.0936824
0.0938119
0.0939236
0.0940167
0.0940983
0.0941747
0.0942508
0.0943307
0.094417
0.0945106
0.0946102
0.094711
0.0948049
0.0948818
0.0949337
0.0949593
0.0949655
0.0929401
0.0929216
0.092901
0.0928904
0.0928967
0.0929245
0.0929752
0.0930467
0.0931353
0.0932369
0.093347
0.0934622
0.0935793
0.0936967
0.0938134
0.09393
0.0940399
0.094133
0.0942095
0.0942757
0.0943368
0.0943968
0.0944589
0.0945257
0.0945985
0.0946772
0.0947598
0.0948406
0.0949109
0.0949618
0.0949894
0.0949971
0.0932634
0.0932456
0.0932362
0.0932432
0.0932675
0.0933095
0.0933684
0.0934419
0.0935269
0.0936199
0.0937176
0.0938169
0.0939158
0.0940129
0.0941075
0.0942003
0.0942863
0.0943583
0.0944167
0.0944667
0.0945123
0.0945564
0.0946016
0.0946497
0.0947022
0.0947596
0.0948215
0.094885
0.0949436
0.0949893
0.0950164
0.0950252
0.0936662
0.0936578
0.093671
0.0936999
0.0937389
0.0937867
0.0938428
0.0939061
0.0939752
0.0940481
0.0941227
0.0941973
0.0942703
0.094341
0.094409
0.0944749
0.0945352
0.0945852
0.0946255
0.0946596
0.0946904
0.0947199
0.0947497
0.0947812
0.0948153
0.0948529
0.0948942
0.0949382
0.0949813
0.0950175
0.095041
0.0950498
0.0941623
0.0941727
0.0942044
0.09424
0.0942765
0.0943144
0.0943542
0.094396
0.0944398
0.094485
0.0945305
0.0945754
0.094619
0.0946608
0.0947008
0.0947391
0.094774
0.0948028
0.0948258
0.0948453
0.0948626
0.0948791
0.0948955
0.0949128
0.0949314
0.0949519
0.0949746
0.0949994
0.0950248
0.0950478
0.0950641
0.0950712
0.0947705
0.0947794
0.0947965
0.0948124
0.0948273
0.0948416
0.0948559
0.0948703
0.0948851
0.0949002
0.0949152
0.09493
0.0949442
0.0949579
0.0949708
0.0949832
0.0949945
0.0950037
0.0950111
0.0950173
0.0950228
0.095028
0.0950332
0.0950385
0.0950443
0.0950507
0.0950577
0.0950654
0.0950735
0.0950812
0.0950871
0.09509
)
;

boundaryField
{
    movingWall
    {
        type            fixedValue;
        value           uniform 0.0951;
    }
    fixedWalls
    {
        type            zeroGradient;
    }
    floor
    {
        type            zeroGradient;
    }
    frontAndBack
    {
        type            empty;
    }
}


// ************************************************************************* //
