/*--------------------------------*- C++ -*----------------------------------*\
| =========                 |                                                 |
| \\      /  F ield         | OpenFOAM: The Open Source CFD Toolbox           |
|  \\    /   O peration     | Version:  2212                                  |
|   \\  /    A nd           | Website:  www.openfoam.com                      |
|    \\/     M anipulation  |                                                 |
\*---------------------------------------------------------------------------*/
FoamFile
{
    version     2.0;
    format      ascii;
    arch        "LSB;label=64;scalar=64";
    class       volScalarField;
    location    "710";
    object      Xch;
}
// * * * * * * * * * * * * * * * * * * * * * * * * * * * * * * * * * * * * * //

dimensions      [1 -3 0 0 0 0 0];

internalField   nonuniform List<scalar> 
1024
(
0.0199714
0.0199716
0.019972
0.0199727
0.0199738
0.0199753
0.0199772
0.0199793
0.0199816
0.0199838
0.019986
0.019988
0.0199895
0.0199902
0.0199897
0.0199878
0.0199847
0.0199812
0.0199779
0.0199747
0.0199716
0.0199685
0.0199653
0.019962
0.0199589
0.019956
0.0199536
0.0199517
0.0199504
0.0199496
0.0199491
0.0199489
0.0199714
0.0199716
0.019972
0.0199728
0.0199739
0.0199755
0.0199773
0.0199795
0.0199817
0.019984
0.0199862
0.0199882
0.0199897
0.0199904
0.0199899
0.0199879
0.0199848
0.0199813
0.019978
0.0199748
0.0199718
0.0199687
0.0199655
0.0199622
0.0199591
0.0199562
0.0199537
0.0199518
0.0199505
0.0199496
0.0199491
0.0199489
0.0199715
0.0199717
0.0199721
0.0199729
0.0199741
0.0199756
0.0199776
0.0199797
0.019982
0.0199843
0.0199865
0.0199885
0.0199902
0.0199909
0.0199903
0.0199883
0.0199851
0.0199816
0.0199782
0.019975
0.019972
0.019969
0.0199658
0.0199626
0.0199594
0.0199565
0.019954
0.019952
0.0199506
0.0199497
0.0199492
0.019949
0.0199715
0.0199717
0.0199722
0.019973
0.0199742
0.0199759
0.0199778
0.01998
0.0199823
0.0199846
0.0199869
0.0199892
0.0199911
0.0199918
0.0199911
0.0199888
0.0199854
0.0199818
0.0199784
0.0199753
0.0199723
0.0199694
0.0199663
0.0199631
0.01996
0.019957
0.0199544
0.0199524
0.0199509
0.01995
0.0199494
0.0199492
0.0199715
0.0199717
0.0199722
0.0199731
0.0199743
0.019976
0.019978
0.0199802
0.0199825
0.0199849
0.0199875
0.0199901
0.0199924
0.0199932
0.0199923
0.0199896
0.0199858
0.019982
0.0199786
0.0199755
0.0199725
0.0199697
0.0199668
0.0199637
0.0199606
0.0199576
0.019955
0.0199528
0.0199513
0.0199503
0.0199497
0.0199495
0.0199715
0.0199717
0.0199722
0.0199731
0.0199744
0.019976
0.019978
0.0199802
0.0199826
0.0199852
0.0199881
0.0199913
0.0199941
0.0199952
0.0199939
0.0199905
0.0199862
0.019982
0.0199785
0.0199753
0.0199725
0.0199699
0.0199671
0.0199643
0.0199613
0.0199583
0.0199556
0.0199533
0.0199517
0.0199506
0.01995
0.0199498
0.0199714
0.0199716
0.0199721
0.0199729
0.0199742
0.0199758
0.0199777
0.0199799
0.0199824
0.0199853
0.0199888
0.0199928
0.0199964
0.0199977
0.0199959
0.0199916
0.0199863
0.0199817
0.0199779
0.0199747
0.0199721
0.0199696
0.0199671
0.0199645
0.0199617
0.0199588
0.0199561
0.0199538
0.0199521
0.019951
0.0199504
0.0199501
0.0199712
0.0199714
0.0199718
0.0199726
0.0199737
0.0199752
0.019977
0.0199792
0.0199818
0.0199851
0.0199893
0.0199944
0.019999
0.0200007
0.0199982
0.0199925
0.019986
0.0199806
0.0199765
0.0199734
0.0199709
0.0199687
0.0199666
0.0199643
0.0199617
0.019959
0.0199564
0.0199542
0.0199525
0.0199513
0.0199507
0.0199504
0.0199706
0.0199708
0.0199713
0.019972
0.0199729
0.0199743
0.0199759
0.019978
0.0199808
0.0199845
0.0199897
0.0199962
0.0200021
0.0200041
0.0200006
0.0199931
0.019985
0.0199786
0.0199741
0.019971
0.0199687
0.0199669
0.0199652
0.0199634
0.0199612
0.0199588
0.0199564
0.0199543
0.0199526
0.0199515
0.0199509
0.0199506
0.0199698
0.01997
0.0199704
0.019971
0.0199718
0.019973
0.0199744
0.0199764
0.0199794
0.0199838
0.0199903
0.0199986
0.0200059
0.020008
0.020003
0.0199931
0.0199828
0.0199753
0.0199704
0.0199673
0.0199654
0.0199641
0.019963
0.0199616
0.0199599
0.0199579
0.0199559
0.019954
0.0199525
0.0199515
0.0199509
0.0199507
0.0199686
0.0199688
0.0199691
0.0199696
0.0199703
0.0199713
0.0199726
0.0199746
0.0199779
0.0199834
0.0199917
0.0200022
0.0200109
0.0200124
0.020005
0.019992
0.0199793
0.0199705
0.0199652
0.0199623
0.0199609
0.0199602
0.0199597
0.019959
0.0199579
0.0199565
0.0199548
0.0199533
0.0199521
0.0199512
0.0199507
0.0199504
0.0199672
0.0199673
0.0199676
0.019968
0.0199686
0.0199695
0.0199709
0.0199733
0.0199775
0.0199847
0.0199955
0.0200083
0.0200176
0.0200174
0.0200065
0.0199898
0.0199744
0.0199643
0.0199587
0.019956
0.0199552
0.0199553
0.0199556
0.0199557
0.0199553
0.0199544
0.0199533
0.0199522
0.0199512
0.0199505
0.01995
0.0199498
0.019967
0.0199671
0.0199672
0.0199675
0.0199681
0.0199691
0.0199711
0.0199746
0.0199807
0.0199906
0.0200042
0.0200184
0.0200266
0.0200228
0.0200075
0.0199868
0.0199688
0.0199575
0.0199516
0.0199492
0.019949
0.0199498
0.0199509
0.0199517
0.0199521
0.0199518
0.0199513
0.0199505
0.0199498
0.0199492
0.0199488
0.0199486
0.0199723
0.0199722
0.0199722
0.0199725
0.0199733
0.0199749
0.0199782
0.0199837
0.0199926
0.0200053
0.0200205
0.0200337
0.0200378
0.0200287
0.0200087
0.0199848
0.0199649
0.0199524
0.0199459
0.0199434
0.0199434
0.0199447
0.0199463
0.0199477
0.0199485
0.0199488
0.0199486
0.0199482
0.0199477
0.0199472
0.0199469
0.0199467
0.0199891
0.0199892
0.0199894
0.0199901
0.0199917
0.0199946
0.0199995
0.0200072
0.0200181
0.0200316
0.0200451
0.0200533
0.0200508
0.0200362
0.0200138
0.0199894
0.0199686
0.0199543
0.0199458
0.0199417
0.0199406
0.0199414
0.019943
0.0199446
0.0199457
0.0199462
0.019946
0.0199455
0.019945
0.0199445
0.0199442
0.019944
0.0200196
0.0200199
0.0200208
0.0200224
0.0200251
0.0200294
0.0200357
0.0200444
0.0200549
0.020066
0.0200742
0.0200756
0.0200681
0.0200532
0.0200342
0.0200134
0.0199932
0.0199761
0.019963
0.0199534
0.0199466
0.0199419
0.0199389
0.0199374
0.0199368
0.019937
0.0199379
0.0199393
0.0199411
0.0199428
0.0199442
0.0199449
0.0200531
0.0200537
0.0200551
0.0200575
0.0200614
0.0200671
0.0200746
0.0200835
0.0200929
0.020101
0.0201058
0.0201064
0.0201032
0.0200974
0.0200895
0.0200796
0.0200677
0.0200555
0.020044
0.0200334
0.0200238
0.0200152
0.0200081
0.0200026
0.0199991
0.0199977
0.0199985
0.0200009
0.0200044
0.0200081
0.0200109
0.0200124
0.0200764
0.0200771
0.0200789
0.0200822
0.0200875
0.020095
0.0201045
0.0201152
0.020126
0.0201358
0.0201443
0.0201518
0.020159
0.0201664
0.0201743
0.0201828
0.0201916
0.0201997
0.0202066
0.0202123
0.0202167
0.0202193
0.02022
0.0202189
0.0202159
0.0202114
0.020206
0.0202005
0.0201957
0.0201924
0.0201907
0.0201901
0.0200872
0.0200879
0.0200896
0.020093
0.0200984
0.0201063
0.0201165
0.0201286
0.0201417
0.0201551
0.0201683
0.0201819
0.0201965
0.0202126
0.0202309
0.020252
0.0202752
0.020298
0.0203187
0.0203376
0.020354
0.0203677
0.0203781
0.0203847
0.0203872
0.0203857
0.0203805
0.0203727
0.020364
0.0203562
0.0203509
0.0203484
0.0200923
0.0200929
0.0200945
0.0200976
0.0201027
0.0201101
0.0201201
0.0201323
0.0201461
0.0201607
0.0201759
0.0201917
0.0202087
0.0202276
0.020249
0.0202733
0.0202994
0.020324
0.0203456
0.0203647
0.0203815
0.0203964
0.0204093
0.02042
0.0204282
0.0204335
0.0204357
0.020435
0.020432
0.0204281
0.0204246
0.0204228
0.0200943
0.0200949
0.0200963
0.0200991
0.0201036
0.0201103
0.0201193
0.0201307
0.0201438
0.0201581
0.0201731
0.0201888
0.0202057
0.0202243
0.0202452
0.0202688
0.0202936
0.0203163
0.0203356
0.0203527
0.0203684
0.0203833
0.0203978
0.0204115
0.0204239
0.0204342
0.0204416
0.0204462
0.0204481
0.0204481
0.0204473
0.0204466
0.020095
0.0200955
0.0200967
0.0200991
0.0201029
0.0201087
0.0201166
0.0201266
0.0201384
0.0201515
0.0201656
0.0201804
0.0201964
0.0202141
0.020234
0.0202565
0.0202799
0.0203011
0.0203192
0.0203355
0.020351
0.0203668
0.0203832
0.0203999
0.0204161
0.0204303
0.0204416
0.0204494
0.0204539
0.0204558
0.0204562
0.020456
0.0200962
0.0200965
0.0200974
0.0200991
0.0201022
0.0201069
0.0201136
0.0201223
0.0201328
0.0201447
0.0201579
0.0201722
0.0201878
0.0202051
0.0202246
0.0202466
0.0202695
0.0202902
0.0203081
0.0203243
0.0203399
0.0203561
0.0203732
0.0203913
0.0204096
0.0204267
0.0204409
0.0204515
0.0204582
0.0204615
0.0204626
0.0204626
0.0201002
0.0201001
0.0201003
0.0201011
0.0201031
0.0201068
0.0201124
0.02012
0.0201297
0.0201412
0.0201543
0.0201688
0.020185
0.0202028
0.0202228
0.0202449
0.0202677
0.0202883
0.0203061
0.0203221
0.0203375
0.0203533
0.02037
0.020388
0.0204066
0.0204247
0.0204407
0.0204533
0.0204618
0.0204665
0.0204682
0.0204684
0.0201095
0.0201088
0.020108
0.0201076
0.0201084
0.020111
0.0201159
0.0201232
0.0201329
0.0201449
0.0201589
0.0201746
0.020192
0.0202109
0.0202314
0.0202537
0.0202763
0.0202963
0.0203135
0.0203288
0.0203433
0.020358
0.0203736
0.0203902
0.0204077
0.0204253
0.0204417
0.0204554
0.0204652
0.020471
0.0204734
0.0204738
0.0201264
0.020125
0.020123
0.0201214
0.0201211
0.0201232
0.020128
0.0201359
0.0201467
0.02016
0.0201755
0.0201926
0.0202111
0.0202308
0.0202514
0.0202732
0.0202946
0.0203134
0.0203292
0.0203431
0.0203562
0.0203692
0.0203828
0.0203974
0.0204129
0.0204289
0.0204444
0.0204581
0.0204685
0.0204751
0.0204781
0.0204787
0.0201526
0.0201504
0.0201475
0.0201452
0.0201448
0.0201473
0.0201532
0.0201625
0.0201747
0.0201894
0.020206
0.0202238
0.0202425
0.0202618
0.0202814
0.0203015
0.0203209
0.0203375
0.0203513
0.0203634
0.0203745
0.0203854
0.0203967
0.0204087
0.0204216
0.0204353
0.020449
0.0204616
0.0204719
0.0204789
0.0204823
0.0204832
0.0201888
0.0201861
0.0201832
0.0201817
0.0201827
0.0201868
0.0201943
0.0202049
0.020218
0.0202331
0.0202494
0.0202665
0.0202839
0.0203013
0.0203187
0.0203361
0.0203525
0.0203664
0.0203777
0.0203875
0.0203964
0.020405
0.0204138
0.0204232
0.0204333
0.0204441
0.0204553
0.0204662
0.0204757
0.0204824
0.0204861
0.0204872
0.0202355
0.020233
0.0202316
0.0202327
0.0202362
0.0202424
0.020251
0.0202618
0.0202743
0.020288
0.0203024
0.0203171
0.0203317
0.0203461
0.0203602
0.020374
0.0203868
0.0203975
0.0204062
0.0204135
0.0204202
0.0204266
0.020433
0.0204398
0.0204471
0.020455
0.0204634
0.020472
0.0204799
0.0204859
0.0204895
0.0204907
0.0202937
0.0202925
0.0202944
0.0202986
0.0203042
0.0203112
0.0203194
0.0203286
0.0203387
0.0203494
0.0203604
0.0203714
0.0203822
0.0203926
0.0204027
0.0204125
0.0204215
0.0204289
0.0204349
0.0204399
0.0204444
0.0204487
0.020453
0.0204574
0.0204622
0.0204674
0.020473
0.0204789
0.0204847
0.0204895
0.0204926
0.0204938
0.0203652
0.0203667
0.0203712
0.0203764
0.0203817
0.0203871
0.0203929
0.020399
0.0204054
0.020412
0.0204187
0.0204253
0.0204317
0.0204379
0.0204439
0.0204495
0.0204547
0.020459
0.0204624
0.0204653
0.0204678
0.0204702
0.0204726
0.020475
0.0204776
0.0204805
0.0204836
0.0204869
0.0204903
0.0204934
0.0204955
0.0204965
0.0204527
0.0204539
0.0204564
0.0204587
0.0204608
0.0204629
0.020465
0.0204671
0.0204693
0.0204715
0.0204737
0.0204758
0.0204779
0.0204799
0.0204819
0.0204837
0.0204854
0.0204867
0.0204878
0.0204888
0.0204896
0.0204903
0.0204911
0.0204918
0.0204926
0.0204935
0.0204945
0.0204955
0.0204966
0.0204976
0.0204984
0.0204988
)
;

boundaryField
{
    movingWall
    {
        type            fixedValue;
        value           uniform 0.0205;
    }
    fixedWalls
    {
        type            zeroGradient;
    }
    floor
    {
        type            zeroGradient;
    }
    frontAndBack
    {
        type            empty;
    }
}


// ************************************************************************* //
