/*--------------------------------*- C++ -*----------------------------------*\
| =========                 |                                                 |
| \\      /  F ield         | OpenFOAM: The Open Source CFD Toolbox           |
|  \\    /   O peration     | Version:  2212                                  |
|   \\  /    A nd           | Website:  www.openfoam.com                      |
|    \\/     M anipulation  |                                                 |
\*---------------------------------------------------------------------------*/
FoamFile
{
    version     2.0;
    format      ascii;
    arch        "LSB;label=64;scalar=64";
    class       volScalarField;
    location    "710";
    object      Xli;
}
// * * * * * * * * * * * * * * * * * * * * * * * * * * * * * * * * * * * * * //

dimensions      [1 -3 0 0 0 0 0];

internalField   nonuniform List<scalar> 
1024
(
0.0424501
0.0424504
0.0424513
0.0424529
0.0424553
0.0424586
0.0424626
0.0424673
0.0424721
0.042477
0.0424818
0.0424861
0.0424894
0.0424909
0.0424898
0.0424856
0.0424789
0.0424714
0.0424641
0.0424572
0.0424505
0.0424437
0.0424367
0.0424296
0.0424227
0.0424165
0.0424112
0.0424072
0.0424043
0.0424025
0.0424015
0.042401
0.0424501
0.0424505
0.0424514
0.042453
0.0424555
0.0424588
0.0424629
0.0424676
0.0424725
0.0424774
0.0424821
0.0424864
0.0424899
0.0424914
0.0424902
0.0424859
0.0424792
0.0424716
0.0424644
0.0424575
0.0424508
0.0424441
0.0424371
0.0424301
0.0424231
0.0424168
0.0424115
0.0424074
0.0424045
0.0424026
0.0424016
0.0424011
0.0424502
0.0424506
0.0424515
0.0424532
0.0424558
0.0424592
0.0424634
0.0424681
0.042473
0.042478
0.0424828
0.0424873
0.0424909
0.0424925
0.0424911
0.0424867
0.0424798
0.0424721
0.0424648
0.0424579
0.0424513
0.0424447
0.0424379
0.0424309
0.042424
0.0424176
0.0424121
0.0424079
0.0424048
0.0424029
0.0424018
0.0424014
0.0424503
0.0424507
0.0424517
0.0424535
0.0424562
0.0424597
0.042464
0.0424687
0.0424737
0.0424787
0.0424838
0.0424887
0.0424928
0.0424944
0.0424928
0.0424879
0.0424805
0.0424727
0.0424653
0.0424585
0.042452
0.0424456
0.0424389
0.042432
0.0424252
0.0424187
0.0424131
0.0424086
0.0424054
0.0424034
0.0424022
0.0424017
0.0424503
0.0424508
0.0424518
0.0424537
0.0424564
0.04246
0.0424643
0.0424691
0.0424742
0.0424795
0.0424851
0.0424908
0.0424956
0.0424975
0.0424954
0.0424896
0.0424814
0.0424731
0.0424656
0.0424588
0.0424525
0.0424463
0.04244
0.0424334
0.0424266
0.0424201
0.0424143
0.0424096
0.0424062
0.042404
0.0424028
0.0424023
0.0424503
0.0424507
0.0424518
0.0424537
0.0424564
0.04246
0.0424643
0.0424691
0.0424743
0.04248
0.0424864
0.0424934
0.0424994
0.0425018
0.0424989
0.0424916
0.0424822
0.0424732
0.0424654
0.0424586
0.0424525
0.0424467
0.0424407
0.0424345
0.0424279
0.0424215
0.0424156
0.0424107
0.0424071
0.0424048
0.0424035
0.042403
0.04245
0.0424505
0.0424515
0.0424533
0.042456
0.0424595
0.0424637
0.0424685
0.0424739
0.0424802
0.0424878
0.0424965
0.0425043
0.0425072
0.0425033
0.0424939
0.0424825
0.0424723
0.042464
0.0424573
0.0424514
0.0424461
0.0424407
0.042435
0.0424288
0.0424226
0.0424167
0.0424118
0.0424081
0.0424056
0.0424042
0.0424037
0.0424495
0.0424499
0.0424509
0.0424526
0.042455
0.0424583
0.0424622
0.0424669
0.0424726
0.0424797
0.0424889
0.0425
0.0425101
0.0425137
0.0425083
0.042496
0.0424818
0.04247
0.0424611
0.0424543
0.0424489
0.0424441
0.0424395
0.0424345
0.0424289
0.042423
0.0424174
0.0424125
0.0424088
0.0424063
0.0424049
0.0424044
0.0424484
0.0424488
0.0424497
0.0424512
0.0424534
0.0424562
0.0424599
0.0424644
0.0424704
0.0424785
0.0424898
0.042504
0.0425169
0.0425212
0.0425136
0.0424973
0.0424796
0.0424657
0.0424559
0.0424491
0.0424442
0.0424403
0.0424366
0.0424325
0.0424277
0.0424225
0.0424173
0.0424127
0.0424091
0.0424067
0.0424054
0.0424048
0.0424466
0.042447
0.0424478
0.0424491
0.0424509
0.0424534
0.0424566
0.042461
0.0424673
0.0424769
0.0424911
0.0425092
0.0425252
0.0425296
0.0425187
0.0424971
0.0424749
0.0424585
0.0424478
0.0424412
0.042437
0.0424342
0.0424317
0.0424287
0.042425
0.0424207
0.0424162
0.0424121
0.0424089
0.0424067
0.0424054
0.0424049
0.0424439
0.0424443
0.042445
0.0424461
0.0424477
0.0424497
0.0424527
0.0424571
0.0424642
0.042476
0.0424942
0.0425171
0.0425359
0.0425392
0.0425231
0.0424948
0.0424672
0.042448
0.0424366
0.0424302
0.0424271
0.0424256
0.0424246
0.0424231
0.0424207
0.0424175
0.042414
0.0424106
0.0424079
0.042406
0.0424049
0.0424044
0.0424409
0.0424411
0.0424417
0.0424426
0.0424439
0.0424459
0.042449
0.0424542
0.0424633
0.042479
0.0425025
0.0425302
0.0425504
0.04255
0.0425264
0.04249
0.0424565
0.0424345
0.0424223
0.0424166
0.0424147
0.0424149
0.0424156
0.0424158
0.0424149
0.042413
0.0424106
0.0424081
0.042406
0.0424044
0.0424035
0.042403
0.0424405
0.0424406
0.0424408
0.0424415
0.0424427
0.0424451
0.0424494
0.042457
0.0424703
0.0424917
0.0425213
0.0425522
0.04257
0.0425619
0.0425285
0.0424834
0.0424443
0.0424197
0.0424069
0.0424018
0.0424012
0.042403
0.0424054
0.0424072
0.0424079
0.0424074
0.0424062
0.0424046
0.042403
0.0424018
0.0424009
0.0424005
0.0424519
0.0424518
0.0424518
0.0424524
0.0424541
0.0424577
0.0424647
0.0424768
0.0424961
0.0425237
0.0425568
0.0425855
0.0425946
0.0425746
0.0425311
0.0424792
0.0424358
0.0424087
0.0423946
0.0423891
0.0423891
0.0423919
0.0423955
0.0423985
0.0424002
0.0424008
0.0424004
0.0423995
0.0423984
0.0423974
0.0423966
0.0423962
0.0424885
0.0424886
0.0424892
0.0424908
0.0424941
0.0425004
0.0425112
0.042528
0.0425516
0.042581
0.0426104
0.0426283
0.0426227
0.0425909
0.0425422
0.0424892
0.0424439
0.0424128
0.0423943
0.0423853
0.042383
0.0423847
0.0423883
0.0423918
0.0423942
0.0423951
0.0423948
0.0423937
0.0423925
0.0423915
0.0423908
0.0423905
0.0425548
0.0425556
0.0425574
0.0425609
0.0425668
0.0425762
0.0425899
0.0426087
0.0426318
0.0426557
0.0426736
0.0426766
0.0426603
0.0426279
0.0425866
0.0425415
0.0424974
0.0424602
0.0424317
0.0424109
0.0423959
0.0423857
0.0423794
0.042376
0.0423747
0.0423752
0.0423771
0.0423802
0.042384
0.0423878
0.0423908
0.0423924
0.0426278
0.042629
0.042632
0.0426374
0.0426459
0.0426581
0.0426744
0.0426939
0.0427144
0.0427319
0.0427424
0.0427437
0.0427368
0.0427241
0.042707
0.0426853
0.0426596
0.042633
0.042608
0.042585
0.042564
0.0425454
0.0425298
0.0425179
0.0425103
0.0425073
0.0425089
0.0425142
0.0425219
0.0425298
0.042536
0.0425392
0.0426784
0.04268
0.0426839
0.0426911
0.0427027
0.042719
0.0427396
0.0427629
0.0427864
0.0428078
0.0428262
0.0428425
0.0428581
0.0428743
0.0428914
0.0429099
0.0429291
0.0429467
0.0429618
0.0429742
0.0429836
0.0429893
0.0429909
0.0429884
0.0429819
0.0429721
0.0429604
0.0429483
0.042938
0.0429308
0.0429271
0.0429258
0.042702
0.0427034
0.0427073
0.0427145
0.0427263
0.0427434
0.0427657
0.042792
0.0428206
0.0428496
0.0428784
0.042908
0.0429397
0.0429748
0.0430146
0.0430604
0.0431109
0.0431605
0.0432057
0.0432466
0.0432825
0.0433122
0.0433348
0.0433492
0.0433547
0.0433513
0.0433399
0.043323
0.043304
0.0432871
0.0432755
0.0432702
0.042713
0.0427143
0.0427179
0.0427246
0.0427356
0.0427518
0.0427735
0.0428001
0.04283
0.0428619
0.0428948
0.0429293
0.0429663
0.0430075
0.0430539
0.0431069
0.0431637
0.0432172
0.0432641
0.0433056
0.0433423
0.0433746
0.0434026
0.0434259
0.0434438
0.0434554
0.0434601
0.0434585
0.043452
0.0434435
0.0434361
0.043432
0.0427174
0.0427187
0.0427218
0.0427278
0.0427376
0.0427521
0.0427718
0.0427965
0.042825
0.0428561
0.0428888
0.042923
0.0429597
0.0430001
0.0430456
0.0430971
0.0431511
0.0432003
0.0432423
0.0432795
0.0433136
0.0433461
0.0433776
0.0434075
0.0434345
0.0434567
0.043473
0.0434829
0.0434871
0.0434872
0.0434853
0.0434837
0.042719
0.04272
0.0427227
0.0427278
0.0427361
0.0427486
0.0427658
0.0427876
0.0428133
0.0428419
0.0428725
0.0429048
0.0429396
0.042978
0.0430213
0.0430702
0.0431212
0.0431672
0.0432066
0.043242
0.0432759
0.0433102
0.0433459
0.0433823
0.0434175
0.0434485
0.043473
0.0434899
0.0434997
0.0435039
0.0435047
0.0435042
0.0427216
0.0427222
0.042724
0.0427278
0.0427345
0.0427448
0.0427593
0.0427782
0.042801
0.0428271
0.0428558
0.0428868
0.0429208
0.0429585
0.0430009
0.0430488
0.0430985
0.0431436
0.0431825
0.0432177
0.0432518
0.0432868
0.0433241
0.0433636
0.0434034
0.0434405
0.0434715
0.0434945
0.043509
0.0435162
0.0435185
0.0435186
0.0427302
0.04273
0.0427304
0.0427322
0.0427366
0.0427445
0.0427567
0.0427734
0.0427944
0.0428194
0.0428478
0.0428795
0.0429146
0.0429535
0.0429968
0.043045
0.0430946
0.0431395
0.0431781
0.043213
0.0432465
0.0432807
0.0433172
0.0433563
0.0433968
0.0434361
0.0434711
0.0434985
0.043517
0.0435271
0.0435308
0.0435313
0.0427504
0.042749
0.0427472
0.0427464
0.0427481
0.0427537
0.0427643
0.0427802
0.0428014
0.0428274
0.0428578
0.0428921
0.0429298
0.042971
0.0430157
0.0430642
0.0431132
0.0431569
0.0431942
0.0432276
0.0432592
0.0432911
0.0433249
0.0433611
0.0433993
0.0434376
0.0434732
0.043503
0.0435244
0.0435369
0.0435421
0.043543
0.0427872
0.0427842
0.0427799
0.0427763
0.0427757
0.0427802
0.0427908
0.042808
0.0428314
0.0428604
0.042894
0.0429313
0.0429716
0.0430143
0.0430592
0.0431065
0.0431532
0.0431941
0.0432284
0.0432588
0.0432872
0.0433154
0.043345
0.0433768
0.0434105
0.0434454
0.0434791
0.0435088
0.0435315
0.0435458
0.0435523
0.0435537
0.0428441
0.0428395
0.0428331
0.0428281
0.0428273
0.0428328
0.0428456
0.0428657
0.0428923
0.0429243
0.0429603
0.0429991
0.0430398
0.0430817
0.0431244
0.0431682
0.0432103
0.0432466
0.0432766
0.0433027
0.0433269
0.0433506
0.0433752
0.0434014
0.0434295
0.0434592
0.043489
0.0435165
0.0435389
0.043554
0.0435615
0.0435634
0.0429229
0.0429171
0.0429107
0.0429075
0.0429096
0.0429186
0.042935
0.042958
0.0429865
0.0430193
0.0430548
0.0430919
0.0431298
0.0431678
0.0432056
0.0432434
0.0432791
0.0433092
0.0433339
0.0433552
0.0433745
0.0433933
0.0434125
0.0434329
0.0434548
0.0434784
0.0435028
0.0435265
0.043547
0.0435618
0.0435698
0.0435721
0.0430247
0.0430191
0.0430162
0.0430184
0.0430262
0.0430396
0.0430584
0.0430819
0.0431091
0.0431388
0.0431702
0.0432021
0.0432339
0.0432652
0.0432958
0.0433258
0.0433537
0.043377
0.0433959
0.0434119
0.0434264
0.0434403
0.0434543
0.043469
0.0434849
0.0435021
0.0435204
0.0435391
0.0435562
0.0435694
0.0435772
0.0435798
0.0431511
0.0431485
0.0431527
0.0431618
0.0431741
0.0431893
0.0432071
0.0432272
0.0432492
0.0432724
0.0432963
0.0433202
0.0433437
0.0433664
0.0433883
0.0434096
0.0434291
0.0434453
0.0434583
0.0434693
0.0434791
0.0434884
0.0434977
0.0435073
0.0435177
0.043529
0.0435413
0.0435542
0.0435668
0.0435772
0.043584
0.0435865
0.0433066
0.0433099
0.0433199
0.043331
0.0433425
0.0433545
0.0433671
0.0433803
0.0433943
0.0434086
0.0434232
0.0434375
0.0434515
0.043465
0.0434778
0.0434902
0.0435015
0.0435108
0.0435183
0.0435245
0.04353
0.0435352
0.0435404
0.0435457
0.0435514
0.0435575
0.0435643
0.0435716
0.043579
0.0435856
0.0435903
0.0435923
0.043497
0.0434998
0.0435051
0.0435101
0.0435148
0.0435193
0.0435238
0.0435284
0.0435331
0.0435379
0.0435427
0.0435474
0.043552
0.0435564
0.0435605
0.0435645
0.0435682
0.0435712
0.0435736
0.0435755
0.0435773
0.0435789
0.0435806
0.0435822
0.043584
0.0435859
0.043588
0.0435903
0.0435926
0.0435948
0.0435965
0.0435974
)
;

boundaryField
{
    movingWall
    {
        type            fixedValue;
        value           uniform 0.0436;
    }
    fixedWalls
    {
        type            zeroGradient;
    }
    floor
    {
        type            zeroGradient;
    }
    frontAndBack
    {
        type            empty;
    }
}


// ************************************************************************* //
