/*--------------------------------*- C++ -*----------------------------------*\
| =========                 |                                                 |
| \\      /  F ield         | OpenFOAM: The Open Source CFD Toolbox           |
|  \\    /   O peration     | Version:  2212                                  |
|   \\  /    A nd           | Website:  www.openfoam.com                      |
|    \\/     M anipulation  |                                                 |
\*---------------------------------------------------------------------------*/
FoamFile
{
    version     2.0;
    format      ascii;
    arch        "LSB;label=64;scalar=64";
    class       volScalarField;
    location    "710";
    object      Xpr;
}
// * * * * * * * * * * * * * * * * * * * * * * * * * * * * * * * * * * * * * //

dimensions      [1 -3 0 0 0 0 0];

internalField   nonuniform List<scalar> 
1024
(
0.0819377
0.0819384
0.0819402
0.0819433
0.081948
0.0819545
0.0819625
0.0819715
0.0819812
0.0819908
0.0820001
0.0820085
0.0820152
0.0820181
0.0820158
0.0820076
0.0819944
0.0819796
0.0819653
0.0819517
0.0819385
0.0819252
0.0819115
0.0818976
0.081884
0.0818717
0.0818613
0.0818534
0.0818477
0.0818441
0.0818421
0.0818413
0.0819378
0.0819385
0.0819403
0.0819435
0.0819484
0.081955
0.081963
0.0819722
0.0819818
0.0819914
0.0820008
0.0820093
0.082016
0.082019
0.0820166
0.0820083
0.081995
0.0819801
0.0819658
0.0819523
0.0819391
0.0819259
0.0819123
0.0818984
0.0818848
0.0818724
0.0818619
0.0818538
0.081848
0.0818443
0.0818423
0.0818415
0.0819379
0.0819387
0.0819406
0.0819439
0.081949
0.0819558
0.081964
0.0819732
0.0819829
0.0819926
0.0820021
0.082011
0.0820181
0.0820211
0.0820185
0.0820098
0.0819961
0.0819811
0.0819667
0.0819532
0.0819402
0.0819272
0.0819138
0.0819
0.0818864
0.0818738
0.0818631
0.0818547
0.0818488
0.0818449
0.0818428
0.0818419
0.0819381
0.0819389
0.0819409
0.0819444
0.0819497
0.0819567
0.0819651
0.0819744
0.0819842
0.0819941
0.0820041
0.0820138
0.0820218
0.082025
0.0820218
0.0820122
0.0819977
0.0819822
0.0819677
0.0819543
0.0819415
0.0819288
0.0819158
0.0819023
0.0818887
0.081876
0.081865
0.0818562
0.0818499
0.0818458
0.0818436
0.0818426
0.0819382
0.0819391
0.0819412
0.0819448
0.0819502
0.0819573
0.0819658
0.0819752
0.0819851
0.0819956
0.0820066
0.0820178
0.0820273
0.082031
0.0820269
0.0820154
0.0819994
0.0819831
0.0819683
0.081955
0.0819425
0.0819304
0.0819179
0.0819048
0.0818915
0.0818787
0.0818673
0.0818582
0.0818515
0.0818471
0.0818447
0.0818437
0.0819381
0.081939
0.0819411
0.0819448
0.0819502
0.0819573
0.0819658
0.0819752
0.0819854
0.0819967
0.0820093
0.0820229
0.0820349
0.0820394
0.0820337
0.0820195
0.0820009
0.0819832
0.0819678
0.0819545
0.0819425
0.081931
0.0819194
0.0819071
0.0818942
0.0818814
0.0818699
0.0818603
0.0818533
0.0818487
0.0818461
0.081845
0.0819377
0.0819386
0.0819406
0.0819442
0.0819494
0.0819563
0.0819645
0.0819739
0.0819846
0.081997
0.0820119
0.082029
0.0820444
0.0820501
0.0820424
0.0820239
0.0820015
0.0819815
0.0819652
0.0819519
0.0819404
0.0819299
0.0819194
0.0819081
0.081896
0.0818836
0.0818721
0.0818624
0.0818551
0.0818503
0.0818476
0.0818465
0.0819365
0.0819374
0.0819393
0.0819427
0.0819475
0.0819539
0.0819617
0.0819709
0.0819821
0.0819961
0.0820141
0.0820359
0.0820558
0.082063
0.0820523
0.082028
0.0820002
0.081977
0.0819595
0.0819461
0.0819354
0.0819261
0.0819169
0.0819071
0.0818961
0.0818845
0.0818734
0.0818638
0.0818565
0.0818517
0.0818489
0.0818478
0.0819344
0.0819352
0.081937
0.08194
0.0819442
0.0819499
0.081957
0.081966
0.0819777
0.0819937
0.0820159
0.0820438
0.0820692
0.0820777
0.0820627
0.0820306
0.0819958
0.0819684
0.0819492
0.0819358
0.0819262
0.0819185
0.0819112
0.0819032
0.0818938
0.0818835
0.0818732
0.0818642
0.0818572
0.0818525
0.0818498
0.0818488
0.0819308
0.0819316
0.0819333
0.0819358
0.0819394
0.0819443
0.0819506
0.0819592
0.0819717
0.0819905
0.0820184
0.082054
0.0820855
0.0820943
0.0820727
0.0820303
0.0819866
0.0819543
0.0819334
0.0819202
0.081912
0.0819064
0.0819015
0.0818958
0.0818885
0.0818799
0.0818711
0.0818631
0.0818568
0.0818524
0.0818499
0.0818489
0.0819256
0.0819263
0.0819278
0.08193
0.081933
0.0819371
0.0819428
0.0819515
0.0819655
0.0819888
0.0820246
0.0820696
0.0821066
0.0821131
0.0820814
0.0820258
0.0819715
0.0819338
0.0819111
0.0818986
0.0818925
0.0818896
0.0818876
0.0818847
0.08188
0.0818737
0.0818667
0.0818602
0.0818548
0.0818511
0.0818488
0.0818478
0.0819196
0.0819201
0.0819212
0.081923
0.0819257
0.0819296
0.0819356
0.0819458
0.0819638
0.0819946
0.0820409
0.0820955
0.0821352
0.0821343
0.0820879
0.0820163
0.0819504
0.0819071
0.0818832
0.0818718
0.0818682
0.0818686
0.0818699
0.0818703
0.0818686
0.0818649
0.0818601
0.0818553
0.0818511
0.081848
0.081846
0.0818451
0.0819189
0.0819191
0.0819196
0.0819208
0.0819233
0.0819279
0.0819363
0.0819514
0.0819776
0.0820197
0.0820778
0.0821386
0.0821737
0.0821577
0.0820921
0.0820034
0.0819263
0.081878
0.0818529
0.0818427
0.0818416
0.0818451
0.0818499
0.0818535
0.0818548
0.0818539
0.0818514
0.0818483
0.0818452
0.0818427
0.081841
0.0818401
0.0819413
0.0819411
0.0819412
0.0819423
0.0819456
0.0819528
0.0819666
0.0819904
0.0820283
0.0820826
0.0821477
0.0822041
0.082222
0.0821827
0.0820971
0.0819951
0.0819097
0.0818563
0.0818286
0.0818178
0.0818178
0.0818233
0.0818304
0.0818363
0.0818397
0.0818407
0.08184
0.0818383
0.0818362
0.0818342
0.0818326
0.0818318
0.0820133
0.0820136
0.0820148
0.0820178
0.0820244
0.0820367
0.0820579
0.082091
0.0821375
0.0821954
0.0822532
0.0822883
0.0822774
0.0822149
0.0821189
0.0820148
0.0819257
0.0818644
0.0818281
0.0818104
0.0818057
0.0818091
0.0818161
0.0818231
0.0818278
0.0818296
0.081829
0.0818269
0.0818245
0.0818225
0.0818211
0.0818205
0.0821438
0.0821453
0.0821489
0.0821558
0.0821674
0.0821858
0.0822129
0.0822498
0.0822952
0.0823423
0.0823776
0.0823835
0.0823513
0.0822875
0.0822064
0.0821175
0.0820308
0.0819577
0.0819017
0.0818607
0.0818313
0.0818112
0.0817987
0.0817919
0.0817895
0.0817905
0.0817943
0.0818004
0.0818079
0.0818153
0.0818211
0.0818242
0.0822874
0.0822898
0.0822957
0.0823062
0.0823229
0.0823471
0.0823791
0.0824175
0.0824577
0.0824922
0.0825128
0.0825154
0.0825019
0.0824769
0.0824432
0.0824005
0.0823499
0.0822976
0.0822484
0.0822032
0.082162
0.0821252
0.0820945
0.0820711
0.0820562
0.0820503
0.0820534
0.082064
0.0820791
0.0820946
0.0821067
0.082113
0.082387
0.08239
0.0823977
0.082412
0.0824347
0.0824668
0.0825074
0.0825532
0.0825994
0.0826414
0.0826777
0.0827098
0.0827406
0.0827722
0.0828059
0.0828424
0.0828801
0.0829149
0.0829444
0.0829688
0.0829874
0.0829985
0.0830017
0.0829967
0.082984
0.0829648
0.0829416
0.082918
0.0828977
0.0828836
0.0828761
0.0828737
0.0824333
0.0824362
0.0824437
0.082458
0.0824812
0.0825148
0.0825587
0.0826105
0.0826666
0.0827237
0.0827804
0.0828386
0.0829009
0.0829701
0.0830484
0.0831385
0.0832378
0.0833354
0.0834243
0.0835047
0.0835753
0.0836338
0.0836783
0.0837066
0.0837174
0.0837107
0.0836884
0.0836551
0.0836177
0.0835845
0.0835617
0.0835512
0.0824549
0.0824576
0.0824646
0.0824778
0.0824995
0.0825314
0.0825741
0.0826263
0.0826853
0.0827479
0.0828127
0.0828804
0.0829534
0.0830343
0.0831256
0.0832299
0.0833416
0.0834469
0.0835392
0.0836208
0.083693
0.0837565
0.0838117
0.0838576
0.0838927
0.0839155
0.0839248
0.0839216
0.0839089
0.0838921
0.0838775
0.0838696
0.0824637
0.0824661
0.0824724
0.0824842
0.0825034
0.082532
0.0825708
0.0826192
0.0826754
0.0827365
0.0828008
0.0828681
0.0829403
0.0830199
0.0831094
0.0832106
0.0833168
0.0834136
0.0834964
0.0835695
0.0836366
0.0837006
0.0837625
0.0838214
0.0838744
0.0839182
0.0839501
0.0839696
0.0839779
0.083978
0.0839744
0.0839713
0.0824667
0.0824688
0.0824741
0.0824841
0.0825005
0.0825251
0.0825589
0.0826018
0.0826524
0.0827086
0.0827687
0.0828323
0.0829008
0.0829764
0.0830615
0.0831577
0.083258
0.0833486
0.0834261
0.0834958
0.0835624
0.0836299
0.0837
0.0837718
0.0838409
0.0839019
0.0839501
0.0839835
0.0840028
0.084011
0.0840125
0.0840116
0.0824719
0.0824731
0.0824767
0.0824842
0.0824972
0.0825175
0.0825461
0.0825833
0.0826282
0.0826795
0.0827359
0.082797
0.0828638
0.0829379
0.0830214
0.0831155
0.0832135
0.0833022
0.0833786
0.0834479
0.083515
0.0835839
0.0836573
0.083735
0.0838133
0.0838861
0.0839473
0.0839925
0.084021
0.0840352
0.0840398
0.0840399
0.0824888
0.0824885
0.0824892
0.0824928
0.0825015
0.0825171
0.082541
0.0825738
0.0826151
0.0826642
0.0827202
0.0827826
0.0828516
0.0829282
0.0830134
0.0831082
0.0832058
0.083294
0.08337
0.0834386
0.0835045
0.0835719
0.0836437
0.0837205
0.0838001
0.0838776
0.0839463
0.0840003
0.0840367
0.0840565
0.0840639
0.0840648
0.0825285
0.0825258
0.0825223
0.0825206
0.082524
0.0825351
0.0825559
0.0825872
0.0826288
0.0826801
0.0827399
0.0828073
0.0828816
0.0829626
0.0830506
0.083146
0.0832424
0.0833284
0.0834017
0.0834673
0.0835295
0.0835924
0.0836588
0.0837301
0.0838051
0.0838805
0.0839506
0.0840091
0.0840512
0.0840758
0.084086
0.0840878
0.082601
0.0825952
0.0825866
0.0825795
0.0825784
0.0825872
0.082608
0.0826418
0.0826879
0.0827449
0.0828111
0.0828845
0.0829637
0.0830477
0.0831361
0.0832292
0.083321
0.0834014
0.083469
0.0835287
0.0835845
0.0836402
0.0836984
0.0837608
0.0838273
0.0838958
0.0839622
0.0840206
0.0840653
0.0840934
0.0841061
0.0841088
0.082713
0.0827038
0.0826913
0.0826815
0.0826799
0.0826906
0.0827158
0.0827554
0.0828078
0.0828707
0.0829415
0.0830179
0.0830979
0.0831803
0.0832644
0.0833505
0.0834334
0.0835047
0.0835638
0.0836152
0.0836627
0.0837094
0.0837577
0.0838092
0.0838646
0.0839229
0.0839816
0.0840358
0.0840799
0.0841096
0.0841243
0.0841279
0.082868
0.0828566
0.0828439
0.0828375
0.0828418
0.0828596
0.0828917
0.082937
0.0829931
0.0830575
0.0831274
0.0832005
0.083275
0.0833498
0.0834241
0.0834985
0.0835687
0.083628
0.0836766
0.0837183
0.0837564
0.0837934
0.0838312
0.0838712
0.0839144
0.0839607
0.0840088
0.0840555
0.0840958
0.0841249
0.0841406
0.0841451
0.0830681
0.0830572
0.0830514
0.0830559
0.0830711
0.0830975
0.0831345
0.0831807
0.0832342
0.0832928
0.0833544
0.0834172
0.0834798
0.0835414
0.0836016
0.0836606
0.0837155
0.0837613
0.0837984
0.08383
0.0838585
0.0838857
0.0839133
0.0839423
0.0839735
0.0840073
0.0840435
0.0840802
0.0841138
0.0841399
0.0841552
0.0841602
0.083317
0.0833118
0.08332
0.0833379
0.0833621
0.0833919
0.083427
0.0834666
0.0835098
0.0835556
0.0836026
0.0836495
0.0836957
0.0837404
0.0837836
0.0838255
0.0838639
0.0838957
0.0839213
0.0839429
0.0839622
0.0839804
0.0839987
0.0840177
0.0840381
0.0840603
0.0840844
0.0841099
0.0841346
0.0841552
0.0841685
0.0841734
0.0836229
0.0836293
0.0836489
0.0836708
0.0836935
0.083717
0.0837417
0.0837678
0.0837952
0.0838235
0.0838521
0.0838804
0.0839079
0.0839343
0.0839597
0.0839841
0.0840062
0.0840245
0.0840392
0.0840515
0.0840624
0.0840726
0.0840827
0.0840932
0.0841043
0.0841164
0.0841297
0.0841441
0.0841587
0.0841717
0.0841809
0.0841849
0.0839973
0.0840029
0.0840134
0.0840232
0.0840324
0.0840413
0.0840502
0.0840592
0.0840684
0.0840778
0.0840873
0.0840966
0.0841056
0.0841142
0.0841224
0.0841303
0.0841374
0.0841433
0.084148
0.0841519
0.0841554
0.0841586
0.0841618
0.084165
0.0841685
0.0841723
0.0841764
0.0841809
0.0841855
0.0841899
0.0841932
0.0841948
)
;

boundaryField
{
    movingWall
    {
        type            fixedValue;
        value           uniform 0.0842;
    }
    fixedWalls
    {
        type            zeroGradient;
    }
    floor
    {
        type            zeroGradient;
    }
    frontAndBack
    {
        type            empty;
    }
}


// ************************************************************************* //
