/*--------------------------------*- C++ -*----------------------------------*\
| =========                 |                                                 |
| \\      /  F ield         | OpenFOAM: The Open Source CFD Toolbox           |
|  \\    /   O peration     | Version:  2212                                  |
|   \\  /    A nd           | Website:  www.openfoam.com                      |
|    \\/     M anipulation  |                                                 |
\*---------------------------------------------------------------------------*/
FoamFile
{
    version     2.0;
    format      ascii;
    arch        "LSB;label=64;scalar=64";
    class       volScalarField::Internal;
    location    "1890";
    object      dGco2;
}
// * * * * * * * * * * * * * * * * * * * * * * * * * * * * * * * * * * * * * //

dimensions      [1 -3 -1 0 0 0 0];

value           nonuniform List<scalar> 
1024
(
0.000165143
0.000165194
0.000165323
0.000165562
0.000165951
0.000166535
0.000167365
0.000168485
0.000169921
0.000171671
0.000173685
0.000175872
0.00017811
0.000180271
0.000182251
0.000183962
0.000185188
0.000185753
0.000185719
0.0001852
0.000184299
0.000183135
0.000181838
0.000180541
0.000179359
0.000178369
0.000177598
0.000177039
0.00017666
0.000176426
0.000176297
0.000176245
0.000165157
0.00016521
0.000165341
0.000165583
0.000165975
0.000166565
0.000167403
0.000168532
0.000169979
0.000171738
0.000173761
0.000175954
0.000178193
0.000180354
0.000182334
0.000184045
0.000185274
0.000185844
0.000185814
0.000185297
0.000184395
0.000183227
0.000181923
0.000180616
0.000179424
0.000178422
0.000177641
0.000177075
0.000176692
0.000176454
0.000176325
0.000176273
0.000165198
0.000165252
0.000165386
0.000165632
0.000166033
0.000166635
0.00016749
0.00016864
0.000170111
0.000171892
0.000173933
0.000176138
0.000178381
0.000180543
0.000182522
0.000184238
0.000185479
0.000186066
0.000186048
0.000185534
0.000184622
0.000183435
0.000182109
0.000180779
0.000179562
0.000178537
0.000177738
0.000177158
0.000176766
0.000176524
0.000176393
0.00017634
0.000165271
0.000165327
0.000165466
0.000165721
0.000166135
0.000166758
0.000167641
0.000168826
0.000170335
0.000172153
0.000174223
0.000176445
0.000178696
0.000180858
0.000182841
0.000184571
0.000185844
0.000186469
0.000186479
0.000185966
0.000185027
0.000183794
0.000182418
0.000181042
0.000179784
0.000178725
0.000177899
0.0001773
0.000176898
0.00017665
0.000176517
0.000176463
0.000165388
0.000165447
0.000165591
0.000165858
0.000166292
0.000166946
0.00016787
0.000169105
0.000170668
0.000172538
0.000174648
0.000176894
0.000179154
0.000181321
0.000183316
0.000185081
0.000186417
0.000187116
0.000187173
0.000186661
0.000185668
0.000184348
0.000182882
0.000181426
0.000180105
0.000178999
0.000178139
0.000177519
0.000177105
0.000176853
0.000176719
0.000176666
0.000165559
0.00016562
0.000165773
0.000166055
0.000166516
0.000167209
0.000168187
0.000169489
0.000171123
0.000173059
0.00017522
0.000177495
0.00017977
0.000181948
0.000183973
0.000185804
0.000187251
0.000188071
0.000188206
0.000187692
0.000186615
0.00018516
0.000183548
0.000181968
0.000180554
0.000179384
0.000178485
0.000177843
0.000177421
0.000177168
0.000177036
0.000176985
0.000165791
0.000165856
0.000166018
0.00016632
0.000166813
0.000167555
0.0001686
0.000169982
0.000171703
0.000173718
0.000175939
0.000178252
0.000180548
0.000182754
0.000184835
0.000186776
0.000188393
0.000189392
0.00018964
0.000189133
0.000187953
0.000186316
0.0001845
0.000182739
0.000181192
0.000179937
0.00017899
0.000178327
0.0001779
0.000177651
0.000177526
0.00017748
0.00016609
0.000166159
0.000166332
0.000166655
0.000167186
0.000167985
0.000169107
0.000170581
0.0001724
0.000174504
0.000176793
0.000179153
0.000181486
0.00018374
0.000185913
0.000188014
0.000189864
0.000191104
0.000191515
0.000191049
0.000189777
0.000187942
0.000185875
0.000183875
0.000182147
0.000180775
0.000179766
0.000179079
0.000178651
0.000178412
0.000178298
0.000178259
0.000166457
0.000166529
0.000166713
0.000167059
0.00016763
0.00016849
0.000169694
0.000171267
0.00017319
0.000175391
0.000177758
0.000180175
0.000182561
0.00018489
0.000187188
0.000189493
0.000191627
0.000193168
0.000193814
0.000193474
0.000192193
0.000190213
0.000187902
0.000185629
0.000183665
0.000182131
0.000181031
0.000180306
0.000179872
0.000179642
0.000179542
0.000179512
0.000166884
0.00016696
0.000167153
0.000167521
0.000168131
0.00016905
0.000170335
0.000172008
0.000174037
0.000176337
0.000178788
0.000181274
0.000183728
0.000186148
0.000188586
0.000191108
0.000193546
0.00019544
0.000196433
0.000196383
0.000195286
0.000193337
0.0001909
0.000188395
0.000186168
0.000184415
0.000183171
0.000182368
0.000181902
0.000181667
0.000181573
0.000181549
0.000167358
0.000167436
0.000167638
0.000168024
0.000168666
0.000169637
0.000170995
0.000172757
0.000174884
0.00017728
0.000179815
0.000182372
0.000184892
0.000187391
0.00018994
0.000192634
0.00019534
0.000197625
0.000199112
0.000199605
0.000199011
0.000197431
0.000195163
0.000192622
0.000190211
0.000188215
0.000186755
0.000185798
0.000185239
0.000184956
0.000184842
0.000184813
0.000167855
0.000167935
0.000168142
0.00016854
0.000169205
0.000170213
0.000171624
0.000173455
0.00017566
0.000178134
0.000180736
0.000183341
0.000185889
0.000188402
0.000190961
0.000193694
0.000196556
0.000199231
0.000201362
0.000202682
0.000202986
0.000202239
0.000200614
0.000198443
0.000196123
0.000194007
0.000192322
0.000191139
0.000190403
0.000190003
0.000189824
0.000189769
0.000168347
0.000168427
0.000168635
0.000169037
0.000169709
0.00017073
0.000172163
0.000174025
0.000176269
0.000178779
0.000181401
0.000183994
0.000186481
0.00018887
0.000191248
0.000193788
0.000196598
0.000199582
0.000202425
0.000204777
0.000206304
0.000206826
0.000206363
0.000205106
0.000203366
0.000201492
0.000199787
0.000198441
0.000197513
0.000196954
0.000196672
0.000196571
0.000168789
0.000168868
0.000169074
0.000169468
0.000170126
0.000171129
0.000172539
0.000174376
0.000176592
0.000179065
0.000181623
0.000184098
0.000186379
0.000188445
0.000190378
0.000192409
0.000194868
0.000197968
0.000201455
0.000204874
0.000207754
0.000209774
0.000210809
0.000210909
0.000210261
0.000209138
0.000207843
0.000206637
0.000205686
0.000205046
0.000204688
0.000204545
0.000169123
0.000169201
0.000169399
0.000169773
0.000170395
0.000171339
0.000172667
0.000174402
0.000176498
0.00017883
0.000181209
0.000183433
0.000185344
0.000186876
0.000188095
0.000189292
0.000191052
0.00019398
0.000197917
0.000202305
0.000206516
0.000210066
0.000212686
0.000214305
0.000215009
0.00021499
0.000214499
0.000213801
0.000213116
0.000212581
0.000212247
0.000212101
0.000169267
0.000169342
0.000169528
0.000169871
0.000170432
0.000171275
0.000172457
0.000174002
0.00017587
0.000177941
0.000180021
0.000181878
0.000183304
0.000184176
0.000184529
0.00018468
0.000185444
0.000187846
0.000191924
0.000197094
0.000202583
0.000207695
0.000211955
0.000215143
0.000217248
0.000218408
0.000218844
0.000218812
0.000218552
0.000218254
0.000218027
0.000217915
0.000169126
0.000169199
0.000169371
0.00016968
0.000170171
0.000170893
0.000171895
0.000173196
0.000174767
0.000176503
0.000178223
0.000179687
0.000180658
0.000180964
0.000180586
0.000179807
0.000179539
0.000181104
0.000184838
0.000190334
0.000196819
0.000203419
0.00020938
0.000214236
0.000217812
0.000220167
0.000221509
0.000222113
0.000222258
0.000222185
0.000222063
0.000221985
0.000168726
0.000168796
0.000168958
0.000169239
0.000169671
0.000170291
0.000171131
0.000172208
0.000173498
0.000174918
0.000176308
0.00017745
0.000178109
0.000178095
0.000177352
0.000176106
0.000175242
0.000176115
0.000179226
0.000184455
0.000191256
0.000198794
0.000206136
0.000212538
0.000217577
0.000221157
0.000223422
0.000224653
0.000225177
0.000225299
0.000225256
0.000225199
0.000168171
0.000168239
0.000168394
0.000168655
0.000169045
0.000169588
0.000170306
0.000171206
0.00017227
0.000173428
0.000174551
0.000175452
0.000175924
0.00017579
0.000174985
0.000173699
0.000172754
0.000173376
0.000176061
0.000180853
0.000187456
0.000195242
0.000203317
0.000210795
0.000217027
0.000221714
0.000224875
0.000226743
0.000227661
0.000227984
0.000228019
0.000227978
0.000167555
0.000167619
0.000167762
0.000168004
0.00016836
0.000168845
0.00016947
0.000170237
0.000171123
0.000172073
0.000172981
0.0001737
0.000174064
0.000173933
0.000173268
0.000172255
0.000171633
0.000172402
0.000174963
0.00017942
0.000185638
0.000193206
0.000201423
0.00020944
0.00021648
0.000222054
0.000226017
0.000228507
0.000229833
0.000230377
0.000230498
0.000230476
0.000167018
0.00016707
0.00016719
0.000167396
0.000167704
0.000168127
0.000168671
0.000169327
0.000170073
0.000170858
0.000171599
0.000172192
0.000172521
0.000172506
0.000172154
0.000171674
0.000171684
0.000172888
0.000175548
0.000179793
0.0001856
0.000192717
0.000200647
0.000208702
0.000216126
0.000222309
0.000226934
0.000229999
0.000231738
0.000232519
0.000232741
0.00023274
0.000166793
0.000166819
0.000166886
0.000167017
0.000167234
0.000167557
0.000167996
0.00016854
0.000169164
0.000169823
0.000170461
0.000171014
0.000171429
0.000171687
0.000171847
0.000172129
0.000172978
0.000174771
0.000177634
0.000181709
0.000187071
0.000193617
0.000201008
0.000208717
0.000216117
0.000222593
0.000227695
0.000231259
0.0002334
0.000234435
0.00023477
0.000234795
0.000167198
0.000167177
0.000167149
0.000167143
0.000167198
0.000167353
0.000167634
0.000168043
0.00016856
0.000169154
0.000169795
0.000170464
0.000171156
0.000171897
0.000172765
0.000173959
0.000175717
0.000178103
0.00018115
0.000185028
0.000189882
0.000195738
0.000202415
0.000209528
0.000216577
0.000223025
0.000228382
0.000232333
0.000234844
0.00023614
0.000236604
0.000236661
0.00016858
0.000168488
0.000168319
0.000168114
0.000167938
0.000167861
0.000167942
0.000168211
0.000168671
0.000169312
0.000170127
0.00017112
0.000172305
0.000173709
0.000175393
0.000177496
0.000180055
0.000182901
0.000186023
0.000189625
0.000193904
0.00019898
0.000204804
0.000211135
0.000217595
0.000223738
0.000229101
0.000233286
0.000236106
0.000237654
0.000238258
0.000238354
0.000171233
0.000171049
0.000170708
0.000170282
0.000169866
0.000169568
0.000169485
0.000169688
0.000170212
0.000171061
0.000172232
0.000173722
0.000175524
0.000177632
0.000180058
0.00018288
0.000185982
0.000189058
0.000192096
0.000195334
0.000198992
0.000203243
0.000208132
0.000213545
0.000219233
0.000224845
0.000229972
0.0002342
0.000237226
0.000238998
0.000239746
0.000239889
0.000175354
0.000175064
0.000174565
0.000173979
0.00017344
0.00017307
0.000172986
0.000173291
0.000174038
0.00017523
0.000176847
0.000178855
0.000181207
0.000183855
0.000186769
0.000189977
0.000193283
0.000196331
0.00019913
0.000201928
0.000204952
0.000208385
0.000212326
0.000216757
0.000221539
0.000226433
0.000231108
0.000235171
0.00023826
0.000240195
0.000241079
0.000241275
0.000181039
0.000180649
0.000180076
0.000179514
0.000179104
0.000178938
0.0001791
0.000179692
0.000180764
0.000182308
0.000184283
0.000186631
0.000189278
0.00019215
0.000195193
0.000198411
0.000201583
0.000204375
0.000206809
0.000209126
0.000211533
0.000214202
0.000217247
0.000220704
0.000224521
0.000228564
0.0002326
0.000236294
0.000239275
0.000241275
0.000242266
0.000242518
0.000188342
0.000187894
0.000187425
0.000187174
0.000187207
0.000187514
0.000188109
0.000189063
0.000190409
0.000192145
0.000194233
0.000196613
0.000199209
0.000201946
0.000204765
0.000207662
0.000210434
0.0002128
0.000214793
0.000216619
0.000218454
0.00022044
0.000222684
0.000225242
0.000228116
0.000231248
0.000234506
0.000237648
0.000240343
0.000242278
0.000243322
0.000243625
0.000197367
0.000196966
0.000196868
0.000197205
0.000197861
0.000198712
0.000199715
0.000200908
0.000202326
0.000203992
0.000205893
0.000207987
0.000210216
0.000212519
0.000214847
0.000217191
0.000219393
0.000221235
0.000222752
0.000224103
0.000225424
0.000226822
0.000228382
0.00023016
0.000232177
0.000234423
0.000236841
0.000239292
0.000241528
0.000243251
0.000244263
0.000244597
0.00020836
0.000208211
0.000208723
0.000209672
0.000210789
0.000211936
0.000213072
0.00021423
0.000215455
0.000216795
0.000218262
0.000219838
0.000221488
0.000223171
0.000224853
0.000226527
0.000228079
0.000229363
0.000230405
0.000231316
0.000232187
0.000233092
0.000234088
0.000235217
0.000236504
0.000237955
0.000239556
0.000241248
0.000242886
0.000244244
0.000245115
0.000245442
0.000221792
0.000222119
0.000223077
0.000224152
0.000225203
0.000226176
0.000227057
0.000227882
0.000228692
0.000229533
0.000230428
0.000231374
0.000232355
0.000233349
0.000234336
0.000235312
0.00023621
0.00023695
0.000237545
0.000238059
0.000238542
0.000239037
0.000239576
0.000240184
0.000240875
0.000241658
0.000242533
0.000243484
0.000244449
0.000245308
0.000245913
0.000246171
0.000238226
0.000238481
0.000238973
0.000239443
0.000239871
0.00024025
0.000240581
0.000240877
0.000241157
0.000241439
0.000241734
0.000242044
0.000242363
0.000242686
0.000243006
0.000243321
0.00024361
0.000243848
0.000244038
0.000244201
0.000244354
0.000244509
0.000244676
0.000244864
0.000245077
0.000245318
0.000245589
0.000245885
0.000246193
0.00024648
0.000246698
0.000246804
)
;


// ************************************************************************* //
