/*--------------------------------*- C++ -*----------------------------------*\
| =========                 |                                                 |
| \\      /  F ield         | OpenFOAM: The Open Source CFD Toolbox           |
|  \\    /   O peration     | Version:  2212                                  |
|   \\  /    A nd           | Website:  www.openfoam.com                      |
|    \\/     M anipulation  |                                                 |
\*---------------------------------------------------------------------------*/
FoamFile
{
    version     2.0;
    format      ascii;
    arch        "LSB;label=64;scalar=64";
    class       volScalarField;
    location    "1890";
    object      Gch4;
}
// * * * * * * * * * * * * * * * * * * * * * * * * * * * * * * * * * * * * * //

dimensions      [1 -3 0 0 0 0 0];

internalField   nonuniform List<scalar> 
1024
(
1.87412
1.87397
1.87361
1.87295
1.87188
1.87027
1.86799
1.86491
1.86096
1.85616
1.85064
1.84465
1.83853
1.83265
1.82727
1.82263
1.81933
1.81782
1.81793
1.81935
1.82181
1.82498
1.82851
1.83204
1.83526
1.83796
1.84006
1.84158
1.84262
1.84326
1.84361
1.84375
1.87407
1.87392
1.87356
1.87289
1.87181
1.87019
1.86788
1.86478
1.8608
1.85597
1.85043
1.84443
1.83831
1.83242
1.82704
1.82241
1.81909
1.81757
1.81767
1.81909
1.82155
1.82473
1.82828
1.83184
1.83509
1.83782
1.83994
1.84149
1.84253
1.84318
1.84353
1.84367
1.87395
1.8738
1.87343
1.87276
1.87165
1.86999
1.86764
1.86448
1.86044
1.85555
1.84996
1.84392
1.83779
1.83191
1.82653
1.82189
1.81854
1.81697
1.81704
1.81845
1.82093
1.82416
1.82777
1.8314
1.83471
1.8375
1.83968
1.84126
1.84233
1.84299
1.84335
1.84349
1.87375
1.87359
1.87321
1.87251
1.87137
1.86966
1.86723
1.86397
1.85983
1.85484
1.84916
1.84308
1.83694
1.83105
1.82567
1.82099
1.81756
1.81588
1.81587
1.81728
1.81984
1.82319
1.82694
1.83068
1.83411
1.83699
1.83924
1.84087
1.84197
1.84265
1.84301
1.84316
1.87343
1.87326
1.87287
1.87213
1.87094
1.86914
1.8666
1.86321
1.85891
1.85378
1.848
1.84186
1.83569
1.8298
1.82438
1.81961
1.81601
1.81414
1.814
1.8154
1.81811
1.8217
1.82568
1.82964
1.83324
1.83625
1.83859
1.84028
1.84141
1.84209
1.84246
1.8426
1.87296
1.87279
1.87237
1.87159
1.87032
1.86842
1.86573
1.86216
1.85767
1.85236
1.84644
1.84022
1.83402
1.82809
1.8226
1.81765
1.81376
1.81156
1.81121
1.81262
1.81555
1.8195
1.82388
1.82818
1.83202
1.83521
1.83765
1.8394
1.84055
1.84124
1.8416
1.84174
1.87232
1.87214
1.87169
1.87086
1.86951
1.86747
1.8646
1.8608
1.85608
1.85056
1.84448
1.83816
1.8319
1.82591
1.82027
1.81503
1.81067
1.80799
1.80734
1.80873
1.81193
1.81638
1.82131
1.82609
1.8303
1.83371
1.83629
1.83809
1.83925
1.83993
1.84027
1.8404
1.87149
1.87131
1.87083
1.86994
1.86848
1.86629
1.86321
1.85916
1.85417
1.84841
1.84215
1.83571
1.82936
1.82324
1.81736
1.81168
1.8067
1.80337
1.80228
1.80355
1.80701
1.81199
1.81759
1.82302
1.82771
1.83144
1.83418
1.83605
1.83721
1.83787
1.83818
1.83828
1.87049
1.87029
1.86978
1.86883
1.86726
1.8649
1.8616
1.85728
1.85201
1.84599
1.83952
1.83293
1.82644
1.82012
1.81391
1.80769
1.80195
1.7978
1.79607
1.79701
1.80048
1.80585
1.81211
1.81828
1.8236
1.82777
1.83075
1.83272
1.8339
1.83453
1.8348
1.83488
1.86931
1.86911
1.86857
1.86756
1.86589
1.86337
1.85984
1.85526
1.8497
1.84341
1.83671
1.82994
1.82328
1.81672
1.81014
1.80334
1.79678
1.79168
1.78902
1.78916
1.79214
1.79741
1.80401
1.81079
1.81683
1.82158
1.82495
1.82713
1.82839
1.82903
1.82929
1.82935
1.86801
1.8678
1.86724
1.86618
1.86442
1.86176
1.85804
1.85321
1.84738
1.84084
1.83392
1.82696
1.82013
1.81337
1.80649
1.79923
1.79195
1.7858
1.7818
1.78048
1.78209
1.78636
1.79249
1.79936
1.80589
1.81129
1.81524
1.81784
1.81935
1.82012
1.82043
1.8205
1.86665
1.86643
1.86586
1.86477
1.86294
1.86018
1.85631
1.8513
1.84527
1.83851
1.83142
1.82434
1.81743
1.81065
1.80375
1.7964
1.78871
1.78151
1.77577
1.77221
1.77139
1.7734
1.77778
1.78364
1.78991
1.79562
1.80018
1.80337
1.80536
1.80645
1.80693
1.80708
1.8653
1.86508
1.86451
1.86341
1.86156
1.85877
1.85484
1.84974
1.84361
1.83676
1.82962
1.82258
1.81585
1.8094
1.80301
1.7962
1.78865
1.78063
1.77297
1.76662
1.7625
1.76107
1.76231
1.76568
1.77036
1.77541
1.78001
1.78364
1.78614
1.78765
1.78841
1.78868
1.86408
1.86387
1.8633
1.86222
1.86042
1.85767
1.85381
1.84879
1.84273
1.83599
1.82902
1.82231
1.81614
1.81059
1.80541
1.79999
1.79341
1.78507
1.77568
1.76645
1.75867
1.75321
1.7504
1.7501
1.75183
1.75483
1.7583
1.76154
1.7641
1.76582
1.76678
1.76716
1.86317
1.86295
1.86241
1.86139
1.85968
1.8571
1.85346
1.84872
1.84299
1.83663
1.83016
1.82413
1.81898
1.81488
1.81164
1.80849
1.8038
1.79594
1.78533
1.77349
1.76213
1.75254
1.74546
1.74107
1.73914
1.73916
1.74046
1.74231
1.74414
1.74557
1.74646
1.74685
1.86277
1.86257
1.86206
1.86112
1.85958
1.85727
1.85404
1.84981
1.84471
1.83906
1.8334
1.82837
1.82453
1.82222
1.82134
1.82103
1.81905
1.81261
1.80162
1.78766
1.77284
1.75905
1.74755
1.73894
1.73324
1.73009
1.72889
1.72895
1.72962
1.73041
1.73101
1.7313
1.86316
1.86296
1.86249
1.86164
1.8603
1.85832
1.85558
1.85202
1.84773
1.84299
1.83831
1.83433
1.83173
1.83095
1.83205
1.83425
1.83507
1.83089
1.82083
1.80599
1.78848
1.77067
1.75458
1.74148
1.73184
1.72547
1.72184
1.72019
1.71978
1.71996
1.72027
1.72048
1.86425
1.86406
1.86362
1.86285
1.86166
1.85997
1.85767
1.85472
1.85119
1.84731
1.84353
1.84042
1.83866
1.83874
1.84082
1.84428
1.84671
1.84442
1.83604
1.82192
1.80355
1.7832
1.76339
1.74613
1.73254
1.72289
1.71678
1.71345
1.71202
1.71168
1.71178
1.71193
1.86577
1.86559
1.86516
1.86445
1.86338
1.86189
1.85992
1.85746
1.85455
1.85138
1.84832
1.84587
1.8446
1.845
1.84724
1.8508
1.85345
1.85183
1.84461
1.83168
1.81384
1.79282
1.77103
1.75087
1.73408
1.72145
1.71294
1.7079
1.70542
1.70453
1.70443
1.70453
1.86746
1.86729
1.8669
1.86623
1.86526
1.86393
1.86221
1.86011
1.85768
1.85509
1.85261
1.85065
1.84967
1.85005
1.8519
1.85471
1.85648
1.85447
1.84759
1.83556
1.81877
1.79833
1.77616
1.75455
1.73559
1.72058
1.70991
1.70321
1.69963
1.69816
1.69782
1.69787
1.86895
1.8688
1.86847
1.86791
1.86706
1.8659
1.86441
1.8626
1.86056
1.85841
1.85638
1.85477
1.85388
1.85394
1.85493
1.8563
1.85635
1.85316
1.84601
1.83456
1.81888
1.79967
1.77828
1.75656
1.73657
1.71993
1.70748
1.69924
1.69456
1.69245
1.69184
1.69184
1.86959
1.86951
1.86932
1.86896
1.86836
1.86747
1.86626
1.86476
1.86305
1.86125
1.8595
1.85799
1.85687
1.85619
1.8558
1.85509
1.85286
1.84808
1.84039
1.8294
1.81493
1.79726
1.77732
1.75654
1.73661
1.71919
1.70547
1.69589
1.69013
1.68734
1.68643
1.68636
1.86852
1.86858
1.86865
1.86865
1.86849
1.86805
1.86727
1.86614
1.86472
1.8631
1.86134
1.85953
1.85766
1.85567
1.85336
1.85018
1.84549
1.8391
1.8309
1.82045
1.80736
1.79155
1.77354
1.75438
1.7354
1.71805
1.70365
1.69303
1.68628
1.6828
1.68155
1.68139
1.86482
1.86507
1.86552
1.86606
1.86652
1.86671
1.86647
1.86573
1.86446
1.86271
1.8605
1.85781
1.85461
1.85083
1.84631
1.84068
1.83381
1.82617
1.81777
1.80807
1.79652
1.78283
1.76713
1.75007
1.73268
1.71615
1.70174
1.69049
1.68292
1.67876
1.67713
1.67687
1.85769
1.85819
1.8591
1.86024
1.86135
1.86214
1.86234
1.86177
1.86034
1.85804
1.85487
1.85084
1.84598
1.84031
1.83378
1.8262
1.81786
1.80959
1.80141
1.79269
1.78283
1.77136
1.75818
1.7436
1.72829
1.71319
1.69942
1.68806
1.67994
1.67518
1.67317
1.67278
1.84661
1.84738
1.84872
1.85029
1.85174
1.85272
1.85293
1.8521
1.85007
1.84684
1.84247
1.83706
1.83072
1.82358
1.81574
1.8071
1.79821
1.79001
1.78248
1.77494
1.76679
1.75754
1.74691
1.73498
1.72211
1.70894
1.69638
1.68547
1.67718
1.67199
1.66961
1.66909
1.83131
1.83235
1.83389
1.8354
1.8365
1.83693
1.83649
1.83488
1.83198
1.82781
1.82248
1.81615
1.80902
1.80128
1.79308
1.78442
1.77588
1.76837
1.76182
1.75558
1.74909
1.7419
1.73369
1.72438
1.71411
1.70323
1.69239
1.68247
1.67447
1.66911
1.66645
1.66577
1.81165
1.81285
1.81411
1.81478
1.81469
1.81386
1.81225
1.80967
1.80604
1.80135
1.79572
1.78931
1.78231
1.77494
1.76734
1.75954
1.75208
1.74571
1.74035
1.73543
1.73049
1.72514
1.71909
1.7122
1.70447
1.69604
1.68729
1.67885
1.67162
1.66643
1.66364
1.66282
1.78736
1.78844
1.7887
1.78779
1.78602
1.78373
1.78102
1.7778
1.77398
1.76949
1.76436
1.75872
1.75271
1.74651
1.74024
1.73393
1.728
1.72304
1.71896
1.71532
1.71176
1.70799
1.70379
1.699
1.69358
1.68754
1.68104
1.67446
1.66846
1.66384
1.66113
1.66023
1.75778
1.75818
1.7568
1.75425
1.75124
1.74815
1.74509
1.74197
1.73867
1.73506
1.7311
1.72686
1.72241
1.71788
1.71334
1.70884
1.70466
1.7012
1.6984
1.69594
1.6936
1.69116
1.68848
1.68544
1.68197
1.67807
1.67377
1.66922
1.66483
1.66119
1.65886
1.65798
1.72165
1.72077
1.71819
1.7153
1.71247
1.70985
1.70747
1.70525
1.70307
1.7008
1.69839
1.69584
1.6932
1.69052
1.68786
1.68524
1.68282
1.68083
1.67922
1.67784
1.67654
1.6752
1.67375
1.67212
1.67026
1.66815
1.6658
1.66324
1.66066
1.65835
1.65674
1.65605
1.67744
1.67676
1.67544
1.67417
1.67302
1.672
1.67111
1.67031
1.66956
1.6688
1.668
1.66717
1.66631
1.66544
1.66458
1.66373
1.66295
1.66231
1.6618
1.66136
1.66095
1.66053
1.66008
1.65957
1.659
1.65835
1.65762
1.65683
1.656
1.65523
1.65465
1.65436
)
;

boundaryField
{
    movingWall
    {
        type            fixedValue;
        value           uniform 1.6535;
    }
    fixedWalls
    {
        type            zeroGradient;
    }
    floor
    {
        type            zeroGradient;
    }
    frontAndBack
    {
        type            empty;
    }
}


// ************************************************************************* //
