/*--------------------------------*- C++ -*----------------------------------*\
| =========                 |                                                 |
| \\      /  F ield         | OpenFOAM: The Open Source CFD Toolbox           |
|  \\    /   O peration     | Version:  2212                                  |
|   \\  /    A nd           | Website:  www.openfoam.com                      |
|    \\/     M anipulation  |                                                 |
\*---------------------------------------------------------------------------*/
FoamFile
{
    version     2.0;
    format      ascii;
    arch        "LSB;label=64;scalar=64";
    class       volScalarField;
    location    "1890";
    object      Gh2;
}
// * * * * * * * * * * * * * * * * * * * * * * * * * * * * * * * * * * * * * //

dimensions      [1 -3 0 0 0 0 0];

internalField   nonuniform List<scalar> 
1024
(
1.23289e-05
1.23279e-05
1.23256e-05
1.23212e-05
1.23141e-05
1.23034e-05
1.22883e-05
1.2268e-05
1.22421e-05
1.22106e-05
1.21746e-05
1.21359e-05
1.20969e-05
1.20598e-05
1.20264e-05
1.19982e-05
1.19785e-05
1.197e-05
1.19713e-05
1.19806e-05
1.19962e-05
1.20161e-05
1.20384e-05
1.20606e-05
1.20809e-05
1.2098e-05
1.21112e-05
1.21209e-05
1.21274e-05
1.21315e-05
1.21337e-05
1.21346e-05
1.23286e-05
1.23276e-05
1.23252e-05
1.23208e-05
1.23136e-05
1.23029e-05
1.22877e-05
1.22672e-05
1.2241e-05
1.22094e-05
1.21733e-05
1.21345e-05
1.20954e-05
1.20584e-05
1.2025e-05
1.19969e-05
1.19772e-05
1.19685e-05
1.19698e-05
1.1979e-05
1.19946e-05
1.20146e-05
1.2037e-05
1.20594e-05
1.20798e-05
1.20971e-05
1.21105e-05
1.21203e-05
1.21269e-05
1.2131e-05
1.21332e-05
1.21341e-05
1.23278e-05
1.23269e-05
1.23244e-05
1.23199e-05
1.23126e-05
1.23016e-05
1.22861e-05
1.22652e-05
1.22387e-05
1.22067e-05
1.21703e-05
1.21313e-05
1.20922e-05
1.20552e-05
1.20219e-05
1.19937e-05
1.19738e-05
1.19649e-05
1.1966e-05
1.19752e-05
1.19909e-05
1.20112e-05
1.20339e-05
1.20567e-05
1.20775e-05
1.20951e-05
1.21089e-05
1.21189e-05
1.21256e-05
1.21298e-05
1.21321e-05
1.2133e-05
1.23265e-05
1.23255e-05
1.23229e-05
1.23183e-05
1.23107e-05
1.22994e-05
1.22834e-05
1.22619e-05
1.22347e-05
1.22021e-05
1.21652e-05
1.2126e-05
1.20869e-05
1.20499e-05
1.20167e-05
1.19883e-05
1.19679e-05
1.19584e-05
1.1959e-05
1.19681e-05
1.19843e-05
1.20054e-05
1.20288e-05
1.20523e-05
1.20738e-05
1.2092e-05
1.21062e-05
1.21165e-05
1.21234e-05
1.21277e-05
1.213e-05
1.21309e-05
1.23244e-05
1.23233e-05
1.23207e-05
1.23158e-05
1.23079e-05
1.2296e-05
1.22793e-05
1.22569e-05
1.22288e-05
1.21953e-05
1.21578e-05
1.21183e-05
1.20791e-05
1.20422e-05
1.20088e-05
1.198e-05
1.19586e-05
1.19479e-05
1.19477e-05
1.19569e-05
1.19739e-05
1.19963e-05
1.20212e-05
1.2046e-05
1.20685e-05
1.20875e-05
1.21022e-05
1.21128e-05
1.212e-05
1.21243e-05
1.21266e-05
1.21275e-05
1.23213e-05
1.23201e-05
1.23174e-05
1.23122e-05
1.23039e-05
1.22913e-05
1.22736e-05
1.22501e-05
1.22207e-05
1.21861e-05
1.21478e-05
1.21079e-05
1.20686e-05
1.20317e-05
1.1998e-05
1.19682e-05
1.19451e-05
1.19324e-05
1.1931e-05
1.19402e-05
1.19585e-05
1.19832e-05
1.20104e-05
1.20371e-05
1.20611e-05
1.20811e-05
1.20964e-05
1.21074e-05
1.21147e-05
1.2119e-05
1.21213e-05
1.21222e-05
1.2317e-05
1.23159e-05
1.23129e-05
1.23074e-05
1.22985e-05
1.22851e-05
1.22662e-05
1.22413e-05
1.22104e-05
1.21745e-05
1.21353e-05
1.20949e-05
1.20555e-05
1.20183e-05
1.19839e-05
1.19523e-05
1.19266e-05
1.1911e-05
1.19078e-05
1.19168e-05
1.19369e-05
1.19644e-05
1.19949e-05
1.20245e-05
1.20507e-05
1.2072e-05
1.20881e-05
1.20994e-05
1.21067e-05
1.21109e-05
1.21131e-05
1.21139e-05
1.23116e-05
1.23104e-05
1.23072e-05
1.23014e-05
1.22918e-05
1.22773e-05
1.22571e-05
1.22306e-05
1.21981e-05
1.21608e-05
1.21205e-05
1.20795e-05
1.20397e-05
1.20019e-05
1.19662e-05
1.19322e-05
1.19028e-05
1.18834e-05
1.18775e-05
1.18858e-05
1.19073e-05
1.1938e-05
1.19725e-05
1.2006e-05
1.2035e-05
1.20581e-05
1.20752e-05
1.20869e-05
1.20941e-05
1.20982e-05
1.21002e-05
1.21008e-05
1.2305e-05
1.23037e-05
1.23003e-05
1.22941e-05
1.22838e-05
1.22683e-05
1.22467e-05
1.22185e-05
1.21842e-05
1.21453e-05
1.21039e-05
1.20622e-05
1.20217e-05
1.1983e-05
1.19454e-05
1.19083e-05
1.18744e-05
1.18501e-05
1.18404e-05
1.18466e-05
1.18681e-05
1.19011e-05
1.19395e-05
1.19773e-05
1.20101e-05
1.20357e-05
1.20542e-05
1.20664e-05
1.20738e-05
1.20777e-05
1.20794e-05
1.20799e-05
1.22973e-05
1.22959e-05
1.22924e-05
1.22858e-05
1.22748e-05
1.22583e-05
1.22353e-05
1.22054e-05
1.21694e-05
1.21289e-05
1.20863e-05
1.20436e-05
1.20024e-05
1.19624e-05
1.19228e-05
1.18824e-05
1.18437e-05
1.18138e-05
1.17984e-05
1.17998e-05
1.18182e-05
1.18504e-05
1.18906e-05
1.1932e-05
1.19689e-05
1.1998e-05
1.20187e-05
1.20322e-05
1.204e-05
1.20439e-05
1.20455e-05
1.20459e-05
1.22887e-05
1.22873e-05
1.22837e-05
1.22767e-05
1.22652e-05
1.22478e-05
1.22236e-05
1.21922e-05
1.21546e-05
1.21127e-05
1.20688e-05
1.20253e-05
1.19832e-05
1.19422e-05
1.19012e-05
1.18582e-05
1.18154e-05
1.17793e-05
1.17559e-05
1.17483e-05
1.17582e-05
1.17841e-05
1.18212e-05
1.18629e-05
1.19025e-05
1.19354e-05
1.19595e-05
1.19753e-05
1.19845e-05
1.19892e-05
1.19911e-05
1.19916e-05
1.22797e-05
1.22783e-05
1.22746e-05
1.22675e-05
1.22556e-05
1.22376e-05
1.22125e-05
1.218e-05
1.21412e-05
1.20981e-05
1.20533e-05
1.20092e-05
1.1967e-05
1.19262e-05
1.18853e-05
1.18422e-05
1.17971e-05
1.17549e-05
1.1721e-05
1.16999e-05
1.1695e-05
1.1707e-05
1.17332e-05
1.17683e-05
1.1806e-05
1.18404e-05
1.18679e-05
1.18872e-05
1.18993e-05
1.19058e-05
1.19087e-05
1.19096e-05
1.22709e-05
1.22695e-05
1.22657e-05
1.22586e-05
1.22466e-05
1.22284e-05
1.2203e-05
1.21701e-05
1.21307e-05
1.20871e-05
1.20422e-05
1.19986e-05
1.19577e-05
1.19194e-05
1.1882e-05
1.18425e-05
1.17987e-05
1.17517e-05
1.17063e-05
1.16685e-05
1.16437e-05
1.16348e-05
1.16418e-05
1.16615e-05
1.16891e-05
1.17191e-05
1.17464e-05
1.1768e-05
1.17829e-05
1.17919e-05
1.17964e-05
1.17981e-05
1.2263e-05
1.22615e-05
1.22579e-05
1.22509e-05
1.22392e-05
1.22214e-05
1.21964e-05
1.21641e-05
1.21253e-05
1.20825e-05
1.20388e-05
1.19974e-05
1.19602e-05
1.19276e-05
1.1898e-05
1.18674e-05
1.18298e-05
1.17812e-05
1.17255e-05
1.16705e-05
1.16238e-05
1.15908e-05
1.15734e-05
1.15709e-05
1.15803e-05
1.15975e-05
1.16176e-05
1.16364e-05
1.16513e-05
1.16614e-05
1.1667e-05
1.16692e-05
1.22569e-05
1.22556e-05
1.2252e-05
1.22454e-05
1.22344e-05
1.22177e-05
1.21942e-05
1.21637e-05
1.21271e-05
1.20868e-05
1.20462e-05
1.20092e-05
1.19784e-05
1.1955e-05
1.19376e-05
1.19211e-05
1.18954e-05
1.18497e-05
1.17868e-05
1.17161e-05
1.16481e-05
1.15906e-05
1.15479e-05
1.1521e-05
1.15086e-05
1.15078e-05
1.15145e-05
1.15247e-05
1.15349e-05
1.15429e-05
1.1548e-05
1.15502e-05
1.22543e-05
1.2253e-05
1.22497e-05
1.22436e-05
1.22337e-05
1.22188e-05
1.21979e-05
1.21708e-05
1.21381e-05
1.21023e-05
1.20668e-05
1.20359e-05
1.20133e-05
1.20009e-05
1.19981e-05
1.19993e-05
1.19901e-05
1.19531e-05
1.18878e-05
1.18043e-05
1.17156e-05
1.16331e-05
1.15644e-05
1.15127e-05
1.14782e-05
1.14587e-05
1.14506e-05
1.145e-05
1.14532e-05
1.14573e-05
1.14604e-05
1.1462e-05
1.22567e-05
1.22555e-05
1.22524e-05
1.22469e-05
1.22382e-05
1.22254e-05
1.22078e-05
1.21849e-05
1.21574e-05
1.21272e-05
1.20978e-05
1.20733e-05
1.20581e-05
1.20551e-05
1.20644e-05
1.20809e-05
1.20889e-05
1.20657e-05
1.20059e-05
1.19169e-05
1.18119e-05
1.17053e-05
1.16092e-05
1.15312e-05
1.14736e-05
1.14355e-05
1.14133e-05
1.14028e-05
1.13996e-05
1.14e-05
1.14015e-05
1.14025e-05
1.22638e-05
1.22626e-05
1.22597e-05
1.22547e-05
1.2247e-05
1.2236e-05
1.22212e-05
1.22022e-05
1.21795e-05
1.21547e-05
1.21308e-05
1.21116e-05
1.21013e-05
1.21033e-05
1.21183e-05
1.21424e-05
1.21602e-05
1.21485e-05
1.2099e-05
1.20143e-05
1.19039e-05
1.1782e-05
1.16637e-05
1.1561e-05
1.14804e-05
1.1423e-05
1.13866e-05
1.13664e-05
1.13573e-05
1.13548e-05
1.1355e-05
1.13556e-05
1.22737e-05
1.22725e-05
1.22697e-05
1.22651e-05
1.22581e-05
1.22484e-05
1.22357e-05
1.22198e-05
1.2201e-05
1.21807e-05
1.21612e-05
1.21459e-05
1.21384e-05
1.2142e-05
1.21577e-05
1.21822e-05
1.22012e-05
1.21937e-05
1.21514e-05
1.20739e-05
1.19667e-05
1.18406e-05
1.17105e-05
1.15907e-05
1.14912e-05
1.14166e-05
1.13662e-05
1.13361e-05
1.13211e-05
1.13154e-05
1.13144e-05
1.13148e-05
1.22848e-05
1.22836e-05
1.22811e-05
1.22767e-05
1.22703e-05
1.22617e-05
1.22505e-05
1.22369e-05
1.22212e-05
1.22044e-05
1.21885e-05
1.21761e-05
1.21703e-05
1.21735e-05
1.21865e-05
1.22061e-05
1.22196e-05
1.22098e-05
1.21696e-05
1.20977e-05
1.19969e-05
1.18744e-05
1.1742e-05
1.16136e-05
1.15014e-05
1.14129e-05
1.13501e-05
1.13105e-05
1.12892e-05
1.12802e-05
1.12778e-05
1.12779e-05
1.22947e-05
1.22938e-05
1.22916e-05
1.22878e-05
1.22822e-05
1.22746e-05
1.22648e-05
1.2253e-05
1.22397e-05
1.22258e-05
1.22127e-05
1.22025e-05
1.21971e-05
1.21982e-05
1.22057e-05
1.22161e-05
1.22191e-05
1.2202e-05
1.21603e-05
1.20921e-05
1.19981e-05
1.1883e-05
1.17553e-05
1.16263e-05
1.15081e-05
1.14102e-05
1.13372e-05
1.12888e-05
1.12612e-05
1.12485e-05
1.12446e-05
1.12444e-05
1.22997e-05
1.22991e-05
1.22978e-05
1.22952e-05
1.22911e-05
1.22851e-05
1.22771e-05
1.22672e-05
1.2256e-05
1.22443e-05
1.2233e-05
1.22235e-05
1.22167e-05
1.22131e-05
1.2212e-05
1.22097e-05
1.21986e-05
1.21717e-05
1.21268e-05
1.20615e-05
1.19749e-05
1.18691e-05
1.17502e-05
1.16268e-05
1.15092e-05
1.14068e-05
1.13264e-05
1.12704e-05
1.12367e-05
1.12201e-05
1.12146e-05
1.12139e-05
1.22944e-05
1.22946e-05
1.22948e-05
1.22945e-05
1.2293e-05
1.22897e-05
1.22843e-05
1.22767e-05
1.22673e-05
1.22568e-05
1.22456e-05
1.22343e-05
1.22231e-05
1.22117e-05
1.21988e-05
1.21813e-05
1.21551e-05
1.21184e-05
1.20704e-05
1.20084e-05
1.19302e-05
1.18357e-05
1.17284e-05
1.16147e-05
1.15027e-05
1.14008e-05
1.13166e-05
1.12547e-05
1.12153e-05
1.11949e-05
1.11874e-05
1.11863e-05
1.22733e-05
1.22746e-05
1.22771e-05
1.228e-05
1.22823e-05
1.22828e-05
1.22806e-05
1.22754e-05
1.22671e-05
1.2256e-05
1.22422e-05
1.22258e-05
1.22067e-05
1.21845e-05
1.21583e-05
1.21258e-05
1.20863e-05
1.20419e-05
1.19925e-05
1.1935e-05
1.18662e-05
1.17845e-05
1.1691e-05
1.15899e-05
1.14873e-05
1.13904e-05
1.13062e-05
1.12407e-05
1.11967e-05
1.11724e-05
1.11628e-05
1.11611e-05
1.22317e-05
1.22345e-05
1.22397e-05
1.22462e-05
1.22524e-05
1.22565e-05
1.22571e-05
1.22531e-05
1.22439e-05
1.22296e-05
1.22103e-05
1.21861e-05
1.21571e-05
1.21236e-05
1.20852e-05
1.20409e-05
1.19923e-05
1.19439e-05
1.18958e-05
1.18442e-05
1.17855e-05
1.17172e-05
1.16389e-05
1.15525e-05
1.14622e-05
1.13737e-05
1.12933e-05
1.12273e-05
1.11801e-05
1.11525e-05
1.11407e-05
1.11384e-05
1.21665e-05
1.2171e-05
1.21788e-05
1.21879e-05
1.21961e-05
1.22015e-05
1.22022e-05
1.21967e-05
1.21842e-05
1.21646e-05
1.21383e-05
1.21059e-05
1.20682e-05
1.20259e-05
1.19796e-05
1.19289e-05
1.18768e-05
1.18286e-05
1.17843e-05
1.17397e-05
1.16913e-05
1.16362e-05
1.15731e-05
1.15025e-05
1.14267e-05
1.13495e-05
1.12762e-05
1.12128e-05
1.11648e-05
1.11348e-05
1.1121e-05
1.11178e-05
1.20764e-05
1.20825e-05
1.20915e-05
1.21002e-05
1.21065e-05
1.21087e-05
1.21057e-05
1.20958e-05
1.20782e-05
1.20532e-05
1.20213e-05
1.19836e-05
1.19412e-05
1.18954e-05
1.18469e-05
1.17959e-05
1.17457e-05
1.17015e-05
1.16628e-05
1.1626e-05
1.15875e-05
1.15448e-05
1.14961e-05
1.14411e-05
1.13806e-05
1.13168e-05
1.12535e-05
1.1196e-05
1.11497e-05
1.11188e-05
1.11034e-05
1.10994e-05
1.19606e-05
1.19677e-05
1.1975e-05
1.19789e-05
1.19782e-05
1.1973e-05
1.19632e-05
1.19477e-05
1.19259e-05
1.1898e-05
1.18645e-05
1.18263e-05
1.17848e-05
1.17411e-05
1.16962e-05
1.16502e-05
1.16062e-05
1.15687e-05
1.15371e-05
1.1508e-05
1.14787e-05
1.1447e-05
1.14112e-05
1.13705e-05
1.13249e-05
1.12756e-05
1.12245e-05
1.11755e-05
1.11337e-05
1.11039e-05
1.10878e-05
1.10831e-05
1.18177e-05
1.1824e-05
1.18255e-05
1.18201e-05
1.18096e-05
1.17959e-05
1.17798e-05
1.17606e-05
1.17378e-05
1.17111e-05
1.16806e-05
1.16471e-05
1.16115e-05
1.15747e-05
1.15376e-05
1.15003e-05
1.14654e-05
1.14362e-05
1.14121e-05
1.13906e-05
1.13695e-05
1.13472e-05
1.13224e-05
1.12941e-05
1.12621e-05
1.12267e-05
1.11888e-05
1.11506e-05
1.1116e-05
1.10894e-05
1.10739e-05
1.10687e-05
1.16438e-05
1.16461e-05
1.1638e-05
1.1623e-05
1.16052e-05
1.15869e-05
1.15688e-05
1.15503e-05
1.15306e-05
1.15092e-05
1.14857e-05
1.14605e-05
1.14342e-05
1.14073e-05
1.13805e-05
1.13539e-05
1.13292e-05
1.13088e-05
1.12923e-05
1.12778e-05
1.12639e-05
1.12495e-05
1.12337e-05
1.12157e-05
1.11953e-05
1.11724e-05
1.11473e-05
1.11209e-05
1.10956e-05
1.10747e-05
1.10614e-05
1.10564e-05
1.14316e-05
1.14264e-05
1.14113e-05
1.13943e-05
1.13776e-05
1.13622e-05
1.13481e-05
1.1335e-05
1.1322e-05
1.13086e-05
1.12943e-05
1.12792e-05
1.12635e-05
1.12476e-05
1.12319e-05
1.12164e-05
1.12021e-05
1.11903e-05
1.11809e-05
1.11727e-05
1.1165e-05
1.11572e-05
1.11486e-05
1.11389e-05
1.1128e-05
1.11156e-05
1.11019e-05
1.1087e-05
1.10721e-05
1.10589e-05
1.10497e-05
1.10457e-05
1.11723e-05
1.11683e-05
1.11605e-05
1.11531e-05
1.11463e-05
1.11403e-05
1.1135e-05
1.11303e-05
1.11259e-05
1.11214e-05
1.11166e-05
1.11117e-05
1.11066e-05
1.11014e-05
1.10963e-05
1.10913e-05
1.10867e-05
1.1083e-05
1.10799e-05
1.10773e-05
1.10749e-05
1.10724e-05
1.10698e-05
1.10668e-05
1.10634e-05
1.10596e-05
1.10554e-05
1.10507e-05
1.1046e-05
1.10416e-05
1.10382e-05
1.10366e-05
)
;

boundaryField
{
    movingWall
    {
        type            fixedValue;
        value           uniform 1.1032e-05;
    }
    fixedWalls
    {
        type            zeroGradient;
    }
    floor
    {
        type            zeroGradient;
    }
    frontAndBack
    {
        type            empty;
    }
}


// ************************************************************************* //
