/*--------------------------------*- C++ -*----------------------------------*\
| =========                 |                                                 |
| \\      /  F ield         | OpenFOAM: The Open Source CFD Toolbox           |
|  \\    /   O peration     | Version:  2212                                  |
|   \\  /    A nd           | Website:  www.openfoam.com                      |
|    \\/     M anipulation  |                                                 |
\*---------------------------------------------------------------------------*/
FoamFile
{
    version     2.0;
    format      ascii;
    arch        "LSB;label=64;scalar=64";
    class       volScalarField;
    location    "1890";
    object      SIC;
}
// * * * * * * * * * * * * * * * * * * * * * * * * * * * * * * * * * * * * * //

dimensions      [1 -3 0 0 0 0 0];

internalField   nonuniform List<scalar> 
1024
(
0.091975
0.0919769
0.0919818
0.0919909
0.0920057
0.092028
0.0920597
0.0921023
0.0921571
0.0922238
0.0923006
0.0923839
0.0924692
0.0925516
0.0926271
0.0926923
0.0927391
0.0927606
0.0927593
0.0927395
0.0927052
0.0926609
0.0926114
0.092562
0.092517
0.0924792
0.0924499
0.0924285
0.0924141
0.0924052
0.0924003
0.0923983
0.0919755
0.0919775
0.0919825
0.0919917
0.0920067
0.0920292
0.0920611
0.0921041
0.0921593
0.0922263
0.0923034
0.092387
0.0924724
0.0925548
0.0926302
0.0926955
0.0927423
0.0927641
0.0927629
0.0927432
0.0927089
0.0926644
0.0926147
0.0925649
0.0925194
0.0924812
0.0924515
0.0924299
0.0924153
0.0924063
0.0924013
0.0923993
0.091977
0.0919791
0.0919842
0.0919936
0.0920089
0.0920318
0.0920644
0.0921083
0.0921643
0.0922322
0.09231
0.092394
0.0924796
0.092562
0.0926374
0.0927028
0.0927502
0.0927725
0.0927719
0.0927523
0.0927175
0.0926723
0.0926218
0.0925711
0.0925247
0.0924856
0.0924552
0.0924331
0.0924182
0.0924089
0.0924039
0.0924019
0.0919799
0.091982
0.0919873
0.091997
0.0920128
0.0920365
0.0920702
0.0921154
0.0921729
0.0922422
0.0923211
0.0924058
0.0924916
0.092574
0.0926496
0.0927155
0.0927641
0.0927879
0.0927883
0.0927687
0.092733
0.092686
0.0926336
0.0925811
0.0925332
0.0924928
0.0924613
0.0924385
0.0924232
0.0924137
0.0924087
0.0924066
0.0919843
0.0919865
0.0919921
0.0920022
0.0920188
0.0920437
0.0920789
0.092126
0.0921856
0.0922568
0.0923373
0.0924229
0.092509
0.0925916
0.0926677
0.092735
0.0927859
0.0928125
0.0928148
0.0927952
0.0927574
0.0927071
0.0926512
0.0925957
0.0925454
0.0925032
0.0924705
0.0924469
0.0924311
0.0924215
0.0924164
0.0924144
0.0919908
0.0919932
0.091999
0.0920097
0.0920273
0.0920537
0.092091
0.0921406
0.0922029
0.0922767
0.092359
0.0924458
0.0925325
0.0926155
0.0926927
0.0927625
0.0928177
0.092849
0.0928541
0.0928345
0.0927935
0.0927381
0.0926766
0.0926164
0.0925625
0.0925179
0.0924837
0.0924592
0.0924431
0.0924335
0.0924284
0.0924265
0.0919997
0.0920021
0.0920083
0.0920198
0.0920386
0.0920669
0.0921067
0.0921594
0.092225
0.0923018
0.0923864
0.0924746
0.0925622
0.0926462
0.0927256
0.0927996
0.0928612
0.0928993
0.0929088
0.0928895
0.0928445
0.0927821
0.0927129
0.0926458
0.0925869
0.092539
0.0925029
0.0924777
0.0924614
0.0924519
0.0924471
0.0924454
0.0920111
0.0920137
0.0920203
0.0920326
0.0920528
0.0920833
0.092126
0.0921822
0.0922516
0.0923318
0.092419
0.092509
0.0925979
0.0926838
0.0927666
0.0928467
0.0929172
0.0929646
0.0929802
0.0929625
0.0929141
0.0928441
0.0927653
0.0926891
0.0926233
0.092571
0.0925325
0.0925063
0.09249
0.0924809
0.0924766
0.0924751
0.092025
0.0920278
0.0920348
0.092048
0.0920697
0.0921025
0.0921484
0.0922084
0.0922817
0.0923656
0.0924558
0.0925479
0.0926389
0.0927277
0.0928152
0.0929031
0.0929844
0.0930432
0.0930679
0.0930549
0.0930062
0.0929307
0.0928426
0.092756
0.0926811
0.0926227
0.0925808
0.0925531
0.0925366
0.0925278
0.092524
0.0925229
0.0920413
0.0920442
0.0920516
0.0920656
0.0920888
0.0921239
0.0921729
0.0922366
0.0923139
0.0924016
0.092495
0.0925898
0.0926833
0.0927756
0.0928685
0.0929647
0.0930576
0.0931298
0.0931677
0.0931658
0.093124
0.0930498
0.0929569
0.0928615
0.0927766
0.0927098
0.0926624
0.0926317
0.092614
0.092605
0.0926014
0.0926005
0.0920594
0.0920623
0.09207
0.0920848
0.0921092
0.0921463
0.092198
0.0922652
0.0923462
0.0924376
0.0925342
0.0926316
0.0927277
0.0928229
0.0929201
0.0930228
0.0931259
0.093213
0.0932698
0.0932886
0.093266
0.0932058
0.0931194
0.0930226
0.0929307
0.0928546
0.092799
0.0927625
0.0927412
0.0927304
0.092726
0.0927249
0.0920783
0.0920814
0.0920893
0.0921044
0.0921298
0.0921682
0.092222
0.0922917
0.0923758
0.0924701
0.0925693
0.0926686
0.0927657
0.0928615
0.092959
0.0930632
0.0931723
0.0932742
0.0933555
0.0934058
0.0934174
0.093389
0.0933271
0.0932444
0.093156
0.0930754
0.0930112
0.0929661
0.092938
0.0929228
0.0929159
0.0929138
0.0920971
0.0921001
0.0921081
0.0921234
0.092149
0.0921879
0.0922425
0.0923135
0.092399
0.0924947
0.0925946
0.0926934
0.0927882
0.0928793
0.0929699
0.0930667
0.0931738
0.0932875
0.0933959
0.0934856
0.0935438
0.0935638
0.0935462
0.0934983
0.093432
0.0933606
0.0932956
0.0932444
0.093209
0.0931877
0.0931769
0.0931731
0.0921139
0.0921169
0.0921248
0.0921398
0.0921649
0.0922031
0.0922568
0.0923269
0.0924113
0.0925056
0.0926031
0.0926974
0.0927843
0.0928631
0.0929367
0.0930141
0.0931078
0.093226
0.0933589
0.0934892
0.093599
0.0936761
0.0937156
0.0937194
0.0936947
0.093652
0.0936026
0.0935567
0.0935204
0.093496
0.0934824
0.0934769
0.0921266
0.0921296
0.0921371
0.0921514
0.0921751
0.0922111
0.0922617
0.0923278
0.0924077
0.0924966
0.0925873
0.092672
0.0927448
0.0928032
0.0928497
0.0928953
0.0929624
0.093074
0.093224
0.0933913
0.0935518
0.0936871
0.093787
0.0938488
0.0938756
0.0938749
0.0938562
0.0938296
0.0938035
0.0937832
0.0937704
0.0937649
0.0921321
0.092135
0.0921421
0.0921552
0.0921765
0.0922086
0.0922537
0.0923126
0.0923838
0.0924627
0.092542
0.0926127
0.0926671
0.0927003
0.0927138
0.0927195
0.0927486
0.0928401
0.0929955
0.0931926
0.0934019
0.0935967
0.0937591
0.0938807
0.0939609
0.0940052
0.0940218
0.0940206
0.0940107
0.0939993
0.0939907
0.0939864
0.0921267
0.0921295
0.0921361
0.0921478
0.0921665
0.0921941
0.0922322
0.0922818
0.0923417
0.0924079
0.0924734
0.0925292
0.0925662
0.0925779
0.0925634
0.0925338
0.0925235
0.0925832
0.0927255
0.092935
0.0931822
0.0934337
0.093661
0.0938461
0.0939824
0.0940722
0.0941234
0.0941464
0.0941519
0.0941491
0.0941445
0.0941415
0.0921115
0.0921141
0.0921203
0.092131
0.0921475
0.0921711
0.0922031
0.0922442
0.0922934
0.0923474
0.0924004
0.0924439
0.0924691
0.0924685
0.0924402
0.0923927
0.0923597
0.092393
0.0925116
0.0927109
0.0929701
0.0932575
0.0935373
0.0937814
0.0939734
0.0941099
0.0941963
0.0942432
0.0942632
0.0942678
0.0942662
0.094264
0.0920903
0.0920929
0.0920988
0.0921088
0.0921236
0.0921443
0.0921717
0.092206
0.0922465
0.0922907
0.0923334
0.0923678
0.0923858
0.0923807
0.09235
0.0923009
0.0922649
0.0922886
0.0923909
0.0925736
0.0928253
0.0931221
0.0934299
0.093715
0.0939525
0.0941312
0.0942516
0.0943229
0.0943578
0.0943702
0.0943715
0.09437
0.0920668
0.0920693
0.0920747
0.0920839
0.0920975
0.092116
0.0921398
0.092169
0.0922028
0.092239
0.0922736
0.092301
0.0923149
0.0923099
0.0922845
0.0922459
0.0922222
0.0922515
0.0923491
0.092519
0.092756
0.0930445
0.0933577
0.0936633
0.0939316
0.0941441
0.0942952
0.0943901
0.0944407
0.0944614
0.094466
0.0944652
0.0920464
0.0920483
0.0920529
0.0920607
0.0920725
0.0920886
0.0921093
0.0921344
0.0921628
0.0921927
0.092221
0.0922435
0.0922561
0.0922555
0.0922421
0.0922238
0.0922241
0.09227
0.0923714
0.0925332
0.0927546
0.0930258
0.0933281
0.0936352
0.0939182
0.0941539
0.0943302
0.094447
0.0945133
0.0945431
0.0945515
0.0945515
0.0920378
0.0920388
0.0920413
0.0920463
0.0920546
0.0920669
0.0920836
0.0921044
0.0921281
0.0921533
0.0921776
0.0921986
0.0922145
0.0922243
0.0922304
0.0922411
0.0922735
0.0923418
0.0924509
0.0926063
0.0928107
0.0930602
0.0933419
0.0936358
0.0939178
0.0941647
0.0943592
0.094495
0.0945766
0.0946161
0.0946288
0.0946298
0.0920532
0.0920524
0.0920514
0.0920511
0.0920532
0.0920591
0.0920698
0.0920854
0.0921051
0.0921278
0.0921522
0.0921777
0.0922041
0.0922323
0.0922654
0.0923109
0.0923779
0.0924688
0.092585
0.0927328
0.0929178
0.093141
0.0933956
0.0936667
0.0939354
0.0941812
0.0943854
0.094536
0.0946317
0.0946811
0.0946987
0.0947009
0.0921059
0.0921024
0.0920959
0.0920881
0.0920814
0.0920785
0.0920816
0.0920918
0.0921094
0.0921338
0.0921648
0.0922027
0.0922478
0.0923014
0.0923655
0.0924457
0.0925433
0.0926517
0.0927707
0.092908
0.0930711
0.0932646
0.0934866
0.0937279
0.0939742
0.0942083
0.0944127
0.0945723
0.0946798
0.0947388
0.0947618
0.0947655
0.0922071
0.0922
0.092187
0.0921708
0.0921549
0.0921436
0.0921404
0.0921482
0.0921681
0.0922004
0.0922451
0.0923019
0.0923706
0.0924509
0.0925434
0.0926509
0.0927692
0.0928864
0.0930022
0.0931256
0.0932651
0.0934271
0.0936134
0.0938198
0.0940366
0.0942505
0.094446
0.0946071
0.0947225
0.09479
0.0948185
0.094824
0.0923641
0.0923531
0.0923341
0.0923117
0.0922912
0.0922771
0.0922739
0.0922855
0.0923139
0.0923594
0.092421
0.0924975
0.0925872
0.0926881
0.0927992
0.0929215
0.0930475
0.0931637
0.0932703
0.093377
0.0934922
0.0936231
0.0937733
0.0939422
0.0941245
0.0943111
0.0944893
0.0946441
0.0947619
0.0948356
0.0948693
0.0948768
0.0925808
0.092566
0.0925441
0.0925227
0.0925071
0.0925008
0.0925069
0.0925295
0.0925704
0.0926292
0.0927045
0.092794
0.0928948
0.0930043
0.0931203
0.0932429
0.0933638
0.0934703
0.093563
0.0936513
0.0937431
0.0938448
0.0939609
0.0940927
0.0942382
0.0943923
0.0945461
0.0946869
0.0948006
0.0948768
0.0949146
0.0949242
0.0928592
0.0928421
0.0928242
0.0928147
0.0928159
0.0928276
0.0928503
0.0928867
0.092938
0.0930041
0.0930837
0.0931745
0.0932734
0.0933777
0.0934852
0.0935956
0.0937012
0.0937914
0.0938674
0.093937
0.0940069
0.0940826
0.0941681
0.0942657
0.0943752
0.0944946
0.0946188
0.0947386
0.0948413
0.094915
0.0949548
0.0949664
0.0932032
0.0931879
0.0931842
0.093197
0.093222
0.0932545
0.0932927
0.0933382
0.0933922
0.0934557
0.0935282
0.093608
0.0936929
0.0937807
0.0938694
0.0939588
0.0940427
0.0941129
0.0941707
0.0942223
0.0942726
0.0943259
0.0943854
0.0944531
0.09453
0.0946156
0.0947078
0.0948012
0.0948864
0.0949521
0.0949907
0.0950034
0.0936222
0.0936165
0.0936361
0.0936722
0.0937148
0.0937585
0.0938018
0.093846
0.0938927
0.0939437
0.0939996
0.0940597
0.0941226
0.0941868
0.0942509
0.0943146
0.0943738
0.0944228
0.0944625
0.0944972
0.0945304
0.0945649
0.0946028
0.0946459
0.0946949
0.0947502
0.0948113
0.0948758
0.0949382
0.09499
0.0950232
0.0950357
0.0941342
0.0941467
0.0941832
0.0942242
0.0942642
0.0943013
0.0943349
0.0943663
0.0943972
0.0944293
0.0944634
0.0944994
0.0945368
0.0945747
0.0946123
0.0946495
0.0946838
0.0947119
0.0947346
0.0947542
0.0947726
0.0947915
0.094812
0.0948352
0.0948615
0.0948914
0.0949248
0.094961
0.0949978
0.0950305
0.0950536
0.0950634
0.0947606
0.0947703
0.0947891
0.094807
0.0948233
0.0948378
0.0948504
0.0948617
0.0948723
0.0948831
0.0948943
0.0949061
0.0949183
0.0949306
0.0949428
0.0949548
0.0949658
0.0949749
0.0949821
0.0949883
0.0949942
0.0950001
0.0950065
0.0950136
0.0950217
0.0950309
0.0950412
0.0950525
0.0950643
0.0950752
0.0950835
0.0950876
)
;

boundaryField
{
    movingWall
    {
        type            fixedValue;
        value           uniform 0.0951;
    }
    fixedWalls
    {
        type            zeroGradient;
    }
    floor
    {
        type            zeroGradient;
    }
    frontAndBack
    {
        type            empty;
    }
}


// ************************************************************************* //
