/*--------------------------------*- C++ -*----------------------------------*\
| =========                 |                                                 |
| \\      /  F ield         | OpenFOAM: The Open Source CFD Toolbox           |
|  \\    /   O peration     | Version:  2206                                  |
|   \\  /    A nd           | Website:  www.openfoam.com                      |
|    \\/     M anipulation  |                                                 |
\*---------------------------------------------------------------------------*/
FoamFile
{
    version     2.0;
    format      ascii;
    arch        "LSB;label=64;scalar=64";
    class       surfaceScalarField;
    location    "273600";
    object      phi;
}
// * * * * * * * * * * * * * * * * * * * * * * * * * * * * * * * * * * * * * //

dimensions      [0 3 -1 0 0 0 0];

oriented        oriented;

internalField   nonuniform List<scalar> 
24
(
3.04499e-10
-3.04499e-10
1.61642e-10
1.42857e-10
7.07752e-11
9.08671e-11
7.07752e-11
-8.31271e-11
-2.21372e-10
-6.03465e-11
1.20076e-10
9.84408e-12
2.06765e-11
8.06192e-11
-1.11518e-10
-1.09854e-10
-3.49939e-11
4.3552e-11
-3.2061e-11
1.77435e-11
4.85582e-11
-1.09854e-10
-6.63017e-11
-4.85582e-11
)
;

boundaryField
{
    movingWall
    {
        type            calculated;
        value           nonuniform List<scalar> 4(1.00974e-28 0 0 2.01948e-28);
    }
    fixedWalls
    {
        type            calculated;
        value           uniform 0;
    }
    frontAndBack
    {
        type            empty;
        value           nonuniform List<scalar> 0();
    }
}


// ************************************************************************* //
