/*--------------------------------*- C++ -*----------------------------------*\
| =========                 |                                                 |
| \\      /  F ield         | OpenFOAM: The Open Source CFD Toolbox           |
|  \\    /   O peration     | Version:  2212                                  |
|   \\  /    A nd           | Website:  www.openfoam.com                      |
|    \\/     M anipulation  |                                                 |
\*---------------------------------------------------------------------------*/
FoamFile
{
    version     2.0;
    format      ascii;
    arch        "LSB;label=64;scalar=64";
    class       volScalarField::Internal;
    location    "1400";
    object      dGch4;
}
// * * * * * * * * * * * * * * * * * * * * * * * * * * * * * * * * * * * * * //

dimensions      [1 -3 -1 0 0 0 0];

value           nonuniform List<scalar> 
1024
(
0.000914668
0.000914925
0.000915555
0.000916701
0.000918517
0.000921142
0.000924655
0.000929019
0.000934057
0.000939454
0.000944805
0.000949718
0.000953941
0.000957361
0.000959942
0.000961536
0.000961386
0.000958783
0.000954028
0.000947488
0.000939546
0.000930693
0.000921575
0.000912896
0.000905239
0.000898944
0.000894094
0.000890587
0.000888215
0.000886737
0.000885929
0.000885599
0.000914761
0.000915022
0.000915662
0.000916827
0.000918675
0.000921345
0.000924911
0.000929332
0.000934424
0.000939866
0.000945247
0.000950167
0.000954382
0.000957788
0.000960359
0.000961951
0.000961804
0.000959201
0.000954448
0.000947915
0.000939982
0.000931125
0.000921983
0.000913256
0.000905536
0.000899173
0.000894264
0.00089071
0.000888306
0.000886809
0.000885991
0.000885658
0.000914989
0.000915256
0.000915915
0.000917117
0.000919026
0.000921786
0.000925467
0.000930023
0.000935259
0.000940841
0.000946331
0.000951297
0.000955502
0.000958874
0.00096141
0.000962982
0.000962813
0.000960171
0.000955381
0.000948834
0.000940901
0.000932034
0.000922844
0.000914022
0.000906173
0.000899673
0.000894639
0.000890988
0.000888516
0.000886978
0.000886139
0.000885797
0.000915397
0.000915673
0.000916356
0.00091761
0.00091961
0.000922507
0.000926377
0.000931172
0.000936691
0.000942572
0.000948314
0.000953408
0.00095762
0.00096093
0.000963392
0.000964899
0.000964641
0.000961856
0.000956924
0.000950285
0.000942312
0.000933414
0.000924151
0.000915194
0.000907161
0.000900458
0.000895239
0.000891441
0.000888866
0.000887264
0.000886391
0.000886036
0.000916046
0.00091633
0.000917042
0.000918358
0.000920475
0.00092356
0.000927709
0.000932883
0.000938878
0.000945288
0.000951497
0.000956858
0.000961122
0.000964345
0.00096668
0.000968049
0.000967572
0.000964451
0.000959173
0.000952283
0.000944168
0.000935184
0.00092582
0.0009167
0.000908444
0.000901495
0.000896046
0.000892062
0.000889356
0.000887673
0.000886756
0.000886385
0.000917018
0.000917308
0.000918047
0.000919434
0.000921691
0.000925023
0.000929557
0.000935286
0.000942005
0.000949235
0.000956189
0.00096202
0.000966427
0.000969565
0.000971716
0.000972838
0.000971936
0.000968168
0.000962216
0.000954799
0.000946356
0.00093718
0.000927665
0.000918364
0.000909877
0.000902672
0.000896982
0.000892802
0.000889955
0.000888185
0.000887222
0.000886833
0.000918431
0.000918725
0.00091949
0.000920953
0.000923376
0.000927015
0.000932059
0.000938549
0.000946276
0.000954657
0.000962671
0.000969226
0.000973931
0.000977029
0.000978957
0.000979697
0.00097807
0.000973204
0.000966098
0.000957747
0.000948683
0.000939139
0.000929393
0.000919898
0.000911207
0.000903788
0.000897898
0.000893554
0.000890592
0.00088875
0.00088775
0.000887347
0.000920475
0.00092077
0.000921559
0.000923104
0.00092572
0.000929735
0.000935422
0.000942887
0.000951915
0.00096177
0.000971158
0.00097872
0.000983929
0.000987098
0.000988804
0.000989
0.000986245
0.000979681
0.000970786
0.000960955
0.000950873
0.000940711
0.000930617
0.00092092
0.000912091
0.00090456
0.000898576
0.000894163
0.000891155
0.000889287
0.000888276
0.000887869
0.000923441
0.000923737
0.000924553
0.000926192
0.000929033
0.000933496
0.000939958
0.000948605
0.000959193
0.000970795
0.000981817
0.000990639
0.000996584
0.000999994
0.00100153
0.001001
0.00099662
0.000987624
0.000976172
0.00096419
0.000952593
0.0009415
0.000930916
0.000921023
0.000912165
0.000904689
0.000898792
0.000894468
0.000891536
0.000889725
0.000888749
0.000888358
0.000927761
0.000928062
0.000928916
0.000930673
0.000933786
0.000938779
0.000946145
0.000956148
0.000968487
0.000982007
0.000994816
0.00100507
0.00101195
0.00101581
0.00101726
0.00101585
0.00100934
0.000997144
0.000982306
0.00096739
0.000953681
0.000941274
0.000930032
0.000919957
0.00091122
0.000904023
0.000898454
0.000894436
0.000891755
0.000890125
0.000889262
0.000888923
0.000934016
0.000934334
0.000935252
0.000937174
0.000940633
0.000946259
0.000954658
0.000966147
0.000980331
0.000995807
0.00101041
0.00102214
0.0010301
0.00103463
0.0010362
0.00103389
0.001025
0.00100915
0.000990229
0.000971529
0.000954931
0.000940664
0.000928469
0.00091815
0.000909651
0.000902956
0.00089798
0.000894533
0.000892335
0.000891073
0.000890452
0.000890231
0.000942867
0.00094322
0.000944247
0.000946413
0.000950334
0.000956737
0.000966308
0.000979366
0.000995381
0.0010127
0.00102896
0.00104207
0.00105122
0.00105673
0.00105885
0.00105622
0.00104568
0.00102687
0.00100398
0.000980909
0.000960368
0.000943216
0.00092929
0.000918246
0.000909789
0.000903626
0.000899434
0.000896842
0.000895445
0.000894843
0.000894684
0.000894695
0.000954825
0.000955239
0.000956439
0.000958963
0.000963512
0.000970889
0.000981804
0.000996495
0.00101424
0.00103316
0.00105077
0.00106513
0.00107563
0.00108271
0.00108644
0.00108522
0.00107575
0.00105712
0.00103281
0.00100664
0.00098186
0.000960442
0.000943061
0.000929683
0.000920072
0.000913732
0.000910069
0.000908416
0.000908086
0.000908449
0.000908992
0.00090936
0.000969773
0.000970278
0.000971734
0.000974767
0.000980172
0.000988803
0.00100131
0.00101772
0.00103702
0.00105712
0.00107567
0.00109113
0.00110335
0.00111294
0.00112006
0.00112347
0.00112021
0.00110833
0.00108937
0.00106601
0.00104114
0.00101717
0.000995768
0.000978002
0.000964503
0.000955269
0.000949966
0.000947787
0.00094763
0.00094845
0.000949437
0.000950062
0.000986098
0.000986678
0.000988338
0.000991774
0.000997834
0.00100736
0.00102092
0.00103836
0.00105858
0.00107962
0.00109938
0.00111662
0.0011314
0.00114452
0.00115658
0.00116745
0.00117534
0.00117762
0.00117341
0.00116347
0.00114905
0.0011316
0.00111269
0.00109394
0.00107674
0.00106224
0.00105135
0.00104425
0.00104042
0.00103889
0.00103864
0.00103881
0.00100143
0.00100203
0.00100373
0.00100723
0.00101337
0.00102298
0.00103658
0.00105406
0.00107442
0.00109591
0.00111661
0.00113527
0.00115185
0.00116715
0.00118225
0.00119827
0.00121529
0.0012315
0.00124467
0.0012538
0.0012583
0.00125795
0.00125293
0.00124387
0.00123186
0.00121844
0.00120527
0.00119385
0.00118522
0.00117965
0.00117674
0.00117569
0.00101292
0.00101349
0.00101508
0.0010183
0.00102393
0.00103272
0.00104524
0.00106148
0.00108067
0.00110127
0.00112139
0.00113951
0.00115503
0.00116833
0.00118043
0.00119314
0.00120851
0.00122737
0.00124793
0.00126834
0.00128691
0.00130232
0.00131366
0.00132039
0.00132246
0.00132039
0.00131523
0.0013085
0.00130184
0.00129652
0.00129314
0.00129167
0.00101967
0.0010202
0.00102163
0.00102446
0.00102935
0.00103698
0.00104789
0.0010622
0.00107935
0.00109806
0.0011165
0.00113291
0.00114614
0.00115592
0.00116285
0.00116874
0.00117689
0.00119093
0.00121056
0.00123391
0.00125862
0.00128253
0.00130384
0.00132129
0.00133419
0.00134246
0.00134655
0.00134737
0.00134616
0.00134419
0.00134247
0.00134157
0.00102292
0.00102342
0.0010247
0.00102718
0.00103137
0.00103786
0.00104715
0.00105943
0.00107434
0.00109084
0.00110731
0.00112196
0.00113334
0.00114073
0.00114435
0.00114578
0.00114881
0.00115825
0.00117512
0.00119846
0.00122622
0.00125576
0.00128437
0.00130969
0.00133014
0.0013451
0.00135479
0.00136008
0.00136217
0.00136237
0.00136185
0.0013614
0.00102398
0.00102444
0.0010256
0.00102777
0.00103137
0.00103687
0.00104471
0.0010551
0.00106783
0.00108209
0.00109654
0.00110955
0.00111965
0.00112595
0.00112846
0.00112854
0.00112992
0.00113723
0.00115184
0.00117359
0.00120131
0.001233
0.00126592
0.00129708
0.00132392
0.00134486
0.00135952
0.00136848
0.001373
0.00137459
0.0013747
0.00137444
0.00102388
0.00102429
0.0010253
0.00102718
0.00103025
0.0010349
0.00104149
0.00105021
0.00106094
0.00107307
0.00108555
0.00109707
0.00110635
0.00111258
0.00111572
0.00111703
0.00111972
0.00112744
0.00114127
0.00116151
0.00118775
0.00121887
0.00125281
0.00128679
0.00131778
0.00134343
0.0013625
0.00137501
0.00138196
0.00138493
0.00138563
0.00138551
0.00102386
0.00102416
0.00102492
0.0010264
0.00102889
0.00103272
0.00103819
0.00104545
0.00105441
0.00106467
0.00107546
0.00108584
0.00109487
0.00110197
0.00110717
0.0011116
0.00111762
0.0011274
0.00114164
0.00116089
0.00118532
0.00121449
0.00124715
0.00128115
0.00131379
0.00134232
0.00136477
0.00138039
0.0013897
0.00139411
0.00139545
0.00139548
0.00102571
0.00102578
0.00102608
0.00102688
0.00102854
0.0010314
0.00103574
0.00104171
0.00104927
0.00105817
0.00106792
0.00107794
0.00108765
0.00109666
0.00110505
0.00111373
0.00112397
0.00113642
0.00115144
0.00116987
0.0011923
0.00121887
0.00124894
0.00128103
0.00131303
0.00134246
0.00136695
0.00138501
0.00139646
0.00140231
0.00140434
0.00140455
0.00103165
0.00103132
0.00103086
0.00103063
0.00103109
0.00103273
0.00103592
0.00104087
0.00104761
0.00105601
0.00106582
0.00107666
0.00108813
0.00109993
0.00111207
0.00112515
0.00113936
0.00115412
0.00116964
0.001187
0.00120712
0.00123056
0.00125723
0.00128625
0.00131604
0.00134458
0.00136963
0.00138922
0.00140241
0.00140963
0.0014124
0.00141281
0.0010439
0.00104302
0.00104154
0.00104
0.00103907
0.00103946
0.00104174
0.00104624
0.00105306
0.00106212
0.00107318
0.00108589
0.00109983
0.00111464
0.00113018
0.00114675
0.00116375
0.00117979
0.00119511
0.00121097
0.00122848
0.00124846
0.00127119
0.00129632
0.00132283
0.00134915
0.00137336
0.00139339
0.00140775
0.00141615
0.00141967
0.00142032
0.00106424
0.00106269
0.00106014
0.00105744
0.00105551
0.00105524
0.00105738
0.00106237
0.00107027
0.0010809
0.00109388
0.00110872
0.0011249
0.00114195
0.00115962
0.00117802
0.00119607
0.00121211
0.00122641
0.00124035
0.00125508
0.00127148
0.00129006
0.00131084
0.00133331
0.00135641
0.0013786
0.00139797
0.00141274
0.001422
0.00142621
0.00142712
0.00109369
0.00109148
0.00108826
0.00108526
0.00108353
0.00108389
0.00108708
0.00109346
0.00110296
0.00111522
0.00112973
0.00114588
0.00116306
0.0011808
0.00119879
0.00121706
0.00123441
0.00124922
0.00126181
0.00127353
0.00128544
0.00129838
0.00131291
0.00132928
0.00134732
0.00136649
0.0013857
0.00140337
0.00141768
0.00142728
0.00143204
0.00143324
0.00113276
0.00113013
0.00112723
0.00112553
0.00112572
0.00112816
0.00113328
0.00114124
0.00115187
0.00116479
0.00117945
0.00119527
0.00121169
0.00122828
0.00124478
0.00126117
0.00127639
0.00128903
0.00129944
0.00130879
0.00131799
0.00132775
0.00133858
0.00135079
0.00136444
0.00137934
0.00139488
0.00140994
0.00142289
0.00143221
0.00143723
0.00143868
0.00118194
0.00117953
0.00117854
0.00117985
0.00118315
0.00118816
0.00119498
0.00120364
0.00121406
0.001226
0.00123906
0.00125278
0.00126675
0.00128062
0.0012942
0.00130749
0.00131962
0.00132952
0.00133751
0.0013445
0.00135119
0.00135813
0.00136573
0.00137428
0.00138391
0.00139461
0.00140617
0.00141792
0.00142867
0.00143698
0.00144187
0.00144348
0.00124235
0.00124135
0.00124377
0.00124847
0.00125424
0.00126062
0.00126764
0.0012754
0.00128399
0.00129337
0.00130334
0.00131363
0.00132396
0.00133411
0.00134393
0.00135344
0.00136202
0.00136896
0.00137448
0.00137922
0.00138367
0.0013882
0.00139309
0.00139855
0.00140472
0.00141165
0.0014193
0.00142742
0.00143529
0.00144185
0.00144607
0.00144765
0.00131636
0.00131807
0.0013231
0.00132869
0.0013342
0.00133951
0.00134471
0.00134998
0.00135548
0.00136129
0.00136735
0.00137353
0.00137969
0.0013857
0.00139148
0.00139704
0.00140203
0.00140603
0.0014092
0.00141188
0.00141437
0.00141685
0.00141951
0.00142246
0.00142578
0.00142953
0.00143372
0.00143828
0.00144292
0.00144707
0.00145
0.00145125
0.00140695
0.00140833
0.00141097
0.00141345
0.00141571
0.00141776
0.00141967
0.00142152
0.00142338
0.00142532
0.00142732
0.00142934
0.00143136
0.00143331
0.00143519
0.00143698
0.00143859
0.00143988
0.0014409
0.00144175
0.00144254
0.00144332
0.00144415
0.00144506
0.00144608
0.00144724
0.00144853
0.00144995
0.00145143
0.00145282
0.00145388
0.00145439
)
;


// ************************************************************************* //
