/*--------------------------------*- C++ -*----------------------------------*\
| =========                 |                                                 |
| \\      /  F ield         | OpenFOAM: The Open Source CFD Toolbox           |
|  \\    /   O peration     | Version:  2212                                  |
|   \\  /    A nd           | Website:  www.openfoam.com                      |
|    \\/     M anipulation  |                                                 |
\*---------------------------------------------------------------------------*/
FoamFile
{
    version     2.0;
    format      ascii;
    arch        "LSB;label=64;scalar=64";
    class       volScalarField;
    location    "1400";
    object      Gco2;
}
// * * * * * * * * * * * * * * * * * * * * * * * * * * * * * * * * * * * * * //

dimensions      [1 -3 0 0 0 0 0];

internalField   nonuniform List<scalar> 
1024
(
0.0586157
0.0585942
0.0585414
0.0584456
0.0582936
0.0580739
0.05778
0.0574148
0.0569933
0.0565419
0.0560942
0.0556833
0.0553302
0.0550444
0.054829
0.0546963
0.0547097
0.0549281
0.0553262
0.0558735
0.056538
0.0572789
0.0580419
0.0587684
0.0594094
0.0599365
0.0603425
0.0606362
0.0608348
0.0609586
0.0610263
0.0610539
0.0586079
0.058586
0.0585325
0.058435
0.0582804
0.058057
0.0577586
0.0573887
0.0569627
0.0565074
0.0560573
0.0556458
0.0552934
0.0550087
0.0547941
0.0546617
0.0546749
0.0548932
0.0552912
0.0558378
0.0565016
0.0572427
0.0580078
0.0587383
0.0593846
0.0599173
0.0603284
0.0606259
0.0608272
0.0609526
0.0610211
0.061049
0.0585888
0.0585665
0.0585113
0.0584108
0.058251
0.0580201
0.0577121
0.0573309
0.0568928
0.0564258
0.0559666
0.0555513
0.0551996
0.0549179
0.0547063
0.0545756
0.0545906
0.0548123
0.0552133
0.0557611
0.0564248
0.0571667
0.0579358
0.0586743
0.0593313
0.0598755
0.0602969
0.0606027
0.0608096
0.0609384
0.0610087
0.0610373
0.0585547
0.0585316
0.0584744
0.0583695
0.0582021
0.0579598
0.057636
0.0572348
0.0567731
0.0562811
0.0558008
0.0553747
0.0550226
0.0547461
0.0545407
0.0544154
0.054438
0.0546716
0.0550846
0.0556399
0.0563069
0.0570514
0.0578266
0.0585762
0.0592487
0.0598098
0.0602468
0.0605648
0.0607804
0.0609145
0.0609876
0.0610173
0.0585004
0.0584766
0.0584171
0.0583069
0.0581298
0.0578717
0.0575246
0.0570917
0.0565902
0.056054
0.0555346
0.0550862
0.0547298
0.0544606
0.054266
0.0541524
0.0541934
0.0544552
0.0548969
0.0554732
0.0561519
0.0569035
0.0576871
0.0584503
0.0591413
0.0597231
0.0601793
0.0605128
0.0607394
0.0608804
0.0609571
0.0609882
0.0584191
0.0583948
0.058333
0.0582169
0.0580281
0.0577494
0.0573701
0.0568908
0.0563287
0.0557239
0.0551423
0.0546547
0.0542863
0.0540243
0.0538453
0.0537525
0.0538292
0.0541452
0.0546432
0.0552634
0.0559694
0.0567369
0.0575329
0.0583112
0.0590215
0.0596246
0.060101
0.060451
0.0606893
0.0608375
0.0609181
0.0609507
0.0583008
0.0582762
0.0582123
0.0580899
0.0578872
0.0575828
0.0571608
0.056618
0.0559716
0.0552706
0.0546004
0.0540522
0.0536591
0.0534006
0.0532404
0.05318
0.0533176
0.0537254
0.0543198
0.0550178
0.0557755
0.0565735
0.0573887
0.0581831
0.0589104
0.0595314
0.0600244
0.0603881
0.0606361
0.0607903
0.0608741
0.0609078
0.0581298
0.0581051
0.0580392
0.0579099
0.0576911
0.0573553
0.0568797
0.0562552
0.0555002
0.0546759
0.0538908
0.0532586
0.0528235
0.0525593
0.0524181
0.0524037
0.0526359
0.0531857
0.0539294
0.0547509
0.0555934
0.0564428
0.0572869
0.0580979
0.0588367
0.059467
0.0599678
0.0603373
0.0605891
0.0607455
0.0608302
0.0608643
0.0578817
0.0578569
0.0577887
0.0576517
0.0574141
0.0570408
0.0565004
0.0557772
0.0548918
0.0539215
0.0529999
0.0522624
0.0517661
0.0514822
0.0513562
0.0514027
0.0517712
0.0525245
0.0534816
0.0544825
0.055451
0.0563779
0.0572626
0.0580899
0.0588309
0.0594565
0.0599501
0.0603121
0.0605575
0.0607092
0.0607909
0.0608236
0.0575202
0.057495
0.0574236
0.0572767
0.0570164
0.056599
0.055983
0.0551466
0.0541148
0.0529843
0.0519134
0.0510566
0.0504821
0.0501617
0.0500427
0.0501641
0.0507118
0.0517324
0.0529723
0.0542177
0.0553623
0.0563984
0.0573378
0.0581801
0.0589107
0.0595129
0.0599789
0.0603152
0.0605397
0.0606762
0.0607485
0.0607769
0.0569967
0.0569702
0.0568935
0.0567328
0.0564436
0.0559733
0.0552711
0.0543106
0.0531247
0.0518309
0.0506101
0.0496306
0.0489666
0.0485909
0.0484637
0.0486604
0.0494073
0.0507338
0.0523148
0.0538759
0.055261
0.0564521
0.0574706
0.0583328
0.0590433
0.0596033
0.0600196
0.0603081
0.0604922
0.0605979
0.06065
0.0606686
0.056256
0.0562265
0.0561407
0.0559597
0.0556319
0.0550968
0.0542968
0.0532053
0.0518667
0.0504191
0.0490609
0.047966
0.0472039
0.0467469
0.0465741
0.0468
0.0476855
0.04926
0.051172
0.0530982
0.0548121
0.0562433
0.0574056
0.0583279
0.0590344
0.0595495
0.0599
0.060117
0.0602341
0.0602846
0.0602981
0.0602974
0.0552552
0.0552206
0.0551204
0.0549095
0.0545294
0.053913
0.0530008
0.0517732
0.0502904
0.0487096
0.0472387
0.0460411
0.0451665
0.0445796
0.0442738
0.0443821
0.0451797
0.04674
0.0487715
0.0509572
0.0530247
0.0548114
0.0562615
0.0573778
0.0581799
0.0587092
0.0590152
0.0591534
0.0591812
0.0591511
0.059106
0.0590752
0.0540043
0.053962
0.0538405
0.0535871
0.0531356
0.0524146
0.0513697
0.0499988
0.0483871
0.0467077
0.0451594
0.0438703
0.042853
0.0420564
0.0414678
0.0411901
0.0414698
0.0424678
0.0440548
0.0460062
0.0480829
0.0500829
0.0518683
0.0533503
0.0544763
0.0552463
0.0556885
0.0558701
0.055883
0.0558145
0.0557321
0.0556799
0.0526381
0.0525897
0.0524511
0.052164
0.0516579
0.0508618
0.0497297
0.0482728
0.0465839
0.044827
0.043178
0.0417406
0.0405097
0.0394183
0.0384164
0.0375149
0.0368626
0.036679
0.0370352
0.0378686
0.039075
0.0405325
0.0421107
0.0436754
0.0451107
0.0463197
0.0472284
0.0478195
0.0481389
0.048266
0.0482869
0.0482731
0.0513552
0.0513052
0.051163
0.0508705
0.0503576
0.0495553
0.0484193
0.0469594
0.0452585
0.043464
0.0417369
0.04018
0.0387979
0.0375226
0.0362649
0.0349309
0.0335143
0.0321669
0.0310733
0.0303158
0.0299448
0.0299773
0.0303981
0.0311562
0.0321593
0.0332794
0.0343785
0.0353307
0.0360509
0.0365153
0.0367583
0.0368456
0.0503935
0.0503459
0.0502132
0.0499438
0.049474
0.0487392
0.0476939
0.0463376
0.0447348
0.0430141
0.0413337
0.0398209
0.0385253
0.0374162
0.0364064
0.0353455
0.0340651
0.0324951
0.0307851
0.0290882
0.0275448
0.0262639
0.0253225
0.0247645
0.0245937
0.0247682
0.0251991
0.0257607
0.0263166
0.0267606
0.0270423
0.0271652
0.0498279
0.0497836
0.0496643
0.0494275
0.0490191
0.0483817
0.0474703
0.046275
0.044842
0.0432797
0.0417389
0.0403676
0.0392624
0.0384459
0.0378659
0.0373736
0.0366937
0.0355247
0.033892
0.0319513
0.0298969
0.0279103
0.0261392
0.024689
0.0236163
0.022929
0.0225893
0.0225211
0.0226225
0.0227868
0.0229294
0.0230049
0.0495545
0.0495131
0.049406
0.0491993
0.0488493
0.0483071
0.0475309
0.0465048
0.0452589
0.0438804
0.042504
0.0412794
0.0403281
0.03971
0.0394059
0.0392848
0.0390323
0.0382463
0.0368428
0.0349018
0.0325943
0.030138
0.0277599
0.0256553
0.0239553
0.0227119
0.0219059
0.0214663
0.0212925
0.0212755
0.0213187
0.021356
0.0494651
0.0494265
0.0493299
0.0491487
0.0488483
0.0483888
0.0477339
0.0468656
0.045802
0.04461
0.0434022
0.0423142
0.0414689
0.040941
0.0407301
0.0407216
0.0406069
0.0399979
0.038783
0.0369741
0.0346684
0.0320333
0.0292961
0.0267052
0.0244741
0.022733
0.0215148
0.0207696
0.0203939
0.0202614
0.0202517
0.020273
0.0494729
0.0494388
0.0493543
0.0491976
0.0489408
0.0485521
0.0480016
0.0472728
0.0463765
0.0453625
0.0443184
0.0433552
0.0425783
0.0420566
0.0417927
0.0416826
0.0414578
0.0408158
0.0396651
0.0379817
0.0357987
0.033211
0.0303878
0.027563
0.0249855
0.0228532
0.021268
0.0202282
0.01965
0.0194027
0.0193442
0.0193539
0.0494735
0.0494488
0.049385
0.0492617
0.0490537
0.0487335
0.0482768
0.0476701
0.0469205
0.0460631
0.0451605
0.0442925
0.0435364
0.0429424
0.0425069
0.0421369
0.0416353
0.0408217
0.0396373
0.0380354
0.0360029
0.0335764
0.0308607
0.0280328
0.025319
0.0229467
0.0210805
0.0197816
0.0190075
0.0186408
0.0185293
0.0185266
0.0493188
0.0493134
0.0492882
0.0492206
0.0490821
0.0488433
0.0484805
0.0479813
0.0473491
0.0466058
0.0457901
0.0449519
0.0441403
0.0433875
0.0426866
0.0419625
0.0411095
0.0400737
0.0388235
0.0372904
0.0354246
0.0332142
0.030713
0.0280436
0.0253826
0.022936
0.0208996
0.0193982
0.0184468
0.0179603
0.0177909
0.0177738
0.048824
0.0488511
0.0488891
0.0489082
0.0488693
0.0487322
0.0484656
0.0480519
0.0474886
0.0467861
0.0459666
0.0450609
0.044103
0.043118
0.0421055
0.0410153
0.0398313
0.0386029
0.0373112
0.0358666
0.0341932
0.0322429
0.030024
0.0276104
0.0251334
0.0227604
0.0206778
0.0190492
0.0179527
0.0173526
0.0171219
0.0170878
0.047803
0.0478762
0.0479991
0.0481275
0.0482041
0.0481709
0.0479803
0.0476044
0.0470346
0.0462781
0.0453546
0.0442939
0.0431312
0.0418962
0.040601
0.0392198
0.0378046
0.0364689
0.0351943
0.033874
0.0324171
0.0307554
0.0288641
0.026774
0.0245698
0.0223808
0.0203684
0.0187025
0.0175088
0.0168105
0.0165178
0.016464
0.0461097
0.0462385
0.0464501
0.0466749
0.0468352
0.0468568
0.0466775
0.0462611
0.0456017
0.0447152
0.0436325
0.0423949
0.0410465
0.0396251
0.0381528
0.0366204
0.0351172
0.0337819
0.0325916
0.0314312
0.0302059
0.0288417
0.0272959
0.0255672
0.023699
0.0217779
0.0199328
0.0183223
0.0170945
0.0163254
0.0159752
0.0158992
0.0436576
0.0438413
0.0441094
0.0443585
0.044502
0.0444708
0.0442044
0.0436721
0.0428803
0.0418581
0.0406489
0.0393035
0.0378717
0.0363939
0.0348952
0.033374
0.0319292
0.0306963
0.029648
0.0286729
0.0276817
0.0266055
0.0253963
0.024035
0.0225341
0.0209405
0.0193429
0.017874
0.0166848
0.0158864
0.0154908
0.0153914
0.040405
0.0406235
0.0408648
0.0410057
0.0409895
0.0407859
0.040359
0.0396951
0.0388092
0.0377333
0.0365118
0.035194
0.0338261
0.0324441
0.0310704
0.0297051
0.0284383
0.0273857
0.026519
0.025741
0.0249753
0.0241638
0.0232628
0.022247
0.0211111
0.0198725
0.0185802
0.0173288
0.0162523
0.0154777
0.0150597
0.0149392
0.0363113
0.0365121
0.0365942
0.0364848
0.0362096
0.035792
0.0352236
0.034502
0.0336338
0.0326397
0.0315521
0.0304089
0.0292458
0.0280903
0.0269593
0.0258531
0.0248433
0.0240184
0.0233535
0.0227721
0.022215
0.0216376
0.0210052
0.0202944
0.0194934
0.0186031
0.0176426
0.0166658
0.0157721
0.0150813
0.0146751
0.0145412
0.0312829
0.0313662
0.0311649
0.0307733
0.0302924
0.0297611
0.0291763
0.0285305
0.027815
0.0270338
0.0262032
0.0253462
0.0244862
0.0236413
0.0228231
0.0220316
0.0213167
0.0207388
0.0202792
0.0198847
0.0195145
0.0191381
0.0187314
0.0182769
0.0177641
0.0171878
0.0165511
0.0158766
0.0152217
0.0146767
0.0143264
0.0141949
0.0251234
0.0249814
0.0245624
0.0240967
0.0236379
0.023196
0.0227625
0.0223242
0.0218659
0.0213821
0.0208774
0.0203626
0.0198499
0.0193496
0.018868
0.0184054
0.0179901
0.0176563
0.0173929
0.0171695
0.0169629
0.0167558
0.0165346
0.0162892
0.0160129
0.0157015
0.0153532
0.0149741
0.0145881
0.0142434
0.0139999
0.0138957
0.017584
0.0174692
0.0172497
0.017043
0.0168552
0.016684
0.0165249
0.0163713
0.0162157
0.0160546
0.0158882
0.0157195
0.015552
0.0153892
0.0152329
0.0150833
0.0149494
0.014842
0.0147576
0.0146864
0.0146211
0.0145561
0.0144872
0.0144111
0.0143259
0.0142299
0.0141224
0.0140042
0.0138811
0.013766
0.0136779
0.0136352
)
;

boundaryField
{
    movingWall
    {
        type            fixedValue;
        value           uniform 0.0135;
    }
    fixedWalls
    {
        type            zeroGradient;
    }
    floor
    {
        type            zeroGradient;
    }
    frontAndBack
    {
        type            empty;
    }
}


// ************************************************************************* //
