/*--------------------------------*- C++ -*----------------------------------*\
| =========                 |                                                 |
| \\      /  F ield         | OpenFOAM: The Open Source CFD Toolbox           |
|  \\    /   O peration     | Version:  2206                                  |
|   \\  /    A nd           | Website:  www.openfoam.com                      |
|    \\/     M anipulation  |                                                 |
\*---------------------------------------------------------------------------*/
FoamFile
{
    version     2.0;
    format      ascii;
    arch        "LSB;label=64;scalar=64";
    class       volVectorField;
    location    "561600";
    object      U;
}
// * * * * * * * * * * * * * * * * * * * * * * * * * * * * * * * * * * * * * //

dimensions      [0 1 -1 0 0 0 0];

internalField   nonuniform List<vector> 
16
(
(8.3194e-08 -8.30234e-08 0)
(1.64087e-07 -2.28589e-08 0)
(1.90522e-07 1.04586e-08 0)
(1.11927e-07 9.72034e-08 0)
(-2.14358e-08 -1.6252e-07 0)
(3.57841e-08 -8.40602e-08 0)
(4.75e-08 3.92593e-08 0)
(-4.26795e-09 2.05084e-07 0)
(-4.96407e-08 -1.02629e-07 0)
(-8.76603e-08 -9.07381e-08 0)
(-1.06212e-07 5.28835e-08 0)
(-6.76991e-08 1.41164e-07 0)
(-1.60584e-08 -2.28978e-08 0)
(-1.10403e-07 -2.94177e-08 0)
(-1.32324e-07 1.86351e-08 0)
(-3.99768e-08 3.32318e-08 0)
)
;

boundaryField
{
    movingWall
    {
        type            noSlip;
    }
    fixedWalls
    {
        type            noSlip;
    }
    frontAndBack
    {
        type            empty;
    }
}


// ************************************************************************* //
