# Probe 0 (0.25 0.25 -0.005)
#       Probe             0
#        Time
         3600   2.49493e-07
         7200   2.49804e-07
        10800   2.50028e-07
        14400   2.50188e-07
        18000   2.50304e-07
        21600   2.50387e-07
        25200   2.50446e-07
        28800   2.50488e-07
        32400   2.50518e-07
        36000   2.50539e-07
        39600   2.50554e-07
        43200   2.50565e-07
        46800   2.50572e-07
        50400   2.50578e-07
        54000   2.50582e-07
        57600   2.50584e-07
        61200   2.50586e-07
        64800   2.50587e-07
        68400   2.50588e-07
        72000   2.50589e-07
        75600   2.50589e-07
        79200   2.50589e-07
        82800   2.50589e-07
        86400   2.50589e-07
        90000   2.50589e-07
        93600   2.50589e-07
        97200   2.50589e-07
       100800   2.50589e-07
       104400   2.50588e-07
       108000   2.50588e-07
       111600   2.50588e-07
       115200   2.50587e-07
       118800   2.50587e-07
       122400   2.50587e-07
       126000   2.50587e-07
       129600   2.50586e-07
       133200   2.50586e-07
       136800   2.50586e-07
       140400   2.50585e-07
       144000   2.50585e-07
       147600   2.50585e-07
       151200   2.50584e-07
       154800   2.50584e-07
       158400   2.50584e-07
       162000   2.50584e-07
       165600   2.50583e-07
       169200   2.50583e-07
       172800   2.50583e-07
       176400   2.50582e-07
       180000   2.50582e-07
       183600   2.50582e-07
       187200   2.50582e-07
       190800   2.50581e-07
       194400   2.50581e-07
       198000   2.50581e-07
       201600   2.50581e-07
       205200    2.5058e-07
       208800    2.5058e-07
       212400    2.5058e-07
       216000    2.5058e-07
       219600    2.5058e-07
       223200   2.50579e-07
       226800   2.50579e-07
       230400   2.50579e-07
       234000   2.50579e-07
       237600   2.50579e-07
       241200   2.50578e-07
       244800   2.50578e-07
       248400   2.50578e-07
       252000   2.50578e-07
       255600   2.50578e-07
       259200   2.50577e-07
       262800   2.50577e-07
       266400   2.50577e-07
       270000   2.50577e-07
       273600   2.50577e-07
       277200   2.50577e-07
       280800   2.50577e-07
       284400   2.50576e-07
       288000   2.50576e-07
       291600   2.50576e-07
       295200   2.50576e-07
       298800   2.50576e-07
       302400   2.50576e-07
       306000   2.50576e-07
       309600   2.50575e-07
       313200   2.50575e-07
       316800   2.50575e-07
       320400   2.50575e-07
       324000   2.50575e-07
       327600   2.50575e-07
       331200   2.50575e-07
       334800   2.50575e-07
       338400   2.50575e-07
       342000   2.50574e-07
       345600   2.50574e-07
       349200   2.50574e-07
       352800   2.50574e-07
       356400   2.50574e-07
       360000   2.50574e-07
       363600   2.50574e-07
       367200   2.50574e-07
       370800   2.50574e-07
       374400   2.50574e-07
       378000   2.50574e-07
       381600   2.50573e-07
       385200   2.50573e-07
       388800   2.50573e-07
       392400   2.50573e-07
       396000   2.50573e-07
       399600   2.50573e-07
       403200   2.50573e-07
       406800   2.50573e-07
       410400   2.50573e-07
       414000   2.50573e-07
       417600   2.50573e-07
       421200   2.50573e-07
       424800   2.50573e-07
       428400   2.50572e-07
       432000   2.50572e-07
       435600   2.50572e-07
       439200   2.50572e-07
       442800   2.50572e-07
       446400   2.50572e-07
       450000   2.50572e-07
       453600   2.50572e-07
       457200   2.50572e-07
       460800   2.50572e-07
       464400   2.50572e-07
       468000   2.50572e-07
       471600   2.50572e-07
       475200   2.50572e-07
       478800   2.50572e-07
       482400   2.50572e-07
       486000   2.50572e-07
       489600   2.50572e-07
       493200   2.50571e-07
       496800   2.50571e-07
       500400   2.50571e-07
       504000   2.50571e-07
       507600   2.50571e-07
       511200   2.50571e-07
       514800   2.50571e-07
       518400   2.50571e-07
       522000   2.50571e-07
       525600   2.50571e-07
       529200   2.50571e-07
       532800   2.50571e-07
       536400   2.50571e-07
       540000   2.50571e-07
       543600   2.50571e-07
       547200   2.50571e-07
       550800   2.50571e-07
       554400   2.50571e-07
       558000   2.50571e-07
       561600   2.50571e-07
       565200   2.50571e-07
       568800   2.50571e-07
       572400   2.50571e-07
       576000   2.50571e-07
       579600    2.5057e-07
       583200    2.5057e-07
       586800    2.5057e-07
       590400    2.5057e-07
       594000    2.5057e-07
       597600    2.5057e-07
       601200    2.5057e-07
       604800    2.5057e-07
       608400    2.5057e-07
       612000    2.5057e-07
       615600    2.5057e-07
       619200    2.5057e-07
       622800    2.5057e-07
       626400    2.5057e-07
       630000    2.5057e-07
       633600    2.5057e-07
       637200    2.5057e-07
       640800    2.5057e-07
       644400    2.5057e-07
       648000    2.5057e-07
       651600    2.5057e-07
       655200    2.5057e-07
       658800    2.5057e-07
       662400    2.5057e-07
       666000    2.5057e-07
       669600    2.5057e-07
       673200    2.5057e-07
       676800    2.5057e-07
       680400    2.5057e-07
       684000    2.5057e-07
       687600    2.5057e-07
       691200    2.5057e-07
       694800    2.5057e-07
       698400   2.50569e-07
       702000   2.50569e-07
       705600   2.50569e-07
       709200   2.50569e-07
       712800   2.50569e-07
       716400   2.50569e-07
       720000   2.50569e-07
       723600   2.50569e-07
       727200   2.50569e-07
       730800   2.50569e-07
       734400   2.50569e-07
       738000   2.50569e-07
       741600   2.50569e-07
       745200   2.50569e-07
       748800   2.50569e-07
       752400   2.50569e-07
       756000   2.50569e-07
       759600   2.50569e-07
       763200   2.50569e-07
       766800   2.50569e-07
       770400   2.50569e-07
       774000   2.50569e-07
       777600   2.50569e-07
       781200   2.50569e-07
       784800   2.50569e-07
       788400   2.50569e-07
       792000   2.50569e-07
       795600   2.50569e-07
       799200   2.50569e-07
       802800   2.50569e-07
       806400   2.50569e-07
       810000   2.50569e-07
       813600   2.50569e-07
       817200   2.50569e-07
       820800   2.50569e-07
       824400   2.50569e-07
       828000   2.50569e-07
       831600   2.50569e-07
       835200   2.50569e-07
       838800   2.50569e-07
       842400   2.50569e-07
       846000   2.50569e-07
       849600   2.50568e-07
       853200   2.50568e-07
       856800   2.50568e-07
       860400   2.50568e-07
       864000   2.50568e-07
