# Probe 0 (0.25 0.25 -0.005)
#       Probe             0
#        Time
         3600       94.4999
         7200       94.4999
        10800          94.5
        14400          94.5
        18000          94.5
        21600          94.5
        25200          94.5
        28800          94.5
        32400          94.5
        36000          94.5
        39600       94.4999
        43200       94.4999
        46800       94.4999
        50400       94.4998
        54000       94.4998
        57600       94.4998
        61200       94.4997
        64800       94.4997
        68400       94.4997
        72000       94.4996
        75600       94.4996
        79200       94.4996
        82800       94.4995
        86400       94.4995
        90000       94.4995
        93600       94.4994
        97200       94.4994
       100800       94.4993
       104400       94.4993
       108000       94.4993
       111600       94.4992
       115200       94.4992
       118800       94.4992
       122400       94.4991
       126000       94.4991
       129600       94.4991
       133200        94.499
       136800        94.499
       140400        94.499
       144000       94.4989
       147600       94.4989
       151200       94.4989
       154800       94.4988
       158400       94.4988
       162000       94.4988
       165600       94.4987
       169200       94.4987
       172800       94.4987
       176400       94.4986
       180000       94.4986
       183600       94.4986
       187200       94.4985
       190800       94.4985
       194400       94.4985
       198000       94.4984
       201600       94.4984
       205200       94.4984
       208800       94.4983
       212400       94.4983
       216000       94.4983
       219600       94.4982
       223200       94.4982
       226800       94.4982
       230400       94.4981
       234000       94.4981
       237600       94.4981
       241200       94.4981
       244800        94.498
       248400        94.498
       252000        94.498
       255600       94.4979
       259200       94.4979
       262800       94.4979
       266400       94.4978
       270000       94.4978
       273600       94.4978
       277200       94.4978
       280800       94.4977
       284400       94.4977
       288000       94.4977
       291600       94.4976
       295200       94.4976
       298800       94.4976
       302400       94.4975
       306000       94.4975
       309600       94.4975
       313200       94.4975
       316800       94.4974
       320400       94.4974
       324000       94.4974
       327600       94.4974
       331200       94.4973
       334800       94.4973
       338400       94.4973
       342000       94.4972
       345600       94.4972
       349200       94.4972
       352800       94.4972
       356400       94.4971
       360000       94.4971
       363600       94.4971
       367200       94.4971
       370800        94.497
       374400        94.497
       378000        94.497
       381600        94.497
       385200       94.4969
       388800       94.4969
       392400       94.4969
       396000       94.4969
       399600       94.4968
       403200       94.4968
       406800       94.4968
       410400       94.4968
       414000       94.4967
       417600       94.4967
       421200       94.4967
       424800       94.4967
       428400       94.4966
       432000       94.4966
       435600       94.4966
       439200       94.4966
       442800       94.4965
       446400       94.4965
       450000       94.4965
       453600       94.4965
       457200       94.4964
       460800       94.4964
       464400       94.4964
       468000       94.4964
       471600       94.4963
       475200       94.4963
       478800       94.4963
       482400       94.4963
       486000       94.4963
       489600       94.4962
       493200       94.4962
       496800       94.4962
       500400       94.4962
       504000       94.4961
       507600       94.4961
       511200       94.4961
       514800       94.4961
       518400       94.4961
       522000        94.496
       525600        94.496
       529200        94.496
       532800        94.496
       536400       94.4959
       540000       94.4959
       543600       94.4959
       547200       94.4959
       550800       94.4959
       554400       94.4958
       558000       94.4958
       561600       94.4958
       565200       94.4958
       568800       94.4958
       572400       94.4957
       576000       94.4957
       579600       94.4957
       583200       94.4957
       586800       94.4957
       590400       94.4956
       594000       94.4956
       597600       94.4956
       601200       94.4956
       604800       94.4956
       608400       94.4955
       612000       94.4955
       615600       94.4955
       619200       94.4955
       622800       94.4955
       626400       94.4955
       630000       94.4954
       633600       94.4954
       637200       94.4954
       640800       94.4954
       644400       94.4954
       648000       94.4953
       651600       94.4953
       655200       94.4953
       658800       94.4953
       662400       94.4953
       666000       94.4953
       669600       94.4952
       673200       94.4952
       676800       94.4952
       680400       94.4952
       684000       94.4952
       687600       94.4952
       691200       94.4951
       694800       94.4951
       698400       94.4951
       702000       94.4951
       705600       94.4951
       709200       94.4951
       712800        94.495
       716400        94.495
       720000        94.495
       723600        94.495
       727200        94.495
       730800        94.495
       734400       94.4949
       738000       94.4949
       741600       94.4949
       745200       94.4949
       748800       94.4949
       752400       94.4949
       756000       94.4948
       759600       94.4948
       763200       94.4948
       766800       94.4948
       770400       94.4948
       774000       94.4948
       777600       94.4948
       781200       94.4947
       784800       94.4947
       788400       94.4947
       792000       94.4947
       795600       94.4947
       799200       94.4947
       802800       94.4947
       806400       94.4946
       810000       94.4946
       813600       94.4946
       817200       94.4946
       820800       94.4946
       824400       94.4946
       828000       94.4946
       831600       94.4945
       835200       94.4945
       838800       94.4945
       842400       94.4945
       846000       94.4945
       849600       94.4945
       853200       94.4945
       856800       94.4945
       860400       94.4944
       864000       94.4944
