/*--------------------------------*- C++ -*----------------------------------*\
| =========                 |                                                 |
| \\      /  F ield         | OpenFOAM: The Open Source CFD Toolbox           |
|  \\    /   O peration     | Version:  2212                                  |
|   \\  /    A nd           | Website:  www.openfoam.com                      |
|    \\/     M anipulation  |                                                 |
\*---------------------------------------------------------------------------*/
FoamFile
{
    version     2.0;
    format      ascii;
    arch        "LSB;label=64;scalar=64";
    class       volScalarField;
    location    "870";
    object      Saa;
}
// * * * * * * * * * * * * * * * * * * * * * * * * * * * * * * * * * * * * * //

dimensions      [1 -3 0 0 0 0 0];

internalField   nonuniform List<scalar> 
1024
(
0.00547057
0.00547061
0.0054707
0.00547086
0.0054711
0.00547143
0.00547183
0.00547227
0.00547272
0.00547315
0.00547354
0.00547387
0.0054741
0.00547422
0.00547418
0.00547395
0.0054735
0.00547291
0.00547227
0.00547158
0.00547085
0.00547006
0.00546923
0.0054684
0.00546762
0.00546694
0.00546639
0.00546597
0.00546569
0.00546551
0.0054654
0.00546536
0.00547057
0.00547061
0.0054707
0.00547087
0.00547112
0.00547145
0.00547185
0.0054723
0.00547275
0.00547318
0.00547357
0.00547389
0.00547412
0.00547424
0.0054742
0.00547397
0.00547352
0.00547293
0.0054723
0.00547161
0.00547089
0.0054701
0.00546928
0.00546844
0.00546766
0.00546697
0.00546642
0.005466
0.0054657
0.00546552
0.00546542
0.00546537
0.00547058
0.00547062
0.00547072
0.00547089
0.00547114
0.00547149
0.00547189
0.00547234
0.00547279
0.00547323
0.00547363
0.00547396
0.00547419
0.0054743
0.00547425
0.00547401
0.00547356
0.00547298
0.00547235
0.00547168
0.00547096
0.00547019
0.00546937
0.00546854
0.00546775
0.00546705
0.00546648
0.00546605
0.00546574
0.00546555
0.00546545
0.0054654
0.00547059
0.00547063
0.00547073
0.00547091
0.00547117
0.00547152
0.00547193
0.00547239
0.00547285
0.0054733
0.00547372
0.00547407
0.00547431
0.0054744
0.00547434
0.00547408
0.00547362
0.00547304
0.00547242
0.00547177
0.00547107
0.00547032
0.00546952
0.00546869
0.0054679
0.00546718
0.00546658
0.00546613
0.00546581
0.00546561
0.00546549
0.00546545
0.00547059
0.00547064
0.00547074
0.00547092
0.00547119
0.00547154
0.00547196
0.00547242
0.00547291
0.00547339
0.00547386
0.00547424
0.00547449
0.00547456
0.00547446
0.00547416
0.00547367
0.00547309
0.00547248
0.00547185
0.00547119
0.00547047
0.0054697
0.00546889
0.00546809
0.00546735
0.00546673
0.00546625
0.0054659
0.00546569
0.00546557
0.00546552
0.00547059
0.00547063
0.00547074
0.00547092
0.00547118
0.00547154
0.00547196
0.00547244
0.00547295
0.00547349
0.00547403
0.00547447
0.00547473
0.00547478
0.0054746
0.00547423
0.0054737
0.0054731
0.00547251
0.0054719
0.00547128
0.0054706
0.00546987
0.00546909
0.0054683
0.00546755
0.0054669
0.00546639
0.00546602
0.00546579
0.00546566
0.00546561
0.00547057
0.00547061
0.00547071
0.00547089
0.00547115
0.00547149
0.00547192
0.00547242
0.00547298
0.0054736
0.00547423
0.00547475
0.00547503
0.00547502
0.00547475
0.00547427
0.00547366
0.00547303
0.00547245
0.00547188
0.0054713
0.00547068
0.00547001
0.00546927
0.00546849
0.00546774
0.00546708
0.00546654
0.00546615
0.0054659
0.00546577
0.00546571
0.00547053
0.00547057
0.00547066
0.00547083
0.00547107
0.00547141
0.00547184
0.00547236
0.00547298
0.00547369
0.00547444
0.00547504
0.00547534
0.00547525
0.00547485
0.00547421
0.00547349
0.00547282
0.00547224
0.00547171
0.0054712
0.00547065
0.00547004
0.00546936
0.00546863
0.00546789
0.00546723
0.00546668
0.00546628
0.00546602
0.00546588
0.00546582
0.00547046
0.0054705
0.00547058
0.00547073
0.00547096
0.00547128
0.00547171
0.00547226
0.00547295
0.00547379
0.00547466
0.00547535
0.00547562
0.00547541
0.00547482
0.00547398
0.00547311
0.0054724
0.00547183
0.00547136
0.00547092
0.00547046
0.00546994
0.00546933
0.00546865
0.00546796
0.00546731
0.00546677
0.00546637
0.00546611
0.00546597
0.00546591
0.00547037
0.00547041
0.00547048
0.00547062
0.00547083
0.00547113
0.00547157
0.00547216
0.00547295
0.00547393
0.00547494
0.00547567
0.00547586
0.00547545
0.00547458
0.00547348
0.00547244
0.00547168
0.00547115
0.00547075
0.00547041
0.00547005
0.00546964
0.00546912
0.00546853
0.00546789
0.00546729
0.00546679
0.00546641
0.00546616
0.00546603
0.00546597
0.0054703
0.00547033
0.00547039
0.00547051
0.00547071
0.00547102
0.00547148
0.00547215
0.00547307
0.00547421
0.00547532
0.00547603
0.00547603
0.00547531
0.00547408
0.00547265
0.00547142
0.00547062
0.00547014
0.00546985
0.00546963
0.00546941
0.00546912
0.00546872
0.00546822
0.00546768
0.00546715
0.00546671
0.00546637
0.00546614
0.00546602
0.00546596
0.00547035
0.00547037
0.00547043
0.00547054
0.00547075
0.00547108
0.00547161
0.0054724
0.00547347
0.00547474
0.00547587
0.00547643
0.00547613
0.00547499
0.00547332
0.00547152
0.00547007
0.00546923
0.00546883
0.00546866
0.0054686
0.00546852
0.00546837
0.0054681
0.00546773
0.0054673
0.00546687
0.0054665
0.00546622
0.00546602
0.00546591
0.00546586
0.00547071
0.00547073
0.00547079
0.00547091
0.00547115
0.00547155
0.00547219
0.00547311
0.00547432
0.00547562
0.00547663
0.00547689
0.00547615
0.00547455
0.00547244
0.00547026
0.00546858
0.00546768
0.00546734
0.0054673
0.00546737
0.00546744
0.00546743
0.0054673
0.00546706
0.00546675
0.00546644
0.00546616
0.00546593
0.00546577
0.00546566
0.00546561
0.00547163
0.00547166
0.00547173
0.00547188
0.00547217
0.00547267
0.00547342
0.00547445
0.00547568
0.00547684
0.00547753
0.00547735
0.00547617
0.00547417
0.00547175
0.0054693
0.00546739
0.00546637
0.005466
0.00546598
0.00546611
0.00546627
0.00546636
0.00546635
0.00546624
0.00546605
0.00546584
0.00546563
0.00546545
0.00546531
0.00546521
0.00546517
0.0054732
0.00547324
0.00547333
0.00547353
0.00547388
0.00547445
0.00547526
0.00547628
0.00547737
0.00547823
0.00547849
0.00547789
0.00547644
0.00547434
0.00547188
0.00546938
0.00546731
0.00546605
0.00546543
0.00546518
0.00546514
0.00546517
0.00546521
0.00546521
0.00546514
0.00546504
0.0054649
0.00546477
0.00546466
0.00546458
0.00546453
0.00546451
0.00547519
0.00547523
0.00547534
0.00547557
0.00547596
0.00547654
0.00547733
0.00547825
0.0054791
0.00547962
0.00547958
0.00547888
0.00547759
0.00547588
0.00547388
0.00547176
0.00546983
0.00546838
0.00546736
0.00546662
0.00546603
0.00546556
0.00546518
0.0054649
0.00546472
0.00546465
0.00546467
0.00546478
0.00546493
0.00546508
0.0054652
0.00546526
0.00547698
0.00547702
0.00547714
0.00547737
0.00547777
0.00547834
0.00547908
0.00547989
0.00548061
0.00548105
0.00548112
0.00548082
0.00548026
0.00547952
0.00547868
0.00547779
0.00547701
0.00547644
0.00547605
0.00547574
0.00547543
0.00547509
0.00547471
0.00547432
0.00547395
0.00547362
0.00547337
0.00547323
0.00547319
0.00547322
0.00547328
0.00547332
0.00547805
0.00547809
0.0054782
0.00547842
0.00547877
0.0054793
0.00547998
0.00548075
0.00548151
0.00548213
0.00548256
0.00548283
0.00548307
0.00548336
0.00548378
0.00548441
0.00548529
0.00548632
0.00548733
0.00548824
0.00548899
0.00548952
0.00548981
0.00548984
0.00548962
0.00548918
0.00548858
0.00548793
0.00548732
0.00548686
0.00548658
0.00548647
0.00547863
0.00547866
0.00547876
0.00547895
0.00547926
0.00547973
0.00548033
0.00548105
0.0054818
0.0054825
0.0054831
0.00548365
0.00548424
0.00548499
0.005486
0.00548735
0.00548901
0.00549071
0.00549223
0.00549353
0.00549462
0.0054955
0.00549616
0.0054966
0.00549681
0.00549679
0.00549655
0.00549616
0.0054957
0.00549527
0.00549496
0.00549482
0.00547893
0.00547896
0.00547905
0.00547921
0.00547948
0.00547988
0.00548042
0.00548107
0.00548177
0.00548246
0.0054831
0.00548371
0.00548437
0.00548519
0.00548628
0.00548772
0.00548945
0.00549115
0.00549257
0.00549374
0.0054947
0.00549552
0.00549623
0.00549684
0.00549734
0.00549771
0.00549794
0.00549802
0.00549799
0.00549788
0.00549777
0.00549771
0.00547908
0.00547911
0.00547918
0.00547932
0.00547956
0.00547991
0.00548037
0.00548094
0.00548158
0.00548223
0.00548285
0.00548345
0.00548409
0.00548486
0.00548586
0.00548718
0.00548875
0.00549027
0.00549155
0.00549262
0.00549355
0.00549443
0.00549529
0.0054961
0.00549683
0.00549743
0.00549787
0.00549817
0.00549833
0.00549839
0.0054984
0.00549839
0.00547916
0.00547918
0.00547924
0.00547936
0.00547956
0.00547986
0.00548026
0.00548077
0.00548134
0.00548194
0.00548254
0.00548314
0.00548378
0.00548452
0.00548544
0.00548662
0.00548801
0.00548937
0.00549054
0.00549156
0.00549251
0.00549347
0.00549445
0.00549543
0.00549635
0.00549714
0.00549776
0.00549819
0.00549845
0.00549859
0.00549864
0.00549865
0.00547925
0.00547927
0.00547931
0.0054794
0.00547956
0.00547981
0.00548016
0.00548061
0.00548114
0.00548172
0.00548234
0.00548297
0.00548365
0.00548442
0.00548533
0.00548644
0.0054877
0.00548893
0.00549001
0.00549099
0.00549194
0.00549291
0.00549393
0.00549497
0.00549599
0.00549691
0.00549766
0.00549821
0.00549856
0.00549875
0.00549882
0.00549884
0.00547948
0.00547948
0.00547949
0.00547954
0.00547965
0.00547985
0.00548016
0.00548058
0.0054811
0.00548171
0.00548238
0.0054831
0.00548388
0.00548473
0.00548568
0.00548677
0.00548794
0.00548906
0.00549006
0.00549098
0.00549188
0.00549281
0.00549378
0.0054948
0.00549582
0.00549678
0.0054976
0.00549824
0.00549866
0.0054989
0.005499
0.00549903
0.00547997
0.00547994
0.0054799
0.00547989
0.00547995
0.00548011
0.00548039
0.00548082
0.00548139
0.00548207
0.00548284
0.00548368
0.00548457
0.00548551
0.00548651
0.00548759
0.00548869
0.00548971
0.00549062
0.00549145
0.00549226
0.0054931
0.00549399
0.00549492
0.00549587
0.00549679
0.00549762
0.00549829
0.00549876
0.00549904
0.00549917
0.0054992
0.00548085
0.00548078
0.00548068
0.00548061
0.00548062
0.00548076
0.00548107
0.00548155
0.0054822
0.00548299
0.00548387
0.00548481
0.00548579
0.00548678
0.0054878
0.00548885
0.00548987
0.00549078
0.00549157
0.00549229
0.00549299
0.00549371
0.00549446
0.00549527
0.0054961
0.00549693
0.00549771
0.00549837
0.00549887
0.00549918
0.00549932
0.00549936
0.00548221
0.0054821
0.00548195
0.00548184
0.00548184
0.00548202
0.00548239
0.00548296
0.0054837
0.00548457
0.00548552
0.00548651
0.0054875
0.00548849
0.00548947
0.00549043
0.00549134
0.00549212
0.00549279
0.00549339
0.00549396
0.00549455
0.00549516
0.00549581
0.0054965
0.0054972
0.00549789
0.0054985
0.00549898
0.0054993
0.00549946
0.00549951
0.00548408
0.00548394
0.00548379
0.00548372
0.00548379
0.00548405
0.0054845
0.00548514
0.00548592
0.00548681
0.00548774
0.00548868
0.00548962
0.00549052
0.00549139
0.00549222
0.00549299
0.00549363
0.00549416
0.00549464
0.00549508
0.00549553
0.005496
0.0054965
0.00549703
0.00549759
0.00549815
0.00549868
0.00549911
0.00549942
0.00549958
0.00549964
0.00548649
0.00548636
0.00548629
0.00548634
0.00548654
0.00548689
0.0054874
0.00548803
0.00548876
0.00548956
0.00549038
0.00549119
0.00549197
0.00549272
0.00549343
0.00549409
0.00549469
0.00549518
0.00549559
0.00549594
0.00549627
0.00549659
0.00549692
0.00549728
0.00549766
0.00549807
0.00549849
0.0054989
0.00549927
0.00549954
0.00549969
0.00549975
0.00548948
0.00548942
0.00548951
0.00548973
0.00549003
0.00549041
0.00549087
0.0054914
0.00549199
0.0054926
0.00549322
0.00549383
0.00549441
0.00549496
0.00549547
0.00549594
0.00549636
0.0054967
0.00549698
0.00549722
0.00549743
0.00549765
0.00549787
0.0054981
0.00549835
0.00549861
0.00549889
0.00549918
0.00549945
0.00549966
0.00549979
0.00549984
0.00549314
0.00549322
0.00549345
0.00549371
0.00549399
0.00549428
0.0054946
0.00549494
0.00549531
0.00549569
0.00549607
0.00549643
0.00549678
0.0054971
0.0054974
0.00549768
0.00549793
0.00549812
0.00549828
0.00549841
0.00549854
0.00549865
0.00549877
0.0054989
0.00549903
0.00549918
0.00549934
0.0054995
0.00549965
0.00549979
0.00549988
0.00549992
0.0054976
0.00549766
0.00549779
0.00549791
0.00549802
0.00549813
0.00549824
0.00549836
0.00549848
0.00549861
0.00549873
0.00549885
0.00549897
0.00549907
0.00549917
0.00549926
0.00549934
0.0054994
0.00549945
0.00549949
0.00549953
0.00549957
0.00549961
0.00549965
0.00549969
0.00549973
0.00549978
0.00549983
0.00549988
0.00549993
0.00549996
0.00549997
)
;

boundaryField
{
    movingWall
    {
        type            fixedValue;
        value           uniform 0.0055;
    }
    fixedWalls
    {
        type            zeroGradient;
    }
    floor
    {
        type            zeroGradient;
    }
    frontAndBack
    {
        type            empty;
    }
}


// ************************************************************************* //
