/*--------------------------------*- C++ -*----------------------------------*\
| =========                 |                                                 |
| \\      /  F ield         | OpenFOAM: The Open Source CFD Toolbox           |
|  \\    /   O peration     | Version:  2212                                  |
|   \\  /    A nd           | Website:  www.openfoam.com                      |
|    \\/     M anipulation  |                                                 |
\*---------------------------------------------------------------------------*/
FoamFile
{
    version     2.0;
    format      ascii;
    arch        "LSB;label=64;scalar=64";
    class       volScalarField;
    location    "870";
    object      Xpr;
}
// * * * * * * * * * * * * * * * * * * * * * * * * * * * * * * * * * * * * * //

dimensions      [1 -3 0 0 0 0 0];

internalField   nonuniform List<scalar> 
1024
(
0.0819992
0.0820012
0.0820062
0.0820148
0.082028
0.0820457
0.0820673
0.0820915
0.0821163
0.0821404
0.0821623
0.0821809
0.0821946
0.082202
0.0822012
0.0821899
0.0821669
0.0821366
0.0821033
0.0820678
0.08203
0.0819897
0.0819477
0.0819058
0.0818667
0.0818327
0.0818053
0.0817848
0.0817705
0.0817615
0.0817565
0.0817544
0.0819994
0.0820015
0.0820065
0.0820154
0.0820289
0.0820469
0.0820687
0.0820929
0.0821178
0.0821419
0.0821639
0.0821825
0.0821962
0.0822035
0.0822027
0.0821913
0.0821684
0.0821382
0.082105
0.0820697
0.0820321
0.081992
0.0819501
0.0819082
0.0818689
0.0818346
0.0818068
0.0817859
0.0817714
0.0817622
0.0817571
0.081755
0.0819998
0.0820019
0.0820072
0.0820164
0.0820303
0.0820488
0.082071
0.0820954
0.0821205
0.0821449
0.0821675
0.0821865
0.0822003
0.0822074
0.0822061
0.0821943
0.0821712
0.0821411
0.0821082
0.0820734
0.0820363
0.0819968
0.0819552
0.0819133
0.0818736
0.0818386
0.08181
0.0817884
0.0817733
0.0817638
0.0817585
0.0817564
0.0820002
0.0820025
0.082008
0.0820176
0.0820319
0.0820508
0.0820734
0.0820983
0.0821239
0.0821494
0.0821735
0.0821937
0.0822078
0.0822143
0.0822119
0.082199
0.0821753
0.0821451
0.0821126
0.0820785
0.0820423
0.0820037
0.0819629
0.0819211
0.0818809
0.081845
0.0818153
0.0817926
0.0817767
0.0817666
0.081761
0.0817587
0.0820006
0.0820029
0.0820085
0.0820183
0.0820329
0.0820522
0.0820752
0.0821007
0.0821276
0.0821552
0.0821821
0.0822047
0.0822195
0.0822251
0.0822206
0.0822053
0.08218
0.0821494
0.0821172
0.0820839
0.0820491
0.0820119
0.0819723
0.0819311
0.0818906
0.0818537
0.0818225
0.0817985
0.0817814
0.0817706
0.0817646
0.0817622
0.0820006
0.0820029
0.0820085
0.0820182
0.0820328
0.0820522
0.0820756
0.0821021
0.082131
0.0821618
0.082193
0.0822194
0.0822356
0.0822398
0.0822319
0.0822126
0.0821843
0.0821524
0.0821204
0.0820882
0.082055
0.0820198
0.081982
0.0819419
0.0819016
0.0818638
0.0818313
0.0818057
0.0817874
0.0817758
0.0817694
0.0817668
0.0819997
0.082002
0.0820074
0.0820168
0.082031
0.0820502
0.0820738
0.0821016
0.0821333
0.0821687
0.0822056
0.082237
0.0822552
0.0822574
0.0822447
0.0822194
0.0821864
0.0821524
0.0821202
0.0820891
0.0820579
0.0820252
0.0819898
0.0819516
0.0819121
0.081874
0.0818404
0.0818136
0.0817942
0.0817817
0.0817749
0.0817721
0.0819977
0.0819998
0.0820049
0.0820138
0.0820273
0.0820458
0.0820696
0.0820989
0.0821341
0.0821753
0.0822192
0.0822565
0.0822766
0.0822758
0.0822563
0.0822229
0.0821833
0.0821462
0.0821137
0.0820839
0.0820552
0.0820255
0.0819932
0.0819575
0.0819196
0.0818821
0.0818483
0.0818208
0.0818006
0.0817876
0.0817805
0.0817777
0.0819943
0.0819963
0.0820009
0.082009
0.0820215
0.0820393
0.0820632
0.0820942
0.0821338
0.082182
0.082234
0.082277
0.0822978
0.0822918
0.0822628
0.0822186
0.0821709
0.0821301
0.0820974
0.0820696
0.082044
0.082018
0.0819894
0.0819572
0.0819218
0.081886
0.081853
0.0818258
0.0818056
0.0817926
0.0817854
0.0817825
0.0819898
0.0819915
0.0819957
0.0820031
0.0820146
0.0820316
0.0820558
0.0820894
0.0821347
0.0821913
0.0822517
0.0822989
0.0823173
0.0823021
0.0822598
0.0822018
0.0821443
0.0820998
0.0820675
0.0820427
0.0820213
0.0820001
0.0819762
0.0819483
0.0819166
0.0818836
0.0818528
0.0818271
0.0818079
0.0817954
0.0817884
0.0817856
0.0819862
0.0819877
0.0819913
0.081998
0.082009
0.082026
0.0820517
0.0820895
0.0821422
0.0822081
0.0822756
0.0823236
0.0823344
0.0823045
0.0822439
0.0821685
0.0820996
0.0820517
0.0820212
0.0820008
0.0819851
0.0819699
0.0819519
0.0819292
0.0819024
0.0818737
0.0818464
0.0818234
0.0818062
0.0817948
0.0817883
0.0817856
0.0819891
0.0819903
0.0819935
0.0819999
0.0820112
0.0820298
0.0820593
0.0821035
0.0821651
0.0822394
0.08231
0.0823526
0.082349
0.0822985
0.0822151
0.0821191
0.0820372
0.081986
0.0819582
0.0819436
0.081935
0.081927
0.0819157
0.0818994
0.0818786
0.0818554
0.081833
0.0818138
0.0817992
0.0817893
0.0817835
0.0817809
0.0820088
0.0820099
0.0820131
0.0820201
0.0820332
0.0820555
0.0820911
0.0821437
0.0822134
0.0822914
0.0823574
0.0823861
0.0823615
0.0822867
0.0821792
0.0820621
0.081966
0.0819104
0.0818847
0.0818755
0.0818738
0.081873
0.081869
0.0818596
0.0818454
0.0818286
0.0818118
0.081797
0.0817853
0.0817769
0.0817717
0.0817693
0.082058
0.0820593
0.0820634
0.0820721
0.0820885
0.0821161
0.0821587
0.0822181
0.0822908
0.082364
0.0824156
0.0824228
0.082375
0.0822791
0.0821534
0.0820195
0.0819095
0.0818455
0.0818168
0.0818083
0.0818096
0.0818133
0.0818148
0.0818118
0.0818043
0.0817939
0.0817824
0.0817715
0.0817621
0.0817549
0.0817502
0.0817479
0.0821413
0.0821433
0.0821487
0.08216
0.0821802
0.0822128
0.08226
0.0823211
0.0823888
0.0824484
0.0824796
0.0824659
0.0824034
0.0823006
0.0821717
0.0820331
0.0819129
0.0818344
0.0817912
0.08177
0.0817609
0.0817577
0.0817561
0.0817534
0.0817488
0.0817425
0.0817355
0.0817291
0.0817241
0.0817209
0.0817191
0.0817184
0.0822467
0.0822492
0.082256
0.0822694
0.0822923
0.0823275
0.0823755
0.0824332
0.0824913
0.0825359
0.0825526
0.0825334
0.0824794
0.082397
0.0822935
0.0821769
0.0820655
0.0819781
0.081914
0.081866
0.081827
0.0817952
0.0817701
0.0817516
0.0817403
0.0817362
0.0817387
0.0817465
0.0817571
0.0817675
0.0817755
0.0817795
0.082341
0.0823438
0.0823513
0.0823658
0.0823901
0.082426
0.0824732
0.0825274
0.0825804
0.0826218
0.0826445
0.0826472
0.0826336
0.0826077
0.0825723
0.0825312
0.0824927
0.082464
0.0824437
0.0824276
0.0824102
0.0823906
0.0823685
0.082345
0.082322
0.0823017
0.0822864
0.0822777
0.0822753
0.0822774
0.0822811
0.0822837
0.0823948
0.0823975
0.0824045
0.082418
0.0824405
0.0824736
0.0825173
0.0825687
0.0826223
0.0826717
0.082713
0.0827474
0.0827798
0.0828152
0.0828575
0.0829116
0.0829796
0.0830548
0.0831278
0.0831941
0.0832493
0.0832901
0.0833142
0.0833205
0.0833093
0.0832828
0.0832452
0.0832029
0.0831634
0.0831332
0.083115
0.0831077
0.0824205
0.0824228
0.0824291
0.082441
0.0824606
0.0824894
0.0825276
0.0825737
0.0826238
0.0826738
0.0827213
0.0827678
0.0828187
0.0828804
0.0829588
0.0830594
0.083179
0.0833007
0.0834112
0.0835092
0.0835943
0.0836659
0.0837227
0.0837629
0.0837853
0.0837893
0.0837764
0.0837506
0.0837187
0.0836888
0.0836676
0.0836575
0.082431
0.0824332
0.0824386
0.0824489
0.0824657
0.0824902
0.082523
0.0825629
0.0826074
0.0826533
0.0826988
0.0827449
0.0827964
0.0828599
0.0829419
0.0830483
0.0831735
0.0832962
0.083403
0.0834955
0.0835778
0.0836531
0.083722
0.083783
0.0838335
0.0838707
0.0838932
0.0839018
0.0838992
0.0838902
0.0838807
0.083875
0.0824337
0.0824356
0.0824404
0.0824492
0.0824634
0.0824842
0.0825119
0.082546
0.0825846
0.0826253
0.0826665
0.082709
0.0827565
0.0828146
0.0828898
0.0829875
0.0831024
0.0832141
0.0833113
0.0833975
0.0834791
0.0835614
0.0836447
0.0837258
0.0837992
0.0838598
0.0839045
0.0839329
0.0839471
0.0839512
0.08395
0.0839481
0.0824338
0.0824353
0.0824392
0.0824465
0.0824584
0.0824758
0.0824993
0.0825285
0.0825622
0.0825989
0.0826374
0.0826781
0.0827238
0.0827789
0.0828487
0.0829376
0.083041
0.0831419
0.0832314
0.0833136
0.0833952
0.083482
0.0835749
0.0836704
0.0837619
0.0838419
0.0839047
0.0839481
0.0839734
0.0839848
0.0839876
0.0839872
0.0824377
0.0824384
0.0824409
0.082446
0.0824552
0.0824695
0.0824896
0.0825155
0.0825466
0.0825822
0.0826214
0.0826646
0.0827134
0.0827708
0.0828402
0.0829248
0.0830201
0.0831127
0.0831963
0.0832751
0.0833549
0.0834409
0.0835349
0.0836346
0.0837345
0.0838265
0.083903
0.0839592
0.0839946
0.0840125
0.0840184
0.0840188
0.082454
0.0824533
0.0824531
0.0824549
0.0824606
0.0824718
0.0824895
0.0825144
0.0825464
0.0825851
0.0826298
0.0826802
0.0827367
0.0828006
0.0828738
0.0829577
0.083048
0.0831338
0.0832116
0.0832856
0.0833608
0.0834417
0.0835305
0.0836263
0.0837251
0.0838203
0.083904
0.0839693
0.0840132
0.0840371
0.0840462
0.0840475
0.0824932
0.0824902
0.0824859
0.082483
0.0824845
0.0824929
0.0825103
0.0825375
0.0825747
0.0826211
0.0826753
0.082736
0.0828022
0.0828739
0.0829515
0.0830356
0.0831215
0.0832006
0.0832715
0.0833385
0.0834062
0.0834786
0.083558
0.0836446
0.0837358
0.0838268
0.0839108
0.0839804
0.0840302
0.0840593
0.0840715
0.0840737
0.0825654
0.0825593
0.0825501
0.0825422
0.0825401
0.0825478
0.082568
0.0826015
0.0826476
0.0827043
0.0827692
0.0828397
0.0829139
0.082991
0.0830705
0.0831526
0.0832327
0.083304
0.0833665
0.0834247
0.0834827
0.0835442
0.0836116
0.0836855
0.083765
0.0838467
0.0839253
0.0839941
0.0840465
0.0840794
0.0840943
0.0840976
0.0826781
0.0826686
0.0826554
0.0826449
0.0826429
0.082654
0.0826807
0.0827229
0.0827784
0.0828442
0.0829165
0.0829923
0.0830694
0.0831465
0.0832232
0.0832995
0.0833713
0.0834331
0.083486
0.0835344
0.0835818
0.0836315
0.0836856
0.0837453
0.0838105
0.0838793
0.0839483
0.0840118
0.0840632
0.0840978
0.0841149
0.0841193
0.0828354
0.0828234
0.08281
0.082803
0.0828073
0.0828263
0.0828613
0.0829107
0.0829715
0.0830402
0.083113
0.0831868
0.0832597
0.0833307
0.0833992
0.0834655
0.0835263
0.0835772
0.0836199
0.0836581
0.0836949
0.083733
0.0837741
0.0838195
0.0838696
0.0839237
0.08398
0.0840345
0.0840814
0.0841151
0.0841333
0.0841386
0.0830396
0.083028
0.0830215
0.0830255
0.083041
0.083069
0.0831091
0.0831596
0.083218
0.083281
0.0833458
0.0834099
0.0834719
0.0835309
0.0835869
0.0836399
0.0836876
0.0837267
0.0837589
0.0837873
0.0838142
0.0838416
0.0838708
0.0839031
0.0839388
0.083978
0.0840201
0.0840629
0.0841019
0.084132
0.0841498
0.0841556
0.0832943
0.0832887
0.0832965
0.0833143
0.083339
0.0833703
0.0834079
0.0834509
0.0834981
0.0835475
0.0835971
0.0836455
0.0836915
0.0837348
0.0837753
0.0838131
0.0838466
0.0838738
0.0838959
0.083915
0.083933
0.0839509
0.0839699
0.0839907
0.0840138
0.0840394
0.0840674
0.084097
0.0841256
0.0841494
0.0841647
0.0841704
0.083608
0.0836144
0.0836341
0.0836562
0.0836793
0.0837037
0.08373
0.0837583
0.0837881
0.0838186
0.0838489
0.0838782
0.0839058
0.0839316
0.0839554
0.0839776
0.083997
0.0840127
0.0840253
0.0840361
0.0840461
0.084056
0.0840664
0.0840777
0.0840902
0.0841041
0.0841195
0.0841361
0.084153
0.0841681
0.0841787
0.0841832
0.0839921
0.0839977
0.0840084
0.0840184
0.0840277
0.0840369
0.0840463
0.084056
0.084066
0.0840762
0.0840862
0.0840959
0.0841049
0.0841133
0.0841211
0.0841283
0.0841345
0.0841396
0.0841436
0.084147
0.0841502
0.0841533
0.0841566
0.0841601
0.084164
0.0841682
0.084173
0.0841782
0.0841836
0.0841886
0.0841924
0.0841943
)
;

boundaryField
{
    movingWall
    {
        type            fixedValue;
        value           uniform 0.0842;
    }
    fixedWalls
    {
        type            zeroGradient;
    }
    floor
    {
        type            zeroGradient;
    }
    frontAndBack
    {
        type            empty;
    }
}


// ************************************************************************* //
