-0.11 	0.00582399 	0.000435661 	0.000576727
-0.109559 	0.00629017 	0.000458996 	0.000873573
-0.109118 	0.00675635 	0.000482332 	0.00117042
-0.108677 	0.00722253 	0.000505667 	0.00146727
-0.108236 	0.00768872 	0.000529002 	0.00176411
-0.107796 	0.00813626 	0.000538127 	0.00210726
-0.107355 	0.00857884 	0.000543463 	0.00246275
-0.106914 	0.00893535 	0.000544721 	0.00274689
-0.106473 	0.00920072 	0.000541699 	0.00295456
-0.106032 	0.00946609 	0.000538676 	0.00316223
-0.105591 	0.00977287 	0.00054039 	0.00334865
-0.10515 	0.0100887 	0.000543138 	0.00353043
-0.104709 	0.0104045 	0.000545885 	0.00371222
-0.104269 	0.0107203 	0.000548633 	0.003894
-0.103828 	0.0110361 	0.00055138 	0.00407579
-0.103387 	0.0112831 	0.000549957 	0.00421049
-0.102946 	0.0114486 	0.000543457 	0.00428937
-0.102505 	0.0116142 	0.000536956 	0.00436826
-0.102064 	0.0117797 	0.000530456 	0.00444714
-0.101623 	0.0119452 	0.000523956 	0.00452602
-0.101182 	0.0121065 	0.000516116 	0.00460676
-0.100741 	0.0122423 	0.000500325 	0.00469858
-0.100301 	0.0123782 	0.000484538 	0.0047904
-0.0998597 	0.012496 	0.000467177 	0.00485466
-0.0994188 	0.0125954 	0.000448224 	0.00489082
-0.098978 	0.0126947 	0.000429271 	0.00492698
-0.0985371 	0.0127687 	0.000426503 	0.00496128
-0.0980962 	0.012839 	0.000426077 	0.00499532
-0.0976553 	0.0129093 	0.00042565 	0.00502935
-0.0972144 	0.0129796 	0.000425223 	0.00506339
-0.0967735 	0.0130499 	0.000424796 	0.00509742
-0.0963327 	0.013164 	0.000435277 	0.00505467
-0.0958918 	0.0133049 	0.000452412 	0.00496481
-0.0954509 	0.0134458 	0.000469548 	0.00487494
-0.09501 	0.0135867 	0.000486684 	0.00478508
-0.0945691 	0.0137276 	0.00050382 	0.00469522
-0.0941283 	0.0138827 	0.000511219 	0.00460601
-0.0936874 	0.0140633 	0.000501186 	0.004518
-0.0932465 	0.0142438 	0.000491154 	0.00442998
-0.0928056 	0.0144244 	0.000481121 	0.00434196
-0.0923647 	0.0146049 	0.000471089 	0.00425394
-0.0919238 	0.0147855 	0.000461056 	0.00416593
-0.091483 	0.0149661 	0.000451024 	0.00407791
-0.0531263 	0.0265777 	0.00337091 	0.001107
-0.0526854 	0.0265167 	0.00350101 	0.00146187
-0.0522445 	0.0263242 	0.00419596 	0.00206072
-0.0518036 	0.0269138 	0.00430093 	0.00218385
-0.0509218 	0.0342155 	0.00130212 	-0.000779116
-0.050481 	0.0454314 	0.000320628 	-0.000680178
-0.0500401 	0.0597289 	-0.000374854 	-0.000382439
-0.0376954 	0.0455316 	-0.000812266 	-0.00246559
-0.0372545 	0.0412371 	0.00223284 	-0.00404127
-0.0368136 	0.0381867 	0.00440924 	-0.00440485
-0.0363727 	0.0350676 	0.00680528 	-0.00452481
-0.0359319 	0.0322394 	0.00845087 	-0.00442153
-0.035491 	0.0298063 	0.00959964 	-0.00454741
-0.0350501 	0.0277282 	0.010234 	-0.00464622
-0.0346092 	0.0252954 	0.0112755 	-0.00468281
-0.0341683 	0.0239285 	0.0114584 	-0.00485179
-0.0337275 	0.0227345 	0.0116552 	-0.00501369
-0.0332866 	0.0218227 	0.0114849 	-0.00512312
-0.0328457 	0.0209927 	0.0111757 	-0.00523426
0.00507014 	-0.00519227 	4.49639e-05 	0.000325138
0.00551102 	-0.00447006 	-1.9537e-05 	0.00163849
0.0059519 	-0.00374786 	-8.40379e-05 	0.00295185
0.00639279 	-0.0031932 	-0.000214155 	0.00414473
0.00683367 	-0.00281204 	-0.000412215 	0.00521287
0.00727455 	-0.00243088 	-0.000610274 	0.006281
0.00771543 	-0.00204972 	-0.000808333 	0.00734914
0.00815631 	-0.00166856 	-0.00100639 	0.00841727
0.00859719 	-0.00126825 	-0.0012126 	0.00940046
0.00903808 	-0.000896609 	-0.0015234 	0.00961773
0.00947896 	-0.000530425 	-0.00183619 	0.00982713
0.00991984 	-0.000164241 	-0.00214898 	0.0100365
0.0103607 	0.000201942 	-0.00246177 	0.0102459
0.0108016 	0.000568126 	-0.00277456 	0.0104553
0.0112425 	0.00100591 	-0.0029546 	0.0106019
0.0116834 	0.00146272 	-0.00309936 	0.0107317
0.0121242 	0.00186207 	-0.00323203 	0.0107941
0.0125651 	0.00199575 	-0.00328148 	0.0105624
0.013006 	0.00212942 	-0.00333093 	0.0103307
0.0134469 	0.00222264 	-0.00338777 	0.0101627
0.0138878 	0.00227067 	-0.00345285 	0.0100659
0.0143287 	0.0023187 	-0.00351793 	0.00996899
0.0147695 	0.00236674 	-0.00358301 	0.00987212
0.0152104 	0.00241477 	-0.00364809 	0.00977525
0.0156513 	0.00244671 	-0.00370888 	0.00966608
0.0160922 	0.0023418 	-0.00368648 	0.00949619
0.0165331 	0.00223688 	-0.00366408 	0.00932629
0.0169739 	0.00213197 	-0.00364168 	0.0091564
0.0174148 	0.00202705 	-0.00361928 	0.00898651
0.0178557 	0.00192214 	-0.00359687 	0.00881661
0.0182966 	0.00185072 	-0.00357898 	0.00854999
0.0187375 	0.00179858 	-0.00356369 	0.00822766
0.0191784 	0.00174644 	-0.0035484 	0.00790534
0.0196192 	0.00156248 	-0.00348184 	0.00748443
0.0200601 	0.00136503 	-0.00341039 	0.00704331
0.020501 	0.00118209 	-0.00333426 	0.00661854
0.0209419 	0.0010805 	-0.00323187 	0.00628544
0.0213828 	0.000978904 	-0.00312948 	0.00595234
0.0218236 	0.000877311 	-0.00302709 	0.00561924
0.0222645 	0.000775719 	-0.0029247 	0.00528615
0.0227054 	0.000674126 	-0.00282231 	0.00495305
0.0231463 	0.000456661 	-0.00270279 	0.00455159
0.0235872 	0.000179471 	-0.00257423 	0.00412156
0.0240281 	-9.77187e-05 	-0.00244566 	0.00369154
0.0244689 	-0.000374909 	-0.00231709 	0.00326152
0.0249098 	-0.000652099 	-0.00218853 	0.00283149
0.0253507 	-0.00094878 	-0.00206737 	0.00240117
0.0257916 	-0.00143481 	-0.00201813 	0.00196792
0.0262325 	-0.00192084 	-0.0019689 	0.00153468
0.0266733 	-0.00253052 	-0.00194675 	0.0011501
0.0271142 	-0.0034193 	-0.00198773 	0.000871003
0.0275551 	-0.00430808 	-0.00202871 	0.000591903
0.027996 	-0.00511582 	-0.00201556 	0.000285945
0.0284369 	-0.00585075 	-0.00195374 	-4.41535e-05
0.0288778 	-0.00658567 	-0.00189193 	-0.000374251
0.0293186 	-0.0073206 	-0.00183011 	-0.000704349
0.0297595 	-0.00805552 	-0.0017683 	-0.00103445
0.0302004 	-0.00879044 	-0.00170649 	-0.00136455
0.0306413 	-0.00994529 	-0.0017285 	-0.00169726
0.0310822 	-0.0111195 	-0.00175088 	-0.00203462
0.031523 	-0.0122937 	-0.00177327 	-0.00237198
0.0319639 	-0.013468 	-0.00179565 	-0.00270934
0.0324048 	-0.0146422 	-0.00181804 	-0.0030467
0.0328457 	-0.0158031 	-0.00186019 	-0.00337721
0.0332866 	-0.0169387 	-0.00193977 	-0.00369476
0.0337275 	-0.0180744 	-0.00201934 	-0.00401231
0.0341683 	-0.0191299 	-0.0020787 	-0.00435669
0.0346092 	-0.0201055 	-0.00211754 	-0.00471821
0.0350501 	-0.0210811 	-0.00215638 	-0.00507972
0.035491 	-0.0221598 	-0.00218937 	-0.00538559
0.0359319 	-0.0232695 	-0.00222058 	-0.00567473
0.0363727 	-0.0243792 	-0.0022518 	-0.00596386
0.0368136 	-0.0254888 	-0.00228302 	-0.00625299
0.0372545 	-0.0265985 	-0.00231424 	-0.00654213
0.0376954 	-0.0275792 	-0.00233276 	-0.00675247
0.0381363 	-0.0280911 	-0.00230628 	-0.00666516
0.0385772 	-0.0286029 	-0.00227979 	-0.00657785
0.039018 	-0.0291148 	-0.0022533 	-0.00649054
0.0394589 	-0.0296266 	-0.00222682 	-0.00640323
0.0398998 	-0.0301385 	-0.00220033 	-0.00631592
0.0403407 	-0.0306703 	-0.00209165 	-0.00631083
0.0407816 	-0.0312074 	-0.00196139 	-0.00632732
0.0412224 	-0.0317103 	-0.00181744 	-0.00630945
0.0416633 	-0.0318978 	-0.00153746 	-0.00604527
0.0421042 	-0.0320852 	-0.00125748 	-0.00578109
0.0425451 	-0.0321902 	-0.00106824 	-0.00554557
0.042986 	-0.0322101 	-0.00097274 	-0.00533966
0.0434269 	-0.03223 	-0.000877239 	-0.00513376
0.0438677 	-0.03225 	-0.000781737 	-0.00492785
0.0443086 	-0.0322699 	-0.000686235 	-0.00472195
0.0447495 	-0.0322624 	-0.000605104 	-0.00459851
0.0451904 	-0.032207 	-0.000565158 	-0.00465792
0.0456313 	-0.0321516 	-0.000525212 	-0.00471733
0.0460721 	-0.0320962 	-0.000485266 	-0.00477675
0.046513 	-0.0320407 	-0.00044532 	-0.00483616
0.0469539 	-0.0320346 	-0.000350169 	-0.00478626
0.0473948 	-0.0320789 	-0.000198446 	-0.00462434
0.0478357 	-0.0321204 	-6.25438e-05 	-0.00451575
0.0482766 	-0.0322262 	0.000139306 	-0.00507855
0.0487174 	-0.0323321 	0.000341156 	-0.00564135
0.0491583 	-0.0324385 	0.000559981 	-0.00626684
0.0495992 	-0.0325452 	0.000787318 	-0.00692377
0.0500401 	-0.0326518 	0.00101465 	-0.0075807
0.050481 	-0.0327585 	0.00124199 	-0.00823763
0.0509218 	-0.0328652 	0.00146933 	-0.00889456
0.0513627 	-0.0328326 	0.00164504 	-0.00942966
0.0518036 	-0.0327485 	0.00177814 	-0.00986901
0.0522445 	-0.0326644 	0.00191124 	-0.0103084
0.0526854 	-0.0325802 	0.00204435 	-0.0107477
0.0531263 	-0.0324961 	0.00217745 	-0.0111871
0.0535671 	-0.0324119 	0.00231055 	-0.0116264
0.054008 	-0.0323109 	0.00239441 	-0.0120963
0.0544489 	-0.032207 	0.00247022 	-0.0125712
0.0548898 	-0.0321031 	0.00254603 	-0.013046
0.0553307 	-0.0317471 	0.00246968 	-0.0128333
0.0557715 	-0.0313682 	0.00238861 	-0.0125481
0.0562124 	-0.0309893 	0.00230753 	-0.012263
0.0566533 	-0.0306228 	0.00225392 	-0.0119615
0.0570942 	-0.0302579 	0.00220366 	-0.011658
0.0575351 	-0.029893 	0.00215339 	-0.0113544
0.057976 	-0.0295281 	0.00210312 	-0.0110509
0.0584168 	-0.0291632 	0.00205286 	-0.0107474
0.0588577 	-0.0287983 	0.00200259 	-0.0104439
0.0592986 	-0.0284818 	0.00207263 	-0.00998426
0.0597395 	-0.0281722 	0.00215305 	-0.00950877
0.0601804 	-0.0278626 	0.00223347 	-0.00903329
0.0606212 	-0.0275529 	0.00231389 	-0.0085578
0.0610621 	-0.0272433 	0.00239431 	-0.00808232
0.061503 	-0.0269337 	0.00247473 	-0.00760684
0.0619439 	-0.0266279 	0.00252836 	-0.00713144
0.0623848 	-0.0263223 	0.00258022 	-0.00665605
0.0628257 	-0.0260167 	0.00263208 	-0.00618065
0.0632665 	-0.0258388 	0.00265639 	-0.00578513
0.0637074 	-0.025667 	0.00267887 	-0.00539353
0.0641483 	-0.0254951 	0.00270134 	-0.00500193
0.0645892 	-0.0253138 	0.00273768 	-0.00465899
0.0650301 	-0.0251325 	0.00277418 	-0.00431664
0.0654709 	-0.0249511 	0.00281069 	-0.00397429
0.0659118 	-0.0247697 	0.0028472 	-0.00363194
0.0663527 	-0.0245884 	0.0028837 	-0.00328959
0.0667936 	-0.0244155 	0.00292005 	-0.00295772
0.0672345 	-0.0243085 	0.00295543 	-0.00270745
0.0681162 	-0.0240944 	0.00302617 	-0.00220682
0.0685571 	-0.0239873 	0.00306153 	-0.00195647
0.068998 	-0.0238802 	0.00309689 	-0.00170612
0.0694389 	-0.0237735 	0.00312877 	-0.00145647
0.0698798 	-0.0236718 	0.00310743 	-0.00121757
0.0703206 	-0.02357 	0.0030861 	-0.000978677
0.0707615 	-0.0234683 	0.00306477 	-0.00073978
0.0712024 	-0.0233666 	0.00304344 	-0.000500884
0.0716433 	-0.0232649 	0.00302211 	-0.000261987
0.0720842 	-0.0231631 	0.00300077 	-2.30907e-05
0.0725251 	-0.0230614 	0.00297944 	0.000215806
0.0729659 	-0.0229597 	0.00295811 	0.000454702
0.0734068 	-0.022858 	0.00293678 	0.000693599
0.0738477 	-0.0227563 	0.00291544 	0.000932495
0.0742886 	-0.0226545 	0.00289411 	0.00117139
0.0747295 	-0.0225542 	0.0028708 	0.0013994
0.0751703 	-0.0224679 	0.00282841 	0.00152522
0.0756112 	-0.0223815 	0.00278603 	0.00165103
0.0760521 	-0.0222952 	0.00274365 	0.00177684
0.076493 	-0.0222089 	0.00270127 	0.00190265
0.0778156 	-0.0219497 	0.00257405 	0.00228019
0.0782565 	-0.0218632 	0.00253164 	0.00240604
0.0786974 	-0.0217768 	0.00248923 	0.0025319
0.0791383 	-0.0216903 	0.00244682 	0.00265775
0.0795792 	-0.0216048 	0.00240524 	0.00278155
0.08002 	-0.0215315 	0.00237399 	0.00287957
0.0804609 	-0.0214581 	0.00234275 	0.00297759
0.0809018 	-0.0213848 	0.0023115 	0.00307561
0.0813427 	-0.0213114 	0.00228026 	0.00317363
0.0817836 	-0.0212381 	0.00224901 	0.00327166
0.0822244 	-0.0211867 	0.00221882 	0.00334997
0.0826653 	-0.0211515 	0.00218941 	0.00341428
0.0831062 	-0.0211163 	0.00216001 	0.0034786
0.0835471 	-0.0210811 	0.0021306 	0.00354291
0.083988 	-0.0210459 	0.0021012 	0.00360722
0.0844289 	-0.0210107 	0.00207179 	0.00367154
0.0848697 	-0.0209559 	0.00200448 	0.00374062
0.0853106 	-0.0209009 	0.00193668 	0.00380977
0.0857515 	-0.0208459 	0.00186888 	0.00387891
0.0861924 	-0.0207909 	0.00180107 	0.00394806
0.0866333 	-0.0207359 	0.00173327 	0.00401721
0.0870741 	-0.0206809 	0.00166547 	0.00408635
0.100301 	-0.0190988 	0.000806427 	0.00650472
0.108677 	-0.0152319 	0.0004391 	0.00635481
0.109118 	-0.014603 	0.000400405 	0.00608777
0.109559 	-0.013974 	0.00036171 	0.00582073
0.11 	-0.0133451 	0.000323015 	0.00555369
