/*--------------------------------*- C++ -*----------------------------------*\
| =========                 |                                                 |
| \\      /  F ield         | OpenFOAM: The Open Source CFD Toolbox           |
|  \\    /   O peration     | Version:  2206                                  |
|   \\  /    A nd           | Website:  www.openfoam.com                      |
|    \\/     M anipulation  |                                                 |
\*---------------------------------------------------------------------------*/
FoamFile
{
    version     2.0;
    format      ascii;
    arch        "LSB;label=64;scalar=64";
    class       surfaceScalarField;
    location    "43200";
    object      phi;
}
// * * * * * * * * * * * * * * * * * * * * * * * * * * * * * * * * * * * * * //

dimensions      [0 3 -1 0 0 0 0];

oriented        oriented;

internalField   nonuniform List<scalar> 
24
(
1.5326e-10
-1.5326e-10
3.57195e-10
-2.03935e-10
3.06e-10
5.11944e-11
3.06e-10
5.05299e-11
-2.0379e-10
1.51554e-10
-3.04959e-10
1.72898e-10
2.98502e-11
4.78899e-10
-7.12312e-11
-1.32558e-10
-1.74414e-10
-2.01776e-10
-1.37204e-10
-7.36032e-12
3.41695e-10
-1.32558e-10
-3.34335e-10
-3.41695e-10
)
;

boundaryField
{
    movingWall
    {
        type            calculated;
        value           uniform 0;
    }
    fixedWalls
    {
        type            calculated;
        value           uniform 0;
    }
    frontAndBack
    {
        type            empty;
        value           nonuniform List<scalar> 0();
    }
}


// ************************************************************************* //
