/*--------------------------------*- C++ -*----------------------------------*\
| =========                 |                                                 |
| \\      /  F ield         | OpenFOAM: The Open Source CFD Toolbox           |
|  \\    /   O peration     | Version:  2206                                  |
|   \\  /    A nd           | Website:  www.openfoam.com                      |
|    \\/     M anipulation  |                                                 |
\*---------------------------------------------------------------------------*/
FoamFile
{
    version     2.0;
    format      ascii;
    arch        "LSB;label=64;scalar=64";
    class       surfaceScalarField;
    location    "100800";
    object      phi;
}
// * * * * * * * * * * * * * * * * * * * * * * * * * * * * * * * * * * * * * //

dimensions      [0 3 -1 0 0 0 0];

oriented        oriented;

internalField   nonuniform List<scalar> 
24
(
2.25091e-10
-2.25091e-10
3.36017e-10
-1.10926e-10
2.33832e-10
1.02185e-10
2.33832e-10
1.41763e-11
-2.39267e-10
4.77457e-11
-1.44495e-10
9.64659e-11
5.34648e-11
3.30298e-10
-1.05379e-10
-1.33889e-10
-1.96267e-10
-5.36065e-11
-1.31328e-10
-1.14746e-11
1.9897e-10
-1.33889e-10
-1.87495e-10
-1.9897e-10
)
;

boundaryField
{
    movingWall
    {
        type            calculated;
        value           nonuniform List<scalar> 4(0 -2.01948e-28 0 0);
    }
    fixedWalls
    {
        type            calculated;
        value           uniform 0;
    }
    frontAndBack
    {
        type            empty;
        value           nonuniform List<scalar> 0();
    }
}


// ************************************************************************* //
