/*--------------------------------*- C++ -*----------------------------------*\
| =========                 |                                                 |
| \\      /  F ield         | OpenFOAM: The Open Source CFD Toolbox           |
|  \\    /   O peration     | Version:  2206                                  |
|   \\  /    A nd           | Website:  www.openfoam.com                      |
|    \\/     M anipulation  |                                                 |
\*---------------------------------------------------------------------------*/
FoamFile
{
    version     2.0;
    format      ascii;
    arch        "LSB;label=64;scalar=64";
    class       surfaceScalarField;
    location    "439200";
    object      phi;
}
// * * * * * * * * * * * * * * * * * * * * * * * * * * * * * * * * * * * * * //

dimensions      [0 3 -1 0 0 0 0];

oriented        oriented;

internalField   nonuniform List<scalar> 
24
(
2.17089e-10
-2.17089e-10
5.72892e-10
-3.55803e-10
3.91547e-10
1.81345e-10
3.91547e-10
1.20385e-10
-3.37474e-10
3.10104e-10
-5.45522e-10
2.27102e-10
2.64348e-10
6.18649e-10
-1.46763e-10
-1.90711e-10
-3.53744e-10
-3.38541e-10
-2.34339e-10
1.44942e-10
3.8431e-10
-1.90711e-10
-5.29252e-10
-3.8431e-10
)
;

boundaryField
{
    movingWall
    {
        type            calculated;
        value           uniform 0;
    }
    fixedWalls
    {
        type            calculated;
        value           uniform 0;
    }
    frontAndBack
    {
        type            empty;
        value           nonuniform List<scalar> 0();
    }
}


// ************************************************************************* //
