/*--------------------------------*- C++ -*----------------------------------*\
| =========                 |                                                 |
| \\      /  F ield         | OpenFOAM: The Open Source CFD Toolbox           |
|  \\    /   O peration     | Version:  2206                                  |
|   \\  /    A nd           | Website:  www.openfoam.com                      |
|    \\/     M anipulation  |                                                 |
\*---------------------------------------------------------------------------*/
FoamFile
{
    version     2.0;
    format      ascii;
    arch        "LSB;label=64;scalar=64";
    class       volScalarField;
    location    "0.3/water";
    object      alpha.gas;
}
// * * * * * * * * * * * * * * * * * * * * * * * * * * * * * * * * * * * * * //

dimensions      [0 0 0 0 0 0 0];

internalField   nonuniform List<scalar> 
23300
(
1e-15
1e-15
1e-15
1e-15
1e-15
1e-15
1e-15
1e-15
1e-15
1e-15
1e-15
1e-15
1e-15
1e-15
1e-15
1e-15
1e-15
1e-15
1e-15
1e-15
1e-15
1e-15
1e-15
1e-15
1e-15
1e-15
1e-15
1e-15
1e-15
1e-15
1e-15
1e-15
1e-15
1e-15
1e-15
1e-15
1e-15
1e-15
1e-15
1e-15
1e-15
1e-15
1e-15
1e-15
1e-15
1e-15
1e-15
1e-15
1e-15
1e-15
1e-15
1e-15
1e-15
1e-15
1e-15
1e-15
1e-15
1e-15
1e-15
1e-15
1e-15
1e-15
1e-15
1e-15
1e-15
1e-15
1e-15
1e-15
1e-15
1e-15
1e-15
1e-15
1e-15
1e-15
1e-15
1e-15
1e-15
1e-15
1e-15
1e-15
1e-15
1e-15
1e-15
1e-15
1e-15
1e-15
1e-15
1e-15
1e-15
1e-15
1e-15
1e-15
1e-15
1e-15
1e-15
1e-15
1e-15
1e-15
1e-15
1e-15
1e-15
1e-15
1e-15
1e-15
1e-15
1e-15
1e-15
1e-15
1e-15
1e-15
1e-15
1e-15
1e-15
1e-15
1e-15
1e-15
1e-15
1e-15
1e-15
1e-15
1e-15
1e-15
1e-15
1e-15
1e-15
1e-15
1e-15
1e-15
1e-15
1e-15
1e-15
1e-15
1e-15
1e-15
1e-15
1e-15
1e-15
1e-15
1e-15
1e-15
1e-15
1e-15
1e-15
1e-15
1e-15
1e-15
1e-15
1e-15
1e-15
1e-15
1e-15
1e-15
1e-15
1e-15
1e-15
1e-15
1e-15
1e-15
1e-15
1e-15
1e-15
1e-15
1e-15
1e-15
1e-15
1e-15
1e-15
1e-15
1e-15
1e-15
1e-15
1e-15
1e-15
1e-15
1e-15
1e-15
1e-15
1e-15
1e-15
1e-15
1e-15
1e-15
1e-15
1e-15
1e-15
1e-15
1e-15
1e-15
1e-15
1e-15
1e-15
1e-15
1e-15
1e-15
1e-15
1e-15
1e-15
1e-15
1e-15
1e-15
1e-15
1e-15
1e-15
1e-15
1e-15
1e-15
1e-15
1e-15
1e-15
1e-15
1e-15
1e-15
1e-15
1e-15
1e-15
1e-15
1e-15
1e-15
1e-15
1e-15
1e-15
1e-15
1e-15
1e-15
1e-15
1e-15
1e-15
1e-15
1e-15
1e-15
1e-15
1e-15
1e-15
1e-15
1e-15
1e-15
1e-15
1e-15
1e-15
1e-15
1e-15
1e-15
1e-15
1e-15
1e-15
1e-15
1e-15
1e-15
1e-15
1e-15
1e-15
1e-15
1e-15
1e-15
1e-15
1e-15
1e-15
1e-15
1e-15
1e-15
1e-15
1e-15
1e-15
1e-15
1e-15
1e-15
1e-15
1e-15
1e-15
1e-15
1e-15
1e-15
1e-15
1e-15
1e-15
1e-15
1e-15
1e-15
1e-15
1e-15
1e-15
1e-15
1e-15
1e-15
1e-15
1e-15
1e-15
1e-15
1e-15
1e-15
1e-15
1e-15
1e-15
1e-15
1e-15
1e-15
1e-15
1e-15
1e-15
1e-15
1e-15
1e-15
1e-15
1e-15
1e-15
1e-15
1e-15
1e-15
1e-15
1e-15
1e-15
1e-15
1e-15
1e-15
1e-15
1e-15
1e-15
1e-15
1e-15
1e-15
1e-15
1e-15
1e-15
1e-15
1e-15
1e-15
1e-15
1e-15
1e-15
1e-15
1e-15
1e-15
1e-15
1e-15
1e-15
1e-15
1e-15
1e-15
1e-15
1e-15
1e-15
1e-15
1e-15
1e-15
1e-15
1e-15
1e-15
1e-15
1e-15
1e-15
1e-15
1e-15
1e-15
1e-15
1e-15
1e-15
1e-15
1e-15
1e-15
1e-15
1e-15
1e-15
1e-15
1e-15
1e-15
1e-15
1e-15
1e-15
1e-15
1e-15
1e-15
1e-15
1e-15
1e-15
1e-15
1e-15
1e-15
1e-15
1e-15
1e-15
1e-15
1e-15
1e-15
1e-15
1e-15
1e-15
1e-15
1e-15
1e-15
1e-15
1e-15
1e-15
1e-15
1e-15
1e-15
1e-15
1e-15
1e-15
1e-15
1e-15
1e-15
1e-15
1e-15
1e-15
1e-15
1e-15
1e-15
1e-15
1e-15
1e-15
1e-15
1e-15
1e-15
1e-15
1e-15
1e-15
1e-15
1e-15
1e-15
1e-15
1e-15
1e-15
1e-15
1e-15
1e-15
1e-15
1e-15
1e-15
1e-15
1e-15
1e-15
1e-15
1e-15
1e-15
1e-15
1e-15
1e-15
1e-15
1e-15
1e-15
1e-15
1e-15
1e-15
1e-15
1e-15
1e-15
1e-15
1e-15
1e-15
1e-15
1e-15
1e-15
1e-15
1e-15
1e-15
1e-15
1e-15
1e-15
1e-15
1e-15
1e-15
1e-15
1e-15
1e-15
1e-15
1e-15
1e-15
1e-15
1e-15
1e-15
1e-15
1e-15
1e-15
1e-15
1e-15
1e-15
1e-15
1e-15
1e-15
1e-15
1e-15
1e-15
1e-15
1e-15
1e-15
1e-15
1e-15
1e-15
1e-15
1e-15
1e-15
1e-15
1e-15
1e-15
1e-15
1e-15
1e-15
1e-15
1e-15
1e-15
1e-15
1e-15
1e-15
1e-15
1e-15
1e-15
1e-15
1e-15
1e-15
1e-15
1e-15
1e-15
1e-15
1e-15
1e-15
1e-15
1e-15
1e-15
1e-15
1e-15
1e-15
1e-15
1e-15
1e-15
1e-15
1e-15
1e-15
1e-15
1e-15
1e-15
1e-15
1e-15
1e-15
1e-15
1e-15
1e-15
1e-15
1e-15
1e-15
1e-15
1e-15
1e-15
1e-15
1e-15
1e-15
1e-15
1e-15
1e-15
1e-15
1e-15
1e-15
1e-15
1e-15
1e-15
1e-15
1e-15
1e-15
1e-15
1e-15
1e-15
1e-15
1e-15
1e-15
1e-15
1e-15
1e-15
1e-15
1e-15
1e-15
1e-15
1e-15
1e-15
1e-15
1e-15
1e-15
1e-15
1e-15
1e-15
1e-15
1e-15
1e-15
1e-15
1e-15
1e-15
1e-15
1e-15
1e-15
1e-15
1e-15
1e-15
1e-15
1e-15
1e-15
1e-15
1e-15
1e-15
1e-15
1e-15
1e-15
1e-15
1e-15
1e-15
1e-15
1e-15
1e-15
1e-15
1e-15
1e-15
1e-15
1e-15
1e-15
1e-15
1e-15
1e-15
1e-15
1e-15
1e-15
1e-15
1e-15
1e-15
1e-15
1e-15
1e-15
1e-15
1e-15
1e-15
1e-15
1e-15
1e-15
1e-15
1e-15
1e-15
1e-15
1e-15
1e-15
1e-15
1e-15
1e-15
1e-15
1e-15
1e-15
1e-15
1e-15
1e-15
1e-15
1e-15
1e-15
1e-15
1e-15
1e-15
1e-15
1e-15
1e-15
1e-15
1e-15
1e-15
1e-15
1e-15
1e-15
1e-15
1e-15
1e-15
1e-15
1e-15
1e-15
1e-15
1e-15
1e-15
1e-15
1e-15
1e-15
1e-15
1e-15
1e-15
1e-15
1e-15
1e-15
1e-15
1e-15
1e-15
1e-15
1e-15
1e-15
1e-15
1e-15
1e-15
1e-15
1e-15
1e-15
1e-15
1e-15
1e-15
1e-15
1e-15
1e-15
1e-15
1e-15
1e-15
1e-15
1e-15
1e-15
1e-15
1e-15
1e-15
1e-15
1e-15
1e-15
1e-15
1e-15
1e-15
1e-15
1e-15
1e-15
1e-15
1e-15
1e-15
1e-15
1e-15
1e-15
1e-15
1e-15
1e-15
1e-15
1e-15
1e-15
1e-15
1e-15
1e-15
1e-15
1e-15
1e-15
1e-15
1e-15
1e-15
1e-15
1e-15
1e-15
1e-15
1e-15
1e-15
1e-15
1e-15
1e-15
1e-15
1e-15
1e-15
1e-15
1e-15
1e-15
1e-15
1e-15
1e-15
1e-15
1e-15
1e-15
1e-15
1e-15
1e-15
1e-15
1e-15
1e-15
1e-15
1e-15
1e-15
1e-15
1e-15
1e-15
1e-15
1e-15
1e-15
1e-15
1e-15
1e-15
1e-15
1e-15
1e-15
1e-15
1e-15
1e-15
1e-15
1e-15
1e-15
1e-15
1e-15
1e-15
1e-15
1e-15
1e-15
1e-15
1e-15
1e-15
1e-15
1e-15
1e-15
1e-15
1e-15
1e-15
1e-15
1e-15
1e-15
1e-15
1e-15
1e-15
1e-15
1e-15
1e-15
1e-15
1e-15
1e-15
1e-15
1e-15
1e-15
1e-15
1e-15
1e-15
1e-15
1e-15
1e-15
1e-15
1e-15
1e-15
1e-15
1e-15
1e-15
1e-15
1e-15
1e-15
1e-15
1e-15
1e-15
1e-15
1e-15
1e-15
1e-15
1e-15
1e-15
1e-15
1e-15
1e-15
1e-15
1e-15
1e-15
1e-15
1e-15
1e-15
1e-15
1e-15
1e-15
1e-15
1e-15
1e-15
1e-15
1e-15
1e-15
1e-15
1e-15
1e-15
1e-15
1e-15
1e-15
1e-15
1e-15
1e-15
1e-15
1e-15
1e-15
1e-15
1e-15
1e-15
1e-15
1e-15
1e-15
1e-15
1e-15
1e-15
1e-15
1e-15
1e-15
1e-15
1e-15
1e-15
1e-15
1e-15
1e-15
1e-15
1e-15
1e-15
1e-15
1e-15
1e-15
1e-15
1e-15
1e-15
1e-15
1e-15
1e-15
1e-15
1e-15
1e-15
1e-15
1e-15
1.0000014251e-15
1.00000005307e-15
1.00000253729e-15
1.00000168762e-15
1.00000416431e-15
1.00000270725e-15
1.00000621389e-15
1.00000555432e-15
1.00000863959e-15
1.00000743031e-15
1.00001092253e-15
1.00001048929e-15
1.00001510985e-15
1.00001741154e-15
1.00002330935e-15
1.0000291329e-15
1.00003806948e-15
1.00004493099e-15
1.00005346519e-15
1.00006024035e-15
1.0000684628e-15
1.00007503044e-15
1.00008273751e-15
1.00008894207e-15
1.00009619836e-15
1.00010192653e-15
1.0001086634e-15
1.0001140321e-15
1.00011995568e-15
1.00012481328e-15
1.00012944658e-15
1.00013497801e-15
1.00015221944e-15
1.00017283704e-15
1.00019671985e-15
1.00020817897e-15
1.00022738274e-15
1.00024328735e-15
1.00025782763e-15
1.00027003784e-15
1.00028032021e-15
1.00029034964e-15
1.00032082969e-15
1.00034890413e-15
1.00036684506e-15
1.00036978655e-15
1.00037992324e-15
1.0003846817e-15
1.00039613866e-15
1.00038871912e-15
1.00039529606e-15
1.00038952859e-15
1.00040584418e-15
1.00038099762e-15
1.00037119917e-15
1.00037082677e-15
1.00038005843e-15
1.00040680613e-15
1.00045297598e-15
1.00041076769e-15
1.00044092152e-15
1.0004176926e-15
1.00042202517e-15
1.00043377059e-15
1.00043225146e-15
1.00044031578e-15
1.00043608117e-15
1.0004385518e-15
1.00043280541e-15
1.0004242355e-15
1.00042107174e-15
1.0004147412e-15
1.00038335135e-15
1.00029931455e-15
1.00021887605e-15
1.00021992705e-15
1.00023332416e-15
1.0002809728e-15
1.00039056593e-15
1e-15
1e-15
1e-15
1e-15
1e-15
1e-15
1e-15
1e-15
1e-15
1e-15
1e-15
1e-15
1e-15
1e-15
1e-15
1e-15
1e-15
1e-15
1e-15
1e-15
1e-15
1e-15
1e-15
1e-15
1e-15
1e-15
1e-15
1e-15
1e-15
1e-15
1e-15
1e-15
1e-15
1e-15
1e-15
1e-15
1e-15
1e-15
1e-15
1e-15
1e-15
1e-15
1e-15
1e-15
1e-15
1e-15
1e-15
1e-15
1e-15
1e-15
1e-15
1e-15
1e-15
1e-15
1e-15
1e-15
1e-15
1e-15
1e-15
1.00000223715e-15
1.00000064962e-15
1.00000442325e-15
1.00000275805e-15
1.00000650385e-15
1.00000475176e-15
1.00000850021e-15
1.00000673326e-15
1.00001335157e-15
1.00002119658e-15
1.00003985703e-15
1.0000568363e-15
1.00007340154e-15
1.0000923135e-15
1.00010845946e-15
1.00012498566e-15
1.00013971513e-15
1.00015518283e-15
1.00016890074e-15
1.00018252925e-15
1.00019523581e-15
1.00020749991e-15
1.00021922504e-15
1.0002303067e-15
1.00024100667e-15
1.00025086216e-15
1.00026044273e-15
1.00026978712e-15
1.00027793378e-15
1.00028594953e-15
1.00029685208e-15
1.00030478744e-15
1.0003242768e-15
1.00034021413e-15
1.0003724282e-15
1.00039740142e-15
1.00041768858e-15
1.00042545669e-15
1.00043472059e-15
1.00044021665e-15
1.0004423743e-15
1.00044397476e-15
1.00044558275e-15
1.00044562248e-15
1.00044255155e-15
1.00043868375e-15
1.00043298952e-15
1.00042938471e-15
1.00043168141e-15
1.00042284424e-15
1.00042707127e-15
1.00040709476e-15
1.00040132558e-15
1.00040384576e-15
1.00039432165e-15
1.00040957548e-15
1.00038555062e-15
1.00039597522e-15
1.00041076769e-15
1.00044570232e-15
1.00041076769e-15
1.00044542724e-15
1.00041799144e-15
1.00042644684e-15
1.00045365182e-15
1.00044013155e-15
1.00046526954e-15
1.00045254617e-15
1.00046586895e-15
1.0004782906e-15
1.00047667403e-15
1.00048507887e-15
1.00049893411e-15
1.00049562494e-15
1.00050245396e-15
1.00050930926e-15
1.0004129805e-15
1.00041720215e-15
1.00044482796e-15
1.00054963148e-15
1.00068874947e-15
1e-15
1e-15
1e-15
1e-15
1e-15
1e-15
1e-15
1e-15
1e-15
1e-15
1e-15
1e-15
1e-15
1e-15
1e-15
1e-15
1e-15
1e-15
1e-15
1e-15
1e-15
1e-15
1e-15
1e-15
1e-15
1e-15
1e-15
1e-15
1e-15
1e-15
1e-15
1e-15
1e-15
1e-15
1e-15
1e-15
1e-15
1e-15
1e-15
1e-15
1e-15
1e-15
1e-15
1e-15
1e-15
1e-15
1e-15
1e-15
1e-15
1.00000040786e-15
1e-15
1.000001432e-15
1.00000072673e-15
1.00000243388e-15
1.00000200859e-15
1.00000493179e-15
1.0000041926e-15
1.00000666128e-15
1.00000801882e-15
1.00001461902e-15
1.00002700325e-15
1.00003683401e-15
1.00004628525e-15
1.00005435145e-15
1.00006226295e-15
1.00007077337e-15
1.00007866576e-15
1.00008735261e-15
1.00009663338e-15
1.00011866125e-15
1.00013837476e-15
1.00016016575e-15
1.00018295281e-15
1.00020377927e-15
1.00022393584e-15
1.00024192301e-15
1.00025896622e-15
1.00027425784e-15
1.00028924772e-15
1.00030393995e-15
1.00031595416e-15
1.0003285225e-15
1.00033795712e-15
1.00035031983e-15
1.00035878105e-15
1.0003702306e-15
1.00037934395e-15
1.00039361334e-15
1.00040129021e-15
1.00041651433e-15
1.00042319401e-15
1.00044176257e-15
1.00045041622e-15
1.00045972673e-15
1.00046328793e-15
1.00046508218e-15
1.00046665351e-15
1.00046624569e-15
1.00046521916e-15
1.00046431726e-15
1.00046202048e-15
1.00045803232e-15
1.00045526977e-15
1.00044979552e-15
1.00044627278e-15
1.00044025626e-15
1.000437081e-15
1.00043233945e-15
1.00043494123e-15
1.00042436606e-15
1.00043686514e-15
1.00040805687e-15
1.00040176908e-15
1.0004037962e-15
1.00039320952e-15
1.0003990332e-15
1.00040538874e-15
1.00045212109e-15
1.00041076769e-15
1.00044542724e-15
1.00041799144e-15
1.00042652652e-15
1.00044982484e-15
1.00044013151e-15
1.00046486134e-15
1.00045043421e-15
1.00045873071e-15
1.00048089552e-15
1.00047868845e-15
1.00048259796e-15
1.00050414273e-15
1.00049542624e-15
1.00050262157e-15
1.0005095246e-15
1.00051655098e-15
1.00050750368e-15
1.00050061662e-15
1.00053626983e-15
1.00066417401e-15
1.00070298345e-15
1e-15
1e-15
1e-15
1e-15
1e-15
1e-15
1e-15
1e-15
1e-15
1e-15
1e-15
1e-15
1e-15
1e-15
1e-15
1e-15
1e-15
1e-15
1e-15
1e-15
1e-15
1e-15
1e-15
1e-15
1e-15
1e-15
1e-15
1e-15
1e-15
1e-15
1e-15
1e-15
1e-15
1e-15
1e-15
1e-15
1e-15
1e-15
1e-15
1e-15
1e-15
1e-15
1e-15
1e-15
1e-15
1e-15
1e-15
1e-15
1e-15
1.00000064863e-15
1.00000017049e-15
1.00000216021e-15
1.00000154079e-15
1.00000366272e-15
1.00002291393e-15
1.00004221492e-15
1.00006333166e-15
1.00008360184e-15
1.00010619673e-15
1.00012373928e-15
1.00014258178e-15
1.00015647454e-15
1.00016942387e-15
1.00017836576e-15
1.00018829024e-15
1.00019724745e-15
1.00020659373e-15
1.00021478011e-15
1.00022318561e-15
1.0002355366e-15
1.00024713983e-15
1.00026278531e-15
1.00027839477e-15
1.00029438837e-15
1.00030888484e-15
1.00032314934e-15
1.00033616991e-15
1.00034914678e-15
1.00036097605e-15
1.00037466999e-15
1.00038541296e-15
1.00039735484e-15
1.00040501307e-15
1.00041535077e-15
1.00042227475e-15
1.0004330302e-15
1.00044056159e-15
1.00045210857e-15
1.00045745448e-15
1.00046562966e-15
1.00046937598e-15
1.00047425369e-15
1.00047666887e-15
1.00047710242e-15
1.00047642796e-15
1.00047569054e-15
1.00047669865e-15
1.00047512742e-15
1.00047452286e-15
1.00047233117e-15
1.00047032074e-15
1.00046574678e-15
1.00046268177e-15
1.0004572777e-15
1.00045382123e-15
1.00045183252e-15
1.00045436708e-15
1.00044483436e-15
1.00043294406e-15
1.00043546702e-15
1.00042755274e-15
1.00043673453e-15
1.00040858074e-15
1.00040171609e-15
1.0004038486e-15
1.00040139958e-15
1.00043659492e-15
1.00040949317e-15
1.00045176531e-15
1.00041799144e-15
1.00043699796e-15
1.00045392165e-15
1.00043934179e-15
1.00045238489e-15
1.00044978898e-15
1.00046114654e-15
1.00046987472e-15
1.00048676011e-15
1.00047849647e-15
1.00050040987e-15
1.00049504132e-15
1.00050316976e-15
1.0005094474e-15
1.00051670514e-15
1.00052381158e-15
1.00052970365e-15
1.00053608368e-15
1.00057382593e-15
1.00069347906e-15
1.000712269e-15
1e-15
1e-15
1e-15
1e-15
1e-15
1e-15
1e-15
1e-15
1e-15
1e-15
1e-15
1e-15
1e-15
1e-15
1e-15
1e-15
1e-15
1e-15
1e-15
1e-15
1e-15
1e-15
1e-15
1e-15
1e-15
1e-15
1e-15
1e-15
1e-15
1e-15
1e-15
1e-15
1e-15
1e-15
1e-15
1e-15
1e-15
1e-15
1e-15
1e-15
1e-15
1e-15
1e-15
1e-15
1e-15
1.00003332726e-15
1.00007264618e-15
1.0001090827e-15
1.00014531439e-15
1.00018194521e-15
1.00021875627e-15
1.00025304672e-15
1.00028895111e-15
1.00032700443e-15
1.00035632554e-15
1.00038143533e-15
1.00040379724e-15
1.00042298807e-15
1.0004388685e-15
1.00044677246e-15
1.00045088037e-15
1.00045231589e-15
1.00045100723e-15
1.00044632705e-15
1.00044125863e-15
1.00043531696e-15
1.00042882232e-15
1.00042125313e-15
1.00041307898e-15
1.00040540381e-15
1.00039991856e-15
1.00040063302e-15
1.00040257919e-15
1.00040692938e-15
1.00040993773e-15
1.00041444936e-15
1.00041645869e-15
1.00041997141e-15
1.00042150587e-15
1.00042705103e-15
1.00043201955e-15
1.00044062441e-15
1.00044694394e-15
1.00045361324e-15
1.00045800728e-15
1.00046530834e-15
1.00047036972e-15
1.00047591819e-15
1.00047920537e-15
1.00048282745e-15
1.00048519752e-15
1.00048603745e-15
1.00048711345e-15
1.00048630129e-15
1.00048516392e-15
1.00048422764e-15
1.00048539603e-15
1.00048331863e-15
1.00048348361e-15
1.00048011997e-15
1.00047807955e-15
1.00047349996e-15
1.00047019682e-15
1.00046506177e-15
1.00046326208e-15
1.00046317594e-15
1.00046168338e-15
1.00045393553e-15
1.00044779499e-15
1.00043295165e-15
1.00043539442e-15
1.00042804485e-15
1.00042554929e-15
1.00040869734e-15
1.00040170495e-15
1.0004201823e-15
1.00040973131e-15
1.00044246889e-15
1.00041549838e-15
1.0004418963e-15
1.00043335783e-15
1.00043934179e-15
1.00045219178e-15
1.00044977034e-15
1.00046663333e-15
1.00047046309e-15
1.00049148065e-15
1.00047849647e-15
1.00049198301e-15
1.00049488718e-15
1.00050216311e-15
1.00051012863e-15
1.00051658293e-15
1.0005238727e-15
1.00053107032e-15
1.00053828881e-15
1.00054719956e-15
1.00058745382e-15
1.00070375145e-15
1.00072136221e-15
1e-15
1e-15
1e-15
1e-15
1e-15
1e-15
1e-15
1e-15
1e-15
1e-15
1e-15
1e-15
1e-15
1e-15
1e-15
1e-15
1e-15
1e-15
1e-15
1e-15
1e-15
1e-15
1e-15
1e-15
1e-15
1e-15
1e-15
1e-15
1e-15
1e-15
1e-15
1e-15
1e-15
1e-15
1e-15
1e-15
1.0000023035e-15
1.00006207021e-15
1.00013318814e-15
1.00019778231e-15
1.00028162054e-15
1.00036012326e-15
1.00045079918e-15
1.00053366967e-15
1.00062277315e-15
1.00067548209e-15
1.00072440016e-15
1.00076463362e-15
1.00080244561e-15
1.00083426454e-15
1.00086105577e-15
1.00088089803e-15
1.00089556261e-15
1.00090837306e-15
1.00091559136e-15
1.00092029213e-15
1.00091954447e-15
1.00091633056e-15
1.00090788131e-15
1.00089671981e-15
1.00088114481e-15
1.00086398975e-15
1.00084243422e-15
1.00081935174e-15
1.00079375778e-15
1.00076766644e-15
1.00073865323e-15
1.00070921711e-15
1.00067707502e-15
1.00064608379e-15
1.00061703071e-15
1.00059583842e-15
1.00057734258e-15
1.00056238502e-15
1.00054695092e-15
1.00053367265e-15
1.00051732479e-15
1.00050344883e-15
1.00048741248e-15
1.00047622506e-15
1.00046827793e-15
1.00046822055e-15
1.00047082833e-15
1.00047526512e-15
1.00047810664e-15
1.00048289654e-15
1.00048642566e-15
1.00048957055e-15
1.00049199885e-15
1.00049445759e-15
1.00049626695e-15
1.00049663177e-15
1.00049723666e-15
1.00049620635e-15
1.00049544501e-15
1.00049481831e-15
1.00049501211e-15
1.00049363861e-15
1.00049242309e-15
1.00048938209e-15
1.0004860995e-15
1.00048142106e-15
1.00047787651e-15
1.00047305364e-15
1.0004727146e-15
1.00046643281e-15
1.00046161334e-15
1.00046327721e-15
1.00045377374e-15
1.00045078489e-15
1.00043355604e-15
1.0004353165e-15
1.00042991388e-15
1.00041736442e-15
1.00041016783e-15
1.00040947644e-15
1.00042679356e-15
1.00040949318e-15
1.00043263946e-15
1.00042419412e-15
1.00043443386e-15
1.00044350701e-15
1.00044386676e-15
1.00047164229e-15
1.00045933207e-15
1.00046872654e-15
1.00047893399e-15
1.00048232079e-15
1.00048728893e-15
1.00050462402e-15
1.0005044695e-15
1.00051247648e-15
1.00051911278e-15
1.00052672269e-15
1.00053390391e-15
1.00054123157e-15
1.00055055697e-15
1.00059379409e-15
1.00071202612e-15
1.00073113026e-15
1.00033141333e-15
1e-15
1e-15
1e-15
1e-15
1e-15
1e-15
1e-15
1e-15
1e-15
1e-15
1e-15
1e-15
1e-15
1e-15
1e-15
1e-15
1e-15
1e-15
1e-15
1e-15
1e-15
1e-15
1e-15
1e-15
1e-15
1e-15
1e-15
1.00000696577e-15
1.00006829497e-15
1.0001694667e-15
1.00024962464e-15
1.00035879562e-15
1.00045930024e-15
1.00058704459e-15
1.00069374912e-15
1.00082610877e-15
1.00089345333e-15
1.00096166796e-15
1.00101960085e-15
1.00108200842e-15
1.00113331068e-15
1.00118134468e-15
1.00121870757e-15
1.00124933138e-15
1.00127259818e-15
1.00129219655e-15
1.00130830088e-15
1.00132072553e-15
1.00132914121e-15
1.00133364213e-15
1.00133337528e-15
1.00132839509e-15
1.00132276652e-15
1.00131470904e-15
1.00130521849e-15
1.00129167519e-15
1.00127653518e-15
1.00125744252e-15
1.0012368503e-15
1.00121135549e-15
1.00118398502e-15
1.00115177931e-15
1.00111947839e-15
1.00108443455e-15
1.00104935678e-15
1.00101014443e-15
1.00097099382e-15
1.00092765715e-15
1.00088572203e-15
1.00084335491e-15
1.00080625148e-15
1.00077040872e-15
1.00073724624e-15
1.00070377181e-15
1.00067184099e-15
1.0006371284e-15
1.00060503063e-15
1.0005702384e-15
1.00053842944e-15
1.00051166408e-15
1.00049619219e-15
1.00048989817e-15
1.00049100089e-15
1.00049299094e-15
1.00049717839e-15
1.00049981042e-15
1.00050242806e-15
1.00050445106e-15
1.00050666546e-15
1.00050803941e-15
1.00050849388e-15
1.00050861055e-15
1.00050721943e-15
1.00050727588e-15
1.00050634639e-15
1.00050496835e-15
1.00050427332e-15
1.0005013726e-15
1.00049865203e-15
1.00049449738e-15
1.00049067788e-15
1.00048585543e-15
1.00048121617e-15
1.00047955103e-15
1.00047409373e-15
1.0004670566e-15
1.00046064413e-15
1.00046239262e-15
1.00045537858e-15
1.00045003412e-15
1.00043487921e-15
1.00043794491e-15
1.00043490926e-15
1.00041748282e-15
1.000414568e-15
1.00041082782e-15
1.00042503941e-15
1.00042105587e-15
1.00042850473e-15
1.00044244156e-15
1.00043850809e-15
1.00045575085e-15
1.00045542057e-15
1.00046270109e-15
1.00047477081e-15
1.00048036713e-15
1.00048155601e-15
1.00049645499e-15
1.0004990859e-15
1.00050703209e-15
1.00051326384e-15
1.00052070946e-15
1.00052859628e-15
1.00053544751e-15
1.00054295354e-15
1.00055278902e-15
1.00059889073e-15
1.00071868607e-15
1.00074093275e-15
1.00128046652e-15
1e-15
1.00018451461e-15
1.00009244176e-15
1.00009567167e-15
1.00006277213e-15
1.00007309005e-15
1.00003981771e-15
1.00004164468e-15
1.0000222605e-15
1.00003602018e-15
1.00001787358e-15
1.00004043423e-15
1.00002896383e-15
1.00005118754e-15
1.00005316874e-15
1.00008306478e-15
1.0000946161e-15
1.00013027e-15
1.00014891394e-15
1.00018925554e-15
1.00022370769e-15
1.00027819176e-15
1.00034909986e-15
1.00041035489e-15
1.0005010025e-15
1.00059550912e-15
1.00070743698e-15
1.00081652293e-15
1.00087387516e-15
1.00094916192e-15
1.00100767537e-15
1.00107282834e-15
1.00112415908e-15
1.00117852222e-15
1.00122050944e-15
1.00125996788e-15
1.00129543905e-15
1.00132902729e-15
1.00135975586e-15
1.00138989112e-15
1.00141553065e-15
1.00143963821e-15
1.00145937008e-15
1.00147703986e-15
1.00149117041e-15
1.00150262802e-15
1.00151109646e-15
1.001516726e-15
1.00151960816e-15
1.00152114589e-15
1.00152021541e-15
1.00151442634e-15
1.00150545375e-15
1.00149373992e-15
1.00148005071e-15
1.00146327319e-15
1.00144478374e-15
1.00142304461e-15
1.0013994318e-15
1.00137139539e-15
1.00134136519e-15
1.001307032e-15
1.0012730615e-15
1.00123768882e-15
1.00120213372e-15
1.00116325763e-15
1.00112447877e-15
1.00108226613e-15
1.00104100272e-15
1.00099859714e-15
1.00095810918e-15
1.00091677244e-15
1.00087659424e-15
1.00083552858e-15
1.00079495906e-15
1.00075187784e-15
1.00071082292e-15
1.00066633491e-15
1.00062146591e-15
1.00057808757e-15
1.0005423772e-15
1.00051871443e-15
1.0005102055e-15
1.00050835715e-15
1.00051153963e-15
1.00051363275e-15
1.00051665827e-15
1.00051829777e-15
1.00052019018e-15
1.00052102292e-15
1.00052132035e-15
1.00052081752e-15
1.00051904789e-15
1.00051922373e-15
1.00051792582e-15
1.00051637932e-15
1.00051420369e-15
1.00051128063e-15
1.00050755523e-15
1.00050329043e-15
1.00049941221e-15
1.00050122244e-15
1.00049496458e-15
1.00049104466e-15
1.00048065718e-15
1.00047409374e-15
1.00046935441e-15
1.00046111577e-15
1.0004637658e-15
1.00045628654e-15
1.00045665505e-15
1.00043755704e-15
1.00044011188e-15
1.00043193528e-15
1.00041901826e-15
1.00041587353e-15
1.00041568503e-15
1.00042480964e-15
1.0004345248e-15
1.00043570591e-15
1.00044985869e-15
1.00045142891e-15
1.00045413141e-15
1.00046184268e-15
1.00048213858e-15
1.00047560981e-15
1.0004926837e-15
1.00049268523e-15
1.00050049176e-15
1.0005083516e-15
1.00051511435e-15
1.00052218586e-15
1.00053031249e-15
1.00053709195e-15
1.0005446579e-15
1.00055509172e-15
1.00060417045e-15
1.00072329248e-15
1.00075073907e-15
1.00161111123e-15
1e-15
1.00105166925e-15
1.00101540346e-15
1.00100968536e-15
1.00098062008e-15
1.00097480402e-15
1.00093948943e-15
1.00092973252e-15
1.0009031949e-15
1.00089702433e-15
1.00087384637e-15
1.00087437838e-15
1.00085572763e-15
1.00085572687e-15
1.00084383652e-15
1.00084868334e-15
1.00083962322e-15
1.00084665069e-15
1.00084417991e-15
1.00085395625e-15
1.00085930434e-15
1.00087496766e-15
1.00089095898e-15
1.00090960575e-15
1.00092881174e-15
1.00095914388e-15
1.0009933573e-15
1.00103050524e-15
1.0010638709e-15
1.00110371205e-15
1.00114108267e-15
1.00118265961e-15
1.00121928164e-15
1.00125847189e-15
1.00129360446e-15
1.00132999943e-15
1.00136430105e-15
1.00139904883e-15
1.0014304293e-15
1.00146153562e-15
1.00148757189e-15
1.00151275013e-15
1.00153323434e-15
1.00155212533e-15
1.00156691439e-15
1.00157939055e-15
1.00158807644e-15
1.00159411121e-15
1.0015974929e-15
1.00160056631e-15
1.00160219909e-15
1.00159888243e-15
1.00159058668e-15
1.001579064e-15
1.00156464994e-15
1.00154758023e-15
1.0015283832e-15
1.00150623965e-15
1.00148173583e-15
1.00145352129e-15
1.00142335795e-15
1.00138936392e-15
1.00135574552e-15
1.00132199004e-15
1.00128743857e-15
1.00125050755e-15
1.00121343351e-15
1.00117407636e-15
1.00113505487e-15
1.00109521275e-15
1.00105586869e-15
1.0010152701e-15
1.00097522783e-15
1.0009343352e-15
1.00089361016e-15
1.00085099323e-15
1.00081005556e-15
1.00076606976e-15
1.00072049326e-15
1.00067254752e-15
1.00062358365e-15
1.00057897344e-15
1.00055013136e-15
1.00053469283e-15
1.00053076796e-15
1.00052955949e-15
1.00053144459e-15
1.00053263477e-15
1.00053488397e-15
1.00053495224e-15
1.00053484794e-15
1.00053364601e-15
1.00053158461e-15
1.00053100634e-15
1.00052944271e-15
1.000527823e-15
1.00052429761e-15
1.00052109912e-15
1.00051659538e-15
1.00051651669e-15
1.00051194468e-15
1.00051335271e-15
1.000510312e-15
1.00050155849e-15
1.00049891486e-15
1.0004821228e-15
1.00047754043e-15
1.00047028565e-15
1.00046169797e-15
1.00046440354e-15
1.00045560104e-15
1.0004549557e-15
1.00044168831e-15
1.00044214539e-15
1.00042759285e-15
1.00042186804e-15
1.00042096957e-15
1.00042297822e-15
1.00043074026e-15
1.00044034243e-15
1.00044363851e-15
1.0004544424e-15
1.00045558469e-15
1.00046963023e-15
1.00047338397e-15
1.00047770718e-15
1.00048500517e-15
1.00050070871e-15
1.00050194282e-15
1.0005094977e-15
1.00051657272e-15
1.00052396933e-15
1.00053197082e-15
1.00053879137e-15
1.00054645509e-15
1.00055754099e-15
1.00060976032e-15
1.00072669516e-15
1.0007657066e-15
1.00199965407e-15
1e-15
1.00129431541e-15
1.00127978592e-15
1.00126788564e-15
1.00124370733e-15
1.0012279297e-15
1.00119556792e-15
1.00117640631e-15
1.00114475302e-15
1.00112468424e-15
1.00109386173e-15
1.00107422563e-15
1.00104652492e-15
1.00102698754e-15
1.00099770757e-15
1.00097854615e-15
1.00095616737e-15
1.00094555105e-15
1.0009326065e-15
1.00092918897e-15
1.00092379696e-15
1.00092762793e-15
1.00093078852e-15
1.00094105014e-15
1.00095040898e-15
1.0009651209e-15
1.00098410821e-15
1.00102246561e-15
1.00105535393e-15
1.00109513357e-15
1.00113323012e-15
1.00117661911e-15
1.00121668892e-15
1.00126065452e-15
1.00130089772e-15
1.00134293653e-15
1.00138198798e-15
1.00142229597e-15
1.0014583963e-15
1.00149421946e-15
1.00152435304e-15
1.00155361673e-15
1.00157779758e-15
1.00160043514e-15
1.00161840434e-15
1.00163412217e-15
1.00164541768e-15
1.00165400348e-15
1.00165964525e-15
1.00166523625e-15
1.00166944327e-15
1.00166874171e-15
1.0016622605e-15
1.00165229881e-15
1.00163876891e-15
1.0016227868e-15
1.00160423729e-15
1.00158266903e-15
1.00155817635e-15
1.00153048704e-15
1.00150088888e-15
1.00146759009e-15
1.00143457648e-15
1.00140241802e-15
1.00136875066e-15
1.00133320082e-15
1.00129722991e-15
1.00125965121e-15
1.00122181545e-15
1.00118345133e-15
1.00114527277e-15
1.00110630961e-15
1.00106795946e-15
1.00102919415e-15
1.00099090905e-15
1.0009516676e-15
1.00091425498e-15
1.00087525356e-15
1.00083661372e-15
1.00079550652e-15
1.00074939168e-15
1.00069645614e-15
1.00064580518e-15
1.00060379286e-15
1.00057744549e-15
1.00056127908e-15
1.00055327995e-15
1.00054916338e-15
1.00054947203e-15
1.00054919018e-15
1.00054900281e-15
1.00054709246e-15
1.00054472424e-15
1.00054315251e-15
1.00054185655e-15
1.00053883183e-15
1.00053503686e-15
1.00053083175e-15
1.00052657128e-15
1.00053083719e-15
1.00052628582e-15
1.00051789877e-15
1.00051474801e-15
1.00050993395e-15
1.0005014729e-15
1.00049876772e-15
1.00048691287e-15
1.00047729796e-15
1.00047146639e-15
1.00046204002e-15
1.00046845076e-15
1.00045460257e-15
1.00045513291e-15
1.00044315179e-15
1.00044132871e-15
1.00042848508e-15
1.00042828613e-15
1.00042885204e-15
1.00043112211e-15
1.00043731376e-15
1.00044750486e-15
1.00045198973e-15
1.00045818577e-15
1.000466916e-15
1.00047319197e-15
1.00047842336e-15
1.00049296421e-15
1.00049494711e-15
1.00050398073e-15
1.00051028e-15
1.00051797377e-15
1.00052613725e-15
1.00053306342e-15
1.0005403602e-15
1.00054812415e-15
1.00056012407e-15
1.00061548695e-15
1.00073334662e-15
1.00084519935e-15
1.00284681884e-15
1.00023953766e-15
1.00138169258e-15
1.00136460186e-15
1.00135081692e-15
1.00132216075e-15
1.00129789446e-15
1.00126214275e-15
1.00123520142e-15
1.00119558639e-15
1.0011669965e-15
1.00112642413e-15
1.00109587903e-15
1.00105635915e-15
1.00103071165e-15
1.00100018551e-15
1.00098437443e-15
1.00096623071e-15
1.0009584401e-15
1.00094454438e-15
1.00094048731e-15
1.0009339911e-15
1.00093766534e-15
1.00093975216e-15
1.00094964287e-15
1.0009577483e-15
1.00096884109e-15
1.00097836272e-15
1.00099560698e-15
1.00103031412e-15
1.00107429909e-15
1.00111752209e-15
1.00116683466e-15
1.00121330235e-15
1.00126275831e-15
1.00130889307e-15
1.00135768855e-15
1.0014031768e-15
1.00145047302e-15
1.00149317873e-15
1.00153565211e-15
1.00157230568e-15
1.00160809095e-15
1.00163868898e-15
1.00166772472e-15
1.00169152865e-15
1.00171302314e-15
1.00172963394e-15
1.00174328017e-15
1.00175342669e-15
1.00176311733e-15
1.00177065246e-15
1.00177311139e-15
1.00176957817e-15
1.00176250105e-15
1.0017515152e-15
1.00173810951e-15
1.00172160253e-15
1.00170140916e-15
1.00167748409e-15
1.00165051789e-15
1.00162146242e-15
1.00158836563e-15
1.00155528278e-15
1.00152359087e-15
1.00148969301e-15
1.00145386698e-15
1.00141731081e-15
1.00137918158e-15
1.00134032121e-15
1.00130105772e-15
1.0012625047e-15
1.00122399102e-15
1.0011865307e-15
1.00114884522e-15
1.00111217967e-15
1.00107549306e-15
1.00104181679e-15
1.0010098736e-15
1.00098104263e-15
1.00094925804e-15
1.00091386458e-15
1.00086932786e-15
1.0008156298e-15
1.00075362693e-15
1.00069584904e-15
1.00064746219e-15
1.00061021541e-15
1.00058390582e-15
1.0005703317e-15
1.00056484458e-15
1.00056325162e-15
1.00056115894e-15
1.00055843113e-15
1.00055582335e-15
1.00055404708e-15
1.00055022486e-15
1.00054586031e-15
1.00054631912e-15
1.0005444594e-15
1.00053763899e-15
1.00053268117e-15
1.00052585561e-15
1.00052013882e-15
1.0005139274e-15
1.00051301022e-15
1.00050061625e-15
1.00049975556e-15
1.00048556636e-15
1.00048077433e-15
1.00046929343e-15
1.00046359133e-15
1.00046857809e-15
1.00045532371e-15
1.00044491208e-15
1.00044335251e-15
1.0004355213e-15
1.00043513636e-15
1.00043595694e-15
1.0004358849e-15
1.00043882859e-15
1.00044440978e-15
1.00045126722e-15
1.00046132856e-15
1.00046993009e-15
1.00047215834e-15
1.00048952397e-15
1.00048927398e-15
1.00049834874e-15
1.00050403259e-15
1.0005116586e-15
1.00051932304e-15
1.00052748112e-15
1.00053455836e-15
1.00054177224e-15
1.00054963705e-15
1.00056278339e-15
1.00062143759e-15
1.0007665674e-15
1.00102545315e-15
1.00357581549e-15
1.00074668846e-15
1.00145876243e-15
1.00143617787e-15
1.00141189649e-15
1.00137990831e-15
1.00135629011e-15
1.00131285197e-15
1.00127879853e-15
1.00123170977e-15
1.00119565557e-15
1.00114724856e-15
1.00110925686e-15
1.00106209465e-15
1.00103135984e-15
1.00100392311e-15
1.00099352768e-15
1.00097826968e-15
1.00097148265e-15
1.00095685088e-15
1.00095199194e-15
1.00094472358e-15