/*--------------------------------*- C++ -*----------------------------------*\
| =========                 |                                                 |
| \\      /  F ield         | OpenFOAM: The Open Source CFD Toolbox           |
|  \\    /   O peration     | Version:  2206                                  |
|   \\  /    A nd           | Website:  www.openfoam.com                      |
|    \\/     M anipulation  |                                                 |
\*---------------------------------------------------------------------------*/
FoamFile
{
    version     2.0;
    format      ascii;
    arch        "LSB;label=64;scalar=64";
    class       volScalarField;
    location    "0.3/water";
    object      alphat.gas;
}
// * * * * * * * * * * * * * * * * * * * * * * * * * * * * * * * * * * * * * //

dimensions      [1 -1 -1 0 0 0 0];

internalField   nonuniform List<scalar> 
23300
(
9.69878328895e-08
1.02438783066e-07
1.10207286724e-07
1.18505265515e-07
1.26837970253e-07
1.35098132399e-07
1.43262711727e-07
1.51326077031e-07
1.59285103222e-07
1.67136561299e-07
1.7487585818e-07
1.82497559711e-07
1.89995331868e-07
1.97362191109e-07
2.04591013275e-07
2.11674171373e-07
2.18604448025e-07
2.25374236667e-07
2.319767181e-07
2.38404873062e-07
2.44652721188e-07
2.5071423087e-07
2.56584484418e-07
2.62258591525e-07
2.67732802147e-07
2.73003485878e-07
2.78068166215e-07
2.82924505769e-07
2.87571245931e-07
2.9200723453e-07
2.96232342326e-07
3.00246515899e-07
3.04050638941e-07
3.07645570108e-07
3.1103297263e-07
3.14214312237e-07
3.17191619438e-07
3.19966417853e-07
3.22540520964e-07
3.24915109001e-07
3.27091875218e-07
3.29072470169e-07
3.30859915904e-07
3.32457877369e-07
3.33871549918e-07
3.35106168916e-07
3.36167468657e-07
3.37060225835e-07
3.37789147944e-07
3.38357740431e-07
3.38769524898e-07
3.39027365692e-07
3.39135200794e-07
3.39097324025e-07
3.38919286702e-07
3.38605948088e-07
3.38161569668e-07
3.37587951703e-07
3.36884991694e-07
3.36049391796e-07
3.3507717554e-07
3.33966421558e-07
3.32719372387e-07
3.3133674507e-07
3.29817118169e-07
3.28169274253e-07
3.26401017969e-07
3.24514396487e-07
3.22533831909e-07
3.20472166494e-07
3.18335904825e-07
3.16129320977e-07
3.13855788695e-07
3.11517828756e-07
3.09117993561e-07
3.06658440064e-07
3.04141477555e-07
3.01569087072e-07
2.98943404085e-07
2.96266260612e-07
2.93539631925e-07
2.90765219357e-07
2.87944867166e-07
2.85080164104e-07
2.82172820182e-07
2.79224300324e-07
2.76236192669e-07
2.73209873731e-07
2.70146843429e-07
2.67048389748e-07
2.63915897251e-07
2.60750543289e-07
2.57553611422e-07
2.54326214246e-07
2.51069580146e-07
2.47784769361e-07
2.44472930919e-07
2.41135034349e-07
2.37772128063e-07
2.34385104089e-07
2.30974952681e-07
2.27542533592e-07
2.24088803489e-07
2.20614590351e-07
2.17120805257e-07
2.13608227025e-07
2.10077701671e-07
2.06529947692e-07
2.02965756299e-07
1.99385819306e-07
1.95790910747e-07
1.92181716257e-07
1.8855899547e-07
1.84923426332e-07
1.81275756598e-07
1.77616666209e-07
1.73946903845e-07
1.70267163112e-07
1.6657820639e-07
1.62880761926e-07
1.59175631475e-07
1.55463600995e-07
1.51745534769e-07
1.48022308211e-07
1.44294893782e-07
1.4056431569e-07
1.36831729913e-07
1.33098401658e-07
1.29365798463e-07
1.25635620648e-07
1.21909950473e-07
1.18191402693e-07
1.14483442639e-07
1.10790699928e-07
1.07118562318e-07
1.03465753348e-07
9.9775725882e-08
9.57674087196e-08
9.17794246059e-08
1.06752914135e-07
3.28536371943e-08
3.39195636865e-08
3.53913106001e-08
3.69954071287e-08
3.86659916972e-08
4.03783934991e-08
4.21174827047e-08
4.38712959784e-08
4.56297759376e-08
4.73840438523e-08
4.91263382554e-08
5.08496589304e-08
5.25478373258e-08
5.42152351141e-08
5.58468658764e-08
5.74381065272e-08
5.89848553766e-08
6.04832650989e-08
6.19299429822e-08
6.33217185618e-08
6.46558549145e-08
6.59298231355e-08
6.71415027183e-08
6.82889727347e-08
6.93707128287e-08
7.03854168414e-08
7.13321753607e-08
7.22102853104e-08
7.30194089082e-08
7.37594000846e-08
7.44304580806e-08
7.50329641038e-08
7.55676171601e-08
7.6035288012e-08
7.64371679439e-08
7.67746670593e-08
7.70495849597e-08
7.72640281156e-08
7.74205196142e-08
7.7521782207e-08
7.75706371699e-08
7.75696419902e-08
7.75210008656e-08
7.74264442002e-08
7.72874918302e-08
7.71056154171e-08
7.68825002556e-08
7.66200037886e-08
7.63202733017e-08
7.59857120969e-08
7.56189428692e-08
7.52224023866e-08
7.4798109797e-08
7.43475988111e-08
7.38723667106e-08
7.33743193051e-08
7.28560893372e-08
7.23208669565e-08
7.17723232319e-08
7.12145625014e-08
7.06517297657e-08
7.00862543035e-08
6.95174833122e-08
6.89448538868e-08
6.83727437182e-08
6.7798945199e-08
6.7221659781e-08
6.66499944373e-08
6.60752392042e-08
6.54939469799e-08
6.49054928991e-08
6.43102209124e-08
6.370888623e-08
6.31022181297e-08
6.2490960203e-08
6.18757438687e-08
6.12572184298e-08
6.06359306395e-08
6.00124476855e-08
5.93872375336e-08
5.87607910077e-08
5.81335076223e-08
5.75058135713e-08
5.68780452555e-08
5.62505631411e-08
5.56236416823e-08
5.49975863467e-08
5.43726254335e-08
5.37490192706e-08
5.31269483936e-08
5.25066218665e-08
5.1888173557e-08
5.12717746655e-08
5.06575318752e-08
5.0045592918e-08
4.9436040382e-08
4.88289934179e-08
4.82245056369e-08
4.76226705305e-08
4.70235262374e-08
4.64271602047e-08
4.58336123788e-08
4.52429739907e-08
4.46552911422e-08
4.40706615774e-08
4.34891402473e-08
4.2910834336e-08
4.23358137142e-08
4.17642069448e-08
4.11961154535e-08
4.06317042184e-08
4.00711154925e-08
3.95145551876e-08
3.89622107736e-08
3.84143342203e-08
3.78711625194e-08
3.73329972529e-08
3.68001292748e-08
3.62729119445e-08
3.57516887538e-08
3.52368624054e-08
3.47288274292e-08
3.4228032905e-08
3.37349185402e-08
3.32499716286e-08
3.27736682252e-08
3.23065248908e-08
3.18490469781e-08
3.14017744567e-08
3.09652379056e-08
3.05400027107e-08
3.01266397115e-08
2.97257792139e-08
2.93381522148e-08
2.89651168708e-08
2.86133176908e-08
2.83416016021e-08
2.8751979364e-08
3.61971039649e-08
8.89082223666e-08
2.55181916777e-08
2.56414731356e-08
2.58014235823e-08
2.59733685362e-08
2.61516240073e-08
2.63338950653e-08
2.65185766422e-08
2.67041022302e-08
2.68890703781e-08
2.70720127755e-08
2.72515982598e-08
2.74264280572e-08
2.75952557099e-08
2.77568024273e-08
2.79099645392e-08
2.80536404605e-08
2.81869238676e-08
2.83089380355e-08
2.84190157259e-08
2.85165402189e-08
2.86011088757e-08
2.86723760134e-08
2.87302010575e-08
2.87744955536e-08
2.88053603062e-08
2.8822938183e-08
2.88275399058e-08
2.88195006136e-08
2.8799296545e-08
2.87674098481e-08
2.87244397955e-08
2.86709755637e-08
2.86077022234e-08
2.85352850051e-08
2.84544772558e-08
2.83660217748e-08
2.82707607538e-08
2.81695413506e-08
2.8063296588e-08
2.79529108635e-08
2.78392435184e-08
2.77229771197e-08
2.76046673016e-08
2.74846791147e-08
2.73633281377e-08
2.7240879753e-08
2.71176707279e-08
2.69940524353e-08
2.68704637424e-08
2.67473563919e-08
2.66252104455e-08
2.65043912396e-08
2.63851628524e-08
2.62676705485e-08
2.61521262742e-08
2.6038909253e-08
2.59287620161e-08
2.58228909429e-08
2.5723145395e-08
2.56316802052e-08
2.55499222557e-08
2.54778991183e-08
2.54163247908e-08
2.53671475092e-08
2.53289757679e-08
2.53003674802e-08
2.52815593402e-08
2.52642477225e-08
2.52470247067e-08
2.52297993121e-08
2.52125604506e-08
2.51953007031e-08
2.51780531731e-08
2.51608251254e-08
2.51436499896e-08
2.5126531853e-08
2.51095010931e-08
2.50925589437e-08
2.50757331638e-08
2.5059022409e-08
2.50424521408e-08
2.50260189128e-08
2.50097463782e-08
2.49936292358e-08
2.49776893597e-08
2.49619197461e-08
2.49463409382e-08
2.49309447966e-08
2.49157508086e-08
2.49007496296e-08
2.4885959526e-08
2.4871370089e-08
2.4856998805e-08
2.48428347514e-08
2.48288949328e-08
2.48151679201e-08
2.48016700036e-08
2.47883890745e-08
2.47753407109e-08
2.47625124456e-08
2.4749919535e-08
2.47375494653e-08
2.47254172044e-08
2.47135101387e-08
2.47018428028e-08
2.46904024009e-08
2.46792028977e-08
2.46682313267e-08
2.46575011564e-08
2.46469994895e-08
2.46367394031e-08
2.46267081247e-08
2.46169181972e-08
2.46073569362e-08
2.45980362945e-08
2.45889436983e-08
2.45800903846e-08
2.4571463974e-08
2.45630749991e-08
2.45549112996e-08
2.45469825345e-08
2.45392768159e-08
2.45318029297e-08
2.45245494002e-08
2.45175240686e-08
2.45107159506e-08
2.45041318788e-08
2.44977616525e-08
2.44916112748e-08
2.44856718868e-08
2.44799493277e-08
2.44744382923e-08
2.44691547343e-08
2.44641787724e-08
2.44602873204e-08
2.44649614602e-08
2.4553142296e-08
2.55080310058e-08
3.54732689114e-08
9.26664552157e-08
2.46134815097e-08
2.46294991112e-08
2.46487466601e-08
2.4668537529e-08
2.46884244294e-08
2.47081388871e-08
2.4727519601e-08
2.47463009049e-08
2.4764327903e-08
2.47813470495e-08
2.47972115573e-08
2.48116885353e-08
2.48246524829e-08
2.48359028447e-08
2.48453481284e-08
2.48528339222e-08
2.48583143088e-08
2.48616903399e-08
2.48629691546e-08
2.48621115818e-08
2.48591796413e-08
2.48541915385e-08
2.48472589727e-08
2.48384491771e-08
2.48279137145e-08
2.48157573323e-08
2.48021591523e-08
2.47872479359e-08
2.47712168436e-08
2.47542054757e-08
2.4736409154e-08
2.47179674856e-08
2.46990686505e-08
2.46798446647e-08
2.46604716827e-08
2.46410720716e-08
2.46218103857e-08
2.46027997069e-08
2.45841893612e-08
2.45660709184e-08
2.45485571917e-08
2.45316937644e-08
2.45155407351e-08
2.45000992123e-08
2.44853976849e-08
2.44714249992e-08
2.44582077782e-08
2.44457392106e-08
2.44340479868e-08
2.4423128319e-08
2.44130017048e-08
2.44036467432e-08
2.43950615473e-08
2.43872069772e-08
2.43800766043e-08
2.43736448135e-08
2.43679297331e-08
2.43629379832e-08
2.43587168102e-08
2.43552695071e-08
2.43525685064e-08
2.43505274103e-08
2.43491439308e-08
2.43483616448e-08
2.43480654837e-08
2.43482391166e-08
2.43486024583e-08
2.43490184703e-08
2.43494885692e-08
2.43499950636e-08
2.43505469522e-08
2.43511275742e-08
2.43517464749e-08
2.43523873518e-08
2.4353060064e-08
2.43537485167e-08
2.43544628692e-08
2.43551872139e-08
2.43559320152e-08
2.43566815428e-08
2.43574465724e-08
2.435821155e-08
2.43589875597e-08
2.43597592221e-08
2.43605379207e-08
2.43613084511e-08
2.43620824813e-08
2.43628449858e-08
2.43636079006e-08
2.43643563785e-08
2.43651025947e-08
2.43658318822e-08
2.43665566342e-08
2.43672623717e-08
2.43679616759e-08
2.43686402581e-08
2.43693108536e-08
2.43699593671e-08
2.43705986498e-08
2.43712148084e-08
2.43718207761e-08
2.43724028753e-08
2.43729740772e-08
2.43735209311e-08
2.43740564003e-08
2.4374567277e-08
2.43750664644e-08
2.43755410165e-08
2.43760037251e-08
2.43764419342e-08
2.43768682683e-08
2.43772703912e-08
2.43776607006e-08
2.43780272149e-08
2.43783820416e-08
2.43787135966e-08
2.43790336297e-08
2.43793310047e-08
2.4379617047e-08
2.43798811277e-08
2.4380134071e-08
2.4380365811e-08
2.43805865877e-08
2.43807869712e-08
2.43809765334e-08
2.4381146581e-08
2.43813059324e-08
2.43814468052e-08
2.43815772664e-08
2.43816907138e-08
2.43817946322e-08
2.4381885227e-08
2.43819799838e-08
2.43821738265e-08
2.43834084079e-08
2.43948979139e-08
2.45099866238e-08
2.57134393464e-08
3.79529669955e-08
9.99193798675e-08
2.44869147985e-08
2.44893038794e-08
2.44917133141e-08
2.44937638587e-08
2.44955389796e-08
2.44969996465e-08
2.44981814545e-08
2.44990066999e-08
2.44994945951e-08
2.4499566985e-08
2.44992485664e-08
2.44984688821e-08
2.44972569549e-08
2.44955564117e-08
2.44934046514e-08
2.44907612352e-08
2.44876744452e-08
2.4484120596e-08
2.44801593202e-08
2.44757826041e-08
2.44710599453e-08
2.44659960428e-08
2.44606670721e-08
2.44550863057e-08
2.44493326118e-08
2.4443423423e-08
2.4437436308e-08
2.44313887887e-08
2.44253536796e-08
2.44193453966e-08
2.44134295791e-08
2.44076154877e-08
2.44019602472e-08
2.43964670111e-08
2.4391184154e-08
2.43861088753e-08
2.4381281445e-08
2.43766936708e-08
2.43723780104e-08
2.43683203315e-08
2.4364544288e-08
2.43610289351e-08
2.43577896532e-08
2.43548008903e-08
2.4352073478e-08
2.43495811173e-08
2.43473331478e-08
2.43453039082e-08
2.43435015998e-08
2.43419008904e-08
2.43405084234e-08
2.43392984124e-08
2.43382756509e-08
2.43374144001e-08
2.43367192101e-08
2.43361659516e-08
2.43357599628e-08
2.43354786685e-08
2.43353275317e-08
2.4335283611e-08
2.43353500839e-08
2.43355039009e-08
2.43357507181e-08
2.43360687142e-08
2.43364637059e-08
2.43369166632e-08
2.43374316151e-08
2.43379910823e-08
2.43386038687e-08
2.43392530402e-08
2.43399476285e-08
2.43406709505e-08
2.43414323081e-08
2.4342215264e-08
2.43430294315e-08
2.43438586054e-08
2.43447127275e-08
2.43455758065e-08
2.43464581196e-08
2.43473438805e-08
2.43482437022e-08
2.4349141995e-08
2.43500497018e-08
2.43509514273e-08
2.43518584331e-08
2.43527555148e-08
2.43536542357e-08
2.43545395828e-08
2.43554233997e-08
2.4356290863e-08
2.43571540723e-08
2.43579983962e-08
2.43588361622e-08
2.43596529307e-08
2.4360461226e-08
2.43612468042e-08
2.43620223528e-08
2.43627738268e-08
2.43635140405e-08
2.43642291551e-08
2.43649320721e-08
2.43656091668e-08
2.43662733846e-08
2.43669113283e-08
2.4367535941e-08
2.43681340681e-08
2.43687186e-08
2.4369276646e-08
2.43698209896e-08
2.43703390281e-08
2.43708433814e-08
2.43713217655e-08
2.43717865761e-08
2.43722258834e-08
2.43726517956e-08
2.4373052781e-08
2.43734405928e-08
2.43738041487e-08
2.43741547772e-08
2.43744819042e-08
2.43747963563e-08
2.43750881256e-08
2.43753674529e-08
2.43756249618e-08
2.43758702055e-08
2.43760945236e-08
2.43763066884e-08
2.43764989059e-08
2.43766791072e-08
2.43768405495e-08
2.43769903803e-08
2.43771244258e-08
2.43772611249e-08
2.43775126578e-08
2.43790033169e-08
2.4392829597e-08
2.453220207e-08
2.59980796897e-08
4.05624745802e-08
1.08014852021e-07
2.44669486505e-08
2.44674970562e-08
2.44677441477e-08
2.44675885937e-08
2.44671696158e-08
2.44664823854e-08
2.44655865376e-08
2.44644241809e-08
2.44630434175e-08
2.44613877126e-08
2.44595008134e-08
2.4457333834e-08
2.44549332146e-08
2.44522578718e-08
2.44493576016e-08
2.44462010275e-08
2.44428418939e-08
2.44392583002e-08
2.44355076619e-08
2.44315760816e-08
2.44275233144e-08
2.44233411728e-08
2.44190897283e-08
2.44147639004e-08
2.44104219123e-08
2.44060593886e-08
2.44017308537e-08
2.43974307748e-08
2.43932087055e-08
2.43890567866e-08
2.43850189793e-08
2.43810845843e-08
2.43772919028e-08
2.43736273877e-08
2.4370124017e-08
2.43667657375e-08
2.43635807866e-08
2.43605510953e-08
2.4357700759e-08
2.43550101053e-08
2.4352499584e-08
2.43501483106e-08
2.43479737054e-08
2.43459542631e-08
2.43441051431e-08
2.43424047865e-08
2.43408666616e-08
2.43394694237e-08
2.43382251629e-08
2.43371128454e-08
2.43361434073e-08
2.43352961685e-08
2.43345811474e-08
2.43339781303e-08
2.433349653e-08
2.43331167107e-08
2.43328477047e-08
2.43326704354e-08
2.43325936142e-08
2.43325985003e-08
2.43326934903e-08
2.43328603727e-08
2.43331075652e-08
2.43334170936e-08
2.43337975173e-08
2.43342309394e-08
2.43347259925e-08
2.43352655764e-08
2.43358584852e-08
2.43364878543e-08
2.43371626754e-08
2.43378663235e-08
2.4338608056e-08
2.43393714858e-08
2.43401661772e-08
2.43409759708e-08
2.43418107595e-08
2.43426545991e-08
2.43435177199e-08
2.43443843833e-08
2.43452651579e-08
2.43461445046e-08
2.43470333234e-08
2.434791627e-08
2.4348804565e-08
2.43496830569e-08
2.43505632695e-08
2.43514302418e-08
2.43522957797e-08
2.43531451128e-08
2.4353990305e-08
2.43548167765e-08
2.43556368214e-08
2.43564360509e-08
2.43572269583e-08
2.43579953479e-08
2.43587538796e-08
2.43594885555e-08
2.43602121651e-08
2.43609109137e-08
2.43615976808e-08
2.43622588836e-08
2.43629074485e-08
2.43635300168e-08
2.43641395156e-08
2.43647228267e-08
2.43652928271e-08
2.43658366588e-08
2.43663670952e-08
2.43668715634e-08
2.43673626754e-08
2.43678281739e-08
2.43682804491e-08
2.43687075963e-08
2.43691217188e-08
2.43695113084e-08
2.43698881138e-08
2.43702410764e-08
2.43705815176e-08
2.43708988857e-08
2.43712039968e-08
2.43714868668e-08
2.43717577163e-08
2.43720071822e-08
2.43722447838e-08
2.43724618666e-08
2.43726671457e-08
2.43728528019e-08
2.43730266611e-08
2.43731818872e-08
2.43733254562e-08
2.43734533263e-08
2.43735857307e-08
2.43738545682e-08
2.43755824439e-08
2.43918814034e-08
2.45571349638e-08
2.63011504066e-08
4.32341245973e-08
1.16568825685e-07
2.44626864166e-08
2.44630008941e-08
2.44629896701e-08
2.4462590111e-08
2.44619559191e-08
2.44610767431e-08
2.44600160525e-08
2.44587197383e-08
2.44572309092e-08
2.44554930188e-08
2.4453552166e-08
2.44513570097e-08
2.44489538464e-08
2.4446300965e-08
2.44434472592e-08
2.4440360526e-08
2.4437093307e-08
2.44336224554e-08
2.44300037925e-08
2.44262217256e-08
2.44223339625e-08
2.4418330215e-08
2.44142681027e-08
2.44101401558e-08
2.44060018783e-08
2.44018463962e-08
2.43977254603e-08
2.43936311706e-08
2.43896105076e-08
2.43856536128e-08
2.43818022915e-08
2.43780443847e-08
2.43744165911e-08
2.43709045171e-08
2.43675401209e-08
2.43643070849e-08
2.43612331516e-08
2.43583004928e-08
2.43555331944e-08
2.4352912322e-08
2.43504588179e-08
2.4348152988e-08
2.43460130916e-08
2.43440189723e-08
2.43421866298e-08
2.43404957109e-08
2.43389603591e-08
2.43375602493e-08
2.43363080155e-08
2.43351835028e-08
2.43341981094e-08
2.43333319394e-08
2.4332595415e-08
2.43319689904e-08
2.43314623752e-08
2.43310564527e-08
2.43307604548e-08
2.43305557121e-08
2.43304510561e-08
2.43304280502e-08
2.43304951829e-08
2.4330634471e-08
2.43308542342e-08
2.43311366044e-08
2.43314900702e-08
2.43318966787e-08
2.4332365041e-08
2.43328781032e-08
2.43334445832e-08
2.43340476777e-08
2.43346963175e-08
2.4335373941e-08
2.43360897482e-08
2.43368274119e-08
2.43375964394e-08
2.43383807289e-08
2.43391901171e-08
2.43400087169e-08
2.43408467039e-08
2.43416883982e-08
2.43425443154e-08
2.43433989753e-08
2.43442632271e-08
2.43451217872e-08
2.43459858272e-08
2.43468402562e-08
2.43476965506e-08
2.43485398105e-08
2.4349381797e-08
2.43502078004e-08
2.43510298423e-08
2.43518334023e-08
2.43526307347e-08
2.43534075085e-08
2.43541761804e-08
2.43549226111e-08
2.43556594275e-08
2.43563726851e-08
2.43570751439e-08
2.43577530596e-08
2.43584192859e-08
2.4359060287e-08
2.43596889675e-08
2.43602920126e-08
2.43608823313e-08
2.43614468451e-08
2.4361998417e-08
2.43625242248e-08
2.43630370311e-08
2.43635242952e-08
2.43639986218e-08
2.43644477826e-08
2.4364884163e-08
2.43652958845e-08
2.43656950472e-08
2.4366070167e-08
2.43664329894e-08
2.43667724777e-08
2.43670999481e-08
2.43674048704e-08
2.43676980522e-08
2.43679695274e-08
2.43682294989e-08
2.43684686211e-08
2.43686963901e-08
2.4368904167e-08
2.43691006234e-08
2.4369277945e-08
2.43694438914e-08
2.43695916477e-08
2.43697281647e-08
2.4369849606e-08
2.43699784842e-08
2.43702684744e-08
2.43722547369e-08
2.43911957197e-08
2.45839232576e-08
2.66209221828e-08
4.59763755883e-08
1.25413606308e-07
2.44610507758e-08
2.44613672164e-08
2.44613729638e-08
2.4461011979e-08
2.4460435953e-08
2.44596398711e-08
2.44586823637e-08
2.44574996645e-08
2.44561361931e-08
2.44545295778e-08
2.44527191273e-08
2.44506511104e-08
2.44483681186e-08
2.44458252618e-08
2.44430693486e-08
2.44400663195e-08
2.44368678084e-08
2.44334501916e-08
2.44298694448e-08
2.4426110606e-08
2.44222323288e-08
2.4418225672e-08
2.44141496003e-08
2.44099982778e-08
2.44058285625e-08
2.44016351529e-08
2.43974709012e-08
2.43933292309e-08
2.43892578749e-08
2.43852480115e-08
2.43813418752e-08
2.43775281032e-08
2.4373843577e-08
2.43702745319e-08
2.4366852946e-08
2.4363563026e-08
2.43604324356e-08
2.43574438049e-08
2.43546210784e-08
2.43519457292e-08
2.43494385195e-08
2.43470801243e-08
2.43448885981e-08
2.4342844103e-08
2.43409623976e-08
2.43392233874e-08
2.43376409582e-08
2.43361950053e-08
2.43348979044e-08
2.43337296837e-08
2.43327014878e-08
2.43317935756e-08
2.43310161366e-08
2.43303497652e-08
2.43298039663e-08
2.43293597556e-08
2.43290261953e-08
2.43287847327e-08
2.43286440117e-08
2.43285856535e-08
2.43286180061e-08
2.43287231698e-08
2.43289092191e-08
2.43291583383e-08
2.43294789025e-08
2.43298528577e-08
2.43302887697e-08
2.43307696435e-08
2.43313041016e-08
2.43318754084e-08
2.43324924142e-08
2.43331386274e-08
2.43338231745e-08
2.43345297979e-08
2.43352679347e-08
2.43360215515e-08
2.43368004169e-08
2.43375887126e-08
2.43383965483e-08
2.43392083131e-08
2.43400344586e-08
2.43408595751e-08
2.43416944503e-08
2.43425238715e-08
2.4343358951e-08
2.43441846688e-08
2.43450124448e-08
2.43458274501e-08
2.43466413922e-08
2.43474396317e-08
2.43482341396e-08
2.43490104641e-08
2.43497808122e-08
2.43505309199e-08
2.43512732012e-08
2.43519935812e-08
2.43527046479e-08
2.4353392518e-08
2.43540699166e-08
2.43547231572e-08
2.43553650634e-08
2.43559821534e-08
2.43565873067e-08
2.4357167258e-08
2.43577348958e-08
2.43582771865e-08
2.43588069771e-08
2.43593114855e-08
2.43598034632e-08
2.43602704053e-08
2.43607249095e-08
2.43611547793e-08
2.43615723961e-08
2.43619659093e-08
2.43623474175e-08
2.43627054611e-08
2.43630517844e-08
2.43633753722e-08
2.43636875393e-08
2.43639777757e-08
2.43642568839e-08
2.43645149154e-08
2.43647620654e-08
2.43649890118e-08
2.43652052352e-08
2.43654021149e-08
2.43655882965e-08
2.43657559899e-08
2.43659129345e-08
2.43660523465e-08
2.43661811922e-08
2.43662960723e-08
2.43664219078e-08
2.43667356695e-08
2.43689996031e-08
2.43907501203e-08
2.46125092762e-08
2.69566340033e-08
4.88045556096e-08
1.34452704816e-07
2.44600827363e-08
2.44604489854e-08
2.44605268552e-08
2.44602638969e-08
2.44598190523e-08
2.44591761259e-08
2.44583914639e-08
2.44573991251e-08
2.4456231647e-08
2.44548201761e-08
2.44532009781e-08
2.44513123445e-08
2.44491926527e-08
2.44467929051e-08
2.44441569787e-08
2.44412488672e-08
2.44381192748e-08
2.44347445961e-08
2.4431181659e-08
2.44274171456e-08
2.44235118292e-08
2.44194594518e-08
2.44153216817e-08
2.44110957028e-08
2.44068409949e-08
2.44025550313e-08
2.43982927621e-08
2.43940498338e-08
2.43898753999e-08
2.43857622586e-08
2.43817534382e-08
2.43778386879e-08
2.43740551991e-08
2.4370389952e-08
2.43668749063e-08
2.43634947762e-08
2.43602770017e-08
2.43572045672e-08
2.43543010643e-08
2.43515482157e-08
2.43489663573e-08
2.434653635e-08
2.4344275796e-08
2.4342165009e-08
2.43402192971e-08
2.43384186967e-08
2.43367766674e-08
2.43352732267e-08
2.43339203539e-08
2.43326981844e-08
2.43316174967e-08
2.43306586488e-08
2.43298315097e-08
2.43291167813e-08
2.43285237025e-08
2.43280334077e-08
2.43276547413e-08
2.43273692466e-08
2.43271853144e-08
2.43270846087e-08
2.43270753259e-08
2.43271396538e-08
2.43272853528e-08
2.4327494699e-08
2.43277758834e-08
2.43281108204e-08
2.43285080094e-08
2.43289505274e-08
2.4329446884e-08
2.43299804197e-08
2.43305598853e-08
2.4331168868e-08
2.43318164035e-08
2.43324863136e-08
2.43331879496e-08
2.43339053579e-08
2.43346482248e-08
2.43354008121e-08
2.43361731504e-08
2.43369497094e-08
2.43377408644e-08
2.4338531287e-08
2.43393316919e-08
2.43401269478e-08
2.43409280967e-08
2.43417202003e-08
2.43425146117e-08
2.43432965833e-08
2.43440777596e-08
2.43448435806e-08
2.4345605958e-08
2.4346350518e-08
2.4347089413e-08
2.43478084552e-08
2.43485200083e-08
2.43492100704e-08
2.43498911837e-08
2.43505495342e-08
2.43511978069e-08
2.43518223803e-08
2.43524360437e-08
2.43530253761e-08
2.43536032278e-08
2.43541563891e-08
2.4354697725e-08
2.4355214252e-08
2.43557187992e-08
2.43561986299e-08
2.4356666483e-08
2.43571098935e-08
2.43575414518e-08
2.43579489961e-08
2.43583449043e-08
2.43587173558e-08
2.43590784486e-08
2.43594167485e-08
2.4359744001e-08
2.43600492137e-08
2.43603437025e-08
2.43606169779e-08
2.43608798411e-08
2.43611223664e-08
2.43613547471e-08
2.4361567683e-08
2.43617706426e-08
2.43619550309e-08
2.43621294858e-08
2.43622862568e-08
2.43624330699e-08
2.43625632198e-08
2.43626837138e-08
2.43627914474e-08
2.43629141005e-08
2.43632536603e-08
2.43658141404e-08
2.43905419411e-08
2.46428591522e-08
2.73078493967e-08
5.17359609899e-08
1.43625724957e-07
2.44594409844e-08
2.44598779463e-08
2.44600611375e-08
2.445994052e-08
2.44596712262e-08
2.44592396855e-08
2.44586937286e-08
2.4457952848e-08
2.44570472692e-08
2.44558979136e-08
2.44545304547e-08
2.44528772823e-08
2.44509704445e-08
2.44487554517e-08
2.44462728493e-08
2.44434839772e-08
2.444043876e-08
2.44371137421e-08
2.4433567234e-08
2.44297883195e-08
2.44258408981e-08
2.44217224998e-08
2.44174986348e-08
2.44131706375e-08
2.44088016034e-08
2.44043926908e-08
2.44000016435e-08
2.43956269352e-08
2.43913195294e-08
2.4387074182e-08
2.43829348742e-08
2.43788926211e-08
2.43749849396e-08
2.43711996041e-08
2.4367568496e-08
2.43640768306e-08
2.43607517252e-08
2.43575764807e-08
2.4354574223e-08
2.43517268885e-08
2.43490542931e-08
2.43465374578e-08
2.43441934333e-08
2.43420026394e-08
2.43399798351e-08
2.43381051583e-08
2.43363915676e-08
2.43348191857e-08
2.43333995312e-08
2.4332112834e-08
2.43309694515e-08
2.43299498341e-08
2.43290634831e-08
2.43282912055e-08
2.43276419367e-08
2.43270969368e-08
2.43266647996e-08
2.43263271523e-08
2.43260920626e-08
2.43259412214e-08
2.43258826777e-08
2.43258987189e-08
2.43259967223e-08
2.43261591425e-08
2.43263937412e-08
2.43266826664e-08
2.43270342544e-08
2.43274316671e-08
2.43278832801e-08
2.43283725206e-08
2.43289080192e-08
2.43294734526e-08
2.43300777456e-08
2.43307048108e-08
2.43313638957e-08
2.4332039138e-08
2.43327401254e-08
2.43334512119e-08
2.43341823331e-08
2.43349180516e-08
2.43356686518e-08
2.43364188989e-08
2.43371794201e-08
2.43379351777e-08
2.43386971302e-08
2.43394504329e-08
2.43402063599e-08
2.43409502561e-08
2.43416936909e-08
2.43424221955e-08
2.43431476113e-08
2.43438556539e-08
2.43445584112e-08
2.43452417814e-08
2.43459180691e-08
2.43465733544e-08
2.43472201265e-08
2.43478446495e-08
2.43484595616e-08
2.43490513153e-08
2.4349632659e-08
2.435019024e-08
2.43507368745e-08
2.43512594152e-08
2.43517706995e-08
2.43522578007e-08
2.43527335272e-08
2.43531851927e-08
2.43536255216e-08
2.43540420937e-08
2.435444749e-08
2.43548295872e-08
2.43552007592e-08
2.43555492179e-08
2.43558870613e-08
2.43562028829e-08
2.43565084311e-08
2.43567927374e-08
2.43570671219e-08
2.43573211159e-08
2.43575655257e-08
2.43577904481e-08
2.43580060768e-08
2.43582031307e-08
2.43583910813e-08
2.43585613642e-08
2.43587226202e-08
2.43588671336e-08
2.43590026383e-08
2.43591224641e-08
2.43592336584e-08
2.43593336058e-08
2.43594527133e-08
2.43598197349e-08
2.43626959902e-08
2.4390570084e-08
2.46749449773e-08
2.76744912735e-08
5.47872289881e-08
1.52892276609e-07
2.44590084765e-08
2.44595422677e-08
2.44598648588e-08
2.44599310293e-08
2.4459903366e-08
2.44597528344e-08
2.4459520335e-08
2.44591180729e-08
2.44585590185e-08
2.44577523279e-08
2.44567164366e-08
2.44553714011e-08
2.4453741941e-08
2.44517667795e-08
2.44494819604e-08
2.44468458854e-08
2.44439075087e-08
2.44406439287e-08
2.44371155888e-08
2.44333150056e-08
2.44293104455e-08
2.44251046574e-08
2.44207684347e-08
2.44163086842e-08
2.44117933458e-08
2.44072283482e-08
2.44026750352e-08
2.43981353729e-08
2.43936625457e-08
2.43892536005e-08
2.43849536125e-08
2.43807549967e-08
2.43766955935e-08
2.43727640072e-08
2.43689919779e-08
2.43653652158e-08
2.43619104265e-08
2.43586111995e-08
2.43554900956e-08
2.43525292267e-08
2.43497477888e-08
2.43471269227e-08
2.43446830338e-08
2.43423966112e-08
2.43402817852e-08
2.43383187723e-08
2.43365199659e-08
2.43348655721e-08
2.43333665869e-08
2.43320033145e-08
2.43307856364e-08
2.43296940827e-08
2.43287377429e-08
2.43278975201e-08
2.43271820077e-08
2.43265725906e-08
2.43260775766e-08
2.43256786586e-08
2.43253835214e-08
2.4325173887e-08
2.43250576165e-08
2.4325016963e-08
2.43250591094e-08
2.43251666873e-08
2.43253467677e-08
2.43255819816e-08
2.43258804136e-08
2.43262253197e-08
2.43266249202e-08
2.43270627388e-08
2.43275472645e-08
2.43280622732e-08
2.43286165589e-08
2.43291941355e-08
2.43298041271e-08
2.43304307747e-08
2.43310835485e-08
2.43317469068e-08
2.4332430673e-08
2.43331195149e-08
2.43338236099e-08
2.43345278285e-08
2.43352426953e-08
2.43359532782e-08
2.43366704382e-08
2.43373794358e-08
2.43380914526e-08
2.4338791937e-08
2.43394923717e-08
2.43401783897e-08
2.43408617519e-08
2.4341528273e-08
2.43421899663e-08
2.43428328255e-08
2.43434690869e-08
2.43440849227e-08
2.43446927606e-08
2.43452789521e-08
2.43458560814e-08
2.43464106825e-08
2.43469554569e-08
2.43474771277e-08
2.43479884716e-08
2.4348476411e-08
2.43489537515e-08
2.43494076296e-08
2.4349850829e-08
2.43502707197e-08
2.43506800086e-08
2.43510663245e-08
2.43514422375e-08
2.43517956665e-08
2.43521389804e-08
2.43524604268e-08
2.43527721039e-08
2.43530626351e-08
2.43533437734e-08
2.43536045749e-08
2.4353856367e-08
2.43540887034e-08
2.43543123996e-08
2.43545175708e-08
2.43547144188e-08
2.4354893686e-08
2.43550648567e-08
2.43552193948e-08
2.43553659438e-08
2.43554968255e-08
2.43556197666e-08
2.43557281733e-08
2.43558291372e-08
2.43559203466e-08
2.43560354149e-08
2.43564316732e-08
2.43596433287e-08
2.43908337448e-08
2.47087430098e-08
2.80568464301e-08
5.79728237444e-08
1.62223609454e-07
2.44586764767e-08
2.44593374831e-08
2.44598469894e-08
2.4460167028e-08
2.44604557261e-08
2.44606819852e-08
2.44608712728e-08
2.44609134467e-08
2.44608124856e-08
2.44604603999e-08
2.44598589333e-08
2.44589169238e-08
2.44576486896e-08
2.44559841484e-08
2.44539540983e-08
2.44515131381e-08
2.4448709482e-08
2.4445521139e-08
2.44420117435e-08
2.4438178597e-08
2.44340961044e-08
2.44297741988e-08
2.44252909715e-08
2.44206608294e-08
2.44159582049e-08
2.44111951859e-08
2.44064377214e-08
2.44016920393e-08
2.43970139952e-08
2.43924032552e-08
2.4387906105e-08
2.43835164527e-08
2.43792724243e-08
2.437516345e-08
2.437122103e-08
2.43674313211e-08
2.43638204928e-08
2.43603723617e-08
2.43571088094e-08
2.4354012072e-08
2.43511006139e-08
2.4348355629e-08
2.43457927677e-08
2.43433925444e-08
2.43411683864e-08
2.43391005585e-08
2.43372008128e-08
2.43354493989e-08
2.43338567119e-08
2.43324030935e-08
2.43310978859e-08
2.43299216807e-08
2.43288831093e-08
2.43279631621e-08
2.43271700505e-08
2.43264852744e-08
2.43259167874e-08
2.4325446292e-08
2.43250810512e-08
2.4324802896e-08
2.43246194343e-08
2.43245128447e-08
2.43244900846e-08
2.43245339712e-08
2.43246508576e-08
2.43248238761e-08
2.43250608423e-08
2.43253451161e-08
2.43256847381e-08
2.43260633391e-08
2.43264892423e-08
2.43269463343e-08
2.43274432542e-08
2.43279641295e-08
2.43285179384e-08
2.43290890373e-08
2.43296867583e-08
2.43302956762e-08
2.4330925483e-08
2.43315609643e-08
2.43322121717e-08
2.4332864094e-08
2.43335271361e-08
2.43341864841e-08
2.43348528856e-08