/*--------------------------------*- C++ -*----------------------------------*\
| =========                 |                                                 |
| \\      /  F ield         | OpenFOAM: The Open Source CFD Toolbox           |
|  \\    /   O peration     | Version:  2206                                  |
|   \\  /    A nd           | Website:  www.openfoam.com                      |
|    \\/     M anipulation  |                                                 |
\*---------------------------------------------------------------------------*/
FoamFile
{
    version     2.0;
    format      ascii;
    arch        "LSB;label=64;scalar=64";
    class       volScalarField;
    location    "0.3/water";
    object      p;
}
// * * * * * * * * * * * * * * * * * * * * * * * * * * * * * * * * * * * * * //

dimensions      [1 -1 -2 0 0 0 0];

internalField   nonuniform List<scalar> 
23300
(
100787.804652
100787.801277
100787.794472
100787.783914
100787.770204
100787.752744
100787.732235
100787.707915
100787.680624
100787.649557
100787.615601
100787.577944
100787.537468
100787.493385
100787.446541
100787.39618
100787.343107
100787.286606
100787.22744
100787.164934
100787.099817
100787.031453
100786.960541
100786.886479
100786.80994
100786.730356
100786.648371
100786.563454
100786.476216
100786.386163
100786.293876
100786.198897
100786.101773
100786.002085
100785.900344
100785.796171
100785.690042
100785.58162
100785.471341
100785.35891
100785.244728
100785.128541
100785.010711
100784.891029
100784.769818
100784.646911
100784.522596
100784.396745
100784.269612
100784.141106
100784.011451
100783.880591
100783.748718
100783.615811
100783.482034
100783.347395
100783.212032
100783.075982
100782.939358
100782.802221
100782.664662
100782.526763
100782.388598
100782.250265
100782.11182
100781.973376
100781.834976
100781.696742
100781.558701
100781.42098
100781.2836
100781.146696
100781.010281
100780.874492
100780.739334
100780.604944
100780.471323
100780.338606
100780.20679
100780.076007
100779.946252
100779.817654
100779.690203
100779.564026
100779.439111
100779.31558
100779.19342
100779.072749
100778.953552
100778.83594
100778.719901
100778.60554
100778.492843
100778.381911
100778.272729
100778.165393
100778.059889
100777.956307
100777.854633
100777.754952
100777.657251
100777.561608
100777.468013
100777.376539
100777.287173
100777.199986
100777.114965
100777.032176
100776.951607
100776.873319
100776.7973
100776.723607
100776.65223
100776.583219
100776.516566
100776.452316
100776.390463
100776.331047
100776.274063
100776.219547
100776.167495
100776.117937
100776.070873
100776.026328
100775.984302
100775.944817
100775.907873
100775.873491
100775.84167
100775.812427
100775.785766
100775.761696
100775.740224
100775.721358
100775.705102
100775.691462
100775.680439
100775.672023
100775.666227
100775.663194
100779.736554
100779.733191
100779.726247
100779.71568
100779.701826
100779.684349
100779.663648
100779.63933
100779.611855
100779.580806
100779.546675
100779.509045
100779.468402
100779.424342
100779.37733
100779.326982
100779.273736
100779.217231
100779.157885
100779.095361
100779.030057
100778.96166
100778.890554
100778.816446
100778.739707
100778.660065
100778.577875
100778.492888
100778.405441
100778.315307
100778.222806
100778.127733
100778.030391
100777.930596
100777.828633
100777.724342
100777.617987
100777.509432
100777.398923
100777.286347
100777.171931
100777.055585
100776.937518
100776.817664
100776.696213
100776.573123
100776.448564
100776.322518
100776.195139
100776.06643
100775.936527
100775.805454
100775.673334
100775.540207
100775.406183
100775.271319
100775.135711
100774.999431
100774.862564
100774.725195
100774.587397
100774.449266
100774.310865
100774.172299
100774.033624
100773.89495
100773.756322
100773.617853
100773.479586
100773.341641
100773.204051
100773.066934
100772.930319
100772.794323
100772.658973
100772.524384
100772.390579
100772.257671
100772.125679
100771.994713
100771.86479
100771.736017
100771.608406
100771.482062
100771.356996
100771.233306
100771.111003
100770.990181
100770.870849
100770.753095
100770.636928
100770.522433
100770.409616
100770.298557
100770.189262
100770.081807
100769.976198
100769.872504
100769.770731
100769.670946
100769.573153
100769.477414
100769.383733
100769.292168
100769.202723
100769.115452
100769.030358
100768.947492
100768.866855
100768.788496
100768.712415
100768.638657
100768.567223
100768.498152
100768.431447
100768.367143
100768.305244
100768.245779
100768.188753
100768.134193
100768.082103
100768.032507
100767.98541
100767.940831
100767.898776
100767.859262
100767.822294
100767.787886
100767.756045
100767.726782
100767.700103
100767.676018
100767.654532
100767.635653
100767.619385
100767.605732
100767.594693
100767.58626
100767.580457
100767.577462
100771.677482
100771.674091
100771.667058
100771.65639
100771.642387
100771.624767
100771.603883
100771.579416
100771.551757
100771.520573
100771.486268
100771.44851
100771.407696
100771.363504
100771.316313
100771.265817
100771.212378
100771.155705
100771.096148
100771.033436
100770.967903
100770.899299
100770.827947
100770.753615
100770.676615
100770.596732
100770.514266
100770.429022
100770.341285
100770.250878
100770.158073
100770.062712
100769.965051
100769.864952
100769.762655
100769.658042
100769.551339
100769.442446
100769.331572
100769.218641
100769.103845
100768.987128
100768.868667
100768.748425
100768.626566
100768.503072
100768.378093
100768.251631
100768.12382
100767.994683
100767.86434
100767.73283
100767.600263
100767.466693
100767.332218
100767.196906
100767.060846
100766.924117
100766.786798
100766.648981
100766.510735
100766.372159
100766.233316
100766.094311
100765.955199
100765.81609
100765.677033
100765.538142
100765.399461
100765.261104
100765.12311
100764.985594
100764.848588
100764.712207
100764.57648
100764.44152
100764.307353
100764.174088
100764.041748
100763.910441
100763.780186
100763.651085
100763.523158
100763.396502
100763.271134
100763.147148
100763.024558
100762.903455
100762.78385
100762.66583
100762.549406
100762.434659
100762.321598
100762.210301
100762.100778
100761.993099
100761.887273
100761.783369
100761.681394
100761.581411
100761.483427
100761.387503
100761.293644
100761.201907
100761.112295
100761.024863
100760.939614
100760.856598
100760.775818
100760.697319
100760.621105
100760.547218
100760.475661
100760.406472
100760.339654
100760.275241
100760.213238
100760.153674
100760.096554
100760.041904
100759.989728
100759.940051
100759.892877
100759.848225
100759.806102
100759.766524
100759.729496
100759.695033
100759.66314
100759.633829
100759.607107
100759.582981
100759.561459
100759.542548
100759.526251
100759.512573
100759.501513
100759.493066
100759.487265
100759.484298
100763.627134
100763.623699
100763.61658
100763.605782
100763.591621
100763.573814
100763.552726
100763.528049
100763.500171
100763.468773
100763.434244
100763.396268
100763.355224
100763.310801
100763.263365
100763.212619
100763.158913
100763.101968
100763.04212
100762.97911
100762.913263
100762.844338
100762.77265
100762.697974
100762.620615
100762.540368
100762.457523
100762.371892
100762.283755
100762.192941
100762.099714
100762.003923
100761.905817
100761.805265
100761.702501
100761.597411
100761.490214
100761.380819
100761.269428
100761.155969
100761.040631
100760.923361
100760.804333
100760.683514
100760.561064
100760.436972
100760.311381
100760.184299
100760.055859
100759.926085
100759.795096
100759.662936
100759.529711
100759.39548
100759.26034
100759.124361
100758.987631
100758.850233
100758.712245
100758.57376
100758.434848
100758.295609
100758.156107
100758.016448
100757.876687
100757.736936
100757.597243
100757.457723
100757.318421
100757.179451
100757.040852
100756.902739
100756.765147
100756.62819
100756.491898
100756.356382
100756.221671
100756.087873
100755.955011
100755.823193
100755.692438
100755.56285
100755.434446
100755.307325
100755.181504
100755.057075
100754.934055
100754.812532
100754.692519
100754.574101
100754.457291
100754.342168
100754.228743
100754.117092
100754.007224
100753.899212
100753.793063
100753.688845
100753.586567
100753.48629
100753.388022
100753.291823
100753.197698
100753.105703
100753.015845
100752.928173
100752.842693
100752.759454
100752.67846
100752.599755
100752.523343
100752.449266
100752.377526
100752.308161
100752.241176
100752.176603
100752.114446
100752.054736
100751.997476
100751.942693
100751.890391
100751.840595
100751.793307
100751.74855
100751.706326
100751.666654
100751.629539
100751.594994
100751.563026
100751.533647
100751.506861
100751.482678
100751.461105
100751.442149
100751.425813
100751.412101
100751.401014
100751.39255
100751.386744
100751.383785
100755.585477
100755.581988
100755.574779
100755.563839
100755.549507
100755.531491
100755.510173
100755.485244
100755.457102
100755.425427
100755.390612
100755.352341
100755.310989
100755.26625
100755.218483
100755.167395
100755.113331
100755.056015
100754.995782
100754.932373
100754.866113
100754.796762
100754.724634
100754.649506
100754.571681
100754.490955
100754.407619
100754.321483
100754.232828
100754.141481
100754.047708
100753.951356
100753.852674
100753.75153
100753.648157
100753.542442
100753.434604
100753.324549
100753.212482
100753.09833
100752.98228
100752.864282
100752.744508
100752.622928
100752.499701
100752.374816
100752.248418
100752.120516
100751.991242
100751.860623
100751.72878
100751.595755
100751.461658
100751.326549
100751.190524
100751.053658
100750.916038
100750.777749
100750.63887
100750.499495
100750.359696
100750.219575
100750.079195
100749.938665
100749.798039
100749.657432
100749.516891
100749.376534
100749.236404
100749.096617
100748.957213
100748.818308
100748.679937
100748.542214
100748.405169
100748.268916
100748.133481
100747.998974
100747.865419
100747.732922
100747.601504
100747.471268
100747.342231
100747.214493
100747.088069
100746.963054
100746.839462
100746.717382
100746.596827
100746.477882
100746.36056
100746.244939
100746.13103
100746.01891
100745.908587
100745.800132
100745.693555
100745.588923
100745.486242
100745.385576
100745.286932
100745.190368
100745.095892
100745.003557
100744.91337
100744.825382
100744.739597
100744.656063
100744.574786
100744.495808
100744.419135
100744.344805
100744.272824
100744.203227
100744.13602
100744.071234
100744.008875
100743.948971
100743.891526
100743.836568
100743.7841
100743.734145
100743.686709
100743.64181
100743.599454
100743.559659
100743.522428
100743.487776
100743.455709
100743.426238
100743.399369
100743.375112
100743.353472
100743.334455
100743.318068
100743.304313
100743.29319
100743.2847
100743.278882
100743.275922
100747.552551
100747.549008
100747.541703
100747.530613
100747.516095
100747.497847
100747.476272
100747.451052
100747.422598
100747.39059
100747.355423
100747.316782
100747.275044
100747.229902
100747.181715
100747.13019
100747.075673
100747.017888
100746.95717
100746.89326
100746.826485
100746.756602
100746.683929
100746.60824
100746.529841
100746.448524
100746.364583
100746.277826
100746.188534
100746.096532
100746.002088
100745.905044
100745.805654
100745.703779
100745.599657
100745.49317
100745.38454
100745.27367
100745.160766
100745.045754
100744.928822
100744.809919
100744.68922
100744.566692
100744.442497
100744.316624
100744.18922
100744.060294
100743.929979
100743.798306
100743.665394
100743.531289
100743.396102
100743.259894
100743.122763
100742.984787
100742.846052
100742.706648
100742.566653
100742.426165
100742.285256
100742.14403
100742.00255
100741.860929
100741.719221
100741.577541
100741.43594
100741.294535
100741.153369
100741.012562
100740.872152
100740.732257
100740.592911
100740.454231
100740.316247
100740.179072
100740.042734
100739.907342
100739.772921
100739.639577
100739.507332
100739.376287
100739.246461
100739.117953
100738.990779
100738.865032
100738.740727
100738.617954
100738.496725
100738.377124
100738.259163
100738.142923
100738.028412
100737.915708
100737.804818
100737.695814
100737.588705
100737.483556
100737.380376
100737.279226
100737.180114
100737.083098
100736.988184
100736.895427
100736.804832
100736.71645
100736.630286
100736.546387
100736.464758
100736.385441
100736.308442
100736.2338
100736.161518
100736.091634
100736.024151
100735.959101
100735.89649
100735.836345
100735.778671
100735.723495
100735.67082
100735.62067
100735.573048
100735.527975
100735.485455
100735.445506
100735.408132
100735.373347
100735.341157
100735.311573
100735.284601
100735.26025
100735.238527
100735.219437
100735.202986
100735.189177
100735.17801
100735.169486
100735.16365
100735.160685
100739.528451
100739.524848
100739.517439
100739.506184
100739.491461
100739.472956
100739.451088
100739.425535
100739.396719
100739.364314
100739.328728
100739.289641
100739.247435
100739.201802
100739.153104
100739.101047
100739.04598
100738.987626
100738.926321
100738.861808
100738.794413
100738.723894
100738.65057
100738.574213
100738.495131
100738.413113
100738.328455
100738.240962
100738.150916
100738.058139
100737.962899
100737.865038
100737.764807
100737.662067
100737.557054
100737.449651
100737.340077
100737.228237
100737.114334
100736.998295
100736.88031
100736.760325
100736.638516
100736.514854
100736.389497
100736.262439
100736.133825
100736.003669
100735.872103
100735.739161
100735.604962
100735.469558
100735.333057
100735.195526
100735.057063
100734.917749
100734.777672
100734.636924
100734.495585
100734.353756
100734.211508
100734.068951
100733.926147
100733.783212
100733.640201
100733.497232
100733.354353
100733.211686
100733.069275
100732.92724
100732.78562
100732.644534
100732.504018
100732.364188
100732.225075
100732.086794
100731.949371
100731.812918
100731.677458
100731.543099
100731.40986
100731.277846
100731.147075
100731.017644
100730.889571
100730.762948
100730.637791
100730.514187
100730.39215
100730.271765
100730.153041
100730.03606
100729.92083
100729.807428
100729.695861
100729.586201
100729.478455
100729.37269
100729.268912
100729.167185
100729.067515
100728.969959
100728.874523
100728.781262
100728.69018
100728.601329
100728.514713
100728.430378
100728.348328
100728.268608
100728.19122
100728.116205
100728.043565
100727.973338
100727.905526
100727.840162
100727.77725
100727.716818
100727.658871
100727.603435
100727.550514
100727.50013
100727.452287
100727.407006
100727.364291
100727.324159
100727.286614
100727.251671
100727.219334
100727.189616
100727.162522
100727.138061
100727.116238
100727.09706
100727.080534
100727.06666
100727.05544
100727.046877
100727.041017
100727.038046
100731.513295
100731.509631
100731.502102
100731.490665
100731.475708
100731.456911
100731.434709
100731.408771
100731.379532
100731.346666
100731.310586
100731.270971
100731.228211
100731.181995
100731.13269
100731.080004
100731.024286
100730.965261
100730.903268
100730.838047
100730.769929
100730.69867
100730.624589
100730.547458
100730.467587
100730.38476
100730.299275
100730.210934
100730.12002
100730.026351
100729.930196
100729.831391
100729.730192
100729.626452
100729.520412
100729.411948
100729.301282
100729.188315
100729.073254
100728.956021
100728.836809
100728.715563
100728.59246
100728.467471
100728.340757
100728.212312
100728.082283
100727.950685
100727.817653
100727.683223
100727.547516
100727.410586
100727.272544
100727.13346
100726.993433
100726.852549
100726.710896
100726.568571
100726.425654
100726.282251
100726.138434
100725.994315
100725.849958
100725.705482
100725.560943
100725.41646
100725.272085
100725.12794
100724.98407
100724.840597
100724.69756
100724.555081
100724.413195
100724.272021
100724.131589
100723.992014
100723.853325
100723.715632
100723.578959
100723.443414
100723.309018
100723.175873
100723.043999
100722.913493
100722.784372
100722.656729
100722.530578
100722.406009
100722.283032
100722.161734
100722.042123
100721.92428
100721.808214
100721.694
100721.581646
100721.471224
100721.362739
100721.256258
100721.151788
100721.049391
100720.949072
100720.85089
100720.754848
100720.661003
100720.569357
100720.479961
100720.39282
100720.30798
100720.225444
100720.145255
100720.067417
100719.991969
100719.918915
100719.848289
100719.780096
100719.714368
100719.651107
100719.590344
100719.53208
100719.476344
100719.423136
100719.372482
100719.324384
100719.278862
100719.235921
100719.195577
100719.157834
100719.122708
100719.090202
100719.060328
100719.033092
100719.008502
100718.986565
100718.967287
100718.950672
100718.936724
100718.925444
100718.916834
100718.910946
100718.907966
100723.50724
100723.503501
100723.495836
100723.484188
100723.468962
100723.449831
100723.427239
100723.400856
100723.371127
100723.337721
100723.301064
100723.260832
100723.217424
100723.170527
100723.120516
100723.067096
100723.010625
100722.950823
100722.888038
100722.822004
100722.75306
100722.680955
100722.606015
100722.528006
100722.447241
100722.3635
100722.277084
100722.187787
100722.095895
100722.001221
100721.904034
100721.804167
100721.701874
100721.597006
100721.489802
100721.380136
100721.268231
100721.153984
100721.037603
100720.91901
100720.798396
100720.675708
100720.551125
100720.424616
100720.296345
100720.166307
100720.034652
100719.901397
100719.766678
100719.630535
100719.493091
100719.354405
100719.214587
100719.073714
100718.931886
100718.789193
100718.645725
100718.501583
100718.356849
100718.211633
100718.066007
100717.920091
100717.773946
100717.627698
100717.4814
100717.335178
100717.189082
100717.043238
100716.897691
100716.752566
100716.607904
100716.463827
100716.32037
100716.177654
100716.035709
100715.894653
100715.754512
100715.6154
100715.477339
100715.340438
100715.204717
100715.070281
100714.937147
100714.805413
100714.675096
100714.546289
100714.419004
100714.293333
100714.169285
100714.046946
100713.926324
100713.8075
100713.690481
100713.575344
100713.462095
100713.350805
100713.24148
100713.134186
100713.028928
100712.925769
100712.824714
100712.72582
100712.62909
100712.534581
100712.442294
100712.352281
100712.264544
100712.17913
100712.096041
100712.015321
100711.936972
100711.861034
100711.787508
100711.716431
100711.647806
100711.581664
100711.518008
100711.456868
100711.398246
100711.342168
100711.288637
100711.237676
100711.189288
100711.143493
100711.100295
100711.059711
100711.021745
100710.986411
100710.953713
100710.923663
100710.896266
100710.871532
100710.849464
100710.830071
100710.813358
100710.799326
100710.787976
100710.779314
100710.773395
100710.770403
100715.510442
100715.506621
100715.498796
100715.486907
100715.471369
100715.451848
100715.428807
100715.401905
100715.371604
100715.337571
100715.300243
100715.259295
100715.215134
100715.167449
100715.116624
100715.062361
100715.005026
100714.944339
100714.880653
100714.813701
100714.743824
100714.670771
100714.59487
100714.515883
100714.434124
100714.34937
100714.26192
100714.171566
100714.078593
100713.982807
100713.884479
100713.783435
100713.679928
100713.573806
100713.465308
100713.354302
100713.241012
100713.125333
100713.007473
100712.887351
100712.765161
100712.64085
100712.514595
100712.38637
100712.256338
100712.124498
100711.991
100711.855866
100711.719234
100711.581147
100711.441731
100711.301049
100711.159215
100711.016309
100710.872434
100710.727685
100710.582154
100710.435948
100710.28915
100710.141875
100709.994198
100709.84624
100709.698068
100709.549808
100709.401517
100709.253322
100709.105276
100708.957509
100708.810064
100708.663071
100708.516569
100708.370685
100708.225452
100708.080995
100707.937343
100707.794615
100707.652837
100707.512124
100707.372499
100707.234071
100707.096859
100706.960969
100706.826417
100706.693303
100706.561641
100706.431526
100706.302969
100706.176061
100706.050811
100705.927304
100705.805548
100705.685625
100705.56754
100705.451368
100705.337117
100705.224856
100705.11459
100705.006386
100704.900247
100704.796237
100704.694357
100704.594668
100704.49717
100704.401919
100704.308916
100704.218213
100704.12981
100704.043755
100703.960049
100703.878736
100703.799817
100703.723331
100703.64928
100703.577699
100703.508591
100703.441988
100703.377891
100703.316331
100703.257308
100703.20085
100703.146957
100703.095654
100703.046943
100703.000844
100702.95736
100702.916509
100702.878293
100702.842727
100702.809815
100702.779568
100702.751993
100702.727096
100702.704885
100702.685365
100702.66854
100702.654415
100702.642988
100702.634268
100702.628314
100702.625309
100707.523108
100707.519188
100707.511179
100707.499006
100707.483104
100707.46313
100707.439561
100707.412055
100707.381089
100707.346325
100707.308217
100707.266437
100707.221408
100707.172815
100707.121055
100707.065829
100707.007514
100706.945827
100706.881128
100706.813148
100706.742234
100706.66813
100706.59117
100706.511107
100706.428261
100706.342398
100706.253823
100706.162317
100706.068167
100705.97117
100705.871599
100705.76927
100705.664438
100705.556943
100705.447024
100705.334545
100705.21973
100705.102469
100704.982971
100704.861154
100704.737212
100704.611092
100704.482973
100704.35283
100704.220829
100704.08697
100703.951407
100703.814165
100703.675384
100703.535115
100703.393483
100703.250558
100703.106457
100702.961265
100702.815089
100702.668029
100702.520179
100702.371654
100702.222536
100702.072948
100701.922966
100701.772718
100701.622269
100701.471753
100701.321226
100701.170821
100701.020591
100700.870669
100700.7211
100700.572017
100700.423459
100700.275555
100700.12834
100699.981939
100699.836381
100699.691789
100699.548187
100699.405691
100699.264324
100699.124197
100698.985327
100698.847821
100698.711694
100698.577047
100698.443893
100698.312326
100698.182358
100698.054079
100697.927497
100697.802698
100697.679688
100697.558547
100697.439282
100697.321967
100697.206608
100697.093274
100696.981969
100696.87276
100696.765649
100696.660699
100696.557911
100696.457344
100696.358998
100696.262929
100696.169137
100696.077673
100695.988537
100695.901776
100695.81739
100695.735423
100695.655876
100695.578786
100695.504156
100695.432021
100695.362382
100695.295271
100695.230689
100695.168665
100695.109202
100695.052324
100694.998034
100694.946355
100694.897288
100694.850854
100694.807055
100694.765909
100694.727418
100694.691597
100694.65845
100694.627987
100694.600215
100694.575141
100694.552771
100694.53311
100694.516165
100694.501937
100694.490426
100694.481642
100694.475649
100694.47263
100699.545475
100699.541443
100699.533214
100699.520712
100699.504379
100699.483871
100699.459684
100699.431469
100699.399721
100699.364105
100699.325088
100699.282344
100699.236311
100699.186675
100699.133847
100699.077526
100699.018103
100698.955291
100698.889462
100698.820342
100698.748286
100698.673031
100698.594916
100698.513687
100698.429665
100698.342611
100698.252826
100698.160084
100698.064671
100697.966377
100697.86547
100697.761759
100697.655498
100697.546521
100697.435062
100697.320983
100697.204504
100697.085515
100696.964222
100696.840543
100696.714672
100696.586557
100696.456377
100696.324111
100696.189925
100696.053825
100695.915966
100695.776379
100695.635206
100695.492504
100695.348402
100695.202977
100695.056348
100694.908608
100694.759865
100694.610228
100694.459793
100694.308681
100694.156979
100694.004815
100693.852266
100693.699468
100693.546487
100693.393461
100693.24045
100693.087589
100692.934934
100692.782621
100692.630697
100692.479296
100692.328461
100692.178321
100692.028912
100691.880362
100691.732699
100691.586048
100691.440433
100691.295971
100691.152684
100691.010685
100690.869989
100690.730705
100690.592846
100690.456514
100690.32172
100690.188561
100690.057044
100689.927262
100689.79922
100689.673004
100689.54862
100689.426147
100689.30559
100689.187025
100689.070454
100688.955947
100688.843507
100688.7332
100688.625028
100688.519051
100688.415272
100688.313747
100688.214477
100688.117515
100688.022863
100687.930569
100687.840634
100687.753103
100687.667977
100687.585297
100687.505065
100687.427318
100687.352058
100687.279318
100687.2091
100687.141436
100687.076325
100687.013798
100686.953854
100686.89652
100686.841797
100686.789708
100686.740253
100686.693455
100686.649313
100686.607846
100686.569057
100686.532958
100686.499555
100686.468858
100686.440871
100686.415603
100686.393061
100686.373249
100686.356171
100686.341832
100686.33023
100686.321376
100686.315341
100686.312305
100691.577845
100691.573674
100691.565185
100691.552286
100691.535444
100691.514305
100691.489382
100691.460331
100691.427666
100691.391048
100691.350969
100691.307103
100691.259908
100691.209072
100691.155022
100691.097459
100691.036787
100690.972718
100690.905635
100690.83526
100690.761956
100690.685453
100690.606093
100690.523615
100690.438341
100690.350021
100690.258956
100690.164908
100690.068162
100689.968495
100689.866174
100689.760999
100689.653217
100689.542656
100689.429549
100689.31375
100689.195477
100689.074617
100688.951374
100688.825667
100688.697689
100688.567388
100688.434947
100688.300345
100688.163753
100688.02518
100687.884785
100687.742605
100687.598787
100687.453391
100687.306554
100687.158358
100687.008927
100686.858362
100686.706775
100686.554282
100686.400984
100686.247008
100686.092445
100685.937429
100685.782042
100685.626424
100685.470646
100685.314849
100685.159094
100685.003525
100684.848197
100684.69325
100684.538733
100684.384784
100684.231445
100684.078849
100683.927032
100683.776124
100683.626154
100683.477247
100683.329428
100683.182816
100683.03743
100682.893385
100682.750696
100682.609472
100682.469725
100682.331557
100682.194978
100682.060084
100681.926883
100681.795466
100681.665838
100681.538084
100681.412208
100681.28829
100681.166333
100681.046412
100680.928527
100680.812751
100680.699082
100680.587587
100680.478265
100680.371179
100680.266327
100680.163767
100680.063497
100679.965572
100679.86999
100679.7768
100679.686001
100679.597639
100679.511713
100679.428265
100679.347294
100679.268838
100679.192896
100679.119505
100679.048662
100678.9804
100678.914719
100678.851648
100678.791187
100678.73336
100678.67817
100678.625638
100678.575766
100678.528574
100678.484063
100678.44225
100678.403138
100678.366741
100678.333061
100678.302111
100678.273894
100678.248419
100678.22569
100678.205713
100678.188495
100678.174035
100678.162334
100678.153407
100678.147326
100678.144271
100683.620552
100683.616218
100683.607415
100683.594047
100683.576593
100683.554699
100683.528904
100683.498857
100683.465101
100683.427303
100683.385976
100683.3408
100683.292256
100683.240035
100683.184585
100683.125612
100683.063533
100682.998062
100682.929593
100682.857845
100682.783188
100682.705344
100682.624658
100682.540861
100682.454272
100682.364629
100682.272231
100682.176827
100682.078694
100681.977601
100681.873806
100681.767097
100681.65772
100681.54549
100681.430636
100681.313006
100681.192816
100681.069947
100680.944604
100680.816703
100680.686437
100680.553757
100680.418847
100680.281691
100680.142462
100680.001175
100679.857993
100679.712959
100679.566226
100679.417863
100679.26801
100679.116758
100678.964237
100678.810556
100678.655833
100678.500191
100678.343736
100678.186605
100678.02889
100677.870736
100677.712226
100677.553508
100677.394655
100677.235815
100677.077052
100676.918513
100676.760256
100676.602425
100676.445072
100676.288337
100676.132262
100675.976986
100675.822543
100675.669065
100675.516583
100675.365222
100675.215007
100675.066058
100674.918394
100674.77213
100674.627282
100674.483956
100674.342165
100674.202011
100674.063502
100673.926735
100673.791716
100673.658535
100673.527196
100673.397785
100673.270302
100673.144829
100673.021365
100672.899986
100672.78069
100672.663549
100672.54856
100672.435789
100672.325234
100672.216957
100672.110955
100672.007285
100671.905944
100671.806985
100671.710406
100671.616256
100671.524533
100671.435281
100671.348498
100671.264226
100671.182463
100671.103248
100671.026578
100670.952488
100670.880976
100670.812076
100670.745784
100670.682131
100670.621115
100670.562762
100670.507071
100670.454066
100670.403747
100670.356134
100670.311228
100670.269046
100670.229589
100670.192871
100670.158896
100670.127675
100670.099211
100670.073513
100670.050586
100670.030435
100670.013064
100669.998476
100669.986671
100669.977663
100669.971534
100669.968458
100675.674034
100675.669498
100675.660317
100675.646378
100675.628186
100675.605384
100675.578534
100675.547296
100675.51224
100675.473035
100675.430231
100675.383513
100675.333391
100675.279566
100675.222508
100675.161929
100675.098266
100675.031233
100674.961238
100674.887996
100674.811883
100674.732613
100674.650535
100674.565363
100674.477416
100674.386416
100674.292656
100674.195868
100674.096324
100673.993773
100673.888467
100673.780182
100673.669153
100673.555185
100673.438502
100673.318943
100673.196721
100673.071712
100672.944119
100672.813858
100672.681123
100672.545866
100672.408274
100672.268335
100672.126226
100671.981971
100671.835735
100671.687573
100671.537641
100671.386019
100671.232852
100671.078242
100670.922325
100670.76522
100670.60705
100670.447949
100670.288029
100670.127434
100669.966264
100669.804669
100669.642738
100669.480626
100669.318411
100669.156245
100668.994196
100668.832416
100668.670965
100668.509994
100668.349553
100668.189788
100668.030742
100667.872556
100667.715265
100667.559004
100667.403802
100667.249787
100667.096982
100666.94551
100666.795389
100666.646733
100666.499558
100666.35397
100666.209981
100666.067693
100665.927112
100665.788336
100665.651367
100665.516296
100665.383126
100665.25194
100665.122739
100664.995602
100664.870529
100664.747592
100664.62679
100664.508192
100664.391796
100664.277665
100664.165796
100664.05625
100663.949023
100663.84417
100663.741689
100663.641631
100663.543991
100663.44882
100663.356113
100663.265914
100663.17822
100663.093073
100663.010469
100662.930446
100662.853001
100662.778169
100662.705947
100662.636367
100662.569427
100662.505155
100662.443549
100662.384636
100662.328415
100662.274907
100662.224113
100662.176052
100662.130726
100662.088151
100662.048327
100662.01127
100661.976982
100661.945473
100661.916747
100661.890813
100661.867674
100661.847336