/*--------------------------------*- C++ -*----------------------------------*\
| =========                 |                                                 |
| \\      /  F ield         | OpenFOAM: The Open Source CFD Toolbox           |
|  \\    /   O peration     | Version:  2212                                  |
|   \\  /    A nd           | Website:  www.openfoam.com                      |
|    \\/     M anipulation  |                                                 |
\*---------------------------------------------------------------------------*/
FoamFile
{
    version     2.0;
    format      ascii;
    arch        "LSB;label=64;scalar=64";
    class       volScalarField;
    location    "240";
    object      Gco2;
}
// * * * * * * * * * * * * * * * * * * * * * * * * * * * * * * * * * * * * * //

dimensions      [1 -3 0 0 0 0 0];

internalField   nonuniform List<scalar> 
1024
(
0.0470971
0.0470875
0.0470651
0.0470258
0.0469672
0.0468897
0.0467974
0.0466969
0.0465952
0.046497
0.0464041
0.0463197
0.0462505
0.046211
0.0462283
0.046344
0.0465716
0.0468312
0.0471129
0.0474017
0.047661
0.0478552
0.0479837
0.0480714
0.0481412
0.048202
0.0482553
0.0482999
0.0483344
0.0483581
0.0483718
0.0483776
0.047094
0.0470842
0.0470607
0.0470197
0.0469586
0.0468787
0.0467843
0.0466824
0.0465798
0.0464808
0.0463868
0.0463008
0.0462297
0.0461883
0.0462043
0.0463212
0.0465524
0.0468144
0.0470987
0.0473901
0.0476524
0.0478487
0.0479774
0.0480646
0.0481343
0.0481956
0.0482498
0.0482956
0.0483313
0.0483559
0.0483704
0.0483765
0.0470875
0.047077
0.0470515
0.0470068
0.0469412
0.0468563
0.0467578
0.0466529
0.0465481
0.0464464
0.0463489
0.046258
0.0461808
0.0461327
0.0461443
0.0462643
0.0465066
0.046778
0.0470711
0.0473689
0.0476354
0.0478334
0.0479614
0.0480479
0.0481183
0.0481818
0.0482387
0.0482873
0.0483254
0.0483519
0.0483675
0.0483741
0.0470771
0.0470655
0.047037
0.0469874
0.0469153
0.0468236
0.046719
0.0466094
0.0465
0.0463926
0.0462872
0.0461856
0.0460947
0.0460319
0.0460335
0.0461594
0.046425
0.0467181
0.0470305
0.0473397
0.04761
0.0478072
0.0479327
0.0480185
0.0480914
0.0481595
0.0482217
0.048275
0.0483169
0.0483459
0.0483629
0.04837
0.0470628
0.0470499
0.0470182
0.0469629
0.046883
0.0467831
0.0466708
0.0465539
0.0464365
0.0463186
0.0461986
0.0460775
0.0459621
0.0458728
0.0458562
0.0459919
0.0462979
0.0466297
0.0469752
0.0473021
0.0475751
0.0477678
0.0478889
0.0479751
0.0480529
0.0481285
0.0481987
0.0482589
0.0483058
0.048338
0.0483565
0.0483641
0.0470454
0.0470314
0.0469965
0.0469355
0.0468478
0.0467389
0.0466171
0.0464898
0.0463597
0.0462246
0.0460814
0.0459295
0.0457758
0.0456452
0.0456
0.0457504
0.046117
0.0465077
0.0469006
0.0472521
0.0475269
0.0477122
0.047829
0.0479181
0.0480041
0.0480901
0.0481706
0.0482394
0.0482923
0.048328
0.0483482
0.0483564
0.0470262
0.0470114
0.046974
0.0469082
0.0468134
0.0466953
0.0465624
0.0464213
0.0462731
0.0461136
0.0459375
0.0457424
0.0455351
0.0453466
0.0452614
0.0454322
0.0458794
0.0463473
0.0467987
0.0471807
0.0474579
0.0476363
0.0477528
0.0478499
0.047948
0.0480472
0.0481396
0.0482178
0.048277
0.0483164
0.0483382
0.0483469
0.0470066
0.0469914
0.0469526
0.0468836
0.0467833
0.0466567
0.0465117
0.0463538
0.0461828
0.0459924
0.0457747
0.0455249
0.0452493
0.0449862
0.0448495
0.0450475
0.0455897
0.0461465
0.04666
0.0470746
0.0473578
0.0475363
0.047662
0.0477749
0.0478899
0.0480042
0.048109
0.0481962
0.0482611
0.0483036
0.0483269
0.048336
0.0469882
0.0469729
0.0469338
0.0468636
0.0467599
0.0466264
0.0464696
0.046294
0.0460976
0.0458726
0.0456077
0.0452945
0.0449375
0.0445836
0.0443861
0.0446198
0.0452634
0.04591
0.0464792
0.0469235
0.0472207
0.0474143
0.047563
0.0477005
0.0478366
0.047967
0.0480829
0.0481773
0.0482464
0.048291
0.0483152
0.0483247
0.0469721
0.0469571
0.0469188
0.0468492
0.0467447
0.0466069
0.0464408
0.046249
0.0460286
0.0457692
0.0454557
0.0450736
0.0446229
0.0441608
0.0438965
0.044181
0.0449288
0.0456575
0.046269
0.0467368
0.0470586
0.0472849
0.0474695
0.0476379
0.0477965
0.0479412
0.0480654
0.0481638
0.0482348
0.0482801
0.0483046
0.0483142
0.0469598
0.0469452
0.0469083
0.046841
0.0467384
0.0466002
0.046429
0.0462261
0.0459868
0.0456978
0.0453375
0.0448815
0.0443205
0.0437269
0.043396
0.043762
0.0446274
0.0454308
0.0460723
0.0465583
0.0469112
0.0471794
0.0474036
0.0476015
0.0477783
0.0479323
0.0480596
0.0481581
0.0482281
0.0482726
0.0482967
0.0483063
0.0469525
0.0469384
0.0469034
0.0468398
0.0467419
0.0466076
0.0464376
0.0462311
0.0459812
0.0456694
0.045264
0.044723
0.0440228
0.0432651
0.0428812
0.043385
0.0444072
0.0452911
0.0459581
0.0464585
0.0468383
0.0471406
0.0473932
0.0476085
0.0477921
0.0479456
0.0480688
0.0481625
0.0482285
0.0482706
0.0482937
0.0483031
0.0469523
0.0469388
0.0469059
0.0468471
0.0467565
0.0466309
0.0464691
0.0462678
0.0460159
0.0456865
0.0452304
0.0445794
0.0436925
0.042732
0.0423325
0.0430591
0.0443081
0.0452987
0.045997
0.0465075
0.0468985
0.0472115
0.047468
0.0476782
0.0478499
0.0479887
0.048098
0.0481807
0.0482393
0.0482772
0.0482986
0.0483077
0.0469615
0.0469483
0.0469178
0.0468647
0.0467838
0.0466714
0.0465243
0.0463356
0.0460873
0.0457377
0.0452118
0.0444046
0.0432643
0.0420693
0.041718
0.0427654
0.0443187
0.045456
0.0462029
0.0467249
0.0471128
0.0474124
0.0476459
0.0478253
0.0479631
0.0480704
0.0481543
0.0482186
0.0482656
0.0482972
0.0483161
0.0483247
0.0469849
0.0469721
0.0469438
0.0468967
0.046827
0.0467307
0.0466023
0.0464292
0.0461815
0.0457959
0.0451605
0.0441278
0.0426573
0.0412138
0.0409715
0.0423897
0.044259
0.0455583
0.0463829
0.046949
0.047362
0.0476675
0.0478864
0.048034
0.0481311
0.0481978
0.0482479
0.0482878
0.0483195
0.0483433
0.0483591
0.0483667
0.0470265
0.0470141
0.0469881
0.046947
0.0468886
0.0468085
0.0466979
0.0465354
0.0462748
0.0458215
0.0450191
0.0436807
0.0418099
0.0400952
0.0399089
0.0415462
0.0435308
0.0448852
0.0457957
0.0464966
0.047081
0.0475631
0.047928
0.0481657
0.0482941
0.0483559
0.0483881
0.04841
0.0484262
0.0484355
0.0484384
0.048438
0.0470881
0.0470755
0.0470505
0.0470136
0.0469637
0.0468964
0.0467987
0.0466399
0.0463538
0.0458148
0.0448208
0.0431508
0.0408519
0.0387384
0.0382054
0.0394357
0.0409198
0.0419173
0.0427196
0.0435305
0.0444088
0.0453157
0.0461754
0.046915
0.0474857
0.0478624
0.0480788
0.0481592
0.0481408
0.0480723
0.0480018
0.0479619
0.0471669
0.0471537
0.0471288
0.047094
0.0470501
0.0469936
0.0469112
0.0467689
0.0464923
0.0459353
0.0448607
0.0430002
0.0403455
0.0375779
0.0359516
0.0357797
0.0358035
0.0355227
0.0352965
0.0352797
0.035534
0.0360388
0.0367372
0.0375581
0.0384267
0.0392631
0.0400349
0.0406911
0.0412011
0.0415564
0.0417681
0.0418606
0.0472549
0.0472409
0.0472152
0.0471812
0.047142
0.0470966
0.0470357
0.0469329
0.0467269
0.0462902
0.045391
0.0436935
0.040995
0.0376915
0.0346864
0.0326458
0.030834
0.0288457
0.0270987
0.0256978
0.0246643
0.0239778
0.0236192
0.0235793
0.0238514
0.0244152
0.0252362
0.0262425
0.0273195
0.0283068
0.029035
0.0293995
0.0473547
0.0473411
0.0473144
0.0472781
0.0472377
0.0471969
0.047153
0.0470904
0.0469708
0.0467123
0.046159
0.0450375
0.0429377
0.0397555
0.0359679
0.0325183
0.0295854
0.0268906
0.0247025
0.0230216
0.0217277
0.0206816
0.0197977
0.0190611
0.0185103
0.0181998
0.018177
0.0184508
0.0189683
0.0196001
0.02016
0.0204772
0.0474145
0.0474134
0.047405
0.0473833
0.0473485
0.0473079
0.0472683
0.0472271
0.0471662
0.0470408
0.0467619
0.0461593
0.0449159
0.042646
0.0391106
0.0349198
0.031259
0.0283177
0.0261177
0.0245373
0.0233817
0.0224297
0.0215176
0.0205818
0.0196542
0.0188117
0.0181379
0.0176914
0.0174853
0.0174813
0.0175882
0.017687
0.0472151
0.0472521
0.0473137
0.0473728
0.0474048
0.0474043
0.0473834
0.0473556
0.0473236
0.0472702
0.0471511
0.0468725
0.0462302
0.0448499
0.0422226
0.0382271
0.0340833
0.0307932
0.0283889
0.0266238
0.0252782
0.0241317
0.0230086
0.0218253
0.020609
0.0194528
0.0184705
0.0177418
0.0172846
0.0170616
0.0169987
0.0170058
0.0464661
0.0465608
0.0467452
0.0469755
0.0471856
0.0473295
0.0474025
0.0474274
0.047429
0.047416
0.0473743
0.0472549
0.046935
0.0461332
0.0442896
0.0408825
0.0367192
0.0331208
0.030398
0.0283297
0.0266989
0.0253061
0.0239852
0.022633
0.0212382
0.0198671
0.0186422
0.0176812
0.0170407
0.0166987
0.0165735
0.0165583
0.0450409
0.0451929
0.0455181
0.0459766
0.0464653
0.0468762
0.0471574
0.0473194
0.0474014
0.0474344
0.0474247
0.0473435
0.0471088
0.0465286
0.0451247
0.0422161
0.0382446
0.0345287
0.0315786
0.0292668
0.0274086
0.0258282
0.0243765
0.0229465
0.0214957
0.0200504
0.0187072
0.0175933
0.0168032
0.0163509
0.0161681
0.0161368
0.0430246
0.0432231
0.0436772
0.0443688
0.0451775
0.0459333
0.0465147
0.046893
0.0471022
0.0471829
0.0471502
0.0469832
0.0466243
0.0459588
0.0446485
0.0420349
0.0383229
0.0346809
0.031686
0.0292858
0.0273337
0.0256787
0.0241898
0.0227658
0.0213487
0.0199342
0.0185849
0.0174146
0.0165369
0.0160023
0.0157696
0.0157232
0.0405691
0.0408069
0.0413632
0.0422423
0.0433301
0.0444202
0.045315
0.045921
0.0462437
0.046318
0.0461639
0.045777
0.0451369
0.0442049
0.0427893
0.0403465
0.0369528
0.0335662
0.0307242
0.0284121
0.0265173
0.0249142
0.0234915
0.0221596
0.0208559
0.0195551
0.0182884
0.0171465
0.0162453
0.015662
0.0153889
0.0153274
0.0377731
0.03804
0.0386409
0.0395886
0.0408021
0.0420913
0.0432015
0.0439502
0.0443013
0.0442806
0.0439214
0.0432535
0.042308
0.0411129
0.0395921
0.0373363
0.0343557
0.0313838
0.0288626
0.0267908
0.0250841
0.0236423
0.0223744
0.021206
0.0200774
0.0189528
0.0178377
0.0167942
0.0159285
0.0153336
0.0150334
0.0149572
0.0346569
0.034923
0.0354531
0.0362664
0.0373498
0.0385853
0.0397154
0.040464
0.0407555
0.040608
0.0400701
0.0392071
0.0380931
0.0367967
0.0353126
0.0333489
0.0308821
0.0284391
0.026354
0.0246285
0.0232018
0.0219981
0.0209465
0.0199894
0.0190748
0.0181657
0.0172503
0.0163618
0.0155855
0.0150178
0.0147079
0.0146188
0.0311658
0.0313753
0.0316803
0.0321464
0.0328548
0.0337767
0.03471
0.0353372
0.0355464
0.0353363
0.0347577
0.0338912
0.0328272
0.0316456
0.030373
0.0288114
0.0269234
0.0250649
0.0234723
0.022148
0.0210503
0.0201256
0.019322
0.0185979
0.0179125
0.0172339
0.0165429
0.015849
0.0152093
0.0147092
0.0144127
0.0143155
0.0271598
0.0272372
0.0272097
0.0272567
0.0275202
0.0280168
0.0286249
0.0290728
0.0292231
0.0290465
0.0285792
0.0278917
0.0270641
0.0261654
0.0252287
0.0241301
0.0228332
0.0215605
0.0204667
0.0195544
0.0187975
0.0181609
0.0176102
0.0171182
0.0166564
0.0162018
0.0157364
0.0152558
0.0147891
0.0143973
0.0141435
0.0140485
0.0224018
0.0222869
0.0220131
0.0218224
0.0218041
0.0219696
0.0222655
0.0225237
0.0226253
0.0225302
0.0222535
0.0218395
0.021341
0.0208032
0.0202511
0.0196185
0.0188804
0.0181567
0.0175337
0.0170133
0.0165815
0.0162191
0.0159067
0.0156296
0.0153713
0.0151188
0.0148605
0.0145892
0.0143145
0.0140672
0.013891
0.0138153
0.0166275
0.016535
0.0163763
0.0162611
0.0162132
0.0162357
0.0163156
0.0163984
0.0164369
0.0164114
0.0163243
0.0161906
0.0160285
0.0158536
0.0156751
0.0154723
0.0152368
0.0150059
0.0148069
0.0146408
0.0145029
0.0143874
0.0142881
0.0142004
0.0141191
0.0140401
0.0139596
0.0138748
0.0137871
0.0137045
0.0136406
0.0136095
)
;

boundaryField
{
    movingWall
    {
        type            fixedValue;
        value           uniform 0.0135;
    }
    fixedWalls
    {
        type            zeroGradient;
    }
    floor
    {
        type            zeroGradient;
    }
    frontAndBack
    {
        type            empty;
    }
}


// ************************************************************************* //
