/*--------------------------------*- C++ -*----------------------------------*\
| =========                 |                                                 |
| \\      /  F ield         | OpenFOAM: The Open Source CFD Toolbox           |
|  \\    /   O peration     | Version:  2212                                  |
|   \\  /    A nd           | Website:  www.openfoam.com                      |
|    \\/     M anipulation  |                                                 |
\*---------------------------------------------------------------------------*/
FoamFile
{
    version     2.0;
    format      ascii;
    arch        "LSB;label=64;scalar=64";
    class       volScalarField;
    location    "240";
    object      Gh2;
}
// * * * * * * * * * * * * * * * * * * * * * * * * * * * * * * * * * * * * * //

dimensions      [1 -3 0 0 0 0 0];

internalField   nonuniform List<scalar> 
1024
(
1.21315e-05
1.21312e-05
1.21304e-05
1.21291e-05
1.2127e-05
1.21244e-05
1.21212e-05
1.21178e-05
1.21143e-05
1.2111e-05
1.21078e-05
1.2105e-05
1.21027e-05
1.21014e-05
1.21021e-05
1.21062e-05
1.21142e-05
1.21232e-05
1.2133e-05
1.21431e-05
1.21522e-05
1.21591e-05
1.21636e-05
1.21667e-05
1.21692e-05
1.21713e-05
1.21732e-05
1.21748e-05
1.2176e-05
1.21768e-05
1.21773e-05
1.21775e-05
1.21314e-05
1.21311e-05
1.21303e-05
1.21288e-05
1.21268e-05
1.2124e-05
1.21208e-05
1.21173e-05
1.21138e-05
1.21104e-05
1.21073e-05
1.21044e-05
1.2102e-05
1.21007e-05
1.21013e-05
1.21054e-05
1.21135e-05
1.21226e-05
1.21325e-05
1.21427e-05
1.21519e-05
1.21588e-05
1.21634e-05
1.21665e-05
1.2169e-05
1.21711e-05
1.2173e-05
1.21746e-05
1.21759e-05
1.21768e-05
1.21773e-05
1.21775e-05
1.21312e-05
1.21308e-05
1.21299e-05
1.21284e-05
1.21262e-05
1.21232e-05
1.21199e-05
1.21163e-05
1.21127e-05
1.21093e-05
1.2106e-05
1.21029e-05
1.21003e-05
1.20988e-05
1.20993e-05
1.21035e-05
1.21119e-05
1.21214e-05
1.21316e-05
1.2142e-05
1.21513e-05
1.21583e-05
1.21628e-05
1.21659e-05
1.21684e-05
1.21706e-05
1.21726e-05
1.21744e-05
1.21757e-05
1.21766e-05
1.21772e-05
1.21774e-05
1.21308e-05
1.21304e-05
1.21294e-05
1.21277e-05
1.21253e-05
1.21221e-05
1.21185e-05
1.21148e-05
1.21111e-05
1.21074e-05
1.21039e-05
1.21004e-05
1.20974e-05
1.20953e-05
1.20955e-05
1.20999e-05
1.21092e-05
1.21193e-05
1.21302e-05
1.2141e-05
1.21504e-05
1.21574e-05
1.21618e-05
1.21649e-05
1.21675e-05
1.21699e-05
1.21721e-05
1.21739e-05
1.21754e-05
1.21764e-05
1.2177e-05
1.21773e-05
1.21303e-05
1.21299e-05
1.21288e-05
1.21269e-05
1.21242e-05
1.21207e-05
1.21169e-05
1.21129e-05
1.21089e-05
1.21049e-05
1.21008e-05
1.20967e-05
1.20929e-05
1.20899e-05
1.20895e-05
1.20942e-05
1.21048e-05
1.21164e-05
1.21283e-05
1.21397e-05
1.21492e-05
1.2156e-05
1.21603e-05
1.21634e-05
1.21661e-05
1.21688e-05
1.21713e-05
1.21734e-05
1.2175e-05
1.21761e-05
1.21768e-05
1.21771e-05
1.21297e-05
1.21293e-05
1.21281e-05
1.2126e-05
1.2123e-05
1.21192e-05
1.2115e-05
1.21107e-05
1.21063e-05
1.21017e-05
1.20968e-05
1.20917e-05
1.20865e-05
1.20822e-05
1.20807e-05
1.2086e-05
1.20987e-05
1.21122e-05
1.21258e-05
1.2138e-05
1.21476e-05
1.21541e-05
1.21583e-05
1.21614e-05
1.21645e-05
1.21675e-05
1.21703e-05
1.21727e-05
1.21746e-05
1.21758e-05
1.21765e-05
1.21768e-05
1.21291e-05
1.21286e-05
1.21273e-05
1.2125e-05
1.21218e-05
1.21177e-05
1.21132e-05
1.21084e-05
1.21033e-05
1.20979e-05
1.20919e-05
1.20853e-05
1.20783e-05
1.2072e-05
1.20692e-05
1.20752e-05
1.20907e-05
1.21068e-05
1.21224e-05
1.21356e-05
1.21453e-05
1.21515e-05
1.21556e-05
1.21591e-05
1.21625e-05
1.2166e-05
1.21693e-05
1.2172e-05
1.2174e-05
1.21754e-05
1.21762e-05
1.21765e-05
1.21284e-05
1.21279e-05
1.21265e-05
1.21242e-05
1.21207e-05
1.21164e-05
1.21114e-05
1.2106e-05
1.21002e-05
1.20937e-05
1.20863e-05
1.20779e-05
1.20686e-05
1.20597e-05
1.20552e-05
1.20622e-05
1.20809e-05
1.21e-05
1.21177e-05
1.2132e-05
1.21419e-05
1.21481e-05
1.21526e-05
1.21565e-05
1.21606e-05
1.21646e-05
1.21682e-05
1.21713e-05
1.21735e-05
1.2175e-05
1.21758e-05
1.21761e-05
1.21278e-05
1.21272e-05
1.21259e-05
1.21235e-05
1.21199e-05
1.21153e-05
1.211e-05
1.2104e-05
1.20973e-05
1.20896e-05
1.20806e-05
1.207e-05
1.2058e-05
1.20461e-05
1.20396e-05
1.20478e-05
1.20699e-05
1.20921e-05
1.21117e-05
1.2127e-05
1.21372e-05
1.2144e-05
1.21492e-05
1.2154e-05
1.21588e-05
1.21633e-05
1.21674e-05
1.21706e-05
1.2173e-05
1.21746e-05
1.21754e-05
1.21758e-05
1.21272e-05
1.21267e-05
1.21254e-05
1.2123e-05
1.21194e-05
1.21147e-05
1.2109e-05
1.21024e-05
1.20949e-05
1.20861e-05
1.20755e-05
1.20625e-05
1.20473e-05
1.20318e-05
1.20231e-05
1.20331e-05
1.20587e-05
1.20837e-05
1.21046e-05
1.21207e-05
1.21318e-05
1.21397e-05
1.21461e-05
1.2152e-05
1.21575e-05
1.21625e-05
1.21668e-05
1.21702e-05
1.21727e-05
1.21742e-05
1.21751e-05
1.21754e-05
1.21268e-05
1.21263e-05
1.2125e-05
1.21227e-05
1.21192e-05
1.21144e-05
1.21086e-05
1.21017e-05
1.20935e-05
1.20837e-05
1.20715e-05
1.2056e-05
1.20371e-05
1.20172e-05
1.20063e-05
1.20191e-05
1.20488e-05
1.20763e-05
1.20982e-05
1.21148e-05
1.2127e-05
1.21363e-05
1.2144e-05
1.21509e-05
1.2157e-05
1.21623e-05
1.21667e-05
1.21701e-05
1.21725e-05
1.2174e-05
1.21749e-05
1.21752e-05
1.21265e-05
1.21261e-05
1.21249e-05
1.21227e-05
1.21193e-05
1.21147e-05
1.21089e-05
1.21018e-05
1.20933e-05
1.20828e-05
1.2069e-05
1.20507e-05
1.20271e-05
1.20017e-05
1.19891e-05
1.20068e-05
1.20418e-05
1.2072e-05
1.20947e-05
1.21118e-05
1.21248e-05
1.21352e-05
1.21439e-05
1.21513e-05
1.21576e-05
1.21629e-05
1.21671e-05
1.21703e-05
1.21726e-05
1.2174e-05
1.21748e-05
1.21751e-05
1.21265e-05
1.21261e-05
1.21249e-05
1.21229e-05
1.21198e-05
1.21155e-05
1.211e-05
1.21031e-05
1.20946e-05
1.20834e-05
1.2068e-05
1.2046e-05
1.2016e-05
1.19838e-05
1.19708e-05
1.19962e-05
1.20391e-05
1.20728e-05
1.20966e-05
1.2114e-05
1.21273e-05
1.21381e-05
1.21468e-05
1.2154e-05
1.21598e-05
1.21645e-05
1.21682e-05
1.2171e-05
1.2173e-05
1.21743e-05
1.2175e-05
1.21754e-05
1.21269e-05
1.21264e-05
1.21254e-05
1.21235e-05
1.21208e-05
1.21169e-05
1.21119e-05
1.21055e-05
1.20971e-05
1.20853e-05
1.20675e-05
1.20402e-05
1.20017e-05
1.19616e-05
1.19505e-05
1.1987e-05
1.20402e-05
1.2079e-05
1.21044e-05
1.21221e-05
1.21352e-05
1.21454e-05
1.21533e-05
1.21593e-05
1.21639e-05
1.21675e-05
1.21703e-05
1.21724e-05
1.2174e-05
1.21751e-05
1.21757e-05
1.2176e-05
1.21277e-05
1.21272e-05
1.21263e-05
1.21246e-05
1.21223e-05
1.2119e-05
1.21146e-05
1.21088e-05
1.21004e-05
1.20874e-05
1.20659e-05
1.20309e-05
1.19812e-05
1.19329e-05
1.19258e-05
1.1975e-05
1.20391e-05
1.20833e-05
1.21113e-05
1.21304e-05
1.21444e-05
1.21546e-05
1.21619e-05
1.21668e-05
1.21699e-05
1.2172e-05
1.21736e-05
1.21749e-05
1.2176e-05
1.21768e-05
1.21773e-05
1.21776e-05
1.21291e-05
1.21287e-05
1.21278e-05
1.21264e-05
1.21244e-05
1.21217e-05
1.2118e-05
1.21125e-05
1.21037e-05
1.20884e-05
1.20612e-05
1.20159e-05
1.19527e-05
1.18953e-05
1.18904e-05
1.19473e-05
1.20152e-05
1.20613e-05
1.20921e-05
1.21157e-05
1.21354e-05
1.21515e-05
1.21636e-05
1.21714e-05
1.21756e-05
1.21776e-05
1.21786e-05
1.21792e-05
1.21798e-05
1.21801e-05
1.21802e-05
1.21802e-05
1.21313e-05
1.21308e-05
1.213e-05
1.21287e-05
1.2127e-05
1.21248e-05
1.21215e-05
1.21161e-05
1.21065e-05
1.20883e-05
1.20546e-05
1.1998e-05
1.19203e-05
1.18496e-05
1.18331e-05
1.18763e-05
1.19273e-05
1.19614e-05
1.19886e-05
1.2016e-05
1.20456e-05
1.20761e-05
1.21049e-05
1.21296e-05
1.21487e-05
1.21613e-05
1.21685e-05
1.21712e-05
1.21705e-05
1.21682e-05
1.21659e-05
1.21646e-05
1.2134e-05
1.21336e-05
1.21327e-05
1.21315e-05
1.213e-05
1.21281e-05
1.21254e-05
1.21206e-05
1.21113e-05
1.20925e-05
1.2056e-05
1.19929e-05
1.19031e-05
1.18102e-05
1.17567e-05
1.17526e-05
1.17545e-05
1.17458e-05
1.17388e-05
1.17387e-05
1.17477e-05
1.17649e-05
1.17886e-05
1.18162e-05
1.18454e-05
1.18734e-05
1.18993e-05
1.19212e-05
1.19383e-05
1.19501e-05
1.19572e-05
1.19603e-05
1.21371e-05
1.21366e-05
1.21357e-05
1.21346e-05
1.21332e-05
1.21317e-05
1.21297e-05
1.21262e-05
1.21193e-05
1.21046e-05
1.2074e-05
1.20164e-05
1.1925e-05
1.18135e-05
1.17131e-05
1.16459e-05
1.15861e-05
1.15202e-05
1.14625e-05
1.14164e-05
1.13827e-05
1.13606e-05
1.13494e-05
1.13487e-05
1.13583e-05
1.13774e-05
1.1405e-05
1.14386e-05
1.14745e-05
1.15073e-05
1.15315e-05
1.15437e-05
1.21406e-05
1.21401e-05
1.21392e-05
1.2138e-05
1.21366e-05
1.21352e-05
1.21337e-05
1.21316e-05
1.21277e-05
1.21189e-05
1.21002e-05
1.20621e-05
1.19907e-05
1.18829e-05
1.17554e-05
1.16401e-05
1.15426e-05
1.14529e-05
1.13803e-05
1.13251e-05
1.1283e-05
1.12494e-05
1.12214e-05
1.11982e-05
1.1181e-05
1.11715e-05
1.11712e-05
1.11805e-05
1.11977e-05
1.12185e-05
1.1237e-05
1.12474e-05
1.21427e-05
1.21427e-05
1.21424e-05
1.21416e-05
1.21404e-05
1.2139e-05
1.21377e-05
1.21363e-05
1.21343e-05
1.21301e-05
1.21207e-05
1.21003e-05
1.20579e-05
1.19808e-05
1.1861e-05
1.172e-05
1.15976e-05
1.14994e-05
1.14262e-05
1.13741e-05
1.13366e-05
1.13063e-05
1.12776e-05
1.12483e-05
1.12192e-05
1.11928e-05
1.11715e-05
1.11574e-05
1.11507e-05
1.11505e-05
1.11538e-05
1.11569e-05
1.21361e-05
1.21373e-05
1.21394e-05
1.21414e-05
1.21424e-05
1.21424e-05
1.21417e-05
1.21408e-05
1.21397e-05
1.2138e-05
1.2134e-05
1.21246e-05
1.21027e-05
1.20557e-05
1.19664e-05
1.18313e-05
1.16921e-05
1.1582e-05
1.15018e-05
1.14433e-05
1.13992e-05
1.13621e-05
1.13263e-05
1.12888e-05
1.12504e-05
1.12141e-05
1.11832e-05
1.11602e-05
1.11457e-05
1.11385e-05
1.11363e-05
1.11364e-05
1.21108e-05
1.2114e-05
1.21202e-05
1.2128e-05
1.21351e-05
1.21399e-05
1.21424e-05
1.21432e-05
1.21433e-05
1.2143e-05
1.21416e-05
1.21376e-05
1.21268e-05
1.20995e-05
1.20367e-05
1.19214e-05
1.17812e-05
1.16605e-05
1.15695e-05
1.15008e-05
1.1447e-05
1.14015e-05
1.13589e-05
1.13156e-05
1.12713e-05
1.12279e-05
1.11893e-05
1.1159e-05
1.11388e-05
1.11279e-05
1.11238e-05
1.11232e-05
1.20631e-05
1.20682e-05
1.20791e-05
1.20944e-05
1.21108e-05
1.21247e-05
1.21341e-05
1.21396e-05
1.21424e-05
1.21436e-05
1.21434e-05
1.21407e-05
1.21329e-05
1.21133e-05
1.20657e-05
1.19674e-05
1.18336e-05
1.1709e-05
1.16104e-05
1.15334e-05
1.14719e-05
1.14201e-05
1.13729e-05
1.13268e-05
1.12804e-05
1.12344e-05
1.1192e-05
1.11569e-05
1.1132e-05
1.11177e-05
1.11118e-05
1.11107e-05
1.1996e-05
1.20026e-05
1.20177e-05
1.20408e-05
1.20678e-05
1.20931e-05
1.21126e-05
1.21253e-05
1.21324e-05
1.21352e-05
1.21342e-05
1.21288e-05
1.2117e-05
1.20948e-05
1.20508e-05
1.19628e-05
1.18381e-05
1.1716e-05
1.16159e-05
1.1536e-05
1.14713e-05
1.14168e-05
1.13682e-05
1.13221e-05
1.12766e-05
1.12315e-05
1.11887e-05
1.11518e-05
1.11242e-05
1.11073e-05
1.10999e-05
1.10984e-05
1.19148e-05
1.19227e-05
1.19412e-05
1.19703e-05
1.20065e-05
1.20428e-05
1.20726e-05
1.20929e-05
1.21038e-05
1.21065e-05
1.21015e-05
1.20889e-05
1.20679e-05
1.20372e-05
1.19901e-05
1.19083e-05
1.17945e-05
1.16812e-05
1.15863e-05
1.15093e-05
1.14465e-05
1.13936e-05
1.1347e-05
1.13037e-05
1.12617e-05
1.12201e-05
1.11798e-05
1.11438e-05
1.11154e-05
1.10971e-05
1.10885e-05
1.10865e-05
1.18228e-05
1.18317e-05
1.18516e-05
1.18829e-05
1.19231e-05
1.19659e-05
1.20028e-05
1.20278e-05
1.20396e-05
1.20392e-05
1.20276e-05
1.20058e-05
1.19748e-05
1.19355e-05
1.18852e-05
1.181e-05
1.17104e-05
1.16111e-05
1.15269e-05
1.1458e-05
1.14014e-05
1.13538e-05
1.13122e-05
1.12741e-05
1.12376e-05
1.12016e-05
1.11661e-05
1.11331e-05
1.11059e-05
1.10872e-05
1.10778e-05
1.10754e-05
1.17207e-05
1.17295e-05
1.17471e-05
1.1774e-05
1.18099e-05
1.18508e-05
1.18882e-05
1.19131e-05
1.1923e-05
1.19184e-05
1.1901e-05
1.18728e-05
1.18363e-05
1.17938e-05
1.17449e-05
1.16797e-05
1.15974e-05
1.15158e-05
1.14463e-05
1.13889e-05
1.13416e-05
1.13018e-05
1.12673e-05
1.1236e-05
1.12064e-05
1.11772e-05
1.1148e-05
1.11199e-05
1.10955e-05
1.10777e-05
1.10681e-05
1.10652e-05
1.16067e-05
1.16136e-05
1.16237e-05
1.16392e-05
1.16628e-05
1.16933e-05
1.17242e-05
1.1745e-05
1.17522e-05
1.17455e-05
1.17267e-05
1.16984e-05
1.16636e-05
1.16249e-05
1.1583e-05
1.15313e-05
1.14685e-05
1.14065e-05
1.13534e-05
1.13093e-05
1.12729e-05
1.12423e-05
1.12159e-05
1.11923e-05
1.117e-05
1.11481e-05
1.11261e-05
1.11041e-05
1.1084e-05
1.10684e-05
1.10592e-05
1.10562e-05
1.1476e-05
1.14786e-05
1.14779e-05
1.14797e-05
1.14885e-05
1.1505e-05
1.15252e-05
1.15401e-05
1.15452e-05
1.15396e-05
1.15244e-05
1.1502e-05
1.14749e-05
1.14455e-05
1.14147e-05
1.13784e-05
1.13353e-05
1.12929e-05
1.12564e-05
1.12261e-05
1.12009e-05
1.11799e-05
1.11618e-05
1.11457e-05
1.11307e-05
1.1116e-05
1.11011e-05
1.10859e-05
1.10712e-05
1.1059e-05
1.10511e-05
1.10482e-05
1.13212e-05
1.13175e-05
1.13087e-05
1.13026e-05
1.13022e-05
1.13077e-05
1.13176e-05
1.13262e-05
1.13296e-05
1.13266e-05
1.13176e-05
1.13041e-05
1.12879e-05
1.12702e-05
1.12521e-05
1.12312e-05
1.12067e-05
1.11826e-05
1.11618e-05
1.11445e-05
1.11302e-05
1.11182e-05
1.11079e-05
1.10988e-05
1.10904e-05
1.10823e-05
1.1074e-05
1.10654e-05
1.10567e-05
1.1049e-05
1.10436e-05
1.10413e-05
1.11335e-05
1.11305e-05
1.11254e-05
1.11217e-05
1.11202e-05
1.1121e-05
1.11236e-05
1.11264e-05
1.11277e-05
1.11269e-05
1.11241e-05
1.11197e-05
1.11144e-05
1.11087e-05
1.11028e-05
1.10961e-05
1.10883e-05
1.10806e-05
1.1074e-05
1.10685e-05
1.10639e-05
1.10601e-05
1.10568e-05
1.10539e-05
1.10513e-05
1.10487e-05
1.10461e-05
1.10434e-05
1.10407e-05
1.10381e-05
1.10361e-05
1.10352e-05
)
;

boundaryField
{
    movingWall
    {
        type            fixedValue;
        value           uniform 1.1032e-05;
    }
    fixedWalls
    {
        type            zeroGradient;
    }
    floor
    {
        type            zeroGradient;
    }
    frontAndBack
    {
        type            empty;
    }
}


// ************************************************************************* //
