/*--------------------------------*- C++ -*----------------------------------*\
| =========                 |                                                 |
| \\      /  F ield         | OpenFOAM: The Open Source CFD Toolbox           |
|  \\    /   O peration     | Version:  2212                                  |
|   \\  /    A nd           | Website:  www.openfoam.com                      |
|    \\/     M anipulation  |                                                 |
\*---------------------------------------------------------------------------*/
FoamFile
{
    version     2.0;
    format      ascii;
    arch        "LSB;label=64;scalar=64";
    class       volScalarField;
    location    "240";
    object      Xli;
}
// * * * * * * * * * * * * * * * * * * * * * * * * * * * * * * * * * * * * * //

dimensions      [1 -3 0 0 0 0 0];

internalField   nonuniform List<scalar> 
1024
(
0.042791
0.0427913
0.0427918
0.0427928
0.0427943
0.0427962
0.0427986
0.0428011
0.0428036
0.0428061
0.0428084
0.0428105
0.0428122
0.0428131
0.0428126
0.0428096
0.0428038
0.0427972
0.04279
0.0427825
0.0427759
0.0427708
0.0427675
0.0427652
0.0427634
0.0427618
0.0427604
0.0427593
0.0427584
0.0427578
0.0427574
0.0427573
0.0427911
0.0427914
0.0427919
0.042793
0.0427945
0.0427965
0.0427989
0.0428015
0.042804
0.0428065
0.0428088
0.0428109
0.0428127
0.0428137
0.0428132
0.0428102
0.0428043
0.0427976
0.0427903
0.0427828
0.0427761
0.042771
0.0427677
0.0427654
0.0427636
0.042762
0.0427606
0.0427594
0.0427585
0.0427578
0.0427575
0.0427573
0.0427913
0.0427915
0.0427922
0.0427933
0.042795
0.0427971
0.0427996
0.0428022
0.0428048
0.0428073
0.0428098
0.042812
0.0428139
0.0428151
0.0428147
0.0428116
0.0428054
0.0427985
0.042791
0.0427834
0.0427765
0.0427714
0.0427681
0.0427658
0.042764
0.0427623
0.0427609
0.0427596
0.0427586
0.0427579
0.0427575
0.0427574
0.0427915
0.0427918
0.0427925
0.0427938
0.0427956
0.0427979
0.0428005
0.0428033
0.042806
0.0428087
0.0428113
0.0428138
0.0428161
0.0428176
0.0428175
0.0428142
0.0428074
0.0428
0.042792
0.0427841
0.0427772
0.0427721
0.0427688
0.0427665
0.0427646
0.0427629
0.0427613
0.0427599
0.0427588
0.0427581
0.0427576
0.0427575
0.0427919
0.0427922
0.042793
0.0427944
0.0427964
0.0427989
0.0428017
0.0428047
0.0428076
0.0428105
0.0428135
0.0428165
0.0428194
0.0428216
0.0428219
0.0428184
0.0428106
0.0428022
0.0427934
0.042785
0.042778
0.0427731
0.0427699
0.0427677
0.0427656
0.0427637
0.0427619
0.0427603
0.0427591
0.0427583
0.0427578
0.0427576
0.0427923
0.0427927
0.0427936
0.0427951
0.0427973
0.0428
0.0428031
0.0428063
0.0428095
0.0428129
0.0428165
0.0428202
0.042824
0.0428272
0.0428283
0.0428244
0.0428151
0.0428052
0.0427952
0.0427863
0.0427792
0.0427745
0.0427714
0.0427691
0.0427669
0.0427646
0.0427626
0.0427608
0.0427594
0.0427585
0.042758
0.0427578
0.0427928
0.0427932
0.0427941
0.0427958
0.0427982
0.0428011
0.0428045
0.042808
0.0428117
0.0428157
0.0428201
0.0428249
0.0428301
0.0428347
0.0428367
0.0428324
0.042821
0.0428092
0.0427977
0.042788
0.042781
0.0427764
0.0427733
0.0427708
0.0427683
0.0427657
0.0427634
0.0427613
0.0427598
0.0427588
0.0427583
0.042758
0.0427933
0.0427937
0.0427947
0.0427964
0.0427989
0.0428021
0.0428057
0.0428097
0.042814
0.0428187
0.0428242
0.0428304
0.0428372
0.0428437
0.042847
0.0428419
0.0428282
0.0428142
0.0428012
0.0427907
0.0427835
0.0427789
0.0427756
0.0427727
0.0427697
0.0427668
0.0427641
0.0427619
0.0427602
0.0427591
0.0427585
0.0427583
0.0427938
0.0427941
0.0427951
0.0427969
0.0427995
0.0428029
0.0428068
0.0428112
0.0428161
0.0428217
0.0428283
0.0428361
0.042845
0.0428537
0.0428585
0.0428525
0.0428363
0.04282
0.0428056
0.0427944
0.0427869
0.0427819
0.0427781
0.0427745
0.042771
0.0427677
0.0427648
0.0427624
0.0427606
0.0427594
0.0427588
0.0427586
0.0427942
0.0427945
0.0427955
0.0427973
0.0427999
0.0428033
0.0428075
0.0428123
0.0428179
0.0428243
0.0428321
0.0428416
0.0428528
0.0428643
0.0428707
0.0428633
0.0428445
0.0428262
0.0428108
0.042799
0.0427908
0.0427851
0.0427803
0.042776
0.042772
0.0427683
0.0427652
0.0427627
0.0427609
0.0427597
0.0427591
0.0427588
0.0427945
0.0427948
0.0427958
0.0427975
0.0428
0.0428035
0.0428078
0.0428129
0.0428189
0.0428261
0.0428351
0.0428464
0.0428603
0.042875
0.042883
0.0428736
0.0428518
0.0428316
0.0428155
0.0428033
0.0427944
0.0427876
0.0427819
0.0427769
0.0427724
0.0427685
0.0427653
0.0427628
0.042761
0.0427599
0.0427593
0.042759
0.0427946
0.042795
0.0427959
0.0427975
0.0428
0.0428033
0.0428076
0.0428128
0.042819
0.0428268
0.0428369
0.0428503
0.0428677
0.0428864
0.0428956
0.0428827
0.042857
0.0428348
0.0428181
0.0428055
0.042796
0.0427884
0.042782
0.0427765
0.0427719
0.0427681
0.042765
0.0427626
0.042761
0.0427599
0.0427593
0.0427591
0.0427946
0.042795
0.0427958
0.0427973
0.0427996
0.0428027
0.0428068
0.0428118
0.0428181
0.0428263
0.0428376
0.0428538
0.0428758
0.0428995
0.042909
0.0428904
0.042859
0.0428342
0.0428167
0.042804
0.0427941
0.0427863
0.0427799
0.0427746
0.0427703
0.0427669
0.0427641
0.0427621
0.0427606
0.0427597
0.0427591
0.0427589
0.0427944
0.0427947
0.0427955
0.0427969
0.0427989
0.0428017
0.0428054
0.0428101
0.0428163
0.042825
0.042838
0.0428581
0.0428864
0.0429159
0.042924
0.0428973
0.0428582
0.0428297
0.0428111
0.042798
0.0427884
0.0427809
0.0427751
0.0427707
0.0427673
0.0427647
0.0427626
0.0427611
0.0427599
0.0427591
0.0427586
0.0427584
0.0427938
0.0427941
0.0427949
0.042796
0.0427978
0.0428002
0.0428034
0.0428077
0.0428138
0.0428234
0.0428392
0.0428649
0.0429014
0.042937
0.0429422
0.0429061
0.042859
0.0428265
0.042806
0.0427919
0.0427817
0.0427742
0.0427688
0.0427652
0.0427629
0.0427614
0.0427602
0.0427592
0.0427585
0.0427579
0.0427575
0.0427573
0.0427928
0.0427931
0.0427937
0.0427947
0.0427962
0.0427982
0.0428009
0.042805
0.0428114
0.0428227
0.0428426
0.042876
0.0429224
0.0429646
0.0429682
0.0429265
0.0428766
0.0428428
0.0428201
0.0428027
0.0427883
0.0427765
0.0427676
0.0427618
0.0427587
0.0427573
0.0427566
0.0427561
0.0427557
0.0427554
0.0427554
0.0427554
0.0427912
0.0427915
0.0427921
0.0427931
0.0427943
0.042796
0.0427984
0.0428023
0.0428094
0.0428228
0.0428475
0.0428891
0.0429461
0.0429981
0.0430103
0.0429786
0.0429412
0.0429162
0.0428961
0.042876
0.0428543
0.0428319
0.0428107
0.0427925
0.0427785
0.0427693
0.042764
0.042762
0.0427625
0.0427641
0.0427659
0.0427669
0.0427892
0.0427895
0.0427901
0.042791
0.0427921
0.0427935
0.0427955
0.042799
0.0428059
0.0428197
0.0428465
0.0428928
0.0429588
0.0430271
0.0430664
0.0430695
0.0430681
0.0430746
0.0430797
0.0430798
0.0430732
0.0430605
0.0430432
0.0430229
0.0430014
0.0429808
0.0429618
0.0429457
0.0429332
0.0429245
0.0429193
0.042917
0.0427869
0.0427873
0.0427879
0.0427888
0.0427897
0.0427909
0.0427924
0.0427949
0.0428
0.0428108
0.0428332
0.0428756
0.0429427
0.0430246
0.0430984
0.0431479
0.0431918
0.0432403
0.0432827
0.0433166
0.0433414
0.0433577
0.043366
0.0433665
0.0433595
0.0433454
0.0433252
0.0433005
0.0432741
0.0432499
0.0432321
0.0432232
0.0427843
0.0427847
0.0427854
0.0427863
0.0427873
0.0427883
0.0427894
0.0427909
0.0427938
0.0428002
0.042814
0.042842
0.0428944
0.0429736
0.0430673
0.043152
0.0432238
0.0432897
0.043343
0.0433837
0.0434147
0.0434394
0.0434601
0.0434772
0.0434899
0.0434969
0.0434971
0.0434902
0.0434776
0.0434623
0.0434487
0.043441
0.0427828
0.0427828
0.042783
0.0427836
0.0427845
0.0427855
0.0427865
0.0427875
0.042789
0.042792
0.0427989
0.042814
0.0428451
0.0429017
0.0429897
0.0430933
0.0431833
0.0432555
0.0433092
0.0433476
0.0433752
0.0433975
0.0434187
0.0434403
0.0434617
0.0434812
0.0434969
0.0435073
0.0435122
0.0435124
0.0435099
0.0435077
0.0427877
0.0427867
0.0427852
0.0427838
0.042783
0.042783
0.0427836
0.0427842
0.042785
0.0427863
0.0427892
0.0427961
0.0428122
0.0428467
0.0429123
0.0430115
0.0431138
0.0431948
0.0432537
0.0432967
0.0433292
0.0433564
0.0433829
0.0434105
0.0434388
0.0434656
0.0434884
0.0435053
0.043516
0.0435213
0.0435229
0.0435228
0.0428062
0.0428038
0.0427993
0.0427936
0.0427884
0.0427848
0.042783
0.0427824
0.0427823
0.0427826
0.0427836
0.0427865
0.0427945
0.0428145
0.0428606
0.0429454
0.0430484
0.0431371
0.0432039
0.0432545
0.043294
0.0433275
0.0433589
0.0433908
0.0434234
0.0434554
0.0434839
0.0435062
0.0435211
0.0435291
0.0435321
0.0435326
0.0428412
0.0428375
0.0428295
0.0428182
0.0428062
0.042796
0.0427891
0.0427851
0.042783
0.0427821
0.0427823
0.0427843
0.04279
0.0428044
0.0428394
0.0429116
0.0430099
0.0431015
0.043174
0.0432305
0.0432757
0.0433139
0.0433487
0.0433826
0.0434168
0.0434506
0.0434819
0.0435078
0.0435261
0.0435367
0.043541
0.0435418
0.0428906
0.0428857
0.0428746
0.0428576
0.0428378
0.0428192
0.0428049
0.0427956
0.0427904
0.0427883
0.042789
0.042793
0.0428017
0.042818
0.0428503
0.042915
0.0430067
0.0430964
0.0431699
0.0432287
0.0432763
0.0433163
0.0433521
0.0433861
0.0434196
0.0434528
0.0434844
0.0435116
0.0435319
0.0435443
0.0435498
0.0435509
0.0429503
0.0429445
0.0429309
0.0429094
0.0428829
0.0428562
0.0428343
0.0428194
0.0428114
0.0428094
0.0428131
0.0428224
0.0428378
0.0428604
0.042895
0.0429551
0.0430387
0.0431221
0.0431918
0.0432484
0.0432946
0.0433335
0.0433678
0.0433996
0.0434306
0.0434613
0.0434909
0.0435175
0.0435384
0.0435519
0.0435582
0.0435597
0.0430179
0.0430114
0.0429968
0.0429737
0.0429442
0.0429127
0.0428856
0.0428673
0.0428586
0.0428589
0.0428675
0.0428835
0.0429063
0.0429352
0.0429722
0.0430274
0.0431007
0.0431737
0.0432355
0.0432862
0.0433279
0.0433629
0.0433935
0.0434215
0.0434483
0.0434749
0.0435011
0.0435254
0.0435454
0.0435592
0.0435661
0.0435679
0.0430931
0.0430866
0.0430737
0.0430539
0.0430275
0.0429975
0.0429699
0.0429516
0.0429444
0.0429477
0.0429606
0.0429813
0.0430082
0.0430395
0.0430755
0.0431234
0.0431839
0.0432438
0.0432949
0.0433371
0.0433719
0.0434012
0.0434266
0.0434496
0.0434714
0.0434929
0.0435144
0.0435352
0.0435531
0.0435662
0.0435733
0.0435754
0.043177
0.0431719
0.0431645
0.0431531
0.0431358
0.0431133
0.0430906
0.0430753
0.04307
0.043075
0.0430888
0.0431096
0.0431352
0.0431637
0.0431945
0.0432325
0.0432787
0.0433243
0.0433633
0.0433957
0.0434225
0.043445
0.0434644
0.0434818
0.0434982
0.0435143
0.0435306
0.0435468
0.0435616
0.0435731
0.0435799
0.0435821
0.0432731
0.0432712
0.0432718
0.0432705
0.043264
0.0432519
0.043237
0.0432261
0.0432223
0.0432265
0.0432376
0.0432541
0.0432741
0.0432957
0.0433183
0.0433451
0.0433768
0.0434079
0.0434347
0.0434571
0.0434755
0.043491
0.0435044
0.0435162
0.0435272
0.043538
0.043549
0.0435602
0.043571
0.0435801
0.0435859
0.043588
0.0433871
0.0433898
0.0433963
0.0434008
0.0434012
0.0433971
0.0433898
0.0433835
0.043381
0.0433832
0.0433898
0.0433997
0.0434117
0.0434247
0.043438
0.0434534
0.0434714
0.0434891
0.0435044
0.0435171
0.0435277
0.0435365
0.0435441
0.0435507
0.0435569
0.0435629
0.043569
0.0435754
0.0435817
0.0435874
0.0435914
0.0435931
0.0435253
0.0435275
0.0435312
0.043534
0.0435351
0.0435345
0.0435326
0.0435305
0.0435296
0.0435302
0.0435322
0.0435354
0.0435393
0.0435436
0.0435479
0.0435528
0.0435585
0.0435642
0.0435691
0.0435731
0.0435765
0.0435793
0.0435817
0.0435838
0.0435858
0.0435877
0.0435896
0.0435915
0.0435936
0.0435955
0.0435969
0.0435976
)
;

boundaryField
{
    movingWall
    {
        type            fixedValue;
        value           uniform 0.0436;
    }
    fixedWalls
    {
        type            zeroGradient;
    }
    floor
    {
        type            zeroGradient;
    }
    frontAndBack
    {
        type            empty;
    }
}


// ************************************************************************* //
