/*--------------------------------*- C++ -*----------------------------------*\
| =========                 |                                                 |
| \\      /  F ield         | OpenFOAM: The Open Source CFD Toolbox           |
|  \\    /   O peration     | Version:  2212                                  |
|   \\  /    A nd           | Website:  www.openfoam.com                      |
|    \\/     M anipulation  |                                                 |
\*---------------------------------------------------------------------------*/
FoamFile
{
    version     2.0;
    format      ascii;
    arch        "LSB;label=64;scalar=64";
    class       volScalarField;
    location    "1840";
    object      p;
}
// * * * * * * * * * * * * * * * * * * * * * * * * * * * * * * * * * * * * * //

dimensions      [0 2 -2 0 0 0 0];

internalField   nonuniform List<scalar> 
1024
(
0
-3.29561e-07
-9.75915e-07
-1.6907e-06
-2.21563e-06
-2.36526e-06
-2.1322e-06
-1.69001e-06
-1.28256e-06
-1.04767e-06
-8.46932e-07
-1.38789e-07
2.16924e-06
8.022e-06
2.06898e-05
4.48557e-05
8.04393e-05
0.000112435
0.000120428
0.000101191
6.00319e-05
1.08292e-05
-3.03724e-05
-5.80602e-05
-7.4733e-05
-8.41813e-05
-8.91284e-05
-9.11759e-05
-9.12425e-05
-9.00473e-05
-8.84101e-05
-8.72167e-05
-0.0928115
-0.0928118
-0.0928124
-0.092813
-0.0928135
-0.0928137
-0.0928136
-0.0928133
-0.092813
-0.0928129
-0.0928128
-0.0928122
-0.0928101
-0.0928044
-0.0927921
-0.0927685
-0.0927338
-0.0927028
-0.0926959
-0.0927155
-0.0927558
-0.0928037
-0.0928436
-0.0928701
-0.0928859
-0.0928947
-0.0928993
-0.0929012
-0.0929014
-0.0929005
-0.0928991
-0.0928979
-0.199424
-0.199425
-0.199426
-0.199426
-0.199427
-0.199427
-0.199427
-0.199427
-0.199427
-0.199427
-0.199427
-0.199427
-0.199425
-0.19942
-0.199409
-0.199386
-0.199352
-0.199323
-0.199318
-0.199338
-0.199377
-0.199423
-0.199461
-0.199486
-0.199501
-0.199508
-0.199512
-0.199514
-0.199514
-0.199513
-0.199511
-0.19951
-0.321892
-0.321892
-0.321893
-0.321894
-0.321895
-0.321895
-0.321895
-0.321896
-0.321896
-0.321897
-0.321898
-0.321898
-0.321897
-0.321893
-0.321882
-0.321861
-0.321829
-0.321802
-0.321798
-0.321819
-0.321857
-0.321902
-0.321938
-0.321961
-0.321973
-0.321979
-0.321981
-0.321982
-0.321982
-0.321981
-0.321979
-0.321977
-0.462571
-0.462572
-0.462574
-0.462574
-0.462575
-0.462576
-0.462577
-0.462578
-0.462579
-0.46258
-0.462582
-0.462584
-0.462584
-0.462581
-0.462572
-0.462553
-0.462524
-0.462499
-0.462496
-0.462517
-0.462555
-0.462598
-0.462633
-0.462653
-0.462663
-0.462666
-0.462666
-0.462666
-0.462665
-0.462663
-0.462661
-0.462659
-0.624173
-0.624174
-0.624175
-0.624177
-0.624178
-0.624179
-0.62418
-0.624182
-0.624184
-0.624187
-0.62419
-0.624193
-0.624195
-0.624195
-0.624188
-0.624172
-0.624146
-0.624123
-0.624121
-0.624144
-0.62418
-0.624221
-0.624254
-0.624272
-0.624279
-0.624279
-0.624277
-0.624275
-0.624272
-0.62427
-0.624268
-0.624266
-0.809808
-0.809809
-0.809811
-0.809813
-0.809814
-0.809816
-0.809818
-0.809821
-0.809825
-0.809829
-0.809834
-0.80984
-0.809844
-0.809847
-0.809844
-0.809831
-0.809808
-0.809788
-0.809787
-0.809808
-0.809843
-0.809881
-0.809912
-0.809928
-0.809932
-0.809929
-0.809924
-0.80992
-0.809917
-0.809914
-0.809912
-0.80991
-1.02305
-1.02305
-1.02306
-1.02306
-1.02306
-1.02306
-1.02307
-1.02307
-1.02308
-1.02308
-1.02309
-1.0231
-1.02311
-1.02311
-1.02311
-1.0231
-1.02309
-1.02307
-1.02307
-1.02309
-1.02312
-1.02315
-1.02318
-1.02319
-1.02319
-1.02319
-1.02318
-1.02318
-1.02317
-1.02317
-1.02317
-1.02317
-1.26801
-1.26802
-1.26802
-1.26802
-1.26802
-1.26803
-1.26803
-1.26804
-1.26805
-1.26805
-1.26807
-1.26808
-1.26809
-1.2681
-1.2681
-1.2681
-1.26809
-1.26807
-1.26807
-1.26808
-1.2681
-1.26813
-1.26815
-1.26816
-1.26816
-1.26816
-1.26815
-1.26814
-1.26814
-1.26814
-1.26814
-1.26814
-1.54941
-1.54942
-1.54942
-1.54942
-1.54942
-1.54943
-1.54943
-1.54944
-1.54945
-1.54946
-1.54948
-1.54949
-1.54951
-1.54952
-1.54953
-1.54954
-1.54953
-1.54951
-1.5495
-1.54951
-1.54952
-1.54954
-1.54955
-1.54955
-1.54955
-1.54954
-1.54954
-1.54953
-1.54953
-1.54953
-1.54953
-1.54953
-1.87267
-1.87267
-1.87267
-1.87268
-1.87268
-1.87269
-1.87269
-1.8727
-1.87272
-1.87273
-1.87275
-1.87277
-1.87279
-1.87281
-1.87282
-1.87283
-1.87282
-1.87281
-1.8728
-1.87279
-1.87279
-1.87279
-1.87279
-1.87278
-1.87278
-1.87277
-1.87277
-1.87277
-1.87277
-1.87277
-1.87277
-1.87277
-2.24401
-2.24401
-2.24402
-2.24402
-2.24402
-2.24403
-2.24404
-2.24405
-2.24406
-2.24408
-2.2441
-2.24412
-2.24415
-2.24417
-2.24419
-2.2442
-2.2442
-2.24419
-2.24417
-2.24416
-2.24414
-2.24412
-2.2441
-2.24409
-2.24407
-2.24407
-2.24407
-2.24407
-2.24407
-2.24407
-2.24407
-2.24407
-2.67059
-2.67059
-2.67059
-2.6706
-2.6706
-2.67061
-2.67062
-2.67063
-2.67064
-2.67066
-2.67068
-2.67071
-2.67074
-2.67077
-2.67079
-2.67081
-2.67082
-2.67081
-2.67078
-2.67076
-2.67073
-2.67069
-2.67066
-2.67063
-2.67061
-2.6706
-2.6706
-2.6706
-2.6706
-2.6706
-2.67061
-2.67061
-3.16062
-3.16062
-3.16062
-3.16062
-3.16063
-3.16063
-3.16064
-3.16066
-3.16067
-3.16069
-3.16072
-3.16074
-3.16077
-3.16081
-3.16084
-3.16086
-3.16087
-3.16086
-3.16084
-3.16081
-3.16077
-3.16072
-3.16068
-3.16064
-3.16062
-3.1606
-3.16059
-3.16059
-3.1606
-3.1606
-3.1606
-3.1606
-3.72352
-3.72353
-3.72353
-3.72353
-3.72353
-3.72354
-3.72355
-3.72356
-3.72358
-3.7236
-3.72362
-3.72365
-3.72369
-3.72372
-3.72376
-3.72378
-3.7238
-3.72379
-3.72377
-3.72374
-3.72369
-3.72365
-3.7236
-3.72356
-3.72352
-3.7235
-3.72349
-3.72349
-3.72349
-3.72349
-3.7235
-3.7235
-4.37014
-4.37014
-4.37014
-4.37014
-4.37015
-4.37015
-4.37016
-4.37018
-4.37019
-4.37021
-4.37024
-4.37027
-4.3703
-4.37034
-4.37037
-4.3704
-4.37042
-4.37042
-4.3704
-4.37037
-4.37033
-4.37029
-4.37024
-4.3702
-4.37016
-4.37014
-4.37012
-4.37012
-4.37012
-4.37012
-4.37012
-4.37013
-5.06149
-5.06149
-5.06149
-5.06149
-5.06149
-5.0615
-5.06151
-5.06152
-5.06154
-5.06156
-5.06159
-5.06162
-5.06165
-5.06169
-5.06173
-5.06176
-5.06177
-5.06177
-5.06176
-5.06173
-5.0617
-5.06167
-5.06163
-5.06159
-5.06155
-5.06152
-5.0615
-5.06149
-5.06149
-5.06149
-5.0615
-5.0615
-5.70806
-5.70806
-5.70806
-5.70806
-5.70807
-5.70807
-5.70808
-5.7081
-5.70812
-5.70814
-5.70816
-5.7082
-5.70823
-5.70827
-5.70831
-5.70834
-5.70836
-5.70836
-5.70834
-5.70832
-5.7083
-5.70827
-5.70824
-5.7082
-5.70816
-5.70813
-5.70811
-5.7081
-5.70809
-5.7081
-5.7081
-5.70811
-6.27092
-6.27092
-6.27092
-6.27092
-6.27092
-6.27093
-6.27094
-6.27095
-6.27097
-6.27099
-6.27102
-6.27106
-6.27109
-6.27113
-6.27118
-6.27121
-6.27123
-6.27123
-6.27121
-6.27119
-6.27117
-6.27114
-6.27111
-6.27108
-6.27105
-6.27102
-6.27099
-6.27098
-6.27097
-6.27097
-6.27098
-6.27098
-6.7609
-6.76089
-6.76089
-6.76089
-6.7609
-6.7609
-6.76091
-6.76092
-6.76094
-6.76097
-6.761
-6.76104
-6.76108
-6.76112
-6.76117
-6.7612
-6.76122
-6.76122
-6.7612
-6.76118
-6.76115
-6.76113
-6.7611
-6.76107
-6.76104
-6.76101
-6.76098
-6.76096
-6.76095
-6.76095
-6.76096
-6.76096
-7.18744
-7.18743
-7.18743
-7.18743
-7.18743
-7.18744
-7.18744
-7.18746
-7.18747
-7.1875
-7.18753
-7.18757
-7.18762
-7.18767
-7.18772
-7.18776
-7.18778
-7.18778
-7.18776
-7.18773
-7.1877
-7.18767
-7.18764
-7.18761
-7.18757
-7.18753
-7.1875
-7.18747
-7.18746
-7.18746
-7.18746
-7.18747
-7.55875
-7.55875
-7.55875
-7.55875
-7.55875
-7.55875
-7.55875
-7.55876
-7.55878
-7.5588
-7.55884
-7.55888
-7.55893
-7.55899
-7.55905
-7.55909
-7.55912
-7.55912
-7.5591
-7.55906
-7.55903
-7.55899
-7.55895
-7.55891
-7.55886
-7.55882
-7.55877
-7.55873
-7.55871
-7.5587
-7.5587
-7.55871
-7.882
-7.882
-7.882
-7.882
-7.882
-7.88199
-7.88199
-7.882
-7.88201
-7.88203
-7.88206
-7.88211
-7.88217
-7.88224
-7.8823
-7.88236
-7.88238
-7.88238
-7.88236
-7.88233
-7.88228
-7.88223
-7.88218
-7.88212
-7.88207
-7.882
-7.88194
-7.88188
-7.88184
-7.88182
-7.88182
-7.88183
-8.16341
-8.16341
-8.16341
-8.1634
-8.1634
-8.16339
-8.16338
-8.16338
-8.16338
-8.1634
-8.16344
-8.1635
-8.16357
-8.16364
-8.16371
-8.16377
-8.1638
-8.1638
-8.16378
-8.16374
-8.16369
-8.16363
-8.16357
-8.16349
-8.1634
-8.16331
-8.16322
-8.16313
-8.16306
-8.16303
-8.16302
-8.16303
-8.40839
-8.40839
-8.40839
-8.40838
-8.40837
-8.40836
-8.40834
-8.40833
-8.40833
-8.40835
-8.40839
-8.40845
-8.40853
-8.40861
-8.40869
-8.40875
-8.40879
-8.40879
-8.40877
-8.40873
-8.40867
-8.4086
-8.40852
-8.40842
-8.4083
-8.40817
-8.40803
-8.40791
-8.4078
-8.40773
-8.40771
-8.40772
-8.62166
-8.62166
-8.62166
-8.62165
-8.62164
-8.62161
-8.62159
-8.62157
-8.62156
-8.62158
-8.62163
-8.6217
-8.62178
-8.62187
-8.62195
-8.62202
-8.62206
-8.62206
-8.62204
-8.622
-8.62194
-8.62186
-8.62176
-8.62163
-8.62147
-8.62129
-8.6211
-8.62091
-8.62075
-8.62063
-8.62058
-8.62057
-8.80733
-8.80734
-8.80733
-8.80732
-8.80729
-8.80726
-8.80722
-8.8072
-8.80719
-8.80721
-8.80726
-8.80734
-8.80743
-8.80752
-8.80761
-8.80768
-8.80773
-8.80773
-8.80771
-8.80766
-8.8076
-8.80751
-8.80739
-8.80724
-8.80704
-8.8068
-8.80654
-8.80627
-8.80603
-8.80584
-8.80573
-8.80569
-8.969
-8.969
-8.96899
-8.96896
-8.96892
-8.96887
-8.96883
-8.9688
-8.96879
-8.96881
-8.96887
-8.96895
-8.96904
-8.96914
-8.96924
-8.96931
-8.96935
-8.96936
-8.96934
-8.96929
-8.96923
-8.96913
-8.96899
-8.96881
-8.96858
-8.96828
-8.96795
-8.96759
-8.96724
-8.96694
-8.96673
-8.96664
-9.10979
-9.10978
-9.10974
-9.10969
-9.10963
-9.10956
-9.10951
-9.10948
-9.10947
-9.10949
-9.10955
-9.10964
-9.10974
-9.10984
-9.10994
-9.11002
-9.11006
-9.11007
-9.11005
-9.11
-9.10993
-9.10982
-9.10968
-9.10948
-9.10921
-9.10887
-9.10846
-9.10801
-9.10752
-9.10706
-9.10671
-9.10648
-9.23247
-9.2324
-9.2323
-9.2322
-9.23211
-9.23204
-9.23198
-9.23194
-9.23194
-9.23197
-9.23203
-9.23212
-9.23222
-9.23232
-9.23242
-9.2325
-9.23255
-9.23256
-9.23254
-9.23249
-9.23242
-9.23231
-9.23215
-9.23194
-9.23165
-9.23128
-9.23082
-9.23028
-9.22965
-9.22898
-9.22835
-9.2278
-9.3396
-9.33921
-9.33897
-9.33883
-9.33872
-9.33864
-9.33858
-9.33855
-9.33855
-9.33858
-9.33865
-9.33874
-9.33884
-9.33895
-9.33905
-9.33914
-9.33918
-9.33919
-9.33917
-9.33913
-9.33905
-9.33894
-9.33878
-9.33856
-9.33826
-9.33787
-9.33739
-9.33678
-9.33605
-9.33514
-9.33403
-9.33277
-9.43345
-9.43222
-9.43176
-9.43161
-9.43151
-9.43144
-9.43138
-9.43135
-9.43136
-9.4314
-9.43146
-9.43156
-9.43167
-9.43178
-9.43188
-9.43197
-9.43202
-9.43203
-9.43201
-9.43196
-9.43188
-9.43177
-9.43161
-9.43139
-9.43109
-9.4307
-9.4302
-9.42957
-9.42876
-9.42766
-9.42606
-9.4238
)
;

boundaryField
{
    movingWall
    {
        type            calculated;
        value           nonuniform List<scalar> 
32
(
-9.47666
-9.47542
-9.47496
-9.47481
-9.47472
-9.47464
-9.47458
-9.47456
-9.47456
-9.4746
-9.47467
-9.47476
-9.47487
-9.47498
-9.47509
-9.47517
-9.47522
-9.47523
-9.47521
-9.47516
-9.47509
-9.47498
-9.47482
-9.4746
-9.47429
-9.4739
-9.47341
-9.47278
-9.47197
-9.47087
-9.46926
-9.467
)
;
    }
    fixedWalls
    {
        type            calculated;
        value           nonuniform List<scalar> 
64
(
6.93889e-18
-0.0928115
-0.199424
-0.321892
-0.462571
-0.624173
-0.809808
-1.02305
-1.26801
-1.54941
-1.87267
-2.24401
-2.67059
-3.16062
-3.72352
-4.37014
-5.06149
-5.70806
-6.27092
-6.7609
-7.18744
-7.55875
-7.882
-8.16341
-8.40839
-8.62166
-8.80733
-8.969
-9.10979
-9.23247
-9.3396
-9.43345
-8.72167e-05
-0.0928979
-0.19951
-0.321977
-0.462659
-0.624266
-0.80991
-1.02317
-1.26814
-1.54953
-1.87277
-2.24407
-2.67061
-3.1606
-3.7235
-4.37013
-5.0615
-5.70811
-6.27098
-6.76096
-7.18747
-7.55871
-7.88183
-8.16303
-8.40772
-8.62057
-8.80569
-8.96664
-9.10648
-9.2278
-9.33277
-9.4238
)
;
    }
    floor
    {
        type            calculated;
        value           nonuniform List<scalar> 
32
(
0.0431943
0.043194
0.0431933
0.0431926
0.0431921
0.043192
0.0431922
0.0431927
0.0431931
0.0431934
0.0431936
0.0431943
0.0431967
0.0432026
0.0432153
0.0432395
0.0432751
0.0433072
0.0433152
0.043296
0.0432548
0.0432055
0.0431642
0.0431365
0.0431197
0.0431102
0.0431052
0.0431032
0.0431031
0.0431043
0.0431059
0.0431071
)
;
    }
    frontAndBack
    {
        type            empty;
    }
}


// ************************************************************************* //
