/*--------------------------------*- C++ -*----------------------------------*\
| =========                 |                                                 |
| \\      /  F ield         | OpenFOAM: The Open Source CFD Toolbox           |
|  \\    /   O peration     | Version:  2212                                  |
|   \\  /    A nd           | Website:  www.openfoam.com                      |
|    \\/     M anipulation  |                                                 |
\*---------------------------------------------------------------------------*/
FoamFile
{
    version     2.0;
    format      ascii;
    arch        "LSB;label=64;scalar=64";
    class       surfaceScalarField;
    location    "1840";
    object      phi;
}
// * * * * * * * * * * * * * * * * * * * * * * * * * * * * * * * * * * * * * //

dimensions      [0 3 -1 0 0 0 0];

oriented        oriented;

internalField   nonuniform List<scalar> 
1984
(
3.18185e-10
-3.18272e-10
-2.18271e-10
5.36478e-10
-2.50986e-09
2.29156e-09
-6.7879e-09
4.27802e-09
-1.26046e-08
5.81665e-09
-1.91476e-08
6.54303e-09
-2.56979e-08
6.55033e-09
-3.20485e-08
6.35059e-09
-3.86318e-08
6.58323e-09
-4.6296e-08
7.6642e-09
-5.59165e-08
9.6205e-09
-6.80965e-08
1.218e-08
-8.29594e-08
1.4863e-08
-9.968e-08
1.67205e-08
-1.15067e-07
1.53871e-08
-1.20926e-07
5.85851e-09
-1.01833e-07
-1.90924e-08
-5.16489e-08
-5.01844e-08
2.16835e-08
-7.33325e-08
9.52119e-08
-7.35285e-08
1.43082e-07
-4.78704e-08
1.56631e-07
-1.35487e-08
1.44826e-07
1.1805e-08
1.21582e-07
2.32437e-08
9.54728e-08
2.61094e-08
7.0307e-08
2.51658e-08
4.75455e-08
2.27615e-08
2.80607e-08
1.94849e-08
1.29616e-08
1.5099e-08
3.43253e-09
9.52909e-09
-2.15192e-10
3.64777e-09
-2.15163e-10
-5.31613e-10
2.13356e-10
-4.15629e-09
4.16108e-09
-1.28431e-08
1.09784e-08
-2.72216e-08
1.86565e-08
-4.64115e-08
2.50065e-08
-6.84377e-08
2.85692e-08
-9.13447e-08
2.94574e-08
-1.14411e-07
2.9417e-08
-1.38661e-07
3.08334e-08
-1.66358e-07
3.53608e-08
-1.99897e-07
4.31599e-08
-2.40789e-07
5.30717e-08
-2.88775e-07
6.2849e-08
-3.40191e-07
6.8136e-08
-3.83941e-07
5.91379e-08
-3.95023e-07
1.694e-08
-3.30415e-07
-8.37004e-08
-1.78237e-07
-2.02362e-07
4.14856e-08
-2.93056e-07
2.61118e-07
-2.93161e-07
4.07744e-07
-1.94496e-07
4.60225e-07
-6.60303e-08
4.3911e-07
3.29204e-08
3.79274e-07
8.30796e-08
3.05074e-07
1.00309e-07
2.29661e-07
1.00579e-07
1.59655e-07
9.27683e-08
9.92049e-08
7.99345e-08
5.18438e-08
6.24602e-08
2.00958e-08
4.12771e-08
3.95275e-09
1.97909e-08
3.73764e-09
-2.543e-09
2.75633e-09
-1.2004e-08
1.3622e-08
-3.05648e-08
2.95392e-08
-5.902e-08
4.71116e-08
-9.60966e-08
6.20832e-08
-1.38869e-07
7.13416e-08
-1.84323e-07
7.49117e-08
-2.31222e-07
7.63158e-08
-2.80991e-07
8.06022e-08
-3.36998e-07
9.13678e-08
-4.02775e-07
1.08937e-07
-4.80162e-07
1.30458e-07
-5.67482e-07
1.50169e-07
-6.56548e-07
1.57202e-07
-7.26487e-07
1.29077e-07
-7.34521e-07
2.49736e-08
-6.13648e-07
-2.04573e-07
-3.54272e-07
-4.61738e-07
1.34034e-08
-6.60731e-07
3.84044e-07
-6.63801e-07
6.43562e-07
-4.54014e-07
7.55817e-07
-1.78285e-07
7.44573e-07
4.41638e-08
6.60441e-07
1.67212e-07
5.43319e-07
2.17431e-07
4.17412e-07
2.26486e-07
2.9683e-07
2.1335e-07
1.90718e-07
1.86047e-07
1.05658e-07
1.4752e-07
4.56195e-08
1.01316e-07
1.11743e-08
5.42361e-08
1.49121e-08
-5.61768e-09
8.37398e-09
-2.3873e-08
3.18773e-08
-5.68935e-08
6.25596e-08
-1.05077e-07
9.52956e-08
-1.66384e-07
1.23389e-07
-2.36886e-07
1.41844e-07
-3.12691e-07
1.50717e-07
-3.92154e-07
1.55779e-07
-4.76888e-07
1.65335e-07
-5.70785e-07
1.85265e-07
-6.77679e-07
2.15831e-07
-7.98696e-07
2.51475e-07
-9.29432e-07
2.80905e-07
-1.05575e-06
2.83517e-07
-1.14634e-06
2.19676e-07
-1.14176e-06
2.0392e-08
-9.58437e-07
-3.87899e-07
-5.97116e-07
-8.23059e-07
-1.04612e-07
-1.15324e-06
4.04455e-07
-1.17287e-06
7.90861e-07
-8.4042e-07
9.889e-07
-3.76323e-07
1.01388e-06
1.91879e-08
9.25285e-07
2.55802e-07
7.78757e-07
3.63959e-07
6.10121e-07
3.95122e-07
4.42322e-07
3.8115e-07
2.90768e-07
3.376e-07
1.66048e-07
2.72241e-07
7.46578e-08
1.92706e-07
1.93078e-08
1.09586e-07
3.422e-08
-9.7939e-09
1.81679e-08
-4.02186e-08
6.23019e-08
-9.32249e-08
1.15566e-07
-1.68262e-07
1.70333e-07
-2.61896e-07
2.17023e-07
-3.68874e-07
2.48822e-07
-4.84434e-07
2.66276e-07
-6.06556e-07
2.77901e-07
-7.36684e-07
2.95463e-07
-8.78371e-07
3.26952e-07
-1.03456e-06
3.72018e-07
-1.2044e-06
4.21315e-07
-1.37966e-06
4.5617e-07
-1.5398e-06
4.43651e-07
-1.64422e-06
3.24105e-07
-1.6201e-06
-3.73493e-09
-1.37696e-06
-6.31042e-07
-9.31605e-07
-1.26841e-06
-3.5629e-07
-1.72855e-06
2.57493e-07
-1.78665e-06
7.76526e-07
-1.35945e-06
1.08816e-06
-6.8796e-07
1.18165e-06
-7.43001e-08
1.11532e-06
3.2213e-07
9.60714e-07
5.18568e-07
7.65831e-07
5.90005e-07
5.63126e-07
5.83854e-07
3.75051e-07
5.25675e-07
2.17039e-07
4.30253e-07
9.89122e-08
3.10832e-07
2.59324e-08
1.82566e-07
6.01524e-08
-1.52199e-08
3.33877e-08
-6.15647e-08
1.08647e-07
-1.40724e-07
1.94725e-07
-2.50684e-07
2.80293e-07
-3.8593e-07
3.5227e-07
-5.39359e-07
4.02251e-07
-7.05086e-07
4.32003e-07
-8.80475e-07
4.53291e-07
-1.06623e-06
4.81215e-07
-1.26456e-06
5.25285e-07
-1.47635e-06
5.83803e-07
-1.69782e-06
6.42784e-07
-1.91665e-06
6.75002e-07
-2.10687e-06
6.33872e-07
-2.22169e-06
4.38924e-07
-2.17994e-06
-4.54816e-08
-1.89287e-06
-9.18112e-07
-1.39373e-06
-1.76755e-06
-7.76607e-07
-2.34567e-06
-1.07691e-07
-2.45557e-06
5.249e-07
-1.99204e-06
9.73314e-07
-1.13637e-06
1.17248e-06
-2.7347e-07
1.16177e-06
3.32844e-07
1.02688e-06
6.53461e-07
8.30235e-07
7.86646e-07
6.14799e-07
7.99291e-07
4.10367e-07
7.30106e-07
2.37171e-07
6.0345e-07
1.07645e-07
4.40358e-07
2.80215e-08
2.62189e-07
8.81739e-08
-2.19213e-08
5.5309e-08
-8.79058e-08
1.74631e-07
-1.99278e-07
3.06097e-07
-3.52142e-07
4.33158e-07
-5.38295e-07
5.38422e-07
-7.48182e-07
6.12138e-07
-9.74273e-07
6.58094e-07
-1.21277e-06
6.9179e-07
-1.46296e-06
7.31402e-07
-1.72495e-06
7.87275e-07
-1.99693e-06
8.55781e-07
-2.2721e-06
9.17952e-07
-2.53488e-06
9.37788e-07
-2.75609e-06
8.55085e-07
-2.88637e-06
5.69205e-07
-2.84328e-06
-8.85793e-08
-2.54235e-06
-1.21904e-06
-2.02518e-06
-2.28473e-06
-1.39069e-06
-2.98016e-06
-7.14932e-07
-3.13133e-06
-2.99172e-08
-2.67706e-06
5.66971e-07
-1.73326e-06
9.15341e-07
-6.21841e-07
1.00155e-06
2.46632e-07
9.1895e-07
7.36064e-07
7.52023e-07
9.53574e-07
5.557e-07
9.95614e-07
3.66478e-07
9.19328e-07
2.07759e-07
7.6217e-07
9.19855e-08
5.56131e-07
2.32052e-08
3.3097e-07
1.11379e-07
-2.95658e-08
8.48748e-08
-1.17963e-07
2.63029e-07
-2.66167e-07
4.54301e-07
-4.68238e-07
6.35228e-07
-7.12933e-07
7.83117e-07
-9.87726e-07
8.86931e-07
-1.28279e-06
9.53154e-07
-1.59251e-06
1.00151e-06
-1.91427e-06
1.05317e-06
-2.24595e-06
1.11895e-06
-2.58331e-06
1.19314e-06
-2.91735e-06
1.252e-06
-3.2309e-06
1.25133e-06
-3.49405e-06
1.11824e-06
-3.65809e-06
7.33241e-07
-3.64344e-06
-1.03225e-07
-3.36618e-06
-1.4963e-06
-2.86646e-06
-2.78445e-06
-2.24047e-06
-3.60615e-06
-1.56201e-06
-3.80979e-06
-8.71322e-07
-3.36775e-06
-2.0258e-07
-2.402e-06
3.32899e-07
-1.15732e-06
5.88482e-07
-8.95132e-09
5.98779e-07
7.25767e-07
5.03253e-07
1.0491e-06
3.67543e-07
1.13132e-06
2.33656e-07
1.05321e-06
1.25286e-07
8.7054e-07
5.16105e-08
6.29807e-07
1.18113e-08
3.70769e-07
1.2319e-07
-3.73388e-08
1.22214e-07
-1.48786e-07
3.74476e-07
-3.35374e-07
6.40889e-07
-5.89521e-07
8.89375e-07
-8.97101e-07
1.0907e-06
-1.24236e-06
1.23219e-06
-1.61265e-06
1.32344e-06
-2.00008e-06
1.38894e-06
-2.40013e-06
1.45322e-06
-2.80896e-06
1.52778e-06
-3.22091e-06
1.60509e-06
-3.62609e-06
1.65718e-06
-4.00718e-06
1.63242e-06
-4.33495e-06
1.44602e-06
-4.56194e-06
9.60226e-07
-4.61106e-06
-5.40981e-08
-4.39321e-06
-1.71415e-06
-3.94315e-06
-3.2345e-06
-3.35252e-06
-4.19679e-06
-2.68829e-06
-4.47401e-06
-1.98986e-06
-4.06618e-06
-1.29104e-06
-3.10083e-06
-6.44831e-07
-1.80353e-06
-1.64551e-07
-4.89231e-07
5.14681e-08
5.09748e-07
9.6401e-08
1.00417e-06
7.44896e-08
1.15324e-06
3.80984e-08
1.08961e-06
1.10198e-08
8.97618e-07
-1.05806e-09
6.41885e-07
-2.1308e-09
3.71841e-07
1.2106e-07
-4.40753e-08
1.66289e-07
-1.76183e-07
5.06584e-07
-3.98433e-07
8.63139e-07
-7.02842e-07
1.19378e-06
-1.07331e-06
1.46117e-06
-1.49112e-06
1.65e-06
-1.94055e-06
1.77287e-06
-2.41135e-06
1.85974e-06
-2.89745e-06
1.93932e-06
-3.39416e-06
2.0245e-06
-3.89546e-06
2.10639e-06
-4.39138e-06
2.1531e-06
-4.86472e-06
2.10576e-06
-5.28621e-06
1.8675e-06
-5.60771e-06
1.28173e-06
-5.75049e-06
8.86813e-08
-5.61929e-06
-1.84536e-06
-5.24799e-06
-3.6058e-06
-4.72148e-06
-4.7233e-06
-4.09379e-06
-5.10171e-06
-3.39272e-06
-4.76724e-06
-2.64244e-06
-3.8511e-06
-1.87807e-06
-2.56791e-06
-1.17726e-06
-1.19003e-06
-6.82457e-07
1.49414e-08
-4.09495e-07
7.31205e-07
-2.60123e-07
1.00386e-06
-1.66769e-07
9.96251e-07
-9.88551e-08
8.29705e-07
-4.73965e-08
5.90426e-07
-1.32632e-08
3.37708e-07
1.07796e-07
-4.85654e-08
2.14854e-07
-1.95703e-07
6.53722e-07
-4.46188e-07
1.11362e-06
-7.93779e-07
1.54138e-06
-1.22222e-06
1.88961e-06
-1.71071e-06
2.13848e-06
-2.24059e-06
2.30276e-06
-2.79921e-06
2.41836e-06
-3.37928e-06
2.51938e-06
-3.97579e-06
2.62101e-06
-4.5827e-06
2.7133e-06
-5.18963e-06
2.76003e-06
-5.77822e-06
2.69435e-06
-6.31693e-06
2.40621e-06
-6.75414e-06
1.71894e-06
-7.01005e-06
3.44589e-07
-6.98536e-06
-1.87005e-06
-6.71945e-06
-3.87171e-06
-6.2858e-06
-5.15695e-06
-5.71767e-06
-5.66983e-06
-5.0229e-06
-5.46202e-06
-4.21e-06
-4.664e-06
-3.30923e-06
-3.46868e-06
-2.38861e-06
-2.11065e-06
-1.53536e-06
-8.38316e-07
-9.33396e-07
1.29245e-07
-5.61876e-07
6.32343e-07
-3.24839e-07
7.59214e-07
-1.70104e-07
6.74969e-07
-7.18747e-08
4.92197e-07
-1.75832e-08
2.83417e-07
9.02132e-08
-4.96897e-08
2.64544e-07
-2.03e-07
8.07032e-07
-4.69258e-07
1.37988e-06
-8.46879e-07
1.919e-06
-1.32223e-06
2.36497e-06
-1.87395e-06
2.69019e-06
-2.48064e-06
2.90945e-06
-3.1268e-06
3.06452e-06
-3.80353e-06
3.19611e-06
-4.50521e-06
3.3227e-06
-5.22516e-06
3.43325e-06
-5.95146e-06
3.48633e-06
-6.66294e-06
3.40582e-06
-7.32439e-06
3.06766e-06
-7.88141e-06
2.27597e-06
-8.25895e-06
7.22127e-07
-8.35811e-06
-1.77089e-06
-8.22135e-06
-4.00847e-06
-7.90728e-06
-5.47102e-06
-7.42152e-06
-6.15558e-06
-6.74642e-06
-6.13712e-06
-5.87367e-06
-5.53675e-06
-4.82733e-06
-4.51502e-06
-3.67618e-06
-3.26179e-06
-2.53454e-06
-1.97996e-06
-1.54482e-06
-8.60472e-07
-8.52238e-07
-6.02411e-08
-4.31477e-07
3.38453e-07
-1.94453e-07
4.37946e-07
-6.91517e-08
3.66896e-07
-1.34741e-08
2.27739e-07
7.67391e-08
-4.62048e-08
3.10749e-07
-1.92999e-07
9.53826e-07
-4.56106e-07
1.64299e-06
-8.42116e-07
2.30501e-06
-1.34387e-06
2.86672e-06
-1.94175e-06
3.28808e-06
-2.61168e-06
3.57937e-06
-3.33387e-06
3.78671e-06
-4.09617e-06
3.95841e-06
-4.89122e-06
4.11774e-06
-5.71095e-06
4.25298e-06
-6.54147e-06
4.31686e-06
-7.35899e-06
4.22335e-06
-8.12634e-06
3.83501e-06
-8.79055e-06
2.94018e-06
-9.28698e-06
1.21855e-06
-9.51987e-06
-1.538e-06
-9.53297e-06
-3.99538e-06
-9.3677e-06
-5.63629e-06
-8.99875e-06
-6.52454e-06
-8.38135e-06
-6.75452e-06
-7.49144e-06
-6.42666e-06
-6.35044e-06
-5.65602e-06
-5.03488e-06
-4.57736e-06
-3.66934e-06
-3.34549e-06
-2.40063e-06
-2.12919e-06
-1.36838e-06
-1.09249e-06
-6.77183e-07
-3.5274e-07
-2.82179e-07
4.29413e-08
-8.96199e-08
1.74337e-07
-1.45814e-08
1.52701e-07
6.21576e-08
-3.65196e-08
3.47268e-07
-1.5899e-07
1.0763e-06
-3.90859e-07
1.87486e-06
-7.50679e-07
2.66483e-06
-1.24297e-06
3.35902e-06
-1.85377e-06
3.89887e-06
-2.55663e-06
4.28223e-06
-3.32492e-06
4.555e-06
-4.14004e-06
4.77353e-06
-4.99093e-06
4.96864e-06
-5.86805e-06
5.1301e-06
-6.75704e-06
5.20584e-06
-7.63445e-06
5.10075e-06
-8.46563e-06
4.66619e-06
-9.20489e-06
3.67944e-06
-9.80271e-06
1.81637e-06
-1.01687e-05
-1.17205e-06
-1.03497e-05
-3.81434e-06
-1.03729e-05
-5.61304e-06
-1.0182e-05
-6.71551e-06
-9.70285e-06
-7.23363e-06
-8.89128e-06
-7.23823e-06
-7.75767e-06
-6.78963e-06
-6.37464e-06
-5.96039e-06
-4.86848e-06
-4.85165e-06
-3.39853e-06
-3.59914e-06
-2.12308e-06
-2.36794e-06
-1.15046e-06
-1.32536e-06
-5.21195e-07
-5.86328e-07
-1.80782e-07
-1.66076e-07
-3.36286e-08
5.54701e-09
2.8529e-08
-1.91078e-08
3.66376e-07
-9.38755e-08
1.15106e-06
-2.55301e-07
2.03628e-06
-5.36774e-07
2.9463e-06
-9.60823e-07
3.78307e-06
-1.52618e-06
4.46423e-06
-2.20702e-06
4.96307e-06
-2.96708e-06
5.31506e-06
-3.77609e-06
5.58253e-06
-4.61571e-06
5.80826e-06
-5.47494e-06
5.98933e-06
-6.34233e-06
6.07324e-06
-7.20049e-06
5.9589e-06
-8.02442e-06
5.49013e-06
-8.78341e-06
4.43842e-06
-9.44665e-06
2.47961e-06
-9.92881e-06
-6.89894e-07
-1.02913e-05
-3.4518e-06
-1.05569e-05
-5.34746e-06
-1.06404e-05
-6.63201e-06
-1.04333e-05
-7.44079e-06
-9.85804e-06
-7.81347e-06
-8.89504e-06
-7.75264e-06
-7.59294e-06
-7.26249e-06
-6.06215e-06
-6.38244e-06
-4.45927e-06
-5.20202e-06
-2.96176e-06
-3.86544e-06
-1.72856e-06
-2.55856e-06
-8.49482e-07
-1.46541e-06
-3.18927e-07
-6.96631e-07
-6.57144e-08
-2.47665e-07
-3.71854e-08
5.22032e-09
3.61156e-07
4.42965e-10
1.15584e-06
-4.76074e-08
2.08433e-06
-1.83276e-07
3.08197e-06
-4.50922e-07
4.05072e-06
-8.74729e-07
4.88804e-06
-1.44103e-06
5.52937e-06
-2.10473e-06
5.97876e-06
-2.81878e-06
6.29659e-06
-3.55052e-06
6.54e-06
-4.28339e-06
6.7222e-06
-5.01072e-06
6.80056e-06
-5.72832e-06
6.67651e-06
-6.43199e-06
6.1938e-06
-7.12144e-06
5.12788e-06
-7.80054e-06
3.15871e-06
-8.38224e-06
-1.08193e-07
-8.92271e-06
-2.91133e-06
-9.48834e-06
-4.78182e-06
-9.97185e-06
-6.1485e-06
-1.02212e-05
-7.19146e-06
-1.01047e-05
-7.92996e-06
-9.542e-06
-8.31532e-06
-8.53124e-06
-8.27324e-06
-7.14794e-06
-7.76575e-06
-5.53502e-06
-6.81494e-06
-3.88308e-06
-5.51738e-06
-2.39743e-06
-4.04421e-06
-1.24445e-06
-2.61839e-06
-4.93367e-07
-1.44771e-06
-1.0797e-07
-6.33062e-07
-1.45156e-07
2.84606e-08
3.32695e-07
9.52713e-08
1.08903e-06
1.7388e-07
2.00572e-06
2.21586e-07
3.03426e-06
1.86116e-07
4.08619e-06
2.276e-08
5.0514e-06
-2.81323e-07
5.83346e-06
-6.98223e-07
6.39566e-06
-1.1734e-06
6.77176e-06
-1.65335e-06
7.01995e-06
-2.10187e-06
7.17072e-06
-2.51197e-06
7.21066e-06
-2.8898e-06
7.05434e-06
-3.24628e-06
6.55028e-06
-3.59668e-06
5.47828e-06
-3.99266e-06
3.55469e-06
-4.48109e-06
3.80237e-07
-5.09181e-06
-2.30061e-06
-5.8585e-06
-4.01514e-06
-6.70905e-06
-5.29794e-06
-7.48473e-06
-6.41579e-06
-8.01912e-06
-7.39557e-06
-8.14633e-06
-8.1881e-06
-7.78156e-06
-8.63802e-06
-6.9296e-06
-8.61771e-06
-5.68479e-06
-8.05976e-06
-4.21668e-06
-6.98549e-06
-2.74499e-06
-5.5159e-06
-1.49317e-06
-3.87021e-06
-6.14862e-07
-2.32602e-06
-1.39217e-07
-1.10871e-06
-2.84373e-07
4.01783e-08
2.92517e-07
1.48168e-07
9.81042e-07
3.06026e-07
1.84787e-06
4.79521e-07
2.86077e-06
6.22386e-07
3.94332e-06
6.88076e-07
4.98571e-06
6.4521e-07
5.87632e-06
4.96485e-07
6.54438e-06
2.83183e-07
6.98506e-06
6.3686e-08
7.23945e-06
-1.12407e-07
7.34681e-06
-2.23649e-07
7.3219e-06
-2.75165e-07
7.10586e-06
-2.88253e-07
6.56337e-06
-2.95181e-07
5.4852e-06
-3.08289e-07
3.5678e-06
-5.6374e-07
6.35688e-07
-1.10065e-06
-1.7637e-06
-1.80561e-06
-3.31018e-06
-2.68882e-06
-4.41473e-06
-3.66674e-06
-5.43786e-06
-4.62651e-06
-6.43581e-06
-5.34011e-06
-7.47449e-06
-5.65014e-06
-8.32799e-06
-5.47511e-06
-8.79274e-06
-4.83137e-06
-8.70349e-06
-3.82612e-06
-7.99074e-06
-2.64293e-06
-6.69909e-06
-1.5123e-06
-5.00084e-06
-6.46561e-07
-3.19176e-06
-1.5044e-07
-1.60483e-06
-4.34813e-07
4.32926e-08
2.49224e-07
1.67391e-07
8.56944e-07
3.63553e-07
1.6517e-06
6.06358e-07
2.61796e-06
8.55967e-07
3.69371e-06
1.06742e-06
4.77425e-06
1.20497e-06
5.73877e-06
1.25824e-06
6.49111e-06
1.25164e-06
6.99167e-06
1.23479e-06
7.25629e-06
1.25749e-06
7.32411e-06
1.35384e-06
7.22555e-06
1.52574e-06
6.93396e-06
1.74324e-06
6.34587e-06
1.95048e-06
5.27796e-06
2.0558e-06
3.46248e-06
1.85475e-06
8.36733e-07
1.38116e-06
-1.2901e-06
7.65727e-07
-2.69475e-06
1.03618e-08
-3.65937e-06
-9.1153e-07
-4.51597e-06
-1.96635e-06
-5.38099e-06
-2.96823e-06
-6.47261e-06
-3.71917e-06
-7.57705e-06
-4.06106e-06
-8.45085e-06
-3.93245e-06
-8.8321e-06
-3.36772e-06
-8.55547e-06
-2.49318e-06
-7.57363e-06
-1.51554e-06
-5.97848e-06
-6.78769e-07
-4.02853e-06
-1.63075e-07
-2.12052e-06
-5.97887e-07
4.03665e-08
2.08858e-07
1.61589e-07
7.35721e-07
3.63299e-07
1.44999e-06
6.299e-07
2.35136e-06
9.30463e-07
3.39315e-06
1.2259e-06
4.47882e-06
1.48157e-06
5.4831e-06
1.68153e-06
6.29115e-06
1.83777e-06
6.83543e-06
1.98636e-06
7.10771e-06
2.16997e-06
7.1405e-06
2.42056e-06
6.97496e-06
2.7405e-06
6.61402e-06
3.09472e-06
5.99165e-06
3.40852e-06
4.96416e-06
3.5483e-06
3.3227e-06
3.34721e-06
1.03783e-06
2.88289e-06
-8.25782e-07
2.28132e-06
-2.09318e-06
1.61824e-06
-2.99629e-06
8.38167e-07
-3.7359e-06
-8.01397e-08
-4.46268e-06
-1.12589e-06
-5.42686e-06
-2.09626e-06
-6.60668e-06
-2.78507e-06
-7.76205e-06
-3.06092e-06
-8.55625e-06
-2.88459e-06
-8.7318e-06
-2.31409e-06
-8.14413e-06
-1.50929e-06
-6.78328e-06
-7.1556e-07
-4.82226e-06
-1.78404e-07
-2.65768e-06
-7.76292e-07
3.37096e-08
1.75148e-07
1.39109e-07
6.30322e-07
3.22277e-07
1.26682e-06
5.77365e-07
2.09628e-06
8.84421e-07
3.08609e-06
1.21415e-06
4.14909e-06
1.53829e-06
5.15896e-06
1.84109e-06
5.98834e-06
2.12653e-06
6.54999e-06
2.41635e-06
6.81789e-06
2.73853e-06
6.81832e-06
3.1134e-06
6.60009e-06
3.53748e-06
6.18993e-06
3.97237e-06
5.55677e-06
4.3372e-06
4.59933e-06
4.49343e-06
3.16647e-06
4.30781e-06
1.22344e-06
3.86117e-06
-3.79137e-07
3.26505e-06
-1.49706e-06
2.59166e-06
-2.3229e-06
1.875e-06
-3.01924e-06
1.12539e-06
-3.71307e-06
2.34276e-07
-4.53575e-06
-7.54556e-07
-5.61785e-06
-1.64169e-06
-6.87492e-06
-2.21951e-06
-7.97842e-06
-2.37855e-06
-8.57276e-06
-2.1035e-06
-8.41918e-06
-1.49102e-06
-7.39576e-06
-7.59336e-07
-5.55395e-06
-1.9901e-07
-3.21801e-06
-9.75301e-07
2.47042e-08
1.50444e-07
1.05337e-07
5.49689e-07
2.52328e-07
1.11983e-06
4.69198e-07
1.87941e-06
7.48892e-07
2.8064e-06
1.07545e-06
3.82253e-06
1.43115e-06
4.80326e-06
1.8043e-06
5.61519e-06
2.19325e-06
6.16105e-06
2.60471e-06
6.40643e-06
3.04759e-06
6.37543e-06
3.52536e-06
6.12232e-06
4.02529e-06
5.69e-06
4.50727e-06
5.07479e-06
4.894e-06
4.2126e-06
5.06143e-06
2.99904e-06
4.90795e-06
1.37693e-06
4.50566e-06
2.31473e-08
3.95012e-06
-9.41516e-07
3.30187e-06
-1.67465e-06
2.60934e-06
-2.3267e-06
1.90237e-06
-3.0061e-06
1.16905e-06
-3.80243e-06
3.27241e-07
-4.77603e-06
-5.9148e-07
-5.9562e-06
-1.37737e-06
-7.19253e-06
-1.82406e-06
-8.12607e-06
-1.83872e-06
-8.40453e-06
-1.44301e-06
-7.79148e-06
-8.03272e-07
-6.19368e-06
-2.25898e-07
-3.79538e-06
-1.2012e-06
1.34883e-08
1.36956e-07
6.14375e-08
5.0174e-07
1.57545e-07
1.02373e-06
3.16112e-07
1.72084e-06
5.45841e-07
2.57667e-06
8.46039e-07
3.52234e-06
1.21121e-06
4.43808e-06
1.63433e-06
5.19208e-06
2.10784e-06
5.68754e-06
2.62226e-06
5.89201e-06
3.16617e-06
5.83152e-06
3.72577e-06
5.56272e-06
4.27922e-06
5.13656e-06
4.78691e-06
4.5671e-06
5.18101e-06
3.8185e-06
5.36073e-06
2.81932e-06
5.25949e-06
1.47818e-06
4.93065e-06
3.51987e-07
4.44071e-06
-4.51582e-07
3.8586e-06
-1.09253e-06
3.22389e-06
-1.692e-06
2.56485e-06
-2.34706e-06
1.88935e-06
-3.12693e-06
1.17644e-06
-4.06313e-06
3.63306e-07
-5.14306e-06
-5.01422e-07
-6.3278e-06
-1.18899e-06
-7.4385e-06
-1.49032e-06
-8.10319e-06
-1.34103e-06
-7.94077e-06
-8.34772e-07
-6.69993e-06
-2.59598e-07
-4.37055e-06
-1.4608e-06
-1.76519e-09
1.38721e-07
1.5877e-09
4.98387e-07
3.12122e-08
9.94102e-07
1.17957e-07
1.63409e-06
2.89447e-07
2.40518e-06
5.57655e-07
3.25413e-06
9.25631e-07
4.07011e-06
1.38921e-06
4.7285e-06
1.93308e-06
5.14367e-06
2.53068e-06
5.29441e-06
3.15236e-06
5.20984e-06
3.77069e-06
4.94439e-06
4.35799e-06
4.54926e-06
4.87793e-06
4.04715e-06
5.27544e-06
3.42099e-06
5.47408e-06
2.62068e-06
5.42619e-06
1.52607e-06
5.18322e-06
5.94959e-07
4.80031e-06
-6.86731e-08
4.32844e-06
-6.20667e-07
3.79407e-06
-1.15764e-06
3.21621e-06
-1.76919e-06
2.60038e-06
-2.5111e-06
1.93815e-06
-3.4009e-06
1.21038e-06
-4.4153e-06
3.85142e-07
-5.50256e-06
-4.49358e-07
-6.604e-06
-1.03213e-06
-7.52042e-06
-1.16137e-06
-7.81153e-06
-8.38993e-07
-7.02231e-06
-3.00185e-07
-4.90936e-06
-1.76098e-06
-2.38764e-08
1.62597e-07
-7.96618e-08
5.54172e-07
-1.30641e-07
1.04508e-06
-1.22513e-07
1.62597e-06
-5.34507e-09
2.28801e-06
2.40954e-07
3.00783e-06
6.18033e-07
3.69303e-06
1.12007e-06
4.22646e-06
1.72229e-06
4.54145e-06
2.38191e-06
4.6348e-06
3.05649e-06
4.53526e-06
3.71135e-06
4.28954e-06
4.31777e-06
3.94283e-06
4.84571e-06
3.51921e-06
5.25449e-06
3.01222e-06
5.49086e-06
2.3843e-06
5.51883e-06
1.4981e-06
5.38743e-06
7.26361e-07
5.13307e-06
1.85692e-07
4.78873e-06
-2.76335e-07
4.37773e-06
-7.46636e-07
3.90473e-06
-1.29619e-06
3.36401e-06
-1.97038e-06
2.74466e-06
-2.78155e-06
2.03767e-06
-3.70831e-06
1.2423e-06
-4.70719e-06
3.67232e-07
-5.72893e-06
-4.42859e-07
-6.71033e-06
-8.82063e-07
-7.37233e-06
-7.992e-07
-7.10518e-06
-3.44864e-07
-5.3637e-06
-2.10585e-06
-6.04435e-08
2.23041e-07
-1.94745e-07
6.88474e-07
-3.31735e-07
1.18207e-06
-3.93001e-07
1.68723e-06
-3.18638e-07
2.21365e-06
-7.36923e-08
2.76288e-06
3.28989e-07
3.29035e-06
8.72928e-07
3.68252e-06
1.52273e-06
3.89164e-06
2.22444e-06
3.93308e-06
2.93114e-06
3.82856e-06
3.6078e-06
3.61287e-06
4.22927e-06
3.32137e-06
4.77365e-06
2.97483e-06
5.21398e-06
2.57188e-06
5.51511e-06
2.08317e-06
5.64112e-06
1.37209e-06
5.62664e-06
7.40841e-07
5.504e-06
3.08326e-07
5.29527e-06
-6.7599e-08
5.01354e-06
-4.64904e-07
4.65127e-06
-9.33918e-07
4.19221e-06
-1.51132e-06
3.61913e-06
-2.20848e-06
2.92299e-06
-3.01216e-06
2.11017e-06
-3.89437e-06
1.20638e-06
-4.82514e-06
2.67745e-07
-5.77169e-06
-4.78215e-07
-6.62637e-06
-6.9293e-07
-6.89046e-06
-3.83885e-07
-5.67274e-06
-2.48973e-06
-1.21622e-07
3.44663e-07
-3.52437e-07
9.19289e-07
-5.6377e-07
1.3934e-06
-6.60877e-07
1.78434e-06
-5.90556e-07
2.14333e-06
-3.30486e-07
2.50281e-06
1.11876e-07
2.84799e-06
7.05049e-07
3.08935e-06
1.39392e-06
3.20277e-06
2.1245e-06
3.20251e-06
2.85374e-06
3.09932e-06
3.55121e-06
2.9154e-06
4.19723e-06
2.67534e-06
4.77693e-06
2.39514e-06
5.27279e-06
2.07602e-06
5.65933e-06
1.69663e-06
5.89067e-06
1.14076e-06
5.98561e-06
6.45894e-07
5.98096e-06
3.12979e-07
5.89141e-06
2.19474e-08
5.71945e-06
-2.92937e-07
5.4522e-06
-6.66672e-07
5.06715e-06
-1.12628e-06
4.54145e-06
-1.68278e-06
3.86142e-06
-2.33213e-06
3.03064e-06
-3.0636e-06
2.0749e-06
-3.86939e-06
1.05041e-06
-4.74721e-06
8.29642e-08
-5.65892e-06
-4.87071e-07
-6.32043e-06
-3.97347e-07
-5.76247e-06
-2.88708e-06
-2.14905e-07
5.59569e-07
-5.40868e-07
1.24525e-06
-7.82295e-07
1.63483e-06
-8.56233e-07
1.85828e-06
-7.38673e-07
2.02577e-06
-4.26902e-07
2.19104e-06
7.47407e-08
2.34634e-06
7.21162e-07
2.44293e-06
1.44449e-06
2.47944e-06
2.20124e-06
2.44576e-06
2.95577e-06
2.34479e-06
3.68274e-06
2.18843e-06
4.36582e-06
1.99225e-06
4.99278e-06
1.76818e-06
5.54944e-06
1.51936e-06
6.01276e-06
1.23331e-06
6.32587e-06
8.27651e-07
6.49901e-06
4.72756e-07
6.57509e-06
2.36894e-07
6.56659e-06
3.04517e-08
6.4697e-06
-1.96049e-07
6.26972e-06
-4.66689e-07
5.94303e-06
-7.99593e-07
5.46432e-06
-1.20406e-06
4.81431e-06
-1.68212e-06
3.98744e-06
-2.23672e-06
2.99856e-06
-2.88052e-06
1.89114e-06
-3.63979e-06
7.63952e-07
-4.53173e-06
-1.32598e-07
-5.42388e-06
-3.54701e-07
-5.54036e-06
-3.24178e-06
-3.31489e-07
8.91057e-07
-7.04777e-07
1.61854e-06
-8.73573e-07
1.80363e-06
-8.2461e-07
1.80931e-06
-5.84635e-07
1.78579e-06
-1.63294e-07
1.7697e-06
4.21447e-07
1.7616e-06
1.11448e-06
1.74989e-06
1.86871e-06
1.72521e-06
2.64921e-06
1.66525e-06
3.42577e-06
1.56823e-06
4.17528e-06
1.43892e-06
4.88115e-06
1.28639e-06
5.53004e-06
1.11929e-06
6.10797e-06
9.41429e-07
6.59355e-06
7.47731e-07
6.92953e-06
4.91675e-07
7.12719e-06
2.75096e-07
7.23185e-06
1.32233e-07
7.25687e-06
5.4341e-09
7.19666e-06
-1.35839e-07
7.03599e-06
-3.06024e-07
6.75362e-06
-5.17216e-07
6.32497e-06
-7.75413e-07
5.72727e-06
-1.08443e-06
4.94426e-06
-1.45371e-06
3.97178e-06
-1.90804e-06
2.82793e-06
-2.49593e-06
1.57848e-06
-3.28228e-06
4.08148e-07
-4.25354e-06
-2.15404e-07
-4.91681e-06
-3.45718e-06
-4.45653e-07
1.33671e-06
-6.90645e-07
1.86353e-06
-5.80422e-07
1.6934e-06
-2.54907e-07
1.4838e-06
2.10008e-07
1.32088e-06
7.85418e-07
1.19429e-06
1.44555e-06
1.10147e-06
2.16655e-06
1.02889e-06
2.9241e-06
9.67667e-07
3.68967e-06
8.99682e-07
4.43771e-06
8.2019e-07
5.14696e-06
7.29672e-07
5.80112e-06
6.32231e-07
6.38781e-06
5.326e-07
6.89621e-06
4.33022e-07
7.312e-06
3.31946e-07
7.5933e-06
2.10379e-07
7.7567e-06
1.11694e-07
7.84319e-06
4.57381e-08
7.86274e-06
-1.41144e-08
7.80957e-06
-8.26728e-08
7.67161e-06
-1.68063e-07
7.4304e-06
-2.76e-07
7.06423e-06
-4.09241e-07
6.55043e-06
-5.70635e-07
5.86594e-06
-7.69216e-07
4.98727e-06
-1.02937e-06
3.89427e-06
-1.40293e-06
2.59083e-06
-1.97884e-06
1.18958e-06
-2.85229e-06
1.16506e-07
-3.84374e-06
-3.34068e-06
-3.74514e-07
1.71122e-06
1.77749e-08
1.47124e-06
7.19134e-07
9.92044e-07
1.41792e-06
7.85012e-07
2.10308e-06
6.3572e-07
2.78321e-06
5.14154e-07
3.45873e-06
4.25956e-07
4.12549e-06
3.62127e-07
4.7786e-06
3.14557e-07
5.40469e-06
2.736e-07
5.98951e-06
2.35371e-07
6.52059e-06
1.98584e-07
6.9892e-06
1.63624e-07
7.39051e-06
1.31291e-07
7.72197e-06
1.01564e-07
7.98018e-06
7.37329e-08
8.14672e-06
4.38418e-08
8.23795e-06
2.04645e-08
8.27975e-06
3.93528e-09
8.27755e-06
-1.19169e-08
8.22624e-06
-3.13605e-08
8.11546e-06
-5.72866e-08
7.93057e-06
-9.11061e-08
7.6548e-06
-1.33474e-07
7.26971e-06
-1.85539e-07
6.75239e-06
-2.51905e-07
6.06925e-06
-3.46232e-07
5.16743e-06
-5.01105e-07
3.97098e-06
-7.82396e-07
2.42054e-06
-1.30185e-06
7.47122e-07
-2.17032e-06
-2.59356e-06
1.71122e-06
3.18247e-06
4.17451e-06
4.95952e-06
5.59524e-06
6.1094e-06
6.53535e-06
6.89748e-06
7.21204e-06
7.48564e-06
7.72101e-06
7.91959e-06
8.08322e-06
8.21451e-06
8.31607e-06
8.3898e-06
8.43365e-06
8.45411e-06
8.45805e-06
8.44613e-06
8.41477e-06
8.35748e-06
8.26638e-06
8.1329e-06
7.94736e-06
7.69546e-06
7.34923e-06
6.84812e-06
6.06573e-06
4.76387e-06
2.59356e-06
)
;

boundaryField
{
    movingWall
    {
        type            calculated;
        value           uniform 0;
    }
    fixedWalls
    {
        type            calculated;
        value           uniform 0;
    }
    floor
    {
        type            calculated;
        value           uniform 0;
    }
    frontAndBack
    {
        type            empty;
        value           nonuniform List<scalar> 0();
    }
}


// ************************************************************************* //
