/*--------------------------------*- C++ -*----------------------------------*\
| =========                 |                                                 |
| \\      /  F ield         | OpenFOAM: The Open Source CFD Toolbox           |
|  \\    /   O peration     | Version:  2206                                  |
|   \\  /    A nd           | Website:  www.openfoam.com                      |
|    \\/     M anipulation  |                                                 |
\*---------------------------------------------------------------------------*/
FoamFile
{
    version     2.0;
    format      ascii;
    arch        "LSB;label=64;scalar=64";
    class       volScalarField;
    location    "1.3/water";
    object      alpha.gas;
}
// * * * * * * * * * * * * * * * * * * * * * * * * * * * * * * * * * * * * * //

dimensions      [0 0 0 0 0 0 0];

internalField   nonuniform List<scalar> 
23300
(
1e-15
1e-15
1e-15
1e-15
1e-15
1e-15
1e-15
1e-15
1e-15
1e-15
1e-15
1e-15
1e-15
1e-15
1e-15
1e-15
1e-15
1e-15
1e-15
1e-15
1e-15
1e-15
1e-15
1e-15
1e-15
1e-15
1e-15
1e-15
1e-15
1e-15
1e-15
1e-15
1e-15
1e-15
1e-15
1e-15
1e-15
1e-15
1e-15
1e-15
1e-15
1e-15
1e-15
1e-15
1e-15
1e-15
1e-15
1e-15
1e-15
1e-15
1e-15
1e-15
1e-15
1e-15
1e-15
1e-15
1e-15
1e-15
1e-15
1e-15
1e-15
1e-15
1e-15
1e-15
1e-15
1e-15
1e-15
1e-15
1e-15
1e-15
1e-15
1e-15
1e-15
1e-15
1e-15
1e-15
1e-15
1e-15
1e-15
1e-15
1e-15
1e-15
1e-15
1e-15
1e-15
1e-15
1e-15
1e-15
1e-15
1e-15
1e-15
1e-15
1e-15
1e-15
1e-15
1e-15
1e-15
1e-15
1e-15
1e-15
1e-15
1e-15
1e-15
1e-15
1e-15
1e-15
1e-15
1e-15
1e-15
1e-15
1e-15
1e-15
1e-15
1e-15
1e-15
1e-15
1e-15
1e-15
1e-15
1e-15
1e-15
1e-15
1e-15
1e-15
1e-15
1e-15
1e-15
1e-15
1e-15
1e-15
1e-15
1e-15
1e-15
1e-15
1e-15
1e-15
1e-15
1e-15
1e-15
1e-15
1e-15
1e-15
1e-15
1e-15
1e-15
1e-15
1e-15
1e-15
1e-15
1e-15
1e-15
1e-15
1e-15
1e-15
1e-15
1e-15
1e-15
1e-15
1e-15
1e-15
1e-15
1e-15
1e-15
1e-15
1e-15
1e-15
1e-15
1e-15
1e-15
1e-15
1e-15
1e-15
1e-15
1e-15
1e-15
1e-15
1e-15
1e-15
1e-15
1e-15
1e-15
1e-15
1e-15
1e-15
1e-15
1e-15
1e-15
1e-15
1e-15
1e-15
1e-15
1e-15
1e-15
1e-15
1e-15
1e-15
1e-15
1e-15
1e-15
1e-15
1e-15
1e-15
1e-15
1e-15
1e-15
1e-15
1e-15
1e-15
1e-15
1e-15
1e-15
1e-15
1e-15
1e-15
1e-15
1e-15
1e-15
1e-15
1e-15
1e-15
1e-15
1e-15
1e-15
1e-15
1e-15
1e-15
1e-15
1e-15
1e-15
1e-15
1e-15
1e-15
1e-15
1e-15
1e-15
1e-15
1e-15
1e-15
1e-15
1e-15
1e-15
1e-15
1e-15
1e-15
1e-15
1e-15
1e-15
1e-15
1e-15
1e-15
1e-15
1e-15
1e-15
1e-15
1e-15
1e-15
1e-15
1e-15
1e-15
1e-15
1e-15
1e-15
1e-15
1e-15
1e-15
1e-15
1e-15
1e-15
1e-15
1e-15
1e-15
1e-15
1e-15
1e-15
1e-15
1e-15
1e-15
1e-15
1e-15
1e-15
1e-15
1e-15
1e-15
1e-15
1e-15
1e-15
1e-15
1e-15
1e-15
1e-15
1e-15
1e-15
1e-15
1e-15
1e-15
1e-15
1e-15
1e-15
1e-15
1e-15
1e-15
1e-15
1e-15
1e-15
1e-15
1e-15
1e-15
1e-15
1e-15
1e-15
1e-15
1e-15
1e-15
1e-15
1e-15
1e-15
1e-15
1e-15
1e-15
1e-15
1e-15
1e-15
1e-15
1e-15
1e-15
1e-15
1e-15
1e-15
1e-15
1e-15
1e-15
1e-15
1e-15
1e-15
1e-15
1e-15
1e-15
1e-15
1e-15
1e-15
1e-15
1e-15
1e-15
1e-15
1e-15
1e-15
1e-15
1e-15
1e-15
1e-15
1e-15
1e-15
1e-15
1e-15
1e-15
1e-15
1e-15
1e-15
1e-15
1e-15
1e-15
1e-15
1e-15
1e-15
1e-15
1e-15
1e-15
1e-15
1e-15
1e-15
1e-15
1e-15
1e-15
1e-15
1e-15
1e-15
1e-15
1e-15
1e-15
1e-15
1e-15
1e-15
1e-15
1e-15
1e-15
1e-15
1e-15
1e-15
1e-15
1e-15
1e-15
1e-15
1e-15
1e-15
1e-15
1e-15
1e-15
1e-15
1e-15
1e-15
1e-15
1e-15
1e-15
1e-15
1e-15
1e-15
1e-15
1e-15
1e-15
1e-15
1e-15
1e-15
1e-15
1e-15
1e-15
1e-15
1e-15
1e-15
1e-15
1e-15
1e-15
1e-15
1e-15
1e-15
1e-15
1e-15
1e-15
1e-15
1e-15
1e-15
1e-15
1e-15
1e-15
1e-15
1e-15
1e-15
1e-15
1e-15
1e-15
1e-15
1e-15
1e-15
1e-15
1e-15
1e-15
1e-15
1e-15
1e-15
1e-15
1e-15
1e-15
1e-15
1e-15
1e-15
1e-15
1e-15
1e-15
1e-15
1e-15
1e-15
1e-15
1e-15
1e-15
1e-15
1e-15
1e-15
1e-15
1e-15
1e-15
1e-15
1e-15
1e-15
1e-15
1e-15
1e-15
1e-15
1e-15
1e-15
1e-15
1e-15
1e-15
1e-15
1e-15
1e-15
1e-15
1e-15
1e-15
1e-15
1e-15
1e-15
1e-15
1e-15
1e-15
1e-15
1e-15
1e-15
1e-15
1e-15
1e-15
1e-15
1e-15
1e-15
1e-15
1e-15
1e-15
1e-15
1e-15
1e-15
1e-15
1e-15
1e-15
1e-15
1e-15
1e-15
1e-15
1e-15
1e-15
1e-15
1e-15
1e-15
1e-15
1e-15
1e-15
1e-15
1e-15
1e-15
1e-15
1e-15
1e-15
1e-15
1e-15
1e-15
1e-15
1e-15
1e-15
1e-15
1e-15
1e-15
1e-15
1e-15
1e-15
1e-15
1e-15
1e-15
1e-15
1e-15
1e-15
1e-15
1e-15
1e-15
1e-15
1e-15
1e-15
1e-15
1e-15
1e-15
1e-15
1e-15
1e-15
1e-15
1e-15
1e-15
1e-15
1e-15
1e-15
1e-15
1e-15
1e-15
1e-15
1e-15
1e-15
1e-15
1e-15
1e-15
1e-15
1e-15
1e-15
1e-15
1e-15
1e-15
1e-15
1e-15
1e-15
1e-15
1e-15
1e-15
1e-15
1e-15
1e-15
1e-15
1e-15
1e-15
1e-15
1e-15
1e-15
1e-15
1e-15
1e-15
1e-15
1e-15
1e-15
1e-15
1e-15
1e-15
1e-15
1e-15
1e-15
1e-15
1e-15
1e-15
1e-15
1e-15
1e-15
1e-15
1e-15
1e-15
1e-15
1e-15
1e-15
1e-15
1e-15
1e-15
1e-15
1e-15
1e-15
1e-15
1e-15
1e-15
1e-15
1e-15
1e-15
1e-15
1e-15
1e-15
1e-15
1e-15
1e-15
1e-15
1e-15
1e-15
1e-15
1e-15
1e-15
1e-15
1e-15
1e-15
1e-15
1e-15
1e-15
1e-15
1e-15
1e-15
1e-15
1e-15
1e-15
1e-15
1e-15
1e-15
1e-15
1e-15
1e-15
1e-15
1e-15
1e-15
1e-15
1e-15
1e-15
1e-15
1e-15
1e-15
1e-15
1e-15
1e-15
1e-15
1e-15
1e-15
1e-15
1e-15
1e-15
1e-15
1e-15
1e-15
1e-15
1e-15
1e-15
1e-15
1e-15
1e-15
1e-15
1e-15
1.00457333685e-15
1.01015153588e-15
1.00947092225e-15
1.0104394888e-15
1.00947092225e-15
1.01049701187e-15
1.00947092225e-15
1e-15
1e-15
1.00655379337e-15
1e-15
1e-15
1e-15
1e-15
1e-15
1e-15
1e-15
1e-15
1e-15
1e-15
1e-15
1e-15
1e-15
1e-15
1e-15
1e-15
1e-15
1e-15
1e-15
1e-15
1e-15
1e-15
1e-15
1e-15
1e-15
1e-15
1e-15
1e-15
1e-15
1e-15
1e-15
1e-15
1e-15
1e-15
1e-15
1e-15
1e-15
1e-15
1e-15
1e-15
1e-15
1e-15
1e-15
1e-15
1e-15
1e-15
1e-15
1e-15
1e-15
1e-15
1e-15
1e-15
1e-15
1e-15
1e-15
1e-15
1e-15
1e-15
1e-15
1e-15
1e-15
1e-15
1e-15
1e-15
1e-15
1e-15
1e-15
1e-15
1e-15
1e-15
1e-15
1e-15
1e-15
1e-15
1e-15
1e-15
1e-15
1e-15
1e-15
1e-15
1e-15
1e-15
1e-15
1e-15
1e-15
1e-15
1e-15
1e-15
1e-15
1e-15
1e-15
1e-15
1e-15
1e-15
1e-15
1e-15
1e-15
1e-15
1e-15
1e-15
1e-15
1e-15
1e-15
1e-15
1e-15
1e-15
1e-15
1e-15
1e-15
1e-15
1e-15
1e-15
1e-15
1e-15
1e-15
1e-15
1e-15
1e-15
1e-15
1e-15
1e-15
1e-15
1e-15
1e-15
1e-15
1e-15
1e-15
1e-15
1e-15
1e-15
1.01004084227e-15
1.00947092225e-15
1.01048948571e-15
1.00947092225e-15
1.01067325459e-15
1.00947092225e-15
1.010095555e-15
1e-15
1e-15
1.00603908622e-15
1e-15
1e-15
1e-15
1e-15
1e-15
1e-15
1e-15
1e-15
1e-15
1e-15
1e-15
1e-15
1e-15
1e-15
1e-15
1e-15
1e-15
1e-15
1e-15
1e-15
1e-15
1e-15
1e-15
1e-15
1e-15
1e-15
1e-15
1e-15
1e-15
1e-15
1e-15
1e-15
1e-15
1e-15
1e-15
1e-15
1e-15
1e-15
1e-15
1e-15
1e-15
1e-15
1e-15
1e-15
1.00000486046e-15
1.00003665024e-15
1.00007994533e-15
1.00012755924e-15
1.0001737726e-15
1.00020519939e-15
1.00023144873e-15
1.00025296022e-15
1.00027630715e-15
1.0002846834e-15
1.00023391166e-15
1.00020115204e-15
1.00021637417e-15
1.00020708419e-15
1.00017720573e-15
1.00014089157e-15
1.00010364768e-15
1.00005651165e-15
1.00001600396e-15
1.00000253315e-15
1.00000037302e-15
1e-15
1e-15
1e-15
1e-15
1e-15
1e-15
1e-15
1e-15
1e-15
1e-15
1e-15
1e-15
1e-15
1e-15
1e-15
1e-15
1e-15
1e-15
1e-15
1e-15
1e-15
1e-15
1e-15
1e-15
1e-15
1e-15
1e-15
1e-15
1e-15
1e-15
1e-15
1e-15
1e-15
1e-15
1e-15
1e-15
1e-15
1e-15
1e-15
1e-15
1e-15
1e-15
1e-15
1.00008269424e-15
1.00021160351e-15
1.00025604701e-15
1.00025575318e-15
1.00022729978e-15
1.0002188911e-15
1.0002349531e-15
1.00023619719e-15
1.00023309952e-15
1.00023076313e-15
1.0002284518e-15
1.00022482633e-15
1.00022138715e-15
1.00021743804e-15
1.0002137077e-15
1.00020963777e-15
1.00020570156e-15
1.00020143697e-15
1.00019747642e-15
1.00019319978e-15
1.00018891917e-15
1.00025120314e-15
1.00947092225e-15
1.01032714603e-15
1.00947092225e-15
1.01059743822e-15
1.00947092225e-15
1.01061117936e-15
1.00947092225e-15
1.00018762829e-15
1.00000016265e-15
1.00667273219e-15
1e-15
1e-15
1e-15
1e-15
1e-15
1e-15
1e-15
1e-15
1e-15
1e-15
1e-15
1e-15
1e-15
1e-15
1e-15
1e-15
1e-15
1e-15
1e-15
1e-15
1e-15
1e-15
1e-15
1e-15
1e-15
1e-15
1e-15
1e-15
1e-15
1e-15
1e-15
1e-15
1e-15
1e-15
1e-15
1e-15
1e-15
1e-15
1e-15
1e-15
1e-15
1e-15
1e-15
1.00004145104e-15
1.00013742828e-15
1.00023354209e-15
1.00033817132e-15
1.00043868758e-15
1.00052986595e-15
1.00059331155e-15
1.00064443216e-15
1.00068057774e-15
1.00070605329e-15
1.00069649696e-15
1.00057466773e-15
1.00052568592e-15
1.00055042967e-15
1.00049965722e-15
1.00043514352e-15
1.00035678393e-15
1.00028353897e-15
1.00021194598e-15
1.00014285986e-15
1.0000446788e-15
1e-15
1e-15
1e-15
1e-15
1e-15
1e-15
1e-15
1e-15
1e-15
1e-15
1e-15
1e-15
1e-15
1e-15
1e-15
1e-15
1e-15
1e-15
1e-15
1e-15
1e-15
1e-15
1e-15
1e-15
1e-15
1e-15
1e-15
1e-15
1e-15
1e-15
1e-15
1e-15
1e-15
1e-15
1e-15
1e-15
1e-15
1e-15
1e-15
1e-15
1e-15
1e-15
1e-15
1e-15
1e-15
1e-15
1.00025150246e-15
1.00055298096e-15
1.00058235515e-15
1.00065643517e-15
1.00053918722e-15
1.00052300702e-15
1.00054495273e-15
1.00054449608e-15
1.00053577774e-15
1.00052925399e-15
1.00052322963e-15
1.0005158333e-15
1.00050920114e-15
1.00050177978e-15
1.00049490855e-15
1.00048750797e-15
1.00048055962e-15
1.00047320209e-15
1.00046569581e-15
1.00060051131e-15
1.01005393893e-15
1.00947092225e-15
1.01046559962e-15
1.00947092225e-15
1.01065952766e-15
1.00947092225e-15
1.01007570103e-15
1.00046355751e-15
1.00006289004e-15
1.00603908622e-15
1e-15
1e-15
1e-15
1e-15
1e-15
1e-15
1e-15
1e-15
1e-15
1e-15
1e-15
1e-15
1e-15
1e-15
1e-15
1e-15
1e-15
1e-15
1e-15
1e-15
1e-15
1e-15
1e-15
1e-15
1e-15
1e-15
1e-15
1e-15
1e-15
1e-15
1e-15
1e-15
1e-15
1e-15
1e-15
1e-15
1e-15
1e-15
1e-15
1e-15
1e-15
1e-15
1.0000764546e-15
1.00115276982e-15
1.00127391497e-15
1.00048376653e-15
1.00064955691e-15
1.00077321978e-15
1.00088010251e-15
1.00095250908e-15
1.0010051107e-15
1.00103236032e-15
1.00104604983e-15
1.00096158079e-15
1.00082821622e-15
1.00078260144e-15
1.00078984095e-15
1.00071086862e-15
1.00061331094e-15
1.00049824217e-15
1.00038334168e-15
1.00027500074e-15
1.00019069474e-15
1.00010601186e-15
1.00003396029e-15
1e-15
1e-15
1e-15
1e-15
1e-15
1e-15
1e-15
1e-15
1e-15
1e-15
1e-15
1e-15
1e-15
1e-15
1e-15
1e-15
1e-15
1e-15
1e-15
1e-15
1e-15
1e-15
1e-15
1e-15
1e-15
1e-15
1e-15
1e-15
1e-15
1e-15
1e-15
1e-15
1e-15
1e-15
1e-15
1e-15
1e-15
1e-15
1e-15
1e-15
1e-15
1e-15
1e-15
1e-15
1e-15
1e-15
1.00008811281e-15
1.00047330366e-15
1.00080955115e-15
1.00081949593e-15
1.00090172022e-15
1.00078301146e-15
1.00077081665e-15
1.00078490948e-15
1.0007776879e-15
1.00076814844e-15
1.00075926288e-15
1.00074929452e-15
1.00074026289e-15
1.00073106279e-15
1.00072117476e-15
1.00071160601e-15
1.00070147958e-15
1.00069076805e-15
1.00087577744e-15
1.00947092225e-15
1.01030131384e-15
1.00947092225e-15
1.01057470831e-15
1.00947092225e-15
1.01059232471e-15
1.00947092225e-15
1.00069230862e-15
1.00016597734e-15
1.00667342642e-15
1e-15
1e-15
1e-15
1e-15
1e-15
1e-15
1e-15
1e-15
1e-15
1e-15
1e-15
1e-15
1e-15
1e-15
1e-15
1e-15
1e-15
1e-15
1e-15
1e-15
1e-15
1e-15
1e-15
1e-15
1e-15
1e-15
1e-15
1e-15
1e-15
1e-15
1e-15
1e-15
1e-15
1e-15
1e-15
1e-15
1e-15
1e-15
1e-15
1e-15
1e-15
1.00016214745e-15
1.00282744485e-15
1.00306599272e-15
1.0032705638e-15
1.00275015011e-15
1.00114098934e-15
1.00105957693e-15
1.00115925932e-15
1.00122090073e-15
1.0012574281e-15
1.00126689035e-15
1.00123280961e-15
1.00108658033e-15
1.00097592103e-15
1.0009212978e-15
1.00086471053e-15
1.00074598875e-15
1.00063245829e-15
1.0005076431e-15
1.0003825873e-15
1.00026473697e-15
1.00017569629e-15
1.0000963728e-15
1.00002955065e-15
1e-15
1e-15
1e-15
1e-15
1e-15
1e-15
1e-15
1e-15
1e-15
1e-15
1e-15
1e-15
1e-15
1e-15
1e-15
1e-15
1e-15
1e-15
1e-15
1e-15
1e-15
1e-15
1e-15
1e-15
1e-15
1e-15
1e-15
1e-15
1e-15
1e-15
1e-15
1e-15
1e-15
1e-15
1e-15
1e-15
1e-15
1e-15
1e-15
1e-15
1e-15
1e-15
1e-15
1e-15
1e-15
1e-15
1e-15
1e-15
1.00039026601e-15
1.0007468726e-15
1.00106340978e-15
1.00106474053e-15
1.00120105536e-15
1.00103404649e-15
1.00102457384e-15
1.00102844037e-15
1.00101609589e-15
1.00100912692e-15
1.00099358084e-15
1.00098141228e-15
1.00096902846e-15
1.0009566821e-15
1.00094323637e-15
1.00092851508e-15
1.00114909311e-15
1.0100387536e-15
1.00947092225e-15
1.01044132573e-15
1.00947092225e-15
1.01063859949e-15
1.00947092225e-15
1.0100541906e-15
1.00093028971e-15
1.00020829245e-15
1.00603908622e-15
1e-15
1e-15
1e-15
1e-15
1e-15
1e-15
1e-15
1e-15
1e-15
1e-15
1e-15
1e-15
1e-15
1e-15
1e-15
1e-15
1e-15
1e-15
1e-15
1e-15
1e-15
1e-15
1e-15
1e-15
1e-15
1e-15
1e-15
1e-15
1e-15
1e-15
1e-15
1e-15
1e-15
1e-15
1e-15
1e-15
1e-15
1e-15
1e-15
1e-15
1.00015398079e-15
1.00278479885e-15
1.00306599272e-15
1.00328670578e-15
1.00306599272e-15
1.00328214355e-15
1.00306599272e-15
1.00130006387e-15
1.00139100873e-15
1.0014366889e-15
1.00145644605e-15
1.00143681727e-15
1.00134178901e-15
1.00116222275e-15
1.00104391781e-15
1.00095209418e-15
1.00085247062e-15
1.00072715874e-15
1.00060986836e-15
1.00048332418e-15
1.0003575853e-15
1.00023137897e-15
1.00013808204e-15
1.00006091475e-15
1.00000440363e-15
1e-15
1e-15
1e-15
1e-15
1e-15
1e-15
1e-15
1e-15
1e-15
1e-15
1e-15
1e-15
1e-15
1e-15
1e-15
1e-15
1e-15
1e-15
1e-15
1e-15
1e-15
1e-15
1e-15
1e-15
1e-15
1e-15
1e-15
1e-15
1e-15
1e-15
1e-15
1e-15
1e-15
1.00000047184e-15
1.00002958188e-15
1.00006795503e-15
1.0000924771e-15
1.0000922181e-15
1.00008963044e-15
1.00003055318e-15
1.00000878233e-15
1e-15
1e-15
1e-15
1e-15
1e-15
1e-15
1e-15
1.00014541941e-15
1.00034662381e-15
1.00071587979e-15
1.00118240219e-15
1.0014356666e-15
1.00143482911e-15
1.00152986208e-15
1.00137629783e-15
1.00137164828e-15
1.00134222366e-15
1.00134085589e-15
1.00132738232e-15
1.00131187134e-15
1.00129629192e-15
1.00127930587e-15
1.00126013036e-15
1.0015256455e-15
1.00947092225e-15
1.01027547686e-15
1.00947092225e-15
1.01055195225e-15
1.00947092225e-15
1.01057366587e-15
1.00947092225e-15
1.00125587364e-15
1.00024667309e-15
1.00667279643e-15
1e-15
1e-15
1e-15
1e-15
1e-15
1e-15
1e-15
1e-15
1e-15
1e-15
1e-15
1e-15
1e-15
1e-15
1e-15
1e-15
1e-15
1e-15
1e-15
1e-15
1e-15
1e-15
1e-15
1e-15
1e-15
1e-15
1e-15
1e-15
1e-15
1e-15
1e-15
1e-15
1e-15
1e-15
1e-15
1e-15
1e-15
1e-15
1e-15
1.00005486444e-15
1.00182186005e-15
1.00306599272e-15
1.00328161504e-15
1.00306599272e-15
1.00328214355e-15
1.00306599272e-15
1.00327156316e-15
1.00306551429e-15
1.0016303982e-15
1.00166971229e-15
1.00167812002e-15
1.00161490925e-15
1.0014528154e-15
1.00124090444e-15
1.00109379572e-15
1.00095385977e-15
1.00081405799e-15
1.00067470574e-15
1.00055135209e-15
1.00042150961e-15
1.00029729851e-15
1.00017754531e-15
1.00009173459e-15
1.00002202567e-15
1e-15
1e-15
1e-15
1e-15
1e-15
1e-15
1e-15
1e-15
1e-15
1e-15
1e-15
1e-15
1e-15
1e-15
1e-15
1e-15
1e-15
1e-15
1e-15
1e-15
1e-15
1e-15
1e-15
1e-15
1e-15
1e-15
1e-15
1e-15
1e-15
1e-15
1e-15
1e-15
1e-15
1e-15
1e-15
1.00002095536e-15
1.0000742155e-15
1.00012793843e-15
1.00018409824e-15
1.00022898004e-15
1.00020830649e-15
1.00021146845e-15
1.00019850844e-15
1.00018861207e-15
1.00017223653e-15
1.00003147535e-15
1.00000116301e-15
1e-15
1e-15
1e-15
1.00038608175e-15
1.00080059166e-15
1.00088805333e-15
1.00121870391e-15
1.00167143076e-15
1.00183492925e-15
1.00183352427e-15
1.00179049978e-15
1.0018038709e-15
1.00178164829e-15
1.00176784552e-15
1.00175013625e-15
1.00173220674e-15
1.00171186986e-15
1.00168903053e-15
1.00201302224e-15
1.01002362466e-15
1.00947092225e-15
1.0104173611e-15
1.00947092225e-15
1.01061849354e-15
1.00947092225e-15
1.01003280275e-15
1.00167825927e-15
1.00032735441e-15
1.00603908622e-15
1e-15
1e-15
1e-15
1e-15
1e-15
1e-15
1e-15
1e-15
1e-15
1e-15
1e-15
1e-15
1e-15
1e-15
1e-15
1e-15
1e-15
1e-15
1e-15
1e-15
1e-15
1e-15
1e-15
1e-15
1e-15
1e-15
1e-15
1e-15
1e-15
1e-15
1e-15
1e-15
1e-15
1e-15
1e-15
1e-15
1e-15
1e-15
1.00001070892e-15
1.00060947228e-15
1.00306599272e-15
1.00327254959e-15
1.00306599272e-15
1.00328066336e-15
1.00306599272e-15
1.00327269682e-15
1.00306599272e-15
1.00323913546e-15
1.0025867007e-15
1.00197325503e-15
1.00196963428e-15
1.00184586194e-15
1.00161533392e-15
1.00137295673e-15
1.0011850488e-15
1.00097772717e-15
1.0007720179e-15
1.00059923534e-15
1.00047038122e-15
1.00033903916e-15
1.00022188288e-15
1.00012129184e-15
1.0000474519e-15
1e-15
1e-15
1e-15
1e-15
1e-15
1e-15
1e-15
1e-15
1e-15
1e-15
1e-15
1e-15
1e-15
1e-15
1e-15
1e-15
1e-15
1e-15
1e-15
1e-15
1e-15
1e-15
1e-15
1e-15
1e-15
1e-15
1e-15
1e-15
1e-15
1e-15
1e-15
1e-15
1e-15
1e-15
1e-15
1e-15
1e-15
1.00004347671e-15
1.00010332387e-15
1.00017100211e-15
1.0002488221e-15
1.00032581526e-15
1.00037510323e-15
1.00038165294e-15
1.00040227465e-15
1.00039449428e-15
1.00030337831e-15
1.00029769511e-15
1.00016018948e-15
1.00016071347e-15
1.00019407661e-15
1.00041360958e-15
1.00063654616e-15
1.00096803272e-15
1.00132491842e-15
1.00136290301e-15
1.00172706175e-15
1.00212329382e-15
1.00228782997e-15
1.00244112912e-15
1.00225838736e-15
1.00217822119e-15
1.00216356728e-15
1.00214176842e-15
1.00212097838e-15
1.00209563578e-15
1.0024850319e-15
1.00947092225e-15
1.01025071278e-15
1.00947092225e-15
1.0105300671e-15
1.00947092225e-15
1.01055471512e-15
1.00947092225e-15
1.00209446597e-15
1.00051969613e-15
1.00667311751e-15
1e-15
1e-15
1e-15
1e-15
1e-15
1e-15
1e-15
1e-15
1e-15
1e-15
1e-15
1e-15
1e-15
1e-15
1e-15
1e-15
1e-15
1e-15
1e-15
1e-15
1e-15
1e-15
1e-15
1e-15
1e-15
1e-15
1e-15
1e-15
1e-15
1e-15
1e-15
1e-15
1e-15
1e-15
1e-15
1e-15
1e-15
1e-15
1.00028920302e-15
1.00240256541e-15
1.00325523936e-15
1.00306599272e-15
1.00327260399e-15
1.00306599272e-15
1.00327138445e-15
1.00306599272e-15
1.00325359486e-15
1.00306599272e-15
1.00318411335e-15
1.00236059145e-15
1.00233518809e-15
1.00215217665e-15
1.00187336886e-15
1.00160539836e-15
1.00135421441e-15
1.00102466322e-15
1.00073011443e-15
1.00052056309e-15
1.00038519278e-15
1.00025956714e-15
1.0001576788e-15
1.00007284651e-15
1.00001231781e-15
1e-15
1e-15
1e-15
1e-15
1e-15
1e-15
1e-15
1e-15
1e-15
1e-15
1e-15
1e-15
1e-15
1e-15
1e-15
1e-15
1e-15
1e-15
1e-15
1e-15
1e-15
1e-15
1e-15
1e-15
1e-15
1e-15
1e-15
1e-15
1e-15
1e-15
1e-15
1e-15
1e-15
1e-15
1e-15
1e-15
1e-15
1e-15
1.00004899123e-15
1.00012164158e-15
1.00021789186e-15
1.00031307618e-15
1.00040237491e-15
1.00045868753e-15
1.00051810186e-15
1.00054051753e-15
1.00053510852e-15
1.00055741891e-15
1.00044127562e-15
1.00047322475e-15
1.0004650414e-15
1.00061869952e-15
1.00079338963e-15
1.00103198421e-15
1.00118357389e-15
1.0014761812e-15
1.00169950862e-15
1.0018284607e-15
1.00220836487e-15
1.00247282164e-15
1.00247377732e-15
1.00247056124e-15
1.00243422578e-15
1.00242469584e-15
1.00239757244e-15
1.00236949996e-15
1.00280506367e-15
1.01000795692e-15
1.00947092225e-15
1.01039464026e-15
1.00947092225e-15
1.01059874452e-15
1.00947092225e-15
1.01001188369e-15
1.00239166285e-15
1.00079567397e-15
1.00603908622e-15
1e-15
1e-15
1e-15
1e-15
1e-15
1e-15
1e-15
1e-15
1e-15
1e-15
1e-15
1e-15
1e-15
1e-15
1e-15
1e-15
1e-15
1e-15
1e-15
1e-15
1e-15
1e-15
1e-15
1e-15
1e-15
1e-15
1e-15
1e-15
1e-15
1e-15
1e-15
1e-15
1e-15
1e-15
1e-15
1e-15
1e-15
1.00018233123e-15
1.00093817958e-15
1.00322769942e-15
1.00306599272e-15
1.00325351473e-15
1.00306599272e-15
1.00326144808e-15
1.00306599272e-15
1.00324512203e-15
1.00306599272e-15
1.00322776431e-15
1.00306599272e-15
1.0027751649e-15
1.00273057974e-15
1.00245348833e-15
1.00213198227e-15
1.00180157528e-15
1.00141573395e-15
1.00100755491e-15
1.00067294153e-15
1.00044132858e-15
1.00030548532e-15
1.00019327306e-15
1.00010853058e-15
1.0000333931e-15
1e-15
1e-15
1e-15
1e-15
1e-15
1e-15
1e-15
1e-15
1e-15
1e-15
1e-15
1e-15
1e-15
1e-15
1e-15
1e-15
1e-15
1e-15
1e-15
1e-15
1e-15
1e-15
1e-15
1e-15
1e-15
1e-15
1e-15
1e-15
1e-15
1e-15
1e-15
1e-15
1e-15
1e-15
1e-15
1e-15
1e-15
1e-15
1e-15
1e-15
1.00005288286e-15
1.00014510586e-15
1.00027271303e-15
1.00040909499e-15
1.00050024349e-15
1.00058619106e-15
1.00063026188e-15
1.00067001882e-15
1.00070816638e-15
1.00063534752e-15
1.00072624534e-15
1.00074151834e-15
1.00080556171e-15
1.00097821894e-15
1.00123388113e-15
1.00129319012e-15
1.00152807275e-15
1.00158702084e-15
1.00191260201e-15
1.00200415928e-15
1.00221497584e-15
1.002474733e-15
1.00264093537e-15
1.00267081804e-15
1.00258393198e-15
1.00256533271e-15
1.00253540303e-15
1.00299470931e-15
1.00947092225e-15
1.01022687872e-15
1.00947092225e-15
1.01050978888e-15
1.00947092225e-15
1.01053572963e-15
1.00947092225e-15
1.00257699259e-15
1.00091273039e-15
1.00667211974e-15
1e-15
1e-15
1e-15
1e-15
1e-15
1e-15
1e-15
1e-15
1e-15
1e-15
1e-15
1e-15
1e-15
1e-15
1e-15
1e-15
1e-15
1e-15
1e-15
1e-15
1e-15
1e-15
1e-15
1e-15
1e-15
1e-15
1e-15
1e-15
1e-15
1e-15
1e-15
1e-15
1e-15
1e-15
1e-15
1e-15
1.00014276909e-15
1.0004948195e-15
1.00222007696e-15
1.00306599272e-15
1.00323395289e-15
1.00306599272e-15
1.00324677938e-15
1.00306599272e-15
1.00324303683e-15
1.00306599272e-15
1.0032258933e-15
1.00306599272e-15
1.00317392975e-15
1.00306599272e-15
1.00286867466e-15
1.00252674022e-15
1.00217518329e-15
1.0018110452e-15
1.00137606003e-15
1.00092600645e-15
1.00057991477e-15
1.0003586648e-15
1.00023788372e-15
1.0001423791e-15
1.00006589589e-15
1.00000217691e-15
1e-15
1e-15
1e-15
1e-15
1e-15
1e-15
1e-15
1e-15
1e-15
1e-15
1e-15
1e-15
1e-15
1e-15
1e-15
1e-15
1e-15
1e-15
1e-15
1e-15
1e-15
1e-15
1e-15
1e-15
1e-15
1e-15
1e-15
1e-15
1e-15
1e-15
1e-15
1e-15
1e-15
1e-15
1e-15
1e-15
1e-15
1e-15
1e-15
1e-15
1e-15
1.00006124347e-15
1.00025004327e-15
1.00045942384e-15
1.00059079887e-15
1.00069567925e-15
1.00074521012e-15
1.00080443044e-15
1.00084186544e-15
1.0008052396e-15
1.0009360721e-15
1.00095344397e-15
1.00104041013e-15
1.00121701436e-15
1.00144037567e-15
1.00145621263e-15
1.00170450125e-15
1.00175021606e-15
1.00192872456e-15
1.00197646325e-15
1.00225065338e-15
1.0023547406e-15
1.00252892415e-15
1.00271648655e-15
1.00271807392e-15
1.00269711895e-15
1.00267159674e-15
1.00313632706e-15
1.00999293578e-15
1.00947092225e-15
1.01037331731e-15
1.00947092225e-15
1.01058005463e-15
1.00947092225e-15
1.00999095653e-15
1.00271797293e-15
1.00090981974e-15
1.00603908622e-15
1e-15
1e-15
1e-15
1e-15
1e-15
1e-15
1e-15
1e-15
1e-15
1e-15
1e-15
1e-15
1e-15
1e-15
1e-15
1e-15
1e-15
1e-15
1e-15
1e-15
1e-15
1e-15
1e-15
1e-15
1e-15
1e-15
1e-15
1e-15
1e-15
1e-15
1e-15
1e-15
1e-15
1e-15
1e-15
1.0000816858e-15
1.00040722297e-15
1.00108031133e-15
1.00306599272e-15
1.00321242522e-15
1.00306599272e-15
1.00322760782e-15
1.00306599272e-15
1.00323255679e-15
1.00306599272e-15
1.00322548397e-15
1.00306599272e-15
1.00319624629e-15
1.00306599272e-15
1.00308879946e-15
1.00285854499e-15
1.00250905964e-15
1.00214411386e-15
1.00174920085e-15
1.00123015062e-15
1.00075435496e-15
1.00045624913e-15
1.00028355219e-15
1.00018670791e-15
1.00010229335e-15
1.00003398478e-15
1e-15
1e-15
1e-15
1e-15
1e-15
1e-15
1e-15
1e-15
1e-15
1e-15
1e-15
1e-15
1e-15
1e-15
1e-15
1e-15
1e-15
1e-15
1e-15
1e-15
1e-15
1e-15
1e-15
1e-15
1e-15
1e-15
1e-15
1e-15
1e-15
1e-15
1e-15
1e-15
1e-15
1e-15
1e-15
1e-15
1e-15
1e-15
1e-15
1e-15
1e-15
1e-15
1e-15
1.00021144113e-15
1.00049511652e-15
1.00073061406e-15
1.0008991362e-15
1.0009696731e-15
1.00103302339e-15
1.00105882787e-15
1.00104334061e-15
1.00117895132e-15
1.00121252796e-15
1.00128528905e-15
1.00146519169e-15
1.00171391886e-15
1.00166969924e-15
1.00192107133e-15
1.00196886946e-15
1.00212113451e-15
1.00212563408e-15
1.00221503213e-15
1.00240115167e-15
1.00256633206e-15
1.00268880179e-15
1.00289018372e-15
1.00286722643e-15
1.00282519524e-15
1.00329325229e-15
1.00947092225e-15
1.01020482344e-15
1.00947092225e-15
1.01049073401e-15
1.00947092225e-15
1.01051687365e-15
1.00947092225e-15
1.00287006115e-15
1.00088725534e-15
1.00667207141e-15
1e-15
1e-15
1e-15
1e-15
1e-15
1e-15
1e-15
1e-15
1e-15
1e-15
1e-15
1e-15
1e-15
1e-15
1e-15
1e-15
1e-15
1e-15
1e-15
1e-15
1e-15
1e-15
1e-15
1e-15
1e-15
1e-15
1e-15
1e-15
1e-15
1e-15
1e-15
1e-15
1e-15
1e-15
1.00002523776e-15
1.00033618185e-15
1.00069140211e-15
1.00164600713e-15
1.00318947764e-15
1.00306599272e-15
1.00320693548e-15
1.00306599272e-15
1.00321567342e-15
1.00306599272e-15
1.00321607132e-15
1.00306599272e-15
1.00319141066e-15
1.00306599272e-15
1.00314683973e-15
1.00306599272e-15
1.00280289428e-15
1.00243507818e-15
1.0020240114e-15
1.00153510156e-15
1.0009794047e-15
1.00057498333e-15
1.00034755839e-15
1.0002288018e-15
1.00014941457e-15
1.00006855671e-15
1.00001032274e-15
1e-15
1e-15
1e-15
1e-15
1e-15
1e-15
1e-15
1e-15
1e-15
1e-15
1e-15
1e-15
1e-15
1e-15
1e-15
1e-15
1e-15
1e-15
1e-15
1e-15
1e-15
1e-15
1e-15
1e-15
1e-15
1e-15
1e-15
1e-15
1e-15
1e-15
1e-15
1e-15
1e-15
1e-15
1e-15
1e-15
1e-15
1e-15
1e-15
1e-15
1e-15
1e-15
1e-15
1.00009583853e-15
1.00044916668e-15
1.00072744552e-15
1.00097589748e-15
1.00118000925e-15
1.00133121528e-15
1.00139273894e-15
1.00141087723e-15
1.00150986439e-15
1.00153947107e-15
1.00154687478e-15
1.00173339311e-15
1.00196133088e-15
1.00196055466e-15
1.00219865663e-15
1.00222854064e-15
1.00233111458e-15
1.00240707679e-15
1.0024230034e-15
1.00248391326e-15
1.00261420884e-15
1.00283158587e-15
1.00295859458e-15
1.00299291121e-15
1.00304776252e-15
1.00348723223e-15
1.00997909227e-15
1.00947092225e-15
1.0103537062e-15
1.00947092225e-15
1.01056148239e-15
1.00947092225e-15
1.00997056794e-15
1.00305930682e-15
1.00084927317e-15
1.00603908622e-15
1e-15
1e-15
1e-15
1e-15
1e-15
1e-15
1e-15
1e-15
1e-15
1e-15
1e-15
1e-15
1e-15
1e-15
1e-15
1e-15
1e-15
1e-15
1e-15
1e-15
1e-15
1e-15
1e-15
1e-15
1e-15
1e-15
1e-15
1e-15
1e-15
1e-15
1e-15
1e-15
1e-15
1e-15
1.00027841071e-15
1.00059103388e-15
1.00102161828e-15
1.00246533513e-15
1.00306599272e-15
1.00318524597e-15
1.00306599272e-15
1.00319577172e-15
1.00306599272e-15
1.00319977769e-15
1.00306599272e-15
1.00319058613e-15
1.00306599272e-15
1.00316418367e-15
1.00306599272e-15
1.00307211818e-15
1.0026982846e-15
1.00228747815e-15
1.00179867158e-15
1.00123501943e-15
1.00074855006e-15
1.00045822395e-15
1.00028093582e-15
1.00019521383e-15
1.00012099682e-15
1.00004270893e-15
1e-15
1e-15
1e-15
1e-15
1e-15
1e-15
1e-15
1e-15
1e-15
1e-15
1e-15
1e-15
1e-15
1e-15
1e-15
1e-15
1e-15
1e-15
1e-15
1e-15
1e-15
1e-15
1e-15
1e-15
1e-15
1e-15
1e-15
1e-15
1e-15
1e-15
1e-15
1e-15
1e-15
1e-15
1e-15
1e-15
1e-15
1e-15
1e-15
1e-15
1e-15
1e-15
1e-15
1e-15
1e-15
1.00026607443e-15
1.00063929084e-15
1.0009303967e-15
1.00117332331e-15
1.00139301734e-15
1.00157988343e-15
1.00173179109e-15
1.00185069285e-15
1.00187429844e-15
1.0018202163e-15
1.00199014552e-15
1.00216543105e-15
1.00222917278e-15
1.00247017189e-15
1.00254656445e-15
1.00256789513e-15
1.00270124796e-15
1.00266986247e-15
1.00275354232e-15
1.00278610292e-15
1.00288271983e-15
1.00306450931e-15
1.0031581615e-15
1.00319733207e-15
1.00370759037e-15
1.00947092225e-15
1.01018484581e-15
1.00947092225e-15
1.01047236329e-15
1.00947092225e-15
1.0104975641e-15
1.00947092225e-15
1.00327292861e-15
1.00080273132e-15
1.00667205587e-15
1e-15
1e-15
1e-15
1e-15
1e-15
1e-15
1e-15
1e-15
1e-15
1e-15
1e-15
1e-15
1e-15
1e-15
1e-15
1e-15
1e-15
1e-15
1e-15
1e-15
1e-15
1e-15
1e-15
1e-15
1e-15
1e-15
1e-15
1e-15
1e-15
1e-15
1e-15
1e-15
1e-15
1.000178468e-15
1.00054963658e-15
1.00082669788e-15
1.00150831996e-15
1.00306599272e-15
1.00316363843e-15
1.00306599272e-15
1.00317798319e-15
1.00306599272e-15
1.00318082677e-15
1.00306599272e-15
1.00318024867e-15
1.00306599272e-15
1.00315379726e-15
1.00306599272e-15
1.00311554236e-15
1.00303463523e-15
1.00256501026e-15
1.00207366986e-15
1.0015049519e-15
1.0009601902e-15
1.00062113093e-15
1.00041403599e-15
1.00024780449e-15
1.00017363212e-15
1.00009987392e-15
1.0000277669e-15
1e-15
1e-15
1e-15
1e-15
1e-15
1e-15
1e-15
1e-15
1e-15
1e-15
1e-15
1e-15
1e-15
1e-15
1e-15
1e-15
1e-15
1e-15
1e-15
1e-15
1e-15
1e-15
1e-15
1e-15
1e-15
1e-15
1e-15
1e-15
1e-15
1e-15
1e-15
1e-15
1e-15
1e-15
1e-15
1e-15
1e-15
1e-15
1e-15
1e-15
1e-15
1e-15
1e-15
1e-15
1e-15
1.00000296064e-15
1.00037959194e-15
1.00077667789e-15
1.00108039127e-15
1.00134233607e-15
1.00155910063e-15
1.00175135718e-15
1.00192703546e-15
1.00205117582e-15
1.00209176454e-15
1.00220053075e-15
1.00230704836e-15
1.0024392953e-15
1.00268656173e-15
1.00281097151e-15
1.00283523134e-15
1.00296632992e-15
1.00289219059e-15
1.00302350532e-15
1.00304751942e-15
1.00304331667e-15
1.00313299932e-15
1.00327218025e-15
1.00337325339e-15
1.003838488e-15
1.00996612043e-15
1.00947092225e-15
1.01033596084e-15
1.00947092225e-15
1.01054224966e-15
1.00947092225e-15
1.00995169658e-15
1.00345666189e-15
1.00075067788e-15
1.00603908622e-15
1e-15
1e-15
1e-15
1e-15
1e-15
1e-15
1e-15
1e-15
1e-15
1e-15
1e-15
1e-15
1e-15
1e-15
1e-15
1e-15
1e-15
1e-15
1e-15
1e-15
1e-15
1e-15
1e-15
1e-15
1e-15
1e-15
1e-15
1e-15
1e-15
1e-15
1e-15
1e-15
1.00008378382e-15
1.00050378258e-15
1.00078312113e-15
1.00108646914e-15
1.00198848169e-15
1.00313988009e-15
1.00306599272e-15
1.00316015197e-15
1.00306599272e-15
1.00315894425e-15
1.00306599272e-15
1.00316108281e-15
1.00306599272e-15
1.0031535037e-15
1.00306599272e-15
1.00312800806e-15
1.00306599272e-15
1.00296147573e-15
1.00239550217e-15
1.00180022444e-15
1.00119820761e-15
1.00076287606e-15
1.00056352842e-15
1.00039695558e-15
1.00023250456e-15
1.00016019461e-15
1.00008736778e-15
1.00002106347e-15
1e-15
1e-15
1e-15
1e-15
1e-15
1e-15
1e-15
1e-15
1e-15
1e-15
1e-15
1e-15
1e-15
1e-15
1e-15
1e-15
1e-15
1e-15
1e-15
1e-15
1e-15
1e-15
1e-15
1e-15
1e-15
1e-15
1e-15
1e-15
1e-15
1e-15
1e-15
1e-15
1e-15
1e-15
1e-15
1e-15
1e-15
1e-15
1e-15
1e-15
1e-15
1e-15
1e-15
1e-15
1e-15
1e-15
1.00001316645e-15
1.000451557e-15
1.00087289857e-15
1.00119168858e-15
1.00145903722e-15
1.0016942202e-15
1.00189152483e-15
1.0020423306e-15
1.00219876643e-15
1.00232957315e-15
1.00240332138e-15
1.00260448093e-15
1.00284497243e-15
1.00300538542e-15
1.00304906424e-15
1.00319399688e-15
1.00313498151e-15
1.00325540474e-15
1.0032736129e-15
1.00323357361e-15
1.00329943635e-15
1.00341078597e-15
1.00349175036e-15
1.00399224366e-15
1.00947092225e-15
1.01016742464e-15
1.00947092225e-15
1.01045459825e-15
1.00947092225e-15
1.01047816642e-15
1.00947092225e-15
1.003568701e-15
1.00070742371e-15
1.00667049674e-15
1e-15
1e-15
1e-15
1e-15
1e-15
1e-15
1e-15
1e-15
1e-15
1e-15
1e-15
1e-15
1e-15
1e-15
1e-15
1e-15
1e-15
1e-15
1e-15
1e-15
1e-15
1e-15
1e-15
1e-15
1e-15
1e-15
1e-15
1e-15
1e-15
1e-15
1e-15
1e-15
1.00046769429e-15
1.00077516439e-15
1.00101115177e-15
1.00138881351e-15
1.00241282588e-15
1.00306599272e-15
1.00314888663e-15
1.00306599272e-15
1.00315485777e-15
1.00306599272e-15
1.00314050481e-15
1.00306599272e-15
1.00313998725e-15
1.00306599272e-15
1.0031200281e-15
1.00306599272e-15
1.00308633935e-15
1.00282333379e-15
1.0021592033e-15
1.00148093835e-15
1.00093331227e-15
1.0006535591e-15
1.00056169284e-15