/*--------------------------------*- C++ -*----------------------------------*\
| =========                 |                                                 |
| \\      /  F ield         | OpenFOAM: The Open Source CFD Toolbox           |
|  \\    /   O peration     | Version:  2206                                  |
|   \\  /    A nd           | Website:  www.openfoam.com                      |
|    \\/     M anipulation  |                                                 |
\*---------------------------------------------------------------------------*/
FoamFile
{
    version     2.0;
    format      ascii;
    arch        "LSB;label=64;scalar=64";
    class       volScalarField;
    location    "1.3/water";
    object      d.gas;
}
// * * * * * * * * * * * * * * * * * * * * * * * * * * * * * * * * * * * * * //

dimensions      [0 1 0 0 0 0 0];

internalField   nonuniform List<scalar> 
23300
(
0.00498774893921
0.00498774901235
0.00498774914735
0.00498774935133
0.00498774962126
0.00498774995589
0.00498775035212
0.00498775080914
0.00498775132399
0.00498775189659
0.00498775252443
0.00498775320784
0.00498775394516
0.00498775473728
0.00498775558104
0.00498775647386
0.0049877574102
0.00498775839013
0.00498775941171
0.0049877604749
0.0049877615772
0.00498776271859
0.00498776389619
0.00498776510995
0.00498776635691
0.0049877676369
0.00498776894676
0.0049877702861
0.00498777165142
0.00498777304202
0.00498777445397
0.00498777588622
0.00498777733437
0.00498777879693
0.00498778026906
0.00498778174882
0.00498778323095
0.00498778471308
0.00498778618959
0.00498778765776
0.0049877891117
0.00498779054848
0.00498779196209
0.00498779334952
0.00498779470487
0.00498779602525
0.00498779730514
0.004987798542
0.00498779973084
0.00498780086968
0.00498780195437
0.00498780298382
0.004987803955
0.00498780486787
0.00498780572056
0.00498780651404
0.00498780724752
0.0049878079227
0.0049878085421
0.00498780911379
0.00498780964233
0.00498781013262
0.00498781058832
0.00498781101552
0.00498781141893
0.0049878118054
0.00498781218032
0.00498781255093
0.00498781292286
0.00498781330332
0.00498781369777
0.00498781411297
0.00498781455379
0.00498781502618
0.00498781553407
0.00498781608223
0.00498781667337
0.00498781731086
0.00498781799597
0.00498781873055
0.00498781951434
0.00498782034761
0.00498782122863
0.0049878221562
0.00498782312725
0.00498782413934
0.00498782518835
0.00498782627089
0.00498782738212
0.00498782851808
0.00498782967359
0.00498783084446
0.00498783202554
0.00498783321283
0.00498783440146
0.00498783558466
0.00498783675917
0.00498783792437
0.00498783907341
0.00498784020254
0.00498784130982
0.00498784239405
0.0049878434532
0.00498784448638
0.00498784549217
0.00498784646995
0.00498784741856
0.00498784833754
0.00498784922592
0.00498785008345
0.00498785090947
0.00498785170397
0.00498785246653
0.00498785319735
0.00498785389628
0.00498785456368
0.00498785519954
0.00498785580425
0.00498785637788
0.00498785692088
0.00498785743337
0.00498785791585
0.00498785836848
0.00498785879176
0.00498785918589
0.00498785955136
0.0049878598884
0.00498786019747
0.00498786047886
0.00498786073303
0.00498786096033
0.00498786116126
0.00498786133627
0.00498786148592
0.00498786161078
0.00498786171145
0.00498786178835
0.00498786184136
0.00498786186845
0.00498786187146
0.00498788208058
0.00498788215284
0.00498788229099
0.00498788249805
0.00498788277143
0.0049878831096
0.0049878835102
0.00498788397172
0.00498788449239
0.00498788507192
0.0049878857077
0.00498788639864
0.00498788714238
0.00498788793747
0.00498788877957
0.00498788966597
0.00498789059443
0.0049878915658
0.00498789257919
0.00498789363416
0.0049878947287
0.00498789586221
0.00498789703267
0.00498789823946
0.00498789948042
0.00498790075483
0.0049879020603
0.00498790339584
0.00498790475875
0.00498790614772
0.00498790755965
0.00498790899281
0.00498791044365
0.00498791190998
0.00498791338778
0.00498791487437
0.00498791636523
0.00498791785722
0.00498791934541
0.00498792082624
0.00498792229444
0.0049879237462
0.00498792517607
0.00498792658011
0.00498792795289
0.00498792929064
0.00498793058828
0.00498793184244
0.00498793304854
0.00498793420372
0.00498793530424
0.00498793634825
0.00498793733328
0.00498793825873
0.00498793912335
0.00498793992767
0.00498794067183
0.00498794135808
0.0049879419914
0.00498794257863
0.00498794312283
0.00498794362829
0.00498794409899
0.00498794454038
0.00498794495741
0.00498794535632
0.00498794574267
0.00498794612308
0.0049879465034
0.00498794689026
0.00498794728935
0.00498794770695
0.00498794814822
0.00498794861869
0.00498794912266
0.00498794966463
0.00498795024778
0.00498795087533
0.00498795154911
0.00498795227095
0.00498795304122
0.00498795386027
0.00498795472701
0.00498795564033
0.00498795659779
0.00498795759693
0.00498795863412
0.00498795970585
0.00498796080757
0.00498796193504
0.00498796308318
0.00498796424737
0.00498796542238
0.00498796660352
0.00498796778551
0.00498796896359
0.0049879701349
0.00498797129842
0.00498797244875
0.00498797358213
0.00498797469685
0.0049879757891
0.00498797685553
0.00498797789524
0.00498797890685
0.0049879798895
0.00498798084212
0.00498798176413
0.00498798265483
0.00498798351397
0.00498798434111
0.00498798513623
0.00498798589913
0.00498798662989
0.00498798732842
0.00498798799516
0.0049879886303
0.00498798923416
0.0049879898069
0.00498799034891
0.0049879908604
0.0049879913418
0.00498799179337
0.00498799221553
0.00498799260854
0.00498799297281
0.00498799330863
0.00498799361637
0.00498799389631
0.00498799414883
0.00498799437423
0.00498799457289
0.00498799474518
0.00498799489158
0.00498799501263
0.00498799510905
0.00498799518188
0.00498799523154
0.00498799525617
0.00498799526136
0.00498801504549
0.00498801511724
0.00498801526135
0.00498801547567
0.00498801575748
0.00498801610476
0.00498801651562
0.00498801698982
0.00498801752436
0.00498801811698
0.00498801876533
0.00498801946811
0.00498802022281
0.00498802102795
0.00498802188026
0.00498802277764
0.00498802371758
0.00498802469974
0.00498802572294
0.00498802678707
0.00498802789069
0.00498802903343
0.00498803021368
0.00498803143093
0.00498803268336
0.00498803397026
0.0049880352895
0.00498803664008
0.00498803801951
0.00498803942639
0.00498804085777
0.00498804231178
0.00498804378497
0.00498804527495
0.00498804677773
0.00498804829034
0.00498804980828
0.00498805132807
0.00498805284472
0.00498805435428
0.00498805585141
0.00498805733192
0.00498805879028
0.00498806022212
0.00498806162181
0.00498806298513
0.00498806430694
0.00498806558351
0.00498806681007
0.00498806798319
0.00498806909893
0.00498807015548
0.00498807115137
0.00498807208734
0.00498807296358
0.00498807378127
0.00498807454096
0.0049880752477
0.00498807590559
0.00498807651487
0.00498807707727
0.0049880775985
0.00498807808353
0.00498807853829
0.00498807896809
0.00498807937908
0.00498807977674
0.00498808016722
0.00498808055594
0.00498808094885
0.00498808135111
0.00498808176832
0.00498808220518
0.00498808266673
0.00498808315703
0.00498808368036
0.00498808423996
0.00498808483917
0.00498808548025
0.00498808616547
0.00498808689598
0.00498808767287
0.0049880884961
0.00498808936549
0.00498809027974
0.00498809123739
0.00498809223584
0.00498809327238
0.0049880943432
0.00498809544443
0.00498809657129
0.00498809771906
0.00498809888234
0.00498810005601
0.00498810123459
0.00498810241328
0.00498810358757
0.00498810475358
0.00498810590652
0.00498810704335
0.00498810816186
0.00498810925758
0.00498811032777
0.00498811137252
0.00498811238967
0.00498811337784
0.0049881143357
0.00498811526251
0.00498811615746
0.00498811702024
0.00498811785044
0.00498811864804
0.00498811941292
0.00498812014529
0.00498812084518
0.00498812151274
0.00498812214809
0.00498812275173
0.00498812332391
0.00498812386507
0.00498812437549
0.00498812485561
0.00498812530576
0.00498812572635
0.00498812611772
0.00498812648026
0.00498812681429
0.00498812712018
0.00498812739824
0.0049881276488
0.00498812787217
0.00498812806868
0.00498812823868
0.00498812838259
0.00498812850096
0.0049881285946
0.00498812866477
0.00498812871204
0.00498812873554
0.00498812874245
0.00498814783422
0.00498814790551
0.00498814805509
0.00498814827556
0.00498814856511
0.00498814892292
0.00498814934633
0.00498814983315
0.00498815038088
0.00498815098794
0.0049881516517
0.00498815237062
0.00498815314201
0.00498815396425
0.00498815483457
0.00498815575143
0.0049881567126
0.00498815771736
0.0049881587642
0.00498815985285
0.00498816098192
0.00498816215115
0.00498816335908
0.00498816460532
0.0049881658882
0.00498816720711
0.00498816856003
0.004988169946
0.00498817136258
0.00498817280833
0.00498817428031
0.00498817577652
0.00498817729342
0.00498817882843
0.00498818037739
0.00498818193706
0.00498818350266
0.00498818507038
0.00498818663485
0.00498818819163
0.00498818973482
0.00498819125969
0.00498819276015
0.00498819423108
0.00498819566597
0.00498819705987
0.00498819840779
0.00498819970723
0.00498820095525
0.00498820215005
0.00498820328898
0.00498820437093
0.00498820539413
0.00498820635794
0.00498820726149
0.004988208106
0.0049882088947
0.00498820963488
0.00498821032753
0.00498821097275
0.00498821157414
0.00498821213614
0.0049882126626
0.00498821315832
0.00498821362764
0.00498821407582
0.00498821450761
0.00498821492852
0.00498821534343
0.0049882157578
0.00498821617637
0.0049882166043
0.00498821704596
0.00498821750601
0.00498821798822
0.00498821849658
0.00498821903411
0.00498821960395
0.00498822020829
0.00498822084937
0.00498822152845
0.00498822224688
0.00498822300508
0.00498822380352
0.00498822464186
0.00498822551981
0.00498822643629
0.00498822739031
0.00498822837999
0.00498822940349
0.00498823045798
0.00498823154054
0.00498823264718
0.00498823377374
0.00498823491512
0.00498823606622
0.00498823722138
0.00498823837523
0.00498823952207
0.00498824065699
0.00498824177529
0.00498824287116
0.00498824394104
0.00498824498561
0.0049882460033
0.00498824699228
0.00498824795098
0.00498824887849
0.00498824977394
0.00498825063694
0.00498825146708
0.00498825226433
0.00498825302855
0.00498825375995
0.00498825445859
0.0049882551248
0.00498825575871
0.00498825636064
0.00498825693089
0.00498825746996
0.00498825797818
0.00498825845602
0.00498825890383
0.00498825932206
0.00498825971105
0.00498826007122
0.0049882604029
0.00498826070648
0.00498826098227
0.00498826123061
0.00498826145182
0.00498826164625
0.00498826181425
0.00498826195628
0.00498826207292
0.00498826216506
0.004988262234
0.00498826228034
0.00498826230379
0.0049882623116
0.00498828044584
0.00498828051749
0.00498828067327
0.00498828090109
0.00498828119888
0.00498828156586
0.00498828200008
0.0049882825
0.00498828306299
0.00498828368745
0.00498828437069
0.00498828511108
0.00498828590593
0.00498828675368
0.00498828765176
0.00498828859886
0.00498828959285
0.00498829063295
0.00498829171751
0.00498829284615
0.00498829401743
0.00498829523107
0.00498829648561
0.00498829778068
0.00498829911462
0.00498830048679
0.00498830189516
0.00498830333866
0.00498830481473
0.00498830632175
0.00498830785654
0.00498830941679
0.00498831099857
0.00498831259883
0.00498831421283
0.0049883158367
0.00498831746483
0.00498831909258
0.00498832071362
0.00498832232239
0.00498832391171
0.00498832547607
0.00498832700977
0.00498832850928
0.00498832997027
0.00498833139006
0.00498833276534
0.00498833409393
0.00498833537222
0.00498833659823
0.00498833777011
0.0049883388877
0.00498833994962
0.00498834095489
0.00498834190192
0.00498834279125
0.00498834362818
0.00498834441604
0.00498834515301
0.00498834584212
0.00498834648616
0.0049883470891
0.00498834765455
0.0049883481871
0.00498834869097
0.0049883491712
0.00498834963239
0.0049883500798
0.00498835051813
0.00498835095259
0.00498835138774
0.0049883518285
0.00498835227904
0.00498835274378
0.00498835322632
0.0049883537304
0.00498835425885
0.00498835481459
0.00498835539962
0.00498835601593
0.0049883566646
0.00498835734671
0.00498835806243
0.00498835881197
0.00498835959467
0.00498836040999
0.00498836125665
0.00498836213355
0.00498836303909
0.00498836397202
0.00498836493078
0.00498836591427
0.00498836692105
0.00498836794994
0.004988368999
0.00498837006616
0.00498837114831
0.00498837224186
0.00498837334194
0.00498837444322
0.00498837553952
0.00498837662131
0.00498837768258
0.00498837872267
0.00498837973773
0.00498838072501
0.00498838168241
0.00498838260866
0.00498838350272
0.0049883843641
0.00498838519235
0.00498838598742
0.00498838674921
0.00498838747791
0.00498838817363
0.00498838883673
0.00498838946743
0.00498839006613
0.00498839063307
0.00498839116877
0.0049883916736
0.00498839214805
0.0049883925925
0.0049883930074
0.00498839339314
0.00498839375013
0.00498839407872
0.00498839437931
0.00498839465222
0.00498839489782
0.00498839511643
0.00498839530843
0.00498839547422
0.00498839561431
0.00498839572934
0.00498839582029
0.00498839588853
0.00498839593447
0.00498839595803
0.00498839596628
0.00498841289688
0.00498841297009
0.00498841313208
0.00498841336745
0.0049884136745
0.00498841405249
0.00498841449955
0.0049884150146
0.0049884155953
0.00498841624028
0.00498841694701
0.00498841771398
0.00498841853866
0.00498841941958
0.00498842035434
0.00498842134174
0.00498842237971
0.00498842346742
0.00498842460317
0.00498842578644
0.00498842701568
0.00498842829049
0.00498842960929
0.00498843097155
0.00498843237542
0.00498843382002
0.00498843530304
0.00498843682304
0.00498843837703
0.00498843996285
0.00498844157668
0.00498844321547
0.00498844487439
0.00498844654939
0.00498844823461
0.00498844992486
0.00498845161307
0.00498845329339
0.00498845495926
0.00498845660632
0.00498845822985
0.00498845982752
0.00498846139627
0.00498846293373
0.00498846443581
0.0049884658999
0.0049884673225
0.00498846870068
0.00498847002994
0.00498847130732
0.00498847252983
0.0049884736961
0.0049884748041
0.00498847585292
0.00498847684122
0.0049884777724
0.00498847864939
0.0049884794728
0.00498848024373
0.00498848096535
0.0049884816405
0.00498848227307
0.00498848286663
0.00498848342565
0.00498848395425
0.0049884844573
0.00498848493927
0.00498848540524
0.00498848585977
0.00498848630791
0.00498848675409
0.00498848720308
0.00498848765895
0.004988488126
0.00498848860775
0.00498848910784
0.00498848962906
0.00498849017426
0.00498849074541
0.00498849134445
0.00498849197247
0.00498849263048
0.00498849331865
0.00498849403711
0.00498849478517
0.00498849556215
0.00498849636664
0.00498849719731
0.00498849805224
0.00498849892965
0.00498849982731
0.00498850074325
0.00498850167513
0.0049885026212
0.00498850357972
0.00498850455002
0.0049885055317
0.00498850652495
0.00498850752913
0.00498850854303
0.00498850956452
0.00498851058618
0.00498851160289
0.00498851261143
0.00498851360584
0.00498851458096
0.00498851553131
0.00498851645298
0.00498851734347
0.00498851820158
0.00498851902651
0.00498851981807
0.00498852057608
0.00498852130076
0.00498852199224
0.00498852265092
0.00498852327706
0.00498852387112
0.0049885244334
0.00498852496445
0.00498852546464
0.00498852593452
0.00498852637448
0.00498852678501
0.00498852716648
0.00498852751937
0.00498852784401
0.00498852814083
0.00498852841015
0.00498852865238
0.00498852886785
0.00498852905697
0.00498852922017
0.00498852935801
0.00498852947122
0.00498852956092
0.00498852962845
0.00498852967393
0.00498852969732
0.00498852970561
0.00498854522084
0.00498854529697
0.00498854546618
0.00498854571011
0.00498854602746
0.00498854641783
0.00498854687964
0.0049885474121
0.00498854801326
0.00498854868205
0.00498854941622
0.00498855021452
0.00498855107463
0.00498855199527
0.00498855297421
0.00498855401033
0.00498855510159
0.00498855624714
0.00498855744516
0.00498855869497
0.00498855999484
0.00498856134412
0.00498856274091
0.00498856418435
0.00498856567215
0.00498856720294
0.0049885687738
0.00498857038259
0.00498857202547
0.00498857369933
0.00498857539918
0.00498857712071
0.00498857885759
0.00498858060421
0.00498858235345
0.00498858409998
0.00498858583822
0.00498858756555
0.00498858927935
0.00498859097822
0.00498859265878
0.00498859431828
0.0049885959521
0.00498859755598
0.00498859912426
0.00498860065283
0.00498860213691
0.00498860357286
0.00498860495629
0.00498860628434
0.00498860755398
0.00498860876376
0.00498860991192
0.00498861099805
0.00498861202145
0.00498861298663
0.0049886138956
0.00498861474836
0.00498861554699
0.00498861629459
0.00498861699404
0.00498861764915
0.00498861826348
0.00498861884141
0.00498861938702
0.00498861990508
0.00498862039998
0.00498862087669
0.00498862133972
0.004988621794
0.00498862224391
0.00498862269414
0.00498862314874
0.00498862361194
0.00498862408726
0.0049886245783
0.00498862508791
0.00498862561893
0.00498862617338
0.00498862675328
0.00498862735977
0.00498862799398
0.00498862865619
0.00498862934662
0.00498863006473
0.00498863080995
0.00498863158096
0.00498863237651
0.00498863319465
0.00498863403356
0.00498863489083
0.00498863576422
0.00498863665107
0.00498863754907
0.00498863845565
0.00498863936871
0.00498864028596
0.00498864120566
0.00498864212644
0.00498864304862
0.00498864397352
0.00498864490256
0.00498864583385
0.00498864676293
0.00498864769079
0.00498864861419
0.00498864952843
0.00498865042767
0.00498865130494
0.00498865215456
0.00498865297301
0.0049886537588
0.00498865451121
0.00498865523022
0.00498865591589
0.00498865656864
0.00498865718873
0.00498865777666
0.00498865833283
0.00498865885782
0.00498865935205
0.00498865981608
0.00498866025034
0.00498866065536
0.00498866103152
0.00498866137931
0.0049886616991
0.00498866199132
0.00498866225633
0.00498866249453
0.00498866270628
0.00498866289201
0.0049886630522
0.00498866318745
0.00498866329858
0.00498866338683
0.00498866345347
0.00498866349822
0.00498866352114
0.00498866352922
0.0049886774538
0.00498867753348
0.0049886777102
0.00498867796353
0.00498867829248
0.0049886786969
0.00498867917549
0.00498867972786
0.00498868035234
0.0049886810482
0.00498868181354
0.0049886826474
0.0049886835477
0.00498868451339
0.00498868554237
0.00498868663362
0.00498868778513
0.00498868899597
0.00498869026418
0.00498869158889
0.00498869296806
0.00498869440069
0.00498869588446
0.00498869741794
0.00498869899822
0.00498870062314
0.00498870228886
0.00498870399217
0.00498870572793
0.00498870749154
0.00498870927642
0.00498871107681
0.0049887128858
0.00498871469886
0.00498871651204
0.00498871832427
0.00498872013353
0.00498872193842
0.00498872373507
0.00498872551956
0.00498872728608
0.00498872902988
0.00498873074493
0.00498873242612
0.0049887340673
0.00498873566382
0.00498873721055
0.00498873870386
0.00498874013977
0.00498874151584
0.00498874282946
0.00498874407951
0.00498874526464
0.00498874638483
0.00498874744009
0.00498874843457
0.00498874937049
0.00498875024792
0.00498875106909
0.0049887518371
0.00498875255487
0.00498875322618
0.0049887538546
0.00498875444447
0.00498875499988
0.00498875552553
0.00498875602583
0.00498875650569
0.0049887569696
0.00498875742245
0.00498875786864
0.00498875831283
0.00498875875909
0.00498875921164
0.00498875967405
0.00498876014994
0.00498876064222
0.00498876115377
0.00498876168673
0.00498876224316
0.00498876282434
0.00498876343149
0.00498876406504
0.00498876472533
0.00498876541199
0.00498876612458
0.00498876686197
0.00498876762304
0.00498876840603
0.00498876920925
0.00498877003046
0.00498877086753
0.00498877171788
0.00498877257913
0.0049887734485
0.00498877432347
0.00498877520119
0.00498877607923
0.0049887769551
0.00498877782693
0.00498877869265
0.00498877955059
0.00498878039942
0.00498878124578
0.00498878209064
0.00498878293217
0.00498878377102
0.00498878460248
0.00498878542823
0.00498878624413
0.00498878704229
0.00498878781528
0.00498878855804
0.00498878926858
0.00498878994622
0.00498879059107
0.00498879120329
0.00498879178337
0.00498879233179
0.00498879284917
0.00498879333597
0.00498879379278
0.00498879422005
0.00498879461833
0.00498879498804
0.0049887953297
0.00498879564367
0.00498879593043
0.00498879619034
0.00498879642381
0.00498879663122
0.00498879681305
0.00498879696978
0.00498879710207
0.00498879721083
0.0049887972974
0.00498879736288
0.00498879740661
0.0049887974288
0.00498879743653
0.00498880962629
0.00498880970981
0.0049888098942
0.00498881015763
0.00498881049926
0.00498881091924
0.00498881141653
0.00498881199101
0.00498881264137
0.00498881336718
0.00498881416686
0.00498881503971
0.00498881598392
0.00498881699863
0.00498881808188
0.00498881923273
0.00498882044914
0.0049888217301
0.00498882307351
0.00498882447822
0.00498882594187
0.00498882746303
0.00498882903881
0.00498883066711
0.00498883234415
0.00498883406675
0.0049888358298
0.00498883762863
0.00498883945659
0.00498884130793
0.00498884317606
0.00498884505719
0.00498884694823
0.00498884884867
0.00498885075673
0.00498885267063
0.00498885458578
0.00498885649783
0.00498885840064
0.00498886028861
0.00498886215455
0.00498886399233
0.00498886579496
0.00498886755692
0.00498886927221
0.00498887093644
0.00498887254492
0.00498887409448
0.00498887558169
0.00498887700453
0.00498887836083
0.00498887964973
0.00498888087018
0.00498888202235
0.00498888310765
0.00498888412896
0.00498888508787
0.00498888598574
0.0049888868248
0.00498888760815
0.00498888833875
0.00498888902039
0.00498888965668
0.00498889025195
0.00498889081033
0.00498889133654
0.004988891835
0.00498889231063
0.00498889276799
0.00498889321196
0.00498889364701
0.00498889407781
0.0049888945085
0.00498889494336
0.00498889538603
0.0049888958402
0.00498889630888
0.00498889679503
0.00498889730091
0.00498889782866
0.00498889837973
0.00498889895542
0.00498889955632
0.00498890018291
0.00498890083498
0.00498890151222
0.00498890221368
0.00498890293838
0.00498890368472
0.00498890445115
0.00498890523559
0.00498890603604
0.00498890685005
0.00498890767534
0.00498890850924
0.00498890934929
0.00498891019271
0.00498891103702
0.00498891187945
0.00498891271755
0.00498891354855
0.00498891437011
0.00498891518011
0.00498891597694
0.00498891675652
0.00498891752755
0.00498891829018
0.00498891904812
0.00498891980264
0.00498892054579
0.00498892128182
0.00498892201134
0.00498892272733
0.00498892342108
0.0049889240861
0.00498892471985
0.00498892532166
0.00498892589177
0.00498892643057
0.00498892693861
0.00498892741636
0.00498892786443
0.00498892828329
0.00498892867352
0.00498892903558
0.00498892936997
0.00498892967712
0.00498892995748
0.00498893021145
0.00498893043946
0.0049889306419
0.00498893081925
0.00498893097204
0.00498893110098
0.00498893120706
0.0049889312917
0.00498893135574
0.00498893139814
0.00498893141939
0.00498893142665
0.00498894176126
0.00498894184864
0.00498894204061
0.00498894231443
0.00498894266949
0.00498894310609
0.00498894362345
0.00498894422172
0.00498894489987
0.00498894565776
0.00498894649408
0.00498894740839
0.00498894839911
0.00498894946552
0.00498895060579
0.00498895181901
0.00498895310312
0.00498895445704
0.00498895587846
0.00498895736601
0.00498895891695
0.00498896052937
0.00498896219976
0.00498896392522
0.00498896570093
0.0049889675225
0.00498896938355
0.00498897127851
0.004988973201
0.00498897514738
0.00498897711475
0.0049889791028
0.00498898110971
0.00498898313341
0.00498898516901
0.0049889872117
0.0049889892545
0.00498899129081
0.00498899331246
0.00498899531236
0.00498899728263
0.00498899921693
0.00498900110848
0.00498900295208
0.00498900474223
0.00498900647497
0.00498900814608
0.00498900975279
0.00498901129208
0.00498901276226
0.00498901416146
0.00498901548904
0.00498901674423
0.00498901792736
0.0049890190406
0.00498902008606
0.00498902106507
0.00498902197993
0.00498902283289
0.00498902362707
0.00498902436552
0.00498902505206
0.00498902569037
0.00498902628484
0.00498902683966
0.0049890273596
0.00498902784918
0.00498902831336
0.00498902875679
0.00498902918443
0.00498902960084
0.00498903001077
0.00498903041848
0.00498903082833
0.00498903124409
0.00498903166956
0.00498903210787
0.0049890325621
0.00498903303466
0.00498903352781
0.00498903404315
0.00498903458211
0.00498903514545
0.00498903573378
0.00498903634705
0.00498903698509
0.00498903764711
0.00498903833226
0.0049890390391
0.00498903976621
0.00498904051165
0.00498904127354
0.00498904204956
0.00498904283752
0.00498904363484
0.00498904443915
0.00498904524776
0.0049890460582
0.00498904686777
0.00498904767403
0.00498904847432
0.00498904926629
0.00498905004735
0.00498905081504
0.00498905156752
0.00498905230333
0.00498905301782
0.00498905371778
0.00498905440339
0.00498905508251
0.00498905575672
0.00498905641744
0.00498905706736
0.00498905771141
0.00498905834513
0.00498905895902
0.00498905954568
0.00498906010274
0.00498906062951
0.00498906112616
0.00498906159303
0.00498906203068
0.0049890624396
0.00498906282036
0.00498906317343
0.00498906349937
0.00498906379859
0.00498906407158
0.00498906431873
0.00498906454049
0.00498906473726
0.00498906490955
0.0049890650579
0.00498906518307
0.00498906528614
0.00498906536855
0.00498906543081
0.00498906547158
0.00498906549169
0.00498906549842
0.00498907387274
0.00498907396379
0.00498907416299
0.00498907444719
0.00498907481591
0.00498907526964
0.00498907580782
0.00498907643083
0.0049890771379
0.00498907792916
0.00498907880354
0.00498907976082
0.00498908079959
0.00498908191928
0.00498908311815
0.00498908439531
0.0049890857487
0.00498908717712
0.00498908867814
0.00498909025016
0.0049890918901
0.0049890935956
0.00498909536252
0.00498909718715
0.00498909906381
0.00498910098747
0.00498910295198
0.00498910495356
0.0049891069891
0.00498910905822
0.00498911115908
0.0049891132895
0.00498911544424
0.00498911761783
0.0049891198024
0.00498912199032
0.00498912417235
0.00498912634037
0.00498912848553
0.00498913060051
0.0049891326776
0.00498913471074
0.00498913669356
0.00498913862127
0.0049891404888
0.00498914229255
0.0049891440287
0.00498914569473
0.00498914728797
0.00498914880696
0.0049891502501
0.00498915161693
0.00498915290691
0.00498915412057
0.00498915525988
0.00498915632707
0.00498915732389
0.00498915825276
0.00498915911604
0.00498915991693
0.00498916065858
0.00498916134487
0.00498916197961
0.00498916256726
0.00498916311214
0.00498916361909
0.00498916409278
0.00498916453826
0.00498916496032
0.00498916536405
0.00498916575413
0.00498916613546
0.00498916651245
0.00498916688959
0.00498916727084
0.00498916766011
0.00498916806072
0.0049891684759
0.00498916890822
0.00498916936012
0.00498916983335
0.00498917032951
0.0049891708495
0.00498917139411
0.00498917196344
0.00498917255746
0.00498917317554
0.00498917381695
0.00498917448043
0.00498917516464
0.0049891758678
0.00498917658811
0.00498917732338
0.0049891780715
0.00498917882999
0.00498917959653
0.00498918036851
0.00498918114351
0.00498918191889
0.00498918269222
0.00498918346089
0.00498918422256
0.00498918497469
0.00498918571513
0.00498918644156
0.00498918715177
0.00498918784408
0.00498918851656
0.0049891891675
0.00498918979964
0.00498919041346
0.00498919101782
0.00498919161491
0.00498919219821
0.00498919276721
0.0049891933294
0.0049891938834
0.00498919441929
0.00498919492973
0.00498919541208
0.00498919586579
0.00498919629108
0.00498919668832
0.00498919705804
0.00498919740072
0.0049891977169
0.00498919800703
0.00498919827158
0.00498919851097
0.00498919872565
0.00498919891603
0.00498919908262
0.00498919922599
0.00498919934695
0.00498919944667
0.00498919952652
0.00498919958664
0.00498919962545
0.00498919964424
0.00498919965038
0.00498920596621
0.00498920606061
0.0049892062665
0.00498920656072
0.00498920694292
0.00498920741376
0.00498920797289
0.00498920862094
0.00498920935736
0.00498921018254
0.00498921109562
0.0049892120966
0.00498921318421
0.00498921435801
0.00498921561634
0.00498921695836
0.00498921838199
0.00498921988603
0.00498922146797
0.00498922312609
0.00498922485713
0.00498922665845
0.00498922852554
0.00498923045443
0.00498923243969
0.00498923447761
0.00498923656478
0.00498923870058
0.00498924088328
0.00498924311079
0.00498924537759
0.00498924767758
0.00498925000193
0.00498925234188
0.00498925468696
0.00498925702786
0.00498925935449
0.00498926165838
0.00498926393072
0.00498926616438
0.004989268352
0.00498927048783
0.00498927256587
0.00498927458163
0.0049892765304
0.00498927840882
0.00498928021336
0.00498928194174
0.00498928359151
0.00498928516141
0.00498928665005
0.00498928805714
0.00498928938233
0.0049892906263
0.00498929179067
0.00498929287796
0.00498929389041
0.00498929483053
0.00498929570078
0.00498929650445
0.00498929724481
0.00498929792586
0.00498929855152
0.0049892991264
0.00498929965494
0.00498930014214
0.00498930059282
0.00498930101221
0.00498930140525
0.00498930177719
0.00498930213293
0.00498930247753
0.00498930281561
0.00498930315185
0.00498930349039
0.00498930383537
0.00498930419029
0.00498930455858
0.00498930494302
0.00498930534622
0.00498930577013
0.00498930621653
0.00498930668653
0.00498930718104
0.00498930770036
0.00498930824461
0.00498930881331
0.00498930940587
0.00498931002115
0.00498931065796
0.00498931131461
0.00498931198942
0.00498931268028
0.00498931338515
0.00498931410166
0.00498931482753
0.0049893155602
0.00498931629731
0.00498931703623
0.00498931777457
0.00498931850976
0.00498931923945
0.00498931996118
0.00498932067272
0.00498932137175
0.00498932205633
0.00498932272438
0.00498932337418
0.00498932400427
0.00498932461206
0.00498932519984
0.00498932576588
0.00498932631087
0.00498932684371
0.00498932736763
0.00498932787794
0.00498932837089
0.0049893288574
0.00498932933658
0.004989329798
0.00498933023485
0.00498933064518
0.00498933102866
0.00498933138558
0.0049893317163
0.00498933202133
0.0049893323011
0.00498933255609
0.00498933278672
0.00498933299343
0.00498933317664
0.00498933333687
0.0049893334747
0.00498933359099
0.00498933368696
0.00498933376387
0.00498933382144
0.00498933385796
0.00498933387525
0.00498933388074
0.00498933803971
0.00498933813709
0.00498933834903
0.00498933865268
0.00498933904783
0.00498933953535
0.00498934011512
0.00498934078797
0.00498934155366
0.00498934241278
0.00498934336472
0.00498934440966
0.0049893455465
0.00498934677493
0.00498934809337
0.00498934950108
0.00498935099609
0.0049893525773
0.00498935424235
0.00498935598968
0.00498935781624
0.00498935971963
0.00498936169586
0.00498936374208
0.004989365855
0.00498936803388
0.00498937027726
0.00498937258357
0.00498937494743
0.00498937736225
0.00498937981826
0.00498938230552
0.00498938481213
0.00498938732731
0.00498938983946
0.00498939233871
0.00498939481485
0.00498939725948
0.00498939966399
0.0049894020215
0.00498940432491
0.00498940656872