/*--------------------------------*- C++ -*----------------------------------*\
| =========                 |                                                 |
| \\      /  F ield         | OpenFOAM: The Open Source CFD Toolbox           |
|  \\    /   O peration     | Version:  2206                                  |
|   \\  /    A nd           | Website:  www.openfoam.com                      |
|    \\/     M anipulation  |                                                 |
\*---------------------------------------------------------------------------*/
FoamFile
{
    version     2.0;
    format      ascii;
    arch        "LSB;label=64;scalar=64";
    class       volScalarField;
    location    "1.3/water";
    object      epsilonm;
}
// * * * * * * * * * * * * * * * * * * * * * * * * * * * * * * * * * * * * * //

dimensions      [0 2 -3 0 0 0 0];

internalField   nonuniform List<scalar> 
23300
(
3.1569032376e-06
4.77200744874e-06
7.42745858195e-06
1.07142198399e-05
1.43084961793e-05
1.79625987252e-05
2.14799834131e-05
2.47080413015e-05
2.75530946341e-05
3.00049911607e-05
3.21419812737e-05
3.41639371613e-05
3.65051158584e-05
3.99421231655e-05
4.56531039113e-05
5.54882308653e-05
7.14067083463e-05
9.41494512417e-05
0.000123257509353
0.000158668802075
0.000200669080331
0.000249599025467
0.000305750747639
0.000369315316132
0.000440382810334
0.00051891887869
0.000604784535479
0.00069771634217
0.00079735796477
0.000903238700822
0.00101481371007
0.0011314379378
0.00125241321604
0.00137695633495
0.00150425214108
0.00163341581923
0.00176355153978
0.00189370977668
0.00202295096952
0.00215029891157
0.0022748085511
0.0023955165835
0.00251151206812
0.00262188467747
0.00272579590223
0.00282242548456
0.00291104178973
0.00299094671415
0.00306154166402
0.00312226871917
0.0031726691585
0.00321232138056
0.00324089048269
0.00325805922689
0.00326355689553
0.00325706195975
0.0032381688548
0.00320620553781
0.00316017970242
0.00310159081072
0.00303340850284
0.00295680396834
0.00287270586468
0.00278199812474
0.00268558765441
0.00258436998488
0.00247924671566
0.00237108587811
0.00226073671529
0.00214899669924
0.00203662719055
0.00192432732508
0.00181275036917
0.00170248338286
0.00159406357497
0.00148796254419
0.00138460198281
0.00128434148352
0.0011874931426
0.00109431218079
0.00100501021153
0.000919748155829
0.000838648114426
0.000761788212581
0.000689213132109
0.000620930613123
0.000556920772882
0.00049713408092
0.000441499717715
0.000389925138243
0.000342304427392
0.000298521546686
0.000258466127017
0.000222069723587
0.000189486630489
0.000161797436062
0.000140958353728
0.000126748618441
0.00011637942875
0.000108624661696
0.000103482397887
0.000100625008955
9.92922964459e-05
9.90784045602e-05
9.95720455169e-05
0.000100418518467
0.000101359282728
0.000102131608528
0.000102535885353
0.000102500495977
0.00010205416973
0.000101253172092
0.000100134291489
9.87214249182e-05
9.70125376417e-05
9.49818748448e-05
9.26113254632e-05
8.98988796026e-05
8.6862368164e-05
8.35299883225e-05
7.99225247412e-05
7.60770678014e-05
7.20531529795e-05
6.79076588772e-05
6.3682062749e-05
5.94116663503e-05
5.51242923806e-05
5.08338103523e-05
4.65384866691e-05
4.22339269093e-05
3.79253840188e-05
3.36237832848e-05
2.93267679201e-05
2.50217308828e-05
2.06978782218e-05
1.63624031491e-05
1.21008966607e-05
8.22528614925e-06
5.46925009357e-06
5.43489149743e-06
2.38839853977e-06
3.20199247406e-06
4.61989015902e-06
6.5339691789e-06
8.90992928994e-06
1.17449028255e-05
1.50489851662e-05
1.88439557033e-05
2.31832132007e-05
2.81389932102e-05
3.38397001931e-05
4.04775512047e-05
4.83187742863e-05
5.77695719851e-05
6.93524820658e-05
8.35212515653e-05
0.000100575155602
0.000120642584205
0.000143787817426
0.000170099187372
0.000199648931906
0.000232449116211
0.000268436351418
0.000307462291561
0.000349296724476
0.000393627507272
0.000440071736122
0.000488180674183
0.000537455936253
0.000587356523577
0.000637317331572
0.000686755919252
0.000735091231641
0.00078174850568
0.000826176765996
0.000867850981447
0.000906287488076
0.000941043164625
0.000971728357659
0.000998003140532
0.00101958782762
0.00103625740394
0.00104785024463
0.00105426091458
0.00105544697517
0.00105142215485
0.00104226400052
0.00102810832477
0.0010091549532
0.000985661319866
0.000957948569724
0.000926399384684
0.000891466623768
0.000853673709881
0.000813626085228
0.000772025826294
0.00072971224477
0.00068771082515
0.000647255960327
0.000608989409367
0.000572272094974
0.00053731327927
0.000504270394554
0.000473213096492
0.000444143916347
0.000417012785348
0.000391732349234
0.00036818862122
0.000346253301255
0.000325791792138
0.000306671892188
0.000288768299502
0.000271967449587
0.000256168802697
0.000241286584512
0.000227248758064
0.000213996674957
0.000201482678498
0.000189668601835
0.000178522853462
0.000168018594745
0.000158131063652
0.000148836148275
0.000140108550313
0.000131921241471
0.000124244753013
0.000117047599057
0.000110296526579
0.000103957543043
9.79966014862e-05
9.2380665067e-05
8.70783050188e-05
8.206046521e-05
7.73009916622e-05
7.2778284913e-05
6.84819775523e-05
6.44297772595e-05
6.06502641934e-05
5.71018870487e-05
5.37716075663e-05
5.0702951386e-05
4.79234430317e-05
4.53758164294e-05
4.30438131912e-05
4.08808733107e-05
3.88600532342e-05
3.69533612152e-05
3.51134887533e-05
3.33114798108e-05
3.15448561988e-05
2.98167552735e-05
2.8130921271e-05
2.64870416338e-05
2.48902364676e-05
2.33514424104e-05
2.18578839082e-05
2.03858493237e-05
1.89402925502e-05
1.75340099269e-05
1.61637978823e-05
1.4829948027e-05
1.35395635166e-05
1.23002838954e-05
1.11201901742e-05
1.00033492309e-05
8.95360130274e-06
7.97484344686e-06
7.0699058071e-06
6.23954386744e-06
5.4845411741e-06
4.80750833419e-06
4.20889230587e-06
3.68754957368e-06
3.23984305356e-06
2.86213449524e-06
2.54884878243e-06
2.32285399959e-06
2.38983498608e-06
4.1833965656e-06
2.13402212504e-05
1.84650446625e-06
2.50807769866e-06
3.60242866956e-06
5.10791499175e-06
7.0691758986e-06
9.55409828991e-06
1.26456831726e-05
1.64340781692e-05
2.10075810951e-05
2.64625452483e-05
3.29138486111e-05
4.04888515908e-05
4.9326540683e-05
5.95769530624e-05
7.13896024916e-05
8.48869333492e-05
0.000100150903732
0.000117217820983
0.000136077882513
0.00015667080179
0.000178880343692
0.000202528183295
0.000227375313723
0.000253123311717
0.000279422716222
0.00030587953823
0.000332068464992
0.000357542297084
0.000381847480346
0.000404534012527
0.000425170942264
0.000443354782238
0.000458723263033
0.00047096111673
0.00047981116426
0.000485077080732
0.000486631568399
0.00048441637831
0.000478447542862
0.000468812480231
0.000455672056726
0.000439255414679
0.000419858847196
0.000397836645065
0.000373594813875
0.000347579211544
0.000320267456321
0.000292155396516
0.000263745487484
0.00023553310378
0.000208000372215
0.000181615932095
0.000156848006343
0.00013418046005
0.000114110632942
9.71199199484e-05
8.3654562227e-05
7.4124055781e-05
6.8860277753e-05
6.63960852354e-05
6.55885420565e-05
6.61285243005e-05
6.77178536232e-05
7.00565724203e-05
7.28546817269e-05
7.58416870189e-05
7.8773571847e-05
8.14366757676e-05
8.36500091337e-05
8.52658576466e-05
8.61700681445e-05
8.62814973578e-05
8.55516347686e-05
8.3963601882e-05
8.15313061692e-05
7.8297857961e-05
7.43338904433e-05
6.97349081232e-05
6.46182077738e-05
5.91186020179e-05
5.3383452922e-05
4.75664700778e-05
4.18208645416e-05
3.62916974768e-05
3.11082483816e-05
2.63767271593e-05
2.21743904233e-05
1.85456697435e-05
1.55011993504e-05
1.30199663959e-05
1.10545610111e-05
9.53871438066e-06
8.39600500969e-06
7.54829630777e-06
6.92272451019e-06
6.45643652042e-06
6.09887063634e-06
5.81182460031e-06
5.56816689085e-06
5.34962502684e-06
5.14423509075e-06
4.94463263733e-06
4.74684214128e-06
4.54810687632e-06
4.34868121101e-06
4.14835471276e-06
3.94715368838e-06
3.74591679304e-06
3.54526273752e-06
3.3462991283e-06
3.14988795298e-06
2.9561947763e-06
2.76611702876e-06
2.580557978e-06
2.40110407533e-06
2.23454623708e-06
2.08505160278e-06
1.94620809143e-06
1.81469188552e-06
1.69151779247e-06
1.58014875645e-06
1.47640783111e-06
1.37946577518e-06
1.29079366601e-06
1.20981850779e-06
1.13579163407e-06
1.06890313246e-06
1.00983865168e-06
9.58291630742e-07
9.14031827521e-07
8.77368409787e-07
8.4946274872e-07
8.3214802252e-07
8.28526099152e-07
8.46072024977e-07
9.05866940593e-07
1.09322209966e-06
1.84462875383e-06
6.30355006277e-06
4.74395951511e-05
1.79410078429e-06
2.41099703022e-06
3.36475414686e-06
4.65511322113e-06
6.34184945244e-06
8.50529197297e-06
1.12358281208e-05
1.4628175237e-05
1.87812079903e-05
2.37926038187e-05
2.97550311764e-05
3.67510371899e-05
4.48486652642e-05
5.409638643e-05
6.45185592161e-05
7.61080194514e-05
8.88201123079e-05
0.000102566972866
0.000117215472056
0.000132585273887
0.00014845105374
0.000164544778074
0.000180562970395
0.000196173671852
0.0002110282824
0.000224771828709
0.000237057405364
0.000247557497926
0.000255978573437
0.000262071113984
0.000265642028128
0.000266561366447
0.00026477060965
0.000260284530752
0.000253193929343
0.000243661611644
0.000231918867059
0.000218255743437
0.000203011735988
0.000186561006628
0.000169298894325
0.000151625850349
0.000133934042243
0.000116593111778
9.99414382252e-05
8.42838717695e-05
6.99021277578e-05
5.70733663357e-05
4.60838500259e-05
3.7224016736e-05
3.07811986055e-05
2.7045218249e-05
2.63130913022e-05
2.88546778991e-05
3.48504563342e-05
4.43659333527e-05
5.73441938036e-05
7.32619454647e-05
9.07140772852e-05
0.000109017351663
0.000127680517257
0.000146276157836
0.000164419977986
0.000181769813806
0.000198024638323
0.000212921603412
0.000226233721846
0.000237766939733
0.000247358799133
0.000254876752117
0.000260218132441
0.000263309602401
0.000264108088544
0.00026260099439
0.000258807713478
0.000252780285785
0.000244605160266
0.000234403997489
0.000222335312832
0.00020859498265
0.000193417118484
0.000177073372916
0.000159871732697
0.000142152842474
0.000124284377884
0.000106651572263
8.96441305867e-05
7.36382985664e-05
5.8975077298e-05
4.59354664196e-05
3.47161544881e-05
2.54097571598e-05
1.79950781389e-05
1.23416075299e-05
8.22994473803e-06
5.38517051371e-06
3.51595577521e-06
2.35009650589e-06
1.65895694631e-06
1.26789211284e-06
1.0546160656e-06
9.40144434255e-07
8.77413842566e-07
8.40446250532e-07
8.15769138962e-07
7.96988980863e-07
7.81186626833e-07
7.67155184288e-07
7.54381001058e-07
7.42607763823e-07
7.31717399595e-07
7.21653905459e-07
7.12338033035e-07
7.03712012189e-07
6.95727149058e-07
6.88368163841e-07
6.82010589013e-07
6.7680548367e-07
6.72501983408e-07
6.68442668293e-07
6.64565123625e-07
6.60826423819e-07
6.5734431485e-07
6.54000989764e-07
6.50694135455e-07
6.47433072925e-07
6.44284481361e-07
6.41320555458e-07
6.38616315076e-07
6.3641420723e-07
6.35277409115e-07
6.36351537888e-07
6.42154817885e-07
6.5814965102e-07
6.9712740309e-07
7.96206528236e-07
1.11028433277e-06
2.388309227e-06
1.01670648572e-05
8.22902751767e-05
1.91181826228e-06
2.50488622537e-06
3.38148202078e-06
4.54565430006e-06
6.05081553364e-06
7.96321010048e-06
1.03569570906e-05
1.33101859042e-05
1.6900567864e-05
2.11994544497e-05
2.62659859353e-05
3.21406555492e-05
3.88400277534e-05
4.63516997106e-05
5.46310720408e-05
6.3598053967e-05
7.31358560583e-05
8.30903585443e-05
9.32728085463e-05
0.000103463309559
0.000113417904024
0.000122875954681
0.000131570943655
0.000139240640073
0.000145639935322
0.000150551622719
0.000153798650533
0.000155252752087
0.000154843251432
0.000152560934144
0.000148461054266
0.000142660735257
0.000135335092837
0.000126708114736
0.000117042760234
0.000106627164843
9.57615035641e-05
8.47436906473e-05
7.38581332343e-05
6.33668385928e-05
5.35087727084e-05
4.4510530589e-05
3.66123803082e-05
3.00999519201e-05
2.5327073859e-05
2.27290751297e-05
2.28321561101e-05
2.62228177394e-05
3.34441780836e-05
4.48839069456e-05
6.07201662349e-05
8.09074884229e-05
0.0001051901026
0.000133149812867
0.000164275054035
0.000198008822559
0.000233760523077
0.000269520163827
0.000304857143228
0.000339345073191
0.000372623720403
0.000404377149273
0.000434322976023
0.000462205483913
0.000487793038409
0.000510875156405
0.000531262552623
0.000548785985571
0.000563297621516
0.00057467074778
0.00058280175308
0.000587610224538
0.000589041154852
0.000587065163964
0.000581680709045
0.000572914299994
0.000560822601317
0.000545492623893
0.000527043735169
0.000505627957522
0.00048143207836
0.000454678381638
0.000425627255293
0.00039457885213
0.000361876651955
0.000327910345758
0.000293120125352
0.00025799957256
0.000223097704211
0.000189016226875
0.000156400065822
0.000125915557905
9.82127702705e-05
7.38684890755e-05
5.33134711377e-05
3.67562264659e-05
2.41272951345e-05
1.50713814132e-05
9.00380544176e-06
5.22146310988e-06
3.03154533001e-06
1.85087595817e-06
1.25782298823e-06
9.7713512944e-07
8.48870255933e-07
7.8876909323e-07
7.57918880315e-07
7.39285047217e-07
7.25829245856e-07
7.14828811797e-07
7.05295619079e-07
6.96803686654e-07
6.89161130628e-07
6.82254552567e-07
6.76007024408e-07
6.70358732927e-07
6.65247626735e-07
6.60624992246e-07
6.56441310038e-07
6.52651426619e-07
6.49208708363e-07
6.46071629701e-07
6.43205093657e-07
6.40576167052e-07
6.38157642781e-07
6.35936155869e-07
6.33918587178e-07
6.32169568582e-07
6.30851519191e-07
6.30337218055e-07
6.31433260859e-07
6.3585753241e-07
6.47282088153e-07
6.73655820226e-07
7.34252206044e-07
8.88956782585e-07
1.39378943978e-06
3.38775495682e-06
1.5431359996e-05
0.000124878723742
2.06347938761e-06
2.6297597362e-06
3.44057051259e-06
4.49734518974e-06
5.84163445059e-06
7.52184489924e-06
9.58946537905e-06
1.2095748575e-05
1.50875196649e-05
1.86018296719e-05
2.26607075782e-05
2.72657842064e-05
3.23942003756e-05
3.7995257431e-05
4.39891806689e-05
5.02668377452e-05
5.66919293433e-05
6.31042270541e-05
6.93255768477e-05
7.51666080224e-05
8.04358491285e-05
8.49486134889e-05
8.85374272892e-05
9.10609105265e-05
9.24129911727e-05
9.25291490278e-05
9.13917898119e-05
8.9031583718e-05
8.55272010206e-05
8.10007691223e-05
7.5611860115e-05
6.95480611572e-05
6.30152440141e-05
5.62265705363e-05
4.93938564755e-05
4.27219390162e-05
3.64117149915e-05
3.06765889288e-05
2.57786111381e-05
2.20791010904e-05
2.00895670244e-05
2.0507527188e-05
2.42038406196e-05
3.21024316777e-05
4.49835811677e-05
6.33267005886e-05
8.72450433911e-05
0.000116509771127
0.000150645723605
0.000189045193107
0.000231054697302
0.000276029796716
0.000323370746396
0.000372537445939
0.000423040706132
0.000474404095058
0.000525350003638
0.000575026535108
0.000623132891194
0.000669363233744
0.000713430042465
0.000755063208906
0.000794010668769
0.000830036375356
0.000862921379684
0.000892462357315
0.000918473455232
0.000940785517009
0.0009592485802
0.000973731589675
0.000984125241123
0.000990341905615
0.000992318528273
0.000990016540057
0.000983424589404
0.000972558289034
0.000957462629335
0.000938211478566
0.000914909598372
0.000887691889216
0.000856725005248
0.000822206415794
0.000784365703118
0.000743463607443
0.00069979321921
0.000653679360211
0.000605480185467
0.000555587742782
0.000504431266708
0.000452480820443
0.000400254785624
0.000348329329582
0.000297351893982
0.000248054898499
0.000201266034297
0.000157903272211
0.000118938429984
8.5306347728e-05
5.77451341641e-05
3.65865515761e-05
2.15792961083e-05
1.18516117058e-05
6.15895623687e-06
3.17720124871e-06
1.76744616565e-06
1.1473218495e-06
8.91445199489e-07
7.88984534493e-07
7.45752954371e-07
7.24330715263e-07
7.10878518146e-07
7.00622495369e-07
6.91952507274e-07
6.84318440041e-07
6.7749969767e-07
6.71372810179e-07
6.65854821026e-07
6.60881227695e-07
6.56399917326e-07
6.5236459029e-07
6.48728831414e-07
6.45453718239e-07
6.42505914427e-07
6.39858997922e-07
6.37500124611e-07
6.35436602043e-07
6.33711954503e-07
6.32454890727e-07
6.31942028821e-07
6.32759871307e-07
6.36125838673e-07
6.44571171175e-07
6.63456344842e-07
7.04409596944e-07
7.96524202003e-07
1.03584466194e-06
1.8202956063e-06
4.73605700362e-06
2.19943048541e-05
0.000174750566423
2.20718904677e-06
2.73812928176e-06
3.47866291144e-06
4.4253249005e-06
5.60675387285e-06
7.0536366826e-06
8.79576004523e-06
1.08592294589e-05
1.32630602158e-05
1.60151142382e-05
1.91084426643e-05
2.25178981217e-05
2.61981415988e-05
3.00825887565e-05
3.40843432657e-05
3.80982273473e-05
4.20049120593e-05
4.56758807034e-05
4.89801962922e-05
5.1791357833e-05
5.39951616753e-05
5.54965218574e-05
5.62262272148e-05
5.61454867208e-05
5.52494435865e-05
5.35676940323e-05
5.11633249562e-05
4.81289657724e-05
4.45817880969e-05
4.06566932909e-05
3.65003249764e-05
3.22667065618e-05
2.81192511764e-05
2.42440227831e-05
2.08832566273e-05
1.83938757464e-05
1.73252738144e-05
1.84910288873e-05
2.29789986676e-05
3.20182083777e-05
4.67151308932e-05
6.78035281462e-05
9.55313855075e-05
0.000129708676198
0.000169851549294
0.000215324067335
0.000265434360861
0.000319487222151
0.000376811957008
0.000436774020313
0.000498781247936
0.000562285286041
0.000626785530662
0.000691827560849
0.000756996084212
0.00082189632989
0.000885033612523
0.000946109561408
0.00100482387612
0.00106089205387
0.00111404721107
0.00116403567036
0.00121061747698
0.00125356415305
0.00129266092499
0.00132770547331
0.00135851087852
0.00138490490785
0.00140673339275
0.00142385983951
0.00143616898939
0.00144356653271
0.00144598260671
0.00144337141656
0.00143571446472
0.0014230199305
0.00140532547743
0.00138269730124
0.00135523242367
0.00132305738563
0.00128633000767
0.0012452377805
0.00119999915341
0.00115086175814
0.00109810337726
0.00104203022951
0.000982977868399
0.000921309845512
0.000857418859696
0.000791726131995
0.000724683091901
0.000656771772357
0.00058850758083
0.000520442127987
0.000453170410963
0.000387342484286
0.000323684779224
0.000263031049627
0.000206361003278
0.000154829236511
0.000109744071126
7.24173614165e-05
4.37483531832e-05
2.37869468706e-05
1.18497156298e-05
5.51741950908e-06
2.58712445363e-06
1.39020904725e-06
9.45408733545e-07
7.8895650185e-07
7.32594506726e-07
7.08939151542e-07
6.95831328399e-07
6.86433797854e-07
6.7868119267e-07
6.71924689941e-07
6.65924743956e-07
6.60570964487e-07
6.55786880508e-07
6.51511287775e-07
6.47695021887e-07
6.44298355636e-07
6.41289361947e-07
6.38649805438e-07
6.36379100394e-07
6.34504214247e-07
6.33114314192e-07
6.32406921387e-07
6.32792946499e-07
6.351069248e-07
6.41066549611e-07
6.54195483999e-07
6.81981667849e-07
7.40945524752e-07
8.74410693435e-07
1.2332428295e-06
2.39424670229e-06
6.42077962363e-06
2.98128033955e-05
0.000231497634791
2.32487868245e-06
2.81252314676e-06
3.47673812521e-06
4.30865009842e-06
5.32497861956e-06
6.54134432324e-06
7.97007377902e-06
9.61811771503e-06
1.14846463765e-05
1.35583916376e-05
1.58156630615e-05
1.82188912658e-05
2.07165133912e-05
2.32437504845e-05
2.57249660596e-05
2.80768033947e-05
3.02126908931e-05
3.20476087014e-05
3.35036350262e-05
3.45149191045e-05
3.50326016529e-05
3.50282582294e-05
3.44965369034e-05
3.34557325581e-05
3.19472746347e-05
3.0033311535e-05
2.77939215197e-05
2.53241542169e-05
2.27339559938e-05
2.01541358227e-05
1.7755860977e-05
1.57925930834e-05
1.46734083454e-05
1.50627691671e-05
1.79707573704e-05
2.47442817256e-05
3.68684379138e-05
5.56281453601e-05
8.18203066695e-05
0.000115668085984
0.000156929073407
0.000205068272306
0.000259399069228
0.000319170345538
0.000383618916213
0.000451998244507
0.000523596286602
0.000597743688041
0.000673821011357
0.000751259416039
0.000829541673925
0.000908197836847
0.00098680313231
0.00106496811337
0.00114232754582
0.00121852510363
0.00129220118712
0.00136313526607
0.00143105851544
0.00149570153988
0.00155680652891
0.00161412533012
0.00166742125571
0.00171646671016
0.00176104615128
0.00180095469945
0.00183600180406
0.00186601037089
0.00189082078654
0.0019102903225
0.00192429727327
0.00193274042949
0.00193554310111
0.00193265247275
0.00192404331108
0.00190971705337
0.0018897050417
0.00186406724628
0.00183289492384
0.00179630893788
0.00175446180284
0.00170753563005
0.0016557435889
0.00159932757542
0.00153855919097
0.00147373729495
0.00140518866652
0.00133326565899
0.00125834676522
0.00118083463921
0.00110115685264
0.00101976465974
0.00093713445004
0.000853767959499
0.000770195244935
0.000686977002942
0.000604709178235
0.00052402719853
0.000445613922518
0.000370214012519
0.000298664728974
0.000231951076858
0.000171288929729
0.000118178486337
7.39938804275e-05
4.13158533497e-05
2.03181324952e-05
8.88022114817e-06
3.66244504186e-06
1.66040898083e-06
9.88415278483e-07
7.81230010131e-07
7.16740362829e-07
6.9303945165e-07
6.80972297492e-07
6.72615429018e-07
6.65818332682e-07
6.59948225803e-07
6.54781266323e-07
6.50213028156e-07
6.46178730937e-07
6.42632322179e-07
6.39543630144e-07
6.36899703446e-07
6.34709471351e-07
6.33026731711e-07
6.31984201153e-07
6.31857783007e-07
6.3320868477e-07
6.3715692838e-07
6.46006189658e-07
6.64479672314e-07
7.02698687636e-07
7.83656631612e-07
9.71192802864e-07
1.49583176433e-06
3.13538467735e-06
8.44264505363e-06
3.88546259822e-05
0.000294685557581
2.40965217536e-06
2.84886235316e-06
3.43394671498e-06
4.1511700953e-06
5.00738393834e-06
6.00674581733e-06
7.14924973206e-06
8.42938067851e-06
9.83467723086e-06
1.13443144212e-05
1.29284575926e-05
1.4548197833e-05
1.61566383349e-05
1.7700636349e-05
1.91236107611e-05
2.03686732954e-05
2.13824017686e-05
2.2118347344e-05
2.2540582369e-05
2.26263283893e-05
2.2368070422e-05
2.17743344176e-05
2.0869818391e-05
1.96945290603e-05
1.83033877986e-05
1.67674465024e-05
1.51807340216e-05
1.36783921231e-05
1.24764007504e-05
1.19441202374e-05
1.27143038961e-05
1.5803735548e-05
2.26559882213e-05
3.49836437313e-05
5.44026880326e-05
8.20464602089e-05
0.000118389093169
0.000163322290616
0.000216347850648
0.000276751153629
0.000343719767266
0.000416413005422
0.000494002141951
0.000575689875323
0.000660723568784
0.000748399475189
0.000838066822172
0.000929126175672
0.00102103128395
0.00111328583092
0.00120544396128
0.00129710477522
0.00138790833369
0.00147751915834
0.00156560714173
0.00165154075299
0.0017345259228
0.00181424818611
0.00189041791378
0.00196276370776
0.00203102926359
0.0020949672455
0.00215434078467
0.00220892060165
0.00225848845221
0.0023028354495
0.00234176626598
0.00237509800727
0.00240266475664
0.00242431672924
0.00243992490997
0.00244938028353
0.00245259834414
0.00244951821814
0.00244010684571
0.00242435784286
0.00240229519026
0.00237397172516
0.0023394722207
0.00229891145314
0.00225243661409
0.0022002249606
0.00214248556774
0.00207945663319
0.00201140664274
0.00193863146076
0.00186145504044
0.00178022648085
0.00169532046104
0.00160713448092
0.00151608924103
0.00142262633163
0.0013272088509
0.00123031987649
0.00113246365453
0.00103416515961
0.000935972222878
0.000838456940051
0.000742220332023
0.000647897772304
0.000556167384797
0.000467758611465
0.0003834657394
0.000304174376274
0.000230898158266
0.000164835044313
0.000106845952148
6.16051354778e-05
3.04457169142e-05
1.28149744602e-05
4.76894749319e-06
1.85923200716e-06
9.91449838107e-07
7.60169502909e-07
6.97663343097e-07
6.76773320929e-07
6.66450300387e-07
6.59296723478e-07
6.53486661426e-07
6.48510688945e-07
6.44191094341e-07
6.40449809939e-07
6.3724649843e-07
6.34567682621e-07
6.3243516499e-07
6.30929050181e-07
6.30226148104e-07
6.30690536431e-07
6.33045948732e-07
6.38747126698e-07
6.50755227009e-07
6.75255502232e-07
7.25610639272e-07
8.33471266865e-07
1.09232196207e-06
1.84257738695e-06
4.06052076667e-06
1.08011599972e-05
4.90888427551e-05
0.000363872866108
2.46097417795e-06
2.84988729682e-06
3.3571838352e-06
3.96538619098e-06
4.6738462699e-06
5.47881026563e-06
6.37257949912e-06
7.34281219963e-06
8.37187928197e-06
9.43634837331e-06
1.0507208769e-05
1.15505983935e-05
1.25293937162e-05
1.34051673274e-05
1.41407312376e-05
1.47026128783e-05
1.5063651783e-05
1.52050355196e-05
1.51180418178e-05
1.48049370911e-05
1.42795775072e-05
1.35676878013e-05
1.27083377112e-05
1.17585090098e-05
1.08057067556e-05
9.99632267762e-06
9.5923966619e-06
1.00695920106e-05
1.22556251431e-05
1.74586401388e-05
2.74592109249e-05
4.42408843366e-05
6.95175728218e-05
0.000104334084276
0.000148975117545
0.000203134644713
0.000266150646609
0.000337183796359
0.000415327657838
0.000499666360071
0.000589307180192
0.000683395676806
0.000781126740071
0.000881747515512
0.000984562267035
0.00108893048433
0.00119426815061
0.00130004281621
0.00140577370656
0.00151102603704
0.00161541062586
0.0017185761943
0.00182020446444
0.0019199947005
0.00201765300026
0.00211246311417
0.00220392298422
0.00229166446374
0.00237538225631
0.00245480009893
0.00252966021518
0.00259971408745
0.00266472336285
0.00272445620698
0.00277869101216
0.00282721431439
0.0028698253988
0.0029063348585
0.00293656957633
0.00296037160846
0.00297760327813
0.00298814617485
0.00299190613939
0.00298881219437
0.00297882121735
0.00296191664199
0.00293811264303
0.00290745248366
0.00287001207723
0.00282589790575
0.00277524987748
0.00271823880008
0.0026550685159
0.00258597297568
0.0025112176976
0.00243109654643
0.00234593262067
0.0022560748902
0.0021618986618
0.00206380226264
0.00196220727174
0.00185755546805
0.00175030905386
0.00164094811306
0.00152997107187
0.00141789292328
0.00130524624105
0.00119258061344
0.00108046479416
0.000969487876927
0.000860263016139
0.000753431402172
0.000649670878035
0.000549706884629
0.000454325654519
0.000364373044119
0.000280746883322
0.00020432512795
0.000135744932778
8.02689734297e-05
4.00070630351e-05
1.62726235543e-05
5.51966188693e-06
1.88158243681e-06
9.372288186e-07
7.26688483139e-07
6.77109693664e-07
6.6086190763e-07
6.52486992167e-07
6.46555648641e-07
6.41760600512e-07
6.37734240389e-07
6.34356518807e-07
6.31598163543e-07
6.2948642634e-07
6.2812282977e-07
6.27731396135e-07
6.28768499514e-07
6.32136628076e-07
6.39668097326e-07
6.55083448525e-07
6.86284692186e-07
7.5067808658e-07
8.9162612387e-07
1.24521195673e-06
2.29420527978e-06
5.18097314153e-06
1.34940136105e-05
6.0485272767e-05
0.000438613076061
2.48171023737e-06
2.82130129421e-06
3.25562491e-06
3.76474995238e-06
4.34275080866e-06
4.98091954907e-06
5.66744982216e-06
6.38722887233e-06
7.12173401964e-06
7.84908085738e-06
8.54469090528e-06
9.18231096134e-06
9.73561869508e-06
1.01799331644e-05
1.04941538184e-05
1.06623954338e-05
1.06754848818e-05
1.05319128344e-05
1.0238676459e-05
9.81214573095e-06
9.2804447941e-06
8.68960383588e-06
8.11890013299e-06
7.71436113955e-06
7.75500797783e-06
8.76729983848e-06
1.16872106615e-05
1.80104346986e-05
2.97809631102e-05
4.92651169211e-05
7.83815111058e-05
0.000118239426507
0.000169069810856
0.000230457966221
0.000301626335297
0.000381632403009
0.00046948114562
0.000564179304984
0.000664764417846
0.000770316729397
0.000879969225919
0.000992909873527
0.00110838660106
0.00122570531967
0.00134423223608
0.0014633889293
0.00158265246985
0.0017015484854
0.00181965054594
0.00193657276275
0.00205196890918
0.00216552345226
0.00227694728632
0.00238596363993
0.00249230063572
0.00259536519836
0.00269467107183
0.00278984700836
0.00288058362844
0.00296660184488
0.0030476423717
0.00312345528068
0.00319380062426
0.00325844397903
0.00331716027739
0.00336973122527
0.00341595021047
0.00345562049795
0.0034885605929
0.00351460284267
0.0035335989665
0.00354541884388
0.0035499559855
0.00354712631849
0.00353687338763
0.0035191669653
0.00349400779034
0.00346142585842
0.0034214845392
0.00337427844535
0.00331993681755
0.00325862092548
0.00319052667083
0.00311588153583
0.00303494641995
0.0029480122131
0.00285540094403
0.00275746210817
0.00265457325796
0.00254713625586
0.00243557747793
0.00232034419254
0.00220190457921
0.00208074444859
0.00195736729179
0.00183229156529
0.00170605102236
0.00157919284878
0.00145227860249
0.00132588352938
0.00120059855255
0.00107703152453
0.0009558113777
0.000837592127846
0.000723058901945
0.00061293541385
0.000507995398824
0.000409039952144
0.000316861043833
0.000232057686236
0.000156225559298
9.33133373619e-05
4.6446439084e-05
1.80991174714e-05
5.52780778615e-06
1.67096237129e-06
8.46256615903e-07
6.92679422674e-07
6.57804855656e-07
6.45801926145e-07
6.3926711558e-07
6.34580639364e-07
6.3088709788e-07
6.27971089912e-07
6.25820162623e-07
6.24544725252e-07
6.24412860571e-07
6.25972467867e-07
6.3032377679e-07
6.39700060013e-07
6.58710719611e-07
6.97270233593e-07
7.77863302427e-07
9.59769014607e-07
1.43976032694e-06
2.87176456142e-06
6.50320645119e-06
1.65184018982e-05
7.30137143633e-05
0.000518435648674
2.47620475008e-06
2.76950810271e-06
3.13795696045e-06
3.5603706112e-06
4.02738033568e-06
4.52753121231e-06
5.04736283145e-06
5.57153167827e-06
6.08303144936e-06
6.56350988685e-06
6.99406411084e-06
7.35623683627e-06
7.63336213059e-06
7.81184090711e-06
7.88244231158e-06
7.84126681089e-06
7.69067392657e-06
7.44028539141e-06
7.10933629659e-06
6.73250314883e-06
6.37437775064e-06
6.16172590918e-06
6.34922062754e-06
7.43807819181e-06
1.03559279305e-05
1.66505693292e-05
2.85417729635e-05
4.86186260534e-05
7.91806444449e-05
0.000121620986681
0.000176278766337
0.000242710766353
0.000320049737865
0.00040725145702
0.000503226059227
0.000606894808387
0.000717216766562
0.000833197826648
0.000953899267718
0.00107843909244
0.00120599759702
0.00133581573868
0.00146719838844
0.00159950968378
0.00173217410752
0.00186466943779
0.00199652626632
0.00212731959653
0.00225666803016
0.00238422529283
0.00250967959375
0.00263274440769
0.00275315571154
0.00287065925361
0.00298500540807
0.00309573925299
0.00320236300922
0.00330449953828
0.00340183633931
0.0034940925643
0.00358100823452
0.00366233270144
0.00373782500017
0.0038072485308
0.00387037491078
0.00392698081609
0.00397685311476
0.00401978665784
0.00405558998641
0.00408408364689
0.00410510615425
0.00411851259569
0.00412418061498
0.00412200910573
0.0041119239938
0.00409387683205
0.00406785016661
0.00403385586294
0.00399193986536
0.00394218011867
0.00388469057267
0.00381961861465
0.0037471482294
0.00366749692075
0.0035809180067
0.00348769707511
0.00338815346355
0.00328263635668
0.00317152556315
0.0030552274129
0.00293417499391
0.00280882404347
0.00267965284103
0.0025471583045
0.00241185575143
0.00227427541841
0.00213496232278
0.00199447344305
0.00185337794003
0.00171225526232
0.00157169606237
0.00143230164313
0.00129468607392
0.00115947740279
0.00102732146436
0.000898885590162