/*--------------------------------*- C++ -*----------------------------------*\
| =========                 |                                                 |
| \\      /  F ield         | OpenFOAM: The Open Source CFD Toolbox           |
|  \\    /   O peration     | Version:  2206                                  |
|   \\  /    A nd           | Website:  www.openfoam.com                      |
|    \\/     M anipulation  |                                                 |
\*---------------------------------------------------------------------------*/
FoamFile
{
    version     2.0;
    format      ascii;
    arch        "LSB;label=64;scalar=64";
    class       volScalarField;
    location    "1.3/water";
    object      p;
}
// * * * * * * * * * * * * * * * * * * * * * * * * * * * * * * * * * * * * * //

dimensions      [1 -1 -2 0 0 0 0];

internalField   nonuniform List<scalar> 
23300
(
100738.736961
100738.732631
100738.724613
100738.71254
100738.696522
100738.676712
100738.653206
100738.626154
100738.595625
100738.561732
100738.524508
100738.484044
100738.44032
100738.393394
100738.343332
100738.290402
100738.234821
100738.176698
100738.116024
100738.05292
100737.98741
100737.919614
100737.849577
100737.777421
100737.703198
100737.627037
100737.548999
100737.469231
100737.387812
100737.304911
100737.220628
100737.135159
100737.048631
100736.961266
100736.873219
100736.78474
100736.696012
100736.607307
100736.518833
100736.430884
100736.343685
100736.257541
100736.172688
100736.089433
100736.00801
100735.928714
100735.851761
100735.777421
100735.705884
100735.63738
100735.572054
100735.510079
100735.451534
100735.396525
100735.345068
100735.297201
100735.25288
100735.212094
100735.174604
100735.140009
100735.107949
100735.078211
100735.050495
100735.024512
100734.999902
100734.976324
100734.953384
100734.930714
100734.907905
100734.88459
100734.860374
100734.834912
100734.807848
100734.778886
100734.747727
100734.714144
100734.677916
100734.638895
100734.596952
100734.55203
100734.504092
100734.453176
100734.399337
100734.342697
100734.283396
100734.22163
100734.157604
100734.091568
100734.023773
100733.954504
100733.884032
100733.812652
100733.74064
100733.668273
100733.595819
100733.523718
100733.452127
100733.381127
100733.311101
100733.242307
100733.174828
100733.108767
100733.044218
100732.981266
100732.919967
100732.860387
100732.802571
100732.746572
100732.692424
100732.640165
100732.589815
100732.541393
100732.494907
100732.450363
100732.407752
100732.367069
100732.328299
100732.291433
100732.256454
100732.223347
100732.192091
100732.16267
100732.135062
100732.109247
100732.085203
100732.06291
100732.042346
100732.023489
100732.006316
100731.990805
100731.97693
100731.964664
100731.953977
100731.944837
100731.937207
100731.931054
100731.92635
100731.923103
100731.921437
100731.921241
100730.669844
100730.665564
100730.657369
100730.64511
100730.628901
100730.608879
100730.585136
100730.557814
100730.526962
100730.492652
100730.454976
100730.414057
100730.369971
100730.322864
100730.272929
100730.220389
100730.165316
100730.107715
100730.047572
100729.984972
100729.919968
100729.852655
100729.783087
100729.71136
100729.637535
100729.561719
100729.483983
100729.404451
100729.323214
100729.240415
100729.156169
100729.070647
100728.983991
100728.896399
100728.808043
100728.719151
100728.629925
100728.540622
100728.451471
100728.362753
100728.274719
100728.187664
100728.101852
100728.017587
100727.935131
100727.854777
100727.776771
100727.701377
100727.628814
100727.559313
100727.493046
100727.430181
100727.370813
100727.315033
100727.262867
100727.214334
100727.169378
100727.127912
100727.089589
100727.05404
100727.021039
100726.990369
100726.96175
100726.934894
100726.909463
100726.88512
100726.861491
100726.838214
100726.814901
100726.791187
100726.766694
100726.741077
100726.713992
100726.685138
100726.654223
100726.621008
100726.585272
100726.54685
100726.505603
100726.461451
100726.414343
100726.364288
100726.311325
100726.255549
100726.197085
100726.136105
100726.072807
100726.007429
100725.940223
100725.871471
100725.801457
100725.730486
100725.658854
100725.586866
100725.514825
100725.443035
100725.371649
100725.300748
100725.23065
100725.161596
100725.093671
100725.027127
100724.962147
100724.898802
100724.83716
100724.777288
100724.719239
100724.663059
100724.608779
100724.556427
100724.506016
100724.457561
100724.411062
100724.366524
100724.323944
100724.283304
100724.244583
100724.207771
100724.172851
100724.139806
100724.108616
100724.079262
100724.051722
100724.025977
100724.002005
100723.979785
100723.959298
100723.940523
100723.923441
100723.908031
100723.894273
100723.882146
100723.871625
100723.862682
100723.855285
100723.849389
100723.844932
100723.841889
100723.840372
100723.840043
100722.61399
100722.609746
100722.6012
100722.588513
100722.571812
100722.551255
100722.526915
100722.498847
100722.467182
100722.432099
100722.393689
100722.352076
100722.307356
100722.259666
100722.209145
100722.15597
100722.100235
100722.042009
100721.981307
100721.918182
100721.852665
100721.784824
100721.714699
100721.642369
100721.567887
100721.491345
100721.41281
100721.332396
100721.250192
100721.166336
100721.080945
100720.994185
100720.906205
100720.817203
100720.727361
100720.636913
100720.546071
100720.455102
100720.364249
100720.273804
100720.184036
100720.095251
100720.00773
100719.92179
100719.837717
100719.755821
100719.676362
100719.599615
100719.525821
100719.455237
100719.388055
100719.32443
100719.264408
100719.207986
100719.155114
100719.105761
100719.059858
100719.017137
100718.977317
100718.940418
100718.906305
100718.874666
100718.845168
100718.817488
100718.791273
100718.766183
100718.741859
100718.717959
100718.694128
100718.670035
100718.645342
100718.619738
100718.592915
100718.564594
100718.534504
100718.502415
100718.468105
100718.431398
100718.392136
100718.350204
100718.305511
100718.258015
100718.207698
100718.154591
100718.098755
100718.040299
100717.97936
100717.916124
100717.850803
100717.783651
100717.714939
100717.644972
100717.574061
100717.502532
100717.430704
100717.358881
100717.287323
100717.21628
100717.146031
100717.07677
100717.008624
100716.941874
100716.876671
100716.813023
100716.751051
100716.69085
100716.632488
100716.576023
100716.521491
100716.468922
100716.418332
100716.36973
100716.323116
100716.278485
100716.235827
100716.195141
100716.156413
100716.119618
100716.084736
100716.051745
100716.020624
100715.99135
100715.9639
100715.938252
100715.914382
100715.89227
100715.871893
100715.853232
100715.836267
100715.820977
100715.807344
100715.795347
100715.784967
100715.776176
100715.768942
100715.763215
100715.75892
100715.756022
100715.754574
100715.754141
100714.569385
100714.565174
100714.556307
100714.543264
100714.526116
100714.504949
100714.479877
100714.451074
100714.418643
100714.38272
100714.343414
100714.300862
100714.255172
100714.206486
100714.154919
100714.100608
100714.043635
100713.984086
100713.922
100713.857438
100713.790427
100713.721029
100713.649277
100713.575238
100713.498959
100713.420523
100713.339995
100713.25748
100713.173069
100713.086899
100712.999089
100712.90981
100712.819219
100712.727522
100712.634916
100712.541646
100712.447946
100712.354098
100712.260373
100712.16709
100712.074552
100711.983097
100711.893042
100711.804748
100711.718558
100711.634821
100711.553789
100711.475662
100711.40057
100711.328669
100711.260076
100711.194902
100711.133216
100711.075097
100711.020561
100710.969573
100710.921901
100710.877141
100710.835201
100710.796111
100710.759621
100710.725498
100710.693477
100710.663303
100710.634682
100710.607327
100710.580924
100710.55517
100710.529742
100710.504339
100710.478648
100710.452385
100710.425261
100710.39702
100710.367412
100710.33622
100710.303239
100710.268303
100710.231258
100710.191994
100710.150411
100710.106452
100710.060071
100710.011261
100709.960024
100709.906398
100709.85043
100709.792201
100709.731804
100709.669372
100709.605057
100709.539054
100709.471588
100709.402927
100709.333366
100709.263227
100709.192839
100709.122544
100709.052672
100708.983535
100708.915407
100708.848655
100708.78348
100708.719847
100708.657846
100708.5976
100708.539192
100708.482688
100708.428131
100708.375553
100708.324971
100708.276395
100708.229826
100708.185257
100708.14268
100708.102079
100708.063442
100708.026754
100707.991992
100707.959132
100707.928147
100707.899015
100707.871709
100707.846206
100707.822483
100707.800517
100707.780285
100707.761766
100707.744939
100707.729786
100707.716284
100707.704416
100707.694157
100707.685481
100707.678352
100707.672717
100707.668497
100707.665656
100707.664211
100707.663723
100706.536078
100706.531854
100706.522625
100706.509155
100706.491532
100706.469839
100706.444148
100706.414591
100706.381278
100706.344348
100706.303912
100706.26011
100706.213053
100706.162878
100706.109688
100706.053605
100705.994705
100705.933078
100705.86877
100705.801849
100705.732345
100705.660321
100705.585808
100705.508874
100705.429564
100705.347962
100705.264133
100705.178191
100705.090231
100705.000402
100704.908837
100704.815728
100704.721251
100704.625646
100704.529139
100704.432018
100704.334565
100704.237114
100704.139992
100704.043588
100703.948281
100703.854459
100703.762409
100703.672398
100703.584636
100703.499334
100703.416645
100703.33675
100703.25982
100703.186024
100703.115429
100703.048089
100702.984048
100702.92341
100702.866231
100702.812519
100702.761917
100702.714261
100702.669629
100702.627872
100702.58879
100702.552178
100702.517786
100702.485369
100702.454644
100702.425336
100702.397141
100702.369769
100702.34291
100702.316277
100702.289569
100702.262517
100702.234842
100702.206305
100702.176665
100702.145721
100702.113278
100702.079184
100702.043299
100702.005523
100701.965771
100701.924
100701.880181
100701.834323
100701.786445
100701.736602
100701.684854
100701.631285
100701.575977
100701.519024
100701.460504
100701.400501
100701.339086
100701.276348
100701.212387
100701.147344
100701.081393
100701.014765
100700.947739
100700.880653
100700.813868
100700.747981
100700.683337
100700.619982
100700.558147
100700.498008
100700.439684
100700.383261
100700.328792
100700.276317
100700.225854
100700.177414
100700.130996
100700.086595
100700.044198
100700.00379
100699.965351
100699.928863
100699.894305
100699.861651
100699.830875
100699.801951
100699.774852
100699.749553
100699.72603
100699.704258
100699.684215
100699.66588
100699.649229
100699.634243
100699.620901
100699.60918
100699.599056
100699.590499
100699.583469
100699.577906
100699.573728
100699.570911
100699.56946
100699.568946
100698.51306
100698.50875
100698.499161
100698.485258
100698.467103
100698.44478
100698.418352
100698.387927
100698.353593
100698.315477
100698.273679
100698.228331
100698.179535
100698.127421
100698.072083
100698.013635
100697.952149
100697.887716
100697.820388
100697.750238
100697.677303
100697.601653
100697.523327
100697.442402
100697.358932
100697.273018
100697.18474
100697.094234
100697.001622
100696.907085
100696.810794
100696.712986
100696.613892
100696.513812
100696.413041
100696.311946
100696.210898
100696.110304
100696.010501
100695.911809
100695.814454
100695.718631
100695.62447
100695.532167
100695.441921
100695.353939
100695.268385
100695.185487
100695.105471
100695.028562
100694.9549
100694.88461
100694.817777
100694.754496
100694.694811
100694.638557
100694.585519
100694.5357
100694.488998
100694.445258
100694.404278
100694.365855
100694.329745
100694.295709
100694.26347
100694.232763
100694.203292
100694.17478
100694.146922
100694.119445
100694.092053
100694.064487
100694.036474
100694.007783
100693.978176
100693.94746
100693.915441
100693.881974
100693.846916
100693.810174
100693.771662
100693.731341
100693.68918
100693.645194
100693.599405
100693.551875
100693.502671
100693.451893
100693.399641
100693.34604
100693.29121
100693.235287
100693.178396
100693.120663
100693.062177
100693.002994
100692.943125
100692.882573
100692.821362
100692.759576
100692.697333
100692.635101
100692.573169
100692.511739
100692.451166
100692.391773
100692.333882
100692.277742
100692.223495
100692.171222
100692.120964
100692.072742
100692.026557
100691.982403
100691.940267
100691.900131
100691.861971
100691.825768
100691.791495
100691.759127
100691.728635
100691.69999
100691.673165
100691.648135
100691.624871
100691.603351
100691.583549
100691.565444
100691.549012
100691.534232
100691.521081
100691.509536
100691.49957
100691.49115
100691.484231
100691.478744
100691.47461
100691.471821
100691.470381
100691.469864
100690.498292
100690.493815
100690.483805
100690.469411
100690.450665
100690.427634
100690.400363
100690.368939
100690.333429
100690.293939
100690.250553
100690.203386
100690.152527
100690.098094
100690.04017
100689.978863
100689.914244
100689.846405
100689.775402
100689.701319
100689.624204
100689.544141
100689.461186
100689.375439
100689.286978
100689.195932
100689.102421
100689.006622
100688.908707
100688.808915
100688.707488
100688.604739
100688.500991
100688.396637
100688.292047
100688.187598
100688.083565
100687.980162
100687.877487
100687.77568
100687.67489
100687.575338
100687.477251
100687.380941
100687.286698
100687.194821
100687.105553
100687.019162
100686.935868
100686.855892
100686.779373
100686.706444
100686.63717
100686.57162
100686.509798
100686.451471
100686.396481
100686.344868
100686.296471
100686.251139
100686.208668
100686.16886
100686.131472
100686.096269
100686.062978
100686.031342
100686.001067
100685.971883
100685.94349
100685.915621
100685.887983
100685.860322
100685.832368
100685.803891
100685.774657
100685.744471
100685.71314
100685.680516
100685.646455
100685.610859
100685.573638
100685.534746
100685.494146
100685.451847
100685.407862
100685.362246
100685.315061
100685.266402
100685.21637
100685.165093
100685.112702
100685.059348
100685.005178
100684.950347
100684.894998
100684.839271
100684.783293
100684.727183
100684.671012
100684.614775
100684.55838
100684.501753
100684.444996
100684.388387
100684.331854
100684.275608
100684.219918
100684.165147
100684.111708
100684.059955
100684.010095
100683.962226
100683.916384
100683.872579
100683.830798
100683.791025
100683.753235
100683.717406
100683.683508
100683.65151
100683.621382
100683.593094
100683.566617
100683.541923
100683.518984
100683.497774
100683.478268
100683.460443
100683.444274
100683.42974
100683.416816
100683.405477
100683.395695
100683.387432
100683.380639
100683.375241
100683.371162
100683.368417
100683.367005
100683.366502
100682.489563
100682.484882
100682.474437
100682.459503
100682.440096
100682.416264
100682.388033
100682.355471
100682.318624
100682.277575
100682.232389
100682.183163
100682.129969
100682.072912
100682.012064
100681.947529
100681.879374
100681.807696
100681.732558
100681.654055
100681.572254
100681.487258
100681.39915
100681.308061
100681.214108
100681.117468
100681.018314
100680.91689
100680.813446
100680.708309
100680.60182
100680.494378
100680.386339
100680.278029
100680.169626
100680.061248
100679.952958
100679.844895
100679.737237
100679.630276
100679.524311
100679.419681
100679.316697
100679.215724
100679.117081
100679.021101
100678.928046
100678.838185
100678.751714
100678.668827
100678.589638
100678.51426
100678.442737
100678.375109
100678.311341
100678.251221
100678.194579
100678.14145
100678.091666
100678.045075
100678.00147
100677.960656
100677.922389
100677.886438
100677.852528
100677.820406
100677.789778
100677.760378
100677.731907
100677.704099
100677.676662
100677.649343
100677.621872
100677.594018
100677.565544
100677.536256
100677.505955
100677.474491
100677.441714
100677.407522
100677.371818
100677.33455
100677.295672
100677.255185
100677.213093
100677.169442
100677.124283
100677.077703
100677.029791
100676.980668
100676.930453
100676.879292
100676.827326
100676.774716
100676.721614
100676.668188
100676.614598
100676.561004
100676.507546
100676.454349
100676.401526
100676.349193
100676.29742
100676.245814
100676.194307
100676.143017
100676.091894
100676.041237
100675.990932
100675.941234
100675.892611
100675.845524
100675.800272
100675.756983
100675.715693
100675.676402
100675.639093
100675.603744
100675.570317
100675.538783
100675.509108
100675.481261
100675.455211
100675.430927
100675.408381
100675.387545
100675.368393
100675.350901
100675.335043
100675.320796
100675.308136
100675.297035
100675.287463
100675.27938
100675.272732
100675.267436
100675.263427
100675.260745
100675.259377
100675.258895
100674.484995
100674.480093
100674.469208
100674.453701
100674.433572
100674.408856
100674.379562
100674.345739
100674.307411
100674.264646
100674.217485
100674.166008
100674.110272
100674.050368
100673.986361
100673.918348
100673.846396
100673.770607
100673.691052
100673.607842
100673.52106
100673.430839
100673.337292
100673.240591
100673.140906
100673.038475
100672.933547
100672.826454
100672.717536
100672.607192
100672.495758
100672.383514
100672.270585
100672.157053
100672.042967
100671.928489
100671.81384
100671.699337
100671.585295
100671.472108
100671.360157
100671.249866
100671.141605
100671.03576
100670.932644
100670.832574
100670.735786
100670.642519
100670.552938
100670.46721
100670.385426
100670.307683
100670.234003
100670.164419
100670.098811
100670.037042
100669.978983
100669.924589
100669.873694
100669.826145
100669.781733
100669.740264
100669.701489
100669.66518
100669.631059
100669.598873
100669.568326
100669.539151
100669.511047
100669.483748
100669.456957
100669.430421
100669.403865
100669.377057
100669.349753
100669.321755
100669.29286
100669.262912
100669.231754
100669.199279
100669.16538
100669.129999
100669.093082
100669.05462
100669.014608
100668.973084
100668.930088
100668.8857
100668.839996
100668.793092
100668.745095
100668.696144
100668.646371
100668.595932
100668.544972
100668.493657
100668.442139
100668.390584
100668.339146
100668.287987
100668.237262
100668.187126
100668.137696
100668.089079
100668.041516
100667.994485
100667.947976
100667.901767
100667.85577
100667.81048
100667.765629
100667.721187
100667.677565
100667.635301
100667.59478
100667.556165
100667.519491
100667.484748
100667.451909
100667.420943
100667.391819
100667.364505
100667.338966
100667.315172
100667.293092
100667.272698
100667.253962
100667.236859
100667.221362
100667.207448
100667.19509
100667.184262
100667.174929
100667.16705
100667.160565
100667.155387
100667.151466
100667.148865
100667.147554
100667.1471
100666.483172
100666.478051
100666.466735
100666.450639
100666.429753
100666.404099
100666.373669
100666.338498
100666.298591
100666.253995
100666.204736
100666.150879
100666.092464
100666.029574
100665.962263
100665.890626
100665.81473
100665.734682
100665.650562
100665.562496
100665.470588
100665.374997
100665.275875
100665.173443
100665.06793
100664.959649
100664.848924
100664.736141
100664.621622
100664.505636
100664.388296
100664.269672
100664.149812
100664.028898
100663.907164
100663.784958
100663.662643
100663.540674
100663.419488
100663.299569
100663.181339
100663.065235
100662.951615
100662.840845
100662.733209
100662.628997
100662.528417
100662.431687
100662.338944
100662.250338
100662.165941
100662.085835
100662.010029
100661.938546
100661.871219
100661.807958
100661.748651
100661.693196
100661.641425
100661.593185
100661.548262
100661.50646
100661.467527
100661.43123
100661.397288
100661.365444
100661.335399
100661.306882
100661.279587
100661.253241
100661.227547
100661.202242
100661.177046
100661.151721
100661.126017
100661.099729
100661.072646
100661.044605
100661.015441
100660.985038
100660.95328
100660.920102
100660.885439
100660.849276
100660.811596
100660.77243
100660.731808
100660.689801
100660.646477
100660.601941
100660.556296
100660.50967
100660.46219
100660.414003
100660.365252
100660.316094
100660.266679
100660.217171
100660.167719
100660.118484
100660.069616
100660.021268
100659.973587
100659.926731
100659.880803
100659.8359
100659.792295
100659.749588
100659.70776
100659.666342
100659.62523
100659.584949
100659.545335
100659.506091
100659.467476
100659.43007
100659.394318
100659.360369
100659.328262
100659.297989
100659.269527
100659.242846
100659.217913
100659.194695
100659.173161
100659.153282
100659.135028
100659.118373
100659.103291
100659.089757
100659.077744
100659.067223
100659.058161
100659.050512
100659.044209
100659.039167
100659.035353
100659.032851
100659.031609
100659.031188
100658.483206
100658.47788
100658.466159
100658.449484
100658.427834
100658.401222
100658.369626
100658.333063
100658.291524
100658.24504
100658.193619
100658.137312
100658.076147
100658.010198
100657.939512
100657.864181
100657.784273
100657.699897
100657.611143
100657.518147
100657.421033
100657.319988
100657.215199
100657.106936
100656.995479
100656.881179
100656.764343
100656.645249
100656.524018
100656.400725
100656.275417
100656.148282
100656.019574
100655.88968
100655.759014
100655.628095
100655.497423
100655.367543
100655.238935
100655.112096
100654.987437
100654.865379
100654.746256
100654.63041
100654.518098
100654.40959
100654.30507
100654.204739
100654.108716
100654.017137
100653.930058
100653.84755
100653.76961
100653.696246
100653.627306
100653.562694
100653.502271
100653.445928
100653.393491
100653.344804
100653.299645
100653.257816
100653.219056
100653.183129
100653.149746
100653.118647
100653.089522
100653.062096
100653.036054
100653.011118
100652.986978
100652.963368
100652.939995
100652.916616
100652.892969
100652.86884
100652.844009
100652.818303
100652.791546
100652.763614
100652.73438
100652.703771
100652.67171
100652.638173
100652.603134
100652.566616
100652.528637
100652.489261
100652.448549
100652.406598
100652.3635
100652.319381
100652.274358
100652.228575
100652.182167
100652.135289
100652.088085
100652.040716
100651.99333
100651.946085
100651.899128
100651.852612
100651.806679
100651.761472
100651.717119
100651.673764
100651.6315
100651.590455
100651.550717
100651.512136
100651.474674
100651.437803
100651.401383
100651.36581
100651.331116
100651.296851
100651.263085
100651.230424
100651.19931
100651.169907
100651.142246
100651.116316
100651.092092
100651.069546
100651.048644
100651.029358
100651.011657
100650.995515
100650.980905
100650.967801
100650.956176
100650.946002
100650.937242
100650.929849
100650.92375
100650.918863
100650.91518
100650.912797
100650.911635
100650.911249
100650.484726
100650.479215
100650.467127
100650.449901
100650.427511
100650.399955
100650.367198
100650.329245
100650.286068
100650.237683
100650.184083
100650.125306
100650.06137
100649.992339
100649.918254
100649.839204
100649.755252
100649.666512
100649.573071
100649.475075
100649.372657
100649.266019
100649.155369
100649.04099
100648.923148
100648.80211
100648.678019
100648.550958
100648.420968
100648.288229
100648.153009
100648.015735
100647.876876
100647.737019
100647.596734
100647.456642
100647.317294
100647.179257
100647.043006
100646.909029
100646.777717
100646.649471
100646.524604
100646.403439
100646.286214
100646.173183
100646.064514
100645.960395
100645.86093
100645.766244
100645.676382
100645.591404
100645.511296
100645.436059
100645.36556
100645.299688
100645.238273
100645.181202
100645.128296
100645.079391
100645.034262
100644.9927
100644.954439
100644.919237
100644.886794
100644.856842
100644.829062
100644.803169
100644.778838
100644.755781
100644.733676
100644.712247
100644.691189
100644.670247
100644.649146
100644.627664
100644.605563
100644.582663
100644.558773
100644.533759
100644.507483
100644.479859
100644.4508
100644.420272
100644.388239
100644.354713
100644.319705
100644.283269
100644.245458
100644.206362
100644.166066
100644.124689
100644.082344
100644.039168
100643.995292
100643.950869
100643.906037
100643.860957
100643.815772
100643.77064
100643.725706
100643.681122
100643.637028
100643.593568
100643.550872
100643.509068
100643.468272
100643.428596
100643.390123
100643.353015
100643.317124
100643.282567
100643.249293
100643.216775
100643.184807
100643.153674
100643.123605
100643.093943
100643.06473
100643.036599
100643.009962
100642.984942
100642.961554
100642.939786
100642.919611
100642.901002
100642.883931
100642.86837
100642.854292
100642.841672
100642.830483
100642.820696
100642.812272
100642.805163
100642.799292
100642.794584
100642.791055
100642.788811
100642.787741
100642.787394
100642.487795
100642.482127
100642.469717
100642.451987
100642.428898
100642.400439
100642.366561
100642.327249
100642.282461
100642.232199
100642.176438
100642.115205
100642.048504
100641.976391
100641.898899
100641.81611
100641.728081
100641.634913
100641.536687
100641.433535
100641.325576
100641.212995
100641.095968
100640.974709
100640.84935
100640.719982
100640.586625
100640.449425
100640.308641
100640.164727
100640.018208
100639.869741
100639.71998
100639.569635
100639.419344
100639.269761
100639.121444
100638.974957
100638.830763
100638.689336
100638.55105
100638.416294
100638.285362
100638.158567
100638.036131
100637.918299
100637.805226
100637.69709
100637.593986
100637.496029
100637.403253
100637.315713
100637.233382
100637.156256
100637.084225
100637.017163
100636.954864
100636.897213
100636.844022
100636.795123
100636.75028
100636.70928
100636.671846
100636.637725
100636.606609
100636.578217
100636.55222
100636.52832
100636.506179
100636.485496
100636.465935
100636.447205
100636.428988
100636.411013
100636.392991
100636.374683
100636.35584
100636.336265
100636.315754
100636.29416
100636.271328
100636.247163
100636.221564
100636.194486
100636.165881
100636.135752
100636.104099
100636.070969
100636.036406
100636.000492
100635.963307
100635.924963
100635.885566
100635.845253
100635.804147
100635.7624
100635.720147
100635.677547
100635.634741
100635.591887
100635.549129
100635.50662
100635.464497
100635.422905
100635.381975
100635.341836
100635.302607
100635.264397
100635.227306
100635.191409
100635.156781
100635.123606
100635.091626
100635.06103
100635.031758
100635.003399
100634.975572
100634.948745
100634.922955
100634.89747
100634.872525
100634.848713
100634.826343
100634.805486
100634.786146
100634.768309
100634.751949
100634.737042
100634.723561
100634.711483
100634.700779
100634.691421
100634.683371
100634.676575
100634.670957
100634.666455
100634.663109
100634.661025
100634.660058
100634.659753
100634.492838
100634.487041
100634.474358
100634.456178
100634.432449
100634.403146
100634.368201
100634.327587
100634.281238
100634.229139
100634.171249
100634.107581
100634.038126
100633.962927
100633.882005
100633.795426
100633.703227
100633.605485
100633.502239
100633.393574
100633.279548
100633.160261
100633.03577
100632.906132
100632.771325
100632.631426
100632.486632
100632.337389
100632.18426
100632.027974
100631.869276
100631.708979
100631.547829
100631.386586
100631.225909
100631.066461
100630.908792
100630.753464
100630.600926
100630.451643
100630.305979
100630.164314
100630.02693
100629.894136
100629.766142
100629.643186
100629.525414
100629.413
100629.306027
100629.204606
100629.108761
100629.01854
100628.93391
100628.854859
100628.781307
100628.713109
100628.650023
100628.591928
100628.538631
100628.489956
100628.445659
100628.405517
100628.369241
100628.33657
100628.307181
100628.280781
100628.257026
100628.235604
100628.21616
100628.198379
100628.181906
100628.166434
100628.151626
100628.137195
100628.122832
100628.108283
100628.093278
100628.077606
100628.061044
100628.043428
100628.024591
100628.00442
100627.982801
100627.959676
100627.934985
100627.90872
100627.88087
100627.851473
100627.820564
100627.788218
100627.754508
100627.719541
100627.683419
100627.646272
100627.608222
100627.569418
100627.529995
100627.490107
100627.449898
100627.409524
100627.36913
100627.328869
100627.28888
100627.249309
100627.210286
100627.171946
100627.134405
100627.09778
100627.062169
100627.027667
100626.994356
100626.962293
100626.931565
100626.902229
100626.87417
100626.847436
100626.821979
100626.797528
100626.773715
100626.750961
100626.729011
100626.707386
100626.686451
100626.666711
100626.648346
100626.631387
100626.615829
100626.601654
100626.58884
100626.577363
100626.567198
100626.558315
100626.550677
100626.544228
100626.538893
100626.534628
100626.531497
100626.529596
100626.528744
100626.528483
100626.500541
100626.494642
100626.481739
100626.46317
100626.438865
100626.408786
100626.372844
100626.330987
100626.283131
100626.22924
100626.169252
100626.103161
100626.030941
100625.952618
100625.868191
100625.777696
100625.681126
100625.578495
100625.469757
100625.354886
100625.233797
100625.106432
100624.972677
100624.832492
100624.685937
100624.533368
100624.37534
100624.212631
100624.04608
100623.876617
100623.705111
100623.532453
100623.359426
100623.186812
100623.015273
100622.845475
100622.677963
100622.513295
100622.351916
100622.194286
100622.040762
100621.891721
100621.747441
100621.608224
100621.474276
100621.345832
100621.223031
100621.106041
100620.994941
100620.889836
100620.790743
100620.697704
100620.610678
100620.529648
100620.454573
100620.385278
100620.321489
100620.263082
100620.209854
100620.161623
100620.118134
100620.079153
100620.044382
100620.013543
100619.986301
100619.962349
100619.941323
100619.922897
100619.906695
100619.892383
100619.879587
100619.86798
100619.857202
100619.846947
100619.836882
100619.826735
100619.816213
100619.805085
100619.793108
100619.7801
100619.765874
100619.750302
100619.733253
100619.714654
100619.694431
100619.672564
100619.64903
100619.623857
100619.597071
100619.568741
100619.53893
100619.507742
100619.475272
100619.441649
100619.406992
100619.371446
100619.335145
100619.298245
100619.260888
100619.223233
100619.185424
100619.147617
100619.109952
100619.072579
100619.03563
100618.999242
100618.963534
100618.928629
100618.894628
100618.861632
100618.829723
100618.798983
100618.769474
100618.741248
100618.714423
100618.688817
100618.664534
100618.641561
100618.619836
100618.599081
100618.579035
100618.559967
100618.541502
100618.523457
100618.506299
100618.490357
100618.475705
100618.462349
100618.450276
100618.439467
100618.429897
100618.42154
100618.414357
100618.408291