/*--------------------------------*- C++ -*----------------------------------*\
| =========                 |                                                 |
| \\      /  F ield         | OpenFOAM: The Open Source CFD Toolbox           |
|  \\    /   O peration     | Version:  2206                                  |
|   \\  /    A nd           | Website:  www.openfoam.com                      |
|    \\/     M anipulation  |                                                 |
\*---------------------------------------------------------------------------*/
FoamFile
{
    version     2.0;
    format      ascii;
    arch        "LSB;label=64;scalar=64";
    class       volScalarField;
    location    "1.3/water";
    object      reactingEulerHtcModel(T.liquid);
}
// * * * * * * * * * * * * * * * * * * * * * * * * * * * * * * * * * * * * * //

dimensions      [1 0 -3 -1 0 0 0];

internalField   uniform 0;

boundaryField
{
    maxY
    {
        type            calculated;
        value           uniform 0;
    }
    symmetric
    {
        type            symmetry;
    }
    maxX
    {
        type            calculated;
        value           uniform 0;
    }
    minY
    {
        type            calculated;
        value           uniform 0;
    }
    emptyPatch
    {
        type            empty;
    }
    water_to_solid
    {
        type            calculated;
        value           nonuniform List<scalar> 
70
(
-173.483326612
-154.247491495
-155.893427245
-154.489241812
-156.442267226
-155.232926279
-156.872677513
-156.368843004
-176.404315273
-217.469189976
-248.083263876
-248.145825142
-248.26967603
-248.307110077
-248.172990511
-247.710253454
-246.749298193
-245.249526271
-243.654595908
-242.942130619
-243.078394359
-245.290610311
-249.696681223
-216.591221816
-162.890099197
-168.65655541
-154.797518081
-166.775947811
-151.592800519
-165.066929279
-150.156816304
-163.780172548
-150.400848563
-162.794765587
-150.447814286
-161.69259818
-151.824316885
-161.598495305
-153.744285524
-163.167101998
-157.999491424
-163.401624483
-161.734139189
-165.145361085
-174.07279007
-218.080521688
-246.280752952
-249.346814118
-246.522363165
-245.341969096
-246.261611114
-249.543225923
-213.561276921
-124.825301584
-110.457031013
-107.703814102
-106.924160005
-106.321111659
-110.360705579
-233.593062446
-234.508660185
-235.04028269
-235.521371073
-235.934725499
-236.233554295
-236.392225484
-236.702811864
-237.828307647
-148.634321776
-233.236471022
)
;
    }
}


// ************************************************************************* //
