/*--------------------------------*- C++ -*----------------------------------*\
| =========                 |                                                 |
| \\      /  F ield         | OpenFOAM: The Open Source CFD Toolbox           |
|  \\    /   O peration     | Version:  2206                                  |
|   \\  /    A nd           | Website:  www.openfoam.com                      |
|    \\/     M anipulation  |                                                 |
\*---------------------------------------------------------------------------*/
FoamFile
{
    version     2.0;
    format      ascii;
    arch        "LSB;label=64;scalar=64";
    class       surfaceScalarField;
    location    "406800";
    object      phi;
}
// * * * * * * * * * * * * * * * * * * * * * * * * * * * * * * * * * * * * * //

dimensions      [0 3 -1 0 0 0 0];

oriented        oriented;

internalField   nonuniform List<scalar> 
24
(
3.85342e-10
-3.85342e-10
6.35076e-10
-2.49734e-10
3.89238e-10
2.45838e-10
3.89238e-10
1.75398e-10
-5.6074e-10
2.53139e-10
-3.27475e-10
2.03019e-10
2.95958e-10
5.92257e-10
-2.13324e-10
-3.47416e-10
-3.92966e-10
-1.47833e-10
-2.06105e-10
1.09096e-10
3.86152e-10
-3.47416e-10
-4.95249e-10
-3.86152e-10
)
;

boundaryField
{
    movingWall
    {
        type            calculated;
        value           uniform 0;
    }
    fixedWalls
    {
        type            calculated;
        value           uniform 0;
    }
    frontAndBack
    {
        type            empty;
        value           nonuniform List<scalar> 0();
    }
}


// ************************************************************************* //
