/*--------------------------------*- C++ -*----------------------------------*\
| =========                 |                                                 |
| \\      /  F ield         | OpenFOAM: The Open Source CFD Toolbox           |
|  \\    /   O peration     | Version:  2206                                  |
|   \\  /    A nd           | Website:  www.openfoam.com                      |
|    \\/     M anipulation  |                                                 |
\*---------------------------------------------------------------------------*/
FoamFile
{
    version     2.0;
    format      ascii;
    arch        "LSB;label=64;scalar=64";
    class       volVectorField;
    location    "406800";
    object      U;
}
// * * * * * * * * * * * * * * * * * * * * * * * * * * * * * * * * * * * * * //

dimensions      [0 1 -1 0 0 0 0];

internalField   nonuniform List<vector> 
16
(
(6.1444e-08 -7.69172e-08 0)
(2.50574e-07 -4.67558e-08 0)
(2.51619e-07 5.05337e-08 0)
(6.21286e-08 7.3544e-08 0)
(4.74242e-08 -2.32569e-07 0)
(9.44098e-08 -1.5291e-07 0)
(1.05817e-07 1.47189e-07 0)
(5.76676e-08 2.37764e-07 0)
(-1.53177e-08 -2.12978e-07 0)
(-1.57131e-07 -1.06777e-07 0)
(-1.54303e-07 8.75715e-08 0)
(-1.16544e-08 2.3257e-07 0)
(-9.17215e-08 -6.62293e-08 0)
(-1.88932e-07 -1.12722e-08 0)
(-2.03348e-07 4.66646e-10 0)
(-1.04755e-07 7.59994e-08 0)
)
;

boundaryField
{
    movingWall
    {
        type            noSlip;
    }
    fixedWalls
    {
        type            noSlip;
    }
    frontAndBack
    {
        type            empty;
    }
}


// ************************************************************************* //
