/*--------------------------------*- C++ -*----------------------------------*\
| =========                 |                                                 |
| \\      /  F ield         | OpenFOAM: The Open Source CFD Toolbox           |
|  \\    /   O peration     | Version:  2212                                  |
|   \\  /    A nd           | Website:  www.openfoam.com                      |
|    \\/     M anipulation  |                                                 |
\*---------------------------------------------------------------------------*/
FoamFile
{
    version     2.0;
    format      ascii;
    arch        "LSB;label=64;scalar=64";
    class       volScalarField::Internal;
    location    "750";
    object      dGch4;
}
// * * * * * * * * * * * * * * * * * * * * * * * * * * * * * * * * * * * * * //

dimensions      [1 -3 -1 0 0 0 0];

value           nonuniform List<scalar> 
1024
(
0.00092632
0.000926482
0.00092687
0.000927563
0.000928635
0.000930135
0.000932056
0.000934327
0.000936827
0.00093943
0.00094205
0.000944611
0.000946987
0.000948876
0.00094965
0.000948614
0.00094576
0.000941953
0.000937968
0.000934059
0.00093032
0.00092677
0.000923418
0.000920304
0.0009175
0.000915094
0.000913151
0.000911687
0.000910666
0.000910018
0.000909659
0.000909513
0.000926343
0.000926507
0.000926903
0.000927614
0.000928712
0.000930243
0.000932192
0.000934482
0.000936991
0.000939595
0.000942215
0.000944784
0.000947179
0.000949094
0.000949884
0.000948839
0.000945968
0.00094215
0.000938159
0.000934247
0.000930507
0.000926957
0.000923603
0.00092048
0.000917658
0.000915227
0.000913255
0.000911764
0.000910721
0.000910058
0.000909692
0.000909542
0.000926386
0.000926557
0.000926972
0.000927715
0.000928861
0.000930444
0.000932441
0.000934761
0.00093728
0.000939886
0.000942517
0.000945122
0.000947592
0.000949606
0.000950452
0.000949373
0.000946439
0.000942573
0.000938553
0.000934626
0.000930881
0.000927331
0.000923974
0.000920836
0.000917981
0.000915501
0.000913473
0.000911927
0.000910841
0.000910149
0.000909767
0.00090961
0.000926447
0.000926628
0.000927067
0.000927853
0.000929055
0.0009307
0.000932746
0.000935094
0.00093762
0.000940232
0.000942898
0.000945602
0.00094825
0.000950491
0.000951467
0.000950317
0.000947231
0.000943241
0.000939144
0.000935176
0.000931416
0.000927864
0.000924504
0.000921349
0.000918453
0.000915907
0.0009138
0.000912178
0.00091103
0.000910296
0.000909891
0.000909725
0.000926513
0.000926703
0.000927166
0.000927991
0.000929243
0.000930937
0.000933017
0.000935375
0.000937899
0.000940528
0.000943275
0.000946175
0.000949161
0.000951818
0.000953037
0.000951773
0.000948398
0.000944161
0.000939905
0.000935848
0.000932048
0.000928487
0.000925128
0.000921961
0.000919024
0.000916408
0.000914212
0.000912502
0.000911281
0.000910497
0.000910064
0.000909888
0.000926554
0.000926751
0.000927229
0.000928075
0.00092935
0.000931058
0.000933135
0.000935474
0.000937983
0.000940646
0.000943538
0.000946762
0.000950291
0.000953608
0.00095523
0.000953817
0.000949978
0.000945319
0.000940777
0.000936555
0.000932676
0.000929092
0.000925736
0.000922569
0.000919607
0.000916933
0.000914657
0.000912862
0.00091157
0.000910737
0.000910277
0.000910091
0.000926526
0.000926725
0.000927202
0.000928039
0.000929291
0.000930959
0.000932978
0.000935254
0.000937728
0.000940438
0.000943543
0.000947239
0.000951554
0.000955816
0.00095804
0.000956468
0.000951962
0.000946657
0.000941667
0.000937172
0.000933158
0.000929531
0.000926183
0.000923037
0.000920079
0.000917382
0.000915056
0.000913202
0.000911856
0.000910985
0.000910504
0.00091031
0.00092637
0.000926565
0.000927022
0.000927813
0.000928987
0.000930546
0.000932437
0.000934591
0.000936995
0.000939756
0.000943135
0.00094746
0.00095283
0.000958351
0.000961388
0.000959652
0.000954257
0.000948055
0.000942424
0.000937536
0.000933319
0.000929627
0.000926298
0.000923206
0.0009203
0.000917633
0.000915313
0.000913447
0.000912084
0.000911198
0.000910707
0.000910509
0.00092601
0.000926197
0.000926619
0.00092733
0.000928371
0.000929751
0.000931437
0.0009334
0.000935683
0.000938484
0.000942199
0.000947331
0.000954069
0.000961166
0.000965172
0.000963202
0.000956656
0.000949287
0.000942826
0.000937428
0.000932956
0.000929192
0.000925906
0.000922918
0.000920132
0.000917571
0.000915332
0.00091352
0.00091219
0.000911322
0.000910837
0.00091064
0.000925364
0.000925538
0.000925914
0.000926524
0.000927394
0.000928538
0.000929954
0.000931661
0.000933782
0.000936632
0.000940791
0.000946987
0.000955467
0.000964413
0.000969372
0.000966887
0.000958827
0.000950011
0.000942557
0.000936575
0.000931835
0.000928028
0.000924846
0.00092204
0.000919462
0.000917101
0.000915033
0.000913354
0.000912113
0.000911296
0.000910835
0.000910643
0.000924379
0.000924529
0.000924845
0.00092534
0.000926027
0.000926919
0.000928044
0.000929488
0.000931478
0.000934499
0.000939374
0.00094707
0.000957703
0.000968576
0.000974112
0.000970472
0.000960352
0.000949787
0.00094123
0.000934663
0.000929715
0.000925956
0.000922983
0.00092047
0.000918214
0.000916161
0.000914361
0.000912889
0.000911792
0.000911057
0.000910632
0.000910449
0.000923308
0.000923394
0.000923591
0.000923923
0.000924411
0.000925084
0.000926005
0.000927342
0.000929462
0.000933069
0.000939242
0.000949031
0.000962079
0.000974502
0.000979638
0.000973722
0.0009608
0.000948195
0.000938504
0.000931437
0.000926412
0.000922851
0.000920238
0.00091816
0.000916353
0.000914718
0.000913272
0.000912074
0.000911159
0.000910527
0.000910145
0.000909973
0.000923875
0.00092382
0.000923758
0.000923768
0.000923949
0.00092442
0.000925345
0.00092701
0.000929929
0.000934965
0.000943256
0.000955571
0.000970652
0.000983253
0.000986104
0.000976368
0.000959949
0.000945193
0.000934443
0.000926986
0.00092201
0.000918777
0.00091666
0.000915148
0.000913897
0.000912761
0.000911729
0.000910838
0.000910125
0.000909601
0.000909263
0.000909102
0.000931825
0.000931634
0.000931299
0.000930946
0.000930788
0.000931114
0.000932287
0.000934763
0.000939135
0.000946214
0.000956749
0.000970757
0.000985755
0.00099545
0.000993232
0.000978364
0.000958576
0.000942118
0.000930473
0.000922516
0.000917372
0.000914299
0.000912598
0.000911642
0.000910965
0.000910343
0.000909721
0.000909118
0.000908579
0.000908147
0.000907852
0.000907707
0.000956319
0.000956257
0.00095615
0.000956085
0.000956254
0.00095697
0.000958657
0.000961822
0.000967
0.000974701
0.000985087
0.000997209
0.00100753
0.00101
0.00100069
0.000981769
0.000961154
0.00094447
0.000931884
0.000922452
0.000915791
0.000911546
0.000909198
0.000908082
0.00090755
0.000907172
0.000906794
0.000906439
0.000906187
0.000906075
0.00090607
0.000906098
0.000997729
0.000998015
0.000998583
0.000999425
0.00100058
0.00100214
0.00100433
0.00100743
0.00101171
0.00101725
0.00102363
0.00102931
0.00103104
0.00102559
0.00101343
0.000997941
0.000982931
0.000969364
0.000956704
0.000944712
0.000933751
0.000924206
0.000916567
0.000911104
0.000907832
0.000906552
0.000906923
0.000908475
0.000910643
0.000912837
0.000914543
0.000915438
0.00103553
0.00103595
0.00103681
0.00103806
0.0010397
0.00104172
0.00104413
0.00104693
0.00105003
0.00105318
0.00105592
0.0010576
0.00105777
0.0010568
0.00105599
0.00105633
0.00105772
0.00105812
0.00105611
0.00105158
0.00104487
0.00103653
0.0010275
0.0010187
0.00101097
0.001005
0.00100119
0.000999595
0.000999785
0.00100103
0.00100247
0.00100337
0.00105617
0.00105657
0.00105748
0.001059
0.00106126
0.00106432
0.00106817
0.00107271
0.00107773
0.00108313
0.00108905
0.00109586
0.00110423
0.00111512
0.00112956
0.00114844
0.00117068
0.00119203
0.00120954
0.00122294
0.00123228
0.00123752
0.00123886
0.00123659
0.0012311
0.00122305
0.00121342
0.0012035
0.00119473
0.00118828
0.00118455
0.0011831
0.00106573
0.00106611
0.00106705
0.0010688
0.00107161
0.00107568
0.00108107
0.00108772
0.00109545
0.00110418
0.00111411
0.00112574
0.00113989
0.00115751
0.00117943
0.00120637
0.00123652
0.00126492
0.00128891
0.00130908
0.00132605
0.00133987
0.00135039
0.00135727
0.00136017
0.001359
0.00135411
0.00134652
0.00133786
0.00133002
0.00132453
0.00132195
0.00107076
0.00107112
0.00107206
0.00107386
0.00107685
0.00108131
0.00108742
0.0010952
0.00110449
0.00111514
0.00112721
0.00114104
0.00115725
0.00117652
0.00119938
0.001226
0.00125399
0.0012786
0.00129852
0.00131541
0.00133052
0.00134448
0.00135738
0.00136887
0.00137834
0.00138515
0.00138893
0.0013897
0.00138807
0.00138517
0.00138238
0.00138078
0.00107366
0.00107399
0.00107486
0.00107657
0.00107943
0.00108379
0.0010899
0.00109783
0.00110749
0.00111868
0.0011313
0.00114548
0.00116158
0.00118006
0.00120121
0.00122496
0.00124884
0.00126896
0.00128507
0.00129931
0.00131324
0.00132768
0.00134273
0.00135775
0.00137166
0.00138333
0.001392
0.00139748
0.00140008
0.00140059
0.00140003
0.00139944
0.00107587
0.00107613
0.00107684
0.00107829
0.00108082
0.00108477
0.00109044
0.00109795
0.00110725
0.00111815
0.00113047
0.00114418
0.00115946
0.00117659
0.00119579
0.00121696
0.00123798
0.00125574
0.00127038
0.00128387
0.0012977
0.00131279
0.00132943
0.00134706
0.00136444
0.00137998
0.00139238
0.00140101
0.00140603
0.0014082
0.00140861
0.00140841
0.00107901
0.0010791
0.00107948
0.00108047
0.00108244
0.00108577
0.00109078
0.00109765
0.00110635
0.00111674
0.00112862
0.00114187
0.00115652
0.00117274
0.00119069
0.00121038
0.00123011
0.00124731
0.00126198
0.00127567
0.00128964
0.00130486
0.00132179
0.00134023
0.00135919
0.00137709
0.00139228
0.0014036
0.00141076
0.00141432
0.00141543
0.00141543
0.00108498
0.00108477
0.0010846
0.00108486
0.00108604
0.00108862
0.00109297
0.00109931
0.00110765
0.00111785
0.0011297
0.00114299
0.00115765
0.00117369
0.00119123
0.00121039
0.00122978
0.0012471
0.0012621
0.001276
0.00128988
0.00130467
0.00132095
0.00133879
0.0013576
0.00137614
0.00139277
0.00140597
0.00141491
0.00141977
0.00142156
0.00142174
0.00109582
0.00109515
0.00109419
0.00109353
0.00109383
0.00109573
0.00109972
0.00110602
0.00111462
0.00112529
0.00113774
0.00115166
0.00116685
0.0011832
0.00120074
0.00121966
0.0012388
0.001256
0.00127088
0.00128444
0.00129767
0.00131142
0.00132633
0.00134265
0.00136009
0.00137783
0.00139452
0.00140857
0.00141874
0.00142469
0.00142714
0.00142754
0.00111326
0.00111202
0.00111019
0.00110867
0.00110839
0.00111013
0.00111443
0.00112144
0.00113099
0.00114269
0.0011561
0.00117082
0.00118653
0.00120305
0.00122035
0.00123866
0.00125697
0.0012733
0.00128727
0.0012998
0.00131176
0.00132393
0.00133691
0.00135105
0.00136632
0.00138227
0.00139787
0.00141173
0.00142244
0.00142918
0.00143222
0.00143284
0.00113851
0.00113667
0.00113422
0.00113247
0.00113249
0.00113501
0.00114047
0.00114879
0.00115956
0.00117224
0.00118631
0.0012013
0.00121688
0.00123284
0.00124914
0.00126602
0.00128262
0.00129723
0.00130957
0.00132046
0.00133069
0.00134089
0.0013516
0.0013632
0.00137581
0.00138927
0.00140294
0.00141572
0.0014262
0.00143329
0.0014368
0.00143765
0.00117229
0.00117002
0.00116774
0.00116699
0.00116856
0.00117283
0.0011799
0.00118943
0.00120089
0.00121373
0.00122744
0.00124163
0.00125599
0.00127035
0.0012847
0.00129925
0.00131332
0.00132554
0.00133574
0.00134463
0.00135285
0.00136091
0.00136926
0.00137822
0.00138799
0.0013986
0.00140975
0.00142069
0.00143023
0.00143716
0.00144091
0.00144197
0.00121515
0.00121301
0.00121224
0.00121388
0.00121787
0.00122402
0.00123217
0.00124191
0.0012528
0.00126445
0.00127649
0.00128862
0.00130064
0.00131244
0.00132402
0.00133556
0.00134655
0.00135599
0.00136379
0.00137052
0.00137667
0.00138261
0.00138868
0.00139514
0.00140217
0.00140988
0.00141822
0.00142679
0.00143473
0.00144093
0.00144461
0.0014458
0.0012681
0.00126716
0.00126927
0.00127365
0.00127942
0.00128622
0.00129393
0.0013023
0.00131114
0.00132025
0.00132943
0.0013385
0.00134736
0.00135593
0.00136423
0.00137239
0.00138008
0.00138662
0.001392
0.0013966
0.00140075
0.00140472
0.00140873
0.00141295
0.00141753
0.00142257
0.00142812
0.00143405
0.00143988
0.00144478
0.00144797
0.00144916
0.00133314
0.00133459
0.00133897
0.00134397
0.00134916
0.00135446
0.00135991
0.00136545
0.00137109
0.00137674
0.00138234
0.00138781
0.00139309
0.00139816
0.00140303
0.00140778
0.00141221
0.00141597
0.00141904
0.00142165
0.00142399
0.00142621
0.00142843
0.00143074
0.00143324
0.00143598
0.00143903
0.00144236
0.0014458
0.0014489
0.00145113
0.00145208
0.00141283
0.00141403
0.00141632
0.00141852
0.0014206
0.00142259
0.00142455
0.00142647
0.00142838
0.00143027
0.00143212
0.00143392
0.00143565
0.0014373
0.00143888
0.00144041
0.00144184
0.00144304
0.00144402
0.00144486
0.0014456
0.0014463
0.001447
0.00144772
0.0014485
0.00144935
0.00145029
0.00145133
0.00145242
0.00145346
0.00145426
0.00145466
)
;


// ************************************************************************* //
