/*--------------------------------*- C++ -*----------------------------------*\
| =========                 |                                                 |
| \\      /  F ield         | OpenFOAM: The Open Source CFD Toolbox           |
|  \\    /   O peration     | Version:  2212                                  |
|   \\  /    A nd           | Website:  www.openfoam.com                      |
|    \\/     M anipulation  |                                                 |
\*---------------------------------------------------------------------------*/
FoamFile
{
    version     2.0;
    format      ascii;
    arch        "LSB;label=64;scalar=64";
    class       volScalarField::Internal;
    location    "750";
    object      dGco2;
}
// * * * * * * * * * * * * * * * * * * * * * * * * * * * * * * * * * * * * * //

dimensions      [1 -3 -1 0 0 0 0];

value           nonuniform List<scalar> 
1024
(
0.000147369
0.000147406
0.000147482
0.000147615
0.000147819
0.000148103
0.000148466
0.000148894
0.000149365
0.000149856
0.000150349
0.000150831
0.000151279
0.000151634
0.00015178
0.000151585
0.000151048
0.000150331
0.000149581
0.000148845
0.00014814
0.000147472
0.000146841
0.000146254
0.000145726
0.000145273
0.000144907
0.000144632
0.000144439
0.000144317
0.00014425
0.000144222
0.000147379
0.000147412
0.000147489
0.000147625
0.000147834
0.000148123
0.000148491
0.000148923
0.000149396
0.000149887
0.00015038
0.000150864
0.000151315
0.000151676
0.000151824
0.000151627
0.000151087
0.000150368
0.000149617
0.00014888
0.000148176
0.000147507
0.000146875
0.000146287
0.000145756
0.000145298
0.000144927
0.000144646
0.00014445
0.000144325
0.000144256
0.000144228
0.000147391
0.000147424
0.000147503
0.000147645
0.000147862
0.000148162
0.000148538
0.000148976
0.000149451
0.000149942
0.000150437
0.000150928
0.000151393
0.000151772
0.000151931
0.000151728
0.000151176
0.000150448
0.000149691
0.000148951
0.000148246
0.000147578
0.000146945
0.000146354
0.000145817
0.00014535
0.000144968
0.000144677
0.000144472
0.000144342
0.00014427
0.000144241
0.000147405
0.000147439
0.000147523
0.000147672
0.000147899
0.00014821
0.000148596
0.000149039
0.000149515
0.000150007
0.000150509
0.000151018
0.000151517
0.000151939
0.000152122
0.000151906
0.000151325
0.000150573
0.000149802
0.000149055
0.000148347
0.000147678
0.000147045
0.000146451
0.000145906
0.000145426
0.00014503
0.000144724
0.000144508
0.00014437
0.000144293
0.000144262
0.000147419
0.000147455
0.000147543
0.000147699
0.000147935
0.000148255
0.000148647
0.000149092
0.000149567
0.000150062
0.00015058
0.000151126
0.000151688
0.000152188
0.000152418
0.00015218
0.000151545
0.000150747
0.000149945
0.000149181
0.000148466
0.000147795
0.000147163
0.000146566
0.000146013
0.000145521
0.000145107
0.000144785
0.000144555
0.000144408
0.000144326
0.000144293
0.000147428
0.000147465
0.000147555
0.000147715
0.000147956
0.000148278
0.00014867
0.00014911
0.000149583
0.000150085
0.000150629
0.000151236
0.000151901
0.000152525
0.000152831
0.000152565
0.000151842
0.000150965
0.00015011
0.000149314
0.000148584
0.000147909
0.000147277
0.000146681
0.000146123
0.00014562
0.000145191
0.000144853
0.00014461
0.000144453
0.000144366
0.000144331
0.000147424
0.000147461
0.000147551
0.000147709
0.000147945
0.00014826
0.00014864
0.000149069
0.000149535
0.000150045
0.00015063
0.000151326
0.000152138
0.000152941
0.00015336
0.000153064
0.000152216
0.000151217
0.000150277
0.000149431
0.000148675
0.000147992
0.000147361
0.000146769
0.000146212
0.000145704
0.000145266
0.000144917
0.000144664
0.0001445
0.000144409
0.000144373
0.000147395
0.000147432
0.000147518
0.000147667
0.000147888
0.000148182
0.000148539
0.000148944
0.000149397
0.000149917
0.000150553
0.000151368
0.000152379
0.000153418
0.00015399
0.000153664
0.000152648
0.00015148
0.00015042
0.000149499
0.000148705
0.00014801
0.000147383
0.000146801
0.000146254
0.000145751
0.000145314
0.000144963
0.000144707
0.00014454
0.000144447
0.00014441
0.000147328
0.000147363
0.000147443
0.000147576
0.000147773
0.000148033
0.00014835
0.00014872
0.00014915
0.000149677
0.000150377
0.000151343
0.000152612
0.000153948
0.000154703
0.000154332
0.000153099
0.000151712
0.000150495
0.000149479
0.000148637
0.000147928
0.000147309
0.000146747
0.000146222
0.00014574
0.000145318
0.000144977
0.000144727
0.000144563
0.000144472
0.000144435
0.000147207
0.000147239
0.00014731
0.000147425
0.000147589
0.000147804
0.000148071
0.000148393
0.000148792
0.000149329
0.000150112
0.000151279
0.000152875
0.00015456
0.000155494
0.000155026
0.000153508
0.000151848
0.000150445
0.000149318
0.000148426
0.000147709
0.00014711
0.000146581
0.000146096
0.000145651
0.000145262
0.000144946
0.000144712
0.000144558
0.000144471
0.000144435
0.000147021
0.000147049
0.000147109
0.000147202
0.000147332
0.0001475
0.000147711
0.000147983
0.000148358
0.000148927
0.000149845
0.000151294
0.000153296
0.000155344
0.000156386
0.000155701
0.000153795
0.000151806
0.000150195
0.000148958
0.000148026
0.000147319
0.000146759
0.000146286
0.000145861
0.000145474
0.000145135
0.000144858
0.000144652
0.000144513
0.000144433
0.000144399
0.00014682
0.000146836
0.000146873
0.000146936
0.000147028
0.000147154
0.000147328
0.000147579
0.000147979
0.000148658
0.00014982
0.000151663
0.00015412
0.00015646
0.000157427
0.000156313
0.00015388
0.000151506
0.000149681
0.000148351
0.000147405
0.000146734
0.000146242
0.000145851
0.00014551
0.000145202
0.00014493
0.000144705
0.000144532
0.000144413
0.000144341
0.000144309
0.000146927
0.000146916
0.000146905
0.000146906
0.000146941
0.000147029
0.000147203
0.000147517
0.000148066
0.000149015
0.000150576
0.000152895
0.000155735
0.000158107
0.000158644
0.000156811
0.000153719
0.000150941
0.000148917
0.000147513
0.000146575
0.000145967
0.000145568
0.000145284
0.000145048
0.000144834
0.00014464
0.000144472
0.000144338
0.000144239
0.000144175
0.000144145
0.000148424
0.000148388
0.000148325
0.000148258
0.000148228
0.00014829
0.000148511
0.000148977
0.0001498
0.000151133
0.000153117
0.000155755
0.000158579
0.000160404
0.000159987
0.000157187
0.000153461
0.000150362
0.000148169
0.000146671
0.000145702
0.000145124
0.000144803
0.000144623
0.000144496
0.000144379
0.000144262
0.000144148
0.000144046
0.000143965
0.00014391
0.000143882
0.000153036
0.000153024
0.000153004
0.000152992
0.000153024
0.000153158
0.000153476
0.000154072
0.000155047
0.000156497
0.000158453
0.000160736
0.00016268
0.000163143
0.000161391
0.000157828
0.000153946
0.000150805
0.000148435
0.000146659
0.000145404
0.000144605
0.000144163
0.000143953
0.000143853
0.000143782
0.00014371
0.000143644
0.000143596
0.000143575
0.000143574
0.000143579
0.000160834
0.000160887
0.000160994
0.000161153
0.00016137
0.000161664
0.000162077
0.00016266
0.000163467
0.000164509
0.000165711
0.00016678
0.000167107
0.000166079
0.000163791
0.000160873
0.000158047
0.000155492
0.000153108
0.00015085
0.000148786
0.000146989
0.000145551
0.000144522
0.000143906
0.000143665
0.000143735
0.000144027
0.000144435
0.000144848
0.000145169
0.000145338
0.000167952
0.000168032
0.000168192
0.000168428
0.000168737
0.000169117
0.000169571
0.000170098
0.000170682
0.000171276
0.000171791
0.000172108
0.00017214
0.000171956
0.000171804
0.000171867
0.00017213
0.000172205
0.000171827
0.000170973
0.00016971
0.00016814
0.00016644
0.000164783
0.000163328
0.000162202
0.000161486
0.000161185
0.000161221
0.000161456
0.000161726
0.000161896
0.000171838
0.000171914
0.000172084
0.000172372
0.000172796
0.000173373
0.000174099
0.000174952
0.000175898
0.000176915
0.000178028
0.000179311
0.000180888
0.000182938
0.000185657
0.000189212
0.000193401
0.00019742
0.000200717
0.00020324
0.000204999
0.000205986
0.000206239
0.000205811
0.000204777
0.000203262
0.000201448
0.000199579
0.000197929
0.000196715
0.000196012
0.00019574
0.000173639
0.000173709
0.000173887
0.000174217
0.000174746
0.000175512
0.000176528
0.000177779
0.000179235
0.000180879
0.000182748
0.000184938
0.000187603
0.00019092
0.000195049
0.00020012
0.000205799
0.000211145
0.000215663
0.000219461
0.000222657
0.000225259
0.00022724
0.000228535
0.000229082
0.000228861
0.000227941
0.000226511
0.000224881
0.000223404
0.00022237
0.000221885
0.000174586
0.000174653
0.00017483
0.00017517
0.000175732
0.000176572
0.000177723
0.000179188
0.000180937
0.000182943
0.000185215
0.000187819
0.000190871
0.0001945
0.000198804
0.000203818
0.000209087
0.000213722
0.000217473
0.000220653
0.000223499
0.000226127
0.000228555
0.000230719
0.000232502
0.000233786
0.000234496
0.000234642
0.000234336
0.000233789
0.000233263
0.000232963
0.000175131
0.000175193
0.000175358
0.000175679
0.000176219
0.00017704
0.000178189
0.000179683
0.000181502
0.000183609
0.000185985
0.000188655
0.000191687
0.000195166
0.000199149
0.000203622
0.000208117
0.000211906
0.00021494
0.000217622
0.000220245
0.000222964
0.000225797
0.000228625
0.000231245
0.000233443
0.000235076
0.000236106
0.000236597
0.000236692
0.000236588
0.000236475
0.000175549
0.000175597
0.000175731
0.000176004
0.00017648
0.000177224
0.000178291
0.000179705
0.000181456
0.000183508
0.000185828
0.000188411
0.000191288
0.000194514
0.000198128
0.000202115
0.000206072
0.000209417
0.000212174
0.000214714
0.000217319
0.00022016
0.000223293
0.000226613
0.000229886
0.000232812
0.000235146
0.000236771
0.000237716
0.000238125
0.000238203
0.000238165
0.000176139
0.000176155
0.000176228
0.000176414
0.000176785
0.000177412
0.000178356
0.000179648
0.000181287
0.000183244
0.00018548
0.000187975
0.000190734
0.000193788
0.000197168
0.000200877
0.000204592
0.000207829
0.000210593
0.00021317
0.000215801
0.000218666
0.000221854
0.000225326
0.000228897
0.000232268
0.000235128
0.000237259
0.000238607
0.000239278
0.000239487
0.000239487
0.000177263
0.000177223
0.000177191
0.000177241
0.000177463
0.000177948
0.000178767
0.000179961
0.000181532
0.000183453
0.000185683
0.000188186
0.000190946
0.000193968
0.00019727
0.000200877
0.000204528
0.00020779
0.000210616
0.000213232
0.000215847
0.000218632
0.000221697
0.000225056
0.000228597
0.000232088
0.00023522
0.000237705
0.000239388
0.000240303
0.00024064
0.000240675
0.000179304
0.000179178
0.000178998
0.000178873
0.000178929
0.000179288
0.000180038
0.000181225
0.000182844
0.000184854
0.000187197
0.00018982
0.000192679
0.000195757
0.00019906
0.000202623
0.000206227
0.000209467
0.000212267
0.00021482
0.000217312
0.000219902
0.00022271
0.000225782
0.000229067
0.000232407
0.000235549
0.000238194
0.00024011
0.000241231
0.000241692
0.000241766
0.000182588
0.000182354
0.00018201
0.000181724
0.000181671
0.000181999
0.000182808
0.000184129
0.000185926
0.000188129
0.000190655
0.000193427
0.000196385
0.000199495
0.000202753
0.000206201
0.000209648
0.000212724
0.000215355
0.000217713
0.000219966
0.000222257
0.000224701
0.000227364
0.00023024
0.000233242
0.00023618
0.000238791
0.000240806
0.000242075
0.000242649
0.000242765
0.000187344
0.000186996
0.000186536
0.000186206
0.000186209
0.000186684
0.000187712
0.000189279
0.000191306
0.000193695
0.000196343
0.000199167
0.0002021
0.000205105
0.000208174
0.000211352
0.000214478
0.00021723
0.000219553
0.000221605
0.00022353
0.000225451
0.000227468
0.000229651
0.000232026
0.00023456
0.000237135
0.000239541
0.000241514
0.000242851
0.000243512
0.000243671
0.000193703
0.000193276
0.000192847
0.000192705
0.000193001
0.000193804
0.000195136
0.000196931
0.000199088
0.000201506
0.000204088
0.000206759
0.000209463
0.000212168
0.00021487
0.000217611
0.00022026
0.000222561
0.000224481
0.000226155
0.000227702
0.000229221
0.000230793
0.00023248
0.00023432
0.000236317
0.000238417
0.000240478
0.000242274
0.000243579
0.000244286
0.000244485
0.000201774
0.00020137
0.000201227
0.000201535
0.000202286
0.000203445
0.00020498
0.000206812
0.000208864
0.000211058
0.000213324
0.000215608
0.000217872
0.000220094
0.000222274
0.000224447
0.000226516
0.000228293
0.000229763
0.000231031
0.000232188
0.000233307
0.00023445
0.000235666
0.00023699
0.000238442
0.000240012
0.000241625
0.000243121
0.000244289
0.00024498
0.000245206
0.000211745
0.000211567
0.000211965
0.000212789
0.000213876
0.000215156
0.000216607
0.000218183
0.000219849
0.000221565
0.000223293
0.000225001
0.000226668
0.000228282
0.000229845
0.000231383
0.00023283
0.000234062
0.000235074
0.000235941
0.000236723
0.000237471
0.000238226
0.000239021
0.000239882
0.000240832
0.000241877
0.000242993
0.00024409
0.000245014
0.000245613
0.000245838
0.000223992
0.000224264
0.000225089
0.000226031
0.000227008
0.000228006
0.000229031
0.000230076
0.000231137
0.000232202
0.000233256
0.000234286
0.00023528
0.000236235
0.000237152
0.000238046
0.00023888
0.000239588
0.000240166
0.000240658
0.000241099
0.000241517
0.000241935
0.00024237
0.00024284
0.000243357
0.000243931
0.000244558
0.000245205
0.00024579
0.000246208
0.000246388
0.000238998
0.000239223
0.000239655
0.000240069
0.00024046
0.000240836
0.000241203
0.000241566
0.000241925
0.000242281
0.00024263
0.000242969
0.000243294
0.000243605
0.000243902
0.000244191
0.000244459
0.000244686
0.000244871
0.000245028
0.000245168
0.0002453
0.000245431
0.000245567
0.000245713
0.000245873
0.00024605
0.000246246
0.000246452
0.000246648
0.000246799
0.000246873
)
;


// ************************************************************************* //
