/*--------------------------------*- C++ -*----------------------------------*\
| =========                 |                                                 |
| \\      /  F ield         | OpenFOAM: The Open Source CFD Toolbox           |
|  \\    /   O peration     | Version:  2212                                  |
|   \\  /    A nd           | Website:  www.openfoam.com                      |
|    \\/     M anipulation  |                                                 |
\*---------------------------------------------------------------------------*/
FoamFile
{
    version     2.0;
    format      ascii;
    arch        "LSB;label=64;scalar=64";
    class       volScalarField;
    location    "750";
    object      Gch4;
}
// * * * * * * * * * * * * * * * * * * * * * * * * * * * * * * * * * * * * * //

dimensions      [1 -3 0 0 0 0 0];

internalField   nonuniform List<scalar> 
1024
(
1.9252
1.92512
1.92493
1.92457
1.92401
1.92323
1.92223
1.92104
1.91974
1.91838
1.91702
1.91569
1.91445
1.91347
1.91308
1.91363
1.91514
1.91714
1.91923
1.92129
1.92325
1.92512
1.92688
1.92851
1.92998
1.93125
1.93227
1.93303
1.93357
1.93391
1.9341
1.93418
1.9252
1.92511
1.92491
1.92454
1.92397
1.92317
1.92216
1.92096
1.91965
1.9183
1.91693
1.9156
1.91435
1.91336
1.91296
1.91352
1.91503
1.91704
1.91913
1.92119
1.92315
1.92502
1.92678
1.92842
1.9299
1.93118
1.93221
1.93299
1.93354
1.93389
1.93408
1.93416
1.92518
1.92509
1.92487
1.92449
1.92389
1.92307
1.92203
1.92082
1.9195
1.91814
1.91677
1.91542
1.91414
1.91309
1.91266
1.91324
1.91478
1.91682
1.91893
1.92099
1.92296
1.92482
1.92659
1.92823
1.92973
1.93103
1.9321
1.93291
1.93348
1.93384
1.93404
1.93412
1.92515
1.92505
1.92483
1.92442
1.92379
1.92293
1.92187
1.92064
1.91932
1.91796
1.91658
1.91517
1.91379
1.91263
1.91214
1.91275
1.91437
1.91647
1.91862
1.92071
1.92268
1.92455
1.92631
1.92796
1.92948
1.93082
1.93193
1.93278
1.93338
1.93376
1.93398
1.93406
1.92512
1.92502
1.92478
1.92435
1.92369
1.92281
1.92172
1.92049
1.91918
1.91781
1.91638
1.91487
1.91332
1.91194
1.91132
1.91199
1.91377
1.91599
1.91823
1.92036
1.92235
1.92422
1.92598
1.92765
1.92919
1.93056
1.93171
1.93261
1.93325
1.93366
1.93389
1.93398
1.9251
1.92499
1.92474
1.9243
1.92364
1.92275
1.92166
1.92044
1.91913
1.91775
1.91624
1.91456
1.91273
1.91101
1.91018
1.91093
1.91295
1.9154
1.91778
1.91999
1.92203
1.92391
1.92567
1.92733
1.92888
1.93029
1.93148
1.93242
1.9331
1.93354
1.93378
1.93387
1.92511
1.92501
1.92476
1.92432
1.92367
1.9228
1.92174
1.92056
1.91927
1.91785
1.91624
1.91432
1.91208
1.90987
1.90872
1.90956
1.91192
1.91471
1.91732
1.91968
1.92178
1.92368
1.92544
1.92709
1.92864
1.93005
1.93127
1.93224
1.93295
1.93341
1.93366
1.93376
1.92519
1.92509
1.92485
1.92444
1.92383
1.92301
1.92203
1.9209
1.91965
1.91821
1.91645
1.9142
1.91141
1.90855
1.90699
1.90791
1.91074
1.91399
1.91694
1.9195
1.92171
1.92364
1.92539
1.927
1.92853
1.92992
1.93114
1.93212
1.93283
1.9333
1.93355
1.93366
1.92538
1.92528
1.92506
1.92469
1.92415
1.92343
1.92255
1.92152
1.92033
1.91887
1.91694
1.91427
1.91077
1.90709
1.90502
1.90607
1.90951
1.91336
1.91675
1.91957
1.92191
1.92388
1.9256
1.92716
1.92862
1.92996
1.93113
1.93208
1.93278
1.93323
1.93349
1.93359
1.92572
1.92563
1.92543
1.92511
1.92466
1.92406
1.92332
1.92243
1.92132
1.91984
1.91767
1.91445
1.91005
1.90541
1.90285
1.90417
1.9084
1.91301
1.91691
1.92004
1.92251
1.9245
1.92617
1.92763
1.92898
1.93021
1.93129
1.93217
1.93282
1.93325
1.93349
1.93359
1.92623
1.92615
1.92599
1.92573
1.92537
1.9249
1.92432
1.92356
1.92252
1.92095
1.91841
1.91441
1.90889
1.90325
1.9004
1.90233
1.90763
1.91315
1.91763
1.92106
1.92364
1.9256
1.92715
1.92846
1.92964
1.93071
1.93165
1.93242
1.93299
1.93338
1.9336
1.93369
1.92679
1.92675
1.92664
1.92647
1.92621
1.92586
1.92538
1.92468
1.92358
1.9217
1.91849
1.9134
1.90662
1.90018
1.89754
1.90066
1.90743
1.91402
1.91908
1.92277
1.92539
1.92725
1.92861
1.92968
1.93062
1.93147
1.93223
1.93285
1.93333
1.93366
1.93386
1.93395
1.92649
1.92652
1.92655
1.92655
1.92645
1.92621
1.92573
1.92486
1.92334
1.92072
1.9164
1.91
1.90217
1.89565
1.89421
1.89933
1.90791
1.91562
1.92123
1.92512
1.92771
1.92939
1.93049
1.93127
1.93192
1.9325
1.93304
1.9335
1.93387
1.93415
1.93432
1.93441
1.92233
1.92243
1.92261
1.92279
1.92288
1.92271
1.9221
1.92081
1.91854
1.91485
1.90938
1.90211
1.89433
1.88934
1.89055
1.89834
1.90867
1.91726
1.92333
1.92747
1.93015
1.93174
1.93262
1.93311
1.93346
1.93378
1.9341
1.93441
1.93469
1.93492
1.93507
1.93515
1.90952
1.90955
1.90961
1.90965
1.90956
1.9092
1.90832
1.90668
1.904
1.90001
1.89463
1.88836
1.88304
1.88183
1.88674
1.89663
1.90738
1.91607
1.92262
1.92752
1.93098
1.93319
1.9344
1.93498
1.93525
1.93544
1.93564
1.93582
1.93595
1.93601
1.93601
1.936
1.88789
1.88775
1.88745
1.88702
1.88643
1.88563
1.88451
1.88292
1.88072
1.87789
1.87462
1.87174
1.87091
1.87382
1.8802
1.88829
1.8961
1.90315
1.90972
1.91594
1.92163
1.92658
1.93055
1.93339
1.93509
1.93575
1.93556
1.93476
1.93364
1.9325
1.93162
1.93116
1.86821
1.86799
1.86756
1.86691
1.86608
1.86506
1.86384
1.86244
1.86089
1.85932
1.85798
1.85718
1.85716
1.85772
1.85817
1.85801
1.85729
1.85709
1.85814
1.8605
1.86398
1.86831
1.87299
1.87756
1.88157
1.88468
1.88666
1.8875
1.88742
1.88678
1.88604
1.88557
1.85749
1.85729
1.85683
1.85606
1.85492
1.85337
1.85142
1.84913
1.84659
1.84386
1.84085
1.83737
1.83307
1.82746
1.82001
1.81025
1.79876
1.78775
1.77874
1.77187
1.76709
1.76442
1.76377
1.76497
1.76783
1.772
1.77699
1.78212
1.78665
1.78998
1.79191
1.79266
1.85251
1.85232
1.85184
1.85095
1.84952
1.84745
1.8447
1.84131
1.83736
1.83289
1.8278
1.82181
1.8145
1.8054
1.79407
1.78016
1.76461
1.75001
1.73771
1.7274
1.71875
1.71172
1.70639
1.70292
1.70147
1.7021
1.70463
1.70854
1.71299
1.71702
1.71984
1.72116
1.84986
1.84968
1.8492
1.84828
1.84676
1.84448
1.84135
1.83737
1.8326
1.82712
1.8209
1.81376
1.80539
1.79542
1.7836
1.76985
1.75543
1.74279
1.7326
1.72402
1.71637
1.70932
1.70283
1.69704
1.69227
1.68884
1.68694
1.68655
1.68738
1.68886
1.69028
1.69109
1.84832
1.84815
1.84771
1.84684
1.84537
1.84314
1.84
1.83593
1.83096
1.82519
1.81868
1.81135
1.80302
1.79345
1.78251
1.77024
1.75793
1.74761
1.73938
1.73215
1.72511
1.71784
1.71026
1.70271
1.69571
1.68983
1.68546
1.6827
1.68138
1.68111
1.68139
1.68168
1.84714
1.84701
1.84665
1.8459
1.84461
1.84258
1.83967
1.8358
1.83101
1.82538
1.81902
1.81192
1.80402
1.79515
1.78522
1.77429
1.76345
1.75434
1.74686
1.74001
1.73301
1.72539
1.71701
1.70813
1.69938
1.69155
1.68531
1.68097
1.67844
1.67734
1.67712
1.67721
1.8455
1.84545
1.84526
1.84475
1.84374
1.84203
1.83945
1.83591
1.83142
1.82606
1.81992
1.81307
1.80549
1.79711
1.78783
1.77767
1.76751
1.75869
1.75119
1.74422
1.73714
1.72945
1.7209
1.71161
1.70205
1.69304
1.68539
1.6797
1.67609
1.67429
1.67373
1.67372
1.84242
1.84253
1.84261
1.84248
1.84187
1.84054
1.8383
1.83503
1.83073
1.82547
1.81936
1.8125
1.80493
1.79665
1.78761
1.77774
1.76777
1.75888
1.75121
1.74413
1.73708
1.72959
1.72137
1.71236
1.70288
1.69354
1.68517
1.67853
1.67403
1.67158
1.67068
1.67058
1.83687
1.83721
1.83769
1.83803
1.83787
1.83689
1.83483
1.83159
1.82717
1.82167
1.81526
1.8081
1.80028
1.79187
1.78284
1.77311
1.76327
1.75446
1.74685
1.73994
1.73321
1.72624
1.71869
1.71045
1.70165
1.69271
1.68431
1.67724
1.67212
1.66913
1.66789
1.66769
1.82796
1.82859
1.82952
1.83029
1.83043
1.82953
1.82732
1.82372
1.81882
1.81281
1.80593
1.79837
1.7903
1.78182
1.77293
1.76353
1.75413
1.74577
1.73862
1.73223
1.72614
1.71997
1.71339
1.70625
1.69854
1.6905
1.68264
1.67566
1.67028
1.66689
1.66536
1.66505
1.81508
1.81602
1.81726
1.81815
1.81813
1.81684
1.81404
1.80978
1.80426
1.79777
1.79057
1.78288
1.7749
1.76672
1.75836
1.7497
1.74119
1.73371
1.7274
1.72184
1.71663
1.71145
1.70602
1.70015
1.69378
1.68699
1.6801
1.67368
1.66841
1.66484
1.66307
1.66265
1.79787
1.79902
1.80018
1.80056
1.79975
1.79757
1.79396
1.78909
1.78323
1.77667
1.76965
1.7624
1.75505
1.74769
1.74034
1.73288
1.72567
1.71941
1.7142
1.70966
1.70547
1.70137
1.69714
1.6926
1.68766
1.68231
1.67669
1.67119
1.66639
1.66291
1.66102
1.66049
1.77604
1.77713
1.77752
1.77668
1.77465
1.77151
1.76735
1.76238
1.75682
1.75087
1.74472
1.73852
1.73237
1.72633
1.7204
1.71449
1.70887
1.70404
1.70004
1.69661
1.69347
1.69045
1.68737
1.6841
1.68054
1.67665
1.67245
1.66814
1.66414
1.66103
1.65918
1.65858
1.74909
1.74957
1.7485
1.74627
1.74332
1.73986
1.73593
1.73166
1.72715
1.7225
1.71781
1.71318
1.70865
1.70427
1.70002
1.69584
1.69191
1.68856
1.68581
1.68346
1.68134
1.67932
1.67728
1.67514
1.67283
1.67028
1.66748
1.6645
1.66157
1.65911
1.65751
1.65691
1.716
1.71526
1.71304
1.71049
1.70785
1.70515
1.70237
1.69954
1.69667
1.69378
1.69093
1.68813
1.68544
1.68284
1.68035
1.67792
1.67565
1.67373
1.67216
1.67082
1.66963
1.6685
1.66737
1.6662
1.66494
1.66355
1.66201
1.66034
1.65861
1.65705
1.65594
1.65546
1.67546
1.67486
1.67369
1.67257
1.67151
1.6705
1.6695
1.66852
1.66755
1.66658
1.66564
1.66472
1.66384
1.66299
1.66218
1.6614
1.66067
1.66005
1.65955
1.65912
1.65875
1.65839
1.65803
1.65767
1.65728
1.65685
1.65637
1.65585
1.6553
1.65478
1.65437
1.65418
)
;

boundaryField
{
    movingWall
    {
        type            fixedValue;
        value           uniform 1.6535;
    }
    fixedWalls
    {
        type            zeroGradient;
    }
    floor
    {
        type            zeroGradient;
    }
    frontAndBack
    {
        type            empty;
    }
}


// ************************************************************************* //
