/*--------------------------------*- C++ -*----------------------------------*\
| =========                 |                                                 |
| \\      /  F ield         | OpenFOAM: The Open Source CFD Toolbox           |
|  \\    /   O peration     | Version:  2212                                  |
|   \\  /    A nd           | Website:  www.openfoam.com                      |
|    \\/     M anipulation  |                                                 |
\*---------------------------------------------------------------------------*/
FoamFile
{
    version     2.0;
    format      ascii;
    arch        "LSB;label=64;scalar=64";
    class       volScalarField;
    location    "750";
    object      SIC;
}
// * * * * * * * * * * * * * * * * * * * * * * * * * * * * * * * * * * * * * //

dimensions      [1 -3 0 0 0 0 0];

internalField   nonuniform List<scalar> 
1024
(
0.0912966
0.091298
0.0913009
0.091306
0.0913137
0.0913246
0.0913384
0.0913547
0.0913727
0.0913914
0.0914102
0.0914286
0.0914456
0.0914592
0.0914648
0.0914574
0.0914369
0.0914096
0.091381
0.091353
0.0913261
0.0913006
0.0912766
0.0912542
0.091234
0.0912168
0.0912028
0.0911923
0.091185
0.0911803
0.0911777
0.0911767
0.091297
0.0912982
0.0913012
0.0913063
0.0913143
0.0913253
0.0913394
0.0913558
0.0913738
0.0913925
0.0914114
0.0914298
0.091447
0.0914607
0.0914664
0.091459
0.0914384
0.091411
0.0913824
0.0913543
0.0913275
0.091302
0.0912779
0.0912555
0.0912352
0.0912177
0.0912036
0.0911928
0.0911853
0.0911806
0.091178
0.0911769
0.0912974
0.0912987
0.0913017
0.0913071
0.0913154
0.0913268
0.0913412
0.0913578
0.0913759
0.0913946
0.0914135
0.0914322
0.0914499
0.0914644
0.0914705
0.0914628
0.0914418
0.091414
0.0913852
0.091357
0.0913301
0.0913047
0.0912805
0.091258
0.0912375
0.0912197
0.0912051
0.091194
0.0911862
0.0911812
0.0911785
0.0911774
0.0912979
0.0912992
0.0913024
0.0913081
0.0913168
0.0913286
0.0913434
0.0913602
0.0913784
0.0913971
0.0914163
0.0914357
0.0914547
0.0914707
0.0914778
0.0914696
0.0914475
0.0914188
0.0913895
0.091361
0.091334
0.0913085
0.0912844
0.0912617
0.0912409
0.0912226
0.0912075
0.0911958
0.0911876
0.0911823
0.0911794
0.0911782
0.0912985
0.0912998
0.0913032
0.0913091
0.0913182
0.0913303
0.0913453
0.0913622
0.0913804
0.0913992
0.091419
0.0914398
0.0914612
0.0914802
0.091489
0.09148
0.0914558
0.0914254
0.0913949
0.0913658
0.0913385
0.091313
0.0912888
0.0912661
0.091245
0.0912262
0.0912104
0.0911981
0.0911894
0.0911837
0.0911806
0.0911794
0.0912988
0.0913002
0.0913037
0.0913098
0.0913189
0.0913312
0.0913462
0.091363
0.091381
0.0914001
0.0914208
0.0914439
0.0914693
0.0914931
0.0915048
0.0914947
0.0914672
0.0914337
0.0914012
0.0913709
0.091343
0.0913173
0.0912932
0.0912704
0.0912492
0.09123
0.0912136
0.0912007
0.0911914
0.0911855
0.0911822
0.0911808
0.0912987
0.0913001
0.0913035
0.0913095
0.0913185
0.0913305
0.091345
0.0913614
0.0913791
0.0913986
0.0914208
0.0914473
0.0914783
0.0915089
0.0915249
0.0915137
0.0914814
0.0914434
0.0914076
0.0913753
0.0913465
0.0913204
0.0912964
0.0912738
0.0912526
0.0912332
0.0912165
0.0912032
0.0911935
0.0911872
0.0911838
0.0911824
0.0912976
0.091299
0.0913023
0.0913079
0.0913164
0.0913276
0.0913412
0.0913566
0.0913739
0.0913937
0.0914179
0.0914489
0.0914874
0.091527
0.0915489
0.0915365
0.0914979
0.0914534
0.091413
0.0913779
0.0913476
0.0913211
0.0912972
0.091275
0.0912541
0.091235
0.0912183
0.0912049
0.0911951
0.0911888
0.0911852
0.0911838
0.091295
0.0912964
0.0912994
0.0913045
0.091312
0.0913219
0.091334
0.0913481
0.0913645
0.0913845
0.0914112
0.0914479
0.0914962
0.0915471
0.091576
0.091562
0.0915151
0.0914623
0.0914159
0.0913771
0.091345
0.091318
0.0912944
0.091273
0.0912529
0.0912345
0.0912185
0.0912054
0.0911959
0.0911897
0.0911862
0.0911848
0.0912904
0.0912916
0.0912943
0.0912987
0.091305
0.0913132
0.0913233
0.0913356
0.0913508
0.0913712
0.091401
0.0914454
0.0915062
0.0915704
0.0916061
0.0915885
0.0915307
0.0914675
0.091414
0.0913711
0.091337
0.0913097
0.0912868
0.0912666
0.0912481
0.0912312
0.0912163
0.0912042
0.0911953
0.0911895
0.0911862
0.0911848
0.0912833
0.0912844
0.0912867
0.0912902
0.0912952
0.0913016
0.0913096
0.09132
0.0913343
0.0913559
0.0913908
0.0914459
0.0915221
0.0916002
0.0916401
0.0916142
0.0915417
0.0914659
0.0914045
0.0913574
0.0913218
0.0912948
0.0912734
0.0912554
0.0912392
0.0912244
0.0912115
0.0912009
0.091193
0.0911878
0.0911847
0.0911834
0.0912756
0.0912763
0.0912777
0.0912801
0.0912836
0.0912884
0.091295
0.0913046
0.0913198
0.0913456
0.0913898
0.0914599
0.0915534
0.0916426
0.0916798
0.0916376
0.091545
0.0914546
0.091385
0.0913343
0.0912981
0.0912725
0.0912537
0.0912388
0.0912258
0.0912141
0.0912037
0.0911951
0.0911885
0.0911839
0.0911812
0.09118
0.0912797
0.0912793
0.0912789
0.0912789
0.0912802
0.0912836
0.0912902
0.0913021
0.091323
0.0913591
0.0914184
0.0915067
0.0916148
0.0917054
0.0917263
0.0916568
0.0915391
0.0914332
0.091356
0.0913024
0.0912666
0.0912433
0.0912281
0.0912172
0.0912082
0.0912
0.0911926
0.0911862
0.0911811
0.0911773
0.0911749
0.0911737
0.0913368
0.0913354
0.091333
0.0913304
0.0913293
0.0913316
0.09134
0.0913577
0.091389
0.0914397
0.0915151
0.0916155
0.0917232
0.091793
0.0917776
0.0916713
0.0915295
0.0914113
0.0913276
0.0912704
0.0912333
0.0912112
0.0911989
0.091192
0.0911871
0.0911826
0.0911782
0.0911738
0.0911699
0.0911668
0.0911647
0.0911637
0.0915126
0.0915122
0.0915114
0.0915109
0.0915121
0.0915172
0.0915292
0.0915518
0.0915889
0.091644
0.0917184
0.0918054
0.0918796
0.0918977
0.0918314
0.091696
0.0915483
0.0914285
0.0913381
0.0912702
0.0912222
0.0911915
0.0911745
0.0911664
0.0911626
0.0911598
0.0911571
0.0911545
0.0911527
0.091152
0.0911519
0.0911521
0.09181
0.091812
0.0918161
0.0918221
0.0918303
0.0918415
0.0918571
0.0918792
0.0919098
0.0919494
0.0919952
0.092036
0.0920487
0.09201
0.0919232
0.0918125
0.0917051
0.091608
0.0915171
0.0914309
0.091352
0.0912833
0.0912282
0.0911888
0.0911651
0.0911558
0.0911584
0.0911696
0.0911851
0.0912009
0.0912132
0.0912196
0.0920813
0.0920843
0.0920904
0.0920994
0.0921111
0.0921255
0.0921427
0.0921626
0.0921848
0.0922074
0.0922271
0.0922394
0.0922409
0.0922344
0.0922291
0.0922322
0.0922429
0.0922464
0.0922323
0.0921999
0.0921518
0.092092
0.092027
0.0919637
0.0919079
0.0918648
0.0918372
0.0918255
0.0918267
0.0918355
0.0918457
0.0918522
0.0922293
0.0922322
0.0922387
0.0922496
0.0922657
0.0922875
0.0923151
0.0923475
0.0923835
0.0924223
0.0924648
0.092514
0.0925745
0.092653
0.0927572
0.0928934
0.0930537
0.0932074
0.0933334
0.0934298
0.0934969
0.0935346
0.0935443
0.0935279
0.0934884
0.0934305
0.0933612
0.0932898
0.0932267
0.0931802
0.0931534
0.0931429
0.092298
0.0923007
0.0923074
0.09232
0.0923401
0.0923691
0.0924077
0.0924553
0.0925107
0.0925734
0.0926447
0.0927284
0.0928303
0.092957
0.0931148
0.0933085
0.0935253
0.0937292
0.0939014
0.0940461
0.0941679
0.094267
0.0943426
0.094392
0.0944129
0.0944045
0.0943695
0.0943151
0.094253
0.0941967
0.0941573
0.0941388
0.0923342
0.0923368
0.0923435
0.0923564
0.0923777
0.0924096
0.0924534
0.0925091
0.0925757
0.0926522
0.0927388
0.0928382
0.0929548
0.0930934
0.0932577
0.0934491
0.09365
0.0938266
0.0939694
0.0940905
0.0941989
0.094299
0.0943916
0.0944741
0.0945422
0.0945912
0.0946184
0.0946241
0.0946125
0.0945917
0.0945717
0.0945603
0.0923551
0.0923574
0.0923637
0.0923759
0.0923964
0.0924276
0.0924713
0.0925282
0.0925974
0.0926777
0.0927683
0.0928702
0.0929859
0.0931187
0.0932707
0.0934414
0.0936128
0.0937571
0.0938726
0.0939747
0.0940746
0.0941783
0.0942863
0.0943942
0.0944942
0.094578
0.0946404
0.0946797
0.0946984
0.0947021
0.0946982
0.0946939
0.0923711
0.0923729
0.092378
0.0923884
0.0924065
0.0924348
0.0924753
0.0925292
0.0925958
0.092674
0.0927625
0.092861
0.0929708
0.0930939
0.0932318
0.0933839
0.0935347
0.0936621
0.0937671
0.0938638
0.0939631
0.0940714
0.0941909
0.0943175
0.0944424
0.094554
0.094643
0.094705
0.0947411
0.0947567
0.0947597
0.0947582
0.0923937
0.0923943
0.0923971
0.0924041
0.0924182
0.0924421
0.092478
0.0925272
0.0925896
0.0926641
0.0927494
0.0928445
0.0929497
0.0930662
0.0931951
0.0933366
0.0934782
0.0936016
0.0937068
0.093805
0.0939053
0.0940145
0.0941361
0.0942685
0.0944047
0.0945333
0.0946423
0.0947236
0.094775
0.0948006
0.0948086
0.0948086
0.0924367
0.0924351
0.0924339
0.0924357
0.0924442
0.0924626
0.0924938
0.0925392
0.0925991
0.0926723
0.0927572
0.0928527
0.0929579
0.0930731
0.093199
0.0933366
0.0934757
0.0936
0.0937078
0.0938075
0.0939071
0.0940133
0.0941302
0.0942583
0.0943933
0.0945265
0.0946459
0.0947406
0.0948048
0.0948397
0.0948526
0.0948539
0.0925145
0.0925098
0.0925029
0.0924981
0.0925002
0.0925138
0.0925424
0.0925876
0.0926492
0.0927258
0.0928151
0.092915
0.093024
0.0931413
0.0932672
0.0934031
0.0935405
0.093664
0.0937708
0.0938681
0.0939631
0.0940618
0.0941689
0.094286
0.0944113
0.0945386
0.0946584
0.0947593
0.0948323
0.0948751
0.0948927
0.0948955
0.0926398
0.0926309
0.0926178
0.0926069
0.0926048
0.0926173
0.0926481
0.0926984
0.0927669
0.0928508
0.092947
0.0930526
0.0931654
0.0932839
0.093408
0.0935395
0.0936709
0.0937882
0.0938885
0.0939784
0.0940643
0.0941517
0.0942448
0.0943464
0.094456
0.0945705
0.0946825
0.094782
0.0948589
0.0949073
0.0949291
0.0949336
0.0928212
0.0928079
0.0927904
0.0927778
0.0927779
0.092796
0.0928352
0.0928949
0.0929721
0.0930631
0.093164
0.0932715
0.0933833
0.0934978
0.0936147
0.0937359
0.093855
0.09396
0.0940486
0.0941268
0.0942002
0.0942734
0.0943504
0.0944336
0.0945242
0.0946208
0.0947189
0.0948106
0.0948859
0.0949368
0.094962
0.0949681
0.0930636
0.0930473
0.093031
0.0930256
0.0930369
0.0930675
0.0931182
0.0931866
0.0932688
0.0933609
0.0934593
0.093561
0.093664
0.0937671
0.09387
0.0939745
0.0940755
0.0941632
0.0942365
0.0943003
0.0943593
0.0944172
0.0944771
0.0945415
0.0946116
0.0946878
0.0947678
0.0948464
0.0949148
0.0949646
0.0949915
0.0949991
0.0933712
0.0933558
0.0933504
0.0933621
0.0933908
0.093435
0.0934935
0.0935633
0.0936415
0.093725
0.0938113
0.0938984
0.0939846
0.0940693
0.0941523
0.0942352
0.094314
0.0943818
0.0944378
0.0944862
0.0945303
0.094573
0.0946166
0.0946629
0.0947134
0.0947688
0.0948286
0.0948901
0.0949471
0.0949917
0.095018
0.0950266
0.0937513
0.0937445
0.0937597
0.0937911
0.0938325
0.0938814
0.0939367
0.0939967
0.0940602
0.0941256
0.0941914
0.0942565
0.09432
0.0943814
0.094441
0.0944996
0.0945548
0.0946017
0.0946403
0.0946734
0.0947032
0.0947317
0.0947605
0.0947908
0.0948237
0.0948599
0.0948997
0.0949423
0.0949841
0.0950193
0.0950422
0.0950507
0.0942181
0.0942285
0.0942599
0.0942958
0.0943331
0.0943711
0.0944102
0.09445
0.0944904
0.094531
0.0945712
0.0946104
0.0946483
0.0946846
0.0947196
0.0947536
0.0947855
0.0948124
0.0948345
0.0948532
0.0948701
0.094886
0.0949019
0.0949185
0.0949364
0.0949561
0.094978
0.0950019
0.0950266
0.0950489
0.0950648
0.0950717
0.09479
0.0947986
0.0948151
0.0948309
0.0948458
0.0948601
0.0948741
0.0948879
0.0949016
0.0949152
0.0949285
0.0949414
0.0949538
0.0949656
0.0949769
0.0949879
0.0949982
0.0950068
0.0950139
0.0950199
0.0950252
0.0950302
0.0950352
0.0950404
0.095046
0.0950521
0.0950588
0.0950663
0.0950741
0.0950816
0.0950874
0.0950902
)
;

boundaryField
{
    movingWall
    {
        type            fixedValue;
        value           uniform 0.0951;
    }
    fixedWalls
    {
        type            zeroGradient;
    }
    floor
    {
        type            zeroGradient;
    }
    frontAndBack
    {
        type            empty;
    }
}


// ************************************************************************* //
