/*--------------------------------*- C++ -*----------------------------------*\
| =========                 |                                                 |
| \\      /  F ield         | OpenFOAM: The Open Source CFD Toolbox           |
|  \\    /   O peration     | Version:  2212                                  |
|   \\  /    A nd           | Website:  www.openfoam.com                      |
|    \\/     M anipulation  |                                                 |
\*---------------------------------------------------------------------------*/
FoamFile
{
    version     2.0;
    format      ascii;
    arch        "LSB;label=64;scalar=64";
    class       volVectorField;
    location    "750";
    object      U;
}
// * * * * * * * * * * * * * * * * * * * * * * * * * * * * * * * * * * * * * //

dimensions      [0 1 -1 0 0 0 0];

internalField   nonuniform List<vector> 
1024
(
(1.89016e-05 -1.94873e-05 0)
(-3.5651e-05 8.08484e-06 0)
(-0.000252752 3.59754e-05 0)
(-0.000603826 4.45957e-05 0)
(-0.00102474 4.28127e-05 0)
(-0.00147996 4.10318e-05 0)
(-0.00197132 4.2119e-05 0)
(-0.00250765 4.40475e-05 0)
(-0.00307706 4.40496e-05 0)
(-0.00363095 3.99035e-05 0)
(-0.00405943 2.84239e-05 0)
(-0.00416366 5.61305e-06 0)
(-0.00363101 -3.0925e-05 0)
(-0.00227293 -5.92152e-05 0)
(-0.000198254 -5.53263e-05 0)
(0.00142271 -2.91641e-05 0)
(0.00224152 -1.12578e-05 0)
(0.00254755 -1.41828e-06 0)
(0.00257137 3.73627e-06 0)
(0.00247015 6.54899e-06 0)
(0.0023081 8.63786e-06 0)
(0.00211148 1.06587e-05 0)
(0.00189266 1.24708e-05 0)
(0.00166286 1.38352e-05 0)
(0.0014303 1.49884e-05 0)
(0.0011947 1.70285e-05 0)
(0.000946778 2.13111e-05 0)
(0.000679496 2.7469e-05 0)
(0.000406696 3.13557e-05 0)
(0.000171888 2.56682e-05 0)
(2.69768e-05 6.83019e-06 0)
(-1.07516e-05 -1.10057e-05 0)
(-1.33595e-05 3.6799e-05 0)
(-0.000312218 0.000270324 0)
(-0.000992967 0.000479243 0)
(-0.00199814 0.000562421 0)
(-0.00318711 0.000555522 0)
(-0.00447082 0.000523362 0)
(-0.00582257 0.000494128 0)
(-0.00722401 0.000460826 0)
(-0.00861108 0.000405352 0)
(-0.0098373 0.000310083 0)
(-0.0106287 0.000155813 0)
(-0.0105555 -7.78327e-05 0)
(-0.00897189 -0.000373467 0)
(-0.005562 -0.000611324 0)
(-0.000335268 -0.000584093 0)
(0.00383541 -0.000337957 0)
(0.00605341 -0.000150821 0)
(0.00698182 -4.5553e-05 0)
(0.00716241 1.62685e-05 0)
(0.00698059 5.53956e-05 0)
(0.00660235 8.61937e-05 0)
(0.00610371 0.000115315 0)
(0.00552275 0.000143585 0)
(0.00488961 0.000170372 0)
(0.00422617 0.000198252 0)
(0.0035371 0.000234733 0)
(0.00281188 0.000285976 0)
(0.00204905 0.000342315 0)
(0.00129101 0.000368176 0)
(0.000635909 0.000316878 0)
(0.000196692 0.000177876 0)
(8.39896e-06 2.6469e-05 0)
(-6.33909e-05 0.000322925 0)
(-0.000695404 0.0010207 0)
(-0.00189353 0.0015337 0)
(-0.00354249 0.00172648 0)
(-0.00543665 0.00169091 0)
(-0.00744362 0.00156955 0)
(-0.00949025 0.00143021 0)
(-0.0115039 0.00126542 0)
(-0.0133583 0.00104006 0)
(-0.0148306 0.000718235 0)
(-0.015552 0.000263118 0)
(-0.0149763 -0.000361961 0)
(-0.0123853 -0.00109406 0)
(-0.00754606 -0.00169052 0)
(-0.000228763 -0.00162693 0)
(0.00574506 -0.000971532 0)
(0.00915371 -0.000462357 0)
(0.0107443 -0.00016959 0)
(0.0112194 1.09523e-05 0)
(0.0110958 0.000132137 0)
(0.0106273 0.000230672 0)
(0.00993295 0.00032498 0)
(0.0090755 0.000419132 0)
(0.0081009 0.000513127 0)
(0.00704316 0.000613384 0)
(0.00591804 0.000735456 0)
(0.00472819 0.000888621 0)
(0.00348982 0.00104382 0)
(0.00226843 0.0011146 0)
(0.00119403 0.000993581 0)
(0.000427404 0.000649044 0)
(3.724e-05 0.0002004 0)
(-0.000111206 0.000933059 0)
(-0.00106701 0.00244217 0)
(-0.00274987 0.00337942 0)
(-0.00495995 0.00367298 0)
(-0.00741802 0.00353694 0)
(-0.00994849 0.00321926 0)
(-0.0124305 0.00283992 0)
(-0.0147388 0.00240026 0)
(-0.0167011 0.00185442 0)
(-0.0180581 0.00115051 0)
(-0.0184101 0.000234036 0)
(-0.017172 -0.000938095 0)
(-0.0137797 -0.00222764 0)
(-0.00814344 -0.00327351 0)
(0.000106944 -0.00315592 0)
(0.00698623 -0.00194892 0)
(0.0112937 -0.000989206 0)
(0.0135196 -0.000419298 0)
(0.0144022 -5.16976e-05 0)
(0.0144728 0.000207856 0)
(0.014057 0.000423909 0)
(0.0133016 0.000633847 0)
(0.0122872 0.000848417 0)
(0.0110705 0.00106999 0)
(0.00969584 0.00130933 0)
(0.00819362 0.00158841 0)
(0.00658741 0.00191528 0)
(0.00491524 0.0022336 0)
(0.00325984 0.00239138 0)
(0.00177358 0.00219347 0)
(0.000668606 0.00154566 0)
(6.58664e-05 0.000569667 0)
(-0.000141658 0.00189683 0)
(-0.00130997 0.00458551 0)
(-0.00331615 0.00605419 0)
(-0.00589194 0.00640341 0)
(-0.00868959 0.00605108 0)
(-0.0114879 0.00538824 0)
(-0.0141249 0.00460508 0)
(-0.0164403 0.00372573 0)
(-0.0182428 0.002704 0)
(-0.0192744 0.00147672 0)
(-0.0191478 -2.81608e-05 0)
(-0.0173205 -0.00183239 0)
(-0.0134487 -0.00371778 0)
(-0.00755419 -0.00521924 0)
(0.000651044 -0.00501157 0)
(0.00759883 -0.00320817 0)
(0.0124231 -0.00173582 0)
(0.0151373 -0.000827518 0)
(0.0164311 -0.000217822 0)
(0.0167927 0.000235005 0)
(0.0165511 0.000621947 0)
(0.0158675 0.00100488 0)
(0.0148285 0.00140544 0)
(0.0134943 0.00183058 0)
(0.0119152 0.00229471 0)
(0.0101355 0.00282196 0)
(0.00820001 0.00341311 0)
(0.00616865 0.00397832 0)
(0.00414084 0.00428742 0)
(0.00229103 0.00402271 0)
(0.000882985 0.00296499 0)
(9.08584e-05 0.00118051 0)
(-0.000140273 0.00313063 0)
(-0.00132867 0.00730647 0)
(-0.00339703 0.00942197 0)
(-0.00606369 0.00979872 0)
(-0.00893915 0.00911462 0)
(-0.0117578 0.0079492 0)
(-0.0143222 0.00659412 0)
(-0.0164535 0.0051166 0)
(-0.017965 0.00348241 0)
(-0.0186257 0.00162286 0)
(-0.0180724 -0.000548783 0)
(-0.0159172 -0.00301141 0)
(-0.0118787 -0.00549105 0)
(-0.00610501 -0.00738827 0)
(0.00140322 -0.00702406 0)
(0.0078354 -0.0046589 0)
(0.0127463 -0.0026707 0)
(0.0156817 -0.0013958 0)
(0.0172492 -0.000514672 0)
(0.0178924 0.000170596 0)
(0.0178758 0.000776278 0)
(0.0173526 0.00138939 0)
(0.0163998 0.00204645 0)
(0.0150702 0.00276127 0)
(0.0134131 0.00355057 0)
(0.0114809 0.00443545 0)
(0.0093348 0.00540189 0)
(0.00705478 0.00631755 0)
(0.0047597 0.00685641 0)
(0.00264859 0.00653766 0)
(0.00102748 0.00495151 0)
(0.000107025 0.0020519 0)
(-0.000104808 0.00442816 0)
(-0.00110219 0.0102518 0)
(-0.00294337 0.0131594 0)
(-0.00540817 0.013616 0)
(-0.00811194 0.012547 0)
(-0.0107525 0.0107601 0)
(-0.0130993 0.00869434 0)
(-0.0149635 0.00649119 0)
(-0.0161774 0.00414429 0)
(-0.0165489 0.00158618 0)
(-0.0157342 -0.00128177 0)
(-0.0134827 -0.00441911 0)
(-0.00949229 -0.00749057 0)
(-0.00407061 -0.00966923 0)
(0.00236901 -0.00906121 0)
(0.00801256 -0.00621077 0)
(0.012625 -0.00372918 0)
(0.0154711 -0.00208162 0)
(0.0170754 -0.000924731 0)
(0.0178594 3.75386e-06 0)
(0.0180169 0.000857697 0)
(0.0176646 0.00174643 0)
(0.0168531 0.00272441 0)
(0.0156158 0.00381441 0)
(0.0139909 0.00503384 0)
(0.0120302 0.00639519 0)
(0.0098039 0.00785982 0)
(0.00740879 0.00923697 0)
(0.00498601 0.0100781 0)
(0.00276025 0.00969843 0)
(0.00106215 0.007451 0)
(0.000108585 0.00314993 0)
(-4.84408e-05 0.00551183 0)
(-0.000693674 0.0129168 0)
(-0.00205638 0.0167803 0)
(-0.00405092 0.0174953 0)
(-0.00636442 0.0161131 0)
(-0.00867925 0.0136749 0)
(-0.0107317 0.010822 0)
(-0.0123206 0.00781506 0)
(-0.0132957 0.00469798 0)
(-0.0134954 0.00140927 0)
(-0.0125575 -0.00217395 0)
(-0.0103292 -0.00601795 0)
(-0.00651981 -0.00967406 0)
(-0.00161052 -0.0119518 0)
(0.0035292 -0.011036 0)
(0.00833603 -0.00778708 0)
(0.0123777 -0.00483076 0)
(0.0148803 -0.00280922 0)
(0.0162876 -0.00138177 0)
(0.0169973 -0.000226062 0)
(0.0171964 0.000878196 0)
(0.0169453 0.0020652 0)
(0.0162615 0.00340982 0)
(0.0151491 0.00494617 0)
(0.0136263 0.00669131 0)
(0.0117346 0.00864285 0)
(0.00954505 0.0107237 0)
(0.00716799 0.0126592 0)
(0.00476806 0.0138417 0)
(0.00259278 0.0133478 0)
(0.000972744 0.010289 0)
(9.38007e-05 0.00437433 0)
(9.1244e-06 0.00611666 0)
(-0.000215436 0.0147386 0)
(-0.000926624 0.0196673 0)
(-0.00221693 0.0209475 0)
(-0.00393229 0.0195025 0)
(-0.00578791 0.016529 0)
(-0.00749522 0.0129084 0)
(-0.00882652 0.00907803 0)
(-0.00962671 0.00516715 0)
(-0.00973417 0.00112811 0)
(-0.00869706 -0.00320838 0)
(-0.00653213 -0.00779204 0)
(-0.00303796 -0.0119678 0)
(0.00107686 -0.0141053 0)
(0.00493742 -0.0128852 0)
(0.00884061 -0.00931157 0)
(0.0121378 -0.00589393 0)
(0.0141424 -0.00349561 0)
(0.0152035 -0.00179828 0)
(0.0156819 -0.000432664 0)
(0.0157673 0.000900251 0)
(0.0155045 0.00238046 0)
(0.0148827 0.00410911 0)
(0.0138761 0.00613634 0)
(0.0124772 0.00847923 0)
(0.0107104 0.0111133 0)
(0.0086422 0.0139029 0)
(0.0063939 0.0164529 0)
(0.00415325 0.0179518 0)
(0.00218225 0.017222 0)
(0.000780592 0.0131909 0)
(6.6966e-05 0.00557513 0)
(4.98717e-05 0.00609065 0)
(0.000207246 0.0152203 0)
(0.000199475 0.0210915 0)
(-0.000202976 0.0233126 0)
(-0.00107269 0.0222706 0)
(-0.00226441 0.0190888 0)
(-0.0035249 0.0148539 0)
(-0.00458723 0.0102488 0)
(-0.00524556 0.00555689 0)
(-0.00528961 0.000766485 0)
(-0.00408883 -0.00441661 0)
(-0.00205021 -0.00970845 0)
(0.00092509 -0.0141943 0)
(0.003824 -0.0159659 0)
(0.00658916 -0.0145223 0)
(0.00942235 -0.0106767 0)
(0.0118395 -0.00683241 0)
(0.0132656 -0.00406771 0)
(0.0139303 -0.002101 0)
(0.014128 -0.000531401 0)
(0.0140162 0.00100879 0)
(0.0136571 0.00276012 0)
(0.013028 0.00486404 0)
(0.0120836 0.00739662 0)
(0.0107945 0.010378 0)
(0.00916819 0.0137526 0)
(0.00726712 0.0172979 0)
(0.0052253 0.0204495 0)
(0.00325241 0.0221474 0)
(0.00160941 0.0209825 0)
(0.000529097 0.015832 0)
(3.55344e-05 0.00659071 0)
(7.38089e-05 0.0054195 0)
(0.000512263 0.0141813 0)
(0.00108972 0.0204899 0)
(0.00156723 0.0236106 0)
(0.00172815 0.0235157 0)
(0.00150983 0.0208724 0)
(0.00101392 0.0166005 0)
(0.000458835 0.0114864 0)
(9.08695e-05 0.00599658 0)
(0.000188122 0.000184716 0)
(0.0013715 -0.00593199 0)
(0.00306807 -0.0116202 0)
(0.00499951 -0.0158422 0)
(0.00674025 -0.0174108 0)
(0.00831162 -0.0157868 0)
(0.00986931 -0.0117193 0)
(0.0112625 -0.00753843 0)
(0.0120608 -0.00446092 0)
(0.0123488 -0.00224748 0)
(0.0123126 -0.000478756 0)
(0.012027 0.00125954 0)
(0.0115691 0.00326215 0)
(0.0109095 0.00572388 0)
(0.00999513 0.00875931 0)
(0.00878683 0.0123942 0)
(0.00728779 0.0165282 0)
(0.00556863 0.0208116 0)
(0.00378591 0.0244508 0)
(0.00216932 0.0261103 0)
(0.000951942 0.0242405 0)
(0.000258494 0.0178807 0)
(5.58632e-06 0.00727987 0)
(7.69998e-05 0.00418444 0)
(0.000663912 0.0115995 0)
(0.00164159 0.017638 0)
(0.0028112 0.0213332 0)
(0.00391026 0.022229 0)
(0.00476364 0.0205283 0)
(0.0053259 0.0168458 0)
(0.005674 0.0118737 0)
(0.00595305 0.00613024 0)
(0.0065111 -0.000206707 0)
(0.00728784 -0.00679141 0)
(0.00827113 -0.012678 0)
(0.00914593 -0.0168321 0)
(0.00962734 -0.0181774 0)
(0.00976589 -0.0163838 0)
(0.00981773 -0.0121991 0)
(0.010036 -0.00786415 0)
(0.0101773 -0.00461016 0)
(0.0101588 -0.00222806 0)
(0.0100016 -0.000300197 0)
(0.00965237 0.00162749 0)
(0.00917753 0.00387706 0)
(0.00852316 0.00669931 0)
(0.00762864 0.0102541 0)
(0.0064649 0.0145544 0)
(0.00506466 0.0194246 0)
(0.00353831 0.0243316 0)
(0.00208289 0.0281919 0)
(0.000938379 0.0294206 0)
(0.000255564 0.0265294 0)
(3.33474e-08 0.0189907 0)
(-1.64184e-05 0.00751566 0)
(6.27121e-05 0.00263519 0)
(0.000646893 0.00788 0)
(0.00176515 0.0128069 0)
(0.00331154 0.0164641 0)
(0.00505266 0.0180904 0)
(0.00677216 0.0174471 0)
(0.00832415 0.0147684 0)
(0.00964648 0.010522 0)
(0.0107508 0.00516413 0)
(0.0118591 -0.00105514 0)
(0.0126045 -0.00746733 0)
(0.0129682 -0.0130743 0)
(0.0127482 -0.0168448 0)
(0.0117907 -0.0178422 0)
(0.010282 -0.0159078 0)
(0.00863261 -0.0117938 0)
(0.0075737 -0.00761392 0)
(0.00707785 -0.00445318 0)
(0.00687659 -0.00205961 0)
(0.00676011 -3.51954e-06 0)
(0.00651334 0.002066 0)
(0.00611921 0.00454624 0)
(0.00551267 0.00773463 0)
(0.00460654 0.0118463 0)
(0.00341644 0.0168477 0)
(0.00210704 0.022397 0)
(0.000894235 0.0276502 0)
(-3.71386e-06 0.0311875 0)
(-0.000436123 0.0313262 0)
(-0.000456275 0.0271751 0)
(-0.000254963 0.0188179 0)
(-4.17115e-05 0.00721835 0)
(3.88828e-05 0.00111126 0)
(0.000484376 0.00380207 0)
(0.00145782 0.00687352 0)
(0.00298025 0.00968057 0)
(0.00492003 0.0114327 0)
(0.0070887 0.0115872 0)
(0.00930627 0.0100105 0)
(0.0114343 0.00688364 0)
(0.0133867 0.00252382 0)
(0.0150007 -0.00280144 0)
(0.0158222 -0.00810248 0)
(0.0156445 -0.0126343 0)
(0.0143484 -0.0155455 0)
(0.0118896 -0.0159763 0)
(0.00867622 -0.0139191 0)
(0.00525871 -0.010122 0)
(0.00299571 -0.00658105 0)
(0.00196475 -0.00398461 0)
(0.00177475 -0.00199134 0)
(0.00181876 -9.68503e-05 0)
(0.00157127 0.00211341 0)
(0.00115813 0.00494887 0)
(0.000509944 0.00876573 0)
(-0.000378015 0.0139157 0)
(-0.00130724 0.0196359 0)
(-0.00204542 0.0252423 0)
(-0.0024163 0.0297475 0)
(-0.00233277 0.0319054 0)
(-0.00184885 0.0305952 0)
(-0.00115182 0.0254278 0)
(-0.00049174 0.0169115 0)
(-6.2924e-05 0.00621217 0)
(1.24038e-05 8.19913e-05 0)
(0.000281057 0.000597118 0)
(0.000966172 0.00151645 0)
(0.00219541 0.00267602 0)
(0.00398126 0.0036421 0)
(0.00621698 0.0038663 0)
(0.00869846 0.00295672 0)
(0.0111619 0.00083562 0)
(0.0133118 -0.0022108 0)
(0.0147648 -0.00542658 0)
(0.0151232 -0.00856421 0)
(0.014133 -0.0112216 0)
(0.0117351 -0.012743 0)
(0.00781748 -0.0122713 0)
(0.00315483 -0.010078 0)
(-0.0018909 -0.00676187 0)
(-0.00480143 -0.00471564 0)
(-0.00631125 -0.00321332 0)
(-0.00687931 -0.00163008 0)
(-0.00722822 0.00040964 0)
(-0.00745889 0.0030209 0)
(-0.00763853 0.00639929 0)
(-0.00775107 0.0106881 0)
(-0.00769671 0.0157288 0)
(-0.00739639 0.0209225 0)
(-0.00677065 0.0254654 0)
(-0.00578618 0.0284245 0)
(-0.00449648 0.0288816 0)
(-0.00305512 0.0262611 0)
(-0.00168939 0.0206885 0)
(-0.000646846 0.0130263 0)
(-6.75319e-05 0.00449727 0)
(1.74286e-05 -0.000725298 0)
(0.000241794 -0.00209175 0)
(0.000744096 -0.00335056 0)
(0.00158316 -0.00436799 0)
(0.00275714 -0.00507335 0)
(0.00419903 -0.0055092 0)
(0.00576036 -0.00581331 0)
(0.00720749 -0.00615372 0)
(0.00823528 -0.00665602 0)
(0.0085057 -0.00732703 0)
(0.00770939 -0.00805107 0)
(0.00558022 -0.00852065 0)
(0.00208293 -0.0081516 0)
(-0.00357756 -0.00612824 0)
(-0.0087212 -0.00434598 0)
(-0.0132647 -0.003176 0)
(-0.0168207 -0.00249453 0)
(-0.0191988 -0.00186105 0)
(-0.0203951 -0.0009583 0)
(-0.0206301 0.00049677 0)
(-0.0200013 0.00265865 0)
(-0.0188164 0.00556897 0)
(-0.0171623 0.00914711 0)
(-0.0151351 0.0131031 0)
(-0.012847 0.0168919 0)
(-0.0104148 0.0198012 0)
(-0.0079522 0.0210872 0)
(-0.00558146 0.0201952 0)
(-0.00345645 0.0170462 0)
(-0.00175212 0.01223 0)
(-0.000614755 0.00686124 0)
(-6.13152e-05 0.00202588 0)
(2.71534e-05 -0.00167937 0)
(0.000125257 -0.00436542 0)
(0.00024918 -0.00640026 0)
(0.000323247 -0.00767448 0)
(0.000259681 -0.00818868 0)
(-4.79649e-05 -0.008037 0)
(-0.000711636 -0.00734197 0)
(-0.00181039 -0.00621585 0)
(-0.00346196 -0.00471736 0)
(-0.00601704 -0.00295265 0)
(-0.00943085 -0.00144156 0)
(-0.0135573 -0.000335037 0)
(-0.0180399 0.000479341 0)
(-0.0223865 0.000989154 0)
(-0.0263869 0.00120355 0)
(-0.0299922 0.00124453 0)
(-0.0329585 0.00100975 0)
(-0.0347508 0.000593589 0)
(-0.0352222 0.000254446 0)
(-0.0344237 0.000216368 0)
(-0.0324294 0.000708801 0)
(-0.0294192 0.00184927 0)
(-0.025544 0.00362303 0)
(-0.021057 0.00586135 0)
(-0.016302 0.00819646 0)
(-0.0116783 0.0100621 0)
(-0.0075797 0.0107648 0)
(-0.00430205 0.00991333 0)
(-0.00200375 0.00780882 0)
(-0.000680407 0.00508544 0)
(-0.000114151 0.00253524 0)
(1.59057e-05 0.000638271 0)
(-5.01344e-05 -0.00118546 0)
(-0.000482902 -0.00285026 0)
(-0.00137829 -0.00368369 0)
(-0.00277385 -0.00350729 0)
(-0.00461547 -0.00241526 0)
(-0.00682419 -0.000775314 0)
(-0.00931545 0.000990549 0)
(-0.0119925 0.00258718 0)
(-0.0147239 0.00384289 0)
(-0.0173073 0.00462639 0)
(-0.0198875 0.00505473 0)
(-0.0225866 0.00517861 0)
(-0.025476 0.00506318 0)
(-0.0285609 0.00477507 0)
(-0.0317773 0.0042792 0)
(-0.0349562 0.00350105 0)
(-0.0377654 0.00223933 0)
(-0.0395215 0.000476927 0)
(-0.0399195 -0.00152958 0)
(-0.0391583 -0.00368516 0)
(-0.0373832 -0.00588349 0)
(-0.0345447 -0.00796686 0)
(-0.0306901 -0.00976485 0)
(-0.0259825 -0.0110371 0)
(-0.0207205 -0.011472 0)
(-0.0153143 -0.0107281 0)
(-0.0102214 -0.00854326 0)
(-0.00590657 -0.00513752 0)
(-0.00275703 -0.00155494 0)
(-0.000905195 0.00100114 0)
(-0.000129337 0.00181901 0)
(2.51753e-05 0.0010302 0)
(-4.84762e-05 0.000962432 0)
(-0.000546972 0.00274699 0)
(-0.00154447 0.00433743 0)
(-0.0030276 0.00556888 0)
(-0.00484853 0.00642382 0)
(-0.00685087 0.00702601 0)
(-0.00893588 0.00750331 0)
(-0.011071 0.0079081 0)
(-0.0132561 0.00824161 0)
(-0.0154879 0.00849625 0)
(-0.0177647 0.00864267 0)
(-0.0200673 0.00861095 0)
(-0.022389 0.00835469 0)
(-0.0247482 0.00787021 0)
(-0.0271545 0.00714144 0)
(-0.0295346 0.0060823 0)
(-0.0316828 0.00442445 0)
(-0.0331573 0.00203005 0)
(-0.0337875 -0.000857239 0)
(-0.0335655 -0.00408999 0)
(-0.0327667 -0.00762797 0)
(-0.0312972 -0.0114572 0)
(-0.0290984 -0.0154335 0)
(-0.0261584 -0.0192158 0)
(-0.0225465 -0.0222622 0)
(-0.0184156 -0.0238928 0)
(-0.0139972 -0.023413 0)
(-0.0096057 -0.0203589 0)
(-0.00564881 -0.0149043 0)
(-0.00259012 -0.00834067 0)
(-0.000761704 -0.00288973 0)
(-4.44028e-05 -0.00010347 0)
(-3.22418e-05 0.00201836 0)
(-0.000337516 0.00541752 0)
(-0.000960407 0.00817689 0)
(-0.00193288 0.0101468 0)
(-0.00321664 0.0113497 0)
(-0.00474114 0.0119612 0)
(-0.0064206 0.012197 0)
(-0.00817511 0.0122105 0)
(-0.009944 0.0120776 0)
(-0.0116857 0.0118319 0)
(-0.013372 0.0114839 0)
(-0.01498 0.0110188 0)
(-0.0164987 0.0104125 0)
(-0.0179372 0.00963655 0)
(-0.019316 0.0086437 0)
(-0.0206283 0.00731625 0)
(-0.0217885 0.00533543 0)
(-0.022615 0.00252312 0)
(-0.0231859 -0.000805768 0)
(-0.0234538 -0.00440935 0)
(-0.023645 -0.00841307 0)
(-0.02362 -0.0130278 0)
(-0.0232096 -0.0182467 0)
(-0.0222249 -0.0237893 0)
(-0.0205246 -0.0290683 0)
(-0.0180442 -0.033251 0)
(-0.0148362 -0.035309 0)
(-0.0111023 -0.0341815 0)
(-0.00721278 -0.0291584 0)
(-0.00371054 -0.0206105 0)
(-0.00123689 -0.0107572 0)
(-8.83539e-05 -0.00269364 0)
(-6.61521e-06 0.00259643 0)
(-0.000141879 0.00697274 0)
(-0.000467256 0.0105549 0)
(-0.00103951 0.0131327 0)
(-0.0018651 0.014673 0)
(-0.00290702 0.0153373 0)
(-0.00409284 0.0153898 0)
(-0.00533607 0.0150713 0)
(-0.00655583 0.0145386 0)
(-0.00768647 0.0138777 0)
(-0.00867972 0.0131291 0)
(-0.00950317 0.0123037 0)
(-0.0101438 0.0113988 0)
(-0.0106107 0.010393 0)
(-0.0109289 0.00923094 0)
(-0.0111215 0.00778966 0)
(-0.0111698 0.00578587 0)
(-0.0111187 0.00308322 0)
(-0.0113103 -0.000168341 0)
(-0.0119093 -0.00361672 0)
(-0.0127595 -0.00744397 0)
(-0.0138219 -0.0120751 0)
(-0.0148907 -0.0176867 0)
(-0.0156716 -0.0241841 0)
(-0.0158824 -0.0310751 0)
(-0.0152709 -0.0375563 0)
(-0.0136853 -0.0424286 0)
(-0.0111436 -0.0441481 0)
(-0.00789386 -0.0411219 0)
(-0.00445585 -0.0324544 0)
(-0.00164054 -0.0193676 0)
(-0.00014209 -0.00581188 0)
(4.98626e-06 0.00271745 0)
(-1.24203e-05 0.00746034 0)
(-0.00011695 0.0115161 0)
(-0.000375215 0.0145704 0)
(-0.000825046 0.0164625 0)
(-0.0014495 0.0172657 0)
(-0.00217793 0.0172368 0)
(-0.00291306 0.0166753 0)
(-0.003561 0.0158168 0)
(-0.00404894 0.0148132 0)
(-0.00432943 0.0137467 0)
(-0.00437138 0.0126505 0)
(-0.00416698 0.0115314 0)
(-0.00373382 0.010373 0)
(-0.00310622 0.00911405 0)
(-0.00232413 0.00761139 0)
(-0.00142814 0.00560493 0)
(-0.000737615 0.0030455 0)
(-0.000318097 0.00011102 0)
(-0.00129761 -0.00282669 0)
(-0.00249116 -0.00613182 0)
(-0.00410295 -0.0102536 0)
(-0.00600816 -0.0155297 0)
(-0.00799279 -0.0221614 0)
(-0.00974472 -0.0298106 0)
(-0.0108871 -0.0378792 0)
(-0.0110633 -0.0452203 0)
(-0.0100438 -0.0500149 0)
(-0.00785983 -0.0499388 0)
(-0.00489566 -0.0427673 0)
(-0.00199785 -0.0280104 0)
(-0.000198942 -0.00930654 0)
(8.45559e-06 0.0026647 0)
(4.12288e-05 0.00746125 0)
(5.21127e-05 0.0117206 0)
(-8.18481e-06 0.0150701 0)
(-0.000177991 0.0172275 0)
(-0.000449235 0.0181541 0)
(-0.000754983 0.0180694 0)
(-0.00099267 0.0173101 0)
(-0.0010646 0.0161834 0)
(-0.000903273 0.0149051 0)
(-0.000475085 0.0135958 0)
(0.000248889 0.0122849 0)
(0.00124663 0.0110226 0)
(0.00248871 0.00978317 0)
(0.00392601 0.00848937 0)
(0.00550271 0.00696624 0)
(0.00702512 0.00501601 0)
(0.0079888 0.00270281 0)
(0.00826478 0.000348051 0)
(0.0073488 -0.00207783 0)
(0.00599895 -0.00487204 0)
(0.00424038 -0.00833115 0)
(0.00214794 -0.0128121 0)
(-0.000374237 -0.0190275 0)
(-0.00305908 -0.0266496 0)
(-0.00554432 -0.0354009 0)
(-0.00737033 -0.0444763 0)
(-0.00802423 -0.0520496 0)
(-0.00721565 -0.0553163 0)
(-0.00507193 -0.0508506 0)
(-0.0023382 -0.0360609 0)
(-0.000266877 -0.0129955 0)
(3.47894e-06 0.00258811 0)
(1.57947e-05 0.00734947 0)
(2.40895e-05 0.0116716 0)
(2.68074e-05 0.0151291 0)
(2.9585e-05 0.0173822 0)
(5.36297e-05 0.0183278 0)
(0.000159753 0.0181406 0)
(0.000443321 0.0171787 0)
(0.000985127 0.0158147 0)
(0.00182527 0.0143203 0)
(0.0029695 0.012843 0)
(0.00441132 0.01143 0)
(0.00611583 0.0101152 0)
(0.0080499 0.00886888 0)
(0.010152 0.00761069 0)
(0.0123469 0.00615999 0)
(0.014274 0.00439631 0)
(0.0153535 0.00246227 0)
(0.0155067 0.000568391 0)
(0.0146056 -0.00143357 0)
(0.0131616 -0.0038143 0)
(0.0112864 -0.00684234 0)
(0.00907866 -0.0107983 0)
(0.00651564 -0.0160063 0)
(0.00358979 -0.0226728 0)
(0.0003505 -0.031204 0)
(-0.00280682 -0.0411266 0)
(-0.00515072 -0.0508196 0)
(-0.00597286 -0.0573635 0)
(-0.00499395 -0.0564139 0)
(-0.00270336 -0.0431574 0)
(-0.000363085 -0.0168413 0)
(-1.38119e-05 0.00261268 0)
(-0.000117299 0.00741457 0)
(-0.000248944 0.0117179 0)
(-0.000314666 0.0150818 0)
(-0.000225992 0.0172017 0)
(6.72918e-05 0.0179957 0)
(0.000615456 0.0176051 0)
(0.00147693 0.0164237 0)
(0.00268302 0.0148735 0)
(0.00422002 0.0132475 0)
(0.00605889 0.0116953 0)
(0.0081692 0.0102628 0)
(0.010511 0.00896794 0)
(0.0130506 0.00777656 0)
(0.0157214 0.00660992 0)
(0.0184308 0.00530063 0)
(0.0206906 0.00378832 0)
(0.0219294 0.00223544 0)
(0.0221499 0.000754432 0)
(0.0213931 -0.000834065 0)
(0.0200334 -0.00278754 0)
(0.0181651 -0.00535309 0)
(0.0158448 -0.00879868 0)
(0.0130881 -0.0134027 0)
(0.00991959 -0.0193429 0)
(0.00636808 -0.0268027 0)
(0.00253593 -0.0359314 0)
(-0.00134257 -0.0468748 0)
(-0.00400173 -0.0562747 0)
(-0.00457925 -0.0592936 0)
(-0.00310415 -0.0490057 0)
(-0.000517092 -0.0208879 0)
(-5.73818e-05 0.00287357 0)
(-0.000430337 0.00791755 0)
(-0.000863881 0.0121196 0)
(-0.00110563 0.0151249 0)
(-0.000956806 0.0168204 0)
(-0.000363452 0.0172571 0)
(0.000716844 0.016561 0)
(0.00224 0.0151559 0)
(0.004168 0.0134848 0)
(0.00642248 0.0118181 0)
(0.0089459 0.0102807 0)
(0.0116994 0.00890392 0)
(0.0146485 0.00768828 0)
(0.0177652 0.0065963 0)
(0.0209847 0.0055559 0)
(0.024205 0.00442341 0)
(0.0268507 0.00317623 0)
(0.0283809 0.00196358 0)
(0.0288591 0.000830802 0)
(0.0284107 -0.00040064 0)
(0.0273087 -0.00196197 0)
(0.0256051 -0.00406255 0)
(0.023302 -0.00693744 0)
(0.0203856 -0.0108318 0)
(0.0168632 -0.0159587 0)
(0.012788 -0.0225347 0)
(0.00828179 -0.0307626 0)
(0.00351622 -0.040835 0)
(-0.00103589 -0.052204 0)
(-0.00360769 -0.0593168 0)
(-0.003465 -0.0532664 0)
(-0.000760303 -0.025171 0)
(-0.000164008 0.00358118 0)
(-0.00106605 0.00912132 0)
(-0.00195338 0.013012 0)
(-0.0023877 0.0152875 0)
(-0.00209377 0.0162383 0)
(-0.0010707 0.0161198 0)
(0.000711176 0.0150446 0)
(0.00302161 0.0134501 0)
(0.00574912 0.0117467 0)
(0.00876936 0.0101323 0)
(0.0120136 0.00868787 0)
(0.0154479 0.00742479 0)
(0.0190488 0.0063299 0)
(0.0227947 0.00536538 0)
(0.0266237 0.0044696 0)
(0.0304297 0.00352694 0)
(0.0335676 0.00253512 0)
(0.0355159 0.0016147 0)
(0.0363828 0.000769395 0)
(0.0363508 -0.000162248 0)
(0.0355932 -0.00136959 0)
(0.0341289 -0.00301605 0)
(0.0319144 -0.00529441 0)
(0.0288941 -0.00841642 0)
(0.0250378 -0.0126007 0)
(0.0203769 -0.0180974 0)
(0.015029 -0.0252163 0)
(0.00920206 -0.0343534 0)
(0.00326527 -0.0455578 0)
(-0.00166145 -0.0562562 0)
(-0.00355638 -0.0555059 0)
(-0.00109427 -0.0296265 0)
(-0.000404308 0.00508449 0)
(-0.00220919 0.0112392 0)
(-0.00356548 0.0143146 0)
(-0.0039911 0.0153854 0)
(-0.00326849 0.015313 0)
(-0.00152216 0.0145065 0)
(0.00125706 0.0130327 0)
(0.00452708 0.0113503 0)
(0.00818771 0.00971872 0)
(0.0120932 0.00824072 0)
(0.0161767 0.00695183 0)
(0.0204095 0.00584624 0)
(0.0247708 0.0049033 0)
(0.0292362 0.0040884 0)
(0.0337392 0.00335176 0)
(0.0381671 0.00260657 0)
(0.0418156 0.00185818 0)
(0.0441849 0.00119081 0)
(0.0454306 0.000584554 0)
(0.0457827 -9.07214e-05 0)
(0.0453182 -0.000973464 0)
(0.0440487 -0.00218413 0)
(0.0419086 -0.00386906 0)
(0.0388113 -0.00619736 0)
(0.0346841 -0.00936711 0)
(0.0295048 -0.0136409 0)
(0.0233361 -0.0194009 0)
(0.0163552 -0.0272161 0)
(0.00893534 -0.0376877 0)
(0.00192853 -0.0499095 0)
(-0.00290608 -0.055189 0)
(-0.00143159 -0.0340888 0)
(-0.000854741 0.00792688 0)
(-0.0038891 0.014211 0)
(-0.00529145 0.0155344 0)
(-0.00504725 0.0149432 0)
(-0.00324175 0.0137298 0)
(-0.00016166 0.0122056 0)
(0.00395007 0.0104768 0)
(0.00842602 0.00886347 0)
(0.0132204 0.00741079 0)
(0.0181826 0.00614626 0)
(0.0232411 0.00507137 0)
(0.0283569 0.00416905 0)
(0.0334963 0.00341583 0)
(0.0386212 0.00278157 0)
(0.0436576 0.00222717 0)
(0.0484885 0.00169241 0)
(0.0523989 0.00118101 0)
(0.0549546 0.000739313 0)
(0.0563681 0.00033849 0)
(0.0568887 -0.000109553 0)
(0.0565396 -0.000694407 0)
(0.0553411 -0.00150058 0)
(0.0532234 -0.0026282 0)
(0.0500841 -0.00419667 0)
(0.0458163 -0.00636065 0)
(0.0403312 -0.00935552 0)
(0.0335856 -0.0135763 0)
(0.0256305 -0.0196949 0)
(0.0167304 -0.028695 0)
(0.00760714 -0.0410098 0)
(-0.00066727 -0.0515171 0)
(-0.00148248 -0.0380715 0)
(-0.00161621 0.0129679 0)
(-0.00543636 0.0172688 0)
(-0.00524638 0.0155873 0)
(-0.00275929 0.0131884 0)
(0.00147036 0.0109509 0)
(0.00655256 0.00904658 0)
(0.012219 0.00738535 0)
(0.0180997 0.00600504 0)
(0.0240867 0.00484531 0)
(0.0300458 0.00388288 0)
(0.0358947 0.00309602 0)
(0.0415819 0.00245955 0)
(0.0470683 0.00194815 0)
(0.0523188 0.00153505 0)
(0.0572757 0.00118988 0)
(0.0618452 0.000874714 0)
(0.0654131 0.000587274 0)
(0.0676787 0.000343646 0)
(0.0688898 0.000119929 0)
(0.0692635 -0.000129658 0)
(0.0688318 -0.000455736 0)
(0.0676104 -0.00091113 0)
(0.0655271 -0.00155387 0)
(0.0624753 -0.00245418 0)
(0.0583306 -0.00371118 0)
(0.0529517 -0.00549645 0)
(0.0461736 -0.00814118 0)
(0.037824 -0.0122932 0)
(0.0278386 -0.0191127 0)
(0.016505 -0.0300308 0)
(0.00438929 -0.0434077 0)
(-0.000170868 -0.0395527 0)
(-0.0012477 0.0182322 0)
(-0.00301993 0.0181428 0)
(0.00341797 0.0126856 0)
(0.0106953 0.00941385 0)
(0.017991 0.00709624 0)
(0.0251289 0.00534842 0)
(0.032124 0.00402541 0)
(0.0388263 0.00304155 0)
(0.0451738 0.00229382 0)
(0.0511052 0.00172491 0)
(0.0565879 0.00129562 0)
(0.0616173 0.000974133 0)
(0.0662056 0.000734305 0)
(0.0703715 0.000553679 0)
(0.0741158 0.000411586 0)
(0.0774032 0.000288792 0)
(0.0798444 0.000180177 0)
(0.0812958 8.6884e-05 0)
(0.081968 -1.33378e-06 0)
(0.0819959 -0.000100265 0)
(0.0814356 -0.000232251 0)
(0.0802743 -0.000422172 0)
(0.0784358 -0.000694553 0)
(0.0758199 -0.00107935 0)
(0.0723087 -0.00162289 0)
(0.0677464 -0.00241711 0)
(0.0618907 -0.00366759 0)
(0.0543425 -0.00583896 0)
(0.0444829 -0.00991177 0)
(0.0315315 -0.0175907 0)
(0.0154533 -0.0297387 0)
(0.00630326 -0.0334203 0)
(0.0207782 0.011329 0)
(0.0271312 0.00925724 0)
(0.0401885 0.00540805 0)
(0.0508638 0.00328962 0)
(0.058957 0.00206044 0)
(0.0654252 0.00128116 0)
(0.0707711 0.000788716 0)
(0.0752178 0.000487776 0)
(0.0789381 0.000303296 0)
(0.0820601 0.000190267 0)
(0.0846881 0.000121392 0)
(0.0869125 7.94041e-05 0)
(0.0888093 5.354e-05 0)
(0.0904374 3.70074e-05 0)
(0.0918303 2.51296e-05 0)
(0.0929906 1.51117e-05 0)
(0.0937914 5.66032e-06 0)
(0.094196 -3.77012e-06 0)
(0.0942829 -1.33298e-05 0)
(0.0941044 -2.45376e-05 0)
(0.0936816 -4.11926e-05 0)
(0.092983 -6.72975e-05 0)
(0.0919521 -0.000106028 0)
(0.0905258 -0.000161517 0)
(0.0886315 -0.000241045 0)
(0.0861619 -0.000361672 0)
(0.082909 -0.000567715 0)
(0.0784257 -0.000973077 0)
(0.0717377 -0.00185924 0)
(0.0608152 -0.0039733 0)
(0.0432523 -0.0091823 0)
(0.0285852 -0.0145211 0)
)
;

boundaryField
{
    movingWall
    {
        type            fixedValue;
        value           uniform (0.1 0 0);
    }
    fixedWalls
    {
        type            noSlip;
    }
    floor
    {
        type            noSlip;
    }
    frontAndBack
    {
        type            empty;
    }
}


// ************************************************************************* //
