/*--------------------------------*- C++ -*----------------------------------*\
| =========                 |                                                 |
| \\      /  F ield         | OpenFOAM: The Open Source CFD Toolbox           |
|  \\    /   O peration     | Version:  2212                                  |
|   \\  /    A nd           | Website:  www.openfoam.com                      |
|    \\/     M anipulation  |                                                 |
\*---------------------------------------------------------------------------*/
FoamFile
{
    version     2.0;
    format      ascii;
    arch        "LSB;label=64;scalar=64";
    class       volScalarField;
    location    "750";
    object      Xpr;
}
// * * * * * * * * * * * * * * * * * * * * * * * * * * * * * * * * * * * * * //

dimensions      [1 -3 0 0 0 0 0];

internalField   nonuniform List<scalar> 
1024
(
0.0817525
0.0817535
0.0817557
0.0817593
0.0817648
0.0817726
0.0817824
0.081794
0.0818068
0.08182
0.0818332
0.081846
0.0818578
0.081867
0.0818703
0.0818643
0.0818488
0.0818285
0.0818073
0.0817866
0.0817668
0.0817481
0.0817304
0.081714
0.0816993
0.0816867
0.0816765
0.0816688
0.0816634
0.08166
0.0816582
0.0816574
0.0817528
0.0817537
0.0817559
0.0817596
0.0817652
0.0817731
0.0817831
0.0817948
0.0818076
0.0818208
0.0818341
0.0818469
0.0818588
0.0818681
0.0818715
0.0818654
0.0818499
0.0818295
0.0818083
0.0817876
0.0817678
0.0817491
0.0817314
0.0817149
0.0817001
0.0816874
0.081677
0.0816692
0.0816637
0.0816602
0.0816583
0.0816575
0.0817532
0.0817541
0.0817563
0.0817601
0.081766
0.0817742
0.0817844
0.0817963
0.0818091
0.0818223
0.0818356
0.0818486
0.0818609
0.0818707
0.0818743
0.0818681
0.0818522
0.0818316
0.0818103
0.0817895
0.0817697
0.081751
0.0817333
0.0817168
0.0817018
0.0816888
0.0816781
0.08167
0.0816643
0.0816607
0.0816587
0.0816579
0.0817536
0.0817545
0.0817568
0.0817608
0.081767
0.0817755
0.081786
0.081798
0.0818108
0.0818241
0.0818375
0.0818511
0.0818642
0.0818751
0.0818794
0.0818728
0.0818562
0.0818349
0.0818133
0.0817923
0.0817724
0.0817537
0.081736
0.0817194
0.0817042
0.0816909
0.0816798
0.0816713
0.0816653
0.0816615
0.0816593
0.0816585
0.081754
0.081755
0.0817573
0.0817616
0.081768
0.0817767
0.0817874
0.0817994
0.0818123
0.0818256
0.0818395
0.081854
0.0818689
0.0818819
0.0818873
0.08188
0.0818619
0.0818395
0.081817
0.0817956
0.0817756
0.0817568
0.0817392
0.0817226
0.0817072
0.0816934
0.081682
0.081673
0.0816666
0.0816625
0.0816602
0.0816593
0.0817542
0.0817552
0.0817577
0.0817621
0.0817686
0.0817774
0.081788
0.0818
0.0818128
0.0818263
0.0818409
0.0818571
0.0818747
0.0818909
0.0818983
0.0818902
0.0818697
0.0818451
0.0818212
0.081799
0.0817786
0.0817598
0.0817422
0.0817256
0.0817101
0.0816961
0.0816842
0.0816748
0.0816681
0.0816637
0.0816613
0.0816603
0.0817541
0.0817552
0.0817576
0.0817619
0.0817683
0.0817769
0.0817873
0.0817989
0.0818115
0.0818253
0.081841
0.0818596
0.0818811
0.0819021
0.0819124
0.0819032
0.0818793
0.0818514
0.0818252
0.0818017
0.0817807
0.0817618
0.0817443
0.0817279
0.0817124
0.0816984
0.0816862
0.0816765
0.0816695
0.081665
0.0816625
0.0816614
0.0817534
0.0817544
0.0817567
0.0817608
0.0817668
0.0817748
0.0817845
0.0817956
0.0818079
0.0818219
0.081839
0.0818608
0.0818876
0.0819148
0.081929
0.0819188
0.0818902
0.0818578
0.0818284
0.081803
0.081781
0.0817618
0.0817445
0.0817285
0.0817134
0.0816995
0.0816874
0.0816777
0.0816706
0.081666
0.0816635
0.0816624
0.0817516
0.0817525
0.0817547
0.0817584
0.0817637
0.0817708
0.0817795
0.0817895
0.0818012
0.0818155
0.0818344
0.0818603
0.081894
0.081929
0.0819478
0.0819361
0.0819014
0.081863
0.0818295
0.0818015
0.0817784
0.0817589
0.081742
0.0817266
0.0817122
0.081699
0.0816874
0.081678
0.0816711
0.0816666
0.0816641
0.081663
0.0817483
0.0817492
0.0817511
0.0817543
0.0817587
0.0817646
0.0817719
0.0817807
0.0817916
0.0818062
0.0818273
0.0818586
0.081901
0.0819452
0.0819684
0.0819537
0.0819112
0.0818654
0.0818268
0.081796
0.0817716
0.0817521
0.0817359
0.0817215
0.0817084
0.0816963
0.0816856
0.081677
0.0816706
0.0816663
0.0816639
0.0816629
0.0817433
0.0817441
0.0817457
0.0817482
0.0817518
0.0817564
0.0817622
0.0817696
0.0817799
0.0817953
0.0818201
0.081859
0.0819122
0.0819658
0.0819915
0.0819705
0.0819172
0.0818625
0.0818185
0.0817848
0.0817596
0.0817405
0.0817255
0.0817128
0.0817014
0.081691
0.0816819
0.0816744
0.0816687
0.0816649
0.0816627
0.0816618
0.0817379
0.0817383
0.0817393
0.081741
0.0817435
0.081747
0.0817518
0.0817587
0.0817696
0.081788
0.0818194
0.0818689
0.0819341
0.081995
0.0820181
0.081985
0.0819174
0.0818523
0.0818027
0.0817667
0.0817413
0.0817234
0.0817105
0.0817002
0.0816913
0.0816832
0.0816759
0.0816699
0.0816652
0.081662
0.08166
0.0816591
0.081741
0.0817407
0.0817404
0.0817404
0.0817413
0.0817438
0.0817485
0.0817571
0.081772
0.0817978
0.0818398
0.0819019
0.0819769
0.082038
0.0820487
0.0819958
0.0819104
0.0818347
0.08178
0.0817423
0.0817174
0.0817015
0.0816912
0.081684
0.0816781
0.0816726
0.0816676
0.0816632
0.0816596
0.0816569
0.0816552
0.0816543
0.0817824
0.0817814
0.0817796
0.0817778
0.0817769
0.0817785
0.0817845
0.0817971
0.0818193
0.0818552
0.0819083
0.0819783
0.0820519
0.0820972
0.0820814
0.0820024
0.0819003
0.0818164
0.0817576
0.0817179
0.0816925
0.0816777
0.0816698
0.0816655
0.0816626
0.0816598
0.0816569
0.0816539
0.0816512
0.081649
0.0816475
0.0816467
0.0819087
0.0819084
0.0819078
0.0819073
0.0819081
0.0819116
0.0819199
0.0819357
0.0819616
0.0819999
0.0820512
0.0821102
0.0821586
0.0821661
0.0821142
0.0820151
0.0819095
0.0818253
0.0817625
0.0817159
0.0816834
0.081663
0.081652
0.081647
0.0816448
0.0816432
0.0816415
0.0816398
0.0816385
0.0816378
0.0816377
0.0816378
0.0821206
0.082122
0.0821247
0.0821288
0.0821342
0.0821417
0.082152
0.0821667
0.0821869
0.0822127
0.0822419
0.0822664
0.08227
0.0822373
0.0821717
0.0820909
0.0820143
0.0819462
0.0818835
0.0818245
0.081771
0.0817246
0.0816875
0.0816611
0.0816453
0.0816392
0.081641
0.0816485
0.081659
0.0816697
0.0816779
0.0816823
0.0823113
0.0823133
0.0823173
0.0823231
0.0823305
0.0823394
0.0823498
0.0823614
0.0823739
0.0823858
0.082395
0.0823986
0.0823947
0.0823857
0.082378
0.0823766
0.082381
0.082381
0.0823697
0.0823464
0.0823128
0.0822717
0.0822275
0.0821845
0.0821469
0.0821179
0.0820994
0.0820917
0.0820926
0.0820987
0.0821056
0.08211
0.082414
0.0824158
0.0824198
0.0824265
0.0824364
0.0824497
0.0824663
0.0824857
0.0825072
0.0825303
0.0825558
0.0825857
0.0826234
0.0826736
0.0827413
0.0828303
0.0829354
0.0830356
0.083117
0.0831785
0.0832205
0.0832432
0.0832476
0.0832351
0.0832078
0.0831687
0.0831223
0.0830749
0.083033
0.0830024
0.0829846
0.0829777
0.0824625
0.0824641
0.0824683
0.0824761
0.0824887
0.082507
0.0825313
0.0825614
0.0825966
0.0826365
0.0826824
0.0827368
0.0828036
0.0828874
0.082992
0.0831203
0.0832631
0.0833962
0.0835068
0.0835982
0.0836738
0.0837343
0.0837795
0.0838082
0.0838191
0.0838117
0.0837877
0.0837517
0.083711
0.0836744
0.0836487
0.0836368
0.082489
0.0824906
0.0824948
0.082503
0.0825166
0.0825372
0.0825654
0.0826015
0.0826449
0.082695
0.0827521
0.082818
0.0828957
0.0829883
0.0830981
0.0832255
0.0833582
0.0834731
0.0835637
0.0836382
0.0837028
0.0837612
0.0838143
0.0838614
0.0839001
0.0839278
0.0839431
0.0839457
0.0839382
0.0839253
0.0839129
0.0839058
0.0825052
0.0825066
0.0825106
0.0825184
0.0825316
0.0825519
0.0825805
0.0826179
0.0826637
0.0827171
0.0827775
0.0828458
0.0829236
0.0830129
0.0831149
0.083229
0.0833425
0.0834364
0.0835093
0.0835713
0.0836301
0.0836897
0.0837512
0.0838124
0.083869
0.0839166
0.0839522
0.0839748
0.0839859
0.0839883
0.0839864
0.083984
0.0825176
0.0825187
0.0825219
0.0825286
0.0825404
0.082559
0.0825858
0.0826215
0.082666
0.0827183
0.0827778
0.0828441
0.0829182
0.0830011
0.0830939
0.0831956
0.0832955
0.0833782
0.0834445
0.0835035
0.0835623
0.0836251
0.0836938
0.0837662
0.0838373
0.0839008
0.0839515
0.0839868
0.0840076
0.0840169
0.084019
0.0840185
0.0825335
0.0825339
0.0825357
0.0825403
0.0825496
0.0825654
0.0825892
0.0826221
0.0826639
0.0827139
0.0827712
0.0828352
0.082906
0.0829843
0.0830707
0.0831648
0.0832581
0.083338
0.0834045
0.0834648
0.0835249
0.0835891
0.0836596
0.0837359
0.0838139
0.0838873
0.0839494
0.0839957
0.084025
0.0840399
0.0840448
0.084045
0.0825616
0.0825607
0.08256
0.0825614
0.0825671
0.0825795
0.0826003
0.0826306
0.0826706
0.0827194
0.0827762
0.0828399
0.08291
0.0829868
0.0830704
0.0831612
0.0832521
0.0833321
0.0834002
0.0834618
0.0835221
0.0835852
0.0836536
0.083728
0.0838058
0.083882
0.0839501
0.084004
0.0840405
0.0840605
0.0840681
0.0840691
0.082611
0.082608
0.0826039
0.0826011
0.0826029
0.0826122
0.0826312
0.0826612
0.0827018
0.0827523
0.0828112
0.082877
0.0829487
0.0830259
0.0831086
0.0831974
0.0832865
0.0833656
0.083433
0.0834934
0.0835513
0.0836104
0.0836736
0.083742
0.0838145
0.0838877
0.0839562
0.0840136
0.084055
0.0840793
0.0840895
0.0840913
0.0826893
0.0826838
0.0826758
0.0826693
0.0826684
0.0826769
0.0826971
0.0827299
0.0827743
0.0828288
0.0828913
0.0829599
0.0830331
0.0831102
0.0831908
0.083276
0.0833607
0.0834355
0.0834988
0.0835547
0.0836074
0.0836601
0.0837154
0.083775
0.0838387
0.0839047
0.0839689
0.0840256
0.0840691
0.0840965
0.084109
0.0841117
0.0828018
0.0827937
0.0827829
0.0827754
0.0827758
0.0827877
0.0828128
0.082851
0.0829004
0.0829586
0.0830233
0.0830923
0.0831642
0.0832379
0.0833133
0.0833913
0.0834677
0.0835344
0.0835903
0.0836391
0.0836843
0.0837287
0.0837746
0.0838237
0.0838765
0.0839324
0.0839887
0.084041
0.0840836
0.0841124
0.0841266
0.0841302
0.0829516
0.0829416
0.0829316
0.0829284
0.0829357
0.0829551
0.0829871
0.0830303
0.0830823
0.0831406
0.0832031
0.0832679
0.0833336
0.0833995
0.0834655
0.0835324
0.0835969
0.0836526
0.0836988
0.0837387
0.0837751
0.0838104
0.0838463
0.0838844
0.0839255
0.0839697
0.0840157
0.0840605
0.0840993
0.0841273
0.0841424
0.0841468
0.083141
0.0831316
0.0831283
0.0831356
0.0831535
0.083181
0.0832176
0.0832613
0.0833104
0.0833629
0.0834174
0.0834725
0.0835272
0.0835811
0.0836341
0.083687
0.0837373
0.0837803
0.0838157
0.0838459
0.0838732
0.0838993
0.0839256
0.0839531
0.0839828
0.084015
0.0840495
0.0840846
0.0841168
0.0841418
0.0841566
0.0841614
0.0833745
0.0833703
0.0833796
0.083399
0.0834246
0.0834548
0.0834892
0.0835266
0.0835662
0.0836072
0.0836486
0.0836896
0.0837298
0.0837688
0.0838067
0.0838441
0.0838792
0.083909
0.0839334
0.0839541
0.0839726
0.0839901
0.0840075
0.0840255
0.0840449
0.084066
0.084089
0.0841133
0.084137
0.0841567
0.0841694
0.0841742
0.0836606
0.0836669
0.0836862
0.0837083
0.0837312
0.0837547
0.0837789
0.0838036
0.0838288
0.0838541
0.0838793
0.083904
0.0839279
0.083951
0.0839732
0.0839949
0.0840151
0.0840323
0.0840462
0.084058
0.0840684
0.0840782
0.0840878
0.0840978
0.0841084
0.0841199
0.0841325
0.0841462
0.0841601
0.0841726
0.0841815
0.0841853
0.0840106
0.0840158
0.0840259
0.0840356
0.0840448
0.0840536
0.0840622
0.0840708
0.0840793
0.0840878
0.0840961
0.0841042
0.0841121
0.0841196
0.0841268
0.0841338
0.0841403
0.0841458
0.0841502
0.084154
0.0841573
0.0841604
0.0841634
0.0841665
0.0841698
0.0841734
0.0841773
0.0841816
0.084186
0.0841902
0.0841934
0.084195
)
;

boundaryField
{
    movingWall
    {
        type            fixedValue;
        value           uniform 0.0842;
    }
    fixedWalls
    {
        type            zeroGradient;
    }
    floor
    {
        type            zeroGradient;
    }
    frontAndBack
    {
        type            empty;
    }
}


// ************************************************************************* //
