/*--------------------------------*- C++ -*----------------------------------*\
| =========                 |                                                 |
| \\      /  F ield         | OpenFOAM: The Open Source CFD Toolbox           |
|  \\    /   O peration     | Version:  2212                                  |
|   \\  /    A nd           | Website:  www.openfoam.com                      |
|    \\/     M anipulation  |                                                 |
\*---------------------------------------------------------------------------*/
FoamFile
{
    version     2.0;
    format      ascii;
    arch        "LSB;label=64;scalar=64";
    class       volScalarField;
    location    "260";
    object      Gco2;
}
// * * * * * * * * * * * * * * * * * * * * * * * * * * * * * * * * * * * * * //

dimensions      [1 -3 0 0 0 0 0];

internalField   nonuniform List<scalar> 
1024
(
0.0482162
0.0481953
0.0481449
0.0480585
0.0479347
0.0477799
0.0476073
0.0474322
0.0472669
0.0471199
0.0469973
0.0469077
0.0468639
0.0468842
0.0469926
0.047208
0.0475003
0.0477928
0.0480508
0.0482783
0.0484805
0.0486649
0.0488449
0.0490391
0.0492607
0.0495054
0.0497517
0.0499712
0.0501433
0.0502607
0.0503282
0.0503562
0.0482117
0.0481895
0.0481366
0.0480462
0.0479179
0.0477592
0.0475842
0.047408
0.0472425
0.0470952
0.0469724
0.0468829
0.0468397
0.0468614
0.0469719
0.0471891
0.0474821
0.0477748
0.0480329
0.0482607
0.0484632
0.0486469
0.0488247
0.0490147
0.0492319
0.0494746
0.0497229
0.049948
0.0501267
0.0502496
0.0503204
0.0503497
0.0482014
0.0481775
0.0481203
0.0480233
0.047887
0.0477212
0.0475409
0.047361
0.0471921
0.0470412
0.0469151
0.0468236
0.0467812
0.0468069
0.0469247
0.0471494
0.0474468
0.0477415
0.0480013
0.0482308
0.0484343
0.0486173
0.048791
0.0489732
0.0491813
0.0494186
0.049669
0.049903
0.0500933
0.0502264
0.0503034
0.0503354
0.0481858
0.04816
0.048098
0.047993
0.0478471
0.0476715
0.0474822
0.0472934
0.0471147
0.0469532
0.046817
0.0467192
0.0466765
0.0467106
0.0468447
0.0470871
0.0473964
0.0476978
0.0479628
0.048197
0.0484037
0.0485868
0.0487556
0.0489276
0.0491227
0.0493508
0.0496008
0.0498437
0.0500476
0.0501932
0.0502784
0.0503137
0.0481664
0.048139
0.0480726
0.0479602
0.0478041
0.0476165
0.0474134
0.0472082
0.04701
0.046827
0.046671
0.0465599
0.0465156
0.046564
0.0467267
0.0470012
0.0473337
0.0476495
0.047926
0.0481704
0.048384
0.0485688
0.0487329
0.0488936
0.0490736
0.0492889
0.0495346
0.0497832
0.0499988
0.0501561
0.0502492
0.0502878
0.0481451
0.0481168
0.0480475
0.0479292
0.0477635
0.047562
0.0473396
0.047109
0.0468792
0.0466612
0.0464728
0.04634
0.0462932
0.046364
0.0465697
0.0468927
0.0472621
0.0476026
0.0479
0.0481628
0.0483888
0.0485778
0.0487378
0.0488867
0.0490506
0.0492509
0.0494884
0.0497373
0.0499591
0.0501238
0.0502221
0.050263
0.048124
0.0480955
0.048025
0.047903
0.0477291
0.0475123
0.0472655
0.0469997
0.0467253
0.0464579
0.0462236
0.0460606
0.0460119
0.046115
0.0463784
0.0467651
0.0471842
0.0475614
0.0478927
0.0481859
0.0484318
0.0486278
0.0487832
0.0489195
0.0490667
0.049251
0.0494771
0.0497203
0.0499406
0.0501056
0.0502048
0.0502464
0.0481048
0.0480766
0.0480064
0.0478829
0.0477023
0.0474695
0.0471937
0.0468841
0.046553
0.0462218
0.0459287
0.0457287
0.0456811
0.0458275
0.0461611
0.046621
0.0470976
0.0475239
0.0479076
0.0482487
0.0485244
0.0487297
0.0488789
0.0490005
0.0491305
0.0492989
0.0495113
0.0497427
0.0499528
0.0501102
0.0502052
0.0502458
0.0480884
0.0480608
0.0479918
0.0478681
0.047682
0.0474328
0.0471244
0.0467635
0.046364
0.0459553
0.0455918
0.0453507
0.0453096
0.0455093
0.0459192
0.0464503
0.0469837
0.0474741
0.0479394
0.0483558
0.0486746
0.0488904
0.0490297
0.0491336
0.0492466
0.0494002
0.0495976
0.0498114
0.0500028
0.0501449
0.0502316
0.0502699
0.0480751
0.0480481
0.0479803
0.0478568
0.0476653
0.0473985
0.0470535
0.0466331
0.0461526
0.0456516
0.0452062
0.0449214
0.0448928
0.04515
0.0456278
0.0462098
0.0467902
0.0473716
0.0479713
0.0485073
0.0488861
0.0491106
0.0492339
0.0493181
0.0494165
0.0495587
0.0497402
0.0499302
0.0500953
0.0502169
0.0502926
0.0503278
0.0480641
0.0480374
0.0479703
0.0478461
0.0476476
0.0473599
0.0469715
0.0464794
0.0459001
0.0452874
0.0447464
0.0444145
0.0443985
0.0447011
0.0452118
0.0457995
0.0464176
0.0471507
0.0479795
0.0487032
0.0491598
0.0493843
0.0494847
0.0495515
0.0496427
0.0497768
0.0499388
0.0500985
0.0502327
0.0503317
0.0503952
0.0504261
0.0480534
0.0480267
0.047959
0.0478315
0.0476219
0.0473059
0.0468613
0.046277
0.0455719
0.0448202
0.0441647
0.0437756
0.0437551
0.0440576
0.044526
0.0450531
0.0457243
0.0467278
0.0479306
0.0489341
0.0494872
0.0496997
0.0497744
0.0498331
0.0499236
0.0500467
0.0501819
0.050307
0.0504092
0.0504844
0.0505332
0.050557
0.048038
0.0480105
0.0479402
0.0478052
0.0475767
0.0472191
0.0466962
0.0459868
0.0451157
0.0441872
0.0433896
0.0429164
0.0428385
0.043043
0.0433507
0.0437507
0.0445308
0.0459492
0.0476717
0.0490683
0.0497865
0.0500172
0.0500843
0.0501411
0.0502252
0.0503279
0.0504308
0.0505201
0.0505893
0.0506375
0.0506667
0.0506799
0.0480118
0.047983
0.0479073
0.0477578
0.0474966
0.0470738
0.0464365
0.0455531
0.0444601
0.0433047
0.0423216
0.0417046
0.0414596
0.0414092
0.0414161
0.0416374
0.0425438
0.0443658
0.0466078
0.0485345
0.049699
0.0502021
0.0503903
0.0504753
0.050539
0.0505984
0.0506477
0.0506796
0.0506922
0.0506907
0.0506836
0.0506783
0.0479475
0.0479151
0.0478279
0.0476523
0.0473385
0.0468194
0.0460207
0.0449003
0.0435148
0.0420649
0.0408258
0.0399572
0.0393788
0.038894
0.0384822
0.0384362
0.0392135
0.0409478
0.0432701
0.045626
0.0475267
0.0488183
0.0496049
0.0500627
0.050302
0.0503918
0.0503755
0.0502889
0.0501686
0.0500513
0.0499648
0.0499225
0.0478539
0.0478178
0.0477158
0.0475027
0.0471106
0.0464463
0.0454104
0.0439576
0.0421818
0.0403462
0.0387528
0.0375038
0.0364595
0.0354872
0.0346863
0.0342839
0.0344265
0.0350814
0.0362331
0.0377644
0.0393855
0.0408533
0.0420564
0.0430206
0.0437869
0.0443893
0.0448406
0.0451424
0.0453056
0.0453625
0.0453603
0.0453442
0.0476375
0.0475923
0.0474591
0.047174
0.0466457
0.045759
0.0444119
0.042594
0.0404629
0.0383274
0.0364772
0.034982
0.0337412
0.0327311
0.0320903
0.0318805
0.031802
0.0313685
0.0306412
0.0299718
0.0295423
0.0293885
0.0294786
0.0297702
0.0302496
0.0308939
0.0316479
0.0324211
0.0331055
0.0336128
0.0339112
0.0340298
0.0473606
0.0473077
0.0471519
0.0468196
0.0462129
0.0452237
0.0437778
0.0419
0.0397531
0.0376039
0.0357097
0.0341965
0.0330883
0.032469
0.0325347
0.0333621
0.0344454
0.0347479
0.0339586
0.0324177
0.0305227
0.0286067
0.0269001
0.0255465
0.0246182
0.024129
0.0240343
0.0242377
0.0246011
0.0249777
0.0252557
0.0253885
0.0471185
0.0470622
0.0469002
0.0465604
0.0459496
0.0449722
0.0435739
0.0417921
0.0397714
0.0377352
0.0359173
0.0344804
0.033521
0.0331675
0.0336276
0.0350167
0.0368567
0.0379908
0.0379287
0.0368075
0.0349032
0.0325423
0.0300522
0.0277214
0.0257578
0.0242727
0.0232841
0.0227345
0.0225178
0.022504
0.0225679
0.0226201
0.0469547
0.0468981
0.0467427
0.0464258
0.0458663
0.0449819
0.0437264
0.0421328
0.0403229
0.0384847
0.0368208
0.0354962
0.0346346
0.034369
0.0348793
0.0362782
0.0381614
0.0394768
0.0397266
0.038921
0.0372096
0.0348165
0.0320314
0.0291882
0.0266023
0.0245024
0.0229892
0.0220381
0.0215417
0.021354
0.0213285
0.0213495
0.0468832
0.0468276
0.0466844
0.0464052
0.045925
0.045177
0.0441212
0.0427795
0.0412457
0.0396727
0.0382288
0.0370601
0.0362861
0.0360254
0.0364197
0.0375607
0.0391028
0.0401892
0.0404031
0.0397059
0.0381719
0.0359337
0.0331845
0.0301894
0.0272646
0.0247145
0.0227462
0.0214198
0.0206651
0.0203324
0.0202468
0.0202546
0.0468992
0.0468456
0.0467154
0.0464747
0.0460769
0.0454715
0.0446271
0.0435583
0.0423349
0.0410728
0.0399007
0.0389305
0.0382557
0.0379673
0.0381645
0.0389045
0.03989
0.0404895
0.0404076
0.0396031
0.0381138
0.036015
0.0334209
0.0305063
0.0275193
0.0247608
0.0224985
0.0208767
0.0198893
0.0194119
0.0192612
0.0192538
0.0469656
0.0469206
0.0468103
0.0466083
0.0462834
0.0458034
0.0451485
0.0443313
0.0434046
0.0424518
0.0415586
0.0407915
0.0402026
0.0398442
0.0397721
0.040004
0.0403131
0.0403074
0.0398157
0.0388044
0.0372893
0.0353071
0.0329136
0.0302045
0.0273434
0.0245783
0.022183
0.0203647
0.0191905
0.0185818
0.0183659
0.0183417
0.0469532
0.0469384
0.0468813
0.0467456
0.0465017
0.0461327
0.0456352
0.0450265
0.0443465
0.0436473
0.0429696
0.0423313
0.041742
0.0412207
0.0407917
0.040447
0.0400581
0.039458
0.0385714
0.0373636
0.0358296
0.0339761
0.0318161
0.029384
0.0267688
0.0241499
0.0217709
0.0198634
0.0185589
0.0178391
0.0175603
0.017518
0.0466016
0.0466541
0.0467196
0.0467299
0.0466272
0.0463929
0.0460391
0.045592
0.0450787
0.0445176
0.0439065
0.0432295
0.0424783
0.0416643
0.0408051
0.0398888
0.0388909
0.0378172
0.0366443
0.0353236
0.0338285
0.032142
0.0302493
0.0281436
0.0258533
0.0234883
0.0212455
0.0193531
0.0179826
0.0171782
0.0168413
0.0167794
0.0455815
0.0457392
0.0460074
0.0462734
0.0464185
0.0463859
0.0461826
0.0458368
0.0453636
0.0447578
0.0440006
0.0430805
0.0420098
0.0408203
0.0395402
0.0381648
0.0367477
0.0353936
0.0340914
0.0327726
0.0313926
0.0299182
0.0283191
0.0265662
0.0246478
0.0226135
0.020602
0.0188173
0.0174494
0.0165932
0.0162056
0.0161226
0.0436278
0.0439053
0.0444023
0.0449726
0.0454277
0.0456341
0.0455587
0.0452181
0.0446279
0.0437938
0.0427255
0.0414549
0.0400361
0.038526
0.0369608
0.0353385
0.0337492
0.0323285
0.0310557
0.0298481
0.0286507
0.0274228
0.0261288
0.0247319
0.0232005
0.0215405
0.0198324
0.0182374
0.0169417
0.016075
0.0156492
0.0155439
0.0406242
0.0409887
0.0416164
0.0423643
0.0430232
0.0433801
0.043345
0.0429175
0.0421293
0.0410269
0.039673
0.0381486
0.0365383
0.0349074
0.0332872
0.0316711
0.0301497
0.0288465
0.0277291
0.0267125
0.0257411
0.0247747
0.0237796
0.0227211
0.0215633
0.0202878
0.0189272
0.0175897
0.0164352
0.0156079
0.0151652
0.0150393
0.0365755
0.0369317
0.037452
0.0380734
0.0386663
0.0389887
0.0389068
0.0383982
0.0375046
0.0363041
0.0348946
0.0333791
0.0318457
0.0303509
0.0289141
0.0275233
0.0262508
0.0251905
0.0243063
0.0235234
0.0227939
0.022084
0.0213664
0.0206132
0.0197941
0.0188836
0.0178831
0.0168505
0.0159015
0.0151704
0.0147434
0.014604
0.0314903
0.0316876
0.0318373
0.0320653
0.0323666
0.0325294
0.0324003
0.0319284
0.0311409
0.0301133
0.0289402
0.027714
0.0265059
0.025356
0.0242741
0.0232478
0.0223259
0.0215705
0.0209513
0.0204125
0.0199187
0.0194456
0.018974
0.0184849
0.0179574
0.0173698
0.0167112
0.016003
0.0153113
0.0147367
0.014369
0.0142319
0.0252506
0.0251596
0.0249317
0.0248287
0.0248634
0.0248892
0.024778
0.0244683
0.0239637
0.023311
0.0225734
0.0218118
0.021071
0.0203746
0.0197269
0.0191194
0.0185793
0.0181407
0.0177847
0.017478
0.0171998
0.0169359
0.0166755
0.0164081
0.0161223
0.015805
0.0154463
0.0150498
0.014643
0.0142796
0.0140238
0.0139147
0.0176267
0.0175212
0.0173539
0.017255
0.0172264
0.017217
0.0171761
0.0170741
0.0169073
0.0166905
0.0164456
0.0161936
0.0159498
0.0157218
0.0155108
0.0153139
0.0151395
0.0149984
0.0148844
0.0147866
0.0146983
0.014615
0.0145333
0.0144499
0.0143614
0.0142636
0.0141531
0.0140298
0.0139001
0.0137787
0.0136859
0.0136411
)
;

boundaryField
{
    movingWall
    {
        type            fixedValue;
        value           uniform 0.0135;
    }
    fixedWalls
    {
        type            zeroGradient;
    }
    floor
    {
        type            zeroGradient;
    }
    frontAndBack
    {
        type            empty;
    }
}


// ************************************************************************* //
