/*--------------------------------*- C++ -*----------------------------------*\
| =========                 |                                                 |
| \\      /  F ield         | OpenFOAM: The Open Source CFD Toolbox           |
|  \\    /   O peration     | Version:  2212                                  |
|   \\  /    A nd           | Website:  www.openfoam.com                      |
|    \\/     M anipulation  |                                                 |
\*---------------------------------------------------------------------------*/
FoamFile
{
    version     2.0;
    format      ascii;
    arch        "LSB;label=64;scalar=64";
    class       volScalarField;
    location    "260";
    object      SIC;
}
// * * * * * * * * * * * * * * * * * * * * * * * * * * * * * * * * * * * * * //

dimensions      [1 -3 0 0 0 0 0];

internalField   nonuniform List<scalar> 
1024
(
0.0920975
0.0920999
0.0921045
0.0921121
0.0921228
0.0921362
0.0921511
0.0921662
0.0921805
0.0921932
0.0922038
0.0922115
0.0922153
0.0922136
0.0922042
0.0921856
0.0921604
0.0921352
0.0921129
0.0920932
0.0920758
0.0920599
0.0920443
0.0920276
0.0920084
0.0919873
0.091966
0.0919471
0.0919322
0.091922
0.0919162
0.0919138
0.0920985
0.0921005
0.0921052
0.0921131
0.0921243
0.092138
0.0921531
0.0921683
0.0921826
0.0921953
0.0922059
0.0922137
0.0922174
0.0922155
0.092206
0.0921873
0.092162
0.0921367
0.0921144
0.0920948
0.0920773
0.0920614
0.0920461
0.0920297
0.0920109
0.0919899
0.0919685
0.0919491
0.0919336
0.091923
0.0919169
0.0919144
0.0920996
0.0921017
0.0921067
0.0921151
0.0921269
0.0921413
0.0921568
0.0921724
0.092187
0.0922
0.0922109
0.0922188
0.0922225
0.0922203
0.0922101
0.0921907
0.092165
0.0921396
0.0921172
0.0920973
0.0920798
0.092064
0.092049
0.0920332
0.0920153
0.0919948
0.0919732
0.0919529
0.0919365
0.091925
0.0919184
0.0919156
0.0921011
0.0921033
0.0921087
0.0921178
0.0921304
0.0921456
0.0921619
0.0921782
0.0921936
0.0922076
0.0922194
0.0922278
0.0922315
0.0922286
0.092217
0.0921961
0.0921694
0.0921434
0.0921205
0.0921003
0.0920824
0.0920666
0.092052
0.0920372
0.0920203
0.0920006
0.091979
0.0919581
0.0919404
0.0919279
0.0919205
0.0919175
0.0921028
0.0921052
0.0921109
0.0921206
0.0921341
0.0921503
0.0921679
0.0921856
0.0922027
0.0922185
0.092232
0.0922416
0.0922454
0.0922412
0.0922272
0.0922035
0.0921748
0.0921475
0.0921237
0.0921026
0.0920841
0.0920682
0.092054
0.0920401
0.0920246
0.092006
0.0919848
0.0919633
0.0919447
0.0919311
0.091923
0.0919197
0.0921047
0.0921071
0.0921131
0.0921233
0.0921376
0.092155
0.0921742
0.0921941
0.092214
0.0922328
0.0922491
0.0922606
0.0922646
0.0922585
0.0922408
0.0922129
0.092181
0.0921516
0.0921259
0.0921032
0.0920837
0.0920674
0.0920536
0.0920407
0.0920266
0.0920093
0.0919888
0.0919672
0.0919481
0.0919339
0.0919254
0.0919219
0.0921065
0.092109
0.092115
0.0921256
0.0921406
0.0921593
0.0921806
0.0922036
0.0922273
0.0922504
0.0922706
0.0922847
0.0922889
0.0922801
0.0922573
0.0922239
0.0921877
0.0921552
0.0921266
0.0921013
0.09208
0.0920631
0.0920497
0.0920379
0.0920252
0.0920093
0.0919897
0.0919687
0.0919497
0.0919354
0.0919269
0.0919233
0.0921082
0.0921106
0.0921167
0.0921273
0.0921429
0.092163
0.0921868
0.0922136
0.0922422
0.0922708
0.0922961
0.0923134
0.0923175
0.0923049
0.0922761
0.0922364
0.0921953
0.0921584
0.0921253
0.0920958
0.092072
0.0920543
0.0920414
0.0920309
0.0920197
0.0920051
0.0919868
0.0919668
0.0919486
0.0919351
0.0919269
0.0919233
0.0921096
0.092112
0.0921179
0.0921286
0.0921447
0.0921662
0.0921928
0.092224
0.0922585
0.0922938
0.0923252
0.0923461
0.0923496
0.0923324
0.092297
0.0922512
0.0922051
0.0921628
0.0921226
0.0920866
0.0920591
0.0920404
0.0920284
0.0920194
0.0920097
0.0919964
0.0919793
0.0919609
0.0919443
0.0919321
0.0919246
0.0919213
0.0921107
0.0921131
0.0921189
0.0921296
0.0921461
0.0921691
0.0921989
0.0922352
0.0922768
0.09232
0.0923585
0.0923831
0.0923856
0.0923635
0.0923222
0.092272
0.0922219
0.0921716
0.0921199
0.0920736
0.0920408
0.0920214
0.0920108
0.0920035
0.091995
0.0919827
0.091967
0.0919506
0.0919363
0.0919258
0.0919193
0.0919163
0.0921117
0.092114
0.0921198
0.0921305
0.0921476
0.0921725
0.092206
0.0922485
0.0922986
0.0923515
0.0923982
0.0924269
0.0924284
0.0924023
0.0923582
0.0923074
0.0922541
0.0921908
0.0921192
0.0920566
0.0920172
0.0919978
0.0919891
0.0919833
0.0919754
0.0919639
0.0919499
0.0919361
0.0919245
0.0919159
0.0919105
0.0919078
0.0921126
0.0921149
0.0921207
0.0921317
0.0921498
0.0921771
0.0922155
0.092266
0.0923269
0.0923919
0.0924485
0.0924821
0.092484
0.0924579
0.0924174
0.0923719
0.092314
0.0922273
0.0921234
0.0920367
0.0919889
0.0919706
0.0919641
0.091959
0.0919512
0.0919405
0.0919289
0.0919181
0.0919093
0.0919028
0.0918985
0.0918965
0.0921139
0.0921163
0.0921224
0.092134
0.0921537
0.0921846
0.0922298
0.0922911
0.0923663
0.0924465
0.0925155
0.0925564
0.0925631
0.0925455
0.092519
0.0924845
0.0924171
0.0922946
0.0921458
0.0920251
0.0919631
0.0919431
0.0919373
0.0919324
0.0919251
0.0919163
0.0919074
0.0918997
0.0918937
0.0918895
0.091887
0.0918859
0.0921162
0.0921187
0.0921252
0.0921381
0.0921607
0.0921972
0.0922522
0.0923285
0.0924229
0.0925228
0.0926077
0.0926611
0.0926823
0.0926867
0.0926861
0.092667
0.0925888
0.0924314
0.0922377
0.0920713
0.0919706
0.0919272
0.0919109
0.0919035
0.091898
0.0918929
0.0918887
0.0918859
0.0918848
0.091885
0.0918856
0.091886
0.0921217
0.0921245
0.092132
0.0921472
0.0921743
0.0922191
0.0922881
0.0923849
0.0925046
0.0926299
0.0927369
0.092812
0.092862
0.0929039
0.0929395
0.0929436
0.0928765
0.0927267
0.0925261
0.0923225
0.0921583
0.0920467
0.0919788
0.0919392
0.0919185
0.0919108
0.0919122
0.0919197
0.0919301
0.0919402
0.0919477
0.0919514
0.0921298
0.0921329
0.0921417
0.0921601
0.092194
0.0922514
0.0923408
0.0924663
0.0926197
0.0927783
0.092916
0.0930239
0.0931142
0.0931982
0.0932674
0.0933023
0.09329
0.0932335
0.0931341
0.0930018
0.0928618
0.0927349
0.092631
0.0925477
0.0924815
0.0924294
0.0923905
0.0923644
0.0923503
0.0923454
0.0923455
0.0923469
0.0921485
0.0921524
0.0921639
0.0921885
0.0922341
0.0923107
0.0924271
0.0925841
0.0927682
0.0929527
0.0931126
0.0932417
0.0933489
0.0934362
0.0934916
0.0935098
0.0935167
0.0935542
0.0936172
0.0936751
0.0937123
0.0937256
0.0937178
0.0936926
0.0936512
0.0935956
0.0935304
0.0934636
0.0934044
0.0933606
0.0933348
0.0933246
0.0921724
0.092177
0.0921904
0.0922191
0.0922715
0.092357
0.0924819
0.0926441
0.0928295
0.0930152
0.0931788
0.0933095
0.0934053
0.0934588
0.0934531
0.0933817
0.0932882
0.0932622
0.0933305
0.0934637
0.0936276
0.0937932
0.0939407
0.0940578
0.094138
0.0941803
0.0941885
0.0941709
0.0941394
0.0941069
0.0940828
0.0940714
0.0921933
0.0921982
0.0922122
0.0922415
0.0922943
0.0923787
0.0924995
0.0926534
0.0928279
0.0930038
0.0931608
0.0932849
0.0933678
0.0933984
0.0933586
0.0932386
0.0930798
0.0929819
0.0929874
0.0930844
0.093249
0.0934531
0.0936684
0.0938699
0.0940396
0.094168
0.0942535
0.094301
0.0943197
0.0943208
0.0943153
0.0943108
0.0922074
0.0922123
0.0922258
0.0922531
0.0923015
0.0923779
0.0924863
0.0926239
0.0927803
0.092939
0.0930827
0.0931971
0.0932716
0.0932945
0.0932504
0.0931296
0.092967
0.0928534
0.092832
0.0929017
0.0930497
0.0932566
0.0934974
0.0937431
0.0939667
0.0941482
0.0942791
0.0943613
0.0944042
0.0944204
0.0944226
0.0944207
0.0922136
0.0922184
0.0922308
0.0922549
0.0922964
0.092361
0.0924522
0.0925681
0.0927005
0.0928364
0.0929611
0.093062
0.0931289
0.0931514
0.0931174
0.0930188
0.0928856
0.0927919
0.0927735
0.0928339
0.0929665
0.09316
0.0933977
0.0936566
0.0939095
0.09413
0.0943001
0.0944148
0.09448
0.0945088
0.0945162
0.0945155
0.0922122
0.0922169
0.0922281
0.0922489
0.0922833
0.0923356
0.0924085
0.0925008
0.0926065
0.0927155
0.0928167
0.0929005
0.0929588
0.0929837
0.0929667
0.0929028
0.0928177
0.092766
0.0927732
0.0928428
0.0929716
0.093153
0.0933773
0.0936293
0.0938875
0.094126
0.0943216
0.0944618
0.0945472
0.0945884
0.0946014
0.0946021
0.0922065
0.0922104
0.0922199
0.0922374
0.0922654
0.0923069
0.0923634
0.092434
0.0925141
0.0925963
0.0926735
0.0927397
0.0927906
0.0928216
0.0928278
0.0928078
0.0927812
0.0927818
0.0928244
0.0929119
0.0930429
0.0932143
0.0934212
0.0936554
0.0939027
0.0941418
0.0943489
0.0945061
0.0946076
0.0946603
0.0946789
0.094681
0.0922076
0.0922089
0.0922138
0.0922255
0.0922466
0.0922784
0.0923214
0.092374
0.0924327
0.0924931
0.0925516
0.0926068
0.0926577
0.0927027
0.0927398
0.0927697
0.0928033
0.0928553
0.092932
0.0930365
0.0931691
0.0933293
0.0935161
0.0937263
0.0939524
0.0941789
0.0943845
0.0945495
0.0946623
0.0947245
0.0947486
0.0947523
0.092238
0.0922335
0.0922278
0.0922269
0.0922357
0.092256
0.0922865
0.0923251
0.0923695
0.0924179
0.0924707
0.0925292
0.0925942
0.0926645
0.0927388
0.092818
0.0929043
0.0929972
0.0930986
0.0932128
0.0933421
0.0934879
0.0936516
0.0938336
0.0940316
0.0942361
0.09443
0.0945936
0.0947121
0.0947817
0.0948108
0.0948162
0.0923262
0.0923126
0.0922894
0.0922664
0.0922538
0.0922566
0.0922742
0.092304
0.0923449
0.0923972
0.0924627
0.0925422
0.0926348
0.0927376
0.0928483
0.0929672
0.0930897
0.0932068
0.0933194
0.0934334
0.0935527
0.0936802
0.0938185
0.09397
0.0941359
0.0943117
0.0944857
0.09464
0.0947583
0.0948323
0.0948658
0.094873
0.0924951
0.0924711
0.0924282
0.0923788
0.0923395
0.0923216
0.0923281
0.0923576
0.0924086
0.0924806
0.092573
0.0926828
0.0928055
0.092936
0.0930713
0.0932116
0.093349
0.0934718
0.0935819
0.0936863
0.0937898
0.093896
0.0940079
0.0941286
0.094261
0.0944045
0.0945522
0.0946902
0.0948022
0.0948772
0.094914
0.0949231
0.0927548
0.0927233
0.092669
0.0926044
0.0925474
0.0925165
0.0925195
0.0925565
0.0926246
0.0927199
0.092837
0.0929687
0.0931079
0.0932489
0.093389
0.0935287
0.0936603
0.0937729
0.0938695
0.0939574
0.0940414
0.094125
0.094211
0.0943025
0.0944026
0.0945129
0.0946305
0.0947462
0.094846
0.0949176
0.0949559
0.0949668
0.0931048
0.0930741
0.0930291
0.0929753
0.0929241
0.0928962
0.0929033
0.0929472
0.0930245
0.0931283
0.0932501
0.0933811
0.0935137
0.0936429
0.0937671
0.0938874
0.0939974
0.0940891
0.0941655
0.0942332
0.0942963
0.0943576
0.0944197
0.0944848
0.0945556
0.0946343
0.0947208
0.0948101
0.0948922
0.0949554
0.0949924
0.0950044
0.0935445
0.0935274
0.0935145
0.0934948
0.0934688
0.0934547
0.0934658
0.0935066
0.0935747
0.0936635
0.093765
0.093871
0.0939754
0.0940748
0.0941683
0.0942571
0.0943368
0.0944021
0.0944556
0.0945022
0.0945449
0.0945858
0.0946266
0.0946689
0.0947145
0.0947653
0.0948222
0.0948835
0.0949433
0.094993
0.0950248
0.0950367
0.094084
0.0940919
0.0941116
0.0941205
0.0941175
0.0941153
0.0941249
0.0941516
0.0941953
0.0942517
0.0943155
0.0943813
0.0944453
0.0945056
0.0945615
0.0946141
0.0946608
0.0946987
0.0947295
0.094756
0.09478
0.0948028
0.0948254
0.0948485
0.0948732
0.0949006
0.0949316
0.0949659
0.0950011
0.0950325
0.0950547
0.0950641
0.0947432
0.0947523
0.0947668
0.0947753
0.0947778
0.0947786
0.0947822
0.094791
0.0948054
0.0948241
0.0948453
0.0948671
0.0948882
0.0949079
0.0949261
0.0949431
0.0949582
0.0949704
0.0949803
0.0949887
0.0949964
0.0950036
0.0950106
0.0950178
0.0950255
0.0950339
0.0950435
0.0950542
0.0950654
0.0950759
0.0950839
0.0950878
)
;

boundaryField
{
    movingWall
    {
        type            fixedValue;
        value           uniform 0.0951;
    }
    fixedWalls
    {
        type            zeroGradient;
    }
    floor
    {
        type            zeroGradient;
    }
    frontAndBack
    {
        type            empty;
    }
}


// ************************************************************************* //
