-0.11 	0.0109467 	-0.000246559 	0.00959401
-0.109559 	0.0113734 	-0.00033463 	0.00978105
-0.109118 	0.0118001 	-0.0004227 	0.00996809
-0.108677 	0.0122268 	-0.000510771 	0.0101551
-0.108236 	0.0126535 	-0.000598842 	0.0103422
-0.107796 	0.0131529 	-0.000643966 	0.0105693
-0.107355 	0.0136717 	-0.000677639 	0.010807
-0.106914 	0.0140221 	-0.000718299 	0.0108838
-0.106473 	0.014198 	-0.000765985 	0.0107926
-0.106032 	0.0143738 	-0.000813672 	0.0107013
-0.105591 	0.0145078 	-0.000880649 	0.0106052
-0.10515 	0.0146327 	-0.000951833 	0.010508
-0.104709 	0.0147575 	-0.00102302 	0.0104109
-0.104269 	0.0148823 	-0.0010942 	0.0103137
-0.103828 	0.0150072 	-0.00116538 	0.0102165
-0.103387 	0.0151228 	-0.00122727 	0.0100736
-0.102946 	0.0152277 	-0.00127807 	0.00987676
-0.102505 	0.0153325 	-0.00132887 	0.0096799
-0.102064 	0.0154373 	-0.00137968 	0.00948305
-0.101623 	0.0155421 	-0.00143048 	0.0092862
-0.101182 	0.0156484 	-0.00148168 	0.00908728
-0.100741 	0.0157634 	-0.00153519 	0.00887613
-0.100301 	0.0158783 	-0.00158872 	0.00866499
-0.0998597 	0.0159835 	-0.00163971 	0.00844755
-0.0994188 	0.0160787 	-0.00168809 	0.0082237
-0.098978 	0.0161739 	-0.00173648 	0.00799986
-0.0985371 	0.0162581 	-0.00177118 	0.00781203
-0.0980962 	0.0163407 	-0.0018039 	0.00762941
-0.0976553 	0.0164233 	-0.00183662 	0.00744679
-0.0972144 	0.0165059 	-0.00186934 	0.00726417
-0.0967735 	0.0165885 	-0.00190207 	0.00708155
-0.0963327 	0.0166781 	-0.00190281 	0.00690342
-0.0958918 	0.016772 	-0.00188389 	0.00672811
-0.0954509 	0.0168659 	-0.00186497 	0.0065528
-0.09501 	0.0169598 	-0.00184605 	0.00637749
-0.0945691 	0.0170537 	-0.00182714 	0.00620218
-0.0941283 	0.0171392 	-0.0018256 	0.00601766
-0.0936874 	0.0172096 	-0.00185516 	0.00581665
-0.0932465 	0.01728 	-0.00188473 	0.00561564
-0.0928056 	0.0173504 	-0.00191429 	0.00541464
-0.0923647 	0.0174208 	-0.00194386 	0.00521363
-0.0919238 	0.0174912 	-0.00197343 	0.00501262
-0.091483 	0.0175616 	-0.00200299 	0.00481161
-0.0531263 	0.0195383 	0.00121517 	0.00161007
-0.0526854 	0.020121 	0.00113486 	0.00197918
-0.0522445 	0.0213553 	0.00148679 	0.00229501
-0.0518036 	0.0239247 	0.00129446 	0.00221389
-0.0509218 	0.0368512 	-0.00327728 	-0.000608037
-0.050481 	0.0485959 	-0.00239236 	-0.000674752
-0.0500401 	0.0607786 	-0.000978965 	-0.00034416
-0.0376954 	0.0402785 	0.0013412 	-0.00250969
-0.0372545 	0.0294471 	0.00592201 	-0.00320854
-0.0368136 	0.0232752 	0.00692355 	-0.00290513
-0.0363727 	0.0178955 	0.00760011 	-0.00258146
-0.0359319 	0.0160633 	0.00693169 	-0.00298554
-0.035491 	0.014405 	0.00606067 	-0.00342096
-0.0350501 	0.0135047 	0.00543275 	-0.00396741
-0.0346092 	0.0127067 	0.00492825 	-0.00451276
-0.0341683 	0.01211 	0.00457799 	-0.00497135
-0.0337275 	0.0115524 	0.00432578 	-0.00535216
-0.0332866 	0.0108935 	0.00414861 	-0.00553287
-0.0328457 	0.0101984 	0.00398868 	-0.00564579
0.00507014 	-0.0050311 	0.000376983 	5.04253e-05
0.00551102 	-0.00422857 	0.0014918 	0.000131143
0.0059519 	-0.00342603 	0.00260661 	0.000211861
0.00639279 	-0.0028755 	0.00378467 	0.000257637
0.00683367 	-0.0025859 	0.00502822 	0.000267235
0.00727455 	-0.0022963 	0.00627177 	0.000276832
0.00771543 	-0.00200671 	0.00751532 	0.00028643
0.00815631 	-0.00171711 	0.00875887 	0.000296028
0.00859719 	-0.00152782 	0.00985913 	0.000289598
0.00903808 	-0.00144712 	0.00956742 	4.09471e-05
0.00947896 	-0.00136325 	0.00926249 	-0.000212694
0.00991984 	-0.00127938 	0.00895756 	-0.000466336
0.0103607 	-0.00119551 	0.00865263 	-0.000719977
0.0108016 	-0.00111164 	0.0083477 	-0.000973618
0.0112425 	-0.00107431 	0.00817904 	-0.00113862
0.0116834 	-0.00104935 	0.00804661 	-0.00128006
0.0121242 	-0.00102917 	0.00791362 	-0.00143531
0.0125651 	-0.00106889 	0.00782969 	-0.00153027
0.013006 	-0.0011086 	0.00774576 	-0.00162523
0.0134469 	-0.00111124 	0.00765848 	-0.00173997
0.0138878 	-0.00107247 	0.00756744 	-0.00187679
0.0143287 	-0.0010337 	0.00747641 	-0.00201361
0.0147695 	-0.000994938 	0.00738538 	-0.00215043
0.0152104 	-0.000956172 	0.00729435 	-0.00228725
0.0156513 	-0.00093795 	0.00720968 	-0.00240827
0.0160922 	-0.00103778 	0.00713493 	-0.00235382
0.0165331 	-0.00113762 	0.00706018 	-0.00229937
0.0169739 	-0.00123745 	0.00698543 	-0.00224491
0.0174148 	-0.00133729 	0.00691067 	-0.00219046
0.0178557 	-0.00143712 	0.00683592 	-0.00213601
0.0182966 	-0.00158 	0.00672788 	-0.00205916
0.0187375 	-0.00174766 	0.00660066 	-0.00196943
0.0191784 	-0.00191532 	0.00647344 	-0.00187969
0.0196192 	-0.00201574 	0.00625949 	-0.00177763
0.0200601 	-0.00210541 	0.00603872 	-0.00168071
0.020501 	-0.00218541 	0.00582799 	-0.00158397
0.0209419 	-0.00221119 	0.00567346 	-0.00148823
0.0213828 	-0.00223697 	0.00551893 	-0.00139248
0.0218236 	-0.00226275 	0.0053644 	-0.00129674
0.0222645 	-0.00228853 	0.00520988 	-0.00120099
0.0227054 	-0.00231431 	0.00505535 	-0.00110525
0.0231463 	-0.00227679 	0.00489004 	-0.00110878
0.0235872 	-0.00220659 	0.00472764 	-0.00117304
0.0240281 	-0.00213639 	0.00456524 	-0.0012373
0.0244689 	-0.0020662 	0.00440283 	-0.00130157
0.0249098 	-0.001996 	0.00424043 	-0.00136583
0.0253507 	-0.00193806 	0.00407741 	-0.00143616
0.0257916 	-0.00199918 	0.00390836 	-0.0015654
0.0262325 	-0.00206029 	0.00373931 	-0.00169465
0.0266733 	-0.00228238 	0.0035932 	-0.00190356
0.0271142 	-0.00289907 	0.00350257 	-0.00228921
0.0275551 	-0.00351575 	0.00341195 	-0.00267487
0.027996 	-0.00398851 	0.00329587 	-0.00302468
0.0284369 	-0.00433192 	0.00315693 	-0.00334227
0.0288778 	-0.00467532 	0.00301798 	-0.00365985
0.0293186 	-0.00501872 	0.00287904 	-0.00397744
0.0297595 	-0.00536212 	0.00274009 	-0.00429503
0.0302004 	-0.00570553 	0.00260114 	-0.00461262
0.0306413 	-0.00691723 	0.00256828 	-0.00506793
0.0310822 	-0.00817278 	0.00254563 	-0.00552708
0.031523 	-0.00942833 	0.00252299 	-0.00598622
0.0319639 	-0.0106839 	0.00250034 	-0.00644537
0.0324048 	-0.0119394 	0.0024777 	-0.00690452
0.0328457 	-0.0132462 	0.00247621 	-0.00735055
0.0332866 	-0.0146499 	0.00251475 	-0.00777177
0.0337275 	-0.0160536 	0.0025533 	-0.00819299
0.0341683 	-0.0173605 	0.00251598 	-0.00838986
0.0346092 	-0.0185551 	0.0024121 	-0.00838836
0.0350501 	-0.0197497 	0.00230823 	-0.00838685
0.035491 	-0.0210853 	0.00220246 	-0.00846303
0.0359319 	-0.0224634 	0.00209613 	-0.00856257
0.0363727 	-0.0238414 	0.00198979 	-0.00866212
0.0368136 	-0.0252194 	0.00188346 	-0.00876167
0.0372545 	-0.0265974 	0.00177713 	-0.00886122
0.0376954 	-0.0277509 	0.00160153 	-0.0088115
0.0381363 	-0.0280939 	0.00118438 	-0.00822856
0.0385772 	-0.0284369 	0.000767237 	-0.00764561
0.039018 	-0.0287799 	0.00035009 	-0.00706266
0.0394589 	-0.0291229 	-6.70578e-05 	-0.00647971
0.0398998 	-0.0294658 	-0.000484205 	-0.00589677
0.0403407 	-0.029603 	-0.000854191 	-0.00536151
0.0407816 	-0.0296862 	-0.00121179 	-0.00483877
0.0412224 	-0.0297175 	-0.00155719 	-0.00430582
0.0416633 	-0.0293266 	-0.0016725 	-0.00380676
0.0421042 	-0.0289357 	-0.00178781 	-0.00330771
0.0425451 	-0.028618 	-0.00195918 	-0.00270271
0.042986 	-0.0283757 	-0.00218846 	-0.00198827
0.0434269 	-0.0281334 	-0.00241774 	-0.00127383
0.0438677 	-0.0278912 	-0.00264702 	-0.000559386
0.0443086 	-0.0276489 	-0.0028763 	0.000155055
0.0447495 	-0.0274532 	-0.00298952 	0.0007033
0.0451904 	-0.0273703 	-0.00288345 	0.000921887
0.0456313 	-0.0272874 	-0.00277738 	0.00114047
0.0460721 	-0.0272045 	-0.00267131 	0.00135906
0.046513 	-0.0271216 	-0.00256524 	0.00157765
0.0469539 	-0.0269993 	-0.00245475 	0.00173857
0.0473948 	-0.0268366 	-0.00233973 	0.0018404
0.0478357 	-0.0266969 	-0.00221578 	0.00188967
0.0482766 	-0.0268397 	-0.00192282 	0.00114129
0.0487174 	-0.0269826 	-0.00162986 	0.000392902
0.0491583 	-0.0270839 	-0.00132939 	-0.000359761
0.0495992 	-0.0271644 	-0.00102515 	-0.00111457
0.0500401 	-0.0272449 	-0.000720911 	-0.00186938
0.050481 	-0.0273254 	-0.000416673 	-0.00262419
0.0509218 	-0.0274059 	-0.000112435 	-0.00337899
0.0513627 	-0.0274782 	0.000132186 	-0.00440806
0.0518036 	-0.0275272 	0.000335737 	-0.00545673
0.0522445 	-0.0275762 	0.000539289 	-0.00650541
0.0526854 	-0.0276252 	0.00074284 	-0.00755408
0.0531263 	-0.0276742 	0.000946391 	-0.00860276
0.0535671 	-0.0277232 	0.00114994 	-0.00965144
0.054008 	-0.0279026 	0.00134665 	-0.0107035
0.0544489 	-0.0281034 	0.00154224 	-0.0117562
0.0548898 	-0.0283042 	0.00173783 	-0.0128088
0.0553307 	-0.0283252 	0.0017508 	-0.0133822
0.0557715 	-0.028329 	0.00175393 	-0.0138868
0.0562124 	-0.0283328 	0.00175706 	-0.0143914
0.0566533 	-0.0282408 	0.00178945 	-0.0149116
0.0570942 	-0.0281372 	0.0018254 	-0.0154336
0.0575351 	-0.0280336 	0.00186134 	-0.0159557
0.057976 	-0.02793 	0.00189729 	-0.0164777
0.0584168 	-0.0278264 	0.00193324 	-0.0169998
0.0588577 	-0.0277228 	0.00196919 	-0.0175218
0.0592986 	-0.027507 	0.00200675 	-0.0175192
0.0597395 	-0.0272749 	0.00204068 	-0.0174552
0.0601804 	-0.0270429 	0.00207461 	-0.0173913
0.0606212 	-0.0268109 	0.00210854 	-0.0173274
0.0610621 	-0.0265788 	0.00214247 	-0.0172634
0.061503 	-0.0263468 	0.0021764 	-0.0171995
0.0619439 	-0.0261574 	0.00216759 	-0.017078
0.0623848 	-0.0259708 	0.00215595 	-0.0169527
0.0628257 	-0.0257842 	0.00214431 	-0.0168274
0.0632665 	-0.0255577 	0.00204929 	-0.0164303
0.0637074 	-0.0253306 	0.00195034 	-0.016022
0.0641483 	-0.0251034 	0.00185139 	-0.0156137
0.0645892 	-0.0248932 	0.00180807 	-0.0153133
0.0650301 	-0.0246832 	0.00176541 	-0.0150142
0.0654709 	-0.0244732 	0.00172276 	-0.0147152
0.0659118 	-0.0242632 	0.00168011 	-0.0144161
0.0663527 	-0.0240533 	0.00163745 	-0.014117
0.0667936 	-0.023851 	0.00159716 	-0.0138042
0.0672345 	-0.0237088 	0.00157552 	-0.0133853
0.0681162 	-0.0234244 	0.00153219 	-0.0125476
0.0685571 	-0.0232821 	0.0015105 	-0.0121287
0.068998 	-0.0231399 	0.00148882 	-0.0117098
0.0694389 	-0.0229989 	0.00146389 	-0.0112944
0.0698798 	-0.0228782 	0.00138929 	-0.0109325
0.0703206 	-0.0227574 	0.0013147 	-0.0105705
0.0707615 	-0.0226366 	0.00124011 	-0.0102086
0.0712024 	-0.0225158 	0.00116551 	-0.00984661
0.0716433 	-0.022395 	0.00109092 	-0.00948465
0.0720842 	-0.0222742 	0.00101632 	-0.00912269
0.0725251 	-0.0221534 	0.000941731 	-0.00876073
0.0729659 	-0.0220326 	0.000867137 	-0.00839877
0.0734068 	-0.0219118 	0.000792543 	-0.00803682
0.0738477 	-0.0217911 	0.00071795 	-0.00767486
0.0742886 	-0.0216703 	0.000643356 	-0.0073129
0.0747295 	-0.0215521 	0.000572974 	-0.00695679
0.0751703 	-0.0214562 	0.000542819 	-0.00665706
0.0756112 	-0.0213603 	0.000512664 	-0.00635733
0.0760521 	-0.0212644 	0.00048251 	-0.0060576
0.076493 	-0.0211686 	0.000452355 	-0.00575787
0.0778156 	-0.020881 	0.000361894 	-0.00485868
0.0782565 	-0.0207851 	0.000331741 	-0.00455895
0.0786974 	-0.0206893 	0.000301588 	-0.00425922
0.0791383 	-0.0205935 	0.000271435 	-0.00395949
0.0795792 	-0.0204981 	0.00024234 	-0.00365891
0.08002 	-0.0204083 	0.000226501 	-0.0033477
0.0804609 	-0.0203185 	0.000210661 	-0.00303649
0.0809018 	-0.0202287 	0.000194821 	-0.00272527
0.0813427 	-0.0201389 	0.000178981 	-0.00241406
0.0817836 	-0.0200492 	0.000163142 	-0.00210285
0.0822244 	-0.0199575 	0.000149917 	-0.00179362
0.0826653 	-0.019865 	0.000138539 	-0.00148544
0.0831062 	-0.0197724 	0.000127161 	-0.00117727
0.0835471 	-0.0196799 	0.000115784 	-0.000869095
0.083988 	-0.0195873 	0.000104406 	-0.00056092
0.0844289 	-0.0194948 	9.3028e-05 	-0.000252746
0.0848697 	-0.0193734 	7.37069e-05 	4.19689e-05
0.0853106 	-0.0192516 	5.42822e-05 	0.000336508
0.0857515 	-0.0191298 	3.48575e-05 	0.000631046
0.0861924 	-0.0190081 	1.54328e-05 	0.000925585
0.0866333 	-0.0188863 	-3.99193e-06 	0.00122012
0.0870741 	-0.0187645 	-2.34167e-05 	0.00151466
0.100301 	-0.0155786 	-0.000493184 	0.0100447
0.108677 	-0.00948998 	-0.000586889 	0.0107909
0.109118 	-0.00883382 	-0.000547995 	0.0103994
0.109559 	-0.00817766 	-0.000509101 	0.0100078
0.11 	-0.0075215 	-0.000470207 	0.00961629
