/*--------------------------------*- C++ -*----------------------------------*\
| =========                 |                                                 |
| \\      /  F ield         | OpenFOAM: The Open Source CFD Toolbox           |
|  \\    /   O peration     | Version:  2212                                  |
|   \\  /    A nd           | Website:  www.openfoam.com                      |
|    \\/     M anipulation  |                                                 |
\*---------------------------------------------------------------------------*/
FoamFile
{
    version     2.0;
    format      ascii;
    arch        "LSB;label=64;scalar=64";
    class       surfaceScalarField;
    location    "0.63";
    object      phi;
}
// * * * * * * * * * * * * * * * * * * * * * * * * * * * * * * * * * * * * * //

dimensions      [0 3 -1 0 0 0 0];

oriented        oriented;

internalField   nonuniform List<scalar> 
65152
(
-9.02385e-14
9.02408e-14
-6.0532e-13
5.15084e-13
-1.49827e-12
8.92957e-13
-2.59469e-12
1.09642e-12
-3.72527e-12
1.13058e-12
-4.78621e-12
1.06094e-12
-5.74161e-12
9.55408e-13
-6.59911e-12
8.57494e-13
-7.38338e-12
7.84278e-13
-8.11911e-12
7.35733e-13
-8.82392e-12
7.04808e-13
-9.50775e-12
6.83836e-13
-1.01749e-11
6.67146e-13
-1.08262e-11
6.51353e-13
-1.1461e-11
6.34767e-13
-1.20777e-11
6.16693e-13
-1.26746e-11
5.96933e-13
-1.32501e-11
5.75495e-13
-1.38026e-11
5.5245e-13
-1.43304e-11
5.2788e-13
-1.48323e-11
5.01854e-13
-1.53067e-11
4.74429e-13
-1.57524e-11
4.45649e-13
-1.61679e-11
4.1555e-13
-1.65521e-11
3.84162e-13
-1.69036e-11
3.5151e-13
-1.72212e-11
3.17621e-13
-1.75037e-11
2.82519e-13
-1.775e-11
2.46237e-13
-1.79588e-11
2.08812e-13
-1.81291e-11
1.70302e-13
-1.82599e-11
1.30788e-13
-1.83502e-11
9.03915e-14
-1.83995e-11
4.92895e-14
-1.84071e-11
7.53401e-15
-1.83722e-11
-3.48771e-14
-1.82945e-11
-7.76386e-14
-1.81738e-11
-1.2078e-13
-1.80096e-11
-1.64176e-13
-1.78018e-11
-2.07727e-13
-1.75505e-11
-2.51333e-13
-1.72556e-11
-2.94889e-13
-1.69173e-11
-3.38273e-13
-1.6536e-11
-3.81355e-13
-1.6112e-11
-4.2399e-13
-1.5646e-11
-4.66024e-13
-1.51387e-11
-5.07299e-13
-1.4591e-11
-5.47647e-13
-1.40041e-11
-5.86898e-13
-1.33792e-11
-6.24878e-13
-1.27178e-11
-6.61412e-13
-1.20215e-11
-6.96326e-13
-1.1292e-11
-7.29448e-13
-1.05314e-11
-7.60612e-13
-9.74177e-12
-7.89657e-13
-8.92533e-12
-8.16431e-13
-8.08454e-12
-8.40791e-13
-7.22194e-12
-8.62599e-13
-6.34021e-12
-8.8172e-13
-5.44219e-12
-8.98017e-13
-4.53084e-12
-9.1135e-13
-3.60925e-12
-9.21587e-13
-2.68063e-12
-9.28614e-13
-1.74827e-12
-9.3236e-13
-8.15465e-13
-9.32803e-13
1.14534e-13
-9.29996e-13
1.03864e-12
-9.24104e-13
1.95401e-12
-9.15372e-13
2.85801e-12
-9.03991e-13
3.7481e-12
-8.90086e-13
4.62185e-12
-8.73747e-13
5.47687e-12
-8.55021e-13
6.31084e-12
-8.33967e-13
7.12151e-12
-8.10661e-13
7.9067e-12
-7.85195e-13
8.66438e-12
-7.57674e-13
9.3926e-12
-7.28217e-13
1.00896e-11
-6.96954e-13
1.07536e-11
-6.6402e-13
1.13831e-11
-6.29559e-13
1.19769e-11
-5.93716e-13
1.25335e-11
-5.56638e-13
1.3052e-11
-5.18471e-13
1.35313e-11
-4.79358e-13
1.39708e-11
-4.39434e-13
1.43696e-11
-3.98829e-13
1.47273e-11
-3.57665e-13
1.50433e-11
-3.1605e-13
1.53174e-11
-2.74091e-13
1.55493e-11
-2.31888e-13
1.57388e-11
-1.89545e-13
1.5886e-11
-1.47174e-13
1.59909e-11
-1.04906e-13
1.60538e-11
-6.2907e-14
1.60752e-11
-2.13887e-14
1.60554e-11
1.98227e-14
1.59957e-11
5.96917e-14
1.58969e-11
9.88322e-14
1.576e-11
1.36901e-13
1.55862e-11
1.73827e-13
1.53766e-11
2.09574e-13
1.51325e-11
2.44125e-13
1.4855e-11
2.77472e-13
1.45454e-11
3.09609e-13
1.42049e-11
3.40527e-13
1.38347e-11
3.70209e-13
1.3436e-11
3.9863e-13
1.30103e-11
4.25759e-13
1.25587e-11
4.51549e-13
1.20828e-11
4.75943e-13
1.15839e-11
4.98868e-13
1.10637e-11
5.20237e-13
1.05237e-11
5.39971e-13
9.96565e-12
5.58055e-13
9.39097e-12
5.74683e-13
8.80042e-12
5.90553e-13
8.19304e-12
6.0738e-13
7.56443e-12
6.28608e-13
6.9044e-12
6.60029e-13
6.1949e-12
7.09502e-13
5.41056e-12
7.8434e-13
4.5257e-12
8.84863e-13
3.53145e-12
9.94249e-13
2.46216e-12
1.06928e-12
1.41957e-12
1.0426e-12
5.69652e-13
8.49916e-13
8.20133e-14
4.87639e-13
8.20135e-14
-4.72673e-13
5.62917e-13
-1.78016e-12
1.82258e-12
-3.65415e-12
2.76695e-12
-5.76425e-12
3.20653e-12
-7.83705e-12
3.20339e-12
-9.71729e-12
2.94117e-12
-1.13611e-11
2.59919e-12
-1.2794e-11
2.29039e-12
-1.40677e-11
2.05806e-12
-1.52325e-11
1.90047e-12
-1.6325e-11
1.79734e-12
-1.73679e-11
1.72676e-12
-1.8373e-11
1.67226e-12
-1.93453e-11
1.62364e-12
-2.0286e-11
1.57548e-12
-2.11946e-11
1.52522e-12
-2.20695e-11
1.47186e-12
-2.2909e-11
1.41507e-12
-2.37114e-11
1.35482e-12
-2.44747e-11
1.29118e-12
-2.51971e-11
1.22423e-12
-2.58767e-11
1.15404e-12
-2.65117e-11
1.0807e-12
-2.71004e-11
1.00426e-12
-2.76411e-11
9.24784e-13
-2.81319e-11
8.42324e-13
-2.85712e-11
7.56936e-13
-2.89573e-11
6.6868e-13
-2.92887e-11
5.77621e-13
-2.95637e-11
4.83836e-13
-2.97809e-11
3.8742e-13
-2.99386e-11
2.88504e-13
-3.00354e-11
1.87266e-13
-3.00701e-11
8.39488e-14
-3.00414e-11
-2.11451e-14
-2.99487e-11
-1.276e-13
-2.97913e-11
-2.35007e-13
-2.95689e-11
-3.43161e-13
-2.92812e-11
-4.51898e-13
-2.89279e-11
-5.61038e-13
-2.85089e-11
-6.70364e-13
-2.80241e-11
-7.79619e-13
-2.74739e-11
-8.88508e-13
-2.68585e-11
-9.96697e-13
-2.61787e-11
-1.10382e-12
-2.54352e-11
-1.2095e-12
-2.46292e-11
-1.31331e-12
-2.3762e-11
-1.41485e-12
-2.28352e-11
-1.51366e-12
-2.18508e-11
-1.60931e-12
-2.08109e-11
-1.70135e-12
-1.97179e-11
-1.78933e-12
-1.85745e-11
-1.87281e-12
-1.73837e-11
-1.95136e-12
-1.61488e-11
-2.02456e-12
-1.48732e-11
-2.09202e-12
-1.35607e-11
-2.15336e-12
-1.2215e-11
-2.20824e-12
-1.08404e-11
-2.25631e-12
-9.44116e-12
-2.29727e-12
-8.02169e-12
-2.33082e-12
-6.58657e-12
-2.3567e-12
-5.14046e-12
-2.37472e-12
-3.68799e-12
-2.38483e-12
-2.23374e-12
-2.38705e-12
-7.82174e-13
-2.38156e-12
6.6224e-13
-2.36851e-12
2.09512e-12
-2.34825e-12
3.5124e-12
-2.32127e-12
4.91031e-12
-2.288e-12
6.28526e-12
-2.24869e-12
7.63364e-12
-2.2034e-12
8.95198e-12
-2.1523e-12
1.02369e-11
-2.09557e-12
1.14851e-11
-2.03344e-12
1.26936e-11
-1.96616e-12
1.38594e-11
-1.89402e-12
1.49798e-11
-1.81734e-12
1.60522e-11
-1.73644e-12
1.70744e-11
-1.65167e-12
1.8044e-11
-1.56339e-12
1.89593e-11
-1.47194e-12
1.98186e-11
-1.37768e-12
2.06202e-11
-1.28096e-12
2.13628e-11
-1.1821e-12
2.20454e-11
-1.08144e-12
2.26671e-11
-9.79271e-13
2.32269e-11
-8.75884e-13
2.37244e-11
-7.71552e-13
2.4159e-11
-6.66543e-13
2.45306e-11
-5.61123e-13
2.4839e-11
-4.55569e-13
2.50843e-11
-3.50173e-13
2.52666e-11
-2.4525e-13
2.53863e-11
-1.41133e-13
2.54444e-11
-3.82346e-14
2.54414e-11
6.27428e-14
2.53788e-11
1.61394e-13
2.52584e-11
2.57337e-13
2.50817e-11
3.50475e-13
2.48505e-11
4.4076e-13
2.45665e-11
5.28181e-13
2.42312e-11
6.1274e-13
2.38464e-11
6.94435e-13
2.34137e-11
7.73254e-13
2.29347e-11
8.49174e-13
2.24112e-11
9.22157e-13
2.18448e-11
9.92151e-13
2.12372e-11
1.05909e-12
2.05903e-11
1.12288e-12
1.99057e-11
1.18344e-12
1.91853e-11
1.24069e-12
1.84306e-11
1.29463e-12
1.76431e-11
1.34558e-12
1.68233e-11
1.39454e-12
1.59698e-11
1.44405e-12
1.50775e-11
1.49965e-12
1.41344e-11
1.57169e-12
1.31174e-11
1.67699e-12
1.1989e-11
1.83798e-12
1.06977e-11
2.07564e-12
9.19006e-12
2.39247e-12
7.43852e-12
2.7458e-12
5.48452e-12
3.02328e-12
3.48021e-12
3.0469e-12
1.694e-12
2.63613e-12
4.48043e-13
1.7336e-12
5.30057e-13
-5.16352e-13
1.07927e-12
-1.87436e-12
3.18059e-12
-3.73951e-12
4.6321e-12
-5.75344e-12
5.22046e-12
-7.6425e-12
5.09245e-12
-9.26447e-12
4.56315e-12
-1.05925e-11
3.92718e-12
-1.16683e-11
3.36622e-12
-1.25575e-11
2.94726e-12
-1.33208e-11
2.66384e-12
-1.40032e-11
2.4797e-12
-1.4633e-11
2.35654e-12
-1.52261e-11
2.26542e-12
-1.57907e-11
2.18823e-12
-1.63303e-11
2.11504e-12
-1.6846e-11
2.041e-12
-1.73382e-11
1.96397e-12
-1.78062e-11
1.88312e-12
-1.82496e-11
1.79818e-12
-1.86675e-11
1.70912e-12
-1.90592e-11
1.61597e-12
-1.9424e-11
1.51879e-12
-1.97609e-11
1.41765e-12
-2.00693e-11
1.31261e-12
-2.03482e-11
1.20375e-12
-2.0597e-11
1.09114e-12
-2.0815e-11
9.74865e-13
-2.10013e-11
8.55023e-13
-2.11554e-11
7.3172e-13
-2.12766e-11
6.05077e-13
-2.13644e-11
4.7523e-13
-2.14183e-11
3.42331e-13
-2.14375e-11
2.0656e-13
-2.14218e-11
6.81818e-14
-2.13704e-11
-7.25477e-14
-2.12828e-11
-2.15152e-13
-2.11585e-11
-3.59324e-13
-2.09968e-11
-5.04862e-13
-2.07971e-11
-6.51543e-13
-2.05591e-11
-7.99098e-13
-2.02822e-11
-9.47209e-13
-1.99663e-11
-1.0955e-12
-1.96113e-11
-1.24356e-12
-1.92171e-11
-1.39091e-12
-1.87838e-11
-1.53705e-12
-1.83119e-11
-1.68144e-12
-1.78017e-11
-1.82349e-12
-1.72539e-11
-1.96263e-12
-1.66694e-11
-2.09823e-12
-1.6049e-11
-2.22966e-12
-1.53941e-11
-2.35629e-12
-1.47059e-11
-2.47747e-12
-1.39861e-11
-2.59258e-12
-1.32365e-11
-2.70097e-12
-1.2459e-11
-2.80206e-12
-1.16558e-11
-2.89525e-12
-1.08291e-11
-2.98001e-12
-9.98155e-12
-3.05583e-12
-9.1156e-12
-3.12226e-12
-8.23396e-12
-3.17891e-12
-7.33932e-12
-3.22546e-12
-6.43433e-12
-3.26168e-12
-5.52158e-12
-3.28747e-12
-4.60356e-12
-3.30285e-12
-3.68263e-12
-3.30798e-12
-2.76106e-12
-3.30313e-12
-1.84096e-12
-3.28861e-12
-9.24372e-13
-3.26483e-12
-1.34836e-14
-3.23215e-12
8.89366e-13
-3.19085e-12
1.78186e-12
-3.14117e-12
2.66185e-12
-3.08339e-12
3.52728e-12
-3.01773e-12
4.37614e-12
-2.94442e-12
5.20648e-12
-2.86378e-12
6.01645e-12
-2.77613e-12
6.80428e-12
-2.68185e-12
7.56831e-12
-2.58136e-12
8.30694e-12
-2.47507e-12
9.01872e-12
-2.36345e-12
9.70229e-12
-2.24696e-12
1.03564e-11
-2.12605e-12
1.09799e-11
-2.00119e-12
1.15718e-11
-1.87282e-12
1.21311e-11
-1.7414e-12
1.2657e-11
-1.60735e-12
1.31488e-11
-1.47109e-12
1.3606e-11
-1.33301e-12
1.40279e-11
-1.19353e-12
1.44144e-11
-1.05303e-12
1.47652e-11
-9.11935e-13
1.50804e-11
-7.70686e-13
1.53599e-11
-6.29733e-13
1.56042e-11
-4.89537e-13
1.58136e-11
-3.50559e-13
1.59886e-11
-2.13241e-13
1.61294e-11
-7.79723e-14
1.6236e-11
5.47758e-14
1.63088e-11
1.84497e-13
1.63485e-11
3.10802e-13
1.63556e-11
4.33633e-13
1.63308e-11
5.52968e-13
1.62748e-11
6.68783e-13
1.61882e-11
7.81063e-13
1.60716e-11
8.89789e-13
1.59259e-11
9.94932e-13
1.57516e-11
1.09645e-12
1.55494e-11
1.1943e-12
1.53201e-11
1.28841e-12
1.50643e-11
1.37872e-12
1.47826e-11
1.46516e-12
1.44755e-11
1.54776e-12
1.41434e-11
1.62673e-12
1.37861e-11
1.70289e-12
1.34023e-11
1.77835e-12
1.29883e-11
1.85801e-12
1.25361e-11
1.95192e-12
1.20292e-11
2.0785e-12
1.1439e-11
2.26726e-12
1.07195e-11
2.5574e-12
9.80883e-12
2.98635e-12
8.63954e-12
3.56177e-12
7.16764e-12
4.21769e-12
5.41756e-12
4.77337e-12
3.52821e-12
4.93625e-12
1.7678e-12
4.39654e-12
4.85026e-13
3.01637e-12
1.01508e-12
-4.42537e-13
1.52181e-12
-1.62802e-12
4.36608e-12
-3.24065e-12
6.24472e-12
-4.93384e-12
6.91366e-12
-6.44947e-12
6.60809e-12
-7.66229e-12
5.77598e-12
-8.56006e-12
4.82495e-12
-9.19536e-12
4.00152e-12
-9.64072e-12
3.39262e-12
-9.96132e-12
2.98444e-12
-1.02047e-11
2.72313e-12
-1.04013e-11
2.55307e-12
-1.05683e-11
2.43249e-12
-1.07153e-11
2.33517e-12
-1.08468e-11
2.24661e-12
-1.09654e-11
2.15959e-12
-1.10723e-11
2.07081e-12
-1.1168e-11
1.9789e-12
-1.12532e-11
1.88333e-12
-1.1328e-11
1.78393e-12
-1.13927e-11
1.68066e-12
-1.14474e-11
1.57352e-12
-1.14923e-11
1.46256e-12
-1.15275e-11
1.34782e-12
-1.15531e-11
1.22936e-12
-1.15692e-11
1.10724e-12
-1.15759e-11
9.81554e-13
-1.15733e-11
8.52403e-13
-1.15615e-11
7.19914e-13
-1.15406e-11
5.84226e-13
-1.15109e-11
4.4549e-13
-1.14724e-11
3.03871e-13
-1.14254e-11
1.59545e-13
-1.13701e-11
1.2877e-14
-1.13061e-11
-1.36582e-13
-1.12332e-11
-2.87977e-13
-1.11512e-11
-4.41406e-13
-1.10594e-11
-5.96656e-13
-1.09574e-11
-7.53457e-13
-1.0845e-11
-9.11497e-13
-1.07218e-11
-1.07041e-12
-1.05875e-11
-1.2298e-12
-1.04419e-11
-1.38921e-12
-1.02847e-11
-1.54812e-12
-1.01157e-11
-1.70601e-12
-9.93486e-12
-1.86227e-12
-9.74206e-12
-2.01629e-12
-9.53729e-12
-2.1674e-12
-9.3206e-12
-2.31492e-12
-9.09211e-12
-2.45814e-12
-8.85205e-12
-2.59634e-12
-8.60072e-12
-2.7288e-12
-8.33852e-12
-2.85477e-12
-8.06595e-12
-2.97354e-12
-7.7836e-12
-3.08441e-12
-7.49216e-12
-3.18668e-12
-7.19243e-12
-3.27975e-12
-6.88521e-12
-3.36304e-12
-6.57139e-12
-3.43608e-12
-6.25178e-12
-3.49852e-12
-5.92711e-12
-3.55012e-12
-5.59797e-12
-3.59082e-12
-5.26476e-12
-3.62067e-12
-4.92771e-12
-3.63989e-12
-4.5869e-12
-3.64878e-12
-4.24234e-12
-3.64768e-12
-3.89402e-12
-3.63693e-12
-3.54204e-12
-3.6168e-12
-3.18664e-12
-3.58755e-12
-2.82816e-12
-3.54932e-12
-2.46704e-12
-3.50229e-12
-2.10382e-12
-3.44661e-12
-1.73905e-12
-3.38249e-12
-1.37329e-12
-3.31018e-12
-1.0071e-12
-3.22996e-12
-6.41041e-13
-3.14218e-12
-2.7568e-13
-3.04721e-12
8.84179e-14
-2.94546e-12
4.50694e-13
-2.83734e-12
8.10558e-13
-2.72331e-12
1.16744e-12
-2.60384e-12
1.52076e-12
-2.47937e-12
1.86996e-12
-2.35038e-12
2.21446e-12
-2.21732e-12
2.5537e-12
-2.08064e-12
2.88714e-12
-1.94078e-12
3.21422e-12
-1.79817e-12
3.53444e-12
-1.65323e-12
3.84734e-12
-1.50642e-12
4.15249e-12
-1.35818e-12
4.44958e-12
-1.20902e-12
4.73837e-12
-1.05947e-12
5.01872e-12
-9.10081e-13
5.29059e-12
-7.6141e-13
5.55403e-12
-6.13996e-13
5.80912e-12
-4.68325e-13
6.05592e-12
-3.24775e-13
6.29428e-12
-1.83584e-13
6.52361e-12
-4.48267e-14
6.74359e-12
9.08271e-14
6.95379e-12
2.23426e-13
7.15394e-12
3.52827e-13
7.34378e-12
4.78946e-13
7.52307e-12
6.01767e-13
7.69159e-12
7.21268e-13
7.8491e-12
8.37427e-13
7.99534e-12
9.50216e-13
8.13004e-12
1.0596e-12
8.25292e-12
1.16554e-12
8.36364e-12
1.268e-12
8.46181e-12
1.36699e-12
8.54693e-12
1.46264e-12
8.61825e-12
1.55541e-12
8.67448e-12
1.64666e-12
8.71318e-12
1.73964e-12
8.72955e-12
1.84163e-12
8.71417e-12
1.96731e-12
8.64936e-12
2.14331e-12
8.50442e-12
2.4122e-12
8.23099e-12
2.83083e-12
7.76271e-12
3.45464e-12
7.02539e-12
4.29909e-12
5.96445e-12
5.27863e-12
4.5898e-12
6.14802e-12
3.02349e-12
6.50257e-12
1.51808e-12
5.90195e-12
4.10068e-13
4.12439e-12
1.42515e-12
-4.04535e-13
1.92635e-12
-1.4975e-12
5.45906e-12
-2.97336e-12
7.72058e-12
-4.49295e-12
8.43325e-12
-5.80658e-12
7.92171e-12
-6.79842e-12
6.76782e-12
-7.46486e-12
5.49139e-12
-7.86496e-12
4.40163e-12
-8.07544e-12
3.6031e-12
-8.16382e-12
3.07282e-12
-8.17889e-12
2.7382e-12
-8.15158e-12
2.52577e-12
-8.09977e-12
2.38068e-12
-8.03316e-12
2.26856e-12
-7.95693e-12
2.17037e-12
-7.8739e-12
2.07656e-12
-7.78579e-12
1.98271e-12
-7.69378e-12
1.8869e-12
-7.5988e-12
1.78835e-12
-7.50162e-12
1.68675e-12
-7.40294e-12
1.58198e-12
-7.3034e-12
1.47399e-12
-7.2036e-12
1.36276e-12
-7.10408e-12
1.2483e-12
-7.00533e-12
1.13062e-12
-6.90784e-12
1.00975e-12
-6.81204e-12
8.85756e-13
-6.71834e-12
7.587e-13
-6.6271e-12
6.28682e-13
-6.53868e-12
4.95813e-13
-6.45341e-12
3.60217e-13
-6.37155e-12
2.22021e-13
-6.29337e-12
8.13655e-14
-6.21881e-12
-6.16773e-14
-6.14834e-12
-2.07053e-13
-6.08164e-12
-3.54673e-13
-6.01863e-12
-5.04416e-13
-5.9592e-12
-6.56084e-13
-5.90322e-12
-8.09425e-13
-5.85057e-12
-9.64144e-13
-5.80107e-12
-1.11991e-12
-5.75452e-12
-1.27636e-12
-5.71067e-12
-1.43305e-12
-5.66925e-12
-1.58953e-12
-5.62998e-12
-1.74528e-12
-5.59254e-12
-1.89971e-12
-5.55661e-12
-2.05222e-12
-5.52186e-12
-2.20214e-12
-5.48801e-12
-2.34877e-12
-5.45474e-12
-2.4914e-12
-5.4218e-12
-2.62927e-12
-5.38897e-12
-2.76163e-12
-5.35603e-12
-2.8877e-12
-5.32285e-12
-3.00672e-12
-5.28932e-12
-3.11793e-12
-5.25538e-12
-3.22062e-12
-5.22099e-12
-3.31413e-12
-5.18614e-12
-3.39789e-12
-5.15075e-12
-3.47146e-12
-5.1147e-12
-3.53456e-12
-5.07771e-12
-3.58712e-12
-5.03928e-12
-3.62924e-12
-4.99874e-12
-3.66121e-12
-4.95517e-12
-3.68346e-12
-4.90754e-12
-3.69641e-12
-4.85473e-12
-3.70049e-12
-4.79568e-12
-3.69597e-12
-4.72944e-12
-3.68304e-12
-4.6552e-12
-3.66178e-12
-4.57232e-12
-3.6322e-12
-4.48031e-12
-3.5943e-12
-4.37879e-12
-3.54813e-12
-4.26747e-12
-3.49381e-12
-4.14616e-12
-3.43149e-12
-4.0147e-12
-3.36142e-12
-3.87301e-12
-3.28387e-12
-3.72106e-12
-3.19916e-12
-3.55887e-12
-3.10764e-12
-3.38652e-12
-3.00969e-12
-3.20414e-12
-2.90569e-12
-3.01193e-12
-2.79604e-12
-2.81015e-12
-2.68116e-12
-2.59908e-12
-2.56144e-12
-2.3791e-12
-2.4373e-12
-2.15061e-12
-2.30913e-12
-1.91406e-12
-2.17733e-12
-1.66993e-12
-2.0423e-12
-1.41874e-12
-1.90442e-12
-1.16101e-12
-1.76415e-12
-8.97246e-13
-1.62194e-12
-6.27955e-13
-1.47831e-12
-3.53592e-13
-1.33383e-12
-7.45667e-14
-1.1891e-12
2.08757e-13
-1.04473e-12
4.96051e-13
-9.01288e-13
7.87008e-13
-7.5928e-13
1.08133e-12
-6.19096e-13
1.37875e-12
-4.81e-13
1.67911e-12
-3.45186e-13
1.98175e-12
-2.11807e-13
2.28606e-12
-8.08857e-14
2.59139e-12
4.74961e-14
2.89708e-12
1.73255e-13
3.20248e-12
2.96376e-13
3.50691e-12
4.16834e-13
3.80971e-12
5.34633e-13
4.11015e-12
6.49779e-13
4.40748e-12
7.62263e-13
4.70095e-12
8.72079e-13
4.98971e-12
9.79235e-13
5.27291e-12
1.0838e-12
5.54952e-12
1.18602e-12
5.81833e-12
1.28661e-12
6.07758e-12
1.38741e-12
6.3244e-12
1.49281e-12
6.55362e-12
1.61242e-12
6.75544e-12
1.76549e-12
6.91184e-12
1.98691e-12
6.99154e-12
2.33251e-12
6.9451e-12
2.87726e-12
6.704e-12
3.69574e-12
6.19011e-12
4.81298e-12
5.34265e-12
6.12608e-12
4.16321e-12
7.32746e-12
2.76471e-12
7.90106e-12
1.3916e-12
7.27507e-12
3.73179e-13
5.14281e-12
1.79833e-12
-4.05942e-13
2.3323e-12
-1.49833e-12
6.55145e-12
-2.96396e-12
9.18621e-12
-4.45732e-12
9.92662e-12
-5.72651e-12
9.1909e-12
-6.65777e-12
7.69909e-12
-7.25192e-12
6.08554e-12
-7.57276e-12
4.72247e-12
-7.70084e-12
3.73119e-12
-7.70628e-12
3.07827e-12
-7.6394e-12
2.67133e-12
-7.53195e-12
2.41832e-12
-7.40218e-12
2.25092e-12
-7.26e-12
2.12639e-12
-7.11071e-12
2.02109e-12
-6.95727e-12
1.92312e-12
-6.80151e-12
1.82695e-12
-6.64475e-12
1.73014e-12
-6.48805e-12
1.63166e-12
-6.33235e-12
1.53106e-12
-6.17851e-12
1.42814e-12
-6.02729e-12
1.32278e-12
-5.87943e-12
1.2149e-12
-5.73558e-12
1.10446e-12
-5.59637e-12
9.91407e-13
-5.46233e-12
8.75722e-13
-5.33397e-12
7.57403e-13
-5.21173e-12
6.36462e-13
-5.09598e-12
5.12936e-13
-4.98704e-12
3.8687e-13
-4.88515e-12
2.58332e-13
-4.79051e-12
1.27382e-13
-4.70323e-12
-5.91102e-15
-4.62337e-12
-1.41527e-13
-4.55101e-12
-2.79409e-13
-4.48617e-12
-4.1951e-13
-4.42888e-12
-5.61707e-13
-4.37913e-12
-7.05824e-13
-4.33691e-12
-8.51648e-13
-4.30211e-12
-9.98933e-13
-4.27462e-12
-1.1474e-12
-4.25424e-12
-1.29673e-12
-4.24071e-12
-1.44658e-12
-4.23373e-12
-1.59651e-12
-4.23294e-12
-1.74606e-12
-4.23795e-12
-1.8947e-12
-4.24834e-12
-2.04182e-12
-4.26368e-12
-2.1868e-12
-4.28351e-12
-2.32893e-12
-4.30742e-12
-2.46749e-12
-4.33497e-12
-2.60172e-12
-4.36577e-12
-2.73083e-12
-4.39944e-12
-2.85403e-12
-4.43564e-12
-2.97052e-12
-4.47406e-12
-3.07951e-12
-4.51443e-12
-3.18025e-12
-4.55648e-12
-3.27208e-12
-4.59994e-12
-3.35442e-12
-4.64452e-12
-3.42688e-12
-4.6898e-12
-3.48928e-12
-4.73524e-12
-3.54167e-12
-4.7801e-12
-3.58437e-12
-4.82341e-12
-3.6179e-12
-4.864e-12
-3.64286e-12
-4.90056e-12
-3.65986e-12
-4.93169e-12
-3.66936e-12
-4.95602e-12
-3.67163e-12
-4.97229e-12
-3.66676e-12
-4.97941e-12
-3.65467e-12
-4.97641e-12
-3.63519e-12
-4.96252e-12
-3.60818e-12
-4.9371e-12
-3.57355e-12
-4.89961e-12
-3.53129e-12
-4.84963e-12
-3.48147e-12
-4.78682e-12
-3.42423e-12
-4.7109e-12
-3.35978e-12
-4.62168e-12
-3.28837e-12
-4.51904e-12
-3.21029e-12
-4.4029e-12
-3.12582e-12
-4.27328e-12
-3.0353e-12
-4.13026e-12
-2.93906e-12
-3.97397e-12
-2.83744e-12
-3.80462e-12
-2.73079e-12
-3.62249e-12
-2.61943e-12
-3.4279e-12
-2.50372e-12
-3.22125e-12
-2.38399e-12
-3.00296e-12
-2.26058e-12
-2.77352e-12
-2.13387e-12
-2.53342e-12
-2.00425e-12
-2.28318e-12
-1.87218e-12
-2.0233e-12
-1.73819e-12
-1.75428e-12
-1.60285e-12
-1.47657e-12
-1.46681e-12
-1.19062e-12
-1.33069e-12
-8.9683e-13
-1.19508e-12
-5.95619e-13
-1.06049e-12
-2.87394e-13
-9.2732e-13
2.74471e-14
-7.95839e-13
3.48486e-13
-6.66223e-13
6.75232e-13
-5.38551e-13
1.00718e-12
-4.12837e-13
1.34374e-12
-2.89059e-13
1.68419e-12
-1.67188e-13
2.02775e-12
-4.71901e-14
2.37365e-12
7.09363e-14
2.72103e-12
1.87251e-13
3.06903e-12
3.01786e-13
3.41675e-12
4.14548e-13
3.76326e-12
5.2557e-13
4.10758e-12
6.34912e-13
4.44868e-12
7.427e-13
4.78542e-12
8.49286e-13
5.11642e-12
9.55608e-13
5.43983e-12
1.06401e-12
5.75267e-12
1.17997e-12
6.04966e-12
1.31543e-12
6.32085e-12
1.4943e-12
6.54787e-12
1.75989e-12
6.69874e-12
2.18164e-12
6.72263e-12
2.85337e-12
6.5486e-12
3.86977e-12
6.09496e-12
5.26662e-12
5.29651e-12
6.92453e-12
4.15084e-12
8.47314e-12
2.76929e-12
9.28261e-12
1.39906e-12
8.6453e-12
3.7638e-13
6.16549e-12
2.17471e-12
-4.24954e-13
2.75725e-12
-1.56292e-12
7.68942e-12
-3.0838e-12
1.07071e-11
-4.62657e-12
1.14694e-11
-5.92987e-12
1.04942e-11
-6.8773e-12
8.64652e-12
-7.47186e-12
6.68011e-12
-7.78168e-12
5.03229e-12
-7.89167e-12
3.84118e-12
-7.87539e-12
3.06199e-12
-7.78543e-12
2.58138e-12
-7.65487e-12
2.28776e-12
-7.50265e-12
2.0987e-12
-7.33899e-12
1.96274e-12
-7.16933e-12
1.85143e-12
-6.99665e-12
1.75045e-12
-6.82282e-12
1.65312e-12
-6.64916e-12
1.55648e-12
-6.47675e-12
1.45926e-12
-6.30655e-12
1.36086e-12
-6.13942e-12
1.26101e-12
-5.97616e-12
1.15952e-12
-5.8175e-12
1.05625e-12
-5.66411e-12
9.51074e-13
-5.5166e-12
8.43896e-13
-5.3755e-12
7.34624e-13
-5.24127e-12
6.23183e-13
-5.11432e-12
5.09514e-13
-4.99496e-12
3.93576e-13
-4.88343e-12
2.75343e-13
-4.77989e-12
1.54799e-13
-4.68445e-12
3.19506e-14
-4.59711e-12
-9.32554e-14
-4.51787e-12
-2.20762e-13
-4.4467e-12
-3.50576e-13
-4.38356e-12
-4.82641e-13
-4.32841e-12
-6.16858e-13
-4.28115e-12
-7.53078e-13
-4.24167e-12
-8.91123e-13
-4.20981e-12
-1.03079e-12
-4.18534e-12
-1.17186e-12
-4.168e-12
-1.31407e-12
-4.15744e-12
-1.45713e-12
-4.15328e-12
-1.60067e-12
-4.15507e-12
-1.74427e-12
-4.16233e-12
-1.88743e-12
-4.17456e-12
-2.02959e-12
-4.19125e-12
-2.1701e-12
-4.21189e-12
-2.30828e-12
-4.23599e-12
-2.44338e-12
-4.26309e-12
-2.57462e-12
-4.29276e-12
-2.70116e-12
-4.3246e-12
-2.82218e-12
-4.35829e-12
-2.93683e-12
-4.39352e-12
-3.04427e-12
-4.43007e-12
-3.1437e-12
-4.46772e-12
-3.23442e-12
-4.50627e-12
-3.31586e-12
-4.54549e-12
-3.38766e-12
-4.58506e-12
-3.4497e-12
-4.62452e-12
-3.50221e-12
-4.66323e-12
-3.54567e-12
-4.70031e-12
-3.58081e-12
-4.73469e-12
-3.60848e-12
-4.76513e-12
-3.62941e-12
-4.79031e-12
-3.64417e-12
-4.80891e-12
-3.65303e-12
-4.81972e-12
-3.65595e-12
-4.82165e-12
-3.65273e-12
-4.81379e-12
-3.64305e-12
-4.79539e-12
-3.62657e-12
-4.76587e-12
-3.60308e-12
-4.72473e-12
-3.57243e-12
-4.67159e-12
-3.5346e-12
-4.60615e-12
-3.48966e-12
-4.52818e-12
-3.43775e-12
-4.43751e-12
-3.37905e-12
-4.33401e-12
-3.31378e-12
-4.21765e-12
-3.24219e-12
-4.0884e-12
-3.16455e-12
-3.94632e-12
-3.08114e-12
-3.79151e-12
-2.99225e-12
-3.62413e-12
-2.89816e-12
-3.4444e-12
-2.79916e-12
-3.25256e-12
-2.69555e-12
-3.04894e-12
-2.58761e-12
-2.83388e-12
-2.47564e-12
-2.60777e-12
-2.35998e-12
-2.37099e-12
-2.24102e-12
-2.12396e-12
-2.11921e-12
-1.86706e-12
-1.99508e-12
-1.60067e-12
-1.86924e-12
-1.32515e-12
-1.74233e-12
-1.04084e-12
-1.61499e-12
-7.48094e-13
-1.48782e-12
-4.47278e-13
-1.3613e-12
-1.3876e-13
-1.23584e-12
1.77035e-13
-1.11163e-12
4.99638e-13
-9.88824e-13
8.28541e-13
-8.67453e-13
1.16318e-12
-7.47478e-13
1.50295e-12
-6.28826e-13
1.84717e-12
-5.11404e-13
2.1951e-12
-3.95122e-13
2.54593e-12
-2.79888e-13
2.89881e-12
-1.6563e-13
3.25287e-12
-5.22744e-14
3.60721e-12
6.02145e-14
3.96083e-12
1.71943e-13
4.31275e-12
2.82999e-13
4.6619e-12
3.93551e-13
5.00713e-12
5.04055e-13
5.34707e-12
6.15666e-13
5.67986e-12
7.31222e-13
6.00249e-12
8.57335e-13
6.30957e-12
1.00836e-12
6.59087e-12
1.21299e-12
6.82742e-12
1.52334e-12
6.98599e-12
2.02307e-12
7.01363e-12
2.82573e-12
6.83618e-12
4.04722e-12
6.36787e-12
5.73493e-12
5.53958e-12
7.75282e-12
4.34719e-12
9.66553e-12
2.90528e-12
1.07245e-11
1.4712e-12
1.00794e-11
3.97364e-13
7.23932e-12
2.57208e-12
-4.50377e-13
3.20763e-12
-1.65331e-12
8.89236e-12
-3.25806e-12
1.23118e-11
-4.88306e-12
1.30944e-11
-6.2532e-12
1.18643e-11
-7.24678e-12
9.64011e-12
-7.86797e-12
7.3013e-12
-8.18927e-12
5.3536e-12
-8.30064e-12
3.95256e-12
-8.27985e-12
3.0412e-12
-8.18247e-12
2.484e-12
-8.04339e-12
2.14868e-12
-7.88256e-12
1.93787e-12
-7.71071e-12
1.79089e-12
-7.53349e-12
1.67421e-12
-7.35399e-12
1.57095e-12
-7.17408e-12
1.47321e-12
-6.99509e-12
1.37749e-12
-6.81808e-12
1.28225e-12
-6.64401e-12
1.18679e-12
-6.47371e-12
1.09072e-12
-6.30798e-12
9.93788e-13
-6.14751e-12
8.95789e-13
-5.99297e-12
7.96538e-13
-5.84493e-12
6.95859e-13
-5.7039e-12
5.93589e-13
-5.57028e-12
4.89574e-13
-5.44445e-12
3.83679e-13
-5.32664e-12
2.75775e-13
-5.21705e-12
1.65753e-13
-5.11578e-12
5.35352e-14
-5.02278e-12
-6.10448e-14
-4.93806e-12
-1.77977e-13
-4.86147e-12
-2.97342e-13
-4.79288e-12
-4.19171e-13
-4.73207e-12
-5.43446e-13
-4.67882e-12
-6.70096e-13
-4.63289e-12
-7.9901e-13
-4.59397e-12
-9.30041e-13
-4.56173e-12
-1.06302e-12
-4.53582e-12
-1.19777e-12
-4.5158e-12
-1.33408e-12
-4.50122e-12
-1.47171e-12
-4.49154e-12
-1.61035e-12
-4.48619e-12
-1.74961e-12
-4.4846e-12
-1.88902e-12
-4.48614e-12
-2.02804e-12
-4.49023e-12
-2.16601e-12
-4.49628e-12
-2.30223e-12
-4.50375e-12
-2.43591e-12
-4.51216e-12
-2.56621e-12
-4.52107e-12
-2.69225e-12
-4.53013e-12
-2.81312e-12
-4.53906e-12
-2.92789e-12
-4.54768e-12
-3.03564e-12
-4.55587e-12
-3.13551e-12
-4.56358e-12
-3.22671e-12
-4.57078e-12
-3.30866e-12
-4.57744e-12
-3.38099e-12
-4.58347e-12
-3.44367e-12
-4.58862e-12
-3.49705e-12
-4.59248e-12
-3.54181e-12
-4.59438e-12
-3.57891e-12
-4.59344e-12
-3.60941e-12
-4.58861e-12
-3.63424e-12
-4.57873e-12
-3.65405e-12
-4.56264e-12
-3.66911e-12
-4.53928e-12
-3.67931e-12
-4.50773e-12
-3.68428e-12
-4.46724e-12
-3.68353e-12
-4.41725e-12
-3.67656e-12
-4.35732e-12
-3.663e-12
-4.28714e-12
-3.6426e-12
-4.20649e-12
-3.61525e-12
-4.1152e-12
-3.58095e-12
-4.01315e-12
-3.53979e-12
-3.90028e-12
-3.49192e-12
-3.77653e-12
-3.43752e-12
-3.6419e-12
-3.37682e-12
-3.4964e-12
-3.31005e-12
-3.34008e-12
-3.23746e-12
-3.17302e-12
-3.15931e-12
-2.99533e-12
-3.07585e-12
-2.80715e-12
-2.98734e-12
-2.60867e-12
-2.89403e-12
-2.4001e-12
-2.79618e-12
-2.18165e-12
-2.69408e-12
-1.9536e-12
-2.58804e-12
-1.71617e-12
-2.47845e-12
-1.46959e-12
-2.36578e-12
-1.21409e-12
-2.25058e-12
-9.49839e-13
-2.13349e-12
-6.77036e-13
-2.01513e-12
-3.95848e-13
-1.89618e-12
-1.065e-13
-1.77717e-12
1.90737e-13
-1.65854e-12
4.95518e-13
-1.54062e-12
8.07475e-13
-1.42359e-12
1.12616e-12
-1.30751e-12
1.45105e-12
-1.19234e-12
1.78157e-12
-1.078e-12
2.11708e-12
-9.64339e-13
2.4569e-12
-8.51224e-13
2.80029e-12
-7.38508e-13
3.14646e-12
-6.26055e-13
3.49457e-12
-5.13741e-13
3.84375e-12
-4.01457e-13
4.19307e-12
-2.89098e-13
4.54158e-12
-1.76569e-13
4.88831e-12
-6.37316e-14
5.23225e-12
4.96084e-14
5.57225e-12
1.64062e-13
5.90691e-12
2.80999e-13
6.2344e-12
4.03742e-13
6.55163e-12
5.40099e-13
6.85303e-12
7.06964e-13
7.1279e-12
9.38115e-13
7.35634e-12
1.2949e-12
7.50341e-12
1.87601e-12
7.51335e-12
2.81579e-12
7.30803e-12
4.25254e-12
6.79698e-12
6.24599e-12
5.90711e-12
8.64268e-12
4.63371e-12
1.09389e-11
3.09733e-12
1.22609e-11
1.56982e-12
1.16069e-11
4.24905e-13
8.38424e-12
2.99698e-12
-4.79354e-13
3.68699e-12
-1.75823e-12
1.01712e-11
-3.46268e-12
1.40163e-11
-5.18712e-12
1.48188e-11
-6.63981e-12
1.3317e-11
-7.6922e-12
1.06925e-11
-8.34922e-12
7.95832e-12
-8.68812e-12
5.69251e-12
-8.8046e-12
4.06903e-12
-8.78134e-12
3.01795e-12
-8.67746e-12
2.38013e-12
-8.53012e-12
2.00134e-12
-8.36054e-12
1.7683e-12
-8.18015e-12
1.6105e-12
-7.99492e-12
1.48898e-12
-7.80807e-12
1.38411e-12
-7.62155e-12
1.28669e-12
-7.43669e-12
1.19264e-12
-7.25458e-12
1.10014e-12
-7.07614e-12
1.00836e-12
-6.90223e-12
9.16809e-13
-6.73361e-12
8.25175e-13
-6.571e-12
7.33178e-13
-6.41501e-12
6.40556e-13
-6.26621e-12
5.4706e-13
-6.12507e-12
4.52448e-13
-5.99197e-12
3.5648e-13
-5.86722e-12
2.58932e-13
-5.75104e-12
1.596e-13
-5.64357e-12
5.82854e-14
-5.54475e-12
-4.52838e-14
-5.4546e-12
-1.51188e-13
-5.37295e-12
-2.59622e-13
-5.29956e-12
-3.70729e-13
-5.23411e-12
-4.84612e-13
-5.17624e-12
-6.01321e-13
-5.12549e-12
-7.20839e-13
-5.0814e-12
-8.43095e-13
-5.04346e-12
-9.67975e-13
-5.01114e-12
-1.09534e-12
-4.98388e-12
-1.22503e-12
-4.96106e-12
-1.3569e-12
-4.94204e-12
-1.49073e-12
-4.92613e-12
-1.62626e-12
-4.9126e-12
-1.76313e-12
-4.90071e-12
-1.90091e-12
-4.88972e-12
-2.03902e-12
-4.87891e-12
-2.17682e-12
-4.86761e-12
-2.31353e-12
-4.8552e-12
-2.44831e-12
-4.84114e-12
-2.58025e-12
-4.82502e-12
-2.70837e-12
-4.80649e-12
-2.83164e-12
-4.78537e-12
-2.949e-12
-4.76159e-12
-3.05943e-12
-4.73517e-12
-3.16192e-12
-4.70628e-12
-3.2556e-12
-4.67512e-12
-3.33982e-12
-4.64192e-12
-3.41418e-12
-4.60686e-12
-3.47873e-12
-4.56997e-12
-3.53394e-12
-4.53107e-12
-3.58069e-12
-4.48977e-12
-3.62021e-12
-4.44538e-12
-3.65379e-12
-4.39704e-12
-3.68257e-12
-4.34379e-12
-3.7073e-12
-4.28465e-12
-3.72825e-12
-4.21874e-12
-3.74522e-12
-4.14536e-12
-3.75766e-12
-4.064e-12
-3.76489e-12
-3.97431e-12
-3.76625e-12
-3.87611e-12
-3.7612e-12
-3.76932e-12
-3.7494e-12
-3.65391e-12
-3.73066e-12
-3.52991e-12
-3.70495e-12
-3.39736e-12
-3.67234e-12
-3.2563e-12
-3.63297e-12
-3.10679e-12
-3.58703e-12
-2.94888e-12
-3.53473e-12
-2.78259e-12
-3.47633e-12
-2.60799e-12
-3.41206e-12
-2.42513e-12
-3.34217e-12
-2.23404e-12
-3.26693e-12
-2.03481e-12
-3.18656e-12
-1.82752e-12
-3.10132e-12
-1.61223e-12
-3.01146e-12
-1.38906e-12
-2.91725e-12
-1.15806e-12
-2.81903e-12
-9.19304e-13
-2.7172e-12
-6.72809e-13
-2.61227e-12
-4.18542e-13
-2.50485e-12
-1.56476e-13
-2.39555e-12
1.13418e-13
-2.28503e-12
3.91111e-13
-2.17387e-12
6.76542e-13
-2.0626e-12
9.69556e-13
-1.95155e-12
1.2699e-12
-1.84096e-12
1.57724e-12
-1.73092e-12
1.89114e-12
-1.6214e-12
2.21109e-12
-1.51229e-12
2.53651e-12
-1.40342e-12
2.86679e-12
-1.29461e-12
3.20121e-12
-1.18564e-12
3.53903e-12
-1.07633e-12
3.87948e-12
-9.66498e-13
4.22171e-12
-8.55972e-13
4.56486e-12
-7.44609e-13
4.90804e-12
-6.32272e-13
5.2503e-12
-5.18827e-13
5.59067e-12
-4.04106e-13
5.92809e-12
-2.87813e-13
6.26144e-12
-1.6929e-13
6.58935e-12
-4.69093e-14
6.91e-12
8.30915e-14
7.22015e-12
2.29957e-13
7.5139e-12
4.13211e-13
7.77997e-12
6.72051e-13
7.99721e-12
1.07766e-12
8.12857e-12
1.74464e-12
8.11495e-12
2.82941e-12
7.87356e-12
4.49393e-12
7.30858e-12
6.81097e-12
6.34266e-12
9.6086e-12
4.97092e-12
1.23107e-11
3.32153e-12
1.39103e-11
1.68376e-12
1.32447e-11
4.56182e-13
9.61182e-12
3.45316e-12
-5.11809e-13
4.1988e-12
-1.87638e-12
1.15358e-11
-3.69373e-12
1.58337e-11
-5.53091e-12
1.6656e-11
-7.07719e-12
1.48633e-11
-8.19606e-12
1.18114e-11
-8.89312e-12
8.65538e-12
-9.25096e-12
6.05036e-12
-9.37172e-12
4.1898e-12
-9.34373e-12
2.98996e-12
-9.23021e-12
2.26661e-12
-9.07093e-12
1.84206e-12
-8.8887e-12
1.58607e-12
-8.69574e-12
1.41755e-12
-8.49847e-12
1.29171e-12
-8.30032e-12
1.18597e-12
-8.10334e-12