/*--------------------------------*- C++ -*----------------------------------*\
| =========                 |                                                 |
| \\      /  F ield         | OpenFOAM: The Open Source CFD Toolbox           |
|  \\    /   O peration     | Version:  2206                                  |
|   \\  /    A nd           | Website:  www.openfoam.com                      |
|    \\/     M anipulation  |                                                 |
\*---------------------------------------------------------------------------*/
FoamFile
{
    version     2.0;
    format      ascii;
    arch        "LSB;label=64;scalar=64";
    class       volVectorField;
    location    "421200";
    object      U;
}
// * * * * * * * * * * * * * * * * * * * * * * * * * * * * * * * * * * * * * //

dimensions      [0 1 -1 0 0 0 0];

internalField   nonuniform List<vector> 
16
(
(5.50743e-08 -7.9777e-08 0)
(2.85551e-07 -5.44957e-08 0)
(2.86093e-07 5.24574e-08 0)
(5.44242e-08 8.14526e-08 0)
(2.81189e-08 -2.58708e-07 0)
(1.32528e-07 -1.84022e-07 0)
(1.34247e-07 1.86327e-07 0)
(2.65087e-08 2.56004e-07 0)
(-2.49025e-08 -2.37216e-07 0)
(-1.73554e-07 -1.60581e-07 0)
(-1.69364e-07 1.59715e-07 0)
(-2.22451e-08 2.38757e-07 0)
(-5.66944e-08 -6.4624e-08 0)
(-2.46004e-07 -3.80611e-08 0)
(-2.49828e-07 3.2599e-08 0)
(-5.95088e-08 6.98392e-08 0)
)
;

boundaryField
{
    movingWall
    {
        type            noSlip;
    }
    fixedWalls
    {
        type            noSlip;
    }
    frontAndBack
    {
        type            empty;
    }
}


// ************************************************************************* //
