/*--------------------------------*- C++ -*----------------------------------*\
| =========                 |                                                 |
| \\      /  F ield         | OpenFOAM: The Open Source CFD Toolbox           |
|  \\    /   O peration     | Version:  2212                                  |
|   \\  /    A nd           | Website:  www.openfoam.com                      |
|    \\/     M anipulation  |                                                 |
\*---------------------------------------------------------------------------*/
FoamFile
{
    version     2.0;
    format      ascii;
    arch        "LSB;label=64;scalar=64";
    class       volVectorField;
    location    "0.61";
    object      U;
}
// * * * * * * * * * * * * * * * * * * * * * * * * * * * * * * * * * * * * * //

dimensions      [0 1 -1 0 0 0 0];

internalField   nonuniform List<vector> 
32768
(
(3.73641e-07 -1.05598e-06 0)
(-2.25353e-06 2.09399e-07 0)
(-8.84203e-06 1.90504e-06 0)
(-1.78405e-05 2.97335e-06 0)
(-2.76398e-05 3.30841e-06 0)
(-3.70696e-05 3.19092e-06 0)
(-4.56087e-05 2.91743e-06 0)
(-5.32303e-05 2.66648e-06 0)
(-6.01364e-05 2.5003e-06 0)
(-6.65629e-05 2.41277e-06 0)
(-7.26888e-05 2.37405e-06 0)
(-7.86199e-05 2.35575e-06 0)
(-8.44044e-05 2.33931e-06 0)
(-9.00555e-05 2.31548e-06 0)
(-9.55685e-05 2.28099e-06 0)
(-0.000100931 2.23565e-06 0)
(-0.000106129 2.18043e-06 0)
(-0.000111148 2.11651e-06 0)
(-0.000115974 2.04493e-06 0)
(-0.000120593 1.96651e-06 0)
(-0.000124993 1.88184e-06 0)
(-0.000129162 1.79137e-06 0)
(-0.000133088 1.69545e-06 0)
(-0.00013676 1.59432e-06 0)
(-0.000140167 1.48817e-06 0)
(-0.000143297 1.37716e-06 0)
(-0.000146142 1.26146e-06 0)
(-0.000148689 1.14124e-06 0)
(-0.000150928 1.01671e-06 0)
(-0.000152851 8.88159e-07 0)
(-0.000154447 7.56014e-07 0)
(-0.000155707 6.20883e-07 0)
(-0.000156623 4.83689e-07 0)
(-0.00015719 3.45537e-07 0)
(-0.000157398 2.06318e-07 0)
(-0.000157246 6.43779e-08 0)
(-0.000156728 -8.09603e-08 0)
(-0.000155842 -2.28737e-07 0)
(-0.000154584 -3.78081e-07 0)
(-0.000152953 -5.28378e-07 0)
(-0.000150949 -6.79141e-07 0)
(-0.000148571 -8.29923e-07 0)
(-0.000145821 -9.80272e-07 0)
(-0.000142701 -1.12971e-06 0)
(-0.000139215 -1.27774e-06 0)
(-0.000135366 -1.42383e-06 0)
(-0.00013116 -1.56743e-06 0)
(-0.000126606 -1.70795e-06 0)
(-0.000121712 -1.84482e-06 0)
(-0.000116488 -1.97742e-06 0)
(-0.000110946 -2.10514e-06 0)
(-0.000105099 -2.22736e-06 0)
(-9.89615e-05 -2.34349e-06 0)
(-9.25498e-05 -2.45292e-06 0)
(-8.58814e-05 -2.55511e-06 0)
(-7.8975e-05 -2.64953e-06 0)
(-7.18507e-05 -2.73569e-06 0)
(-6.45296e-05 -2.8131e-06 0)
(-5.70342e-05 -2.88127e-06 0)
(-4.93878e-05 -2.93965e-06 0)
(-4.16152e-05 -2.9876e-06 0)
(-3.37423e-05 -3.02443e-06 0)
(-2.5796e-05 -3.04943e-06 0)
(-1.78045e-05 -3.06193e-06 0)
(-9.79638e-06 -3.06141e-06 0)
(-1.79825e-06 -3.04817e-06 0)
(6.16265e-06 -3.02411e-06 0)
(1.40569e-05 -2.99079e-06 0)
(2.18647e-05 -2.94841e-06 0)
(2.95637e-05 -2.89722e-06 0)
(3.71325e-05 -2.83747e-06 0)
(4.45503e-05 -2.76931e-06 0)
(5.17971e-05 -2.69293e-06 0)
(5.88531e-05 -2.60861e-06 0)
(6.56995e-05 -2.51671e-06 0)
(7.23182e-05 -2.41763e-06 0)
(7.86919e-05 -2.31182e-06 0)
(8.48048e-05 -2.19976e-06 0)
(9.06419e-05 -2.08198e-06 0)
(9.61894e-05 -1.95901e-06 0)
(0.000101435 -1.83142e-06 0)
(0.000106367 -1.69977e-06 0)
(0.000110976 -1.5646e-06 0)
(0.000115253 -1.42644e-06 0)
(0.00011919 -1.28579e-06 0)
(0.000122782 -1.14312e-06 0)
(0.000126022 -9.98849e-07 0)
(0.000128906 -8.5333e-07 0)
(0.000131432 -7.06899e-07 0)
(0.000133596 -5.59896e-07 0)
(0.000135396 -4.12706e-07 0)
(0.000136832 -2.65823e-07 0)
(0.000137904 -1.19963e-07 0)
(0.000138614 2.38051e-08 0)
(0.000138963 1.64162e-07 0)
(0.000138957 3.00541e-07 0)
(0.000138601 4.34516e-07 0)
(0.000137905 5.65856e-07 0)
(0.000136876 6.94062e-07 0)
(0.000135524 8.18666e-07 0)
(0.000133858 9.39299e-07 0)
(0.00013189 1.05571e-06 0)
(0.000129629 1.16772e-06 0)
(0.000127086 1.27523e-06 0)
(0.00012427 1.37809e-06 0)
(0.000121192 1.47616e-06 0)
(0.000117864 1.56923e-06 0)
(0.000114295 1.65704e-06 0)
(0.000110497 1.73925e-06 0)
(0.000106481 1.81539e-06 0)
(0.00010226 1.88483e-06 0)
(9.78463e-05 1.94675e-06 0)
(9.32535e-05 2.00007e-06 0)
(8.84957e-05 2.04358e-06 0)
(8.35873e-05 2.07629e-06 0)
(7.85401e-05 2.09837e-06 0)
(7.33586e-05 2.11313e-06 0)
(6.8029e-05 2.13001e-06 0)
(6.25018e-05 2.16797e-06 0)
(5.66691e-05 2.25611e-06 0)
(5.03472e-05 2.42537e-06 0)
(4.32938e-05 2.68321e-06 0)
(3.52973e-05 2.96872e-06 0)
(2.63741e-05 3.10479e-06 0)
(1.70321e-05 2.79764e-06 0)
(8.42293e-06 1.77282e-06 0)
(2.12674e-06 1.44008e-07 0)
(-3.66308e-07 -1.0457e-06 0)
(-3.90699e-07 4.88462e-06 0)
(-8.14208e-06 1.89938e-05 0)
(-2.23709e-05 3.02931e-05 0)
(-3.98439e-05 3.58295e-05 0)
(-5.77226e-05 3.62158e-05 0)
(-7.42048e-05 3.36355e-05 0)
(-8.86214e-05 3.01758e-05 0)
(-0.000101077 2.70943e-05 0)
(-0.000112013 2.48315e-05 0)
(-0.000121904 2.33323e-05 0)
(-0.000131114 2.23587e-05 0)
(-0.000139872 2.16745e-05 0)
(-0.0001483 2.11121e-05 0)
(-0.000156452 2.05745e-05 0)
(-0.000164345 2.00138e-05 0)
(-0.000171976 1.94104e-05 0)
(-0.000179334 1.87582e-05 0)
(-0.000186406 1.80569e-05 0)
(-0.000193175 1.73081e-05 0)
(-0.000199628 1.65135e-05 0)
(-0.000205748 1.56748e-05 0)
(-0.00021152 1.47934e-05 0)
(-0.00021693 1.38705e-05 0)
(-0.000221963 1.29068e-05 0)
(-0.000226603 1.19033e-05 0)
(-0.000230838 1.08607e-05 0)
(-0.000234652 9.77968e-06 0)
(-0.000238033 8.66093e-06 0)
(-0.000240967 7.5053e-06 0)
(-0.00024344 6.31383e-06 0)
(-0.00024544 5.088e-06 0)
(-0.000246954 3.82993e-06 0)
(-0.00024797 2.54273e-06 0)
(-0.000248477 1.23055e-06 0)
(-0.000248464 -1.02237e-07 0)
(-0.000247921 -1.45143e-06 0)
(-0.000246846 -2.81282e-06 0)
(-0.000245235 -4.18286e-06 0)
(-0.000243084 -5.55878e-06 0)
(-0.000240393 -6.93798e-06 0)
(-0.000237157 -8.31764e-06 0)
(-0.000233378 -9.69454e-06 0)
(-0.000229057 -1.1065e-05 0)
(-0.000224194 -1.24249e-05 0)
(-0.000218796 -1.37698e-05 0)
(-0.000212867 -1.50949e-05 0)
(-0.000206416 -1.63952e-05 0)
(-0.000199454 -1.76654e-05 0)
(-0.000191992 -1.89004e-05 0)
(-0.000184044 -2.00946e-05 0)
(-0.000175629 -2.12427e-05 0)
(-0.000166764 -2.23392e-05 0)
(-0.000157472 -2.33788e-05 0)
(-0.000147775 -2.43563e-05 0)
(-0.0001377 -2.52669e-05 0)
(-0.000127274 -2.61057e-05 0)
(-0.000116527 -2.68684e-05 0)
(-0.00010549 -2.75506e-05 0)
(-9.41971e-05 -2.81484e-05 0)
(-8.26824e-05 -2.86574e-05 0)
(-7.09824e-05 -2.90735e-05 0)
(-5.91345e-05 -2.93926e-05 0)
(-4.71771e-05 -2.96112e-05 0)
(-3.51488e-05 -2.97273e-05 0)
(-2.30887e-05 -2.97405e-05 0)
(-1.10347e-05 -2.96525e-05 0)
(9.8299e-07 -2.94671e-05 0)
(1.29178e-05 -2.91909e-05 0)
(2.47367e-05 -2.88308e-05 0)
(3.6411e-05 -2.83914e-05 0)
(4.79088e-05 -2.78755e-05 0)
(5.92002e-05 -2.72844e-05 0)
(7.02558e-05 -2.66199e-05 0)
(8.10471e-05 -2.58844e-05 0)
(9.15467e-05 -2.50807e-05 0)
(0.000101728 -2.42121e-05 0)
(0.000111567 -2.32823e-05 0)
(0.000121039 -2.22953e-05 0)
(0.000130123 -2.12554e-05 0)
(0.000138799 -2.0167e-05 0)
(0.000147047 -1.90346e-05 0)
(0.000154852 -1.78627e-05 0)
(0.000162197 -1.6656e-05 0)
(0.000169071 -1.54189e-05 0)
(0.00017546 -1.41556e-05 0)
(0.000181356 -1.28701e-05 0)
(0.000186749 -1.15664e-05 0)
(0.000191633 -1.02478e-05 0)
(0.000196002 -8.9177e-06 0)
(0.000199851 -7.57914e-06 0)
(0.000203178 -6.23527e-06 0)
(0.000205982 -4.88944e-06 0)
(0.000208261 -3.54537e-06 0)
(0.000210018 -2.20754e-06 0)
(0.000211255 -8.81375e-07 0)
(0.000211976 4.26799e-07 0)
(0.000212186 1.71019e-06 0)
(0.000211894 2.96196e-06 0)
(0.000211117 4.17857e-06 0)
(0.000209866 5.35849e-06 0)
(0.000208156 6.50109e-06 0)
(0.000206001 7.60613e-06 0)
(0.000203414 8.67357e-06 0)
(0.000200408 9.70333e-06 0)
(0.000196998 1.06952e-05 0)
(0.000193197 1.16488e-05 0)
(0.000189019 1.25635e-05 0)
(0.000184477 1.34384e-05 0)
(0.000179585 1.42726e-05 0)
(0.000174359 1.50644e-05 0)
(0.000168812 1.58122e-05 0)
(0.000162958 1.6514e-05 0)
(0.000156813 1.71681e-05 0)
(0.000150389 1.77746e-05 0)
(0.000143698 1.83393e-05 0)
(0.00013674 1.88819e-05 0)
(0.0001295 1.9451e-05 0)
(0.000121921 2.01451e-05 0)
(0.000113879 2.11353e-05 0)
(0.000105141 2.26633e-05 0)
(9.53337e-05 2.4975e-05 0)
(8.39726e-05 2.81341e-05 0)
(7.05993e-05 3.17073e-05 0)
(5.5092e-05 3.44428e-05 0)
(3.81003e-05 3.42653e-05 0)
(2.13986e-05 2.90238e-05 0)
(7.77626e-06 1.81622e-05 0)
(3.6989e-07 4.63487e-06 0)
(-4.54866e-07 1.44985e-05 0)
(-8.64711e-06 4.37231e-05 0)
(-2.28702e-05 6.40688e-05 0)
(-3.96384e-05 7.23513e-05 0)
(-5.60219e-05 7.07711e-05 0)
(-7.03124e-05 6.38444e-05 0)
(-8.20002e-05 5.56365e-05 0)
(-9.13443e-05 4.8534e-05 0)
(-9.89151e-05 4.33289e-05 0)
(-0.000105285 3.98552e-05 0)
(-0.000110889 3.75975e-05 0)
(-0.00011601 3.60502e-05 0)
(-0.000120807 3.48502e-05 0)
(-0.000125362 3.37793e-05 0)
(-0.000129712 3.27236e-05 0)
(-0.000133869 3.16302e-05 0)
(-0.000137838 3.04775e-05 0)
(-0.000141615 2.92583e-05 0)
(-0.000145197 2.79712e-05 0)
(-0.000148578 2.66168e-05 0)
(-0.000151751 2.51963e-05 0)
(-0.000154712 2.37109e-05 0)
(-0.000157453 2.2162e-05 0)
(-0.000159969 2.05505e-05 0)
(-0.000162253 1.88778e-05 0)
(-0.000164299 1.71449e-05 0)
(-0.000166102 1.5353e-05 0)
(-0.000167656 1.35036e-05 0)
(-0.000168956 1.15979e-05 0)
(-0.000169996 9.63768e-06 0)
(-0.000170774 7.6248e-06 0)
(-0.000171284 5.56156e-06 0)
(-0.000171522 3.45104e-06 0)
(-0.000171486 1.2977e-06 0)
(-0.000171168 -8.9179e-07 0)
(-0.000170569 -3.10853e-06 0)
(-0.000169681 -5.34607e-06 0)
(-0.000168499 -7.60082e-06 0)
(-0.000167018 -9.86959e-06 0)
(-0.000165234 -1.21486e-05 0)
(-0.000163144 -1.44332e-05 0)
(-0.000160744 -1.67178e-05 0)
(-0.000158034 -1.8996e-05 0)
(-0.000155012 -2.12609e-05 0)
(-0.000151679 -2.35045e-05 0)
(-0.000148037 -2.57187e-05 0)
(-0.000144088 -2.78948e-05 0)
(-0.000139838 -3.00238e-05 0)
(-0.000135291 -3.20965e-05 0)
(-0.000130456 -3.41034e-05 0)
(-0.00012534 -3.60351e-05 0)
(-0.000119953 -3.78821e-05 0)
(-0.000114309 -3.96349e-05 0)
(-0.000108419 -4.12844e-05 0)
(-0.000102299 -4.28216e-05 0)
(-9.5965e-05 -4.4238e-05 0)
(-8.94353e-05 -4.55257e-05 0)
(-8.27288e-05 -4.66773e-05 0)
(-7.58657e-05 -4.76856e-05 0)
(-6.88673e-05 -4.85444e-05 0)
(-6.17551e-05 -4.92477e-05 0)
(-5.45504e-05 -4.97906e-05 0)
(-4.72743e-05 -5.017e-05 0)
(-3.99469e-05 -5.03849e-05 0)
(-3.25876e-05 -5.04368e-05 0)
(-2.52146e-05 -5.03293e-05 0)
(-1.78445e-05 -5.00669e-05 0)
(-1.04945e-05 -4.96564e-05 0)
(-3.18126e-06 -4.91063e-05 0)
(4.08031e-06 -4.84228e-05 0)
(1.12658e-05 -4.76109e-05 0)
(1.83607e-05 -4.66737e-05 0)
(2.53481e-05 -4.56145e-05 0)
(3.22113e-05 -4.44374e-05 0)
(3.89347e-05 -4.3147e-05 0)
(4.5503e-05 -4.17487e-05 0)
(5.19019e-05 -4.02487e-05 0)
(5.81177e-05 -3.86534e-05 0)
(6.41373e-05 -3.69697e-05 0)
(6.99489e-05 -3.52048e-05 0)
(7.5541e-05 -3.3366e-05 0)
(8.09034e-05 -3.14607e-05 0)
(8.60265e-05 -2.94961e-05 0)
(9.09017e-05 -2.74796e-05 0)
(9.55212e-05 -2.54181e-05 0)
(9.9878e-05 -2.33183e-05 0)
(0.000103966 -2.11867e-05 0)
(0.00010778 -1.90295e-05 0)
(0.000111317 -1.68524e-05 0)
(0.000114571 -1.46614e-05 0)
(0.000117543 -1.24624e-05 0)
(0.00012023 -1.02613e-05 0)
(0.000122634 -8.06451e-06 0)
(0.000124756 -5.87835e-06 0)
(0.0001266 -3.70958e-06 0)
(0.000128168 -1.56599e-06 0)
(0.000129467 5.42507e-07 0)
(0.000130493 2.60583e-06 0)
(0.000131247 4.61615e-06 0)
(0.000131736 6.56961e-06 0)
(0.000131962 8.46552e-06 0)
(0.000131931 1.03039e-05 0)
(0.000131648 1.20847e-05 0)
(0.000131117 1.38079e-05 0)
(0.000130344 1.54732e-05 0)
(0.000129335 1.70802e-05 0)
(0.000128093 1.86281e-05 0)
(0.000126626 2.01161e-05 0)
(0.000124937 2.1543e-05 0)
(0.000123033 2.29075e-05 0)
(0.000120918 2.42081e-05 0)
(0.000118596 2.54439e-05 0)
(0.000116072 2.66159e-05 0)
(0.000113348 2.77309e-05 0)
(0.000110419 2.88101e-05 0)
(0.000107273 2.99068e-05 0)
(0.000103871 3.11363e-05 0)
(0.000100131 3.27202e-05 0)
(9.58899e-05 3.5029e-05 0)
(9.08625e-05 3.85795e-05 0)
(8.46037e-05 4.3903e-05 0)
(7.65288e-05 5.11822e-05 0)
(6.60512e-05 5.96384e-05 0)
(5.28934e-05 6.68944e-05 0)
(3.75448e-05 6.89053e-05 0)
(2.16842e-05 6.12185e-05 0)
(8.18491e-06 4.17587e-05 0)
(4.23707e-07 1.3793e-05 0)
(-3.41865e-07 2.2491e-05 0)
(-7.46152e-06 6.48745e-05 0)
(-1.9871e-05 9.26528e-05 0)
(-3.41809e-05 0.000102311 0)
(-4.76028e-05 9.77137e-05 0)
(-5.85834e-05 8.57268e-05 0)
(-6.67518e-05 7.23398e-05 0)
(-7.24713e-05 6.09912e-05 0)
(-7.63801e-05 5.27566e-05 0)
(-7.90911e-05 4.73111e-05 0)
(-8.10651e-05 4.38319e-05 0)
(-8.25992e-05 4.15274e-05 0)
(-8.38651e-05 3.9829e-05 0)
(-8.49546e-05 3.83929e-05 0)
(-8.5914e-05 3.70359e-05 0)
(-8.67665e-05 3.56702e-05 0)
(-8.7524e-05 3.42576e-05 0)
(-8.81933e-05 3.27829e-05 0)
(-8.87784e-05 3.12413e-05 0)
(-8.92825e-05 2.96314e-05 0)
(-8.97077e-05 2.79537e-05 0)
(-9.00559e-05 2.62087e-05 0)
(-9.03287e-05 2.43975e-05 0)
(-9.05275e-05 2.2521e-05 0)
(-9.06534e-05 2.05804e-05 0)
(-9.07076e-05 1.85771e-05 0)
(-9.06912e-05 1.65125e-05 0)
(-9.06054e-05 1.43886e-05 0)
(-9.04513e-05 1.22075e-05 0)
(-9.02304e-05 9.97164e-06 0)
(-8.99444e-05 7.68356e-06 0)
(-8.9595e-05 5.34607e-06 0)
(-8.91839e-05 2.96215e-06 0)
(-8.87121e-05 5.35264e-07 0)
(-8.81817e-05 -1.92977e-06 0)
(-8.75908e-05 -4.4289e-06 0)
(-8.6935e-05 -6.95909e-06 0)
(-8.62113e-05 -9.51687e-06 0)
(-8.54164e-05 -1.2098e-05 0)
(-8.45474e-05 -1.46973e-05 0)
(-8.36016e-05 -1.73088e-05 0)
(-8.25766e-05 -1.99257e-05 0)
(-8.14704e-05 -2.25404e-05 0)
(-8.02809e-05 -2.51445e-05 0)
(-7.90065e-05 -2.77291e-05 0)
(-7.76458e-05 -3.02843e-05 0)
(-7.6198e-05 -3.28001e-05 0)
(-7.46623e-05 -3.52658e-05 0)
(-7.30389e-05 -3.76704e-05 0)
(-7.1328e-05 -4.00025e-05 0)
(-6.95309e-05 -4.22507e-05 0)
(-6.76494e-05 -4.44034e-05 0)
(-6.56858e-05 -4.6449e-05 0)
(-6.36435e-05 -4.83762e-05 0)
(-6.15263e-05 -5.01737e-05 0)
(-5.93392e-05 -5.1831e-05 0)
(-5.70875e-05 -5.33382e-05 0)
(-5.47773e-05 -5.46862e-05 0)
(-5.24151e-05 -5.5867e-05 0)
(-5.00073e-05 -5.6874e-05 0)
(-4.75598e-05 -5.77024e-05 0)
(-4.50774e-05 -5.83491e-05 0)
(-4.25635e-05 -5.88134e-05 0)
(-4.00197e-05 -5.90971e-05 0)
(-3.74465e-05 -5.9204e-05 0)
(-3.48431e-05 -5.91392e-05 0)
(-3.22085e-05 -5.89086e-05 0)
(-2.95424e-05 -5.85182e-05 0)
(-2.68454e-05 -5.79731e-05 0)
(-2.41194e-05 -5.72771e-05 0)
(-2.13673e-05 -5.64336e-05 0)
(-1.85926e-05 -5.54465e-05 0)
(-1.57991e-05 -5.43197e-05 0)
(-1.2991e-05 -5.30576e-05 0)
(-1.01722e-05 -5.16656e-05 0)
(-7.34699e-06 -5.01494e-05 0)
(-4.51942e-06 -4.85159e-05 0)
(-1.69366e-06 -4.67719e-05 0)
(1.12624e-06 -4.49248e-05 0)
(3.93572e-06 -4.29824e-05 0)
(6.73048e-06 -4.09529e-05 0)
(9.5062e-06 -3.88441e-05 0)
(1.22584e-05 -3.6664e-05 0)
(1.49828e-05 -3.44206e-05 0)
(1.76749e-05 -3.21214e-05 0)
(2.03302e-05 -2.9774e-05 0)
(2.29444e-05 -2.73856e-05 0)
(2.55134e-05 -2.49633e-05 0)
(2.80331e-05 -2.25143e-05 0)
(3.04999e-05 -2.00462e-05 0)
(3.29107e-05 -1.75666e-05 0)
(3.52632e-05 -1.50838e-05 0)
(3.75557e-05 -1.26066e-05 0)
(3.97876e-05 -1.01434e-05 0)
(4.19588e-05 -7.70255e-06 0)
(4.40694e-05 -5.29122e-06 0)
(4.61196e-05 -2.91508e-06 0)
(4.81113e-05 -5.79292e-07 0)
(5.00413e-05 1.70989e-06 0)
(5.19014e-05 3.94671e-06 0)
(5.36902e-05 6.12775e-06 0)
(5.54051e-05 8.25142e-06 0)
(5.70434e-05 1.03171e-05 0)
(5.86026e-05 1.23244e-05 0)
(6.00807e-05 1.4273e-05 0)
(6.14753e-05 1.61622e-05 0)
(6.27842e-05 1.79916e-05 0)
(6.40049e-05 1.97602e-05 0)
(6.51349e-05 2.14673e-05 0)
(6.61713e-05 2.31119e-05 0)
(6.71111e-05 2.46933e-05 0)
(6.79506e-05 2.62121e-05 0)
(6.8685e-05 2.76726e-05 0)
(6.93072e-05 2.90893e-05 0)
(6.9805e-05 3.05e-05 0)
(7.01551e-05 3.19928e-05 0)
(7.03104e-05 3.37533e-05 0)
(7.01786e-05 3.61305e-05 0)
(6.95856e-05 3.97039e-05 0)
(6.82302e-05 4.52821e-05 0)
(6.56441e-05 5.37113e-05 0)
(6.12028e-05 6.53412e-05 0)
(5.42533e-05 7.91157e-05 0)
(4.44154e-05 9.16098e-05 0)
(3.20409e-05 9.6865e-05 0)
(1.86537e-05 8.81132e-05 0)
(6.98424e-06 6.16921e-05 0)
(3.08953e-07 2.12926e-05 0)
(-2.96154e-07 2.94697e-05 0)
(-6.90052e-06 8.35639e-05 0)
(-1.84071e-05 0.000117679 0)
(-3.14781e-05 0.000127867 0)
(-4.33944e-05 0.000119656 0)
(-5.2682e-05 0.000102251 0)
(-5.90477e-05 8.3518e-05 0)
(-6.29164e-05 6.78835e-05 0)
(-6.49676e-05 5.66523e-05 0)
(-6.58377e-05 4.93047e-05 0)
(-6.59995e-05 4.46918e-05 0)
(-6.57559e-05 4.17285e-05 0)
(-6.5282e-05 3.96392e-05 0)
(-6.46723e-05 3.7955e-05 0)
(-6.39762e-05 3.64247e-05 0)
(-6.32201e-05 3.49264e-05 0)
(-6.24197e-05 3.34056e-05 0)
(-6.15853e-05 3.18396e-05 0)
(-6.0725e-05 3.02196e-05 0)
(-5.98458e-05 2.85426e-05 0)
(-5.89536e-05 2.68074e-05 0)
(-5.80542e-05 2.50141e-05 0)
(-5.71526e-05 2.31628e-05 0)
(-5.62537e-05 2.12541e-05 0)
(-5.5362e-05 1.92885e-05 0)
(-5.44816e-05 1.72671e-05 0)
(-5.36165e-05 1.51911e-05 0)
(-5.27704e-05 1.30621e-05 0)
(-5.19465e-05 1.08823e-05 0)
(-5.1148e-05 8.65375e-06 0)
(-5.03779e-05 6.37904e-06 0)
(-4.96388e-05 4.06067e-06 0)
(-4.89328e-05 1.70111e-06 0)
(-4.82607e-05 -6.97386e-07 0)
(-4.76265e-05 -3.13294e-06 0)
(-4.70283e-05 -5.60495e-06 0)
(-4.64653e-05 -8.11146e-06 0)
(-4.59372e-05 -1.0649e-05 0)
(-4.54435e-05 -1.3213e-05 0)
(-4.49832e-05 -1.57984e-05 0)
(-4.45552e-05 -1.83993e-05 0)
(-4.41584e-05 -2.10092e-05 0)
(-4.3791e-05 -2.36208e-05 0)
(-4.3451e-05 -2.6226e-05 0)
(-4.31362e-05 -2.88159e-05 0)
(-4.28441e-05 -3.1381e-05 0)
(-4.25721e-05 -3.39109e-05 0)
(-4.23177e-05 -3.63948e-05 0)
(-4.20782e-05 -3.88214e-05 0)
(-4.1851e-05 -4.1179e-05 0)
(-4.16337e-05 -4.34553e-05 0)
(-4.14241e-05 -4.56383e-05 0)
(-4.12203e-05 -4.77156e-05 0)
(-4.10206e-05 -4.96749e-05 0)
(-4.08237e-05 -5.15042e-05 0)
(-4.06286e-05 -5.31921e-05 0)
(-4.04346e-05 -5.4728e-05 0)
(-4.02412e-05 -5.61023e-05 0)
(-4.00478e-05 -5.73076e-05 0)
(-3.98534e-05 -5.83383e-05 0)
(-3.96561e-05 -5.91919e-05 0)
(-3.94523e-05 -5.98685e-05 0)
(-3.92369e-05 -6.03711e-05 0)
(-3.90027e-05 -6.07047e-05 0)
(-3.87413e-05 -6.08755e-05 0)
(-3.84429e-05 -6.08897e-05 0)
(-3.80981e-05 -6.07525e-05 0)
(-3.7698e-05 -6.04676e-05 0)
(-3.72351e-05 -6.00375e-05 0)
(-3.67031e-05 -5.94636e-05 0)
(-3.60972e-05 -5.87472e-05 0)
(-3.54136e-05 -5.78902e-05 0)
(-3.46492e-05 -5.68955e-05 0)
(-3.38018e-05 -5.57665e-05 0)
(-3.28697e-05 -5.45078e-05 0)
(-3.18515e-05 -5.31246e-05 0)
(-3.07466e-05 -5.16228e-05 0)
(-2.95545e-05 -5.00087e-05 0)
(-2.82756e-05 -4.82892e-05 0)
(-2.69104e-05 -4.6471e-05 0)
(-2.54601e-05 -4.45614e-05 0)
(-2.39263e-05 -4.25676e-05 0)
(-2.23112e-05 -4.04968e-05 0)
(-2.06173e-05 -3.83561e-05 0)
(-1.88477e-05 -3.61526e-05 0)
(-1.70057e-05 -3.38932e-05 0)
(-1.50953e-05 -3.15848e-05 0)
(-1.31204e-05 -2.92342e-05 0)
(-1.10853e-05 -2.68486e-05 0)
(-8.9944e-06 -2.44357e-05 0)
(-6.85187e-06 -2.20039e-05 0)
(-4.66175e-06 -1.95621e-05 0)
(-2.42776e-06 -1.71202e-05 0)
(-1.53081e-07 -1.46877e-05 0)
(2.15935e-06 -1.22736e-05 0)
(4.50647e-06 -9.88647e-06 0)
(6.88577e-06 -7.53238e-06 0)
(9.295e-06 -5.21517e-06 0)
(1.1732e-05 -2.93708e-06 0)
(1.41948e-05 -7.00275e-07 0)
(1.66771e-05 1.49189e-06 0)
(1.9173e-05 3.63671e-06 0)
(2.16772e-05 5.7329e-06 0)
(2.41847e-05 7.78018e-06 0)
(2.66897e-05 9.77831e-06 0)
(2.91867e-05 1.17271e-05 0)
(3.16697e-05 1.36261e-05 0)
(3.41326e-05 1.54751e-05 0)
(3.65691e-05 1.72735e-05 0)
(3.89725e-05 1.9021e-05 0)
(4.1336e-05 2.07179e-05 0)
(4.3652e-05 2.23665e-05 0)
(4.59118e-05 2.39746e-05 0)
(4.81047e-05 2.55638e-05 0)
(5.0215e-05 2.7188e-05 0)
(5.2216e-05 2.89698e-05 0)
(5.40582e-05 3.1163e-05 0)
(5.56466e-05 3.42437e-05 0)
(5.68044e-05 3.90009e-05 0)
(5.72252e-05 4.6542e-05 0)
(5.643e-05 5.80463e-05 0)
(5.37727e-05 7.40655e-05 0)
(4.85609e-05 9.33196e-05 0)
(4.03551e-05 0.0001114 0)
(2.94324e-05 0.000120482 0)
(1.72399e-05 0.000111495 0)
(6.44166e-06 7.91911e-05 0)
(2.64577e-07 2.77884e-05 0)
(-3.03185e-07 3.62675e-05 0)
(-6.95684e-06 0.000101784 0)
(-1.84861e-05 0.000141908 0)
(-3.1473e-05 0.000152264 0)
(-4.31541e-05 0.000140111 0)
(-5.20573e-05 0.00011704 0)
(-5.79214e-05 9.28102e-05 0)
(-6.12134e-05 7.28212e-05 0)
(-6.26497e-05 5.85819e-05 0)
(-6.28928e-05 4.9354e-05 0)
(-6.24312e-05 4.3646e-05 0)
(-6.15761e-05 4.00698e-05 0)
(-6.05067e-05 3.76393e-05 0)
(-5.93192e-05 3.57588e-05 0)
(-5.80639e-05 3.41094e-05 0)
(-5.67682e-05 3.25354e-05 0)
(-5.54485e-05 3.09665e-05 0)
(-5.41163e-05 2.93727e-05 0)
(-5.27807e-05 2.77418e-05 0)
(-5.14497e-05 2.60687e-05 0)
(-5.01304e-05 2.43512e-05 0)
(-4.88297e-05 2.2588e-05 0)
(-4.75536e-05 2.07786e-05 0)
(-4.6308e-05 1.89225e-05 0)
(-4.50983e-05 1.70197e-05 0)
(-4.39292e-05 1.50704e-05 0)
(-4.28051e-05 1.3075e-05 0)
(-4.17301e-05 1.10343e-05 0)
(-4.07075e-05 8.94956e-06 0)
(-3.97403e-05 6.82213e-06 0)
(-3.8831e-05 4.65368e-06 0)
(-3.79813e-05 2.44582e-06 0)
(-3.71925e-05 2.0006e-07 0)
(-3.64658e-05 -2.08233e-06 0)
(-3.58016e-05 -4.40113e-06 0)
(-3.52003e-05 -6.75536e-06 0)
(-3.46625e-05 -9.14291e-06 0)
(-3.41885e-05 -1.15607e-05 0)
(-3.37785e-05 -1.40048e-05 0)
(-3.34322e-05 -1.64708e-05 0)
(-3.3149e-05 -1.89539e-05 0)
(-3.29277e-05 -2.14485e-05 0)
(-3.27665e-05 -2.39481e-05 0)
(-3.26634e-05 -2.64456e-05 0)
(-3.26157e-05 -2.89329e-05 0)
(-3.26204e-05 -3.1401e-05 0)
(-3.26743e-05 -3.38401e-05 0)
(-3.27739e-05 -3.62397e-05 0)
(-3.29156e-05 -3.85885e-05 0)
(-3.30959e-05 -4.08749e-05 0)
(-3.33113e-05 -4.30865e-05 0)
(-3.35583e-05 -4.5211e-05 0)
(-3.38336e-05 -4.72357e-05 0)
(-3.41342e-05 -4.9148e-05 0)
(-3.44575e-05 -5.09353e-05 0)
(-3.48007e-05 -5.25859e-05 0)
(-3.51616e-05 -5.40889e-05 0)
(-3.55379e-05 -5.5435e-05 0)
(-3.59273e-05 -5.66173e-05 0)
(-3.63267e-05 -5.7632e-05 0)
(-3.67322e-05 -5.84788e-05 0)
(-3.71385e-05 -5.91613e-05 0)
(-3.75386e-05 -5.96862e-05 0)
(-3.79232e-05 -6.00619e-05 0)
(-3.82819e-05 -6.02971e-05 0)
(-3.86032e-05 -6.03989e-05 0)
(-3.88753e-05 -6.03719e-05 0)
(-3.90871e-05 -6.0218e-05 0)
(-3.92288e-05 -5.99368e-05 0)
(-3.92919e-05 -5.95271e-05 0)
(-3.92691e-05 -5.89878e-05 0)
(-3.91546e-05 -5.83183e-05 0)
(-3.89434e-05 -5.75198e-05 0)
(-3.86317e-05 -5.65941e-05 0)
(-3.8216e-05 -5.55445e-05 0)
(-3.76937e-05 -5.43751e-05 0)
(-3.70628e-05 -5.30904e-05 0)
(-3.63218e-05 -5.16956e-05 0)
(-3.54698e-05 -5.01963e-05 0)
(-3.45065e-05 -4.85981e-05 0)
(-3.34321e-05 -4.69072e-05 0)
(-3.22475e-05 -4.51295e-05 0)
(-3.09539e-05 -4.32711e-05 0)
(-2.95533e-05 -4.13381e-05 0)
(-2.80481e-05 -3.93365e-05 0)
(-2.64411e-05 -3.72722e-05 0)
(-2.47358e-05 -3.51511e-05 0)
(-2.29358e-05 -3.29796e-05 0)
(-2.10453e-05 -3.07642e-05 0)
(-1.90685e-05 -2.85123e-05 0)
(-1.70096e-05 -2.62325e-05 0)
(-1.48727e-05 -2.39341e-05 0)
(-1.26618e-05 -2.16272e-05 0)
(-1.03808e-05 -1.9322e-05 0)
(-8.03321e-06 -1.70281e-05 0)
(-5.62239e-06 -1.47538e-05 0)
(-3.15179e-06 -1.25057e-05 0)
(-6.24791e-07 -1.0288e-05 0)
(1.95529e-06 -8.1039e-06 0)
(4.58444e-06 -5.95534e-06 0)
(7.25884e-06 -3.84231e-06 0)
(9.97394e-06 -1.76471e-06 0)
(1.27243e-05 2.77132e-07 0)
(1.55035e-05 2.28261e-06 0)
(1.83053e-05 4.25137e-06 0)
(2.1123e-05 6.18388e-06 0)
(2.39493e-05 8.08057e-06 0)
(2.67772e-05 9.94154e-06 0)
(2.95991e-05 1.17669e-05 0)
(3.24073e-05 1.35569e-05 0)
(3.51935e-05 1.53128e-05 0)
(3.79491e-05 1.70384e-05 0)
(4.06645e-05 1.87445e-05 0)
(4.3328e-05 2.04599e-05 0)
(4.59229e-05 2.2254e-05 0)
(4.84222e-05 2.42827e-05 0)
(5.07754e-05 2.68685e-05 0)
(5.28859e-05 3.06149e-05 0)
(5.45738e-05 3.65246e-05 0)
(5.55249e-05 4.60121e-05 0)
(5.5246e-05 6.0605e-05 0)
(5.30665e-05 8.10798e-05 0)
(4.82594e-05 0.000105958 0)
(4.03466e-05 0.000129858 0)
(2.95763e-05 0.000143076 0)
(1.73988e-05 0.000134186 0)
(6.527e-06 9.62918e-05 0)
(2.73406e-07 3.41303e-05 0)
(-3.24724e-07 4.33188e-05 0)
(-7.28667e-06 0.000120589 0)
(-1.92971e-05 0.000166796 0)
(-3.27745e-05 0.000177176 0)
(-4.48387e-05 0.000160815 0)
(-5.39693e-05 0.000131801 0)
(-5.99122e-05 0.000101847 0)
(-6.31694e-05 7.73506e-05 0)
(-6.44973e-05 6.00176e-05 0)
(-6.4592e-05 4.88724e-05 0)
(-6.39648e-05 4.20625e-05 0)
(-6.29404e-05 3.78832e-05 0)
(-6.17053e-05 3.51287e-05 0)
(-6.03587e-05 3.30727e-05 0)
(-5.89526e-05 3.13262e-05 0)
(-5.75145e-05 2.9699e-05 0)
(-5.60611e-05 2.81049e-05 0)
(-5.46038e-05 2.65068e-05 0)
(-5.31518e-05 2.4889e-05 0)
(-5.17133e-05 2.32444e-05 0)
(-5.02955e-05 2.15696e-05 0)
(-4.89054e-05 1.98624e-05 0)
(-4.75491e-05 1.81212e-05 0)
(-4.62324e-05 1.63446e-05 0)
(-4.49607e-05 1.45315e-05 0)
(-4.37387e-05 1.26811e-05 0)
(-4.25706e-05 1.07928e-05 0)
(-4.146e-05 8.86633e-06 0)
(-4.041e-05 6.90168e-06 0)
(-3.94229e-05 4.8991e-06 0)
(-3.85004e-05 2.85906e-06 0)
(-3.76438e-05 7.82014e-07 0)
(-3.68537e-05 -1.33142e-06 0)
(-3.613e-05 -3.48088e-06 0)
(-3.54728e-05 -5.666e-06 0)
(-3.4882e-05 -7.88568e-06 0)
(-3.43575e-05 -1.0138e-05 0)
(-3.38988e-05 -1.24203e-05 0)
(-3.35053e-05 -1.47293e-05 0)
(-3.3176e-05 -1.70616e-05 0)
(-3.29096e-05 -1.94131e-05 0)
(-3.27042e-05 -2.17792e-05 0)
(-3.25574e-05 -2.41547e-05 0)
(-3.24665e-05 -2.65333e-05 0)
(-3.24281e-05 -2.89079e-05 0)
(-3.24385e-05 -3.12701e-05 0)
(-3.24938e-05 -3.36106e-05 0)
(-3.25899e-05 -3.59191e-05 0)
(-3.27227e-05 -3.81846e-05 0)
(-3.2888e-05 -4.03952e-05 0)
(-3.30822e-05 -4.25386e-05 0)
(-3.33014e-05 -4.46018e-05 0)
(-3.35422e-05 -4.65719e-05 0)
(-3.38018e-05 -4.84356e-05 0)
(-3.40774e-05 -5.018e-05 0)
(-3.43668e-05 -5.17926e-05 0)
(-3.46682e-05 -5.32622e-05 0)
(-3.49798e-05 -5.45798e-05 0)
(-3.52999e-05 -5.57389e-05 0)
(-3.56263e-05 -5.67372e-05 0)
(-3.59558e-05 -5.75769e-05 0)
(-3.62839e-05 -5.82645e-05 0)
(-3.66046e-05 -5.88104e-05 0)
(-3.69095e-05 -5.92266e-05 0)
(-3.71891e-05 -5.95242e-05 0)
(-3.74324e-05 -5.97115e-05 0)
(-3.76285e-05 -5.9793e-05 0)
(-3.77666e-05 -5.97688e-05 0)
(-3.78373e-05 -5.96363e-05 0)
(-3.78322e-05 -5.93913e-05 0)
(-3.77446e-05 -5.903e-05 0)
(-3.75691e-05 -5.85497e-05 0)
(-3.73011e-05 -5.79494e-05 0)
(-3.69372e-05 -5.72294e-05 0)
(-3.64744e-05 -5.63916e-05 0)
(-3.59105e-05 -5.54387e-05 0)
(-3.52437e-05 -5.43742e-05 0)
(-3.44729e-05 -5.32022e-05 0)
(-3.35972e-05 -5.19269e-05 0)
(-3.26162e-05 -5.05533e-05 0)
(-3.15302e-05 -4.90861e-05 0)
(-3.03396e-05 -4.75303e-05 0)
(-2.90455e-05 -4.58911e-05 0)
(-2.76494e-05 -4.41734e-05 0)
(-2.61532e-05 -4.23823e-05 0)
(-2.45591e-05 -4.05227e-05 0)
(-2.28698e-05 -3.85998e-05 0)
(-2.10885e-05 -3.66192e-05 0)
(-1.92183e-05 -3.45871e-05 0)
(-1.72626e-05 -3.25107e-05 0)
(-1.52246e-05 -3.03985e-05 0)
(-1.31076e-05 -2.82602e-05 0)
(-1.09146e-05 -2.61061e-05 0)
(-8.64856e-06 -2.39467e-05 0)
(-6.31224e-06 -2.17919e-05 0)
(-3.90862e-06 -1.96499e-05 0)
(-1.44081e-06 -1.75272e-05 0)
(1.08803e-06 -1.54277e-05 0)
(3.67371e-06 -1.33546e-05 0)
(6.31276e-06 -1.13084e-05 0)
(9.00064e-06 -9.28891e-06 0)
(1.17324e-05 -7.29542e-06 0)
(1.45028e-05 -5.32692e-06 0)
(1.7306e-05 -3.38225e-06 0)
(2.01354e-05 -1.45997e-06 0)
(2.29843e-05 4.40529e-07 0)
(2.58457e-05 2.31965e-06 0)
(2.87124e-05 4.1777e-06 0)
(3.15765e-05 6.01568e-06 0)
(3.44299e-05 7.83477e-06 0)
(3.72644e-05 9.63694e-06 0)
(4.00713e-05 1.14274e-05 0)
(4.28408e-05 1.32201e-05 0)
(4.55612e-05 1.50502e-05 0)
(4.82161e-05 1.7003e-05 0)
(5.07779e-05 1.92685e-05 0)
(5.31951e-05 2.22393e-05 0)
(5.53683e-05 2.6651e-05 0)
(5.71108e-05 3.37275e-05 0)
(5.8096e-05 4.52038e-05 0)
(5.78091e-05 6.29733e-05 0)
(5.5548e-05 8.80544e-05 0)
(5.05483e-05 0.000118774 0)
(4.23004e-05 0.000148758 0)
(3.10499e-05 0.000166352 0)
(1.83008e-05 0.00015767 0)
(6.88907e-06 0.000114065 0)
(2.96598e-07 4.07574e-05 0)
(-3.47861e-07 5.07762e-05 0)
(-7.7204e-06 0.000140406 0)
(-2.04107e-05 0.00019296 0)
(-3.4629e-05 0.000203305 0)
(-4.73364e-05 0.000182477 0)
(-5.69363e-05 0.000147194 0)
(-6.3169e-05 0.000111221 0)
(-6.657e-05 8.19982e-05 0)
(-6.79409e-05 6.1431e-05 0)
(-6.80179e-05 4.82914e-05 0)
(-6.73416e-05 4.03446e-05 0)
(-6.62551e-05 3.55522e-05 0)
(-6.49548e-05 3.24768e-05 0)
(-6.35453e-05 3.02543e-05 0)
(-6.20808e-05 2.84218e-05 0)
(-6.05898e-05 2.67533e-05 0)
(-5.90892e-05 2.5146e-05 0)
(-5.75904e-05 2.35552e-05 0)
(-5.61027e-05 2.19619e-05 0)
(-5.46339e-05 2.03571e-05 0)
(-5.31913e-05 1.87361e-05 0)
(-5.17817e-05 1.70957e-05 0)
(-5.0411e-05 1.54333e-05 0)
(-4.90851e-05 1.37464e-05 0)
(-4.78088e-05 1.20328e-05 0)
(-4.65869e-05 1.02905e-05 0)
(-4.5423e-05 8.51783e-06 0)
(-4.43206e-05 6.71319e-06 0)
(-4.32822e-05 4.87528e-06 0)
(-4.23097e-05 3.00305e-06 0)
(-4.14045e-05 1.09557e-06 0)
(-4.05669e-05 -8.47702e-07 0)
(-3.97968e-05 -2.82728e-06 0)
(-3.90937e-05 -4.84365e-06 0)
(-3.84568e-05 -6.8967e-06 0)
(-3.78847e-05 -8.98569e-06 0)
(-3.73757e-05 -1.11091e-05 0)
(-3.69282e-05 -1.32648e-05 0)
(-3.654e-05 -1.54501e-05 0)
(-3.62087e-05 -1.76621e-05 0)
(-3.59318e-05 -1.98975e-05 0)
(-3.57062e-05 -2.21528e-05 0)
(-3.55284e-05 -2.44235e-05 0)
(-3.53945e-05 -2.67045e-05 0)
(-3.53001e-05 -2.89893e-05 0)
(-3.52407e-05 -3.12701e-05 0)
(-3.52113e-05 -3.3538e-05 0)
(-3.52071e-05 -3.57826e-05 0)
(-3.52235e-05 -3.79929e-05 0)
(-3.52557e-05 -4.01565e-05 0)
(-3.52997e-05 -4.22607e-05 0)
(-3.53517e-05 -4.42917e-05 0)
(-3.54084e-05 -4.62358e-05 0)
(-3.54673e-05 -4.80786e-05 0)
(-3.55264e-05 -4.98062e-05 0)
(-3.55844e-05 -5.14054e-05 0)
(-3.56406e-05 -5.28641e-05 0)
(-3.56946e-05 -5.4173e-05 0)
(-3.57464e-05 -5.53259e-05 0)
(-3.57954e-05 -5.63218e-05 0)
(-3.58403e-05 -5.7165e-05 0)
(-3.58786e-05 -5.78654e-05 0)
(-3.59058e-05 -5.84367e-05 0)
(-3.59155e-05 -5.88945e-05 0)
(-3.58995e-05 -5.92529e-05 0)
(-3.58484e-05 -5.95217e-05 0)
(-3.57525e-05 -5.97052e-05 0)
(-3.56023e-05 -5.98021e-05 0)
(-3.53897e-05 -5.98073e-05 0)
(-3.51077e-05 -5.97139e-05 0)
(-3.4751e-05 -5.95154e-05 0)
(-3.43155e-05 -5.92067e-05 0)
(-3.37981e-05 -5.87849e-05 0)
(-3.31968e-05 -5.82488e-05 0)
(-3.25098e-05 -5.7599e-05 0)
(-3.17359e-05 -5.68374e-05 0)
(-3.08743e-05 -5.59665e-05 0)
(-2.99244e-05 -5.49896e-05 0)
(-2.88859e-05 -5.39103e-05 0)
(-2.77588e-05 -5.27327e-05 0)
(-2.65432e-05 -5.14609e-05 0)
(-2.52397e-05 -5.00992e-05 0)
(-2.3849e-05 -4.86518e-05 0)
(-2.23721e-05 -4.71232e-05 0)
(-2.08102e-05 -4.55175e-05 0)
(-1.91651e-05 -4.3839e-05 0)
(-1.74384e-05 -4.20923e-05 0)
(-1.56322e-05 -4.02826e-05 0)
(-1.37487e-05 -3.84159e-05 0)
(-1.17897e-05 -3.64995e-05 0)
(-9.75722e-06 -3.45422e-05 0)
(-7.65287e-06 -3.25538e-05 0)
(-5.47815e-06 -3.05451e-05 0)
(-3.23465e-06 -2.85264e-05 0)
(-9.2391e-07 -2.65073e-05 0)
(1.45204e-06 -2.44956e-05 0)
(3.89043e-06 -2.24974e-05 0)
(6.38857e-06 -2.05161e-05 0)
(8.94293e-06 -1.85529e-05 0)
(1.15495e-05 -1.66081e-05 0)
(1.42037e-05 -1.46804e-05 0)
(1.69006e-05 -1.27682e-05 0)
(1.96347e-05 -1.08696e-05 0)
(2.24001e-05 -8.98285e-06 0)
(2.51904e-05 -7.10609e-06 0)
(2.79991e-05 -5.23776e-06 0)
(3.08192e-05 -3.3763e-06 0)
(3.3643e-05 -1.51995e-06 0)