/*--------------------------------*- C++ -*----------------------------------*\
| =========                 |                                                 |
| \\      /  F ield         | OpenFOAM: The Open Source CFD Toolbox           |
|  \\    /   O peration     | Version:  2212                                  |
|   \\  /    A nd           | Website:  www.openfoam.com                      |
|    \\/     M anipulation  |                                                 |
\*---------------------------------------------------------------------------*/
FoamFile
{
    version     2.0;
    format      ascii;
    arch        "LSB;label=64;scalar=64";
    class       volScalarField;
    location    "60";
    object      Sco2;
}
// * * * * * * * * * * * * * * * * * * * * * * * * * * * * * * * * * * * * * //

dimensions      [1 -3 0 0 0 0 0];

internalField   nonuniform List<scalar> 
1024
(
0.00822476
0.00822485
0.008225
0.00822526
0.00822569
0.00822635
0.00822724
0.00822833
0.00822958
0.00823091
0.00823253
0.00823443
0.00823637
0.00823784
0.00823636
0.00823165
0.00824334
0.00826848
0.00828474
0.00829088
0.00829118
0.0082886
0.00828473
0.00828031
0.00827558
0.00827075
0.0082661
0.00826196
0.00825863
0.00825626
0.00825486
0.00825426
0.00822481
0.00822489
0.00822505
0.00822534
0.00822582
0.00822653
0.00822751
0.00822868
0.00823002
0.00823144
0.00823316
0.00823516
0.00823718
0.00823866
0.008237
0.00823183
0.00824362
0.00826936
0.00828603
0.00829233
0.00829259
0.00828989
0.00828591
0.00828138
0.00827656
0.00827162
0.00826685
0.00826256
0.00825906
0.00825655
0.00825505
0.00825439
0.00822486
0.00822495
0.00822514
0.00822549
0.00822607
0.00822692
0.00822808
0.00822947
0.00823105
0.00823275
0.00823476
0.00823706
0.00823928
0.00824068
0.00823839
0.00823222
0.00824402
0.00827071
0.00828861
0.00829566
0.00829596
0.00829298
0.00828865
0.00828381
0.00827866
0.00827343
0.00826831
0.00826367
0.00825985
0.00825707
0.00825539
0.00825467
0.00822491
0.00822501
0.00822525
0.0082257
0.00822645
0.00822753
0.008229
0.00823081
0.00823287
0.00823513
0.00823773
0.00824061
0.00824321
0.00824434
0.00824068
0.00823286
0.0082444
0.00827216
0.00829254
0.00830124
0.0083018
0.00829836
0.00829336
0.00828786
0.0082821
0.0082762
0.00827046
0.00826524
0.00826092
0.00825779
0.00825592
0.00825513
0.00822497
0.00822508
0.00822538
0.00822597
0.00822694
0.00822837
0.00823033
0.0082328
0.00823562
0.00823882
0.00824244
0.00824629
0.00824945
0.00824999
0.00824399
0.00823379
0.00824472
0.00827351
0.008298
0.00830927
0.00831033
0.0083063
0.00830034
0.0082938
0.00828697
0.00828002
0.00827328
0.0082672
0.00826224
0.0082587
0.00825663
0.00825578
0.00822503
0.00822517
0.00822555
0.0082263
0.00822756
0.00822947
0.00823212
0.0082355
0.00823948
0.00824407
0.00824921
0.00825446
0.00825832
0.00825776
0.0082483
0.00823497
0.008245
0.0082749
0.00830554
0.00831979
0.00832143
0.00831672
0.00830956
0.00830164
0.00829333
0.00828488
0.00827677
0.00826956
0.00826381
0.00825981
0.00825753
0.00825663
0.00822511
0.00822529
0.00822576
0.00822671
0.00822833
0.00823084
0.00823438
0.008239
0.00824457
0.00825106
0.00825827
0.00826533
0.00826986
0.00826749
0.0082535
0.00823628
0.00824538
0.00827728
0.00831625
0.00833303
0.00833472
0.00832909
0.00832058
0.00831101
0.00830097
0.00829071
0.00828089
0.00827233
0.00826567
0.00826118
0.00825869
0.00825774
0.00822526
0.00822548
0.00822606
0.00822723
0.00822929
0.00823253
0.0082372
0.00824338
0.00825099
0.00825993
0.00826975
0.00827897
0.00828404
0.00827903
0.00825969
0.00823755
0.00824601
0.00828315
0.00833173
0.00834931
0.00834949
0.0083423
0.00833227
0.00832109
0.00830919
0.00829705
0.00828547
0.00827549
0.00826788
0.00826287
0.00826017
0.00825915
0.0082255
0.00822575
0.00822646
0.00822791
0.00823049
0.00823462
0.00824065
0.00824874
0.00825884
0.00827072
0.00828364
0.00829533
0.008301
0.0082932
0.00826815
0.00823896
0.00824624
0.00829728
0.00835306
0.00836808
0.00836404
0.00835419
0.00834257
0.00833008
0.00831677
0.00830308
0.00829002
0.00827883
0.00827039
0.0082649
0.00826199
0.00826092
0.00822588
0.00822618
0.00822704
0.00822882
0.00823201
0.00823719
0.00824479
0.00825508
0.00826801
0.00828324
0.00829967
0.00831436
0.00832149
0.00831242
0.00828166
0.00824155
0.00824739
0.00832986
0.00838217
0.0083862
0.00837434
0.00836095
0.00834811
0.00833516
0.00832137
0.0083071
0.00829342
0.00828168
0.00827283
0.00826711
0.00826409
0.00826299
0.00822643
0.00822679
0.00822783
0.00822998
0.00823387
0.00824018
0.00824948
0.00826211
0.00827796
0.00829666
0.00831691
0.00833554
0.00834641
0.00833979
0.00830624
0.00825297
0.00824826
0.00837882
0.00841191
0.00839575
0.00837352
0.00835704
0.00834441
0.00833267
0.00832014
0.00830688
0.00829403
0.0082829
0.00827446
0.00826897
0.00826606
0.00826498
0.0082272
0.00822763
0.00822886
0.00823142
0.00823601
0.0082434
0.00825425
0.00826892
0.00828733
0.00830904
0.00833298
0.00835669
0.008375
0.00837847
0.00835449
0.00830051
0.00827174
0.00843032
0.00842819
0.00838821
0.00835664
0.00833921
0.00832896
0.00832039
0.008311
0.00830067
0.00829038
0.00828132
0.00827436
0.00826976
0.00826723
0.00826623
0.00822811
0.00822862
0.00823006
0.00823299
0.00823814
0.00824631
0.00825813
0.00827392
0.0082936
0.00831682
0.00834308
0.00837144
0.00839934
0.00842058
0.00842418
0.00840098
0.00837539
0.00847342
0.00842808
0.00837018
0.0083322
0.00831402
0.00830602
0.00830087
0.00829538
0.00828898
0.00828232
0.00827629
0.00827154
0.00826827
0.00826633
0.00826548
0.00822905
0.00822962
0.00823119
0.00823438
0.00823987
0.00824832
0.00826018
0.00827554
0.0082942
0.00831597
0.00834103
0.00836994
0.00840299
0.00843838
0.00847003
0.00848832
0.00848992
0.00849896
0.00843917
0.00837417
0.00832663
0.00829991
0.00828725
0.00828157
0.0082784
0.00827566
0.00827272
0.00826966
0.00826683
0.00826456
0.00826303
0.0082623
0.00823012
0.00823075
0.00823242
0.00823564
0.00824098
0.00824885
0.00825936
0.00827228
0.00828721
0.00830407
0.00832355
0.00834739
0.00837792
0.00841691
0.00846329
0.00851078
0.00854466
0.00854815
0.00850535
0.00843988
0.00837825
0.00833109
0.00829875
0.00827817
0.00826628
0.00825957
0.00825613
0.00825467
0.00825446
0.00825505
0.00825592
0.00825652
0.0082299
0.00823048
0.00823186
0.00823436
0.0082383
0.00824389
0.00825113
0.00825971
0.0082692
0.00827944
0.00829102
0.00830572
0.00832663
0.00835881
0.00840777
0.00847562
0.00855386
0.00861413
0.0086274
0.00859829
0.00854859
0.00849471
0.00844492
0.00840281
0.00836994
0.00834585
0.00833032
0.00832233
0.00832017
0.00832156
0.00832398
0.00832558
0.0082283
0.00822877
0.00822976
0.00823133
0.00823358
0.00823661
0.00824045
0.00824492
0.00824952
0.00825376
0.00825766
0.0082619
0.00826881
0.0082838
0.00831383
0.0083724
0.00846661
0.00858316
0.00868471
0.00875001
0.00877951
0.0087836
0.00877171
0.00875037
0.00872407
0.0086963
0.00866961
0.00864627
0.00862801
0.00861542
0.00860807
0.00860495
0.00822557
0.0082259
0.00822664
0.00822782
0.00822939
0.00823128
0.0082334
0.00823567
0.00823777
0.00823949
0.00824068
0.00824135
0.00824208
0.00824493
0.00825395
0.0082837
0.00834595
0.0084404
0.00855247
0.00866765
0.00876903
0.00884873
0.00890633
0.00894392
0.00896385
0.00896868
0.00896133
0.00894576
0.00892668
0.00890869
0.00889547
0.00888889
0.00822602
0.00822552
0.00822479
0.0082243
0.00822442
0.00822521
0.00822652
0.00822811
0.00822959
0.00823078
0.00823152
0.00823173
0.00823156
0.00823169
0.00823349
0.00824954
0.00830154
0.0083793
0.00846173
0.00855317
0.00865332
0.00875303
0.0088432
0.00891848
0.00897647
0.0090166
0.00903974
0.00904839
0.00904649
0.009039
0.00903094
0.00902606
0.00824464
0.00824282
0.00823924
0.00823462
0.00823008
0.0082265
0.0082243
0.00822345
0.00822354
0.00822424
0.00822513
0.00822588
0.00822625
0.00822642
0.00822601
0.00823186
0.00827471
0.0083565
0.0084404
0.00851822
0.00860102
0.00869315
0.00878899
0.00887987
0.00895847
0.00902019
0.00906322
0.0090885
0.00909925
0.00910027
0.0090969
0.00909378
0.0082906
0.00828842
0.00828352
0.00827579
0.00826603
0.00825561
0.00824592
0.00823795
0.00823205
0.00822827
0.0082262
0.00822525
0.00822482
0.00822479
0.00822375
0.00822263
0.00825651
0.00834108
0.00843691
0.00851946
0.00859435
0.0086743
0.00876287
0.00885527
0.00894333
0.00901919
0.00907743
0.00911612
0.00913693
0.00914429
0.00914404
0.0091419
0.00835584
0.00835446
0.00835057
0.00834269
0.00833002
0.00831319
0.0082943
0.00827579
0.00825947
0.00824653
0.00823721
0.00823111
0.00822732
0.00822554
0.00822377
0.00821794
0.00824569
0.00833199
0.00843921
0.00853371
0.00861126
0.00868453
0.00876341
0.00884917
0.00893682
0.00901862
0.00908687
0.00913649
0.0091665
0.00918
0.0091828
0.00918153
0.00842681
0.00842606
0.00842258
0.00841377
0.00839762
0.00837412
0.00834576
0.00831643
0.00828957
0.00826734
0.00825049
0.00823879
0.00823115
0.00822726
0.00822464
0.00821666
0.00824356
0.00833312
0.00844903
0.00855473
0.00863914
0.00871126
0.00878309
0.00886044
0.00894242
0.00902366
0.00909651
0.00915373
0.00919147
0.00921073
0.00921659
0.0092162
0.00849618
0.00849516
0.00848994
0.00847713
0.00845455
0.00842261
0.00838456
0.00834549
0.00831008
0.00828113
0.00825937
0.00824422
0.00823441
0.00822972
0.00822748
0.00822215
0.0082557
0.00835127
0.00847284
0.00858555
0.00867572
0.00874867
0.00881584
0.0088854
0.00895971
0.00903622
0.00910886
0.00916999
0.00921352
0.00923791
0.00924679
0.00924734
0.00856335
0.00856139
0.00855347
0.00853592
0.00850701
0.00846776
0.00842195
0.0083747
0.00833124
0.00829553
0.00826912
0.0082518
0.00824192
0.00823898
0.00824049
0.00824494
0.00829202
0.00839467
0.0085179
0.00863183
0.00872368
0.00879636
0.00885951
0.00892177
0.00898759
0.00905694
0.00912574
0.00918712
0.00923396
0.00926243
0.00927416
0.0092757
0.00863112
0.0086282
0.00861857
0.0085992
0.00856893
0.00852869
0.00848114
0.00842962
0.00837869
0.00833375
0.00829943
0.00827897
0.00827059
0.00827211
0.00828135
0.0083011
0.00836357
0.0084702
0.0085894
0.00869808
0.00878624
0.00885564
0.00891386
0.00896871
0.00902544
0.00908584
0.00914797
0.00920634
0.00925378
0.00928487
0.00929908
0.00930167
0.00870279
0.00869939
0.00869073
0.00867501
0.00865106
0.0086185
0.00857762
0.00852899
0.00847514
0.0084218
0.00837699
0.00835165
0.00834505
0.00835165
0.00836951
0.00840378
0.0084762
0.00857966
0.00868812
0.00878539
0.00886465
0.00892717
0.00897865
0.00902545
0.00907261
0.00912286
0.00917605
0.00922852
0.00927382
0.00930572
0.00932177
0.0093254
0.00878256
0.00877939
0.00877489
0.00876817
0.00875682
0.00873838
0.00871086
0.00867263
0.008624
0.00856932
0.00851751
0.00848726
0.00848078
0.00848995
0.00851273
0.00855415
0.00862623
0.00871797
0.00880966
0.00889079
0.00895713
0.00900968
0.00905257
0.00909055
0.0091279
0.00916744
0.00921017
0.00925429
0.00929477
0.0093254
0.00934233
0.00934692
0.00887648
0.00887425
0.00887605
0.00888034
0.00888281
0.0088795
0.00886734
0.00884373
0.00880744
0.00876081
0.00871132
0.0086795
0.00867117
0.00867921
0.00870102
0.00874005
0.00880164
0.0088749
0.00894594
0.00900825
0.00905937
0.00910003
0.00913308
0.00916181
0.00918945
0.0092184
0.0092501
0.00928418
0.00931743
0.00934453
0.00936099
0.00936625
0.00899205
0.00899213
0.00900085
0.00901363
0.00902523
0.00903208
0.00903152
0.00902121
0.00899949
0.00896713
0.00892888
0.00890118
0.0088916
0.00889639
0.00891274
0.00894236
0.0089871
0.00903856
0.00908767
0.00913057
0.00916585
0.00919401
0.00921684
0.00923641
0.00925491
0.00927404
0.00929508
0.00931843
0.00934258
0.00936387
0.00937811
0.00938342
0.00913752
0.009142
0.0091545
0.00916832
0.00918054
0.00918935
0.0091932
0.0091907
0.00918068
0.00916319
0.00914042
0.00912211
0.00911444
0.0091163
0.00912564
0.00914308
0.00916908
0.00919862
0.00922664
0.00925107
0.00927122
0.00928732
0.00930034
0.0093114
0.0093217
0.00933222
0.00934375
0.0093568
0.00937093
0.00938436
0.00939432
0.00939866
0.00931985
0.00932288
0.00932889
0.0093348
0.00933992
0.00934377
0.00934587
0.00934577
0.0093431
0.0093378
0.00933046
0.00932419
0.0093213
0.00932166
0.00932458
0.00933017
0.00933851
0.00934796
0.0093569
0.0093647
0.00937113
0.00937627
0.00938043
0.00938393
0.00938717
0.00939044
0.009394
0.00939805
0.00940253
0.009407
0.00941062
0.00941243
)
;

boundaryField
{
    movingWall
    {
        type            fixedValue;
        value           uniform 0.00942;
    }
    fixedWalls
    {
        type            zeroGradient;
    }
    floor
    {
        type            zeroGradient;
    }
    frontAndBack
    {
        type            empty;
    }
}


// ************************************************************************* //
