/*--------------------------------*- C++ -*----------------------------------*\
| =========                 |                                                 |
| \\      /  F ield         | OpenFOAM: The Open Source CFD Toolbox           |
|  \\    /   O peration     | Version:  2212                                  |
|   \\  /    A nd           | Website:  www.openfoam.com                      |
|    \\/     M anipulation  |                                                 |
\*---------------------------------------------------------------------------*/
FoamFile
{
    version     2.0;
    format      ascii;
    arch        "LSB;label=64;scalar=64";
    class       volVectorField;
    location    "60";
    object      U;
}
// * * * * * * * * * * * * * * * * * * * * * * * * * * * * * * * * * * * * * //

dimensions      [0 1 -1 0 0 0 0];

internalField   nonuniform List<vector> 
1024
(
(-0.000146816 0.000133686 0)
(-0.0013388 0.000346015 0)
(-0.00318005 0.000383947 0)
(-0.00503026 0.000308827 0)
(-0.00638286 0.000195946 0)
(-0.00691582 5.98053e-05 0)
(-0.00638423 -0.000101344 0)
(-0.00453338 -0.000229956 0)
(-0.00169764 -0.000253495 0)
(0.00166075 -0.000215555 0)
(0.00507726 -0.000184097 0)
(0.00865529 -0.000168832 0)
(0.0123299 -0.000117065 0)
(0.0149822 2.76977e-06 0)
(0.0136715 0.000238125 0)
(0.008619 0.00024226 0)
(-0.00293983 0.000319885 0)
(-0.0107716 0.000201233 0)
(-0.0113193 -2.0632e-05 0)
(-0.00737651 -0.000244 0)
(-0.00216667 -0.000203142 0)
(0.00127291 -0.00012078 0)
(0.00282154 -6.45296e-05 0)
(0.00378944 -4.06839e-05 0)
(0.00446676 -4.54047e-05 0)
(0.00496772 -3.40593e-05 0)
(0.00512971 1.428e-05 0)
(0.00481761 9.58077e-05 0)
(0.00392825 0.000200144 0)
(0.00254571 0.000291285 0)
(0.0010762 0.000277432 0)
(0.000114546 0.000103831 0)
(-0.000524004 0.00149885 0)
(-0.00370522 0.00301775 0)
(-0.00792219 0.00306044 0)
(-0.0118467 0.0022737 0)
(-0.0144857 0.00120503 0)
(-0.015268 8.03255e-05 0)
(-0.0138138 -0.00102693 0)
(-0.00997644 -0.0018343 0)
(-0.00434263 -0.00210838 0)
(0.00274256 -0.0019942 0)
(0.0102958 -0.0017983 0)
(0.0181798 -0.00165521 0)
(0.0264959 -0.00131427 0)
(0.0333863 -0.000404132 0)
(0.0326689 0.00116303 0)
(0.0229593 0.00227465 0)
(-0.00662603 0.00288726 0)
(-0.0250948 0.00135355 0)
(-0.0246278 -0.000613543 0)
(-0.0153494 -0.00200672 0)
(-0.00458444 -0.00191255 0)
(0.00303915 -0.00125608 0)
(0.00661342 -0.000748273 0)
(0.00898977 -0.000542384 0)
(0.0106411 -0.000471238 0)
(0.0117733 -0.000305862 0)
(0.0121355 0.000103351 0)
(0.0114291 0.000777475 0)
(0.00945864 0.00164239 0)
(0.00638266 0.00239658 0)
(0.00297122 0.0024307 0)
(0.000406292 0.00118547 0)
(-0.000770443 0.00439023 0)
(-0.00512197 0.00785677 0)
(-0.0105187 0.00749557 0)
(-0.0153085 0.00529849 0)
(-0.0183156 0.00253984 0)
(-0.0189102 -0.000218673 0)
(-0.0167142 -0.00271082 0)
(-0.0120577 -0.0044029 0)
(-0.00558059 -0.00505584 0)
(0.00262754 -0.00495451 0)
(0.011879 -0.00457884 0)
(0.0215642 -0.00423853 0)
(0.0319538 -0.00352706 0)
(0.0414637 -0.00152429 0)
(0.0430582 0.00220834 0)
(0.0326529 0.00577397 0)
(-0.00806962 0.00747423 0)
(-0.0323079 0.00305395 0)
(-0.0288938 -0.00202987 0)
(-0.0163296 -0.00500787 0)
(-0.00401674 -0.00466036 0)
(0.00460247 -0.00316312 0)
(0.0089895 -0.00199645 0)
(0.0120409 -0.0014934 0)
(0.0141511 -0.00124949 0)
(0.0155517 -0.000794235 0)
(0.0160102 0.00023077 0)
(0.0150846 0.00191561 0)
(0.0125572 0.00407243 0)
(0.0086097 0.0060198 0)
(0.00414298 0.00638815 0)
(0.000599304 0.0034867 0)
(-0.000739194 0.00825197 0)
(-0.00522573 0.0141834 0)
(-0.0108151 0.0131888 0)
(-0.0156782 0.00905218 0)
(-0.0185507 0.00401435 0)
(-0.0188199 -0.000862845 0)
(-0.0163265 -0.00494982 0)
(-0.0117201 -0.00753723 0)
(-0.00558367 -0.00855877 0)
(0.00204838 -0.00854777 0)
(0.0110844 -0.00807469 0)
(0.0207408 -0.00753738 0)
(0.0312299 -0.00646339 0)
(0.0414466 -0.0033402 0)
(0.045566 0.00310742 0)
(0.0369825 0.0103274 0)
(-0.00792283 0.0136198 0)
(-0.0333381 0.00494082 0)
(-0.0253603 -0.00432669 0)
(-0.0119072 -0.00879434 0)
(-0.000530113 -0.00773295 0)
(0.00646197 -0.00536265 0)
(0.0106383 -0.0035595 0)
(0.0135167 -0.00270695 0)
(0.0154503 -0.00222359 0)
(0.0166739 -0.00139759 0)
(0.017021 0.000412525 0)
(0.0159731 0.00343875 0)
(0.0132632 0.00731051 0)
(0.00905662 0.0108377 0)
(0.00431035 0.0116729 0)
(0.000591027 0.00661478 0)
(-0.000504556 0.0122181 0)
(-0.00433976 0.021044 0)
(-0.00944416 0.0195122 0)
(-0.01393 0.0131902 0)
(-0.0164871 0.00552461 0)
(-0.0165601 -0.00170384 0)
(-0.0142625 -0.00737516 0)
(-0.0103005 -0.0107444 0)
(-0.00513885 -0.0120505 0)
(0.00114506 -0.0121614 0)
(0.00888985 -0.0117208 0)
(0.0174894 -0.0110703 0)
(0.0269467 -0.00969849 0)
(0.0364304 -0.00566932 0)
(0.0422262 0.00369327 0)
(0.0368118 0.0154147 0)
(-0.00726735 0.0206919 0)
(-0.0303908 0.00651733 0)
(-0.0166035 -0.00747961 0)
(-0.00469218 -0.012675 0)
(0.00448321 -0.0104797 0)
(0.00929116 -0.00731958 0)
(0.0124695 -0.00500733 0)
(0.0144793 -0.00378923 0)
(0.0156508 -0.00303239 0)
(0.0162267 -0.0018297 0)
(0.0161265 0.000794471 0)
(0.0148982 0.0053096 0)
(0.0121948 0.0111191 0)
(0.00813539 0.0163685 0)
(0.00368827 0.0175358 0)
(0.000429912 0.00991576 0)
(-0.000226574 0.0155484 0)
(-0.00303555 0.0275744 0)
(-0.007294 0.0259288 0)
(-0.0112044 0.0174981 0)
(-0.013454 0.00710736 0)
(-0.013562 -0.00250683 0)
(-0.0118255 -0.00964833 0)
(-0.00885554 -0.0136614 0)
(-0.00498102 -0.0151823 0)
(-0.000289439 -0.0154379 0)
(0.00571369 -0.0151601 0)
(0.0127602 -0.0145335 0)
(0.0206218 -0.0129558 0)
(0.0286281 -0.00831213 0)
(0.0348007 0.00389006 0)
(0.0333398 0.0205395 0)
(-0.00707943 0.0280953 0)
(-0.0258569 0.00710124 0)
(-0.00543076 -0.0117819 0)
(0.00327012 -0.0159848 0)
(0.00964932 -0.0127813 0)
(0.013104 -0.00884306 0)
(0.0149998 -0.00600163 0)
(0.0157937 -0.00435218 0)
(0.0158401 -0.00326506 0)
(0.0154079 -0.00170254 0)
(0.0145218 0.00166861 0)
(0.0129271 0.00761764 0)
(0.0102468 0.0153471 0)
(0.00653686 0.0221779 0)
(0.00271567 0.0232794 0)
(0.000230403 0.0128179 0)
(-2.28309e-05 0.0178543 0)
(-0.00179916 0.0331371 0)
(-0.0051045 0.0320095 0)
(-0.0083991 0.0218488 0)
(-0.0104199 0.00887865 0)
(-0.0107562 -0.00300492 0)
(-0.00979057 -0.0114402 0)
(-0.00798697 -0.015963 0)
(-0.00554038 -0.0176821 0)
(-0.00243389 -0.0181287 0)
(0.00163527 -0.018123 0)
(0.00687717 -0.0176739 0)
(0.0128259 -0.0160148 0)
(0.0190647 -0.0109585 0)
(0.0239606 0.00380294 0)
(0.0277101 0.0252133 0)
(-0.00788975 0.0353036 0)
(-0.0212559 0.00608366 0)
(0.00540112 -0.0173883 0)
(0.010161 -0.0186837 0)
(0.0149857 -0.0146062 0)
(0.0173771 -0.00990245 0)
(0.0181048 -0.00636784 0)
(0.0177062 -0.00412868 0)
(0.0165742 -0.00258571 0)
(0.0149963 -0.000632203 0)
(0.0131297 0.0034068 0)
(0.0109631 0.0105615 0)
(0.00821739 0.0199366 0)
(0.00489357 0.0279328 0)
(0.0017904 0.0284079 0)
(8.19638e-05 0.0150249 0)
(7.20995e-05 0.0191506 0)
(-0.000903813 0.0374352 0)
(-0.00332584 0.0374722 0)
(-0.00604761 0.0261704 0)
(-0.00792416 0.010973 0)
(-0.00861667 -0.00293053 0)
(-0.00854105 -0.0124115 0)
(-0.00798166 -0.0173132 0)
(-0.0070139 -0.0192663 0)
(-0.0054948 -0.0199968 0)
(-0.00324404 -0.0203302 0)
(-0.000109042 -0.020178 0)
(0.00373567 -0.0185816 0)
(0.00805726 -0.013073 0)
(0.00949345 0.00387165 0)
(0.0213028 0.0288563 0)
(-0.00923163 0.0416751 0)
(-0.0137556 0.00299637 0)
(0.0129919 -0.0226393 0)
(0.0161329 -0.0213721 0)
(0.0197578 -0.0161397 0)
(0.0212819 -0.0105007 0)
(0.0211244 -0.00607481 0)
(0.0198221 -0.00303836 0)
(0.0177413 -0.000817863 0)
(0.0151641 0.00182255 0)
(0.0123465 0.00642676 0)
(0.00951238 0.0144304 0)
(0.00659061 0.0249455 0)
(0.00358436 0.0334799 0)
(0.00112371 0.0327434 0)
(9.56695e-06 0.0165604 0)
(8.22571e-05 0.0197432 0)
(-0.000416144 0.0405505 0)
(-0.00214147 0.0422248 0)
(-0.00438443 0.0304441 0)
(-0.00620046 0.0135322 0)
(-0.00735603 -0.00199027 0)
(-0.00825309 -0.0121915 0)
(-0.00896458 -0.0173496 0)
(-0.00947307 -0.0196041 0)
(-0.00957837 -0.020748 0)
(-0.00910437 -0.0215053 0)
(-0.0080014 -0.0216625 0)
(-0.00643131 -0.0201044 0)
(-0.00432431 -0.0140485 0)
(-0.00675352 0.000373258 0)
(0.0148714 0.0305718 0)
(-0.010383 0.047097 0)
(0.00338314 -0.00590055 0)
(0.0170725 -0.0255073 0)
(0.0205525 -0.0237684 0)
(0.0230299 -0.0173687 0)
(0.0237927 -0.01065 0)
(0.0230542 -0.00519394 0)
(0.0212363 -0.00115722 0)
(0.0185769 0.00217897 0)
(0.0153344 0.00564627 0)
(0.0118806 0.0108821 0)
(0.00852705 0.0194568 0)
(0.00541254 0.0305202 0)
(0.00264413 0.0388609 0)
(0.000698042 0.0363856 0)
(-1.58261e-05 0.0176239 0)
(4.90633e-05 0.0200505 0)
(-0.000265827 0.0428927 0)
(-0.00154661 0.0464156 0)
(-0.0034591 0.03477 0)
(-0.00533587 0.0168065 0)
(-0.00706289 0.000339786 0)
(-0.00894282 -0.0103532 0)
(-0.0109337 -0.0156926 0)
(-0.0128745 -0.0183286 0)
(-0.0145911 -0.0200065 0)
(-0.0159397 -0.0212955 0)
(-0.0168619 -0.0218722 0)
(-0.0173608 -0.0204898 0)
(-0.0173529 -0.0146852 0)
(-0.0176098 -0.00151919 0)
(0.00415529 0.0284971 0)
(-0.0110952 0.0488148 0)
(0.0116314 -0.0136257 0)
(0.0190563 -0.0282415 0)
(0.0220873 -0.0257393 0)
(0.0235475 -0.0182352 0)
(0.0236868 -0.0103796 0)
(0.0226621 -0.0038192 0)
(0.0205316 0.0015008 0)
(0.017629 0.00596597 0)
(0.014314 0.0104751 0)
(0.0108042 0.0165263 0)
(0.00735271 0.0256066 0)
(0.00424083 0.0367282 0)
(0.00176613 0.0441172 0)
(0.000321098 0.0393972 0)
(-4.25867e-05 0.0183034 0)
(6.52354e-06 0.0204465 0)
(-0.000319162 0.0450492 0)
(-0.00139953 0.0504333 0)
(-0.00314346 0.0394296 0)
(-0.00517679 0.0211625 0)
(-0.00758581 0.00445558 0)
(-0.0104942 -0.00650971 0)
(-0.0137105 -0.0120116 0)
(-0.0169599 -0.0151072 0)
(-0.0201566 -0.0173935 0)
(-0.0232079 -0.019296 0)
(-0.0260421 -0.0204559 0)
(-0.028565 -0.019752 0)
(-0.0304743 -0.0151227 0)
(-0.0295566 -0.00321273 0)
(-0.0120123 0.0237035 0)
(-0.00969071 0.0448112 0)
(0.0142905 -0.0207924 0)
(0.0170755 -0.0305959 0)
(0.0191047 -0.0269409 0)
(0.0198106 -0.0185942 0)
(0.0196864 -0.00971566 0)
(0.0187093 -0.00202943 0)
(0.0165472 0.00444716 0)
(0.0140285 0.0100651 0)
(0.0112522 0.0156722 0)
(0.00824095 0.0226987 0)
(0.00516205 0.0323753 0)
(0.00241486 0.0431961 0)
(0.000538543 0.0487956 0)
(-0.000185675 0.0412356 0)
(-9.46163e-05 0.018357 0)
(-3.00973e-05 0.0211982 0)
(-0.000463285 0.0476209 0)
(-0.00154065 0.0548342 0)
(-0.00329323 0.0448766 0)
(-0.00558014 0.0270967 0)
(-0.00859607 0.0109859 0)
(-0.0124384 0.000363117 0)
(-0.0166769 -0.00604742 0)
(-0.0210861 -0.00977402 0)
(-0.0254684 -0.0126957 0)
(-0.0298385 -0.0152768 0)
(-0.0341786 -0.0171934 0)
(-0.0383605 -0.0175543 0)
(-0.0417602 -0.0146622 0)
(-0.0412638 -0.00533083 0)
(-0.0279143 0.0154138 0)
(-0.00669894 0.0348839 0)
(0.0124411 -0.0259821 0)
(0.010121 -0.0318297 0)
(0.0107249 -0.0272639 0)
(0.0109157 -0.018492 0)
(0.0111652 -0.00877241 0)
(0.0104859 -8.32241e-05 0)
(0.00905909 0.00711092 0)
(0.00766309 0.0134861 0)
(0.00589545 0.0201379 0)
(0.00365852 0.028429 0)
(0.00130391 0.0388992 0)
(-0.000480685 0.0488646 0)
(-0.00111503 0.0511894 0)
(-0.00082355 0.0407946 0)
(-0.000170298 0.017299 0)
(-5.4395e-05 0.0224715 0)
(-0.000613094 0.0511221 0)
(-0.00181176 0.0602732 0)
(-0.00372908 0.0517066 0)
(-0.00634585 0.03501 0)
(-0.00979474 0.0199031 0)
(-0.0140847 0.00988403 0)
(-0.0190059 0.00339151 0)
(-0.0241593 -0.00177153 0)
(-0.0293255 -0.00602763 0)
(-0.0344621 -0.00943922 0)
(-0.0395173 -0.0123152 0)
(-0.0443935 -0.0140956 0)
(-0.0483247 -0.0136208 0)
(-0.0485051 -0.00888303 0)
(-0.0386853 0.00254964 0)
(-0.00832705 0.0178133 0)
(0.00294315 -0.0295304 0)
(-0.00295324 -0.031254 0)
(-0.00286655 -0.026923 0)
(-0.00259445 -0.018499 0)
(-0.00138088 -0.0083376 0)
(-0.000383021 0.00107632 0)
(-0.000393412 0.00830042 0)
(-0.000605482 0.0156024 0)
(-0.00151318 0.0240189 0)
(-0.00274889 0.0337496 0)
(-0.00367757 0.0435918 0)
(-0.00372888 0.0503162 0)
(-0.0028156 0.0490191 0)
(-0.00143008 0.0366998 0)
(-0.000225345 0.0145684 0)
(-5.73752e-05 0.0242857 0)
(-0.000654636 0.0558401 0)
(-0.00197171 0.0673788 0)
(-0.00414084 0.0606027 0)
(-0.00715766 0.0452728 0)
(-0.0109858 0.0310667 0)
(-0.0154586 0.0211909 0)
(-0.0204086 0.0142763 0)
(-0.0257414 0.0085505 0)
(-0.0312751 0.00315473 0)
(-0.036691 -0.00203198 0)
(-0.0418464 -0.00631311 0)
(-0.0465971 -0.00954528 0)
(-0.0503277 -0.0113337 0)
(-0.0510491 -0.0108065 0)
(-0.0447454 -0.00801101 0)
(-0.0258392 -0.00638308 0)
(-0.0163344 -0.0278243 0)
(-0.0191883 -0.0297644 0)
(-0.0190662 -0.026662 0)
(-0.0178872 -0.0196596 0)
(-0.0156913 -0.0107297 0)
(-0.0131913 -0.00134125 0)
(-0.0114801 0.00754436 0)
(-0.0107611 0.0163632 0)
(-0.0102049 0.0256846 0)
(-0.00952959 0.0348564 0)
(-0.0083356 0.0422462 0)
(-0.00643226 0.0452219 0)
(-0.00403806 0.0408688 0)
(-0.00175442 0.0282998 0)
(-0.000221181 0.010214 0)
(-1.2388e-05 0.0260663 0)
(-0.000345369 0.0610356 0)
(-0.00139814 0.076136 0)
(-0.00352368 0.0721812 0)
(-0.00679052 0.0583993 0)
(-0.0109308 0.0445905 0)
(-0.0155932 0.0342706 0)
(-0.020604 0.026448 0)
(-0.0258943 0.0196025 0)
(-0.0313479 0.0130572 0)
(-0.0367767 0.00670224 0)
(-0.0419049 0.000608213 0)
(-0.046367 -0.0046979 0)
(-0.0496757 -0.00869717 0)
(-0.0506987 -0.0112343 0)
(-0.0473839 -0.0127335 0)
(-0.0389143 -0.0161947 0)
(-0.0338802 -0.0275093 0)
(-0.0342841 -0.0297734 0)
(-0.0339713 -0.0276235 0)
(-0.0325137 -0.0222901 0)
(-0.029916 -0.0147702 0)
(-0.0266019 -0.00578716 0)
(-0.0228683 0.00392517 0)
(-0.0199373 0.0127945 0)
(-0.0170632 0.0211001 0)
(-0.014095 0.0280809 0)
(-0.0108803 0.0322993 0)
(-0.00746106 0.0320738 0)
(-0.00417677 0.0263017 0)
(-0.00158898 0.0160373 0)
(-0.000163087 0.00482521 0)
(0.000103817 0.0260448 0)
(0.000500225 0.0629308 0)
(0.000560835 0.082639 0)
(-0.000286849 0.0845155 0)
(-0.0025209 0.0740815 0)
(-0.0059842 0.0607055 0)
(-0.0101896 0.0494663 0)
(-0.0148089 0.0404775 0)
(-0.0198049 0.0323138 0)
(-0.0253092 0.0240492 0)
(-0.0313289 0.0156395 0)
(-0.0373885 0.0076121 0)
(-0.042548 0.000449214 0)
(-0.0458792 -0.00565746 0)
(-0.0474403 -0.0109408 0)
(-0.0467156 -0.0156383 0)
(-0.0440322 -0.0212825 0)
(-0.0426505 -0.0277335 0)
(-0.0431539 -0.0296978 0)
(-0.0433557 -0.0286545 0)
(-0.0424432 -0.0254804 0)
(-0.0400991 -0.0206947 0)
(-0.0363264 -0.0145554 0)
(-0.0313418 -0.00723037 0)
(-0.0255235 0.00101837 0)
(-0.0197698 0.00858419 0)
(-0.0143474 0.014024 0)
(-0.00949604 0.0159795 0)
(-0.00545377 0.0145848 0)
(-0.00244858 0.0101889 0)
(-0.000673045 0.00479069 0)
(-1.15569e-05 0.000875419 0)
(0.000250162 0.0221715 0)
(0.00160638 0.0568059 0)
(0.00325019 0.0791436 0)
(0.00450257 0.0870586 0)
(0.00468806 0.0833503 0)
(0.00356223 0.0738861 0)
(0.00138616 0.0633906 0)
(-0.00147562 0.0537102 0)
(-0.00476893 0.0451298 0)
(-0.00852129 0.0371328 0)
(-0.0130355 0.0287726 0)
(-0.0187543 0.0190456 0)
(-0.0263013 0.00767513 0)
(-0.0343009 -0.00284184 0)
(-0.037448 -0.00960926 0)
(-0.0388185 -0.0161019 0)
(-0.0392945 -0.0227952 0)
(-0.0397909 -0.0274206 0)
(-0.040774 -0.0292542 0)
(-0.0414712 -0.0295157 0)
(-0.0412444 -0.0290386 0)
(-0.0396746 -0.0281553 0)
(-0.0366139 -0.0269033 0)
(-0.0321412 -0.0251418 0)
(-0.0265437 -0.02264 0)
(-0.0203238 -0.0191661 0)
(-0.0141324 -0.0146325 0)
(-0.00864176 -0.00928423 0)
(-0.0043731 -0.00483791 0)
(-0.00161742 -0.00191855 0)
(-0.000312801 -0.000409152 0)
(2.31478e-05 0.000110345 0)
(0.000307565 0.0150794 0)
(0.00237242 0.0430285 0)
(0.00543795 0.0653002 0)
(0.00871275 0.0776427 0)
(0.0113854 0.0801508 0)
(0.0129616 0.0759577 0)
(0.013369 0.0685513 0)
(0.0128089 0.0602465 0)
(0.0115524 0.0521101 0)
(0.00979612 0.0443994 0)
(0.00756677 0.0368889 0)
(0.00468552 0.029169 0)
(0.000622861 0.0210549 0)
(-0.00450918 0.0114296 0)
(-0.0182935 -0.00634877 0)
(-0.0222453 -0.0144831 0)
(-0.0260009 -0.022053 0)
(-0.028143 -0.0262283 0)
(-0.0296273 -0.0278481 0)
(-0.0307224 -0.0284384 0)
(-0.0313633 -0.0292081 0)
(-0.0311807 -0.0305278 0)
(-0.0299134 -0.0323151 0)
(-0.0274876 -0.0341755 0)
(-0.0240079 -0.0354938 0)
(-0.0197309 -0.035527 0)
(-0.0150195 -0.0335339 0)
(-0.0103004 -0.0290041 0)
(-0.00606746 -0.0220468 0)
(-0.00282184 -0.013817 0)
(-0.000862569 -0.00639343 0)
(-6.19587e-05 -0.00135769 0)
(0.000240127 0.00752604 0)
(0.00239169 0.0258913 0)
(0.00623307 0.0452259 0)
(0.0109686 0.0598491 0)
(0.015692 0.0673227 0)
(0.0197408 0.0684651 0)
(0.0227568 0.0653558 0)
(0.0246534 0.0599266 0)
(0.0255154 0.0534627 0)
(0.025499 0.0466265 0)
(0.0247426 0.0396035 0)
(0.023313 0.032326 0)
(0.0211275 0.0248084 0)
(0.0179101 0.017638 0)
(0.0148239 0.00959137 0)
(0.00131476 -0.00571404 0)
(-0.00855927 -0.0186411 0)
(-0.0140371 -0.0240737 0)
(-0.0170563 -0.0262863 0)
(-0.0186782 -0.0269494 0)
(-0.0199645 -0.0279863 0)
(-0.020952 -0.03023 0)
(-0.021378 -0.0337766 0)
(-0.0209859 -0.0381824 0)
(-0.0196346 -0.0426179 0)
(-0.0173359 -0.0459982 0)
(-0.0142397 -0.0471009 0)
(-0.0106254 -0.0447431 0)
(-0.00689828 -0.0381643 0)
(-0.00358073 -0.027743 0)
(-0.00123629 -0.0156159 0)
(-0.000102554 -0.00462505 0)
(9.49915e-05 0.00214074 0)
(0.00155307 0.0110871 0)
(0.00506844 0.0248729 0)
(0.0103105 0.0389686 0)
(0.0163523 0.0492792 0)
(0.0223664 0.0547149 0)
(0.0277219 0.0559963 0)
(0.031998 0.05432 0)
(0.0349884 0.0507155 0)
(0.036675 0.0458616 0)
(0.0371707 0.0401159 0)
(0.0366418 0.0336522 0)
(0.0351877 0.0266624 0)
(0.0326527 0.0195825 0)
(0.0292043 0.0121226 0)
(0.0228544 0.00258306 0)
(0.0117513 -0.00972385 0)
(0.00152225 -0.0191622 0)
(-0.00467276 -0.0236423 0)
(-0.00765205 -0.0250818 0)
(-0.0095469 -0.0260864 0)
(-0.0111652 -0.0282305 0)
(-0.012652 -0.0321828 0)
(-0.0137828 -0.0377932 0)
(-0.0142377 -0.0442646 0)
(-0.0137978 -0.0503913 0)
(-0.0123736 -0.0546671 0)
(-0.0100379 -0.0553604 0)
(-0.00706785 -0.0507889 0)
(-0.00397229 -0.0401183 0)
(-0.00147941 -0.0246659 0)
(-0.00013927 -0.00804575 0)
(-4.36963e-05 0.000291051 0)
(0.000476264 0.00326575 0)
(0.00276032 0.00994666 0)
(0.00742613 0.0198911 0)
(0.0138897 0.0300778 0)
(0.0211196 0.0380612 0)
(0.0281789 0.043102 0)
(0.0343188 0.0453589 0)
(0.0390596 0.045236 0)
(0.0422192 0.0431161 0)
(0.0438648 0.0393165 0)
(0.044208 0.0341516 0)
(0.0434498 0.0280393 0)
(0.0415994 0.0215797 0)
(0.0385916 0.0149604 0)
(0.0340956 0.00692998 0)
(0.0260054 -0.00336973 0)
(0.0166033 -0.0124884 0)
(0.00835438 -0.0188306 0)
(0.00286457 -0.0221732 0)
(-0.000397243 -0.0238919 0)
(-0.00263623 -0.0259323 0)
(-0.00464039 -0.0295598 0)
(-0.00662501 -0.035278 0)
(-0.00834777 -0.0426403 0)
(-0.00946465 -0.0505657 0)
(-0.00965918 -0.0575191 0)
(-0.00874249 -0.0614283 0)
(-0.00678161 -0.0598073 0)
(-0.00416916 -0.0504723 0)
(-0.00168864 -0.0332259 0)
(-0.000175509 -0.011577 0)
(-5.09267e-05 0.000208312 0)
(0.000321018 7.68698e-05 0)
(0.00185845 0.00079081 0)
(0.00522129 0.0046529 0)
(0.0107218 0.0121613 0)
(0.0177248 0.0209973 0)
(0.0251637 0.029011 0)
(0.0320643 0.0349875 0)
(0.0377563 0.0384148 0)
(0.0419464 0.0391958 0)
(0.0446548 0.0375103 0)
(0.046081 0.0337689 0)
(0.0464393 0.0286185 0)
(0.0457915 0.022879 0)
(0.044014 0.0168911 0)
(0.0409913 0.00969127 0)
(0.0357992 0.00101091 0)
(0.02826 -0.00724184 0)
(0.0202664 -0.0136687 0)
(0.0134804 -0.0180114 0)
(0.00861332 -0.0208449 0)
(0.00525233 -0.023343 0)
(0.00266194 -0.026689 0)
(0.000199854 -0.0319561 0)
(-0.00229028 -0.0392956 0)
(-0.0045691 -0.0479615 0)
(-0.00623032 -0.0567582 0)
(-0.00680664 -0.0635435 0)
(-0.00606815 -0.0652618 0)
(-0.00418304 -0.0584389 0)
(-0.00187795 -0.0409191 0)
(-0.00021654 -0.0150917 0)
(8.12554e-05 -0.000785367 0)
(0.000954042 -0.0034415 0)
(0.00257775 -0.00525387 0)
(0.00489871 -0.00449241 0)
(0.00820507 -0.000215299 0)
(0.0132236 0.00776135 0)
(0.0193728 0.0170982 0)
(0.0257946 0.0256031 0)
(0.0316776 0.0317431 0)
(0.0365926 0.0348526 0)
(0.0404355 0.0349246 0)
(0.0432943 0.0324077 0)
(0.0452993 0.0281242 0)
(0.0464554 0.0230734 0)
(0.0465802 0.0176582 0)
(0.0455541 0.0111172 0)
(0.0428899 0.00368136 0)
(0.0374499 -0.00338176 0)
(0.0305951 -0.00922193 0)
(0.0237429 -0.0136713 0)
(0.0179308 -0.0170718 0)
(0.0133964 -0.0201494 0)
(0.00984703 -0.0237591 0)
(0.00679881 -0.0286286 0)
(0.00384758 -0.0351607 0)
(0.000796987 -0.0436208 0)
(-0.00209763 -0.0533462 0)
(-0.00418777 -0.0623455 0)
(-0.00488213 -0.0673752 0)
(-0.00399167 -0.0638728 0)
(-0.00205869 -0.0475091 0)
(-0.000267824 -0.0185409 0)
(0.00016857 -0.00258808 0)
(0.00106203 -0.00720249 0)
(0.00215897 -0.00952638 0)
(0.00326016 -0.00871425 0)
(0.00447188 -0.00507518 0)
(0.00651541 0.00105503 0)
(0.0106001 0.00967906 0)
(0.0161414 0.0186778 0)
(0.0221211 0.0259437 0)
(0.0278304 0.030353 0)
(0.0329934 0.0316095 0)
(0.0375703 0.0300243 0)
(0.0415986 0.0264933 0)
(0.0449739 0.0221258 0)
(0.0474202 0.0173103 0)
(0.0487443 0.0114243 0)
(0.0482502 0.00500013 0)
(0.0449047 -0.00084729 0)
(0.0395362 -0.00580183 0)
(0.0333638 -0.00983039 0)
(0.0274246 -0.0132297 0)
(0.0222144 -0.0165006 0)
(0.0177571 -0.0202461 0)
(0.0138145 -0.0250191 0)
(0.0101045 -0.0311587 0)
(0.00641391 -0.0388181 0)
(0.00270538 -0.0479906 0)
(-0.000814124 -0.0583659 0)
(-0.00312794 -0.0663762 0)
(-0.00354441 -0.0666993 0)
(-0.00224174 -0.0528009 0)
(-0.000340486 -0.0219186 0)
(0.000134378 -0.00371166 0)
(0.000323488 -0.00871193 0)
(1.03574e-05 -0.0104143 0)
(-0.000789235 -0.00892407 0)
(-0.00166158 -0.00537578 0)
(-0.00203991 -0.000673731 0)
(-0.000483912 0.00533427 0)
(0.00418247 0.0132154 0)
(0.0107644 0.0206294 0)
(0.01762 0.0255634 0)
(0.024243 0.0276067 0)
(0.0306119 0.02673 0)
(0.0367887 0.023864 0)
(0.0425411 0.0201915 0)
(0.0474618 0.0160209 0)
(0.0512385 0.0108549 0)
(0.0528053 0.00540338 0)
(0.0513677 0.000659544 0)
(0.0474775 -0.00337293 0)
(0.0423288 -0.00676527 0)
(0.0368257 -0.00981224 0)
(0.0314902 -0.012908 0)
(0.0264838 -0.0164919 0)
(0.0217395 -0.0209722 0)
(0.0171101 -0.0266479 0)
(0.0124833 -0.0337097 0)
(0.00784786 -0.042259 0)
(0.00331242 -0.0522397 0)
(-0.00069505 -0.0624696 0)
(-0.00276403 -0.0668604 0)
(-0.0024357 -0.0566137 0)
(-0.000456443 -0.0252607 0)
(-4.663e-05 -0.00336663 0)
(-0.00124968 -0.00697068 0)
(-0.00361668 -0.00740416 0)
(-0.00651974 -0.00570481 0)
(-0.00916021 -0.00307878 0)
(-0.0109255 -6.02569e-05 0)
(-0.0108832 0.00360248 0)
(-0.00782055 0.0085275 0)
(-0.00166854 0.0145874 0)
(0.00715015 0.0203419 0)
(0.015538 0.0230916 0)
(0.0236472 0.0227819 0)
(0.0319258 0.0204974 0)
(0.0400226 0.0175191 0)
(0.0473723 0.0140267 0)
(0.0535139 0.00964793 0)
(0.0569968 0.00514422 0)
(0.0572338 0.00137922 0)
(0.0547824 -0.00177823 0)
(0.0507766 -0.00449253 0)
(0.0460107 -0.00702473 0)
(0.0409474 -0.00969782 0)
(0.0357678 -0.0128504 0)
(0.0304827 -0.0167984 0)
(0.0250402 -0.0218054 0)
(0.0194152 -0.0280904 0)
(0.0136612 -0.0358651 0)
(0.00792744 -0.045331 0)
(0.00253483 -0.0560763 0)
(-0.00149481 -0.0642958 0)
(-0.00261317 -0.058754 0)
(-0.000652327 -0.028623 0)
(-0.000402312 -0.00110695 0)
(-0.00358238 -0.00201215 0)
(-0.0081301 -0.00161616 0)
(-0.0127688 -0.000668511 0)
(-0.0165716 0.000291879 0)
(-0.0190359 0.00128247 0)
(-0.0195512 0.00277116 0)
(-0.0175023 0.00541593 0)
(-0.0122272 0.00941178 0)
(-0.00365287 0.0142781 0)
(0.00751223 0.0181721 0)
(0.0174971 0.0184358 0)
(0.0277503 0.0166675 0)
(0.038045 0.0143694 0)
(0.0476555 0.0115699 0)
(0.0559695 0.00802108 0)
(0.0612029 0.00443976 0)
(0.0628855 0.00154042 0)
(0.0617906 -0.000843847 0)
(0.058917 -0.00291291 0)
(0.0549857 -0.00488121 0)
(0.050401 -0.00700757 0)
(0.0453254 -0.00955596 0)
(0.0397867 -0.0127777 0)
(0.0337681 -0.0169105 0)
(0.0272835 -0.0222018 0)
(0.0204254 -0.0289554 0)
(0.0133837 -0.0375732 0)
(0.00650744 -0.0482643 0)
(0.000610226 -0.0589401 0)
(-0.00261288 -0.0589921 0)
(-0.000952473 -0.0320413 0)
(-0.000828776 0.00356985 0)
(-0.00551459 0.00626969 0)
(-0.0110178 0.00625498 0)
(-0.0160926 0.00518995 0)
(-0.0201257 0.00394548 0)
(-0.022907 0.00292275 0)
(-0.0240992 0.00252052 0)
(-0.0230501 0.00326491 0)
(-0.0189386 0.00542482 0)
(-0.0112938 0.00885302 0)
(0.000189178 0.0127246 0)
(0.0131073 0.0137873 0)
(0.025068 0.0126033 0)
(0.037308 0.0109697 0)
(0.0489185 0.00885896 0)
(0.0591456 0.00615012 0)
(0.0659253 0.00345439 0)
(0.0688486 0.00132409 0)
(0.0688993 -0.000392634 0)
(0.0669887 -0.00187378 0)
(0.0638098 -0.0032884 0)
(0.0597383 -0.00483562 0)
(0.0549215 -0.00671366 0)
(0.0493807 -0.00911544 0)
(0.0430911 -0.0122456 0)
(0.0360471 -0.0163615 0)
(0.0283148 -0.0218375 0)
(0.0200702 -0.0292427 0)
(0.0116641 -0.0392482 0)
(0.00388651 -0.0512045 0)
(-0.00196638 -0.0570066 0)
(-0.00128277 -0.0355044 0)
(-0.00104834 0.00860888 0)
(-0.00587844 0.0132093 0)
(-0.0102618 0.0120882 0)
(-0.0138602 0.00946693 0)
(-0.0166619 0.00682155 0)
(-0.0187878 0.00451919 0)
(-0.0200914 0.00281052 0)
(-0.0200304 0.00208112 0)
(-0.0176774 0.00265372 0)
(-0.0120827 0.00456127 0)
(-0.00220278 0.00747235 0)
(0.0124152 0.00894415 0)
(0.025565 0.00850914 0)
(0.039229 0.00750756 0)
(0.0523466 0.00606357 0)
(0.063993 0.00417788 0)
(0.0718722 0.00232326 0)
(0.0756223 0.000886133 0)
(0.0764002 -0.000244163 0)
(0.0751094 -0.00119828 0)
(0.0724646 -0.00210461 0)
(0.068836 -0.00310589 0)
(0.0643605 -0.00433815 0)
(0.0590459 -0.00593476 0)
(0.0528408 -0.00805153 0)
(0.045683 -0.0109185 0)
(0.0375407 -0.0149265 0)
(0.0284666 -0.0207514 0)
(0.018715 -0.029418 0)
(0.0089687 -0.0414955 0)
(0.000104195 -0.0521452 0)
(-0.00135507 -0.0386743 0)
(-0.00142779 0.0142782 0)
(-0.00557969 0.0181159 0)
(-0.00662612 0.0149643 0)
(-0.00624251 0.011189 0)
(-0.00537864 0.00795217 0)
(-0.00452132 0.00526411 0)
(-0.00384534 0.0031388 0)
(-0.00327405 0.00171806 0)
(-0.0021838 0.00121441 0)
(0.00074207 0.00175057 0)
(0.00782521 0.00331759 0)
(0.0199175 0.00447346 0)
(0.0328865 0.00466347 0)
(0.0466422 0.00421162 0)
(0.0599941 0.00339087 0)
(0.0717801 0.00228619 0)
(0.0796439 0.00121378 0)
(0.0833582 0.000400654 0)
(0.0841871 -0.000217505 0)
(0.0830829 -0.000721764 0)
(0.0807534 -0.00119971 0)
(0.0775347 -0.0017395 0)
(0.0735331 -0.00241955 0)
(0.0687333 -0.00331598 0)
(0.0630576 -0.00452601 0)
(0.0563881 -0.00621653 0)
(0.0485697 -0.00871741 0)
(0.039428 -0.0126835 0)
(0.028883 -0.0193035 0)
(0.0171849 -0.0300769 0)
(0.00482328 -0.0434664 0)
(-5.60236e-05 -0.0396991 0)
(-0.000908222 0.0190887 0)
(-0.0020928 0.0191459 0)
(0.00442771 0.0131444 0)
(0.0111395 0.00922388 0)
(0.0168731 0.0063751 0)
(0.0215653 0.00417274 0)
(0.0251954 0.00253503 0)
(0.0277508 0.00141475 0)
(0.0295191 0.00079117 0)
(0.031328 0.000628528 0)
(0.0348711 0.000958131 0)
(0.0421346 0.00144387 0)
(0.0518741 0.00168919 0)
(0.0628629 0.00157568 0)
(0.0736576 0.00125489 0)
(0.0829616 0.00080404 0)
(0.0888437 0.000374421 0)
(0.0913263 5.81517e-05 0)
(0.0915604 -0.000169791 0)
(0.090415 -0.000348422 0)
(0.0884351 -0.000522152 0)
(0.0858404 -0.000730495 0)
(0.0826696 -0.0010052 0)
(0.0788775 -0.00137646 0)
(0.0743749 -0.00188773 0)
(0.0690225 -0.00262787 0)
(0.0625856 -0.00380303 0)
(0.0546602 -0.00588495 0)
(0.0446054 -0.00987259 0)
(0.0315964 -0.0175003 0)
(0.0155326 -0.0296562 0)
(0.00633983 -0.0334007 0)
(0.0209658 0.0116372 0)
(0.0278491 0.00966323 0)
(0.0413493 0.00571913 0)
(0.0521931 0.00345781 0)
(0.0599108 0.00211125 0)
(0.0654398 0.00123474 0)
(0.0692766 0.000678547 0)
(0.0717403 0.000349823 0)
(0.0732338 0.000176748 0)
(0.0743194 9.73966e-05 0)
(0.0757688 8.69597e-05 0)
(0.0785058 0.000113821 0)
(0.0825112 0.000139973 0)
(0.087175 0.000124779 0)
(0.0916792 8.97701e-05 0)
(0.095327 4.28786e-05 0)
(0.09735 1.78227e-06 0)
(0.097913 -2.63409e-05 0)
(0.0975909 -4.41589e-05 0)
(0.0967887 -5.78528e-05 0)
(0.0957071 -7.4657e-05 0)
(0.0943911 -9.96045e-05 0)
(0.092816 -0.000135942 0)
(0.0909338 -0.00018685 0)
(0.088683 -0.000258553 0)
(0.0859651 -0.000367429 0)
(0.0825759 -0.000558318 0)
(0.0780625 -0.000947131 0)
(0.0714301 -0.00181899 0)
(0.060612 -0.00392555 0)
(0.043162 -0.00913694 0)
(0.0285682 -0.0144933 0)
)
;

boundaryField
{
    movingWall
    {
        type            fixedValue;
        value           uniform (0.1 0 0);
    }
    fixedWalls
    {
        type            noSlip;
    }
    floor
    {
        type            noSlip;
    }
    frontAndBack
    {
        type            empty;
    }
}


// ************************************************************************* //
