/*--------------------------------*- C++ -*----------------------------------*\
| =========                 |                                                 |
| \\      /  F ield         | OpenFOAM: The Open Source CFD Toolbox           |
|  \\    /   O peration     | Version:  2212                                  |
|   \\  /    A nd           | Website:  www.openfoam.com                      |
|    \\/     M anipulation  |                                                 |
\*---------------------------------------------------------------------------*/
FoamFile
{
    version     2.0;
    format      ascii;
    arch        "LSB;label=64;scalar=64";
    class       volScalarField;
    location    "2000";
    object      epsilon;
}
// * * * * * * * * * * * * * * * * * * * * * * * * * * * * * * * * * * * * * //

dimensions      [0 2 -3 0 0 0 0];

internalField   nonuniform List<scalar> 
125000
(
1.23726249283
1.26431581851
1.23726246298
0.448403515188
1.2706951438
1.26431574839
0.480594962197
1.23726246307
0.448403515044
0.240348576844
1.26858247843
1.27069512244
0.489487770822
1.26431574632
0.480594966377
0.255256033052
1.23726246297
0.448403514869
0.240348581546
0.160234931822
1.26274228903
1.26858246497
0.491682618377
1.27069512514
0.489487778995
0.262042169086
1.26431574848
0.480594966044
0.255256040774
0.165985992527
1.23726249282
0.448403515074
0.240348581315
0.160234935463
0.1188705287
1.2547229353
1.26274226885
0.491661412735
1.26858246726
0.491682618565
0.265069824183
1.27069512243
0.489487779252
0.262042177078
0.169692212983
1.26431581857
0.480594966376
0.255256040636
0.165985994168
0.12094780946
0.448403515207
0.24034858156
0.160234935361
0.118870529885
0.0933805935924
1.24773256785
1.25472291074
0.49120041432
1.2627422695
0.491661409274
0.266283112798
1.26858246488
0.491682618363
0.265069827867
0.171875460717
1.27069514396
0.489487778955
0.262042177143
0.169692216381
0.122719905839
0.480594962253
0.255256040763
0.165985994042
0.120947809298
0.0941060233547
0.240348576862
0.160234935468
0.118870529858
0.093380594297
0.0759437804846
1.24225663463
1.2477325428
0.490631589067
1.254722912
0.491200408422
0.266798721481
1.26274226905
0.491661409088
0.266283113949
0.173029071532
1.26858247833
0.491682618582
0.265069827582
0.171875463199
0.123989734367
0.489487770758
0.262042177069
0.169692216396
0.122719906782
0.0949158084136
0.255256033055
0.165985994163
0.120947809191
0.0941060228929
0.0762230950035
0.160234931831
0.118870529887
0.0933805942888
0.0759437810767
0.0632555187612
1.23803811123
1.24225660526
0.490348318483
1.24773254514
0.490631581284
0.267093968473
1.25472291079
0.491200408549
0.266798721416
0.173622039824
1.26274228894
0.491661409339
0.266283113719
0.173029073126
0.12478472035
0.491682618344
0.265069827886
0.171875463033
0.123989735266
0.095584808057
0.262042169053
0.169692216381
0.122719906775
0.0949158085271
0.0765871072996
0.165985992522
0.120947809296
0.0941060228234
0.0762230948994
0.063377555353
0.118870528701
0.0933805942973
0.0759437810773
0.06325551982
0.0536225785043
1.23472268736
1.23803806969
0.4902045538
1.24225660767
0.49034830517
0.267409294786
1.24773254256
0.49063158164
0.267093966067
0.1739654091
1.25472293594
0.491200408364
0.266798721351
0.173622040742
0.125234559483
0.491661412815
0.266283113975
0.173029072961
0.124784721095
0.0960631595383
0.265069824189
0.171875463206
0.123989735173
0.0955848081365
0.0769231184999
0.169692212976
0.122719906783
0.0949158085184
0.076587107291
0.0635481420914
0.120947809459
0.0941060228928
0.0762230948558
0.0633775550626
0.0536811868863
0.0933805935926
0.0759437810767
0.0632555198378
0.053622579464
0.046074197116
1.23214497565
1.23472264954
0.490100271785
1.23803807091
0.490204539444
0.267754774572
1.24225660493
0.490348304958
0.267409289808
0.174247978085
1.24773256768
0.490631581123
0.267093965941
0.173965408654
0.125485974298
0.491200414473
0.26679872137
0.173622040628
0.125234560012
0.096355802554
0.266283112871
0.173029073132
0.124784720986
0.0960631596174
0.0771926433626
0.171875460725
0.123989735267
0.0955848080791
0.076923118338
0.0637163254397
0.122719905839
0.0949158085276
0.0765871072847
0.0635481420059
0.0537670776733
0.0941060233547
0.0762230948996
0.0633775550255
0.0536811866716
0.0461055070011
0.0759437804846
0.06325551982
0.0536225794863
0.0460741978595
0.0400135395781
1.2300202061
1.23214494566
0.490035034791
1.23472265049
0.490100260925
0.268121602151
1.23803806996
0.490204539063
0.267754769657
0.174526345777
1.24225663405
0.490348305226
0.267409289408
0.174247976523
0.125657239551
0.490631588746
0.267093966034
0.173965408464
0.125485974255
0.096516662505
0.266798721486
0.173622040723
0.125234559904
0.0963558026128
0.0773694051262
0.173029071557
0.124784721097
0.0960631595434
0.0771926431575
0.063865146387
0.123989734371
0.0955848081365
0.0769231182986
0.0637163252374
0.05385457453
0.0949158084145
0.0765871072911
0.0635481419989
0.0537670775748
0.0461513630116
0.0762230950037
0.0633775550628
0.0536811866421
0.0461055068471
0.0400322544511
0.0632555187611
0.0536225794639
0.0460741978816
0.0400135401239
0.0350522399887
1.22824919493
1.23002016129
0.489944099804
1.2321449484
0.490035020802
0.268474125473
1.23472264969
0.490100261078
0.268121597213
0.174826166494
1.23803811083
0.490204539551
0.26775476932
0.174526343964
0.125804250823
0.49034831838
0.267409289852
0.174247976226
0.125657239049
0.096605021193
0.267093968351
0.173965408653
0.125485974095
0.0965166623794
0.0774679310055
0.173622039812
0.125234560005
0.0963558025239
0.0773694049198
0.0639696166553
0.124784720358
0.0960631596177
0.0771926431052
0.0638651461162
0.0539376987877
0.0955848080575
0.0769231183376
0.0637163252076
0.0538545743413
0.0461997226639
0.0765871073002
0.0635481420058
0.0537670775673
0.0461513629101
0.0400579691701
0.0633775553533
0.0536811866718
0.046105506823
0.0400322543355
0.0350644932628
0.0536225785042
0.0460741978595
0.040013540144
0.035052240379
0.030926252453
1.22672504166
1.22824915238
0.48983848152
1.23002016186
0.489944082059
0.268794625263
1.23214494517
0.490035020843
0.26847411871
0.175134577526
1.23472268836
0.490100260785
0.268121596964
0.174826163981
0.125960554935
0.490204554006
0.267754769656
0.174526343689
0.12580425002
0.0966605938686
0.26740929483
0.174247976536
0.125657238839
0.0966050208947
0.0775087456455
0.173965409069
0.125485974257
0.0965166622565
0.0774679307529
0.064031474953
0.125234559476
0.0963558026109
0.0773694048474
0.0639696163547
0.0540002685831
0.0960631595405
0.0771926431577
0.063865146077
0.0539376985337
0.0462474890224
0.0769231184996
0.0637163252371
0.0538545743168
0.0461997224931
0.0400861033789
0.0635481420916
0.0537670775747
0.0461513629014
0.0400579690661
0.035079753825
0.0536811868865
0.0461055068472
0.0400322543154
0.0350644931786
0.0309347138998
0.046074197116
0.0400135401239
0.0350522403964
0.0309262527255
0.0274496351445
1.22538684297
1.22672501877
0.489709971531
1.22824915188
0.489838470987
0.269086677862
1.23002016166
0.489944081144
0.268794618312
0.175438532552
1.23214497472
0.49003502077
0.268474118242
0.175134574289
0.126133188069
0.490100271791
0.268121597159
0.174826163645
0.125960553617
0.0967127598983
0.267754774636
0.174526343952
0.125804249792
0.0966605933453
0.0775172725963
0.174247978113
0.12565723905
0.0966050207404
0.0775087453244
0.0640479697666
0.125485974293
0.0965166623803
0.0774679306589
0.0640314746412
0.0540414711029
0.0963558025514
0.0773694049194
0.0639696162938
0.0540002682816
0.0462861291404
0.0771926433632
0.0638651461164
0.053937698502
0.0462474888023
0.0401145707369
0.0637163254392
0.0538545743411
0.0461997224718
0.0400861032241
0.0350966788605
0.0537670776733
0.04615136291
0.0400579690557
0.0350797537247
0.030944383824
0.0461055070013
0.0400322543356
0.0350644931617
0.0309347138445
0.027455623456
0.0400135395781
0.035052240379
0.0309262527401
0.0274496353287
0.0244876301011
1.22418591953
1.22538679865
0.48956065136
1.22672502156
0.489709959077
0.269339098396
1.22824915274
0.489838471048
0.269086672682
0.175737815736
1.2300202058
0.48994408229
0.268794617681
0.175438529384
0.126316631865
0.490035034358
0.268474118736
0.175134573842
0.126133186467
0.0967755210437
0.268121602063
0.174826163971
0.125960553319
0.0967127591205
0.0775159590713
0.174526345777
0.125804250013
0.096660593155
0.0775172721337
0.0640410297161
0.12565723956
0.0966050208933
0.0775087452027
0.0640479693998
0.0540495967909
0.0965166625048
0.077467930753
0.0640314745683
0.0540414707884
0.0463147952394
0.0773694051257
0.0639696163547
0.0540002682291
0.0462861288721
0.0401392102827
0.0638651463871
0.0539376985338
0.0462474887745
0.0401145705471
0.0351142003306
0.0538545745297
0.046199722493
0.0400861032052
0.0350966787231
0.030954891669
0.0461513630116
0.040057969066
0.0350797537126
0.0309443837353
0.0274621239686
0.0400322544512
0.0350644931786
0.0309347138304
0.0274556234269
0.0244919241375
0.0350522399887
0.0309262527255
0.0274496353407
0.0244876302199
0.021940195238
1.22311260118
1.22418586632
0.489395081899
1.22538679928
0.489560630945
0.269552336126
1.22672501791
0.489709959334
0.269339090952
0.176018809313
1.22824919641
0.489838470801
0.269086672395
0.175737812542
0.126510972897
0.489944100268
0.268794618351
0.17543852891
0.12631663019
0.0968500375506
0.268474125414
0.175134574304
0.126133186114
0.0967755201429
0.0775155732603
0.174826166457
0.125960553618
0.0967127588832
0.0775159585285
0.0640216170048
0.125804250813
0.0966605933434
0.0775172719745
0.0640410293008
0.0540416496099
0.0966050211933
0.0775087453231
0.0640479692928
0.0540495964278
0.0463227435553
0.0774679310059
0.064031474641
0.0540414707286
0.0463147949524
0.0401591768969
0.0639696166554
0.0540002682817
0.0462861288262
0.0401392100547
0.0351302889647
0.0539376987877
0.0462474888024
0.040114570521
0.035114200169
0.0309658924966
0.0461997226637
0.0400861032241
0.0350966787058
0.0309548915528
0.0274689165005
0.0400579691701
0.0350797537247
0.0309443837222
0.0274621238971
0.0244964776123
0.0350644932628
0.0309347138446
0.0274556234152
0.0244919241308
0.0219433123377
0.030926252453
0.0274496353287
0.0244876302293
0.021940195309
0.0197315098666
1.22213784968
1.22311258488
0.489224428633
1.22418586285
0.489395068514
0.26972971297
1.22538679887
0.489560629675
0.269552327769
0.176280819206
1.22672504098
0.489709958933
0.269339090395
0.176018805336
0.126707878469
0.489838481644
0.269086672596
0.175737812094
0.126510970953
0.0969379273131
0.268794625434
0.175438529381
0.126316629808
0.0968500365299
0.0775200954474
0.175134577532
0.126133186471
0.0967755198669
0.0775155726292
0.0639923993174
0.125960554927
0.0967127591234
0.0775159583458
0.0640216165353
0.0540211187338
0.0966605938624
0.0775172721333
0.0640410291769
0.0540416492189
0.0463176410832
0.0775087456438
0.0640479693988
0.0540495963354
0.0463227432253
0.0401688229037
0.0640314749533
0.0540414707882
0.0463147949001
0.0401591766488
0.0351440063899
0.0540002685834
0.0462861288722
0.040139210014
0.0351302887757
0.0309765332637
0.0462474890224
0.0401145705472
0.0351142001441
0.0309658923644
0.0274759474095
0.0400861033787
0.0350966787231
0.0309548915365
0.0274689164088
0.0245010655619
0.035079753825
0.0309443837353
0.0274621238837
0.0244964775606
0.0219465825067
0.0309347138998
0.0274556234269
0.0244919241213
0.0219433123492
0.0197338042397
0.0274496351445
0.0244876302199
0.0219401953161
0.0197315099037
0.0178030620679
1.22125103144
1.22213780993
0.489046187322
1.22311258757
0.489224421984
0.269878967147
1.22418586733
0.489395067661
0.269729707485
0.176520945329
1.2253868411
0.489560631285
0.269552326885
0.176280815314
0.126903772855
0.489709970853
0.269339090977
0.176018804745
0.126707876352
0.0970381076724
0.269086677759
0.175737812524
0.126510970524
0.0969379261086
0.0775335217265
0.175438532586
0.126316630185
0.0968500362211
0.077520094768
0.0639637978311
0.126133188077
0.0967755201431
0.077515572404
0.0639923988224
0.0539872834209
0.0967127598997
0.0775159585301
0.0640216163828
0.0540211183215
0.0463032895417
0.0775172725927
0.0640410293008
0.0540416491139
0.0463176407329
0.0401670119576
0.064047969765
0.0540495964273
0.0463227431448
0.0401688226204
0.0351537633167
0.054041471103
0.0463147949521
0.0401591766008
0.0351440061823
0.0309859640413
0.0462861291407
0.0401392100547
0.0351302887392
0.030976533112
0.0274829975758
0.0401145707369
0.0351142001691
0.030965892341
0.0274759473082
0.0245056849272
0.0350966788605
0.0309548915528
0.0274689163936
0.0245010654959
0.0219497989272
0.030944383824
0.0274621238971
0.0244964775474
0.0219465824749
0.0197361914405
0.027455623456
0.0244919241308
0.0219433123417
0.0197338042651
0.0178047747677
0.0244876301011
0.021940195309
0.0197315099089
0.0178030620819
0.0161089711959
1.22043851542
1.22125098601
0.488866427628
1.22213780999
0.48904616717
0.270000132246
1.22311258377
0.489224422857
0.269878961623
0.176741063739
1.22418592241
0.489395068524
0.269729706949
0.176520942082
0.127095688746
0.489560651619
0.269552327861
0.176280814675
0.126903770731
0.0971466855393
0.269339098263
0.176018805357
0.126707875862
0.0970381064582
0.0775608617288
0.175737815691
0.126510970953
0.0969379257504
0.077533520914
0.0639390453189
0.126316631865
0.0968500365283
0.077520094524
0.0639637972764
0.0539495175237
0.0967755210469
0.0775155726286
0.0639923986437
0.0539872829964
0.0462761652367
0.0775159590734
0.0640216165365
0.0540211181944
0.0463032891839
0.0401594006272
0.0640410297141
0.0540416492192
0.0463176406419
0.0401670116587
0.0351551697197
0.0540495967896
0.0463227432249
0.0401688225506
0.0351537630863
0.0309938933225
0.0463147952393
0.0401591766486
0.0351440061366
0.0309859638747
0.0274895060511
0.0401392102829
0.0351302887757
0.0309765330791
0.027482997461
0.0245103555039
0.0351142003306
0.0309658923644
0.0274759472866
0.0245056848569
0.0219529430707
0.030954891669
0.0274689164088
0.0245010654819
0.0219497988859
0.0197385076525
0.0274621239686
0.0244964775606
0.0219465824625
0.0197361914268
0.0178065407307
0.0244919241375
0.0219433123492
0.0197338042594
0.0178047748028
0.0161102657624
0.021940195238
0.0197315099037
0.0178030620854
0.016108971195
0.0146127489296
1.2196894658
1.22043847289
0.488685354458
1.22125098372
0.488866410027
0.270099107534
1.22213780993
0.489046165966
0.270000122375
0.176939281896
1.22311260079
0.489224421545
0.269878961321
0.17674106
0.127281110778
0.489395082717
0.269729707419
0.176520941516
0.127095686658
0.0972619961752
0.269552336324
0.176280815328
0.126903770216
0.0971466842355
0.0775983494778
0.176018809315
0.126707876357
0.0970381060661
0.0775608609375
0.0639224584917
0.12651097289
0.0969379261118
0.0775335206265
0.0639390447282
0.0539110093677
0.0968500375462
0.0775200947668
0.0639637970692
0.0539495170594
0.0462424662687
0.0775155732617
0.0639923988215
0.0539872828486
0.0462761648676
0.0401426289131
0.0640216170077
0.0540211183221
0.0463032890759
0.0401594003211
0.0351522789442
0.054041649609
0.0463176407332
0.0401670115786
0.035155169471
0.0309979701897
0.0463227435543
0.0401688226202
0.0351537630285
0.0309938931429
0.0274953501119
0.0401591768968
0.0351440061822
0.0309859638323
0.0274895059254
0.0245148373303
0.0351302889648
0.030976533112
0.0274829974315
0.0245103554251
0.0219560731068
0.0309658924966
0.0274759473082
0.0245056848375
0.0219529430294
0.0197407213654
0.0274689165005
0.0245010654959
0.0219497988734
0.0197385076332
0.017808240705
0.0244964776123
0.0219465824749
0.0197361914156
0.0178065407326
0.0161115882695
0.0219433123377
0.0197338042651
0.0178047747988
0.0161102658033
0.0146137375598
0.0197315098666
0.0178030620819
0.0161089711971
0.0146127489198
0.0132850093077
1.21900234535
1.21968945006
0.488505443671
1.22043846992
0.488685346224
0.270178093817
1.22125098649
0.488866408254
0.270099101327
0.177118262973
1.22213784779
0.489046167441
0.270000121195
0.176939277126
0.127456956588
0.48922442782
0.269878961529
0.176741059408
0.127281108466
0.0973807207266
0.269729713082
0.176520942054
0.127095686117
0.0972619948117
0.0776462732125
0.176280819258
0.12690377073
0.0971466838088
0.077598348598
0.0639141925551
0.126707878479
0.097038106457
0.0775608606178
0.0639224579178
0.0538754732487
0.0969379273175
0.0775335209169
0.0639390444912
0.0539110088992
0.046204955013
0.0775200954441
0.0639637972767
0.053949516885
0.0462424658775
0.0401179519496
0.0639923993169
0.0539872829958
0.0462761647412
0.0401426286036
0.0351442056472
0.0540211187359
0.046303289184
0.0401594002277
0.0351522786949
0.0309975716888
0.0463176410829
0.040167011659
0.0351551693956
0.0309979699958
0.02749977529
0.0401688229031
0.0351537630863
0.0309938930925
0.0274953499797
0.0245189974674
0.0351440063898
0.0309859638747
0.0274895058872
0.024514837244
0.0219591396188
0.0309765332638
0.027482997461
0.024510355399
0.0219560730615
0.0197428707422
0.0274759474095
0.0245056848569
0.0219529430126
0.0197407213497
0.0178098416512
0.0245010655619
0.0219497988859
0.0197385076223
0.0178082407043
0.0161128546611
0.0219465825067
0.0197361914268
0.0178065407229
0.0161115882836
0.0146147391868
0.0197338042397
0.0178047748028
0.0161102658009
0.0146137376034
0.0132857705787
0.0178030620679
0.016108971195
0.0146127489209
0.0132850092934
0.0121018185552
1.21836747506
1.21900230661
0.488330261638
1.21968945142
0.488505432347
0.270240199957
1.22043847327
0.488685346142
0.270178088862
0.177278995867
1.22125103204
0.488866410261
0.27009910047
0.177118259921
0.127623805876
0.489046186896
0.270000122526
0.176939276236
0.127456954126
0.0974998398208
0.269878966809
0.176741059989
0.127281107878
0.0973807192997
0.0777012311385
0.176520945329
0.127095686652
0.0972619943411
0.0776462722888
0.0639157798995
0.12690377286
0.0971466842344
0.0775983482413
0.0639141919208
0.053844130108
0.0970381076747
0.0775608609353
0.0639224576602
0.0538754727925
0.0461665689148
0.0775335217301
0.0639390447293
0.053911008702
0.0462049546273
0.0400882894926
0.06396379783
0.0539495170599
0.0462424657292
0.0401179516258
0.0351290282077
0.0539872834199
0.0462761648672
0.0401426284937
0.0351442053959
0.0309946429354
0.046303289543
0.0401594003214
0.0351522786129
0.0309975714945
0.0275015368521
0.0401670119575
0.0351551694712
0.0309979699294
0.0274997751497
0.0245226364734
0.0351537633165
0.0309938931429
0.0274953499346
0.0245189973788
0.0219620621476
0.0309859640412
0.0274895059254
0.0245148372108
0.0219591395692
0.0197449724607
0.0274829975758
0.0245103554251
0.0219560730391
0.0197428707263
0.0178113609157
0.0245056849272
0.0219529430294
0.0197407213357
0.0178098416566
0.0161140359796
0.0219497989273
0.0197385076332
0.0178082406952
0.0161128546749
0.0146156947222
0.0197361914405
0.0178065407326
0.0161115882757
0.0146147392098
0.0132865367561
0.0178047747677
0.0161102658033
0.0146137376022
0.0132857706221
0.0121024087184
0.0161089711959
0.0146127489198
0.0132850092938
0.0121018185394
0.011043485187
1.21777875514
1.21836742414
0.488158420456
1.21900230608
0.488330243191
0.270289230204
1.21968944902
0.488505432179
0.270240191774
0.177422977723
1.22043851696
0.488685345947
0.270178088435
0.177278992151
0.127780639491
0.488866428622
0.27009910131
0.177118259265
0.127623803958
0.0976186912038
0.270000132332
0.176939277177
0.127456953445
0.0974998384183
0.0777622452021
0.176741063637
0.127281108468
0.0973807187946
0.0777012302201
0.063922976909
0.127095688743
0.097261994812
0.0776462718954
0.0639157792366
0.0538192355191
0.0971466855357
0.0775983485977
0.0639141916218
0.0538441296146
0.0461288507863
0.0775608617296
0.063922457916
0.053875472577
0.0461665685389
0.0400555738732
0.0639390453223
0.0539110088995
0.0462049544609
0.0400882891755
0.0351088770175
0.0539495175236
0.046242465878
0.0401179514985
0.0351290279482
0.0309874843131
0.0462761652358
0.0401426286031
0.0351442053018
0.0309946427426
0.0275009527591
0.0401594006283
0.035152278695
0.0309975714222
0.0275015367104
0.0245251882419
0.0351551697198
0.0309979699959
0.0274997750948
0.024522636382
0.021964774613
0.0309938933224
0.0274953499797
0.0245189973392
0.0219620620984
0.0197470088436
0.0274895060511
0.024514837244
0.0219591395413
0.0197449724436
0.0178128229332
0.0245103555038
0.0219560730615
0.0197428707078
0.0178113609239
0.0161151382181
0.0219529430707
0.0197407213497
0.0178098416455
0.0161140360014
0.01461658044
0.0197385076525
0.0178082407043
0.0161128546676
0.0146156947464
0.0132872659184
0.0178065407307
0.0161115882836
0.0146147392036
0.0132865367848
0.0121029998019
0.0161102657623
0.0146137376034
0.013285770622
0.0121024087597
0.0110439452723
0.0146127489296
0.0132850092934
0.0121018185393
0.0110434851717
0.0100936590021
1.21722998543
1.21777875274
0.487990424707
1.21836741781
0.488158411675
0.27032599042
1.21900230662
0.488330241393
0.270289223221
0.177552468465
1.21968946551
0.488505432189
0.270240190747
0.177422973234
0.127927463186
0.488685354427
0.270178088758
0.177278991455
0.127780637005
0.0977355642574
0.270099107831
0.177118259885
0.127623803357
0.0976186898925
0.0778281040507
0.176939281983
0.127456954138
0.0974998378729
0.0777622443168
0.0639387497658
0.12728111076
0.0973807193012
0.0777012298032
0.0639229762698
0.0537994640656
0.097261996176
0.0776462722903
0.0639157789156
0.0538192350247
0.0460938838282
0.0775983494746
0.0639141919205
0.0538441293687
0.0461288503925
0.0400211739421
0.0639224584899
0.0538754727913
0.0461665683558
0.0400555735646
0.0350849131414
0.0539110093697
0.0462049546273
0.0400882890338
0.035108876764
0.0309755677913
0.0462424662689
0.040117951626
0.0351290278391
0.0309874841139
0.0274984481208
0.0401426289122
0.0351442053956
0.030994642662
0.0275009526193
0.0245261123618
0.0351522789448
0.0309975714946
0.0275015366452
0.024525188149
0.0219670769211
0.0309979701898
0.0274997751497
0.0245226363356
0.0219647745644
0.0197489552449
0.0274953501119
0.0245189973788
0.0219620620651
0.0197470088287
0.0178142405673
0.0245148373303
0.0219591395693
0.0197449724208
0.0178128229428
0.0161161786259
0.0219560731068
0.0197428707263
0.0178113609093
0.0161151382447
0.0146173971686
0.0197407213654
0.0178098416566
0.0161140359931
0.0146165804734
0.0132879391212
0.017808240705
0.0161128546749
0.014615694741
0.0132872659493
0.0121035617132
0.0161115882695
0.0146147392098
0.0132865367803
0.0121029998335
0.0110444045714
0.0146137375598
0.0132857706221
0.0121024087604
0.01104394531
0.010094019385
0.0132850093077
0.0121018185394
0.0110434851713
0.0100936589883
0.0092386506493
1.21671885519
1.21722994545
0.48782651584
1.21777875524
0.487990420196
0.270352597838
1.21836742503
0.488158410625
0.270325987217
0.177667979115
1.21900234217
0.488330243419
0.270289222136
0.177552465264
0.128064804629
0.488505442947
0.270240191838
0.177422972291
0.127927460796
0.0978498410523
0.270178093566
0.177278992141
0.1277806363
0.0977355626943
0.0778974119466
0.177118263009
0.127623803939
0.0976186893514
0.0778281031309
0.0639610679043
0.127456956623
0.0974998384185
0.0777622438692
0.063938749165
0.0537862428323
0.0973807207264
0.0777012302202
0.063922975927
0.0537994635995
0.0460618782607
0.0776462732154
0.063915779238
0.0538192347547
0.0460938834456
0.0399867197428
0.0639141925522
0.0538441296148
0.0461288501874
0.0400211736277
0.0350581186384
0.0538754732469
0.0461665685382
0.0400555734082
0.0350849128956
0.0309601108955
0.046204955014
0.0400882891755
0.0351088766427
0.0309755675982
0.0274928494818
0.0401179519498
0.0351290279484
0.0309874840199
0.0274984479807
0.0245256241097
0.0351442056466
0.0309946427425
0.0275009525495
0.024526112272
0.0219686761612
0.0309975716891
0.0275015367104
0.0245251880954
0.0219670768728
0.0197507433264
0.0274997752901
0.024522636382
0.0219647745258
0.0197489552326
0.0178156152278
0.0245189974674
0.0219620620984
0.0197470088019
0.0178142405808
0.0161171760758
0.0219591396188
0.0197449724436
0.0178128229252
0.0161161786561
0.0146181553042
0.0197428707422
0.0178113609239
0.016115138234
0.0146173972082
0.0132885547944
0.0178098416512
0.0161140360014
0.0146165804677
0.0132879391617
0.0121040795321
0.0161128546611
0.0146156947464
0.0132872659456
0.0121035617475
0.0110448412508
0.0146147391868
0.0132865367848
0.0121029998306
0.0110444046036
0.010094378456
0.0132857705787
0.0121024087597
0.0110439453113
0.0100940194183
0.00923893408794
0.0121018185552
0.0110434851717
0.0100936589877
0.00923865063751
0.00846691121738
1.21623918249
1.21671878128
0.487667484178
1.21722994414
0.487826487088
0.270370184984
1.21777875108
0.487990421138
0.270352591355
0.177771367392
1.2183674787
0.488158411482
0.270325986761
0.177667976409
0.128192277993
0.488330261849
0.270289223239
0.177552464472
0.128064802737
0.0979603290879
0.270240199905
0.17742297327
0.12792746003
0.0978498396869
0.077969094193
0.177278995762
0.127780637014
0.0977355620762
0.0778974109647
0.0639894853803
0.127623805859
0.0976186898863
0.0778281026619
0.0639610672473
0.0537783757088
0.0974998398306
0.0777622443149
0.0639387487938
0.0537862423843
0.0460340065174
0.0777012311402
0.06392297627
0.053799463315
0.0460618779034
0.0399529712377
0.0639157799011
0.0538192350256
0.04609388322
0.0399867194432
0.0350296197885
0.0538441301068
0.0461288503928
0.0400211734547
0.0350581183935
0.0309416459343
0.0461665689136
0.0400555735642
0.0350849127621
0.0309601107097
0.0274841143971
0.040088289493
0.035108876764
0.0309755674946
0.0274928493458
0.024523772363
0.0351290282078
0.030987484114
0.027498447903
0.0245256240219
0.0219692722794
0.0309946429351
0.0275009526193
0.0245261122106
0.0219686761152
0.0197522595772
0.0275015368522
0.0245251881489
0.021967076829
0.0197507433164
0.0178169245192
0.0245226364734
0.0219647745644
0.0197489552017
0.0178156152452
0.016118143347
0.0219620621476
0.0197470088287
0.0178142405603
0.0161171761112
0.0146188704472
0.0197449724607
0.0178128229429
0.0161161786433
0.0146181553487
0.0132891190427
0.0178113609157
0.0161151382447
0.014617397201
0.0132885548418
0.0121045505165
0.0161140359796
0.0146165804734
0.0132879391584
0.0121040795758
0.0110452436835
0.0146156947222
0.0132872659493
0.0121035617453
0.0110448412858
0.0100947202379
0.0132865367561
0.0121029998335
0.011044404602
0.0100943784869
0.00923921624394
0.0121024087184
0.01104394531
0.01009401942
0.00923893411666
0.00846713493264
0.011043485187
0.0100936589883
0.00923865063691
0.00846691120772
0.00776862958909
1.21579250675
1.21623916225
0.487513248208
1.21671877096
0.487667465584
0.270380537053
1.21722994561
0.487826483749
0.270370172868
0.177863390331
1.21777875398
0.48799041972
0.270352590682
0.177771363035
0.128310893296
0.488158421431
0.270325987048
0.177667975747
0.128192275921
0.0980665141732
0.270289230421
0.177552465238
0.128064802039
0.0979603278332
0.0780415072749
0.177422977789
0.127927460805
0.0978498390583
0.0779690933487
0.0640221623931
0.127780639468
0.0977355627019
0.077897410447
0.0639894847448
0.0537777735251
0.0976186911886
0.0778281031301
0.0639610668508
0.0537783752282
0.0460098898645
0.0777622452024
0.0639387491627
0.0537862420758
0.0460340061727
0.0399209929054
0.0639229769118
0.053799463599
0.0460618776652
0.0399529709598
0.0350001996583
0.053819235521
0.0460938834461
0.0399867192541
0.0350296195582
0.0309208361506
0.0461288507858
0.0400211736279
0.0350581182471
0.030941645753
0.0274727800806
0.0400555738724
0.0350849128955
0.0309601105962
0.0274841142679
0.0245197689374
0.0351088770177
0.0309755675982
0.027492849258
0.0245237722792
0.0219689554374
0.0309874843132
0.0274984479807
0.0245256239568
0.0219692722389
0.0197533306814
0.027500952759
0.024526112272
0.0219686760661
0.0197522595702
0.0178181289249
0.0245251882419
0.0219670768728
0.0197507432816
0.0178169245401
0.016119079469
0.021964774613
0.0197489552326
0.0178156152218
0.0161181433871
0.0146195569167
0.0197470088436
0.0178142405808
0.0161171760966
0.0146188704978
0.013289642942
0.0178128229332
0.0161161786561
0.0146181553404
0.0132891190959
0.0121049781595
0.0161151382181
0.0146173972082
0.0132885548378
0.0121045505674
0.0110456086374
0.01461658044
0.0132879391617
0.0121040795745
0.0110452437274
0.0100950357469
0.0132872659184
0.0121035617475
0.0110448412849
0.0100947202716
0.0092394853578
0.0121029998019
0.0110444046036
0.0100943784864
0.00923921627251
0.0084673576093
0.0110439452723
0.0100940194183
0.00923893411846
0.00846713495681
0.00776880672041
0.0100936590021
0.00923865063751
0.00846691120714
0.00776862958142
0.00713541758872
1.21537240737
1.21579251417
0.487364736964
1.21623915817
0.487513254702
0.27038423064
1.21671878336
0.487667462056
0.2703805323
0.177945517012
1.21722998125
0.487826487839
0.270370170843
0.177863385428
0.128420719624
0.487990423013
0.270352591337
0.177771362111
0.128310890818
0.0981685292561
0.270325990364
0.177667976356
0.128192275199
0.0980665127652
0.0781141466251
0.177552468503
0.12806480272
0.0979603272106
0.0780415064165
0.064058070019
0.127927463226
0.0978498396861
0.0779690928263
0.0640221618391
0.0537805169977
0.0977355642593
0.0778974109685
0.0639894843159
0.0537777730845
0.0459907360392
0.0778281040432
0.0639610672481
0.0537783748977
0.0460098895088
0.0398910242638
0.0639387497623
0.0537862423833
0.0460340059152
0.039920992639
0.0349707298275
0.0537994640664
0.0460618779028
0.0399529707597
0.035000199446
0.0308982623516
0.0460938838295
0.0399867194435
0.0350296193997
0.0309208359823
0.0274591556367
0.040021173942
0.0350581183936
0.0309416456297
0.0274727799576
0.0245136553452
0.035084913141
0.0309601107096
0.0274841141727
0.0245197688606
0.0219677276407
0.0309755677914
0.0274928493458
0.0245237722084
0.0219689554002
0.0197537985563
0.0274984481207
0.0245256240219
0.0219692721842
0.0197533306787
0.0178191609301
0.0245261123618
0.0219686761152
0.0197522595319
0.0178181289498
0.0161199721036
0.0219670769211
0.0197507433164
0.0178169245141
0.0161190795134
0.0146202216561
0.0197489552449
0.0178156152452
0.0161181433708
0.0146195569728
0.0132901384157
0.0178142405673
0.0161171761112
0.0146188704885
0.0132896430016
0.0121053700091
0.0161161786259
0.0146181553487
0.0132891190914
0.0121049782165
0.0110459379078
0.0146173971686
0.0132885548418
0.0121045505661
0.0110456086883
0.010095321698
0.0132879391212
0.0121040795758
0.0110452437277
0.0100950357887
0.00923973453144
0.0121035617132
0.0110448412858