/*--------------------------------*- C++ -*----------------------------------*\
| =========                 |                                                 |
| \\      /  F ield         | OpenFOAM: The Open Source CFD Toolbox           |
|  \\    /   O peration     | Version:  2212                                  |
|   \\  /    A nd           | Website:  www.openfoam.com                      |
|    \\/     M anipulation  |                                                 |
\*---------------------------------------------------------------------------*/
FoamFile
{
    version     2.0;
    format      ascii;
    arch        "LSB;label=64;scalar=64";
    class       volScalarField;
    location    "1700";
    object      p;
}
// * * * * * * * * * * * * * * * * * * * * * * * * * * * * * * * * * * * * * //

dimensions      [0 2 -2 0 0 0 0];

internalField   nonuniform List<scalar> 
1024
(
0
-6.08067e-07
-1.53504e-06
-2.28543e-06
-2.39095e-06
-1.54361e-06
3.24268e-07
3.05642e-06
6.36197e-06
9.97364e-06
1.38666e-05
1.84528e-05
2.47734e-05
3.44823e-05
4.95756e-05
7.03914e-05
8.80659e-05
8.53919e-05
5.44904e-05
8.21455e-07
-5.93055e-05
-0.00010793
-0.000139578
-0.000157827
-0.000167737
-0.000172888
-0.000175279
-0.000175887
-0.00017521
-0.000173714
-0.000172047
-0.000170974
-0.0928114
-0.092812
-0.0928128
-0.0928134
-0.0928135
-0.0928128
-0.0928112
-0.0928088
-0.0928058
-0.0928025
-0.0927988
-0.0927943
-0.0927882
-0.0927787
-0.092764
-0.0927439
-0.0927272
-0.0927308
-0.0927618
-0.0928148
-0.0928738
-0.0929211
-0.0929517
-0.0929692
-0.0929785
-0.0929833
-0.0929855
-0.092986
-0.0929855
-0.0929843
-0.0929829
-0.0929818
-0.199424
-0.199425
-0.199426
-0.199427
-0.199427
-0.199426
-0.199425
-0.199423
-0.199421
-0.199418
-0.199415
-0.19941
-0.199405
-0.199396
-0.199382
-0.199363
-0.199347
-0.199352
-0.199384
-0.199436
-0.199493
-0.199539
-0.199568
-0.199584
-0.199592
-0.199596
-0.199598
-0.199598
-0.199598
-0.199597
-0.199595
-0.199594
-0.321892
-0.321893
-0.321894
-0.321895
-0.321895
-0.321895
-0.321894
-0.321893
-0.321891
-0.321889
-0.321887
-0.321883
-0.321878
-0.32187
-0.321857
-0.32184
-0.321826
-0.321833
-0.321865
-0.321916
-0.321972
-0.322017
-0.322044
-0.322057
-0.322064
-0.322066
-0.322067
-0.322066
-0.322066
-0.322064
-0.322062
-0.322061
-0.462573
-0.462574
-0.462576
-0.462577
-0.462577
-0.462578
-0.462578
-0.462577
-0.462577
-0.462575
-0.462574
-0.462571
-0.462567
-0.462561
-0.462549
-0.462534
-0.462523
-0.462532
-0.462564
-0.462615
-0.46267
-0.462713
-0.462737
-0.462748
-0.462752
-0.462752
-0.462751
-0.462749
-0.462748
-0.462746
-0.462744
-0.462741
-0.624176
-0.624178
-0.62418
-0.624181
-0.624183
-0.624184
-0.624184
-0.624185
-0.624186
-0.624186
-0.624185
-0.624185
-0.624182
-0.624177
-0.624169
-0.624156
-0.624147
-0.624158
-0.624192
-0.624241
-0.624295
-0.624337
-0.624359
-0.624367
-0.624367
-0.624364
-0.62436
-0.624357
-0.624355
-0.624352
-0.62435
-0.624347
-0.809816
-0.809818
-0.80982
-0.809822
-0.809823
-0.809825
-0.809827
-0.809829
-0.809831
-0.809833
-0.809834
-0.809835
-0.809835
-0.809833
-0.809827
-0.809818
-0.809812
-0.809824
-0.809858
-0.809908
-0.80996
-0.81
-0.810021
-0.810024
-0.81002
-0.810014
-0.810008
-0.810003
-0.809999
-0.809996
-0.809994
-0.809991
-1.02307
-1.02307
-1.02307
-1.02307
-1.02308
-1.02308
-1.02308
-1.02308
-1.02309
-1.02309
-1.0231
-1.0231
-1.0231
-1.0231
-1.0231
-1.0231
-1.02309
-1.02311
-1.02314
-1.02319
-1.02324
-1.02327
-1.02329
-1.02329
-1.02329
-1.02328
-1.02327
-1.02326
-1.02326
-1.02325
-1.02325
-1.02325
-1.26804
-1.26804
-1.26804
-1.26804
-1.26805
-1.26805
-1.26805
-1.26806
-1.26806
-1.26807
-1.26808
-1.26808
-1.26809
-1.2681
-1.2681
-1.2681
-1.26809
-1.26811
-1.26814
-1.26818
-1.26822
-1.26826
-1.26827
-1.26827
-1.26826
-1.26825
-1.26824
-1.26823
-1.26823
-1.26822
-1.26822
-1.26822
-1.54945
-1.54945
-1.54945
-1.54945
-1.54946
-1.54946
-1.54947
-1.54947
-1.54948
-1.54949
-1.5495
-1.54951
-1.54952
-1.54953
-1.54953
-1.54954
-1.54954
-1.54955
-1.54957
-1.5496
-1.54964
-1.54967
-1.54968
-1.54967
-1.54966
-1.54965
-1.54964
-1.54963
-1.54963
-1.54962
-1.54962
-1.54962
-1.87271
-1.87272
-1.87272
-1.87272
-1.87272
-1.87273
-1.87273
-1.87274
-1.87275
-1.87276
-1.87277
-1.87279
-1.8728
-1.87282
-1.87283
-1.87284
-1.87284
-1.87285
-1.87286
-1.87288
-1.8729
-1.87291
-1.87291
-1.8729
-1.87289
-1.87288
-1.87287
-1.87287
-1.87286
-1.87286
-1.87286
-1.87286
-2.24407
-2.24407
-2.24407
-2.24407
-2.24408
-2.24408
-2.24409
-2.2441
-2.24411
-2.24412
-2.24413
-2.24415
-2.24417
-2.24419
-2.24421
-2.24422
-2.24423
-2.24423
-2.24423
-2.24423
-2.24423
-2.24422
-2.2442
-2.24419
-2.24417
-2.24417
-2.24416
-2.24416
-2.24416
-2.24416
-2.24416
-2.24416
-2.67066
-2.67066
-2.67066
-2.67066
-2.67067
-2.67067
-2.67068
-2.67069
-2.6707
-2.67071
-2.67073
-2.67075
-2.67078
-2.67081
-2.67083
-2.67085
-2.67086
-2.67086
-2.67085
-2.67083
-2.6708
-2.67077
-2.67073
-2.6707
-2.67068
-2.67067
-2.67067
-2.67067
-2.67068
-2.67068
-2.67068
-2.67068
-3.1607
-3.1607
-3.1607
-3.1607
-3.16071
-3.16071
-3.16072
-3.16073
-3.16074
-3.16076
-3.16078
-3.16081
-3.16084
-3.16087
-3.1609
-3.16093
-3.16094
-3.16094
-3.16092
-3.16089
-3.16084
-3.16079
-3.16074
-3.1607
-3.16067
-3.16065
-3.16065
-3.16065
-3.16065
-3.16065
-3.16066
-3.16066
-3.72363
-3.72363
-3.72363
-3.72363
-3.72364
-3.72364
-3.72365
-3.72366
-3.72368
-3.7237
-3.72372
-3.72375
-3.72378
-3.72382
-3.72386
-3.72389
-3.72391
-3.7239
-3.72388
-3.72384
-3.72379
-3.72373
-3.72368
-3.72363
-3.72359
-3.72356
-3.72355
-3.72355
-3.72355
-3.72355
-3.72356
-3.72356
-4.37028
-4.37028
-4.37028
-4.37028
-4.37028
-4.37029
-4.3703
-4.37031
-4.37033
-4.37035
-4.37038
-4.37041
-4.37045
-4.37049
-4.37053
-4.37056
-4.37058
-4.37058
-4.37056
-4.37052
-4.37047
-4.37042
-4.37036
-4.37031
-4.37026
-4.37023
-4.37021
-4.37021
-4.37021
-4.37021
-4.37021
-4.37022
-5.06167
-5.06167
-5.06167
-5.06167
-5.06168
-5.06168
-5.06169
-5.06171
-5.06173
-5.06175
-5.06178
-5.06181
-5.06185
-5.06189
-5.06194
-5.06197
-5.06199
-5.06199
-5.06197
-5.06194
-5.0619
-5.06186
-5.06181
-5.06175
-5.06171
-5.06167
-5.06165
-5.06164
-5.06164
-5.06164
-5.06164
-5.06165
-5.70829
-5.70829
-5.70829
-5.70829
-5.70829
-5.7083
-5.70831
-5.70833
-5.70835
-5.70837
-5.7084
-5.70844
-5.70848
-5.70852
-5.70857
-5.70861
-5.70863
-5.70862
-5.70861
-5.70858
-5.70855
-5.70852
-5.70847
-5.70843
-5.70838
-5.70834
-5.70832
-5.7083
-5.7083
-5.7083
-5.70831
-5.70831
-6.27118
-6.27118
-6.27118
-6.27118
-6.27118
-6.27119
-6.2712
-6.27122
-6.27124
-6.27127
-6.2713
-6.27134
-6.27138
-6.27142
-6.27147
-6.27151
-6.27153
-6.27153
-6.27151
-6.27149
-6.27146
-6.27143
-6.2714
-6.27136
-6.27132
-6.27128
-6.27125
-6.27123
-6.27122
-6.27122
-6.27123
-6.27124
-6.76118
-6.76118
-6.76118
-6.76118
-6.76119
-6.76119
-6.7612
-6.76122
-6.76125
-6.76127
-6.76131
-6.76135
-6.76139
-6.76144
-6.76149
-6.76154
-6.76156
-6.76155
-6.76153
-6.76151
-6.76148
-6.76145
-6.76142
-6.76138
-6.76134
-6.7613
-6.76127
-6.76125
-6.76124
-6.76124
-6.76124
-6.76125
-7.18775
-7.18774
-7.18774
-7.18774
-7.18774
-7.18775
-7.18776
-7.18778
-7.1878
-7.18783
-7.18786
-7.18791
-7.18796
-7.18801
-7.18807
-7.18812
-7.18814
-7.18814
-7.18811
-7.18808
-7.18805
-7.18801
-7.18798
-7.18794
-7.1879
-7.18786
-7.18782
-7.18779
-7.18778
-7.18778
-7.18778
-7.18779
-7.55908
-7.55908
-7.55908
-7.55908
-7.55908
-7.55908
-7.55909
-7.5591
-7.55912
-7.55915
-7.55919
-7.55924
-7.55929
-7.55935
-7.55942
-7.55947
-7.5595
-7.55949
-7.55947
-7.55943
-7.55939
-7.55935
-7.55931
-7.55926
-7.55922
-7.55917
-7.55912
-7.55907
-7.55905
-7.55904
-7.55905
-7.55906
-7.88234
-7.88234
-7.88234
-7.88234
-7.88234
-7.88234
-7.88234
-7.88234
-7.88236
-7.88239
-7.88243
-7.88248
-7.88255
-7.88262
-7.88269
-7.88275
-7.88278
-7.88278
-7.88275
-7.88271
-7.88267
-7.88261
-7.88256
-7.8825
-7.88243
-7.88237
-7.8823
-7.88224
-7.8822
-7.88218
-7.88218
-7.88219
-8.16376
-8.16376
-8.16376
-8.16375
-8.16375
-8.16374
-8.16374
-8.16373
-8.16375
-8.16377
-8.16382
-8.16388
-8.16395
-8.16403
-8.16411
-8.16418
-8.16421
-8.16421
-8.16419
-8.16414
-8.16409
-8.16403
-8.16395
-8.16387
-8.16378
-8.16369
-8.16359
-8.16351
-8.16344
-8.1634
-8.16339
-8.1634
-8.40875
-8.40875
-8.40875
-8.40874
-8.40873
-8.40872
-8.4087
-8.40869
-8.4087
-8.40873
-8.40878
-8.40885
-8.40893
-8.40902
-8.4091
-8.40917
-8.40921
-8.40921
-8.40919
-8.40914
-8.40908
-8.40901
-8.40892
-8.40881
-8.40869
-8.40855
-8.40842
-8.40829
-8.40818
-8.40811
-8.40809
-8.4081
-8.62203
-8.62203
-8.62203
-8.62202
-8.622
-8.62198
-8.62195
-8.62194
-8.62194
-8.62197
-8.62202
-8.6221
-8.62219
-8.62229
-8.62238
-8.62245
-8.6225
-8.6225
-8.62247
-8.62243
-8.62236
-8.62228
-8.62217
-8.62203
-8.62187
-8.62169
-8.62149
-8.62131
-8.62114
-8.62102
-8.62098
-8.62097
-8.80771
-8.80771
-8.80771
-8.80769
-8.80767
-8.80763
-8.8076
-8.80757
-8.80757
-8.8076
-8.80766
-8.80775
-8.80784
-8.80795
-8.80804
-8.80812
-8.80817
-8.80817
-8.80815
-8.8081
-8.80803
-8.80794
-8.80781
-8.80765
-8.80745
-8.8072
-8.80694
-8.80668
-8.80643
-8.80624
-8.80613
-8.8061
-8.96938
-8.96938
-8.96937
-8.96934
-8.9693
-8.96925
-8.9692
-8.96917
-8.96917
-8.9692
-8.96927
-8.96936
-8.96947
-8.96957
-8.96968
-8.96976
-8.96981
-8.96981
-8.96979
-8.96974
-8.96966
-8.96956
-8.96942
-8.96923
-8.96899
-8.9687
-8.96836
-8.968
-8.96765
-8.96735
-8.96714
-8.96705
-9.11017
-9.11016
-9.11013
-9.11007
-9.11001
-9.10994
-9.10989
-9.10986
-9.10985
-9.10989
-9.10996
-9.11006
-9.11017
-9.11028
-9.11038
-9.11047
-9.11052
-9.11053
-9.1105
-9.11045
-9.11037
-9.11026
-9.11011
-9.1099
-9.10963
-9.10929
-9.10888
-9.10842
-9.10794
-9.10748
-9.10712
-9.1069
-9.23286
-9.23279
-9.23269
-9.23259
-9.2325
-9.23242
-9.23236
-9.23233
-9.23233
-9.23237
-9.23244
-9.23254
-9.23265
-9.23277
-9.23288
-9.23297
-9.23302
-9.23302
-9.233
-9.23295
-9.23287
-9.23276
-9.23259
-9.23237
-9.23208
-9.2317
-9.23124
-9.2307
-9.23008
-9.22941
-9.22877
-9.22822
-9.34
-9.33961
-9.33937
-9.33922
-9.33911
-9.33903
-9.33897
-9.33894
-9.33894
-9.33899
-9.33907
-9.33917
-9.33928
-9.3394
-9.33951
-9.3396
-9.33965
-9.33966
-9.33964
-9.33959
-9.33951
-9.33939
-9.33923
-9.339
-9.3387
-9.33831
-9.33782
-9.33721
-9.33648
-9.33557
-9.33446
-9.3332
-9.43385
-9.43262
-9.43216
-9.43201
-9.43191
-9.43183
-9.43177
-9.43175
-9.43176
-9.43181
-9.43189
-9.43199
-9.43211
-9.43223
-9.43235
-9.43244
-9.43249
-9.4325
-9.43248
-9.43243
-9.43235
-9.43223
-9.43207
-9.43184
-9.43153
-9.43114
-9.43064
-9.43001
-9.4292
-9.4281
-9.42649
-9.42423
)
;

boundaryField
{
    movingWall
    {
        type            calculated;
        value           nonuniform List<scalar> 
32
(
-9.47706
-9.47582
-9.47536
-9.47521
-9.47511
-9.47503
-9.47498
-9.47495
-9.47496
-9.47501
-9.47509
-9.4752
-9.47532
-9.47544
-9.47555
-9.47564
-9.4757
-9.47571
-9.47569
-9.47563
-9.47555
-9.47544
-9.47527
-9.47504
-9.47474
-9.47434
-9.47384
-9.47322
-9.47241
-9.47131
-9.4697
-9.46744
)
;
    }
    fixedWalls
    {
        type            calculated;
        value           nonuniform List<scalar> 
64
(
6.93889e-18
-0.0928114
-0.199424
-0.321892
-0.462573
-0.624176
-0.809816
-1.02307
-1.26804
-1.54945
-1.87271
-2.24407
-2.67066
-3.1607
-3.72363
-4.37028
-5.06167
-5.70829
-6.27118
-6.76118
-7.18775
-7.55908
-7.88234
-8.16376
-8.40875
-8.62203
-8.80771
-8.96938
-9.11017
-9.23286
-9.34
-9.43385
-0.000170974
-0.0929818
-0.199594
-0.322061
-0.462741
-0.624347
-0.809991
-1.02325
-1.26822
-1.54962
-1.87286
-2.24416
-2.67068
-3.16066
-3.72356
-4.37022
-5.06165
-5.70831
-6.27124
-6.76125
-7.18779
-7.55906
-7.88219
-8.1634
-8.4081
-8.62097
-8.8061
-8.96705
-9.1069
-9.22822
-9.3332
-9.42423
)
;
    }
    floor
    {
        type            calculated;
        value           nonuniform List<scalar> 
32
(
0.0431943
0.0431937
0.0431928
0.043192
0.043192
0.0431928
0.0431947
0.0431975
0.0432008
0.0432045
0.0432084
0.043213
0.0432193
0.0432291
0.0432442
0.0432651
0.0432828
0.0432802
0.0432493
0.0431956
0.0431354
0.0430867
0.043055
0.0430367
0.0430267
0.0430215
0.0430191
0.0430185
0.0430191
0.0430206
0.0430223
0.0430233
)
;
    }
    frontAndBack
    {
        type            empty;
    }
}


// ************************************************************************* //
