/*--------------------------------*- C++ -*----------------------------------*\
| =========                 |                                                 |
| \\      /  F ield         | OpenFOAM: The Open Source CFD Toolbox           |
|  \\    /   O peration     | Version:  2212                                  |
|   \\  /    A nd           | Website:  www.openfoam.com                      |
|    \\/     M anipulation  |                                                 |
\*---------------------------------------------------------------------------*/
FoamFile
{
    version     2.0;
    format      ascii;
    arch        "LSB;label=64;scalar=64";
    class       volScalarField;
    location    "1700";
    object      Saa;
}
// * * * * * * * * * * * * * * * * * * * * * * * * * * * * * * * * * * * * * //

dimensions      [1 -3 0 0 0 0 0];

internalField   nonuniform List<scalar> 
1024
(
0.00546843
0.00546847
0.00546857
0.00546875
0.00546905
0.0054695
0.00547011
0.00547092
0.00547192
0.00547308
0.00547435
0.00547565
0.0054769
0.00547801
0.00547892
0.00547955
0.00547981
0.00547966
0.00547921
0.00547854
0.0054777
0.00547674
0.00547573
0.00547475
0.00547386
0.00547313
0.00547256
0.00547214
0.00547186
0.00547169
0.00547159
0.00547155
0.00546844
0.00546848
0.00546858
0.00546877
0.00546907
0.00546952
0.00547014
0.00547096
0.00547196
0.00547313
0.0054744
0.0054757
0.00547695
0.00547806
0.00547896
0.00547959
0.00547985
0.00547971
0.00547926
0.00547858
0.00547774
0.00547678
0.00547577
0.00547479
0.0054739
0.00547316
0.00547258
0.00547216
0.00547187
0.0054717
0.0054716
0.00547156
0.00546847
0.00546851
0.00546862
0.00546881
0.00546912
0.00546958
0.00547021
0.00547104
0.00547206
0.00547324
0.00547452
0.00547582
0.00547706
0.00547817
0.00547907
0.0054797
0.00547996
0.00547981
0.00547936
0.00547868
0.00547783
0.00547687
0.00547586
0.00547486
0.00547396
0.00547321
0.00547262
0.00547219
0.0054719
0.00547172
0.00547162
0.00547158
0.00546852
0.00546857
0.00546868
0.00546888
0.0054692
0.00546967
0.00547033
0.00547118
0.00547222
0.00547342
0.00547471
0.00547602
0.00547726
0.00547836
0.00547926
0.00547989
0.00548015
0.00548001
0.00547955
0.00547885
0.00547798
0.005477
0.00547598
0.00547497
0.00547406
0.00547328
0.00547268
0.00547224
0.00547194
0.00547175
0.00547165
0.00547161
0.00546861
0.00546866
0.00546877
0.00546898
0.00546931
0.00546981
0.0054705
0.00547138
0.00547246
0.00547369
0.005475
0.00547632
0.00547756
0.00547866
0.00547955
0.00548019
0.00548047
0.00548033
0.00547984
0.00547909
0.00547818
0.00547717
0.00547612
0.0054751
0.00547417
0.00547338
0.00547276
0.0054723
0.005472
0.00547181
0.0054717
0.00547166
0.00546874
0.00546878
0.0054689
0.00546912
0.00546948
0.00547
0.00547073
0.00547166
0.00547278
0.00547405
0.0054754
0.00547673
0.00547798
0.00547908
0.00547999
0.00548065
0.00548094
0.00548079
0.00548026
0.00547944
0.00547845
0.00547738
0.00547628
0.00547523
0.00547428
0.00547348
0.00547285
0.00547239
0.00547207
0.00547188
0.00547178
0.00547174
0.00546891
0.00546896
0.00546908
0.00546931
0.00546969
0.00547025
0.00547102
0.00547201
0.0054732
0.00547453
0.00547592
0.00547729
0.00547855
0.00547967
0.00548059
0.00548128
0.0054816
0.00548144
0.00548084
0.00547991
0.0054788
0.00547763
0.00547646
0.00547537
0.00547439
0.00547358
0.00547294
0.00547248
0.00547218
0.00547199
0.00547189
0.00547185
0.00546913
0.00546918
0.00546931
0.00546956
0.00546996
0.00547056
0.00547139
0.00547245
0.00547372
0.00547512
0.00547658
0.00547799
0.00547929
0.00548043
0.00548139
0.00548212
0.00548248
0.00548231
0.00548163
0.00548057
0.00547929
0.00547796
0.00547668
0.00547552
0.00547451
0.00547369
0.00547306
0.00547262
0.00547233
0.00547215
0.00547206
0.00547202
0.00546941
0.00546947
0.0054696
0.00546986
0.0054703
0.00547094
0.00547183
0.00547298
0.00547434
0.00547584
0.00547738
0.00547886
0.00548021
0.0054814
0.00548241
0.0054832
0.00548361
0.00548344
0.00548269
0.00548148
0.00548001
0.00547848
0.00547704
0.00547577
0.00547472
0.00547389
0.00547327
0.00547285
0.00547258
0.00547243
0.00547235
0.00547232
0.00546976
0.00546981
0.00546996
0.00547023
0.0054707
0.00547139
0.00547236
0.0054736
0.00547507
0.00547669
0.00547834
0.00547991
0.00548133
0.00548258
0.00548365
0.00548451
0.00548498
0.00548485
0.00548408
0.00548279
0.00548115
0.00547941
0.00547776
0.00547634
0.00547519
0.00547433
0.00547372
0.00547332
0.00547308
0.00547295
0.0054729
0.00547289
0.00547017
0.00547023
0.00547038
0.00547068
0.00547117
0.00547192
0.00547296
0.00547431
0.00547591
0.00547767
0.00547945
0.00548112
0.00548262
0.00548393
0.00548506
0.00548599
0.00548656
0.00548654
0.00548589
0.00548467
0.00548301
0.00548114
0.00547929
0.00547765
0.00547635
0.00547539
0.00547474
0.00547434
0.00547412
0.00547402
0.00547399
0.00547399
0.00547067
0.00547073
0.00547088
0.00547119
0.00547172
0.00547252
0.00547365
0.00547511
0.00547685
0.00547875
0.00548065
0.00548243
0.005484
0.00548537
0.00548655
0.00548754
0.00548823
0.00548844
0.00548809
0.00548719
0.00548578
0.00548403
0.00548216
0.00548038
0.00547887
0.00547773
0.00547694
0.00547647
0.00547622
0.00547611
0.00547608
0.00547608
0.00547123
0.00547129
0.00547146
0.00547178
0.00547233
0.00547319
0.00547439
0.00547596
0.00547782
0.00547985
0.00548188
0.00548374
0.00548536
0.00548674
0.00548792
0.00548894
0.00548974
0.00549023
0.00549035
0.00549002
0.00548922
0.00548801
0.00548649
0.00548487
0.00548332
0.00548201
0.00548102
0.00548036
0.00547998
0.00547979
0.00547971
0.0054797
0.00547186
0.00547192
0.00547209
0.00547242
0.00547299
0.00547388
0.00547513
0.00547677
0.00547873
0.00548085
0.00548296
0.00548487
0.00548649
0.00548781
0.0054889
0.00548982
0.00549062
0.00549132
0.00549189
0.00549224
0.00549226
0.0054919
0.00549118
0.00549018
0.00548902
0.00548786
0.00548683
0.00548603
0.00548548
0.00548516
0.005485
0.00548495
0.00547252
0.00547258
0.00547274
0.00547307
0.00547363
0.00547452
0.00547578
0.00547744
0.00547942
0.00548157
0.0054837
0.00548561
0.00548716
0.00548834
0.00548921
0.00548985
0.00549042
0.00549111
0.00549193
0.00549277
0.00549348
0.00549395
0.00549413
0.00549402
0.00549364
0.00549307
0.00549242
0.00549181
0.00549131
0.00549097
0.00549077
0.0054907
0.00547313
0.00547319
0.00547335
0.00547365
0.00547419
0.00547502
0.00547622
0.0054778
0.00547971
0.00548182
0.0054839
0.00548575
0.0054872
0.00548818
0.00548872
0.00548895
0.0054891
0.00548956
0.00549039
0.00549146
0.00549259
0.00549361
0.00549443
0.00549502
0.00549536
0.00549548
0.00549543
0.00549526
0.00549507
0.0054949
0.00549478
0.00549473
0.00547359
0.00547365
0.00547379
0.00547407
0.00547454
0.00547528
0.00547634
0.00547777
0.00547952
0.00548149
0.00548346
0.00548523
0.00548659
0.00548742
0.00548772
0.00548758
0.00548732
0.00548744
0.00548814
0.00548929
0.00549068
0.00549209
0.00549334
0.00549437
0.00549513
0.00549566
0.00549597
0.00549613
0.00549619
0.00549619
0.00549618
0.00549617
0.00547383
0.00547388
0.00547401
0.00547425
0.00547466
0.00547529
0.00547621
0.00547745
0.005479
0.00548077
0.0054826
0.00548427
0.00548559
0.00548638
0.00548661
0.00548633
0.00548585
0.00548573
0.00548622
0.00548732
0.00548885
0.00549055
0.00549219
0.00549361
0.00549473
0.00549553
0.00549605
0.00549637
0.00549654
0.00549661
0.00549663
0.00549664
0.00547388
0.00547393
0.00547405
0.00547426
0.00547461
0.00547515
0.00547594
0.005477
0.00547834
0.0054799
0.00548155
0.00548311
0.00548439
0.0054852
0.00548547
0.00548524
0.00548477
0.00548458
0.00548496
0.00548595
0.00548746
0.00548928
0.00549117
0.0054929
0.00549432
0.0054954
0.00549613
0.00549659
0.00549684
0.00549696
0.005497
0.00549701
0.00547383
0.00547387
0.00547397
0.00547416
0.00547447
0.00547493
0.00547559
0.00547649
0.00547764
0.00547899
0.00548045
0.00548186
0.00548307
0.00548391
0.00548428
0.0054842
0.0054839
0.00548382
0.00548422
0.00548517
0.00548662
0.00548844
0.00549042
0.00549232
0.00549397
0.00549527
0.00549619
0.00549679
0.00549713
0.00549729
0.00549735
0.00549737
0.00547373
0.00547376
0.00547385
0.00547401
0.00547428
0.00547467
0.00547523
0.00547599
0.00547696
0.00547811
0.00547936
0.00548062
0.00548173
0.00548258
0.00548308
0.00548323
0.00548322
0.00548339
0.00548392
0.00548489
0.00548629
0.00548804
0.00548999
0.00549194
0.00549371
0.00549516
0.00549625
0.00549697
0.0054974
0.00549761
0.00549769
0.00549771
0.00547369
0.00547372
0.00547378
0.00547391
0.00547411
0.00547444
0.0054749
0.00547554
0.00547634
0.00547731
0.00547838
0.00547948
0.0054805
0.00548137
0.00548203
0.00548247
0.00548283
0.0054833
0.00548401
0.00548502
0.00548638
0.00548804
0.00548989
0.00549178
0.00549357
0.0054951
0.0054963
0.00549713
0.00549764
0.00549791
0.00549801
0.00549804
0.00547385
0.00547385
0.00547388
0.00547394
0.00547408
0.00547431
0.00547467
0.00547519
0.00547585
0.00547667
0.00547759
0.00547858
0.00547957
0.00548051
0.00548136
0.00548213
0.00548287
0.00548364
0.0054845
0.00548556
0.00548685
0.00548837
0.00549007
0.00549185
0.00549356
0.0054951
0.00549636
0.00549727
0.00549786
0.00549818
0.00549831
0.00549834
0.00547432
0.0054743
0.00547427
0.00547425
0.00547429
0.00547441
0.00547466
0.00547506
0.00547562
0.00547634
0.00547718
0.00547814
0.00547917
0.00548023
0.0054813
0.00548238
0.00548343
0.00548443
0.00548541
0.00548646
0.00548765
0.00548901
0.00549052
0.00549212
0.00549371
0.00549518
0.00549644
0.00549741
0.00549806
0.00549842
0.00549858
0.00549862
0.00547522
0.00547516
0.00547507
0.00547496
0.0054749
0.00547491
0.00547506
0.00547538
0.00547588
0.00547656
0.00547741
0.00547841
0.00547953
0.00548074
0.005482
0.0054833
0.00548456
0.00548568
0.0054867
0.0054877
0.00548876
0.00548993
0.00549122
0.00549261
0.00549402
0.00549537
0.00549658
0.00549755
0.00549824
0.00549864
0.00549882
0.00549887
0.00547661
0.00547652
0.00547636
0.00547619
0.00547605
0.00547601
0.00547611
0.00547641
0.00547691
0.00547762
0.00547852
0.00547959
0.0054808
0.0054821
0.00548346
0.00548485
0.00548618
0.00548732
0.00548829
0.0054892
0.00549011
0.00549108
0.00549214
0.00549329
0.00549449
0.00549567
0.00549678
0.00549771
0.00549841
0.00549884
0.00549905
0.0054991
0.00547851
0.00547839
0.0054782
0.00547802
0.0054779
0.0054779
0.00547804
0.00547838
0.00547892
0.00547968
0.00548062
0.00548172
0.00548294
0.00548423
0.00548557
0.00548692
0.00548819
0.00548924
0.00549011
0.00549088
0.00549163
0.00549241
0.00549325
0.00549416
0.00549512
0.00549611
0.00549706
0.00549791
0.00549858
0.00549902
0.00549924
0.00549931
0.00548095
0.0054808
0.00548064
0.00548055
0.00548057
0.00548069
0.00548094
0.00548135
0.00548193
0.00548269
0.0054836
0.00548463
0.00548576
0.00548693
0.00548813
0.00548932
0.00549042
0.00549133
0.00549205
0.00549267
0.00549326
0.00549385
0.00549448
0.00549516
0.0054959
0.00549667
0.00549744
0.00549817
0.00549877
0.00549919
0.00549941
0.00549949
0.00548392
0.00548379
0.00548375
0.00548385
0.00548406
0.00548435
0.0054847
0.00548516
0.00548572
0.0054864
0.00548718
0.00548805
0.00548898
0.00548994
0.00549091
0.00549187
0.00549274
0.00549345
0.00549401
0.00549448
0.00549491
0.00549534
0.00549578
0.00549626
0.00549678
0.00549734
0.00549792
0.00549849
0.00549898
0.00549935
0.00549957
0.00549964
0.00548751
0.00548746
0.00548763
0.00548793
0.00548828
0.00548866
0.00548904
0.00548945
0.00548991
0.00549044
0.00549102
0.00549166
0.00549234
0.00549303
0.00549372
0.0054944
0.00549502
0.00549551
0.0054959
0.00549622
0.00549651
0.00549679
0.00549708
0.00549739
0.00549773
0.00549809
0.00549848
0.00549887
0.00549923
0.00549952
0.0054997
0.00549977
0.00549187
0.00549197
0.00549228
0.00549262
0.00549296
0.00549327
0.00549356
0.00549385
0.00549414
0.00549446
0.00549482
0.00549519
0.00549559
0.005496
0.0054964
0.0054968
0.00549716
0.00549744
0.00549766
0.00549785
0.00549801
0.00549817
0.00549833
0.00549849
0.00549868
0.00549887
0.00549909
0.00549931
0.00549952
0.0054997
0.00549983
0.00549988
0.00549715
0.00549723
0.00549739
0.00549754
0.00549768
0.0054978
0.00549791
0.00549801
0.00549811
0.00549822
0.00549833
0.00549846
0.00549859
0.00549872
0.00549885
0.00549898
0.00549909
0.00549918
0.00549925
0.00549931
0.00549936
0.00549941
0.00549946
0.00549952
0.00549957
0.00549963
0.0054997
0.00549977
0.00549984
0.0054999
0.00549994
0.00549996
)
;

boundaryField
{
    movingWall
    {
        type            fixedValue;
        value           uniform 0.0055;
    }
    fixedWalls
    {
        type            zeroGradient;
    }
    floor
    {
        type            zeroGradient;
    }
    frontAndBack
    {
        type            empty;
    }
}


// ************************************************************************* //
