/*--------------------------------*- C++ -*----------------------------------*\
| =========                 |                                                 |
| \\      /  F ield         | OpenFOAM: The Open Source CFD Toolbox           |
|  \\    /   O peration     | Version:  2212                                  |
|   \\  /    A nd           | Website:  www.openfoam.com                      |
|    \\/     M anipulation  |                                                 |
\*---------------------------------------------------------------------------*/
FoamFile
{
    version     2.0;
    format      ascii;
    arch        "LSB;label=64;scalar=64";
    class       volScalarField::Internal;
    location    "1980";
    object      dGch4;
}
// * * * * * * * * * * * * * * * * * * * * * * * * * * * * * * * * * * * * * //

dimensions      [1 -3 -1 0 0 0 0];

value           nonuniform List<scalar> 
1024
(
0.00102947
0.00102974
0.00103042
0.00103167
0.00103371
0.00103677
0.00104112
0.00104703
0.00105465
0.00106398
0.00107479
0.00108656
0.00109863
0.00111029
0.001121
0.00113036
0.00113733
0.00114098
0.0011416
0.00113976
0.00113597
0.00113077
0.00112483
0.00111881
0.0011133
0.00110867
0.00110507
0.00110245
0.00110068
0.00109958
0.00109898
0.00109874
0.00102955
0.00102983
0.00103052
0.00103178
0.00103383
0.00103692
0.00104132
0.00104727
0.00105494
0.00106433
0.00107518
0.00108699
0.00109907
0.00111073
0.00112143
0.00113079
0.00113777
0.00114145
0.00114209
0.00114027
0.00113647
0.00113126
0.00112528
0.00111921
0.00111365
0.00110896
0.00110531
0.00110266
0.00110087
0.00109976
0.00109916
0.00109891
0.00102977
0.00103006
0.00103076
0.00103204
0.00103414
0.00103729
0.00104177
0.00104783
0.00105563
0.00106514
0.00107609
0.00108795
0.00110005
0.0011117
0.00112239
0.00113176
0.0011388
0.00114257
0.00114329
0.00114151
0.00113769
0.0011324
0.0011263
0.00112011
0.00111441
0.00110962
0.00110587
0.00110316
0.00110132
0.00110019
0.00109958
0.00109934
0.00103017
0.00103046
0.00103119
0.00103251
0.00103467
0.00103793
0.00104256
0.00104881
0.0010568
0.00106651
0.00107761
0.00108956
0.00110168
0.00111332
0.001124
0.00113343
0.00114062
0.0011446
0.00114551
0.0011438
0.00113991
0.00113441
0.00112806
0.00112161
0.00111569
0.00111072
0.00110683
0.00110402
0.00110214
0.00110098
0.00110036
0.00110012
0.0010308
0.00103111
0.00103186
0.00103325
0.00103551
0.00103892
0.00104377
0.00105027
0.00105856
0.00106853
0.00107984
0.0010919
0.00110404
0.00111566
0.00112637
0.00113593
0.00114344
0.00114783
0.00114907
0.00114749
0.00114346
0.00113759
0.00113078
0.0011239
0.00111763
0.00111238
0.00110832
0.00110539
0.00110345
0.00110227
0.00110165
0.00110141
0.00103171
0.00103204
0.00103283
0.0010343
0.0010367
0.00104032
0.00104545
0.0010523
0.00106096
0.00107127
0.00108283
0.00109501
0.00110717
0.00111878
0.00112957
0.00113942
0.00114748
0.00115256
0.00115435
0.00115298
0.00114873
0.00114231
0.0011348
0.00112726
0.00112045
0.00111483
0.00111052
0.00110746
0.00110546
0.00110428
0.00110366
0.00110343
0.00103296
0.0010333
0.00103414
0.00103572
0.00103829
0.00104217
0.00104765
0.00105492
0.00106402
0.00107473
0.00108655
0.00109886
0.00111105
0.0011227
0.00113368
0.00114402
0.00115294
0.00115904
0.00116163
0.00116062
0.00115616
0.00114906
0.00114061
0.00113213
0.00112457
0.00111843
0.00111381
0.0011106
0.00110855
0.00110736
0.00110677
0.00110656
0.00103456
0.00103492
0.00103582
0.00103751
0.00104028
0.00104446
0.00105034
0.00105809
0.00106768
0.00107881
0.00109091
0.00110335
0.00111559
0.00112735
0.00113866
0.00114973
0.00115983
0.0011673
0.00117102
0.00117061
0.00116613
0.0011584
0.00114893
0.0011393
0.00113075
0.0011239
0.00111886
0.00111544
0.00111332
0.00111215
0.00111159
0.00111141
0.0010365
0.00103688
0.00103784
0.00103965
0.00104264
0.00104714
0.00105344
0.00106168
0.00107178
0.00108332
0.00109571
0.00110829
0.00112062
0.00113257
0.00114436
0.00115634
0.00116786
0.001177
0.00118223
0.00118291
0.00117891
0.00117099
0.00116073
0.00114996
0.00114025
0.00113249
0.00112685
0.0011231
0.00112085
0.00111966
0.00111913
0.00111897
0.00103874
0.00103913
0.00104015
0.00104208
0.00104526
0.00105006
0.00105677
0.00106549
0.00107605
0.00108799
0.00110064
0.00111337
0.00112582
0.001138
0.00115029
0.0011632
0.00117618
0.00118718
0.00119441
0.00119696
0.00119444
0.00118734
0.00117712
0.00116569
0.00115494
0.00114609
0.00113961
0.00113532
0.00113278
0.00113145
0.00113089
0.00113073
0.00104116
0.00104158
0.00104263
0.00104465
0.001048
0.00105305
0.00106009
0.0010692
0.00108016
0.00109243
0.0011053
0.00111813
0.00113064
0.00114295
0.00115553
0.00116905
0.00118319
0.00119609
0.00120588
0.00121138
0.00121181
0.00120719
0.00119857
0.00118772
0.00117664
0.00116691
0.00115942
0.00115429
0.00115117
0.00114949
0.00114876
0.00114854
0.00104364
0.00104406
0.00104514
0.00104721
0.00105066
0.00105586
0.00106311
0.00107247
0.00108368
0.00109615
0.00110911
0.0011219
0.00113425
0.00114631
0.0011586
0.00117196
0.00118654
0.00120112
0.00121395
0.00122354
0.00122855
0.00122842
0.00122358
0.00121533
0.0012055
0.00119583
0.00118766
0.0011816
0.00117764
0.00117537
0.00117428
0.0011739
0.00104597
0.00104639
0.00104748
0.00104955
0.001053
0.00105821
0.00106549
0.00107488
0.00108611
0.00109854
0.00111133
0.00112377
0.00113548
0.00114657
0.00115756
0.00116951
0.00118336
0.00119907
0.00121513
0.00122957
0.00124043
0.00124649
0.00124751
0.00124416
0.00123779
0.00123003
0.00122243
0.00121608
0.00121149
0.0012086
0.00120708
0.00120651
0.00104792
0.00104833
0.00104939
0.00105141
0.00105475
0.0010598
0.00106685
0.00107597
0.00108687
0.00109889
0.00111111
0.00112268
0.00113305
0.00114218
0.00115057
0.00115954
0.00117117
0.00118707
0.00120602
0.00122549
0.00124279
0.00125596
0.00126412
0.00126733
0.0012664
0.00126262
0.00125747
0.00125229
0.00124799
0.00124498
0.00124325
0.00124254
0.00104915
0.00104956
0.00105057
0.00105247
0.00105558
0.00106027
0.00106681
0.00107528
0.00108541
0.00109653
0.00110764
0.00111773
0.00112603
0.00113223
0.00113678
0.00114127
0.00114909
0.00116385
0.00118486
0.00120908
0.00123297
0.00125367
0.00126953
0.00128001
0.00128551
0.00128697
0.0012857
0.00128306
0.00128018
0.00127782
0.0012763
0.00127562
0.00104927
0.00104966
0.0010506
0.00105233
0.00105512
0.00105925
0.00106499
0.00107241
0.00108128
0.00109096
0.00110046
0.0011086
0.00111436
0.00111717
0.00111729
0.00111645
0.00111915
0.00113106
0.00115259
0.00118067
0.00121107
0.00123981
0.00126409
0.00128252
0.00129496
0.00130213
0.00130525
0.00130569
0.00130476
0.00130348
0.00130244
0.00130191
0.00104783
0.0010482
0.00104909
0.00105064
0.00105307
0.0010566
0.00106141
0.00106759
0.00107494
0.00108292
0.0010906
0.00109679
0.00110031
0.00110035
0.00109692
0.00109155
0.00108917
0.00109674
0.00111624
0.00114566
0.00118095
0.00121728
0.0012504
0.00127757
0.00129769
0.00131106
0.00131878
0.00132237
0.00132338
0.00132314
0.00132256
0.00132217
0.0010451
0.00104546
0.0010463
0.00104772
0.00104988
0.00105291
0.00105694
0.00106203
0.00106802
0.00107446
0.00108055
0.00108522
0.00108729
0.00108588
0.00108079
0.00107329
0.00106812
0.00107225
0.00108847
0.00111625
0.00115282
0.00119369
0.00123378
0.00126891
0.00129666
0.00131644
0.001329
0.00133588
0.00133886
0.0013396
0.00133942
0.00133912
0.00104166
0.00104201
0.00104281
0.00104415
0.00104611
0.0010488
0.00105227
0.00105653
0.00106146
0.00106669
0.00107155
0.00107513
0.0010764
0.00107455
0.00106932
0.00106182
0.0010564
0.00105939
0.00107345
0.00109888
0.0011342
0.00117608
0.00121973
0.0012603
0.00129417
0.00131968
0.00133691
0.00134712
0.00135215
0.00135395
0.00135417
0.00135396
0.00103801
0.00103834
0.00103908
0.00104032
0.00104213
0.00104455
0.00104761
0.00105127
0.0010554
0.00105969
0.0010636
0.0010664
0.00106728
0.00106559
0.00106124
0.00105528
0.00105165
0.00105551
0.00106897
0.00109264
0.00112584
0.0011664
0.00121057
0.00125376
0.00129172
0.0013218
0.00134319
0.00135663
0.00136381
0.00136676
0.00136743
0.00136731
0.00103492
0.00103519
0.00103581
0.00103685
0.00103841
0.00104053
0.00104321
0.00104638
0.00104988
0.00105344
0.00105663
0.00105893
0.00105979
0.00105885
0.00105625
0.00105317
0.0010529
0.00105908
0.00107308
0.00109562
0.0011266
0.00116469
0.0012072
0.00125041
0.00129025
0.00132343
0.00134825
0.00136469
0.00137402
0.00137822
0.00137941
0.00137941
0.00103366
0.00103379
0.00103412
0.00103476
0.00103583
0.00103742
0.00103956
0.00104218
0.00104512
0.00104814
0.00105092
0.00105316
0.00105461
0.00105523
0.00105541
0.0010564
0.00106058
0.00106988
0.00108494
0.00110655
0.00113511
0.00117009
0.00120965
0.00125092
0.00129052
0.00132516
0.00135244
0.00137148
0.00138292
0.00138845
0.00139024
0.00139038
0.00103589
0.00103577
0.00103559
0.00103551
0.00103571
0.0010364
0.0010377
0.00103962
0.00104204
0.00104479
0.00104769
0.00105065
0.00105367
0.00105693
0.00106094
0.00106679
0.00107578
0.00108822
0.00110424
0.00112476
0.00115057
0.00118181
0.00121749
0.00125551
0.00129318
0.00132761
0.00135619
0.00137726
0.00139064
0.00139754
0.00140002
0.00140032
0.00104337
0.00104288
0.00104197
0.00104085
0.00103983
0.0010393
0.00103954
0.00104072
0.00104286
0.00104589
0.00104975
0.00105448
0.00106017
0.00106702
0.0010754
0.0010861
0.00109934
0.0011142
0.00113061
0.00114963
0.00117234
0.00119937
0.00123044
0.00126424
0.00129872
0.00133149
0.00136007
0.00138236
0.00139737
0.00140562
0.00140883
0.00140934
0.00105758
0.00105661
0.00105482
0.00105256
0.00105033
0.00104866
0.00104806
0.00104889
0.00105136
0.00105547
0.00106123
0.0010686
0.00107758
0.00108819
0.00110055
0.00111508
0.00113121
0.00114728
0.00116323
0.0011803
0.00119967
0.00122226
0.0012483
0.00127718
0.00130751
0.00133742
0.00136473
0.00138724
0.00140334
0.00141277
0.00141675
0.00141751
0.00107945
0.00107794
0.00107535
0.00107231
0.00106949
0.00106752
0.00106696
0.00106834
0.00107197
0.00107787
0.00108595
0.00109604
0.00110795
0.00112145
0.00113642
0.00115302
0.00117023
0.00118617
0.00120084
0.00121557
0.00123155
0.00124976
0.00127072
0.00129433
0.00131981
0.00134589
0.00137079
0.00139241
0.00140885
0.00141914
0.00142384
0.00142488
0.00110943
0.00110742
0.00110447
0.00110161
0.00109955
0.00109874
0.00109953
0.00110245
0.00110779
0.00111553
0.00112548
0.00113736
0.00115084
0.00116555
0.00118124
0.00119793
0.00121446
0.00122905
0.0012418
0.00125397
0.00126667
0.0012808
0.00129697
0.00131537
0.0013357
0.00135723
0.00137872
0.00139838
0.00141425
0.00142488
0.00143016
0.0014315
0.00114781
0.0011455
0.00114313
0.00114194
0.00114226
0.00114399
0.00114712
0.00115197
0.00115878
0.00116754
0.0011781
0.00119019
0.00120343
0.00121748
0.00123203
0.00124706
0.00126151
0.00127387
0.0012843
0.00129388
0.00130354
0.00131404
0.00132594
0.00133954
0.00135483
0.00137151
0.00138886
0.00140558
0.00141992
0.00143022
0.00143577
0.00143738
0.00119516
0.00119309
0.00119266
0.00119457
0.00119817
0.00120276
0.00120806
0.00121423
0.00122146
0.00122992
0.00123956
0.0012502
0.00126158
0.0012734
0.00128542
0.00129759
0.00130905
0.00131868
0.00132661
0.0013337
0.00134064
0.00134802
0.00135628
0.00136572
0.00137645
0.0013884
0.00140128
0.00141432
0.00142622
0.00143539
0.00144077
0.00144255
0.00125279
0.00125203
0.00125478
0.00125986
0.00126585
0.00127198
0.00127798
0.00128401
0.00129031
0.00129713
0.00130459
0.0013126
0.00132103
0.00132967
0.00133835
0.00134703
0.00135511
0.00136181
0.00136726
0.00137203
0.00137661
0.00138137
0.00138664
0.00139264
0.00139947
0.00140719
0.00141572
0.00142473
0.00143344
0.00144067
0.00144531
0.00144705
0.00132319
0.00132492
0.00132998
0.00133568
0.00134126
0.00134643
0.0013511
0.00135541
0.00135959
0.00136389
0.00136844
0.00137325
0.00137826
0.00138336
0.00138846
0.00139351
0.00139819
0.00140205
0.00140516
0.00140785
0.00141039
0.00141299
0.00141584
0.00141906
0.00142274
0.0014269
0.00143156
0.00143662
0.00144176
0.00144633
0.00144955
0.00145092
0.00140935
0.00141068
0.00141327
0.00141575
0.00141802
0.00142004
0.00142179
0.00142334
0.00142478
0.00142623
0.00142773
0.00142931
0.00143094
0.00143259
0.00143424
0.00143588
0.00143738
0.00143862
0.00143961
0.00144047
0.00144127
0.00144209
0.00144297
0.00144397
0.0014451
0.00144638
0.00144782
0.0014494
0.00145104
0.00145256
0.00145373
0.00145429
)
;


// ************************************************************************* //
