/*--------------------------------*- C++ -*----------------------------------*\
| =========                 |                                                 |
| \\      /  F ield         | OpenFOAM: The Open Source CFD Toolbox           |
|  \\    /   O peration     | Version:  2212                                  |
|   \\  /    A nd           | Website:  www.openfoam.com                      |
|    \\/     M anipulation  |                                                 |
\*---------------------------------------------------------------------------*/
FoamFile
{
    version     2.0;
    format      ascii;
    arch        "LSB;label=64;scalar=64";
    class       volScalarField::Internal;
    location    "1980";
    object      dGco2;
}
// * * * * * * * * * * * * * * * * * * * * * * * * * * * * * * * * * * * * * //

dimensions      [1 -3 -1 0 0 0 0];

value           nonuniform List<scalar> 
1024
(
0.000166819
0.000166869
0.000166995
0.00016723
0.000167612
0.000168187
0.000169007
0.000170119
0.000171553
0.00017331
0.000175344
0.000177562
0.000179834
0.00018203
0.000184046
0.000185808
0.00018712
0.000187809
0.000187924
0.000187578
0.000186864
0.000185886
0.000184767
0.000183633
0.000182595
0.000181724
0.000181046
0.000180553
0.00018022
0.000180012
0.0001799
0.000179854
0.000166834
0.000166885
0.000167013
0.00016725
0.000167636
0.000168216
0.000169044
0.000170164
0.000171609
0.000173376
0.000175419
0.000177642
0.000179916
0.000182111
0.000184127
0.000185888
0.000187203
0.000187896
0.000188017
0.000187674
0.000186959
0.000185977
0.000184852
0.000183709
0.000182661
0.000181779
0.000181092
0.000180592
0.000180255
0.000180046
0.000179932
0.000179886
0.000166873
0.000166927
0.000167058
0.000167299
0.000167693
0.000168285
0.000169129
0.00017027
0.000171738
0.000173528
0.000175589
0.000177823
0.000180101
0.000182295
0.000184308
0.000186072
0.000187398
0.000188108
0.000188244
0.000187908
0.000187189
0.000186192
0.000185044
0.000183877
0.000182805
0.000181902
0.000181197
0.000180686
0.000180341
0.000180128
0.000180012
0.000179966
0.000166947
0.000167002
0.000167138
0.000167387
0.000167794
0.000168407
0.000169278
0.000170453
0.000171959
0.000173785
0.000175876
0.000178126
0.000180408
0.000182599
0.000184611
0.000186386
0.00018774
0.00018849
0.00018866
0.000188339
0.000187606
0.00018657
0.000185375
0.000184161
0.000183047
0.000182109
0.000181378
0.000180849
0.000180494
0.000180276
0.00018016
0.000180113
0.000167065
0.000167122
0.000167264
0.000167525
0.000167951
0.000168593
0.000169504
0.000170729
0.000172289
0.000174167
0.000176295
0.000178567
0.000180853
0.00018304
0.000185056
0.000186857
0.000188271
0.000189098
0.000189331
0.000189035
0.000188274
0.000187169
0.000185888
0.000184592
0.000183411
0.000182423
0.000181657
0.000181107
0.000180741
0.000180519
0.000180402
0.000180356
0.000167236
0.000167297
0.000167446
0.000167723
0.000168175
0.000168856
0.000169821
0.000171111
0.000172741
0.000174683
0.000176858
0.000179152
0.000181441
0.000183628
0.00018566
0.000187515
0.000189032
0.000189989
0.000190325
0.000190068
0.000189268
0.000188059
0.000186645
0.000185223
0.000183942
0.000182883
0.000182072
0.000181497
0.00018112
0.000180896
0.000180781
0.000180737
0.00016747
0.000167534
0.000167693
0.000167989
0.000168474
0.000169204
0.000170235
0.000171604
0.000173318
0.000175333
0.000177559
0.000179877
0.000182171
0.000184365
0.000186433
0.00018838
0.00019006
0.000191209
0.000191697
0.000191506
0.000190666
0.000189329
0.000187739
0.000186142
0.000184718
0.000183561
0.000182692
0.000182087
0.0001817
0.000181477
0.000181366
0.000181327
0.000167771
0.000167838
0.000168008
0.000168326
0.000168848
0.000169635
0.000170742
0.000172201
0.000174006
0.000176101
0.00017838
0.000180723
0.000183027
0.000185241
0.000187372
0.000189456
0.000191358
0.000192764
0.000193464
0.000193388
0.000192543
0.000191088
0.000189304
0.000187492
0.000185881
0.000184592
0.000183643
0.000182999
0.0001826
0.000182378
0.000182274
0.00018224
0.000168136
0.000168208
0.000168389
0.00016873
0.000169292
0.000170138
0.000171325
0.000172877
0.000174777
0.000176952
0.000179284
0.000181653
0.000183974
0.000186224
0.000188444
0.0001907
0.00019287
0.000194591
0.000195575
0.000195703
0.00019495
0.000193459
0.000191527
0.0001895
0.000187671
0.000186208
0.000185146
0.000184442
0.000184018
0.000183793
0.000183694
0.000183664
0.000168557
0.000168632
0.000168823
0.000169186
0.000169785
0.000170689
0.000171952
0.000173593
0.000175582
0.000177831
0.000180213
0.000182609
0.000184952
0.000187247
0.000189561
0.000191992
0.000194436
0.000196508
0.000197868
0.000198349
0.000197874
0.000196538
0.000194612
0.000192461
0.000190436
0.00018877
0.000187549
0.000186743
0.000186263
0.000186014
0.000185908
0.000185878
0.000169014
0.000169091
0.000169291
0.000169671
0.000170301
0.000171252
0.000172578
0.000174293
0.000176357
0.000178667
0.000181089
0.000183506
0.000185861
0.000188179
0.000190548
0.000193094
0.000195757
0.000198186
0.000200028
0.000201065
0.000201145
0.000200275
0.000198652
0.000196609
0.000194523
0.000192691
0.00019128
0.000190315
0.000189726
0.000189411
0.000189272
0.00018923
0.00016948
0.000169559
0.000169763
0.000170152
0.000170801
0.00017178
0.000173146
0.000174909
0.000177019
0.000179367
0.000181806
0.000184216
0.000186541
0.000188811
0.000191126
0.000193642
0.000196386
0.000199132
0.000201548
0.000203355
0.000204298
0.000204272
0.000203361
0.000201808
0.000199956
0.000198137
0.000196597
0.000195457
0.000194711
0.000194283
0.000194077
0.000194007
0.000169919
0.000169998
0.000170202
0.000170592
0.000171241
0.000172223
0.000173593
0.000175362
0.000177476
0.000179816
0.000182225
0.000184567
0.000186772
0.00018886
0.00019093
0.000193181
0.000195788
0.000198747
0.00020177
0.000204489
0.000206534
0.000207675
0.000207867
0.000207237
0.000206038
0.000204577
0.000203145
0.00020195
0.000201085
0.000200541
0.000200255
0.000200147
0.000170285
0.000170363
0.000170563
0.000170942
0.000171571
0.000172522
0.00017385
0.000175567
0.00017762
0.000179882
0.000182184
0.000184361
0.000186315
0.000188035
0.000189614
0.000191303
0.000193493
0.000196486
0.000200054
0.000203721
0.000206978
0.000209459
0.000210995
0.000211599
0.000211424
0.000210713
0.000209743
0.000208767
0.000207958
0.000207392
0.000207065
0.000206931
0.000170518
0.000170594
0.000170785
0.000171142
0.000171728
0.000172611
0.000173843
0.000175438
0.000177345
0.000179438
0.000181531
0.000183431
0.000184992
0.000186161
0.000187017
0.000187863
0.000189335
0.000192114
0.00019607
0.000200631
0.000205129
0.000209028
0.000212013
0.000213988
0.000215022
0.000215298
0.000215059
0.000214561
0.00021402
0.000213576
0.000213289
0.000213161
0.000170538
0.000170612
0.000170791
0.000171116
0.00017164
0.000172419
0.000173499
0.000174896
0.000176566
0.00017839
0.000180178
0.00018171
0.000182795
0.000183325
0.000183347
0.000183189
0.000183698
0.000185941
0.000189994
0.000195282
0.000201006
0.000206418
0.000210989
0.00021446
0.000216802
0.000218153
0.000218739
0.000218823
0.000218649
0.000218406
0.000218211
0.000218111
0.000170268
0.000170339
0.000170505
0.000170798
0.000171255
0.000171919
0.000172826
0.000173989
0.000175373
0.000176876
0.000178322
0.000179486
0.000180149
0.000180158
0.000179511
0.0001785
0.000178052
0.000179477
0.000183149
0.00018869
0.000195335
0.000202176
0.000208412
0.000213527
0.000217317
0.000219833
0.000221287
0.000221964
0.000222155
0.000222108
0.000222
0.000221926
0.000169753
0.000169822
0.000169979
0.000170247
0.000170653
0.000171224
0.000171984
0.000172941
0.000174069
0.000175282
0.00017643
0.000177308
0.000177698
0.000177432
0.000176474
0.000175063
0.000174088
0.000174866
0.00017792
0.000183151
0.000190037
0.000197733
0.000205283
0.000211897
0.000217123
0.000220847
0.000223213
0.000224507
0.000225068
0.000225208
0.000225173
0.000225118
0.000169106
0.000169172
0.000169323
0.000169575
0.000169945
0.00017045
0.000171103
0.000171907
0.000172835
0.000173819
0.000174734
0.000175408
0.000175648
0.000175298
0.000174315
0.000172901
0.000171881
0.000172445
0.000175092
0.000179881
0.000186531
0.000194417
0.000202637
0.000210275
0.000216653
0.000221457
0.000224701
0.000226623
0.000227572
0.00022791
0.000227951
0.000227911
0.000168418
0.000168481
0.000168621
0.000168855
0.000169194
0.00016965
0.000170226
0.000170916
0.000171694
0.000172501
0.000173237
0.000173764
0.00017393
0.000173613
0.000172792
0.000171671
0.000170987
0.000171713
0.000174248
0.000178705
0.000184958
0.000192594
0.000200912
0.000209043
0.000216192
0.000221856
0.000225884
0.000228415
0.000229766
0.000230321
0.000230448
0.000230426
0.000167837
0.000167888
0.000168004
0.000168201
0.000168495
0.000168894
0.000169398
0.000169994
0.000170653
0.000171324
0.000171926
0.000172359
0.000172521
0.000172343
0.000171853
0.000171274
0.000171222
0.000172386
0.000175023
0.000179266
0.0001851
0.000192273
0.000200278
0.000208414
0.000215916
0.000222164
0.000226836
0.000229932
0.000231689
0.000232479
0.000232704
0.000232704
0.000167599
0.000167623
0.000167686
0.000167806
0.000168008
0.000168308
0.000168711
0.000169204
0.000169758
0.000170326
0.00017085
0.000171272
0.000171544
0.000171661
0.000171695
0.000171882
0.000172669
0.00017442
0.000177256
0.000181324
0.000186703
0.000193289
0.000200738
0.000208509
0.000215966
0.000222489
0.000227625
0.000231211
0.000233364
0.000234406
0.000234743
0.000234769
0.000168019
0.000167996
0.000167963
0.000167947
0.000167985
0.000168115
0.000168361
0.000168722
0.000169178
0.000169695
0.000170242
0.000170798
0.000171367
0.000171982
0.000172736
0.000173839
0.000175531
0.000177873
0.00018089
0.000184754
0.000189613
0.000195496
0.000202215
0.000209374
0.000216466
0.00022295
0.000228331
0.000232299
0.000234819
0.000236119
0.000236584
0.000236642
0.000169428
0.000169336
0.000169164
0.000168953
0.000168762
0.000168661
0.000168707
0.00016893
0.000169332
0.000169902
0.00017063
0.00017152
0.000172592
0.000173882
0.00017546
0.000177475
0.000179968
0.000182765
0.000185854
0.000189437
0.000193713
0.000198802
0.000204653
0.000211018
0.000217511
0.00022368
0.000229062
0.00023326
0.000236087
0.000237639
0.000238243
0.00023834
0.000172103
0.000171921
0.000171584
0.000171158
0.000170738
0.000170424
0.00017031
0.000170468
0.000170932
0.000171707
0.00017279
0.000174178
0.00017587
0.000177868
0.000180195
0.000182932
0.000185967
0.000188994
0.000191997
0.000195211
0.000198859
0.000203113
0.000208017
0.000213454
0.000219165
0.000224798
0.00022994
0.000234179
0.000237211
0.000238986
0.000239735
0.000239878
0.000176221
0.000175937
0.000175449
0.000174877
0.000174346
0.000173975
0.000173869
0.000174129
0.000174813
0.000175925
0.000177446
0.000179347
0.000181588
0.00018413
0.000186948
0.000190076
0.000193316
0.000196317
0.00019908
0.000201853
0.000204862
0.000208291
0.000212239
0.000216683
0.000221482
0.000226392
0.00023108
0.000235152
0.000238247
0.000240185
0.00024107
0.000241266
0.000181867
0.000181488
0.000180933
0.000180395
0.000180008
0.000179853
0.000180003
0.000180553
0.000181559
0.000183015
0.000184889
0.000187127
0.000189664
0.000192434
0.000195389
0.000198531
0.000201643
0.000204391
0.000206793
0.000209084
0.000211475
0.000214136
0.000217181
0.000220645
0.000224473
0.000228528
0.000232574
0.000236277
0.000239264
0.000241266
0.00024226
0.000242512
0.000189094
0.000188659
0.000188212
0.000187989
0.000188049
0.000188374
0.000188963
0.000189878
0.00019116
0.000192809
0.000194798
0.000197074
0.000199568
0.000202212
0.000204953
0.000207783
0.000210503
0.000212831
0.000214795
0.000216599
0.000218418
0.000220394
0.000222635
0.000225196
0.000228076
0.000231217
0.000234483
0.000237633
0.000240332
0.000242271
0.000243316
0.00024362
0.000198009
0.00019762
0.00019754
0.000197899
0.000198576
0.000199442
0.00020044
0.000201601
0.000202963
0.000204555
0.00020637
0.000208375
0.000210517
0.000212743
0.000215006
0.000217297
0.000219456
0.000221268
0.000222762
0.000224096
0.000225404
0.000226793
0.000228349
0.000230126
0.000232146
0.000234397
0.000236821
0.000239278
0.000241518
0.000243245
0.000244259
0.000244594
0.000208861
0.000208718
0.000209237
0.000210193
0.000211321
0.000212475
0.000213605
0.000214741
0.000215926
0.000217212
0.000218615
0.000220124
0.000221711
0.000223338
0.000224972
0.000226606
0.000228128
0.00022939
0.000230417
0.000231315
0.000232177
0.000233074
0.000234066
0.000235194
0.000236482
0.000237936
0.000239541
0.000241237
0.000242878
0.000244239
0.000245112
0.00024544
0.000222119
0.000222444
0.000223396
0.000224469
0.000225521
0.000226495
0.000227373
0.000228185
0.000228972
0.000229782
0.000230639
0.000231545
0.000232488
0.000233449
0.000234408
0.00023536
0.00023624
0.000236967
0.000237553
0.000238059
0.000238537
0.000239028
0.000239564
0.000240171
0.000240862
0.000241647
0.000242524
0.000243478
0.000244445
0.000245305
0.000245911
0.00024617
0.000238341
0.000238593
0.00023908
0.000239548
0.000239974
0.000240354
0.000240684
0.000240976
0.000241248
0.00024152
0.000241803
0.0002421
0.000242407
0.000242719
0.000243029
0.000243337
0.00024362
0.000243853
0.000244041
0.000244202
0.000244353
0.000244506
0.000244673
0.00024486
0.000245073
0.000245315
0.000245586
0.000245883
0.000246191
0.000246479
0.000246698
0.000246804
)
;


// ************************************************************************* //
