/*--------------------------------*- C++ -*----------------------------------*\
| =========                 |                                                 |
| \\      /  F ield         | OpenFOAM: The Open Source CFD Toolbox           |
|  \\    /   O peration     | Version:  2212                                  |
|   \\  /    A nd           | Website:  www.openfoam.com                      |
|    \\/     M anipulation  |                                                 |
\*---------------------------------------------------------------------------*/
FoamFile
{
    version     2.0;
    format      ascii;
    arch        "LSB;label=64;scalar=64";
    class       volScalarField;
    location    "1980";
    object      Saa;
}
// * * * * * * * * * * * * * * * * * * * * * * * * * * * * * * * * * * * * * //

dimensions      [1 -3 0 0 0 0 0];

internalField   nonuniform List<scalar> 
1024
(
0.00548325
0.00548326
0.00548331
0.0054834
0.00548354
0.00548375
0.00548406
0.00548447
0.00548499
0.00548562
0.00548633
0.00548708
0.00548782
0.00548849
0.00548906
0.00548952
0.00548983
0.00548998
0.00548999
0.00548988
0.00548968
0.00548941
0.0054891
0.00548879
0.00548851
0.00548826
0.00548807
0.00548793
0.00548784
0.00548778
0.00548775
0.00548773
0.00548325
0.00548327
0.00548332
0.0054834
0.00548355
0.00548376
0.00548407
0.00548448
0.00548501
0.00548564
0.00548636
0.00548711
0.00548784
0.00548851
0.00548908
0.00548954
0.00548985
0.00549
0.00549001
0.0054899
0.0054897
0.00548943
0.00548913
0.00548881
0.00548852
0.00548828
0.00548808
0.00548794
0.00548785
0.00548779
0.00548776
0.00548774
0.00548326
0.00548328
0.00548333
0.00548342
0.00548357
0.00548379
0.0054841
0.00548452
0.00548505
0.00548569
0.00548641
0.00548717
0.0054879
0.00548856
0.00548912
0.00548958
0.0054899
0.00549005
0.00549006
0.00548995
0.00548975
0.00548948
0.00548917
0.00548885
0.00548856
0.00548831
0.00548811
0.00548797
0.00548787
0.00548781
0.00548778
0.00548776
0.00548329
0.00548331
0.00548336
0.00548345
0.0054836
0.00548383
0.00548415
0.00548458
0.00548513
0.00548578
0.00548651
0.00548726
0.00548799
0.00548864
0.0054892
0.00548965
0.00548997
0.00549013
0.00549015
0.00549005
0.00548985
0.00548957
0.00548925
0.00548892
0.00548862
0.00548836
0.00548816
0.00548801
0.00548791
0.00548785
0.00548782
0.0054878
0.00548333
0.00548335
0.0054834
0.0054835
0.00548366
0.0054839
0.00548423
0.00548468
0.00548524
0.00548591
0.00548664
0.00548739
0.00548811
0.00548876
0.00548931
0.00548976
0.00549009
0.00549027
0.0054903
0.00549021
0.00549
0.00548971
0.00548937
0.00548903
0.00548871
0.00548844
0.00548823
0.00548808
0.00548797
0.00548791
0.00548788
0.00548787
0.00548339
0.00548341
0.00548347
0.00548357
0.00548374
0.00548399
0.00548434
0.00548481
0.0054854
0.00548608
0.00548682
0.00548757
0.00548828
0.00548891
0.00548945
0.00548991
0.00549026
0.00549046
0.00549052
0.00549044
0.00549023
0.00548991
0.00548955
0.00548918
0.00548884
0.00548855
0.00548833
0.00548818
0.00548807
0.00548801
0.00548798
0.00548797
0.00548347
0.0054835
0.00548356
0.00548367
0.00548384
0.00548411
0.00548449
0.00548498
0.00548559
0.00548629
0.00548704
0.00548778
0.00548848
0.00548909
0.00548963
0.0054901
0.00549048
0.00549073
0.00549082
0.00549076
0.00549054
0.0054902
0.0054898
0.00548939
0.00548902
0.00548872
0.00548849
0.00548833
0.00548822
0.00548816
0.00548813
0.00548812
0.00548358
0.00548361
0.00548367
0.00548379
0.00548398
0.00548426
0.00548466
0.00548518
0.00548582
0.00548653
0.00548729
0.00548802
0.0054887
0.0054893
0.00548984
0.00549033
0.00549075
0.00549106
0.0054912
0.00549117
0.00549096
0.0054906
0.00549017
0.00548971
0.00548931
0.00548897
0.00548873
0.00548856
0.00548845
0.00548839
0.00548836
0.00548836
0.00548371
0.00548374
0.00548381
0.00548393
0.00548413
0.00548444
0.00548486
0.00548541
0.00548607
0.0054868
0.00548755
0.00548828
0.00548894
0.00548953
0.00549006
0.00549058
0.00549105
0.00549143
0.00549164
0.00549167
0.00549149
0.00549114
0.00549068
0.00549019
0.00548974
0.00548937
0.0054891
0.00548892
0.00548881
0.00548875
0.00548873
0.00548872
0.00548386
0.00548389
0.00548396
0.00548409
0.00548431
0.00548463
0.00548507
0.00548565
0.00548632
0.00548707
0.00548782
0.00548853
0.00548917
0.00548974
0.00549028
0.00549081
0.00549134
0.00549179
0.00549209
0.00549221
0.00549211
0.00549182
0.00549138
0.00549088
0.00549039
0.00548999
0.00548969
0.0054895
0.00548938
0.00548932
0.00548929
0.00548928
0.00548403
0.00548405
0.00548413
0.00548426
0.00548448
0.00548482
0.00548528
0.00548587
0.00548656
0.00548731
0.00548805
0.00548874
0.00548936
0.00548991
0.00549044
0.00549097
0.00549153
0.00549205
0.00549247
0.00549273
0.00549278
0.00549261
0.00549227
0.00549182
0.00549135
0.00549092
0.0054906
0.00549037
0.00549023
0.00549016
0.00549012
0.00549012
0.00548419
0.00548422
0.00548429
0.00548443
0.00548465
0.005485
0.00548546
0.00548606
0.00548675
0.0054875
0.00548823
0.00548889
0.00548947
0.00548998
0.00549045
0.00549094
0.00549149
0.00549208
0.00549264
0.00549308
0.00549335
0.0054934
0.00549325
0.00549295
0.00549256
0.00549217
0.00549184
0.00549159
0.00549142
0.00549133
0.00549128
0.00549127
0.00548434
0.00548437
0.00548444
0.00548458
0.0054848
0.00548514
0.0054856
0.00548619
0.00548687
0.0054876
0.0054883
0.00548892
0.00548944
0.00548986
0.00549023
0.00549062
0.00549111
0.00549173
0.00549243
0.00549309
0.00549362
0.00549396
0.00549408
0.00549402
0.00549382
0.00549355
0.00549327
0.00549304
0.00549286
0.00549275
0.0054927
0.00549267
0.00548447
0.00548449
0.00548456
0.00548469
0.00548491
0.00548523
0.00548567
0.00548623
0.00548689
0.00548757
0.00548823
0.00548878
0.0054892
0.00548949
0.0054897
0.0054899
0.00549026
0.00549088
0.00549171
0.0054926
0.00549341
0.00549406
0.0054945
0.00549473
0.00549479
0.00549472
0.00549458
0.00549442
0.00549429
0.00549419
0.00549413
0.00549411
0.00548454
0.00548457
0.00548463
0.00548475
0.00548495
0.00548525
0.00548565
0.00548617
0.00548677
0.00548739
0.00548797
0.00548843
0.00548872
0.00548884
0.00548882
0.00548877
0.00548892
0.00548948
0.00549042
0.00549153
0.00549265
0.00549362
0.00549438
0.00549491
0.00549524
0.0054954
0.00549544
0.00549542
0.00549536
0.00549531
0.00549527
0.00549526
0.00548454
0.00548456
0.00548462
0.00548473
0.00548491
0.00548517
0.00548552
0.00548597
0.00548649
0.00548703
0.00548751
0.00548786
0.00548801
0.00548794
0.00548768
0.00548734
0.00548721
0.00548764
0.00548862
0.00548993
0.00549136
0.00549269
0.00549381
0.00549467
0.00549527
0.00549566
0.00549588
0.00549598
0.00549601
0.00549601
0.005496
0.005496
0.00548443
0.00548446
0.00548451
0.00548461
0.00548477
0.00548499
0.00548528
0.00548566
0.00548609
0.00548653
0.00548692
0.00548717
0.00548721
0.005487
0.00548655
0.00548597
0.00548558
0.00548579
0.00548667
0.00548807
0.00548975
0.00549144
0.00549295
0.00549418
0.00549509
0.00549571
0.0054961
0.00549632
0.00549643
0.00549647
0.00549648
0.00549648
0.00548424
0.00548426
0.00548432
0.00548441
0.00548455
0.00548474
0.00548499
0.0054853
0.00548565
0.00548601
0.00548632
0.0054865
0.00548649
0.00548622
0.0054857
0.00548503
0.0054845
0.00548452
0.00548523
0.00548655
0.0054883
0.00549021
0.00549205
0.00549362
0.00549484
0.00549571
0.00549628
0.00549661
0.00549679
0.00549687
0.00549689
0.0054969
0.005484
0.00548402
0.00548408
0.00548416
0.00548429
0.00548446
0.00548468
0.00548494
0.00548524
0.00548553
0.00548578
0.00548592
0.00548589
0.00548563
0.00548513
0.00548448
0.00548394
0.00548389
0.00548447
0.00548567
0.00548735
0.00548932
0.00549131
0.00549311
0.00549458
0.00549568
0.00549642
0.00549687
0.00549712
0.00549723
0.00549728
0.00549728
0.00548373
0.00548376
0.00548381
0.00548389
0.00548401
0.00548417
0.00548437
0.0054846
0.00548485
0.00548509
0.0054853
0.00548541
0.00548538
0.00548515
0.00548473
0.00548418
0.00548374
0.00548373
0.00548427
0.00548535
0.00548692
0.00548882
0.00549083
0.00549274
0.00549438
0.00549564
0.00549653
0.0054971
0.00549742
0.00549757
0.00549763
0.00549764
0.00548349
0.00548351
0.00548355
0.00548363
0.00548374
0.00548389
0.00548407
0.00548427
0.00548449
0.0054847
0.00548487
0.00548496
0.00548494
0.00548478
0.00548447
0.00548409
0.00548383
0.00548393
0.00548448
0.00548549
0.00548693
0.0054887
0.00549063
0.00549254
0.00549424
0.00549561
0.00549663
0.0054973
0.00549769
0.00549788
0.00549796
0.00549797
0.00548332
0.00548334
0.00548337
0.00548343
0.00548352
0.00548364
0.0054838
0.00548397
0.00548416
0.00548434
0.00548449
0.00548459
0.0054846
0.00548453
0.00548439
0.00548423
0.0054842
0.00548445
0.00548504
0.00548599
0.0054873
0.00548891
0.0054907
0.00549251
0.00549418
0.00549561
0.0054967
0.00549746
0.00549792
0.00549816
0.00549825
0.00549828
0.00548332
0.00548333
0.00548334
0.00548336
0.00548341
0.00548349
0.00548361
0.00548375
0.00548391
0.00548408
0.00548423
0.00548436
0.00548445
0.00548451
0.00548457
0.00548466
0.00548488
0.00548529
0.00548592
0.00548681
0.00548798
0.0054894
0.005491
0.00549265
0.00549424
0.00549565
0.00549678
0.0054976
0.00549813
0.00549841
0.00549852
0.00549855
0.00548356
0.00548355
0.00548353
0.00548351
0.0054835
0.00548353
0.00548359
0.0054837
0.00548384
0.00548401
0.0054842
0.0054844
0.00548462
0.00548485
0.00548512
0.00548546
0.0054859
0.00548643
0.00548709
0.0054879
0.00548891
0.00549013
0.0054915
0.00549297
0.00549441
0.00549575
0.00549687
0.00549773
0.00549831
0.00549863
0.00549876
0.0054988
0.0054841
0.00548407
0.00548401
0.00548394
0.00548388
0.00548385
0.00548387
0.00548395
0.0054841
0.00548431
0.00548457
0.00548489
0.00548525
0.00548566
0.00548612
0.00548665
0.00548724
0.00548785
0.00548849
0.00548921
0.00549006
0.00549106
0.00549221
0.00549345
0.00549472
0.00549593
0.005497
0.00549786
0.00549847
0.00549882
0.00549898
0.00549902
0.00548498
0.00548492
0.00548482
0.00548471
0.00548462
0.00548457
0.00548459
0.00548468
0.00548487
0.00548515
0.0054855
0.00548593
0.00548642
0.00548697
0.00548755
0.0054882
0.00548886
0.00548948
0.00549007
0.00549069
0.00549138
0.00549218
0.00549309
0.0054941
0.00549516
0.00549621
0.00549719
0.00549801
0.00549862
0.005499
0.00549918
0.00549922
0.00548619
0.00548611
0.005486
0.00548589
0.00548583
0.00548582
0.00548588
0.00548603
0.00548628
0.00548662
0.00548705
0.00548756
0.00548811
0.00548872
0.00548935
0.00549001
0.00549066
0.00549124
0.00549175
0.00549226
0.0054928
0.00549341
0.00549411
0.00549489
0.00549573
0.0054966
0.00549744
0.00549818
0.00549877
0.00549915
0.00549935
0.0054994
0.00548774
0.00548765
0.00548756
0.00548752
0.00548755
0.00548764
0.00548778
0.00548801
0.00548831
0.00548869
0.00548914
0.00548964
0.00549019
0.00549077
0.00549136
0.00549197
0.00549254
0.00549304
0.00549346
0.00549386
0.00549426
0.00549471
0.00549522
0.0054958
0.00549643
0.0054971
0.00549778
0.00549841
0.00549893
0.0054993
0.0054995
0.00549956
0.00548965
0.00548957
0.00548956
0.00548964
0.00548979
0.00548999
0.00549022
0.00549049
0.0054908
0.00549116
0.00549157
0.00549201
0.00549249
0.00549297
0.00549346
0.00549396
0.00549442
0.0054948
0.00549512
0.00549542
0.00549571
0.00549602
0.00549637
0.00549677
0.00549721
0.00549769
0.00549819
0.00549869
0.00549912
0.00549944
0.00549963
0.00549969
0.00549196
0.00549193
0.00549205
0.00549225
0.0054925
0.00549275
0.005493
0.00549326
0.00549352
0.00549381
0.00549413
0.00549446
0.00549481
0.00549517
0.00549552
0.00549588
0.0054962
0.00549647
0.00549669
0.00549689
0.00549708
0.00549728
0.0054975
0.00549775
0.00549803
0.00549835
0.00549868
0.00549902
0.00549934
0.00549959
0.00549974
0.0054998
0.00549476
0.00549483
0.00549504
0.00549526
0.00549549
0.0054957
0.00549589
0.00549607
0.00549625
0.00549643
0.00549662
0.00549682
0.00549703
0.00549724
0.00549745
0.00549766
0.00549784
0.005498
0.00549813
0.00549824
0.00549834
0.00549845
0.00549857
0.0054987
0.00549886
0.00549902
0.00549921
0.0054994
0.00549959
0.00549974
0.00549985
0.0054999
0.00549817
0.00549822
0.00549832
0.00549842
0.00549851
0.0054986
0.00549867
0.00549873
0.00549879
0.00549885
0.00549892
0.00549898
0.00549905
0.00549912
0.00549919
0.00549925
0.00549931
0.00549936
0.0054994
0.00549944
0.00549947
0.00549951
0.00549954
0.00549958
0.00549963
0.00549968
0.00549974
0.0054998
0.00549986
0.00549991
0.00549995
0.00549997
)
;

boundaryField
{
    movingWall
    {
        type            fixedValue;
        value           uniform 0.0055;
    }
    fixedWalls
    {
        type            zeroGradient;
    }
    floor
    {
        type            zeroGradient;
    }
    frontAndBack
    {
        type            empty;
    }
}


// ************************************************************************* //
