/*--------------------------------*- C++ -*----------------------------------*\
| =========                 |                                                 |
| \\      /  F ield         | OpenFOAM: The Open Source CFD Toolbox           |
|  \\    /   O peration     | Version:  2212                                  |
|   \\  /    A nd           | Website:  www.openfoam.com                      |
|    \\/     M anipulation  |                                                 |
\*---------------------------------------------------------------------------*/
FoamFile
{
    version     2.0;
    format      ascii;
    arch        "LSB;label=64;scalar=64";
    class       volScalarField;
    location    "1980";
    object      Sco2;
}
// * * * * * * * * * * * * * * * * * * * * * * * * * * * * * * * * * * * * * //

dimensions      [1 -3 0 0 0 0 0];

internalField   nonuniform List<scalar> 
1024
(
0.00635873
0.00636062
0.00636545
0.00637439
0.00638895
0.00641089
0.00644214
0.0064845
0.00653917
0.00660616
0.0066837
0.00676821
0.00685482
0.00693852
0.00701538
0.00708254
0.00713255
0.0071588
0.00716322
0.00715002
0.00712279
0.00708551
0.00704285
0.00699963
0.00696008
0.00692688
0.00690101
0.00688222
0.00686952
0.00686163
0.00685733
0.00685558
0.00635928
0.00636125
0.00636614
0.00637516
0.00638985
0.00641199
0.00644353
0.00648623
0.0065413
0.00660867
0.00668653
0.00677126
0.00685795
0.00694163
0.00701845
0.00708561
0.00713571
0.00716214
0.00716673
0.00715365
0.00712642
0.00708899
0.00704608
0.00700252
0.00696257
0.00692897
0.00690277
0.00688374
0.00687088
0.0068629
0.00685857
0.00685682
0.0063608
0.00636283
0.00636783
0.00637704
0.00639202
0.00641462
0.00644678
0.00649027
0.00654621
0.00661445
0.00669302
0.00677818
0.006865
0.00694863
0.00702537
0.00709262
0.00714315
0.00717021
0.00717538
0.00716259
0.00713518
0.00709716
0.00705342
0.00700894
0.00696808
0.00693366
0.00690679
0.00688729
0.00687414
0.00686602
0.00686162
0.00685986
0.00636362
0.00636571
0.00637088
0.00638039
0.00639589
0.00641924
0.00645245
0.00649724
0.00655464
0.00662427
0.00670394
0.00678973
0.00687672
0.00696023
0.00703693
0.00710457
0.00715619
0.00718478
0.00719125
0.00717901
0.00715107
0.0071116
0.00706604
0.00701975
0.00697728
0.00694155
0.00691368
0.00689352
0.00687999
0.00687169
0.00686724
0.00686547
0.0063681
0.00637029
0.00637568
0.00638565
0.00640188
0.00642635
0.00646108
0.00650777
0.00656723
0.0066388
0.00671995
0.00680653
0.00689366
0.00697704
0.00705389
0.00712254
0.00717641
0.00720796
0.00721684
0.00720553
0.00717654
0.00713442
0.00708558
0.00703619
0.00699116
0.00695351
0.00692432
0.00690333
0.00688939
0.00688093
0.00687646
0.00687472
0.00637464
0.00637694
0.00638264
0.00639319
0.00641042
0.00643639
0.00647316
0.00652233
0.00658447
0.00665848
0.00674139
0.00682883
0.0069161
0.00699945
0.00707689
0.0071476
0.00720544
0.00724192
0.00725473
0.00724492
0.00721443
0.00716834
0.00711444
0.00706026
0.00701139
0.00697104
0.00694013
0.0069182
0.00690385
0.00689532
0.00689092
0.00688925
0.00638355
0.00638598
0.00639205
0.00640334
0.0064218
0.00644963
0.00648892
0.00654112
0.00660644
0.00668327
0.00676813
0.00685648
0.00694392
0.00702753
0.00710635
0.00718058
0.0072446
0.00728841
0.00730702
0.00729972
0.00726773
0.00721675
0.00715614
0.00709526
0.00704098
0.00699691
0.00696376
0.0069407
0.00692596
0.00691746
0.00691324
0.00691172
0.006395
0.00639758
0.00640406
0.00641619
0.00643608
0.00646607
0.00650825
0.00656386
0.00663269
0.00671254
0.00679942
0.00688871
0.00697652
0.00706092
0.00714215
0.00722158
0.00729408
0.0073477
0.00737439
0.00737145
0.00733926
0.00728381
0.00721581
0.00714672
0.00708533
0.0070362
0.00700001
0.00697547
0.00696024
0.0069518
0.00694784
0.00694654
0.00640893
0.00641166
0.00641856
0.00643157
0.00645298
0.00648526
0.00653047
0.00658965
0.00666208
0.00674495
0.00683385
0.00692415
0.00701261
0.00709841
0.00718302
0.00726901
0.00735171
0.00741732
0.00745485
0.00745971
0.00743099
0.00737419
0.00730053
0.00722325
0.00715355
0.00709779
0.00705732
0.00703047
0.00701431
0.00700572
0.00700194
0.00700082
0.00642496
0.00642782
0.00643511
0.00644894
0.0064718
0.00650625
0.00655438
0.00661694
0.00669277
0.00677847
0.00686926
0.00696061
0.00704992
0.0071374
0.0072256
0.00731824
0.00741141
0.0074904
0.00754225
0.00756057
0.00754245
0.00749155
0.00741813
0.00733613
0.00725895
0.00719545
0.00714892
0.00711817
0.0070999
0.00709039
0.00708634
0.00708521
0.00644239
0.00644534
0.00645294
0.00646742
0.00649144
0.00652769
0.00657823
0.00664362
0.00672227
0.00681034
0.00690267
0.00699479
0.00708457
0.00717293
0.00726323
0.00736028
0.00746176
0.00755435
0.00762456
0.0076641
0.00766714
0.007634
0.00757213
0.00749426
0.00741472
0.0073449
0.00729111
0.00725432
0.00723188
0.00721988
0.00721458
0.00721299
0.00646015
0.00646316
0.00647093
0.00648579
0.0065105
0.00654785
0.00659989
0.00666708
0.00674754
0.00683701
0.00693
0.00702185
0.00711047
0.00719701
0.00728524
0.00738114
0.00748575
0.00759041
0.00768253
0.00775137
0.00778732
0.00778636
0.00775161
0.00769243
0.00762183
0.00755248
0.0074938
0.00745034
0.00742191
0.00740559
0.00739774
0.00739508
0.00647688
0.0064799
0.00648768
0.00650255
0.00652729
0.00656472
0.00661694
0.00668436
0.00676495
0.00685413
0.00694596
0.00703522
0.00711929
0.00719888
0.00727779
0.00736356
0.00746296
0.00757574
0.00769097
0.00779461
0.00787257
0.00791605
0.00792338
0.00789935
0.00785364
0.00779795
0.00774337
0.00769783
0.00766487
0.00764414
0.00763322
0.00762909
0.00649083
0.00649381
0.00650142
0.00651588
0.00653985
0.00657609
0.00662672
0.00669219
0.00677043
0.00685667
0.00694438
0.00702739
0.00710187
0.00716742
0.00722762
0.00729201
0.00737546
0.00748957
0.00762557
0.00776535
0.0078895
0.00798405
0.00804259
0.00806562
0.00805898
0.00803187
0.00799489
0.00795767
0.00792683
0.00790526
0.0078928
0.00788769
0.00649971
0.00650261
0.00650989
0.00652351
0.00654585
0.00657949
0.00662645
0.00668725
0.00675995
0.00683972
0.00691951
0.00699193
0.00705143
0.007096
0.00712862
0.00716086
0.00721697
0.0073229
0.00747369
0.00764755
0.00781902
0.00796763
0.00808143
0.00815669
0.00819611
0.00820662
0.00819753
0.00817855
0.0081579
0.00814097
0.00813005
0.00812516
0.0065005
0.0065033
0.00651011
0.00652252
0.00654249
0.00657217
0.00661336
0.00666661
0.00673027
0.00679978
0.00686792
0.00692634
0.00696768
0.00698789
0.00698875
0.00698271
0.00700209
0.0070876
0.00724209
0.00744365
0.00766184
0.00786815
0.00804239
0.00817467
0.00826396
0.00831544
0.0083378
0.00834099
0.00833434
0.00832509
0.00831765
0.00831385
0.00649019
0.00649288
0.00649922
0.00651039
0.00652782
0.00655313
0.00658769
0.00663201
0.00668478
0.00674207
0.00679718
0.00684157
0.00686683
0.00686716
0.0068425
0.00680398
0.00678689
0.00684124
0.00698118
0.00719238
0.00744568
0.00770643
0.00794416
0.00813913
0.00828359
0.00837949
0.00843491
0.0084607
0.00846798
0.00846622
0.00846208
0.00845928
0.00647056
0.00647318
0.00647918
0.00648941
0.00650487
0.00652662
0.00655559
0.00659209
0.00663507
0.00668132
0.00672507
0.00675852
0.0067734
0.00676327
0.00672677
0.00667296
0.00663579
0.00666546
0.00678186
0.00698126
0.00724373
0.0075371
0.00782487
0.008077
0.00827618
0.00841813
0.00850831
0.00855767
0.00857903
0.00858438
0.00858304
0.00858093
0.00644588
0.00644843
0.00645417
0.00646376
0.00647786
0.00649712
0.00652204
0.00655266
0.00658803
0.00662554
0.00666044
0.00668611
0.00669527
0.00668193
0.00664446
0.00659057
0.00655169
0.00657317
0.00667408
0.00685661
0.0071101
0.00741068
0.00772402
0.00801516
0.00825828
0.00844139
0.00856505
0.00863832
0.00867446
0.00868737
0.00868892
0.00868741
0.00641968
0.00642206
0.00642742
0.00643632
0.00644927
0.00646665
0.0064886
0.0065149
0.00654453
0.0065753
0.00660336
0.00662345
0.00662977
0.00661769
0.00658642
0.00654369
0.00651759
0.00654529
0.00664191
0.0068118
0.00705014
0.0073412
0.00765826
0.00796822
0.00824072
0.00845659
0.00861013
0.00870663
0.00875811
0.00877928
0.00878409
0.00878327
0.00639754
0.00639946
0.00640388
0.00641141
0.00642261
0.00643781
0.00645702
0.00647975
0.00650488
0.00653043
0.00655338
0.00656989
0.00657605
0.0065693
0.00655061
0.00652852
0.00652656
0.00657094
0.00667145
0.00683317
0.00705556
0.00732896
0.00763409
0.00794422
0.00823019
0.00846834
0.00864644
0.00876443
0.0088314
0.00886154
0.0088701
0.00887009
0.00638848
0.00638939
0.00639176
0.00639637
0.00640404
0.00641547
0.00643084
0.00644965
0.00647075
0.00649239
0.00651238
0.00652845
0.00653884
0.00654328
0.00654459
0.0065517
0.0065817
0.00664844
0.00675657
0.00691164
0.00711665
0.00736772
0.00765165
0.00794786
0.0082321
0.00848071
0.0086765
0.00881317
0.00889527
0.00893496
0.00894783
0.00894881
0.00640447
0.0064036
0.00640235
0.00640173
0.00640317
0.00640812
0.00641749
0.00643128
0.00644866
0.00646837
0.00648919
0.00651041
0.00653208
0.00655552
0.00658427
0.0066263
0.00669081
0.00678006
0.00689509
0.00704235
0.00722758
0.00745184
0.00770793
0.00798083
0.00825116
0.00849829
0.00870342
0.00885465
0.00895072
0.00900027
0.009018
0.0090202
0.00645819
0.00645467
0.00644813
0.00644006
0.00643278
0.00642893
0.00643068
0.00643918
0.00645451
0.00647624
0.00650399
0.00653793
0.00657879
0.00662796
0.00668809
0.0067649
0.00685993
0.00696657
0.00708431
0.00722087
0.00738384
0.00757784
0.00780086
0.00804347
0.00829096
0.00852614
0.00873128
0.00889129
0.00899903
0.0090582
0.00908125
0.00908493
0.00656016
0.0065532
0.00654036
0.00652414
0.0065081
0.00649613
0.0064918
0.00649781
0.00651549
0.00654505
0.00658633
0.00663924
0.00670372
0.0067799
0.00686857
0.0069729
0.00708862
0.00720399
0.00731847
0.00744096
0.00758001
0.00774215
0.00792909
0.00813632
0.00835402
0.00856872
0.00876476
0.00892631
0.00904188
0.00910955
0.00913811
0.00914355
0.00671711
0.00670629
0.0066877
0.00666586
0.00664563
0.00663148
0.00662746
0.00663738
0.00666344
0.00670582
0.00676381
0.00683625
0.00692167
0.00701857
0.00712601
0.00724522
0.00736874
0.00748313
0.00758845
0.00769414
0.00780883
0.00793953
0.00809001
0.00825941
0.00844234
0.00862952
0.00880821
0.00896343
0.0090814
0.00915526
0.009189
0.00919648
0.00693233
0.00691787
0.00689671
0.00687621
0.00686144
0.00685556
0.00686128
0.00688223
0.00692057
0.00697609
0.0070475
0.00713281
0.00722951
0.00733512
0.00744773
0.00756752
0.00768614
0.00779087
0.00788242
0.00796978
0.00806091
0.00816232
0.00827839
0.00841042
0.00855637
0.00871092
0.00886515
0.00900628
0.00912014
0.00919647
0.00923433
0.00924396
0.00720781
0.00719122
0.00717418
0.00716568
0.00716798
0.00718035
0.00720281
0.00723768
0.00728654
0.00734942
0.00742523
0.00751196
0.00760702
0.00770783
0.00781229
0.00792018
0.00802385
0.00811258
0.00818746
0.00825622
0.00832555
0.00840089
0.00848629
0.0085839
0.00869369
0.0088134
0.0089379
0.00905796
0.00916088
0.00923476
0.00927461
0.00928619
0.00754762
0.00753279
0.00752974
0.0075434
0.00756924
0.00760222
0.00764026
0.00768452
0.00773644
0.00779712
0.00786631
0.00794272
0.0080244
0.00810925
0.0081955
0.00828283
0.00836512
0.00843419
0.00849114
0.00854199
0.00859183
0.00864478
0.00870408
0.00877183
0.00884883
0.00893464
0.00902705
0.00912069
0.00920608
0.00927189
0.00931053
0.00932331
0.00796128
0.00795583
0.00797559
0.00801205
0.00805502
0.00809901
0.00814211
0.00818539
0.00823057
0.00827957
0.00833305
0.00839059
0.00845106
0.00851308
0.00857538
0.00863767
0.00869567
0.0087438
0.00878291
0.00881716
0.00885
0.0088842
0.00892201
0.00896503
0.00901412
0.00906953
0.00913073
0.00919537
0.00925791
0.0093098
0.00934307
0.00935557
0.00846661
0.00847903
0.00851532
0.00855621
0.0085963
0.00863343
0.00866689
0.00869783
0.00872784
0.00875872
0.00879138
0.00882593
0.00886187
0.00889849
0.00893504
0.00897133
0.0090049
0.00903259
0.00905492
0.00907423
0.00909245
0.00911116
0.0091316
0.00915472
0.00918108
0.00921097
0.00924443
0.00928076
0.00931762
0.00935043
0.00937352
0.00938339
0.00908497
0.00909458
0.00911315
0.00913096
0.00914723
0.0091617
0.00917426
0.0091854
0.00919578
0.00920616
0.00921694
0.00922825
0.00923995
0.00925184
0.00926367
0.00927539
0.00928619
0.00929508
0.00930223
0.00930836
0.00931411
0.00931997
0.00932632
0.00933346
0.00934159
0.00935079
0.00936112
0.00937244
0.0093842
0.00939516
0.00940351
0.00940754
)
;

boundaryField
{
    movingWall
    {
        type            fixedValue;
        value           uniform 0.00942;
    }
    fixedWalls
    {
        type            zeroGradient;
    }
    floor
    {
        type            zeroGradient;
    }
    frontAndBack
    {
        type            empty;
    }
}


// ************************************************************************* //
