/*--------------------------------*- C++ -*----------------------------------*\
| =========                 |                                                 |
| \\      /  F ield         | OpenFOAM: The Open Source CFD Toolbox           |
|  \\    /   O peration     | Version:  2212                                  |
|   \\  /    A nd           | Website:  www.openfoam.com                      |
|    \\/     M anipulation  |                                                 |
\*---------------------------------------------------------------------------*/
FoamFile
{
    version     2.0;
    format      ascii;
    arch        "LSB;label=64;scalar=64";
    class       volVectorField;
    location    "1980";
    object      U;
}
// * * * * * * * * * * * * * * * * * * * * * * * * * * * * * * * * * * * * * //

dimensions      [0 1 -1 0 0 0 0];

internalField   nonuniform List<vector> 
1024
(
(2.10323e-06 -2.14064e-06 0)
(4.99236e-06 -1.63965e-06 0)
(-9.24673e-07 6.03244e-07 0)
(-2.17956e-05 2.75373e-06 0)
(-5.87556e-05 3.94442e-06 0)
(-0.000107995 4.0575e-06 0)
(-0.000163622 3.50412e-06 0)
(-0.000222032 2.94907e-06 0)
(-0.00028562 2.91196e-06 0)
(-0.000362915 3.48355e-06 0)
(-0.000465324 4.46192e-06 0)
(-0.000603589 5.60247e-06 0)
(-0.00078567 6.72311e-06 0)
(-0.0010144 7.62726e-06 0)
(-0.00128064 7.89949e-06 0)
(-0.00153849 6.37007e-06 0)
(-0.00166161 1.33938e-06 0)
(-0.00149423 -8.48485e-06 0)
(-0.000979834 -2.12632e-05 0)
(-0.000229626 -3.07569e-05 0)
(0.000612913 -3.05107e-05 0)
(0.001179 -1.72013e-05 0)
(0.00139634 1.55098e-06 0)
(0.0013354 1.46931e-05 0)
(0.00113199 2.07328e-05 0)
(0.000882929 2.29983e-05 0)
(0.000634549 2.36628e-05 0)
(0.000408586 2.31116e-05 0)
(0.000220416 2.03748e-05 0)
(8.47678e-05 1.37384e-05 0)
(1.1239e-05 2.89711e-06 0)
(-5.66027e-06 -5.78088e-06 0)
(1.83151e-06 -5.2633e-06 0)
(-3.29658e-06 3.26191e-06 0)
(-3.45095e-05 2.24527e-05 0)
(-0.000104428 4.19057e-05 0)
(-0.000216962 5.45891e-05 0)
(-0.000365551 5.82376e-05 0)
(-0.00053789 5.545e-05 0)
(-0.000726025 5.17198e-05 0)
(-0.000935791 5.18823e-05 0)
(-0.00118808 5.73932e-05 0)
(-0.00151131 6.66685e-05 0)
(-0.00193162 7.70122e-05 0)
(-0.00246542 8.57598e-05 0)
(-0.00311064 8.97895e-05 0)
(-0.00382599 8.3417e-05 0)
(-0.00447069 5.62693e-05 0)
(-0.00471845 -5.35258e-06 0)
(-0.00419506 -0.000108377 0)
(-0.00281567 -0.000231032 0)
(-0.000881228 -0.000332151 0)
(0.00132763 -0.000332204 0)
(0.00283147 -0.000207346 0)
(0.00349103 -3.83649e-05 0)
(0.0034474 0.000101525 0)
(0.00300476 0.000188143 0)
(0.00239981 0.000235474 0)
(0.00176586 0.000257441 0)
(0.00117615 0.000257573 0)
(0.000679498 0.000230977 0)
(0.000311821 0.00017204 0)
(9.17675e-05 8.7595e-05 0)
(3.66815e-06 1.15699e-05 0)
(-4.8948e-07 5.0494e-07 0)
(-2.52431e-05 3.47002e-05 0)
(-9.62201e-05 8.84243e-05 0)
(-0.00022965 0.000141286 0)
(-0.000430342 0.000177211 0)
(-0.000690788 0.000189968 0)
(-0.000996122 0.000185439 0)
(-0.00133709 0.000177487 0)
(-0.00172267 0.000178863 0)
(-0.00218206 0.000193838 0)
(-0.00275425 0.000218272 0)
(-0.00347309 0.000244301 0)
(-0.00435388 0.000263514 0)
(-0.0053772 0.000265928 0)
(-0.0064561 0.000235211 0)
(-0.00735643 0.000145459 0)
(-0.00760693 -3.78603e-05 0)
(-0.00669972 -0.00032673 0)
(-0.00461515 -0.000657845 0)
(-0.00182201 -0.00094031 0)
(0.00140053 -0.000952956 0)
(0.00369896 -0.000625993 0)
(0.00484215 -0.000177391 0)
(0.00496548 0.000216338 0)
(0.00444906 0.00048279 0)
(0.00363413 0.000643352 0)
(0.00273093 0.000725786 0)
(0.00186608 0.000738369 0)
(0.00112243 0.000673712 0)
(0.000554285 0.000526269 0)
(0.000190567 0.000314473 0)
(1.65989e-05 9.23087e-05 0)
(-3.56302e-06 2.49388e-05 0)
(-5.59714e-05 0.000115054 0)
(-0.000180755 0.000228752 0)
(-0.000395587 0.000335126 0)
(-0.000703064 0.000407779 0)
(-0.00109387 0.000436274 0)
(-0.00155252 0.000431667 0)
(-0.00207091 0.000419559 0)
(-0.00266101 0.000423517 0)
(-0.00335558 0.000451486 0)
(-0.00419579 0.000495261 0)
(-0.0052129 0.000538728 0)
(-0.00640999 0.000563924 0)
(-0.00773968 0.000549686 0)
(-0.00906453 0.000464457 0)
(-0.0100749 0.000262818 0)
(-0.0102183 -0.000117553 0)
(-0.0089436 -0.000687353 0)
(-0.0063694 -0.00131587 0)
(-0.00307106 -0.00185424 0)
(0.000641721 -0.00191955 0)
(0.0036011 -0.00133923 0)
(0.00525763 -0.000490821 0)
(0.00569783 0.00029512 0)
(0.00527178 0.00086085 0)
(0.00440718 0.0012231 0)
(0.00337721 0.00142326 0)
(0.00235395 0.00147512 0)
(0.0014506 0.00137106 0)
(0.000740183 0.0011082 0)
(0.00026705 0.000713903 0)
(2.60738e-05 0.000249933 0)
(-7.14012e-06 7.93046e-05 0)
(-9.37229e-05 0.000272913 0)
(-0.000285588 0.000483655 0)
(-0.000600704 0.000669108 0)
(-0.00103635 0.000793082 0)
(-0.00157916 0.000843464 0)
(-0.00221289 0.0008402 0)
(-0.0029313 0.000823806 0)
(-0.00374776 0.000830009 0)
(-0.00469283 0.000869889 0)
(-0.0058005 0.000929368 0)
(-0.00708897 0.000981432 0)
(-0.00854041 0.000995501 0)
(-0.0100762 0.000936256 0)
(-0.0115169 0.000755172 0)
(-0.0125092 0.000386663 0)
(-0.0124809 -0.000262663 0)
(-0.0109232 -0.00118831 0)
(-0.00811035 -0.00217097 0)
(-0.00464615 -0.00299465 0)
(-0.000939927 -0.00318118 0)
(0.0024564 -0.00238735 0)
(0.00462073 -0.00106435 0)
(0.00550794 0.000244906 0)
(0.00531954 0.00123475 0)
(0.00455794 0.00189515 0)
(0.00355264 0.00228136 0)
(0.00250904 0.00241239 0)
(0.00156395 0.00228183 0)
(0.000806676 0.00188947 0)
(0.000294344 0.00126637 0)
(2.93052e-05 0.000474421 0)
(-1.13062e-05 0.000177564 0)
(-0.000137957 0.000545227 0)
(-0.000408705 0.000906625 0)
(-0.000841044 0.00120529 0)
(-0.00142424 0.00139699 0)
(-0.00213818 0.00147349 0)
(-0.00296418 0.00146992 0)
(-0.00389614 0.00144522 0)
(-0.0049453 0.00144723 0)
(-0.0061338 0.0014884 0)
(-0.00748067 0.00154715 0)
(-0.00898464 0.00158437 0)
(-0.0106051 0.00155578 0)
(-0.0122391 0.0014114 0)
(-0.0136847 0.00108689 0)
(-0.0145816 0.000497927 0)
(-0.0143893 -0.000479081 0)
(-0.0127005 -0.00180762 0)
(-0.00989677 -0.00316901 0)
(-0.00654184 -0.00427572 0)
(-0.00308554 -0.00463046 0)
(0.000304797 -0.00378278 0)
(0.00293414 -0.00198957 0)
(0.00433882 -5.06251e-05 0)
(0.00453356 0.00149489 0)
(0.00400877 0.00255066 0)
(0.0031725 0.00319207 0)
(0.00225351 0.00344372 0)
(0.00140339 0.00330272 0)
(0.000719471 0.00277405 0)
(0.000259701 0.00189402 0)
(2.51651e-05 0.000728589 0)
(-1.60113e-05 0.000337637 0)
(-0.000187011 0.000977879 0)
(-0.00054438 0.00156304 0)
(-0.00110423 0.00201882 0)
(-0.00184564 0.002296 0)
(-0.00273938 0.00239883 0)
(-0.00376168 0.00238637 0)
(-0.0049031 0.00234022 0)
(-0.00616829 0.00231985 0)
(-0.00756658 0.00233738 0)
(-0.00909919 0.00236342 0)
(-0.0107458 0.00234773 0)
(-0.0124492 0.00223363 0)
(-0.0140957 0.00195831 0)
(-0.0154843 0.00144433 0)
(-0.0162789 0.000590741 0)
(-0.0160041 -0.000752003 0)
(-0.0143653 -0.0025044 0)
(-0.0117707 -0.0042502 0)
(-0.00870291 -0.00563713 0)
(-0.00554968 -0.00616916 0)
(-0.00249353 -0.00542057 0)
(0.000327153 -0.00335707 0)
(0.00225101 -0.000727798 0)
(0.00299412 0.00150961 0)
(0.00282097 0.00305264 0)
(0.00228051 0.00400663 0)
(0.00161852 0.00440694 0)
(0.00099242 0.00426314 0)
(0.00049545 0.00359754 0)
(0.000172138 0.00246586 0)
(1.5087e-05 0.000953178 0)
(-2.08208e-05 0.000579477 0)
(-0.000236025 0.00162051 0)
(-0.000678837 0.00252192 0)
(-0.00136321 0.00318729 0)
(-0.00225713 0.00356735 0)
(-0.00332089 0.00369016 0)
(-0.00452319 0.00364958 0)
(-0.00584776 0.00355521 0)
(-0.00728966 0.00347894 0)
(-0.00884494 0.00343263 0)
(-0.0104999 0.00338072 0)
(-0.0122216 0.00326459 0)
(-0.0139464 0.00301806 0)
(-0.0155646 0.0025683 0)
(-0.0168941 0.00182743 0)
(-0.0176416 0.000679558 0)
(-0.0174041 -0.00104653 0)
(-0.0159698 -0.00322758 0)
(-0.0137121 -0.00535911 0)
(-0.011024 -0.00703671 0)
(-0.00821021 -0.00776385 0)
(-0.00543766 -0.00713466 0)
(-0.00280792 -0.00509074 0)
(-0.000580699 -0.00203067 0)
(0.000887113 0.00112932 0)
(0.00120098 0.00325255 0)
(0.00106633 0.00454983 0)
(0.000762271 0.00510277 0)
(0.000449331 0.00495488 0)
(0.00020809 0.00416787 0)
(6.40293e-05 0.00283862 0)
(3.47398e-06 0.00108823 0)
(-2.48145e-05 0.000919012 0)
(-0.000276368 0.00251241 0)
(-0.000789399 0.00383742 0)
(-0.00157621 0.00477128 0)
(-0.0025954 0.00527086 0)
(-0.0037975 0.00540079 0)
(-0.00514257 0.00530187 0)
(-0.00660566 0.00511901 0)
(-0.00817218 0.00494008 0)
(-0.00982805 0.00477934 0)
(-0.0115509 0.00459803 0)
(-0.0133033 0.00433252 0)
(-0.0150247 0.00391019 0)
(-0.0166189 0.0032505 0)
(-0.0179306 0.00225635 0)
(-0.018711 0.000797014 0)
(-0.018615 -0.00131843 0)
(-0.0174769 -0.003927 0)
(-0.0156191 -0.00644614 0)
(-0.013352 -0.00843517 0)
(-0.0108972 -0.00940309 0)
(-0.00838014 -0.00895722 0)
(-0.0058948 -0.00698555 0)
(-0.00359688 -0.00378998 0)
(-0.00169945 -0.000119322 0)
(-0.000622569 0.00280429 0)
(-0.000228902 0.00455861 0)
(-9.91284e-05 0.00530582 0)
(-6.43495e-05 0.00518433 0)
(-4.6681e-05 0.00433687 0)
(-2.50826e-05 0.00292255 0)
(-4.70558e-06 0.00110466 0)
(-2.68583e-05 0.00135892 0)
(-0.000298038 0.00366194 0)
(-0.000850682 0.00552417 0)
(-0.00169819 0.00679138 0)
(-0.00279501 0.00743082 0)
(-0.00408525 0.00755442 0)
(-0.00552112 0.00736197 0)
(-0.0070693 0.00704345 0)
(-0.00870743 0.00670955 0)
(-0.0104157 0.00638168 0)
(-0.0121693 0.00602145 0)
(-0.0139324 0.00556298 0)
(-0.0156525 0.00492912 0)
(-0.0172489 0.00403241 0)
(-0.0185907 0.00276566 0)
(-0.0194643 0.000982297 0)
(-0.0195639 -0.00152654 0)
(-0.0187537 -0.00455798 0)
(-0.0173172 -0.00746434 0)
(-0.0154843 -0.00979203 0)
(-0.0133939 -0.0110697 0)
(-0.0111168 -0.0109182 0)
(-0.00871977 -0.0091885 0)
(-0.00632279 -0.00608077 0)
(-0.00412476 -0.00221465 0)
(-0.00234787 0.00142823 0)
(-0.00134724 0.00372064 0)
(-0.000773122 0.00478183 0)
(-0.000425485 0.00482016 0)
(-0.000205784 0.00405899 0)
(-7.30087e-05 0.00272293 0)
(-7.62574e-06 0.0010178 0)
(-2.61747e-05 0.00188108 0)
(-0.000294046 0.00503001 0)
(-0.000844883 0.00753794 0)
(-0.0016977 0.00921117 0)
(-0.00281094 0.010024 0)
(-0.00412796 0.010139 0)
(-0.00559567 0.00982437 0)
(-0.00717366 0.00932664 0)
(-0.00883401 0.00878927 0)
(-0.0105546 0.00824734 0)
(-0.0123117 0.00766619 0)
(-0.014074 0.00697917 0)
(-0.0157966 0.00610494 0)
(-0.0174105 0.00494816 0)
(-0.0188022 0.00338987 0)
(-0.0197846 0.0012681 0)
(-0.0200865 -0.0016379 0)
(-0.0195982 -0.00507966 0)
(-0.0185812 -0.00836694 0)
(-0.0171796 -0.0110667 0)
(-0.01545 -0.0127467 0)
(-0.0134052 -0.0130451 0)
(-0.0110817 -0.0117783 0)
(-0.00858644 -0.00904666 0)
(-0.00611199 -0.00531445 0)
(-0.00390703 -0.00138773 0)
(-0.00221703 0.00181464 0)
(-0.00120296 0.00345298 0)
(-0.000601617 0.00388212 0)
(-0.000256617 0.00341383 0)
(-7.72143e-05 0.0023333 0)
(-5.23513e-06 0.000879899 0)
(-2.2694e-05 0.00244511 0)
(-0.000263031 0.00652574 0)
(-0.000767607 0.00976893 0)
(-0.00156552 0.0119296 0)
(-0.00262841 0.0129729 0)
(-0.00390615 0.013102 0)
(-0.00534388 0.0126557 0)
(-0.00689539 0.0119492 0)
(-0.00852816 0.0111712 0)
(-0.010219 0.0103787 0)
(-0.0119462 0.00954398 0)
(-0.0136826 0.00859994 0)
(-0.0153884 0.00746013 0)
(-0.0170016 0.00602014 0)
(-0.0184211 0.00414906 0)
(-0.0194862 0.00167391 0)
(-0.0199687 -0.00162648 0)
(-0.0197777 -0.00545177 0)
(-0.0191665 -0.00910407 0)
(-0.0181896 -0.0122118 0)
(-0.016827 -0.0144026 0)
(-0.0150392 -0.0153348 0)
(-0.0128365 -0.014779 0)
(-0.0103189 -0.0127115 0)
(-0.00768385 -0.00940084 0)
(-0.00519578 -0.00545007 0)
(-0.00311619 -0.00169999 0)
(-0.00162693 0.00107486 0)
(-0.000748886 0.00235377 0)
(-0.000283461 0.00249305 0)
(-7.13317e-05 0.00186397 0)
(-1.72581e-06 0.000747851 0)
(-1.69295e-05 0.0029921 0)
(-0.000208432 0.00801168 0)
(-0.000625749 0.0120431 0)
(-0.00131052 0.0147765 0)
(-0.00225597 0.0161371 0)
(-0.00342652 0.0163395 0)
(-0.00476994 0.0157828 0)
(-0.00623498 0.0148595 0)
(-0.00778347 0.013819 0)
(-0.00939015 0.012751 0)
(-0.0110347 0.0116389 0)
(-0.0126927 0.0104153 0)
(-0.0143283 0.00898769 0)
(-0.0158849 0.00724282 0)
(-0.0172749 0.00504067 0)
(-0.0183686 0.00220512 0)
(-0.0189948 -0.00147097 0)
(-0.0190651 -0.005632 0)
(-0.018841 -0.00961444 0)
(-0.0182915 -0.0131518 0)
(-0.0173324 -0.0159518 0)
(-0.01588 -0.0176942 0)
(-0.0139182 -0.0180903 0)
(-0.0115323 -0.0169673 0)
(-0.00890985 -0.0143648 0)
(-0.00631234 -0.0106341 0)
(-0.00401776 -0.00647342 0)
(-0.0022406 -0.0027631 0)
(-0.0010592 -0.000159969 0)
(-0.000402191 0.0010812 0)
(-0.000100848 0.0012059 0)
(-2.75325e-06 0.000586212 0)
(-9.6477e-06 0.00344965 0)
(-0.000136262 0.00931066 0)
(-0.00043244 0.014123 0)
(-0.000951442 0.0175034 0)
(-0.0017138 0.0192974 0)
(-0.00270707 0.0196782 0)
(-0.00388786 0.0190737 0)
(-0.00520068 0.0179532 0)
(-0.00659895 0.0166447 0)
(-0.0080521 0.0152868 0)
(-0.00953936 0.0138818 0)
(-0.0110394 0.0123635 0)
(-0.0125214 0.0106337 0)
(-0.0139379 0.00857224 0)
(-0.015219 0.00603519 0)
(-0.0162705 0.00285182 0)
(-0.0169891 -0.00115668 0)
(-0.0172726 -0.00557488 0)
(-0.0174125 -0.00981427 0)
(-0.017305 -0.0137592 0)
(-0.0168148 -0.0172197 0)
(-0.0158178 -0.0199027 0)
(-0.0142629 -0.0214586 0)
(-0.0122015 -0.0215576 0)
(-0.00978707 -0.0199967 0)
(-0.00725268 -0.0168336 0)
(-0.00487106 -0.0125188 0)
(-0.00289365 -0.00790525 0)
(-0.00146946 -0.00396169 0)
(-0.000596718 -0.00129247 0)
(-0.000160832 4.04778e-05 0)
(-6.79041e-06 0.000278963 0)
(-1.79813e-06 0.00373796 0)
(-5.42551e-05 0.0102147 0)
(-0.00020525 0.0157086 0)
(-0.000514391 0.0197709 0)
(-0.00103077 0.0221298 0)
(-0.00177299 0.0228456 0)
(-0.00271632 0.0223105 0)
(-0.00380508 0.02105 0)
(-0.00498098 0.0194867 0)
(-0.00620253 0.0178338 0)
(-0.00744523 0.016129 0)
(-0.00869113 0.0143131 0)
(-0.00991875 0.0122839 0)
(-0.0110966 0.00991725 0)
(-0.0121787 0.0070704 0)
(-0.0131088 0.00358367 0)
(-0.0138538 -0.000682239 0)
(-0.0142911 -0.0052357 0)
(-0.0147601 -0.00959398 0)
(-0.0151094 -0.0138445 0)
(-0.0151631 -0.0179271 0)
(-0.0147542 -0.0215976 0)
(-0.0137818 -0.0244623 0)
(-0.0122432 -0.0260495 0)
(-0.0102374 -0.0259191 0)
(-0.00795176 -0.0238147 0)
(-0.00563381 -0.0198504 0)
(-0.00354931 -0.0146613 0)
(-0.00191636 -0.00932467 0)
(-0.000829524 -0.00489467 0)
(-0.000241546 -0.00189371 0)
(-1.34431e-05 -0.000283046 0)
(5.30744e-06 0.00377757 0)
(2.42547e-05 0.0104971 0)
(2.13321e-05 0.0164395 0)
(-5.57864e-05 0.0211364 0)
(-0.000273882 0.0241747 0)
(-0.000686342 0.0254318 0)
(-0.00130378 0.0251639 0)
(-0.00208451 0.0238878 0)
(-0.00295985 0.0221198 0)
(-0.0038715 0.0201818 0)
(-0.00478395 0.018179 0)
(-0.00567888 0.0160768 0)
(-0.00654543 0.0137758 0)
(-0.00737416 0.0111501 0)
(-0.00815344 0.00805883 0)
(-0.00886774 0.00435193 0)
(-0.00953613 -6.58633e-05 0)
(-0.0101331 -0.00459042 0)
(-0.0108715 -0.00885213 0)
(-0.0116714 -0.0131898 0)
(-0.0123294 -0.0177141 0)
(-0.0126334 -0.0222749 0)
(-0.0124111 -0.0264799 0)
(-0.0115811 -0.0297509 0)
(-0.0101699 -0.0314322 0)
(-0.00830677 -0.0309452 0)
(-0.00620598 -0.0280018 0)
(-0.00413485 -0.0228534 0)
(-0.00236263 -0.0164332 0)
(-0.00108052 -0.0100905 0)
(-0.000334357 -0.00490127 0)
(-2.28882e-05 -0.0012354 0)
(1.08138e-05 0.00355639 0)
(8.82623e-05 0.0100911 0)
(0.000210398 0.0161226 0)
(0.000337274 0.0211789 0)
(0.00040145 0.0248019 0)
(0.000333223 0.0267169 0)
(8.79734e-05 0.0269631 0)
(-0.000337253 0.0258799 0)
(-0.000879197 0.024034 0)
(-0.00146279 0.0218714 0)
(-0.00202893 0.0196039 0)
(-0.00254428 0.0172546 0)
(-0.00299846 0.0147443 0)
(-0.00339747 0.0119529 0)
(-0.0037573 0.0087456 0)
(-0.00408979 0.00499233 0)
(-0.00436643 0.000640456 0)
(-0.00507292 -0.0036621 0)
(-0.00594981 -0.00756076 0)
(-0.00709181 -0.0116347 0)
(-0.00832024 -0.0162251 0)
(-0.00940032 -0.0213645 0)
(-0.010069 -0.0267501 0)
(-0.0101318 -0.0317567 0)
(-0.00951079 -0.0355475 0)
(-0.00825476 -0.037221 0)
(-0.0065296 -0.0360348 0)
(-0.00459328 -0.0317091 0)
(-0.00275754 -0.0247688 0)
(-0.00131378 -0.0166159 0)
(-0.000420882 -0.00889158 0)
(-3.08107e-05 -0.00256567 0)
(1.42422e-05 0.0031625 0)
(0.000134052 0.00918952 0)
(0.000351647 0.0150127 0)
(0.000638041 0.02018 0)
(0.000928133 0.0241906 0)
(0.00114682 0.0266548 0)
(0.00123153 0.0274473 0)
(0.00115294 0.0267611 0)
(0.000939027 0.0250523 0)
(0.000662199 0.0227992 0)
(0.000404938 0.0203263 0)
(0.00022723 0.0177606 0)
(0.000152281 0.0150792 0)
(0.000165147 0.01218 0)
(0.000231795 0.00892631 0)
(0.00027042 0.0051719 0)
(0.000374298 0.00106826 0)
(-0.000273775 -0.00287034 0)
(-0.00115958 -0.00622823 0)
(-0.00236802 -0.00966856 0)
(-0.0038605 -0.0137698 0)
(-0.00550442 -0.018866 0)
(-0.00698542 -0.0248973 0)
(-0.00797751 -0.0313022 0)
(-0.0082659 -0.0371387 0)
(-0.00778094 -0.041226 0)
(-0.00660432 -0.042377 0)
(-0.00495024 -0.0397046 0)
(-0.00314264 -0.0330868 0)
(-0.00156355 -0.0236224 0)
(-0.000515927 -0.0133775 0)
(-3.92139e-05 -0.00410674 0)
(1.559e-05 0.00271234 0)
(0.000160608 0.00807618 0)
(0.000442991 0.0134985 0)
(0.000847178 0.0185763 0)
(0.00131401 0.0227962 0)
(0.00176705 0.0256839 0)
(0.0021334 0.0269766 0)
(0.00236665 0.0267211 0)
(0.00247135 0.0252535 0)
(0.00250635 0.0230292 0)
(0.00255881 0.0204382 0)
(0.00270455 0.0177057 0)
(0.00297801 0.0148872 0)
(0.00335847 0.0119215 0)
(0.00377827 0.00868301 0)
(0.00410428 0.00501793 0)
(0.00423714 0.00124929 0)
(0.00359605 -0.00208724 0)
(0.00262679 -0.00506542 0)
(0.00146324 -0.0079419 0)
(5.95534e-06 -0.0113407 0)
(-0.00180962 -0.0158543 0)
(-0.00378439 -0.0218243 0)
(-0.00551924 -0.0289559 0)
(-0.00666135 -0.0363481 0)
(-0.00699365 -0.0426413 0)
(-0.00647552 -0.0462939 0)
(-0.00523277 -0.0458527 0)
(-0.00355243 -0.0404308 0)
(-0.0018675 -0.0304485 0)
(-0.000640004 -0.018022 0)
(-5.10293e-05 -0.00575833 0)
(1.51427e-05 0.00227886 0)
(0.000167946 0.00694959 0)
(0.000481079 0.0118772 0)
(0.000954861 0.0167258 0)
(0.00154275 0.021 0)
(0.00217425 0.0241739 0)
(0.00277455 0.0258748 0)
(0.00328884 0.0260182 0)
(0.00370673 0.0248257 0)
(0.00407123 0.0227052 0)
(0.00446012 0.0200774 0)
(0.00494774 0.0172456 0)
(0.00556759 0.0143478 0)
(0.00628835 0.0113795 0)
(0.00700881 0.00824616 0)
(0.00753943 0.00482936 0)
(0.00761797 0.00149823 0)
(0.00688404 -0.00143563 0)
(0.00576783 -0.0040877 0)
(0.0044555 -0.00665519 0)
(0.00300141 -0.00943778 0)
(0.00136337 -0.0129467 0)
(-0.000744883 -0.0183812 0)
(-0.0029482 -0.025583 0)
(-0.00480642 -0.0339276 0)
(-0.00593943 -0.042018 0)
(-0.00614999 -0.0480839 0)
(-0.00543276 -0.0502027 0)
(-0.00398759 -0.0467106 0)
(-0.00224291 -0.0370588 0)
(-0.000806548 -0.0228921 0)
(-6.70919e-05 -0.0075645 0)
(1.31922e-05 0.00190645 0)
(0.000157031 0.00594184 0)
(0.000465516 0.0103617 0)
(0.000955593 0.0149009 0)
(0.00160049 0.0191041 0)
(0.0023458 0.0224242 0)
(0.00312617 0.024408 0)
(0.00388924 0.0248637 0)
(0.00461822 0.0239163 0)
(0.00534015 0.0219247 0)
(0.00611107 0.0193214 0)
(0.00698351 0.0164648 0)
(0.00797179 0.0135612 0)
(0.00902547 0.010662 0)
(0.0100145 0.00771067 0)
(0.0107071 0.00462536 0)
(0.0107661 0.00175336 0)
(0.0099777 -0.000731884 0)
(0.0087267 -0.00301683 0)
(0.00720884 -0.00528407 0)
(0.0055554 -0.00778715 0)
(0.00383922 -0.0108787 0)
(0.00196693 -0.015189 0)
(-0.000316767 -0.0218029 0)
(-0.00267098 -0.0304842 0)
(-0.00454422 -0.0398241 0)
(-0.00554447 -0.0480048 0)
(-0.00548252 -0.0527807 0)
(-0.00441461 -0.051785 0)
(-0.00269801 -0.0433381 0)
(-0.00103706 -0.0280334 0)
(-9.14542e-05 -0.0095785 0)
(9.76829e-06 0.00162113 0)
(0.000126458 0.00513894 0)
(0.00039068 0.00910116 0)
(0.000836432 0.0133024 0)
(0.00146566 0.0173366 0)
(0.00225375 0.0206615 0)
(0.00315905 0.0227769 0)
(0.00414332 0.0234159 0)
(0.0051898 0.0226356 0)
(0.00630681 0.0207593 0)
(0.00751471 0.0182225 0)
(0.00882397 0.0154152 0)
(0.0102122 0.0125869 0)
(0.0116026 0.00983001 0)
(0.0128431 0.00712045 0)
(0.013682 0.00440124 0)
(0.0137597 0.00197118 0)
(0.0130081 -7.82888e-05 0)
(0.0116736 -0.00198142 0)
(0.0100187 -0.00391243 0)
(0.00818126 -0.00611849 0)
(0.00627537 -0.00893079 0)
(0.00434059 -0.0128225 0)
(0.00226354 -0.0183954 0)
(-0.000190429 -0.0265156 0)
(-0.00265733 -0.0364841 0)
(-0.00448518 -0.0462995 0)
(-0.00523394 -0.0536048 0)
(-0.00473812 -0.0554796 0)
(-0.0032045 -0.0490865 0)
(-0.00135034 -0.0334484 0)
(-0.000129659 -0.0118719 0)
(3.91184e-06 0.00144302 0)
(6.75435e-05 0.0046079 0)
(0.000234628 0.00821052 0)
(0.000561512 0.0120803 0)
(0.00109514 0.0158595 0)
(0.00185926 0.0190391 0)
(0.00284836 0.0211128 0)
(0.00404475 0.0217789 0)
(0.0054322 0.0210617 0)
(0.00699132 0.0192684 0)
(0.00869053 0.0168307 0)
(0.0104818 0.014144 0)
(0.0122959 0.0114715 0)
(0.0140275 0.00892517 0)
(0.0155121 0.00650181 0)
(0.0164995 0.0041571 0)
(0.0166403 0.00213096 0)
(0.0159997 0.000487443 0)
(0.014674 -0.00104346 0)
(0.0130019 -0.00263986 0)
(0.0111019 -0.00453998 0)
(0.00908425 -0.00707021 0)
(0.00702184 -0.0106495 0)
(0.00490244 -0.0157466 0)
(0.00258268 -0.0228069 0)
(-0.000125524 -0.0323542 0)
(-0.00273858 -0.0431859 0)
(-0.00446118 -0.0526697 0)
(-0.0047962 -0.0575688 0)
(-0.00368922 -0.053988 0)
(-0.00176031 -0.0390232 0)
(-0.000191599 -0.0145182 0)
(-6.20704e-06 0.00139782 0)
(-4.25259e-05 0.00442103 0)
(-5.92031e-05 0.00778874 0)
(4.79494e-05 0.0113453 0)
(0.000409475 0.0147714 0)
(0.00111353 0.017632 0)
(0.00218451 0.0194749 0)
(0.00361701 0.0200051 0)
(0.00539066 0.0192467 0)
(0.00744441 0.0175081 0)
(0.00967871 0.0152036 0)
(0.0119796 0.0127046 0)
(0.0142316 0.0102594 0)
(0.0163077 0.00797904 0)
(0.0180426 0.00586938 0)
(0.0192078 0.00388964 0)
(0.0194884 0.00222269 0)
(0.0189934 0.000923909 0)
(0.0178476 -0.000269802 0)
(0.0163236 -0.00155857 0)
(0.0145327 -0.00315832 0)
(0.012556 -0.00538846 0)
(0.0104499 -0.00863682 0)
(0.00821597 -0.0133087 0)
(0.00578955 -0.019747 0)
(0.00304714 -0.0281843 0)
(-8.23343e-05 -0.0388561 0)
(-0.00288373 -0.0499635 0)
(-0.00435993 -0.0577961 0)
(-0.00402853 -0.0576323 0)
(-0.00226885 -0.044496 0)
(-0.000295177 -0.0175943 0)
(-2.7554e-05 0.00155027 0)
(-0.000250209 0.00473079 0)
(-0.00056959 0.00800859 0)
(-0.000788995 0.0111789 0)
(-0.000666471 0.0140497 0)
(-2.8553e-05 0.0163937 0)
(0.00118348 0.0178476 0)
(0.00292314 0.0181054 0)
(0.00514877 0.0172271 0)
(0.00774891 0.0155365 0)
(0.0105463 0.0134062 0)
(0.0133674 0.011154 0)
(0.0160638 0.00899082 0)
(0.0185011 0.00701181 0)
(0.0205288 0.00522326 0)
(0.0219592 0.00358298 0)
(0.0225166 0.00222647 0)
(0.0223125 0.00120363 0)
(0.0215744 0.000295808 0)
(0.020323 -0.000723289 0)
(0.0187985 -0.00204778 0)
(0.0170188 -0.00396826 0)
(0.014988 -0.00683688 0)
(0.0126746 -0.0110139 0)
(0.0100225 -0.0168046 0)
(0.00698162 -0.0244236 0)
(0.00352971 -0.0339943 0)
(-0.000208418 -0.0454796 0)
(-0.00313126 -0.0558986 0)
(-0.00403177 -0.0595468 0)
(-0.00284165 -0.0494544 0)
(-0.000467891 -0.021167 0)
(-7.80771e-05 0.00200748 0)
(-0.00064767 0.00568377 0)
(-0.00141845 0.00892716 0)
(-0.0020367 0.0115811 0)
(-0.00213955 0.013681 0)
(-0.00151582 0.0152454 0)
(-9.78916e-05 0.0161459 0)
(0.00209203 0.0160571 0)
(0.00485297 0.0150312 0)
(0.00805004 0.0134126 0)
(0.0114326 0.0115013 0)
(0.0147903 0.00954031 0)
(0.0179642 0.00769071 0)
(0.0208301 0.00602429 0)
(0.0232655 0.00454368 0)
(0.0251332 0.00320547 0)
(0.0261682 0.00210961 0)
(0.0264423 0.00130171 0)
(0.0261848 0.000610754 0)
(0.0254086 -0.000172908 0)
(0.024305 -0.00124897 0)
(0.0228493 -0.00285394 0)
(0.0209886 -0.0052911 0)
(0.0186428 -0.00887714 0)
(0.0157337 -0.0138982 0)
(0.0122298 -0.0205939 0)
(0.00817519 -0.0291718 0)
(0.0037087 -0.039739 0)
(-0.000737509 -0.0516344 0)
(-0.00340355 -0.0592264 0)
(-0.00336111 -0.0533493 0)
(-0.000736994 -0.0252338 0)
(-0.000196463 0.00298764 0)
(-0.00137804 0.00749226 0)
(-0.0027294 0.0105422 0)
(-0.00371505 0.0123761 0)
(-0.00390815 0.0134609 0)
(-0.00313063 0.014091 0)
(-0.00139711 0.0143089 0)
(0.00143334 0.0138251 0)
(0.00483381 0.012683 0)
(0.00869097 0.011185 0)
(0.0127091 0.00953161 0)
(0.0166717 0.0078853 0)
(0.0204288 0.00635592 0)
(0.023875 0.0049922 0)
(0.0269143 0.00379362 0)
(0.0294477 0.00272018 0)
(0.0311671 0.0018471 0)
(0.0320708 0.00121598 0)
(0.0323822 0.000694257 0)
(0.0322017 0.000101244 0)
(0.0315459 -0.000744041 0)
(0.0304371 -0.00202953 0)
(0.0287656 -0.00399704 0)
(0.0264015 -0.0069122 0)
(0.0232293 -0.0110397 0)
(0.0191994 -0.0166463 0)
(0.0143662 -0.0240332 0)
(0.00890591 -0.0335435 0)
(0.00317964 -0.045151 0)
(-0.00167479 -0.0561617 0)
(-0.00355993 -0.0555288 0)
(-0.00109526 -0.0296526 0)
(-0.000447345 0.00481468 0)
(-0.00257688 0.0102729 0)
(-0.00446333 0.0126354 0)
(-0.00554689 0.0132262 0)
(-0.00548924 0.0131001 0)
(-0.00424708 0.0127447 0)
(-0.00190897 0.0122478 0)
(0.00175868 0.0113689 0)
(0.00593273 0.0101961 0)
(0.0105548 0.00887394 0)
(0.015324 0.00750277 0)
(0.020035 0.00617487 0)
(0.0245473 0.00495694 0)
(0.0287614 0.00387961 0)
(0.0325861 0.00294152 0)
(0.0359304 0.00211136 0)
(0.0384032 0.0014446 0)
(0.0399367 0.000972307 0)
(0.040778 0.000590341 0)
(0.0410709 0.000157065 0)
(0.0408268 -0.000469003 0)
(0.0400046 -0.00143424 0)
(0.0384765 -0.00291615 0)
(0.0360817 -0.00512089 0)
(0.032667 -0.00827578 0)
(0.0281374 -0.0126525 0)
(0.0225019 -0.0186215 0)
(0.0159094 -0.0267156 0)
(0.0087308 -0.0374772 0)
(0.00183492 -0.049922 0)
(-0.00294849 -0.0552738 0)
(-0.00144573 -0.0341614 0)
(-0.00088801 0.00793912 0)
(-0.0041943 0.013811 0)
(-0.00608654 0.0145734 0)
(-0.00650179 0.0135323 0)
(-0.00546695 0.0121795 0)
(-0.00317048 0.0109344 0)
(0.000341763 0.00978876 0)
(0.00498406 0.00866337 0)
(0.0100833 0.00756897 0)
(0.0155901 0.0064697 0)
(0.021223 0.00539559 0)
(0.0267796 0.00438663 0)
(0.0321092 0.00347684 0)
(0.0370949 0.00268322 0)
(0.0416293 0.00200369 0)
(0.0456128 0.00141667 0)
(0.0485999 0.000957091 0)
(0.0505192 0.00063876 0)
(0.0516656 0.00038471 0)
(0.0522144 9.46303e-05 0)
(0.0521903 -0.000328351 0)
(0.0515067 -0.000984309 0)
(0.0500351 -0.0019942 0)
(0.0476012 -0.00350176 0)
(0.0440237 -0.00567921 0)
(0.0391502 -0.00876514 0)
(0.0328945 -0.0131429 0)
(0.0252882 -0.0194567 0)
(0.0165978 -0.0286477 0)
(0.00756595 -0.0410991 0)
(-0.000686821 -0.0516584 0)
(-0.00149326 -0.0381871 0)
(-0.00160715 0.0131093 0)
(-0.005546 0.0172162 0)
(-0.00567976 0.0151739 0)
(-0.00370957 0.0124498 0)
(-0.000347994 0.0101194 0)
(0.00403658 0.00827694 0)
(0.00906724 0.00687917 0)
(0.0147624 0.00575869 0)
(0.0208022 0.00483562 0)
(0.0270747 0.00400691 0)
(0.0333466 0.00325421 0)
(0.0394181 0.00257981 0)
(0.0451278 0.00199219 0)
(0.0503491 0.00149541 0)
(0.0549773 0.00108406 0)
(0.0589305 0.0007431 0)
(0.0618212 0.000486643 0)
(0.0636483 0.00031298 0)
(0.0647308 0.000173877 0)
(0.065251 1.06723e-05 0)
(0.0652066 -0.000230645 0)
(0.0645207 -0.000608843 0)
(0.063064 -0.00119568 0)
(0.0606621 -0.00207584 0)
(0.0571237 -0.00335768 0)
(0.0522542 -0.00521256 0)
(0.0458573 -0.00796163 0)
(0.0377525 -0.0122329 0)
(0.0278878 -0.0191583 0)
(0.0165786 -0.0301404 0)
(0.00443346 -0.0435346 0)
(-0.00016564 -0.0396602 0)
(-0.00120205 0.0183556 0)
(-0.00293331 0.0182308 0)
(0.00338709 0.0126108 0)
(0.0103654 0.00918758 0)
(0.0171222 0.00679293 0)
(0.0236743 0.00503501 0)
(0.0300817 0.00378872 0)
(0.0364165 0.0029003 0)
(0.0426173 0.00225822 0)
(0.0486467 0.00175782 0)
(0.054382 0.00135281 0)
(0.0596938 0.00102099 0)
(0.0644768 0.000751941 0)
(0.0686598 0.000538535 0)
(0.0722008 0.000371996 0)
(0.075083 0.00024218 0)
(0.0770939 0.00014956 0)
(0.0783078 8.76572e-05 0)
(0.0789794 3.54037e-05 0)
(0.0792364 -2.93934e-05 0)
(0.07905 -0.000129732 0)
(0.0783588 -0.000291689 0)
(0.0770375 -0.000546893 0)
(0.0749292 -0.000931998 0)
(0.0718621 -0.00149684 0)
(0.0676407 -0.00233183 0)
(0.0620046 -0.00363578 0)
(0.0545579 -0.00586168 0)
(0.0447046 -0.00997524 0)
(0.0316988 -0.0176693 0)
(0.0155448 -0.0298118 0)
(0.00632545 -0.0334814 0)
(0.0208126 0.0113845 0)
(0.0272406 0.00931662 0)
(0.0403185 0.00543851 0)
(0.0509114 0.00329078 0)
(0.0587905 0.00204279 0)
(0.0649668 0.00125356 0)
(0.0699987 0.000766996 0)
(0.0742136 0.000475172 0)
(0.077823 0.000303537 0)
(0.0809706 0.000197794 0)
(0.0837124 0.0001299 0)
(0.0860666 8.47566e-05 0)
(0.0880459 5.42472e-05 0)
(0.0896687 3.37207e-05 0)
(0.090959 1.97955e-05 0)
(0.091943 1.02374e-05 0)
(0.0925823 4.18044e-06 0)
(0.0929329 -8.99743e-08 0)
(0.093086 -4.98608e-06 0)
(0.0930702 -1.22395e-05 0)
(0.0928645 -2.56134e-05 0)
(0.0924158 -4.90117e-05 0)
(0.0916423 -8.71364e-05 0)
(0.0904505 -0.000145272 0)
(0.0887398 -0.000231065 0)
(0.0863848 -0.000360877 0)
(0.0831739 -0.000577345 0)
(0.0786714 -0.000992007 0)
(0.0719258 -0.00188399 0)
(0.0609351 -0.00399893 0)
(0.0433141 -0.009205 0)
(0.0286031 -0.0145414 0)
)
;

boundaryField
{
    movingWall
    {
        type            fixedValue;
        value           uniform (0.1 0 0);
    }
    fixedWalls
    {
        type            noSlip;
    }
    floor
    {
        type            noSlip;
    }
    frontAndBack
    {
        type            empty;
    }
}


// ************************************************************************* //
