/*--------------------------------*- C++ -*----------------------------------*\
| =========                 |                                                 |
| \\      /  F ield         | OpenFOAM: The Open Source CFD Toolbox           |
|  \\    /   O peration     | Version:  2212                                  |
|   \\  /    A nd           | Website:  www.openfoam.com                      |
|    \\/     M anipulation  |                                                 |
\*---------------------------------------------------------------------------*/
FoamFile
{
    version     2.0;
    format      ascii;
    arch        "LSB;label=64;scalar=64";
    class       volScalarField;
    location    "1980";
    object      Xch;
}
// * * * * * * * * * * * * * * * * * * * * * * * * * * * * * * * * * * * * * //

dimensions      [1 -3 0 0 0 0 0];

internalField   nonuniform List<scalar> 
1024
(
0.0200792
0.0200795
0.0200803
0.0200816
0.0200839
0.0200873
0.0200922
0.0200987
0.0201072
0.0201175
0.0201293
0.0201421
0.0201551
0.0201675
0.0201787
0.0201883
0.0201954
0.020199
0.0201996
0.0201976
0.0201936
0.0201883
0.0201821
0.0201759
0.0201702
0.0201654
0.0201616
0.0201589
0.020157
0.0201559
0.0201553
0.020155
0.0200793
0.0200796
0.0200804
0.0200818
0.020084
0.0200875
0.0200924
0.020099
0.0201075
0.0201178
0.0201297
0.0201426
0.0201556
0.020168
0.0201791
0.0201888
0.0201958
0.0201995
0.0202
0.0201981
0.0201942
0.0201888
0.0201826
0.0201763
0.0201705
0.0201657
0.0201619
0.0201591
0.0201572
0.0201561
0.0201555
0.0201552
0.0200795
0.0200798
0.0200806
0.0200821
0.0200844
0.0200879
0.0200929
0.0200996
0.0201082
0.0201187
0.0201307
0.0201436
0.0201566
0.020169
0.0201801
0.0201897
0.0201969
0.0202006
0.0202012
0.0201993
0.0201954
0.0201899
0.0201836
0.0201772
0.0201713
0.0201663
0.0201624
0.0201596
0.0201577
0.0201565
0.0201559
0.0201556
0.02008
0.0200803
0.0200811
0.0200826
0.020085
0.0200886
0.0200937
0.0201007
0.0201095
0.0201202
0.0201324
0.0201453
0.0201583
0.0201706
0.0201818
0.0201914
0.0201987
0.0202026
0.0202035
0.0202016
0.0201976
0.0201919
0.0201854
0.0201787
0.0201726
0.0201674
0.0201634
0.0201605
0.0201585
0.0201573
0.0201567
0.0201564
0.0200807
0.020081
0.0200818
0.0200834
0.0200859
0.0200897
0.0200951
0.0201023
0.0201114
0.0201224
0.0201348
0.0201478
0.0201608
0.0201731
0.0201842
0.0201939
0.0202015
0.0202059
0.020207
0.0202053
0.0202012
0.0201951
0.0201881
0.0201811
0.0201746
0.0201691
0.0201649
0.0201619
0.0201599
0.0201587
0.020158
0.0201578
0.0200817
0.020082
0.0200829
0.0200845
0.0200872
0.0200912
0.0200969
0.0201045
0.020114
0.0201254
0.020138
0.0201511
0.0201641
0.0201763
0.0201874
0.0201974
0.0202055
0.0202106
0.0202123
0.0202108
0.0202064
0.0201999
0.0201922
0.0201844
0.0201774
0.0201716
0.0201672
0.020164
0.0201619
0.0201607
0.0201601
0.0201598
0.020083
0.0200834
0.0200843
0.0200861
0.0200889
0.0200933
0.0200993
0.0201074
0.0201174
0.0201291
0.0201419
0.0201552
0.0201681
0.0201802
0.0201915
0.020202
0.0202109
0.020217
0.0202195
0.0202184
0.0202139
0.0202066
0.020198
0.0201894
0.0201816
0.0201753
0.0201705
0.0201672
0.0201651
0.0201639
0.0201632
0.020163
0.0200848
0.0200852
0.0200862
0.0200881
0.0200911
0.0200958
0.0201023
0.0201108
0.0201213
0.0201335
0.0201466
0.0201599
0.0201728
0.020185
0.0201965
0.0202077
0.0202178
0.0202252
0.0202289
0.0202284
0.0202238
0.020216
0.0202064
0.0201966
0.0201879
0.0201808
0.0201757
0.0201722
0.02017
0.0201688
0.0201682
0.020168
0.0200869
0.0200873
0.0200884
0.0200904
0.0200937
0.0200987
0.0201056
0.0201147
0.0201257
0.0201383
0.0201516
0.020165
0.0201779
0.0201902
0.0202022
0.0202142
0.0202256
0.0202347
0.0202399
0.0202406
0.0202366
0.0202286
0.0202182
0.0202074
0.0201975
0.0201896
0.0201838
0.02018
0.0201777
0.0201764
0.0201759
0.0201757
0.0200894
0.0200898
0.020091
0.0200931
0.0200966
0.0201019
0.0201093
0.0201188
0.0201303
0.0201432
0.0201568
0.0201702
0.0201831
0.0201956
0.0202079
0.0202208
0.0202337
0.0202446
0.0202518
0.0202544
0.020252
0.0202449
0.0202346
0.0202232
0.0202123
0.0202033
0.0201968
0.0201924
0.0201898
0.0201885
0.0201879
0.0201877
0.0200921
0.0200925
0.0200937
0.0200959
0.0200996
0.0201051
0.0201129
0.0201228
0.0201347
0.0201479
0.0201616
0.0201751
0.0201879
0.0202004
0.0202129
0.0202263
0.0202402
0.0202531
0.0202629
0.0202685
0.020269
0.0202645
0.020256
0.0202452
0.0202341
0.0202244
0.0202168
0.0202117
0.0202085
0.0202068
0.0202061
0.0202058
0.0200948
0.0200952
0.0200964
0.0200987
0.0201025
0.0201082
0.0201161
0.0201263
0.0201384
0.0201518
0.0201655
0.0201788
0.0201914
0.0202034
0.0202155
0.0202286
0.0202429
0.0202573
0.0202702
0.0202799
0.0202852
0.0202853
0.0202807
0.0202726
0.0202629
0.0202534
0.0202452
0.0202392
0.0202352
0.020233
0.0202319
0.0202315
0.0200973
0.0200978
0.020099
0.0201012
0.020105
0.0201107
0.0201186
0.0201288
0.0201409
0.0201541
0.0201676
0.0201804
0.0201922
0.0202032
0.0202138
0.0202252
0.0202387
0.0202542
0.0202703
0.020285
0.0202961
0.0203025
0.0203038
0.0203008
0.0202948
0.0202872
0.0202798
0.0202736
0.0202691
0.0202663
0.0202648
0.0202642
0.0200994
0.0200999
0.020101
0.0201032
0.0201069
0.0201124
0.02012
0.0201299
0.0201416
0.0201543
0.0201671
0.020179
0.0201893
0.020198
0.0202058
0.020214
0.0202251
0.0202408
0.0202598
0.0202796
0.0202972
0.0203107
0.0203192
0.0203229
0.0203223
0.0203189
0.0203141
0.0203092
0.0203051
0.0203022
0.0203005
0.0202999
0.0201008
0.0201012
0.0201023
0.0201044
0.0201078
0.0201129
0.0201199
0.0201291
0.0201399
0.0201516
0.0201632
0.0201734
0.0201815
0.0201871
0.0201908
0.0201943
0.0202013
0.0202159
0.020237
0.0202616
0.0202859
0.020307
0.0203232
0.0203341
0.0203399
0.0203418
0.020341
0.0203387
0.0203361
0.0203339
0.0203325
0.0203319
0.0201008
0.0201013
0.0201023
0.0201042
0.0201072
0.0201117
0.0201179
0.0201259
0.0201353
0.0201456
0.0201554
0.0201636
0.020169
0.020171
0.02017
0.0201679
0.0201696
0.0201812
0.020203
0.0202316
0.0202625
0.0202917
0.0203164
0.0203351
0.0203479
0.0203554
0.0203588
0.0203596
0.020359
0.0203579
0.020357
0.0203566
0.0200992
0.0200996
0.0201006
0.0201023
0.0201049
0.0201088
0.020114
0.0201206
0.0201284
0.0201369
0.0201448
0.020151
0.020154
0.0201532
0.0201485
0.0201417
0.0201382
0.0201453
0.020165
0.020195
0.020231
0.020268
0.0203015
0.020329
0.0203493
0.0203629
0.0203709
0.0203748
0.020376
0.020376
0.0203756
0.0203753
0.0200962
0.0200966
0.0200975
0.020099
0.0201014
0.0201047
0.0201091
0.0201145
0.0201209
0.0201277
0.020134
0.0201387
0.0201403
0.0201381
0.0201317
0.0201228
0.0201163
0.0201198
0.0201361
0.0201645
0.0202018
0.0202434
0.0202841
0.0203195
0.0203474
0.0203673
0.02038
0.0203871
0.0203903
0.0203912
0.0203912
0.020391
0.0200923
0.0200927
0.0200936
0.0200951
0.0200972
0.0201001
0.0201039
0.0201085
0.0201138
0.0201193
0.0201244
0.0201279
0.0201288
0.0201262
0.0201199
0.020111
0.0201043
0.0201066
0.0201206
0.0201465
0.0201826
0.0202252
0.0202694
0.0203103
0.0203443
0.0203699
0.0203871
0.0203974
0.0204026
0.0204046
0.0204049
0.0204048
0.0200882
0.0200886
0.0200894
0.0200908
0.0200928
0.0200954
0.0200988
0.0201028
0.0201072
0.0201118
0.0201158
0.0201186
0.0201192
0.0201169
0.0201116
0.0201044
0.0200996
0.0201027
0.020116
0.02014
0.0201739
0.0202152
0.0202599
0.0203034
0.0203414
0.0203714
0.0203928
0.0204062
0.0204134
0.0204165
0.0204173
0.0204172
0.0200847
0.020085
0.0200857
0.0200869
0.0200886
0.0200909
0.0200939
0.0200974
0.0201011
0.020105
0.0201083
0.0201106
0.0201112
0.0201098
0.0201064
0.0201023
0.020101
0.0201065
0.0201203
0.020143
0.0201746
0.0202133
0.0202563
0.0202998
0.0203396
0.0203727
0.0203973
0.0204136
0.0204229
0.0204272
0.0204285
0.0204286
0.020083
0.0200831
0.0200835
0.0200843
0.0200856
0.0200874
0.0200898
0.0200927
0.0200959
0.0200991
0.020102
0.0201043
0.0201055
0.0201058
0.0201053
0.0201055
0.0201088
0.0201175
0.0201324
0.0201541
0.0201831
0.0202186
0.0202586
0.0203001
0.0203396
0.0203741
0.0204011
0.0204199
0.0204312
0.0204368
0.0204386
0.0204388
0.0200848
0.0200847
0.0200846
0.0200846
0.020085
0.0200859
0.0200875
0.0200896
0.0200923
0.0200953
0.0200983
0.0201012
0.0201041
0.0201071
0.0201106
0.0201158
0.0201241
0.0201361
0.0201519
0.0201725
0.0201986
0.0202302
0.0202663
0.0203044
0.0203421
0.0203762
0.0204045
0.0204252
0.0204384
0.0204453
0.0204478
0.0204482
0.020092
0.0200915
0.0200907
0.0200896
0.0200888
0.0200884
0.0200889
0.0200903
0.0200927
0.0200959
0.0200998
0.0201046
0.0201102
0.0201168
0.0201248
0.020135
0.0201478
0.0201622
0.0201785
0.0201975
0.0202204
0.0202477
0.020279
0.0203129
0.0203473
0.0203798
0.0204081
0.02043
0.0204447
0.0204528
0.0204561
0.0204566
0.0201059
0.020105
0.0201032
0.0201011
0.020099
0.0200975
0.0200971
0.0200981
0.0201008
0.020105
0.0201108
0.0201182
0.0201271
0.0201376
0.0201497
0.0201638
0.0201796
0.0201954
0.0202112
0.0202282
0.0202477
0.0202705
0.0202967
0.0203256
0.0203558
0.0203855
0.0204124
0.0204345
0.0204503
0.0204595
0.0204635
0.0204643
0.0201275
0.0201261
0.0201235
0.0201206
0.0201179
0.020116
0.0201156
0.0201172
0.0201209
0.0201269
0.0201351
0.0201452
0.020157
0.0201704
0.0201852
0.0202015
0.0202184
0.0202341
0.0202487
0.0202634
0.0202794
0.0202977
0.0203188
0.0203424
0.0203678
0.0203936
0.0204182
0.0204394
0.0204554
0.0204655
0.0204701
0.0204712
0.0201573
0.0201553
0.0201524
0.0201496
0.0201476
0.0201469
0.0201478
0.0201509
0.0201563
0.0201641
0.0201741
0.0201859
0.0201994
0.020214
0.0202295
0.020246
0.0202623
0.0202767
0.0202894
0.0203015
0.0203142
0.0203284
0.0203446
0.020363
0.0203833
0.0204046
0.0204258
0.020445
0.0204605
0.0204709
0.020476
0.0204773
0.0201953
0.0201931
0.0201907
0.0201896
0.0201899
0.0201917
0.0201949
0.0201998
0.0202067
0.0202155
0.0202261
0.0202381
0.0202513
0.0202653
0.0202797
0.0202946
0.0203089
0.0203211
0.0203315
0.020341
0.0203507
0.0203612
0.0203731
0.0203867
0.0204019
0.0204184
0.0204355
0.0204519
0.0204659
0.0204759
0.0204813
0.0204828
0.0202422
0.0202402
0.0202398
0.0202417
0.0202453
0.0202499
0.0202552
0.0202614
0.0202687
0.0202771
0.0202867
0.0202974
0.0203087
0.0203205
0.0203324
0.0203445
0.0203558
0.0203653
0.0203732
0.0203803
0.0203872
0.0203946
0.0204028
0.0204122
0.0204229
0.0204348
0.0204474
0.0204602
0.0204718
0.0204807
0.0204859
0.0204876
0.0202993
0.0202985
0.0203013
0.0203063
0.0203123
0.0203184
0.0203244
0.0203304
0.0203367
0.0203435
0.0203509
0.0203589
0.0203673
0.0203759
0.0203845
0.0203931
0.0204011
0.0204078
0.0204132
0.0204179
0.0204225
0.0204273
0.0204325
0.0204385
0.0204453
0.0204529
0.0204614
0.0204702
0.0204787
0.0204857
0.0204901
0.0204918
0.0203689
0.0203706
0.0203756
0.0203812
0.0203868
0.0203919
0.0203966
0.0204009
0.020405
0.0204093
0.0204139
0.0204187
0.0204236
0.0204287
0.0204338
0.0204388
0.0204434
0.0204473
0.0204503
0.020453
0.0204555
0.0204581
0.020461
0.0204642
0.0204679
0.020472
0.0204766
0.0204815
0.0204865
0.020491
0.0204941
0.0204954
0.020454
0.0204553
0.0204578
0.0204603
0.0204625
0.0204645
0.0204663
0.0204678
0.0204693
0.0204707
0.0204722
0.0204738
0.0204754
0.020477
0.0204787
0.0204803
0.0204818
0.020483
0.020484
0.0204849
0.0204857
0.0204865
0.0204874
0.0204884
0.0204895
0.0204907
0.0204922
0.0204937
0.0204953
0.0204968
0.0204979
0.0204984
)
;

boundaryField
{
    movingWall
    {
        type            fixedValue;
        value           uniform 0.0205;
    }
    fixedWalls
    {
        type            zeroGradient;
    }
    floor
    {
        type            zeroGradient;
    }
    frontAndBack
    {
        type            empty;
    }
}


// ************************************************************************* //
