/*--------------------------------*- C++ -*----------------------------------*\
| =========                 |                                                 |
| \\      /  F ield         | OpenFOAM: The Open Source CFD Toolbox           |
|  \\    /   O peration     | Version:  2212                                  |
|   \\  /    A nd           | Website:  www.openfoam.com                      |
|    \\/     M anipulation  |                                                 |
\*---------------------------------------------------------------------------*/
FoamFile
{
    version     2.0;
    format      ascii;
    arch        "LSB;label=64;scalar=64";
    class       volScalarField;
    location    "1980";
    object      Xpr;
}
// * * * * * * * * * * * * * * * * * * * * * * * * * * * * * * * * * * * * * //

dimensions      [1 -3 0 0 0 0 0];

internalField   nonuniform List<scalar> 
1024
(
0.0823991
0.0824003
0.0824035
0.0824095
0.0824191
0.0824337
0.0824545
0.0824825
0.0825187
0.0825627
0.0826135
0.0826683
0.0827239
0.082777
0.0828249
0.0828661
0.0828963
0.0829118
0.0829141
0.0829057
0.0828888
0.0828658
0.0828395
0.0828128
0.0827883
0.0827677
0.0827517
0.08274
0.0827322
0.0827273
0.0827246
0.0827235
0.0823994
0.0824007
0.082404
0.08241
0.0824197
0.0824344
0.0824554
0.0824837
0.0825201
0.0825644
0.0826153
0.0826703
0.0827259
0.0827789
0.0828267
0.0828679
0.0828982
0.0829138
0.0829162
0.0829079
0.082891
0.0828679
0.0828414
0.0828146
0.0827899
0.082769
0.0827528
0.082741
0.082733
0.0827281
0.0827254
0.0827243
0.0824004
0.0824018
0.0824051
0.0824112
0.0824212
0.0824362
0.0824575
0.0824863
0.0825233
0.0825681
0.0826195
0.0826747
0.0827303
0.0827832
0.0828309
0.0828721
0.0829026
0.0829186
0.0829213
0.0829132
0.0828962
0.0828728
0.0828459
0.0828185
0.0827932
0.0827719
0.0827552
0.0827431
0.082735
0.08273
0.0827272
0.0827261
0.0824022
0.0824036
0.0824071
0.0824134
0.0824237
0.0824392
0.0824612
0.0824909
0.0825288
0.0825745
0.0826265
0.082682
0.0827377
0.0827903
0.082838
0.0828793
0.0829104
0.0829273
0.0829308
0.082923
0.0829057
0.0828815
0.0828535
0.082825
0.0827988
0.0827767
0.0827594
0.0827469
0.0827385
0.0827334
0.0827306
0.0827295
0.0824052
0.0824066
0.0824102
0.0824168
0.0824276
0.0824439
0.0824669
0.0824978
0.0825369
0.0825839
0.0826367
0.0826927
0.0827482
0.0828007
0.0828482
0.0828901
0.0829224
0.0829411
0.082946
0.0829388
0.082921
0.0828951
0.0828652
0.0828349
0.0828072
0.0827839
0.0827659
0.0827529
0.0827443
0.082739
0.0827363
0.0827352
0.0824095
0.082411
0.0824148
0.0824218
0.0824332
0.0824504
0.0824748
0.0825073
0.0825481
0.0825966
0.0826504
0.0827067
0.0827622
0.0828144
0.0828621
0.082905
0.0829396
0.0829612
0.0829686
0.0829623
0.0829436
0.0829154
0.0828825
0.0828494
0.0828194
0.0827946
0.0827755
0.082762
0.0827531
0.0827478
0.0827451
0.0827441
0.0824154
0.082417
0.082421
0.0824285
0.0824407
0.0824591
0.0824851
0.0825195
0.0825624
0.0826125
0.0826675
0.0827241
0.0827794
0.0828315
0.0828797
0.0829246
0.0829628
0.0829888
0.0829996
0.0829949
0.0829754
0.0829444
0.0829076
0.0828705
0.0828373
0.0828102
0.0827899
0.0827757
0.0827666
0.0827613
0.0827587
0.0827578
0.0824229
0.0824246
0.0824289
0.0824369
0.0824501
0.0824699
0.0824977
0.0825343
0.0825793
0.0826312
0.0826873
0.0827442
0.0827994
0.0828516
0.0829011
0.0829488
0.082992
0.0830238
0.0830395
0.0830375
0.083018
0.0829845
0.0829433
0.0829015
0.0828641
0.082834
0.0828119
0.0827968
0.0827875
0.0827823
0.0827798
0.082779
0.0824321
0.0824339
0.0824384
0.082447
0.0824611
0.0824824
0.0825122
0.082551
0.0825982
0.0826519
0.082709
0.0827662
0.0828214
0.0828741
0.0829252
0.0829766
0.0830257
0.0830646
0.0830869
0.0830897
0.0830725
0.0830384
0.0829941
0.0829475
0.0829052
0.0828713
0.0828467
0.0828303
0.0828204
0.0828151
0.0828128
0.0828121
0.0824426
0.0824445
0.0824493
0.0824584
0.0824734
0.0824961
0.0825277
0.0825685
0.0826178
0.0826731
0.082731
0.0827886
0.0828439
0.0828971
0.08295
0.083005
0.0830602
0.083107
0.0831379
0.083149
0.0831384
0.0831081
0.0830643
0.0830152
0.0829687
0.0829303
0.0829021
0.0828835
0.0828724
0.0828667
0.0828642
0.0828635
0.082454
0.082456
0.082461
0.0824705
0.0824863
0.08251
0.082543
0.0825856
0.0826365
0.0826931
0.0827517
0.0828092
0.0828644
0.0829176
0.0829713
0.0830285
0.0830883
0.0831431
0.083185
0.083209
0.0832114
0.0831922
0.0831558
0.0831096
0.0830621
0.0830203
0.082988
0.0829659
0.0829524
0.0829452
0.082942
0.082941
0.0824656
0.0824676
0.0824727
0.0824824
0.0824986
0.082523
0.0825569
0.0826005
0.0826524
0.0827095
0.0827682
0.0828252
0.082879
0.0829306
0.0829824
0.0830383
0.0830995
0.0831614
0.0832165
0.0832582
0.0832806
0.083281
0.0832613
0.0832269
0.0831854
0.0831444
0.0831096
0.0830837
0.0830668
0.0830571
0.0830525
0.0830509
0.0824765
0.0824785
0.0824836
0.0824933
0.0825095
0.0825338
0.0825678
0.0826113
0.0826631
0.0827198
0.0827773
0.0828323
0.0828828
0.0829295
0.082975
0.083024
0.0830815
0.083148
0.083217
0.0832797
0.0833273
0.0833546
0.0833605
0.0833476
0.0833216
0.0832894
0.0832577
0.0832311
0.0832118
0.0831997
0.0831933
0.0831909
0.0824856
0.0824875
0.0824925
0.0825019
0.0825175
0.082541
0.0825738
0.082616
0.082666
0.0827206
0.0827753
0.082826
0.0828701
0.0829076
0.0829408
0.0829761
0.0830234
0.0830905
0.0831721
0.0832565
0.0833319
0.0833898
0.0834264
0.0834418
0.0834396
0.083425
0.0834044
0.0833833
0.0833658
0.0833534
0.0833463
0.0833434
0.0824913
0.0824932
0.0824979
0.0825067
0.0825212
0.082543
0.0825733
0.0826124
0.0826588
0.0827091
0.0827586
0.0828024
0.0828369
0.0828609
0.0828766
0.0828916
0.0829218
0.0829839
0.0830745
0.0831797
0.0832837
0.0833739
0.0834433
0.0834898
0.083515
0.083523
0.0835193
0.0835095
0.0834984
0.0834891
0.0834831
0.0834804
0.0824916
0.0824934
0.0824979
0.0825059
0.0825189
0.082538
0.0825646
0.0825987
0.0826392
0.082683
0.0827251
0.0827601
0.0827832
0.0827918
0.0827876
0.0827786
0.082786
0.0828356
0.0829287
0.0830511
0.0831835
0.0833085
0.083414
0.0834942
0.0835488
0.083581
0.0835958
0.0835992
0.0835965
0.083592
0.0835882
0.0835862
0.0824847
0.0824864
0.0824906
0.0824978
0.0825091
0.0825255
0.0825477
0.0825762
0.0826097
0.0826458
0.0826798
0.0827061
0.0827193
0.0827158
0.0826957
0.0826666
0.0826513
0.0826817
0.0827661
0.0828946
0.0830488
0.0832069
0.0833505
0.0834681
0.0835552
0.0836133
0.0836475
0.083664
0.0836695
0.0836694
0.0836675
0.0836662
0.0824716
0.0824733
0.0824773
0.0824839
0.082494
0.0825081
0.0825267
0.0825502
0.0825776
0.0826067
0.0826337
0.0826534
0.0826605
0.0826509
0.0826238
0.0825854
0.0825577
0.0825727
0.0826425
0.0827639
0.0829238
0.0831019
0.0832758
0.0834275
0.083547
0.0836322
0.0836866
0.0837168
0.0837304
0.0837344
0.0837342
0.0837333
0.0824552
0.0824569
0.0824606
0.0824669
0.0824761
0.0824886
0.0825048
0.0825245
0.0825471
0.0825708
0.0825924
0.0826075
0.0826114
0.0826003
0.0825732
0.0825351
0.0825064
0.0825162
0.0825761
0.082687
0.0828413
0.0830239
0.0832132
0.0833882
0.0835337
0.083643
0.0837169
0.0837609
0.0837831
0.0837915
0.083793
0.0837924
0.0824376
0.0824392
0.0824428
0.0824486
0.0824571
0.0824685
0.0824828
0.0824998
0.0825188
0.0825383
0.0825558
0.0825677
0.0825702
0.0825603
0.0825375
0.0825068
0.0824862
0.0824996
0.0825565
0.0826593
0.0828043
0.0829809
0.0831724
0.0833585
0.0835213
0.0836498
0.083741
0.0837985
0.0838295
0.0838426
0.083846
0.0838458
0.0824224
0.0824237
0.0824267
0.0824318
0.0824392
0.0824493
0.0824619
0.0824767
0.0824929
0.0825092
0.0825235
0.0825333
0.082536
0.0825298
0.0825153
0.0824977
0.0824921
0.0825157
0.0825748
0.0826722
0.0828071
0.0829728
0.083157
0.083343
0.0835137
0.0836551
0.0837605
0.0838303
0.0838702
0.0838884
0.083894
0.0838943
0.0824151
0.0824158
0.0824175
0.0824208
0.0824262
0.082434
0.0824442
0.0824567
0.0824704
0.0824842
0.0824967
0.0825063
0.0825118
0.0825127
0.0825108
0.0825114
0.0825257
0.082563
0.0826266
0.0827197
0.0828437
0.0829956
0.0831667
0.0833443
0.0835137
0.083661
0.0837766
0.0838572
0.0839057
0.0839294
0.0839374
0.0839382
0.0824229
0.0824225
0.0824221
0.0824223
0.0824239
0.0824277
0.0824344
0.0824437
0.0824551
0.0824677
0.0824807
0.0824933
0.0825057
0.0825183
0.0825334
0.0825557
0.0825913
0.0826425
0.0827102
0.0827984
0.0829101
0.0830455
0.0831996
0.083363
0.083524
0.0836703
0.0837912
0.0838801
0.0839365
0.0839658
0.0839766
0.0839781
0.0824536
0.0824516
0.082448
0.0824437
0.08244
0.0824385
0.0824405
0.0824466
0.0824567
0.0824704
0.0824873
0.0825076
0.0825316
0.0825599
0.0825942
0.0826379
0.0826924
0.0827544
0.0828238
0.0829054
0.0830034
0.0831202
0.0832543
0.0833994
0.0835466
0.0836857
0.0838065
0.0839003
0.0839634
0.0839981
0.0840119
0.0840143
0.0825133
0.0825092
0.0825019
0.0824926
0.0824836
0.0824772
0.0824755
0.0824799
0.0824912
0.0825094
0.0825344
0.082566
0.0826041
0.0826488
0.0827006
0.0827612
0.0828286
0.0828962
0.0829638
0.0830368
0.0831201
0.0832176
0.0833297
0.0834536
0.083583
0.0837099
0.0838252
0.0839198
0.0839873
0.0840268
0.0840437
0.0840471
0.0826059
0.0825995
0.0825887
0.082576
0.0825645
0.0825566
0.0825549
0.0825615
0.0825776
0.0826033
0.0826382
0.0826814
0.082732
0.0827893
0.0828525
0.0829225
0.0829949
0.0830622
0.0831244
0.0831873
0.0832559
0.0833342
0.0834244
0.0835255
0.0836341
0.0837447
0.0838498
0.0839406
0.0840093
0.0840523
0.0840721
0.0840766
0.0827331
0.0827246
0.0827122
0.0827003
0.0826919
0.0826888
0.0826927
0.0827057
0.0827289
0.0827623
0.082805
0.0828558
0.0829133
0.0829758
0.0830423
0.0831129
0.0831828
0.0832445
0.0832986
0.0833505
0.0834049
0.0834656
0.083535
0.0836137
0.0837003
0.0837916
0.0838822
0.0839647
0.084031
0.0840753
0.0840973
0.0841031
0.082896
0.0828863
0.0828763
0.0828714
0.082873
0.0828806
0.0828943
0.0829153
0.0829447
0.0829823
0.0830275
0.0830791
0.0831356
0.0831954
0.0832572
0.0833209
0.0833821
0.0834344
0.0834787
0.0835195
0.0835608
0.0836058
0.0836568
0.0837149
0.0837801
0.0838508
0.0839239
0.0839941
0.0840539
0.0840967
0.0841198
0.0841265
0.0830968
0.0830881
0.0830863
0.0830945
0.0831099
0.0831296
0.0831524
0.0831789
0.0832099
0.0832461
0.0832873
0.0833327
0.0833813
0.0834316
0.0834827
0.0835343
0.0835829
0.0836237
0.0836574
0.0836875
0.0837172
0.0837487
0.0837841
0.0838244
0.0838701
0.0839208
0.0839751
0.0840298
0.0840794
0.0841174
0.0841397
0.0841471
0.083341
0.0833378
0.0833495
0.083371
0.0833965
0.0834226
0.0834482
0.083474
0.0835009
0.0835301
0.0835619
0.0835961
0.0836321
0.0836689
0.0837058
0.0837426
0.0837769
0.0838053
0.0838285
0.0838488
0.0838683
0.0838886
0.0839112
0.0839368
0.0839659
0.0839986
0.0840346
0.0840724
0.0841087
0.0841386
0.0841577
0.0841649
0.0836389
0.0836462
0.0836676
0.0836917
0.0837154
0.0837374
0.0837573
0.0837757
0.0837935
0.0838119
0.0838313
0.0838518
0.0838732
0.0838949
0.0839166
0.0839381
0.0839579
0.0839743
0.0839875
0.0839989
0.0840097
0.0840209
0.084033
0.0840468
0.0840624
0.0840801
0.0840998
0.084121
0.0841424
0.0841613
0.0841746
0.0841802
0.084003
0.0840086
0.0840196
0.0840301
0.0840397
0.0840482
0.0840557
0.0840623
0.0840685
0.0840746
0.084081
0.0840878
0.0840947
0.0841018
0.0841088
0.0841157
0.0841221
0.0841274
0.0841316
0.0841352
0.0841386
0.0841421
0.0841459
0.0841501
0.084155
0.0841604
0.0841665
0.0841731
0.0841799
0.0841863
0.084191
0.0841933
)
;

boundaryField
{
    movingWall
    {
        type            fixedValue;
        value           uniform 0.0842;
    }
    fixedWalls
    {
        type            zeroGradient;
    }
    floor
    {
        type            zeroGradient;
    }
    frontAndBack
    {
        type            empty;
    }
}


// ************************************************************************* //
