/*--------------------------------*- C++ -*----------------------------------*\
| =========                 |                                                 |
| \\      /  F ield         | OpenFOAM: The Open Source CFD Toolbox           |
|  \\    /   O peration     | Version:  2206                                  |
|   \\  /    A nd           | Website:  www.openfoam.com                      |
|    \\/     M anipulation  |                                                 |
\*---------------------------------------------------------------------------*/
FoamFile
{
    version     2.0;
    format      ascii;
    arch        "LSB;label=64;scalar=64";
    class       volScalarField;
    location    "3.1/solid";
    object      T;
}
// * * * * * * * * * * * * * * * * * * * * * * * * * * * * * * * * * * * * * //

dimensions      [0 0 0 1 0 0 0];

internalField   nonuniform List<scalar> 
500
(
1085.11769293
1084.94747118
1084.6059297
1084.09023763
1083.39553604
1082.51633477
1081.44608659
1080.17402987
1078.71471275
1077.22433688
1086.03066626
1085.8661611
1085.53676964
1085.04181613
1084.38074064
1083.55435159
1082.56696435
1081.42908744
1080.16128581
1078.80314041
1086.98779569
1086.82995707
1086.51452953
1086.04217581
1085.41432453
1084.63384106
1083.70596619
1082.63901785
1081.44358605
1080.13209153
1087.95874937
1087.80679662
1087.50335169
1087.04943176
1086.44677741
1085.69809937
1084.80731009
1083.77931766
1082.61832173
1081.32694418
1088.92437665
1088.77704949
1088.48282661
1088.04260843
1087.45780733
1086.73039854
1085.86291898
1084.85806762
1083.71677448
1082.43657522
1089.87062825
1089.72679569
1089.43945523
1089.00926501
1088.43720601
1087.72456901
1086.87292051
1085.8837357
1084.75627247
1083.48451942
1090.78827166
1090.64712048
1090.36503594
1089.94245281
1089.3799967
1088.67846127
1087.83880471
1086.86187944
1085.74608399
1084.48218417
1091.67170944
1091.53273334
1091.25491652
1090.83852749
1090.28394066
1089.59161922
1088.76215571
1087.7961324
1086.69158131
1085.43621966
1092.51784702
1092.38077376
1092.10670645
1091.69580251
1091.14827291
1090.46437199
1089.64448352
1088.68915138
1087.59643364
1086.350858
1093.32524112
1093.1899571
1092.91943336
1092.51375905
1091.973046
1091.29742195
1090.4871573
1089.54291339
1088.46317003
1087.22928713
1094.09349651
1093.95998681
1093.69299211
1093.29256371
1092.75875857
1092.09163062
1091.29138575
1090.35888409
1089.29341764
1088.07321218
1094.82285384
1094.69115888
1094.42778453
1094.03276486
1093.50613164
1092.84789933
1092.05823584
1091.13825668
1090.08856433
1088.88501288
1095.51391558
1095.38410123
1095.12448592
1094.73510022
1094.21597124
1093.567098
1092.78862192
1091.88193069
1090.84945847
1089.66735083
1096.16746644
1096.03960413
1095.78389482
1095.40037387
1094.88907643
1094.2500009
1093.48325491
1092.59042384
1091.57603501
1090.419336
1096.78435493
1096.65850943
1096.40683762
1096.02938351
1095.52619629
1094.89728105
1094.14269858
1093.26412904
1092.26834375
1091.1400968
1097.36541087
1097.24163379
1096.99410336
1096.62287336
1096.12800897
1095.50952504
1094.76742052
1093.90332962
1092.92620252
1091.82873354
1097.9113819
1097.78970893
1097.54639122
1097.18149234
1096.69509405
1096.08722386
1095.35780992
1094.50828557
1093.54951978
1092.4857147
1098.42287871
1098.30332865
1098.06426098
1097.70574852
1097.2278898
1096.63072997
1095.91413297
1095.07920635
1094.13824453
1093.11275848
1098.90032461
1098.78289934
1098.54808498
1098.19596254
1097.72664641
1097.14020234
1096.43643728
1095.61600234
1094.691471
1093.70980168
1099.34390858
1099.22859378
1098.99800336
1098.65222502
1098.19138692
1097.61557658
1096.92455879
1096.11848234
1095.20860379
1094.26161668
1099.75354147
1099.6403078
1099.41388194
1099.07435682
1098.6218724
1098.05653917
1097.3780978
1096.58622972
1095.69026863
1094.75449232
1100.12881545
1100.01761983
1099.7952717
1099.46186752
1099.01755634
1098.46247033
1097.79633832
1097.01840977
1096.1360285
1095.2094531
1100.46896723
1100.35975466
1100.14137362
1099.81392286
1099.37755855
1098.83243485
1098.1782854
1097.41398243
1096.5449239
1095.62748059
1100.77284505
1100.66555025
1100.45100527
1100.12931003
1099.70062598
1099.16512878
1098.52257049
1097.77149471
1096.91539065
1096.00603927
1101.03887944
1100.93342855
1100.72257143
1100.40640812
1099.98510309
1099.45885141
1098.82743384
1098.08911332
1097.24549634
1096.3440844
1101.26505885
1101.16137099
1100.9540397
1100.6431644
1100.22891117
1099.71149347
1099.09073245
1098.36466223
1097.53306462
1096.63839581
1101.44891044
1101.34689914
1101.14292058
1100.83707321
1100.42952361
1099.92050275
1099.30988373
1098.59552813
1097.775447
1096.88744882
1101.58748702
1101.48706123
1101.2862534
1100.98516106
1100.5839507
1100.0828695
1099.48185077
1098.77863225
1097.96951579
1097.0869265
1101.67736137
1101.57842611
1101.38059932
1101.0839782
1100.68872965
1100.19511768
1099.60314836
1098.91049703
1098.11182874
1097.23467031
1101.71462951
1101.61708599
1101.42204313
1101.12959875
1100.7399215
1100.25329405
1099.66980813
1098.98713617
1098.19834647
1097.32529636
1101.69492446
1101.59867018
1101.40620642
1101.11763227
1100.73311915
1100.25296992
1099.67737512
1099.00407339
1098.22461351
1097.35541218
1101.61344148
1101.51837078
1101.32827454
1101.04325261
1100.66347817
1100.18927238
1099.62093357
1098.95633865
1098.18558
1097.31876132
1101.46497371
1101.37097964
1101.18303638
1100.90124327
1100.52577285
1100.05695983
1099.49521287
1098.83861778
1098.0758874
1097.21062067
1101.24395568
1101.15093276
1100.96493077
1100.68604696
1100.31445031
1099.85048271
1099.29466101
1098.64535458
1097.89003358
1097.02466548
1100.94451257
1100.85235979
1100.66809651
1100.39181666
1100.02368293
1099.56403719
1099.01349783
1098.37079499
1097.62233983
1096.75575839
1100.56051423
1100.46913749
1100.28642467
1100.01246624
1099.6474177
1099.19161556
1098.6457722
1098.00906431
1097.26712235
1096.39754083
1100.08563589
1099.9949488
1099.8136142
1099.54172023
1099.17941635
1098.72703134
1098.18536373
1097.55412641
1096.81859684
1095.94491632
1099.51342898
1099.42335197
1099.24323745
1098.97317323
1098.61330524
1098.16395302
1097.6259876
1096.9997312
1096.27066542
1095.39129835
1098.83740559
1098.74786354
1098.56882035
1098.30036656
1097.94264889
1097.49597872
1096.96128327
1096.33954692
1095.61718493
1094.73078115
1098.05113896
1097.96205732
1097.78393836
1097.51687943
1097.16103425
1096.71671023
1096.18487344
1095.56719174
1094.85196044
1093.95696528
1097.14838195
1097.05968157
1096.88233106
1096.61643962
1096.26217572
1095.81984945
1095.29044663
1094.67629121
1093.96872252
1093.06926163
1096.12320478
1096.03479545
1095.85803603
1095.59305391
1095.24004202
1094.79932304
1094.27188494
1093.66062356
1092.96084608
1092.07286167
1094.97015345
1094.8819257
1094.70554212
1094.44115596
1094.08899707
1093.64941593
1093.12339226
1092.51426979
1091.82162877
1090.95529402
1093.68443012
1093.59624539
1093.41996421
1093.15577379
1092.80395506
1092.36490661
1091.83960057
1091.23169039
1090.54498085
1089.70325602
1092.26209473
1092.17377508
1091.99724265
1091.73272414
1091.38056343
1090.94122965
1090.41570162
1089.80781161
1089.12538624
1088.30975974
1090.70028186
1090.61160287
1090.43436881
1090.16884234
1089.81542832
1089.37467491
1088.8475816
1088.23804287
1087.55758749
1086.77059582
1088.99742873
1088.90812158
1088.7296439
1088.4622746
1088.10644014
1087.66271717
1087.13207562
1086.51831622
1085.8359972
1085.08009775
1087.15353259
1087.06329033
1086.88297757
1086.61286413
1086.25329715
1085.8046931
1085.26772
1084.64568424
1083.95467601
1083.22190293
1085.17047958
1085.07888208
1084.89612932
1084.62252005
1084.25818087
1083.80299927
1083.25663997
1082.62077595
1081.91067084
1081.16808799
1083.05240727
1082.95826317
1082.77227657
1082.49483682
1082.12578238
1081.66422799
1081.10809602
1080.45530834
1079.71431147
1078.90902858
)
;

boundaryField
{
    symmetric
    {
        type            symmetry;
    }
    emptyPatch
    {
        type            empty;
    }
    solid_to_water
    {
        type            compressible::turbulentTemperatureTwoPhaseRadCoupledMixed;
        refValue        nonuniform List<scalar> 
70
(
407.25841029
405.675715409
404.013720693
402.225136824
398.907700625
392.962726898
380.943294354
358.458618316
342.288492719
337.531608856
341.885765885
343.321212651
343.34002354
343.639190678
343.299010888
343.487120817
343.159043465
343.333331811
343.102036519
343.154293202
342.791416262
341.405856616
339.483650415
337.914242608
336.668518354
335.818676611
335.628199273
336.44291636
340.931926489
376.21993858
394.817843307
395.37387375
408.963540644
402.383443171
414.00766042
405.204932652
415.355133228
406.303314767
415.208331955
406.730482883
414.164235316
406.477174596
412.298558821
406.641052672
411.027994495
406.958236055
409.810984706
406.180097335
405.447515802
395.144457273
362.705371779
345.815283319
340.509183238
338.298042732
337.560037414
337.884626785
340.705917034
354.301724741
379.852378907
334.306733006
334.410822136
334.479222747
334.544029852
334.608533028
334.668122338
334.704858798
334.745878635
334.935218256
369.917858094
335.609755497
)
;
        refGradient     uniform 0;
        valueFraction   nonuniform List<scalar> 
70
(
0.000571890484046
0.000571218265043
0.000572495688497
0.000575306371295
0.000586720665522
0.000614176699398
0.000689166333383
0.000941160929581
0.00133814155849
0.00150102174842
0.000940729994718
0.000935742912939
0.00094249916109
0.000937449123579
0.000944523865281
0.000940117733703
0.000946765260343
0.000943012251378
0.000948145652202
0.000946811816683
0.000950546752527
0.000966001278068
0.000980285312141
0.00097631166304
0.000962863587884
0.000949665533853
0.000947635275595
0.000960801408333
0.00097584661869
0.00058342351793
0.000539333432287
0.000576602806333
0.000533365193888
0.000576801234611
0.000533374443181
0.000576712679132
0.000536066747676
0.000576815878981
0.000539815656432
0.000577106114919
0.000545282566694
0.000578620769431
0.000553111984177
0.000578542110514
0.000559909588617
0.000578992299951
0.000566733109114
0.00058222898815
0.000578115704561
0.000597874127197
0.000777992633858
0.000946994825405
0.000981438485025
0.000973535172424
0.000968961110796
0.000972292494953
0.000974311215712
0.000822990666257
0.000654038657799
0.0014994171492
0.00150560700812
0.00150908754047
0.00151219674759
0.00151499885456
0.0015172395375
0.00151808719107
0.00151898988456
0.00152490253414
0.000760275486843
0.00152577707789
)
;
        source          uniform 0;
        value           nonuniform List<scalar> 
70
(
1084.73111674
1084.56053698
1084.21736773
1083.69902283
1082.99499912
1082.09392253
1080.96463614
1079.49682566
1077.73130593
1076.11521887
1076.53375935
1078.11592062
1079.43881662
1080.63651719
1081.73970223
1082.79008887
1083.78174044
1084.737849
1085.64775838
1086.5264933
1087.36667964
1088.16522962
1088.93467893
1089.68759928
1090.41669835
1091.11395523
1091.77195479
1092.38973969
1092.979783
1093.84190039
1094.37547818
1094.80496412
1095.25969027
1095.60510092
1095.97871398
1096.23890656
1096.52083931
1096.6878666
1096.86541407
1096.92626259
1096.98197602
1096.91865369
1096.83107086
1096.62492289
1096.3712155
1095.99802998
1095.55552796
1094.98967986
1094.3318627
1093.53900519
1092.50355933
1091.37133492
1090.22473484
1088.97785024
1087.58860319
1086.04904176
1084.36171242
1082.62690334
1080.7116747
1081.93100506
1081.83252439
1081.64431685
1081.3650688
1080.99457723
1080.53214205
1079.9762613
1079.32371796
1078.57943022
1078.37250741
1077.7774251
)
;
        kappaMethod     solidThermo;
        Tnbr            T.liquid;
        region          solid;
        otherPhase      gas;
    }
}


// ************************************************************************* //
