/*--------------------------------*- C++ -*----------------------------------*\
| =========                 |                                                 |
| \\      /  F ield         | OpenFOAM: The Open Source CFD Toolbox           |
|  \\    /   O peration     | Version:  2212                                  |
|   \\  /    A nd           | Website:  www.openfoam.com                      |
|    \\/     M anipulation  |                                                 |
\*---------------------------------------------------------------------------*/
FoamFile
{
    version     2.0;
    format      ascii;
    arch        "LSB;label=64;scalar=64";
    class       surfaceScalarField;
    location    "0.52";
    object      phi;
}
// * * * * * * * * * * * * * * * * * * * * * * * * * * * * * * * * * * * * * //

dimensions      [0 3 -1 0 0 0 0];

oriented        oriented;

internalField   nonuniform List<scalar> 
65152
(
-2.59631e-13
2.59637e-13
-1.25406e-12
9.94438e-13
-2.76486e-12
1.5108e-12
-4.45891e-12
1.69406e-12
-6.0977e-12
1.6388e-12
-7.58251e-12
1.48481e-12
-8.91184e-12
1.32934e-12
-1.01244e-11
1.21254e-12
-1.12613e-11
1.13694e-12
-1.23516e-11
1.09028e-12
-1.34108e-11
1.05921e-12
-1.44451e-11
1.03436e-12
-1.54557e-11
1.01054e-12
-1.6441e-11
9.85335e-13
-1.73989e-11
9.57863e-13
-1.83268e-11
9.27915e-13
-1.92223e-11
8.95534e-13
-2.00831e-11
8.60829e-13
-2.0907e-11
8.23906e-13
-2.16919e-11
7.84855e-13
-2.24356e-11
7.43751e-13
-2.31363e-11
7.00654e-13
-2.37919e-11
6.55618e-13
-2.44006e-11
6.08685e-13
-2.49605e-11
5.59893e-13
-2.54698e-11
5.09277e-13
-2.59266e-11
4.56874e-13
-2.63294e-11
4.02721e-13
-2.66762e-11
3.4686e-13
-2.69656e-11
2.89347e-13
-2.71958e-11
2.30258e-13
-2.73655e-11
1.69708e-13
-2.74734e-11
1.07881e-13
-2.75188e-11
4.53226e-14
-2.74998e-11
-1.89811e-14
-2.74165e-11
-8.331e-14
-2.72682e-11
-1.48248e-13
-2.70547e-11
-2.13519e-13
-2.67758e-11
-2.78965e-13
-2.64313e-11
-3.44456e-13
-2.60215e-11
-4.09856e-13
-2.55464e-11
-4.75012e-13
-2.50067e-11
-5.39752e-13
-2.44028e-11
-6.03886e-13
-2.37356e-11
-6.67204e-13
-2.30061e-11
-7.29488e-13
-2.22156e-11
-7.90511e-13
-2.13656e-11
-8.50036e-13
-2.04577e-11
-9.07822e-13
-1.94941e-11
-9.63626e-13
-1.84769e-11
-1.01721e-12
-1.74086e-11
-1.06831e-12
-1.62919e-11
-1.11671e-12
-1.51297e-11
-1.16217e-12
-1.39252e-11
-1.20446e-12
-1.26819e-11
-1.24339e-12
-1.14031e-11
-1.27876e-12
-1.00927e-11
-1.31038e-12
-8.75464e-12
-1.33809e-12
-7.39295e-12
-1.3617e-12
-6.01197e-12
-1.38099e-12
-4.61624e-12
-1.39574e-12
-3.21052e-12
-1.40573e-12
-1.79975e-12
-1.41078e-12
-3.88945e-13
-1.41082e-12
1.01695e-12
-1.40591e-12
2.41341e-12
-1.39647e-12
3.79633e-12
-1.38294e-12
5.16182e-12
-1.36551e-12
6.50615e-12
-1.34435e-12
7.82569e-12
-1.31956e-12
9.11686e-12
-1.29119e-12
1.03762e-11
-1.25934e-12
1.16003e-11
-1.22412e-12
1.27859e-11
-1.18566e-12
1.393e-11
-1.14411e-12
1.50296e-11
-1.09966e-12
1.6082e-11
-1.0525e-12
1.70848e-11
-1.00281e-12
1.80356e-11
-9.50817e-13
1.89323e-11
-8.96724e-13
1.9773e-11
-8.40749e-13
2.0556e-11
-7.83107e-13
2.128e-11
-7.24008e-13
2.19436e-11
-6.63655e-13
2.25457e-11
-6.0224e-13
2.30856e-11
-5.39939e-13
2.35624e-11
-4.7691e-13
2.39757e-11
-4.13298e-13
2.43248e-11
-3.49242e-13
2.46096e-11
-2.84882e-13
2.48299e-11
-2.20368e-13
2.49857e-11
-1.55877e-13
2.50773e-11
-9.16553e-14
2.51053e-11
-2.80948e-14
2.50698e-11
3.53658e-14
2.49731e-11
9.65731e-14
2.48163e-11
1.56766e-13
2.46008e-11
2.1539e-13
2.43283e-11
2.72343e-13
2.40006e-11
3.27586e-13
2.36194e-11
3.81103e-13
2.31864e-11
4.32885e-13
2.27034e-11
4.82923e-13
2.21721e-11
5.312e-13
2.15943e-11
5.7769e-13
2.09718e-11
6.22359e-13
2.03065e-11
6.65162e-13
1.96003e-11
7.06049e-13
1.88553e-11
7.44957e-13
1.80733e-11
7.81807e-13
1.72567e-11
8.16504e-13
1.64076e-11
8.48933e-13
1.55285e-11
8.78976e-13
1.46218e-11
9.0658e-13
1.36897e-11
9.31944e-13
1.27336e-11
9.55957e-13
1.17524e-11
9.81044e-13
1.07397e-11
1.0125e-12
9.67973e-12
1.05987e-12
8.54277e-12
1.1368e-12
7.2866e-12
1.25602e-12
5.87109e-12
1.41536e-12
4.2962e-12
1.57474e-12
2.65938e-12
1.63667e-12
1.19742e-12
1.4618e-12
2.39529e-13
9.57707e-13
2.39489e-13
-7.30792e-13
9.90436e-13
-2.65231e-12
2.91596e-12
-5.23428e-12
4.09277e-12
-7.94054e-12
4.40033e-12
-1.0425e-11
4.12328e-12
-1.25639e-11
3.62368e-12
-1.43816e-11
3.14706e-12
-1.59609e-11
2.79183e-12
-1.7384e-11
2.5601e-12
-1.871e-11
2.41623e-12
-1.99732e-11
2.32248e-12
-2.11909e-11
2.25204e-12
-2.23698e-11
2.18948e-12
-2.35117e-11
2.12721e-12
-2.46158e-11
2.062e-12
-2.56806e-11
1.99266e-12
-2.67039e-11
1.91889e-12
-2.76838e-11
1.84069e-12
-2.8618e-11
1.75815e-12
-2.95045e-11
1.67137e-12
-3.03412e-11
1.58043e-12
-3.1126e-11
1.48543e-12
-3.18568e-11
1.38644e-12
-3.25317e-11
1.28354e-12
-3.31486e-11
1.17679e-12
-3.37055e-11
1.06626e-12
-3.42007e-11
9.52012e-13
-3.46321e-11
8.34131e-13
-3.49979e-11
7.12695e-13
-3.52964e-11
5.87798e-13
-3.55257e-11
4.59554e-13
-3.56841e-11
3.28113e-13
-3.57699e-11
1.9368e-13
-3.57812e-11
5.65568e-14
-3.57174e-11
-8.279e-14
-3.55772e-11
-2.23487e-13
-3.53603e-11
-3.65167e-13
-3.50662e-11
-5.07651e-13
-3.46944e-11
-6.50754e-13
-3.42446e-11
-7.94246e-13
-3.37166e-11
-9.37832e-13
-3.31105e-11
-1.08117e-12
-3.24263e-11
-1.22388e-12
-3.16647e-11
-1.36552e-12
-3.08263e-11
-1.50561e-12
-2.99121e-11
-1.64364e-12
-2.89235e-11
-1.7791e-12
-2.78621e-11
-1.91144e-12
-2.67299e-11
-2.0401e-12
-2.5529e-11
-2.16451e-12
-2.42621e-11
-2.28411e-12
-2.29321e-11
-2.39832e-12
-2.15422e-11
-2.50659e-12
-2.0096e-11
-2.60837e-12
-1.85973e-11
-2.70313e-12
-1.70504e-11
-2.79037e-12
-1.54595e-11
-2.86964e-12
-1.38294e-11
-2.94049e-12
-1.2165e-11
-3.0025e-12
-1.04714e-11
-3.05528e-12
-8.75401e-12
-3.09841e-12
-7.01829e-12
-3.13147e-12
-5.26993e-12
-3.15411e-12
-3.51459e-12
-3.16614e-12
-1.75784e-12
-3.16758e-12
-5.11818e-15
-3.15865e-12
1.73809e-12
-3.1397e-12
3.46656e-12
-3.11143e-12
5.17559e-12
-3.07457e-12
6.86066e-12
-3.02945e-12
8.51738e-12
-2.97631e-12
1.01414e-11
-2.91525e-12
1.17285e-11
-2.84649e-12
1.32746e-11
-2.77027e-12
1.47758e-11
-2.68691e-12
1.62284e-11
-2.59676e-12
1.76289e-11
-2.5002e-12
1.8974e-11
-2.39766e-12
2.02607e-11
-2.28958e-12
2.14863e-11
-2.17641e-12
2.26481e-11
-2.05863e-12
2.3744e-11
-1.93669e-12
2.47719e-11
-1.81109e-12
2.57301e-11
-1.68226e-12
2.6617e-11
-1.55067e-12
2.74314e-11
-1.41673e-12
2.81722e-11
-1.28085e-12
2.88386e-11
-1.1434e-12
2.943e-11
-1.00472e-12
2.99458e-11
-8.65149e-13
3.03858e-11
-7.25027e-13
3.075e-11
-5.84692e-13
3.10385e-11
-4.44501e-13
3.12516e-11
-3.04839e-13
3.13895e-11
-1.66079e-13
3.14534e-11
-2.87142e-14
3.14438e-11
1.06063e-13
3.13628e-11
2.37625e-13
3.12124e-11
3.65672e-13
3.09945e-11
4.9012e-13
3.0711e-11
6.10939e-13
3.03638e-11
7.28136e-13
2.99549e-11
8.41714e-13
2.9486e-11
9.51663e-13
2.89591e-11
1.05796e-12
2.83761e-11
1.16058e-12
2.77388e-11
1.25946e-12
2.70493e-11
1.35454e-12
2.63094e-11
1.44576e-12
2.55212e-11
1.53302e-12
2.46866e-11
1.61622e-12
2.38077e-11
1.69524e-12
2.28865e-11
1.76998e-12
2.19249e-11
1.8404e-12
2.09245e-11
1.90678e-12
1.9886e-11
1.97029e-12
1.88076e-11
2.03417e-12
1.76823e-11
2.1061e-12
1.64929e-11
2.20173e-12
1.52042e-11
2.34841e-12
1.37561e-11
2.58471e-12
1.20644e-11
2.94744e-12
1.00441e-11
3.43551e-12
7.66806e-12
3.9506e-12
5.05817e-12
4.24638e-12
2.55813e-12
3.96165e-12
6.98327e-13
2.81731e-12
9.37777e-13
-7.13098e-13
1.70354e-12
-2.52126e-12
4.72414e-12
-4.85003e-12
6.42154e-12
-7.1661e-12
6.71641e-12
-9.15172e-12
6.10892e-12
-1.0715e-11
5.18694e-12
-1.1907e-11
4.33903e-12
-1.28302e-11
3.71508e-12
-1.35811e-11
3.31102e-12
-1.42285e-11
3.06357e-12
-1.48136e-11
2.90762e-12
-1.53585e-11
2.79691e-12
-1.58735e-11
2.70452e-12
-1.63632e-11
2.61692e-12
-1.68292e-11
2.52802e-12
-1.72719e-11
2.4354e-12
-1.76913e-11
2.33821e-12
-1.80868e-11
2.23622e-12
-1.84581e-11
2.12941e-12
-1.88045e-11
2.01783e-12
-1.91256e-11
1.90155e-12
-1.94208e-11
1.78064e-12
-1.96895e-11
1.65515e-12
-1.99312e-11
1.52519e-12
-2.01452e-11
1.39081e-12
-2.03311e-11
1.25212e-12
-2.04883e-11
1.1092e-12
-2.06163e-11
9.62181e-13
-2.07148e-11
8.11203e-13
-2.07835e-11
6.56417e-13
-2.08219e-11
4.98008e-13
-2.083e-11
3.36162e-13
-2.08075e-11
1.71155e-13
-2.07544e-11
3.51499e-15
-2.06701e-11
-1.67106e-13
-2.05541e-11
-3.39543e-13
-2.04055e-11
-5.13815e-13
-2.02234e-11
-6.89695e-13
-2.00073e-11
-8.66905e-13
-1.97565e-11
-1.04507e-12
-1.94705e-11
-1.2238e-12
-1.9149e-11
-1.40265e-12
-1.87918e-11
-1.58107e-12
-1.83988e-11
-1.75852e-12
-1.79701e-11
-1.93437e-12
-1.75058e-11
-2.10797e-12
-1.70062e-11
-2.27865e-12
-1.6472e-11
-2.44569e-12
-1.59037e-11
-2.60837e-12
-1.53023e-11
-2.76595e-12
-1.46687e-11
-2.91766e-12
-1.40043e-11
-3.06276e-12
-1.33104e-11
-3.20049e-12
-1.25886e-11
-3.33011e-12
-1.18409e-11
-3.4509e-12
-1.10691e-11
-3.56218e-12
-1.02754e-11
-3.66329e-12
-9.46229e-12
-3.75365e-12
-8.63211e-12
-3.8327e-12
-7.78745e-12
-3.89996e-12
-6.93088e-12
-3.955e-12
-6.0649e-12
-3.99747e-12
-5.19188e-12
-4.02715e-12
-4.31403e-12
-4.04401e-12
-3.4334e-12
-4.04823e-12
-2.55188e-12
-4.04019e-12
-1.67122e-12
-4.02039e-12
-7.93292e-13
-3.98939e-12
7.97702e-14
-3.94766e-12
9.45787e-13
-3.8955e-12
1.80261e-12
-3.83316e-12
2.64821e-12
-3.76089e-12
3.48067e-12
-3.67898e-12
4.2981e-12
-3.58774e-12
5.0987e-12
-3.48755e-12
5.88076e-12
-3.37887e-12
6.64266e-12
-3.26215e-12
7.38287e-12
-3.13792e-12
8.09995e-12
-3.00671e-12
8.79256e-12
-2.86908e-12
9.45946e-12
-2.7256e-12
1.00995e-11
-2.5768e-12
1.07116e-11
-2.4233e-12
1.12949e-11
-2.26564e-12
1.18485e-11
-2.10437e-12
1.23717e-11
-1.94e-12
1.28638e-11
-1.77305e-12
1.33243e-11
-1.60398e-12
1.37528e-11
-1.43327e-12
1.41489e-11
-1.2614e-12
1.45126e-11
-1.08886e-12
1.4844e-11
-9.1615e-13
1.51432e-11
-7.43848e-13
1.54108e-11
-5.72509e-13
1.56472e-11
-4.02688e-13
1.58533e-11
-2.34885e-13
1.60287e-11
-6.94546e-14
1.61732e-11
9.29682e-14
1.62868e-11
2.51939e-13
1.63699e-11
4.06936e-13
1.64227e-11
5.57988e-13
1.64456e-11
7.05037e-13
1.64392e-11
8.48048e-13
1.64037e-11
9.86983e-13
1.63397e-11
1.12181e-12
1.62476e-11
1.25249e-12
1.6128e-11
1.37898e-12
1.59811e-11
1.50121e-12
1.58076e-11
1.61911e-12
1.56079e-11
1.73262e-12
1.53823e-11
1.84163e-12
1.51313e-11
1.94609e-12
1.48551e-11
2.04594e-12
1.4554e-11
2.14139e-12
1.42273e-11
2.23324e-12
1.38735e-11
2.32388e-12
1.34881e-11
2.41942e-12
1.30604e-11
2.53357e-12
1.25683e-11
2.69362e-12
1.19699e-11
2.94669e-12
1.11951e-11
3.35931e-12
1.01456e-11
3.99667e-12
8.71647e-12
4.86449e-12
6.85382e-12
5.81307e-12
4.64744e-12
6.45257e-12
2.41244e-12
6.19645e-12
6.7568e-13
4.55387e-12
1.61342e-12
-6.19256e-13
2.3228e-12
-2.1991e-12
6.30399e-12
-4.19474e-12
8.41719e-12
-6.09843e-12
8.62011e-12
-7.61989e-12
7.63038e-12
-8.69089e-12
6.25794e-12
-9.37883e-12
5.02698e-12
-9.79579e-12
4.13205e-12
-1.00431e-11
3.55832e-12
-1.0192e-11
3.21248e-12
-1.02854e-11
3.00101e-12
-1.03463e-11
2.85789e-12
-1.03865e-11
2.74467e-12
-1.04114e-11
2.64188e-12
-1.0424e-11
2.5406e-12
-1.04258e-11
2.43717e-12
-1.04178e-11
2.33019e-12
-1.04007e-11
2.21917e-12
-1.03752e-11
2.10395e-12
-1.03419e-11
1.98453e-12
-1.03013e-11
1.8609e-12
-1.02538e-11
1.73312e-12
-1.01998e-11
1.60122e-12
-1.01399e-11
1.46524e-12
-1.00743e-11
1.32525e-12
-1.00035e-11
1.18132e-12
-9.9279e-12
1.03356e-12
-9.84782e-12
8.82089e-13
-9.7637e-12
7.27075e-13
-9.67598e-12
5.6869e-13
-9.58509e-12
4.07115e-13
-9.49153e-12
2.42588e-13
-9.39581e-12
7.54221e-14
-9.29779e-12
-9.45142e-14
-9.19813e-12
-2.66776e-13
-9.0963e-12
-4.41384e-13
-8.99192e-12
-6.18205e-13
-8.88467e-12
-7.96958e-13
-8.77429e-12
-9.77297e-13
-8.66046e-12
-1.15891e-12
-8.54294e-12
-1.34133e-12
-8.42149e-12
-1.5241e-12
-8.29586e-12
-1.70671e-12
-8.1658e-12
-1.88858e-12
-8.03107e-12
-2.0691e-12
-7.89145e-12
-2.2476e-12
-7.74674e-12
-2.42336e-12
-7.59677e-12
-2.59566e-12
-7.44143e-12
-2.76372e-12
-7.28062e-12
-2.92676e-12
-7.11434e-12
-3.08396e-12
-6.9426e-12
-3.23451e-12
-6.76551e-12
-3.37759e-12
-6.58324e-12
-3.51239e-12
-6.39605e-12
-3.6381e-12
-6.20426e-12
-3.75397e-12
-6.00828e-12
-3.85928e-12
-5.80857e-12
-3.95337e-12
-5.60561e-12
-4.03567e-12
-5.39982e-12
-4.10575e-12
-5.19152e-12
-4.16331e-12
-4.9808e-12
-4.20821e-12
-4.76746e-12
-4.2405e-12
-4.55106e-12
-4.26042e-12
-4.33098e-12
-4.26834e-12
-4.10649e-12
-4.26469e-12
-3.877e-12
-4.24991e-12
-3.64207e-12
-4.22434e-12
-3.40153e-12
-4.18823e-12
-3.15533e-12
-4.14173e-12
-2.90353e-12
-4.08499e-12
-2.64627e-12
-4.01819e-12
-2.38372e-12
-3.94157e-12
-2.11606e-12
-3.85544e-12
-1.8435e-12
-3.76016e-12
-1.56627e-12
-3.65614e-12
-1.28464e-12
-3.54384e-12
-9.98869e-13
-3.42374e-12
-7.09286e-13
-3.29636e-12
-4.16233e-13
-3.1622e-12
-1.20088e-13
-3.02181e-12
1.78788e-13
-2.87575e-12
4.79932e-13
-2.72452e-12
7.82873e-13
-2.56866e-12
1.08712e-12
-2.4087e-12
1.39216e-12
-2.24513e-12
1.69748e-12
-2.07846e-12
2.00256e-12
-1.90915e-12
2.30689e-12
-1.7377e-12
2.61e-12
-1.56461e-12
2.91147e-12
-1.39044e-12
3.21101e-12
-1.21579e-12
3.50833e-12
-1.04129e-12
3.80332e-12
-8.67606e-13
4.09587e-12
-6.9536e-13
4.38595e-12
-5.25089e-13
4.67356e-12
-3.57184e-13
4.95827e-12
-1.91867e-13
5.23895e-12
-2.88657e-14
5.51554e-12
1.30217e-13
5.78706e-12
2.8633e-13
6.05297e-12
4.39001e-13
6.31274e-12
5.88139e-13
6.56586e-12
7.33724e-13
6.8118e-12
8.75725e-13
7.05004e-12
1.01411e-12
7.28002e-12
1.14885e-12
7.50119e-12
1.27989e-12
7.71295e-12
1.4072e-12
7.9147e-12
1.5307e-12
8.1058e-12
1.65038e-12
8.28553e-12
1.76618e-12
8.45308e-12
1.87822e-12
8.60742e-12
1.98688e-12
8.74696e-12
2.09352e-12
8.86888e-12
2.20177e-12
8.96755e-12
2.32057e-12
9.0313e-12
2.46962e-12
9.03683e-12
2.68791e-12
8.94072e-12
3.0426e-12
8.67068e-12
3.62916e-12
8.12367e-12
4.54349e-12
7.18529e-12
5.80268e-12
5.78571e-12
7.21247e-12
3.99117e-12
8.24694e-12
2.08932e-12
8.09811e-12
5.81362e-13
6.06164e-12
2.19474e-12
-5.95488e-13
2.9183e-12
-2.10708e-12
7.81559e-12
-3.99121e-12
1.03013e-11
-5.7454e-12
1.03743e-11
-7.08915e-12
8.97413e-12
-7.96541e-12
7.13421e-12
-8.45089e-12
5.51247e-12
-8.66371e-12
4.34487e-12
-8.70846e-12
3.60307e-12
-8.65794e-12
3.16197e-12
-8.55567e-12
2.89875e-12
-8.42507e-12
2.72729e-12
-8.27798e-12
2.59759e-12
-8.12031e-12
2.48421e-12
-7.95521e-12
2.37551e-12
-7.78464e-12
2.2666e-12
-7.60998e-12
2.15554e-12
-7.43243e-12
2.04162e-12
-7.25302e-12
1.92454e-12
-7.07274e-12
1.80425e-12
-6.89249e-12
1.68066e-12
-6.71314e-12
1.55377e-12
-6.53551e-12
1.42359e-12
-6.36038e-12
1.29011e-12
-6.18847e-12
1.15334e-12
-6.02049e-12
1.01333e-12
-5.85708e-12
8.70143e-13
-5.69885e-12
7.23856e-13
-5.54637e-12
5.7459e-13
-5.40017e-12
4.22483e-13
-5.26077e-12
2.67699e-13
-5.12856e-12
1.10372e-13
-5.0038e-12
-4.93479e-14
-4.88696e-12
-2.11366e-13
-4.77807e-12
-3.75679e-13
-4.67724e-12
-5.4223e-13
-4.58462e-12
-7.10842e-13
-4.5003e-12
-8.81291e-13
-4.42431e-12
-1.0533e-12
-4.35671e-12
-1.22651e-12
-4.29745e-12
-1.40061e-12
-4.24639e-12
-1.57518e-12
-4.20336e-12
-1.74976e-12
-4.16811e-12
-1.92384e-12
-4.14038e-12
-2.09684e-12
-4.11983e-12
-2.26816e-12
-4.10609e-12
-2.43712e-12
-4.09875e-12
-2.60301e-12
-4.09743e-12
-2.76506e-12
-4.1017e-12
-2.9225e-12
-4.11115e-12
-3.07452e-12
-4.12535e-12
-3.22031e-12
-4.14391e-12
-3.35904e-12
-4.16644e-12
-3.48987e-12
-4.19258e-12
-3.61197e-12
-4.22199e-12
-3.72458e-12
-4.25434e-12
-3.82693e-12
-4.28934e-12
-3.91838e-12
-4.32663e-12
-3.9984e-12
-4.36576e-12
-4.06663e-12
-4.40613e-12
-4.12296e-12
-4.44686e-12
-4.16749e-12
-4.48679e-12
-4.20058e-12
-4.5245e-12
-4.22273e-12
-4.55837e-12
-4.23449e-12
-4.58672e-12
-4.23636e-12
-4.60799e-12
-4.22867e-12
-4.62078e-12
-4.21157e-12
-4.62394e-12
-4.1851e-12
-4.61649e-12
-4.14921e-12
-4.59763e-12
-4.10389e-12
-4.56665e-12
-4.0492e-12
-4.52299e-12
-3.98528e-12
-4.46614e-12
-3.91233e-12
-4.39569e-12
-3.83065e-12
-4.31129e-12
-3.74059e-12
-4.21268e-12
-3.64251e-12
-4.09969e-12
-3.53679e-12
-3.9722e-12
-3.4239e-12
-3.83021e-12
-3.30425e-12
-3.67378e-12
-3.17831e-12
-3.50308e-12
-3.04652e-12
-3.31832e-12
-2.90935e-12
-3.11981e-12
-2.76725e-12
-2.90793e-12
-2.62066e-12
-2.68315e-12
-2.47001e-12
-2.44598e-12
-2.31573e-12
-2.19697e-12
-2.15825e-12
-1.93676e-12
-1.99802e-12
-1.66596e-12
-1.83552e-12
-1.38519e-12
-1.67131e-12
-1.09509e-12
-1.506e-12
-7.96221e-13
-1.34027e-12
-4.89126e-13
-1.17481e-12
-1.74314e-13
-1.01029e-12
1.47735e-13
-8.47255e-13
4.76571e-13
-6.86141e-13
8.11708e-13
-5.27126e-13
1.15323e-12
-3.7051e-13
1.49977e-12
-2.16453e-13
1.85087e-12
-6.48947e-14
2.20566e-12
8.40732e-14
2.56333e-12
2.30338e-13
2.92299e-12
3.7393e-13
3.28378e-12
5.14799e-13
3.6448e-12
6.52953e-13
4.0051e-12
7.88397e-13
4.36371e-12
9.21128e-13
4.71965e-12
1.0511e-12
5.07188e-12
1.17832e-12
5.41934e-12
1.30276e-12
5.7609e-12
1.42445e-12
6.09534e-12
1.5436e-12
6.42125e-12
1.6608e-12
6.73667e-12
1.77792e-12
7.03846e-12
1.8998e-12
7.32072e-12
2.03812e-12
7.5716e-12
2.21856e-12
7.76751e-12
2.49181e-12
7.86452e-12
2.9454e-12
7.78898e-12
3.70451e-12
7.4348e-12
4.89749e-12
6.68183e-12
6.55546e-12
5.45134e-12
8.44278e-12
3.79881e-12
9.89931e-12
2.00258e-12
9.89416e-12
5.5898e-13
7.50505e-12
2.75368e-12
-6.13114e-13
3.53142e-12
-2.15981e-12
9.36229e-12
-4.07473e-12
1.22162e-11
-5.84092e-12
1.21405e-11
-7.17368e-12
1.03069e-11
-8.01939e-12
7.97992e-12
-8.46101e-12
5.9541e-12
-8.62265e-12
4.50651e-12
-8.61315e-12
3.59358e-12
-8.50784e-12
3.05667e-12
-8.35156e-12
2.74246e-12
-8.16828e-12
2.54402e-12
-7.9701e-12
2.39941e-12
-7.763e-12
2.27711e-12
-7.55021e-12
2.16272e-12
-7.33371e-12
2.0501e-12
-7.11502e-12
1.93685e-12
-6.89538e-12
1.82197e-12
-6.67596e-12
1.70513e-12
-6.45781e-12
1.58609e-12
-6.24195e-12
1.46479e-12
-6.02933e-12
1.34116e-12
-5.82085e-12
1.21511e-12
-5.61733e-12
1.08659e-12
-5.41959e-12
9.55593e-13
-5.22832e-12
8.22059e-13
-5.04421e-12
6.86032e-13
-4.86784e-12
5.47479e-13
-4.69975e-12
4.06493e-13
-4.54037e-12
2.63086e-13
-4.39008e-12
1.17407e-13
-4.24914e-12
-3.05782e-14
-4.11782e-12
-1.80686e-13
-3.99626e-12
-3.32936e-13
-3.88465e-12
-4.873e-13
-3.78321e-12
-6.43686e-13
-3.69212e-12
-8.01944e-13
-3.61155e-12
-9.61881e-13
-3.54161e-12
-1.12326e-12
-3.48231e-12
-1.28582e-12
-3.43365e-12
-1.44929e-12
-3.39552e-12
-1.61332e-12
-3.36774e-12
-1.77756e-12
-3.35004e-12
-1.94155e-12
-3.34208e-12
-2.10482e-12
-3.34345e-12
-2.2668e-12
-3.35374e-12
-2.42684e-12
-3.3725e-12
-2.58426e-12
-3.39919e-12
-2.73837e-12
-3.43334e-12
-2.88836e-12
-3.47442e-12
-3.03345e-12
-3.52193e-12
-3.17282e-12
-3.57535e-12
-3.30562e-12
-3.63423e-12
-3.431e-12
-3.69807e-12
-3.54815e-12
-3.7664e-12
-3.65625e-12
-3.83881e-12
-3.75454e-12
-3.91482e-12
-3.84239e-12
-3.99394e-12
-3.91929e-12
-4.07558e-12
-3.985e-12
-4.15901e-12
-4.03954e-12
-4.24325e-12
-4.08327e-12
-4.32704e-12
-4.11681e-12
-4.40886e-12
-4.14093e-12
-4.487e-12
-4.15637e-12
-4.55969e-12
-4.16369e-12
-4.6252e-12
-4.16319e-12
-4.68194e-12
-4.15485e-12
-4.72854e-12
-4.13853e-12
-4.76381e-12
-4.11397e-12
-4.78678e-12
-4.08096e-12
-4.79659e-12
-4.03943e-12
-4.7925e-12
-3.9894e-12
-4.7739e-12
-3.93097e-12
-4.74027e-12
-3.86434e-12
-4.69116e-12
-3.78974e-12
-4.62623e-12
-3.70749e-12
-4.54521e-12
-3.61787e-12
-4.44794e-12
-3.52123e-12
-4.33433e-12
-3.41793e-12
-4.20437e-12
-3.30834e-12
-4.05815e-12
-3.19282e-12
-3.89584e-12
-3.07175e-12
-3.71767e-12
-2.9455e-12
-3.52399e-12
-2.81442e-12
-3.3152e-12
-2.67889e-12
-3.09176e-12
-2.53926e-12
-2.85422e-12
-2.39588e-12
-2.60317e-12
-2.24917e-12
-2.3392e-12
-2.09959e-12
-2.06295e-12
-1.94767e-12
-1.77502e-12
-1.79405e-12
-1.47599e-12
-1.63941e-12
-1.16643e-12
-1.48449e-12
-8.46899e-13
-1.32994e-12
-5.17925e-13
-1.17635e-12
-1.80113e-13
-1.02408e-12
1.66204e-13
-8.73566e-13
5.20419e-13
-7.24851e-13
8.81835e-13
-5.77995e-13
1.24985e-12
-4.33037e-13
1.62371e-12
-2.89918e-13
2.00253e-12
-1.48617e-13
2.38535e-12
-9.02392e-15
2.7713e-12
1.28706e-13
3.15937e-12
2.64746e-13
3.54848e-12
3.9914e-13
3.9376e-12
5.31854e-13
4.32563e-12
6.62924e-13
4.71143e-12
7.92362e-13
5.09383e-12
9.20198e-13
5.47161e-12
1.04651e-12
5.84347e-12
1.17158e-12
6.20789e-12
1.2962e-12
6.56291e-12
1.42273e-12
6.90534e-12
1.5572e-12
7.22919e-12
1.71408e-12
7.52242e-12
1.92515e-12
7.76093e-12
2.25311e-12
7.8996e-12
2.80654e-12
7.86236e-12
3.74156e-12
7.53915e-12
5.22053e-12
6.80419e-12
7.29024e-12
5.57293e-12
9.67387e-12
3.89801e-12
1.15741e-11
2.06267e-12
1.17293e-11
5.7851e-13
8.98902e-12
3.33216e-12
-6.45722e-13
4.17714e-12
-2.26936e-12
1.09859e-11
-4.27437e-12
1.42213e-11
-6.11876e-12
1.39849e-11
-7.50593e-12
1.16941e-11
-8.38163e-12
8.85562e-12
-8.83426e-12
6.40673e-12
-8.99458e-12
4.66684e-12
-8.97695e-12
3.57596e-12
-8.86042e-12
2.94014e-12
-8.6919e-12
2.57395e-12
-8.49646e-12
2.34859e-12
-8.28665e-12
2.1896e-12
-8.06864e-12
2.05911e-12
-7.84567e-12
1.93975e-12
-7.61976e-12
1.8242e-12
-7.39238e-12
1.70947e-12
-7.16482e-12
1.59441e-12
-6.93819e-12
1.4785e-12
-6.71359e-12
1.36149e-12
-6.49203e-12
1.24324e-12
-6.27446e-12
1.12358e-12
-6.06177e-12
1.00242e-12
-5.85478e-12
8.79604e-13
-5.65425e-12
7.55051e-13
-5.46087e-12
6.28682e-13
-5.27525e-12
5.00409e-13
-5.09794e-12
3.70162e-13
-4.92938e-12
2.37924e-13
-4.76998e-12
1.03679e-13
-4.61993e-12
-3.2658e-14
-4.47953e-12
-1.70983e-13
-4.3489e-12
-3.11332e-13
-4.22811e-12
-4.53733e-13
-4.11729e-12
-5.98142e-13
-4.01651e-12
-7.44477e-13
-3.9258e-12
-8.92664e-13
-3.8452e-12
-1.0425e-12
-3.7747e-12
-1.19377e-12
-3.71422e-12
-1.34632e-12
-3.66364e-12
-1.49988e-12
-3.62275e-12
-1.65422e-12
-3.59127e-12
-1.80906e-12
-3.56881e-12
-1.96402e-12
-3.55499e-12
-2.11867e-12
-3.54928e-12
-2.27252e-12
-3.5512e-12
-2.42493e-12
-3.56018e-12
-2.57529e-12
-3.57572e-12
-2.72285e-12
-3.59725e-12
-2.86684e-12
-3.62423e-12
-3.00648e-12
-3.65616e-12
-3.14089e-12
-3.69258e-12
-3.26922e-12
-3.733e-12
-3.39059e-12
-3.77703e-12
-3.50414e-12
-3.82429e-12
-3.60899e-12
-3.87449e-12
-3.70436e-12
-3.92727e-12
-3.78962e-12
-3.9823e-12
-3.86428e-12
-4.03914e-12
-3.92818e-12
-4.09721e-12
-3.98149e-12
-4.1557e-12
-4.0248e-12
-4.21355e-12
-4.05899e-12
-4.26942e-12
-4.08508e-12
-4.3218e-12
-4.10402e-12
-4.36905e-12
-4.11647e-12
-4.40956e-12
-4.1227e-12
-4.44186e-12
-4.12258e-12
-4.46466e-12
-4.11577e-12
-4.47684e-12
-4.10182e-12
-4.47753e-12
-4.08031e-12
-4.46595e-12
-4.05104e-12
-4.4415e-12
-4.0139e-12
-4.40366e-12
-3.96886e-12
-4.35197e-12
-3.91607e-12
-4.2861e-12
-3.85566e-12
-4.20576e-12
-3.78789e-12
-4.11073e-12
-3.71296e-12
-4.00087e-12
-3.63116e-12
-3.87609e-12
-3.54279e-12
-3.73638e-12
-3.44812e-12
-3.58181e-12
-3.34747e-12
-3.41251e-12
-3.24114e-12
-3.22865e-12
-3.12944e-12
-3.03051e-12
-3.01266e-12
-2.8184e-12
-2.8911e-12
-2.59271e-12
-2.76505e-12
-2.35386e-12
-2.63483e-12
-2.10234e-12
-2.50081e-12
-1.83861e-12
-2.36343e-12
-1.56315e-12
-2.22324e-12
-1.27641e-12
-2.0809e-12
-9.78821e-13
-1.93712e-12
-6.70869e-13
-1.79255e-12
-3.5295e-13
-1.64798e-12
-2.5518e-14
-1.5039e-12
3.11044e-13
-1.36076e-12
6.56059e-13
-1.2187e-12
1.00896e-12
-1.07788e-12
1.36916e-12
-9.38324e-13
1.73593e-12
-7.99941e-13
2.10855e-12
-6.62669e-13
2.48616e-12
-5.26366e-13
2.86794e-12
-3.90941e-13
3.25283e-12
-2.56318e-13
3.63983e-12
-1.22405e-13
4.0279e-12
1.09284e-14
4.41604e-12
1.43558e-13
4.8031e-12
2.75708e-13
5.18796e-12
4.07348e-13
5.56942e-12
5.38571e-13
5.94627e-12
6.69492e-13
6.31724e-12
8.00433e-13
6.68084e-12
9.32434e-13
7.03506e-12
1.06833e-12
7.37669e-12
1.21539e-12
7.69962e-12
1.39097e-12
7.99139e-12
1.63319e-12
8.22688e-12
2.01744e-12
8.35899e-12
2.67424e-12
8.30816e-12
3.79221e-12
7.95904e-12
5.56946e-12
7.1796e-12
8.06951e-12
5.88039e-12
1.09729e-11
4.11536e-12
1.33389e-11
2.18043e-12
1.36641e-11
6.13181e-13
1.05561e-11
3.9453e-12
-6.84545e-13
4.86169e-12
-2.40386e-12
1.27052e-11
-4.52521e-12
1.63426e-11
-6.47549e-12
1.59352e-11
-7.94198e-12
1.31606e-11
-8.86803e-12
9.78168e-12
-9.34737e-12
6.88607e-12
-9.51834e-12
4.8378e-12
-9.50189e-12
3.55951e-12
-9.38169e-12
2.81994e-12
-9.20741e-12
2.39967e-12
-9.00562e-12
2.14681e-12
-8.78953e-12
1.97351e-12
-8.56566e-12
1.83524e-12
-8.33739e-12
1.71149e-12
-8.10677e-12
1.59358e-12
-7.87529e-12
1.478e-12
-7.6442e-12
1.36332e-12
-7.41464e-12
1.24895e-12
-7.18767e-12
1.13452e-12
-6.96431e-12
1.01988e-12
-6.74547e-12
9.04743e-13
-6.53199e-12
7.88936e-13
-6.3247e-12
6.72312e-13
-6.12435e-12
5.54697e-13
-5.93158e-12
4.35907e-13
-5.74695e-12
3.15772e-13
-5.571e-12
1.94203e-13
-5.40406e-12
7.09808e-14
-5.2464e-12
-5.39902e-14
-5.09836e-12
-1.80709e-13
-4.96002e-12
-3.09328e-13
-4.83143e-12
-4.39933e-13
-4.71262e-12
-5.7256e-13
-4.60351e-12
-7.07259e-13
-4.50398e-12
-8.44023e-13
-4.41392e-12
-9.82744e-13
-4.33313e-12
-1.1233e-12
-4.26139e-12
-1.26553e-12
-4.1985e-12
-1.40923e-12
-4.14411e-12
-1.55428e-12
-4.09788e-12
-1.70046e-12
-4.0594e-12
-1.84755e-12
-4.02816e-12
-1.99527e-12
-4.00357e-12
-2.14327e-12
-3.98509e-12
-2.29101e-12
-3.97206e-12
-2.43798e-12
-3.96388e-12
-2.58349e-12
-3.9599e-12
-2.72684e-12
-3.95952e-12
-2.86723e-12
-3.96222e-12
-3.00379e-12
-3.96749e-12
-3.13564e-12
-3.97488e-12
-3.26183e-12
-3.98402e-12
-3.38146e-12
-3.99464e-12
-3.49354e-12
-4.0065e-12
-3.59715e-12
-4.01944e-12
-3.69143e-12
-4.03337e-12
-3.7757e-12
-4.04816e-12
-3.8495e-12
-4.06363e-12
-3.91272e-12
-4.07946e-12
-3.96568e-12
-4.09511e-12
-4.00917e-12
-4.10977e-12
-4.04434e-12
-4.12235e-12
-4.07252e-12
-4.13152e-12
-4.09487e-12
-4.13582e-12
-4.11219e-12
-4.13384e-12
-4.12471e-12
-4.12425e-12
-4.1322e-12
-4.10596e-12
-4.1341e-12
-4.07806e-12
-4.12975e-12
-4.03985e-12
-4.11856e-12
-3.99076e-12
-4.10017e-12
-3.93043e-12
-4.07428e-12
-3.85843e-12
-4.04091e-12
-3.77456e-12
-4e-12
-3.67854e-12
-3.95174e-12
-3.57022e-12
-3.89628e-12
-3.44945e-12
-3.83379e-12
-3.31616e-12
-3.76453e-12
-3.17028e-12
-3.68874e-12
-3.01181e-12
-3.60667e-12
-2.84079e-12
-3.51857e-12
-2.6573e-12
-3.42473e-12
-2.46145e-12
-3.32538e-12
-2.25342e-12
-3.22079e-12
-2.03343e-12
-3.11119e-12
-1.80176e-12
-2.99683e-12
-1.55868e-12
-2.87801e-12
-1.30449e-12
-2.7551e-12
-1.0395e-12
-2.62853e-12
-7.64033e-13
-2.49882e-12
-4.7828e-13
-2.36677e-12
-1.82477e-13
-2.23304e-12
1.23223e-13
-2.09837e-12
4.38406e-13
-1.96329e-12
7.62772e-13
-1.82839e-12
1.09582e-12
-1.69394e-12
1.43714e-12
-1.56015e-12
1.78616e-12
-1.42703e-12
2.14221e-12
-1.2945e-12
2.50459e-12
-1.16245e-12
2.87248e-12
-1.0307e-12
3.24509e-12
-8.99111e-13
3.62153e-12
-7.67519e-13
4.00084e-12
-6.35775e-13
4.38203e-12
-5.03744e-13
4.76414e-12
-3.71333e-13
5.14598e-12
-2.38441e-13
5.52647e-12
-1.04939e-13
5.90447e-12
2.91837e-14
6.27891e-12
1.63967e-13
6.64852e-12
2.9971e-13
7.01205e-12
4.3673e-13
7.36802e-12
5.76285e-13
7.71442e-12
7.21749e-13
8.04793e-12
8.81697e-13
8.36218e-12
1.07653e-12
8.64399e-12
1.35118e-12
8.86693e-12
1.79431e-12
8.98118e-12
2.55981e-12
8.90277e-12
3.87043e-12
8.51008e-12
5.96197e-12
7.66393e-12
8.91547e-12
6.27014e-12
1.23665e-11
4.38582e-12
1.52231e-11
2.32399e-12
1.57257e-11
6.54254e-13
1.22256e-11
4.59952e-12
-7.28554e-13
5.59025e-12
-2.55766e-12
1.45344e-11
-4.81349e-12
1.85985e-11
-6.88694e-12
1.80086e-11
-8.4462e-12
1.47198e-11
-9.43136e-12
1.07668e-11
-9.94197e-12
7.39668e-12
-1.01249e-11
5.02075e-12
-1.01088e-11
3.54345e-12
-9.98285e-12
2.69395e-12
-9.79998e-12
2.2168e-12
-9.58855e-12
1.93538e-12
-9.36281e-12
1.74777e-12
-9.12963e-12
1.60206e-12
-8.89262e-12
1.47448e-12
-8.65385e-12
1.35481e-12
-8.4149e-12
1.23905e-12
-8.177e-12
1.12543e-12
-7.9413e-12
1.01324e-12
-7.70887e-12
9.02099e-13
-7.48071e-12
7.91717e-13
-7.25776e-12
6.81794e-13
-7.04093e-12
5.72104e-13
-6.83098e-12
4.62363e-13
-6.62862e-12
3.52329e-13
-6.4345e-12
2.41781e-13
-6.24912e-12
1.3039e-13
-6.07286e-12
1.79427e-14
-5.90613e-12
-9.57559e-14
-5.74929e-12
-2.10845e-13
-5.6024e-12
-3.27601e-13
-5.46555e-12
-4.46184e-13
-5.33871e-12
-5.66788e-13
-5.22172e-12
-6.8956e-13
-5.11437e-12
-8.14624e-13
-5.01635e-12
-9.42056e-13
-4.9273e-12
-1.07181e-12
-4.84681e-12
-1.2038e-12
-4.77443e-12
-1.33792e-12
-4.70972e-12
-1.47396e-12
-4.65221e-12
-1.6118e-12
-4.60133e-12
-1.75135e-12
-4.55647e-12
-1.89243e-12
-4.51695e-12
-2.0348e-12
-4.48211e-12
-2.17813e-12
-4.45111e-12
-2.32201e-12
-4.42325e-12
-2.46586e-12
-4.39773e-12
-2.60902e-12
-4.37386e-12
-2.75072e-12
-4.35097e-12
-2.89012e-12
-4.32847e-12
-3.0263e-12
-4.30582e-12
-3.1583e-12
-4.28263e-12
-3.28503e-12
-4.25862e-12
-3.40548e-12
-4.23363e-12
-3.51853e-12
-4.20761e-12
-3.62318e-12
-4.18057e-12
-3.71848e-12
-4.1527e-12
-3.80359e-12
-4.12416e-12
-3.87805e-12
-4.09507e-12
-3.94183e-12
-4.0654e-12
-3.99537e-12
-4.03489e-12
-4.03971e-12
-4.00295e-12
-4.0763e-12
-3.96872e-12
-4.10677e-12
-3.93104e-12
-4.13257e-12
-3.88867e-12
-4.15459e-12
-3.84032e-12
-4.17309e-12
-3.78486e-12
-4.18768e-12
-3.72142e-12
-4.19758e-12
-3.64934e-12
-4.20186e-12
-3.56815e-12
-4.1998e-12
-3.4776e-12
-4.19076e-12
-3.37745e-12
-4.17448e-12
-3.26763e-12
-4.15078e-12
-3.14802e-12
-4.11966e-12
-3.01858e-12
-4.08124e-12
-2.87925e-12
-4.03567e-12
-2.72999e-12
-3.98311e-12
-2.57078e-12
-3.92382e-12
-2.40159e-12
-3.85801e-12
-2.22241e-12
-3.78594e-12
-2.03322e-12
-3.70784e-12
-1.83408e-12
-3.62396e-12
-1.62501e-12
-3.53455e-12
-1.40609e-12
-3.4398e-12
-1.17742e-12
-3.33996e-12
-9.39165e-13
-3.23519e-12
-6.91419e-13
-3.12587e-12
-4.34303e-13
-3.01233e-12
-1.67881e-13
-2.89507e-12
1.07927e-13
-2.77475e-12
3.92995e-13
-2.65196e-12
6.87323e-13
-2.52749e-12
9.90829e-13
-2.402e-12
1.30349e-12
-2.27608e-12
1.62499e-12
-2.15001e-12
1.95502e-12
-2.0241e-12
2.29309e-12
-1.89835e-12
2.63864e-12
-1.77271e-12
2.99104e-12
-1.64704e-12
3.34958e-12
-1.52113e-12
3.71349e-12
-1.39475e-12
4.08192e-12
-1.26768e-12
4.45397e-12
-1.13972e-12
4.82871e-12
-1.01066e-12
5.20516e-12
-8.80344e-13
5.58228e-12
-7.4861e-13
5.95902e-12
-6.15337e-13
6.33432e-12
-4.80406e-13
6.70705e-12
-3.43709e-13
7.07596e-12
-2.0512e-13
7.43962e-12
-6.41162e-14
7.79716e-12
7.90093e-14
8.14696e-12
2.26305e-13
8.48692e-12
3.81606e-13
8.81362e-12
5.5481e-13
9.12023e-12
7.69734e-13
9.39275e-12
1.07848e-12
9.60291e-12
1.58397e-12
9.69777e-12
2.46476e-12
9.58821e-12
3.9798e-12
9.14528e-12
6.40472e-12
8.22171e-12
9.83887e-12
6.71813e-12
1.38699e-11
4.69579e-12
1.72452e-11
2.48777e-12
1.79336e-11
7.00723e-13
1.40125e-11
5.30021e-12
-7.78306e-13
6.36856e-12
-2.73161e-12
1.64877e-11
-5.13936e-12
2.10062e-11
-7.35154e-12
2.02208e-11
-9.01467e-12
1.6383e-11
-1.0065e-11
1.18172e-11
-1.06087e-11
7.9404e-12
-1.08025e-11
5.21453e-12
-1.07837e-11
3.52463e-12
-1.06475e-11
2.5578e-12
-1.0451e-11
2.02027e-12
-1.02246e-11
1.70903e-12
-9.98378e-12
1.50691e-12
-9.73582e-12
1.3541e-12
-9.48457e-12
1.22324e-12
-9.23239e-12
1.10263e-12
-8.98075e-12
9.87413e-13