/*--------------------------------*- C++ -*----------------------------------*\
| =========                 |                                                 |
| \\      /  F ield         | OpenFOAM: The Open Source CFD Toolbox           |
|  \\    /   O peration     | Version:  2212                                  |
|   \\  /    A nd           | Website:  www.openfoam.com                      |
|    \\/     M anipulation  |                                                 |
\*---------------------------------------------------------------------------*/
FoamFile
{
    version     2.0;
    format      ascii;
    arch        "LSB;label=64;scalar=64";
    class       volVectorField;
    location    "0.52";
    object      U;
}
// * * * * * * * * * * * * * * * * * * * * * * * * * * * * * * * * * * * * * //

dimensions      [0 1 -1 0 0 0 0];

internalField   nonuniform List<vector> 
32768
(
(1.80083e-07 -2.30257e-07 0)
(-4.78098e-06 2.54148e-06 0)
(-1.54495e-05 5.02709e-06 0)
(-2.88097e-05 6.20153e-06 0)
(-4.24412e-05 6.31822e-06 0)
(-5.50197e-05 5.95594e-06 0)
(-6.62371e-05 5.53006e-06 0)
(-7.63284e-05 5.21447e-06 0)
(-8.56607e-05 5.02611e-06 0)
(-9.45284e-05 4.92149e-06 0)
(-0.000103106 4.85323e-06 0)
(-0.000111474 4.78967e-06 0)
(-0.000119654 4.71502e-06 0)
(-0.00012764 4.62364e-06 0)
(-0.000135417 4.51489e-06 0)
(-0.000142965 4.39e-06 0)
(-0.000150263 4.25056e-06 0)
(-0.000157293 4.09797e-06 0)
(-0.000164035 3.93333e-06 0)
(-0.000170474 3.75748e-06 0)
(-0.000176593 3.5711e-06 0)
(-0.000182374 3.37471e-06 0)
(-0.000187803 3.16877e-06 0)
(-0.000192863 2.9536e-06 0)
(-0.000197541 2.72951e-06 0)
(-0.000201821 2.49677e-06 0)
(-0.000205689 2.25566e-06 0)
(-0.000209131 2.00646e-06 0)
(-0.000212132 1.74953e-06 0)
(-0.00021468 1.48533e-06 0)
(-0.000216761 1.21447e-06 0)
(-0.000218364 9.37875e-07 0)
(-0.000219477 6.56866e-07 0)
(-0.000220091 3.73216e-07 0)
(-0.000220198 8.77753e-08 0)
(-0.00021979 -2.01827e-07 0)
(-0.000218864 -4.94665e-07 0)
(-0.000217418 -7.88966e-07 0)
(-0.000215448 -1.08351e-06 0)
(-0.000212954 -1.37751e-06 0)
(-0.000209937 -1.67028e-06 0)
(-0.000206396 -1.96116e-06 0)
(-0.000202336 -2.24939e-06 0)
(-0.00019776 -2.53419e-06 0)
(-0.000192674 -2.81468e-06 0)
(-0.000187085 -3.08997e-06 0)
(-0.000181002 -3.35913e-06 0)
(-0.000174437 -3.62119e-06 0)
(-0.000167402 -3.87518e-06 0)
(-0.000159912 -4.12011e-06 0)
(-0.000151984 -4.35498e-06 0)
(-0.000143637 -4.57878e-06 0)
(-0.000134891 -4.79053e-06 0)
(-0.00012577 -4.98929e-06 0)
(-0.000116297 -5.17418e-06 0)
(-0.000106499 -5.34439e-06 0)
(-9.64035e-05 -5.49917e-06 0)
(-8.60396e-05 -5.6378e-06 0)
(-7.54381e-05 -5.75962e-06 0)
(-6.46309e-05 -5.86383e-06 0)
(-5.36517e-05 -5.94948e-06 0)
(-4.25359e-05 -6.01536e-06 0)
(-3.1321e-05 -6.06009e-06 0)
(-2.00466e-05 -6.0822e-06 0)
(-8.75285e-06 -6.08031e-06 0)
(2.52875e-06 -6.05546e-06 0)
(1.37446e-05 -6.01095e-06 0)
(2.48686e-05 -5.94876e-06 0)
(3.58696e-05 -5.86971e-06 0)
(4.67161e-05 -5.77437e-06 0)
(5.73785e-05 -5.66303e-06 0)
(6.78281e-05 -5.53594e-06 0)
(7.80366e-05 -5.3934e-06 0)
(8.79766e-05 -5.23587e-06 0)
(9.76215e-05 -5.06397e-06 0)
(0.000106946 -4.87839e-06 0)
(0.000115926 -4.67985e-06 0)
(0.00012454 -4.46915e-06 0)
(0.000132765 -4.24711e-06 0)
(0.000140584 -4.01468e-06 0)
(0.000147977 -3.7728e-06 0)
(0.00015493 -3.52242e-06 0)
(0.000161428 -3.26447e-06 0)
(0.000167459 -2.99988e-06 0)
(0.000173012 -2.72954e-06 0)
(0.000178077 -2.4543e-06 0)
(0.000182646 -2.17488e-06 0)
(0.000186714 -1.89191e-06 0)
(0.000190276 -1.60593e-06 0)
(0.000193326 -1.31748e-06 0)
(0.000195862 -1.02715e-06 0)
(0.000197883 -7.3562e-07 0)
(0.000199387 -4.43863e-07 0)
(0.000200376 -1.5354e-07 0)
(0.000200853 1.32768e-07 0)
(0.000200821 4.1318e-07 0)
(0.00020029 6.89561e-07 0)
(0.000199273 9.61092e-07 0)
(0.000197781 1.22652e-06 0)
(0.000195826 1.48508e-06 0)
(0.000193422 1.73628e-06 0)
(0.000190583 1.9798e-06 0)
(0.000187323 2.2154e-06 0)
(0.000183655 2.44291e-06 0)
(0.000179595 2.66213e-06 0)
(0.000175155 2.87279e-06 0)
(0.00017035 3.07456e-06 0)
(0.000165196 3.26706e-06 0)
(0.000159706 3.44982e-06 0)
(0.000153897 3.62231e-06 0)
(0.000147785 3.78384e-06 0)
(0.000141387 3.93356e-06 0)
(0.00013472 4.07033e-06 0)
(0.000127803 4.19272e-06 0)
(0.000120655 4.2991e-06 0)
(0.000113297 4.38821e-06 0)
(0.000105744 4.46065e-06 0)
(9.80017e-05 4.52215e-06 0)
(9.00467e-05 4.58875e-06 0)
(8.1798e-05 4.69276e-06 0)
(7.30772e-05 4.88276e-06 0)
(6.35831e-05 5.20398e-06 0)
(5.29383e-05 5.64115e-06 0)
(4.08949e-05 6.02102e-06 0)
(2.77505e-05 5.92812e-06 0)
(1.48203e-05 4.78759e-06 0)
(4.50155e-06 2.3564e-06 0)
(-2.3449e-07 -3.46369e-07 0)
(-7.19933e-07 9.3636e-06 0)
(-1.17385e-05 3.07099e-05 0)
(-3.08123e-05 4.49215e-05 0)
(-5.28921e-05 4.96205e-05 0)
(-7.41062e-05 4.76412e-05 0)
(-9.26525e-05 4.29398e-05 0)
(-0.000108337 3.82602e-05 0)
(-0.000121747 3.47344e-05 0)
(-0.000133616 3.24286e-05 0)
(-0.000144524 3.09859e-05 0)
(-0.000154834 3.00192e-05 0)
(-0.000164737 2.92541e-05 0)
(-0.000174317 2.85361e-05 0)
(-0.0001836 2.77915e-05 0)
(-0.000192586 2.69916e-05 0)
(-0.000201265 2.61278e-05 0)
(-0.000209622 2.51994e-05 0)
(-0.000217639 2.42083e-05 0)
(-0.000225299 2.31568e-05 0)
(-0.000232586 2.20468e-05 0)
(-0.000239482 2.08801e-05 0)
(-0.000245972 1.96579e-05 0)
(-0.000252038 1.83816e-05 0)
(-0.000257665 1.70523e-05 0)
(-0.000262836 1.56708e-05 0)
(-0.000267535 1.4238e-05 0)
(-0.000271747 1.27548e-05 0)
(-0.000275456 1.12221e-05 0)
(-0.000278649 9.64092e-06 0)
(-0.000281309 8.01244e-06 0)
(-0.000283424 6.33841e-06 0)
(-0.000284978 4.62139e-06 0)
(-0.000285958 2.86529e-06 0)
(-0.000286352 1.07587e-06 0)
(-0.000286142 -7.3945e-07 0)
(-0.000285325 -2.57338e-06 0)
(-0.000283898 -4.41958e-06 0)
(-0.000281855 -6.27382e-06 0)
(-0.000279192 -8.13283e-06 0)
(-0.000275907 -9.99334e-06 0)
(-0.000271996 -1.18517e-05 0)
(-0.000267459 -1.37036e-05 0)
(-0.000262297 -1.55443e-05 0)
(-0.000256513 -1.73683e-05 0)
(-0.000250111 -1.91696e-05 0)
(-0.000243098 -2.0942e-05 0)
(-0.000235485 -2.26789e-05 0)
(-0.000227281 -2.43735e-05 0)
(-0.000218502 -2.60189e-05 0)
(-0.000209165 -2.76082e-05 0)
(-0.000199288 -2.91343e-05 0)
(-0.000188895 -3.05902e-05 0)
(-0.000178009 -3.19691e-05 0)
(-0.000166657 -3.32642e-05 0)
(-0.00015487 -3.44693e-05 0)
(-0.000142679 -3.55784e-05 0)
(-0.000130119 -3.6586e-05 0)
(-0.000117226 -3.74867e-05 0)
(-0.000104038 -3.82755e-05 0)
(-9.05963e-05 -3.89471e-05 0)
(-7.69418e-05 -3.94957e-05 0)
(-6.31185e-05 -3.9915e-05 0)
(-4.91712e-05 -4.0199e-05 0)
(-3.5146e-05 -4.03436e-05 0)
(-2.10887e-05 -4.03476e-05 0)
(-7.04079e-06 -4.0213e-05 0)
(6.95924e-06 -3.99476e-05 0)
(2.08521e-05 -3.95633e-05 0)
(3.46101e-05 -3.90684e-05 0)
(4.81953e-05 -3.84674e-05 0)
(6.1571e-05 -3.77631e-05 0)
(7.47022e-05 -3.69574e-05 0)
(8.75547e-05 -3.60525e-05 0)
(0.000100095 -3.50518e-05 0)
(0.000112292 -3.39591e-05 0)
(0.000124114 -3.27788e-05 0)
(0.000135533 -3.1516e-05 0)
(0.000146522 -3.01761e-05 0)
(0.000157054 -2.87647e-05 0)
(0.000167109 -2.72877e-05 0)
(0.000176663 -2.57511e-05 0)
(0.000185698 -2.41611e-05 0)
(0.000194197 -2.25238e-05 0)
(0.000202144 -2.08452e-05 0)
(0.000209527 -1.9131e-05 0)
(0.000216335 -1.73866e-05 0)
(0.000222558 -1.56171e-05 0)
(0.000228188 -1.38271e-05 0)
(0.00023322 -1.20208e-05 0)
(0.000237649 -1.02021e-05 0)
(0.000241473 -8.37502e-06 0)
(0.00024469 -6.54358e-06 0)
(0.0002473 -4.71246e-06 0)
(0.000249305 -2.88744e-06 0)
(0.000250709 -1.07597e-06 0)
(0.000251518 7.1271e-07 0)
(0.00025173 2.46823e-06 0)
(0.000251363 4.18082e-06 0)
(0.000250434 5.8461e-06 0)
(0.000248957 7.4625e-06 0)
(0.000246948 9.02965e-06 0)
(0.000244422 1.05475e-05 0)
(0.000241394 1.20162e-05 0)
(0.000237879 1.34355e-05 0)
(0.000233892 1.48051e-05 0)
(0.000229449 1.61246e-05 0)
(0.000224564 1.73932e-05 0)
(0.000219253 1.86098e-05 0)
(0.000213532 1.97732e-05 0)
(0.000207416 2.0882e-05 0)
(0.000200921 2.19343e-05 0)
(0.000194063 2.29281e-05 0)
(0.000186859 2.38609e-05 0)
(0.000179324 2.47306e-05 0)
(0.000171474 2.55373e-05 0)
(0.000163318 2.62895e-05 0)
(0.000154858 2.70162e-05 0)
(0.000146064 2.77916e-05 0)
(0.000136852 2.87728e-05 0)
(0.00012703 3.02394e-05 0)
(0.000116226 3.25877e-05 0)
(0.00010385 3.6187e-05 0)
(8.91485e-05 4.09818e-05 0)
(7.15145e-05 4.58416e-05 0)
(5.11234e-05 4.80141e-05 0)
(2.97641e-05 4.3554e-05 0)
(1.12774e-05 2.96864e-05 0)
(6.43892e-07 8.81141e-06 0)
(-7.01428e-07 2.1914e-05 0)
(-1.14154e-05 6.21513e-05 0)
(-2.90401e-05 8.57092e-05 0)
(-4.85198e-05 9.0953e-05 0)
(-6.61199e-05 8.41631e-05 0)
(-8.03032e-05 7.29604e-05 0)
(-9.11283e-05 6.24508e-05 0)
(-9.93721e-05 5.46513e-05 0)
(-0.000105902 4.95678e-05 0)
(-0.00011139 4.64217e-05 0)
(-0.000116262 4.43968e-05 0)
(-0.000120753 4.29112e-05 0)
(-0.00012498 4.16279e-05 0)
(-0.000128994 4.03784e-05 0)
(-0.000132815 3.90886e-05 0)
(-0.00013645 3.77299e-05 0)
(-0.000139899 3.62932e-05 0)
(-0.000143159 3.47768e-05 0)
(-0.000146227 3.31815e-05 0)
(-0.000149098 3.15085e-05 0)
(-0.00015177 2.97592e-05 0)
(-0.000154236 2.79348e-05 0)
(-0.000156492 2.60368e-05 0)
(-0.000158535 2.40663e-05 0)
(-0.000160358 2.20246e-05 0)
(-0.000161959 1.9913e-05 0)
(-0.000163332 1.77329e-05 0)
(-0.000164473 1.54861e-05 0)
(-0.00016538 1.31743e-05 0)
(-0.000166049 1.07995e-05 0)
(-0.000166478 8.36401e-06 0)
(-0.000166664 5.87061e-06 0)
(-0.000166607 3.32277e-06 0)
(-0.000166304 7.25839e-07 0)
(-0.000165755 -1.91052e-06 0)
(-0.000164956 -4.57608e-06 0)
(-0.000163899 -7.26536e-06 0)
(-0.000162578 -9.97492e-06 0)
(-0.000160986 -1.2701e-05 0)
(-0.00015912 -1.54387e-05 0)
(-0.000156973 -1.81823e-05 0)
(-0.000154544 -2.09248e-05 0)
(-0.00015183 -2.36585e-05 0)
(-0.000148829 -2.63747e-05 0)
(-0.000145542 -2.9064e-05 0)
(-0.000141969 -3.17167e-05 0)
(-0.000138113 -3.43224e-05 0)
(-0.000133976 -3.68703e-05 0)
(-0.000129565 -3.93495e-05 0)
(-0.000124884 -4.1749e-05 0)
(-0.000119942 -4.40573e-05 0)
(-0.000114748 -4.62634e-05 0)
(-0.000109312 -4.83559e-05 0)
(-0.000103646 -5.03241e-05 0)
(-9.77644e-05 -5.21574e-05 0)
(-9.16823e-05 -5.38458e-05 0)
(-8.54162e-05 -5.538e-05 0)
(-7.89845e-05 -5.67512e-05 0)
(-7.24065e-05 -5.79511e-05 0)
(-6.57024e-05 -5.89719e-05 0)
(-5.88928e-05 -5.98062e-05 0)
(-5.19981e-05 -6.04469e-05 0)
(-4.50379e-05 -6.08885e-05 0)
(-3.80307e-05 -6.11289e-05 0)
(-3.09935e-05 -6.11694e-05 0)
(-2.39416e-05 -6.10151e-05 0)
(-1.68891e-05 -6.0673e-05 0)
(-9.85164e-06 -6.01542e-05 0)
(-2.84359e-06 -5.94693e-05 0)
(4.11769e-06 -5.86241e-05 0)
(1.10123e-05 -5.76233e-05 0)
(1.78256e-05 -5.64703e-05 0)
(2.45412e-05 -5.51691e-05 0)
(3.11441e-05 -5.3725e-05 0)
(3.76195e-05 -5.21438e-05 0)
(4.39533e-05 -5.04325e-05 0)
(5.01321e-05 -4.85985e-05 0)
(5.61432e-05 -4.66499e-05 0)
(6.19749e-05 -4.45951e-05 0)
(6.76161e-05 -4.24431e-05 0)
(7.30565e-05 -4.02026e-05 0)
(7.82863e-05 -3.78826e-05 0)
(8.32967e-05 -3.54923e-05 0)
(8.80801e-05 -3.30404e-05 0)
(9.26293e-05 -3.05355e-05 0)
(9.69378e-05 -2.79857e-05 0)
(0.000101 -2.53988e-05 0)
(0.000104811 -2.27822e-05 0)
(0.000108368 -2.0143e-05 0)
(0.000111667 -1.74879e-05 0)
(0.000114706 -1.4824e-05 0)
(0.000117486 -1.21583e-05 0)
(0.000120008 -9.49841e-06 0)
(0.000122274 -6.85189e-06 0)
(0.000124289 -4.22634e-06 0)
(0.000126056 -1.63039e-06 0)
(0.000127586 9.23894e-07 0)
(0.000128867 3.42428e-06 0)
(0.000129898 5.86239e-06 0)
(0.000130684 8.23439e-06 0)
(0.000131227 1.05401e-05 0)
(0.000131529 1.27795e-05 0)
(0.000131595 1.49524e-05 0)
(0.000131426 1.70586e-05 0)
(0.000131028 1.90974e-05 0)
(0.000130403 2.10684e-05 0)
(0.000129555 2.29706e-05 0)
(0.000128488 2.48032e-05 0)
(0.000127206 2.65647e-05 0)
(0.000125713 2.8254e-05 0)
(0.000124011 2.98694e-05 0)
(0.000122104 3.14092e-05 0)
(0.000119995 3.28722e-05 0)
(0.000117686 3.42595e-05 0)
(0.000115176 3.55796e-05 0)
(0.00011246 3.68608e-05 0)
(0.000109516 3.81775e-05 0)
(0.000106292 3.97001e-05 0)
(0.000102672 4.1771e-05 0)
(9.84162e-05 4.49826e-05 0)
(9.30927e-05 5.01696e-05 0)
(8.60174e-05 5.81353e-05 0)
(7.63043e-05 6.8895e-05 0)
(6.31543e-05 8.04339e-05 0)
(4.64893e-05 8.76292e-05 0)
(2.78314e-05 8.28768e-05 0)
(1.08802e-05 6.00141e-05 0)
(6.16548e-07 2.07787e-05 0)
(-5.65511e-07 3.2411e-05 0)
(-9.97033e-06 8.87711e-05 0)
(-2.53259e-05 0.000119542 0)
(-4.17677e-05 0.000123741 0)
(-5.58055e-05 0.000111107 0)
(-6.61212e-05 9.28304e-05 0)
(-7.29348e-05 7.623e-05 0)
(-7.71226e-05 6.40808e-05 0)
(-7.96051e-05 5.62463e-05 0)
(-8.10804e-05 5.14817e-05 0)
(-8.19888e-05 4.85212e-05 0)
(-8.25753e-05 4.64673e-05 0)
(-8.29646e-05 4.47976e-05 0)
(-8.32175e-05 4.3247e-05 0)
(-8.33636e-05 4.16959e-05 0)
(-8.34185e-05 4.00951e-05 0)
(-8.33916e-05 3.84265e-05 0)
(-8.32896e-05 3.66844e-05 0)
(-8.3118e-05 3.48674e-05 0)
(-8.28816e-05 3.29759e-05 0)
(-8.25847e-05 3.10105e-05 0)
(-8.22311e-05 2.89722e-05 0)
(-8.18242e-05 2.68619e-05 0)
(-8.13675e-05 2.46807e-05 0)
(-8.08644e-05 2.24298e-05 0)
(-8.0318e-05 2.01106e-05 0)
(-7.97314e-05 1.77251e-05 0)
(-7.91076e-05 1.52754e-05 0)
(-7.84499e-05 1.27641e-05 0)
(-7.77614e-05 1.01942e-05 0)
(-7.70458e-05 7.56886e-06 0)
(-7.63072e-05 4.89172e-06 0)
(-7.5549e-05 2.16647e-06 0)
(-7.47712e-05 -6.02669e-07 0)
(-7.3983e-05 -3.4113e-06 0)
(-7.31779e-05 -6.25734e-06 0)
(-7.23534e-05 -9.13817e-06 0)
(-7.15076e-05 -1.20497e-05 0)
(-7.06375e-05 -1.49868e-05 0)
(-6.97409e-05 -1.79431e-05 0)
(-6.88158e-05 -2.09118e-05 0)
(-6.78605e-05 -2.38849e-05 0)
(-6.68728e-05 -2.68537e-05 0)
(-6.58505e-05 -2.98087e-05 0)
(-6.47918e-05 -3.27398e-05 0)
(-6.36949e-05 -3.5636e-05 0)
(-6.2558e-05 -3.84858e-05 0)
(-6.13797e-05 -4.12773e-05 0)
(-6.01588e-05 -4.39982e-05 0)
(-5.88944e-05 -4.66359e-05 0)
(-5.75862e-05 -4.91774e-05 0)
(-5.62342e-05 -5.16098e-05 0)
(-5.48388e-05 -5.39201e-05 0)
(-5.34011e-05 -5.60955e-05 0)
(-5.1923e-05 -5.81237e-05 0)
(-5.04066e-05 -5.99925e-05 0)
(-4.8855e-05 -6.16908e-05 0)
(-4.72716e-05 -6.32082e-05 0)
(-4.56603e-05 -6.45354e-05 0)
(-4.40248e-05 -6.56648e-05 0)
(-4.23684e-05 -6.65901e-05 0)
(-4.06928e-05 -6.73073e-05 0)
(-3.89976e-05 -6.78148e-05 0)
(-3.72803e-05 -6.8114e-05 0)
(-3.55361e-05 -6.82095e-05 0)
(-3.37596e-05 -6.81079e-05 0)
(-3.1945e-05 -6.78167e-05 0)
(-3.00883e-05 -6.73433e-05 0)
(-2.81869e-05 -6.66937e-05 0)
(-2.62402e-05 -6.58717e-05 0)
(-2.42484e-05 -6.48807e-05 0)
(-2.22122e-05 -6.37246e-05 0)
(-2.01329e-05 -6.24079e-05 0)
(-1.80119e-05 -6.0936e-05 0)
(-1.58509e-05 -5.93152e-05 0)
(-1.36515e-05 -5.75527e-05 0)
(-1.14157e-05 -5.56562e-05 0)
(-9.14568e-06 -5.3634e-05 0)
(-6.8438e-06 -5.1495e-05 0)
(-4.51264e-06 -4.92481e-05 0)
(-2.15471e-06 -4.69024e-05 0)
(2.26427e-07 -4.4467e-05 0)
(2.62702e-06 -4.19512e-05 0)
(5.04409e-06 -3.93642e-05 0)
(7.47374e-06 -3.67147e-05 0)
(9.91186e-06 -3.40113e-05 0)
(1.23542e-05 -3.12622e-05 0)
(1.47968e-05 -2.84755e-05 0)
(1.72355e-05 -2.56592e-05 0)
(1.96662e-05 -2.28215e-05 0)
(2.20855e-05 -1.99712e-05 0)
(2.44901e-05 -1.71175e-05 0)
(2.68778e-05 -1.42704e-05 0)
(2.92474e-05 -1.144e-05 0)
(3.15982e-05 -8.63581e-06 0)
(3.39289e-05 -5.86544e-06 0)
(3.62385e-05 -3.13417e-06 0)
(3.85295e-05 -4.46809e-07 0)
(4.07944e-05 2.1899e-06 0)
(4.30245e-05 4.77028e-06 0)
(4.52179e-05 7.29057e-06 0)
(4.73689e-05 9.74901e-06 0)
(4.94728e-05 1.21447e-05 0)
(5.15255e-05 1.4477e-05 0)
(5.3523e-05 1.67454e-05 0)
(5.54611e-05 1.89492e-05 0)
(5.73353e-05 2.10877e-05 0)
(5.91412e-05 2.316e-05 0)
(6.08742e-05 2.51651e-05 0)
(6.25298e-05 2.71021e-05 0)
(6.41028e-05 2.89697e-05 0)
(6.55878e-05 3.07672e-05 0)
(6.69789e-05 3.24949e-05 0)
(6.8269e-05 3.41578e-05 0)
(6.94485e-05 3.57729e-05 0)
(7.05018e-05 3.7389e-05 0)
(7.13993e-05 3.91263e-05 0)
(7.20801e-05 4.12528e-05 0)
(7.24186e-05 4.42988e-05 0)
(7.21672e-05 4.91777e-05 0)
(7.08797e-05 5.71824e-05 0)
(6.78473e-05 6.95939e-05 0)
(6.21329e-05 8.65806e-05 0)
(5.28399e-05 0.000105372 0)
(3.97304e-05 0.000118623 0)
(2.41082e-05 0.000115171 0)
(9.42843e-06 8.54595e-05 0)
(4.79185e-07 3.06621e-05 0)
(-5.45671e-07 4.19174e-05 0)
(-9.5882e-06 0.000112945 0)
(-2.42278e-05 0.000149793 0)
(-3.96103e-05 0.000152093 0)
(-5.23169e-05 0.000133066 0)
(-6.11221e-05 0.000107436 0)
(-6.63317e-05 8.46558e-05 0)
(-6.88838e-05 6.81744e-05 0)
(-6.97346e-05 5.76545e-05 0)
(-6.95995e-05 5.13556e-05 0)
(-6.89264e-05 4.75512e-05 0)
(-6.79632e-05 4.50262e-05 0)
(-6.68367e-05 4.30738e-05 0)
(-6.56095e-05 4.1335e-05 0)
(-6.43136e-05 3.96453e-05 0)
(-6.29675e-05 3.79361e-05 0)
(-6.15839e-05 3.61806e-05 0)
(-6.01726e-05 3.43692e-05 0)
(-5.87425e-05 3.24985e-05 0)
(-5.73017e-05 3.05675e-05 0)
(-5.58576e-05 2.85759e-05 0)
(-5.44172e-05 2.65241e-05 0)
(-5.29874e-05 2.44123e-05 0)
(-5.15746e-05 2.2241e-05 0)
(-5.01849e-05 2.00109e-05 0)
(-4.88238e-05 1.77229e-05 0)
(-4.74968e-05 1.53786e-05 0)
(-4.62088e-05 1.29799e-05 0)
(-4.49649e-05 1.05291e-05 0)
(-4.37693e-05 8.02877e-06 0)
(-4.26259e-05 5.48196e-06 0)
(-4.15382e-05 2.89164e-06 0)
(-4.05088e-05 2.6075e-07 0)
(-3.95424e-05 -2.408e-06 0)
(-3.86395e-05 -5.11496e-06 0)
(-3.78002e-05 -7.85956e-06 0)
(-3.70259e-05 -1.06392e-05 0)
(-3.6318e-05 -1.34498e-05 0)
(-3.5677e-05 -1.62864e-05 0)
(-3.51027e-05 -1.91432e-05 0)
(-3.45951e-05 -2.20141e-05 0)
(-3.4154e-05 -2.48918e-05 0)
(-3.3778e-05 -2.77685e-05 0)
(-3.34656e-05 -3.06354e-05 0)
(-3.32144e-05 -3.34827e-05 0)
(-3.30219e-05 -3.63001e-05 0)
(-3.28856e-05 -3.90764e-05 0)
(-3.28022e-05 -4.18001e-05 0)
(-3.27686e-05 -4.44588e-05 0)
(-3.27814e-05 -4.70398e-05 0)
(-3.28373e-05 -4.95303e-05 0)
(-3.29328e-05 -5.19169e-05 0)
(-3.30648e-05 -5.41865e-05 0)
(-3.32301e-05 -5.63257e-05 0)
(-3.34257e-05 -5.83216e-05 0)
(-3.36488e-05 -6.01617e-05 0)
(-3.38968e-05 -6.18342e-05 0)
(-3.41671e-05 -6.33285e-05 0)
(-3.44573e-05 -6.46356e-05 0)
(-3.47643e-05 -6.57493e-05 0)
(-3.50841e-05 -6.66661e-05 0)
(-3.54109e-05 -6.73859e-05 0)
(-3.57365e-05 -6.7912e-05 0)
(-3.60506e-05 -6.82505e-05 0)
(-3.63407e-05 -6.84085e-05 0)
(-3.65932e-05 -6.83936e-05 0)
(-3.6795e-05 -6.82117e-05 0)
(-3.69341e-05 -6.78665e-05 0)
(-3.70004e-05 -6.73603e-05 0)
(-3.69853e-05 -6.66939e-05 0)
(-3.68818e-05 -6.58685e-05 0)
(-3.6684e-05 -6.48862e-05 0)
(-3.63868e-05 -6.37502e-05 0)
(-3.5986e-05 -6.24649e-05 0)
(-3.54778e-05 -6.10356e-05 0)
(-3.48593e-05 -5.94683e-05 0)
(-3.41279e-05 -5.77699e-05 0)
(-3.3282e-05 -5.59474e-05 0)
(-3.23204e-05 -5.40085e-05 0)
(-3.12426e-05 -5.19609e-05 0)
(-3.00489e-05 -4.98126e-05 0)
(-2.87401e-05 -4.75719e-05 0)
(-2.73178e-05 -4.52464e-05 0)
(-2.57841e-05 -4.28441e-05 0)
(-2.41418e-05 -4.0373e-05 0)
(-2.23943e-05 -3.78404e-05 0)
(-2.05454e-05 -3.52539e-05 0)
(-1.85995e-05 -3.26208e-05 0)
(-1.65614e-05 -2.99486e-05 0)
(-1.44361e-05 -2.72455e-05 0)
(-1.22285e-05 -2.45203e-05 0)
(-9.94381e-06 -2.17829e-05 0)
(-7.58673e-06 -1.90438e-05 0)
(-5.16169e-06 -1.63141e-05 0)
(-2.67269e-06 -1.36042e-05 0)
(-1.23701e-07 -1.09228e-05 0)
(2.48068e-06 -8.27645e-06 0)
(5.13753e-06 -5.66866e-06 0)
(7.84484e-06 -3.10189e-06 0)
(1.05993e-05 -5.77615e-07 0)
(1.33918e-05 1.9002e-06 0)
(1.62169e-05 4.32883e-06 0)
(1.90683e-05 6.70722e-06 0)
(2.19394e-05 9.03511e-06 0)
(2.48232e-05 1.13121e-05 0)
(2.77127e-05 1.35378e-05 0)
(3.06001e-05 1.57119e-05 0)
(3.34778e-05 1.78341e-05 0)
(3.63382e-05 1.99036e-05 0)
(3.91732e-05 2.192e-05 0)
(4.19743e-05 2.38827e-05 0)
(4.47329e-05 2.57918e-05 0)
(4.74397e-05 2.76496e-05 0)
(5.00843e-05 2.94644e-05 0)
(5.26543e-05 3.12617e-05 0)
(5.51313e-05 3.31097e-05 0)
(5.74833e-05 3.51732e-05 0)
(5.96477e-05 3.78152e-05 0)
(6.14973e-05 4.17524e-05 0)
(6.27821e-05 4.82204e-05 0)
(6.30497e-05 5.89805e-05 0)
(6.15755e-05 7.58203e-05 0)
(5.73885e-05 9.91175e-05 0)
(4.95333e-05 0.000125428 0)
(3.76895e-05 0.000145269 0)
(2.30721e-05 0.000143952 0)
(9.06855e-06 0.000108502 0)
(4.60535e-07 3.95689e-05 0)
(-5.7126e-07 5.14961e-05 0)
(-9.86026e-06 0.000137175 0)
(-2.47977e-05 0.000179855 0)
(-4.03707e-05 0.000179883 0)
(-5.3082e-05 0.000154102 0)
(-6.17105e-05 0.000120854 0)
(-6.66096e-05 9.17402e-05 0)
(-6.87709e-05 7.08602e-05 0)
(-6.9193e-05 5.76442e-05 0)
(-6.86179e-05 4.98292e-05 0)
(-6.75076e-05 4.52117e-05 0)
(-6.61167e-05 4.2251e-05 0)
(-6.45747e-05 4.00534e-05 0)
(-6.29453e-05 3.81646e-05 0)
(-6.12608e-05 3.63761e-05 0)
(-5.95402e-05 3.46e-05 0)
(-5.77965e-05 3.28015e-05 0)
(-5.60405e-05 3.09672e-05 0)
(-5.42818e-05 2.90918e-05 0)
(-5.25292e-05 2.71732e-05 0)
(-5.07912e-05 2.52101e-05 0)
(-4.90751e-05 2.32019e-05 0)
(-4.73886e-05 2.11478e-05 0)
(-4.57387e-05 1.90477e-05 0)
(-4.4132e-05 1.69014e-05 0)
(-4.25745e-05 1.47091e-05 0)
(-4.10715e-05 1.24713e-05 0)
(-3.96283e-05 1.0189e-05 0)
(-3.82492e-05 7.86349e-06 0)
(-3.69384e-05 5.49638e-06 0)
(-3.5699e-05 3.08971e-06 0)
(-3.45336e-05 6.45243e-07 0)
(-3.34441e-05 -1.83522e-06 0)
(-3.24321e-05 -4.35101e-06 0)
(-3.14989e-05 -6.90187e-06 0)
(-3.06461e-05 -9.48646e-06 0)
(-2.98755e-05 -1.21022e-05 0)
(-2.91886e-05 -1.47458e-05 0)
(-2.85864e-05 -1.74129e-05 0)
(-2.80693e-05 -2.00989e-05 0)
(-2.76378e-05 -2.27987e-05 0)
(-2.72912e-05 -2.55067e-05 0)
(-2.70281e-05 -2.82161e-05 0)
(-2.68466e-05 -3.09194e-05 0)
(-2.67445e-05 -3.36079e-05 0)
(-2.67189e-05 -3.62723e-05 0)
(-2.67667e-05 -3.8902e-05 0)
(-2.6884e-05 -4.14861e-05 0)
(-2.70669e-05 -4.40127e-05 0)
(-2.73114e-05 -4.64693e-05 0)
(-2.76135e-05 -4.88432e-05 0)
(-2.79691e-05 -5.11214e-05 0)
(-2.83741e-05 -5.32906e-05 0)
(-2.88244e-05 -5.53374e-05 0)
(-2.93164e-05 -5.72485e-05 0)
(-2.98464e-05 -5.90113e-05 0)
(-3.04104e-05 -6.0614e-05 0)
(-3.10052e-05 -6.2046e-05 0)
(-3.16269e-05 -6.32994e-05 0)
(-3.22716e-05 -6.43693e-05 0)
(-3.2934e-05 -6.5255e-05 0)
(-3.36072e-05 -6.59603e-05 0)
(-3.42825e-05 -6.64931e-05 0)
(-3.49485e-05 -6.68635e-05 0)
(-3.55923e-05 -6.7082e-05 0)
(-3.61995e-05 -6.71568e-05 0)
(-3.6756e-05 -6.70927e-05 0)
(-3.72483e-05 -6.68909e-05 0)
(-3.76646e-05 -6.65502e-05 0)
(-3.79945e-05 -6.60683e-05 0)
(-3.82296e-05 -6.54436e-05 0)
(-3.83626e-05 -6.46759e-05 0)
(-3.83871e-05 -6.37664e-05 0)
(-3.82978e-05 -6.27178e-05 0)
(-3.80901e-05 -6.15339e-05 0)
(-3.77601e-05 -6.02193e-05 0)
(-3.73048e-05 -5.87793e-05 0)
(-3.67216e-05 -5.72196e-05 0)
(-3.6009e-05 -5.55462e-05 0)
(-3.51657e-05 -5.37655e-05 0)
(-3.41915e-05 -5.1884e-05 0)
(-3.30867e-05 -4.99081e-05 0)
(-3.18523e-05 -4.78446e-05 0)
(-3.04899e-05 -4.57e-05 0)
(-2.90019e-05 -4.34807e-05 0)
(-2.73911e-05 -4.11929e-05 0)
(-2.56612e-05 -3.8843e-05 0)
(-2.38163e-05 -3.64373e-05 0)
(-2.18607e-05 -3.39824e-05 0)
(-1.97994e-05 -3.1486e-05 0)
(-1.76373e-05 -2.89568e-05 0)
(-1.53793e-05 -2.64047e-05 0)
(-1.30302e-05 -2.38408e-05 0)
(-1.05947e-05 -2.12762e-05 0)
(-8.07717e-06 -1.87218e-05 0)
(-5.4818e-06 -1.61868e-05 0)
(-2.8123e-06 -1.36777e-05 0)
(-7.38396e-08 -1.11993e-05 0)
(2.72863e-06 -8.75506e-06 0)
(5.59224e-06 -6.34647e-06 0)
(8.51153e-06 -3.97326e-06 0)
(1.14808e-05 -1.63507e-06 0)
(1.44934e-05 6.67688e-07 0)
(1.75419e-05 2.93459e-06 0)
(2.06191e-05 5.16551e-06 0)
(2.37172e-05 7.36101e-06 0)
(2.68282e-05 9.52128e-06 0)
(2.99434e-05 1.16464e-05 0)
(3.30544e-05 1.37363e-05 0)
(3.61522e-05 1.57908e-05 0)
(3.92276e-05 1.78102e-05 0)
(4.22711e-05 1.97953e-05 0)
(4.52726e-05 2.17498e-05 0)
(4.82212e-05 2.36854e-05 0)
(5.11038e-05 2.56356e-05 0)
(5.39019e-05 2.76871e-05 0)
(5.6583e-05 3.00491e-05 0)
(5.9084e-05 3.31801e-05 0)
(6.12752e-05 3.79857e-05 0)
(6.29008e-05 4.60309e-05 0)
(6.34949e-05 5.95611e-05 0)
(6.23077e-05 8.0895e-05 0)
(5.83287e-05 0.000110652 0)
(5.05517e-05 0.000144735 0)
(3.86133e-05 0.000171505 0)
(2.3729e-05 0.000172665 0)
(9.37158e-06 0.000131681 0)
(4.87493e-07 4.85767e-05 0)
(-6.07467e-07 6.15313e-05 0)
(-1.0377e-05 0.000162443 0)
(-2.60359e-05 0.000211082 0)
(-4.23206e-05 0.000208625 0)
(-5.55744e-05 0.000175728 0)
(-6.4534e-05 0.00013451 0)
(-6.95836e-05 9.87979e-05 0)
(-7.17707e-05 7.33556e-05 0)
(-7.21456e-05 5.73586e-05 0)
(-7.14873e-05 4.79934e-05 0)
(-7.028e-05 4.25569e-05 0)
(-6.87901e-05 3.9168e-05 0)
(-6.71524e-05 3.6738e-05 0)
(-6.54326e-05 3.4714e-05 0)
(-6.36637e-05 3.2842e-05 0)
(-6.18646e-05 3.10145e-05 0)
(-6.00485e-05 2.91884e-05 0)
(-5.82261e-05 2.73468e-05 0)
(-5.64068e-05 2.54824e-05 0)
(-5.45996e-05 2.3592e-05 0)
(-5.28128e-05 2.16734e-05 0)
(-5.10542e-05 1.97249e-05 0)
(-4.93312e-05 1.77449e-05 0)
(-4.76506e-05 1.57322e-05 0)
(-4.60189e-05 1.36858e-05 0)
(-4.44417e-05 1.16049e-05 0)
(-4.29244e-05 9.48873e-06 0)
(-4.14716e-05 7.3371e-06 0)
(-4.00874e-05 5.15001e-06 0)
(-3.87747e-05 2.92782e-06 0)
(-3.75362e-05 6.71221e-07 0)
(-3.6374e-05 -1.61897e-06 0)
(-3.52895e-05 -3.94246e-06 0)
(-3.42836e-05 -6.29915e-06 0)
(-3.33571e-05 -8.68829e-06 0)
(-3.25104e-05 -1.11085e-05 0)
(-3.17441e-05 -1.35576e-05 0)
(-3.10588e-05 -1.60326e-05 0)
(-3.04545e-05 -1.853e-05 0)
(-2.99307e-05 -2.10462e-05 0)
(-2.94868e-05 -2.35773e-05 0)
(-2.91214e-05 -2.61187e-05 0)
(-2.88326e-05 -2.86649e-05 0)
(-2.86177e-05 -3.12099e-05 0)
(-2.84736e-05 -3.37462e-05 0)
(-2.83965e-05 -3.62651e-05 0)
(-2.83826e-05 -3.87568e-05 0)
(-2.84277e-05 -4.12107e-05 0)
(-2.85269e-05 -4.36154e-05 0)
(-2.86762e-05 -4.59585e-05 0)
(-2.88715e-05 -4.82275e-05 0)
(-2.91086e-05 -5.0409e-05 0)
(-2.9383e-05 -5.24895e-05 0)
(-2.96911e-05 -5.44553e-05 0)
(-3.00298e-05 -5.62927e-05 0)
(-3.0396e-05 -5.79889e-05 0)
(-3.07868e-05 -5.95315e-05 0)
(-3.11996e-05 -6.09104e-05 0)
(-3.16319e-05 -6.21178e-05 0)
(-3.20807e-05 -6.31505e-05 0)
(-3.2542e-05 -6.40101e-05 0)
(-3.30104e-05 -6.47041e-05 0)
(-3.34785e-05 -6.52446e-05 0)
(-3.39366e-05 -6.56459e-05 0)
(-3.43732e-05 -6.59215e-05 0)
(-3.47753e-05 -6.60811e-05 0)
(-3.51298e-05 -6.6129e-05 0)
(-3.54243e-05 -6.60641e-05 0)
(-3.56474e-05 -6.58823e-05 0)
(-3.57896e-05 -6.55781e-05 0)
(-3.5843e-05 -6.5147e-05 0)
(-3.58011e-05 -6.4586e-05 0)
(-3.56584e-05 -6.38946e-05 0)
(-3.54104e-05 -6.30737e-05 0)
(-3.50534e-05 -6.21255e-05 0)
(-3.4584e-05 -6.10533e-05 0)
(-3.39999e-05 -5.98611e-05 0)
(-3.32991e-05 -5.85532e-05 0)
(-3.24799e-05 -5.71343e-05 0)
(-3.15416e-05 -5.56094e-05 0)
(-3.04837e-05 -5.39839e-05 0)
(-2.93066e-05 -5.2263e-05 0)
(-2.80109e-05 -5.04521e-05 0)
(-2.6598e-05 -4.85565e-05 0)
(-2.50695e-05 -4.65813e-05 0)
(-2.34279e-05 -4.45319e-05 0)
(-2.16759e-05 -4.24132e-05 0)
(-1.98169e-05 -4.02307e-05 0)
(-1.78544e-05 -3.79906e-05 0)
(-1.57924e-05 -3.56999e-05 0)
(-1.36347e-05 -3.33674e-05 0)
(-1.1385e-05 -3.10032e-05 0)
(-9.04675e-06 -2.86186e-05 0)
(-6.62364e-06 -2.62248e-05 0)
(-4.11883e-06 -2.38333e-05 0)
(-1.53506e-06 -2.14527e-05 0)
(1.12222e-06 -1.909e-05 0)
(3.84869e-06 -1.67502e-05 0)
(6.64145e-06 -1.44346e-05 0)
(9.49539e-06 -1.21441e-05 0)
(1.2405e-05 -9.87836e-06 0)
(1.53643e-05 -7.63643e-06 0)
(1.83669e-05 -5.41715e-06 0)
(2.14064e-05 -3.21924e-06 0)
(2.44751e-05 -1.04096e-06 0)
(2.75648e-05 1.11817e-06 0)
(3.06674e-05 3.25861e-06 0)
(3.37747e-05 5.38098e-06 0)
(3.68779e-05 7.48607e-06 0)
(3.99681e-05 9.57424e-06 0)
(4.30359e-05 1.1646e-05 0)
(4.60719e-05 1.37032e-05 0)
(4.90662e-05 1.57506e-05 0)
(5.2008e-05 1.78033e-05 0)
(5.48842e-05 1.99021e-05 0)
(5.7676e-05 2.21534e-05 0)
(6.03509e-05 2.48113e-05 0)
(6.28436e-05 2.84336e-05 0)
(6.50198e-05 3.41223e-05 0)
(6.66126e-05 4.37859e-05 0)
(6.7135e-05 6.01753e-05 0)
(6.58022e-05 8.61676e-05 0)
(6.15543e-05 0.000122642 0)
(5.33329e-05 0.000164836 0)
(4.07484e-05 0.000198875 0)
(2.50649e-05 0.000202689 0)
(9.92226e-06 0.000155992 0)
(5.24877e-07 5.80733e-05 0)
(-6.45782e-07 7.21514e-05 0)
(-1.09982e-05 0.000189129 0)
(-2.75707e-05 0.000244018 0)
(-4.47941e-05 0.000238908 0)
(-5.88067e-05 0.000198497 0)
(-6.82794e-05 0.000148883 0)
(-7.36221e-05 0.00010623 0)
(-7.59434e-05 7.59951e-05 0)
(-7.6354e-05 5.70846e-05 0)
(-7.56785e-05 4.61039e-05 0)
(-7.44296e-05 3.98225e-05 0)
(-7.28892e-05 3.60002e-05 0)
(-7.12e-05 3.3342e-05 0)
(-6.94312e-05 3.11906e-05 0)
(-6.76174e-05 2.92439e-05 0)
(-6.57782e-05 2.73738e-05 0)
(-6.39269e-05 2.55287e-05 0)
(-6.20741e-05 2.3688e-05 0)
(-6.02291e-05 2.18429e-05 0)
(-5.84007e-05 1.99888e-05 0)
(-5.65971e-05 1.81225e-05 0)
(-5.48261e-05 1.62414e-05 0)
(-5.3095e-05 1.4343e-05 0)
(-5.14102e-05 1.24251e-05 0)
(-4.9778e-05 1.04852e-05 0)
(-4.82039e-05 8.52144e-06 0)
(-4.66931e-05 6.53195e-06 0)
(-4.52497e-05 4.51515e-06 0)
(-4.38773e-05 2.46977e-06 0)
(-4.25784e-05 3.94828e-07 0)
(-4.1355e-05 -1.71044e-06 0)
(-4.02091e-05 -3.84692e-06 0)
(-3.91415e-05 -6.01525e-06 0)
(-3.81521e-05 -8.21569e-06 0)
(-3.72405e-05 -1.04481e-05 0)
(-3.64062e-05 -1.27117e-05 0)
(-3.56481e-05 -1.50049e-05 0)
(-3.49648e-05 -1.7325e-05 0)
(-3.43551e-05 -1.96693e-05 0)
(-3.38171e-05 -2.20348e-05 0)
(-3.33486e-05 -2.44183e-05 0)
(-3.2947e-05 -2.68165e-05 0)
(-3.26091e-05 -2.92252e-05 0)
(-3.23314e-05 -3.16393e-05 0)
(-3.21095e-05 -3.40525e-05 0)
(-3.19385e-05 -3.64567e-05 0)
(-3.18137e-05 -3.88427e-05 0)
(-3.17303e-05 -4.12001e-05 0)
(-3.16829e-05 -4.35175e-05 0)
(-3.16667e-05 -4.57824e-05 0)
(-3.16774e-05 -4.79818e-05 0)
(-3.17104e-05 -5.01017e-05 0)
(-3.17618e-05 -5.2128e-05 0)
(-3.18287e-05 -5.40462e-05 0)
(-3.19085e-05 -5.58418e-05 0)
(-3.19992e-05 -5.75008e-05 0)
(-3.2099e-05 -5.90105e-05 0)
(-3.22069e-05 -6.036e-05 0)
(-3.23222e-05 -6.15419e-05 0)
(-3.2444e-05 -6.25541e-05 0)
(-3.25704e-05 -6.34006e-05 0)
(-3.26979e-05 -6.40923e-05 0)
(-3.28214e-05 -6.46456e-05 0)
(-3.29332e-05 -6.5079e-05 0)
(-3.30234e-05 -6.54095e-05 0)
(-3.30806e-05 -6.56487e-05 0)
(-3.3093e-05 -6.58003e-05 0)
(-3.30495e-05 -6.58617e-05 0)
(-3.29403e-05 -6.58255e-05 0)
(-3.27575e-05 -6.56829e-05 0)
(-3.24945e-05 -6.54263e-05 0)
(-3.21466e-05 -6.50506e-05 0)
(-3.171e-05 -6.4553e-05 0)
(-3.11815e-05 -6.3933e-05 0)
(-3.05588e-05 -6.31916e-05 0)
(-2.98399e-05 -6.2331e-05 0)
(-2.90231e-05 -6.13541e-05 0)
(-2.81073e-05 -6.02643e-05 0)
(-2.70914e-05 -5.90656e-05 0)
(-2.59749e-05 -5.77621e-05 0)
(-2.47577e-05 -5.63581e-05 0)
(-2.34398e-05 -5.4858e-05 0)
(-2.20216e-05 -5.32662e-05 0)
(-2.0504e-05 -5.15872e-05 0)
(-1.88882e-05 -4.98251e-05 0)
(-1.71758e-05 -4.79843e-05 0)
(-1.53686e-05 -4.60689e-05 0)
(-1.3469e-05 -4.40839e-05 0)
(-1.14794e-05 -4.20349e-05 0)
(-9.40205e-06 -3.99291e-05 0)
(-7.23963e-06 -3.77749e-05 0)
(-4.99404e-06 -3.55837e-05 0)
(-2.6662e-06 -3.33666e-05 0)
(-2.59216e-07 -3.11346e-05 0)
(2.22409e-06 -2.88989e-05 0)
(4.78299e-06 -2.66681e-05 0)
(7.41382e-06 -2.44481e-05 0)
(1.01127e-05 -2.22421e-05 0)
(1.28752e-05 -2.00512e-05 0)
(1.56966e-05 -1.78751e-05 0)
(1.85718e-05 -1.57123e-05 0)
(2.14949e-05 -1.35608e-05 0)
(2.4459e-05 -1.14183e-05 0)
(2.74571e-05 -9.28293e-06 0)
(3.0482e-05 -7.153e-06 0)
(3.3526e-05 -5.02684e-06 0)
(3.65815e-05 -2.90274e-06 0)
(3.96397e-05 -7.79045e-07 0)