/*--------------------------------*- C++ -*----------------------------------*\
| =========                 |                                                 |
| \\      /  F ield         | OpenFOAM: The Open Source CFD Toolbox           |
|  \\    /   O peration     | Version:  2206                                  |
|   \\  /    A nd           | Website:  www.openfoam.com                      |
|    \\/     M anipulation  |                                                 |
\*---------------------------------------------------------------------------*/
FoamFile
{
    version     2.0;
    format      ascii;
    arch        "LSB;label=64;scalar=64";
    class       surfaceScalarField;
    location    "403200";
    object      phi;
}
// * * * * * * * * * * * * * * * * * * * * * * * * * * * * * * * * * * * * * //

dimensions      [0 3 -1 0 0 0 0];

oriented        oriented;

internalField   nonuniform List<scalar> 
24
(
4.06333e-10
-4.06333e-10
6.1048e-10
-2.04148e-10
3.57234e-10
2.53247e-10
3.57234e-10
1.64383e-10
-5.70716e-10
2.09144e-10
-2.48909e-10
1.88943e-10
2.73448e-10
5.46177e-10
-2.16387e-10
-3.54329e-10
-3.82705e-10
-8.2591e-11
-1.89434e-10
8.01768e-11
3.56743e-10
-3.54329e-10
-4.3692e-10
-3.56743e-10
)
;

boundaryField
{
    movingWall
    {
        type            calculated;
        value           nonuniform List<scalar> 4(0 4.03897e-28 0 0);
    }
    fixedWalls
    {
        type            calculated;
        value           uniform 0;
    }
    frontAndBack
    {
        type            empty;
        value           nonuniform List<scalar> 0();
    }
}


// ************************************************************************* //
