/*--------------------------------*- C++ -*----------------------------------*\
| =========                 |                                                 |
| \\      /  F ield         | OpenFOAM: The Open Source CFD Toolbox           |
|  \\    /   O peration     | Version:  2206                                  |
|   \\  /    A nd           | Website:  www.openfoam.com                      |
|    \\/     M anipulation  |                                                 |
\*---------------------------------------------------------------------------*/
FoamFile
{
    version     2.0;
    format      ascii;
    arch        "LSB;label=64;scalar=64";
    class       volVectorField;
    location    "655200";
    object      U;
}
// * * * * * * * * * * * * * * * * * * * * * * * * * * * * * * * * * * * * * //

dimensions      [0 1 -1 0 0 0 0];

internalField   nonuniform List<vector> 
16
(
(5.53617e-08 -4.71012e-08 0)
(1.50272e-07 -7.66623e-09 0)
(1.02513e-07 1.90404e-08 0)
(2.05431e-08 3.27385e-08 0)
(2.18751e-09 -1.58874e-07 0)
(7.45768e-08 -4.15225e-08 0)
(5.45699e-08 1.11507e-07 0)
(-9.52142e-09 9.04969e-08 0)
(-4.26277e-08 -1.20281e-07 0)
(-1.07614e-07 -6.03145e-08 0)
(-5.93417e-08 1.02125e-07 0)
(-9.81878e-09 7.76228e-08 0)
(-1.32483e-08 -1.20139e-08 0)
(-1.18716e-07 -2.50745e-08 0)
(-9.65234e-08 1.52028e-08 0)
(-3.02287e-09 2.2463e-08 0)
)
;

boundaryField
{
    movingWall
    {
        type            noSlip;
    }
    fixedWalls
    {
        type            noSlip;
    }
    frontAndBack
    {
        type            empty;
    }
}


// ************************************************************************* //
