/*--------------------------------*- C++ -*----------------------------------*\
| =========                 |                                                 |
| \\      /  F ield         | OpenFOAM: The Open Source CFD Toolbox           |
|  \\    /   O peration     | Version:  2206                                  |
|   \\  /    A nd           | Website:  www.openfoam.com                      |
|    \\/     M anipulation  |                                                 |
\*---------------------------------------------------------------------------*/
FoamFile
{
    version     2.0;
    format      ascii;
    arch        "LSB;label=64;scalar=64";
    class       surfaceScalarField;
    location    "237600";
    object      phi;
}
// * * * * * * * * * * * * * * * * * * * * * * * * * * * * * * * * * * * * * //

dimensions      [0 3 -1 0 0 0 0];

oriented        oriented;

internalField   nonuniform List<scalar> 
24
(
1.1939e-10
-1.1939e-10
1.15439e-11
1.07847e-10
1.90733e-10
-1.79189e-10
1.90733e-10
4.44603e-11
-1.63851e-10
1.49177e-10
3.12966e-12
1.76631e-10
-2.06643e-10
3.67364e-10
-5.92861e-11
-1.04565e-10
6.38236e-12
-6.25389e-11
-8.98902e-11
-1.10371e-10
2.77474e-10
-1.04565e-10
-1.67103e-10
-2.77474e-10
)
;

boundaryField
{
    movingWall
    {
        type            calculated;
        value           uniform 0;
    }
    fixedWalls
    {
        type            calculated;
        value           uniform 0;
    }
    frontAndBack
    {
        type            empty;
        value           nonuniform List<scalar> 0();
    }
}


// ************************************************************************* //
