/*--------------------------------*- C++ -*----------------------------------*\
| =========                 |                                                 |
| \\      /  F ield         | OpenFOAM: The Open Source CFD Toolbox           |
|  \\    /   O peration     | Version:  2206                                  |
|   \\  /    A nd           | Website:  www.openfoam.com                      |
|    \\/     M anipulation  |                                                 |
\*---------------------------------------------------------------------------*/
FoamFile
{
    version     2.0;
    format      ascii;
    arch        "LSB;label=64;scalar=64";
    class       volVectorField;
    location    "237600";
    object      U;
}
// * * * * * * * * * * * * * * * * * * * * * * * * * * * * * * * * * * * * * //

dimensions      [0 1 -1 0 0 0 0];

internalField   nonuniform List<vector> 
16
(
(1.02517e-07 -2.75936e-08 0)
(-1.07589e-08 4.67221e-08 0)
(2.13752e-08 -4.57533e-08 0)
(1.26578e-07 2.70226e-08 0)
(2.84173e-09 -6.65033e-08 0)
(3.20361e-08 3.82817e-08 0)
(8.91153e-08 -9.67828e-08 0)
(5.05224e-08 1.25944e-07 0)
(-5.48303e-08 -6.55938e-08 0)
(9.2115e-09 -3.59127e-08 0)
(-4.81735e-09 -6.66224e-08 0)
(-6.48628e-08 1.65837e-07 0)
(-4.87756e-08 -1.74879e-08 0)
(-3.24694e-08 -1.38565e-08 0)
(-1.04896e-07 -2.26945e-08 0)
(-1.13005e-07 5.7336e-08 0)
)
;

boundaryField
{
    movingWall
    {
        type            noSlip;
    }
    fixedWalls
    {
        type            noSlip;
    }
    frontAndBack
    {
        type            empty;
    }
}


// ************************************************************************* //
