/*--------------------------------*- C++ -*----------------------------------*\
| =========                 |                                                 |
| \\      /  F ield         | OpenFOAM: The Open Source CFD Toolbox           |
|  \\    /   O peration     | Version:  2206                                  |
|   \\  /    A nd           | Website:  www.openfoam.com                      |
|    \\/     M anipulation  |                                                 |
\*---------------------------------------------------------------------------*/
FoamFile
{
    version     2.0;
    format      ascii;
    arch        "LSB;label=64;scalar=64";
    class       volVectorField;
    location    "612000";
    object      U;
}
// * * * * * * * * * * * * * * * * * * * * * * * * * * * * * * * * * * * * * //

dimensions      [0 1 -1 0 0 0 0];

internalField   nonuniform List<vector> 
16
(
(1.87873e-07 -1.50358e-07 0)
(3.17121e-07 6.35157e-09 0)
(1.49767e-07 7.03467e-08 0)
(3.45712e-08 7.21559e-08 0)
(6.4169e-08 -3.59125e-07 0)
(8.57911e-08 4.48192e-08 0)
(-1.56011e-08 2.03533e-07 0)
(-2.31596e-08 1.12043e-07 0)
(-8.69578e-08 -3.01095e-07 0)
(-1.7615e-07 8.85394e-08 0)
(-9.19579e-08 1.76634e-07 0)
(-1.34304e-08 3.82325e-08 0)
(-1.66076e-07 -9.74648e-08 0)
(-2.2576e-07 4.4646e-08 0)
(-4.33908e-08 4.60772e-08 0)
(2.30751e-09 3.80483e-09 0)
)
;

boundaryField
{
    movingWall
    {
        type            noSlip;
    }
    fixedWalls
    {
        type            noSlip;
    }
    frontAndBack
    {
        type            empty;
    }
}


// ************************************************************************* //
