/*--------------------------------*- C++ -*----------------------------------*\
| =========                 |                                                 |
| \\      /  F ield         | OpenFOAM: The Open Source CFD Toolbox           |
|  \\    /   O peration     | Version:  2212                                  |
|   \\  /    A nd           | Website:  www.openfoam.com                      |
|    \\/     M anipulation  |                                                 |
\*---------------------------------------------------------------------------*/
FoamFile
{
    version     2.0;
    format      ascii;
    arch        "LSB;label=64;scalar=64";
    class       volScalarField;
    location    "770";
    object      p_rgh;
}
// * * * * * * * * * * * * * * * * * * * * * * * * * * * * * * * * * * * * * //

dimensions      [0 2 -2 0 0 0 0];

internalField   nonuniform List<scalar> 
1024
(
0.0431951
0.043192
0.0431881
0.0431851
0.0431838
0.0431843
0.043187
0.0431939
0.0432092
0.0432392
0.0432923
0.0433782
0.0434999
0.0436399
0.0437452
0.0437611
0.0437183
0.0436456
0.0435793
0.0435251
0.0434825
0.0434499
0.0434255
0.0434076
0.0433948
0.0433856
0.0433791
0.0433751
0.0433736
0.0433747
0.0433773
0.0433797
0.0432024
0.0431994
0.0431961
0.0431941
0.0431937
0.0431948
0.0431979
0.0432052
0.0432208
0.0432509
0.0433041
0.0433898
0.0435116
0.0436515
0.0437565
0.0437724
0.0437293
0.0436562
0.0435895
0.0435348
0.0434917
0.0434588
0.0434342
0.0434161
0.0434031
0.0433937
0.043387
0.0433828
0.0433808
0.0433812
0.0433834
0.0433858
0.0432167
0.0432129
0.0432101
0.0432099
0.0432114
0.0432142
0.0432187
0.0432272
0.0432438
0.0432749
0.0433293
0.0434166
0.0435399
0.0436812
0.0437867
0.043802
0.0437574
0.0436826
0.0436142
0.0435581
0.0435137
0.0434797
0.043454
0.0434349
0.0434209
0.0434104
0.0434026
0.0433969
0.0433935
0.0433927
0.0433945
0.0433974
0.0432353
0.0432306
0.0432285
0.0432308
0.0432357
0.0432418
0.0432491
0.0432599
0.0432787
0.0433121
0.043369
0.0434593
0.0435852
0.0437286
0.0438353
0.0438514
0.0438054
0.0437284
0.0436577
0.0435993
0.0435525
0.0435162
0.0434883
0.0434669
0.0434505
0.0434374
0.0434265
0.0434176
0.0434112
0.0434082
0.0434095
0.0434131
0.0432521
0.043247
0.0432466
0.043253
0.0432633
0.0432747
0.0432867
0.0433014
0.0433237
0.0433603
0.0434199
0.0435126
0.0436397
0.0437837
0.0438915
0.043913
0.0438696
0.0437928
0.043721
0.0436607
0.043611
0.0435715
0.0435399
0.0435146
0.0434938
0.0434757
0.0434592
0.0434443
0.0434324
0.0434256
0.0434255
0.0434295
0.0432569
0.0432524
0.0432552
0.0432678
0.0432863
0.0433059
0.043325
0.0433454
0.043372
0.0434113
0.0434716
0.0435629
0.0436875
0.0438299
0.0439394
0.0439726
0.0439392
0.0438681
0.043799
0.0437394
0.0436883
0.0436455
0.0436094
0.0435783
0.0435506
0.0435243
0.0434985
0.0434738
0.0434531
0.04344
0.0434369
0.0434405
0.0432375
0.0432347
0.0432423
0.0432636
0.0432933
0.0433247
0.0433538
0.0433816
0.0434122
0.043452
0.0435089
0.0435929
0.0437124
0.0438527
0.0439662
0.0440161
0.0439991
0.0439403
0.0438798
0.0438259
0.0437775
0.0437334
0.0436929
0.0436547
0.0436174
0.0435791
0.0435394
0.0435
0.0434661
0.0434436
0.0434358
0.0434381
0.0431852
0.043185
0.0431982
0.0432295
0.0432733
0.0433198
0.0433619
0.0433982
0.0434318
0.0434685
0.0435176
0.0435911
0.0437064
0.0438483
0.0439701
0.0440372
0.0440376
0.0439957
0.0439491
0.0439062
0.0438658
0.0438244
0.0437815
0.0437361
0.0436869
0.0436328
0.0435739
0.0435145
0.0434627
0.0434276
0.0434133
0.0434136
0.0431004
0.0431027
0.0431208
0.0431614
0.0432199
0.0432837
0.0433412
0.0433871
0.0434223
0.0434529
0.0434911
0.0435562
0.0436729
0.0438237
0.043958
0.0440385
0.0440526
0.0440273
0.0439965
0.0439679
0.0439394
0.0439054
0.0438635
0.043812
0.0437499
0.0436763
0.0435933
0.0435084
0.0434347
0.0433848
0.043363
0.0433607
0.0429947
0.0429993
0.0430198
0.0430656
0.0431351
0.0432152
0.0432891
0.0433456
0.0433828
0.0434067
0.0434341
0.0434957
0.0436234
0.0437917
0.0439395
0.0440282
0.0440499
0.0440371
0.0440206
0.0440063
0.043991
0.0439669
0.0439286
0.0438728
0.043797
0.0437011
0.0435896
0.0434754
0.0433775
0.0433125
0.0432836
0.0432787
0.0428937
0.042899
0.0429186
0.042962
0.0430323
0.0431215
0.0432093
0.043277
0.0433181
0.0433381
0.043358
0.0434252
0.0435764
0.0437668
0.0439256
0.0440163
0.0440385
0.0440325
0.0440265
0.0440241
0.0440205
0.0440058
0.0439715
0.0439114
0.0438208
0.0437
0.0435572
0.0434122
0.0432913
0.0432137
0.0431795
0.0431727
0.0428266
0.0428319
0.0428486
0.0428855
0.0429471
0.0430282
0.0431132
0.0431846
0.0432313
0.043255
0.043282
0.0433761
0.0435555
0.0437656
0.0439314
0.044014
0.0440273
0.0440209
0.0440205
0.0440267
0.0440322
0.0440233
0.0439897
0.0439221
0.0438136
0.043665
0.0434901
0.043318
0.0431813
0.0430976
0.0430615
0.0430535
0.0428252
0.0428284
0.0428387
0.0428642
0.04291
0.0429734
0.0430427
0.0431037
0.0431471
0.0431789
0.0432384
0.0433812
0.0435983
0.0438208
0.0439753
0.0440322
0.0440241
0.0440069
0.0440043
0.0440149
0.0440264
0.0440157
0.0439735
0.0438903
0.0437582
0.0435814
0.0433805
0.0431964
0.0430627
0.0429851
0.042952
0.0429438
0.0429454
0.0429417
0.0429378
0.0429426
0.0429635
0.0430008
0.0430473
0.0430932
0.0431352
0.0431886
0.0433118
0.0435189
0.0437617
0.0439628
0.0440704
0.0440759
0.0440297
0.0439869
0.0439645
0.0439641
0.043974
0.0439454
0.043878
0.0437687
0.0436176
0.0434374
0.0432518
0.0430911
0.0429775
0.042913
0.0428854
0.0428776
0.0433973
0.0433793
0.0433472
0.0433124
0.0432884
0.0432839
0.0433006
0.0433378
0.0434025
0.0435259
0.0437103
0.0439145
0.0440968
0.044195
0.0441995
0.0441282
0.0440289
0.0439431
0.0438716
0.0438145
0.043769
0.0437261
0.0436646
0.0435759
0.0434573
0.0433176
0.0431764
0.0430566
0.0429735
0.0429276
0.0429081
0.0429021
0.044591
0.0445762
0.04454
0.0444829
0.0444148
0.044353
0.0443178
0.0443263
0.0443835
0.0444527
0.0444895
0.044504
0.0444972
0.0444136
0.044276
0.0441455
0.0440275
0.0439228
0.0438231
0.0437272
0.0436437
0.0435834
0.0435431
0.0435054
0.0434416
0.0433536
0.0432577
0.0431753
0.043121
0.0430958
0.0430891
0.0430888
0.0452614
0.0452553
0.0452402
0.0452123
0.0451695
0.0451128
0.0450456
0.0449757
0.0449123
0.0448589
0.0448097
0.0447538
0.0446892
0.0446259
0.0445764
0.0445378
0.0445153
0.0445252
0.0445552
0.0445809
0.0446019
0.0446092
0.0445838
0.0445108
0.0443972
0.0442455
0.0440724
0.0439104
0.0437992
0.0437644
0.0437644
0.0437715
0.0454344
0.0454233
0.0453995
0.0453608
0.045307
0.0452427
0.0451797
0.0451306
0.0451042
0.0451028
0.045122
0.0451528
0.0451884
0.0452286
0.0452786
0.0453429
0.0454242
0.0454942
0.0455513
0.0456313
0.0457347
0.0458555
0.0459801
0.0460892
0.0461622
0.0461831
0.0461438
0.0460452
0.0458961
0.0457197
0.0455951
0.045544
0.0455193
0.0455061
0.0454792
0.0454385
0.0453875
0.0453335
0.0452869
0.045258
0.0452536
0.0452752
0.0453201
0.0453821
0.0454544
0.0455311
0.0456062
0.0456728
0.045731
0.0457661
0.0457781
0.0458099
0.0458681
0.0459505
0.0460502
0.0461556
0.0462525
0.046328
0.0463743
0.0463905
0.0463809
0.0463536
0.0463206
0.046297
0.0455491
0.0455362
0.04551
0.0454711
0.0454236
0.0453761
0.0453395
0.0453235
0.0453337
0.0453708
0.0454304
0.0455064
0.0455911
0.0456759
0.0457506
0.0458038
0.0458361
0.0458455
0.0458352
0.0458328
0.045848
0.0458822
0.0459357
0.0460056
0.0460843
0.046161
0.0462248
0.0462683
0.0462911
0.0462974
0.0462932
0.0462852
0.0455679
0.0455554
0.0455298
0.045493
0.0454483
0.0454044
0.0453729
0.0453636
0.0453808
0.0454253
0.045491
0.0455706
0.045656
0.0457373
0.0458056
0.0458488
0.0458711
0.0458803
0.0458751
0.0458641
0.0458592
0.0458626
0.0458781
0.0459095
0.0459585
0.0460191
0.0460803
0.0461303
0.0461626
0.0461773
0.0461788
0.0461736
0.045592
0.0455798
0.0455546
0.0455188
0.0454761
0.0454348
0.0454065
0.0454004
0.0454202
0.0454658
0.0455309
0.0456067
0.0456842
0.045756
0.045815
0.0458473
0.0458566
0.0458608
0.0458707
0.045876
0.0458814
0.0458809
0.0458852
0.0458966
0.0459232
0.0459671
0.0460218
0.0460742
0.0461127
0.0461325
0.0461363
0.0461311
0.0456211
0.0456089
0.0455843
0.0455492
0.045509
0.0454713
0.0454462
0.0454424
0.0454638
0.045509
0.04557
0.0456378
0.0457027
0.0457572
0.0457954
0.0458095
0.0457996
0.0457935
0.0458092
0.0458344
0.0458632
0.0458896
0.045915
0.0459395
0.0459615
0.0460007
0.0460548
0.046113
0.0461604
0.0461873
0.0461936
0.0461884
0.0456522
0.0456395
0.0456152
0.0455818
0.0455454
0.0455129
0.0454932
0.0454941
0.0455167
0.0455591
0.0456119
0.045666
0.0457131
0.045746
0.0457595
0.0457512
0.0457218
0.0457056
0.0457215
0.0457605
0.0458112
0.0458669
0.045925
0.0459838
0.0460416
0.0461052
0.0461696
0.046242
0.0463065
0.0463464
0.0463578
0.0463538
0.0456792
0.0456655
0.0456419
0.045612
0.0455817
0.0455572
0.0455454
0.0455526
0.0455774
0.0456144
0.045656
0.0456933
0.0457193
0.0457278
0.045715
0.045682
0.0456342
0.0456085
0.0456224
0.0456698
0.0457373
0.0458194
0.0459131
0.0460162
0.0461264
0.0462397
0.0463491
0.0464525
0.0465457
0.04661
0.046633
0.0466334
0.045698
0.0456833
0.045661
0.0456368
0.0456164
0.0456038
0.0456024
0.0456166
0.0456429
0.0456729
0.0457007
0.0457188
0.0457215
0.0457043
0.0456647
0.0456068
0.0455416
0.0455065
0.0455179
0.0455698
0.0456504
0.0457557
0.0458841
0.0460341
0.0462024
0.046382
0.0465608
0.0467259
0.0468679
0.046976
0.0470246
0.0470372
0.0457008
0.0456855
0.0456672
0.045654
0.0456489
0.045652
0.045663
0.0456841
0.0457099
0.0457306
0.0457425
0.0457399
0.0457183
0.0456751
0.0456095
0.0455278
0.0454464
0.0454026
0.0454115
0.0454664
0.0455579
0.0456834
0.0458431
0.0460376
0.0462644
0.0465162
0.0467784
0.0470313
0.0472546
0.0474337
0.0475355
0.0475761
0.0456779
0.045666
0.0456586
0.0456645
0.0456809
0.0457022
0.0457258
0.0457516
0.0457735
0.0457828
0.0457774
0.0457534
0.0457079
0.0456401
0.0455504
0.0454476
0.0453524
0.0453016
0.0453086
0.0453666
0.0454676
0.0456099
0.0457959
0.0460285
0.0463078
0.0466288
0.0469784
0.0473356
0.0476737
0.0479619
0.0481594
0.0482581
0.0456055
0.0456096
0.0456312
0.0456702
0.0457146
0.0457551
0.0457893
0.0458161
0.04583
0.0458263
0.0458029
0.0457581
0.0456909
0.0456014
0.0454915
0.0453717
0.0452662
0.0452108
0.0452172
0.0452786
0.0453874
0.0455426
0.0457484
0.0460099
0.0463303
0.0467084
0.0471374
0.0476029
0.0480814
0.0485333
0.0488846
0.0491126
0.0454317
0.0454996
0.0455921
0.0456821
0.0457552
0.0458128
0.0458528
0.0458754
0.0458787
0.0458604
0.04582
0.045757
0.0456717
0.045565
0.0454399
0.0453082
0.0451961
0.0451382
0.0451449
0.0452094
0.0453237
0.0454873
0.0457058
0.0459857
0.0463328
0.04675
0.0472386
0.0477978
0.0484238
0.0490926
0.0497228
0.0502749
0.0449519
0.0453401
0.0455799
0.045724
0.0458158
0.0458787
0.0459156
0.0459291
0.04592
0.0458878
0.045833
0.0457558
0.0456572
0.0455386
0.0454037
0.0452645
0.0451487
0.0450896
0.0450968
0.0451631
0.04528
0.0454476
0.045672
0.0459604
0.0463199
0.0467564
0.0472778
0.0478985
0.0486448
0.0495552
0.0506634
0.0519239
0.0439391
0.0451762
0.0456434
0.0457913
0.0458791
0.045938
0.0459666
0.0459699
0.0459502
0.0459079
0.0458435
0.0457578
0.0456516
0.0455266
0.0453869
0.0452441
0.0451264
0.0450667
0.045074
0.0451405
0.045258
0.0454264
0.045652
0.045942
0.0463038
0.0467446
0.0472766
0.0479253
0.0487462
0.0498506
0.051461
0.0537268
)
;

boundaryField
{
    movingWall
    {
        type            fixedFluxPressure;
        gradient        uniform 0;
        value           nonuniform List<scalar> 
32
(
0.0439391
0.0451762
0.0456434
0.0457913
0.0458791
0.045938
0.0459666
0.0459699
0.0459502
0.0459079
0.0458435
0.0457578
0.0456516
0.0455266
0.0453869
0.0452441
0.0451264
0.0450667
0.045074
0.0451405
0.045258
0.0454264
0.045652
0.045942
0.0463038
0.0467446
0.0472766
0.0479253
0.0487462
0.0498506
0.051461
0.0537268
)
;
    }
    fixedWalls
    {
        type            fixedFluxPressure;
        gradient        uniform 0;
        value           nonuniform List<scalar> 
64
(
0.0431951
0.0432024
0.0432167
0.0432353
0.0432521
0.0432569
0.0432375
0.0431852
0.0431004
0.0429947
0.0428937
0.0428266
0.0428252
0.0429454
0.0433973
0.044591
0.0452614
0.0454344
0.0455193
0.0455491
0.0455679
0.045592
0.0456211
0.0456522
0.0456792
0.045698
0.0457008
0.0456779
0.0456055
0.0454317
0.0449519
0.0439391
0.0433797
0.0433858
0.0433974
0.0434131
0.0434295
0.0434405
0.0434381
0.0434136
0.0433607
0.0432787
0.0431727
0.0430535
0.0429438
0.0428776
0.0429021
0.0430888
0.0437715
0.045544
0.046297
0.0462852
0.0461736
0.0461311
0.0461884
0.0463538
0.0466334
0.0470372
0.0475761
0.0482581
0.0491126
0.0502749
0.0519239
0.0537268
)
;
    }
    floor
    {
        type            fixedFluxPressure;
        gradient        uniform 0;
        value           nonuniform List<scalar> 
32
(
0.0431951
0.043192
0.0431881
0.0431851
0.0431838
0.0431843
0.043187
0.0431939
0.0432092
0.0432392
0.0432923
0.0433782
0.0434999
0.0436399
0.0437452
0.0437611
0.0437183
0.0436456
0.0435793
0.0435251
0.0434825
0.0434499
0.0434255
0.0434076
0.0433948
0.0433856
0.0433791
0.0433751
0.0433736
0.0433747
0.0433773
0.0433797
)
;
    }
    frontAndBack
    {
        type            empty;
    }
}


// ************************************************************************* //
