/*--------------------------------*- C++ -*----------------------------------*\
| =========                 |                                                 |
| \\      /  F ield         | OpenFOAM: The Open Source CFD Toolbox           |
|  \\    /   O peration     | Version:  2212                                  |
|   \\  /    A nd           | Website:  www.openfoam.com                      |
|    \\/     M anipulation  |                                                 |
\*---------------------------------------------------------------------------*/
FoamFile
{
    version     2.0;
    format      ascii;
    arch        "LSB;label=64;scalar=64";
    class       volScalarField;
    location    "770";
    object      Sco2;
}
// * * * * * * * * * * * * * * * * * * * * * * * * * * * * * * * * * * * * * //

dimensions      [1 -3 0 0 0 0 0];

internalField   nonuniform List<scalar> 
1024
(
0.00551071
0.00551175
0.00551432
0.00551898
0.00552626
0.00553649
0.00554968
0.00556535
0.00558265
0.00560062
0.00561858
0.00563601
0.00565226
0.0056658
0.00567336
0.00566934
0.00565187
0.00562743
0.00560129
0.00557524
0.00554995
0.0055256
0.00550228
0.00548029
0.0054602
0.00544275
0.00542851
0.00541769
0.00541009
0.00540526
0.00540258
0.00540148
0.00551082
0.0055119
0.00551455
0.00551933
0.00552678
0.00553722
0.0055506
0.00556642
0.00558378
0.00560176
0.0056197
0.00563715
0.00565348
0.00566716
0.00567486
0.00567081
0.00565322
0.00562867
0.00560248
0.00557641
0.00555113
0.00552681
0.00550349
0.00548147
0.00546129
0.00544368
0.00542924
0.00541823
0.00541048
0.00540554
0.0054028
0.00540168
0.00551111
0.00551225
0.00551503
0.00552005
0.00552782
0.00553863
0.00555236
0.0055684
0.00558585
0.00560382
0.00562178
0.00563937
0.00565605
0.00567027
0.00567848
0.00567438
0.00565633
0.00563142
0.00560499
0.00557881
0.0055535
0.00552919
0.00550589
0.00548382
0.00546346
0.00544555
0.00543074
0.00541936
0.00541131
0.00540616
0.0054033
0.00540213
0.00551157
0.00551279
0.00551575
0.00552106
0.00552925
0.00554051
0.00555464
0.00557091
0.00558842
0.00560638
0.00562444
0.00564247
0.00566004
0.00567556
0.00568495
0.00568081
0.00566173
0.00563591
0.00560887
0.00558234
0.00555687
0.00553255
0.00550927
0.00548714
0.00546656
0.00544825
0.00543294
0.00542105
0.00541258
0.00540714
0.00540413
0.0054029
0.00551214
0.00551343
0.00551657
0.00552219
0.00553077
0.00554245
0.00555689
0.00557329
0.00559079
0.00560877
0.00562715
0.0056461
0.00566543
0.00568342
0.005695
0.00569087
0.00566997
0.00564238
0.00561408
0.00558677
0.00556091
0.00553645
0.00551315
0.00549097
0.00547018
0.00545147
0.00543562
0.00542317
0.00541422
0.00540846
0.00540526
0.00540397
0.00551263
0.00551398
0.00551725
0.00552308
0.00553191
0.00554381
0.00555834
0.00557469
0.00559208
0.00561012
0.00562914
0.00564972
0.00567199
0.005694
0.00570912
0.00570525
0.00568155
0.00565098
0.00562047
0.00559171
0.00556504
0.00554023
0.00551685
0.00549465
0.00547372
0.0054547
0.00543838
0.00542543
0.00541605
0.00540998
0.00540661
0.00540525
0.00551275
0.00551412
0.00551744
0.00552329
0.0055321
0.00554388
0.00555816
0.00557415
0.00559127
0.00560944
0.00562947
0.0056525
0.00567914
0.0057071
0.00572741
0.00572426
0.00569675
0.00566171
0.00562772
0.0055966
0.00556853
0.00554304
0.00551946
0.00549727
0.00547637
0.00545724
0.00544068
0.00542742
0.00541775
0.00541147
0.00540799
0.00540658
0.0055121
0.00551347
0.0055167
0.00552234
0.00553076
0.00554196
0.00555551
0.00557077
0.00558736
0.00560564
0.005627
0.00565335
0.00568597
0.00572214
0.00574954
0.00574776
0.00571546
0.00567423
0.00563526
0.00560067
0.00557046
0.00554389
0.00551997
0.00549789
0.00547724
0.00545833
0.00544189
0.00542865
0.00541895
0.00541263
0.00540912
0.00540769
0.00551019
0.00551151
0.00551455
0.00551973
0.00552737
0.00553749
0.00554978
0.00556379
0.00557948
0.00559773
0.00562064
0.00565121
0.00569167
0.00573861
0.00577512
0.00577522
0.00573701
0.0056877
0.00564213
0.00560289
0.00556978
0.00554174
0.00551741
0.00549557
0.0054755
0.00545726
0.00544141
0.00542863
0.00541924
0.0054131
0.00540966
0.00540824
0.00550638
0.00550764
0.00551041
0.00551496
0.00552151
0.00553011
0.0055406
0.00555284
0.00556719
0.0055852
0.00560995
0.00564585
0.00569647
0.00575708
0.00580445
0.00580616
0.00576027
0.00570078
0.00564694
0.00560193
0.0055653
0.00553554
0.00551085
0.00548955
0.00547052
0.00545349
0.00543879
0.00542694
0.00541821
0.00541246
0.00540919
0.00540782
0.00550006
0.00550122
0.00550366
0.00550748
0.0055128
0.00551962
0.00552798
0.00553809
0.0055509
0.00556879
0.0055962
0.00563941
0.00570336
0.00578054
0.00583935
0.00584063
0.00578408
0.0057119
0.00564812
0.00559637
0.00555576
0.00552426
0.0054995
0.00547924
0.00546184
0.00544663
0.00543364
0.00542319
0.00541545
0.00541026
0.00540724
0.00540593
0.00549155
0.00549241
0.00549425
0.00549716
0.00550115
0.00550627
0.00551266
0.00552098
0.0055329
0.00555202
0.00558455
0.00563886
0.00572015
0.00581556
0.00588371
0.00587975
0.00580815
0.00572049
0.00564508
0.00558555
0.00554048
0.00550727
0.00548284
0.00546422
0.00544914
0.0054364
0.00542565
0.00541697
0.00541043
0.00540592
0.00540318
0.00540194
0.00548757
0.00548754
0.00548775
0.00548861
0.00549049
0.00549377
0.00549898
0.00550729
0.00552123
0.00554569
0.00558864
0.00565946
0.00576107
0.00587267
0.00594318
0.00592609
0.00583509
0.00573018
0.00564158
0.00557246
0.00552133
0.00548548
0.00546118
0.00544451
0.00543226
0.00542245
0.0054143
0.00540761
0.00540238
0.00539856
0.00539611
0.00539494
0.00551961
0.00551802
0.00551521
0.00551202
0.0055097
0.00550978
0.005514
0.00552467
0.00554522
0.00558117
0.00564058
0.0057308
0.00584942
0.00596616
0.00602473
0.00598606
0.00587695
0.00575812
0.0056557
0.0055725
0.00550926
0.00546538
0.00543773
0.00542143
0.00541163
0.00540485
0.00539932
0.00539448
0.00539039
0.00538728
0.00538527
0.00538433
0.00565675
0.00565463
0.00565046
0.00564496
0.00563973
0.00563721
0.00564057
0.00565357
0.00568054
0.00572645
0.00579684
0.00589519
0.00601204
0.00610961
0.00613852
0.0060822
0.00597668
0.00586137
0.00574833
0.00564262
0.00555181
0.00548261
0.00543488
0.0054052
0.00538826
0.00537919
0.00537472
0.00537318
0.00537375
0.00537566
0.00537786
0.0053793
0.00593056
0.00593019
0.00592924
0.00592779
0.00592656
0.00592724
0.00593263
0.00594677
0.00597441
0.00602001
0.00608609
0.00617052
0.00625763
0.00631545
0.00632506
0.00630232
0.00626336
0.00619974
0.00610764
0.00599599
0.0058773
0.00576399
0.00566478
0.00558613
0.00552952
0.00549552
0.00548211
0.00548505
0.00549826
0.00551488
0.00552888
0.00553654
0.0062034
0.00620451
0.00620674
0.00621016
0.00621525
0.00622333
0.00623695
0.00626019
0.0062979
0.00635337
0.0064255
0.00650744
0.00658983
0.00666908
0.00675413
0.00685655
0.00696122
0.00703304
0.00705806
0.00704331
0.00699589
0.00692481
0.0068394
0.00674787
0.00665674
0.00657404
0.00650613
0.00645726
0.00642822
0.00641567
0.00641343
0.00641485
0.00636002
0.00636125
0.00636428
0.00637001
0.00637983
0.0063959
0.00642112
0.00645905
0.00651331
0.00658663
0.00667979
0.0067918
0.00692205
0.00707321
0.00725229
0.00746346
0.00768538
0.0078764
0.00802245
0.0081332
0.00821074
0.00825642
0.00827068
0.00825443
0.00821008
0.00814246
0.00805902
0.00797046
0.00788936
0.00782684
0.00778858
0.00777274
0.00644464
0.00644588
0.00644941
0.00645678
0.00647006
0.00649198
0.00652573
0.00657467
0.00664186
0.0067296
0.00683922
0.00697124
0.00712643
0.0073064
0.00751239
0.00774112
0.00796593
0.00815113
0.00829657
0.00842037
0.0085299
0.00862659
0.00870802
0.00876985
0.00880765
0.0088186
0.00880307
0.00876594
0.0087169
0.00866878
0.00863318
0.00861582
0.00649653
0.00649778
0.00650151
0.00650948
0.00652409
0.00654827
0.00658528
0.00663837
0.00671021
0.00680261
0.00691646
0.00705189
0.00720874
0.00738637
0.00758196
0.00778736
0.00797398
0.00811511
0.0082234
0.00832162
0.0084207
0.00852339
0.00862695
0.00872503
0.00881021
0.00887628
0.00891971
0.00894048
0.00894231
0.00893234
0.00891948
0.00891128
0.00653272
0.00653379
0.00653713
0.00654457
0.00655852
0.00658198
0.00661817
0.00667015
0.00674026
0.00682976
0.00693894
0.00706721
0.00721355
0.00737617
0.00755097
0.00772907
0.00788461
0.00799874
0.00808814
0.00817541
0.00827271
0.00838421
0.00850757
0.00863436
0.00875316
0.00885359
0.00892905
0.00897808
0.00900375
0.00901232
0.00901154
0.00900877
0.00656474
0.00656521
0.00656735
0.00657298
0.00658461
0.00660521
0.00663795
0.00668569
0.00675042
0.00683302
0.00693333
0.00705035
0.00718275
0.00732862
0.0074844
0.00764313
0.00778381
0.00789193
0.00798106
0.0080697
0.00816917
0.00828501
0.00841744
0.00856017
0.00870171
0.00882901
0.0089311
0.00900272
0.00904506
0.00906424
0.009069
0.00906815
0.00660469
0.00660392
0.00660362
0.00660583
0.00661335
0.00662939
0.00665718
0.00669942
0.00675783
0.006833
0.00692453
0.00703135
0.00715214
0.00728535
0.0074286
0.00757771
0.00771633
0.0078307
0.00792859
0.00802397
0.00812655
0.0082427
0.00837479
0.00851986
0.00866952
0.00881137
0.00893211
0.00902246
0.00908001
0.0091091
0.00911866
0.00911909
0.00666614
0.00666324
0.00665895
0.00665594
0.00665774
0.00666821
0.0066909
0.00672851
0.00678249
0.00685307
0.00693961
0.00704088
0.00715554
0.00728234
0.00741989
0.0075664
0.00770886
0.00783213
0.00793882
0.00803971
0.00814327
0.00825605
0.00838173
0.00851992
0.00866572
0.00880954
0.00893878
0.00904158
0.00911147
0.00914971
0.00916408
0.00916583
0.00676244
0.00675646
0.00674686
0.00673757
0.00673343
0.00673927
0.00675913
0.00679567
0.00684976
0.00692092
0.00700788
0.00710897
0.00722259
0.00734751
0.00748291
0.00762866
0.00777373
0.00790159
0.00801161
0.00811275
0.0082126
0.00831749
0.00843182
0.00855708
0.00869099
0.008827
0.00895487
0.00906261
0.00914073
0.00918663
0.00920568
0.00920889
0.0069045
0.00689473
0.00687961
0.00686527
0.00685812
0.00686369
0.00688601
0.00692717
0.0069868
0.00706319
0.00715421
0.00725765
0.00737162
0.0074948
0.00762666
0.00776807
0.00790938
0.00803392
0.00813979
0.00823484
0.00832589
0.00841875
0.00851788
0.00862578
0.00874224
0.00886362
0.00898231
0.00908766
0.00916897
0.00922025
0.00924351
0.00924833
0.00709971
0.00708607
0.00706758
0.00705322
0.0070501
0.00706291
0.00709439
0.00714513
0.00721303
0.00729536
0.00738944
0.00749284
0.00760366
0.00772071
0.00784366
0.00797387
0.00810308
0.0082161
0.00831095
0.00839454
0.00847282
0.00855077
0.00863243
0.00872059
0.00881631
0.00891828
0.00902181
0.00911838
0.00919753
0.00925109
0.00927762
0.00928409
0.00735274
0.00733651
0.00732037
0.00731497
0.00732513
0.0073523
0.00739676
0.00745724
0.00753063
0.00761415
0.00770534
0.00780216
0.00790306
0.00800718
0.00811443
0.00822628
0.00833608
0.00843124
0.00851027
0.00857893
0.00864212
0.00870383
0.00876741
0.0088354
0.00890936
0.00898951
0.00907367
0.00915613
0.0092279
0.00927999
0.00930817
0.00931616
0.00766829
0.00765326
0.00764891
0.00766201
0.0076911
0.00773348
0.00778749
0.00785115
0.00792199
0.00799815
0.00807804
0.00816035
0.0082441
0.00832885
0.00841468
0.00850292
0.00858861
0.00866231
0.00872304
0.00877525
0.00882262
0.00886817
0.00891441
0.00896336
0.0090165
0.0090747
0.00913751
0.00920195
0.00926157
0.00930807
0.00933556
0.00934454
0.0080547
0.00804843
0.00806503
0.00809826
0.00814084
0.00818911
0.00824177
0.0082977
0.00835594
0.00841584
0.00847674
0.00853805
0.00859934
0.00866046
0.00872156
0.00878366
0.00884345
0.00889459
0.00893651
0.00897226
0.00900435
0.00903482
0.00906537
0.00909738
0.00913194
0.00916995
0.00921174
0.00925627
0.00929995
0.00933668
0.00936047
0.00936937
0.00852762
0.00853849
0.0085711
0.00860842
0.0086467
0.00868485
0.00872274
0.00876036
0.0087978
0.00883515
0.00887231
0.00890916
0.00894557
0.00898153
0.00901719
0.00905313
0.00908755
0.00911689
0.00914086
0.00916119
0.00917929
0.00919633
0.00921324
0.0092308
0.00924963
0.00927031
0.00929324
0.00931828
0.00934402
0.00936727
0.00938385
0.00939097
0.00910639
0.00911517
0.0091321
0.00914839
0.00916371
0.00917816
0.00919187
0.00920502
0.00921778
0.0092303
0.0092426
0.00925471
0.00926659
0.00927827
0.0092898
0.00930138
0.00931243
0.00932183
0.0093295
0.00933599
0.00934174
0.00934712
0.00935244
0.00935792
0.00936377
0.00937016
0.00937725
0.00938505
0.00939326
0.00940103
0.00940704
0.00940997
)
;

boundaryField
{
    movingWall
    {
        type            fixedValue;
        value           uniform 0.00942;
    }
    fixedWalls
    {
        type            zeroGradient;
    }
    floor
    {
        type            zeroGradient;
    }
    frontAndBack
    {
        type            empty;
    }
}


// ************************************************************************* //
