/*--------------------------------*- C++ -*----------------------------------*\
| =========                 |                                                 |
| \\      /  F ield         | OpenFOAM: The Open Source CFD Toolbox           |
|  \\    /   O peration     | Version:  2212                                  |
|   \\  /    A nd           | Website:  www.openfoam.com                      |
|    \\/     M anipulation  |                                                 |
\*---------------------------------------------------------------------------*/
FoamFile
{
    version     2.0;
    format      ascii;
    arch        "LSB;label=64;scalar=64";
    class       volScalarField;
    location    "770";
    object      T;
}
// * * * * * * * * * * * * * * * * * * * * * * * * * * * * * * * * * * * * * //

dimensions      [0 0 0 1 0 0 0];

internalField   nonuniform List<scalar> 
1024
(
309.993
309.993
309.992
309.991
309.99
309.989
309.987
309.986
309.984
309.982
309.981
309.979
309.976
309.974
309.973
309.975
309.978
309.98
309.982
309.983
309.984
309.985
309.986
309.987
309.988
309.989
309.991
309.992
309.993
309.993
309.993
309.994
309.977
309.976
309.975
309.973
309.969
309.965
309.96
309.955
309.95
309.945
309.939
309.933
309.925
309.919
309.915
309.921
309.93
309.937
309.942
309.947
309.95
309.954
309.957
309.96
309.963
309.967
309.971
309.974
309.977
309.978
309.979
309.98
309.96
309.959
309.956
309.952
309.945
309.938
309.929
309.921
309.912
309.903
309.893
309.882
309.87
309.86
309.853
309.862
309.877
309.888
309.897
309.905
309.912
309.918
309.923
309.929
309.935
309.941
309.948
309.954
309.959
309.962
309.964
309.965
309.941
309.94
309.936
309.93
309.92
309.908
309.896
309.884
309.871
309.858
309.845
309.83
309.815
309.802
309.794
309.804
309.822
309.837
309.849
309.86
309.869
309.878
309.886
309.894
309.903
309.913
309.922
309.932
309.939
309.945
309.947
309.948
309.923
309.921
309.916
309.907
309.893
309.878
309.862
309.846
309.83
309.814
309.798
309.781
309.766
309.754
309.746
309.754
309.771
309.786
309.799
309.812
309.824
309.835
309.846
309.857
309.869
309.881
309.895
309.907
309.918
309.926
309.93
309.931
309.905
309.903
309.897
309.884
309.868
309.849
309.83
309.811
309.793
309.776
309.759
309.744
309.731
309.721
309.713
309.716
309.729
309.741
309.754
309.766
309.779
309.792
309.804
309.818
309.833
309.849
309.866
309.882
309.897
309.907
309.912
309.913
309.888
309.886
309.878
309.865
309.845
309.824
309.802
309.782
309.763
309.747
309.732
309.721
309.712
309.703
309.694
309.693
309.699
309.708
309.717
309.727
309.739
309.751
309.765
309.78
309.798
309.817
309.837
309.857
309.875
309.887
309.894
309.895
309.873
309.871
309.863
309.848
309.827
309.804
309.781
309.761
309.743
309.729
309.719
309.712
309.705
309.696
309.687
309.682
309.682
309.686
309.691
309.698
309.706
309.717
309.731
309.747
309.765
309.787
309.811
309.834
309.855
309.869
309.876
309.878
309.859
309.857
309.85
309.836
309.815
309.791
309.768
309.748
309.733
309.722
309.716
309.712
309.706
309.696
309.685
309.678
309.674
309.674
309.675
309.679
309.684
309.692
309.704
309.719
309.739
309.762
309.787
309.814
309.836
309.852
309.859
309.861
309.848
309.846
309.84
309.828
309.808
309.785
309.762
309.744
309.731
309.723
309.72
309.717
309.71
309.697
309.685
309.676
309.671
309.669
309.667
309.668
309.67
309.676
309.685
309.699
309.718
309.742
309.769
309.797
309.82
309.836
309.844
309.846
309.837
309.837
309.832
309.823
309.807
309.786
309.765
309.747
309.736
309.73
309.729
309.725
309.714
309.699
309.685
309.676
309.67
309.667
309.664
309.662
309.662
309.666
309.673
309.685
309.704
309.728
309.756
309.784
309.807
309.822
309.829
309.831
309.828
309.827
309.825
309.818
309.807
309.791
309.773
309.758
309.747
309.741
309.739
309.732
309.717
309.699
309.685
309.675
309.67
309.666
309.663
309.66
309.659
309.66
309.666
309.678
309.696
309.72
309.748
309.775
309.797
309.811
309.817
309.818
309.818
309.818
309.817
309.813
309.806
309.795
309.783
309.771
309.762
309.756
309.749
309.736
309.716
309.697
309.682
309.674
309.67
309.667
309.663
309.66
309.658
309.659
309.665
309.677
309.695
309.72
309.747
309.772
309.79
309.801
309.805
309.806
309.801
309.802
309.803
309.802
309.8
309.794
309.787
309.779
309.772
309.764
309.751
309.731
309.708
309.689
309.678
309.673
309.671
309.67
309.668
309.665
309.663
309.667
309.675
309.689
309.707
309.729
309.752
309.771
309.785
309.792
309.795
309.795
309.761
309.763
309.766
309.769
309.771
309.771
309.768
309.763
309.756
309.743
309.725
309.705
309.688
309.677
309.673
309.673
309.675
309.676
309.679
309.681
309.685
309.691
309.699
309.711
309.726
309.742
309.758
309.771
309.779
309.783
309.785
309.785
309.667
309.668
309.671
309.675
309.68
309.684
309.686
309.684
309.678
309.671
309.666
309.662
309.661
309.665
309.67
309.675
309.678
309.682
309.688
309.695
309.704
309.712
309.721
309.729
309.739
309.749
309.758
309.765
309.769
309.771
309.771
309.771
309.624
309.625
309.626
309.627
309.63
309.634
309.638
309.642
309.646
309.648
309.648
309.648
309.648
309.647
309.646
309.644
309.642
309.639
309.638
309.64
309.645
309.652
309.662
309.674
309.686
309.7
309.712
309.723
309.73
309.732
309.731
309.731
309.615
309.616
309.617
309.619
309.622
309.625
309.628
309.63
309.631
309.629
309.627
309.622
309.617
309.61
309.602
309.592
309.583
309.577
309.574
309.572
309.572
309.573
309.575
309.577
309.579
309.582
309.587
309.593
309.601
309.611
309.617
309.62
309.61
309.611
309.612
309.614
309.616
309.619
309.62
309.621
309.62
309.617
309.612
309.606
309.598
309.59
309.58
309.57
309.561
309.556
309.555
309.555
309.556
309.558
309.559
309.561
309.562
309.564
309.565
309.566
309.567
309.568
309.569
309.57
309.607
309.607
309.609
309.61
309.612
309.614
309.615
309.615
309.613
309.609
309.604
309.597
309.589
309.58
309.57
309.561
309.553
309.549
309.548
309.549
309.551
309.553
309.556
309.558
309.56
309.562
309.563
309.564
309.564
309.564
309.564
309.564
309.604
309.604
309.605
309.607
309.609
309.61
309.611
309.61
309.608
309.604
309.599
309.592
309.584
309.575
309.566
309.558
309.55
309.546
309.545
309.546
309.548
309.551
309.554
309.557
309.56
309.562
309.564
309.565
309.565
309.565
309.565
309.564
309.601
309.602
309.603
309.604
309.606
309.607
309.608
309.607
309.605
309.601
309.596
309.59
309.582
309.574
309.566
309.557
309.551
309.547
309.545
309.545
309.547
309.549
309.552
309.556
309.559
309.562
309.564
309.566
309.566
309.566
309.566
309.566
309.599
309.599
309.6
309.602
309.603
309.605
309.605
309.605
309.603
309.599
309.594
309.589
309.582
309.574
309.567
309.559
309.554
309.55
309.548
309.548
309.549
309.55
309.553
309.556
309.559
309.562
309.564
309.566
309.567
309.567
309.567
309.567
309.597
309.597
309.598
309.6
309.601
309.602
309.603
309.602
309.601
309.598
309.593
309.588
309.582
309.576
309.569
309.562
309.557
309.554
309.553
309.552
309.552
309.553
309.555
309.557
309.559
309.562
309.565
309.567
309.568
309.568
309.568
309.568
309.595
309.596
309.597
309.598
309.599
309.6
309.601
309.6
309.599
309.596
309.592
309.588
309.583
309.577
309.571
309.566
309.562
309.559
309.557
309.556
309.556
309.556
309.558
309.559
309.561
309.563
309.565
309.567
309.568
309.569
309.569
309.569
309.594
309.594
309.595
309.597
309.598
309.599
309.599
309.599
309.597
309.595
309.592
309.588
309.583
309.579
309.574
309.569
309.566
309.563
309.562
309.561
309.56
309.56
309.561
309.562
309.563
309.565
309.566
309.568
309.569
309.569
309.57
309.569
309.593
309.594
309.594
309.595
309.596
309.597
309.597
309.597
309.596
309.594
309.591
309.588
309.584
309.58
309.576
309.573
309.57
309.568
309.566
309.565
309.565
309.564
309.564
309.565
309.566
309.566
309.567
309.568
309.569
309.57
309.57
309.57
309.592
309.593
309.594
309.594
309.595
309.596
309.596
309.595
309.594
309.593
309.59
309.588
309.585
309.582
309.579
309.576
309.573
309.572
309.57
309.569
309.568
309.568
309.568
309.568
309.568
309.568
309.569
309.569
309.57
309.57
309.571
309.571
309.592
309.592
309.593
309.594
309.594
309.594
309.594
309.594
309.593
309.592
309.59
309.588
309.586
309.584
309.581
309.579
309.577
309.575
309.574
309.573
309.572
309.571
309.571
309.57
309.57
309.57
309.57
309.57
309.571
309.571
309.571
309.571
309.592
309.592
309.592
309.593
309.593
309.593
309.593
309.593
309.592
309.591
309.59
309.589
309.587
309.585
309.584
309.581
309.579
309.578
309.576
309.575
309.574
309.574
309.573
309.572
309.572
309.572
309.572
309.571
309.571
309.571
309.571
309.571
309.591
309.591
309.592
309.592
309.592
309.592
309.592
309.592
309.591
309.591
309.59
309.589
309.588
309.587
309.585
309.583
309.581
309.58
309.578
309.577
309.576
309.575
309.575
309.574
309.573
309.573
309.573
309.572
309.572
309.572
309.572
309.571
309.591
309.591
309.591
309.591
309.591
309.591
309.591
309.591
309.591
309.591
309.59
309.59
309.589
309.587
309.586
309.584
309.582
309.58
309.579
309.578
309.577
309.576
309.575
309.575
309.574
309.574
309.573
309.573
309.572
309.572
309.572
309.572
)
;

boundaryField
{
    movingWall
    {
        type            zeroGradient;
    }
    fixedWalls
    {
        type            zeroGradient;
    }
    floor
    {
        type            fixedValue;
        value           uniform 310;
    }
    frontAndBack
    {
        type            empty;
    }
}


// ************************************************************************* //
