/*--------------------------------*- C++ -*----------------------------------*\
| =========                 |                                                 |
| \\      /  F ield         | OpenFOAM: The Open Source CFD Toolbox           |
|  \\    /   O peration     | Version:  2212                                  |
|   \\  /    A nd           | Website:  www.openfoam.com                      |
|    \\/     M anipulation  |                                                 |
\*---------------------------------------------------------------------------*/
FoamFile
{
    version     2.0;
    format      ascii;
    arch        "LSB;label=64;scalar=64";
    class       volScalarField;
    location    "0.16";
    object      alpha.air;
}
// * * * * * * * * * * * * * * * * * * * * * * * * * * * * * * * * * * * * * //

dimensions      [0 0 0 0 0 0 0];

internalField   nonuniform List<scalar> 
32768
(
2.78655e-128
9.14246e-125
1.69374e-121
2.72889e-118
2.07939e-115
5.78302e-113
9.80915e-111
1.24376e-108
1.27035e-106
1.07841e-104
7.73371e-103
4.73169e-101
2.48594e-99
1.12591e-97
4.40378e-96
1.48729e-94
4.32917e-93
1.08158e-91
2.30515e-90
4.15486e-89
6.25864e-88
7.75448e-87
7.73616e-86
6.03944e-85
3.54936e-84
1.48824e-83
4.11972e-83
6.66682e-83
5.02596e-83
1.22151e-83
9.47269e-85
5.01234e-86
2.00661e-87
6.70297e-89
1.9636e-90
5.20241e-92
1.27604e-93
2.94937e-95
6.5033e-97
1.37846e-98
2.82006e-100
5.5757e-102
1.0645e-103
1.95739e-105
3.45298e-107
5.8163e-109
9.30691e-111
1.40724e-112
1.99972e-114
2.65533e-116
3.27405e-118
3.72173e-120
3.86736e-122
3.63598e-124
3.05356e-126
2.25343e-128
1.42968e-130
7.5617e-133
3.18061e-135
9.8356e-138
1.92802e-140
2.09849e-143
1.31569e-146
7.12578e-148
3.81865e-145
1.501e-142
4.58673e-140
1.13634e-137
2.3542e-135
4.17638e-133
6.46357e-131
8.85905e-129
1.08872e-126
1.21219e-124
1.23362e-122
1.15625e-120
1.00473e-118
8.14062e-117
6.18058e-115
4.41569e-113
2.9793e-111
1.90406e-109
1.15567e-107
6.678e-106
3.68379e-104
1.94647e-102
9.89655e-101
4.87174e-99
2.34082e-97
1.10902e-95
5.2435e-94
2.50616e-92
1.22203e-90
6.04884e-89
2.94985e-87
1.33267e-85
4.79725e-84
7.61868e-83
3.56404e-82
5.88544e-82
4.6479e-82
2.10217e-82
6.11857e-83
1.2415e-83
1.85983e-84
2.14625e-85
1.97016e-86
1.47423e-87
9.16209e-89
4.79761e-90
2.13946e-91
8.19003e-93
2.70642e-94
7.74762e-96
1.9245e-97
4.14728e-99
7.73605e-101
1.24366e-102
1.7111e-104
1.99398e-106
1.93627e-108
1.51754e-110
8.86558e-113
3.14168e-115
4.0071e-118
2.24576e-121
1.11156e-124
3.13323e-128
1.63269e-127
1.94984e-123
4.22388e-119
8.64695e-115
7.64118e-112
2.10794e-109
3.52184e-107
4.4257e-105
4.50508e-103
3.82752e-101
2.75776e-99
1.70175e-97
9.05357e-96
4.1698e-94
1.66602e-92
5.77606e-91
1.73531e-89
4.50205e-88
1.00334e-86
1.90639e-85
3.05645e-84
4.07812e-83
4.44606e-82
3.86553e-81
2.59505e-80
1.28828e-79
4.45928e-79
9.91541e-79
1.25874e-78
7.67364e-79
1.78079e-79
1.37679e-80
6.31916e-82
2.90749e-83
1.30596e-84
5.63274e-86
2.31993e-87
9.10762e-89
3.4045e-90
1.21074e-91
4.0939e-93
1.3157e-94
4.01789e-96
1.16543e-97
3.20834e-99
8.37092e-101
2.0656e-102
4.80637e-104
1.05061e-105
2.14731e-107
4.08103e-109
7.16552e-111
1.15355e-112
1.68759e-114
2.21975e-116
2.59113e-118
2.64063e-120
2.2998e-122
1.66265e-124
9.5659e-127
4.09637e-129
1.15431e-131
1.57503e-134
1.87548e-137
1.39888e-134
5.59071e-132
1.48646e-129
2.94708e-127
4.64199e-125
6.04978e-123
6.71178e-121
6.47359e-119
5.51732e-117
4.20933e-115
2.90525e-113
1.82995e-111
1.05968e-109
5.6771e-108
2.82919e-106
1.31792e-104
5.76413e-103
2.37692e-101
9.27933e-100
3.4439e-98
1.22038e-96
4.14779e-95
1.35855e-93
4.30922e-92
1.33013e-90
4.01357e-89
1.18801e-87
3.45391e-86
9.83749e-85
2.72242e-83
7.21128e-82
1.80176e-80
2.96819e-79
2.08635e-78
5.54343e-78
6.49575e-78
4.03326e-78
1.52092e-78
3.83443e-79
6.92335e-80
9.41741e-81
1.00248e-81
8.59708e-83
6.07315e-84
3.59472e-85
1.80626e-86
7.77985e-88
2.89295e-89
9.33342e-91
2.62048e-92
6.4105e-94
1.36565e-95
2.52717e-97
4.04391e-99
5.55598e-101
6.48628e-103
6.33224e-105
5.01305e-107
2.98782e-109
1.08034e-111
1.2297e-114
6.21205e-119
1.4429e-123
9.65341e-128
1.7303e-127
4.90531e-124
4.83564e-116
8.18759e-112
6.83992e-109
1.85047e-106
3.06462e-104
3.83224e-102
3.89087e-100
3.30453e-98
2.38566e-96
1.47869e-94
7.92272e-93
3.68524e-91
1.49158e-89
5.2558e-88
1.61061e-86
4.27915e-85
9.80988e-84
1.92705e-82
3.21292e-81
4.48865e-80
5.16595e-79
4.78855e-78
3.46946e-77
1.88759e-76
7.30351e-76
1.86385e-75
2.81747e-75
2.15746e-75
6.77098e-76
7.61007e-77
3.85902e-78
1.86342e-79
9.04377e-81
4.28484e-82
1.94295e-83
8.3682e-85
3.4183e-86
1.32519e-87
4.88047e-89
1.70864e-90
5.68749e-92
1.79938e-93
5.4057e-95
1.53967e-96
4.14821e-98
1.05402e-99
2.51616e-101
5.61747e-103
1.16653e-104
2.23893e-106
3.94237e-108
6.31324e-110
9.09906e-112
1.16539e-113
1.30545e-115
1.25294e-117
1.00208e-119
6.41821e-122
3.09464e-124
1.00635e-126
1.71386e-129
1.35807e-132
8.29839e-130
3.27806e-127
8.37352e-125
1.57329e-122
2.32957e-120
2.83859e-118
2.93252e-116
2.62539e-114
2.07131e-112
1.45937e-110
9.28208e-109
5.37739e-107
2.85912e-105
1.40428e-103
6.40789e-102
2.7305e-100
1.09164e-98
4.11311e-97
1.46688e-95
4.97322e-94
1.60993e-92
4.99885e-91
1.49571e-89
4.33311e-88
1.22102e-86
3.35987e-85
9.04947e-84
2.38492e-82
6.12646e-81
1.52285e-79
3.62953e-78
8.2748e-77
1.06445e-75
5.83488e-75
1.2429e-74
1.21909e-74
6.56308e-75
2.20337e-75
5.04586e-76
8.40684e-77
1.06862e-77
1.07414e-78
8.77424e-80
5.94769e-81
3.39956e-82
1.6586e-83
6.96964e-85
2.53916e-86
8.05616e-88
2.23185e-89
5.40365e-91
1.14245e-92
2.10344e-94
3.35662e-96
4.60897e-98
5.3884e-100
5.27811e-102
4.20114e-104
2.52624e-106
9.30788e-109
1.11743e-111
6.73525e-116
7.55402e-124
2.23081e-127
1.36038e-124
4.33226e-121
2.70918e-113
4.05927e-109
3.26209e-106
8.6963e-104
1.42915e-101
1.77823e-99
1.79982e-97
1.52684e-95
1.10332e-93
6.86032e-92
3.69615e-90
1.73324e-88
7.09173e-87
2.53371e-85
7.89839e-84
2.14241e-82
5.03452e-81
1.0184e-79
1.75763e-78
2.55742e-77
3.08775e-76
3.02893e-75
2.34727e-74
1.38406e-73
5.90132e-73
1.69566e-72
2.96951e-72
2.73578e-72
1.07721e-72
1.5157e-73
9.21696e-75
4.61313e-76
2.32395e-77
1.14611e-78
5.42858e-80
2.4499e-81
1.05125e-82
4.28964e-84
1.66554e-85
6.15591e-87
2.16585e-88
7.25005e-90
2.30653e-91
6.96188e-93
1.9888e-94
5.36022e-96
1.35771e-97
3.21697e-99
7.09141e-101
1.44516e-102
2.70268e-104
4.59836e-106
7.04444e-108
9.59497e-110
1.14377e-111
1.16917e-113
9.97094e-116
6.82209e-118
3.52484e-120
1.23617e-122
2.31236e-125
1.67907e-128
8.50714e-126
3.26267e-123
8.02033e-121
1.44396e-118
2.04342e-116
2.37542e-114
2.33797e-112
1.99186e-110
1.49396e-108
9.99717e-107
6.03359e-105
3.31378e-103
1.66878e-101
7.7557e-100
3.34548e-98
1.34628e-96
5.0782e-95
1.80368e-93
6.05952e-92
1.93437e-90
5.89559e-89
1.7241e-87
4.86275e-86
1.32967e-84
3.54222e-83
9.22997e-82
2.35716e-80
5.89306e-79
1.43468e-77
3.37032e-76
7.59081e-75
1.56786e-73
1.72864e-72
7.72454e-72
1.35866e-71
1.13842e-71
5.39255e-72
1.62981e-72
3.42036e-73
5.29661e-74
6.33008e-75
6.0396e-76
4.72059e-77
3.08272e-78
1.70744e-79
8.11331e-81
3.33519e-82
1.19327e-83
3.73088e-85
1.02169e-86
2.45196e-88
5.1514e-90
9.44651e-92
1.50458e-93
2.06603e-95
2.41995e-97
2.37889e-99
1.90341e-101
1.15342e-103
4.31107e-106
5.37324e-109
3.64151e-113
6.211e-121
1.67895e-124
6.90513e-122
2.22267e-118
9.93938e-111
1.34638e-106
1.04694e-103
2.75434e-101
4.49228e-99
5.5599e-97
5.60696e-95
4.74802e-93
3.43161e-91
2.13865e-89
1.15752e-87
5.46611e-86
2.25816e-84
8.16925e-83
2.58667e-81
7.15123e-80
1.71942e-78
3.57416e-77
6.37064e-76
9.62896e-75
1.21597e-73
1.25794e-72
1.03846e-71
6.60439e-71
3.08498e-70
9.90749e-70
1.99095e-69
2.17917e-69
1.06085e-69
1.85192e-70
1.30775e-71
6.97747e-73
3.74769e-74
1.96963e-75
9.94121e-77
4.78216e-78
2.18832e-79
9.52772e-81
3.94944e-82
1.55937e-83
5.86466e-85
2.09992e-86
7.15059e-88
2.31143e-89
7.07497e-91
2.04388e-92
5.55056e-94
1.41031e-95
3.33426e-97
7.28834e-99
1.46216e-100
2.66896e-102
4.38721e-104
6.41326e-106
8.20733e-108
9.01102e-110
8.26022e-112
6.08247e-114
3.3899e-116
1.28829e-118
2.64493e-121
1.8539e-124
7.46243e-122
2.7397e-119
6.40391e-117
1.09282e-114
1.46312e-112
1.6072e-110
1.49351e-108
1.20058e-106
8.49213e-105
5.35689e-103
3.04645e-101
1.57597e-99
7.47201e-98
3.26771e-96
1.32554e-94
5.01242e-93
1.77502e-91
5.91249e-90
1.86062e-88
5.55693e-87
1.58263e-85
4.3202e-84
1.13639e-82
2.89607e-81
7.18765e-80
1.74471e-78
4.1522e-77
9.68262e-76
2.202e-74
4.8413e-73
1.02228e-71
1.89542e-70
1.7903e-69
6.52525e-69
9.54593e-69
6.88227e-69
2.88565e-69
7.89036e-70
1.52381e-70
2.20113e-71
2.48111e-72
2.25332e-73
1.68943e-74
1.06526e-75
5.72907e-77
2.65623e-78
1.06992e-79
3.7648e-81
1.16148e-82
3.14766e-84
7.4954e-86
1.56621e-87
2.86275e-89
4.55394e-91
6.25713e-93
7.34623e-95
7.25008e-97
5.83259e-99
3.56112e-101
1.34829e-103
1.73528e-106
1.29712e-110
3.04648e-118
8.28994e-122
2.53576e-119
8.05225e-116
2.69027e-108
3.32436e-104
2.50754e-101
6.51367e-99
1.05421e-96
1.29736e-94
1.30295e-92
1.10073e-90
7.95167e-89
4.9634e-87
2.69649e-85
1.28116e-83
5.33875e-82
1.95357e-80
6.27569e-79
1.76615e-77
4.33886e-76
9.25431e-75
1.70068e-73
2.66518e-72
3.51284e-71
3.82333e-70
3.35299e-69
2.29264e-68
1.16883e-67
4.17669e-67
9.57865e-67
1.23756e-66
7.41054e-67
1.61789e-67
1.3331e-68
7.74808e-70
4.53186e-71
2.58869e-72
1.41766e-73
7.39099e-75
3.66311e-76
1.72684e-77
7.75013e-79
3.31385e-80
1.35031e-81
5.24162e-83
1.93631e-84
6.79481e-86
2.25914e-87
7.09257e-89
2.09397e-90
5.78543e-92
1.48755e-93
3.53659e-95
7.71703e-97
1.53214e-98
2.7393e-100
4.35538e-102
6.0627e-104
7.24144e-106
7.22445e-108
5.79483e-110
3.52471e-112
1.46832e-114
3.34665e-117
2.38833e-120
7.15199e-118
2.48924e-115
5.47264e-113
8.74973e-111
1.09496e-108
1.12246e-106
9.72304e-105
7.27992e-103
4.79334e-101
2.81347e-99
1.48837e-97
7.16097e-96
3.15726e-94
1.28385e-92
4.84145e-91
1.7014e-89
5.59643e-88
1.73016e-86
5.04772e-85
1.39559e-83
3.67301e-82
9.24697e-81
2.23863e-79
5.24078e-78
1.19304e-76
2.65407e-75
5.78887e-74
1.23826e-72
2.58672e-71
5.23095e-70
1.01635e-68
1.67896e-67
1.33773e-66
3.95773e-66
4.83176e-66
3.01034e-66
1.12161e-66
2.78402e-67
4.96236e-68
6.70388e-69
7.14402e-70
6.18905e-71
4.45982e-72
2.72007e-73
1.42275e-74
6.44575e-76
2.54738e-77
8.82615e-79
2.68967e-80
7.22032e-82
1.70742e-83
3.55112e-85
6.47409e-87
1.0292e-88
1.41574e-90
1.66685e-92
1.65216e-94
1.33677e-96
8.22409e-99
3.15259e-101
4.18015e-104
3.41848e-108
1.0652e-115
2.98449e-119
7.25347e-117
2.24589e-113
5.72089e-106
6.47617e-102
4.74355e-99
1.21679e-96
1.95377e-94
2.38988e-92
2.38914e-90
2.01242e-88
1.45218e-86
9.07237e-85
4.94362e-83
2.36127e-81
9.91635e-80
3.66677e-78
1.19381e-76
3.41612e-75
8.56431e-74
1.87178e-72
3.54131e-71
5.74467e-70
7.88849e-69
9.01427e-68
8.3785e-67
6.14291e-66
3.40759e-65
1.35e-64
3.51837e-64
5.34033e-64
3.92068e-64
1.08097e-64
1.05593e-65
6.80895e-67
4.41291e-68
2.78354e-69
1.67803e-70
9.60897e-72
5.22363e-73
2.69916e-74
1.32777e-75
6.22595e-77
2.78468e-78
1.18795e-79
4.829e-81
1.86688e-82
6.84445e-84
2.37093e-85
7.72537e-87
2.35557e-88
6.68191e-90
1.75163e-91
4.21129e-93
9.20433e-95
1.80989e-96
3.16184e-98
4.83168e-100
6.33109e-102
6.92708e-104
6.09599e-106
4.07488e-108
1.874e-110
4.77998e-113
3.66261e-116
7.67062e-114
2.51893e-111
5.17683e-109
7.70068e-107
8.93861e-105
8.47997e-103
6.78568e-101
4.68627e-99
2.84243e-97
1.53523e-95
7.46668e-94
3.30032e-92
1.33601e-90
4.98579e-89
1.72488e-87
5.55908e-86
1.67627e-84
4.74794e-83
1.26809e-81
3.20593e-80
7.70395e-79
1.76767e-77
3.89239e-76
8.2711e-75
1.7059e-73
3.43364e-72
6.77234e-71
1.31037e-69
2.47838e-68
4.54099e-67
7.98942e-66
1.16141e-64
7.65517e-64
1.83037e-63
1.86993e-63
1.01038e-63
3.35625e-64
7.58449e-65
1.25097e-65
1.58425e-66
1.59947e-67
1.32436e-68
9.18862e-70
5.42963e-71
2.76619e-72
1.22623e-73
4.76053e-75
1.6259e-76
4.89897e-78
1.30384e-79
3.06429e-81
6.34794e-83
1.15505e-84
1.83607e-86
2.52987e-88
2.98836e-90
2.97606e-92
2.42254e-94
1.50209e-96
5.82918e-99
7.955e-102
7.08985e-106
2.88078e-113
8.37273e-117
1.68881e-114
5.06085e-111
9.93021e-104
1.03181e-99
7.34166e-97
1.85952e-94
2.96136e-92
3.59911e-90
3.57978e-88
3.00483e-86
2.16459e-84
1.35258e-82
7.38702e-81
3.54417e-79
1.49868e-77
5.59462e-76
1.84414e-74
5.35977e-73
1.36961e-71
3.06328e-70
5.95815e-69
9.98923e-68
1.42659e-66
1.70821e-65
1.67904e-64
1.31668e-63
7.9243e-63
3.46902e-62
1.02345e-61
1.81705e-61
1.6302e-61
5.72058e-62
6.77385e-63
4.92533e-64
3.58898e-65
2.53286e-66
1.70216e-67
1.08463e-68
6.55889e-70
3.77222e-71
2.06768e-72
1.0817e-73
5.40394e-75
2.57707e-76
1.1715e-77
5.06421e-79
2.07488e-80
8.02417e-82
2.91504e-83
9.89403e-85
3.11861e-86
9.06739e-88
2.41343e-89
5.82955e-91
1.26488e-92
2.43536e-94
4.09829e-96
5.91254e-98
7.1265e-100
6.91997e-102
5.12074e-104
2.62404e-106
7.57718e-109
6.54303e-112
9.03928e-110
2.77861e-107
5.29785e-105
7.28211e-103
7.79234e-101
6.80326e-99
5.0027e-97
3.17047e-95
1.76225e-93
8.70995e-92
3.87089e-90
1.5612e-88
5.75874e-87
1.95562e-85
6.14892e-84
1.79893e-82
4.91844e-81
1.2617e-79
3.04801e-78
6.96017e-77
1.50821e-75
3.11472e-74
6.16048e-73
1.17339e-71
2.16516e-70
3.89337e-69
6.85535e-68
1.18429e-66
2.00131e-65
3.27774e-64
5.14858e-63
6.49321e-62
3.46925e-61
6.68593e-61
5.73267e-61
2.69572e-61
8.00869e-62
1.65232e-62
2.5282e-63
3.00829e-64
2.88348e-65
2.28629e-66
1.52998e-67
8.77322e-69
4.3598e-70
1.89355e-71
7.22998e-73
2.43669e-74
7.26626e-76
1.91897e-77
4.4857e-79
9.26222e-81
1.68313e-82
2.67683e-84
3.69641e-86
4.38272e-88
4.38717e-90
3.59411e-92
2.24657e-94
8.82688e-97
1.23937e-99
1.20167e-103
6.31209e-111
1.90491e-114
3.2667e-112
9.49768e-109
1.44302e-101
1.37723e-97
9.51904e-95
2.38013e-92
3.7583e-90
4.53653e-88
4.48721e-86
3.75139e-84
2.6961e-82
1.68389e-80
9.21038e-79
4.4352e-77
1.88674e-75
7.10369e-74
2.36825e-72
6.98304e-71
1.81661e-69
4.1525e-68
8.29138e-67
1.43445e-65
2.12683e-64
2.66335e-63
2.76231e-62
2.31106e-61
1.50469e-60
7.25454e-60
2.41346e-59
4.98998e-59
5.4495e-59
2.44552e-59
3.60451e-60
2.99681e-61
2.48369e-62
1.98196e-63
1.50161e-64
1.07844e-65
7.36e-67
4.78627e-68
2.97158e-69
1.76285e-70
9.99031e-72
5.40161e-73
2.78008e-74
1.35772e-75
6.2675e-77
2.72265e-78
1.10762e-79
4.19774e-81
1.4737e-82
4.76301e-84
1.40738e-85
3.77167e-87
9.08145e-89
1.94224e-90
3.63713e-92
5.85431e-94
7.89977e-96
8.62555e-98
7.21874e-100
4.21908e-102
1.41294e-104
1.44105e-107
1.23808e-105
3.47815e-103
6.01403e-101
7.48145e-99
7.2453e-97
5.72954e-95
3.82025e-93
2.19758e-91
1.10961e-89
4.98419e-88
2.01322e-86
7.37718e-85
2.47051e-83
7.60846e-82
2.16647e-80
5.73044e-79
1.41383e-77
3.26586e-76
7.08784e-75
1.45027e-73
2.80795e-72
5.16556e-71
9.07221e-70
1.52973e-68
2.49222e-67
3.9493e-66
6.12282e-65
9.31604e-64
1.38801e-62
2.00573e-61
2.77583e-60
2.99028e-59
1.27061e-58
1.9723e-58
1.42421e-58
5.84954e-59
1.55932e-59
2.94562e-60
4.19187e-61
4.69745e-62
4.28384e-63
3.25898e-64
2.1073e-65
1.17452e-66
5.70171e-68
2.42947e-69
9.1341e-71
3.04101e-72
8.98349e-74
2.35622e-75
5.48247e-77
1.12915e-78
2.05052e-80
3.26468e-82
4.52046e-84
5.38251e-86
5.41802e-88
4.46872e-90
2.81676e-92
1.12076e-94
1.61916e-97
1.70684e-101
1.15428e-108
3.65436e-112
5.41127e-110
1.51572e-106
1.78702e-99
1.56644e-95
1.0514e-92
2.59447e-90
4.06064e-88
4.86612e-86
4.78439e-84
3.9816e-82
2.85314e-80
1.77988e-78
9.7428e-77
4.70487e-75
2.01166e-73
7.63149e-72
2.57044e-70
7.68044e-69
2.03154e-67
4.73962e-66
9.7009e-65
1.72902e-63
2.65675e-62
3.47236e-61
3.79145e-60
3.3755e-59
2.37051e-58
1.25438e-57
4.68688e-57
1.12322e-56
1.48613e-56
8.54099e-57
1.61129e-57
1.54871e-58
1.47438e-59
1.34642e-60
1.16784e-61
9.62428e-63
7.55274e-64
5.65256e-65
4.03634e-66
2.74876e-67
1.78297e-68
1.09936e-69
6.42631e-71
3.5501e-72
1.847e-73
9.01656e-75
4.11425e-76
1.74758e-77
6.87898e-79
2.49649e-80
8.30302e-82
2.51229e-83
6.85345e-85
1.66662e-86
3.56095e-88
6.56008e-90
1.01592e-91
1.27619e-93
1.2322e-95
8.34656e-98
3.27855e-100
4.06507e-103
2.24225e-101
5.66342e-99
8.69334e-97
9.54374e-95
8.13265e-93
5.65349e-91
3.31529e-89
1.68001e-87
7.4909e-86
2.98021e-84
1.06959e-82
3.49338e-81
1.04568e-79
2.88519e-78
7.37263e-77
1.75167e-75
3.88244e-74
8.05084e-73
1.56605e-71
2.86495e-70
4.94298e-69
8.06939e-68
1.25158e-66
1.85403e-65
2.6403e-64
3.64196e-63
4.90234e-62
6.47292e-61
8.37924e-60
1.05352e-58
1.26735e-57
1.14534e-56
3.80899e-56
4.76808e-56
2.91144e-56
1.04851e-56
2.51648e-57
4.36568e-58
5.79389e-59
6.12964e-60
5.33027e-61
3.89869e-62
2.4404e-63
1.32429e-64
6.28958e-66
2.63277e-67
9.75863e-69
3.21293e-70
9.41178e-72
2.4538e-73
5.6878e-75
1.1693e-76
2.12342e-78
3.38645e-80
4.70445e-82
5.62811e-84
5.6993e-86
4.7344e-88
3.01034e-90
1.21336e-92
1.80415e-95
2.06795e-99
1.79754e-106
5.95862e-110
7.722e-108
2.08763e-104
1.9105e-97
1.5372e-93
1.00151e-90
2.4381e-88
3.78097e-86
4.49651e-84
4.39249e-82
3.63682e-80
2.5968e-78
1.61695e-76
8.85083e-75
4.28259e-73
1.83871e-71
7.02115e-70
2.38659e-68
7.21761e-67
1.93859e-65
4.60956e-64
9.65629e-63
1.7701e-61
2.81342e-60
3.82981e-59
4.39201e-58
4.14968e-57
3.13354e-56
1.81335e-55
7.57727e-55
2.09424e-54
3.33833e-54
2.45289e-54
6.0775e-55
6.81212e-56
7.53522e-57
8.01093e-58
8.12228e-59
7.83951e-60
7.19365e-61
6.26771e-62
5.18018e-63
4.05807e-64
3.01076e-65
2.11331e-66
1.40162e-67
8.77051e-69
5.169e-70
2.86345e-71
1.48723e-72
7.21854e-74
3.26034e-75
1.36285e-76
5.23635e-78
1.83371e-79
5.79287e-81
1.63041e-82
4.02609e-84
8.55589e-86
1.52564e-87
2.20407e-89
2.44804e-91
1.91393e-93
8.77958e-96
1.3276e-98
4.85862e-97
1.11614e-94
1.53738e-92
1.50291e-90
1.13362e-88
6.93847e-87
3.56507e-85
1.57601e-83
6.10787e-82
2.10631e-80
6.54224e-79
1.84872e-77
4.79295e-76
1.14805e-74
2.55529e-73
5.30918e-72
1.03338e-70
1.88916e-69
3.24993e-68
5.26837e-67
8.05758e-66
1.16437e-64
1.5932e-63
2.07113e-62
2.57108e-61
3.06926e-60
3.55291e-59
4.01839e-58
4.45218e-57
4.79615e-56
4.94054e-55
3.66222e-54
9.42164e-54
9.54049e-54
4.94902e-54
1.56938e-54
3.40365e-55
5.44015e-56
6.75244e-57
6.76177e-58
5.62008e-59
3.9606e-60
2.40459e-61
1.27265e-62
5.9227e-64
2.43893e-65
8.92358e-67
2.90869e-68
8.45759e-70
2.19384e-71
5.07005e-73
1.04117e-74
1.89201e-76
3.02435e-78
4.21756e-80
5.07207e-82
5.16938e-84
4.32666e-86
2.77614e-88
1.13393e-90
1.73612e-93
2.16499e-97
2.41887e-104
8.42886e-108
9.58616e-106
2.50899e-102
1.78054e-95
1.31382e-91
8.30366e-89
1.99351e-86
3.06213e-84
3.61248e-82
3.50458e-80
2.88532e-78
2.0516e-76
1.2742e-74
6.96916e-73
3.37585e-71
1.45403e-69
5.58274e-68
1.91287e-66
5.84775e-65
1.59272e-63
3.85408e-62
8.24994e-61
1.55262e-59
2.54762e-58
3.60406e-57
4.33014e-56
4.32948e-55
3.50388e-54
2.20898e-53
1.02762e-52
3.25764e-52
6.21638e-52
5.81307e-52
1.92966e-52
2.54713e-53
3.33889e-54
4.23939e-55
5.13717e-56
5.88481e-57
6.34146e-58
6.42136e-59
6.11783e-60
5.49633e-61
4.66726e-62
3.75301e-63
2.86089e-64
2.06749e-65
1.4147e-66
9.1417e-68
5.55638e-69
3.16008e-70
1.67126e-71
8.16139e-73
3.65134e-74
1.48358e-75
5.42038e-77
1.76013e-78
5.0083e-80
1.2264e-81
2.52323e-83
4.21738e-85
5.44291e-87
4.97935e-89
2.71051e-91
5.07632e-94
1.17353e-92
2.40698e-90
2.93319e-88
2.53053e-86
1.68371e-84
9.09113e-83
4.12014e-81
1.60525e-79
5.47333e-78
1.65596e-76
4.4954e-75
1.10515e-73
2.48004e-72
5.11619e-71
9.76489e-70
1.73451e-68
2.88274e-67
4.50418e-66
6.64227e-65
9.27228e-64
1.22758e-62
1.54291e-61
1.84197e-60
2.09024e-59
2.25883e-58
2.33342e-57
2.31855e-56
2.23267e-55
2.09427e-54
1.90553e-53
1.65434e-52
9.77588e-52
1.93268e-51
1.5906e-51
7.0467e-52
1.97663e-52
3.88901e-53
5.74648e-54
6.6913e-55
6.35979e-56
5.06495e-57
3.44685e-58
2.03384e-59
1.05177e-60
4.80399e-62
1.94893e-63
7.04784e-65
2.27698e-66
6.57865e-68
1.69939e-69
3.91894e-71
8.04531e-73
1.46398e-74
2.34702e-76
3.28745e-78
3.97625e-80
4.08051e-82
3.44248e-84
2.22976e-86
9.23339e-89
1.45652e-91
1.97782e-95
2.84306e-102
1.02475e-105
1.04697e-103
2.65352e-100
1.45746e-93
9.85088e-90
6.03569e-87
1.42838e-84
2.17242e-82
2.54136e-80
2.44737e-78
2.00252e-76
1.41706e-74
8.77236e-73
4.79037e-71
2.32095e-69
1.00186e-67
3.86357e-66
1.33282e-64
4.11329e-63
1.13442e-61
2.78921e-60
6.09041e-59
1.17456e-57
1.98554e-56
2.91235e-55
3.65628e-54
3.85704e-53
3.3339e-52
2.28047e-51
1.17536e-50
4.24852e-50
9.63559e-50
1.13873e-49
5.12404e-50
8.11198e-51
1.30102e-51
2.02281e-52
2.95402e-53
4.00112e-54
5.02688e-55
5.89338e-56
6.49669e-57
6.78104e-58
6.73454e-59
6.37787e-60
5.75615e-61
4.93633e-62
4.00455e-63
3.05722e-64
2.18467e-65
1.45349e-66
8.95571e-68
5.08204e-69
2.63976e-70
1.24615e-71
5.29999e-73
2.00885e-74
6.69214e-76
1.92433e-77
4.66213e-79
9.20024e-81
1.40601e-82
1.52999e-84
1.00105e-86
2.3471e-89
3.67652e-88
6.57534e-86
6.89305e-84
5.0853e-82
2.88591e-80
1.32869e-78
5.14264e-77
1.71629e-75
5.03293e-74
1.31546e-72
3.09829e-71
6.63163e-70
1.29847e-68
2.33788e-67
3.88748e-66
5.99248e-65
8.5937e-64
1.15064e-62
1.44382e-61
1.70468e-60
1.90161e-59
2.01235e-58
2.02743e-57
1.95022e-56
1.79486e-55
1.58341e-54
1.3423e-53
1.0973e-52
8.67497e-52
6.60748e-51
4.76996e-50
2.17389e-49
3.29756e-49
2.21946e-49
8.44707e-50
2.10636e-50
3.77551e-51
5.17646e-52
5.67312e-53
5.13289e-54
3.92728e-55
2.587e-56
1.48671e-57
7.52628e-59
3.37959e-60
1.35274e-61
4.84142e-63
1.55216e-64
4.46073e-66
1.14863e-67
2.64548e-69
5.43356e-71
9.90783e-73
1.59409e-74
2.24398e-76
2.73115e-78
2.82337e-80
2.40184e-82
1.57107e-84
6.59866e-87
1.07318e-89
1.5887e-93
2.94384e-100
1.10753e-103
1.00405e-101
2.48566e-98
1.05395e-91
6.51668e-88
3.86788e-85
9.0191e-83
1.35769e-80
1.57433e-78
1.50433e-76
1.22268e-74
8.60545e-73
5.30612e-71
2.89065e-69
1.39958e-67
6.04857e-66
2.34017e-64
8.11768e-63
2.52561e-61
7.04246e-60
1.75647e-58
3.90534e-57
7.70266e-56
1.33854e-54
2.03069e-53
2.65659e-52
2.94743e-51
2.711e-50
2.00335e-49
1.13806e-48
4.66093e-48
1.24644e-47
1.84486e-47
1.12875e-47
2.21004e-48
4.47748e-49
8.5828e-50
1.49884e-50
2.38697e-51
3.51667e-52
4.86684e-53
6.39785e-54
8.03165e-55
9.62941e-56
1.09908e-56
1.189e-57
1.21407e-58
1.16601e-59
1.05026e-60
8.84765e-62
6.94924e-63
5.06891e-64
3.41633e-65
2.11391e-66
1.19134e-67
6.05611e-69
2.74418e-70
1.09233e-71
3.74981e-73
1.08364e-74
2.54974e-76
4.64921e-78
6.05402e-80
4.78304e-82
1.40671e-84
1.57548e-83
2.44077e-81
2.18504e-79
1.36595e-77
6.53083e-76
2.521e-74
8.14703e-73
2.26285e-71
5.51144e-70
1.19606e-68
2.34284e-67
4.18629e-66
6.88186e-65
1.0477e-63
1.48427e-62
1.96297e-61
2.42797e-60
2.81108e-59
3.04745e-58
3.09417e-57
2.94445e-56
2.63061e-55
2.21362e-54
1.76341e-53
1.33896e-52
9.764e-52
6.88292e-51
4.70656e-50
3.11724e-49
1.98032e-48
1.18004e-47
4.01431e-47
4.6871e-47
2.5994e-47
8.55429e-48
1.90646e-48
3.12734e-49
3.99434e-50
4.1346e-51
3.57222e-52
2.63319e-53
1.68316e-54
9.44178e-56
4.68823e-57
2.07322e-58
8.20019e-60
2.90853e-61
9.26471e-63
2.65139e-64
6.81236e-66
1.56842e-67
3.22553e-69
5.89809e-71
9.5297e-73
1.34898e-74
1.65297e-76
1.72212e-78
1.47785e-80
9.76601e-83
4.16248e-85
6.98502e-88
1.12876e-91
2.70269e-98
1.0542e-101
8.52531e-100
2.07305e-96
6.7649e-90
3.82102e-86
2.19519e-83
5.0412e-81
7.50842e-79
8.62678e-77
8.17573e-75
6.5973e-73
4.61547e-71
2.83265e-69
1.53826e-67
7.43602e-66
3.21414e-64
1.24616e-62
4.34108e-61
1.35964e-59
3.82708e-58
9.66579e-57
2.18413e-55
4.3965e-54
7.83574e-53
1.22637e-51
1.66695e-50
1.93861e-49
1.89007e-48
1.502e-47
9.35289e-47
4.31067e-46
1.34754e-45
2.47112e-45
2.04541e-45
5.17159e-46
1.34153e-46
3.13821e-47
6.52055e-48
1.23568e-48
2.19299e-49
3.7005e-50
5.96121e-51
9.14576e-52
1.33104e-52
1.83211e-53
2.38135e-54
2.92031e-55
3.37529e-56
3.66978e-57
3.74194e-58
3.56344e-59
3.15277e-60
2.57567e-61
1.92912e-62
1.31374e-63
8.05598e-65
4.39677e-66
2.10547e-67
8.68798e-69
3.01672e-70
8.53048e-72
1.87149e-73
2.9413e-75
2.82871e-77
1.04793e-79
8.52488e-79
1.13583e-76
8.63053e-75
4.55104e-73
1.82835e-71
5.91354e-70
1.59749e-68
3.70084e-67
7.50076e-66
1.351e-64
2.18997e-63
3.22819e-62
4.36514e-61
5.45466e-60
6.33888e-59
6.88745e-58
7.02713e-57
6.75326e-56
6.12304e-55
5.23772e-54
4.22075e-53
3.19621e-52
2.26891e-51
1.50859e-50
9.42171e-50
5.57422e-49
3.16908e-48
1.75794e-47
9.57047e-47
5.04193e-46
2.47718e-45
6.13336e-45
5.55281e-45
2.55956e-45
7.33516e-46
1.46956e-46
2.21699e-47
2.64903e-48
2.59957e-49
2.15188e-50
1.5327e-51
9.53183e-53
5.23123e-54
2.55297e-55
1.11382e-56
4.36025e-58
1.53486e-59
4.86379e-61
1.38767e-62
3.5613e-64
8.20379e-66
1.69071e-67
3.10254e-69
5.03738e-71
7.17466e-73
8.85557e-75
9.30206e-77
8.05591e-79
5.38031e-81
2.32832e-83
4.03475e-86
7.12766e-90
2.21143e-96
8.85468e-100
6.41735e-98
1.54564e-94
3.86866e-88
1.99323e-84
1.10748e-81
2.50353e-79
3.68792e-77
4.19685e-75
3.94324e-73
3.15754e-71
2.19447e-69
1.33962e-67
7.24589e-66
3.49395e-64
1.50889e-62
5.85556e-61
2.04577e-59
6.44063e-58
1.82701e-56
4.6641e-55
1.06896e-53
2.19115e-52
3.99548e-51
6.43364e-50
9.05819e-49
1.10035e-47
1.13249e-46
9.63122e-46
6.5356e-45
3.36528e-44
1.21831e-43
2.73418e-43
3.02523e-43
1.08499e-43
3.50742e-44
9.91442e-45
2.51423e-45
5.91309e-46
1.30916e-46
2.7363e-47
5.39813e-48
1.00601e-48
1.77445e-49
2.96709e-50
4.70545e-51
7.07045e-52
1.00441e-52
1.34474e-53
1.69017e-54
1.98501e-55
2.16642e-56
2.18304e-57
2.01579e-58
1.69085e-59
1.27534e-60
8.54674e-62
5.01581e-63
2.53167e-64
1.07349e-65
3.70276e-67
9.90763e-69
1.90258e-70
2.25109e-72
1.05821e-74
6.90527e-74
7.81984e-72
4.97742e-70
2.18138e-68
7.24026e-67
1.92478e-65
4.25372e-64
8.02728e-63
1.32038e-61
1.92445e-60
2.51951e-59
2.99734e-58
3.27204e-57
3.30458e-56
3.10812e-55
2.7364e-54
2.26354e-53
1.76394e-52
1.29752e-51
9.02157e-51
5.93373e-50
3.69087e-49
2.16703e-48
1.1966e-47
6.18732e-47
2.99021e-46
1.35872e-45
5.91547e-45
2.5345e-44
1.07664e-43
4.34112e-43
7.72539e-43
5.4818e-43
2.12072e-43
5.33333e-44
9.66544e-45
1.34806e-45
1.51378e-46
1.41396e-47
1.12537e-48
7.76925e-50
4.71373e-51
2.53709e-52
1.2195e-53
5.25887e-55
2.04091e-56
7.14048e-58
2.25399e-59
6.41867e-61
1.64712e-62
3.79999e-64
7.85452e-66
1.44752e-67
2.3633e-69
3.38873e-71
4.21524e-73
4.46619e-75
3.90492e-77
2.63686e-79
1.1592e-81
2.07622e-84
4.01573e-88
1.61945e-94
6.58096e-98
4.27577e-96
1.03362e-92
1.9773e-86
9.2793e-83
4.98196e-80
1.10804e-77
1.61373e-75
1.81824e-73
1.69301e-71
1.34463e-69
9.27821e-68
5.62979e-66
3.03065e-64
1.4564e-62
6.2775e-61
2.43548e-59
8.52218e-58
2.69279e-56
7.68487e-55
1.9792e-53
4.59106e-52
9.56088e-51
1.77908e-49
2.93888e-48
4.27212e-47
5.40057e-46
5.84227e-45
5.29006e-44
3.8878e-43
2.21941e-42
9.21288e-42
2.49663e-41
3.63171e-41
1.93013e-41
7.6231e-42
2.67127e-42
8.56949e-43
2.54636e-43
7.03299e-44
1.81712e-44
4.42868e-45
1.02496e-45
2.26019e-46
4.75141e-47
9.51054e-48
1.80839e-48
3.25599e-49
5.52808e-50
8.80554e-51
1.30815e-51
1.8006e-52
2.27985e-53
2.63464e-54
2.75487e-55
2.58097e-56
2.14184e-57
1.55268e-58
9.66274e-60
5.04585e-61
2.14251e-62
7.06143e-64
1.67432e-65
2.46311e-67
1.48048e-69
7.84052e-69
7.45767e-67
3.93292e-65
1.41814e-63
3.85326e-62
8.34893e-61
1.49737e-59
2.28292e-58
3.01915e-57
3.51953e-56
3.66508e-55
3.44892e-54
2.96317e-53
2.34637e-52
1.72732e-51
1.19141e-50
7.74953e-50
4.77595e-49
2.7959e-48
1.55543e-47
8.21391e-47
4.1098e-46
1.94483e-45
8.68935e-45
3.65624e-44
1.44239e-43
5.30674e-43
1.82245e-42
5.96452e-42
1.93705e-41
6.24064e-41
7.99435e-41
4.50633e-41
1.47885e-41
3.2908e-42
5.43101e-43
7.04253e-44
7.46833e-45
6.66808e-46
5.12173e-47
3.43849e-48
2.04108e-49
1.08009e-50
5.12456e-52
2.1885e-53
8.43437e-55
2.9374e-56
9.24898e-58
2.63207e-59
6.7609e-61
1.56362e-62
3.24426e-64
6.00902e-66
9.87151e-68
1.42584e-69
1.78828e-71
1.91199e-73
1.68838e-75
1.1532e-77
5.15293e-80
9.54805e-83
2.02515e-86
1.06504e-92
4.35595e-96
2.5222e-94
6.2159e-91
9.0561e-85
3.8655e-81
2.00362e-78
4.38204e-76
6.30715e-74
7.03351e-72
6.48764e-70
5.10825e-68
3.49759e-66
2.10807e-64
1.12856e-62
5.40008e-61
2.32071e-59
8.99054e-58
3.14656e-56
9.96307e-55
2.85548e-53
7.40452e-52
1.73455e-50
3.66079e-49
6.93252e-48
1.17127e-46
1.75192e-45
2.29573e-44
2.59852e-43
2.49169e-42
1.97035e-41
1.23693e-40
5.82577e-40
1.87913e-39
3.52258e-39
2.75855e-39
1.35863e-39
6.1474e-40
2.5397e-40
9.57067e-41
3.33496e-41
1.09138e-41
3.38872e-42
1.00362e-42
2.84275e-43
7.7092e-44
1.99998e-44
4.94816e-45
1.1614e-45
2.5687e-46
5.31364e-47
1.02027e-47
1.80474e-48
2.9192e-49
4.28495e-50
5.66125e-51
6.67071e-52
6.93478e-53
6.27709e-54
4.86486e-55
3.15758e-56
1.66451e-57
6.8098e-59
2.00748e-60
3.69298e-62
2.84529e-64
1.2807e-63
1.01799e-61
4.42708e-60
1.30758e-58
2.89603e-57
5.09272e-56
7.38124e-55
9.05322e-54
9.58399e-53
8.89352e-52
7.32602e-51
5.41506e-50
3.62619e-49
2.21982e-48
1.25322e-47
6.58273e-47
3.24549e-46
1.51452e-45
6.73695e-45
2.87006e-44
1.17271e-43
4.58642e-43
1.7086e-42
6.02671e-42
2.00213e-41
6.2428e-41
1.82198e-40
4.95255e-40
1.24921e-39
2.99117e-39
7.24707e-39
6.7748e-39
3.0814e-39
8.6775e-40
1.72379e-40
2.60938e-41
3.16494e-42
3.18603e-43
2.7314e-44
2.03265e-45
1.33156e-46
7.75621e-48
4.04577e-49
1.89904e-50
8.0476e-52
3.0854e-53
1.07129e-54
3.36939e-56
9.59406e-58
2.46952e-59
5.73095e-61
1.19462e-62
2.22544e-64
3.68097e-66
5.35866e-68
6.77963e-70
7.31756e-72
6.52869e-74
4.5123e-76
2.05059e-78
3.93456e-81
9.16616e-85
6.30755e-91
2.54822e-94
1.31135e-92
3.36861e-89
3.72513e-83
1.44422e-79
7.22079e-77
1.55207e-74
2.20687e-72
2.43486e-70
2.22397e-68
1.73523e-66
1.17828e-64
7.04971e-63
3.75036e-61
1.78523e-59
7.64162e-58
2.95259e-56
1.03215e-54
3.2698e-53
9.39458e-52
2.44775e-50
5.77725e-49
1.23251e-47
2.36855e-46
4.07984e-45
6.25649e-44
8.46383e-43
9.97618e-42
1.00732e-40
8.51221e-40
5.82643e-39
3.07928e-38
1.16439e-37
2.75093e-37
3.09582e-37
1.97103e-37
1.171e-37
6.20027e-38
2.97721e-38
1.33288e-38
5.6567e-39
2.29557e-39
8.96091e-40
3.37811e-40
1.23044e-40
4.31294e-41
1.44352e-41
4.56826e-42
1.35331e-42
3.71852e-43
9.40102e-44
2.17127e-44
4.55089e-45
8.59837e-46
1.45387e-46
2.18178e-47
2.87684e-48
3.29168e-49
3.21613e-50
2.62631e-51
1.73966e-52
8.94109e-54
3.3159e-55
7.71481e-57
7.67969e-59
2.76616e-58
1.82268e-56
6.48882e-55
1.55927e-53
2.79696e-52
3.96691e-51
4.61733e-50
4.52685e-49
3.81059e-48
2.79496e-47
1.80739e-46
1.04056e-45
5.37926e-45
2.51698e-44
1.07452e-43
4.22186e-43
1.54182e-42
5.29284e-42
1.72846e-41
5.42846e-41
1.65151e-40
4.87359e-40
1.38822e-39
3.78141e-39
9.74322e-39
2.35336e-38
5.30925e-38
1.12077e-37
2.2039e-37
3.94977e-37
6.71874e-37
4.68834e-37
1.75049e-37
4.28252e-38
7.66672e-39
1.07267e-39
1.2248e-40
1.17686e-41
9.73369e-43
7.04693e-44
4.52053e-45
2.59184e-46
1.3362e-47
6.21949e-49
2.62071e-50
1.00136e-51