/*--------------------------------*- C++ -*----------------------------------*\
| =========                 |                                                 |
| \\      /  F ield         | OpenFOAM: The Open Source CFD Toolbox           |
|  \\    /   O peration     | Version:  2206                                  |
|   \\  /    A nd           | Website:  www.openfoam.com                      |
|    \\/     M anipulation  |                                                 |
\*---------------------------------------------------------------------------*/
FoamFile
{
    version     2.0;
    format      ascii;
    arch        "LSB;label=64;scalar=64";
    class       volScalarField;
    location    "0.01";
    object      H2O;
}
// * * * * * * * * * * * * * * * * * * * * * * * * * * * * * * * * * * * * * //

dimensions      [0 0 0 0 0 0 0];

internalField   nonuniform List<scalar> 
4000
(
1.14235e-22
7.56397e-22
3.03515e-21
1.06056e-20
3.31461e-20
9.41003e-20
2.46686e-19
6.05044e-19
1.39995e-18
3.07016e-18
6.40082e-18
1.27047e-17
2.41135e-17
4.39467e-17
7.72174e-17
1.3131e-16
2.16888e-16
3.491e-16
5.49195e-16
8.4668e-16
1.28225e-15
1.91194e-15
2.80213e-15
4.06508e-15
5.82994e-15
8.26491e-15
1.16143e-14
1.61979e-14
2.24135e-14
3.07832e-14
4.19819e-14
5.68749e-14
7.65478e-14
1.02378e-13
1.36143e-13
1.80072e-13
2.36976e-13
3.10385e-13
4.04819e-13
5.25972e-13
6.80507e-13
8.7637e-13
1.12477e-12
1.44112e-12
1.84348e-12
2.35183e-12
2.99056e-12
3.78842e-12
4.78187e-12
6.00999e-12
7.53716e-12
9.41286e-12
1.16829e-11
1.43917e-11
1.75993e-11
2.13603e-11
2.57053e-11
3.06397e-11
3.61458e-11
4.21707e-11
4.86196e-11
5.53507e-11
6.21652e-11
6.8859e-11
7.51762e-11
8.08392e-11
8.55765e-11
8.91259e-11
9.12651e-11
9.18278e-11
9.0735e-11
8.79917e-11
8.37007e-11
7.80544e-11
7.1325e-11
6.38409e-11
5.59478e-11
4.79776e-11
4.02585e-11
3.30429e-11
2.65447e-11
2.08676e-11
1.59789e-11
1.19605e-11
8.73065e-12
6.19088e-12
4.25163e-12
2.82168e-12
1.80801e-12
1.11464e-12
6.51827e-13
3.56745e-13
1.79826e-13
8.19058e-14
3.29276e-14
1.14574e-14
3.34313e-15
8.08232e-16
1.59487e-16
1.84499e-17
5.69892e-22
3.81102e-21
1.54976e-20
5.49186e-20
1.73849e-19
4.98483e-19
1.31515e-18
3.2373e-18
7.50893e-18
1.65151e-17
3.45825e-17
6.90374e-17
1.31952e-16
2.42432e-16
4.298e-16
7.37965e-16
1.23139e-15
2.00317e-15
3.1861e-15
4.96747e-15
7.60925e-15
1.14751e-14
1.70673e-14
2.50774e-14
3.64589e-14
5.22966e-14
7.44174e-14
1.05255e-13
1.47682e-13
2.05718e-13
2.84559e-13
3.91014e-13
5.33895e-13
7.24554e-13
9.77584e-13
1.31158e-12
1.75008e-12
2.32273e-12
3.06651e-12
4.02719e-12
5.26082e-12
6.83555e-12
8.8336e-12
1.13549e-11
1.45212e-11
1.84691e-11
2.33573e-11
2.93659e-11
3.66979e-11
4.55575e-11
5.61752e-11
6.88399e-11
8.37174e-11
1.01e-10
1.20837e-10
1.43301e-10
1.68362e-10
1.9585e-10
2.25436e-10
2.566e-10
2.88625e-10
3.20587e-10
3.5137e-10
3.79765e-10
4.04485e-10
4.24289e-10
4.38173e-10
4.45143e-10
4.44557e-10
4.36167e-10
4.20129e-10
3.97055e-10
3.67964e-10
3.34173e-10
2.97273e-10
2.58997e-10
2.20935e-10
1.84267e-10
1.50499e-10
1.20565e-10
9.41846e-11
7.19991e-11
5.38538e-11
3.95742e-11
2.84032e-11
1.97306e-11
1.32522e-11
8.61055e-12
5.38976e-12
3.22991e-12
1.84604e-12
9.98345e-13
5.04708e-13
2.34134e-13
9.70227e-14
3.43575e-14
1.00638e-14
2.468e-15
4.99049e-16
5.86559e-17
2.72931e-21
1.81901e-20
7.38078e-20
2.61016e-19
8.25577e-19
2.36786e-18
6.25072e-18
1.5391e-17
3.57069e-17
7.85953e-17
1.64909e-16
3.30406e-16
6.34743e-16
1.17371e-15
2.09645e-15
3.62939e-15
6.10942e-15
1.00293e-14
1.61001e-14
2.53356e-14
3.91673e-14
5.95993e-14
8.94155e-14
1.3245e-13
1.93981e-13
2.81177e-13
4.03649e-13
5.74295e-13
8.10273e-13
1.13436e-12
1.57655e-12
2.1761e-12
2.98398e-12
4.06601e-12
5.50665e-12
7.41349e-12
9.92257e-12
1.32047e-11
1.74723e-11
2.29876e-11
3.00705e-11
3.91077e-11
5.05627e-11
6.49843e-11
8.30128e-11
1.05383e-10
1.32926e-10
1.6656e-10
2.07285e-10
2.56061e-10
3.13878e-10
3.82146e-10
4.61514e-10
5.52675e-10
6.56013e-10
7.71471e-10
8.98408e-10
1.03545e-09
1.1804e-09
1.33011e-09
1.48051e-09
1.62663e-09
1.76278e-09
1.88283e-09
1.98057e-09
2.05019e-09
2.08672e-09
2.087e-09
2.0496e-09
1.97546e-09
1.86772e-09
1.73091e-09
1.57166e-09
1.39669e-09
1.21418e-09
1.03317e-09
8.61201e-10
7.00136e-10
5.56692e-10
4.33401e-10
3.30241e-10
2.46035e-10
1.78632e-10
1.26011e-10
8.61985e-11
5.68025e-11
3.65465e-11
2.29504e-11
1.39644e-11
8.16921e-12
4.57211e-12
2.42575e-12
1.20583e-12
5.5196e-13
2.27891e-13
8.30541e-14
2.61347e-14
6.86647e-15
1.47034e-15
1.78927e-16
1.13208e-20
7.51832e-20
3.03743e-19
1.06776e-18
3.35567e-18
9.56428e-18
2.50915e-17
6.13949e-17
1.41573e-16
3.09977e-16
6.47855e-16
1.29521e-15
2.4878e-15
4.60772e-15
8.25614e-15
1.43557e-14
2.4293e-14
4.01161e-14
6.48055e-14
1.02645e-13
1.59727e-13
2.44633e-13
3.69353e-13
5.50477e-13
8.10677e-13
1.18089e-12
1.70311e-12
2.43378e-12
3.44835e-12
4.84695e-12
6.76164e-12
9.36538e-12
1.28832e-11
1.76058e-11
2.3906e-11
3.22586e-11
4.32631e-11
5.76709e-11
7.64153e-11
1.00645e-10
1.31758e-10
1.71444e-10
2.21712e-10
2.84931e-10
3.63852e-10
4.61614e-10
5.81742e-10
7.28106e-10
9.04852e-10
1.11598e-09
1.36532e-09
1.65853e-09
1.99795e-09
2.38594e-09
2.82333e-09
3.30892e-09
3.83889e-09
4.40627e-09
5.00043e-09
5.60686e-09
6.20716e-09
6.77943e-09
7.2991e-09
7.74022e-09
8.07736e-09
8.28784e-09
8.35341e-09
8.26514e-09
8.0196e-09
7.6242e-09
7.09651e-09
6.46296e-09
5.76206e-09
5.01306e-09
4.25976e-09
3.53348e-09
2.86093e-09
2.26045e-09
1.74079e-09
1.30477e-09
9.52892e-10
6.80227e-10
4.77216e-10
3.26896e-10
2.18907e-10
1.43739e-10
9.19856e-11
5.72378e-11
3.45873e-11
2.02265e-11
1.13789e-11
6.1012e-12
3.07139e-12
1.42382e-12
5.94171e-13
2.16032e-13
6.82647e-14
1.82623e-14
3.99859e-15
4.94752e-16
4.01724e-20
2.65714e-19
1.06759e-18
3.72396e-18
1.1603e-17
3.27875e-17
8.52983e-17
2.07003e-16
4.73594e-16
1.02954e-15
2.13858e-15
4.25632e-15
8.15389e-15
1.50891e-14
2.7057e-14
4.71458e-14
8.00372e-14
1.32703e-13
2.15364e-13
3.42817e-13
5.3623e-13
8.25586e-13
1.25297e-12
1.87671e-12
2.77744e-12
4.06548e-12
5.89081e-12
8.45579e-12
1.20316e-11
1.69791e-11
2.37754e-11
3.30463e-11
4.56078e-11
6.25156e-11
8.51252e-11
1.15164e-10
1.54818e-10
2.06824e-10
2.74588e-10
3.623e-10
4.75069e-10
6.19057e-10
8.0161e-10
1.03137e-09
1.31838e-09
1.67408e-09
2.11131e-09
2.64414e-09
3.28761e-09
4.05637e-09
4.96383e-09
6.0302e-09
7.26363e-09
8.6718e-09
1.02566e-08
1.20121e-08
1.39222e-08
1.59589e-08
1.80801e-08
2.02291e-08
2.23341e-08
2.43108e-08
2.60653e-08
2.74988e-08
2.85157e-08
2.90341e-08
2.89946e-08
2.83655e-08
2.71647e-08
2.54174e-08
2.322e-08
2.06866e-08
1.79547e-08
1.51693e-08
1.24703e-08
9.97081e-09
7.75797e-09
5.88476e-09
4.3598e-09
3.15683e-09
2.23795e-09
1.55434e-09
1.0574e-09
7.0678e-10
4.63972e-10
2.98777e-10
1.88346e-10
1.15905e-10
6.93879e-11
4.0233e-11
2.24356e-11
1.19535e-11
6.00174e-12
2.77491e-12
1.17083e-12
4.4451e-13
1.46233e-13
4.05989e-14
9.17142e-15
1.15759e-15
1.20656e-19
7.95001e-19
3.17806e-18
1.10117e-17
3.40635e-17
9.55749e-17
2.46944e-16
5.953e-16
1.35321e-15
2.92413e-15
6.04093e-15
1.19735e-14
2.2876e-14
4.22801e-14
7.58252e-14
1.32307e-13
2.25163e-13
3.7456e-13
6.10304e-13
9.75853e-13
1.53382e-12
2.37343e-12
3.62058e-12
5.45137e-12
8.10996e-12
1.19323e-11
1.73768e-11
2.50649e-11
3.58323e-11
5.07951e-11
7.14337e-11
9.96967e-11
1.38132e-10
1.90043e-10
2.59688e-10
3.52503e-10
4.75381e-10
6.36983e-10
8.48099e-10
1.12204e-09
1.47507e-09
1.92686e-09
2.50087e-09
3.22482e-09
4.13088e-09
5.25589e-09
6.64119e-09
8.33217e-09
1.03774e-08
1.28247e-08
1.57166e-08
1.91181e-08
2.30552e-08
2.75515e-08
3.26107e-08
3.82095e-08
4.42902e-08
5.07524e-08
5.74481e-08
6.41766e-08
7.06805e-08
7.66638e-08
8.18019e-08
8.57427e-08
8.81418e-08
8.87616e-08
8.74092e-08
8.40317e-08
7.87322e-08
7.17758e-08
6.35774e-08
5.46683e-08
4.56156e-08
3.69589e-08
2.91601e-08
2.2391e-08
1.67756e-08
1.22927e-08
8.8355e-09
6.24383e-09
4.34471e-09
2.97878e-09
2.01206e-09
1.3383e-09
8.75576e-10
5.62538e-10
3.54142e-10
2.17843e-10
1.30474e-10
7.57645e-11
4.24378e-11
2.27291e-11
1.15232e-11
5.39199e-12
2.29218e-12
8.71168e-13
2.88419e-13
8.09175e-14
1.84958e-14
2.35567e-15
3.08889e-19
2.0287e-18
8.07801e-18
2.78538e-17
8.57362e-17
2.39441e-16
6.15979e-16
1.47877e-15
3.34805e-15
7.20767e-15
1.48393e-14
2.93375e-14
5.59629e-14
1.03381e-13
1.85511e-13
3.24211e-13
5.53129e-13
9.23174e-13
1.5102e-12
2.42569e-12
3.83152e-12
5.96007e-12
9.14161e-12
1.38411e-11
2.07073e-11
3.06377e-11
4.48639e-11
6.50631e-11
9.35017e-11
1.3322e-10
1.88265e-10
2.63988e-10
3.67407e-10
5.0766e-10
6.96553e-10
9.49219e-10
1.28489e-09
1.72782e-09
2.30829e-09
3.06376e-09
4.04014e-09
5.29301e-09
6.88894e-09
8.90658e-09
1.14376e-08
1.45868e-08
1.84724e-08
2.32238e-08
2.89795e-08
3.58777e-08
4.40362e-08
5.3639e-08
6.47557e-08
7.74449e-08
9.17032e-08
1.07442e-07
1.24464e-07
1.42429e-07
1.60855e-07
1.7911e-07
1.96278e-07
2.11421e-07
2.236e-07
2.31634e-07
2.34561e-07
2.31746e-07
2.22865e-07
2.0821e-07
1.88662e-07
1.65645e-07
1.40921e-07
1.16378e-07
9.33903e-08
7.28362e-08
5.53752e-08
4.11853e-08
3.00693e-08
2.16097e-08
1.53152e-08
1.07148e-08
7.40253e-09
5.0492e-09
3.39806e-09
2.25388e-09
1.47136e-09
9.43689e-10
5.93275e-10
3.64538e-10
2.18135e-10
1.26561e-10
7.08391e-11
3.80114e-11
1.9321e-11
9.10822e-12
3.8875e-12
1.48643e-12
4.96214e-13
1.40627e-13
3.24719e-14
4.16677e-15
6.82619e-19
4.4727e-18
1.77655e-17
6.10873e-17
1.87555e-16
5.22701e-16
1.3423e-15
3.21729e-15
7.27308e-15
1.56352e-14
3.21506e-14
6.35159e-14
1.21147e-13
2.23933e-13
4.02388e-13
7.04739e-13
1.20578e-12
2.01958e-12
3.31749e-12
5.35344e-12
8.49908e-12
1.32922e-11
2.05025e-11
3.12215e-11
4.69813e-11
6.99147e-11
1.02964e-10
1.50158e-10
2.16963e-10
3.10748e-10
4.41361e-10
6.21867e-10
8.69465e-10
1.20662e-09
1.66244e-09
2.27433e-09
3.08996e-09
4.16957e-09
5.58852e-09
7.44023e-09
9.83929e-09
1.29247e-08
1.6863e-08
2.18512e-08
2.81186e-08
3.59278e-08
4.55737e-08
5.73791e-08
7.16873e-08
8.88401e-08
1.09117e-07
1.32961e-07
1.60517e-07
1.91878e-07
2.26968e-07
2.65455e-07
3.0675e-07
3.49685e-07
3.92778e-07
4.34437e-07
4.71998e-07
5.02745e-07
5.23835e-07
5.32596e-07
5.27173e-07
5.06698e-07
4.72004e-07
4.2564e-07
3.71646e-07
3.14742e-07
2.58545e-07
2.06082e-07
1.59853e-07
1.21136e-07
9.00399e-08
6.58608e-08
4.75184e-08
3.38662e-08
2.386e-08
1.66216e-08
1.1447e-08
7.78925e-09
5.23235e-09
3.46547e-09
2.25932e-09
1.44725e-09
9.08797e-10
5.57792e-10
3.33414e-10
1.93231e-10
1.08019e-10
5.79156e-11
2.94526e-11
1.39492e-11
5.96517e-12
2.28869e-12
7.67935e-13
2.19027e-13
5.09091e-14
6.56523e-15
1.32403e-18
8.66252e-18
3.43669e-17
1.18052e-16
3.62246e-16
1.00949e-15
2.59311e-15
6.21805e-15
1.40634e-14
3.02473e-14
6.22351e-14
1.23052e-13
2.34977e-13
4.35039e-13
7.83364e-13
1.37557e-12
2.36096e-12
3.9689e-12
6.5466e-12
1.06125e-11
1.69311e-11
2.66166e-11
4.12756e-11
6.31994e-11
9.56252e-11
1.43083e-10
2.11854e-10
3.10575e-10
4.51019e-10
6.49105e-10
9.26182e-10
1.31066e-09
1.84001e-09
2.56331e-09
3.54427e-09
4.86488e-09
6.62977e-09
8.97125e-09
1.2055e-08
1.60865e-08
2.13176e-08
2.80539e-08
3.66611e-08
4.75711e-08
6.12857e-08
7.83775e-08
9.94865e-08
1.25309e-07
1.56577e-07
1.94014e-07
2.38173e-07
2.89954e-07
3.49555e-07
4.17002e-07
4.91948e-07
5.72957e-07
6.58934e-07
7.46758e-07
8.3258e-07
9.11508e-07
9.7772e-07
1.02494e-06
1.04719e-06
1.04011e-06
1.00175e-06
9.33906e-07
8.42205e-07
7.35315e-07
6.23622e-07
5.11739e-07
4.07703e-07
3.165e-07
2.40365e-07
1.7931e-07
1.318e-07
9.56576e-08
6.86405e-08
4.87303e-08
3.42358e-08
2.37999e-08
1.63643e-08
1.1121e-08
7.46229e-09
4.93765e-09
3.21631e-09
2.05813e-09
1.29101e-09
7.91482e-10
4.72519e-10
2.73477e-10
1.52643e-10
8.17188e-11
4.15326e-11
1.97126e-11
8.43203e-12
3.23932e-12
1.08956e-12
3.11821e-13
7.27493e-14
9.40989e-15
2.29444e-18
1.50004e-17
5.95024e-17
2.04449e-16
6.27873e-16
1.75201e-15
4.50777e-15
1.08284e-14
2.45341e-14
5.28589e-14
1.08956e-13
2.15827e-13
4.12962e-13
7.66267e-13
1.38326e-12
2.43585e-12
4.19411e-12
7.07554e-12
1.17162e-11
1.9072e-11
3.05619e-11
4.82662e-11
7.52015e-11
1.15694e-10
1.75885e-10
2.64403e-10
3.93264e-10
5.79041e-10
8.44391e-10
1.22003e-09
1.74723e-09
2.481e-09
3.49403e-09
4.88158e-09
6.76739e-09
9.31081e-09
1.27152e-08
1.72375e-08
2.31994e-08
3.09995e-08
4.11258e-08
5.41689e-08
7.08344e-08
9.19525e-08
1.18485e-07
1.51522e-07
1.92276e-07
2.42051e-07
3.02203e-07
3.74041e-07
4.58486e-07
5.57089e-07
6.69978e-07
7.96257e-07
9.35614e-07
1.0849e-06
1.23979e-06
1.39392e-06
1.53884e-06
1.66418e-06
1.75838e-06
1.81004e-06
1.8102e-06
1.75454e-06
1.64546e-06
1.49281e-06
1.31237e-06
1.11853e-06
9.22765e-07
7.38802e-07
5.76389e-07
4.40177e-07
3.3037e-07
2.44434e-07
1.7865e-07
1.29149e-07
9.24148e-08
6.54775e-08
4.59341e-08
3.18964e-08
2.19114e-08
1.48789e-08
9.97655e-09
6.59646e-09
4.29356e-09
2.74509e-09
1.7201e-09
1.0533e-09
6.27995e-10
3.62925e-10
2.02211e-10
1.08019e-10
5.48901e-11
2.60497e-11
1.11336e-11
4.27728e-12
1.43966e-12
4.12576e-13
9.64237e-14
1.24917e-14
3.60954e-18
2.35935e-17
9.36413e-17
3.22107e-16
9.90853e-16
2.77076e-15
7.14614e-15
1.72096e-14
3.90901e-14
8.44254e-14
1.74453e-13
3.46396e-13
6.64389e-13
1.23586e-12
2.2368e-12
3.94986e-12
6.82126e-12
1.15443e-11
1.91808e-11
3.13346e-11
5.03982e-11
7.98961e-11
1.24961e-10
1.92983e-10
2.94489e-10
4.44317e-10
6.6318e-10
9.79707e-10
1.43311e-09
2.07661e-09
2.98181e-09
4.24416e-09
5.98987e-09
8.38429e-09
1.16422e-08
1.60399e-08
2.19297e-08
2.97564e-08
4.00759e-08
5.35755e-08
7.10949e-08
9.36478e-08
1.22441e-07
1.58889e-07
2.04622e-07
2.61478e-07
3.31481e-07
4.16788e-07
5.19603e-07
6.42008e-07
7.85317e-07
9.51615e-07
1.14028e-06
1.35106e-06
1.58005e-06
1.82157e-06
2.06681e-06
2.30346e-06
2.51579e-06
2.6855e-06
2.79365e-06
2.82374e-06
2.76695e-06
2.62298e-06
2.40521e-06
2.13743e-06
1.84149e-06
1.53492e-06
1.24094e-06
9.76968e-07
7.52467e-07
5.6936e-07
4.246e-07
3.12773e-07
2.27905e-07
1.64408e-07
1.1747e-07
8.31401e-08
5.82778e-08
4.04417e-08
2.77659e-08
1.88442e-08
1.26282e-08
8.34456e-09
5.42757e-09
3.46735e-09
2.17043e-09
1.32748e-09
7.90412e-10
4.56104e-10
2.53693e-10
1.3523e-10
6.86414e-11
3.2547e-11
1.38917e-11
5.3327e-12
1.79427e-12
5.14279e-13
1.20256e-13
1.55896e-14
5.23087e-18
3.41971e-17
1.35858e-16
4.68045e-16
1.44275e-15
4.04433e-15
1.0459e-14
2.52578e-14
5.75291e-14
1.24581e-13
2.58117e-13
5.13821e-13
9.87942e-13
1.84221e-12
3.34244e-12
5.91714e-12
1.02453e-11
1.73859e-11
2.8967e-11
4.74574e-11
7.65522e-11
1.21714e-10
1.90921e-10
2.9569e-10
4.52464e-10
6.84464e-10
1.02415e-09
1.51643e-09
2.22287e-09
3.22706e-09
4.64144e-09
6.61592e-09
9.34856e-09
1.30987e-08
1.82026e-08
2.50928e-08
3.43195e-08
4.65764e-08
6.27284e-08
8.38423e-08
1.11218e-07
1.46421e-07
1.91305e-07
2.48037e-07
3.19097e-07
4.07267e-07
5.1558e-07
6.47231e-07
8.0542e-07
9.93086e-07
1.21187e-06
1.46373e-06
1.74949e-06
2.06444e-06
2.40246e-06
2.75319e-06
3.10133e-06
3.42631e-06
3.70298e-06
3.90365e-06
4.00197e-06
3.97949e-06
3.83005e-06
3.56491e-06
3.21227e-06
2.81177e-06
2.37854e-06
1.95014e-06
1.55513e-06
1.21134e-06
9.2582e-07
6.96804e-07
5.17753e-07
3.80445e-07
2.76743e-07
1.99405e-07
1.42358e-07
1.00695e-07
7.05503e-08
4.89387e-08
3.35868e-08
2.27855e-08
1.52624e-08
1.00797e-08
6.5519e-09
4.18243e-09
2.61549e-09
1.59789e-09
9.50188e-10
5.47501e-10
3.04038e-10
1.6176e-10
8.19695e-11
3.88191e-11
1.65422e-11
6.34246e-12
2.13215e-12
6.10825e-13
1.42809e-13
1.85152e-14
7.06912e-18
4.62325e-17
1.83885e-16
6.3458e-16
1.96029e-15
5.50876e-15
1.42841e-14
3.45896e-14
7.89964e-14
1.71512e-13
3.56273e-13
7.10928e-13
1.37007e-12
2.56041e-12
4.65556e-12
8.2594e-12
1.43314e-11
2.43722e-11
4.06949e-11
6.68158e-11
1.08011e-10
1.72096e-10
2.70506e-10
4.19776e-10
6.43538e-10
9.75198e-10
1.46148e-09
2.16704e-09
3.18051e-09
4.6222e-09
6.65383e-09
9.49088e-09
1.34177e-08
1.88061e-08
2.61378e-08
3.60308e-08
4.92705e-08
6.68444e-08
8.99814e-08
1.20193e-07
1.59317e-07
2.09557e-07
2.73515e-07
3.54219e-07
4.55116e-07
5.80048e-07
7.33167e-07
9.18796e-07
1.14119e-06
1.40378e-06
1.7091e-06
2.05891e-06
2.45326e-06
2.88371e-06
3.34012e-06
3.80617e-06
4.25849e-06
4.66681e-06
4.99553e-06
5.20779e-06
5.27161e-06
5.17055e-06
4.90556e-06
4.50419e-06
4.01418e-06
3.46033e-06
2.88881e-06
2.34079e-06
1.84901e-06
1.43033e-06
1.08797e-06
8.16193e-07
6.05139e-07
4.44003e-07
3.22656e-07
2.32332e-07
1.65788e-07
1.17228e-07
8.21118e-08
5.69439e-08
3.90701e-08
2.64968e-08
1.77414e-08
1.17112e-08
7.60795e-09
4.85315e-09
3.03222e-09
1.85056e-09
1.09913e-09
6.32469e-10
3.50696e-10
1.86272e-10
9.42307e-11
4.45641e-11
1.89598e-11
7.25973e-12
2.43766e-12
6.97673e-13
1.63001e-13
2.11274e-14
9.00317e-18
5.89104e-17
2.34589e-16
8.10905e-16
2.51008e-15
7.06996e-15
1.83771e-14
4.46113e-14
1.02132e-13
2.22261e-13
4.62755e-13
9.25381e-13
1.78691e-12
3.3457e-12
6.09433e-12
1.08305e-11
1.88241e-11
3.20648e-11
5.36245e-11
8.81809e-11
1.42762e-10
2.27791e-10
3.58533e-10
5.57076e-10
8.55002e-10
1.29696e-09
1.94541e-09
2.88673e-09
4.23929e-09
6.16361e-09
8.87532e-09
1.26613e-08
1.78998e-08
2.50844e-08
3.48539e-08
4.80263e-08
6.56387e-08
8.89932e-08
1.19706e-07
1.59761e-07
2.11561e-07
2.77982e-07
3.62408e-07
4.68759e-07
6.01481e-07
7.65495e-07
9.66087e-07
1.20869e-06
1.49842e-06
1.83893e-06
2.23423e-06
2.68494e-06
3.19013e-06
3.73672e-06
4.30991e-06
4.88661e-06
5.43479e-06
5.91409e-06
6.27887e-06
6.48439e-06
6.49611e-06
6.30044e-06
5.91079e-06
5.36966e-06
4.7405e-06
4.04413e-06
3.34323e-06
2.68751e-06
2.10985e-06
1.625e-06
1.23237e-06
9.22673e-07
6.83175e-07
5.00818e-07
3.63733e-07
2.6181e-07
1.86776e-07
1.32043e-07
9.24737e-08
6.41186e-08
4.39837e-08
2.98213e-08
1.99606e-08
1.31706e-08
8.55155e-09
5.45164e-09
3.40346e-09
2.07522e-09
1.23126e-09
7.07655e-10
3.91853e-10
2.07842e-10
1.04979e-10
4.95782e-11
2.10611e-11
8.05221e-12
2.70006e-12
7.71933e-13
1.80196e-13
2.33446e-14
1.09046e-17
7.13876e-17
2.84587e-16
9.85196e-16
3.055e-15
8.62185e-15
2.24577e-14
5.46326e-14
1.25334e-13
2.73294e-13
5.70067e-13
1.14202e-12
2.20885e-12
4.14198e-12
7.55541e-12
1.34448e-11
2.33969e-11
3.99007e-11
6.68031e-11
1.09966e-10
1.78205e-10
2.84598e-10
4.48307e-10
6.9706e-10
1.0705e-09
1.62467e-09
2.4379e-09
3.61848e-09
5.31467e-09
7.72733e-09
1.11259e-08
1.58687e-08
2.24269e-08
3.14152e-08
4.36273e-08
6.00779e-08
8.20515e-08
1.11157e-07
1.49389e-07
1.99186e-07
2.63502e-07
3.45854e-07
4.50376e-07
5.81834e-07
7.45613e-07
9.47646e-07
1.19426e-06
1.4919e-06
1.84591e-06
2.26155e-06
2.74244e-06
3.28852e-06
3.8976e-06
4.5516e-06
5.23088e-06
5.90561e-06
6.53533e-06
7.07035e-06
7.4563e-06
7.64232e-06
7.59448e-06
7.30453e-06
6.79939e-06
6.13923e-06
5.37038e-06
4.54585e-06
3.73139e-06
2.98202e-06
2.33124e-06
1.79033e-06
1.35513e-06
1.0133e-06
7.49656e-07
5.49262e-07
3.98784e-07
2.8698e-07
2.04704e-07
1.44703e-07
1.0133e-07
7.02509e-08
4.81828e-08
3.26614e-08
2.18556e-08
1.44158e-08
9.35592e-09
5.96121e-09
3.71908e-09
2.26588e-09
1.34317e-09
7.71185e-10
4.26545e-10
2.25964e-10
1.13982e-10
5.37603e-11
2.28043e-11
8.70643e-12
2.91507e-12
8.32143e-13
1.9402e-13
2.51205e-14
1.2656e-17
8.289e-17
3.30746e-16
1.14639e-15
3.56001e-15
1.00631e-14
2.62558e-14
6.39798e-14
1.47019e-13
3.21083e-13
6.70736e-13
1.34558e-12
2.60588e-12
4.89211e-12
8.93311e-12
1.59116e-11
2.7714e-11
4.73008e-11
7.92499e-11
1.30541e-10
2.11669e-10
3.38211e-10
5.32985e-10
8.29004e-10
1.27345e-09
1.93299e-09
2.90072e-09
4.3053e-09
6.32264e-09
9.19086e-09
1.32291e-08
1.88609e-08
2.6643e-08
3.73004e-08
5.17677e-08
7.12382e-08
9.722e-08
1.31599e-07
1.76706e-07
2.35393e-07
3.11096e-07
4.07908e-07
5.30617e-07
6.84732e-07
8.76452e-07
1.11257e-06
1.40029e-06
1.74676e-06
2.15752e-06
2.64096e-06
3.19688e-06
3.82623e-06
4.52547e-06
5.27162e-06
6.04053e-06
6.79624e-06
7.49082e-06
8.06661e-06
8.46225e-06
8.62265e-06
8.51571e-06
8.13882e-06
7.53072e-06
6.76552e-06
5.87933e-06
4.94872e-06
4.04271e-06
3.21905e-06
2.50984e-06
1.92399e-06
1.45456e-06
1.0868e-06
8.03638e-07
5.88637e-07
4.27297e-07
3.07468e-07
2.19306e-07
1.55018e-07
1.08547e-07
7.52488e-08
5.16048e-08
3.49754e-08
2.33989e-08
1.54293e-08
1.001e-08
6.37515e-09
3.97513e-09
2.42033e-09
1.43367e-09
8.22455e-10
4.54478e-10
2.40517e-10
1.21189e-10
5.70927e-11
2.41855e-11
9.21908e-12
3.08272e-12
8.79136e-13
2.04826e-13
2.65092e-14
1.41596e-17
9.27756e-17
3.70471e-16
1.28529e-15
3.9957e-15
1.13082e-14
2.95415e-14
7.20775e-14
1.65831e-13
3.62591e-13
7.58274e-13
1.52277e-12
2.95175e-12
5.54604e-12
1.01347e-11
1.80638e-11
3.14808e-11
5.37572e-11
9.01072e-11
1.48481e-10
2.40833e-10
3.84903e-10
6.06672e-10
9.43714e-10
1.44971e-09
2.20044e-09
3.30169e-09
4.89953e-09
7.19349e-09
1.04534e-08
1.50405e-08
2.14338e-08
3.02621e-08
4.23433e-08
5.87305e-08
8.07664e-08
1.10146e-07
1.48984e-07
1.99894e-07
2.66065e-07
3.51335e-07
4.60264e-07
5.9818e-07
7.71194e-07
9.86165e-07
1.25059e-06
1.57235e-06
1.95903e-06
2.41699e-06
2.95512e-06
3.57247e-06
4.26949e-06
5.0415e-06
5.86127e-06
6.70083e-06
7.51913e-06
8.26219e-06
8.86608e-06
9.26417e-06
9.3987e-06
9.23979e-06
8.78979e-06
8.09698e-06
7.2461e-06
6.26837e-06
5.25578e-06
4.27997e-06
3.39998e-06
2.64649e-06
2.02648e-06
1.53094e-06
1.14335e-06
8.45228e-07
6.19005e-07
4.49306e-07
3.23295e-07
2.30591e-07
1.62993e-07
1.14129e-07
7.91147e-08
5.42516e-08
3.67649e-08
2.45919e-08
1.62124e-08
1.05151e-08
6.69448e-09
4.17246e-09
2.5392e-09
1.50322e-09
8.6179e-10
4.75869e-10
2.51636e-10
1.26679e-10
5.96219e-11
2.52301e-11
9.61123e-12
3.21158e-12
9.1519e-13
2.13064e-13
2.75607e-14
1.53392e-17
1.00538e-16
4.01714e-16
1.39473e-15
4.33954e-15
1.22921e-14
3.21405e-14
7.84879e-14
1.80733e-13
3.95494e-13
8.27702e-13
1.66337e-12
3.22631e-12
6.06526e-12
1.10889e-11
1.97728e-11
3.44717e-11
5.88824e-11
9.87226e-11
1.62709e-10
2.63948e-10
4.21883e-10
6.64982e-10
1.0344e-09
1.5889e-09
2.41142e-09
3.61763e-09
5.36715e-09
7.87787e-09
1.14442e-08
1.64601e-08
2.34472e-08
3.309e-08
4.62776e-08
6.4154e-08
8.81763e-08
1.20181e-07
1.6246e-07
2.17839e-07
2.89762e-07
3.82371e-07
5.00579e-07
6.50116e-07
8.37547e-07
1.07022e-06
1.35614e-06
1.70373e-06
2.12074e-06
2.61429e-06
3.19346e-06
3.85681e-06
4.60432e-06
5.43035e-06
6.30433e-06
7.19537e-06
8.05858e-06
8.83549e-06
9.45761e-06
9.85469e-06
9.96736e-06
9.76774e-06
9.26204e-06
8.50582e-06
7.59147e-06
6.54797e-06
5.47607e-06
4.45055e-06
3.52987e-06
2.74462e-06
2.10014e-06
1.58588e-06
1.18406e-06
8.75186e-07
6.40896e-07
4.65182e-07
3.34717e-07
2.3874e-07
1.68754e-07
1.18162e-07
8.19083e-08
5.61643e-08
3.80579e-08
2.54537e-08
1.67778e-08
1.08796e-08
6.9248e-09
4.31466e-09
2.62478e-09
1.55323e-09
8.90039e-10
4.91205e-10
2.5959e-10
1.30598e-10
6.14218e-11
2.59777e-11
9.88878e-12
3.30198e-12
9.40315e-13
2.18782e-13
2.82896e-14
1.61435e-17
1.05831e-16
4.23031e-16
1.46951e-15
4.5748e-15
1.29663e-14
3.39237e-14
8.28915e-14
1.90981e-13
4.18139e-13
8.75516e-13
1.76025e-12
3.41556e-12
6.42324e-12
1.17468e-11
2.09512e-11
3.65337e-11
6.2415e-11
1.04659e-10
1.72508e-10
2.7986e-10
4.47323e-10
7.05068e-10
1.0967e-09
1.68444e-09
2.5561e-09
3.83408e-09
5.6872e-09
8.3458e-09
1.2121e-08
1.74286e-08
2.48193e-08
3.50149e-08
4.89525e-08
6.78371e-08
9.32023e-08
1.2698e-07
1.71579e-07
2.29966e-07
3.05757e-07
4.03294e-07
5.27724e-07
6.85043e-07
8.82113e-07
1.12661e-06
1.42686e-06
1.79162e-06
2.22875e-06
2.74588e-06
3.35219e-06
4.04587e-06
4.82658e-06
5.688e-06
6.59728e-06
7.52158e-06
8.41345e-06
9.21149e-06
9.84429e-06
1.02394e-05
1.03366e-05
1.01094e-05
9.56641e-06
8.7688e-06
7.81378e-06
6.72957e-06
5.61816e-06
4.56019e-06
3.61328e-06
2.80763e-06
2.14744e-06
1.62118e-06
1.21023e-06
8.94455e-07
6.54983e-07
4.75404e-07
3.42074e-07
2.43991e-07
1.72467e-07
1.20762e-07
8.37096e-08
5.73977e-08
3.88916e-08
2.60093e-08
1.71423e-08
1.11145e-08
7.07313e-09
4.40618e-09
2.67982e-09
1.58535e-09
9.08161e-10
5.01028e-10
2.64679e-10
1.33104e-10
6.25781e-11
2.64543e-11
1.00653e-11
3.3593e-12
9.56196e-13
2.22385e-13
2.87479e-14
1.65529e-17
1.08524e-16
4.33868e-16
1.50745e-15
4.69403e-15
1.33077e-14
3.48263e-14
8.51199e-14
1.96167e-13
4.29598e-13
8.99714e-13
1.80928e-12
3.51137e-12
6.60449e-12
1.208e-11
2.1548e-11
3.7578e-11
6.4204e-11
1.07665e-10
1.7747e-10
2.87914e-10
4.60198e-10
7.25348e-10
1.1282e-09
1.73274e-09
2.62921e-09
3.9434e-09
5.84877e-09
8.58191e-09
1.24622e-08
1.79167e-08
2.55104e-08
3.59839e-08
5.02983e-08
6.9689e-08
9.57278e-08
1.30394e-07
1.76155e-07
2.36049e-07
3.13774e-07
4.13774e-07
5.4131e-07
7.02513e-07
9.04389e-07
1.15477e-06
1.46216e-06
1.83546e-06
2.28256e-06
2.81138e-06
3.43114e-06
4.13981e-06
4.93691e-06
5.81576e-06
6.74237e-06
7.68292e-06
8.5887e-06
9.39687e-06
1.00346e-05
1.04283e-05
1.05176e-05
1.02766e-05
9.71522e-06
8.89717e-06
7.9221e-06
6.81798e-06
5.68744e-06
4.61355e-06
3.65387e-06
2.83828e-06
2.17045e-06
1.63834e-06
1.22296e-06
9.03831e-07
6.61841e-07
4.80381e-07
3.45659e-07
2.4655e-07
1.74278e-07
1.2203e-07
8.45884e-08
5.79996e-08
3.92986e-08
2.62806e-08
1.73202e-08
1.12291e-08
7.14553e-09
4.45084e-09
2.70667e-09
1.60103e-09
9.17001e-10
5.05822e-10
2.67165e-10
1.3433e-10
6.31398e-11
2.66854e-11
1.01507e-11
3.38699e-12
9.63856e-13
2.24121e-13
2.89688e-14
1.65488e-17
1.08497e-16
4.33758e-16
1.50706e-15
4.69279e-15
1.33041e-14
3.48166e-14
8.50958e-14
1.9611e-13
4.29471e-13
8.99446e-13
1.80874e-12
3.51032e-12
6.60253e-12
1.20764e-11
2.15418e-11
3.75674e-11
6.41864e-11
1.07636e-10
1.77424e-10
2.87842e-10
4.60087e-10
7.25181e-10
1.12795e-09
1.73238e-09
2.62869e-09
3.94266e-09
5.84773e-09
8.58048e-09
1.24603e-08
1.79142e-08
2.55071e-08
3.59795e-08
5.02927e-08
6.96819e-08
9.57191e-08
1.30384e-07
1.76142e-07
2.36034e-07
3.13756e-07
4.13755e-07
5.4129e-07
7.02491e-07
9.04367e-07
1.15475e-06
1.46214e-06
1.83545e-06
2.28256e-06
2.81139e-06
3.43116e-06
4.13985e-06
4.93696e-06
5.81583e-06
6.74246e-06
7.68302e-06
8.5888e-06
9.39696e-06
1.00347e-05
1.04283e-05
1.05175e-05
1.02765e-05
9.71503e-06
8.89694e-06
7.92185e-06
6.81774e-06
5.68721e-06
4.61334e-06
3.6537e-06
2.83815e-06
2.17036e-06
1.63828e-06
1.22292e-06
9.03807e-07
6.61827e-07
4.80375e-07
3.45657e-07
2.4655e-07
1.7428e-07
1.22033e-07
8.45908e-08
5.80018e-08
3.93004e-08
2.6282e-08
1.73214e-08
1.12299e-08
7.14613e-09
4.45125e-09
2.70694e-09
1.6012e-09
9.17112e-10
5.05888e-10
2.67203e-10
1.34351e-10
6.31504e-11
2.66901e-11
1.01526e-11
3.38766e-12
9.64062e-13
2.24173e-13
2.89758e-14
1.61315e-17
1.05752e-16
4.22711e-16
1.46836e-15
4.57111e-15
1.29555e-14
3.38949e-14
8.28196e-14
1.90812e-13
4.17764e-13
8.74724e-13
1.75865e-12
3.41248e-12
6.41748e-12
1.17364e-11
2.09331e-11
3.65027e-11
6.23634e-11
1.04575e-10
1.72374e-10
2.7965e-10
4.47e-10
7.0458e-10
1.09597e-09
1.68338e-09
2.55457e-09
3.8319e-09
5.68416e-09
8.34162e-09
1.21153e-08
1.7421e-08
2.48093e-08
3.50019e-08
4.8936e-08
6.78164e-08
9.31766e-08
1.26949e-07
1.71542e-07
2.29923e-07
3.05707e-07
4.03238e-07
5.27662e-07
6.84979e-07
8.82048e-07
1.12654e-06
1.42681e-06
1.79158e-06
2.22875e-06
2.7459e-06
3.35226e-06
4.04597e-06
4.82673e-06
5.6882e-06
6.59754e-06
7.52187e-06
8.41375e-06
9.21175e-06
9.84446e-06
1.02394e-05
1.03364e-05
1.01091e-05
9.56586e-06
8.76812e-06
7.81306e-06
6.72885e-06
5.61746e-06
4.55958e-06
3.61278e-06
2.80726e-06
2.14717e-06
1.62099e-06
1.21011e-06
8.94385e-07
6.54945e-07
4.75386e-07
3.4207e-07
2.43993e-07
1.72474e-07
1.2077e-07
8.37171e-08
5.74044e-08
3.88973e-08
2.60139e-08
1.71458e-08
1.1117e-08
7.07498e-09
4.40746e-09
2.68067e-09
1.58591e-09
9.08508e-10
5.01237e-10
2.64802e-10
1.33174e-10
6.2612e-11
2.64691e-11
1.00712e-11
3.36141e-12
9.56843e-13
2.22548e-13
2.87701e-14
1.53104e-17
1.00352e-16
4.00987e-16
1.39226e-15
4.33195e-15
1.22708e-14
3.20853e-14
7.8354e-14
1.80427e-13
3.94829e-13
8.26322e-13
1.66063e-12
3.22107e-12
6.05558e-12
1.10715e-11
1.97426e-11
3.44204e-11
5.87973e-11
9.85842e-11
1.62488e-10
2.63603e-10
4.21353e-10
6.6418e-10
1.03321e-09
1.58716e-09
2.4089e-09
3.61405e-09
5.36214e-09
7.87097e-09
1.14349e-08
1.64475e-08
2.34306e-08
3.30685e-08
4.62501e-08
6.41193e-08
8.81332e-08
1.20129e-07
1.62397e-07
2.17765e-07
2.89675e-07
3.82273e-07
5.00471e-07
6.50001e-07
8.37427e-07
1.0701e-06
1.35604e-06
1.70364e-06
2.12071e-06
2.6143e-06
3.19353e-06
3.85693e-06
4.60452e-06
5.43063e-06
6.30469e-06
7.19578e-06
8.059e-06
8.83586e-06
9.45785e-06
9.85471e-06
9.96708e-06
9.76715e-06
9.26116e-06
8.50475e-06
7.59032e-06
6.54683e-06
5.47495e-06
4.44956e-06
3.52907e-06
2.74402e-06
2.09971e-06
1.58559e-06
1.18388e-06
8.7508e-07
6.40841e-07
4.6516e-07
3.34714e-07
2.38748e-07
1.68767e-07
1.18177e-07
8.19223e-08
5.61767e-08
3.80681e-08
2.54619e-08
1.67841e-08
1.08842e-08
6.92811e-09
4.31695e-09
2.62631e-09
1.55422e-09
8.90653e-10
4.91571e-10
2.598e-10
1.30714e-10
6.14829e-11
2.60054e-11
9.90011e-12
3.30608e-12
9.4159e-13
2.19105e-13
2.83337e-14
1.41163e-17
9.24973e-17
3.69392e-16
1.28168e-15
3.98478e-15
1.1278e-14
2.9464e-14
7.1891e-14
1.65407e-13
3.61677e-13
7.56388e-13
1.51904e-12
2.94468e-12
5.53302e-12
1.01115e-11
1.80234e-11
3.14124e-11
5.36438e-11
8.99232e-11
1.48188e-10
2.40374e-10
3.84198e-10
6.05605e-10
9.42125e-10
1.44738e-09
2.19707e-09
3.29691e-09
4.89282e-09
7.18422e-09
1.04408e-08
1.50236e-08
2.14114e-08
3.02329e-08
4.23058e-08
5.8683e-08
8.0707e-08
1.10073e-07
1.48896e-07
1.99789e-07
2.65942e-07
3.51194e-07
4.60106e-07
5.98008e-07
7.71012e-07
9.85981e-07
1.25041e-06
1.5722e-06
1.95894e-06
2.41694e-06
2.95514e-06
3.57256e-06
4.26967e-06
5.0418e-06
5.86167e-06
6.7013e-06
7.51963e-06
8.26265e-06
8.86637e-06
9.2642e-06
9.39834e-06
9.23902e-06
8.78863e-06
8.09555e-06
7.24456e-06
6.26675e-06
5.25424e-06
4.27864e-06
3.3989e-06
2.64569e-06
2.02592e-06
1.53057e-06
1.14312e-06
8.45096e-07
6.18941e-07
4.49285e-07
3.23298e-07
2.30608e-07
1.63016e-07
1.14152e-07
7.91366e-08
5.42706e-08
3.67804e-08
2.46042e-08
1.62217e-08
1.0522e-08
6.69946e-09
4.17592e-09
2.54153e-09
1.50473e-09
8.62735e-10
4.76434e-10
2.51958e-10
1.26854e-10
5.97104e-11
2.52708e-11
9.62802e-12
3.21773e-12
9.17125e-13
2.1356e-13
2.76288e-14
1.26024e-17
8.25455e-17
3.29407e-16
1.14187e-15
3.54628e-15
1.00251e-14
2.61585e-14
6.37474e-14
1.46495e-13
3.19961e-13
6.68442e-13
1.34108e-12
2.59737e-12
4.87655e-12
8.90545e-12
1.58637e-11
2.7633e-11
4.71668e-11
7.90327e-11
1.30195e-10
2.11128e-10
3.37379e-10
5.31725e-10
8.27126e-10
1.2707e-09
1.929e-09
2.89503e-09
4.29731e-09
6.31157e-09
9.17575e-09
1.32087e-08
1.88338e-08
2.66076e-08
3.72546e-08
5.17093e-08
7.11648e-08
9.7129e-08
1.31488e-07
1.76573e-07
2.35235e-07
3.10912e-07
4.07698e-07
5.30383e-07
6.84478e-07
8.76185e-07