/*--------------------------------*- C++ -*----------------------------------*\
| =========                 |                                                 |
| \\      /  F ield         | OpenFOAM: The Open Source CFD Toolbox           |
|  \\    /   O peration     | Version:  2206                                  |
|   \\  /    A nd           | Website:  www.openfoam.com                      |
|    \\/     M anipulation  |                                                 |
\*---------------------------------------------------------------------------*/
FoamFile
{
    version     2.0;
    format      ascii;
    arch        "LSB;label=64;scalar=64";
    class       volScalarField;
    location    "0.01";
    object      O2;
}
// * * * * * * * * * * * * * * * * * * * * * * * * * * * * * * * * * * * * * //

dimensions      [0 0 0 0 0 0 0];

internalField   nonuniform List<scalar> 
4000
(
6.31058e-18
3.72814e-17
1.27754e-16
3.79431e-16
1.015e-15
2.48995e-15
5.69404e-15
1.22919e-14
2.52468e-14
4.95634e-14
9.3283e-14
1.68598e-13
2.9386e-13
4.95899e-13
8.13319e-13
1.30106e-12
2.03674e-12
3.12942e-12
4.73183e-12
7.05743e-12
1.04044e-11
1.51906e-11
2.19237e-11
3.14933e-11
4.49522e-11
6.37495e-11
9.00307e-11
1.26748e-10
1.7783e-10
2.48726e-10
3.46938e-10
4.82794e-10
6.7038e-10
9.29049e-10
1.28559e-09
1.77689e-09
2.45397e-09
3.38728e-09
4.67582e-09
6.45828e-09
8.92092e-09
1.23192e-08
1.70318e-08
2.36328e-08
3.29056e-08
4.59148e-08
6.41958e-08
8.99121e-08
1.26208e-07
1.77347e-07
2.50359e-07
3.53852e-07
4.99681e-07
7.05075e-07
9.95057e-07
1.40445e-06
1.98095e-06
2.79114e-06
3.92807e-06
5.52045e-06
7.74679e-06
1.08537e-05
1.51806e-05
2.11975e-05
2.95477e-05
4.11112e-05
5.70881e-05
7.91052e-05
0.000109379
0.000150631
0.000207312
0.000284665
0.000389884
0.000532506
0.00072514
0.000984379
0.001332
0.00179638
0.00241395
0.00323273
0.00430395
0.0057004
0.00755016
0.0099543
0.0130618
0.0170504
0.0221334
0.0285642
0.036644
0.0466945
0.0589811
0.0737177
0.0910327
0.110907
0.132979
0.156388
0.179442
0.200012
0.216105
0.227005
2.50597e-17
1.48403e-16
5.1081e-16
1.52539e-15
4.1001e-15
1.00832e-14
2.30447e-14
4.95992e-14
1.01482e-13
1.98571e-13
3.73073e-13
6.7404e-13
1.17584e-12
1.98809e-12
3.26964e-12
5.24812e-12
8.24731e-12
1.27253e-11
1.93279e-11
2.89639e-11
4.29093e-11
6.29552e-11
9.16153e-11
1.32427e-10
1.90369e-10
2.71277e-10
3.8535e-10
5.46754e-10
7.72898e-10
1.08934e-09
1.53124e-09
2.14737e-09
3.0051e-09
4.19746e-09
5.85309e-09
8.14955e-09
1.13318e-08
1.57373e-08
2.18302e-08
3.02492e-08
4.18696e-08
5.78931e-08
7.99638e-08
1.10351e-07
1.52201e-07
2.09748e-07
2.888e-07
3.97296e-07
5.46106e-07
7.49667e-07
1.02802e-06
1.41001e-06
1.9315e-06
2.64278e-06
3.61198e-06
4.93105e-06
6.72375e-06
9.15673e-06
1.24538e-05
1.69147e-05
2.29408e-05
3.10675e-05
4.20066e-05
5.67079e-05
7.64325e-05
0.000102855
0.0001382
0.000185248
0.000247442
0.000330685
0.000441201
0.000587451
0.000780513
0.00103476
0.0013686
0.00180545
0.00237582
0.00312057
0.00408044
0.00530565
0.00690808
0.00896178
0.0115901
0.0149504
0.0192014
0.024511
0.0310876
0.0391619
0.0489482
0.060658
0.0745006
0.0905888
0.108845
0.128861
0.149846
0.170576
0.18987
0.206403
0.219019
0.227607
9.46326e-17
5.53533e-16
1.88207e-15
5.55886e-15
1.48159e-14
3.62093e-14
8.23314e-14
1.76351e-13
3.5918e-13
7.00111e-13
1.31184e-12
2.36723e-12
4.12969e-12
6.99012e-12
1.1518e-11
1.85327e-11
2.92035e-11
4.51875e-11
6.88236e-11
1.03401e-10
1.53535e-10
2.25681e-10
3.28863e-10
4.75648e-10
6.83581e-10
9.76978e-10
1.3895e-09
1.96773e-09
2.77592e-09
3.90289e-09
5.47114e-09
7.6492e-09
1.06686e-08
1.48469e-08
2.06196e-08
2.8582e-08
3.95478e-08
5.46266e-08
7.53295e-08
1.0371e-07
1.42551e-07
1.95622e-07
2.68019e-07
3.66624e-07
5.00702e-07
6.82704e-07
9.29329e-07
1.26295e-06
1.7135e-06
2.31981e-06
3.13381e-06
4.23177e-06
5.70401e-06
7.67493e-06
1.03091e-05
1.38236e-05
1.85044e-05
2.47271e-05
3.29839e-05
4.39188e-05
5.83716e-05
7.74354e-05
0.000102529
0.000135489
0.000178686
0.000235168
0.00030868
0.000403542
0.000527542
0.000688384
0.000896371
0.00116448
0.00150915
0.00195201
0.00251933
0.00323848
0.00414294
0.00530493
0.00676946
0.00861263
0.0109231
0.013797
0.017333
0.021638
0.0268497
0.0331187
0.0407171
0.0498136
0.0605101
0.0729078
0.0870939
0.103055
0.120642
0.139456
0.158821
0.177783
0.195073
0.209462
0.220399
0.227896
3.06643e-16
1.77262e-15
5.94892e-15
1.73346e-14
4.56143e-14
1.10172e-13
2.4774e-13
5.24988e-13
1.05836e-12
2.04366e-12
3.7984e-12
6.80918e-12
1.18204e-11
1.9938e-11
3.27764e-11
5.26613e-11
8.291e-11
1.2822e-10
1.95208e-10
2.93152e-10
4.35022e-10
6.38898e-10
9.29917e-10
1.34291e-09
1.92592e-09
2.74533e-09
3.89284e-09
5.49452e-09
7.72349e-09
1.0817e-08
1.50997e-08
2.10147e-08
2.91661e-08
4.03757e-08
5.57592e-08
7.68286e-08
1.05629e-07
1.4492e-07
1.98419e-07
2.71124e-07
3.69735e-07
5.03217e-07
6.83545e-07
9.26675e-07
1.25382e-06
1.69311e-06
2.28179e-06
3.06904e-06
4.11966e-06
5.51688e-06
7.36891e-06
9.83417e-06
1.30962e-05
1.74035e-05
2.30794e-05
3.05425e-05
4.03343e-05
5.3153e-05
6.98964e-05
9.1716e-05
0.000120084
0.000156881
0.000204494
0.000265956
0.000345105
0.000446797
0.000576065
0.000740644
0.00095191
0.00122045
0.00156082
0.00199029
0.00252464
0.00320287
0.0040502
0.0051053
0.00641473
0.00803422
0.0100247
0.0124558
0.015416
0.0190149
0.0233851
0.0286205
0.034859
0.0422691
0.0508889
0.0608189
0.0721821
0.0850396
0.0993088
0.11488
0.131568
0.149015
0.166567
0.183289
0.198534
0.211386
0.221248
0.228069
8.47603e-16
4.84608e-15
1.60602e-14
4.61578e-14
1.19803e-13
2.85579e-13
6.34152e-13
1.32759e-12
2.64521e-12
5.05181e-12
9.2946e-12
1.65161e-11
2.8463e-11
4.77272e-11
7.80898e-11
1.24993e-10
1.96185e-10
3.0261e-10
4.59628e-10
6.88691e-10
1.01965e-09
1.49388e-09
2.16864e-09
3.12267e-09
4.4645e-09
6.34308e-09
8.96241e-09
1.26013e-08
1.76399e-08
2.45956e-08
3.41709e-08
4.73178e-08
6.53235e-08
8.99247e-08
1.2346e-07
1.69069e-07
2.30964e-07
3.14773e-07
4.28011e-07
5.80676e-07
7.86048e-07
1.06172e-06
1.43095e-06
1.92438e-06
2.58233e-06
3.4577e-06
4.61968e-06
6.1586e-06
8.19209e-06
1.08699e-05
1.43818e-05
1.90067e-05
2.50596e-05
3.29631e-05
4.32582e-05
5.66359e-05
7.39761e-05
9.63956e-05
0.000125308
0.000162496
0.000210202
0.000271239
0.00034912
0.000448199
0.000573876
0.000732693
0.000931653
0.00118353
0.0014965
0.00189134
0.00238267
0.00299213
0.00374559
0.00467454
0.00581518
0.00720998
0.00890808
0.0109666
0.0134522
0.0164398
0.0200085
0.02424
0.0292183
0.0350745
0.0419087
0.0498127
0.05886
0.0691054
0.0805754
0.0932533
0.107103
0.121966
0.137717
0.154182
0.170634
0.186397
0.200565
0.212514
0.221737
0.228166
1.98866e-15
1.1264e-14
3.69387e-14
1.04962e-13
2.69362e-13
6.35126e-13
1.39558e-12
2.89163e-12
5.70341e-12
1.0786e-11
1.96579e-11
3.46378e-11
5.92537e-11
9.87286e-11
1.60667e-10
2.5599e-10
4.00205e-10
6.15147e-10
9.31345e-10
1.39127e-09
2.05373e-09
2.99987e-09
4.34125e-09
6.23095e-09
8.87835e-09
1.25691e-08
1.76921e-08
2.47753e-08
3.45341e-08
4.79355e-08
6.62833e-08
9.13322e-08
1.25437e-07
1.71753e-07
2.34493e-07
3.19276e-07
4.33572e-07
5.87288e-07
7.93539e-07
1.06963e-06
1.43835e-06
1.92962e-06
2.58263e-06
3.4486e-06
4.59423e-06
6.10619e-06
8.09682e-06
1.07112e-05
1.41364e-05
1.86088e-05
2.44214e-05
3.20064e-05
4.18417e-05
5.45623e-05
7.09717e-05
9.20832e-05
0.00011917
0.000153829
0.00019805
0.00025431
0.00032566
0.000415919
0.000529848
0.000673069
0.000851152
0.00107331
0.00135166
0.00169714
0.00212443
0.00265142
0.00329878
0.00409104
0.00505698
0.00623019
0.00764942
0.0093591
0.0114097
0.0138582
0.0167679
0.0202083
0.0242543
0.0289856
0.034485
0.0408359
0.0481177
0.0563994
0.0657342
0.0761517
0.0876491
0.100178
0.113639
0.127922
0.142837
0.158318
0.173797
0.188542
0.20191
0.213249
0.222051
0.228227
4.00936e-15
2.25412e-14
7.3325e-14
2.06581e-13
5.25731e-13
1.22977e-12
2.68144e-12
5.51377e-12
1.07928e-11
2.0257e-11
3.66443e-11
6.41233e-11
1.09004e-10
1.80599e-10
2.92428e-10
4.63851e-10
7.22273e-10
1.10616e-09
1.6691e-09
2.48534e-09
3.65725e-09
5.32541e-09
7.6822e-09
1.09902e-08
1.56065e-08
2.20158e-08
3.08738e-08
4.30662e-08
5.9785e-08
8.26323e-08
1.13755e-07
1.56022e-07
2.13262e-07
2.90566e-07
3.94694e-07
5.34591e-07
7.22071e-07
9.72693e-07
1.3069e-06
1.75147e-06
2.3414e-06
3.1223e-06
4.15344e-06
5.51163e-06
7.29614e-06
9.63487e-06
1.26921e-05
1.66784e-05
2.18625e-05
2.8582e-05
3.72472e-05
4.84663e-05
6.28986e-05
8.14139e-05
0.000105101
0.000135319
0.000173757
0.000222503
0.000284156
0.000361964
0.000459371
0.000581029
0.000733879
0.000923974
0.00115846
0.00144717
0.00180579
0.00224583
0.00278405
0.00344004
0.00423661
0.00520018
0.00636118
0.00775441
0.00941935
0.0114004
0.0137471
0.0165141
0.0197609
0.0235513
0.0279531
0.0330363
0.0388717
0.0455289
0.0530699
0.0615454
0.0709916
0.081423
0.0928241
0.10514
0.118262
0.132038
0.146347
0.161085
0.175909
0.190023
0.202843
0.213755
0.222265
0.228267
7.06564e-15
3.9507e-14
1.27785e-13
3.57942e-13
9.0597e-13
2.10842e-12
4.5747e-12
9.36053e-12
1.823e-11
3.40392e-11
6.12535e-11
1.06645e-10
1.80419e-10
2.97586e-10
4.79867e-10
7.58265e-10
1.17654e-09
1.79593e-09
2.70142e-09
4.01036e-09
5.88385e-09
8.54219e-09
1.22855e-08
1.75212e-08
2.4801e-08
3.48697e-08
4.87296e-08
6.77273e-08
9.36657e-08
1.28954e-07
1.76803e-07
2.4148e-07
3.28645e-07
4.45783e-07
6.02767e-07
8.12592e-07
1.09231e-06
1.46424e-06
1.95752e-06
2.61008e-06
3.47116e-06
4.6045e-06
6.09237e-06
8.04068e-06
1.05853e-05
1.39e-05
1.82065e-05
2.37866e-05
3.09972e-05
4.02846e-05
5.21806e-05
6.74804e-05
8.70285e-05
0.000111934
0.000143572
0.000183643
0.00023428
0.00029785
0.000377377
0.000477364
0.00060192
0.000756652
0.00094833
0.001184
0.00147227
0.00182796
0.0022625
0.00279121
0.00343204
0.00420585
0.00513663
0.0062518
0.00758249
0.00916379
0.0110349
0.0132393
0.0158245
0.0188424
0.0223482
0.0264005
0.0310601
0.0363887
0.0424476
0.0492951
0.0569845
0.0655552
0.0750311
0.0854179
0.0966943
0.108804
0.121642
0.135051
0.148908
0.163095
0.177439
0.191095
0.203518
0.214119
0.222418
0.228296
1.11022e-14
6.18433e-14
1.99299e-13
5.56313e-13
1.40365e-12
3.25752e-12
7.04916e-12
1.43847e-11
2.79339e-11
5.19963e-11
9.32635e-11
1.61839e-10
2.72892e-10
4.48663e-10
7.21233e-10
1.13625e-09
1.75798e-09
2.67601e-09
4.01436e-09
5.94358e-09
8.69698e-09
1.25923e-08
1.80606e-08
2.56846e-08
3.62498e-08
5.08113e-08
7.07835e-08
9.8056e-08
1.35148e-07
1.85408e-07
2.53278e-07
3.44631e-07
4.67215e-07
6.31226e-07
8.50045e-07
1.14118e-06
1.5275e-06
2.03877e-06
2.7136e-06
3.60203e-06
4.76861e-06
6.29642e-06
8.2921e-06
1.0892e-05
1.42702e-05
1.86479e-05
2.43052e-05
3.15963e-05
4.09667e-05
5.29707e-05
6.82579e-05
8.78081e-05
0.000112642
0.000144094
0.000183826
0.000233599
0.000296313
0.000374744
0.000472515
0.000594041
0.000744555
0.000930327
0.00115824
0.00143583
0.00177699
0.00219222
0.00269561
0.00330353
0.00403484
0.00491118
0.00595719
0.0072007
0.00867296
0.0104088
0.0124466
0.0148284
0.0175999
0.0208098
0.02451
0.0287541
0.0335976
0.0390958
0.0453028
0.0522695
0.0600413
0.0686542
0.0781225
0.0884471
0.0996042
0.111538
0.124148
0.137276
0.150794
0.164579
0.178565
0.191882
0.204011
0.214385
0.222528
0.228317
1.58689e-14
8.81821e-14
2.8358e-13
7.90132e-13
1.99073e-12
4.61463e-12
9.97536e-12
2.03331e-11
3.94331e-11
7.32854e-11
1.3122e-10
2.27263e-10
3.82419e-10
6.27391e-10
1.00634e-09
1.58192e-09
2.4421e-09
3.70919e-09
5.55192e-09
8.20158e-09
1.19735e-08
1.72955e-08
2.47459e-08
3.51032e-08
4.94124e-08
6.90721e-08
9.59482e-08
1.32524e-07
1.82094e-07
2.49021e-07
3.39062e-07
4.59801e-07
6.21194e-07
8.36284e-07
1.12211e-06
1.50087e-06
2.00141e-06
2.66109e-06
3.52821e-06
4.66496e-06
6.15125e-06
8.08943e-06
1.06102e-05
1.38798e-05
1.81094e-05
2.3566e-05
3.0586e-05
3.95923e-05
5.1114e-05
6.58068e-05
8.44277e-05
0.000108129
0.000138094
0.000175703
0.00022313
0.000282523
0.000356686
0.000448984
0.000563463
0.000704968
0.000879262
0.001093
0.00135238
0.00167049
0.00205679
0.00252407
0.00308711
0.0037629
0.00457087
0.00553308
0.00667444
0.00802285
0.00960935
0.0114682
0.0136369
0.0161562
0.0190696
0.0224236
0.0262668
0.0306494
0.0356225
0.0412367
0.0475412
0.0545817
0.0623985
0.0710238
0.0804694
0.0907312
0.101785
0.113575
0.126007
0.138928
0.152173
0.165677
0.179393
0.192459
0.204372
0.214578
0.222608
0.228332
2.09939e-14
1.16496e-13
3.74259e-13
1.04212e-12
2.62483e-12
6.08427e-12
1.31528e-11
2.68088e-11
5.19801e-11
9.6557e-11
1.72777e-10
2.98961e-10
5.02499e-10
8.23327e-10
1.31874e-09
2.06983e-09
3.19017e-09
4.83723e-09
7.22763e-09
1.06575e-08
1.5529e-08
2.23865e-08
3.19626e-08
4.52407e-08
6.35356e-08
8.86002e-08
1.22765e-07
1.69118e-07
2.31744e-07
3.16026e-07
4.29045e-07
5.80085e-07
7.81295e-07
1.04852e-06
1.40238e-06
1.86964e-06
2.48492e-06
3.29291e-06
4.35111e-06
5.7333e-06
7.53389e-06
9.87325e-06
1.29045e-05
1.68217e-05
2.18701e-05
2.83585e-05
3.66746e-05
4.73033e-05
6.08492e-05
7.80594e-05
9.97858e-05
0.000127297
0.00016184
0.000205367
0.000259833
0.000327779
0.000412271
0.00051699
0.000646341
0.000805572
0.0010009
0.00123812
0.00152612
0.00187799
0.00230287
0.00281413
0.00342704
0.00415902
0.00502981
0.00606166
0.00727955
0.00871126
0.0103875
0.0123419
0.0146111
0.0172344
0.020254
0.0237142
0.0276611
0.0321424
0.0372058
0.0428989
0.0492671
0.0563526
0.0641923
0.0728155
0.0822336
0.0924388
0.103406
0.115082
0.127375
0.140139
0.153188
0.166483
0.179998
0.192878
0.204633
0.214716
0.222665
0.228343
2.61005e-14
1.4473e-13
4.64848e-13
1.2945e-12
3.26186e-12
7.56551e-12
1.63659e-11
3.3378e-11
6.47448e-11
1.20292e-10
2.15257e-10
3.72376e-10
6.25598e-10
1.02432e-09
1.63926e-09
2.57034e-09
3.95709e-09
5.99259e-09
8.94179e-09
1.31658e-08
1.91538e-08
2.75658e-08
3.92874e-08
5.55036e-08
7.77934e-08
1.08256e-07
1.4967e-07
2.05709e-07
2.81212e-07
3.82537e-07
5.18016e-07
6.98541e-07
9.38309e-07
1.25578e-06
1.67489e-06
2.2266e-06
2.95083e-06
3.89894e-06
5.13677e-06
6.74853e-06
8.84159e-06
1.15524e-05
1.5054e-05
1.95648e-05
2.536e-05
3.27848e-05
4.22712e-05
5.43574e-05
6.9712e-05
8.91586e-05
0.000113629
0.00014443
0.000183242
0.000231815
0.000292413
0.000367771
0.000461179
0.00057657
0.000718623
0.000892872
0.00110544
0.00136242
0.00167617
0.00205538
0.00251178
0.00305888
0.00371219
0.00448931
0.00541012
0.00649696
0.00777472
0.00927101
0.0110162
0.0130432
0.015388
0.0180889
0.0211866
0.024724
0.0287454
0.0332962
0.0384222
0.0441684
0.0505778
0.0576902
0.0655402
0.0741551
0.0835465
0.0937041
0.104603
0.116189
0.128375
0.141018
0.153928
0.167071
0.180438
0.193182
0.204821
0.214816
0.222706
0.22835
3.08729e-14
1.7115e-13
5.4982e-13
1.53195e-12
3.86328e-12
8.96904e-12
1.94215e-11
3.96469e-11
7.69655e-11
1.43081e-10
2.56151e-10
4.43199e-10
7.44538e-10
1.21874e-09
1.94951e-09
3.05489e-09
4.69946e-09
7.11039e-09
1.05988e-08
1.55876e-08
2.26485e-08
3.25504e-08
4.63228e-08
6.53388e-08
9.14235e-08
1.26995e-07
1.75247e-07
2.40387e-07
3.27941e-07
4.45151e-07
6.01477e-07
8.09248e-07
1.08449e-06
1.44799e-06
1.92659e-06
2.55496e-06
3.37764e-06
4.45177e-06
5.85042e-06
7.66677e-06
1.00193e-05
1.30582e-05
1.69734e-05
2.20038e-05
2.84499e-05
3.66876e-05
4.71858e-05
6.05274e-05
7.74349e-05
9.87663e-05
0.000125578
0.000159248
0.000201577
0.00025441
0.000320158
0.000401719
0.000502566
0.000626839
0.000779448
0.00096619
0.00119255
0.00146642
0.00180004
0.00220166
0.00268337
0.00325898
0.00394416
0.00475663
0.00571633
0.00684557
0.00816918
0.00971452
0.0115116
0.013593
0.0159938
0.0187515
0.021906
0.0254988
0.029573
0.0341726
0.0393415
0.0451232
0.0515591
0.0586872
0.0665407
0.0751456
0.0845136
0.0946326
0.105477
0.116996
0.129101
0.141653
0.154464
0.167495
0.180756
0.193401
0.204956
0.214887
0.222735
0.228355
3.50962e-14
1.9457e-13
6.25354e-13
1.74373e-12
4.4016e-12
1.02299e-11
2.21764e-11
4.53188e-11
8.8058e-11
1.63826e-10
2.93477e-10
5.07985e-10
8.53532e-10
1.39713e-09
2.23443e-09
3.50012e-09
5.38164e-09
8.13733e-09
1.21202e-08
1.78093e-08
2.58507e-08
3.71113e-08
5.27492e-08
7.43053e-08
1.03823e-07
1.44001e-07
1.98399e-07
2.7169e-07
3.69999e-07
5.01332e-07
6.7612e-07
9.07927e-07
1.21434e-06
1.61811e-06
2.14856e-06
2.84345e-06
3.75121e-06
4.93381e-06
6.4703e-06
8.46132e-06
1.10345e-05
1.43513e-05
1.86154e-05
2.40828e-05
3.10744e-05
3.99912e-05
5.13323e-05
6.57174e-05
8.39023e-05
0.000106766
0.000135507
0.000171522
0.000216713
0.000273012
0.000342939
0.000429521
0.000536368
0.000667768
0.000828779
0.00102531
0.00126232
0.00155123
0.00189991
0.00231889
0.00282028
0.00341798
0.00412771
0.00496723
0.0059565
0.0071178
0.00847582
0.0100577
0.0118933
0.0140146
0.0164562
0.0192552
0.0224505
0.0260827
0.0301941
0.0348275
0.0400259
0.0458313
0.0522842
0.0594213
0.0672749
0.0758701
0.0852187
0.0953077
0.106112
0.11758
0.129625
0.142109
0.154847
0.1678
0.180983
0.193557
0.205052
0.214937
0.222755
0.228359
3.86657e-14
2.14398e-13
6.89471e-13
1.92405e-12
4.86142e-12
1.13105e-11
2.45451e-11
5.02106e-11
9.76534e-11
1.8182e-10
3.25916e-10
5.64413e-10
9.48626e-10
1.55298e-09
2.48358e-09
3.88966e-09
5.97866e-09
9.03598e-09
1.34511e-08
1.97515e-08
2.86474e-08
4.10899e-08
5.83473e-08
8.21032e-08
1.14586e-07
1.58733e-07
2.1841e-07
2.9868e-07
4.0617e-07
5.49516e-07
7.39956e-07
9.92068e-07
1.32472e-06
1.76226e-06
2.33603e-06
3.08631e-06
4.06463e-06
5.33686e-06
6.98685e-06
9.12114e-06
1.18747e-05
1.54178e-05
1.99652e-05
2.57861e-05
3.32175e-05
4.26801e-05
5.46967e-05
6.99157e-05
8.90932e-05
0.000113208
0.000143475
0.000181341
0.00022879
0.00028782
0.00036104
0.000451575
0.000563147
0.000700166
0.00086782
0.00107183
0.00131773
0.00161711
0.00197764
0.00241001
0.00292644
0.00354089
0.00426913
0.00512892
0.00614023
0.00732528
0.00870867
0.0103174
0.0121809
0.0143312
0.0168023
0.0196307
0.0228549
0.026515
0.0306524
0.0353091
0.0405274
0.0463487
0.0528123
0.0599545
0.0678067
0.0763935
0.0857269
0.095793
0.106567
0.117997
0.129999
0.142434
0.15512
0.168017
0.181144
0.193668
0.205119
0.214972
0.222768
0.228361
4.15577e-14
2.30487e-13
7.41612e-13
2.07106e-12
5.23726e-12
1.21959e-11
2.6491e-11
5.42393e-11
1.05574e-10
1.96705e-10
3.52801e-10
6.11261e-10
1.02769e-09
1.68269e-09
2.69112e-09
4.21434e-09
6.47638e-09
9.78517e-09
1.45603e-08
2.13694e-08
3.09753e-08
4.43986e-08
6.29971e-08
8.85713e-08
1.235e-07
1.70913e-07
2.34922e-07
3.20906e-07
4.35889e-07
5.89015e-07
7.92157e-07
1.0607e-06
1.41451e-06
1.8792e-06
2.4877e-06
3.28221e-06
4.31672e-06
5.66008e-06
7.39986e-06
9.64714e-06
1.25424e-05
1.62629e-05
2.10314e-05
2.71273e-05
3.48997e-05
4.47835e-05
5.73185e-05
7.31683e-05
9.30931e-05
0.000118238
0.000149657
0.00018893
0.000238099
0.000299212
0.000374942
0.00046849
0.000583663
0.000724962
0.000897672
0.00110728
0.00135988
0.00166707
0.00203649
0.00247885
0.00300648
0.00363331
0.00437515
0.00524979
0.00627716
0.00747944
0.00888115
0.0105092
0.0123928
0.0145636
0.0170556
0.0199048
0.0231493
0.0268287
0.030984
0.0356567
0.0408885
0.0467202
0.0531906
0.0603355
0.0681859
0.0767659
0.0860877
0.0961369
0.106889
0.118292
0.130262
0.142662
0.155311
0.168169
0.181257
0.193744
0.205166
0.214996
0.222779
0.228363
4.37908e-14
2.42933e-13
7.82046e-13
2.18531e-12
5.52991e-12
1.28867e-11
2.80118e-11
5.73933e-11
1.11785e-10
2.08396e-10
3.73944e-10
6.48151e-10
1.09001e-09
1.78504e-09
2.85497e-09
4.47077e-09
6.86956e-09
1.0377e-08
1.54364e-08
2.26466e-08
3.28121e-08
4.7007e-08
6.66594e-08
9.36601e-08
1.30503e-07
1.80469e-07
2.47857e-07
3.38289e-07
4.59091e-07
6.19792e-07
8.32751e-07
1.11395e-06
1.48404e-06
1.96955e-06
2.6046e-06
3.43286e-06
4.51012e-06
5.90745e-06
7.71517e-06
1.00477e-05
1.30497e-05
1.69034e-05
2.18376e-05
2.81391e-05
3.61659e-05
4.63637e-05
5.92854e-05
7.56e-05
9.61029e-05
0.000121962
0.000154242
0.000194555
0.000244991
0.000307633
0.000385205
0.000480963
0.000598775
0.000743211
0.000919622
0.00113325
0.00139075
0.00170363
0.00207952
0.00252912
0.00306478
0.00370048
0.00445202
0.0053372
0.00637594
0.00759038
0.00900498
0.0106465
0.0125441
0.0147293
0.0172357
0.0200993
0.0233577
0.0270504
0.0312178
0.0359013
0.0411421
0.0469806
0.0534553
0.0606016
0.0684502
0.077025
0.0863383
0.0963753
0.107111
0.118495
0.130443
0.142819
0.155442
0.168273
0.181335
0.193798
0.205199
0.215014
0.222785
0.228364
4.54023e-14
2.51926e-13
8.11332e-13
2.26828e-12
5.74298e-12
1.33906e-11
2.91231e-11
5.97009e-11
1.16334e-10
2.16967e-10
3.89459e-10
6.75243e-10
1.13581e-09
1.86029e-09
2.9755e-09
4.65945e-09
7.15891e-09
1.08125e-08
1.6081e-08
2.35861e-08
3.41625e-08
4.89236e-08
6.93484e-08
9.73932e-08
1.35637e-07
1.87466e-07
2.57316e-07
3.50983e-07
4.76011e-07
6.42205e-07
8.62266e-07
1.15262e-06
1.53442e-06
2.03492e-06
2.68904e-06
3.54148e-06
4.6493e-06
6.08515e-06
7.94126e-06
1.03344e-05
1.34121e-05
1.73601e-05
2.24115e-05
2.88581e-05
3.70643e-05
4.74833e-05
6.0677e-05
7.73154e-05
9.82234e-05
0.000124579
0.000157459
0.000198496
0.000249812
0.000313519
0.000392371
0.000489663
0.000609308
0.00075592
0.000934905
0.0011513
0.00141219
0.00172904
0.00210939
0.00256394
0.00310511
0.00374685
0.00450499
0.00539733
0.00644377
0.00766643
0.0090897
0.0107403
0.0126473
0.014842
0.0173581
0.0202312
0.0234989
0.0272003
0.0313757
0.0360662
0.0413128
0.0471557
0.053633
0.06078
0.0686272
0.0771983
0.0865056
0.0965342
0.107259
0.11863
0.130563
0.142922
0.155528
0.168342
0.181387
0.193834
0.205221
0.215025
0.22279
0.228365
4.64379e-14
2.57705e-13
8.30166e-13
2.32173e-12
5.88048e-12
1.37164e-11
2.98428e-11
6.11979e-11
1.1929e-10
2.22541e-10
3.99561e-10
6.92897e-10
1.16568e-09
1.90939e-09
3.05418e-09
4.78265e-09
7.34788e-09
1.1097e-08
1.6502e-08
2.41997e-08
3.50443e-08
5.01747e-08
7.11029e-08
9.98277e-08
1.38982e-07
1.92022e-07
2.63472e-07
3.59237e-07
4.87004e-07
6.56752e-07
8.81405e-07
1.17766e-06
1.56703e-06
2.07717e-06
2.74355e-06
3.61151e-06
4.73894e-06
6.19946e-06
8.08653e-06
1.05184e-05
1.36444e-05
1.76525e-05
2.27785e-05
2.93175e-05
3.76377e-05
4.8197e-05
6.15631e-05
7.84051e-05
9.95688e-05
0.000126238
0.000159494
0.000200987
0.000252858
0.000317232
0.000396886
0.000495138
0.000615925
0.000763891
0.000944472
0.00116256
0.00142561
0.0017451
0.00212825
0.00258587
0.00313043
0.00377591
0.00453814
0.0054349
0.00648609
0.00771382
0.00914244
0.0107986
0.0127114
0.014912
0.017434
0.0203129
0.0235862
0.0272929
0.0314732
0.0361679
0.041418
0.0472634
0.0537423
0.0608897
0.0687359
0.0773046
0.0866082
0.0966316
0.10735
0.118713
0.130637
0.142986
0.155581
0.168385
0.181419
0.193855
0.205234
0.215032
0.222792
0.228365
4.69425e-14
2.60524e-13
8.39356e-13
2.34778e-12
5.94746e-12
1.38751e-11
3.01933e-11
6.19269e-11
1.20729e-10
2.25258e-10
4.04486e-10
7.01508e-10
1.18026e-09
1.93336e-09
3.09262e-09
4.84289e-09
7.44032e-09
1.12362e-08
1.67081e-08
2.45002e-08
3.54762e-08
5.07876e-08
7.19626e-08
1.01021e-07
1.40621e-07
1.94255e-07
2.66489e-07
3.63282e-07
4.92389e-07
6.63877e-07
8.90776e-07
1.18992e-06
1.58298e-06
2.09784e-06
2.77021e-06
3.64576e-06
4.78276e-06
6.25532e-06
8.15749e-06
1.06083e-05
1.37578e-05
1.77952e-05
2.29575e-05
2.95415e-05
3.79172e-05
4.85448e-05
6.19947e-05
7.89352e-05
0.000100223
0.000127044
0.000160483
0.000202197
0.000254336
0.000319034
0.000399077
0.000497794
0.000619137
0.000767764
0.000949127
0.00116805
0.00143215
0.00175287
0.00213736
0.00259648
0.00314268
0.00378996
0.00455416
0.00545305
0.00650653
0.00773668
0.00916787
0.0108267
0.0127423
0.0149457
0.0174705
0.0203522
0.0236282
0.0273374
0.03152
0.0362169
0.0414686
0.0473153
0.0537949
0.0609425
0.0687883
0.077356
0.0866579
0.0966788
0.107394
0.118753
0.130673
0.143017
0.155608
0.168406
0.181435
0.193866
0.205241
0.215035
0.222794
0.228365
4.69235e-14
2.60423e-13
8.39049e-13
2.34697e-12
5.94551e-12
1.38707e-11
3.01841e-11
6.19087e-11
1.20695e-10
2.25195e-10
4.04377e-10
7.01325e-10
1.17996e-09
1.93289e-09
3.0919e-09
4.84181e-09
7.43875e-09
1.1234e-08
1.6705e-08
2.44959e-08
3.54704e-08
5.078e-08
7.19527e-08
1.01008e-07
1.40606e-07
1.94236e-07
2.66466e-07
3.63255e-07
4.92359e-07
6.63843e-07
8.90741e-07
1.18988e-06
1.58296e-06
2.09782e-06
2.77021e-06
3.6458e-06
4.78285e-06
6.25548e-06
8.15776e-06
1.06087e-05
1.37585e-05
1.77962e-05
2.29589e-05
2.95434e-05
3.79197e-05
4.85482e-05
6.19993e-05
7.89416e-05
0.000100231
0.000127054
0.000160497
0.000202214
0.000254358
0.000319061
0.000399112
0.000497837
0.00061919
0.000767829
0.000949207
0.00116815
0.00143226
0.00175301
0.00213753
0.00259667
0.00314291
0.00379024
0.00455447
0.00545341
0.00650695
0.00773716
0.00916842
0.0108274
0.012743
0.0149465
0.0174714
0.0203531
0.0236292
0.0273386
0.0315213
0.0362183
0.0414702
0.047317
0.0537967
0.0609445
0.0687904
0.0773582
0.0866603
0.0966815
0.107397
0.118756
0.130676
0.14302
0.15561
0.168409
0.181437
0.193868
0.205242
0.215036
0.222794
0.228365
4.63791e-14
2.57394e-13
8.29221e-13
2.31922e-12
5.87444e-12
1.3703e-11
2.98146e-11
6.11419e-11
1.19184e-10
2.2235e-10
3.99229e-10
6.92339e-10
1.16477e-09
1.90796e-09
3.052e-09
4.77941e-09
7.34316e-09
1.10903e-08
1.64926e-08
2.41868e-08
3.50269e-08
5.01518e-08
7.10732e-08
9.97899e-08
1.38935e-07
1.91964e-07
2.63403e-07
3.59156e-07
4.86911e-07
6.5665e-07
8.81298e-07
1.17756e-06
1.56694e-06
2.07712e-06
2.74355e-06
3.61162e-06
4.73921e-06
6.19996e-06
8.08736e-06
1.05197e-05
1.36464e-05
1.76554e-05
2.27825e-05
2.93231e-05
3.76454e-05
4.82074e-05
6.1577e-05
7.84241e-05
9.95933e-05
0.000126269
0.000159534
0.000201038
0.000252923
0.000317314
0.000396989
0.000495266
0.000616084
0.000764087
0.000944712
0.00116285
0.00142596
0.00174552
0.00212874
0.00258646
0.00313113
0.00377673
0.00453908
0.00543599
0.00648735
0.00771525
0.00914406
0.0108005
0.0127134
0.0149143
0.0174365
0.0203157
0.0235893
0.0272963
0.0314769
0.036172
0.0414224
0.0472682
0.0537474
0.0608952
0.0687418
0.077311
0.086615
0.0966389
0.107358
0.118721
0.130645
0.142994
0.155589
0.168392
0.181425
0.19386
0.205238
0.215034
0.222793
0.228365
4.52847e-14
2.51301e-13
8.09447e-13
2.26335e-12
5.73126e-12
1.33648e-11
2.90699e-11
5.95971e-11
1.16141e-10
2.16622e-10
3.88867e-10
6.74261e-10
1.13423e-09
1.85782e-09
2.97175e-09
4.65388e-09
7.15082e-09
1.0801e-08
1.60649e-08
2.35642e-08
3.4133e-08
4.88846e-08
6.92978e-08
9.73287e-08
1.35556e-07
1.87366e-07
2.57197e-07
3.50842e-07
4.75851e-07
6.42027e-07
8.62079e-07
1.15243e-06
1.53426e-06
2.03481e-06
2.68903e-06
3.54163e-06
4.64971e-06
6.08594e-06
7.9426e-06
1.03365e-05
1.34153e-05
1.73647e-05
2.24181e-05
2.88674e-05
3.7077e-05
4.75005e-05
6.07e-05
7.7347e-05
9.82641e-05
0.000124632
0.000157525
0.000198581
0.000249921
0.000313656
0.000392543
0.000489877
0.000609573
0.000756247
0.000935305
0.00115178
0.00141277
0.00172973
0.00211021
0.00256492
0.00310626
0.0037482
0.00450656
0.00539914
0.00644584
0.00766879
0.00909238
0.0107433
0.0126507
0.0148458
0.0173623
0.0202358
0.0235039
0.0272057
0.0313816
0.0360726
0.0413196
0.0471629
0.0536408
0.0607883
0.068636
0.0772076
0.0865154
0.0965446
0.10727
0.118641
0.130574
0.142933
0.155539
0.168352
0.181396
0.193841
0.205227
0.215029
0.222792
0.228365
4.36105e-14
2.41976e-13
7.7916e-13
2.1778e-12
5.51217e-12
1.28479e-11
2.79324e-11
5.72395e-11
1.11501e-10
2.07892e-10
3.73083e-10
6.46732e-10
1.08774e-09
1.78151e-09
2.84963e-09
4.46285e-09
6.85809e-09
1.03607e-08
1.54137e-08
2.26156e-08
3.27704e-08
4.69518e-08
6.65877e-08
9.35686e-08
1.30389e-07
1.80328e-07
2.47687e-07
3.38087e-07
4.58859e-07
6.19534e-07
8.32476e-07
1.11368e-06
1.48379e-06
1.96937e-06
2.60455e-06
3.43303e-06
4.51063e-06
5.90847e-06
7.71693e-06
1.00505e-05
1.3054e-05
1.69096e-05
2.18465e-05
2.81516e-05
3.61832e-05
4.63873e-05
5.93172e-05
7.56434e-05
9.61593e-05
0.000122036
0.000154335
0.000194674
0.000245142
0.000307824
0.000385446
0.000481263
0.000599146
0.000743668
0.000920181
0.00113393
0.00139156
0.0017046
0.00208068
0.00253048
0.00306639
0.00370236
0.0044542
0.00533972
0.00637882
0.00759367
0.00900869
0.0106507
0.0125488
0.0147344
0.0172414
0.0201055
0.0233644
0.0270576
0.0312256
0.0359096
0.0411509
0.0469898
0.0534649
0.0606117
0.0684606
0.0770357
0.0863494
0.0963867
0.107123
0.118507
0.130455
0.14283
0.155452
0.168283
0.181344
0.193806
0.205206
0.215018
0.222788
0.228365
4.13175e-14
2.29213e-13
7.37766e-13
2.06102e-12
5.21348e-12
1.21439e-11
2.63847e-11
5.4034e-11
1.05197e-10
1.9604e-10
3.51671e-10
6.0941e-10
1.02474e-09
1.67814e-09
2.68424e-09
4.20418e-09
6.46168e-09
9.76434e-09
1.45313e-08
2.13297e-08
3.09221e-08
4.43281e-08
6.29055e-08
8.84542e-08
1.23352e-07
1.70731e-07
2.34702e-07
3.20646e-07
4.35588e-07
5.88677e-07
7.91793e-07
1.06033e-06
1.41416e-06
1.87893e-06
2.48757e-06
3.28234e-06
4.31726e-06
5.66123e-06
7.4019e-06
9.65046e-06
1.25475e-05
1.62705e-05
2.10423e-05
2.71427e-05
3.4921e-05
4.48126e-05
5.73579e-05
7.32221e-05
9.31637e-05
0.00011833
0.000149775
0.000189081
0.000238292
0.000299456
0.000375249
0.000468873
0.000584138
0.000725548
0.000898389
0.00110814
0.00136092
0.00166832
0.00203798
0.00248062
0.00300855
0.00363573
0.00437796
0.00525303
0.00628087
0.00748366
0.00888591
0.0105145
0.0123987
0.0145701
0.0170627
0.0199126
0.0231577
0.0268377
0.0309935
0.0356667
0.0408989
0.0467309
0.0532015
0.0603466
0.068197
0.0767769
0.0860985
0.0961475
0.106899
0.118302
0.130271
0.14267
0.155318
0.168176
0.181263
0.193749
0.205171
0.215
0.222781
0.228364
3.83652e-14
2.12805e-13
6.84664e-13
1.91152e-12
4.83179e-12
1.12459e-11
2.44136e-11
4.99579e-11
9.71911e-11
1.8101e-10
3.24548e-10
5.62182e-10
9.45093e-10
1.54753e-09
2.47538e-09
3.87758e-09
5.96121e-09
9.01128e-09
1.34167e-08
1.97045e-08
2.85842e-08
4.10065e-08
5.82386e-08
8.19641e-08
1.14411e-07
1.58516e-07
2.18146e-07
2.98367e-07
4.05805e-07
5.49104e-07
7.39506e-07
9.91601e-07
1.32427e-06
1.76188e-06
2.33581e-06
3.08636e-06
4.06513e-06
5.33804e-06
6.98904e-06
9.12479e-06
1.18804e-05
1.54263e-05
1.99775e-05
2.58036e-05
3.32419e-05
4.27135e-05
5.47419e-05
6.99761e-05
8.91776e-05
0.000113317
0.000143615
0.000181521
0.00022902
0.000288113
0.00036141
0.000452037
0.000563722
0.000700877
0.000868693
0.00107289
0.001319
0.00161864
0.00197947
0.00241217
0.00292899
0.00354388
0.00427259
0.00513292
0.00614481
0.00733049
0.00871455
0.010324
0.0121883
0.0143392
0.0168111
0.0196403
0.0228652
0.0265259
0.0306638
0.0353209
0.0405395
0.0463609
0.0528245
0.0599664
0.0678182
0.0764043
0.085737
0.0958023
0.106575
0.118005
0.130005
0.142438
0.155123
0.168019
0.181146
0.193669
0.205119
0.214972
0.222769
0.228362
3.47439e-14
1.92705e-13
6.19737e-13
1.72913e-12
4.36723e-12
1.01554e-11
2.20254e-11
4.50301e-11
8.75325e-11
1.62909e-10
2.91936e-10