/*--------------------------------*- C++ -*----------------------------------*\
| =========                 |                                                 |
| \\      /  F ield         | OpenFOAM: The Open Source CFD Toolbox           |
|  \\    /   O peration     | Version:  2206                                  |
|   \\  /    A nd           | Website:  www.openfoam.com                      |
|    \\/     M anipulation  |                                                 |
\*---------------------------------------------------------------------------*/
FoamFile
{
    version     2.0;
    format      ascii;
    arch        "LSB;label=64;scalar=64";
    class       volScalarField;
    location    "0.01";
    object      T;
}
// * * * * * * * * * * * * * * * * * * * * * * * * * * * * * * * * * * * * * //

dimensions      [0 0 0 1 0 0 0];

internalField   nonuniform List<scalar> 
4000
(
296.504
306.919
321.562
341.155
365.527
393.714
424.204
455.294
485.419
513.386
538.462
560.3
578.939
594.592
607.545
618.102
626.548
633.137
638.096
641.617
643.874
645.023
645.204
644.55
643.174
641.18
638.656
635.68
632.317
628.621
624.64
620.415
615.979
611.37
606.622
601.786
596.946
592.165
587.569
583.345
579.423
575.609
572.067
569.513
568.246
568.158
569.052
570.863
573.714
577.827
583.38
590.064
597.209
604.674
612.662
621.245
630.253
639.566
649.118
658.838
668.684
678.632
688.653
698.734
708.853
718.983
729.094
739.151
749.109
758.864
768.435
777.718
786.629
795.067
802.92
810.059
816.341
821.602
825.663
828.326
829.362
828.559
825.64
820.334
812.31
801.2
786.622
768.198
745.579
718.363
686.007
648.237
605.094
557.135
505.683
453.152
402.848
358.817
324.43
300.52
297.841
311.891
330.912
355.356
384.7
417.887
453.629
490.569
527.373
562.825
595.922
625.87
652.313
675.184
694.621
710.886
724.306
735.22
743.958
750.825
756.094
760.008
762.78
764.597
765.623
765.992
765.837
765.25
764.324
763.123
761.701
760.108
758.389
756.588
754.749
752.919
751.144
749.471
747.948
746.616
745.487
744.566
743.909
743.651
743.883
744.613
745.821
747.503
749.691
752.429
755.73
759.538
763.722
768.244
773.114
778.333
783.867
789.681
795.741
802.012
808.467
815.078
821.818
828.669
835.607
842.608
849.649
856.675
863.61
870.469
877.15
883.572
889.642
895.258
900.301
904.636
908.117
910.575
911.821
911.67
909.893
906.254
900.53
892.574
881.881
867.86
850.13
828.34
802.018
770.745
734.366
692.693
645.681
593.611
537.422
479.053
422.281
371.843
331.488
302.389
299.661
318.399
342.634
372.434
406.952
445.082
485.741
527.927
570.67
612.999
653.96
692.566
728.13
760.211
788.601
813.304
834.48
852.399
867.388
879.795
889.963
898.218
904.855
910.135
914.292
917.526
919.995
921.834
923.16
924.079
924.686
925.059
925.263
925.353
925.377
925.379
925.394
925.457
925.597
925.834
926.185
926.663
927.289
928.093
929.095
930.307
931.731
933.372
935.242
937.35
939.701
942.296
945.113
948.144
951.388
954.842
958.498
962.342
966.356
970.523
974.823
979.235
983.736
988.3
992.897
997.491
1002.03
1006.45
1010.76
1014.87
1018.73
1022.24
1025.3
1027.81
1029.64
1030.64
1030.67
1029.55
1027.11
1023.19
1017.52
1009.74
999.35
985.84
968.962
948.397
924.521
896.908
864.895
828.001
785.999
738.681
686.094
628.678
567.607
504.949
443.516
387.072
340.094
304.736
301.569
325.019
354.256
389.019
428.215
470.696
515.508
561.88
609.119
656.52
703.324
748.589
791.57
831.638
868.331
901.379
930.699
956.365
978.57
997.588
1013.74
1027.35
1038.74
1048.23
1056.09
1062.57
1067.92
1072.32
1075.96
1078.97
1081.49
1083.6
1085.41
1086.98
1088.37
1089.63
1090.81
1091.94
1093.05
1094.16
1095.29
1096.46
1097.68
1098.96
1100.31
1101.75
1103.27
1104.89
1106.62
1108.44
1110.37
1112.43
1114.59
1116.86
1119.24
1121.73
1124.32
1127
1129.77
1132.6
1135.48
1138.4
1141.32
1144.22
1147.06
1149.82
1152.42
1154.82
1156.99
1158.82
1160.24
1161.16
1161.46
1161.05
1159.77
1157.48
1154.01
1149.16
1142.65
1134.15
1123.51
1110.64
1095.51
1077.44
1056.24
1031.87
1003.38
970.509
933.188
891.151
844.036
791.552
733.45
669.951
602.124
532.321
464.045
401.19
347.978
306.918
303.431
331.328
365.151
404.366
447.693
493.962
542.309
592.109
642.852
694.029
745.052
795.116
843.545
889.688
932.981
972.999
1009.48
1042.33
1071.55
1097.25
1119.65
1138.99
1155.59
1169.74
1181.75
1191.91
1200.51
1207.77
1213.92
1219.13
1223.58
1227.39
1230.69
1233.57
1236.11
1238.38
1240.44
1242.34
1244.11
1245.79
1247.4
1248.97
1250.51
1252.03
1253.55
1255.09
1256.63
1258.21
1259.81
1261.44
1263.1
1264.81
1266.56
1268.34
1270.16
1272.01
1273.88
1275.76
1277.64
1279.51
1281.34
1283.12
1284.81
1286.38
1287.8
1289.01
1289.96
1290.6
1290.86
1290.64
1289.87
1288.42
1286.19
1283.04
1278.84
1273.4
1266.54
1258.07
1247.81
1235.56
1221
1203.77
1183.52
1160.34
1133.92
1103.9
1069.93
1031.7
988.952
941.478
888.983
831.383
768.444
700.054
627.935
554.138
481.113
413.117
354.696
308.796
305.087
336.845
374.573
417.556
464.397
513.917
565.31
618.035
671.691
725.887
780.139
833.788
886.246
936.907
985.204
1030.68
1073.02
1111.94
1147.28
1179.02
1207.23
1232.09
1253.81
1272.66
1288.94
1302.94
1314.94
1325.2
1333.98
1341.49
1347.92
1353.45
1358.22
1362.37
1365.99
1369.18
1372.02
1374.57
1376.89
1379.01
1380.98
1382.83
1384.57
1386.24
1387.85
1389.41
1390.94
1392.43
1393.9
1395.36
1396.8
1398.23
1399.64
1401.03
1402.4
1403.74
1405.04
1406.29
1407.46
1408.54
1409.52
1410.34
1411
1411.44
1411.62
1411.49
1410.98
1410.04
1408.57
1406.49
1403.7
1400.07
1395.5
1389.84
1382.95
1374.65
1364.76
1353.11
1339.46
1323.61
1305.3
1284.27
1260.26
1233.03
1202.31
1167.81
1129.26
1086.38
1038.95
986.809
929.829
867.777
800.616
727.906
651.019
572.352
494.834
422.512
359.946
310.273
306.459
341.352
382.218
428.235
477.937
530.154
584.116
639.337
695.468
752.186
809.066
865.545
921.11
975.212
1027.34
1077.09
1124.05
1167.85
1208.24
1245.1
1278.37
1308.15
1334.56
1357.82
1378.17
1395.87
1411.21
1424.45
1435.86
1445.67
1454.1
1461.36
1467.61
1473.01
1477.7
1481.79
1485.37
1488.54
1491.35
1493.87
1496.15
1498.23
1500.15
1501.92
1503.58
1505.14
1506.62
1508.02
1509.36
1510.65
1511.87
1513.04
1514.15
1515.2
1516.17
1517.07
1517.87
1518.56
1519.11
1519.51
1519.73
1519.72
1519.46
1518.89
1517.97
1516.64
1514.81
1512.43
1509.39
1505.61
1500.97
1495.36
1488.66
1480.71
1471.37
1460.47
1447.82
1433.23
1416.5
1397.41
1375.72
1351.18
1323.55
1292.55
1257.94
1219.46
1176.84
1129.85
1078.29
1022.01
960.994
895.204
824.436
748.423
667.913
585.779
504.93
429.395
363.783
311.355
307.518
344.803
388.053
436.392
488.324
542.692
598.756
656.06
714.282
773.129
832.21
891.013
949.073
1005.89
1061.06
1114.18
1164.78
1212.46
1256.94
1297.98
1335.5
1369.47
1399.97
1427.12
1451.14
1472.25
1490.69
1506.74
1520.65
1532.68
1543.05
1551.99
1559.69
1566.33
1572.06
1577.03
1581.34
1585.1
1588.39
1591.29
1593.86
1596.16
1598.22
1600.09
1601.78
1603.33
1604.76
1606.07
1607.27
1608.39
1609.4
1610.33
1611.16
1611.88
1612.5
1612.99
1613.34
1613.52
1613.52
1613.3
1612.83
1612.07
1610.98
1609.5
1607.59
1605.15
1602.13
1598.44
1593.99
1588.67
1582.38
1575
1566.38
1556.39
1544.86
1531.63
1516.52
1499.33
1479.86
1457.9
1433.21
1405.57
1374.73
1340.43
1302.42
1260.47
1214.34
1163.83
1108.75
1049
984.584
915.603
841.899
763.32
680.032
595.298
512.006
434.173
366.43
312.102
308.289
347.297
392.267
442.3
495.892
551.905
609.624
668.609
728.554
789.177
850.105
910.847
970.961
1030
1087.65
1143.45
1196.95
1247.74
1295.49
1339.94
1380.93
1418.38
1452.32
1482.81
1510
1534.1
1555.31
1573.89
1590.09
1604.15
1616.33
1626.85
1635.92
1643.73
1650.46
1656.27
1661.28
1665.61
1669.36
1672.63
1675.48
1677.99
1680.19
1682.14
1683.86
1685.4
1686.77
1687.99
1689.07
1690.02
1690.84
1691.53
1692.1
1692.53
1692.81
1692.92
1692.85
1692.57
1692.06
1691.28
1690.19
1688.75
1686.91
1684.63
1681.81
1678.39
1674.3
1669.45
1663.75
1657.08
1649.32
1640.36
1630.06
1618.26
1604.82
1589.55
1572.28
1552.82
1530.97
1506.52
1479.24
1448.92
1415.31
1378.18
1337.29
1292.4
1243.31
1189.84
1131.84
1069.23
1002.04
930.466
854.424
773.829
688.437
601.79
516.759
437.343
368.174
312.592
308.821
349.016
395.176
446.396
501.179
558.404
617.376
677.672
738.99
801.057
863.51
925.856
987.663
1048.55
1108.21
1166.19
1222.02
1275.31
1325.69
1372.89
1416.7
1457.01
1493.78
1527.05
1556.92
1583.55
1607.15
1627.93
1646.13
1662.01
1675.8
1687.74
1698.05
1706.94
1714.58
1721.16
1726.81
1731.68
1735.86
1739.47
1742.59
1745.28
1747.62
1749.64
1751.4
1752.93
1754.25
1755.38
1756.34
1757.14
1757.78
1758.27
1758.6
1758.76
1758.73
1758.51
1758.07
1757.38
1756.41
1755.13
1753.49
1751.44
1748.96
1745.93
1742.32
1738.05
1733.02
1727.16
1720.35
1712.49
1703.46
1693.14
1681.37
1668.01
1652.9
1635.88
1616.76
1595.35
1571.47
1544.89
1515.42
1482.83
1446.89
1407.39
1364.08
1316.75
1265.22
1209.33
1148.95
1084.03
1014.62
940.97
863.197
781.007
694.067
606.056
519.823
439.355
369.271
312.9
309.173
350.147
397.092
449.109
504.711
562.796
622.687
683.97
746.352
809.561
873.245
936.898
1000.09
1062.5
1123.81
1183.55
1241.28
1296.57
1349.08
1398.49
1444.57
1487.19
1526.27
1561.82
1593.9
1622.65
1648.24
1670.88
1690.79
1708.22
1723.4
1736.58
1747.98
1757.81
1766.27
1773.54
1779.77
1785.11
1789.69
1793.61
1796.96
1799.83
1802.29
1804.38
1806.17
1807.69
1808.96
1810.02
1810.88
1811.55
1812.03
1812.33
1812.45
1812.36
1812.07
1811.55
1810.78
1809.73
1808.36
1806.64
1804.51
1801.95
1798.88
1795.23
1790.93
1785.9
1780.07
1773.32
1765.57
1756.69
1746.57
1735.06
1722.04
1707.35
1690.84
1672.33
1651.64
1628.6
1603
1574.65
1543.35
1508.87
1471.01
1429.55
1384.27
1334.96
1281.45
1223.62
1161.35
1094.62
1023.49
948.238
869.126
785.754
697.705
608.75
521.716
440.579
369.931
313.086
309.394
350.86
398.303
450.836
506.982
565.656
626.196
688.2
751.381
815.467
880.119
944.814
1009.12
1072.77
1135.41
1196.58
1255.82
1312.74
1366.94
1418.12
1466.03
1510.51
1551.45
1588.83
1622.71
1653.18
1680.41
1704.58
1725.92
1744.64
1761
1775.23
1787.55
1798.19
1807.35
1815.21
1821.95
1827.71
1832.62
1836.81
1840.37
1843.4
1845.96
1848.12
1849.94
1851.44
1852.68
1853.67
1854.44
1854.99
1855.34
1855.48
1855.41
1855.12
1854.59
1853.82
1852.76
1851.39
1849.68
1847.58
1845.04
1842.03
1838.45
1834.26
1829.37
1823.71
1817.18
1809.69
1801.13
1791.39
1780.34
1767.85
1753.78
1737.98
1720.28
1700.53
1678.55
1654.15
1627.14
1597.33
1564.53
1528.52
1489.09
1446.05
1399.18
1348.3
1293.23
1233.87
1170.13
1102.01
1029.58
953.136
873.005
788.781
699.958
610.371
522.825
441.281
370.306
313.191
309.529
351.29
399.035
451.887
508.379
567.443
628.428
690.942
754.706
819.448
884.843
950.35
1015.54
1080.17
1143.87
1206.17
1266.63
1324.83
1380.39
1432.98
1482.34
1528.29
1570.71
1609.56
1644.87
1676.73
1705.28
1730.69
1753.18
1772.96
1790.28
1805.37
1818.47
1829.78
1839.52
1847.88
1855.04
1861.14
1866.35
1870.76
1874.5
1877.66
1880.32
1882.53
1884.37
1885.87
1887.08
1888.02
1888.7
1889.16
1889.38
1889.39
1889.16
1888.69
1887.97
1886.97
1885.68
1884.04
1882.03
1879.61
1876.73
1873.34
1869.34
1864.69
1859.3
1853.11
1846
1837.89
1828.66
1818.2
1806.39
1793.08
1778.14
1761.42
1742.76
1722
1698.95
1673.45
1645.3
1614.32
1580.31
1543.07
1502.41
1458.11
1410
1357.88
1301.6
1241.07
1176.21
1107.04
1033.65
956.336
875.464
790.638
701.289
611.289
523.43
441.654
370.505
313.248
309.606
351.536
399.455
452.493
509.198
568.51
629.792
692.658
756.836
822.058
888.008
954.133
1020.01
1085.4
1149.92
1213.12
1274.53
1333.75
1390.37
1444.06
1494.56
1541.67
1585.25
1625.25
1661.69
1694.64
1724.23
1750.63
1774.03
1794.66
1812.75
1828.54
1842.24
1854.1
1864.31
1873.08
1880.58
1886.98
1892.42
1897.02
1900.91
1904.18
1906.91
1909.17
1911.03
1912.52
1913.7
1914.59
1915.22
1915.59
1915.72
1915.6
1915.25
1914.63
1913.75
1912.57
1911.07
1909.21
1906.96
1904.27
1901.11
1897.39
1893.05
1888.02
1882.23
1875.59
1868.01
1859.39
1849.62
1838.58
1826.14
1812.17
1796.53
1779.07
1759.64
1738.06
1714.17
1687.79
1658.73
1626.82
1591.86
1553.66
1512.02
1466.76
1417.69
1364.63
1307.43
1246.01
1180.32
1110.37
1036.28
958.357
876.961
791.717
702.021
611.764
523.726
441.829
370.598
313.276
309.649
351.672
399.686
452.83
509.66
569.125
630.598
693.702
758.168
823.733
890.082
956.667
1023.06
1089.02
1154.18
1218.06
1280.21
1340.2
1397.64
1452.19
1503.57
1551.57
1596.04
1636.93
1674.25
1708.04
1738.44
1765.6
1789.72
1811.01
1829.7
1846.03
1860.22
1872.5
1883.09
1892.18
1899.95
1906.58
1912.21
1916.96
1920.97
1924.32
1927.11
1929.41
1931.29
1932.78
1933.94
1934.79
1935.36
1935.66
1935.71
1935.51
1935.04
1934.31
1933.29
1931.96
1930.3
1928.27
1925.82
1922.92
1919.52
1915.54
1910.92
1905.59
1899.47
1892.48
1884.52
1875.49
1865.28
1853.78
1840.84
1826.35
1810.16
1792.12
1772.07
1749.85
1725.3
1698.23
1668.48
1635.85
1600.16
1561.22
1518.84
1472.84
1423.05
1369.28
1311.39
1249.33
1183.03
1112.53
1037.94
959.581
877.827
792.302
702.385
611.974
523.842
441.895
370.634
313.288
309.674
351.747
399.813
453.016
509.917
569.476
631.07
694.329
758.99
824.793
891.425
958.341
1025.11
1091.5
1157.12
1221.51
1284.22
1344.8
1402.85
1458.04
1510.08
1558.75
1603.9
1645.47
1683.44
1717.87
1748.88
1776.62
1801.28
1823.07
1842.22
1858.96
1873.52
1886.14
1897.01
1906.35
1914.33
1921.13
1926.9
1931.78
1935.87
1939.3
1942.13
1944.46
1946.34
1947.83
1948.97
1949.8
1950.32
1950.58
1950.56
1950.28
1949.74
1948.91
1947.78
1946.34
1944.55
1942.37
1939.77
1936.7
1933.12
1928.94
1924.1
1918.53
1912.16
1904.89
1896.64
1887.29
1876.74
1864.87
1851.56
1836.66
1820.04
1801.55
1781.03
1758.33
1733.27
1705.69
1675.4
1642.22
1605.98
1566.49
1523.57
1477.03
1426.7
1372.41
1314.03
1251.5
1184.77
1113.87
1038.94
960.29
878.298
792.589
702.535
612.044
523.868
441.903
370.637
313.291
309.688
351.79
399.885
453.121
510.065
569.68
631.35
694.71
759.499
825.463
892.289
959.436
1026.47
1093.16
1159.12
1223.88
1286.98
1347.98
1406.49
1462.15
1514.67
1563.82
1609.47
1651.52
1689.97
1724.87
1756.33
1784.5
1809.55
1831.71
1851.2
1868.24
1883.08
1895.93
1907.02
1916.54
1924.68
1931.62
1937.49
1942.45
1946.62
1950.09
1952.96
1955.31
1957.2
1958.69
1959.82
1960.61
1961.11
1961.32
1961.26
1960.93
1960.32
1959.42
1958.21
1956.68
1954.79
1952.51
1949.79
1946.6
1942.88
1938.54
1933.53
1927.79
1921.22
1913.75
1905.27
1895.69
1884.88
1872.74
1859.14
1843.94
1827
1808.18
1787.32
1764.25
1738.82
1710.85
1680.17
1646.6
1609.96
1570.07
1526.75
1479.82
1429.11
1374.46
1315.73
1252.88
1185.85
1114.69
1039.52
960.68
878.533
792.709
702.579
612.04
523.847
441.883
370.629
313.291
309.697
351.817
399.929
453.185
510.153
569.803
631.521
694.944
759.817
825.885
892.839
960.139
1027.35
1094.24
1160.43
1225.44
1288.81
1350.11
1408.92
1464.9
1517.76
1567.25
1613.24
1655.63
1694.42
1729.64
1761.41
1789.87
1815.2
1837.61
1857.34
1874.59
1889.62
1902.65
1913.88
1923.53
1931.78
1938.8
1944.76
1949.78
1953.99
1957.5
1960.4
1962.76
1964.66
1966.14
1967.26
1968.04
1968.51
1968.7
1968.6
1968.23
1967.57
1966.62
1965.36
1963.77
1961.81
1959.45
1956.64
1953.36
1949.54
1945.09
1939.97
1934.1
1927.39
1919.77
1911.13
1901.38
1890.4
1878.07
1864.26
1848.85
1831.69
1812.63
1791.52
1768.2
1742.51
1714.28
1683.33
1649.48
1612.57
1572.4
1528.81
1481.61
1430.65
1375.75
1316.79
1253.72
1186.5
1115.16
1039.84
960.878
878.637
792.744
702.567
612.007
523.812
441.858
370.617
313.289
309.703
351.834
399.956
453.224
510.208
569.879
631.625
695.087
760.009
826.141
893.171
960.564
1027.88
1094.9
1161.23
1226.39
1289.93
1351.41
1410.41
1466.6
1519.66
1569.36
1615.56
1658.17
1697.16
1732.59
1764.55
1793.19
1818.7
1841.27
1861.14
1878.54
1893.69
1906.82
1918.14
1927.87
1936.19
1943.28
1949.28
1954.34
1958.58
1962.11
1965.02
1967.4
1969.3
1970.78
1971.89
1972.66
1973.12
1973.29
1973.17
1972.77
1972.08
1971.1
1969.81
1968.17
1966.17
1963.76
1960.9
1957.56
1953.67
1949.16
1943.96
1938
1931.21
1923.49
1914.76
1904.89
1893.8
1881.34
1867.41
1851.86
1834.56
1815.35
1794.09
1770.61
1744.76
1716.35
1685.23
1651.21
1614.13
1573.79
1530.03
1482.66
1431.54
1376.49
1317.39
1254.18
1186.85
1115.41
1040
960.968
878.672
792.739
702.539
611.971
523.78
441.836
370.607
313.288
309.706
351.843
399.972
453.246
510.239
569.921
631.681
695.162
760.108
826.269
893.336
960.772
1028.14
1095.22
1161.61
1226.85
1290.47
1352.03
1411.13
1467.4
1520.56
1570.37
1616.67
1659.38
1698.47
1733.99
1766.05
1794.78
1820.37
1843.02
1862.96
1880.42
1895.62
1908.81
1920.18
1929.95
1938.3
1945.41
1951.44
1956.52
1960.77
1964.32
1967.24
1969.61
1971.52
1973
1974.11
1974.87
1975.32
1975.48
1975.35
1974.94
1974.24
1973.24
1971.93
1970.27
1968.25
1965.82
1962.93
1959.56
1955.65
1951.1
1945.86
1939.86
1933.03
1925.27
1916.48
1906.57
1895.41
1882.9
1868.9
1853.29
1835.92
1816.64
1795.3
1771.74
1745.81
1717.33
1686.12
1652.02
1614.85
1574.43
1530.59
1483.15
1431.95
1376.82
1317.65
1254.39
1187
1115.51
1040.06
960.995
878.675
792.725
702.516
611.946
523.758
441.821
370.599
313.286
309.707
351.846
399.976
453.253
510.247
569.931
631.693
695.175
760.123
826.284
893.351
960.787
1028.15
1095.23
1161.62
1226.86
1290.48
1352.04
1411.13
1467.41
1520.57
1570.37
1616.67
1659.38
1698.47
1733.99
1766.04
1794.77
1820.36
1843.01
1862.95
1880.41
1895.61
1908.8
1920.17
1929.94
1938.29
1945.4
1951.43
1956.51
1960.76
1964.31
1967.23
1969.61
1971.51
1972.99
1974.1
1974.87
1975.32
1975.48
1975.35
1974.94
1974.24
1973.24
1971.93
1970.27
1968.25
1965.82
1962.93
1959.56
1955.65
1951.1
1945.86
1939.87
1933.03
1925.27
1916.48
1906.57
1895.41
1882.9
1868.91
1853.29
1835.92
1816.64
1795.3
1771.75
1745.81
1717.33
1686.12
1652.02
1614.85
1574.43
1530.58
1483.14
1431.94
1376.82
1317.65
1254.38
1186.99
1115.5
1040.05
960.985
878.665
792.714
702.506
611.937
523.751
441.816
370.596
313.285
309.705
351.841
399.967
453.24
510.229
569.905
631.655
695.121
760.046
826.179
893.21
960.603
1027.92
1094.94
1161.26
1226.42
1289.96
1351.43
1410.44
1466.61
1519.67
1569.37
1615.57
1658.17
1697.16
1732.58
1764.54
1793.18
1818.68
1841.25
1861.12
1878.51
1893.66
1906.79
1918.11
1927.84
1936.16
1943.24
1949.25
1954.31
1958.55
1962.08
1965
1967.37
1969.27
1970.76
1971.87
1972.64
1973.1
1973.27
1973.16
1972.76
1972.07
1971.09
1969.8
1968.17
1966.16
1963.76
1960.9
1957.56
1953.68
1949.16
1943.96
1938.01
1931.22
1923.5
1914.76
1904.9
1893.8
1881.35
1867.42
1851.87
1834.56
1815.35
1794.09
1770.61
1744.76
1716.35
1685.23
1651.21
1614.12
1573.78
1530.02
1482.65
1431.53
1376.47
1317.37
1254.16
1186.82
1115.38
1039.98
960.939
878.643
792.71
702.512
611.947
523.76
441.822
370.598
313.285
309.7
351.825
399.942
453.204
510.179
569.835
631.557
694.986
759.862
825.933
892.888
960.188
1027.39
1094.29
1160.47
1225.48
1288.85
1350.14
1408.95
1464.93
1517.77
1567.26
1613.24
1655.63
1694.41
1729.62
1761.38
1789.84
1815.16
1837.57
1857.29
1874.55
1889.57
1902.59
1913.83
1923.47
1931.72
1938.75
1944.7
1949.73
1953.94
1957.45
1960.35
1962.72
1964.62
1966.1
1967.22
1968.01
1968.48
1968.67
1968.58
1968.21
1967.55
1966.61
1965.35
1963.76
1961.8
1959.44
1956.64
1953.36
1949.54
1945.1
1939.98
1934.11
1927.4
1919.78
1911.15
1901.39
1890.41
1878.08
1864.27
1848.86
1831.7
1812.64
1791.53
1768.21
1742.52
1714.28
1683.33
1649.48
1612.56
1572.4
1528.8
1481.6
1430.63
1375.73
1316.76
1253.69
1186.46
1115.12
1039.81
960.84
878.598
792.704
702.529
611.973
523.783
441.837
370.604
313.285
309.69
351.797
399.896
453.138
510.086
569.707
631.381
694.745
759.538
825.504
892.332
959.479
1026.51
1093.2
1159.16
1223.92
1287.01
1348.01
1406.51
1462.17
1514.68
1563.83
1609.47
1651.51
1689.95
1724.84
1756.29
1784.45
1809.5
1831.65
1851.13
1868.17
1883
1895.86
1906.94
1916.46
1924.6
1931.53
1937.41
1942.38
1946.54
1950.02
1952.89
1955.25
1957.14
1958.63
1959.76
1960.57
1961.07
1961.28
1961.23
1960.9
1960.29
1959.4
1958.2
1956.67
1954.79
1952.51
1949.79
1946.6
1942.88
1938.55
1933.54
1927.8
1921.24
1913.77
1905.29
1895.7
1884.9
1872.76
1859.16
1843.96
1827.02
1808.2
1787.33
1764.27
1738.83
1710.86
1680.18
1646.61
1609.97
1570.07
1526.75
1479.81
1429.1
1374.45
1315.71
1252.85
1185.83
1114.66
1039.49
960.644
878.497
792.672
702.542
612.005
523.816
441.86
370.614
313.286
309.675
351.751
399.819
453.024
509.928
569.489
631.085
694.346
759.008
824.813
891.447
958.365
1025.13
1091.52
1157.15
1221.54
1284.24
1344.81
1402.87
1458.05
1510.08
1558.74
1603.88
1645.44
1683.4
1717.82
1748.82
1776.55
1801.2
1822.98
1842.12
1858.86
1873.42
1886.02
1896.9
1906.23
1914.22
1921.02
1926.79
1931.67
1935.77
1939.19
1942.04
1944.37
1946.26
1947.75
1948.9
1949.73
1950.26
1950.52
1950.51
1950.24
1949.7
1948.88
1947.76
1946.32
1944.54
1942.37
1939.77
1936.71
1933.13
1928.95
1924.11
1918.55
1912.18
1904.92
1896.66
1887.32
1876.77
1864.9
1851.58
1836.69
1820.07
1801.58
1781.06
1758.35
1733.29
1705.7
1675.41
1642.24
1605.99
1566.5
1523.57
1477.03
1426.7
1372.41
1314.02
1251.49
1184.76
1113.86
1038.92
960.273
878.279
792.57
702.515
612.024
523.848
441.886
370.626
313.287
309.649
351.67
399.682
452.824
509.652
569.116
630.588
693.691
758.157
823.724
890.075
956.663
1023.06
1089.02
1154.18
1218.06
1280.22
1340.21
1397.64
1452.19
1503.56
1551.54
1596.01
1636.89
1674.19
1707.97
1738.35
1765.5
1789.61
1810.89
1829.57
1845.89
1860.08
1872.36
1882.94
1892.03
1899.8
1906.43
1912.06
1916.82
1920.83
1924.19
1926.99
1929.29
1931.17
1932.67
1933.84
1934.7
1935.28
1935.59
1935.65
1935.45
1934.99
1934.27
1933.26
1931.94
1930.28
1928.25
1925.81
1922.92
1919.53
1915.55
1910.93
1905.61
1899.5
1892.51
1884.55
1875.53
1865.32
1853.81
1840.88
1826.39
1810.19
1792.15
1772.1
1749.89
1725.33
1698.26
1668.51
1635.87
1600.18
1561.24
1518.86
1472.86
1423.07
1369.3
1311.41
1249.34
1183.05
1112.54
1037.95
959.592
877.838
792.313
702.39
611.977
523.845
441.895
370.632
313.286
309.603
351.526
399.437
452.469
509.168
568.475
629.753
692.618
756.796
822.02
887.974
954.104
1019.99
1085.38
1149.91
1213.11
1274.53
1333.74
1390.36
1444.05
1494.54
1541.63
1585.2
1625.18
1661.61
1694.54
1724.12
1750.5
1773.89
1794.51
1812.59
1828.36
1842.06
1853.91
1864.12
1872.89
1880.39
1886.79
1892.23
1896.84
1900.73
1904.01
1906.75
1909.02
1910.88
1912.39
1913.58
1914.48
1915.11
1915.49
1915.63
1915.53
1915.18
1914.58
1913.7
1912.53
1911.04
1909.2
1906.95
1904.27
1901.12
1897.4
1893.06
1888.04
1882.26
1875.63
1868.05
1859.43
1849.66
1838.62
1826.18
1812.21
1796.58
1779.12
1759.68
1738.1
1714.21
1687.83
1658.77
1626.86
1591.9
1553.7
1512.06
1466.8
1417.73
1364.67
1307.46
1246.05
1180.36
1110.41
1036.32
958.398
877.004
791.76
702.058
611.793
523.747
441.843
370.603
313.276
309.524
351.272
399.005
451.845
508.329
567.386
628.367
690.881
754.646
819.392
884.794
950.309
1015.51
1080.15
1143.85
1206.16
1266.62
1324.82
1380.38
1432.96
1482.31
1528.24
1570.65
1609.48
1644.77
1676.61
1705.14
1730.53
1753
1772.77
1790.08
1805.16
1818.24
1829.55
1839.28
1847.64
1854.8
1860.91
1866.12
1870.54
1874.29
1877.46
1880.12
1882.35
1884.2
1885.71
1886.93
1887.87
1888.58
1889.04
1889.28
1889.29
1889.08
1888.62
1887.91
1886.93
1885.64
1884.02
1882.02
1879.6
1876.73
1873.35
1869.36
1864.71
1859.33
1853.14
1846.04
1837.93
1828.71
1818.25
1806.44
1793.13
1778.2
1761.48
1742.82
1722.05
1699.01
1673.5
1645.36
1614.37
1580.36
1543.12
1502.46
1458.16
1410.05
1357.94
1301.66
1241.13
1176.27
1107.1
1033.71
956.399
875.529
790.704
701.348
611.337
523.465
441.675
370.512
313.247
309.388
350.838
398.266
450.785
506.922
565.59
626.127
688.132
751.318
815.411
880.073
944.78
1009.1
1072.76
1135.4
1196.58
1255.83
1312.74
1366.93
1418.1
1466
1510.46
1551.37
1588.73
1622.59
1653.04
1680.24
1704.39
1725.7
1744.41
1760.76
1774.97
1787.29
1797.92
1807.08
1814.94
1821.67
1827.43
1832.35
1836.55
1840.12
1843.15
1845.73
1847.9
1849.73
1851.25
1852.5
1853.51
1854.29
1854.85
1855.21
1855.36
1855.31
1855.03
1854.52
1853.75
1852.71
1851.35
1849.65
1847.56
1845.03
1842.03
1838.47
1834.28
1829.4
1823.74
1817.22
1809.73
1801.18
1791.44
1780.39
1767.91
1753.84
1738.03
1720.34
1700.59
1678.6
1654.2
1627.2
1597.39
1564.59
1528.57
1489.15
1446.11
1399.25
1348.36
1293.3
1233.94
1170.2
1102.08
1029.65
953.209
873.081
788.857
700.026
610.426
522.866
441.305
370.316
313.19
309.165
350.12
397.048
449.053
504.647
562.729
622.62
683.909
746.302
809.522
873.222
936.89
1000.1
1062.52
1123.84
1183.58
1241.31
1296.6
1349.09
1398.48
1444.55
1487.15
1526.2
1561.71
1593.77
1622.49
1648.05
1670.66
1690.55
1707.96
1723.13
1736.29
1747.68
1757.51
1765.96
1773.23
1779.46
1784.81
1789.39
1793.31
1796.67
1799.56
1802.02
1804.13
1805.94
1807.47
1808.76
1809.83
1810.7
1811.38
1811.88
1812.2
1812.33
1812.26
1811.98
1811.47
1810.72
1809.68
1808.32
1806.61
1804.5
1801.94
1798.89
1795.24
1790.95
1785.93
1780.1
1773.36
1765.61
1756.74
1746.62
1735.12
1722.1
1707.41
1690.89
1672.38
1651.7
1628.65
1603.06
1574.71
1543.4
1508.93
1471.07
1429.61
1384.33
1335.02
1281.52
1223.69
1161.42
1094.69
1023.56
948.307
869.199
785.825
697.766
608.799
521.751
440.598
369.936
313.082
308.812
348.984
395.124
446.332
501.11
558.337
617.318
677.627
738.964
801.05
863.525
925.891
987.716
1048.62
1108.29
1166.27
1222.1
1275.37
1325.74
1372.92
1416.7
1456.98
1493.71
1526.95
1556.79
1583.39
1606.95
1627.7
1645.88
1661.73
1675.5
1687.43
1697.73
1706.6
1714.25
1720.82
1726.48
1731.34
1735.54
1739.15
1742.28
1744.98
1747.33
1749.37
1751.14
1752.68
1754.02
1755.16
1756.14
1756.96
1757.61
1758.12
1758.46
1758.63
1758.62
1758.41
1757.98
1757.31
1756.35
1755.08
1753.45
1751.42
1748.94
1745.93
1742.33
1738.06
1733.04
1727.18
1720.38
1712.53
1703.5
1693.17
1681.41
1668.05
1652.95
1635.92
1616.8
1595.4
1571.51
1544.94
1515.47
1482.87
1446.94
1407.44
1364.13
1316.81
1265.28
1209.39
1149.01
1084.09
1014.68
941.026
863.262
781.069
694.119
606.097
519.85
439.369
369.271
312.895
308.277
347.261
392.213
442.237
495.83
551.854
609.59
668.599
728.57
789.221
850.178
910.944
971.079
1030.13
1087.79
1143.59
1197.08
1247.86
1295.58
1340
1380.96
1418.38
1452.28
1482.73
1509.88
1533.94
1555.12
1573.66
1589.83
1603.87
1616.03
1626.54
1635.59
1643.4
1650.13
1655.93
1660.94
1665.27
1669.03
1672.31
1675.17
1677.68
1679.89
1681.85
1683.6
1685.15
1686.53
1687.76
1688.86
1689.82
1690.65
1691.36
1691.94
1692.39
1692.68
1692.81
1692.75
1692.48
1691.98
1691.21
1690.13
1688.7
1686.87
1684.6
1681.78
1678.38
1674.29
1669.45
1663.75
1657.08
1649.33
1640.38
1630.07
1618.28
1604.83
1589.57
1572.3
1552.84
1530.99
1506.54
1479.26
1448.94
1415.34
1378.21
1337.32
1292.43
1243.34
1189.87
1131.87
1069.26
1002.07
930.507
854.469
773.877
688.478
601.823
516.782
437.354
368.172
312.586
307.505
344.761
387.993
436.326
488.266
542.654
598.748
656.088
714.348
773.233
832.351
891.185
949.27
1006.1
1061.28
1114.4
1164.98
1212.65
1257.1
1298.11
1335.59
1369.52
1399.97
1427.09
1451.06
1472.13
1490.54
1506.55
1520.43
1532.43
1542.79
1551.71
1559.4
1566.03
1571.75
1576.71
1581.02
1584.78
1588.08
1590.99
1593.57
1595.87
1597.94
1599.82
1601.52
1603.08
1604.52
1605.84
1607.06
1608.19
1609.21
1610.15
1610.99
1611.73
1612.36
1612.85
1613.21
1613.41
1613.41
1613.2
1612.74
1611.99
1610.91
1609.44
1607.53
1605.1
1602.08
1598.4
1593.95
1588.64
1582.35
1574.97
1566.35
1556.36
1544.83
1531.61
1516.49
1499.31
1479.84
1457.87
1433.19
1405.55
1374.7
1340.41
1302.41
1260.46
1214.33
1163.82
1108.74
1049
984.587
915.613
841.916
763.341
680.053
595.316
512.019
434.177
366.425
312.093
306.448
341.317
382.171
428.192
477.915
530.166
584.171
639.44
695.62
752.384
809.305
865.818
921.407
975.524
1027.65
1077.41
1124.35
1168.13
1208.49
1245.31
1278.55
1308.28
1334.65
1357.86
1378.17
1395.83
1411.14
1424.34
1435.72
1445.5
1453.91
1461.15
1467.39
1472.78
1477.46
1481.54
1485.12
1488.29
1491.1
1493.62
1495.91
1497.99
1499.91
1501.69
1503.35
1504.92
1506.41
1507.82
1509.17
1510.46
1511.69
1512.86
1513.98
1515.04
1516.02
1516.92
1517.73
1518.42
1518.98
1519.39
1519.61
1519.61
1519.35
1518.79
1517.87
1516.54
1514.72
1512.33
1509.29
1505.51
1500.88
1495.27
1488.57
1480.62
1471.28
1460.38
1447.73
1433.14
1416.41
1397.32
1375.62
1351.09
1323.45
1292.46
1257.86
1219.37
1176.76
1129.77
1078.22
1021.95
960.944
895.168
824.413
748.408
667.91
585.784
504.937
429.398
363.777
311.347
305.083
336.831
374.56
417.562
464.438
514.006
565.454
618.238
671.949
726.196
780.494
834.178
886.662
937.339
985.642
1031.12
1073.44
1112.34
1147.65
1179.36
1207.54
1232.35
1254.03
1272.84
1289.08
1303.04
1315
1325.23
1333.98
1341.46
1347.86
1353.37
1358.13
1362.26
1365.87
1369.05
1371.88
1374.43
1376.74
1378.86
1380.82
1382.67
1384.41
1386.08
1387.69
1389.25
1390.77
1392.27
1393.74
1395.2
1396.64
1398.07
1399.48
1400.88
1402.25
1403.59
1404.89
1406.13
1407.3
1408.39
1409.36
1410.19
1410.84
1411.28
1411.46
1411.33
1410.82
1409.87
1408.4
1406.32
1403.53
1399.9
1395.33
1389.67
1382.77
1374.47
1364.58
1352.92
1339.28
1323.42
1305.11
1284.08
1260.07
1232.84
1202.12
1167.63
1129.08
1086.21
1038.79
986.656
929.691
867.657
800.517
727.821
650.962
572.32
494.818
422.502
359.935
310.263
303.437
331.35
365.199
404.454
447.835
494.168
542.581
592.447
643.252
694.483
745.553
795.656
844.116
890.282
933.589
973.612
1010.09
1042.92
1072.12
1097.8
1120.16
1139.46
1156.02
1170.13
1182.1
1192.22
1200.78
1208.01
1214.12
1219.3
1223.72
1227.51
1230.78
1233.64
1236.16
1238.42
1240.47
1242.35
1244.11
1245.78
1247.38
1248.93
1250.46
1251.97
1253.49
1255.01
1256.55
1258.11
1259.7
1261.33
1262.99
1264.69
1266.43
1268.2
1270.01
1271.85
1273.71
1275.59
1277.46
1279.32
1281.15
1282.92
1284.6
1286.16
1287.57
1288.78
1289.72
1290.36
1290.6
1290.39
1289.61
1288.15
1285.92
1282.76
1278.55
1273.11
1266.24
1257.77
1247.5
1235.24
1220.68
1203.45
1183.2
1160.02
1133.6
1103.58
1069.62
1031.39
988.656
941.195
888.718
831.142
768.228
699.866
627.8
554.048
481.057
413.082
354.671
308.782
301.591
325.09
354.387
389.22
428.493
471.054
515.945
562.391
609.7
657.164
704.026
749.347
792.377
832.487
869.214
902.284
931.612
957.273
979.461
998.45
1014.56
1028.13
1039.47
1048.91
1056.73
1063.16
1068.46
1072.83
1076.43
1079.4
1081.88
1083.97
1085.75
1087.29
1088.65
1089.89
1091.05
1092.15
1093.24
1094.32
1095.43
1096.58
1097.77
1099.03
1100.37
1101.78
1103.29
1104.89
1106.6
1108.41
1110.32
1112.36
1114.5
1116.75
1119.12
1121.59
1124.16
1126.83
1129.57
1132.39
1135.25
1138.15
1141.05
1143.94
1146.77
1149.51
1152.1
1154.49
1156.64
1158.46
1159.87
1160.77
1161.07
1160.64
1159.35
1157.05
1153.57
1148.72
1142.19
1133.68
1123.02
1110.15
1095.02
1076.94
1055.75
1031.38
1002.9
970.044
932.745
890.74
843.673