/*--------------------------------*- C++ -*----------------------------------*\
| =========                 |                                                 |
| \\      /  F ield         | OpenFOAM: The Open Source CFD Toolbox           |
|  \\    /   O peration     | Version:  2212                                  |
|   \\  /    A nd           | Website:  www.openfoam.com                      |
|    \\/     M anipulation  |                                                 |
\*---------------------------------------------------------------------------*/
FoamFile
{
    version     2.0;
    format      ascii;
    arch        "LSB;label=64;scalar=64";
    class       volScalarField::Internal;
    location    "1380";
    object      dGco2;
}
// * * * * * * * * * * * * * * * * * * * * * * * * * * * * * * * * * * * * * //

dimensions      [1 -3 -1 0 0 0 0];

value           nonuniform List<scalar> 
1024
(
0.000144181
0.000144235
0.00014436
0.000144584
0.000144938
0.000145447
0.000146127
0.000146969
0.000147938
0.000148972
0.00014999
0.000150912
0.000151679
0.000152258
0.000152631
0.000152767
0.000152547
0.000151878
0.00015083
0.000149473
0.000147886
0.000146166
0.000144435
0.000142817
0.000141407
0.000140259
0.00013938
0.000138747
0.00013832
0.000138054
0.000137909
0.00013785
0.000144203
0.000144255
0.000144381
0.000144609
0.000144968
0.000145486
0.000146176
0.000147029
0.000148007
0.000149049
0.000150072
0.000150995
0.000151761
0.000152337
0.000152709
0.000152846
0.000152628
0.00015196
0.000150913
0.000149558
0.000147971
0.000146249
0.000144512
0.000142884
0.000141462
0.000140301
0.00013941
0.000138769
0.000138336
0.000138068
0.000137921
0.000137861
0.000144247
0.0001443
0.000144429
0.000144663
0.000145035
0.00014557
0.000146282
0.00014716
0.000148165
0.000149232
0.000150274
0.000151204
0.000151967
0.000152537
0.000152904
0.000153039
0.000152822
0.00015215
0.000151098
0.000149739
0.000148149
0.000146422
0.000144674
0.000143025
0.000141578
0.000140391
0.000139478
0.000138819
0.000138375
0.000138098
0.000137948
0.000137886
0.000144324
0.000144378
0.000144512
0.000144756
0.000145146
0.000145707
0.000146456
0.000147379
0.000148436
0.000149557
0.000150643
0.000151595
0.000152356
0.000152914
0.000153268
0.000153396
0.000153169
0.000152477
0.000151401
0.000150024
0.000148423
0.000146685
0.000144918
0.000143241
0.000141758
0.000140534
0.000139587
0.000138901
0.000138438
0.00013815
0.000137994
0.00013793
0.000144444
0.0001445
0.00014464
0.000144897
0.000145309
0.000145908
0.00014671
0.000147705
0.000148851
0.000150066
0.000151235
0.000152232
0.000152998
0.000153536
0.000153868
0.000153977
0.000153722
0.000152978
0.000151842
0.000150417
0.000148785
0.000147024
0.000145231
0.000143518
0.000141992
0.000140721
0.000139732
0.000139013
0.000138527
0.000138225
0.000138061
0.000137995
0.000144623
0.00014468
0.000144826
0.000145098
0.000145538
0.000146186
0.000147063
0.000148164
0.000149444
0.000150808
0.000152109
0.000153184
0.000153968
0.000154485
0.000154784
0.000154857
0.000154541
0.000153693
0.000152439
0.000150914
0.000149214
0.000147408
0.000145578
0.000143826
0.000142253
0.000140934
0.000139902
0.000139148
0.000138637
0.000138321
0.000138149
0.00013808
0.00014488
0.000144939
0.00014509
0.000145379
0.000145854
0.000146564
0.00014754
0.000148787
0.000150255
0.00015183
0.000153318
0.000154516
0.000155341
0.000155842
0.0001561
0.000156119
0.000155696
0.000154668
0.000153207
0.000151505
0.00014968
0.000147794
0.00014591
0.000144114
0.000142499
0.000141138
0.00014007
0.000139288
0.000138758
0.00013843
0.000138252
0.000138181
0.000145247
0.000145307
0.000145465
0.000145772
0.000146289
0.000147075
0.00014818
0.000149615
0.000151329
0.000153174
0.000154907
0.000156274
0.000157175
0.000157678
0.000157899
0.000157843
0.000157255
0.000155945
0.000154161
0.000152175
0.000150144
0.000148126
0.000146164
0.000144319
0.000142672
0.000141289
0.000140203
0.00013941
0.000138874
0.000138543
0.000138364
0.000138293
0.000145773
0.000145834
0.000146
0.000146329
0.000146895
0.000147776
0.000149037
0.000150705
0.000152717
0.000154887
0.000156912
0.000158492
0.000159508
0.000160047
0.000160252
0.000160108
0.000159286
0.000157573
0.000155324
0.000152917
0.000150574
0.000148355
0.00014628
0.000144383
0.000142721
0.000141343
0.000140271
0.000139495
0.000138975
0.000138656
0.000138487
0.00013842
0.000146528
0.000146592
0.000146768
0.000147126
0.000147753
0.000148747
0.000150196
0.000152136
0.00015449
0.000157022
0.000159369
0.000161195
0.000162369
0.000162994
0.000163225
0.000163
0.000161889
0.000159657
0.000156788
0.000153799
0.000151003
0.00014849
0.000146253
0.000144294
0.000142635
0.000141297
0.00014028
0.00013956
0.000139087
0.000138805
0.00013866
0.000138604
0.000147608
0.000147675
0.000147867
0.000148264
0.00014897
0.000150103
0.000151772
0.000154019
0.000156744
0.000159655
0.000162334
0.000164422
0.000165798
0.000166584
0.000166922
0.000166671
0.000165283
0.000162494
0.000158892
0.000155148
0.000151717
0.000148767
0.000146276
0.000144213
0.000142555
0.000141282
0.00014036
0.000139739
0.000139357
0.000139148
0.000139052
0.000139021
0.000149123
0.000149198
0.000149415
0.000149866
0.000150676
0.000151982
0.000153907
0.00015649
0.000159596
0.000162879
0.000165881
0.000168242
0.000169878
0.000170937
0.000171526
0.000171419
0.00016996
0.00016682
0.000162597
0.000158039
0.000153755
0.000150108
0.000147144
0.000144819
0.000143072
0.000141833
0.000141018
0.000140539
0.0001403
0.000140216
0.00014021
0.000140225
0.000151172
0.00015126
0.000151513
0.000152044
0.000152993
0.000154516
0.000156741
0.000159685
0.00016317
0.000166798
0.000170095
0.000172743
0.000174729
0.000176227
0.000177313
0.000177715
0.00017673
0.000173912
0.000169676
0.000164699
0.000159661
0.000155097
0.000151284
0.000148295
0.00014613
0.000144705
0.000143884
0.000143513
0.000143436
0.000143512
0.000143629
0.000143709
0.00015377
0.000153876
0.000154184
0.000154826
0.000155963
0.000157765
0.000160344
0.000163675
0.000167515
0.000171429
0.000174974
0.000177931
0.000180375
0.000182502
0.000184382
0.000185805
0.00018616
0.000184865
0.000181978
0.000177908
0.000173176
0.000168312
0.000163759
0.000159809
0.000156686
0.000154463
0.000153089
0.00015242
0.000152239
0.000152317
0.000152474
0.000152586
0.00015667
0.000156792
0.000157144
0.000157874
0.000159157
0.00016116
0.000163977
0.000167549
0.000171619
0.000175782
0.000179652
0.000183057
0.000186087
0.000188936
0.000191718
0.000194403
0.000196649
0.000197912
0.000197907
0.000196666
0.00019434
0.000191179
0.00018749
0.000183628
0.000179942
0.000176723
0.00017419
0.000172443
0.000171419
0.000170939
0.000170791
0.000170785
0.000159474
0.000159601
0.000159965
0.000160714
0.000162024
0.000164061
0.000166916
0.000170537
0.000174693
0.000179013
0.000183132
0.000186851
0.000190199
0.000193325
0.00019638
0.000199527
0.000202807
0.00020604
0.000208875
0.00021106
0.000212388
0.000212751
0.000212137
0.000210641
0.000208459
0.000205893
0.000203296
0.000200992
0.000199209
0.000198033
0.000197402
0.000197168
0.000161641
0.000161764
0.000162107
0.000162804
0.000164017
0.000165903
0.000168562
0.000171971
0.000175944
0.00018015
0.00018421
0.00018784
0.000190935
0.000193529
0.000195737
0.000197804
0.000200148
0.000203222
0.000206901
0.000210818
0.000214571
0.000217825
0.000220344
0.000221993
0.000222739
0.000222657
0.000221934
0.000220844
0.000219695
0.000218744
0.000218126
0.00021785
0.000162944
0.000163059
0.000163371
0.00016399
0.000165055
0.000166709
0.000169055
0.000172099
0.000175701
0.000179577
0.000183356
0.00018669
0.000189353
0.00019126
0.000192451
0.000193161
0.000194016
0.000195978
0.000199253
0.000203522
0.000208294
0.000213057
0.000217384
0.000220983
0.000223699
0.000225507
0.000226492
0.000226824
0.00022673
0.000226451
0.000226182
0.000226032
0.000163571
0.000163681
0.000163964
0.000164509
0.00016543
0.00016685
0.000168867
0.000171508
0.000174677
0.000178141
0.000181564
0.000184587
0.000186923
0.000188409
0.00018903
0.000188997
0.000189003
0.000190162
0.000192879
0.000197026
0.000202235
0.000207958
0.0002136
0.000218652
0.000222769
0.000225806
0.000227801
0.000228921
0.000229401
0.000229496
0.00022943
0.000229358
0.000163747
0.000163852
0.000164111
0.000164595
0.000165392
0.000166603
0.000168316
0.000170567
0.000173295
0.000176318
0.000179352
0.000182067
0.000184171
0.000185474
0.000185936
0.000185755
0.000185617
0.000186532
0.000188898
0.000192731
0.000197849
0.000203855
0.000210195
0.000216268
0.000221544
0.000225694
0.00022862
0.000230429
0.000231358
0.000231704
0.000231749
0.000231708
0.000163653
0.000163749
0.000163983
0.000164411
0.000165102
0.000166135
0.000167583
0.000169479
0.000171787
0.000174369
0.000177
0.000179408
0.00018134
0.000182625
0.000183234
0.000183362
0.000183622
0.000184782
0.000187131
0.000190754
0.000195598
0.000201446
0.000207902
0.000214425
0.000220425
0.000225424
0.000229164
0.000231635
0.000233021
0.000233625
0.000233778
0.000233762
0.000163517
0.000163593
0.000163782
0.000164136
0.000164713
0.00016558
0.000166791
0.000168374
0.000170302
0.000172476
0.000174735
0.000176881
0.00017873
0.00018016
0.000181169
0.000181951
0.000182967
0.000184673
0.000187236
0.000190774
0.000195329
0.000200818
0.000207003
0.000213484
0.000219741
0.000225245
0.000229601
0.000232648
0.000234475
0.000235349
0.000235621
0.000235633
0.000163683
0.000163714
0.000163815
0.00016404
0.000164456
0.000165129
0.000166107
0.000167411
0.000169023
0.000170879
0.00017288
0.000174905
0.000176842
0.000178619
0.00018025
0.000181904
0.000183833
0.000186179
0.000189014
0.000192492
0.00019673
0.000201757
0.000207461
0.000213566
0.000219675
0.000225317
0.000230035
0.00023353
0.000235755
0.000236898
0.000237301
0.000237345
0.000164606
0.000164558
0.000164504
0.000164518
0.000164691
0.000165113
0.000165845
0.000166917
0.000168323
0.000170032
0.000171992
0.000174134
0.00017639
0.000178706
0.000181088
0.000183651
0.000186435
0.000189323
0.000192348
0.000195703
0.00019956
0.000204031
0.000209106
0.000214629
0.000220309
0.000225766
0.000230571
0.000234341
0.000236889
0.000238288
0.000238829
0.000238911
0.000166765
0.000166602
0.000166332
0.000166063
0.000165932
0.000166073
0.000166588
0.000167529
0.000168907
0.000170705
0.000172884
0.000175382
0.000178127
0.000181056
0.000184141
0.000187441
0.000190831
0.000194035
0.000197082
0.000200208
0.000203614
0.000207456
0.000211802
0.000216592
0.000221646
0.000226675
0.000231308
0.000235152
0.000237912
0.000239531
0.000240212
0.000240339
0.000170548
0.000170244
0.000169739
0.0001692
0.000168815
0.000168765
0.000169196
0.000170185
0.000171742
0.000173835
0.000176396
0.000179336
0.000182556
0.000185965
0.000189511
0.000193212
0.000196852
0.00020009
0.000202973
0.00020576
0.000208662
0.000211846
0.000215419
0.000219391
0.000223678
0.000228089
0.000232332
0.00023604
0.000238871
0.000240646
0.000241456
0.000241633
0.000176184
0.00017574
0.000175075
0.000174431
0.00017402
0.000174024
0.0001746
0.000175824
0.000177681
0.000180105
0.000182995
0.000186229
0.000189687
0.000193268
0.000196909
0.000200611
0.000204132
0.00020714
0.0002097
0.000212067
0.000214439
0.000216975
0.000219787
0.000222926
0.000226375
0.000230034
0.000233704
0.000237082
0.000239818
0.000241656
0.000242567
0.000242797
0.00018377
0.000183237
0.000182617
0.000182194
0.000182114
0.000182475
0.000183391
0.000184904
0.000186984
0.000189552
0.000192498
0.000195696
0.000199028
0.000202401
0.000205759
0.000209097
0.000212196
0.000214775
0.000216901
0.000218803
0.000220651
0.000222578
0.000224687
0.00022704
0.000229655
0.0002325
0.000235468
0.000238343
0.000240816
0.000242596
0.000243557
0.000243834
0.000193385
0.000192894
0.000192646
0.000192807
0.000193329
0.000194185
0.000195424
0.000197069
0.000199109
0.000201491
0.000204128
0.000206918
0.000209766
0.000212599
0.000215373
0.000218085
0.000220562
0.000222586
0.000224222
0.00022565
0.000227003
0.000228383
0.000229872
0.000231526
0.000233374
0.000235421
0.000237627
0.000239869
0.000241921
0.000243507
0.000244439
0.000244746
0.000205226
0.000205017
0.000205451
0.000206299
0.000207331
0.000208478
0.000209771
0.000211243
0.000212922
0.000214794
0.000216811
0.000218908
0.000221019
0.000223095
0.000225105
0.000227049
0.000228804
0.000230224
0.000231356
0.000232327
0.00023323
0.000234135
0.000235097
0.000236158
0.000237345
0.000238671
0.000240134
0.000241682
0.000243185
0.000244435
0.000245238
0.00024554
0.00021974
0.000220069
0.000221035
0.00022209
0.000223113
0.00022409
0.000225056
0.000226054
0.000227126
0.000228283
0.000229508
0.000230767
0.000232027
0.000233257
0.000234441
0.000235578
0.000236598
0.000237419
0.000238068
0.000238619
0.000239124
0.000239623
0.000240149
0.000240723
0.000241364
0.000242081
0.000242882
0.000243752
0.000244637
0.000245428
0.000245986
0.000246225
0.000237507
0.000237777
0.000238288
0.000238763
0.000239187
0.000239569
0.000239925
0.000240274
0.000240637
0.000241022
0.000241425
0.000241838
0.000242249
0.00024265
0.000243034
0.000243402
0.000243731
0.000243995
0.000244203
0.000244378
0.000244538
0.000244695
0.000244859
0.000245037
0.000245235
0.000245457
0.000245704
0.000245975
0.000246257
0.000246521
0.000246723
0.000246821
)
;


// ************************************************************************* //
