/*--------------------------------*- C++ -*----------------------------------*\
| =========                 |                                                 |
| \\      /  F ield         | OpenFOAM: The Open Source CFD Toolbox           |
|  \\    /   O peration     | Version:  2212                                  |
|   \\  /    A nd           | Website:  www.openfoam.com                      |
|    \\/     M anipulation  |                                                 |
\*---------------------------------------------------------------------------*/
FoamFile
{
    version     2.0;
    format      ascii;
    arch        "LSB;label=64;scalar=64";
    class       volScalarField;
    location    "1380";
    object      Gch4;
}
// * * * * * * * * * * * * * * * * * * * * * * * * * * * * * * * * * * * * * //

dimensions      [1 -3 0 0 0 0 0];

internalField   nonuniform List<scalar> 
1024
(
1.93489
1.93475
1.93441
1.93378
1.93279
1.93136
1.92946
1.9271
1.92438
1.92149
1.91864
1.91606
1.91393
1.91232
1.91129
1.91094
1.91159
1.91349
1.91645
1.92026
1.92473
1.92956
1.93444
1.939
1.94297
1.94621
1.94869
1.95048
1.95168
1.95243
1.95284
1.95301
1.93484
1.9347
1.93435
1.93372
1.93271
1.93126
1.92932
1.92693
1.92419
1.92127
1.91841
1.91583
1.9137
1.9121
1.91108
1.91072
1.91137
1.91326
1.91622
1.92003
1.92449
1.92933
1.93422
1.93881
1.94282
1.94609
1.9486
1.95041
1.95163
1.95239
1.95281
1.95298
1.93472
1.93458
1.93422
1.93356
1.93252
1.93102
1.92902
1.92656
1.92375
1.92076
1.91785
1.91525
1.91312
1.91154
1.91054
1.91019
1.91083
1.91274
1.9157
1.91952
1.92399
1.92885
1.93377
1.93841
1.94249
1.94584
1.94841
1.95027
1.95153
1.95231
1.95273
1.9529
1.93451
1.93436
1.93399
1.9333
1.93221
1.93064
1.92854
1.92595
1.92299
1.91986
1.91682
1.91416
1.91204
1.91049
1.90952
1.9092
1.90987
1.91183
1.91486
1.91873
1.92323
1.92811
1.93308
1.93781
1.94198
1.94544
1.94811
1.95004
1.95135
1.95216
1.9526
1.95278
1.93418
1.93402
1.93363
1.93291
1.93175
1.93007
1.92783
1.92504
1.92183
1.91843
1.91517
1.91239
1.91025
1.90876
1.90786
1.90758
1.90834
1.91045
1.91364
1.91764
1.92222
1.92717
1.93221
1.93703
1.94133
1.94491
1.9477
1.94973
1.9511
1.95195
1.95241
1.9526
1.93368
1.93352
1.93311
1.93235
1.93111
1.9293
1.92684
1.92376
1.92018
1.91636
1.91273
1.90973
1.90755
1.90612
1.90532
1.90515
1.90607
1.90847
1.912
1.91627
1.92104
1.9261
1.93124
1.93617
1.9406
1.94432
1.94723
1.94935
1.95079
1.95168
1.95217
1.95236
1.93295
1.93279
1.93237
1.93156
1.93023
1.92824
1.9255
1.92202
1.91791
1.91351
1.90936
1.90602
1.90373
1.90235
1.90166
1.90166
1.90288
1.90578
1.90988
1.91465
1.91975
1.92504
1.93032
1.93537
1.93992
1.94375
1.94676
1.94896
1.95046
1.95138
1.95188
1.95208
1.93192
1.93176
1.93131
1.93045
1.92901
1.92681
1.92372
1.9197
1.91491
1.90976
1.90493
1.90112
1.89863
1.89726
1.89668
1.89689
1.89858
1.90227
1.90727
1.91282
1.91849
1.92413
1.92963
1.93481
1.93944
1.94333
1.94639
1.94862
1.95014
1.95107
1.95157
1.95177
1.93045
1.93028
1.92981
1.92889
1.92731
1.92485
1.92132
1.91666
1.91103
1.90498
1.89934
1.89495
1.89214
1.89068
1.89017
1.89063
1.89299
1.8978
1.90409
1.9108
1.91734
1.92353
1.92934
1.93465
1.93932
1.94319
1.94621
1.94839
1.94986
1.95076
1.95124
1.95143
1.92833
1.92815
1.92766
1.92666
1.92491
1.92213
1.91808
1.91266
1.90609
1.89902
1.89249
1.88743
1.8842
1.88251
1.88194
1.88265
1.88582
1.89209
1.9001
1.90842
1.9162
1.92321
1.92946
1.93494
1.93959
1.94334
1.9462
1.94823
1.94956
1.95036
1.95077
1.95093
1.9253
1.92511
1.92458
1.92347
1.9215
1.91833
1.91367
1.9074
1.8998
1.89169
1.88424
1.87846
1.87468
1.87257
1.87172
1.87252
1.87648
1.8843
1.89435
1.90476
1.9143
1.92251
1.92946
1.93522
1.93986
1.94342
1.94601
1.94776
1.94883
1.94943
1.9497
1.94979
1.92105
1.92084
1.92024
1.91898
1.91672
1.91307
1.9077
1.9005
1.89184
1.8827
1.87437
1.86785
1.86337
1.86052
1.85898
1.8594
1.86358
1.8724
1.88418
1.89685
1.90876
1.91889
1.92713
1.93361
1.93848
1.94194
1.94423
1.94557
1.94625
1.94649
1.94651
1.94647
1.91531
1.91506
1.91436
1.91288
1.91023
1.90598
1.89978
1.89157
1.88188
1.87179
1.86266
1.85535
1.84992
1.84586
1.84296
1.84199
1.84487
1.85281
1.86464
1.8785
1.8925
1.90517
1.91575
1.92405
1.93007
1.93404
1.93633
1.93737
1.93759
1.93738
1.93706
1.93684
1.90803
1.90773
1.90687
1.90509
1.90192
1.8969
1.88971
1.88044
1.86976
1.8589
1.84909
1.84094
1.83424
1.82845
1.82336
1.81956
1.81874
1.82249
1.83061
1.84197
1.85514
1.86865
1.88128
1.89223
1.90088
1.90705
1.91085
1.91271
1.91321
1.91299
1.91256
1.91225
1.8999
1.89956
1.89858
1.89655
1.89298
1.8874
1.87956
1.86962
1.85831
1.84677
1.83606
1.82666
1.81833
1.81053
1.80293
1.79564
1.7896
1.78629
1.78647
1.79004
1.79657
1.80538
1.81563
1.82633
1.83654
1.84544
1.85244
1.85727
1.86009
1.86141
1.86182
1.86183
1.89204
1.89169
1.89068
1.88859
1.88495
1.87928
1.87133
1.86126
1.84971
1.83771
1.8263
1.81601
1.80678
1.79818
1.78981
1.78123
1.77233
1.7636
1.75598
1.75014
1.74663
1.74575
1.74752
1.75171
1.75776
1.76485
1.77201
1.77836
1.78326
1.7865
1.78824
1.78888
1.88595
1.88561
1.88466
1.88272
1.87934
1.87409
1.86669
1.8572
1.84614
1.83444
1.82317
1.81309
1.80452
1.79736
1.79129
1.78565
1.77932
1.77105
1.76114
1.7506
1.7405
1.73174
1.72496
1.72053
1.71855
1.71881
1.7208
1.72379
1.72693
1.72953
1.73122
1.73197
1.88227
1.88195
1.88108
1.87936
1.8764
1.87179
1.86525
1.85677
1.84673
1.83593
1.8254
1.81612
1.80871
1.8034
1.8001
1.79816
1.79589
1.79065
1.78186
1.77039
1.75755
1.74473
1.73309
1.7234
1.71608
1.7112
1.70854
1.70763
1.70787
1.70862
1.70934
1.70974
1.88047
1.88017
1.87938
1.87787
1.8753
1.87135
1.86572
1.85835
1.84951
1.83984
1.83028
1.82183
1.8153
1.81113
1.80938
1.80946
1.8095
1.80643
1.79915
1.788
1.77397
1.75856
1.74336
1.72976
1.71868
1.71049
1.70511
1.70209
1.70078
1.70051
1.70067
1.70086
1.87994
1.87965
1.87893
1.87758
1.87536
1.87199
1.86721
1.86092
1.8533
1.84484
1.83636
1.82875
1.82285
1.81917
1.81784
1.81832
1.81874
1.81634
1.81
1.79968
1.78588
1.76969
1.7526
1.73624
1.72203
1.71086
1.70298
1.6981
1.69558
1.69464
1.69451
1.69461
1.88017
1.8799
1.87925
1.87806
1.87614
1.87325
1.86921
1.86391
1.85746
1.85023
1.84285
1.83609
1.83066
1.82703
1.8253
1.82493
1.82427
1.82118
1.81487
1.80511
1.79204
1.77626
1.75885
1.74126
1.7251
1.71163
1.70156
1.69491
1.69117
1.68953
1.68911
1.68914
1.88053
1.88031
1.87979
1.8788
1.87719
1.87477
1.87139
1.86696
1.86156
1.85547
1.84913
1.84311
1.83791
1.8339
1.83107
1.82892
1.82618
1.8216
1.81469
1.80514
1.79284
1.77802
1.76132
1.74384
1.72698
1.71215
1.70043
1.69222
1.6873
1.68494
1.6842
1.68416
1.88007
1.87998
1.8797
1.87906
1.8779
1.87601
1.87328
1.86962
1.86511
1.85991
1.8543
1.84863
1.84322
1.83827
1.83375
1.82922
1.82399
1.81765
1.80999
1.80059
1.78913
1.77554
1.76014
1.74366
1.72719
1.71199
1.69929
1.68988
1.68389
1.68081
1.67972
1.67959
1.87757
1.87769
1.87783
1.87777
1.87727
1.87607
1.87402
1.87101
1.86708
1.86231
1.85685
1.85088
1.84462
1.83822
1.83167
1.82466
1.81709
1.80926
1.80107
1.79198
1.78155
1.76946
1.75575
1.74084
1.72552
1.71081
1.69787
1.68772
1.68087
1.6771
1.67564
1.67541
1.8717
1.87214
1.87287
1.87358
1.87391
1.87348
1.87202
1.86939
1.86556
1.86057
1.85454
1.84763
1.84007
1.83201
1.82356
1.81454
1.80532
1.79661
1.78835
1.77988
1.77066
1.76026
1.74851
1.73558
1.72194
1.70839
1.69591
1.68557
1.67814
1.67378
1.67195
1.6716
1.86142
1.86225
1.86361
1.86506
1.86608
1.86618
1.86496
1.86221
1.85791
1.85214
1.84509
1.83702
1.82818
1.81884
1.80914
1.79904
1.78912
1.78032
1.7725
1.76494
1.75708
1.74845
1.7388
1.72806
1.7165
1.7046
1.69318
1.6832
1.67558
1.67081
1.66863
1.66815
1.84611
1.84732
1.84912
1.85085
1.85194
1.8519
1.8503
1.84692
1.84182
1.83518
1.82726
1.8184
1.80894
1.79915
1.7892
1.7791
1.76951
1.76133
1.75437
1.74795
1.74152
1.73465
1.72705
1.71856
1.70926
1.69939
1.6895
1.68041
1.67305
1.66811
1.66566
1.66504
1.82551
1.82695
1.82863
1.82976
1.82996
1.82896
1.82644
1.82229
1.8166
1.80958
1.80153
1.79279
1.78369
1.77447
1.76531
1.7562
1.74776
1.74075
1.73497
1.7298
1.72479
1.71957
1.71386
1.7075
1.70044
1.69277
1.68477
1.67704
1.67039
1.6656
1.66302
1.66228
1.79939
1.80072
1.80139
1.80094
1.79951
1.79717
1.79378
1.78929
1.78372
1.77721
1.77002
1.7624
1.75463
1.7469
1.73933
1.73194
1.72519
1.71968
1.71523
1.71135
1.70768
1.70394
1.69991
1.69544
1.69045
1.68493
1.67898
1.67295
1.66743
1.66317
1.66067
1.65984
1.76724
1.76781
1.76663
1.76432
1.7615
1.75838
1.75485
1.75084
1.74626
1.74115
1.73565
1.72993
1.72417
1.71851
1.71303
1.70773
1.70294
1.69908
1.696
1.69336
1.69091
1.68846
1.68585
1.68298
1.67978
1.6762
1.67226
1.66809
1.66405
1.66069
1.65854
1.65773
1.72784
1.72694
1.72432
1.72145
1.71867
1.71601
1.71338
1.71066
1.70774
1.70458
1.70125
1.69781
1.69438
1.69102
1.68779
1.68469
1.68191
1.67968
1.67791
1.67641
1.67504
1.67369
1.67227
1.67071
1.66898
1.66705
1.66489
1.66255
1.66016
1.65804
1.65655
1.65591
1.67961
1.67888
1.67749
1.6762
1.67505
1.67401
1.67304
1.67209
1.6711
1.67005
1.66896
1.66783
1.66671
1.66562
1.66457
1.66356
1.66267
1.66195
1.66138
1.66091
1.66047
1.66005
1.6596
1.65912
1.65859
1.65799
1.65732
1.65659
1.65583
1.65512
1.65458
1.65432
)
;

boundaryField
{
    movingWall
    {
        type            fixedValue;
        value           uniform 1.6535;
    }
    fixedWalls
    {
        type            zeroGradient;
    }
    floor
    {
        type            zeroGradient;
    }
    frontAndBack
    {
        type            empty;
    }
}


// ************************************************************************* //
