/*--------------------------------*- C++ -*----------------------------------*\
| =========                 |                                                 |
| \\      /  F ield         | OpenFOAM: The Open Source CFD Toolbox           |
|  \\    /   O peration     | Version:  2212                                  |
|   \\  /    A nd           | Website:  www.openfoam.com                      |
|    \\/     M anipulation  |                                                 |
\*---------------------------------------------------------------------------*/
FoamFile
{
    version     2.0;
    format      ascii;
    arch        "LSB;label=64;scalar=64";
    class       volScalarField;
    location    "1380";
    object      Gh2;
}
// * * * * * * * * * * * * * * * * * * * * * * * * * * * * * * * * * * * * * //

dimensions      [1 -3 0 0 0 0 0];

internalField   nonuniform List<scalar> 
1024
(
1.28366e-05
1.28356e-05
1.28331e-05
1.28286e-05
1.28214e-05
1.2811e-05
1.27972e-05
1.27801e-05
1.27605e-05
1.27397e-05
1.27192e-05
1.27008e-05
1.26857e-05
1.26746e-05
1.2668e-05
1.26666e-05
1.26725e-05
1.26873e-05
1.27094e-05
1.27376e-05
1.27704e-05
1.28059e-05
1.28419e-05
1.28756e-05
1.2905e-05
1.29291e-05
1.29475e-05
1.29608e-05
1.29698e-05
1.29753e-05
1.29784e-05
1.29796e-05
1.28363e-05
1.28352e-05
1.28327e-05
1.28281e-05
1.28208e-05
1.28103e-05
1.27962e-05
1.27789e-05
1.27591e-05
1.27381e-05
1.27176e-05
1.26992e-05
1.26841e-05
1.26731e-05
1.26665e-05
1.26651e-05
1.2671e-05
1.26857e-05
1.27078e-05
1.27359e-05
1.27687e-05
1.28043e-05
1.28403e-05
1.28742e-05
1.29039e-05
1.29282e-05
1.29469e-05
1.29603e-05
1.29694e-05
1.29751e-05
1.29782e-05
1.29794e-05
1.28354e-05
1.28344e-05
1.28317e-05
1.2827e-05
1.28194e-05
1.28086e-05
1.27941e-05
1.27763e-05
1.2756e-05
1.27345e-05
1.27136e-05
1.2695e-05
1.268e-05
1.26692e-05
1.26627e-05
1.26613e-05
1.26673e-05
1.26821e-05
1.27042e-05
1.27324e-05
1.27651e-05
1.28008e-05
1.2837e-05
1.28713e-05
1.29015e-05
1.29263e-05
1.29455e-05
1.29593e-05
1.29686e-05
1.29744e-05
1.29776e-05
1.29789e-05
1.28339e-05
1.28328e-05
1.28301e-05
1.28251e-05
1.28172e-05
1.28058e-05
1.27906e-05
1.27719e-05
1.27506e-05
1.2728e-05
1.27063e-05
1.26873e-05
1.26724e-05
1.26619e-05
1.26557e-05
1.26545e-05
1.26606e-05
1.26759e-05
1.26984e-05
1.27269e-05
1.27598e-05
1.27956e-05
1.28321e-05
1.28669e-05
1.28978e-05
1.29234e-05
1.29433e-05
1.29576e-05
1.29674e-05
1.29734e-05
1.29767e-05
1.2978e-05
1.28315e-05
1.28303e-05
1.28275e-05
1.28223e-05
1.28139e-05
1.28017e-05
1.27855e-05
1.27654e-05
1.27423e-05
1.27179e-05
1.26945e-05
1.26748e-05
1.26599e-05
1.26498e-05
1.26442e-05
1.26434e-05
1.26502e-05
1.26665e-05
1.26901e-05
1.27194e-05
1.27528e-05
1.27889e-05
1.28259e-05
1.28614e-05
1.28931e-05
1.29196e-05
1.29403e-05
1.29554e-05
1.29656e-05
1.29719e-05
1.29753e-05
1.29767e-05
1.28278e-05
1.28267e-05
1.28237e-05
1.28182e-05
1.28093e-05
1.27962e-05
1.27784e-05
1.27562e-05
1.27305e-05
1.27032e-05
1.26773e-05
1.26561e-05
1.26409e-05
1.26314e-05
1.26266e-05
1.26267e-05
1.26348e-05
1.26532e-05
1.26791e-05
1.27101e-05
1.27447e-05
1.27815e-05
1.28191e-05
1.28553e-05
1.28879e-05
1.29154e-05
1.29369e-05
1.29527e-05
1.29634e-05
1.297e-05
1.29736e-05
1.29751e-05
1.28226e-05
1.28214e-05
1.28184e-05
1.28125e-05
1.28029e-05
1.27886e-05
1.27689e-05
1.27438e-05
1.27143e-05
1.26829e-05
1.26534e-05
1.26299e-05
1.26141e-05
1.26052e-05
1.26015e-05
1.2603e-05
1.26134e-05
1.26353e-05
1.26651e-05
1.26994e-05
1.27362e-05
1.27744e-05
1.28128e-05
1.28498e-05
1.28831e-05
1.29114e-05
1.29336e-05
1.29499e-05
1.2961e-05
1.29679e-05
1.29716e-05
1.29731e-05
1.28152e-05
1.2814e-05
1.28108e-05
1.28046e-05
1.27942e-05
1.27783e-05
1.27561e-05
1.27273e-05
1.2693e-05
1.26563e-05
1.26221e-05
1.25955e-05
1.25785e-05
1.25699e-05
1.25673e-05
1.25706e-05
1.25846e-05
1.26121e-05
1.26481e-05
1.26877e-05
1.27282e-05
1.27687e-05
1.28085e-05
1.28461e-05
1.288e-05
1.29086e-05
1.29311e-05
1.29476e-05
1.29588e-05
1.29658e-05
1.29695e-05
1.2971e-05
1.28045e-05
1.28033e-05
1.28e-05
1.27933e-05
1.27819e-05
1.27642e-05
1.27389e-05
1.27055e-05
1.26654e-05
1.26224e-05
1.25827e-05
1.25522e-05
1.25334e-05
1.25245e-05
1.25228e-05
1.25284e-05
1.25473e-05
1.25828e-05
1.26278e-05
1.26752e-05
1.27215e-05
1.27656e-05
1.28073e-05
1.28457e-05
1.28797e-05
1.2908e-05
1.29302e-05
1.29463e-05
1.29571e-05
1.29638e-05
1.29673e-05
1.29688e-05
1.27892e-05
1.2788e-05
1.27844e-05
1.27772e-05
1.27647e-05
1.27447e-05
1.27157e-05
1.2677e-05
1.26303e-05
1.25803e-05
1.25345e-05
1.24997e-05
1.24783e-05
1.24684e-05
1.24668e-05
1.24747e-05
1.24997e-05
1.25455e-05
1.26024e-05
1.26608e-05
1.27155e-05
1.27649e-05
1.28094e-05
1.28488e-05
1.28824e-05
1.29098e-05
1.29307e-05
1.29456e-05
1.29554e-05
1.29613e-05
1.29644e-05
1.29656e-05
1.27674e-05
1.2766e-05
1.27622e-05
1.27542e-05
1.27401e-05
1.27175e-05
1.26842e-05
1.26395e-05
1.25857e-05
1.25285e-05
1.24766e-05
1.24372e-05
1.24126e-05
1.24003e-05
1.23975e-05
1.24065e-05
1.24375e-05
1.24943e-05
1.25654e-05
1.26382e-05
1.27048e-05
1.27623e-05
1.28113e-05
1.28524e-05
1.28856e-05
1.29114e-05
1.29302e-05
1.2943e-05
1.2951e-05
1.29555e-05
1.29575e-05
1.29582e-05
1.27367e-05
1.27352e-05
1.27309e-05
1.27219e-05
1.27058e-05
1.26798e-05
1.26416e-05
1.25904e-05
1.25293e-05
1.24653e-05
1.24077e-05
1.23636e-05
1.23347e-05
1.23179e-05
1.23109e-05
1.23178e-05
1.23508e-05
1.24148e-05
1.2498e-05
1.25866e-05
1.26694e-05
1.274e-05
1.27977e-05
1.28433e-05
1.28778e-05
1.29026e-05
1.2919e-05
1.29289e-05
1.2934e-05
1.29359e-05
1.29362e-05
1.2936e-05
1.26953e-05
1.26935e-05
1.26885e-05
1.2678e-05
1.26592e-05
1.2629e-05
1.2585e-05
1.25271e-05
1.24589e-05
1.23887e-05
1.23259e-05
1.2277e-05
1.2242e-05
1.22173e-05
1.22012e-05
1.2199e-05
1.22234e-05
1.22819e-05
1.23659e-05
1.24629e-05
1.25602e-05
1.26482e-05
1.27217e-05
1.27795e-05
1.28216e-05
1.28495e-05
1.28657e-05
1.28732e-05
1.2875e-05
1.28737e-05
1.28716e-05
1.28702e-05
1.26428e-05
1.26407e-05
1.26347e-05
1.2622e-05
1.25996e-05
1.25641e-05
1.25134e-05
1.24481e-05
1.23735e-05
1.22982e-05
1.22312e-05
1.21768e-05
1.21333e-05
1.20967e-05
1.20656e-05
1.20441e-05
1.20436e-05
1.20739e-05
1.21332e-05
1.22137e-05
1.23057e-05
1.23994e-05
1.24867e-05
1.25623e-05
1.26221e-05
1.26647e-05
1.2691e-05
1.27039e-05
1.27075e-05
1.2706e-05
1.27031e-05
1.2701e-05
1.25843e-05
1.25819e-05
1.2575e-05
1.25607e-05
1.25355e-05
1.24962e-05
1.24409e-05
1.23712e-05
1.22923e-05
1.22124e-05
1.21392e-05
1.20761e-05
1.20211e-05
1.19703e-05
1.19218e-05
1.18765e-05
1.18407e-05
1.18238e-05
1.183e-05
1.18583e-05
1.19057e-05
1.19678e-05
1.20388e-05
1.21125e-05
1.21823e-05
1.22431e-05
1.22909e-05
1.23237e-05
1.23429e-05
1.23519e-05
1.23546e-05
1.23547e-05
1.25274e-05
1.2525e-05
1.25179e-05
1.25032e-05
1.24775e-05
1.24376e-05
1.23816e-05
1.23109e-05
1.22301e-05
1.21468e-05
1.20682e-05
1.19982e-05
1.19362e-05
1.18792e-05
1.18247e-05
1.17702e-05
1.17155e-05
1.16631e-05
1.16183e-05
1.15849e-05
1.15662e-05
1.1564e-05
1.15786e-05
1.16083e-05
1.16498e-05
1.16978e-05
1.1746e-05
1.17885e-05
1.18212e-05
1.18428e-05
1.18544e-05
1.18586e-05
1.24828e-05
1.24805e-05
1.24738e-05
1.24602e-05
1.24364e-05
1.23993e-05
1.23471e-05
1.22801e-05
1.22023e-05
1.21204e-05
1.20417e-05
1.1972e-05
1.19133e-05
1.18647e-05
1.18245e-05
1.1789e-05
1.17511e-05
1.17026e-05
1.16444e-05
1.15823e-05
1.15227e-05
1.1471e-05
1.1431e-05
1.14051e-05
1.1394e-05
1.13966e-05
1.14098e-05
1.14292e-05
1.14494e-05
1.14661e-05
1.14769e-05
1.14817e-05
1.24552e-05
1.2453e-05
1.24469e-05
1.24349e-05
1.24139e-05
1.23813e-05
1.2335e-05
1.22748e-05
1.22037e-05
1.21272e-05
1.20529e-05
1.19874e-05
1.19353e-05
1.1898e-05
1.18752e-05
1.1863e-05
1.18509e-05
1.18218e-05
1.17712e-05
1.17042e-05
1.16289e-05
1.15535e-05
1.14848e-05
1.14275e-05
1.1384e-05
1.13547e-05
1.13384e-05
1.13325e-05
1.13336e-05
1.13377e-05
1.13418e-05
1.13441e-05
1.2441e-05
1.24389e-05
1.24334e-05
1.24228e-05
1.24047e-05
1.23766e-05
1.23366e-05
1.2284e-05
1.22209e-05
1.21518e-05
1.20835e-05
1.2023e-05
1.1976e-05
1.19455e-05
1.19321e-05
1.19324e-05
1.19347e-05
1.19189e-05
1.18774e-05
1.18121e-05
1.17294e-05
1.16382e-05
1.15484e-05
1.1468e-05
1.14025e-05
1.1354e-05
1.13219e-05
1.13035e-05
1.12952e-05
1.1293e-05
1.12936e-05
1.12944e-05
1.24359e-05
1.24339e-05
1.24289e-05
1.24194e-05
1.24038e-05
1.23798e-05
1.23456e-05
1.23006e-05
1.22459e-05
1.2185e-05
1.21237e-05
1.20686e-05
1.20253e-05
1.19977e-05
1.19867e-05
1.19893e-05
1.19937e-05
1.19816e-05
1.19454e-05
1.18848e-05
1.1803e-05
1.17069e-05
1.16054e-05
1.15085e-05
1.14244e-05
1.13583e-05
1.13116e-05
1.12825e-05
1.12673e-05
1.12612e-05
1.126e-05
1.12604e-05
1.24364e-05
1.24346e-05
1.243e-05
1.24217e-05
1.24081e-05
1.23875e-05
1.23586e-05
1.23205e-05
1.22739e-05
1.22216e-05
1.21679e-05
1.21185e-05
1.20783e-05
1.2051e-05
1.20374e-05
1.20344e-05
1.20315e-05
1.20146e-05
1.19781e-05
1.19203e-05
1.18424e-05
1.17482e-05
1.16445e-05
1.154e-05
1.14442e-05
1.13646e-05
1.1305e-05
1.12656e-05
1.12433e-05
1.12332e-05
1.12304e-05
1.12303e-05
1.24384e-05
1.24369e-05
1.24331e-05
1.24261e-05
1.24147e-05
1.23974e-05
1.23731e-05
1.23411e-05
1.2302e-05
1.22577e-05
1.22115e-05
1.21674e-05
1.21292e-05
1.20996e-05
1.20791e-05
1.20647e-05
1.20484e-05
1.20215e-05
1.19806e-05
1.19235e-05
1.18497e-05
1.17608e-05
1.1661e-05
1.15568e-05
1.14567e-05
1.13689e-05
1.12997e-05
1.12512e-05
1.1222e-05
1.12078e-05
1.12032e-05
1.12027e-05
1.24357e-05
1.24349e-05
1.24327e-05
1.2428e-05
1.24194e-05
1.24058e-05
1.2386e-05
1.23595e-05
1.23268e-05
1.22891e-05
1.22485e-05
1.22075e-05
1.21686e-05
1.21335e-05
1.21025e-05
1.2073e-05
1.20405e-05
1.2002e-05
1.19557e-05
1.18989e-05
1.18298e-05
1.17479e-05
1.16555e-05
1.15571e-05
1.14591e-05
1.13691e-05
1.1294e-05
1.12386e-05
1.12032e-05
1.11849e-05
1.11782e-05
1.11773e-05
1.24203e-05
1.24209e-05
1.24214e-05
1.24203e-05
1.2416e-05
1.24069e-05
1.23918e-05
1.237e-05
1.23417e-05
1.23076e-05
1.22689e-05
1.2227e-05
1.21836e-05
1.214e-05
1.20964e-05
1.20512e-05
1.20037e-05
1.19553e-05
1.19052e-05
1.18498e-05
1.17864e-05
1.17133e-05
1.16308e-05
1.15415e-05
1.14502e-05
1.1363e-05
1.12866e-05
1.12268e-05
1.11865e-05
1.11642e-05
1.11554e-05
1.11539e-05
1.2384e-05
1.23866e-05
1.23907e-05
1.23946e-05
1.23956e-05
1.23915e-05
1.23805e-05
1.23616e-05
1.23347e-05
1.23001e-05
1.22588e-05
1.22119e-05
1.21611e-05
1.21077e-05
1.20525e-05
1.19947e-05
1.19365e-05
1.18823e-05
1.18313e-05
1.17793e-05
1.1723e-05
1.16599e-05
1.1589e-05
1.15114e-05
1.143e-05
1.13495e-05
1.12758e-05
1.12149e-05
1.11713e-05
1.11457e-05
1.11348e-05
1.11326e-05
1.23201e-05
1.23251e-05
1.23333e-05
1.23418e-05
1.23473e-05
1.23467e-05
1.23376e-05
1.23184e-05
1.22892e-05
1.22506e-05
1.22038e-05
1.21505e-05
1.20925e-05
1.20316e-05
1.19689e-05
1.19044e-05
1.18418e-05
1.17867e-05
1.17381e-05
1.16915e-05
1.16433e-05
1.15908e-05
1.15323e-05
1.14678e-05
1.13987e-05
1.1328e-05
1.12604e-05
1.12016e-05
1.1157e-05
1.1129e-05
1.11162e-05
1.11132e-05
1.2225e-05
1.22323e-05
1.22433e-05
1.22536e-05
1.22597e-05
1.22585e-05
1.22473e-05
1.22247e-05
1.21912e-05
1.21477e-05
1.20962e-05
1.20388e-05
1.19776e-05
1.19144e-05
1.18506e-05
1.17862e-05
1.17256e-05
1.16742e-05
1.16309e-05
1.15911e-05
1.15515e-05
1.15096e-05
1.14635e-05
1.14124e-05
1.13566e-05
1.12979e-05
1.12394e-05
1.11859e-05
1.11428e-05
1.11139e-05
1.10996e-05
1.10958e-05
1.20969e-05
1.21058e-05
1.2116e-05
1.21228e-05
1.21235e-05
1.21165e-05
1.20999e-05
1.2073e-05
1.20362e-05
1.1991e-05
1.19393e-05
1.18832e-05
1.18248e-05
1.17658e-05
1.17072e-05
1.16493e-05
1.15959e-05
1.15518e-05
1.15157e-05
1.14836e-05
1.14527e-05
1.14207e-05
1.1386e-05
1.13476e-05
1.13053e-05
1.12596e-05
1.12122e-05
1.11667e-05
1.11277e-05
1.10998e-05
1.10848e-05
1.10804e-05
1.19348e-05
1.19431e-05
1.19471e-05
1.1944e-05
1.19348e-05
1.19197e-05
1.1898e-05
1.18693e-05
1.18338e-05
1.17923e-05
1.17464e-05
1.16978e-05
1.16482e-05
1.15989e-05
1.15506e-05
1.15036e-05
1.14609e-05
1.14262e-05
1.13983e-05
1.13742e-05
1.13515e-05
1.13285e-05
1.1304e-05
1.1277e-05
1.1247e-05
1.1214e-05
1.11788e-05
1.11433e-05
1.1111e-05
1.10862e-05
1.10717e-05
1.10668e-05
1.17355e-05
1.1739e-05
1.17316e-05
1.17171e-05
1.16995e-05
1.16797e-05
1.16574e-05
1.1632e-05
1.1603e-05
1.15706e-05
1.15356e-05
1.14993e-05
1.14626e-05
1.14266e-05
1.13916e-05
1.13579e-05
1.13277e-05
1.13033e-05
1.1284e-05
1.12675e-05
1.12524e-05
1.12373e-05
1.12214e-05
1.1204e-05
1.11847e-05
1.11634e-05
1.114e-05
1.11154e-05
1.10918e-05
1.10723e-05
1.10598e-05
1.10551e-05
1.14916e-05
1.1486e-05
1.14697e-05
1.14519e-05
1.14345e-05
1.14179e-05
1.14013e-05
1.13842e-05
1.13657e-05
1.13458e-05
1.13246e-05
1.13028e-05
1.1281e-05
1.12596e-05
1.1239e-05
1.12193e-05
1.12017e-05
1.11876e-05
1.11766e-05
1.11672e-05
1.11587e-05
1.11504e-05
1.11417e-05
1.11323e-05
1.11218e-05
1.11103e-05
1.10974e-05
1.10836e-05
1.10697e-05
1.10574e-05
1.10487e-05
1.10451e-05
1.11933e-05
1.11888e-05
1.11802e-05
1.11722e-05
1.1165e-05
1.11585e-05
1.11524e-05
1.11464e-05
1.11402e-05
1.11336e-05
1.11266e-05
1.11195e-05
1.11124e-05
1.11054e-05
1.10987e-05
1.10924e-05
1.10867e-05
1.10822e-05
1.10786e-05
1.10756e-05
1.10729e-05
1.10703e-05
1.10676e-05
1.10647e-05
1.10614e-05
1.10579e-05
1.10539e-05
1.10496e-05
1.10451e-05
1.1041e-05
1.10379e-05
1.10364e-05
)
;

boundaryField
{
    movingWall
    {
        type            fixedValue;
        value           uniform 1.1032e-05;
    }
    fixedWalls
    {
        type            zeroGradient;
    }
    floor
    {
        type            zeroGradient;
    }
    frontAndBack
    {
        type            empty;
    }
}


// ************************************************************************* //
