/*--------------------------------*- C++ -*----------------------------------*\
| =========                 |                                                 |
| \\      /  F ield         | OpenFOAM: The Open Source CFD Toolbox           |
|  \\    /   O peration     | Version:  2212                                  |
|   \\  /    A nd           | Website:  www.openfoam.com                      |
|    \\/     M anipulation  |                                                 |
\*---------------------------------------------------------------------------*/
FoamFile
{
    version     2.0;
    format      ascii;
    arch        "LSB;label=64;scalar=64";
    class       volScalarField;
    location    "1380";
    object      p;
}
// * * * * * * * * * * * * * * * * * * * * * * * * * * * * * * * * * * * * * //

dimensions      [0 2 -2 0 0 0 0];

internalField   nonuniform List<scalar> 
1024
(
0
-1.73365e-06
-3.23406e-06
-2.8374e-06
8.00157e-07
8.7914e-06
2.21192e-05
4.1304e-05
6.50345e-05
8.68006e-05
9.69955e-05
8.62719e-05
5.65881e-05
1.34668e-05
-3.73097e-05
-9.62422e-05
-0.00016629
-0.000241574
-0.000305583
-0.000349469
-0.000374939
-0.00038788
-0.000393648
-0.000395789
-0.00039635
-0.000396314
-0.000395966
-0.000395218
-0.000393985
-0.000392443
-0.000391007
-0.000390224
-0.0928113
-0.092813
-0.0928143
-0.0928138
-0.0928106
-0.0928035
-0.0927915
-0.0927738
-0.0927517
-0.0927314
-0.0927219
-0.092732
-0.0927607
-0.0928029
-0.0928531
-0.0929118
-0.0929816
-0.0930563
-0.0931195
-0.0931627
-0.0931875
-0.0932
-0.0932054
-0.0932073
-0.0932077
-0.0932074
-0.0932069
-0.0932061
-0.093205
-0.0932037
-0.0932024
-0.0932016
-0.199426
-0.199428
-0.199429
-0.199429
-0.199427
-0.199421
-0.199411
-0.199395
-0.199375
-0.199357
-0.199349
-0.199358
-0.199386
-0.199426
-0.199476
-0.199534
-0.199603
-0.199677
-0.199739
-0.199781
-0.199805
-0.199816
-0.199821
-0.199822
-0.199822
-0.199821
-0.19982
-0.199819
-0.199818
-0.199817
-0.199815
-0.199814
-0.321899
-0.321902
-0.321904
-0.321904
-0.321903
-0.321899
-0.321891
-0.321878
-0.32186
-0.321844
-0.321838
-0.321847
-0.321873
-0.321911
-0.321959
-0.322016
-0.322084
-0.322157
-0.322218
-0.322259
-0.322281
-0.322291
-0.322294
-0.322294
-0.322292
-0.322291
-0.322289
-0.322288
-0.322287
-0.322285
-0.322283
-0.322282
-0.462591
-0.462594
-0.462597
-0.462598
-0.462599
-0.462597
-0.462592
-0.462581
-0.462566
-0.462553
-0.462549
-0.462558
-0.462582
-0.462618
-0.462663
-0.462718
-0.462785
-0.462857
-0.462918
-0.462957
-0.462976
-0.462984
-0.462984
-0.462982
-0.462979
-0.462976
-0.462973
-0.462971
-0.462969
-0.462967
-0.462965
-0.462963
-0.624215
-0.624217
-0.62422
-0.624223
-0.624225
-0.624225
-0.624222
-0.624215
-0.624203
-0.624193
-0.624191
-0.624201
-0.624223
-0.624256
-0.624298
-0.62435
-0.624416
-0.624488
-0.624548
-0.624585
-0.624602
-0.624606
-0.624603
-0.624598
-0.624592
-0.624587
-0.624582
-0.624579
-0.624576
-0.624574
-0.624571
-0.624568
-0.809881
-0.809884
-0.809886
-0.809889
-0.809893
-0.809895
-0.809895
-0.80989
-0.809881
-0.809875
-0.809876
-0.809887
-0.809909
-0.809939
-0.809977
-0.810026
-0.81009
-0.810161
-0.810221
-0.810257
-0.810271
-0.81027
-0.810264
-0.810255
-0.810245
-0.810237
-0.81023
-0.810225
-0.810222
-0.810219
-0.810215
-0.810212
-1.02317
-1.02317
-1.02317
-1.02317
-1.02318
-1.02318
-1.02318
-1.02318
-1.02317
-1.02317
-1.02318
-1.02319
-1.02321
-1.02324
-1.02327
-1.02332
-1.02338
-1.02345
-1.02351
-1.02355
-1.02356
-1.02355
-1.02354
-1.02353
-1.02352
-1.0235
-1.02349
-1.02349
-1.02348
-1.02348
-1.02348
-1.02347
-1.26817
-1.26817
-1.26817
-1.26818
-1.26818
-1.26818
-1.26819
-1.26819
-1.26819
-1.26819
-1.2682
-1.26821
-1.26823
-1.26826
-1.26829
-1.26833
-1.26839
-1.26846
-1.26853
-1.26856
-1.26857
-1.26856
-1.26854
-1.26853
-1.26851
-1.26849
-1.26848
-1.26847
-1.26847
-1.26846
-1.26846
-1.26846
-1.54961
-1.54961
-1.54961
-1.54962
-1.54962
-1.54962
-1.54962
-1.54963
-1.54963
-1.54963
-1.54965
-1.54967
-1.54969
-1.54971
-1.54974
-1.54978
-1.54984
-1.54991
-1.54997
-1.55001
-1.55002
-1.55
-1.54998
-1.54996
-1.54994
-1.54992
-1.54991
-1.5499
-1.54989
-1.54989
-1.54988
-1.54988
-1.87291
-1.87291
-1.87291
-1.87291
-1.87291
-1.87291
-1.87291
-1.87292
-1.87292
-1.87293
-1.87295
-1.87297
-1.87299
-1.87302
-1.87305
-1.87309
-1.87314
-1.87321
-1.87327
-1.8733
-1.87331
-1.87328
-1.87326
-1.87324
-1.87321
-1.8732
-1.87318
-1.87317
-1.87316
-1.87316
-1.87316
-1.87316
-2.24427
-2.24427
-2.24428
-2.24428
-2.24428
-2.24428
-2.24428
-2.24428
-2.24429
-2.2443
-2.24432
-2.24435
-2.24438
-2.24441
-2.24444
-2.24447
-2.24452
-2.24458
-2.24462
-2.24465
-2.24465
-2.24462
-2.2446
-2.24457
-2.24455
-2.24453
-2.24451
-2.2445
-2.2445
-2.24449
-2.24449
-2.2445
-2.67087
-2.67087
-2.67087
-2.67087
-2.67087
-2.67087
-2.67088
-2.67088
-2.67089
-2.67091
-2.67094
-2.67096
-2.67099
-2.67103
-2.67106
-2.6711
-2.67113
-2.67117
-2.67119
-2.6712
-2.67119
-2.67116
-2.67112
-2.6711
-2.67107
-2.67106
-2.67104
-2.67104
-2.67103
-2.67103
-2.67104
-2.67104
-3.16092
-3.16092
-3.16092
-3.16092
-3.16092
-3.16092
-3.16092
-3.16093
-3.16095
-3.16097
-3.161
-3.16103
-3.16107
-3.16111
-3.16115
-3.16118
-3.16121
-3.16123
-3.16122
-3.1612
-3.16115
-3.1611
-3.16106
-3.16102
-3.161
-3.16099
-3.16099
-3.16099
-3.16099
-3.16099
-3.16099
-3.16099
-3.72388
-3.72388
-3.72388
-3.72388
-3.72388
-3.72389
-3.72389
-3.7239
-3.72392
-3.72394
-3.72397
-3.72401
-3.72405
-3.7241
-3.72414
-3.72418
-3.72421
-3.72421
-3.72418
-3.72413
-3.72406
-3.72399
-3.72392
-3.72386
-3.72383
-3.72382
-3.72381
-3.72381
-3.72382
-3.72382
-3.72382
-3.72382
-4.37059
-4.3706
-4.3706
-4.3706
-4.3706
-4.37061
-4.37062
-4.37063
-4.37065
-4.37068
-4.37071
-4.37075
-4.37079
-4.37085
-4.3709
-4.37094
-4.37097
-4.37096
-4.37093
-4.37087
-4.3708
-4.37071
-4.37063
-4.37056
-4.37051
-4.37047
-4.37046
-4.37046
-4.37046
-4.37047
-4.37047
-4.37047
-5.06211
-5.06211
-5.06211
-5.06211
-5.06212
-5.06213
-5.06214
-5.06215
-5.06217
-5.0622
-5.06223
-5.06228
-5.06233
-5.06238
-5.06243
-5.06248
-5.06251
-5.06251
-5.06248
-5.06243
-5.06236
-5.06229
-5.06221
-5.06213
-5.06207
-5.06202
-5.062
-5.06198
-5.06198
-5.06199
-5.06199
-5.062
-5.70887
-5.70887
-5.70887
-5.70887
-5.70888
-5.70889
-5.7089
-5.70892
-5.70894
-5.70897
-5.709
-5.70905
-5.7091
-5.70915
-5.70921
-5.70926
-5.70928
-5.70928
-5.70926
-5.70922
-5.70917
-5.70911
-5.70904
-5.70897
-5.7089
-5.70885
-5.70881
-5.70879
-5.70879
-5.70879
-5.7088
-5.7088
-6.27189
-6.27189
-6.27189
-6.27189
-6.2719
-6.27191
-6.27192
-6.27194
-6.27197
-6.27199
-6.27203
-6.27207
-6.27212
-6.27218
-6.27224
-6.27229
-6.27231
-6.27231
-6.27229
-6.27226
-6.27222
-6.27217
-6.27212
-6.27206
-6.27199
-6.27193
-6.27189
-6.27187
-6.27185
-6.27186
-6.27186
-6.27187
-6.762
-6.762
-6.762
-6.762
-6.76201
-6.76202
-6.76204
-6.76206
-6.76208
-6.76211
-6.76215
-6.76219
-6.76224
-6.7623
-6.76236
-6.76242
-6.76244
-6.76244
-6.76241
-6.76239
-6.76235
-6.76231
-6.76227
-6.76221
-6.76216
-6.7621
-6.76205
-6.76202
-6.762
-6.762
-6.762
-6.76201
-7.18865
-7.18865
-7.18865
-7.18865
-7.18866
-7.18866
-7.18868
-7.1887
-7.18873
-7.18876
-7.1888
-7.18885
-7.1889
-7.18896
-7.18903
-7.18908
-7.18911
-7.1891
-7.18908
-7.18905
-7.18901
-7.18897
-7.18893
-7.18888
-7.18883
-7.18877
-7.18871
-7.18867
-7.18865
-7.18864
-7.18865
-7.18866
-7.56006
-7.56005
-7.56005
-7.56005
-7.56006
-7.56006
-7.56008
-7.56009
-7.56012
-7.56016
-7.5602
-7.56025
-7.56031
-7.56038
-7.56045
-7.56051
-7.56054
-7.56053
-7.56051
-7.56047
-7.56043
-7.56038
-7.56033
-7.56028
-7.56022
-7.56016
-7.56009
-7.56004
-7.56
-7.55999
-7.56
-7.56001
-7.88337
-7.88337
-7.88337
-7.88337
-7.88337
-7.88337
-7.88338
-7.8834
-7.88342
-7.88346
-7.88351
-7.88357
-7.88364
-7.88371
-7.88379
-7.88385
-7.88388
-7.88388
-7.88385
-7.88381
-7.88376
-7.8837
-7.88364
-7.88357
-7.8835
-7.88342
-7.88334
-7.88327
-7.88322
-7.8832
-7.8832
-7.88321
-8.16483
-8.16483
-8.16483
-8.16483
-8.16482
-8.16482
-8.16482
-8.16483
-8.16486
-8.1649
-8.16495
-8.16502
-8.1651
-8.16518
-8.16526
-8.16533
-8.16536
-8.16536
-8.16533
-8.16529
-8.16523
-8.16516
-8.16508
-8.16499
-8.16489
-8.16479
-8.16468
-8.16458
-8.16451
-8.16447
-8.16446
-8.16447
-8.40986
-8.40986
-8.40985
-8.40985
-8.40984
-8.40983
-8.40982
-8.40983
-8.40985
-8.40989
-8.40995
-8.41003
-8.41012
-8.41021
-8.4103
-8.41037
-8.4104
-8.4104
-8.41037
-8.41033
-8.41026
-8.41018
-8.41008
-8.40996
-8.40983
-8.40968
-8.40954
-8.4094
-8.40929
-8.40922
-8.4092
-8.40921
-8.62316
-8.62317
-8.62316
-8.62315
-8.62314
-8.62311
-8.6231
-8.6231
-8.62312
-8.62317
-8.62324
-8.62332
-8.62342
-8.62351
-8.62361
-8.62368
-8.62372
-8.62372
-8.62369
-8.62364
-8.62357
-8.62348
-8.62336
-8.62321
-8.62304
-8.62284
-8.62264
-8.62245
-8.62228
-8.62216
-8.62211
-8.62211
-8.80887
-8.80887
-8.80887
-8.80885
-8.80882
-8.80878
-8.80876
-8.80875
-8.80878
-8.80883
-8.80891
-8.809
-8.8091
-8.80921
-8.80931
-8.80939
-8.80943
-8.80943
-8.8094
-8.80934
-8.80927
-8.80916
-8.80902
-8.80885
-8.80863
-8.80838
-8.80811
-8.80784
-8.8076
-8.80741
-8.8073
-8.80726
-8.97055
-8.97055
-8.97054
-8.97051
-8.97046
-8.97041
-8.97038
-8.97037
-8.9704
-8.97045
-8.97054
-8.97064
-8.97075
-8.97086
-8.97096
-8.97105
-8.97109
-8.97109
-8.97106
-8.97101
-8.97092
-8.97081
-8.97065
-8.97045
-8.9702
-8.96989
-8.96955
-8.96919
-8.96884
-8.96854
-8.96833
-8.96824
-9.11136
-9.11135
-9.11131
-9.11125
-9.11118
-9.11112
-9.11108
-9.11107
-9.1111
-9.11116
-9.11125
-9.11136
-9.11147
-9.11159
-9.11169
-9.11178
-9.11182
-9.11183
-9.1118
-9.11174
-9.11165
-9.11153
-9.11136
-9.11114
-9.11086
-9.1105
-9.11009
-9.10963
-9.10915
-9.10869
-9.10834
-9.10811
-9.23406
-9.23398
-9.23388
-9.23377
-9.23367
-9.2336
-9.23356
-9.23355
-9.23358
-9.23365
-9.23375
-9.23386
-9.23398
-9.2341
-9.2342
-9.23429
-9.23434
-9.23434
-9.23431
-9.23425
-9.23416
-9.23404
-9.23386
-9.23363
-9.23332
-9.23294
-9.23247
-9.23193
-9.2313
-9.23063
-9.23
-9.22945
-9.3412
-9.34081
-9.34056
-9.3404
-9.34029
-9.34022
-9.34017
-9.34017
-9.34021
-9.34028
-9.34038
-9.3405
-9.34062
-9.34074
-9.34085
-9.34094
-9.34099
-9.341
-9.34097
-9.34091
-9.34082
-9.34069
-9.34051
-9.34027
-9.33995
-9.33955
-9.33906
-9.33846
-9.33772
-9.33681
-9.33571
-9.33445
-9.43507
-9.43383
-9.43336
-9.4332
-9.4331
-9.43302
-9.43298
-9.43299
-9.43303
-9.43311
-9.43322
-9.43334
-9.43346
-9.43359
-9.4337
-9.43379
-9.43384
-9.43385
-9.43382
-9.43376
-9.43367
-9.43354
-9.43336
-9.43312
-9.4328
-9.4324
-9.43189
-9.43126
-9.43046
-9.42936
-9.42775
-9.42549
)
;

boundaryField
{
    movingWall
    {
        type            calculated;
        value           nonuniform List<scalar> 
32
(
-9.47828
-9.47704
-9.47657
-9.47641
-9.47631
-9.47623
-9.47619
-9.4762
-9.47624
-9.47632
-9.47643
-9.47655
-9.47668
-9.4768
-9.47691
-9.477
-9.47705
-9.47706
-9.47703
-9.47697
-9.47688
-9.47675
-9.47657
-9.47633
-9.47601
-9.47561
-9.47511
-9.47448
-9.47367
-9.47257
-9.47097
-9.46871
)
;
    }
    fixedWalls
    {
        type            calculated;
        value           nonuniform List<scalar> 
64
(
6.93889e-18
-0.0928113
-0.199426
-0.321899
-0.462591
-0.624215
-0.809881
-1.02317
-1.26817
-1.54961
-1.87291
-2.24427
-2.67087
-3.16092
-3.72388
-4.37059
-5.06211
-5.70887
-6.27189
-6.762
-7.18865
-7.56006
-7.88337
-8.16483
-8.40986
-8.62316
-8.80887
-8.97055
-9.11136
-9.23406
-9.3412
-9.43507
-0.000390224
-0.0932016
-0.199814
-0.322282
-0.462963
-0.624568
-0.810212
-1.02347
-1.26846
-1.54988
-1.87316
-2.2445
-2.67104
-3.16099
-3.72382
-4.37047
-5.062
-5.7088
-6.27187
-6.76201
-7.18866
-7.56001
-7.88321
-8.16447
-8.40921
-8.62211
-8.80726
-8.96824
-9.10811
-9.22945
-9.33445
-9.42549
)
;
    }
    floor
    {
        type            calculated;
        value           nonuniform List<scalar> 
32
(
0.0431947
0.0431928
0.0431913
0.0431917
0.0431954
0.0432035
0.0432169
0.0432362
0.0432601
0.043282
0.0432923
0.0432815
0.0432518
0.0432085
0.0431577
0.0430987
0.0430286
0.0429533
0.0428892
0.0428453
0.0428198
0.0428068
0.0428009
0.0427988
0.0427981
0.0427981
0.0427985
0.0427992
0.0428004
0.0428019
0.0428033
0.0428041
)
;
    }
    frontAndBack
    {
        type            empty;
    }
}


// ************************************************************************* //
