/*--------------------------------*- C++ -*----------------------------------*\
| =========                 |                                                 |
| \\      /  F ield         | OpenFOAM: The Open Source CFD Toolbox           |
|  \\    /   O peration     | Version:  2212                                  |
|   \\  /    A nd           | Website:  www.openfoam.com                      |
|    \\/     M anipulation  |                                                 |
\*---------------------------------------------------------------------------*/
FoamFile
{
    version     2.0;
    format      ascii;
    arch        "LSB;label=64;scalar=64";
    class       volScalarField;
    location    "1380";
    object      p_rgh;
}
// * * * * * * * * * * * * * * * * * * * * * * * * * * * * * * * * * * * * * //

dimensions      [0 2 -2 0 0 0 0];

internalField   nonuniform List<scalar> 
1024
(
0.0431947
0.0431928
0.0431913
0.0431917
0.0431954
0.0432035
0.0432169
0.0432362
0.0432601
0.043282
0.0432923
0.0432815
0.0432518
0.0432085
0.0431577
0.0430987
0.0430286
0.0429533
0.0428892
0.0428453
0.0428198
0.0428068
0.0428009
0.0427988
0.0427981
0.0427981
0.0427985
0.0427992
0.0428004
0.0428019
0.0428033
0.0428041
0.0431978
0.0431961
0.0431949
0.0431957
0.0431995
0.0432074
0.0432204
0.0432393
0.0432627
0.0432842
0.0432944
0.043284
0.0432547
0.0432117
0.0431608
0.0431016
0.0430314
0.0429562
0.0428923
0.0428486
0.0428232
0.0428102
0.0428043
0.0428019
0.0428011
0.042801
0.0428011
0.0428016
0.0428025
0.0428038
0.042805
0.0428058
0.0432028
0.0432009
0.0431999
0.0432013
0.0432056
0.0432139
0.0432272
0.0432465
0.0432704
0.0432923
0.0433027
0.0432925
0.0432632
0.04322
0.0431689
0.0431094
0.0430388
0.0429633
0.0428991
0.0428553
0.0428298
0.0428166
0.0428104
0.0428077
0.0428066
0.042806
0.0428057
0.0428058
0.0428062
0.0428071
0.0428083
0.0428094
0.0432082
0.043206
0.0432053
0.0432073
0.0432127
0.0432224
0.0432374
0.0432586
0.0432845
0.0433077
0.0433186
0.0433085
0.0432787
0.0432351
0.0431835
0.0431236
0.0430524
0.0429759
0.0429105
0.0428658
0.0428397
0.0428262
0.0428196
0.0428164
0.0428146
0.0428133
0.0428123
0.0428115
0.0428113
0.0428119
0.0428132
0.0428147
0.043212
0.0432099
0.0432096
0.0432128
0.0432202
0.0432325
0.0432507
0.0432754
0.0433044
0.0433295
0.043341
0.0433308
0.0433007
0.0432569
0.0432052
0.043145
0.043073
0.0429948
0.0429272
0.0428807
0.0428535
0.0428393
0.042832
0.042828
0.0428254
0.042823
0.0428207
0.0428187
0.0428176
0.0428177
0.0428192
0.0428212
0.0432124
0.0432108
0.0432114
0.0432164
0.0432266
0.0432429
0.0432658
0.0432954
0.043328
0.0433549
0.0433666
0.0433564
0.0433264
0.0432834
0.0432324
0.0431725
0.0430999
0.0430195
0.0429486
0.0428994
0.0428706
0.0428553
0.0428471
0.0428421
0.0428381
0.0428341
0.04283
0.0428263
0.0428239
0.0428233
0.0428248
0.042827
0.0432083
0.0432075
0.0432096
0.0432168
0.0432306
0.043252
0.0432811
0.0433162
0.0433524
0.0433805
0.0433916
0.0433811
0.043352
0.0433108
0.0432617
0.0432029
0.0431298
0.0430471
0.0429727
0.0429198
0.0428891
0.0428726
0.0428631
0.0428565
0.0428506
0.0428443
0.0428377
0.0428318
0.0428277
0.042826
0.0428271
0.0428294
0.0432006
0.0432007
0.0432042
0.0432139
0.0432319
0.0432591
0.0432949
0.0433361
0.0433759
0.0434046
0.0434141
0.0434026
0.0433741
0.0433351
0.0432885
0.0432313
0.0431578
0.0430724
0.0429943
0.0429374
0.0429049
0.0428874
0.0428765
0.0428678
0.0428592
0.0428499
0.0428402
0.0428315
0.0428252
0.0428222
0.0428224
0.0428243
0.0431917
0.0431926
0.0431974
0.0432095
0.0432315
0.0432648
0.0433078
0.0433556
0.0433994
0.0434281
0.0434347
0.0434208
0.0433921
0.0433545
0.04331
0.043254
0.0431792
0.0430899
0.043007
0.0429466
0.0429127
0.042895
0.0428827
0.0428715
0.0428596
0.0428464
0.042833
0.0428213
0.0428129
0.0428085
0.0428078
0.0428089
0.0431852
0.0431866
0.0431925
0.0432066
0.0432325
0.0432719
0.0433226
0.043378
0.0434263
0.0434543
0.0434565
0.0434381
0.0434074
0.04337
0.0433264
0.0432704
0.0431929
0.0430975
0.0430079
0.0429441
0.0429078
0.042891
0.0428777
0.0428638
0.0428482
0.042831
0.0428141
0.0427998
0.0427899
0.0427846
0.0427829
0.0427831
0.0431845
0.0431862
0.043193
0.0432092
0.0432392
0.0432851
0.0433444
0.0434082
0.0434608
0.0434864
0.0434825
0.0434582
0.0434237
0.0433844
0.0433397
0.0432823
0.0432019
0.0431026
0.0430057
0.0429298
0.0428898
0.0428751
0.0428609
0.0428448
0.042826
0.0428058
0.0427867
0.0427715
0.0427613
0.0427559
0.0427537
0.0427531
0.0431924
0.0431943
0.0432021
0.043221
0.0432563
0.0433105
0.0433797
0.0434509
0.0435047
0.0435249
0.0435137
0.0434836
0.0434453
0.0434035
0.0433571
0.0432987
0.0432187
0.043119
0.0430168
0.0429294
0.0428781
0.0428554
0.0428395
0.0428222
0.0428022
0.0427814
0.0427628
0.0427486
0.0427395
0.0427347
0.0427324
0.0427313
0.0432099
0.0432121
0.0432219
0.0432456
0.0432895
0.0433554
0.0434361
0.0435112
0.0435561
0.0435664
0.0435491
0.0435162
0.0434769
0.0434349
0.0433891
0.0433342
0.043263
0.0431761
0.0430848
0.0429995
0.0429281
0.0428744
0.0428455
0.0428231
0.042801
0.0427799
0.0427617
0.0427487
0.0427413
0.0427381
0.0427371
0.0427366
0.0432397
0.0432428
0.0432566
0.0432894
0.0433476
0.0434305
0.0435231
0.0435984
0.0436355
0.0436357
0.0436126
0.0435784
0.0435386
0.0434952
0.0434496
0.0434033
0.0433513
0.0432953
0.0432417
0.0431936
0.0431474
0.0430935
0.0430226
0.0429516
0.0428994
0.0428627
0.0428335
0.0428147
0.0428065
0.0428055
0.0428075
0.0428092
0.0432495
0.0432538
0.0432719
0.043313
0.0433823
0.0434745
0.0435704
0.0436449
0.043684
0.0436914
0.0436779
0.0436527
0.0436203
0.0435826
0.0435401
0.0434948
0.0434603
0.0434377
0.0434304
0.0434386
0.0434565
0.0434726
0.0434719
0.0434385
0.043361
0.0432571
0.0431568
0.0430847
0.0430522
0.0430415
0.0430415
0.0430441
0.0432058
0.0432116
0.0432327
0.0432789
0.0433547
0.0434533
0.0435549
0.0436363
0.0436856
0.0437055
0.0437051
0.0436916
0.0436686
0.0436372
0.0435986
0.0435556
0.0435188
0.043504
0.0435109
0.0435383
0.0435823
0.0436355
0.0436879
0.0437293
0.0437512
0.0437481
0.0437185
0.0436649
0.0435988
0.0435486
0.0435222
0.0435142
0.0431047
0.0431117
0.0431343
0.0431822
0.0432609
0.0433652
0.0434763
0.0435712
0.0436359
0.043671
0.0436838
0.0436814
0.0436668
0.0436414
0.0436064
0.0435657
0.0435274
0.0435043
0.0434973
0.0435056
0.0435295
0.0435669
0.0436127
0.0436597
0.0437007
0.0437308
0.0437488
0.0437562
0.0437561
0.0437516
0.0437453
0.0437398
0.0429927
0.0430005
0.0430235
0.0430707
0.0431489
0.0432558
0.0433757
0.0434853
0.0435675
0.0436187
0.043645
0.0436533
0.043648
0.0436315
0.0436064
0.0435786
0.0435547
0.0435288
0.0435054
0.0434864
0.043475
0.0434752
0.0434885
0.0435127
0.0435419
0.0435692
0.0435903
0.043604
0.0436123
0.0436172
0.043619
0.043618
0.042907
0.0429156
0.0429384
0.042983
0.0430568
0.0431608
0.0432858
0.0434082
0.0435069
0.0435745
0.0436142
0.0436328
0.0436357
0.0436269
0.0436109
0.0435956
0.0435898
0.0435721
0.0435466
0.0435147
0.0434783
0.043444
0.0434199
0.0434115
0.0434172
0.0434313
0.0434467
0.0434584
0.0434655
0.0434691
0.0434698
0.043468
0.0428522
0.0428615
0.0428842
0.0429268
0.0429963
0.0430953
0.0432176
0.0433451
0.0434568
0.0435401
0.0435932
0.0436211
0.0436298
0.0436248
0.0436115
0.0435985
0.0435958
0.0435919
0.0435785
0.0435506
0.0435122
0.0434635
0.0434126
0.0433747
0.0433555
0.0433533
0.0433604
0.0433687
0.043374
0.0433753
0.0433734
0.0433696
0.0428213
0.0428311
0.0428536
0.0428946
0.0429604
0.0430542
0.043172
0.0432997
0.043418
0.0435117
0.0435751
0.0436101
0.0436221
0.0436171
0.0436014
0.0435835
0.043574
0.043574
0.0435709
0.0435602
0.0435386
0.0435003
0.0434413
0.0433878
0.0433504
0.043335
0.0433356
0.0433422
0.0433472
0.0433476
0.0433436
0.0433376
0.0428062
0.0428161
0.0428384
0.0428781
0.042941
0.0430305
0.0431436
0.0432688
0.0433884
0.0434865
0.0435549
0.043593
0.0436052
0.0435971
0.0435758
0.0435502
0.043533
0.0435326
0.0435363
0.0435379
0.0435322
0.0435131
0.0434783
0.0434327
0.043389
0.0433683
0.0433685
0.0433784
0.0433872
0.0433893
0.0433844
0.0433764
0.0428008
0.0428103
0.042832
0.0428707
0.042932
0.0430189
0.0431287
0.0432505
0.0433673
0.0434635
0.0435303
0.043566
0.0435741
0.0435601
0.0435313
0.0434974
0.0434732
0.04347
0.0434795
0.0434912
0.0435007
0.0435025
0.0434943
0.0434776
0.0434592
0.0434452
0.0434534
0.0434752
0.0434951
0.0435037
0.0434999
0.0434903
0.0428008
0.0428094
0.0428303
0.0428685
0.0429297
0.0430165
0.043125
0.0432432
0.0433539
0.0434424
0.0435007
0.0435276
0.043527
0.0435041
0.0434664
0.0434242
0.0433945
0.0433891
0.0434027
0.0434236
0.0434476
0.0434712
0.0434926
0.0435123
0.0435332
0.0435572
0.0435884
0.0436314
0.0436731
0.0436964
0.0436974
0.0436878
0.042803
0.0428101
0.0428301
0.0428694
0.042933
0.0430222
0.0431311
0.0432451
0.0433465
0.0434218
0.0434654
0.0434778
0.0434637
0.0434291
0.0433813
0.0433313
0.0432975
0.0432914
0.0433078
0.0433373
0.0433756
0.0434215
0.0434746
0.0435358
0.0436064
0.0436847
0.0437664
0.0438473
0.0439233
0.0439745
0.0439879
0.0439822
0.0428046
0.0428101
0.0428302
0.0428724
0.0429408
0.0430351
0.0431449
0.0432531
0.0433414
0.0433985
0.0434223
0.0434157
0.0433848
0.0433363
0.0432779
0.0432209
0.0431844
0.043179
0.0431976
0.0432361
0.0432887
0.0433568
0.0434424
0.043548
0.0436744
0.0438182
0.0439697
0.0441158
0.0442444
0.0443433
0.0443845
0.0443912
0.0427999
0.0428045
0.0428272
0.0428763
0.0429524
0.043051
0.0431619
0.0432613
0.0433322
0.0433673
0.0433679
0.0433398
0.0432906
0.0432279
0.0431596
0.0430974
0.0430605
0.0430575
0.0430812
0.0431276
0.0431939
0.043283
0.0433996
0.0435487
0.0437324
0.0439473
0.0441813
0.0444154
0.0446273
0.0448002
0.0448967
0.0449326
0.0427744
0.0427817
0.0428129
0.0428755
0.0429634
0.0430657
0.0431744
0.0432611
0.0433109
0.0433219
0.0432987
0.0432495
0.0431833
0.0431082
0.0430326
0.0429685
0.0429341
0.0429359
0.042966
0.0430207
0.0430999
0.0432077
0.0433515
0.0435391
0.0437755
0.0440594
0.0443805
0.0447187
0.045046
0.0453287
0.0455228
0.0456181
0.0427001
0.0427215
0.0427762
0.0428634
0.0429671
0.0430738
0.043174
0.0432436
0.0432713
0.0432592
0.0432151
0.0431487
0.0430698
0.0429868
0.0429082
0.042846
0.042817
0.0428251
0.0428623
0.0429255
0.0430158
0.0431388
0.0433042
0.0435222
0.0438007
0.0441429
0.0445441
0.0449909
0.0454587
0.0459054
0.0462539
0.046479
0.0425184
0.0425999
0.0427176
0.0428445
0.0429644
0.0430726
0.0431588
0.0432092
0.0432169
0.0431866
0.0431274
0.04305
0.0429643
0.0428786
0.0428012
0.0427438
0.0427216
0.0427362
0.0427801
0.0428506
0.0429493
0.043083
0.043263
0.0435012
0.0438082
0.0441911
0.0446534
0.045195
0.0458106
0.0464741
0.0471011
0.0476501
0.0420264
0.0424218
0.0426778
0.0428474
0.0429733
0.0430731
0.0431423
0.0431747
0.0431668
0.043124
0.0430559
0.0429731
0.0428852
0.0428003
0.042726
0.0426738
0.0426573
0.0426771
0.0427258
0.0428011
0.0429047
0.0430443
0.0432317
0.0434799
0.0438009
0.0442046
0.0447013
0.0453054
0.0460419
0.0469468
0.0480511
0.0493077
0.0410029
0.0422417
0.0427163
0.0428825
0.0429974
0.0430861
0.043141
0.0431603
0.0431424
0.0430926
0.04302
0.0429349
0.0428466
0.0427625
0.0426903
0.0426409
0.0426273
0.0426496
0.0427005
0.0427778
0.0428832
0.0430245
0.043214
0.0434647
0.043789
0.0441981
0.0447061
0.0453389
0.0461503
0.0472493
0.0488552
0.051116
)
;

boundaryField
{
    movingWall
    {
        type            fixedFluxPressure;
        gradient        uniform 0;
        value           nonuniform List<scalar> 
32
(
0.0410029
0.0422417
0.0427163
0.0428825
0.0429974
0.0430861
0.043141
0.0431603
0.0431424
0.0430926
0.04302
0.0429349
0.0428466
0.0427625
0.0426903
0.0426409
0.0426273
0.0426496
0.0427005
0.0427778
0.0428832
0.0430245
0.043214
0.0434647
0.043789
0.0441981
0.0447061
0.0453389
0.0461503
0.0472493
0.0488552
0.051116
)
;
    }
    fixedWalls
    {
        type            fixedFluxPressure;
        gradient        uniform 0;
        value           nonuniform List<scalar> 
64
(
0.0431947
0.0431978
0.0432028
0.0432082
0.043212
0.0432124
0.0432083
0.0432006
0.0431917
0.0431852
0.0431845
0.0431924
0.0432099
0.0432397
0.0432495
0.0432058
0.0431047
0.0429927
0.042907
0.0428522
0.0428213
0.0428062
0.0428008
0.0428008
0.042803
0.0428046
0.0427999
0.0427744
0.0427001
0.0425184
0.0420264
0.0410029
0.0428041
0.0428058
0.0428094
0.0428147
0.0428212
0.042827
0.0428294
0.0428243
0.0428089
0.0427831
0.0427531
0.0427313
0.0427366
0.0428092
0.0430441
0.0435142
0.0437398
0.043618
0.043468
0.0433696
0.0433376
0.0433764
0.0434903
0.0436878
0.0439822
0.0443912
0.0449326
0.0456181
0.046479
0.0476501
0.0493077
0.051116
)
;
    }
    floor
    {
        type            fixedFluxPressure;
        gradient        uniform 0;
        value           nonuniform List<scalar> 
32
(
0.0431947
0.0431928
0.0431913
0.0431917
0.0431954
0.0432035
0.0432169
0.0432362
0.0432601
0.043282
0.0432923
0.0432815
0.0432518
0.0432085
0.0431577
0.0430987
0.0430286
0.0429533
0.0428892
0.0428453
0.0428198
0.0428068
0.0428009
0.0427988
0.0427981
0.0427981
0.0427985
0.0427992
0.0428004
0.0428019
0.0428033
0.0428041
)
;
    }
    frontAndBack
    {
        type            empty;
    }
}


// ************************************************************************* //
