/*--------------------------------*- C++ -*----------------------------------*\
| =========                 |                                                 |
| \\      /  F ield         | OpenFOAM: The Open Source CFD Toolbox           |
|  \\    /   O peration     | Version:  2212                                  |
|   \\  /    A nd           | Website:  www.openfoam.com                      |
|    \\/     M anipulation  |                                                 |
\*---------------------------------------------------------------------------*/
FoamFile
{
    version     2.0;
    format      ascii;
    arch        "LSB;label=64;scalar=64";
    class       surfaceScalarField;
    location    "1380";
    object      phi;
}
// * * * * * * * * * * * * * * * * * * * * * * * * * * * * * * * * * * * * * //

dimensions      [0 3 -1 0 0 0 0];

oriented        oriented;

internalField   nonuniform List<scalar> 
1984
(
-9.21987e-10
9.4411e-10
-8.99867e-09
8.07637e-09
-2.53109e-08
1.63124e-08
-4.72924e-08
2.19814e-08
-7.09825e-08
2.36901e-08
-9.19264e-08
2.09439e-08
-1.05012e-07
1.30856e-08
-1.03832e-07
-1.18032e-09
-8.03389e-08
-2.34927e-08
-3.19429e-08
-4.8396e-08
3.18067e-08
-6.37496e-08
8.74245e-08
-5.56178e-08
1.2536e-07
-3.79357e-08
1.4938e-07
-2.40197e-08
1.69404e-07
-2.00239e-08
1.93966e-07
-2.45624e-08
2.16348e-07
-2.23816e-08
2.2101e-07
-4.66237e-09
2.05342e-07
1.56684e-08
1.77494e-07
2.78477e-08
1.46445e-07
3.10488e-08
1.17553e-07
2.88918e-08
9.27651e-08
2.4788e-08
7.21421e-08
2.0623e-08
5.48342e-08
1.73078e-08
3.97552e-08
1.50789e-08
2.62272e-08
1.3528e-08
1.45075e-08
1.17198e-08
5.62517e-09
8.88234e-09
5.73799e-10
5.05133e-09
-7.35335e-10
1.30906e-09
-7.35342e-10
-8.5339e-09
9.47769e-09
-3.67457e-08
3.62885e-08
-8.51487e-08
6.47154e-08
-1.4804e-07
8.48726e-08
-2.14969e-07
9.06194e-08
-2.72738e-07
7.8713e-08
-3.06122e-07
4.64693e-08
-2.975e-07
-9.8026e-09
-2.27483e-07
-9.35094e-08
-8.88284e-08
-1.87051e-07
9.40061e-08
-2.46584e-07
2.59485e-07
-2.21097e-07
3.79156e-07
-1.57607e-07
4.61518e-07
-1.06382e-07
5.3145e-07
-8.99563e-08
6.1195e-07
-1.05062e-07
6.83334e-07
-9.37654e-08
7.03708e-07
-2.50363e-08
6.65664e-07
5.37125e-08
5.88847e-07
1.04664e-07
4.97386e-07
1.2251e-07
4.07705e-07
1.18573e-07
3.27257e-07
1.05235e-07
2.57739e-07
9.01418e-08
1.97807e-07
7.72392e-08
1.45209e-07
6.76768e-08
9.86835e-08
6.00539e-08
5.91059e-08
5.12973e-08
2.88589e-08
3.91293e-08
9.80844e-09
2.41017e-08
1.41651e-09
9.70097e-09
6.81158e-10
-1.86968e-08
2.81745e-08
-7.10948e-08
8.86864e-08
-1.53958e-07
1.47578e-07
-2.57627e-07
1.88542e-07
-3.65515e-07
1.98507e-07
-4.55891e-07
1.6909e-07
-5.03623e-07
9.42011e-08
-4.8105e-07
-3.23762e-08
-3.61532e-07
-2.13027e-07
-1.36188e-07
-4.12395e-07
1.58685e-07
-5.41456e-07
4.33421e-07
-4.95833e-07
6.43886e-07
-3.68072e-07
7.9959e-07
-2.62086e-07
9.35042e-07
-2.25408e-07
1.0851e-06
-2.55125e-07
1.21767e-06
-2.26327e-07
1.26635e-06
-7.37204e-08
1.21786e-06
1.02208e-07
1.09968e-06
2.22841e-07
9.48769e-07
2.73418e-07
7.92907e-07
2.74435e-07
6.46818e-07
2.51325e-07
5.15845e-07
2.21115e-07
3.99955e-07
1.93129e-07
2.97125e-07
1.70507e-07
2.06337e-07
1.50841e-07
1.29158e-07
1.28477e-07
6.89089e-08
9.93784e-08
2.80993e-08
6.49112e-08
6.2693e-09
3.15309e-08
6.95042e-09
-2.7891e-08
5.60655e-08
-1.03252e-07
1.64047e-07
-2.1852e-07
2.62847e-07
-3.58998e-07
3.2902e-07
-5.01868e-07
3.41377e-07
-6.17505e-07
2.84726e-07
-6.71897e-07
1.48593e-07
-6.29557e-07
-7.4716e-08
-4.61505e-07
-3.81079e-07
-1.63128e-07
-7.10773e-07
2.19317e-07
-9.23901e-07
5.8568e-07
-8.62195e-07
8.84658e-07
-6.6705e-07
1.1222e-06
-4.99628e-07
1.33579e-06
-4.39001e-07
1.56818e-06
-4.87508e-07
1.77684e-06
-4.34989e-07
1.87258e-06
-1.69467e-07
1.83299e-06
1.41806e-07
1.68927e-06
3.66554e-07
1.48861e-06
4.74079e-07
1.26907e-06
4.93975e-07
1.05327e-06
4.67123e-07
8.51922e-07
4.22466e-07
6.68389e-07
3.76662e-07
5.02743e-07
3.36154e-07
3.55331e-07
2.98252e-07
2.28769e-07
2.55039e-07
1.27494e-07
2.00654e-07
5.54006e-08
1.37004e-07
1.36013e-08
7.33302e-08
2.05516e-08
-3.34555e-08
8.9521e-08
-1.24178e-07
2.54769e-07
-2.62513e-07
4.01182e-07
-4.2984e-07
4.96347e-07
-5.97741e-07
5.09278e-07
-7.2942e-07
4.16405e-07
-7.83172e-07
2.02345e-07
-7.18513e-07
-1.39374e-07
-5.09507e-07
-5.90085e-07
-1.62865e-07
-1.05741e-06
2.65955e-07
-1.35272e-06
6.88516e-07
-1.28476e-06
1.05736e-06
-1.03589e-06
1.37217e-06
-8.14445e-07
1.66749e-06
-7.3432e-07
1.98981e-06
-8.09823e-07
2.28964e-06
-7.34823e-07
2.45704e-06
-3.3686e-07
2.45357e-06
1.45277e-07
2.30793e-06
5.12189e-07
2.07609e-06
7.05918e-07
1.80502e-06
7.65051e-07
1.52466e-06
7.47478e-07
1.25177e-06
6.95361e-07
9.9465e-07
6.33778e-07
7.57275e-07
5.73528e-07
5.42801e-07
5.12726e-07
3.55897e-07
4.41943e-07
2.03052e-07
3.53498e-07
9.07793e-08
2.49277e-07
2.30853e-08
1.41024e-07
4.36369e-08
-3.33926e-08
1.22914e-07
-1.26566e-07
3.47943e-07
-2.71696e-07
5.46312e-07
-4.49745e-07
6.74396e-07
-6.29042e-07
6.88575e-07
-7.67006e-07
5.54369e-07
-8.15575e-07
2.50913e-07
-7.32043e-07
-2.22905e-07
-4.98279e-07
-8.23849e-07
-1.38305e-07
-1.41739e-06
2.85472e-07
-1.7765e-06
7.15012e-07
-1.7143e-06
1.11628e-06
-1.43716e-06
1.48474e-06
-1.1829e-06
1.84909e-06
-1.09867e-06
2.25695e-06
-1.21769e-06
2.65772e-06
-1.13559e-06
2.92434e-06
-6.0348e-07
2.9911e-06
7.85164e-08
2.87328e-06
6.30007e-07
2.63608e-06
9.43125e-07
2.33466e-06
1.06647e-06
2.00522e-06
1.07692e-06
1.67014e-06
1.03045e-06
1.34318e-06
9.60734e-07
1.03336e-06
8.83346e-07
7.48147e-07
7.9794e-07
4.95832e-07
6.94258e-07
2.86334e-07
5.62996e-07
1.29763e-07
4.05847e-07
3.35359e-08
2.37252e-07
7.71729e-08
-2.73102e-08
1.50224e-07
-1.0807e-07
4.28702e-07
-2.40113e-07
6.78355e-07
-4.08735e-07
8.43018e-07
-5.83235e-07
8.63074e-07
-7.18155e-07
6.89289e-07
-7.61043e-07
2.93802e-07
-6.69138e-07
-3.14811e-07
-4.35745e-07
-1.05724e-06
-1.05274e-07
-1.74786e-06
2.59272e-07
-2.14104e-06
6.38676e-07
-2.0937e-06
1.01839e-06
-1.81687e-06
1.39624e-06
-1.56076e-06
1.79602e-06
-1.49844e-06
2.26582e-06
-1.68749e-06
2.7636e-06
-1.63337e-06
3.15216e-06
-9.92041e-07
3.32696e-06
-9.62812e-08
3.27227e-06
6.84694e-07
3.06082e-06
1.15458e-06
2.75744e-06
1.36984e-06
2.40375e-06
1.43061e-06
2.02676e-06
1.40743e-06
1.64542e-06
1.34208e-06
1.27429e-06
1.25448e-06
9.26478e-07
1.14575e-06
6.15618e-07
1.00512e-06
3.56215e-07
8.22399e-07
1.61823e-07
6.0024e-07
4.19859e-08
3.57088e-07
1.19159e-07
-1.7029e-08
1.67253e-07
-7.34826e-08
4.85156e-07
-1.74536e-07
7.79409e-07
-3.138e-07
9.82281e-07
-4.66793e-07
1.01607e-06
-5.89997e-07
8.12493e-07
-6.29954e-07
3.33759e-07
-5.46144e-07
-3.98621e-07
-3.46438e-07
-1.25695e-06
-9.38657e-08
-2.00043e-06
1.57439e-07
-2.39235e-06
4.2558e-07
-2.36184e-06
7.18699e-07
-2.10999e-06
1.04493e-06
-1.88699e-06
1.42598e-06
-1.87949e-06
1.91052e-06
-2.17203e-06
2.47897e-06
-2.20182e-06
2.99445e-06
-1.50753e-06
3.31576e-06
-4.1759e-07
3.36838e-06
6.32075e-07
3.21771e-06
1.30525e-06
2.94657e-06
1.64098e-06
2.60161e-06
1.77558e-06
2.21332e-06
1.79573e-06
1.80524e-06
1.75016e-06
1.3979e-06
1.66181e-06
1.01139e-06
1.53226e-06
6.6608e-07
1.35043e-06
3.81071e-07
1.10741e-06
1.71081e-07
8.10229e-07
4.38848e-08
4.84285e-07
1.63044e-07
-6.06935e-09
1.73322e-07
-3.39088e-08
5.12995e-07
-9.44916e-08
8.39991e-07
-1.90759e-07
1.07855e-06
-3.08585e-07
1.13389e-06
-4.12352e-07
9.1626e-07
-4.53485e-07
3.74892e-07
-3.98868e-07
-4.53238e-07
-2.74461e-07
-1.38136e-06
-1.52614e-07
-2.12228e-06
-7.01204e-08
-2.47484e-06
1.96973e-08
-2.45166e-06
1.58901e-07
-2.24919e-06
3.62709e-07
-2.0908e-06
6.5396e-07
-2.17074e-06
1.08172e-06
-2.59979e-06
1.66512e-06
-2.78522e-06
2.28893e-06
-2.13134e-06
2.79933e-06
-9.27991e-07
3.01473e-06
4.1668e-07
2.95982e-06
1.36017e-06
2.76157e-06
1.83922e-06
2.46717e-06
2.06997e-06
2.10908e-06
2.15382e-06
1.71508e-06
2.14415e-06
1.31261e-06
2.06427e-06
9.30218e-07
1.91465e-06
5.95339e-07
1.68531e-06
3.29236e-07
1.37351e-06
1.4254e-07
9.96925e-07
3.51615e-08
5.91663e-07
1.98205e-07
1.75849e-09
1.71564e-07
-3.18135e-09
5.17935e-07
-2.73487e-08
8.64158e-07
-8.01639e-08
1.13136e-06
-1.58262e-07
1.21199e-06
-2.38982e-07
9.96981e-07
-2.87841e-07
4.23751e-07
-2.90315e-07
-4.50764e-07
-2.93175e-07
-1.3785e-06
-3.63024e-07
-2.05243e-06
-5.03936e-07
-2.33393e-06
-6.49759e-07
-2.30584e-06
-7.39559e-07
-2.15939e-06
-7.37308e-07
-2.09305e-06
-6.18745e-07
-2.2893e-06
-3.3787e-07
-2.88067e-06
1.61742e-07
-3.28483e-06
8.28653e-07
-2.79825e-06
1.55285e-06
-1.65219e-06
2.0325e-06
-6.29635e-08
2.12336e-06
1.26931e-06
2.05966e-06
1.90291e-06
1.87351e-06
2.25613e-06
1.60257e-06
2.42476e-06
1.28039e-06
2.46634e-06
9.43719e-07
2.40094e-06
6.30504e-07
2.22787e-06
3.72437e-07
1.94338e-06
1.86682e-07
1.55927e-06
7.20872e-08
1.11152e-06
1.5387e-08
6.48364e-07
2.13592e-07
3.66146e-09
1.67902e-07
6.77897e-09
5.14818e-07
-5.09016e-10
8.71446e-07
-2.79236e-08
1.15878e-06
-7.88967e-08
1.26296e-06
-1.46041e-07
1.06412e-06
-2.20636e-07
4.98346e-07
-3.23587e-07
-3.47813e-07
-5.20225e-07
-1.18186e-06
-8.52686e-07
-1.71997e-06
-1.28284e-06
-1.90378e-06
-1.72506e-06
-1.86362e-06
-2.10491e-06
-1.77954e-06
-2.3768e-06
-1.82117e-06
-2.5081e-06
-2.158e-06
-2.44687e-06
-2.9419e-06
-2.12054e-06
-3.61115e-06
-1.5519e-06
-3.36689e-06
-8.09163e-07
-2.39493e-06
1.80416e-08
-8.90169e-07
5.37915e-07
7.49435e-07
7.13305e-07
1.72752e-06
7.25428e-07
2.244e-06
6.25291e-07
2.5249e-06
4.58771e-07
2.63286e-06
2.76274e-07
2.58344e-06
1.21843e-07
2.3823e-06
2.15479e-08
2.04367e-06
-2.19721e-08
1.60279e-06
-2.48024e-08
1.11435e-06
-1.03631e-08
6.33924e-07
2.03229e-07
-2.00792e-09
1.6991e-07
-1.19775e-08
5.24787e-07
-3.49605e-08
8.94429e-07
-7.52067e-08
1.19902e-06
-1.36197e-07
1.32396e-06
-2.25174e-07
1.1531e-06
-3.72237e-07
6.45408e-07
-6.49414e-07
-7.06365e-08
-1.12666e-06
-7.04616e-07
-1.79678e-06
-1.04985e-06
-2.57781e-06
-1.12274e-06
-3.37109e-06
-1.07034e-06
-4.09805e-06
-1.05258e-06
-4.70933e-06
-1.20989e-06
-5.1636e-06
-1.70373e-06
-5.4038e-06
-2.7017e-06
-5.31666e-06
-3.69829e-06
-4.87782e-06
-3.80573e-06
-4.11587e-06
-3.15689e-06
-3.11374e-06
-1.8923e-06
-2.10153e-06
-2.62772e-07
-1.42857e-06
1.05457e-06
-1.03141e-06
1.84684e-06
-8.06899e-07
2.30038e-06
-6.81293e-07
2.50725e-06
-5.90082e-07
2.49223e-06
-4.91846e-07
2.28406e-06
-3.71948e-07
1.92378e-06
-2.40402e-07
1.47124e-06
-1.19777e-07
9.93726e-07
-3.37966e-08
5.47944e-07
1.69432e-07
-1.64464e-08
1.86357e-07
-6.84111e-08
5.76752e-07
-1.56201e-07
9.82219e-07
-2.74841e-07
1.31766e-06
-4.23566e-07
1.47268e-06
-6.2617e-07
1.35571e-06
-9.57064e-07
9.76302e-07
-1.52992e-06
5.02217e-07
-2.3863e-06
1.51766e-07
-3.45922e-06
2.3077e-08
-4.62122e-06
3.92542e-08
-5.77407e-06
8.25008e-08
-6.84819e-06
2.1551e-08
-7.80644e-06
-2.51643e-07
-8.60504e-06
-9.05133e-07
-9.18943e-06
-2.1173e-06
-9.4031e-06
-3.48462e-06
-9.16902e-06
-4.03981e-06
-8.49691e-06
-3.829e-06
-7.39615e-06
-2.99306e-06
-5.89724e-06
-1.76168e-06
-4.45834e-06
-3.84336e-07
-3.33515e-06
7.23659e-07
-2.52884e-06
1.49407e-06
-1.92302e-06
1.90143e-06
-1.43309e-06
2.0023e-06
-1.02449e-06
1.87547e-06
-6.77979e-07
1.57726e-06
-3.9239e-07
1.18565e-06
-1.78301e-07
7.79637e-07
-4.62228e-08
4.15866e-07
1.2321e-07
-5.06202e-08
2.36977e-07
-1.98083e-07
7.24214e-07
-4.40902e-07
1.22504e-06
-7.72828e-07
1.64959e-06
-1.199e-06
1.89885e-06
-1.76146e-06
1.91816e-06
-2.54295e-06
1.75779e-06
-3.60357e-06
1.56284e-06
-4.90282e-06
1.45102e-06
-6.3101e-06
1.43036e-06
-7.71728e-06
1.44644e-06
-9.06088e-06
1.4261e-06
-1.03188e-05
1.27946e-06
-1.1463e-05
8.92553e-07
-1.24825e-05
1.14413e-07
-1.33435e-05
-1.25637e-06
-1.38539e-05
-2.97422e-06
-1.38667e-05
-4.02702e-06
-1.33556e-05
-4.34001e-06
-1.22877e-05
-4.06097e-06
-1.06707e-05
-3.37868e-06
-8.59697e-06
-2.4581e-06
-6.46011e-06
-1.4132e-06
-4.56609e-06
-3.9995e-07
-3.04923e-06
3.84573e-07
-1.93344e-06
8.86501e-07
-1.16741e-06
1.10944e-06
-6.5987e-07
1.06972e-06
-3.27897e-07
8.53679e-07
-1.28676e-07
5.80416e-07
-2.86759e-08
3.15865e-07
9.45335e-08
-7.40185e-08
3.10995e-07
-2.94648e-07
9.44844e-07
-6.68755e-07
1.59915e-06
-1.19673e-06
2.17757e-06
-1.8829e-06
2.58502e-06
-2.74774e-06
2.783e-06
-3.8176e-06
2.82765e-06
-5.08754e-06
2.83277e-06
-6.51389e-06
2.87737e-06
-8.04501e-06
2.96148e-06
-9.63305e-06
3.03447e-06
-1.12325e-05
3.02556e-06
-1.28003e-05
2.84725e-06
-1.42879e-05
2.38018e-06
-1.56324e-05
1.45893e-06
-1.67398e-05
-1.49039e-07
-1.7478e-05
-2.23598e-06
-1.77259e-05
-3.7791e-06
-1.74423e-05
-4.62365e-06
-1.65743e-05
-4.92894e-06
-1.51094e-05
-4.84359e-06
-1.31041e-05
-4.46346e-06
-1.06685e-05
-3.84872e-06
-8.01237e-06
-3.05611e-06
-5.48674e-06
-2.14105e-06
-3.37553e-06
-1.22472e-06
-1.81226e-06
-4.53827e-07
-8.14435e-07
7.18974e-08
-2.85298e-07
3.24542e-07
-6.18375e-08
3.56955e-07
-9.69306e-11
2.54125e-07
9.44366e-08
-6.72922e-08
3.78288e-07
-2.78946e-07
1.1565e-06
-6.58586e-07
1.97878e-06
-1.22426e-06
2.74324e-06
-1.98539e-06
3.34615e-06
-2.94126e-06
3.73887e-06
-4.07759e-06
3.96398e-06
-5.36602e-06
4.12121e-06
-6.7758e-06
4.28715e-06
-8.28424e-06
4.46992e-06
-9.87224e-06
4.62247e-06
-1.15166e-05
4.66991e-06
-1.31861e-05
4.51679e-06
-1.48401e-05
4.03411e-06
-1.642e-05
3.03888e-06
-1.78503e-05
1.28129e-06
-1.88174e-05
-1.26889e-06
-1.93102e-05
-3.28631e-06
-1.93394e-05
-4.59445e-06
-1.8849e-05
-5.41934e-06
-1.77949e-05
-5.89772e-06
-1.61795e-05
-6.07883e-06
-1.40662e-05
-5.96201e-06
-1.15836e-05
-5.53878e-06
-8.90018e-06
-4.82444e-06
-6.24898e-06
-3.87591e-06
-3.9078e-06
-2.79501e-06
-2.11004e-06
-1.72586e-06
-9.45077e-07
-8.40421e-07
-3.18259e-07
-2.69863e-07
-5.45637e-08
-9.57108e-09
3.9873e-08
-2.909e-08
4.07378e-07
-1.37169e-07
1.26458e-06
-3.61173e-07
2.20279e-06
-7.39644e-07
3.12171e-06
-1.29717e-06
3.90367e-06
-2.03158e-06
4.47329e-06
-2.91242e-06
4.84482e-06
-3.89703e-06
5.10582e-06
-4.95266e-06
5.34277e-06
-6.06453e-06
5.5818e-06
-7.22833e-06
5.78627e-06
-8.44063e-06
5.88221e-06
-9.69515e-06
5.77131e-06
-1.09836e-05
5.32258e-06
-1.22967e-05
4.35191e-06
-1.36091e-05
2.59376e-06
-1.46165e-05
-2.61498e-07
-1.52978e-05
-2.60505e-06
-1.57417e-05
-4.15054e-06
-1.58837e-05
-5.27728e-06
-1.56284e-05
-6.15303e-06
-1.4894e-05
-6.81327e-06
-1.36484e-05
-7.20764e-06
-1.19269e-05
-7.26025e-06
-9.83379e-06
-6.91754e-06
-7.53973e-06
-6.16998e-06
-5.26204e-06
-5.0727e-06
-3.23289e-06
-3.75501e-06
-1.65615e-06
-2.41716e-06
-6.39553e-07
-1.28646e-06
-1.35497e-07
-5.13628e-07
-9.56235e-08
8.81764e-09
3.9856e-07
1.02271e-08
1.26317e-06
-3.29785e-08
2.24599e-06
-1.66961e-07
3.2557e-06
-4.33067e-07
4.16977e-06
-8.45954e-07
4.88618e-06
-1.3773e-06
5.37616e-06
-1.97382e-06
5.70235e-06
-2.59163e-06
5.96058e-06
-3.2086e-06
6.19877e-06
-3.82006e-06
6.39773e-06
-4.428e-06
6.49015e-06
-5.03498e-06
6.37829e-06
-5.64295e-06
5.93055e-06
-6.25784e-06
4.9668e-06
-6.91158e-06
3.2475e-06
-7.60737e-06
4.34293e-07
-8.27081e-06
-1.9416e-06
-8.95074e-06
-3.47062e-06
-9.58781e-06
-4.6402e-06
-1.00878e-05
-5.653e-06
-1.03131e-05
-6.58796e-06
-1.01365e-05
-7.38426e-06
-9.48944e-06
-7.90733e-06
-8.372e-06
-8.03498e-06
-6.86586e-06
-7.67612e-06
-5.12769e-06
-6.81087e-06
-3.37486e-06
-5.50784e-06
-1.85303e-06
-3.93899e-06
-7.6322e-07
-2.37627e-06
-1.70596e-07
-1.10625e-06
-2.6622e-07
3.21397e-08
3.6642e-07
1.0495e-07
1.19036e-06
1.86764e-07
2.16418e-06
2.32862e-07
3.2096e-06
1.94516e-07
4.20812e-06
4.07637e-08
5.03993e-06
-2.18222e-07
5.63515e-06
-5.33746e-07
6.01787e-06
-8.46562e-07
6.2734e-06
-1.11712e-06
6.46932e-06
-1.33342e-06
6.61403e-06
-1.50089e-06
6.65762e-06
-1.63276e-06
6.51016e-06
-1.74684e-06
6.04463e-06
-1.86266e-06
5.08262e-06
-2.01305e-06
3.39789e-06
-2.37516e-06
7.96395e-07
-2.93952e-06
-1.37724e-06
-3.61992e-06
-2.79022e-06
-4.3841e-06
-3.87603e-06
-5.21676e-06
-4.82034e-06
-5.99833e-06
-5.80638e-06
-6.55152e-06
-6.83108e-06
-6.74141e-06
-7.71744e-06
-6.47284e-06
-8.30355e-06
-5.7369e-06
-8.41206e-06
-4.61202e-06
-7.93574e-06
-3.26051e-06
-6.85935e-06
-1.9165e-06
-5.28301e-06
-8.3752e-07
-3.45524e-06
-1.96959e-07
-1.74681e-06
-4.63179e-07
4.23344e-08
3.24086e-07
1.52642e-07
1.08005e-06
3.07166e-07
2.00966e-06
4.6669e-07
3.05007e-06
5.85139e-07
4.08967e-06
6.26212e-07
4.99886e-06
5.806e-07
5.68076e-06
4.80859e-07
6.11761e-06
3.87326e-07
6.36693e-06
3.53036e-07
6.50361e-06
4.02402e-07
6.56466e-06
5.31499e-07
6.52853e-06
7.17729e-07
6.32393e-06
9.2518e-07
5.83717e-06
1.10481e-06
4.90299e-06
1.19547e-06
3.30723e-06
9.98402e-07
9.93465e-07
5.26339e-07
-9.05174e-07
-8.29148e-08
-2.18097e-06
-8.04781e-07
-3.15416e-06
-1.63917e-06
-3.98595e-06
-2.57427e-06
-4.87129e-06
-3.47276e-06
-5.93258e-06
-4.18499e-06
-7.00521e-06
-4.53713e-06
-7.95141e-06
-4.44004e-06
-8.50916e-06
-3.88952e-06
-8.48626e-06
-2.97353e-06
-7.77533e-06
-1.87964e-06
-6.37691e-06
-8.75044e-07
-4.45984e-06
-2.16135e-07
-2.40572e-06
-6.79314e-07
4.32811e-08
2.80805e-07
1.64541e-07
9.58791e-07
3.50003e-07
1.82419e-06
5.69329e-07
2.83075e-06
7.82494e-07
3.87651e-06
9.53802e-07
4.82755e-06
1.06791e-06
5.56665e-06
1.14276e-06
6.04276e-06
1.22558e-06
6.2841e-06
1.36799e-06
6.36121e-06
1.60055e-06
6.33211e-06
1.92238e-06
6.20669e-06
2.30541e-06
5.94089e-06
2.70044e-06
5.44215e-06
3.03479e-06
4.56864e-06
3.19528e-06
3.14674e-06
3.03173e-06
1.15702e-06
2.61027e-06
-4.83722e-07
2.05912e-06
-1.62981e-06
1.40871e-06
-2.50375e-06
6.79448e-07
-3.25669e-06
-1.62208e-07
-4.02963e-06
-1.1069e-06
-4.98789e-06
-2.04122e-06
-6.0709e-06
-2.77616e-06
-7.21646e-06
-3.15384e-06
-8.13148e-06
-3.09214e-06
-8.54796e-06
-2.59572e-06
-8.27175e-06
-1.78313e-06
-7.1895e-06
-8.93401e-07
-5.34956e-06
-2.33264e-07
-3.06586e-06
-9.12578e-07
3.82778e-08
2.42527e-07
1.51463e-07
8.45606e-07
3.35427e-07
1.64023e-06
5.71135e-07
2.59504e-06
8.2888e-07
3.61876e-06
1.07965e-06
4.57678e-06
1.30822e-06
5.33808e-06
1.52296e-06
5.82802e-06
1.75469e-06
6.05238e-06
2.0414e-06
6.07449e-06
2.40801e-06
5.96549e-06
2.85311e-06
5.76159e-06
3.34747e-06
5.44653e-06
3.83697e-06
4.95265e-06
4.23943e-06
4.16618e-06
4.43166e-06
2.9545e-06
4.29841e-06
1.29028e-06
3.91539e-06
-1.00701e-07
3.38512e-06
-1.09955e-06
2.76017e-06
-1.87879e-06
2.08909e-06
-2.58562e-06
1.38396e-06
-3.3245e-06
5.70635e-07
-4.17456e-06
-3.29623e-07
-5.17064e-06
-1.2429e-06
-6.30318e-06
-1.93887e-06
-7.43551e-06
-2.27328e-06
-8.21356e-06
-2.16321e-06
-8.38182e-06
-1.64507e-06
-7.70764e-06
-9.01285e-07
-6.09335e-06
-2.52808e-07
-3.71434e-06
-1.16539e-06
2.89143e-08
2.13613e-07
1.19336e-07
7.55184e-07
2.75989e-07
1.48358e-06
4.9337e-07
2.37766e-06
7.56588e-07
3.35554e-06
1.04835e-06
4.28502e-06
1.35787e-06
5.02856e-06
1.68638e-06
5.49951e-06
2.04677e-06
5.69199e-06
2.45657e-06
5.6647e-06
2.92682e-06
5.49524e-06
3.45161e-06
5.2368e-06
4.00309e-06
4.89506e-06
4.53011e-06
4.42563e-06
4.95404e-06
3.74225e-06
5.16381e-06
2.74473e-06
5.08023e-06
1.37385e-06
4.76233e-06
2.17199e-07
4.28427e-06
-6.21484e-07
3.70942e-06
-1.30394e-06
3.07786e-06
-1.95406e-06
2.41157e-06
-2.65821e-06
1.70757e-06
-3.47057e-06
9.42082e-07
-4.40515e-06
7.80677e-08
-5.43917e-06
-7.92036e-07
-6.5654e-06
-1.43424e-06
-7.57135e-06
-1.67639e-06
-8.13968e-06
-1.46247e-06
-7.92156e-06
-8.96768e-07
-6.65905e-06
-2.77917e-07
-4.33319e-06
-1.4433e-06
1.4897e-08
1.98716e-07
6.83097e-08
7.01771e-07
1.75405e-07
1.37648e-06
3.48342e-07
2.20472e-06
5.91402e-07
3.11248e-06
9.00639e-07
3.97578e-06
1.27047e-06
4.65873e-06
1.69436e-06
5.07562e-06
2.1655e-06
5.22086e-06
2.6787e-06
5.15149e-06
3.22879e-06
4.94515e-06
3.80418e-06
4.66141e-06
4.38015e-06
4.31909e-06
4.91377e-06
3.89201e-06
5.33849e-06
3.31753e-06
5.5642e-06
2.51902e-06
5.5338e-06
1.40426e-06
5.29728e-06
4.53717e-07
4.91232e-06
-2.3652e-07
4.43143e-06
-8.23049e-07
3.88165e-06
-1.40428e-06
3.27853e-06
-2.05509e-06
2.62568e-06
-2.81772e-06
1.91881e-06
-3.69828e-06
1.15145e-06
-4.67181e-06
2.84857e-07
-5.69881e-06
-5.54483e-07
-6.73201e-06
-1.11809e-06
-7.57607e-06
-1.22081e-06
-7.81884e-06
-8.70856e-07
-7.009e-06
-3.10273e-07
-4.89377e-06
-1.75358e-06
-6.80414e-09
2.0552e-07
-9.70781e-09
7.04675e-07
2.62893e-08
1.34048e-06
1.41013e-07
2.09e-06
3.56891e-07
2.8966e-06
6.77045e-07
3.65563e-06
1.09874e-06
4.23703e-06
1.60491e-06
4.56946e-06
2.16799e-06
4.65777e-06
2.76253e-06
4.55695e-06
3.37025e-06
4.33744e-06
3.97591e-06
4.05575e-06
4.55967e-06
3.73533e-06
5.08954e-06
3.36214e-06
5.51505e-06
2.89201e-06
5.76901e-06
2.26506e-06
5.8052e-06
1.36806e-06
5.66654e-06
5.92378e-07
5.39996e-06
3.00578e-08
5.04103e-06
-4.64113e-07
4.60408e-06
-9.67333e-07
4.09336e-06
-1.54436e-06
3.50536e-06
-2.22972e-06
2.83529e-06
-3.02821e-06
2.08232e-06
-3.91884e-06
1.24978e-06
-4.86627e-06
3.49174e-07
-5.83141e-06
-4.66099e-07
-6.7608e-06
-9.0069e-07
-7.38425e-06
-8.09764e-07
-7.09993e-06
-3.48294e-07
-5.35524e-06
-2.10187e-06
-4.1949e-08
2.47469e-07
-1.23055e-07
7.8578e-07
-1.72982e-07
1.39041e-06
-1.19067e-07
2.03608e-06
7.88053e-08
2.69873e-06
4.20099e-07
3.31433e-06
8.94596e-07
3.76254e-06
1.47264e-06
3.99141e-06
2.1077e-06
4.02271e-06
2.761e-06
3.90365e-06
3.40772e-06
3.69072e-06
4.03277e-06
3.4307e-06
4.62258e-06
3.14552e-06
5.15644e-06
2.82828e-06
5.59982e-06
2.44863e-06
5.90509e-06
1.9598e-06
6.02778e-06
1.24537e-06
6.0032e-06
6.16951e-07
5.86281e-06
1.70454e-07
5.62753e-06
-2.28837e-07
5.30911e-06
-6.48914e-07
4.90021e-06
-1.13546e-06
4.3874e-06
-1.71691e-06
3.75922e-06
-2.40004e-06
3.01328e-06
-3.1729e-06
2.16063e-06
-4.01362e-06
1.22924e-06
-4.90001e-06
2.75539e-07
-5.8071e-06
-4.75446e-07
-6.63326e-06
-6.91779e-07
-6.8836e-06
-3.83155e-07
-5.66386e-06
-2.48503e-06
-1.02324e-07
3.49793e-07
-2.82671e-07
9.66127e-07
-4.13568e-07
1.52131e-06
-4.0121e-07
2.02373e-06
-2.01706e-07
2.49923e-06
1.79881e-07
2.93275e-06
7.1639e-07
3.22603e-06
1.35801e-06
3.34979e-06
2.04772e-06
3.333e-06
2.74359e-06
3.20778e-06
3.42099e-06
3.01332e-06
4.06785e-06
2.78383e-06
4.67644e-06
2.53694e-06
5.23465e-06
2.27006e-06
5.71966e-06
1.96363e-06
6.09597e-06
1.58348e-06
6.31212e-06
1.02923e-06
6.38815e-06
5.40916e-07
6.35817e-06
2.00437e-07
6.23604e-06
-1.06704e-07
6.02345e-06
-4.36331e-07
5.70713e-06
-8.19136e-07
5.26786e-06
-1.27764e-06
4.68808e-06
-1.82026e-06
3.95956e-06
-2.44438e-06
3.08986e-06
-3.14391e-06
2.10662e-06
-3.91677e-06
1.06563e-06
-4.76611e-06
9.03712e-08
-5.658e-06
-4.82845e-07
-6.31038e-06
-3.9531e-07
-5.7514e-06
-2.88034e-06
-1.99167e-07
5.48959e-07
-4.85144e-07
1.2521e-06
-6.59898e-07
1.69606e-06
-6.37548e-07
2.00138e-06
-3.97684e-07
2.25937e-06
4.95916e-08
2.48547e-06
6.58923e-07
2.61669e-06
1.35835e-06
2.65037e-06
2.09407e-06
2.59727e-06
2.8289e-06
2.47295e-06
3.54155e-06
2.30068e-06
4.22234e-06
2.10304e-06
4.86587e-06
1.89341e-06
5.46348e-06
1.67245e-06
5.99783e-06
1.42928e-06
6.43886e-06
1.14245e-06
6.72735e-06
7.40737e-07
6.87499e-06
3.93284e-07
6.92131e-06
1.54112e-07
6.87724e-06
-6.26303e-08
6.73861e-06
-2.977e-07
6.49112e-06
-5.71652e-07
6.11433e-06
-9.00847e-07
5.5872e-06
-1.29314e-06
4.89468e-06
-1.75186e-06
4.03417e-06
-2.2834e-06
3.02182e-06
-2.90443e-06
1.90063e-06
-3.64492e-06
7.67433e-07
-4.5248e-06
-1.30867e-07
-5.41208e-06
-3.536e-07
-5.52867e-06
-3.23394e-06
-3.25347e-07
8.74306e-07
-6.77048e-07
1.60381e-06
-8.00453e-07
1.81947e-06
-6.76873e-07
1.8778e-06
-3.29321e-07
1.91181e-06
2.18462e-07
1.93769e-06
9.04316e-07
1.93084e-06
1.65797e-06
1.89671e-06
2.43717e-06
1.81807e-06
3.21069e-06
1.69944e-06
3.95885e-06
1.55252e-06
4.67088e-06
1.39101e-06
5.33957e-06
1.22472e-06
5.95586e-06
1.05615e-06
6.50478e-06
8.80364e-07
6.96087e-06
6.86361e-07
7.26729e-06
4.34312e-07
7.43683e-06
2.23745e-07
7.51195e-06
7.89919e-08
7.50226e-06
-5.29382e-08
7.40213e-06
-1.97572e-07
7.19909e-06
-3.68607e-07
6.87424e-06
-5.76003e-07
6.40625e-06
-8.25142e-07
5.77534e-06
-1.12095e-06
4.96721e-06
-1.47527e-06
3.97832e-06
-1.91553e-06
2.82599e-06
-2.4926e-06
1.5741e-06
-3.27291e-06
4.04911e-07
-4.2429e-06
-2.16445e-07
-4.90731e-06
-3.45038e-06
-4.49921e-07
1.32423e-06
-6.93727e-07
1.84761e-06
-5.63449e-07
1.68919e-06
-1.90026e-07
1.50437e-06
3.51485e-07
1.3703e-06
1.0189e-06
1.27028e-06
1.76378e-06
1.18596e-06
2.55094e-06
1.10955e-06
3.34563e-06
1.02338e-06
4.12048e-06
9.24588e-07
4.85598e-06
8.17011e-07
5.53965e-06
7.07341e-07
6.16327e-06
6.01098e-07
6.71947e-06
4.99958e-07
7.19846e-06
4.01377e-07
7.58429e-06
3.00525e-07
7.83707e-06
1.81534e-07
7.9746e-06
8.62115e-08
8.03412e-06
1.94782e-08
8.02365e-06
-4.24729e-08
7.9383e-06
-1.12227e-07
7.76726e-06
-1.97564e-07
7.49417e-06
-3.02914e-07
7.09984e-06
-4.30812e-07
6.56376e-06
-5.84867e-07
5.864e-06
-7.7551e-07
4.97712e-06
-1.02865e-06
3.88187e-06
-1.39735e-06
2.58023e-06
-1.97126e-06
1.18265e-06
-2.84532e-06
1.13624e-07
-3.83829e-06
-3.33676e-06
-3.83227e-07
1.70745e-06
3.84774e-10
1.464e-06
7.02191e-07
9.87382e-07
1.41913e-06
7.87433e-07
2.14221e-06
6.47221e-07
2.8775e-06
5.34988e-07
3.61238e-06
4.51074e-07
4.33451e-06
3.87418e-07
5.0257e-06
3.322e-07
5.66909e-06
2.8119e-07
6.25227e-06
2.33832e-07
6.76849e-06
1.91121e-07
7.21574e-06
1.53854e-07
7.59413e-06
1.21564e-07
7.903e-06
9.25073e-08
8.13859e-06
6.4935e-08
8.28429e-06
3.58328e-08
8.35719e-06
1.33171e-08
8.38001e-06
-3.35006e-09
8.35725e-06
-1.97061e-08
8.28461e-06
-3.95875e-08
8.15245e-06
-6.54078e-08
7.94775e-06
-9.82147e-08
7.65559e-06
-1.38645e-07
7.2589e-06
-1.88179e-07
6.73535e-06
-2.51962e-07
6.05092e-06
-3.4422e-07
5.15154e-06
-4.97964e-07
3.95951e-06
-7.79234e-07
2.41369e-06
-1.2995e-06
7.44288e-07
-2.16889e-06
-2.59247e-06
1.70745e-06
3.17145e-06
4.15884e-06
4.94627e-06
5.59349e-06
6.12848e-06
6.57955e-06
6.96697e-06
7.29917e-06
7.58036e-06
7.81419e-06
8.00531e-06
8.15917e-06
8.28073e-06
8.37324e-06
8.43817e-06
8.47401e-06
8.48732e-06
8.48397e-06
8.46427e-06
8.42468e-06
8.35927e-06
8.26106e-06
8.12241e-06
7.93423e-06
7.68227e-06
7.33805e-06
6.84009e-06
6.06085e-06
4.76136e-06
2.59247e-06
)
;

boundaryField
{
    movingWall
    {
        type            calculated;
        value           uniform 0;
    }
    fixedWalls
    {
        type            calculated;
        value           uniform 0;
    }
    floor
    {
        type            calculated;
        value           uniform 0;
    }
    frontAndBack
    {
        type            empty;
        value           nonuniform List<scalar> 0();
    }
}


// ************************************************************************* //
