/*--------------------------------*- C++ -*----------------------------------*\
| =========                 |                                                 |
| \\      /  F ield         | OpenFOAM: The Open Source CFD Toolbox           |
|  \\    /   O peration     | Version:  2212                                  |
|   \\  /    A nd           | Website:  www.openfoam.com                      |
|    \\/     M anipulation  |                                                 |
\*---------------------------------------------------------------------------*/
FoamFile
{
    version     2.0;
    format      ascii;
    arch        "LSB;label=64;scalar=64";
    class       volScalarField;
    location    "1380";
    object      Saa;
}
// * * * * * * * * * * * * * * * * * * * * * * * * * * * * * * * * * * * * * //

dimensions      [1 -3 0 0 0 0 0];

internalField   nonuniform List<scalar> 
1024
(
0.00546262
0.00546266
0.00546273
0.00546287
0.00546307
0.00546337
0.00546376
0.00546425
0.0054648
0.00546539
0.00546596
0.00546647
0.00546688
0.00546716
0.0054673
0.00546727
0.00546702
0.00546654
0.00546587
0.00546503
0.00546407
0.00546302
0.00546196
0.00546095
0.00546007
0.00545935
0.0054588
0.0054584
0.00545813
0.00545796
0.00545787
0.00545783
0.00546264
0.00546267
0.00546275
0.00546288
0.00546309
0.00546339
0.00546379
0.00546428
0.00546484
0.00546543
0.00546601
0.00546652
0.00546692
0.0054672
0.00546734
0.00546731
0.00546706
0.00546658
0.00546591
0.00546508
0.00546412
0.00546307
0.005462
0.00546099
0.00546011
0.00545938
0.00545882
0.00545841
0.00545814
0.00545796
0.00545787
0.00545783
0.00546267
0.0054627
0.00546278
0.00546291
0.00546313
0.00546344
0.00546385
0.00546435
0.00546493
0.00546553
0.00546612
0.00546663
0.00546703
0.0054673
0.00546744
0.00546741
0.00546716
0.00546667
0.005466
0.00546517
0.00546421
0.00546316
0.00546209
0.00546108
0.00546017
0.00545943
0.00545886
0.00545844
0.00545816
0.00545798
0.00545789
0.00545785
0.00546271
0.00546275
0.00546282
0.00546297
0.00546319
0.00546352
0.00546395
0.00546448
0.00546508
0.00546571
0.00546632
0.00546683
0.00546723
0.0054675
0.00546762
0.00546758
0.00546732
0.00546683
0.00546615
0.00546531
0.00546435
0.00546331
0.00546223
0.0054612
0.00546028
0.00545951
0.00545892
0.00545849
0.00545819
0.00545801
0.00545791
0.00545787
0.00546278
0.00546282
0.0054629
0.00546305
0.00546328
0.00546363
0.00546409
0.00546466
0.00546531
0.00546599
0.00546664
0.00546717
0.00546757
0.00546781
0.00546791
0.00546786
0.00546758
0.00546706
0.00546635
0.0054655
0.00546453
0.00546348
0.0054624
0.00546135
0.00546041
0.00545962
0.005459
0.00545855
0.00545824
0.00545805
0.00545795
0.00545791
0.00546289
0.00546292
0.005463
0.00546316
0.00546341
0.00546379
0.00546429
0.00546491
0.00546563
0.00546639
0.0054671
0.00546768
0.00546807
0.00546829
0.00546836
0.00546827
0.00546796
0.00546738
0.00546661
0.00546572
0.00546473
0.00546367
0.00546258
0.00546152
0.00546056
0.00545974
0.0054591
0.00545863
0.0054583
0.00545811
0.005458
0.00545795
0.00546303
0.00546307
0.00546315
0.00546332
0.00546359
0.005464
0.00546455
0.00546525
0.00546608
0.00546695
0.00546775
0.00546838
0.00546878
0.00546897
0.005469
0.00546886
0.00546847
0.00546779
0.00546693
0.00546596
0.00546493
0.00546384
0.00546274
0.00546166
0.00546068
0.00545985
0.00545919
0.0054587
0.00545837
0.00545816
0.00545805
0.005458
0.00546324
0.00546328
0.00546337
0.00546354
0.00546384
0.00546428
0.00546491
0.00546571
0.00546666
0.00546767
0.0054686
0.0054693
0.00546971
0.00546988
0.00546986
0.00546965
0.00546915
0.00546832
0.0054673
0.0054662
0.00546509
0.00546395
0.00546282
0.00546174
0.00546075
0.00545991
0.00545924
0.00545875
0.00545842
0.00545821
0.0054581
0.00545805
0.00546354
0.00546358
0.00546367
0.00546386
0.00546418
0.00546468
0.00546538
0.00546631
0.00546742
0.00546859
0.00546966
0.00547044
0.00547089
0.00547103
0.00547096
0.00547066
0.00547001
0.00546896
0.00546772
0.00546643
0.00546518
0.00546397
0.0054628
0.00546171
0.00546073
0.0054599
0.00545925
0.00545877
0.00545845
0.00545825
0.00545815
0.0054581
0.00546398
0.00546401
0.00546411
0.00546431
0.00546466
0.00546522
0.00546603
0.0054671
0.00546838
0.00546973
0.00547094
0.00547182
0.00547231
0.00547245
0.00547233
0.00547194
0.00547111
0.00546978
0.00546822
0.00546667
0.00546522
0.00546388
0.00546266
0.00546156
0.0054606
0.00545981
0.0054592
0.00545876
0.00545847
0.00545829
0.0054582
0.00545816
0.0054646
0.00546463
0.00546474
0.00546496
0.00546535
0.00546598
0.0054669
0.00546813
0.00546959
0.00547112
0.00547247
0.00547345
0.00547398
0.00547415
0.00547403
0.00547357
0.00547255
0.00547092
0.005469
0.00546708
0.00546533
0.00546381
0.00546249
0.00546136
0.00546043
0.0054597
0.00545916
0.00545878
0.00545855
0.00545841
0.00545834
0.00545832
0.00546546
0.0054655
0.00546562
0.00546587
0.00546632
0.00546703
0.00546808
0.00546947
0.00547112
0.00547281
0.00547429
0.00547535
0.00547596
0.0054762
0.00547615
0.00547572
0.00547462
0.00547278
0.00547053
0.0054682
0.00546605
0.00546421
0.00546268
0.00546146
0.00546052
0.00545984
0.00545937
0.00545908
0.00545893
0.00545886
0.00545884
0.00545884
0.00546663
0.00546668
0.00546682
0.0054671
0.00546762
0.00546844
0.00546964
0.0054712
0.00547302
0.00547485
0.00547643
0.00547758
0.00547831
0.00547873
0.00547889
0.00547867
0.00547775
0.00547603
0.00547373
0.00547117
0.00546864
0.00546636
0.00546446
0.00546295
0.00546184
0.0054611
0.00546066
0.00546044
0.00546038
0.0054604
0.00546045
0.00546048
0.00546811
0.00546817
0.00546833
0.00546867
0.00546928
0.00547024
0.00547161
0.00547335
0.00547532
0.00547725
0.00547892
0.00548019
0.00548112
0.00548184
0.00548238
0.00548262
0.00548231
0.00548125
0.00547953
0.00547735
0.00547493
0.00547251
0.00547027
0.00546834
0.00546681
0.00546572
0.00546504
0.0054647
0.00546461
0.00546464
0.00546471
0.00546477
0.00546976
0.00546982
0.00547001
0.00547039
0.00547107
0.00547213
0.0054736
0.00547546
0.00547752
0.00547958
0.0054814
0.0054829
0.00548414
0.00548524
0.00548623
0.00548707
0.0054876
0.00548765
0.00548718
0.00548622
0.00548487
0.00548321
0.00548137
0.00547951
0.00547776
0.00547624
0.00547506
0.00547425
0.00547378
0.00547356
0.0054735
0.0054735
0.00547138
0.00547144
0.00547163
0.00547202
0.00547271
0.00547378
0.00547528
0.00547716
0.00547929
0.00548145
0.00548344
0.00548516
0.00548664
0.00548794
0.00548913
0.00549022
0.00549119
0.00549203
0.00549267
0.00549309
0.00549321
0.00549302
0.0054925
0.00549168
0.00549064
0.00548947
0.00548832
0.00548732
0.00548655
0.00548605
0.00548579
0.00548569
0.00547268
0.00547274
0.00547291
0.00547328
0.00547391
0.00547491
0.00547632
0.00547812
0.0054802
0.00548237
0.00548443
0.00548622
0.0054877
0.00548888
0.0054898
0.0054905
0.00549109
0.00549178
0.00549262
0.00549352
0.0054944
0.00549517
0.00549576
0.00549612
0.00549624
0.00549612
0.00549581
0.0054954
0.00549497
0.00549463
0.00549441
0.00549431
0.00547353
0.00547358
0.00547374
0.00547406
0.00547462
0.00547551
0.00547677
0.00547841
0.00548034
0.00548241
0.00548442
0.00548618
0.00548757
0.00548857
0.00548916
0.0054894
0.00548948
0.00548977
0.00549042
0.00549135
0.00549243
0.00549352
0.00549453
0.00549539
0.00549605
0.00549652
0.0054968
0.00549693
0.00549694
0.0054969
0.00549685
0.00549682
0.005474
0.00547406
0.0054742
0.00547448
0.00547497
0.00547573
0.00547683
0.00547828
0.00548002
0.00548193
0.00548383
0.00548551
0.00548684
0.00548773
0.00548816
0.00548817
0.00548799
0.00548805
0.00548855
0.00548947
0.00549069
0.00549204
0.00549338
0.00549457
0.00549555
0.00549628
0.00549678
0.00549709
0.00549726
0.00549733
0.00549735
0.00549736
0.00547422
0.00547427
0.00547441
0.00547466
0.00547508
0.00547574
0.00547668
0.00547793
0.00547947
0.00548118
0.00548291
0.00548449
0.00548576
0.00548661
0.00548701
0.00548699
0.00548679
0.00548681
0.00548725
0.00548812
0.00548935
0.00549082
0.00549235
0.00549381
0.00549507
0.00549606
0.00549676
0.00549721
0.00549747
0.0054976
0.00549764
0.00549765
0.00547428
0.00547432
0.00547444
0.00547467
0.00547504
0.0054756
0.0054764
0.00547747
0.00547879
0.00548029
0.00548183
0.00548327
0.00548446
0.00548531
0.00548577
0.00548588
0.00548584
0.00548599
0.00548648
0.00548735
0.00548855
0.00549002
0.00549162
0.00549321
0.00549466
0.00549584
0.00549673
0.00549732
0.00549768
0.00549785
0.00549792
0.00549794
0.00547426
0.0054743
0.0054744
0.0054746
0.00547491
0.00547539
0.00547607
0.00547697
0.00547809
0.00547936
0.0054807
0.00548199
0.00548311
0.00548399
0.00548458
0.00548492
0.00548518
0.00548556
0.00548618
0.00548708
0.00548825
0.00548967
0.00549124
0.00549285
0.00549437
0.00549568
0.00549671
0.00549743
0.00549787
0.0054981
0.00549819
0.00549822
0.00547431
0.00547433
0.0054744
0.00547455
0.0054748
0.00547519
0.00547575
0.0054765
0.00547744
0.00547852
0.00547968
0.00548085
0.00548194
0.00548289
0.00548367
0.00548432
0.00548492
0.00548557
0.00548633
0.00548726
0.0054884
0.00548973
0.00549121
0.00549275
0.00549425
0.0054956
0.00549672
0.00549753
0.00549806
0.00549834
0.00549845
0.00549848
0.00547458
0.00547458
0.0054746
0.00547467
0.00547482
0.00547511
0.00547556
0.00547618
0.00547698
0.00547792
0.00547898
0.00548009
0.00548121
0.00548229
0.00548331
0.00548426
0.00548518
0.00548605
0.00548692
0.00548787
0.00548894
0.00549014
0.00549148
0.00549289
0.00549431
0.00549563
0.00549676
0.00549764
0.00549823
0.00549856
0.0054987
0.00549873
0.00547524
0.0054752
0.00547515
0.00547512
0.00547517
0.00547535
0.00547569
0.00547622
0.00547694
0.00547783
0.00547887
0.00548001
0.00548122
0.00548244
0.00548366
0.00548486
0.00548599
0.005487
0.00548792
0.00548884
0.00548981
0.00549087
0.00549203
0.00549327
0.00549454
0.00549577
0.00549686
0.00549775
0.00549838
0.00549876
0.00549892
0.00549897
0.00547642
0.00547634
0.00547621
0.00547609
0.00547604
0.00547614
0.00547642
0.00547692
0.00547763
0.00547854
0.00547962
0.00548083
0.00548212
0.00548345
0.00548478
0.0054861
0.00548733
0.00548838
0.00548927
0.00549011
0.00549096
0.00549185
0.00549282
0.00549386
0.00549495
0.00549603
0.00549704
0.0054979
0.00549854
0.00549894
0.00549912
0.00549918
0.00547819
0.00547806
0.00547787
0.00547771
0.00547764
0.00547773
0.00547803
0.00547856
0.00547931
0.00548027
0.00548139
0.00548262
0.00548392
0.00548525
0.00548658
0.00548789
0.00548908
0.00549007
0.00549088
0.0054916
0.00549231
0.00549303
0.0054938
0.00549464
0.00549552
0.00549642
0.0054973
0.00549808
0.0054987
0.0054991
0.00549931
0.00549936
0.00548056
0.0054804
0.00548022
0.00548012
0.00548015
0.00548033
0.0054807
0.00548128
0.00548206
0.005483
0.00548408
0.00548524
0.00548645
0.00548767
0.00548887
0.00549004
0.00549109
0.00549195
0.00549263
0.00549322
0.00549378
0.00549434
0.00549492
0.00549555
0.00549623
0.00549694
0.00549765
0.00549832
0.00549887
0.00549926
0.00549946
0.00549953
0.00548354
0.0054834
0.00548333
0.00548341
0.0054836
0.00548392
0.00548436
0.00548495
0.00548567
0.00548652
0.00548745
0.00548844
0.00548945
0.00549045
0.00549143
0.00549238
0.00549322
0.0054939
0.00549443
0.00549488
0.00549529
0.00549569
0.00549611
0.00549656
0.00549704
0.00549755
0.00549809
0.00549861
0.00549907
0.00549941
0.0054996
0.00549967
0.0054872
0.00548714
0.00548728
0.00548756
0.0054879
0.00548828
0.00548872
0.00548923
0.00548981
0.00549045
0.00549115
0.00549188
0.00549262
0.00549335
0.00549406
0.00549474
0.00549534
0.00549581
0.00549618
0.00549649
0.00549677
0.00549704
0.00549731
0.0054976
0.00549791
0.00549824
0.0054986
0.00549896
0.0054993
0.00549956
0.00549973
0.00549979
0.00549166
0.00549176
0.00549206
0.00549239
0.00549272
0.00549304
0.00549335
0.00549369
0.00549405
0.00549445
0.00549487
0.0054953
0.00549574
0.00549617
0.00549659
0.00549698
0.00549733
0.00549761
0.00549782
0.005498
0.00549816
0.0054983
0.00549845
0.00549861
0.00549878
0.00549896
0.00549916
0.00549936
0.00549956
0.00549973
0.00549984
0.00549989
0.00549708
0.00549716
0.00549732
0.00549747
0.0054976
0.00549772
0.00549784
0.00549796
0.00549808
0.00549821
0.00549835
0.00549849
0.00549863
0.00549877
0.00549891
0.00549903
0.00549915
0.00549924
0.0054993
0.00549936
0.00549941
0.00549946
0.0054995
0.00549955
0.00549961
0.00549966
0.00549972
0.00549979
0.00549985
0.00549991
0.00549995
0.00549997
)
;

boundaryField
{
    movingWall
    {
        type            fixedValue;
        value           uniform 0.0055;
    }
    fixedWalls
    {
        type            zeroGradient;
    }
    floor
    {
        type            zeroGradient;
    }
    frontAndBack
    {
        type            empty;
    }
}


// ************************************************************************* //
