/*--------------------------------*- C++ -*----------------------------------*\
| =========                 |                                                 |
| \\      /  F ield         | OpenFOAM: The Open Source CFD Toolbox           |
|  \\    /   O peration     | Version:  2206                                  |
|   \\  /    A nd           | Website:  www.openfoam.com                      |
|    \\/     M anipulation  |                                                 |
\*---------------------------------------------------------------------------*/
FoamFile
{
    version     2.0;
    format      ascii;
    arch        "LSB;label=64;scalar=64";
    class       surfaceScalarField;
    location    "302400";
    object      phi;
}
// * * * * * * * * * * * * * * * * * * * * * * * * * * * * * * * * * * * * * //

dimensions      [0 3 -1 0 0 0 0];

oriented        oriented;

internalField   nonuniform List<scalar> 
24
(
6.58248e-10
-6.58248e-10
5.72542e-10
8.57055e-11
1.8538e-10
3.87162e-10
1.8538e-10
-7.07111e-11
-5.87537e-10
-5.0189e-11
6.51833e-11
-7.28467e-11
4.0982e-10
1.12534e-10
-3.53763e-10
-2.33774e-10
-3.0041e-10
1.1831e-11
-1.14009e-10
2.23418e-10
-1.4751e-12
-2.33774e-10
-2.21943e-10
1.47511e-12
)
;

boundaryField
{
    movingWall
    {
        type            calculated;
        value           uniform 0;
    }
    fixedWalls
    {
        type            calculated;
        value           uniform 0;
    }
    frontAndBack
    {
        type            empty;
        value           nonuniform List<scalar> 0();
    }
}


// ************************************************************************* //
