/*--------------------------------*- C++ -*----------------------------------*\
| =========                 |                                                 |
| \\      /  F ield         | OpenFOAM: The Open Source CFD Toolbox           |
|  \\    /   O peration     | Version:  2212                                  |
|   \\  /    A nd           | Website:  www.openfoam.com                      |
|    \\/     M anipulation  |                                                 |
\*---------------------------------------------------------------------------*/
FoamFile
{
    version     2.0;
    format      ascii;
    arch        "LSB;label=64;scalar=64";
    class       volScalarField;
    location    "0.47";
    object      alpha.air;
}
// * * * * * * * * * * * * * * * * * * * * * * * * * * * * * * * * * * * * * //

dimensions      [0 0 0 0 0 0 0];

internalField   nonuniform List<scalar> 
32768
(
6.10134e-119
7.94175e-116
2.77559e-113
4.92942e-111
5.73015e-109
4.95092e-107
3.40559e-105
1.93748e-103
9.31622e-102
3.83538e-100
1.36288e-98
4.20203e-97
1.12779e-95
2.63933e-94
5.3873e-93
9.58027e-92
1.48055e-90
1.98045e-89
2.27987e-88
2.24123e-87
1.86222e-86
1.29036e-85
7.32614e-85
3.3282e-84
1.17051e-83
3.04422e-83
5.50562e-83
6.29043e-83
3.81697e-83
8.81114e-84
6.95371e-85
3.9536e-86
3.19717e-86
2.6696e-85
1.78594e-84
7.10537e-85
1.37101e-85
2.06136e-86
2.75591e-87
3.40884e-88
3.96971e-89
4.39932e-90
4.70577e-91
4.92241e-92
5.12978e-93
5.42982e-94
6.00363e-95
7.34269e-96
1.14213e-96
3.37994e-97
3.13272e-97
7.65538e-97
3.49117e-96
2.36627e-95
1.95104e-94
1.64512e-93
1.30218e-92
3.38473e-91
5.56979e-89
8.10174e-87
6.58319e-85
6.86168e-84
4.24042e-83
9.13063e-83
1.30404e-82
8.31426e-83
2.00754e-83
4.78961e-84
1.46457e-85
1.76369e-87
1.87004e-89
2.45303e-90
1.19587e-90
4.72997e-91
1.80768e-91
7.22766e-92
3.26853e-92
1.75054e-92
1.16542e-92
1.00718e-92
1.25761e-92
2.78712e-92
1.1721e-91
7.36847e-91
5.6107e-90
4.7214e-89
4.22229e-88
3.95102e-87
3.86049e-86
3.95792e-85
4.1867e-84
4.17374e-83
3.27859e-82
1.5316e-81
1.97974e-81
6.16942e-83
5.32589e-84
5.72367e-83
3.24975e-82
7.09819e-82
7.88085e-82
5.28576e-82
2.38057e-82
7.76097e-83
1.92831e-83
3.78789e-84
6.04342e-85
7.99064e-86
8.89261e-87
8.42998e-88
6.87019e-89
4.84704e-90
2.97544e-91
1.59471e-92
7.47707e-94
3.06899e-95
1.10208e-96
3.45576e-98
9.42995e-100
2.22743e-101
4.51752e-103
7.76583e-105
1.10715e-106
1.25975e-108
1.06726e-110
5.91981e-113
1.66405e-115
1.24226e-118
5.73867e-115
5.91356e-112
1.78155e-109
2.83997e-107
3.06121e-105
2.5304e-103
1.71708e-101
9.9219e-100
4.97638e-98
2.1877e-96
8.47119e-95
2.89597e-93
8.74754e-92
2.33401e-90
5.49428e-89
1.13853e-87
2.06984e-86
3.28582e-85
4.52594e-84
5.36479e-83
5.41505e-82
4.59162e-81
3.21502e-80
1.81856e-79
8.06483e-79
2.68561e-78
6.3317e-78
9.75683e-78
8.76602e-78
3.96697e-78
7.63831e-79
6.76841e-80
6.09318e-81
1.38431e-80
1.736e-80
3.65416e-81
5.16543e-82
6.45497e-83
7.67496e-84
8.79906e-85
9.77201e-86
1.05687e-86
1.1261e-87
1.1957e-88
1.28738e-89
1.43296e-90
1.70355e-91
2.32542e-92
4.35643e-93
1.71345e-93
1.94596e-93
5.06809e-93
2.33685e-92
1.5638e-91
1.25573e-90
1.02348e-89
7.65544e-89
1.67654e-87
2.79353e-85
4.21166e-83
3.48191e-81
3.57366e-80
2.12927e-79
4.49262e-79
6.40325e-79
4.13879e-79
1.03616e-79
2.50675e-80
7.66939e-82
9.188e-84
9.82038e-86
1.37483e-86
6.91223e-87
2.79752e-87
1.09177e-87
4.44097e-88
2.0329e-88
1.09665e-88
7.30468e-89
6.22925e-89
7.36591e-89
1.41853e-88
4.98031e-88
2.72791e-87
1.89556e-86
1.50103e-85
1.29322e-84
1.1929e-83
1.17949e-82
1.26572e-81
1.47003e-80
1.72029e-79
1.74822e-78
1.2697e-77
4.98561e-77
2.94819e-77
8.62178e-78
4.34736e-77
1.15921e-76
1.56063e-76
1.20293e-76
5.95001e-77
2.05056e-77
5.22695e-78
1.03015e-78
1.62323e-79
2.09803e-80
2.26878e-81
2.0844e-82
1.64647e-83
1.12852e-84
6.7598e-86
3.5577e-87
1.6518e-88
6.78464e-90
2.46973e-91
7.97423e-93
2.28352e-94
5.79299e-96
1.2985e-97
2.55842e-99
4.38646e-101
6.4175e-103
7.71838e-105
7.12054e-107
4.43504e-109
1.45536e-111
1.38345e-114
1.97368e-112
2.05011e-109
6.2443e-107
1.00776e-104
1.10315e-102
9.32076e-101
6.53356e-99
3.95519e-97
2.11192e-95
1.0045e-93
4.27088e-92
1.62367e-90
5.5125e-89
1.66817e-87
4.48866e-86
1.07059e-84
2.25383e-83
4.16554e-82
6.71473e-81
9.3636e-80
1.11783e-78
1.12727e-77
9.43906e-77
6.41941e-76
3.44349e-75
1.40062e-74
4.0945e-74
7.99172e-74
9.39605e-74
5.79211e-74
1.63238e-74
2.59044e-75
7.72452e-76
2.88951e-76
6.52366e-77
8.34469e-78
9.11323e-79
9.76055e-80
1.05294e-80
1.13419e-81
1.21352e-82
1.2915e-83
1.37965e-84
1.49346e-85
1.66526e-86
1.95218e-87
2.50306e-88
3.84315e-89
8.76035e-90
4.43827e-90
5.85383e-90
1.59789e-89
7.41653e-89
4.89102e-88
3.82195e-87
3.01081e-86
2.12676e-85
3.71506e-84
6.31543e-82
1.01324e-79
8.68688e-78
8.78615e-77
5.04584e-76
1.04258e-75
1.48243e-75
9.70831e-76
2.52258e-76
6.18997e-77
1.89774e-78
2.27163e-80
2.44691e-82
3.62372e-83
1.87608e-83
7.76151e-84
3.0898e-84
1.2773e-84
5.91213e-85
3.209e-85
2.13734e-85
1.80278e-85
2.04892e-85
3.55267e-85
1.06736e-84
5.1042e-84
3.22284e-83
2.38669e-82
1.96375e-81
1.76258e-80
1.72997e-79
1.89054e-78
2.32263e-77
3.03522e-76
3.6941e-75
3.55715e-74
2.31902e-73
8.40666e-73
1.04734e-72
7.47625e-73
1.31517e-72
1.30598e-72
7.77274e-73
3.04402e-73
8.43572e-74
1.7497e-74
2.83499e-75
3.70326e-76
3.9966e-77
3.63398e-78
2.82551e-79
1.90096e-80
1.1167e-81
5.76811e-83
2.6343e-84
1.06838e-85
3.86063e-87
1.24642e-88
3.60359e-90
9.34429e-92
2.17466e-93
4.53957e-95
8.4714e-97
1.39988e-98
2.00562e-100
2.3915e-102
2.20462e-104
1.3774e-106
4.53989e-109
4.34188e-112
9.28109e-110
9.73878e-107
2.99168e-104
4.8679e-102
5.3718e-100
4.57487e-98
3.23417e-96
1.97942e-94
1.07411e-92
5.22909e-91
2.29284e-89
9.05317e-88
3.2115e-86
1.02037e-84
2.89521e-83
7.31005e-82
1.63525e-80
3.22542e-79
5.57315e-78
8.36924e-77
1.08172e-75
1.18869e-74
1.09392e-73
8.26627e-73
4.99433e-72
2.3274e-71
7.98666e-71
1.89878e-70
2.87971e-70
2.54082e-70
1.22555e-70
3.22149e-71
6.0709e-72
1.12122e-72
1.30472e-73
1.2331e-74
1.13386e-75
1.09557e-76
1.10957e-77
1.15048e-78
1.20853e-79
1.28513e-80
1.39289e-81
1.5508e-82
1.80316e-83
2.24093e-84
3.12618e-85
5.47109e-86
1.53106e-86
9.67176e-87
1.43192e-86
4.06508e-86
1.898e-85
1.23315e-84
9.36744e-84
7.12283e-83
4.80796e-82
7.35181e-81
1.23234e-78
2.01105e-76
1.736e-74
1.7266e-73
9.53706e-73
1.92769e-72
2.733e-72
1.81232e-72
4.88968e-73
1.21755e-73
3.78561e-75
4.71397e-77
5.19892e-79
7.59268e-80
4.02253e-80
1.69875e-80
6.88501e-81
2.88595e-81
1.34695e-81
7.33319e-82
4.86833e-82
4.05447e-82
4.4535e-82
7.09615e-82
1.85803e-81
7.75171e-81
4.40647e-80
3.01478e-79
2.33341e-78
1.99895e-77
1.89784e-76
2.03917e-75
2.52921e-74
3.47758e-73
4.67423e-72
5.22979e-71
4.22906e-70
2.16801e-69
6.06283e-69
8.22363e-69
5.32876e-69
2.77523e-69
1.3529e-69
4.53939e-70
1.10593e-70
2.04852e-71
2.99609e-72
3.56354e-73
3.52903e-74
2.96307e-75
2.13964e-76
1.34346e-77
7.39536e-79
3.59303e-80
1.54952e-81
5.95833e-83
2.05083e-84
6.34081e-86
1.76573e-87
4.43575e-89
1.00678e-90
2.06445e-92
3.80838e-94
6.24701e-96
8.89676e-98
1.0541e-99
9.64815e-102
5.98294e-104
1.95678e-106
1.85389e-109
5.09162e-107
5.24553e-104
1.59152e-101
2.5666e-99
2.81239e-97
2.37945e-95
1.66997e-93
1.01367e-91
5.45528e-90
2.63823e-88
1.15244e-86
4.54831e-85
1.61797e-83
5.17356e-82
1.48271e-80
3.79491e-79
8.64203e-78
1.74222e-76
3.09174e-75
4.79297e-74
6.43447e-73
7.39193e-72
7.16262e-71
5.75259e-70
3.74054e-69
1.90765e-68
7.31689e-68
2.00296e-67
3.62977e-67
3.91928e-67
2.25472e-67
6.98967e-68
1.41945e-68
1.75939e-69
1.6184e-70
1.32199e-71
1.11745e-72
1.03115e-73
1.02003e-74
1.04775e-75
1.10568e-76
1.19643e-77
1.33415e-78
1.54423e-79
1.89001e-80
2.51443e-81
3.86327e-82
7.82554e-83
2.69567e-83
2.05529e-83
3.33846e-83
9.81274e-83
4.60819e-82
2.94999e-81
2.17776e-80
1.59742e-79
1.0357e-78
1.48249e-77
2.41056e-75
3.86692e-73
3.28469e-71
3.20656e-70
1.69991e-69
3.35718e-69
4.74231e-69
3.18114e-69
8.9142e-70
2.252e-70
7.08355e-72
9.16619e-74
1.04174e-75
1.4835e-76
8.01203e-77
3.44408e-77
1.41657e-77
5.99929e-78
2.81206e-78
1.52871e-78
1.00671e-78
8.24437e-79
8.75472e-79
1.29648e-78
3.00003e-78
1.09163e-77
5.53175e-77
3.44866e-76
2.46867e-75
1.97742e-74
1.76931e-73
1.80633e-72
2.16222e-71
2.95914e-70
4.10855e-69
4.89087e-68
4.28127e-67
2.40497e-66
7.45554e-66
1.17221e-65
9.88287e-66
4.95593e-66
1.61961e-66
3.79374e-67
7.75242e-68
1.31006e-68
1.78196e-69
1.99857e-70
1.88503e-71
1.52126e-72
1.06409e-73
6.50959e-75
3.50756e-76
1.67549e-77
7.12848e-79
2.71463e-80
9.28361e-82
2.8609e-83
7.9668e-85
2.00825e-86
4.58883e-88
9.50076e-90
1.7735e-91
2.9464e-93
4.24951e-95
5.09862e-97
4.72861e-99
2.97588e-101
9.90683e-104
9.60551e-107
2.24295e-104
2.26293e-101
6.74633e-99
1.07104e-96
1.15622e-94
9.63562e-93
6.65518e-91
3.97097e-89
2.09925e-87
9.97719e-86
4.29025e-84
1.6709e-82
5.88233e-81
1.86697e-79
5.32736e-78
1.36219e-76
3.11017e-75
6.31047e-74
1.13173e-72
1.78283e-71
2.44664e-70
2.89337e-69
2.90964e-68
2.44672e-67
1.68209e-66
9.18095e-66
3.81982e-65
1.15037e-64
2.33784e-64
2.96603e-64
2.09696e-64
7.89919e-65
1.48185e-65
1.66149e-66
1.41373e-67
1.1005e-68
9.15476e-70
8.46997e-71
8.47651e-72
8.86768e-73
9.6137e-74
1.0772e-74
1.25269e-75
1.52448e-76
1.98557e-77
2.86109e-78
4.91003e-79
1.16789e-79
4.92607e-80
4.40044e-80
7.72165e-80
2.34308e-79
1.10666e-78
6.98215e-78
5.01065e-77
3.54632e-76
2.21272e-75
3.04276e-74
4.77918e-72
7.43639e-70
6.15572e-68
5.89035e-67
2.99137e-66
5.76524e-66
8.10751e-66
5.49445e-66
1.59941e-66
4.09838e-67
1.30058e-68
1.74611e-70
2.04211e-72
2.8213e-73
1.54754e-73
6.74663e-74
2.80476e-74
1.19501e-74
5.59908e-75
3.02366e-75
1.9643e-75
1.57365e-75
1.61162e-75
2.23055e-75
4.60799e-75
1.4626e-74
6.54151e-74
3.66358e-73
2.38387e-72
1.74914e-71
1.43841e-70
1.35119e-69
1.49805e-68
1.94891e-67
2.67048e-66
3.22172e-65
2.86733e-64
1.61569e-63
4.88566e-63
7.42541e-63
6.13185e-63
3.07501e-63
1.02816e-63
2.4611e-64
4.45009e-65
6.33135e-66
7.44984e-67
7.6802e-68
6.84739e-69
5.34625e-70
3.662e-71
2.20835e-72
1.17909e-73
5.60597e-75
2.38392e-76
9.10454e-78
3.13212e-79
9.73473e-81
2.74055e-82
6.99798e-84
1.62303e-85
3.41592e-87
6.48488e-89
1.09557e-90
1.60695e-92
1.96173e-94
1.85303e-96
1.18967e-98
4.05048e-101
4.03277e-104
7.4428e-102
7.32475e-99
2.13492e-96
3.31891e-94
3.5118e-92
2.87023e-90
1.94466e-88
1.13804e-86
5.89908e-85
2.7496e-83
1.16083e-81
4.44691e-80
1.54348e-78
4.84223e-77
1.36967e-75
3.48316e-74
7.9359e-73
1.61294e-71
2.90932e-70
4.62979e-69
6.44663e-68
7.77702e-67
8.02939e-66
6.98316e-65
5.01096e-64
2.88897e-63
1.2943e-62
4.29701e-62
9.88815e-62
1.46657e-61
1.24154e-61
5.0949e-62
9.93583e-63
1.115e-63
9.47232e-65
7.4707e-66
6.4151e-67
6.17499e-68
6.43199e-69
7.01552e-70
7.96539e-71
9.38308e-72
1.15211e-72
1.49126e-73
2.09117e-74
3.30538e-75
6.42873e-76
1.81543e-76
9.26181e-77
9.4538e-77
1.77343e-76
5.54479e-76
2.63372e-75
1.63817e-74
1.14334e-73
7.81184e-73
4.69457e-72
6.25073e-71
9.47919e-69
1.42514e-66
1.14568e-64
1.07313e-63
5.21104e-63
9.78934e-63
1.36944e-62
9.36274e-63
2.83197e-63
7.36041e-64
2.35008e-65
3.26835e-67
3.92802e-69
5.23662e-70
2.9059e-70
1.28e-70
5.35654e-71
2.28603e-71
1.06561e-71
5.68716e-72
3.62481e-72
2.82566e-72
2.78152e-72
3.60826e-72
6.71368e-72
1.86553e-71
7.32484e-71
3.64991e-70
2.13249e-69
1.41243e-68
1.04949e-67
8.88365e-67
8.86886e-66
1.05722e-64
1.37558e-63
1.62165e-62
1.41098e-61
7.61392e-61
2.13026e-60
2.97152e-60
2.2802e-60
1.08079e-60
3.47203e-61
8.10602e-62
1.44878e-62
2.06205e-63
2.40847e-64
2.3628e-65
1.98083e-66
1.45286e-67
9.5054e-69
5.58176e-70
2.92893e-71
1.3772e-72
5.83709e-74
2.23737e-75
7.76071e-77
2.44018e-78
6.96834e-80
1.80904e-81
4.27339e-83
9.17008e-85
1.77549e-86
3.05858e-88
4.57488e-90
5.69918e-92
5.5e-94
3.61351e-96
1.26188e-98
1.29264e-101
1.93462e-99
1.84771e-96
5.2375e-94
7.93236e-92
8.1888e-90
6.53749e-88
4.3306e-86
2.4791e-84
1.25722e-82
5.73508e-81
2.37182e-79
8.9148e-78
3.04291e-76
9.4105e-75
2.63075e-73
6.63022e-72
1.50182e-70
3.04596e-69
5.50435e-68
8.81403e-67
1.24179e-65
1.52592e-64
1.61698e-63
1.4567e-62
1.09436e-61
6.68386e-61
3.21101e-60
1.16244e-59
3.02289e-59
5.06665e-59
4.83309e-59
2.26107e-59
4.85906e-60
5.74395e-61
5.10345e-62
4.25504e-63
3.90598e-64
4.02533e-65
4.46397e-66
5.17733e-67
6.25499e-68
7.84675e-69
1.02922e-69
1.43362e-70
2.19056e-71
3.84786e-72
8.59962e-73
2.89957e-73
1.75963e-73
2.01181e-73
4.00564e-73
1.28865e-72
6.15491e-72
3.77448e-71
2.56286e-70
1.6911e-69
9.79192e-69
1.26578e-67
1.85394e-65
2.68972e-63
2.0964e-61
1.91883e-60
8.89276e-60
1.62647e-59
2.26189e-59
1.55771e-59
4.89778e-60
1.2917e-60
4.13923e-62
5.95501e-64
7.34654e-66
9.39893e-67
5.25625e-67
2.33112e-67
9.78196e-68
4.16479e-68
1.92309e-68
1.00952e-68
6.28095e-69
4.74059e-69
4.46901e-69
5.43927e-69
9.17788e-69
2.24386e-68
7.71612e-68
3.39881e-67
1.7678e-66
1.04568e-65
6.93492e-65
5.21529e-64
4.60298e-63
4.89329e-62
5.85794e-61
6.55409e-60
5.41718e-59
2.71198e-58
6.80862e-58
8.51675e-58
5.96045e-58
2.62567e-58
7.97339e-59
1.78488e-59
3.09733e-60
4.32767e-61
5.0116e-62
4.91421e-63
4.14707e-64
3.04808e-65
1.96903e-66
1.12635e-67
5.77659e-69
2.67723e-70
1.12839e-71
4.31987e-73
1.50193e-74
4.74922e-76
1.36827e-77
3.59944e-79
8.64897e-81
1.89264e-82
3.74192e-84
6.58755e-86
1.00779e-87
1.28551e-89
1.27206e-91
8.58474e-94
3.08667e-96
3.26532e-99
4.10208e-97
3.78047e-94
1.03659e-91
1.52197e-89
1.526e-87
1.18522e-85
7.64835e-84
4.2685e-82
2.11075e-80
9.3917e-79
3.79352e-77
1.39578e-75
4.67645e-74
1.42372e-72
3.93037e-71
9.81596e-70
2.21093e-68
4.47668e-67
8.11483e-66
1.3094e-64
1.86902e-63
2.34016e-62
2.54132e-61
2.36218e-60
1.84712e-59
1.18795e-58
6.13981e-58
2.41672e-57
6.81739e-57
1.26704e-56
1.37737e-56
7.49819e-57
1.83803e-57
2.36466e-58
2.27034e-59
2.06608e-60
2.085e-61
2.35377e-62
2.83021e-63
3.54771e-64
4.62082e-65
6.24538e-66
8.85197e-67
1.3428e-67
2.26213e-68
4.47311e-69
1.16258e-69
4.67929e-70
3.31607e-70
4.18197e-70
8.7939e-70
2.90753e-69
1.39589e-68
8.43806e-68
5.57432e-67
3.55267e-66
1.98212e-65
2.49159e-64
3.52553e-62
4.93121e-60
3.72108e-58
3.32053e-57
1.46583e-56
2.60739e-56
3.60282e-56
2.49512e-56
8.15967e-57
2.18589e-57
7.01527e-59
1.04301e-60
1.31988e-62
1.6115e-63
9.04951e-64
4.0281e-64
1.68921e-64
7.14931e-65
3.25768e-65
1.67506e-65
1.01283e-65
7.36859e-66
6.62876e-66
7.56907e-66
1.16413e-65
2.51785e-65
7.58093e-65
2.93952e-64
1.35318e-63
7.09407e-63
4.16096e-62
2.75092e-61
2.11954e-60
1.97115e-59
2.11689e-58
2.19231e-57
1.67959e-56
7.60413e-56
1.67935e-55
1.86166e-55
1.17884e-55
4.79554e-56
1.36845e-56
2.92144e-57
4.8953e-58
6.67563e-59
7.61137e-60
7.40446e-61
6.2389e-62
4.60501e-63
3.00343e-64
1.74224e-65
9.03231e-67
4.20231e-68
1.76238e-69
6.71966e-71
2.33849e-72
7.45564e-74
2.17675e-75
5.81237e-77
1.41708e-78
3.14818e-80
6.3351e-82
1.13882e-83
1.78438e-85
2.33722e-87
2.38029e-89
1.65714e-91
6.16315e-94
6.76618e-97
7.30817e-95
6.46695e-92
1.70721e-89
2.41897e-87
2.34528e-85
1.76455e-83
1.10483e-81
5.99013e-80
2.88068e-78
1.2485e-76
4.92403e-75
1.77374e-73
5.83526e-72
1.75009e-70
4.77437e-69
1.18177e-67
2.647e-66
5.347e-65
9.69902e-64
1.5727e-62
2.26648e-61
2.88075e-60
3.19797e-59
3.06906e-58
2.50416e-57
1.69184e-56
9.18735e-56
3.85275e-55
1.17971e-54
2.43661e-54
3.02901e-54
1.93891e-54
5.55509e-55
7.96048e-56
8.47219e-57
8.64325e-58
9.8135e-59
1.23553e-59
1.63514e-60
2.24448e-61
3.1882e-62
4.69501e-63
7.27371e-64
1.21564e-64
2.28381e-65
5.14615e-66
1.56951e-66
7.49681e-67
6.09387e-67
8.38011e-67
1.85423e-66
6.293e-66
3.03472e-65
1.80722e-64
1.16125e-63
7.14676e-63
3.84079e-62
4.70196e-61
6.42744e-59
8.65722e-57
6.31514e-55
5.47752e-54
2.29855e-53
3.97234e-53
5.45199e-53
3.79018e-53
1.29002e-53
3.51637e-54
1.12844e-55
1.73284e-57
2.24886e-59
2.6058e-60
1.46433e-60
6.52476e-61
2.72651e-61
1.14368e-61
5.12644e-62
2.57289e-62
1.50618e-62
1.05223e-62
9.00334e-63
9.63826e-63
1.35625e-62
2.60895e-62
6.88664e-62
2.3449e-61
9.51823e-61
4.40062e-60
2.26845e-59
1.30839e-58
8.72001e-58
6.98986e-57
6.58365e-56
6.16261e-55
4.28613e-54
1.71936e-53
3.29626e-53
3.21891e-53
1.83823e-53
6.89058e-54
1.84455e-54
3.74976e-55
6.05798e-56
8.0457e-57
9.01125e-58
8.67393e-59
7.27663e-60
5.37695e-61
3.52768e-62
2.06713e-63
1.0869e-64
5.14894e-66
2.20414e-67
8.54728e-69
3.00837e-70
9.6695e-72
2.84687e-73
7.69813e-75
1.91039e-76
4.32532e-78
8.87541e-80
1.63067e-81
2.62041e-83
3.53243e-85
3.71416e-87
2.67739e-89
1.03426e-91
1.1836e-94
1.11394e-92
9.42486e-90
2.38602e-87
3.25044e-85
3.03658e-83
2.20599e-81
1.33637e-79
7.0253e-78
3.284e-76
1.38733e-74
5.34575e-73
1.88527e-71
6.08562e-70
1.79513e-68
4.82871e-67
1.18196e-65
2.62572e-64
5.27943e-63
9.57048e-62
1.55764e-60
2.26827e-59
2.93271e-58
3.32532e-57
3.26752e-56
2.73963e-55
1.92023e-54
1.09479e-53
4.88965e-53
1.62405e-52
3.72488e-52
5.29756e-52
4.00658e-52
1.36639e-52
2.22216e-53
2.67992e-54
3.13856e-55
4.08739e-56
5.81695e-57
8.58048e-58
1.30402e-58
2.04176e-59
3.31272e-60
5.67276e-61
1.05597e-61
2.23646e-62
5.80779e-63
2.08874e-63
1.1721e-63
1.07545e-63
1.59876e-63
3.7114e-63
1.29118e-62
6.24735e-62
3.66112e-61
2.28653e-60
1.35798e-59
7.02513e-59
8.38811e-58
1.10731e-55
1.43404e-53
1.00955e-51
8.47765e-51
3.3746e-50
5.66092e-50
7.71653e-50
5.37426e-50
1.90525e-50
5.29807e-51
1.69854e-52
2.69397e-54
3.58721e-56
3.92226e-57
2.19871e-57
9.78709e-58
4.06594e-58
1.68637e-58
7.41754e-59
3.62345e-59
2.04734e-59
1.36908e-59
1.11105e-59
1.11407e-59
1.43818e-59
2.47299e-59
5.73651e-59
1.7134e-58
6.11874e-58
2.48712e-57
1.12168e-56
5.60914e-56
3.20412e-55
2.18523e-54
1.7705e-53
1.46727e-52
9.11043e-52
3.18375e-51
5.25259e-51
4.50559e-51
2.31877e-51
8.0091e-52
2.01201e-52
3.89551e-53
6.06667e-54
7.84607e-55
8.62955e-56
8.21436e-57
6.85599e-58
5.06656e-59
3.33934e-60
1.97389e-61
1.05092e-62
5.05872e-64
2.20766e-65
8.75656e-67
3.16243e-68
1.04083e-69
3.11973e-71
8.5604e-73
2.15635e-74
4.97888e-76
1.04455e-77
1.96682e-79
3.25009e-81
4.52212e-83
4.92455e-85
3.68833e-87
1.48528e-89
1.77871e-92
1.47408e-90
1.18797e-87
2.87396e-85
3.75151e-83
3.36641e-81
2.35503e-79
1.37779e-77
7.01799e-76
3.18889e-74
1.31272e-72
4.93468e-71
1.70006e-69
5.37284e-68
1.5561e-66
4.12328e-65
9.97363e-64
2.19716e-62
4.40556e-61
7.98897e-60
1.30369e-58
1.90551e-57
2.47783e-56
2.84277e-55
2.84598e-54
2.45059e-53
1.78073e-52
1.06445e-51
5.05611e-51
1.81835e-50
4.62167e-50
7.50674e-50
6.7196e-50
2.76466e-50
5.1894e-51
7.24273e-52
9.94457e-53
1.5091e-53
2.45206e-54
4.07396e-55
6.92509e-56
1.20798e-56
2.18273e-57
4.17399e-58
8.74104e-59
2.1093e-59
6.3732e-60
2.7035e-60
1.75981e-60
1.798e-60
2.87048e-60
6.97272e-60
2.48214e-59
1.20298e-58
6.92611e-58
4.19909e-57
2.40371e-56
1.19563e-55
1.39426e-54
1.77595e-52
2.20727e-50
1.49688e-48
1.21082e-47
4.56187e-47
7.42223e-47
1.00499e-46
6.9968e-47
2.5857e-47
7.36174e-48
2.35799e-49
3.86539e-51
5.28751e-53
5.42376e-54
3.02405e-54
1.34287e-54
5.5374e-55
2.26712e-55
9.76856e-56
4.63506e-56
2.5219e-56
1.61026e-56
1.23653e-56
1.16023e-56
1.37681e-56
2.1258e-56
4.34623e-56
1.13829e-55
3.56966e-55
1.27277e-54
5.00747e-54
2.16194e-53
1.05044e-52
6.02608e-52
4.13054e-51
2.97542e-50
1.6258e-49
4.87739e-49
6.88566e-49
5.18444e-49
2.40666e-49
7.67021e-50
1.81054e-50
3.34242e-51
5.02308e-52
6.33127e-53
6.84233e-54
6.44364e-55
5.3518e-56
3.95529e-57
2.61857e-58
1.56081e-59
8.41022e-61
4.1109e-62
1.82752e-63
7.40679e-65
2.74158e-66
9.27687e-68
2.86625e-69
8.04706e-71
2.06502e-72
4.86873e-74
1.04658e-75
2.02636e-77
3.45534e-79
4.97794e-81
5.63057e-83
4.39385e-85
1.84983e-87
2.3254e-90
1.70674e-88
1.30645e-85
3.01217e-83
3.75815e-81
3.23191e-79
2.17297e-77
1.22593e-75
6.04354e-74
2.66663e-72
1.06811e-70
3.91169e-69
1.31587e-67
4.07093e-66
1.15815e-64
3.03032e-63
7.24688e-62
1.57998e-60
3.13273e-59
5.63171e-58
9.14824e-57
1.33695e-55
1.74725e-54
2.02645e-53
2.0646e-52
1.82339e-51
1.37145e-50
8.5809e-50
4.32529e-49
1.67982e-48
4.71754e-48
8.72545e-48
9.23651e-48
4.62829e-48
1.02003e-48
1.68257e-49
2.75893e-50
4.93681e-51
9.23019e-52
1.74486e-52
3.35105e-53
6.5789e-54
1.33685e-54
2.88125e-55
6.85261e-56
1.90379e-56
6.73848e-57
3.35653e-57
2.50036e-57
2.81311e-57
4.79756e-57
1.2162e-56
4.4201e-56
2.14055e-55
1.20802e-54
7.09608e-54
3.90796e-53
1.86578e-52
2.12726e-51
2.61078e-49
3.10678e-47
2.02554e-45
1.56801e-44
5.57868e-44
8.79815e-44
1.18383e-43
8.21836e-44
3.16873e-44
9.2818e-45
2.97409e-46
5.04737e-48
7.108e-50
6.79955e-51
3.7601e-51
1.66466e-51
6.80774e-52
2.74895e-52
1.15926e-52
5.33632e-53
2.79146e-53
1.69893e-53
1.23222e-53
1.08103e-53
1.1809e-53
1.64352e-53
2.97145e-53
6.8264e-53
1.87754e-52
5.86313e-52
2.00878e-51
7.47206e-51
3.07211e-50
1.46823e-49
8.38435e-49
5.15696e-48
2.44729e-47
6.22227e-47
7.49316e-47
4.95663e-47
2.0795e-47
6.12809e-48
1.36196e-48
2.40186e-49
3.48902e-50
4.29196e-51
4.56317e-52
4.25552e-53
3.51979e-54
2.60308e-55
1.73177e-56
1.0412e-57
5.67866e-59
2.81853e-60
1.27626e-61
5.28416e-63
2.00397e-64
6.96844e-66
2.21961e-67
6.44301e-69
1.6929e-70
4.08661e-72
9.02795e-74
1.80343e-75
3.18282e-77
4.75987e-79
5.60528e-81
4.56787e-83
2.01533e-85
2.66636e-88
1.73846e-86
1.26121e-83
2.76601e-81
3.29247e-79
2.70867e-77
1.74733e-75
9.49134e-74
4.52288e-72
1.93567e-70
7.53843e-69
2.69134e-67
8.85843e-66
2.69049e-64
7.49908e-63
1.91876e-61
4.50048e-60
9.65619e-59
1.8904e-57
3.36734e-56
5.44113e-55
7.94312e-54
1.04204e-52
1.22e-51
1.26291e-50
1.14184e-49
8.87199e-49
5.79684e-48
3.09263e-47
1.29314e-46
3.99813e-46
8.38802e-46
1.04719e-45
6.42802e-46
1.69477e-46
3.373e-47
6.70769e-48
1.42749e-48
3.09476e-49
6.72267e-50
1.4735e-50
3.28581e-51
7.57399e-52
1.85592e-52
5.06215e-53
1.6347e-53
6.79869e-54
3.94382e-54
3.31845e-54
4.0742e-54
7.38916e-54
1.94892e-53
7.20958e-53
3.47758e-52
1.91753e-51
1.08849e-50
5.75222e-50
2.62956e-49
2.93267e-48
3.46065e-46
3.9319e-44
2.4592e-42
1.80701e-41
6.05556e-41
9.25371e-41
1.23826e-40
8.54798e-41
3.44136e-41
1.04364e-41
3.35523e-43
5.91281e-45
8.59947e-47
7.62408e-48
4.17029e-48
1.8411e-48
7.46737e-49
2.97389e-49
1.2274e-49
5.47925e-50
2.7535e-50
1.59579e-50
1.0919e-50
8.95086e-51
9.01126e-51
1.13442e-50
1.82013e-50
3.67169e-50
8.84964e-50
2.41736e-49
7.2042e-49
2.30653e-48
8.00537e-48
3.1633e-47
1.48353e-46
7.65116e-46
3.11361e-45
6.63781e-45
6.81075e-45
3.9666e-45
1.50817e-45
4.12104e-46
8.64549e-47
1.45992e-47
2.05425e-48
2.47072e-49
2.58817e-50
2.39346e-51
1.97367e-52
1.46195e-53
9.78074e-55
5.93526e-56
3.27795e-57
1.6526e-58
7.62383e-60
3.22504e-61
1.2532e-62
4.47817e-64
1.4704e-65
4.41503e-67
1.19702e-68
2.96808e-70
6.75985e-72
1.39681e-73
2.55744e-75
3.97902e-77
4.88861e-79
4.16864e-81
1.93122e-83
2.6947e-86
1.56649e-84
1.07471e-81
2.23762e-79
2.53663e-77
1.99316e-75
1.23189e-73
6.43496e-72
2.96078e-70
1.22799e-68
4.65011e-67
1.62353e-65
5.21669e-64
1.53742e-62
4.17329e-61
1.04353e-59
2.39978e-58
5.06481e-57
9.78401e-56
1.72553e-54
2.77067e-53
4.03523e-52
5.30586e-51
6.25981e-50
6.57116e-49
6.06949e-48
4.85999e-47
3.30724e-46
1.86178e-45
8.35183e-45
2.83108e-44
6.70555e-44
9.83293e-44
7.4119e-44
2.38567e-44
5.83922e-45
1.42427e-45
3.62928e-46
9.20771e-47
2.32256e-47
5.86501e-48
1.49785e-48
3.94986e-49
1.11062e-49
3.50962e-50
1.32758e-50
6.47897e-51
4.33049e-51
4.06732e-51
5.40916e-51
1.03884e-50
2.84057e-50
1.06536e-49
5.09646e-49
2.73446e-48
1.49468e-47
7.5524e-47
3.29464e-46
3.59327e-45
4.06486e-43
4.39442e-41
2.63015e-39
1.81591e-38
5.71533e-38
8.46229e-38
1.12728e-37
7.71379e-38
3.24539e-38
1.02703e-38
3.33046e-40
6.12286e-42
9.23849e-44
7.5421e-45
4.069e-45
1.7935e-45
7.22115e-46
2.83873e-46
1.14769e-46
4.97139e-47
2.40046e-47
1.32439e-47
8.54482e-48
6.54369e-48
6.07776e-48
6.94228e-48
9.92053e-48
1.76007e-47
3.7158e-47
8.8675e-47
2.29573e-46
6.32133e-46
1.85144e-45
6.02047e-45
2.28933e-44
9.71896e-44
3.34832e-43
5.93452e-43
5.19217e-43
2.67085e-43
9.23564e-44
2.34766e-44
4.6633e-45
7.56054e-46
1.03289e-46
1.21721e-47
1.25862e-48
1.156e-49
9.51635e-51
7.06804e-52
4.75998e-53
2.91764e-54
1.63276e-55
8.36559e-57
3.93324e-58
1.70049e-59
6.77222e-61
2.48728e-62
8.41978e-64
2.61517e-65
7.35595e-67
1.87682e-68
4.4185e-70
9.46434e-72
1.8012e-73
2.92071e-75
3.74964e-77
3.35067e-79
1.63235e-81
2.4061e-84
1.24827e-82
8.09029e-80
1.59783e-77
1.72373e-75
1.29256e-73
7.64654e-72
3.83642e-70
1.70217e-68
6.8357e-67
2.51613e-65
8.57658e-64
2.66298e-62
7.61364e-61
2.01205e-59
4.91446e-58
1.10749e-56
2.29758e-55
4.37636e-54
7.63496e-53
1.2168e-51
1.76552e-50
2.32293e-49
2.7562e-48
2.92746e-47
2.75551e-46
2.26772e-45
1.60248e-44
9.48636e-44
4.54726e-43
1.68226e-42
4.47483e-42
7.66471e-42
7.08927e-42
2.84269e-42
8.68556e-43
2.61977e-43
8.05502e-44
2.41837e-44
7.15587e-45
2.10064e-45
6.19777e-46
1.887e-46
6.15578e-47
2.27672e-47
1.01309e-47
5.77101e-48
4.3936e-48
4.55892e-48
6.52731e-48
1.32153e-47
3.72922e-47
1.41092e-46
6.65721e-46
3.45711e-45
1.8113e-44
8.70987e-44
3.60992e-43
3.84433e-42
4.15227e-40
4.25339e-38
2.42874e-36
1.55646e-35
4.58504e-35
6.58053e-35
8.73764e-35
5.90521e-35
2.59917e-35
8.66402e-36
2.85805e-37
5.5189e-39
8.68505e-41
6.48473e-42
3.44247e-42
1.51826e-42
6.08036e-43
2.36398e-43
9.38069e-44
3.94947e-44
1.83424e-44
9.63954e-45
5.86563e-45
4.19686e-45
3.5997e-45
3.74097e-45
4.77817e-45
7.47027e-45
1.38104e-44
2.87542e-44
6.45594e-44
1.52649e-43
3.77372e-43
1.00782e-42
3.07673e-42
1.05585e-41
3.03814e-41
4.45146e-41
3.32905e-41
1.51863e-41
4.79538e-42
1.13824e-42
2.14797e-43
3.35365e-44
4.46031e-45
5.16206e-46
5.27952e-47
4.82447e-48
3.97077e-49
2.96091e-50
2.00929e-51
1.24512e-52
7.06554e-54
3.68106e-55
1.76476e-56
7.80089e-58
3.18503e-59
1.20263e-60
4.19805e-62
1.34904e-63
3.94128e-65
1.03843e-66
2.53293e-68
5.6345e-70
1.11665e-71
1.89027e-73
2.53962e-75
2.38132e-77
1.22149e-79
1.90453e-82
8.82727e-81
5.39801e-78
1.01022e-75
1.03615e-73
7.40837e-72
4.19123e-70
2.01777e-68
8.62317e-67
3.35141e-65
1.20325e-63
3.95227e-62
1.18565e-60
3.28727e-59
8.45355e-58
2.01587e-56
4.4492e-55
9.06672e-54
1.7015e-52
2.93368e-51
4.63505e-50
6.69036e-49
8.79208e-48
1.04692e-46
1.12233e-45
1.07361e-44
9.05418e-44
6.62172e-43
4.10676e-42
2.09453e-41
8.41368e-41
2.49824e-40
4.96612e-40
5.61517e-40
2.85309e-40
1.09865e-40
4.13027e-41
1.54638e-41
5.56348e-42
1.95138e-42
6.72181e-43
2.3155e-43
8.23276e-44
3.15461e-44
1.37709e-44
7.21024e-45
4.75571e-45
4.07826e-45
4.6348e-45
7.10519e-45
1.5088e-44
4.3693e-44
1.65701e-43
7.65688e-43
3.8229e-42
1.9086e-41
8.68178e-41
3.39917e-40
3.52329e-39
3.61424e-37
3.48988e-35
1.89346e-33
1.1108e-32
3.04842e-32
4.24555e-32
5.62619e-32
3.73987e-32
1.72465e-32
6.12117e-33
2.08033e-34
4.23734e-36
6.96055e-38
4.76624e-39
2.487e-39
1.10132e-39
4.40143e-40
1.69754e-40
6.63232e-41
2.72139e-41
1.21814e-41
6.10638e-42
3.50745e-42
2.34603e-42
1.85999e-42
1.76271e-42
2.01894e-42
2.7874e-42
4.51128e-42
8.18172e-42
1.58957e-41
3.21981e-41
6.7135e-41
1.4717e-40
3.58471e-40
9.78695e-40
2.31916e-39
2.80145e-39
1.79802e-39
7.30935e-40
2.11747e-40
4.71292e-41
8.48081e-42
1.27934e-42
1.66122e-43
1.89284e-44
1.91897e-45
1.74789e-46
1.44051e-47
1.07984e-48
7.39202e-50
4.63514e-51
2.66908e-52
1.41486e-53
6.91978e-55
3.12861e-56
1.31001e-57
5.08684e-59
1.83147e-60
6.09018e-62
1.8482e-63
5.0454e-65
1.27718e-66
2.95447e-68
6.10481e-70
1.08006e-71
1.51989e-73
1.49642e-75
8.08616e-78
1.33433e-80
5.52943e-79
3.18866e-76
5.65268e-74
5.51061e-72
3.75556e-70
2.03105e-68
9.37755e-67
3.85694e-65
1.44778e-63
5.05106e-62
1.59592e-60
4.62426e-59
1.24283e-57
3.10863e-56
7.23328e-55
1.56259e-53
3.12577e-52
5.77481e-51
9.8306e-50
1.5379e-48
2.20518e-47
2.88916e-46
3.44495e-45
3.7178e-44
3.6038e-43
3.10428e-42
2.34108e-41
1.51489e-40
8.18226e-40
3.5491e-39
1.16859e-38
2.67526e-38
3.6745e-38
2.3916e-38
1.16784e-38
5.51901e-39
2.5436e-39
1.11072e-39
4.66895e-40
1.90833e-40
7.77376e-41
3.27243e-41
1.49157e-41
7.72732e-42
4.74391e-42
3.59045e-42
3.43469e-42
4.24486e-42
6.93048e-42
1.53447e-41
4.52754e-41
1.70737e-40
7.65865e-40
3.64622e-39
1.72219e-38
7.35341e-38
2.69998e-37
2.70901e-36
2.62102e-34
2.37009e-32
1.2144e-30
6.42894e-30
1.63262e-29
2.21064e-29
2.92626e-29
1.90504e-29
9.22848e-30
3.52557e-30
1.25042e-31
2.70127e-33
4.65932e-35
2.94447e-36
1.5096e-36
6.74512e-37
2.70247e-37
1.03831e-37
4.01122e-38
1.61034e-38
6.96878e-39
3.33952e-39
1.81348e-39
1.135e-39
8.32522e-40
7.2079e-40
7.4234e-40
9.06879e-40
1.28458e-39
2.02504e-39
3.39507e-39
5.87308e-39
1.03046e-38
1.85288e-38
3.59141e-38
7.70671e-38
1.48357e-37
1.4783e-37
8.18706e-38
2.98272e-38
7.96838e-39
1.67079e-39
2.87852e-40
4.21022e-41
5.35387e-42
6.02195e-43
6.06508e-44
5.51697e-45
4.56024e-46
3.44104e-47
2.37869e-48
1.51057e-49
8.83317e-51
4.76694e-52
2.37942e-53
1.10073e-54
4.72817e-56
1.88856e-57
7.01461e-59
2.41405e-60
7.61016e-62
2.1572e-63
5.67437e-65
1.3668e-66
2.94795e-68
5.45559e-70
8.04694e-72
8.32406e-74
4.74161e-76
8.28785e-79
3.06967e-77
1.66877e-74
2.80198e-72
2.59599e-70
1.68602e-68
8.71277e-67
3.85547e-65
1.52521e-63
5.52321e-62
1.86349e-60
5.66359e-59
1.58477e-57
4.12767e-56
1.0038e-54
2.27787e-53
4.81334e-52
9.44494e-51
1.71657e-49
2.88246e-48
4.46004e-47
6.3437e-46
8.27151e-45
9.85387e-44
1.06771e-42
1.04556e-41
9.16625e-41
7.10043e-40
4.77275e-39
2.71602e-38
1.2645e-37
4.58348e-37
1.19804e-36
1.9814e-36
1.65777e-36
1.03041e-36
6.17918e-37
3.54336e-37
1.90086e-37
9.69186e-38
4.76847e-38
2.3321e-38
1.18083e-38
6.47285e-39
3.98662e-39
2.85613e-39
2.46059e-39
2.60603e-39
3.48235e-39
6.02301e-39
1.3802e-38
4.11259e-38
1.52698e-37
6.57562e-37
2.95605e-36
1.30901e-35
5.19689e-35
1.773e-34
1.70774e-33
1.54456e-31
1.29669e-29
6.21287e-28
2.93342e-27
6.82082e-27
9.00479e-27
1.19008e-26
7.56405e-27
3.86703e-27
1.60202e-27
6.03791e-29
1.39725e-30
2.55161e-32
1.50124e-33
7.56453e-34
3.43222e-34
1.38697e-34
5.3382e-35
2.05047e-35
8.09563e-36
3.4013e-36
1.5628e-36
8.04e-37
4.71422e-37
3.20154e-37
2.5354e-37
2.35254e-37
2.54704e-37
3.15579e-37
4.31176e-37
6.21724e-37
9.15338e-37
1.34706e-36
1.98427e-36
3.0584e-36
5.12142e-36
7.91832e-36
6.53311e-36
3.14314e-36
1.03295e-36
2.55948e-37
5.08072e-38
8.41696e-39
1.19815e-39
1.4969e-40
1.66656e-41
1.67131e-42
1.52116e-43
1.26309e-44
9.60641e-46
6.71288e-47
4.32089e-48
2.56747e-49
1.41128e-50
7.19198e-52
3.40516e-53
1.50086e-54
6.16766e-56
2.36355e-57
8.41858e-59
2.75688e-60
8.12745e-62
2.22333e-63
5.5808e-65
1.25725e-66
2.43493e-68
3.76539e-70
4.09281e-72
2.45773e-74
4.55097e-77
1.50667e-75
7.7214e-73
1.22815e-70
1.08165e-68
6.69587e-67
3.30649e-65
1.40223e-63
5.33568e-62
1.86547e-60
6.05314e-59
1.76975e-57