/*--------------------------------*- C++ -*----------------------------------*\
| =========                 |                                                 |
| \\      /  F ield         | OpenFOAM: The Open Source CFD Toolbox           |
|  \\    /   O peration     | Version:  2206                                  |
|   \\  /    A nd           | Website:  www.openfoam.com                      |
|    \\/     M anipulation  |                                                 |
\*---------------------------------------------------------------------------*/
FoamFile
{
    version     2.0;
    format      ascii;
    arch        "LSB;label=64;scalar=64";
    class       volScalarField;
    location    "2.6/water";
    object      alpha.gas;
}
// * * * * * * * * * * * * * * * * * * * * * * * * * * * * * * * * * * * * * //

dimensions      [0 0 0 0 0 0 0];

internalField   nonuniform List<scalar> 
23300
(
1e-15
1e-15
1e-15
1e-15
1e-15
1e-15
1e-15
1e-15
1e-15
1e-15
1e-15
1e-15
1e-15
1e-15
1e-15
1e-15
1e-15
1e-15
1e-15
1e-15
1e-15
1e-15
1e-15
1e-15
1e-15
1e-15
1e-15
1e-15
1e-15
1e-15
1e-15
1e-15
1e-15
1e-15
1e-15
1e-15
1e-15
1e-15
1e-15
1e-15
1e-15
1e-15
1e-15
1e-15
1e-15
1e-15
1e-15
1e-15
1e-15
1e-15
1e-15
1e-15
1e-15
1e-15
1e-15
1e-15
1e-15
1e-15
1e-15
1e-15
1e-15
1e-15
1e-15
1e-15
1e-15
1e-15
1e-15
1e-15
1e-15
1e-15
1e-15
1e-15
1e-15
1e-15
1e-15
1e-15
1e-15
1e-15
1e-15
1e-15
1e-15
1e-15
1e-15
1e-15
1e-15
1e-15
1e-15
1e-15
1e-15
1e-15
1e-15
1e-15
1e-15
1e-15
1e-15
1e-15
1e-15
1e-15
1e-15
1e-15
1e-15
1e-15
1e-15
1e-15
1e-15
1e-15
1e-15
1e-15
1e-15
1e-15
1e-15
1e-15
1e-15
1e-15
1e-15
1e-15
1e-15
1e-15
1e-15
1e-15
1e-15
1e-15
1e-15
1e-15
1e-15
1e-15
1e-15
1e-15
1e-15
1e-15
1e-15
1e-15
1e-15
1e-15
1e-15
1e-15
1e-15
1e-15
1e-15
1e-15
1e-15
1e-15
1e-15
1e-15
1e-15
1e-15
1e-15
1e-15
1e-15
1e-15
1e-15
1e-15
1e-15
1e-15
1e-15
1e-15
1e-15
1e-15
1e-15
1e-15
1e-15
1e-15
1e-15
1e-15
1e-15
1e-15
1e-15
1e-15
1e-15
1e-15
1e-15
1e-15
1e-15
1e-15
1e-15
1e-15
1e-15
1e-15
1e-15
1e-15
1e-15
1e-15
1e-15
1e-15
1e-15
1e-15
1e-15
1e-15
1e-15
1e-15
1e-15
1e-15
1e-15
1e-15
1e-15
1e-15
1e-15
1e-15
1e-15
1e-15
1e-15
1e-15
1e-15
1e-15
1e-15
1e-15
1e-15
1e-15
1e-15
1e-15
1e-15
1e-15
1e-15
1e-15
1e-15
1e-15
1e-15
1e-15
1e-15
1e-15
1e-15
1e-15
1e-15
1e-15
1e-15
1e-15
1e-15
1e-15
1e-15
1e-15
1e-15
1e-15
1e-15
1e-15
1e-15
1e-15
1e-15
1e-15
1e-15
1e-15
1e-15
1e-15
1e-15
1e-15
1e-15
1e-15
1e-15
1e-15
1e-15
1e-15
1e-15
1e-15
1e-15
1e-15
1e-15
1e-15
1e-15
1e-15
1e-15
1e-15
1e-15
1e-15
1e-15
1e-15
1e-15
1e-15
1e-15
1e-15
1e-15
1e-15
1e-15
1e-15
1e-15
1e-15
1e-15
1e-15
1e-15
1e-15
1e-15
1e-15
1e-15
1e-15
1e-15
1e-15
1e-15
1e-15
1e-15
1e-15
1e-15
1e-15
1e-15
1e-15
1e-15
1e-15
1e-15
1e-15
1e-15
1e-15
1e-15
1e-15
1e-15
1e-15
1e-15
1e-15
1e-15
1e-15
1e-15
1e-15
1e-15
1e-15
1e-15
1e-15
1e-15
1e-15
1e-15
1e-15
1e-15
1e-15
1e-15
1e-15
1e-15
1e-15
1e-15
1e-15
1e-15
1e-15
1e-15
1e-15
1e-15
1e-15
1e-15
1e-15
1e-15
1e-15
1e-15
1e-15
1e-15
1e-15
1e-15
1e-15
1e-15
1e-15
1e-15
1e-15
1e-15
1e-15
1e-15
1e-15
1e-15
1e-15
1e-15
1e-15
1e-15
1e-15
1e-15
1e-15
1e-15
1e-15
1e-15
1e-15
1e-15
1e-15
1e-15
1e-15
1e-15
1e-15
1e-15
1e-15
1e-15
1e-15
1e-15
1e-15
1e-15
1e-15
1e-15
1e-15
1e-15
1e-15
1e-15
1e-15
1e-15
1e-15
1e-15
1e-15
1e-15
1e-15
1e-15
1e-15
1e-15
1e-15
1e-15
1e-15
1e-15
1e-15
1e-15
1e-15
1e-15
1e-15
1e-15
1e-15
1e-15
1e-15
1e-15
1e-15
1e-15
1e-15
1e-15
1e-15
1e-15
1e-15
1e-15
1e-15
1e-15
1e-15
1e-15
1e-15
1e-15
1e-15
1e-15
1e-15
1e-15
1e-15
1e-15
1e-15
1e-15
1e-15
1e-15
1e-15
1e-15
1e-15
1e-15
1e-15
1e-15
1e-15
1e-15
1e-15
1e-15
1e-15
1e-15
1e-15
1e-15
1e-15
1e-15
1e-15
1e-15
1e-15
1e-15
1e-15
1e-15
1e-15
1e-15
1e-15
1e-15
1e-15
1e-15
1e-15
1e-15
1e-15
1e-15
1e-15
1e-15
1e-15
1e-15
1e-15
1e-15
1e-15
1e-15
1e-15
1e-15
1e-15
1e-15
1e-15
1e-15
1e-15
1e-15
1e-15
1e-15
1e-15
1e-15
1e-15
1e-15
1e-15
1e-15
1e-15
1e-15
1e-15
1e-15
1e-15
1e-15
1e-15
1e-15
1e-15
1e-15
1e-15
1e-15
1e-15
1e-15
1e-15
1e-15
1e-15
1e-15
1e-15
1e-15
1e-15
1e-15
1e-15
1e-15
1e-15
1e-15
1e-15
1e-15
1e-15
1e-15
1e-15
1e-15
1e-15
1e-15
1e-15
1e-15
1e-15
1e-15
1e-15
1e-15
1e-15
1e-15
1e-15
1e-15
1e-15
1e-15
1e-15
1e-15
1e-15
1e-15
1e-15
1e-15
1e-15
1e-15
1e-15
1e-15
1e-15
1e-15
1e-15
1e-15
1e-15
1e-15
1e-15
1e-15
1e-15
1e-15
1e-15
1e-15
1e-15
1e-15
1e-15
1e-15
1e-15
1e-15
1e-15
1e-15
1e-15
1.01348649828e-15
1e-15
1e-15
1e-15
1e-15
1e-15
1e-15
1e-15
1e-15
1e-15
1e-15
1e-15
1e-15
1e-15
1e-15
1e-15
1e-15
1e-15
1e-15
1e-15
1e-15
1e-15
1e-15
1e-15
1e-15
1e-15
1e-15
1e-15
1e-15
1e-15
1e-15
1e-15
1e-15
1e-15
1e-15
1e-15
1e-15
1e-15
1e-15
1e-15
1e-15
1e-15
1e-15
1e-15
1e-15
1e-15
1e-15
1e-15
1e-15
1e-15
1e-15
1e-15
1e-15
1e-15
1e-15
1e-15
1e-15
1e-15
1e-15
1e-15
1e-15
1e-15
1e-15
1e-15
1e-15
1e-15
1e-15
1e-15
1e-15
1e-15
1e-15
1e-15
1e-15
1e-15
1e-15
1e-15
1e-15
1e-15
1e-15
1e-15
1e-15
1e-15
1e-15
1e-15
1e-15
1e-15
1e-15
1e-15
1e-15
1e-15
1e-15
1e-15
1e-15
1e-15
1e-15
1e-15
1e-15
1e-15
1e-15
1e-15
1e-15
1e-15
1e-15
1e-15
1e-15
1e-15
1e-15
1e-15
1e-15
1e-15
1e-15
1e-15
1e-15
1e-15
1e-15
1e-15
1e-15
1e-15
1e-15
1e-15
1e-15
1e-15
1e-15
1e-15
1e-15
1e-15
1e-15
1e-15
1e-15
1e-15
1e-15
1e-15
1e-15
1.00256550819e-15
1.0232064566e-15
1.02435277692e-15
1e-15
1e-15
1e-15
1e-15
1.00884614388e-15
1e-15
1e-15
1e-15
1e-15
1e-15
1e-15
1e-15
1e-15
1e-15
1e-15
1e-15
1e-15
1e-15
1e-15
1e-15
1e-15
1e-15
1e-15
1e-15
1e-15
1e-15
1e-15
1e-15
1e-15
1e-15
1e-15
1e-15
1e-15
1e-15
1e-15
1e-15
1e-15
1e-15
1e-15
1e-15
1e-15
1e-15
1e-15
1e-15
1e-15
1e-15
1e-15
1e-15
1e-15
1e-15
1e-15
1e-15
1e-15
1e-15
1e-15
1e-15
1e-15
1e-15
1e-15
1e-15
1e-15
1e-15
1e-15
1e-15
1e-15
1e-15
1e-15
1e-15
1e-15
1e-15
1e-15
1e-15
1e-15
1e-15
1e-15
1e-15
1e-15
1e-15
1e-15
1e-15
1e-15
1e-15
1e-15
1e-15
1e-15
1e-15
1e-15
1e-15
1e-15
1e-15
1e-15
1e-15
1e-15
1e-15
1e-15
1e-15
1e-15
1e-15
1e-15
1e-15
1e-15
1e-15
1e-15
1e-15
1e-15
1e-15
1e-15
1e-15
1e-15
1e-15
1e-15
1e-15
1e-15
1.00003075261e-15
1.00008521515e-15
1.00054915959e-15
1.0007074595e-15
1.00110932937e-15
1.00108502405e-15
1.00132603701e-15
1.00119507614e-15
1.00128698605e-15
1.00097671556e-15
1.00094186462e-15
1.00055636013e-15
1.0004451305e-15
1.00006473857e-15
1.00005185987e-15
1e-15
1e-15
1e-15
1e-15
1e-15
1e-15
1e-15
1e-15
1e-15
1.02320524986e-15
1.02471557933e-15
1.0232064566e-15
1e-15
1e-15
1e-15
1e-15
1.01342796517e-15
1e-15
1e-15
1e-15
1e-15
1e-15
1e-15
1e-15
1e-15
1e-15
1e-15
1e-15
1e-15
1e-15
1e-15
1e-15
1e-15
1e-15
1e-15
1e-15
1e-15
1e-15
1e-15
1e-15
1e-15
1e-15
1e-15
1e-15
1e-15
1e-15
1e-15
1e-15
1e-15
1.00001572483e-15
1.00005052279e-15
1.00009631234e-15
1.00013913656e-15
1.00035470734e-15
1.00147843663e-15
1.00139559055e-15
1.00148089547e-15
1.00139559055e-15
1.0014830618e-15
1.00139559055e-15
1.00148424897e-15
1.00139559055e-15
1.00148396977e-15
1.00139559055e-15
1.00147429616e-15
1.00139559055e-15
1.00145594849e-15
1.00139559055e-15
1.001441123e-15
1.00093747161e-15
1.00042700439e-15
1.00041788109e-15
1.00039902133e-15
1.00037701086e-15
1.00035218084e-15
1.00031989544e-15
1.00028471712e-15
1.00025189037e-15
1.0002275139e-15
1.00018608284e-15
1.00014951875e-15
1.00011227199e-15
1.0000756983e-15
1.00002950403e-15
1e-15
1e-15
1e-15
1e-15
1e-15
1e-15
1e-15
1e-15
1e-15
1e-15
1e-15
1e-15
1e-15
1e-15
1e-15
1e-15
1e-15
1e-15
1e-15
1e-15
1e-15
1e-15
1e-15
1e-15
1e-15
1e-15
1e-15
1e-15
1e-15
1e-15
1e-15
1.00000823575e-15
1.00011183151e-15
1.0001921584e-15
1.00025438942e-15
1.00032027855e-15
1.00037655076e-15
1.00042180134e-15
1.00046048718e-15
1.00045140657e-15
1.01023247009e-15
1.00997692572e-15
1.01029973531e-15
1.00997692572e-15
1.01034686937e-15
1.00997692572e-15
1.01037593153e-15
1.00997692572e-15
1.01037824941e-15
1.00997692572e-15
1.01037174475e-15
1.00997692572e-15
1.01035475303e-15
1.00997692572e-15
1.01032578118e-15
1.00997692572e-15
1.01028877338e-15
1.00997692572e-15
1.00848653903e-15
1.00052481722e-15
1.00010303495e-15
1.0000925346e-15
1.00009343134e-15
1.00012730706e-15
1.00026912212e-15
1.02443556775e-15
1.0232064566e-15
1.02460416026e-15
1.00158096738e-15
1e-15
1e-15
1e-15
1.00884614388e-15
1e-15
1e-15
1e-15
1e-15
1e-15
1e-15
1e-15
1e-15
1e-15
1e-15
1e-15
1e-15
1e-15
1e-15
1e-15
1e-15
1e-15
1e-15
1e-15
1e-15
1e-15
1e-15
1e-15
1e-15
1e-15
1e-15
1e-15
1e-15
1e-15
1e-15
1.00000480783e-15
1.00004896165e-15
1.00009609862e-15
1.00015364995e-15
1.00019704573e-15
1.00032120067e-15
1.00146165444e-15
1.00139559055e-15
1.00148025667e-15
1.00139559055e-15
1.00148465765e-15
1.00139559055e-15
1.00148230364e-15
1.00139559055e-15
1.0014783157e-15
1.00139559055e-15
1.00148513722e-15
1.00139559055e-15
1.00145443893e-15
1.00139559055e-15
1.00144246051e-15
1.00139559055e-15
1.00143061789e-15
1.00083570662e-15
1.00077953167e-15
1.00072933012e-15
1.0006600061e-15
1.00059622331e-15
1.00053885657e-15
1.00048367837e-15
1.00035411725e-15
1.00022494064e-15
1.00016176733e-15
1.00011721237e-15
1.00007189266e-15
1.00002795793e-15
1e-15
1e-15
1e-15
1e-15
1e-15
1e-15
1e-15
1e-15
1e-15
1e-15
1e-15
1e-15
1e-15
1e-15
1e-15
1e-15
1e-15
1e-15
1e-15
1e-15
1e-15
1e-15
1e-15
1e-15
1e-15
1e-15
1e-15
1e-15
1e-15
1e-15
1e-15
1e-15
1.00007063334e-15
1.00018049074e-15
1.00028887891e-15
1.00046811473e-15
1.00064767363e-15
1.00079059834e-15
1.00090549285e-15
1.00099469513e-15
1.00651949858e-15
1.00997692572e-15
1.01037540302e-15
1.00997692572e-15
1.01041531703e-15
1.00997692572e-15
1.0104418182e-15
1.00997692572e-15
1.010455544e-15
1.00997692572e-15
1.01045984436e-15
1.00997692572e-15
1.01045273302e-15
1.00997692572e-15
1.01043751013e-15
1.00997692572e-15
1.01041392084e-15
1.00997692572e-15
1.01038876766e-15
1.00997692572e-15
1.01023555509e-15
1.000515505e-15
1.0002561991e-15
1.00027011571e-15
1.0003231163e-15
1.00061517702e-15
1.0232064566e-15
1.02471109746e-15
1.0232064566e-15
1.00366353207e-15
1.00035531184e-15
1e-15
1e-15
1.01281630761e-15
1e-15
1e-15
1e-15
1e-15
1e-15
1e-15
1e-15
1e-15
1e-15
1e-15
1e-15
1e-15
1e-15
1e-15
1e-15
1e-15
1e-15
1e-15
1e-15
1e-15
1e-15
1e-15
1e-15
1e-15
1e-15
1e-15
1e-15
1.00000671848e-15
1.00001819717e-15
1.00004799433e-15
1.00007391906e-15
1.00010783246e-15
1.00015386151e-15
1.00020125613e-15
1.00028181469e-15
1.00075745647e-15
1.00139559055e-15
1.00146294919e-15
1.00139559055e-15
1.00146685689e-15
1.00139559055e-15
1.00146805966e-15
1.00139559055e-15
1.00145948876e-15
1.00139559055e-15
1.00146145471e-15
1.00139559055e-15
1.00145054791e-15
1.00139559055e-15
1.00143477266e-15
1.00139559055e-15
1.00142386946e-15
1.00139559055e-15
1.00140598579e-15
1.00098814179e-15
1.00091758421e-15
1.00083789643e-15
1.00074130783e-15
1.00058571943e-15
1.0004321381e-15
1.000266432e-15
1.00011652808e-15
1.00005022401e-15
1.00001145365e-15
1e-15
1e-15
1e-15
1e-15
1e-15
1e-15
1e-15
1e-15
1e-15
1e-15
1e-15
1e-15
1e-15
1e-15
1e-15
1e-15
1e-15
1e-15
1e-15
1e-15
1e-15
1e-15
1e-15
1e-15
1e-15
1e-15
1e-15
1e-15
1e-15
1e-15
1e-15
1e-15
1e-15
1e-15
1.00006545618e-15
1.00016686386e-15
1.00032791165e-15
1.00064757446e-15
1.00093576515e-15
1.00116380779e-15
1.00135302336e-15
1.00157525784e-15
1.00997692572e-15
1.01033146058e-15
1.00997692572e-15
1.01037505547e-15
1.00997692572e-15
1.01040623548e-15
1.00997692572e-15
1.01042684422e-15
1.00997692572e-15
1.01043934603e-15
1.00997692572e-15
1.01043875606e-15
1.00997692572e-15
1.01042577473e-15
1.00997692572e-15
1.01041181082e-15
1.00997692572e-15
1.01038815901e-15
1.00997692572e-15
1.01035864407e-15
1.00997692572e-15
1.00820066344e-15
1.00055000773e-15
1.00040654554e-15
1.00048605122e-15
1.00101912895e-15
1.02446757946e-15
1.0232064566e-15
1.02453379989e-15
1.00568282546e-15
1.00034665345e-15
1e-15
1e-15
1.00884614388e-15
1e-15
1e-15
1e-15
1e-15
1e-15
1e-15
1e-15
1e-15
1e-15
1e-15
1e-15
1e-15
1e-15
1e-15
1e-15
1e-15
1e-15
1e-15
1e-15
1e-15
1e-15
1e-15
1e-15
1e-15
1e-15
1.00000030947e-15
1.00001090218e-15
1.00002911543e-15
1.0000600848e-15
1.00008955782e-15
1.00011462486e-15
1.00014674554e-15
1.00018177409e-15
1.00026804953e-15
1.00048238736e-15
1.00139559055e-15
1.00144386906e-15
1.00139559055e-15
1.00144722261e-15
1.00139559055e-15
1.00144884541e-15
1.00139559055e-15
1.00144812378e-15
1.00139559055e-15
1.00144003357e-15
1.00139559055e-15
1.00144912588e-15
1.00139559055e-15
1.00142174033e-15
1.00139559055e-15
1.00141304276e-15
1.00139559055e-15
1.00140863157e-15
1.00139559055e-15
1.00122274362e-15
1.00106208834e-15
1.0008884107e-15
1.00070427214e-15
1.0005095041e-15
1.0002793942e-15
1.00008098231e-15
1.0000047448e-15
1e-15
1e-15
1e-15
1e-15
1e-15
1e-15
1e-15
1e-15
1e-15
1e-15
1e-15
1e-15
1e-15
1e-15
1e-15
1e-15
1e-15
1e-15
1e-15
1e-15
1e-15
1e-15
1e-15
1e-15
1e-15
1e-15
1e-15
1e-15
1e-15
1e-15
1e-15
1e-15
1e-15
1e-15
1e-15
1e-15
1.00005873776e-15
1.00015678742e-15
1.00042634111e-15
1.00088177923e-15
1.00126103028e-15
1.00157075167e-15
1.00183901611e-15
1.00212443143e-15
1.01027375977e-15
1.00997692572e-15
1.0103313638e-15
1.00997692572e-15
1.01036932999e-15
1.00997692572e-15
1.0103948098e-15
1.00997692572e-15
1.01040931617e-15
1.00997692572e-15
1.01041631197e-15
1.00997692572e-15
1.01041172633e-15
1.00997692572e-15
1.01039914357e-15
1.00997692572e-15
1.01037938557e-15
1.00997692572e-15
1.01035793696e-15
1.00997692572e-15
1.01033203806e-15
1.00997692572e-15
1.0010539737e-15
1.00059530949e-15
1.00074345378e-15
1.00155131636e-15
1.0232064566e-15
1.02465377827e-15
1.0232064566e-15
1.00755739641e-15
1.00010360028e-15
1e-15
1e-15
1.01214648797e-15
1e-15
1e-15
1e-15
1e-15
1e-15
1e-15
1e-15
1e-15
1e-15
1e-15
1e-15
1e-15
1e-15
1e-15
1e-15
1e-15
1e-15
1e-15
1e-15
1e-15
1e-15
1e-15
1e-15
1e-15
1e-15
1.00001889604e-15
1.00002571155e-15
1.00005745533e-15
1.00008978462e-15
1.000113434e-15
1.00013565053e-15
1.00016633801e-15
1.0002304668e-15
1.00037905163e-15
1.00076432619e-15
1.00143124044e-15
1.00139559055e-15
1.00143368617e-15
1.00139559055e-15
1.00143504775e-15
1.00139559055e-15
1.0014350551e-15
1.00139559055e-15
1.0014313754e-15
1.00139559055e-15
1.00142750372e-15
1.00139559055e-15
1.00142174012e-15
1.00139559055e-15
1.0014093465e-15
1.00139559055e-15
1.00140321481e-15
1.00139559055e-15
1.00139783376e-15
1.0012412875e-15
1.00102986929e-15
1.00081764794e-15
1.00056813864e-15
1.00029199876e-15
1.00005365404e-15
1e-15
1e-15
1e-15
1e-15
1e-15
1e-15
1e-15
1e-15
1e-15
1e-15
1e-15
1e-15
1e-15
1e-15
1e-15
1e-15
1e-15
1e-15
1e-15
1e-15
1e-15
1e-15
1e-15
1e-15
1e-15
1e-15
1e-15
1e-15
1e-15
1e-15
1e-15
1e-15
1e-15
1e-15
1e-15
1e-15
1e-15
1e-15
1.00007352194e-15
1.00015889528e-15
1.00057116266e-15
1.00114439618e-15
1.00161364995e-15
1.00201015329e-15
1.00233885012e-15
1.00804344143e-15
1.00997692572e-15
1.01028668332e-15
1.00997692572e-15
1.01032781893e-15
1.00997692572e-15
1.01035720778e-15
1.00997692572e-15
1.01037781457e-15
1.00997692572e-15
1.01039203533e-15
1.00997692572e-15
1.01039380218e-15
1.00997692572e-15
1.01038403512e-15
1.00997692572e-15
1.01037237096e-15
1.00997692572e-15
1.01035290171e-15
1.00997692572e-15
1.01032968414e-15
1.00997692572e-15
1.01029305521e-15
1.00804554214e-15
1.0010411593e-15
1.00116392526e-15
1.00217041849e-15
1.02447937144e-15
1.0232064566e-15
1.02445912866e-15
1.00919680164e-15
1e-15
1e-15
1e-15
1.00884614388e-15
1e-15
1e-15
1e-15
1e-15
1e-15
1e-15
1e-15
1e-15
1e-15
1e-15
1e-15
1e-15
1e-15
1e-15
1e-15
1e-15
1e-15
1e-15
1e-15
1e-15
1e-15
1e-15
1e-15
1.00000713493e-15
1.00001695683e-15
1.00002981054e-15
1.00005699848e-15
1.00008787574e-15
1.00010698326e-15
1.00012886518e-15
1.00014838435e-15
1.00017788197e-15
1.00028685978e-15
1.00051705363e-15
1.0010377405e-15
1.00139559055e-15
1.0014199176e-15
1.00139559055e-15
1.00142096954e-15
1.00139559055e-15
1.00142110569e-15
1.00139559055e-15
1.00142001425e-15
1.00139559055e-15
1.00141340787e-15
1.00139559055e-15
1.00142103546e-15
1.00139559055e-15
1.00140274782e-15
1.00139559055e-15
1.0013982168e-15
1.00139559055e-15
1.00139726135e-15
1.0013694135e-15
1.00116523259e-15
1.00089795953e-15
1.00060394132e-15
1.00026773126e-15
1.00002761611e-15
1e-15
1e-15
1e-15
1e-15
1e-15
1e-15
1e-15
1e-15
1e-15
1e-15
1e-15
1e-15
1e-15
1e-15
1e-15
1e-15
1e-15
1e-15
1e-15
1e-15
1e-15
1e-15
1e-15
1e-15
1e-15
1e-15
1e-15
1e-15
1e-15
1e-15
1e-15
1e-15
1e-15
1e-15
1e-15
1e-15
1e-15
1e-15
1e-15
1.00006370269e-15
1.0001709328e-15
1.00074716959e-15
1.00139372423e-15
1.00196223607e-15
1.00246012328e-15
1.00293911405e-15
1.00997692572e-15
1.0102393477e-15
1.00997692572e-15
1.01028437596e-15
1.00997692572e-15
1.01031998095e-15
1.00997692572e-15
1.01034433111e-15
1.00997692572e-15
1.01035905374e-15
1.00997692572e-15
1.01036899779e-15
1.00997692572e-15
1.0103664047e-15
1.00997692572e-15
1.01035623524e-15
1.00997692572e-15
1.0103399988e-15
1.00997692572e-15
1.01032240878e-15
1.00997692572e-15
1.0103000278e-15
1.00997692572e-15
1.0102442192e-15
1.001868155e-15
1.00169442392e-15
1.0028091737e-15
1.0232064566e-15
1.02458939402e-15
1.0232064566e-15
1.01060090353e-15
1e-15
1e-15
1e-15
1.01141891541e-15
1e-15
1e-15
1e-15
1e-15
1e-15
1e-15
1e-15
1e-15
1e-15
1e-15
1e-15
1e-15
1e-15
1e-15
1e-15
1e-15
1e-15
1e-15
1e-15
1e-15
1e-15
1e-15
1e-15
1.00002075656e-15
1.00002684715e-15
1.0000528962e-15
1.00008118655e-15
1.00010287445e-15
1.00011866701e-15
1.00013826537e-15
1.00015447992e-15
1.00017913484e-15
1.0003196677e-15
1.00069602282e-15
1.00128667213e-15
1.0014108826e-15
1.00139559055e-15
1.001411484e-15
1.00139559055e-15
1.00141162247e-15
1.00139559055e-15
1.00141114256e-15
1.00139559055e-15
1.00140972084e-15
1.00139559055e-15
1.00140670565e-15
1.00139559055e-15
1.00140440083e-15
1.00139559055e-15
1.00139758142e-15
1.00139154258e-15
1.0013491832e-15
1.0012827509e-15
1.00117547247e-15
1.00095589724e-15
1.00058770866e-15
1.00020432206e-15
1.00000802469e-15
1e-15
1e-15
1e-15
1e-15
1e-15
1e-15
1e-15
1e-15
1e-15
1e-15
1e-15
1e-15
1e-15
1e-15
1e-15
1e-15
1e-15
1e-15
1e-15
1e-15
1e-15
1e-15
1e-15
1e-15
1e-15
1e-15
1e-15
1e-15
1e-15
1e-15
1e-15
1e-15
1e-15
1e-15
1e-15
1e-15
1e-15
1e-15
1e-15
1e-15
1.00008378916e-15
1.0001981619e-15
1.00084930267e-15
1.00166606652e-15
1.00235287024e-15
1.00291810369e-15
1.00354075119e-15
1.01018369523e-15
1.00997692572e-15
1.01023928664e-15
1.00997692572e-15
1.01027711826e-15
1.00997692572e-15
1.010305498e-15
1.00997692572e-15
1.01032573752e-15
1.00997692572e-15
1.01034054206e-15
1.00997692572e-15
1.01034584937e-15
1.00997692572e-15
1.01034059874e-15
1.00997692572e-15
1.01032912305e-15
1.00997692572e-15
1.01031390688e-15
1.00997692572e-15
1.0102952553e-15
1.00997692572e-15
1.01026196344e-15
1.00997692572e-15
1.0027529717e-15
1.00225507446e-15
1.00348027386e-15
1.02447678401e-15
1.0232064566e-15
1.02438682152e-15
1.01175811905e-15
1e-15
1e-15
1e-15
1.00884614388e-15
1e-15
1e-15
1e-15
1e-15
1e-15
1e-15
1e-15
1e-15
1e-15
1e-15
1e-15
1e-15
1e-15
1e-15
1e-15
1e-15
1e-15
1e-15
1e-15
1e-15
1e-15
1.00000408736e-15
1.00001737935e-15
1.00003013377e-15
1.0000472723e-15
1.00007651946e-15
1.00009405288e-15
1.00011298366e-15
1.00012465391e-15
1.00014173366e-15
1.00015479811e-15
1.00017737319e-15
1.00036857262e-15
1.00090459298e-15
1.00138206327e-15
1.00139559055e-15
1.00140347121e-15
1.00139559055e-15
1.00140353679e-15
1.00139559055e-15
1.00140330536e-15
1.00139559055e-15
1.00140275793e-15
1.00139559055e-15
1.00139852989e-15
1.00139559055e-15
1.00140276306e-15
1.00139559055e-15
1.00131347377e-15
1.00127617724e-15
1.00120887895e-15
1.0011316259e-15
1.00102955801e-15
1.00086569207e-15
1.00052965558e-15
1.00012575501e-15
1e-15
1e-15
1e-15
1e-15
1e-15
1e-15
1e-15
1e-15
1e-15
1e-15
1e-15
1e-15
1e-15
1e-15
1e-15
1e-15
1e-15
1e-15
1e-15
1e-15
1e-15
1e-15
1e-15
1e-15
1e-15
1e-15
1e-15
1e-15
1e-15
1e-15
1e-15
1e-15
1e-15
1e-15
1e-15
1e-15
1e-15
1e-15
1e-15
1e-15
1e-15
1.00001223408e-15
1.00012685544e-15
1.00023425258e-15
1.00101052868e-15
1.00195940473e-15
1.00268830703e-15
1.00342955706e-15
1.00410686513e-15
1.00997692572e-15
1.01019299705e-15
1.00997692572e-15
1.01023383543e-15
1.00997692572e-15
1.01026704256e-15
1.00997692572e-15
1.01029093997e-15
1.00997692572e-15
1.01030500231e-15
1.00997692572e-15
1.01031809693e-15
1.00997692572e-15
1.01031774006e-15
1.00997692572e-15
1.01031032737e-15
1.00997692572e-15
1.01029687595e-15
1.00997692572e-15
1.01028254743e-15
1.00997692572e-15
1.01026416807e-15
1.00997692572e-15
1.01021891312e-15
1.00438243535e-15
1.00280912844e-15
1.00793721304e-15
1.0232064566e-15
1.02452468597e-15
1.0232064566e-15
1.01272620124e-15
1e-15
1e-15
1.00130050849e-15
1.01067287205e-15
1e-15
1e-15
1e-15
1e-15
1e-15
1e-15
1e-15
1e-15
1e-15
1e-15
1e-15
1e-15
1e-15
1e-15
1e-15
1e-15
1e-15
1e-15
1e-15
1e-15
1e-15
1.0000190115e-15
1.00002667129e-15
1.00004710675e-15
1.00007193927e-15
1.00009149414e-15
1.00010601961e-15
1.00012453073e-15
1.00013210952e-15
1.00014303953e-15
1.00015243456e-15
1.00017710184e-15
1.00045758806e-15
1.00098835146e-15
1.00135646766e-15
1.00139839906e-15
1.00139559055e-15
1.00139840096e-15
1.00139559055e-15
1.00139832842e-15
1.00139559055e-15
1.00139815628e-15
1.00139559055e-15
1.0013977551e-15
1.00139355103e-15
1.00139735258e-15
1.00139559055e-15
1.00131950401e-15
1.00111161679e-15
1.00102023193e-15
1.00094478528e-15
1.00085967538e-15
1.00070167955e-15
1.00039624146e-15
1.00006983842e-15
1e-15
1e-15
1e-15
1e-15
1e-15
1e-15
1e-15
1e-15
1e-15
1e-15
1e-15
1e-15
1e-15
1e-15
1e-15
1e-15
1e-15
1e-15
1e-15
1e-15
1e-15
1e-15
1e-15
1e-15
1e-15
1e-15
1e-15
1e-15
1e-15
1e-15
1e-15
1e-15
1e-15
1e-15
1e-15
1e-15
1e-15
1e-15
1e-15
1e-15
1e-15
1e-15
1.00003170432e-15
1.0001237219e-15
1.00037012554e-15
1.00128070017e-15
1.00227119743e-15
1.00309293973e-15
1.00394400553e-15
1.00755692025e-15
1.01014738094e-15
1.00997692572e-15
1.01018905522e-15
1.00997692572e-15
1.01022398058e-15
1.00997692572e-15
1.01025034172e-15
1.00997692572e-15
1.01027011729e-15
1.00997692572e-15
1.01028516756e-15
1.00997692572e-15
1.01029474877e-15
1.00997692572e-15
1.01029184099e-15
1.00997692572e-15
1.01028331366e-15
1.00997692572e-15
1.01027107441e-15
1.00997692572e-15
1.01025582831e-15
1.00997692572e-15
1.01022691569e-15
1.00997692572e-15
1.01011182603e-15
1.00357449879e-15
1.02320575329e-15
1.02445114913e-15
1.0232064566e-15
1.02432261923e-15
1.0135203484e-15
1e-15
1e-15
1.01388931521e-15
1.00884614388e-15
1e-15
1e-15
1e-15
1e-15
1e-15
1e-15
1e-15
1e-15
1e-15
1e-15
1e-15
1e-15
1e-15
1e-15
1e-15
1e-15
1e-15
1e-15
1e-15
1e-15
1.00000678407e-15
1.0000290712e-15
1.00004622945e-15
1.00007469828e-15
1.0000921783e-15
1.00010474293e-15
1.00011319133e-15
1.00012725689e-15
1.00013157267e-15
1.0001407313e-15
1.00014577728e-15
1.00017068726e-15
1.00047471789e-15
1.00095421121e-15
1.00124442245e-15
1.00131477163e-15
1.00130974321e-15
1.00131046264e-15
1.00130111045e-15
1.00129692091e-15
1.00128228671e-15
1.00127104542e-15
1.00124711429e-15
1.00122512484e-15
1.00120456444e-15
1.0012143545e-15
1.00123970303e-15
1.00114305779e-15
1.00090073008e-15
1.00074307817e-15
1.00066881206e-15
1.00050685658e-15
1.00022605527e-15
1.000017551e-15
1e-15
1e-15
1e-15
1e-15
1e-15
1e-15
1e-15
1e-15
1e-15
1e-15
1e-15
1e-15
1e-15
1e-15
1e-15
1e-15
1e-15
1e-15
1e-15
1e-15
1e-15
1e-15
1e-15
1e-15
1e-15
1e-15
1e-15
1e-15
1e-15
1e-15
1e-15
1e-15
1e-15
1e-15
1e-15
1e-15
1e-15
1e-15
1e-15
1e-15
1e-15
1e-15
1e-15
1.00003405619e-15
1.00012658556e-15
1.00054206015e-15
1.00159592875e-15
1.0026912004e-15
1.00361654144e-15
1.00455183022e-15
1.01008753501e-15
1.00997692572e-15
1.01014523275e-15
1.00997692572e-15
1.01018096259e-15
1.00997692572e-15
1.01021213986e-15
1.00997692572e-15
1.01023460017e-15
1.00997692572e-15
1.01024878191e-15
1.00997692572e-15
1.01026201856e-15
1.00997692572e-15
1.01026649233e-15
1.00997692572e-15
1.01026186448e-15
1.00997692572e-15
1.01025126096e-15
1.00997692572e-15
1.01024033686e-15
1.00997692572e-15
1.01022801976e-15
1.00997692572e-15
1.01018039068e-15
1.00997692572e-15
1.00441870609e-15
1.02419157274e-15
1.0232064566e-15
1.0244645165e-15
1.0232064566e-15
1.01418587804e-15
1e-15
1e-15
1.01298708452e-15
1.00996645487e-15
1e-15
1e-15
1e-15
1e-15
1e-15
1e-15
1e-15
1e-15
1e-15
1e-15
1e-15
1e-15
1e-15
1e-15
1e-15
1e-15
1e-15
1e-15
1e-15
1.000004788e-15
1.00002442988e-15
1.00004917935e-15
1.00007855333e-15
1.00010131335e-15
1.00011212228e-15
1.00011991011e-15
1.00012099963e-15
1.00012389403e-15
1.00012749272e-15
1.0001341695e-15
1.00013406849e-15
1.00015234945e-15
1.00042774652e-15
1.0008337042e-15
1.00102276143e-15
1.00106076638e-15
1.00105104427e-15
1.00104896054e-15
1.00103476603e-15
1.00102768597e-15
1.00100855997e-15
1.0009940393e-15
1.00096570007e-15
1.0009414312e-15
1.00092157091e-15
1.00092730404e-15
1.00096715035e-15
1.00098825602e-15
1.00067147087e-15
1.00039865081e-15
1.00024358907e-15
1.00006703833e-15
1e-15
1e-15
1e-15
1e-15
1e-15
1e-15
1e-15
1e-15
1e-15
1e-15
1e-15
1e-15
1e-15
1e-15
1e-15
1e-15
1e-15
1e-15
1e-15
1e-15
1e-15
1e-15
1e-15
1e-15
1e-15
1e-15
1e-15
1e-15
1e-15
1e-15
1e-15
1e-15
1e-15
1e-15
1e-15
1e-15
1e-15
1e-15
1e-15
1e-15
1e-15
1e-15
1e-15
1e-15
1e-15
1.00003119551e-15
1.00012634905e-15
1.00073245215e-15
1.00193932528e-15
1.00312119414e-15
1.00414471382e-15
1.00528299892e-15
1.00997692572e-15
1.01010502636e-15
1.00997692572e-15
1.01014036135e-15
1.00997692572e-15
1.01017020333e-15
1.00997692572e-15
1.01019351863e-15
1.00997692572e-15
1.01021332047e-15
1.00997692572e-15
1.01022646468e-15
1.00997692572e-15
1.01024102418e-15
1.00997692572e-15
1.01024151559e-15
1.00997692572e-15
1.01023570485e-15
1.00997692572e-15
1.01022640058e-15
1.00997692572e-15
1.01021453287e-15
1.00997692572e-15
1.01018774835e-15
1.00997692572e-15
1.01013399867e-15
1.00529168354e-15
1.0232064566e-15
1.02439991372e-15
1.0232064566e-15
1.02426796575e-15
1.01471490726e-15
1e-15
1e-15
1.01419211968e-15
1.00884614388e-15
1e-15
1e-15
1e-15
1e-15
1e-15
1e-15
1e-15
1e-15
1e-15
1e-15
1e-15
1e-15
1e-15
1e-15
1e-15
1e-15
1e-15
1e-15
1e-15
1.0000252482e-15
1.00005131363e-15
1.00008804295e-15
1.00011218433e-15
1.00012808168e-15
1.00013404627e-15
1.00013671527e-15
1.00013150654e-15
1.00012771049e-15
1.00012178145e-15
1.00012352252e-15
1.00011899112e-15
1.00012207126e-15
1.0002674537e-15
1.00061153865e-15
1.0007257599e-15
1.00073752217e-15
1.00072361496e-15
1.00071992409e-15
1.00070672467e-15
1.00070127283e-15
1.00068527976e-15
1.00067300225e-15
1.00064919596e-15
1.00062894452e-15
1.00061095539e-15
1.00061996062e-15
1.00067775199e-15
1.00070533803e-15
1.00038904193e-15
1.00009830803e-15
1e-15
1e-15
1e-15
1e-15
1e-15
1e-15
1e-15
1e-15
1e-15
1e-15
1e-15
1e-15
1e-15
1e-15
1e-15
1e-15
1e-15
1e-15
1e-15
1e-15
1e-15
1e-15
1e-15
1e-15
1e-15
1e-15
1e-15
1e-15
1e-15
1e-15
1e-15
1e-15
1e-15
1e-15
1e-15
1e-15
1e-15
1e-15
1e-15
1e-15
1e-15
1e-15
1e-15
1e-15
1e-15
1e-15
1e-15
1.00002253047e-15
1.00012275978e-15
1.00093217247e-15
1.00225863172e-15
1.00352085958e-15
1.00464502196e-15
1.00601239208e-15
1.01006328293e-15
1.00997692572e-15
1.01010185478e-15
1.00997692572e-15
1.01013193567e-15
1.00997692572e-15
1.01015708963e-15
1.00997692572e-15
1.01017828755e-15
1.00997692572e-15
1.01019235851e-15
1.00997692572e-15
1.01020724642e-15
1.00997692572e-15
1.01021320393e-15
1.00997692572e-15
1.01021135206e-15
1.00997692572e-15
1.010204686e-15
1.00997692572e-15
1.01019791546e-15
1.00997692572e-15
1.0101885145e-15
1.00997692572e-15
1.01013958512e-15
1.00997692572e-15
1.00612193727e-15
1.02417317598e-15
1.0232064566e-15
1.02441189364e-15
1.0232064566e-15
1.01513179009e-15
1e-15
1e-15
1.01298708452e-15
1.00936546572e-15
1e-15
1e-15
1e-15
1e-15
1e-15
1e-15
1e-15
1e-15
1e-15
1e-15
1e-15
1e-15
1e-15
1e-15
1e-15
1e-15
1e-15
1e-15
1.00000719316e-15
1.00005559362e-15
1.00010077323e-15
1.00013277506e-15
1.00014861964e-15
1.00015856034e-15
1.00015872048e-15
1.00015475468e-15
1.00014305734e-15
1.00013249328e-15
1.00011875954e-15
1.00011035623e-15
1.00010119018e-15
1.00009373931e-15
1.00011012313e-15
1.00024222536e-15
1.00027269206e-15
1.00026228665e-15
1.00024354355e-15
1.0002337843e-15
1.00021960531e-15
1.00021375577e-15
1.00021431657e-15
1.00022606457e-15
1.00022280738e-15
1.00022259215e-15
1.00021960362e-15
1.00025683915e-15
1.00029639308e-15
1.00024644081e-15
1.00009398306e-15
1.00000495246e-15
1e-15
1e-15
1e-15
1e-15
1e-15
1e-15
1e-15
1e-15
1e-15
1e-15
1e-15
1e-15
1e-15
1e-15
1e-15
1e-15
1e-15
1e-15
1e-15
1e-15
1e-15
1e-15
1e-15
1e-15
1e-15
1e-15
1e-15
1e-15
1e-15
1e-15
1e-15
1e-15
1e-15
1e-15
1e-15
1e-15
1e-15
1e-15
1e-15
1e-15
1e-15
1e-15
1e-15
1e-15
1e-15
1e-15
1e-15
1.0000072707e-15
1.00011384998e-15
1.00111435808e-15
1.00252343795e-15
1.00386598652e-15
1.00509222016e-15
1.00671731429e-15
1.00997692572e-15
1.01006402562e-15
1.00997692572e-15
1.01009382587e-15
1.00997692572e-15
1.01012041299e-15
1.00997692572e-15
1.01014163322e-15
1.00997692572e-15
1.01015741296e-15
1.00997692572e-15
1.01016975174e-15
1.00997692572e-15
1.01018592001e-15
1.00997692572e-15
1.01018971622e-15
1.00997692572e-15
1.01018684689e-15
1.00997692572e-15
1.01018162551e-15
1.00997692572e-15
1.01017300873e-15
1.00997692572e-15
1.01014921751e-15
1.00997692572e-15
1.01009365726e-15
1.00685333296e-15
1.0232064566e-15
1.02435349743e-15
1.0232064566e-15
1.02422421702e-15
1.01541680016e-15
1e-15
1e-15
1.01429149639e-15
1.00884495078e-15
1e-15
1e-15
1e-15
1e-15
1e-15
1e-15
1e-15
1e-15
1e-15
1e-15
1e-15
1e-15
1e-15
1e-15
1e-15
1e-15
1e-15
1e-15
1.00006095495e-15
1.0001246733e-15
1.00016512323e-15
1.00018894595e-15
1.00019117267e-15
1.00019500556e-15
1.00018614038e-15
1.00017397085e-15
1.00015479273e-15
1.0001373245e-15
1.00011593967e-15
1.00009858164e-15
1.00008162594e-15
1.0000654781e-15
1.0000448811e-15
1.00004369412e-15
1.00003454338e-15
1.00002774727e-15
1.00001775992e-15
1.00001422197e-15
1.00000617369e-15
1.00000418543e-15
1e-15
1.00000071413e-15
1e-15
1e-15
1e-15
1e-15
1e-15
1e-15
1e-15
1e-15
1e-15
1e-15
1e-15
1e-15
1e-15
1e-15
1e-15
1e-15
1e-15
1e-15
1e-15
1e-15
1e-15
1e-15
1e-15
1e-15
1e-15
1e-15
1e-15
1e-15
1e-15
1e-15
1e-15
1e-15
1e-15
1e-15
1e-15
1e-15
1e-15
1e-15
1e-15
1e-15
1e-15
1e-15
1e-15
1e-15
1e-15
1e-15
1e-15
1e-15
1e-15
1e-15
1e-15
1e-15
1e-15
1e-15
1e-15
1e-15
1.00009831309e-15
1.00125477719e-15
1.0027298021e-15
1.00415082847e-15
1.00549442188e-15
1.00737799303e-15
1.01002849349e-15
1.00997692572e-15
1.01005956361e-15
1.00997692572e-15
1.01008553164e-15
1.00997692572e-15
1.01010800253e-15
1.00997692572e-15
1.01012649429e-15
1.00997692572e-15
1.01013989616e-15
1.00997692572e-15
1.01015015724e-15
1.00997692572e-15
1.01016113395e-15
1.00997692572e-15
1.01016161559e-15