/*--------------------------------*- C++ -*----------------------------------*\
| =========                 |                                                 |
| \\      /  F ield         | OpenFOAM: The Open Source CFD Toolbox           |
|  \\    /   O peration     | Version:  2206                                  |
|   \\  /    A nd           | Website:  www.openfoam.com                      |
|    \\/     M anipulation  |                                                 |
\*---------------------------------------------------------------------------*/
FoamFile
{
    version     2.0;
    format      ascii;
    arch        "LSB;label=64;scalar=64";
    class       volScalarField;
    location    "2.6/water";
    object      k.gas;
}
// * * * * * * * * * * * * * * * * * * * * * * * * * * * * * * * * * * * * * //

dimensions      [0 2 -2 0 0 0 0];

internalField   nonuniform List<scalar> 
23300
(
0.00606655747876
0.0060980217715
0.00616194278841
0.00626016960183
0.00639471511262
0.00656710048418
0.00677782068992
0.00702598093124
0.00730918230003
0.00762365119369
0.0079645717698
0.00832649762067
0.0087037670178
0.00909083253378
0.00948251121871
0.00987413271566
0.0102616380082
0.010641615191
0.011011324559
0.0113686834219
0.0117122556441
0.0120412040094
0.0123552505413
0.0126545982556
0.012939865297
0.0132119840273
0.0134721226884
0.0137215808014
0.0139617198112
0.0141938761858
0.0144193187677
0.0146391920126
0.0148545053636
0.0150661057462
0.0152746922727
0.0154808081471
0.0156848688044
0.0158871618622
0.0160878782121
0.016287111935
0.0164848879619
0.0166811578431
0.0168758208266
0.0170687132658
0.0172596201919
0.0174482543025
0.017634289143
0.0178175540221
0.0179977789176
0.0181746330539
0.0183477559271
0.0185167561073
0.0186812236977
0.0188407227821
0.018994800019
0.019142977435
0.0192847604593
0.0194196326229
0.0195470640134
0.0196665083226
0.0197774122008
0.01987921483
0.0199713585229
0.0200532908873
0.0201244768942
0.0201844035476
0.0202325934125
0.0202686114117
0.0202920793807
0.0203026841141
0.0203001918828
0.0202844561875
0.0202554304484
0.0202131732866
0.0201578570382
0.0200897680352
0.0200093084298
0.019916989037
0.0198134223009
0.0196993060345
0.0195754068197
0.0194425355278
0.0193015242973
0.0191531991677
0.0189983559485
0.018837728271
0.0186719383024
0.018501380802
0.0183259290748
0.0181443747104
0.0179548896961
0.0177562465696
0.0175477100405
0.0173288713875
0.0170995476654
0.0168597210104
0.016609505653
0.0163491271901
0.0160789120246
0.0157992776171
0.0155107254989
0.0152138310048
0.0149092338276
0.0145976249727
0.0142797347305
0.0139563177734
0.0136281397823
0.0132959619892
0.0129605277032
0.012622547464
0.0122826864377
0.0119415507677
0.0115996757736
0.0112575124386
0.0109154139534
0.0105736177461
0.0102322220536
0.0098913272072
0.00955094815749
0.00921097075969
0.00887114742755
0.00853109098593
0.00819027008507
0.00784800756627
0.00750348831218
0.0071557829943
0.00680390073692
0.00644688648842
0.00608398737615
0.00571491706463
0.0053402533983
0.00496199876256
0.00458430355212
0.00421426113632
0.00386248446915
0.0035428791851
0.00327091398452
0.00306037166418
0.00292008003098
0.00285260076067
0.006087053159
0.00611958375334
0.00618559760785
0.006286637527
0.00642430344008
0.00659967855384
0.00681282349564
0.00706243828763
0.00734576824437
0.00765874903855
0.00799633904556
0.00835292600121
0.00872272796189
0.00910011524257
0.00947985049339
0.00985723791194
0.0102282191661
0.0105894163926
0.0109381564846
0.0112724638211
0.0115910465661
0.0118932545909
0.012179032446
0.0124488438163
0.0127035945927
0.0129445327344
0.0131731564376
0.0133911096628
0.0136000981763
0.0138018031921
0.0139978240942
0.0141896234471
0.0143785026628
0.0145655781563
0.01475178405
0.0149378700106
0.015124419524
0.0153118579881
0.0155004760777
0.0156904396295
0.0158818116108
0.016074559543
0.0162685735442
0.0164636704526
0.016659608371
0.0168560896155
0.0170527616544
0.0172490947103
0.0174445648943
0.0176386324061
0.0178307402576
0.0180203079632
0.0182067346238
0.018389395035
0.0185676435873
0.0187408120121
0.0189082141694
0.019069145625
0.0192228896154
0.0193687186482
0.0195059019
0.0196337089767
0.0197514189425
0.0198583262944
0.0199537517026
0.0200370500931
0.02010762295
0.0201649280991
0.0202084930177
0.0202379254219
0.0202529264271
0.0202533003811
0.0202389660173
0.0202099633173
0.0201664602223
0.020108753909
0.0200372704139
0.0199525577137
0.0198552758251
0.0197461795298
0.019626097276
0.0194959025629
0.0193564814191
0.0192086922417
0.0190533191014
0.0188910092541
0.0187221865137
0.0185469268716
0.0183648156793
0.0181751835822
0.0179769717984
0.0177692403251
0.0175512967559
0.0173226837802
0.0170831444306
0.016832588737
0.0165710705291
0.0162987713249
0.0160159906371
0.0157231375634
0.0154207237166
0.0151093541976
0.0147897181735
0.0144625770018
0.0141287519736
0.0137891100511
0.0134445496679
0.0130959851771
0.0127443319017
0.0123904905124
0.0120353324629
0.0116796852022
0.011324318548
0.0109699309318
0.0106171368296
0.0102664548654
0.00991829971522
0.00957298407326
0.00923072810435
0.00889160957665
0.00855555012483
0.00822230095812
0.00789142979742
0.00756231089795
0.00723412316694
0.00690586273181
0.00657638079701
0.00624446095935
0.00590895610165
0.00556900936535
0.00522438790327
0.00487595487252
0.00452628667669
0.00418038748996
0.00384634018679
0.00353557235776
0.00326235086922
0.0030424453115
0.00289158620674
0.00282385039659
0.00615236944228
0.00618731250393
0.00625791251115
0.00636524380402
0.00651029963536
0.00669349759838
0.00691423861134
0.00717062855448
0.00745943348889
0.00777625231894
0.00811584944733
0.00847254177799
0.00884057013923
0.00921439370945
0.00958890786714
0.00995957943271
0.0103225325993
0.0106745862696
0.0110132720705
0.0113368223665
0.011644149559
0.0119347987943
0.0122088940438
0.0124670590077
0.0127103359666
0.01294008593
0.0131578965054
0.013365481544
0.0135645996111
0.0137569734416
0.0139442352786
0.0141278768912
0.0143092261149
0.0144894260167
0.0146694364314
0.0148500331611
0.0150318239193
0.0152152571807
0.0154006431513
0.0155881647104
0.0157778976973
0.0159698202606
0.0161638304486
0.0163597535302
0.0165573575705
0.0167563601612
0.0169563952392
0.0171568250112
0.0173570344386
0.017556407305
0.0177543189779
0.0179501276281
0.0181431743574
0.0183327790895
0.0185182431794
0.0186988477402
0.0188738577666
0.0190425224467
0.0192040806693
0.0193577632652
0.0195027999692
0.0196384236252
0.019763878702
0.0198784274689
0.019981360086
0.0200720026308
0.020149728594
0.0202139683781
0.0202642216811
0.0203000676588
0.0203211771439
0.0203273220633
0.0203183857828
0.0202943697149
0.0202553994617
0.0202017260419
0.0201337251247
0.0200518900731
0.0199568214593
0.0198492091452
0.0197298094327
0.0195994137727
0.0194588115227
0.0193087436543
0.0191498497899
0.018982606193
0.0188072601206
0.01862376953
0.0184317792269
0.0182308897397
0.0180206582706
0.0178004958767
0.0175699339497
0.0173286481614
0.0170764610123
0.016813335205
0.0165393662313
0.0162547745857
0.0159598993972
0.0156551909681
0.0153412033041
0.0150185845381
0.0146880667989
0.014350453971
0.0140066090812
0.0136574400231
0.0133038853437
0.0129468989893
0.0125874356617
0.0122264357997
0.0118648116597
0.011503433514
0.0111431171869
0.0107846119698
0.0104285900378
0.0100756367263
0.00972624301306
0.00938078078377
0.00903951544074
0.00870257790163
0.00836995003901
0.00804144988774
0.00771671796426
0.00739520610319
0.00707617281192
0.00675869032626
0.00644167219028
0.00612393284037
0.00580429519657
0.00548176512355
0.00515579360763
0.0048266429215
0.00449585774587
0.0041668073476
0.00384521448844
0.003539565444
0.00326144839206
0.00302643003694
0.00285701514348
0.00278864700562
0.00627705120379
0.00631509625638
0.00639157502201
0.00650699869519
0.00666162807114
0.0068550709571
0.00708593802348
0.0073516524465
0.00764846780825
0.00797166593371
0.0083158782827
0.00867543790537
0.00904470800773
0.00941833798468
0.00979145212309
0.0101597652738
0.0105196553644
0.0108681912151
0.0112031418771
0.0115229568382
0.0118267372357
0.0121141820317
0.0123855285988
0.0126414714003
0.0128830807988
0.013111707074
0.0133288939158
0.0135362865655
0.0137355587255
0.0139283414174
0.0141161757057
0.0143004696109
0.0144824785412
0.0146632875521
0.0148438131411
0.0150248024869
0.0152068473728
0.0153903915944
0.0155757491978
0.0157631138231
0.0159525765737
0.0161441342551
0.0163377051509
0.0165331355941
0.0167302137276
0.0169286744889
0.0171282006401
0.0173281486287
0.0175278887214
0.0177267888632
0.0179242098419
0.0181194976595
0.0183119836775
0.0185009808081
0.0186857860113
0.0188656788994
0.0190399258263
0.0192077804231
0.0193684890218
0.0195212929325
0.0196654351405
0.0198001642537
0.0199247424708
0.020038451135
0.0201405999324
0.0202305339018
0.0203076436798
0.0203713736187
0.0204212326227
0.0204568026857
0.020477749435
0.0204838299063
0.0204749013522
0.0204509264885
0.0204119785353
0.0203582416274
0.0202900095792
0.0202076787742
0.0201117378779
0.0200027504151
0.0198813327997
0.0197481244077
0.0196037526906
0.0194487912773
0.0192837158298
0.0191088591995
0.0189243760089
0.0187302259228
0.0185261902041
0.0183119265041
0.0180875384456
0.0178528043339
0.0176075361568
0.0173516310016
0.0170850836797
0.016807992437
0.0165205621484
0.0162231035707
0.0159160309916
0.0155998567542
0.0152751846791
0.0149427009407
0.0146031642854
0.0142573942453
0.0139062591284
0.0135506625642
0.0131915302965
0.0128297961473
0.0124663887388
0.012102217988
0.0117381627661
0.0113750587377
0.0110136875109
0.0106547660906
0.0102989375273
0.00994676174535
0.00959870709361
0.00925512821021
0.00891627023344
0.00858225593899
0.00825307369566
0.00792856521991
0.0076084143972
0.00729213823157
0.00697908312963
0.00666843053527
0.00635921887206
0.00605039064684
0.0057408768919
0.00542973253876
0.00511633636265
0.00480066295374
0.00448361982374
0.00416741829125
0.00385592995307
0.00355503917457
0.00327333532735
0.00302459761537
0.00283660105951
0.00277653494827
0.00646982047547
0.00651107674987
0.00659361909574
0.00671736291038
0.00688181170985
0.00708574988498
0.0073270041797
0.00760234510894
0.00790756314303
0.00823768222494
0.00858726089088
0.00895070308689
0.00932254112235
0.00969765221636
0.0100714177431
0.0104398187099
0.0107994942608
0.0111477590702
0.0114826036226
0.0118026663942
0.0121071977558
0.012396000743
0.0126693683184
0.01292800207
0.0131729338942
0.0134054363037
0.0136269441717
0.0138389730277
0.0140430560561
0.0142406829157
0.0144332605122
0.0146220765305
0.0148082838283
0.014992885111
0.0151767348302
0.0153605376563
0.0155448601603
0.015730135936
0.0159166808405
0.0161046998626
0.0162943022376
0.0164855076393
0.0166782596841
0.0168724307285
0.017067833341
0.0172642233125
0.0174613425732
0.0176586174623
0.0178554284669
0.0180511503854
0.0182451502262
0.0184367812912
0.0186253840751
0.0188102830741
0.0189907895806
0.0191662006555
0.0193358033774
0.0194988755686
0.0196546912013
0.0198025226133
0.0199416469145
0.0200713495287
0.0201909315098
0.0202997142715
0.0203970477069
0.0204823159151
0.0205549459195
0.0206144140582
0.0206602549001
0.0206920677177
0.0207095248824
0.0207123774706
0.0207004619932
0.0206737037295
0.0206321201669
0.0205758201978
0.0205050022214
0.0204199470045
0.0203210082029
0.0202085967406
0.020083161991
0.019945166736
0.0197950595973
0.0196332436916
0.0194600472821
0.0192756983775
0.0190803119535
0.0188738930398
0.0186563598657
0.0184275782864
0.0181875809397
0.0179368057453
0.0176753438077
0.0174033453579
0.0171210237923
0.0168286627454
0.0165266215824
0.016215337824
0.015895327299
0.0155671806759
0.0152315585535
0.01488918388
0.0145408336799
0.0141873288446
0.0138295237826
0.0134682947568
0.0131045285698
0.0127391105285
0.0123729132034
0.0120067849722
0.0116415396463
0.0112779461638
0.0109167193786
0.0105585108962
0.0102039007049
0.00985338848915
0.00950738499849
0.00916619491418
0.00883001778354
0.00849894343576
0.00817294292763
0.00785185942375
0.00753540021759
0.00722313071359
0.00691447297617
0.00660871191036
0.00630501447063
0.00600246849347
0.00570015003905
0.00539722834367
0.00509311611125
0.00478766580705
0.00448139955152
0.00417574320358
0.00387323843717
0.00357781025633
0.0032956260445
0.00303876684798
0.00284017786899
0.00280824703256
0.0067281105266
0.00677233142413
0.00686045036331
0.00699181646619
0.00716523305101
0.00737874075582
0.00762947538657
0.00791364857992
0.00822666969599
0.0085633666468
0.00891826449068
0.00928585787427
0.00966085334099
0.0100383509589
0.0104139771798
0.0107839615251
0.0111451815149
0.0114951696251
0.0118321047477
0.0121547769325
0.0124625452083
0.0127552744792
0.0130332713784
0.0132972047217
0.0135480317219
0.0137869156031
0.0140151562712
0.0142341186727
0.0144451795621
0.014649675415
0.0148488704873
0.0150439259592
0.0152358876691
0.0154256724924
0.0156140700983
0.0158017403038
0.0159892225623
0.0161769386541
0.0163652050853
0.0165542373836
0.0167441626214
0.016935023515
0.0171267899889
0.0173193626416
0.0175125832373
0.0177062376071
0.0179000648717
0.0180936708009
0.0182864435475
0.0184777697698
0.0186670305281
0.0188535949913
0.0190368214724
0.0192160546521
0.0193906287077
0.0195598666274
0.0197230846409
0.0198795930739
0.0200287017078
0.0201697218466
0.0203019723806
0.0204247828336
0.0205374999703
0.0206394916236
0.020730153687
0.0208089144953
0.0208752419814
0.0209286482912
0.0209686967506
0.0209950062296
0.0210072573523
0.0210051958791
0.0209886373061
0.020957468233
0.0209116481817
0.0208512076224
0.0207762455885
0.0206869228818
0.0205834540817
0.0204660947816
0.0203351274176
0.0201908429876
0.0200335228126
0.0198634192418
0.0196807409311
0.0194856433927
0.0192782308482
0.0190585683478
0.0188267040986
0.0185826922372
0.0183266112903
0.0180589037223
0.017780306893
0.0174912190358
0.0171920866196
0.0168833992197
0.0165656934707
0.016239554972
0.0159056191695
0.0155645688603
0.0152171307802
0.014864069815
0.0145061827242
0.014144290102
0.0137792283221
0.0134118402796
0.0130429665291
0.0126734357239
0.0123040557891
0.011935604781
0.0115688226444
0.0112044028232
0.0108429846865
0.0104851457112
0.0101313941286
0.00978216095663
0.00943779183388
0.00909853172403
0.00876452710565
0.00843582670549
0.0081123750625
0.00779400621366
0.00748043864638
0.00717127216749
0.00686598884384
0.00656396034138
0.00626446580565
0.00596672502542
0.00566995303156
0.0053734415478
0.00507667037937
0.00477944461141
0.00448204243442
0.00418534826596
0.0038909644265
0.00360143080298
0.00332124635633
0.0030616545034
0.00286212094288
0.00288120010084
0.00704261516227
0.00708942332521
0.0071824006549
0.00732039955309
0.00750162330349
0.00772348717215
0.00798255562189
0.00827458535263
0.00859468092583
0.00893751870252
0.00929760597007
0.00966952222297
0.0100481287227
0.0104287214743
0.0108071415686
0.011179834878
0.0115438840287
0.0118970050759
0.0122375304815
0.0125643670653
0.0128769488595
0.0131751714001
0.0134593275429
0.0137300307126
0.0139881463833
0.014234717092
0.0144709017312
0.0146979130921
0.0149169733772
0.015129269921
0.0153359294614
0.0155379918435
0.0157364004613
0.0159319898223
0.0161254870657
0.0163175081405
0.0165085653487
0.0166990677718
0.0168893311773
0.0170795799243
0.0172699571783
0.0174605269951
0.0176512840659
0.0178421557008
0.0180330110411
0.0182236628579
0.0184138754935
0.0186034285254
0.0187917281302
0.0189781800555
0.0191621854546
0.01934313477
0.0195204091657
0.0196933782375
0.0198614035136
0.0200238380467
0.0201800309641
0.0203293283368
0.0204710784049
0.0206046333831
0.0207293551055
0.0208446174971
0.0209498124325
0.0210443526356
0.0211276775639
0.0211992564914
0.0212585942004
0.0213052339539
0.0213387626966
0.0213588135276
0.0213650699882
0.0213572675086
0.0213351962039
0.0212987006186
0.0212476803062
0.0211820870906
0.0211019226599
0.0210072326344
0.0208981006563
0.0207746391063
0.0206369801632
0.0204852646204
0.020319632755
0.0201402158054
0.0199471330083
0.0197404933121
0.0195204057082
0.0192869947549
0.0190404201904
0.0187808918916
0.0185086758177
0.0182240906597
0.0179279040615
0.0176211791479
0.0173045833581
0.0169788149522
0.01664459179
0.0163026558882
0.015953772376
0.0155987267266
0.0152383221379
0.0148733751207
0.0145047110292
0.0141331581616
0.0137595420909
0.0133846789588
0.0130093692301
0.0126343907448
0.0122604924048
0.0118883873969
0.0115187470888
0.0111521945365
0.0107892985214
0.0104305670835
0.0100764412624
0.00972728805712
0.00938339312446
0.00904494343297
0.0087120331307
0.00838466922234
0.00806276727457
0.00774614739965
0.00743453161476
0.00712754311119
0.00682470923842
0.00652546995143
0.00622919484929
0.00593521203138
0.00564285267613
0.00535151378996
0.00506073867125
0.00477030779764
0.00448032425624
0.00419127421309
0.00390407442942
0.00362028301905
0.003343318481
0.00308442283175
0.00289126149475
0.00298058468651
0.00740129635238
0.00745034827971
0.00754754665901
0.00769132819957
0.00787940091465
0.00810866878979
0.00837523137497
0.00867447464205
0.00900125212605
0.00935011140939
0.00971553900582
0.0100921784672
0.0104750149422
0.0108595052607
0.011241669211
0.0116181338148
0.0119861528785
0.0123435935204
0.0126889109471
0.0130211001326
0.0133396445524
0.0136444487627
0.0139357750529
0.0142141700042
0.0144804014184
0.0147353903679
0.0149801584234
0.0152157732935
0.0154433119382
0.015663822853
0.0158783055486
0.0160876879312
0.0162928189471
0.0164944569901
0.01669327118
0.0168898364422
0.0170846394067
0.0172780768367
0.0174704634249
0.0176620315742
0.0178529396122
0.018043272004
0.0182330474082
0.0184222191151
0.018610682913
0.0187982778845
0.0189847940534
0.0191701943915
0.0193539130766
0.0195353820381
0.0197140272988
0.0198892640134
0.0200604989855
0.0202271291154
0.0203885452965
0.0205441321753
0.0206932727004
0.0208353488589
0.0209697466444
0.0210958574832
0.0212130833737
0.0213208387184
0.0214185554138
0.0215056848345
0.0215817026811
0.0216461108816
0.0216984420033
0.0217382608225
0.0217651680746
0.0217788014067
0.0217788381857
0.0217649955025
0.0217370317093
0.0216947451173
0.0216379739361
0.0215665933647
0.0214805137332
0.0213796759331
0.021264047968
0.0211336193128
0.0209883970289
0.020828400967
0.0206536622873
0.0204642232822
0.0202601427062
0.0200415044024
0.0198084318857
0.0195611043856
0.0192997735305
0.0190247733885
0.0187365223783
0.0184355123247
0.0181222940329
0.0177977874268
0.0174634526495
0.0171201796946
0.0167688543926
0.0164103716566
0.0160456291406
0.0156755208679
0.0153009350093
0.0149227504423
0.0145418335273
0.0141590339055
0.0137751808501
0.013391078823
0.013007503612
0.0126251977942
0.0122448667518
0.011867174089
0.0114927375117
0.0111221241025
0.0107558458802
0.0103943546496
0.0100380368735
0.00968720769216
0.00934210472969
0.00900286542886
0.0086695365545
0.00834208649849
0.00802040274757
0.00770428971627
0.00739346801352
0.0070875755995
0.00678617235065
0.00648874930848
0.00619474489628
0.00590357007974
0.00561464453803
0.00532744395441
0.00504155537027
0.00475673144721
0.00447292849346
0.00419031532991
0.00390928260351
0.00363067208342
0.00335722400721
0.00310080971209
0.00291881315818
0.00309267285299
0.00779239747946
0.00784346494117
0.00794447612255
0.00809352439842
0.00828790939308
0.00852411252126
0.00879784534909
0.00910417809381
0.00943774181587
0.00979295881699
0.0101642787827
0.0105463806935
0.010934338702
0.0113237339046
0.011710729219
0.0120920994091
0.012465238584
0.0128281366338
0.0131793459817
0.0135179273373
0.0138433948902
0.0141556477504
0.0144549079554
0.0147416505285
0.0150165457684
0.0152803978139
0.0155340990532
0.015778582824
0.0160147930974
0.0162436522615
0.0164660449734
0.0166827985089
0.0168946772179
0.0171023715286
0.0173064990111
0.0175075984536
0.0177061343868
0.0179024937667
0.0180969920015
0.0182898708799
0.0184813050973
0.0186714008219
0.0188602022784
0.019047690657
0.0192337902739
0.0194183668631
0.0196012311705
0.0197824819954
0.0199616550625
0.0201382145488
0.0203116121074
0.0204812875536
0.0206466734691
0.0208071942272
0.0209622699893
0.0211113163714
0.0212537487974
0.0213889829357
0.0215164392831
0.0216355441043
0.0217457339993
0.0218464570569
0.0219371771877
0.0220173752473
0.022086552963
0.022144233824
0.0221899664552
0.0222233250912
0.0222439122563
0.0222513586467
0.0222453249771
0.0222255011139
0.0221916069773
0.0221433908316
0.02208062923
0.022003124532
0.0219107041106
0.0218032175016
0.0216805355457
0.0215425481796
0.021389164948
0.0212203153535
0.0210359531201
0.0208360617593
0.0206206650649
0.0203898393844
0.0201437297126
0.0198825647375
0.0196066706824
0.0193164780454
0.0190125212471
0.0186954281932
0.0183659031552
0.0180247075074
0.0176726697662
0.0173118102334
0.0169430864828
0.0165675463851
0.0161862222323
0.0158001168295
0.0154102081641
0.0150174461999
0.0146227505848
0.0142270076312
0.0138310680401
0.0134357441423
0.013041807877
0.0126499881757
0.0122609688674
0.0118753859048
0.0114938249026
0.0111168179193
0.0107448403465
0.0103783069553
0.0100175678573
0.00966290362326
0.00931452033378
0.00897252018493
0.00863691026211
0.00830762587995
0.00798452955023
0.00766741032403
0.00735598456635
0.00704989856794
0.00674873426124
0.00645201891172
0.00615924034788
0.0058698686691
0.00558338501151
0.00529931569685
0.00501726691956
0.00473694996578
0.0044581834608
0.00418086641406
0.00390496761374
0.00363079172622
0.00336067856617
0.00310759921916
0.00293994987655
0.00320851075567
0.00820592636862
0.00825891733454
0.00836359573148
0.00851776634381
0.00871838182855
0.00896155927556
0.0092426679211
0.00955648902854
0.00989743736476
0.0102597979446
0.0106379582917
0.0110265997232
0.0114208493932
0.0118163770921
0.0122094556113
0.0125969772673
0.0129764495038
0.013345961163
0.0137041412519
0.0140500989377
0.0143833655589
0.0147038252682
0.0150116546877
0.0153072564963
0.0155912068979
0.0158642001815
0.0161270096321
0.0163804464083
0.016625334937
0.0168624853262
0.0170926809076
0.0173166609824
0.0175351167588
0.0177486807418
0.0179579275764
0.0181633671768
0.0183654480628
0.0185645524812
0.0187610009185
0.018955048399
0.0191468896134
0.0193366561628
0.0195244222487
0.0197102031527
0.0198939621607
0.0200756117918
0.0202550253527
0.020432047487
0.0206067438395
0.0207785538676
0.0209469348444
0.0211113445247
0.0212712386719
0.0214260674265
0.0215752783064
0.0217183153649
0.0218546231526
0.021983646724
0.0221048357441
0.0222176448733
0.0223215377297
0.0224159873666
0.0225004798976
0.022574514853
0.022637608339
0.0226892931237
0.0227291212473
0.0227566637322
0.0227715125947
0.0227732801113
0.02276160022
0.0227361273335
0.0226965371892
0.0226425253128
0.0225738075241
0.02249011836
0.0223912117071
0.0222768598344
0.0221468550302
0.0220010103735
0.0218391637662
0.0216611820582
0.0214669691907
0.0212564752244
0.0210297095219
0.0207867543407
0.0205277807141
0.0202530617123
0.0199629836081
0.0196580498736
0.0193388791956
0.019006194584
0.0186608071209
0.018303594162
0.0179354751266
0.0175573842932
0.0171712117294
0.0167783356103
0.0163799234674
0.0159770723527
0.0155708495893
0.0151622813935
0.0147523505813
0.0143419941078
0.0139321015509
0.0135235134668
0.0131170205553
0.0127133623236
0.0123132262761
0.0119172463983
0.0115260018784
0.0111400149983
0.0107597490353
0.0103856052714
0.0100179198847
0.00965696009726
0.00930292049985
0.00895588911623
0.00861584348715
0.00828269364555
0.00795628237537
0.00763638579567
0.0073227153352
0.00701492146136
0.00671260019605
0.00641530293014
0.00612255047365
0.00583385142464
0.00554872425953
0.00526672017285
0.00498744070461
0.0047105400666
0.00443570083636
0.0041625831348
0.00389080722511
0.00362026909648
0.00335311125535
0.0031037738408
0.00295275782646
0.00332288338145
0.00863406047989
0.00868900963005
0.00879745071793
0.00895693551529
0.00916410626164
0.00941474626557
0.00970390076861
0.0100260650547
0.0103754253978
0.0107461049268
0.0111323963212
0.0115289468874
0.0119309003353
0.0123339809859
0.0127345408332
0.0131295628895
0.0135166447828
0.0138939545915
0.0142601814829
0.0146144699373
0.0149563587519
0.015285711068
0.0156026558493
0.0159075249741
0.0162008057053
0.0164830908141
0.0167550454374
0.0170173714218
0.0172707877344
0.0175160067982
0.0177537251589
0.0179846081369
0.0182092869415
0.0184283482271
0.0186423346541
0.0188517370585
0.0190569966882
0.0192584988528
0.0194565760575
0.0196515027642
0.0198434991931
0.0200327271798
0.0202192946632
0.0204032528088
0.0205846013821
0.0207632873939
0.0209392110878
0.0211122230081
0.0212826348417
0.0214499317959
0.0216136014499
0.0217731272626
0.0219279892082
0.0220776613792
0.0222216153929
0.0223593194812
0.0224902421646
0.0226138518224
0.0227296202949
0.0228370226923
0.0229355407622
0.023024662729
0.0231038862954
0.0231727183563
0.0232306775649
0.0232772938369
0.0233121104717
0.0233346834206
0.0233445830023
0.0233413929628
0.0233247118766
0.0232941521019
0.0232493410465
0.0231899202452
0.0231155468215
0.0230258931161
0.022920648913
0.0227995223323
0.0226622436986
0.0225085687248
0.0223382851638
0.0221512194509
0.0219472471623
0.0217263037346
0.0214883985578
0.0212336283584
0.0209621918524
0.0206744008789
0.0203706891708
0.0200516142454
0.0197178542882
0.0193701974572
0.0190095273429
0.0186368039458
0.0182530452567
0.0178593039941
0.0174566606958
0.0170463444075
0.0166305891023
0.0162104529586
0.0157871111237
0.0153616722482
0.0149351894735
0.0145086619969
0.0140830331577
0.0136591900269
0.013237963345
0.0128201268839
0.0124063973061
0.011997433293
0.0115938348878
0.0111961419893
0.0108048328323
0.0104203215934
0.0100429559164
0.00967301386248
0.00931070140352
0.00895612193185
0.00860923614682
0.00826993919728
0.00793806191213
0.00761337237488
0.00729557885897
0.00698433441977
0.00667924394169
0.00637987382853
0.00608576472855
0.00579644667936
0.00551145516903
0.0052303442556
0.00495269020982
0.00467807604471
0.00440604800204
0.00413604999687
0.00386740894173
0.00359970918292
0.00333505273818
0.00308965353434
0.00295703215563
0.00343278125687
0.0090709938073
0.00912804359699
0.0092405464233
0.00940581939255
0.00962020968092
0.00987917426567
0.0101774304279
0.0105091709952
0.0108683261812
0.0112488218802
0.0116448166542
0.0120508842092
0.012462147702
0.0128743529681
0.0132839029165
0.013687847592
0.0140838553162
0.0144701575428
0.0148454909837
0.0152090258514
0.0155603018694
0.0158991577645
0.0162256746913
0.0165401168244
0.0168428887233
0.0171344907075
0.0174154912507
0.0176864962395
0.0179481338481
0.0182010342135
0.0184458227371
0.0186831061992
0.0189134707361
0.0191374713142
0.0193556318778
0.0195684364719
0.0197763303737
0.0199797122836
0.0201789361354
0.0203743043737
0.0205660704973
0.0207544335834
0.0209395416344
0.0211214874143
0.0213003124772
0.0214760038864
0.0216484976014
0.0218176730772
0.0219839127747
0.0221469154616
0.0223061966727
0.022461260878
0.0226116070112
0.0227567277481
0.0228961131171
0.023029249334
0.0231556220876
0.0232747156217
0.0233860158175
0.023489009435
0.0235831869254
0.0236680416988
0.0237430726041
0.0238077831346
0.0238616835757
0.0239042901319
0.0239351268056
0.0239537244945
0.0239596227162
0.0239523687803
0.0239315195266
0.0238966407497
0.0238473091962
0.0237831125284
0.0237036519547
0.0236085431802
0.0234974202228
0.0233699379972
0.0232257780574
0.0230646536131
0.022886317993
0.0226905727835
0.0224772794246
0.0222463703843
0.0219978630167
0.0217318718362
0.0214486214312
0.0211484553976
0.0208318430158
0.0204993795145
0.0201517822655
0.0197898803429
0.0194146011165
0.0190269528438
0.0186280067041
0.018218877269
0.0178007028209
0.0173746287701
0.0169417474461
0.0165039412487
0.0160628698921
0.0156196843823
0.015175508651
0.0147314153763
0.0142884121764
0.0138474476218
0.013409410507
0.0129751296165
0.012545374
0.0121208521763
0.0117022115918
0.0112900371672
0.0108848498551
0.0104871043683
0.0100971868712
0.009715412242
0.00934202224945
0.00897717457918
0.00862082917852
0.00827288009889
0.00793315705152
0.00760142787427
0.00727740232848
0.00696073737514
0.00665104454641
0.00634789933089
0.00605085249697
0.00575944218207
0.00547320456908
0.00519167874539
0.00491439903568
0.00464086597456
0.00437048943738
0.00410251524349
0.00383602021446
0.00357035289598
0.00330770066591
0.0030663117961
0.00295347621466
0.00353637954108
0.00951257959727
0.00957196208517
0.00968899476688
0.00986076398782
0.010083319778
0.0103517815681
0.0106605163289
0.0110033814864
0.0113740102446
0.0117660858467
0.0121735867437
0.0125909697661
0.0130132991808
0.0134363100698
0.0138564301916
0.0142707561816
0.014677011358
0.0150734786719
0.0154589336238
0.0158325660784
0.0161939131407
0.0165427881228
0.0168792260408
0.0172034277691
0.0175157223014
0.0178165272093
0.0181063263086
0.0183856434272
0.0186550313076
0.0189150541311
0.0191662830108
0.0194092831416
0.0196446123015
0.0198728099495
0.0200943967554
0.0203098645152
0.0205196760837
0.0207242560442
0.0209239911792
0.0211192222724
0.0213102454517
0.0214973055044
0.0216805983678
0.0218602663209
0.0220364021214
0.0222090470991
0.0223781990246
0.0225438182736
0.0227058494699
0.0228647367708
0.0230199520893
0.0231709934717
0.0233173665114
0.0234585743465
0.0235941180641
0.0237234943576
0.023846198209
0.023961721467
0.0240695554449
0.0241691896443
0.0242601140764
0.0243418180375
0.0244137921687
0.0244755272726
0.024526516187
0.0245662526959
0.0245942333497
0.0246099565836
0.0246129246597
0.0246026431559
0.0245786232453
0.0245403817725
0.0244874441421
0.0244193452763
0.0243356334686
0.0242358726219
0.0241196475279
0.0239865678897
0.0238362755591
0.0236684508626
0.0234828222288
0.0232791750697
0.0230573637202
0.0228173223027
0.0225590777151
0.0222827603769
0.0219886152576
0.0216770087248
0.021348433429
0.0210035073007
0.0206429693411
0.0202676695447
0.0198785565021
0.0194766611101
0.0190630801256
0.0186389580249
0.0182054711545
0.0177638135351
0.0173151840459
0.0168607989366
0.0164016484047
0.0159400566563
0.0154772439558
0.0150143850561
0.0145525523652
0.0140927707053
0.0136360014835
0.0131831452952
0.0127350432326
0.0122924753619
0.0118561603792
0.0114267536689
0.0110048455237
0.0105909585186
0.0101855448027
0.00978898274304
0.00940157368635
0.00902357207437
0.0086549631465
0.00829565838307
0.00794550037268