/*--------------------------------*- C++ -*----------------------------------*\
| =========                 |                                                 |
| \\      /  F ield         | OpenFOAM: The Open Source CFD Toolbox           |
|  \\    /   O peration     | Version:  2206                                  |
|   \\  /    A nd           | Website:  www.openfoam.com                      |
|    \\/     M anipulation  |                                                 |
\*---------------------------------------------------------------------------*/
FoamFile
{
    version     2.0;
    format      ascii;
    arch        "LSB;label=64;scalar=64";
    class       volScalarField;
    location    "2.6/water";
    object      km;
}
// * * * * * * * * * * * * * * * * * * * * * * * * * * * * * * * * * * * * * //

dimensions      [0 2 -2 0 0 0 0];

internalField   nonuniform List<scalar> 
23300
(
0.00067633101014
0.000679822117576
0.000686920187559
0.000697835888999
0.000712796769903
0.000731974424155
0.000755425167203
0.000783049794334
0.000814581063471
0.000849598315317
0.000887564645761
0.000927872879054
0.000969891877796
0.00101300330386
0.00105662948861
0.00110024993989
0.00114341232506
0.00118573645374
0.00122691705384
0.00126672207838
0.00130499152459
0.00134163212818
0.00137661293078
0.00140995656595
0.00144173191219
0.00147204285536
0.00150101955405
0.0015288067918
0.00155555624443
0.00158141680463
0.00160652982558
0.00163102280322
0.00165500818807
0.00167858032658
0.00170181709512
0.0017247790035
0.00174751232558
0.00177004909898
0.00179241058464
0.00181460726205
0.00183664190674
0.00185850912339
0.00188019769012
0.00190168938288
0.00192296026112
0.00194397833176
0.00196470724062
0.00198512797732
0.00200521047166
0.00202491789147
0.00204421009419
0.00206304349674
0.00208137245995
0.00209914845083
0.00211632099656
0.0021328368854
0.00214864105847
0.00216367602294
0.0021778827908
0.00219120055361
0.00220356772163
0.00221492187985
0.00222520096586
0.00223434351456
0.00224228999954
0.00224898335687
0.00225437048881
0.00225840302434
0.00226103893663
0.00226224344217
0.00226199061287
0.0022602642413
0.00225705924703
0.00225238226408
0.00224625257841
0.00223870215412
0.00222977581952
0.00221953045761
0.00220803419551
0.00219536456929
0.00218160663166
0.00216685018103
0.00215118712302
0.00213470833033
0.00211750079589
0.00209964383471
0.00208120319547
0.00206221769324
0.00204266733594
0.0020224182022
0.00200127242757
0.00197909804046
0.00195581650236
0.00193138466684
0.00190578385834
0.00187901331795
0.00185108665678
0.00182202963825
0.00179187905927
0.00176068171009
0.00172849362665
0.00169537897467
0.00166140901721
0.00162666068047
0.00159121522749
0.00155515661106
0.00151856999272
0.00148154002925
0.00144414937686
0.00140647704232
0.00136859698148
0.00133057658151
0.00129247534728
0.00125434339743
0.00121621996574
0.0011781314005
0.00114008855652
0.00110210252223
0.00106417488202
0.00102629284845
0.000988428776558
0.000950539478222
0.000912565710245
0.000874431991838
0.000836047478585
0.000797308608061
0.000758104967187
0.00071833014155
0.000677900251467
0.000636783409411
0.000595044030813
0.000552905279794
0.000510829694209
0.00046960778047
0.000430422266923
0.000394822771642
0.000364532893903
0.00034108780967
0.000325469574137
0.00031796086479
0.000678850567259
0.000682461924258
0.000689793539434
0.00070102107421
0.000716326286202
0.000735832623457
0.000759548698421
0.000787330704617
0.000818872101033
0.000853719992651
0.000891312338916
0.000931023419135
0.000972208595261
0.00101424024763
0.00105653453947
0.001098568056
0.00113988847626
0.00118011936093
0.00121896283606
0.00125619877872
0.00129168327051
0.0013253439083
0.00135717454862
0.00138722689324
0.00141560190576
0.00144243865997
0.00146790409885
0.00149218140191
0.00151546062325
0.00153792907826
0.00155976495558
0.00158113119904
0.00160217279072
0.00162301410273
0.00164375919274
0.00166449157096
0.00168527623023
0.00170616055521
0.00172717691945
0.00174834379377
0.0017696681877
0.00179114648337
0.0018127664396
0.00183450765795
0.00185634319727
0.00187823990857
0.00190015852739
0.00192204003892
0.00194382608848
0.00196545655729
0.0019868694136
0.00200800001476
0.00202878144509
0.00204914408771
0.00206901605362
0.00208832293615
0.00210698833911
0.00212493383521
0.00214207962557
0.00215834472331
0.00217364777292
0.00218790747432
0.0022010435839
0.00221297758509
0.00222363387989
0.00223294069392
0.00224083144144
0.00224724581935
0.00225213128351
0.00225544423097
0.00225715145816
0.00225723125693
0.00225567464625
0.0022524861339
0.00224768444872
0.00224130267441
0.00223338818492
0.00222400185667
0.00221321693195
0.00220111706489
0.00218779392173
0.00217334394638
0.00215786466804
0.0021414501592
0.00212418574448
0.0021061409711
0.00208735994843
0.00206784776327
0.00204755556501
0.00202640874702
0.00200429177692
0.00198110308903
0.00195676854251
0.0019312397659
0.00190449023433
0.00187651160406
0.0018473111921
0.00181691025056
0.00178534293678
0.00175265542274
0.00171890513872
0.00168415979889
0.00164849637329
0.00161199978786
0.00157476157486
0.00153687830125
0.0014984499981
0.00145957844052
0.00142036548971
0.00138091136132
0.00134131300738
0.00130166247474
0.00126204538959
0.00122253942885
0.00118321292146
0.00114412352571
0.00110531732855
0.00106682906145
0.00102868314671
0.000990888151608
0.000953435256799
0.000916296663392
0.000879424136052
0.000842747890504
0.000806176382198
0.00076959770557
0.000732883810482
0.000695899115965
0.00065851576256
0.000620638234591
0.000582240550229
0.000543418856794
0.000504460209563
0.000465922182094
0.000428705363886
0.00039408291363
0.000363644088755
0.000339145238004
0.000322338482564
0.000314793641214
0.00068596966168
0.000689855781531
0.000697708653805
0.000709649684673
0.000725791414746
0.00074618203625
0.000770756054623
0.000799303225257
0.000831463610695
0.000866746924809
0.0009045697052
0.00094429853422
0.000985291489136
0.00102693099565
0.00106864811905
0.00110993764506
0.00115036764835
0.00118958365057
0.00122731061465
0.00126335160485
0.00129758546771
0.00132996156016
0.00136049373172
0.00138925151165
0.00141635105997
0.00144194404455
0.00146620737054
0.00148933200328
0.00151151388035
0.0015329449427
0.00155380704117
0.00157426637307
0.00159447086548
0.00161454785926
0.00163460427709
0.00165472653956
0.00167498233799
0.00169542162545
0.00171607894934
0.00173697467508
0.0017581172425
0.00177950421166
0.00180112421884
0.00182295779609
0.00184497910254
0.00186715667779
0.00188944974248
0.00191178724565
0.00193410067134
0.00195632137716
0.00197837978392
0.00200020440108
0.00202172183709
0.00204285634534
0.00206353011105
0.00208366306863
0.0021031733574
0.00212197736002
0.0021399903125
0.0021571265574
0.00217330031603
0.00218842616025
0.00220241995779
0.0022151995632
0.0022266859386
0.00223680405041
0.0022454841463
0.00225266281551
0.00225828436387
0.00226230194726
0.00226467892721
0.00226538991994
0.00226442194128
0.00226177514065
0.00225746347517
0.00225151484106
0.00224397097431
0.00223488666609
0.00222432857593
0.00221237322101
0.00219910440707
0.00218460972505
0.00216897637865
0.00215228601553
0.00213460881948
0.00211599662425
0.0020964756587
0.00207603998404
0.00205464915333
0.00203225848847
0.00200881925857
0.00198426693423
0.00195855052971
0.001931635117
0.00190350202012
0.00187414804871
0.00184358466543
0.00181183712952
0.00177894379716
0.00174495530563
0.00170993375148
0.00167395163751
0.00163709075329
0.00159944082353
0.00156109811059
0.00152216383408
0.00148274259358
0.00144294067707
0.00140286443416
0.00136261860897
0.00132230479255
0.00128201988986
0.00124185473326
0.0012018927394
0.00116220873143
0.00112286785783
0.00108392475503
0.00104542079905
0.00100738550047
0.000969833389484
0.000932762393509
0.000896152189293
0.000859962677756
0.000824132739658
0.000788579716579
0.000753200195822
0.000717873081308
0.00068246623047
0.000646848439326
0.000610908877806
0.00057458629657
0.000537909816745
0.000501051405676
0.000464386253676
0.000428551644641
0.000394492547901
0.000363499236209
0.00033730505102
0.000318416794415
0.000310784710705
0.000699811070129
0.000704045179221
0.000712557409362
0.00072540570347
0.000742620318372
0.000764158686758
0.000789866912641
0.000819458497814
0.000852516346252
0.000888514865634
0.000926855848843
0.00096690775894
0.00100804238938
0.00104966342799
0.00109122750027
0.00113225706723
0.00117234850359
0.00121117519476
0.00124848856959
0.00128411588977
0.00131795703425
0.001349978498
0.00138020676556
0.00140871924845
0.00143563523442
0.00146110519323
0.00148530113556
0.00150840637973
0.00153060740684
0.00155208593673
0.00157301365992
0.00159354743993
0.00161382713248
0.00163397361186
0.00165408897024
0.00167425643552
0.00169454192171
0.0017149948566
0.00173565021248
0.00175652954927
0.00177764300383
0.00179899020977
0.0018205620533
0.00184234140707
0.00186430466126
0.00188642228015
0.00190865892321
0.00193094289757
0.00195320404907
0.00197537196673
0.00199737544281
0.00201914162479
0.00204059602988
0.0020616621224
0.00208226159027
0.0021023141912
0.00212173820661
0.00214045050287
0.00215836713392
0.00217540359656
0.00219147557474
0.00220649938093
0.00222039284188
0.0022330759188
0.00224447173003
0.00225450733314
0.00226311486386
0.00227023244126
0.0022758053721
0.002279787102
0.0022821403865
0.00228283815625
0.00228186449361
0.00227921521471
0.00227489842469
0.00226893455921
0.00226135623844
0.00225220746855
0.00224154248518
0.00222942380446
0.00221591976422
0.00220110118326
0.00218503746803
0.0021677919479
0.00214941696728
0.00212994891895
0.00210940434662
0.00208777816102
0.00206504559667
0.00204116840277
0.00201615829686
0.00198999100989
0.00196264617456
0.0019341129433
0.0019043913566
0.00187349294639
0.00184144107397
0.00180827084071
0.00177402882306
0.00173877246488
0.0017025693465
0.00166549617329
0.00162763768941
0.00158908537029
0.00154993608863
0.00151029062065
0.00147025217845
0.00142992485084
0.00138941212719
0.00134881539676
0.00130823257622
0.00126775675806
0.00122747500358
0.0011874671703
0.00114780487124
0.00110855045462
0.00106975606284
0.00103146117646
0.000993693077091
0.000956465413436
0.000919776859739
0.000883609751729
0.000847928840673
0.00081268028447
0.00077779123235
0.000743170451177
0.000708710767883
0.000674294314715
0.000639801933243
0.000605128251126
0.000570203949209
0.000535026046641
0.000499695430374
0.00046445812763
0.000429744945313
0.000396210650748
0.000364811069565
0.000337080219499
0.000316112528158
0.000309396868193
0.000721252649016
0.000725846010598
0.000735036575275
0.000748815536127
0.000767128384526
0.000789840461804
0.000816710269556
0.000847378431595
0.000881376181187
0.000918149185098
0.000957091142717
0.000997578465318
0.00103900184098
0.00108079038916
0.0011224294191
0.00116347107544
0.00120354085747
0.001242339555
0.00127964327482
0.00131530033634
0.00134922724423
0.00138140208465
0.00141185753085
0.00144067178172
0.00146795983332
0.00149386348424
0.00151854261557
0.00154216608773
0.00156490472103
0.0015869244803
0.00160838210485
0.00162942104685
0.00165016973338
0.00167073986038
0.00169122660488
0.00171170845601
0.00173224851689
0.00175289507632
0.0017736833067
0.00179463603004
0.00181576540169
0.00183707360055
0.00185855433334
0.00188019336918
0.00190196981722
0.00192385646237
0.00194582455246
0.00196781018592
0.00198974434791
0.00201155738937
0.00203317879368
0.00205453651828
0.00207555709444
0.00209616527229
0.00211628433161
0.00213583596794
0.00215474076536
0.00217291827783
0.00219028763099
0.00220676776933
0.00222227816941
0.00223673923467
0.00225007310991
0.00226220420832
0.00227306011538
0.00228257222666
0.00229067671822
0.00229731525815
0.0023024359986
0.00230599429609
0.00230795364499
0.00230828630072
0.00230697402693
0.00230400846475
0.00229939151259
0.00229313523355
0.00228526163968
0.00227580189257
0.00226479524252
0.00225228728415
0.00223832785571
0.00222296824735
0.00220625812972
0.00218824206683
0.00216895625643
0.00214842571885
0.0021266629002
0.00210366805299
0.00207943185137
0.00205393927841
0.00202719401268
0.00199924498906
0.00197010261782
0.00193978394765
0.00190831307735
0.00187572193567
0.00184205087864
0.00180734895131
0.00177167389941
0.00173509178042
0.00169767641538
0.00165950854455
0.00162067490645
0.00158126710199
0.00154138044299
0.00150111265495
0.00146056261829
0.00141982902971
0.00137900915166
0.00133819753812
0.0012974848805
0.0012569568611
0.00121669312839
0.00117676627728
0.00113724091782
0.00109817270813
0.00105960739327
0.00102157890658
0.00098410947129
0.000947209085336
0.00091087451304
0.000875088269235
0.000839817730049
0.000805014461846
0.000770614058394
0.000736536827746
0.000702689929739
0.000668971698673
0.000635279140347
0.000601519616258
0.000567627573709
0.000533586391938
0.000499453956896
0.00046538868196
0.000431673056237
0.000398743377862
0.000367285516372
0.000338644440215
0.000316491430983
0.000312907215742
0.000750012027654
0.000754936606009
0.000764750216457
0.000779380757461
0.000798695480658
0.000822476648442
0.000850405612332
0.00088206061643
0.000916930374858
0.000954438698325
0.000993975569088
0.00103492753098
0.00107670471613
0.00111876110233
0.0011606093286
0.00120182924551
0.00124207292243
0.00128106542107
0.0013186038407
0.00135455338556
0.00138884266128
0.00142145663999
0.00145242951006
0.00148183581043
0.00150978220779
0.001536398316
0.00156182897113
0.00158622624931
0.00160974353626
0.0016325297245
0.00165472565583
0.00167646068433
0.00169785131101
0.00171899966697
0.00173999371035
0.00176090693207
0.00178179941374
0.00180271812782
0.00182369831943
0.00184476398504
0.00186592926791
0.00188719891467
0.00190856956379
0.0019300301314
0.00195156298023
0.00197314424292
0.00199474484815
0.00201632089291
0.0020378042179
0.0020591264957
0.00208021877521
0.00210101078071
0.00212143102728
0.00214140651162
0.00216086306061
0.00217972525501
0.00219791692298
0.00221536123531
0.00223198130245
0.00224770040471
0.0022624426677
0.00227613340172
0.00228869983759
0.00230007155295
0.00231018125088
0.00231896524766
0.00232636426958
0.00233232396661
0.00233679568788
0.00233973696706
0.00234111221328
0.00234089308675
0.00233905900984
0.00233559731791
0.00233050346013
0.00232378077757
0.00231544023537
0.00230549966352
0.00229398286447
0.00228091818935
0.00226633695794
0.00225027142188
0.00223275273423
0.0022138088037
0.0021934626612
0.00217173141722
0.0021486264819
0.00212415493126
0.00209832201117
0.00207113368956
0.00204259872548
0.00201276646207
0.00198171913859
0.00194950127307
0.0019161627784
0.00188175837431
0.00184634802775
0.00180999715836
0.00177277673266
0.00173476298274
0.00169603702418
0.00165668421
0.00161679343081
0.00157645621899
0.00153576585164
0.00149481631952
0.00145370134044
0.00141251329491
0.00137134224357
0.00133027490984
0.00128939376244
0.00124877608163
0.00120849311629
0.00116860921362
0.00112918100053
0.00109025649631
0.00105187420316
0.00101406141199
0.00097683444572
0.000940198735145
0.000904148102274
0.000868664056979
0.00083371523443
0.000799257045635
0.00076523178104
0.000731569426211
0.000698189650842
0.000665005498816
0.000631929463783
0.000598882552147
0.000565806674733
0.000532679903344
0.000499532895977
0.000466463665421
0.000433649948013
0.000401373638254
0.00037013474077
0.000341185220563
0.000318923776451
0.000321021743729
0.000785045137102
0.000790258569447
0.000800614605482
0.000815985682565
0.000836172061119
0.000860886194338
0.000889745668736
0.000922277966753
0.00095793780223
0.000996132087091
0.00103624882849
0.00107768403847
0.00111986510531
0.0011622678543
0.00120442885214
0.00124595206312
0.00128651241296
0.00132585541704
0.00136379528136
0.00140021021407
0.00143503716946
0.00146826452336
0.0014999249194
0.00153008671529
0.00155884634718
0.00158631997374
0.00161263671217
0.00163793167939
0.00166234103612
0.00168599705392
0.00170902524983
0.00173154145731
0.00175365076249
0.00177544611937
0.00179700851994
0.00181840656887
0.00183969732454
0.00186092634673
0.00188212880072
0.00190332966954
0.00192454489218
0.00194578159545
0.00196703917984
0.00198830954013
0.0020095780917
0.00203082397056
0.00205202091663
0.00207314439083
0.00209412824509
0.00211490628095
0.00213541178728
0.00215557685912
0.00217533255742
0.00219460865414
0.00221333402232
0.00223143659067
0.00224884385058
0.00226548295295
0.0022812812902
0.00229616669756
0.00231006808173
0.00232291569618
0.00233464179378
0.00234518094958
0.00235447071628
0.00236245196733
0.00236906953084
0.00237427252028
0.00237801491352
0.00238025582778
0.0023809599967
0.00238009793081
0.00237764622823
0.00237358754526
0.00236791065998
0.00236061016606
0.00235168620355
0.00234114379696
0.00232899219589
0.00231524384
0.00229991336286
0.00228301634631
0.00226456830458
0.00224458373729
0.0022230758032
0.00220005651643
0.00217553790424
0.00214953374406
0.00212206175597
0.0020931452738
0.00206281391616
0.00203110321186
0.00199809871735
0.00196391892336
0.00192863827433
0.00189233466062
0.00185508815536
0.00181698152675
0.0017781001168
0.00173853153242
0.00169836535115
0.0016576926285
0.00161660539921
0.00157519601932
0.00153355653431
0.00149177793179
0.0014499494457
0.00140815778246
0.00136648641776
0.00132501484198
0.00128381788041
0.00124296497031
0.00120251949698
0.00116253807355
0.00112306984393
0.00108415569861
0.00104582746119
0.00100810596549
0.00097100170914
0.000934515479946
0.000898637877831
0.000863348867407
0.000828617483549
0.000794401749303
0.000760649007002
0.000727296857141
0.000694275053003
0.000661508709802
0.000628923262251
0.000596451441453
0.000564042217802
0.000531670894007
0.000499348575568
0.000467128846252
0.000435113001879
0.000403473532574
0.00037259017318
0.000343715148395
0.000322161665269
0.000332085730541
0.000825007443419
0.000830471261164
0.000841298336273
0.000857314720867
0.00087826540821
0.000903805802918
0.000933501623508
0.00096683899878
0.00100324464653
0.00104211112022
0.00108282411374
0.00112478678375
0.00116744033119
0.0012102785085
0.00125285779819
0.00129480235028
0.001335806162
0.00137563157589
0.00141410646742
0.00145111885845
0.00148661120262
0.00152057287077
0.00155303309082
0.00158405276323
0.00161371743282
0.00164212971708
0.00166940342659
0.00169565750825
0.00172101193637
0.00174558351097
0.00176948357261
0.00179281548283
0.00181567380573
0.00183814301689
0.00186029764666
0.00188220173218
0.00190390947522
0.00192546506702
0.00194690355722
0.0019682508292
0.00198952451537
0.00201073402051
0.00203188141935
0.00205296150496
0.00207396266512
0.00209486697082
0.00211565102539
0.00213631071825
0.00215678302528
0.00217700466788
0.00219691170789
0.002216438995
0.00223552044756
0.00225408887995
0.00227207643672
0.00228941456609
0.00230603452671
0.00232186746985
0.0023368449928
0.00235089929784
0.00236396376477
0.0023759731549
0.00238686417807
0.00239657571358
0.0024050493502
0.00241222959776
0.00241806437848
0.00242250520172
0.0024255075813
0.00242703114148
0.00242703992931
0.00242550241473
0.00242239166134
0.00241768518078
0.00241136492546
0.00240341696387
0.00239383127298
0.00238260122867
0.00236972322103
0.00235519602571
0.00233902037118
0.0023211984047
0.00230173352841
0.00228063038099
0.00225789543372
0.00223353795428
0.00220757163487
0.00218001638329
0.00215090018509
0.0021202602253
0.00208814310131
0.00205460360973
0.00201970313621
0.00198354419224
0.00194628947093
0.00190803817262
0.00186888904704
0.0018289418454
0.00178829663117
0.00174705306193
0.00170531014272
0.00166316584174
0.00162071673004
0.00157805751311
0.00153528062382
0.00149247572715
0.00144972928953
0.00140712407348
0.00136473869353
0.00132264710575
0.00128091814871
0.00123961501718
0.00119879476749
0.00115850774376
0.00111879700668
0.00107969766719
0.00104123619615
0.00100342790848
0.00096627802204
0.000929783022531
0.000893930381764
0.000858698316256
0.000824055705241
0.00078996221879
0.000756368824887
0.000723218817255
0.000690449617809
0.000657995573075
0.000625791973526
0.000593780306148
0.000561914397217
0.000530166422432
0.000498531095471
0.000467026599267
0.00043569558153
0.000404630746158
0.000374136429907
0.000345535440759
0.00032522465398
0.000344567605611
0.00086858655547
0.000874275206632
0.000885527595386
0.000902131480194
0.000923786297966
0.000950100318267
0.000980595987188
0.00101472422162
0.00105188693353
0.0010914627103
0.00113283314215
0.00117540533641
0.00121863041486
0.00126201597857
0.0013051344583
0.00134762646364
0.00138920162006
0.00142963594282
0.00146876813115
0.00150649352186
0.00154275798094
0.00157755026252
0.00161089510022
0.00164284541283
0.00167347587388
0.00170287606593
0.00173114540129
0.00175838785203
0.00178470857312
0.00181021031335
0.00183499161726
0.0018591446362
0.00188275451156
0.00190589814995
0.00192864434236
0.00195105310426
0.00197317618009
0.00199505667342
0.0020167297187
0.00203822225004
0.00205955372832
0.00208073598109
0.00210177393594
0.00212266549856
0.00214340223906
0.00216396920113
0.00218434530397
0.00220454156037
0.00222450626056
0.00224417972598
0.00226350087592
0.00228240730936
0.0023008358179
0.00231872227755
0.00233600209413
0.00235261016637
0.00236848137091
0.00238355061121
0.00239775332811
0.00241102560467
0.00242330467493
0.00243452905251
0.00244463901316
0.00245357672
0.00246128666074
0.00246771574689
0.00247281368941
0.00247653305144
0.00247882954661
0.00247966202576
0.00247899268244
0.00247678695609
0.00247301363221
0.00246764465165
0.00246065510411
0.0024520229513
0.00244172893826
0.00242975627565
0.00241609054391
0.00240071944715
0.00238363287041
0.00236482291886
0.00234428439344
0.00232201541185
0.00229801857904
0.00227230235583
0.00224488285368
0.0022157855129
0.00218504664661
0.00215271419281
0.00211884767636
0.00208351704534
0.00204680076624
0.00200878368057
0.00196955810716
0.00192934913267
0.00188826346417
0.00184641787782
0.00180392740701
0.00176090380414
0.00171745605651
0.00167369002757
0.00162970820303
0.00158560935336
0.00154148827978
0.00149743550678
0.00145353705664
0.00140987415778
0.00136652301122
0.00132355448153
0.00128103382237
0.00123902031804
0.00119756693669
0.00115671988991
0.00111651818259
0.00107699306898
0.00103816750089
0.00100005286103
0.00096264994192
0.000925951539733
0.000889942339866
0.000854598843638
0.000819889454244
0.000785774766877
0.000752208203825
0.00071913709124
0.000686504351055
0.000654250911812
0.000622318901657
0.000590655435101
0.00055921645153
0.000527969488622
0.000496893886389
0.000465977735652
0.000435216675573
0.00040464363047
0.000374518537368
0.000346287222511
0.000327574271054
0.000357468761782
0.000914667501602
0.000920570654112
0.000932231979802
0.000949407062453
0.000971756644787
0.000998848369246
0.00103016651127
0.00106512977242
0.00110311595334
0.00114348833954
0.00118562159398
0.00122892308506
0.00127284984084
0.00131691934433
0.00136071626631
0.00140389430996
0.00144617572252
0.00148734753699
0.00152725697693
0.00156580476911
0.00160293868092
0.00163864579095
0.00167294576437
0.00170588345221
0.00173752303801
0.00176794186042
0.00179722605835
0.00182546598926
0.00185275348854
0.00187917879611
0.00190482916935
0.00192978696102
0.00195412916735
0.00197792624601
0.00200124221058
0.00202413386493
0.00204665117517
0.00206883672575
0.0020907262224
0.00211234807915
0.00213372398973
0.00215486862006
0.00217579024202
0.00219649056379
0.00221696550098
0.00223720531326
0.00225719589447
0.00227691993729
0.00229638476958
0.0023155279631
0.00233428906607
0.00235260767822
0.00237042317536
0.00238767430537
0.00240429952261
0.00242023689453
0.00243542454307
0.00244980064568
0.00246330389286
0.00247587353106
0.00248744980429
0.00249797400721
0.00250738888899
0.00251563869313
0.00252266950916
0.00252842928236
0.00253286810433
0.00253593818069
0.00253759405499
0.00253779252697
0.00253649280839
0.00253365639074
0.00252924713976
0.00252323112408
0.00251557667139
0.00250625419264
0.0024952362523
0.00248249746058
0.00246801465571
0.00245176698987
0.00243373637862
0.00241390796064
0.00239227100544
0.00236881991969
0.00234355571664
0.00231648753133
0.00228763439093
0.0022570266932
0.00222470745138
0.00219073274033
0.00215517147575
0.00211810420104
0.00207962127698
0.0020398204493
0.00199880416626
0.00195667652326
0.00191364809303
0.00186987242749
0.00182547961545
0.0017805918988
0.00173532819831
0.00168980286076
0.00164412539543
0.00159840020111
0.00155272639773
0.00150719764239
0.00146190203617
0.0014169219752
0.00137233406015
0.00132820892723
0.00128461110555
0.00124159878213
0.00119922356788
0.00115753016435
0.00111655601722
0.00107633088704
0.00103687643904
0.000998202469024
0.000960306470948
0.000923178417335
0.000886800788811
0.000851148639161
0.000816189814901
0.000781885369768
0.000748190288723
0.000715054578089
0.000682424825466
0.000650246237767
0.000618465089414
0.00058703124796
0.000555900111056
0.000525032829707
0.000494393557523
0.000463943750465
0.000433640230316
0.000403470478933
0.00037367269179
0.000345856858969
0.000328996886582
0.000370207651822
0.000962377550547
0.00096849901831
0.000980579815447
0.00099834732882
0.00102142769095
0.00104935133155
0.00108156640763
0.00111745974336
0.00115638367237
0.00119768343858
0.00124072313569
0.00128490634178
0.00132969192839
0.00137460345207
0.00141923440458
0.00146324858912
0.00150637829458
0.00154841937473
0.00158922574787
0.00162870206681
0.00166679692176
0.00170349504255
0.00173881077757
0.00177278108377
0.00180546023079
0.00183691424357
0.00186721720999
0.00189644730829
0.00192468462514
0.00195200851918
0.00197849658185
0.00200422292755
0.00202925787257
0.00205366677146
0.00207751007985
0.00210084248176
0.00212371313883
0.00214616498245
0.00216823506279
0.00218995396475
0.00221134623125
0.00223242990132
0.00225321700987
0.00227371326688
0.00229391865582
0.00231382728271
0.00233342804283
0.00235270429054
0.00237169076055
0.00239033012177
0.00240856530282
0.00242633876929
0.00244359259592
0.00246026820027
0.0024763067225
0.00249164892438
0.00250623559875
0.00252000752189
0.00253290585498
0.00254487212286
0.0025558485893
0.00256577823915
0.00257460511271
0.00258227427389
0.00258873209604
0.00259392620669
0.00259780572382
0.00260032117426
0.0026014246847
0.00260106987693
0.00259921202382
0.0025958079328
0.00259081608681
0.00258419654144
0.00257591108761
0.00256592321014
0.00255419833573
0.00254070393233
0.00252540994012
0.00250828912633
0.00248931782634
0.00246847668397
0.00244575181689
0.00242113601126
0.00239463029231
0.00236624541587
0.00233600350151
0.00230393927347
0.00227010103845
0.0022345508966
0.0021973643947
0.00215862933457
0.00211844415288
0.00207691580285
0.00203415769896
0.0019902871329
0.001945424493
0.00189970670795
0.0018533826658
0.00180657026306
0.00175940043327
0.00171199669558
0.00166447638545
0.00161695083031
0.00156952513164
0.00152229812113
0.0014753623538
0.00142880403634
0.00138270301124
0.00133713265957
0.00129215982757
0.00124784465867
0.00120424042401
0.00116139325552
0.00111934187004
0.00107811722939
0.00103774226027
0.000998228461368
0.000959571442525
0.000921759509722
0.000884773803117
0.000848588472418
0.000813171003435
0.000778482728614
0.000744479610041
0.000711113315441
0.000678332629987
0.000646085134491
0.000614318981122
0.000582984335394
0.000552033754985
0.000521420431764
0.000491093306191
0.000460989737544
0.000431033894748
0.000401178649546
0.000371657943565
0.000344279865658
0.000329469445875
0.000382448688375
0.00101106898921
0.00101742461245
0.00102995813113
0.00104837078979
0.00107225582887
0.00110110730252
0.00113433681324
0.00117129747588
0.00121131308758
0.00125370691273
0.00129782809936
0.00134307202313
0.00138889526311
0.0014348237696
0.00148045670266
0.00152546532846
0.00156958980584
0.00161263304249
0.00165445424653
0.00169496093043
0.00173410178072
0.00177185880088
0.00180824100748
0.00184327781022
0.00187701426164
0.00190950608481
0.0019408165979
0.00197101328903
0.00200016613161
0.00202834531984
0.00205562052292
0.00208205933787
0.00210772706457
0.00213268553272
0.00215699311845
0.00218070375495
0.00220386705841
0.00222652745757
0.00224872439522
0.00227049157871
0.00229185726317
0.00231284364092
0.00233346721417
0.00235373833088
0.00237366163334
0.00239323569248
0.00241245338498
0.00243130129527
0.00244982203127
0.00246798204969
0.00248572740271
0.00250300289827
0.0025197527248
0.00253592037132
0.00255144902992
0.00256628146645
0.0025803603868
0.00259362833492
0.00260602803635
0.00261750231389
0.00262799440094
0.00263744786002
0.00264580685907
0.00265301608297
0.00265902097275
0.00266376762835
0.00266720301791
0.00266927487711
0.0026699319013
0.00266912365317
0.00266680075639
0.00266291483132
0.00265741871762
0.00265026646995
0.00264141365118
0.00263081743803
0.00261843704639
0.00260423401909
0.0025881728657
0.00257022162151
0.00255035279055
0.00252854425236
0.00250478055426
0.00247905415644
0.00245136697629
0.00242173175618
0.00239017350261
0.00235673048186
0.00232145496422
0.00228441325371
0.00224568526418
0.00220536335628
0.0021635508438
0.0021203600539
0.00207591032599
0.00203032583585
0.00198373339878
0.00193626063325
0.00188802923594
0.00183924892345
0.00179010460501
0.00174072451465
0.00169123387701
0.00164175219506
0.00159239172867
0.00154325815921
0.00149445050533
0.00144606109876
0.00139817561487
0.00135087298345
0.00130422532818
0.00125829780449
0.00121314843865
0.00116882787439
0.00112537911554
0.0010828372208
0.00104122909952
0.00100057228998
0.00096086231061
0.000922087336657
0.000884228374754
0.000847259537457
0.000811148465777
0.000775856915827
0.000741341577802
0.000707555117719
0.000674447432685
0.000641966988193
0.000610061993462
0.000578680922922
0.000547771635599
0.000517278109249
0.000487134072992
0.000457254816772
0.000427536690172
0.000397906419423
0.000368607719534
0.000341675780519
0.000329070167482
0.000393988386428
0.00106027919067
0.00106689480535
0.00107993315598
0.00109906978824
0.00112386482318
0.00115377469424
0.0011881719627
0.00122637236566
0.00126766660228
0.00131135089722
0.00135675432781
0.00140325924466
0.00145031566211
0.00149744832819
0.00154425916673
0.00159042462913
0.0016356909956
0.00167986690498
0.0017228158807
0.00176444761874