/*--------------------------------*- C++ -*----------------------------------*\
| =========                 |                                                 |
| \\      /  F ield         | OpenFOAM: The Open Source CFD Toolbox           |
|  \\    /   O peration     | Version:  2206                                  |
|   \\  /    A nd           | Website:  www.openfoam.com                      |
|    \\/     M anipulation  |                                                 |
\*---------------------------------------------------------------------------*/
FoamFile
{
    version     2.0;
    format      ascii;
    arch        "LSB;label=64;scalar=64";
    class       surfaceScalarField;
    location    "2.6/water";
    object      phi.gas;
}
// * * * * * * * * * * * * * * * * * * * * * * * * * * * * * * * * * * * * * //

dimensions      [0 3 -1 0 0 0 0];

oriented        oriented;

internalField   nonuniform List<scalar> 
46280
(
-4.71757272818e-09
2.72655559936e-07
-4.86835817897e-10
2.72630479984e-07
-8.44118379294e-10
2.72572323623e-07
-1.21400748369e-09
2.72520702404e-07
-1.64842931588e-09
2.72474658415e-07
-2.14809886926e-09
2.72438465779e-07
-2.72419221314e-09
2.72412336073e-07
-3.37511861383e-09
2.72396370974e-07
-4.11934097083e-09
2.72386740763e-07
-4.95960799377e-09
2.72381909963e-07
-5.91442939825e-09
2.72377801171e-07
-6.98238363656e-09
2.72373873185e-07
-8.17557872054e-09
2.72367398019e-07
-9.4850562347e-09
2.72359431157e-07
-1.09156668659e-08
2.72348618573e-07
-1.24521235058e-08
2.72337161885e-07
-1.40939349486e-08
2.72324485872e-07
-1.58220825757e-08
2.72313276753e-07
-1.76329729614e-08
2.72303147399e-07
-1.95062136882e-08
2.72296760669e-07
-2.14368761484e-08
2.72293535686e-07
-2.34048873858e-08
2.72295829519e-07
-2.5405147411e-08
2.72302694977e-07
-2.74189034707e-08
2.72316082963e-07
-2.94415011544e-08
2.72334661653e-07
-3.14559037731e-08
2.72360002969e-07
-3.34580731724e-08
2.72390473485e-07
-3.54326440699e-08
2.72427369176e-07
-3.73761006527e-08
2.72468891599e-07
-3.92744818111e-08
2.72516195652e-07
-4.11246272658e-08
2.72567463692e-07
-4.29136948545e-08
2.72623832972e-07
-4.46387961026e-08
2.72683584678e-07
-4.62880265118e-08
2.72747922585e-07
-4.78588149109e-08
2.72815296876e-07
-4.93401360781e-08
2.7288701125e-07
-5.07298869525e-08
2.72961706356e-07
-5.20179446082e-08
2.73040777388e-07
-5.32028630172e-08
2.73123041902e-07
-5.42754737132e-08
2.73209952631e-07
-5.52351726905e-08
2.73300474371e-07
-5.60737974985e-08
2.73396078556e-07
-5.67917266988e-08
2.73495849685e-07
-5.73817417302e-08
2.73601248003e-07
-5.78444092741e-08
2.73711439933e-07
-5.81693769241e-08
2.73827789383e-07
-5.83594864916e-08
2.73949100853e-07
-5.8413316687e-08
2.7407629549e-07
-5.83337906427e-08
2.74208616928e-07
-5.81158265483e-08
2.74347225915e-07
-5.77634158986e-08
2.74491250639e-07
-5.72726282163e-08
2.74641544093e-07
-5.66487511856e-08
2.747970804e-07
-5.5889001831e-08
2.74958443348e-07
-5.49999468528e-08
2.75124467903e-07
-5.39799893885e-08
2.75295473201e-07
-5.28369867285e-08
2.75470146825e-07
-5.15705779004e-08
2.75648537153e-07
-5.01899038193e-08
2.75829169218e-07
-4.86958615634e-08
2.76011811948e-07
-4.70988288935e-08
2.76194810681e-07
-4.54009320977e-08
2.763776463e-07
-4.36136809525e-08
2.76558466282e-07
-4.17403349336e-08
2.76736454027e-07
-3.97933685391e-08
2.76909539425e-07
-3.77770059857e-08
2.77076597634e-07
-3.57044572411e-08
2.77235319585e-07
-3.35806777756e-08
2.77384260475e-07
-3.1419343341e-08
2.77520852823e-07
-2.92258728929e-08
2.7764332663e-07
-2.70141420372e-08
2.77748851341e-07
-2.47897951749e-08
2.77835353099e-07
-2.25667326876e-08
2.77899779417e-07
-2.03507251557e-08
2.77939844945e-07
-1.81557428837e-08
2.77952422874e-07
-1.59878771419e-08
2.77935260304e-07
-1.38616093898e-08
2.77885516073e-07
-1.17840298159e-08
2.77801503023e-07
-9.77114162315e-09
2.77681415389e-07
-7.83228579413e-09
2.77525181631e-07
-5.98639296145e-09
2.77333456978e-07
-4.24607497453e-09
2.77109702445e-07
-2.63276435344e-09
2.76859548505e-07
-1.15782022424e-09
2.76593225566e-07
1.69821796143e-10
2.76325320084e-07
1.38147295036e-09
2.76077048731e-07
2.55635687818e-09
2.75873265625e-07
3.7042697571e-09
2.75735756508e-07
4.7697225571e-09
2.75673891247e-07
5.75383741287e-09
2.75689282918e-07
6.71771731893e-09
2.75771652241e-07
7.75547304135e-09
2.75896669934e-07
8.88342770949e-09
2.76036335734e-07
1.00935989182e-08
2.76169355431e-07
1.13638960298e-08
2.76280891008e-07
1.26750026534e-08
2.7636224321e-07
1.40045248067e-08
2.76408466996e-07
1.53352561368e-08
2.76418183837e-07
1.66489880234e-08
2.76391850629e-07
1.79319539337e-08
2.76331950636e-07
1.91700596578e-08
2.76241693251e-07
2.03524789733e-08
2.76125363463e-07
2.14683696379e-08
2.75987282781e-07
2.25090535781e-08
2.75832233475e-07
2.34660764373e-08
2.75664615474e-07
2.43322873515e-08
2.75488916414e-07
2.51010302528e-08
2.75309023192e-07
2.57663583943e-08
2.75128714461e-07
2.63231259788e-08
2.74951088841e-07
2.6766526946e-08
2.74779057634e-07
2.70928724898e-08
2.7461485698e-07
2.72986191429e-08
2.74460522537e-07
2.73816511752e-08
2.74317459734e-07
2.73399442468e-08
2.74186886383e-07
2.71731641055e-08
2.74069441576e-07
2.68807048615e-08
2.7396560614e-07
2.64637548266e-08
2.73875578771e-07
2.59225348791e-08
2.73799641394e-07
2.52587970402e-08
2.73737521552e-07
2.44741244132e-08
2.73688889212e-07
2.35719091902e-08
2.73653146122e-07
2.25554748369e-08
2.73629743587e-07
2.14298599166e-08
2.73617918168e-07
2.02000355801e-08
2.73616961124e-07
1.88726197687e-08
2.73625967087e-07
1.74543204809e-08
2.73644044861e-07
1.59536329405e-08
2.73670053326e-07
1.43797079161e-08
2.73702716418e-07
1.27442057541e-08
2.73740297993e-07
1.10608662314e-08
2.7378055811e-07
9.34767441518e-09
2.73820296386e-07
7.62699294579e-09
2.73855090427e-07
5.92692889414e-09
2.7387874428e-07
4.27965406923e-09
2.73883126697e-07
2.72084086455e-09
2.73858502428e-07
1.2981983684e-09
2.73795500441e-07
1.13523185249e-10
2.73688904928e-07
-6.07592920808e-10
2.7354242491e-07
-4.32541196492e-09
2.73370293151e-07
2.73249221511e-07
-3.11614312896e-09
2.22988587313e-07
-1.28564984305e-09
2.23030875305e-07
-1.85188351036e-09
2.23097536163e-07
-2.44293839141e-09
2.23185646865e-07
-3.07314976763e-09
2.23291894073e-07
-3.75687716735e-09
2.23412183627e-07
-4.511889631e-09
2.23542931101e-07
-5.34754836527e-09
2.23682346951e-07
-6.27666299619e-09
2.23827608528e-07
-7.30296055576e-09
2.2397729721e-07
-8.43335746699e-09
2.24128444293e-07
-9.66537102086e-09
2.24279472608e-07
-1.10001696669e-08
2.2442710478e-07
-1.24302024079e-08
2.24569546892e-07
-1.39525275072e-08
2.24703377902e-07
-1.55563723698e-08
2.24826853115e-07
-1.72363250258e-08
2.24936744624e-07
-1.89798995106e-08
2.25031690404e-07
-2.07803564254e-08
2.25108959838e-07
-2.26245217926e-08
2.25167822637e-07
-2.45050878392e-08
2.25206232386e-07
-2.6408882315e-08
2.25224217483e-07
-2.83285295993e-08
2.25220488439e-07
-3.02512854624e-08
2.25195852182e-07
-3.21699944449e-08
2.25149752639e-07
-3.40725445375e-08
2.25083703014e-07
-3.59521210366e-08
2.24997774057e-07
-3.77972999586e-08
2.24894033756e-07
-3.96016563561e-08
2.24773004793e-07
-4.1354477041e-08
2.24637103087e-07
-4.30498014941e-08
2.24487094196e-07
-4.46776969673e-08
2.24325521954e-07
-4.62328121695e-08
2.24153195824e-07
-4.77061231075e-08
2.23972598476e-07
-4.90930707303e-08
2.23784432486e-07
-5.03856764864e-08
2.23590988573e-07
-5.15803367462e-08
2.23392773374e-07
-5.26702126151e-08
2.23191815563e-07
-5.36527536023e-08
2.22988391599e-07
-5.4522285082e-08
2.22784244705e-07
-5.5277333876e-08
2.22579422536e-07
-5.59133520571e-08
2.22375385797e-07
-5.64299101075e-08
2.2217196987e-07
-5.68235571403e-08
2.21970360434e-07
-5.7094624012e-08
2.21770195255e-07
-5.72397250453e-08
2.21572436182e-07
-5.72604305287e-08
2.21376877296e-07
-5.71559796319e-08
2.21184537762e-07
-5.69287096554e-08
2.20994822421e-07
-5.65779552357e-08
2.20808356485e-07
-5.61069411765e-08
2.20624574657e-07
-5.5515785069e-08
2.20444055582e-07
-5.48085194921e-08
2.20266247718e-07
-5.39861232957e-08
2.2009166031e-07
-5.30534855262e-08
2.19919757879e-07
-5.20124901365e-08
2.19750993804e-07
-5.0868904189e-08
2.19584861734e-07
-4.96255418656e-08
2.19421776581e-07
-4.82890478949e-08
2.19261273868e-07
-4.68631665139e-08
2.19103747289e-07
-4.53553916811e-08
2.18948785669e-07
-4.37703643588e-08
2.18796778901e-07
-4.21163611444e-08
2.18647381238e-07
-4.03988415743e-08
2.18500998442e-07
-3.8626752496e-08
2.18357365264e-07
-3.68062424313e-08
2.18216927344e-07
-3.49467622485e-08
2.18079520884e-07
-3.3054959418e-08
2.17945662409e-07
-3.1140562831e-08
2.17815318955e-07
-2.92104643354e-08
2.17689118095e-07
-2.72743800766e-08
2.17567197839e-07
-2.53391235455e-08
2.17450347491e-07
-2.34140436173e-08
2.17338927076e-07
-2.15054891702e-08
2.1723394761e-07
-1.96220267062e-08
2.17136050213e-07
-1.7769088771e-08
2.17046531108e-07
-1.59539711388e-08
2.16966368974e-07
-1.41806358372e-08
2.1689719433e-07
-1.24544609763e-08
2.16840347023e-07
-1.07771093187e-08
2.16797776255e-07
-9.1508911461e-09
2.16771089951e-07
-7.57336675338e-09
2.1676233238e-07
-6.04071556179e-09
2.16772907893e-07
-4.54096149401e-09
2.16804011464e-07
-3.05493803982e-09
2.16854957328e-07
-1.54924880531e-09
2.16922398834e-07
7.77936308123e-12
2.1699715375e-07
1.57678969899e-09
2.17064955921e-07
3.08917120725e-09
2.17115616492e-07
4.50123807183e-09
2.17147968609e-07
5.7983315553e-09
2.17174269359e-07
7.01840755278e-09
2.17212143643e-07
8.19416078877e-09
2.17268705053e-07
9.34682490354e-09
2.17346140357e-07
1.04862759342e-08
2.17443324568e-07
1.16172316126e-08
2.17558182822e-07
1.27392703665e-08
2.17687937703e-07
1.3850465702e-08
2.17830230606e-07
1.49464290119e-08
2.17982684944e-07
1.60225057404e-08
2.18143606743e-07
1.70726832303e-08
2.18311375129e-07
1.80910129672e-08
2.18485016124e-07
1.90707465047e-08
2.18663580211e-07
2.00052857733e-08
2.18846670888e-07
2.08876324077e-08
2.19033846364e-07
2.17109888345e-08
2.19225118176e-07
2.2468495279e-08
2.19420383096e-07
2.31535447575e-08
2.19619894765e-07
2.37597558097e-08
2.1982372799e-07
2.4281051672e-08
2.20032225268e-07
2.47118175025e-08
2.20245495161e-07
2.50467896812e-08
2.20463835202e-07
2.52813500575e-08
2.20687266593e-07
2.54112676089e-08
2.2091593703e-07
2.54331274092e-08
2.21149698703e-07
2.53445998506e-08
2.21388486863e-07
2.51441366722e-08
2.21631900636e-07
2.48292570209e-08
2.2187968315e-07
2.43989006917e-08
2.2213120403e-07
2.38528188915e-08
2.22385735734e-07
2.3191866473e-08
2.22642159268e-07
2.24175185829e-08
2.22899246661e-07
2.15323893913e-08
2.23155357297e-07
2.05397849867e-08
2.23408687518e-07
1.94442099979e-08
2.23656985365e-07
1.82509847687e-08
2.23897742333e-07
1.69667752838e-08
2.2412789699e-07
1.55993775235e-08
2.24343916762e-07
1.41583799972e-08
2.24541410622e-07
1.26552589553e-08
2.24714981491e-07
1.11042202008e-08
2.24857596199e-07
9.52236524326e-09
2.24960063538e-07
7.92975820025e-09
2.25010175288e-07
6.34780927604e-09
2.24992338032e-07
4.79746979417e-09
2.24888209875e-07
3.30250635632e-09
2.24680209204e-07
1.91203556101e-09
2.24359331201e-07
7.55355073794e-10
2.23938120953e-07
-1.92378303561e-09
2.23466263202e-07
2.23131342163e-07
-3.43755973131e-09
2.3195472763e-07
-1.51082598967e-09
2.31975177777e-07
-2.18233590398e-09
2.32058657695e-07
-2.8756912667e-09
2.3217920293e-07
-3.60554614756e-09
2.32332309303e-07
-4.38301808544e-09
2.32513156432e-07
-5.22540320224e-09
2.32716391922e-07
-6.1431150917e-09
2.32937117663e-07
-7.14983093371e-09
2.33169971506e-07
-8.25042069559e-09
2.33410362092e-07
-9.45218997049e-09
2.33653382349e-07
-1.07530034971e-08
2.33895052381e-07
-1.21536473107e-08
2.34131025571e-07
-1.36460763176e-08
2.34357878393e-07
-1.52263877917e-08
2.34571735121e-07
-1.6882936388e-08
2.34769629287e-07
-1.8609294247e-08
2.34948150488e-07
-2.03922286986e-08
2.35104861999e-07
-2.22243544326e-08
2.35236955466e-07
-2.4092176405e-08
2.35342695339e-07
-2.59882972461e-08
2.35420050086e-07
-2.78997164605e-08
2.35468145022e-07
-2.98195108554e-08
2.35485849561e-07
-3.17355169198e-08
2.35473228622e-07
-3.3641447284e-08
2.35430079224e-07
-3.55260229365e-08
2.35357377016e-07
-3.73835422474e-08
2.35255763647e-07
-3.92034987081e-08
2.35126987096e-07
-4.0980659672e-08
2.34972351061e-07
-4.27051670913e-08
2.34794153648e-07
-4.43721970508e-08
2.34594116368e-07
-4.59725075501e-08
2.34374827244e-07
-4.75017410434e-08
2.34138170749e-07
-4.89513476281e-08
2.33886780753e-07
-5.03175801383e-08
2.33622488945e-07
-5.15927131087e-08
2.33347786045e-07
-5.27737746296e-08
2.33064301104e-07
-5.38539848389e-08
2.32774264125e-07
-5.48312696164e-08
2.32479022439e-07
-5.56998639367e-08
2.32180492823e-07
-5.6458651969e-08
2.31879718912e-07
-5.71028965128e-08
2.3157830064e-07
-5.76324556141e-08
2.31276995093e-07
-5.80436539206e-08
2.30977114145e-07
-5.83370185971e-08
2.30679180912e-07
-5.85076841829e-08
2.30384141971e-07
-5.85574158551e-08
2.30092445302e-07
-5.84862456566e-08
2.29805118511e-07
-5.82965296825e-08
2.2952235214e-07
-5.79871717416e-08
2.29244915495e-07
-5.75614006253e-08
2.28972949928e-07
-5.7018937728e-08
2.28707159143e-07
-5.63637545767e-08
2.28447674277e-07
-5.55963911613e-08
2.28195172187e-07
-5.47215857918e-08
2.2794979764e-07
-5.37407320694e-08
2.2771221901e-07
-5.26593507188e-08
2.2748260836e-07
-5.14797093604e-08
2.27261635799e-07
-5.02081071218e-08
2.27049505427e-07
-4.88476821633e-08
2.26846890975e-07
-4.7405480627e-08
2.26654025317e-07
-4.58854724833e-08
2.26471581322e-07
-4.42953792163e-08
2.26299811383e-07
-4.26399175423e-08
2.26139377703e-07
-4.09273639396e-08
2.25990538007e-07
-3.91630401741e-08
2.25853929945e-07
-3.73555969025e-08
2.25729798334e-07
-3.55107528207e-08
2.25618738037e-07
-3.36372838579e-08
2.25520958212e-07
-3.17410231263e-08
2.25436987862e-07
-2.98305469027e-08
2.25366972306e-07
-2.79114420777e-08
2.25311344902e-07
-2.59916850925e-08
2.25270151439e-07
-2.40761804269e-08
2.25243690977e-07
-2.21718314924e-08
2.25231863511e-07
-2.02823492012e-08
2.25234781224e-07
-1.8413011355e-08
2.25252133436e-07
-1.65657258192e-08
2.25283766182e-07
-1.47434613469e-08
2.25329053877e-07
-1.29455184922e-08
2.25387438058e-07
-1.11715647894e-08
2.25457785837e-07
-9.41696988863e-09
2.25538862868e-07
-7.67625773217e-09
2.25628630901e-07
-5.93836177944e-09
2.25724580332e-07
-4.19014938621e-09
2.25822848965e-07
-2.4153344315e-09
2.25918333516e-07
-6.07851174477e-10
2.26003975989e-07
1.19211331339e-09
2.26071915826e-07
2.91900108659e-09
2.26121231506e-07
4.55655855879e-09
2.26151101214e-07
6.09503309046e-09
2.26164709805e-07
7.52904011835e-09
2.26173826252e-07
8.87849821751e-09
2.26185895122e-07
1.01611284486e-08
2.26206270128e-07
1.13889703318e-08
2.26237971195e-07
1.25709024515e-08
2.26282903381e-07
1.37115511314e-08
2.26341901945e-07
1.48139058236e-08
2.26415495682e-07
1.58783276569e-08
2.26503728656e-07
1.6904451767e-08
2.26606700805e-07
1.78902159579e-08
2.26724259592e-07
1.8833220718e-08
2.26856419058e-07
1.97299270694e-08
2.27003011156e-07
2.05766406902e-08
2.27164045296e-07
2.13689402639e-08
2.2733936052e-07
2.2102373632e-08
2.27528951494e-07
2.27721113254e-08
2.27732635366e-07
2.33734017584e-08
2.27950352919e-07
2.390141881e-08
2.28181854049e-07
2.43515107545e-08
2.2842697683e-07
2.47192059388e-08
2.28685352193e-07
2.50002875733e-08
2.2895666188e-07
2.51909240411e-08
2.29240362567e-07
2.52876063517e-08
2.29535924308e-07
2.5287378838e-08
2.29842574787e-07
2.51883668959e-08
2.30159520748e-07
2.49896223781e-08
2.30485763263e-07
2.46885924832e-08
2.30820344247e-07
2.42839900377e-08
2.31161924145e-07
2.37755014915e-08
2.31508945637e-07
2.31636536037e-08
2.31859478853e-07
2.24494782888e-08
2.32211367365e-07
2.16348829835e-08
2.32562032699e-07
2.07222997949e-08
2.32908594863e-07
1.97150460837e-08
2.33247684946e-07
1.86169945513e-08
2.33575522582e-07
1.74329346115e-08
2.33887705968e-07
1.61683128544e-08
2.34179195421e-07
1.48296053138e-08
2.34444003624e-07
1.34240988606e-08
2.34674977687e-07
1.19600439619e-08
2.34863267393e-07
1.04458849731e-08
2.3499782323e-07
8.88901996775e-09
2.35064743367e-07
7.29321546036e-09
2.35047056795e-07
5.65742174864e-09
2.34925401142e-07
3.98347375614e-09
2.34680767641e-07
2.30902638396e-09
2.34300352024e-07
7.76731034758e-10
2.33788494835e-07
-2.12152667736e-09
2.33188731072e-07
2.32721121761e-07
-3.5652001987e-09
2.31243454525e-07
-1.70372643077e-09
2.31260836023e-07
-2.49858564458e-09
2.31367510347e-07
-3.31388997101e-09
2.31526500288e-07
-4.16406674349e-09
2.31731709876e-07
-5.05901785608e-09
2.31976482162e-07
-6.01414802076e-09
2.32253810689e-07
-7.03908680016e-09
2.32556475787e-07
-8.14665438033e-09
2.32877192704e-07
-9.3414188706e-09
2.33208986173e-07
-1.06303688721e-08
2.33545102102e-07
-1.20113404455e-08
2.33879393701e-07
-1.34849348652e-08
2.34206001149e-07
-1.50430916325e-08
2.34519641864e-07
-1.66816873736e-08
2.34815269793e-07
-1.83889563695e-08
2.35088378346e-07
-2.01582255841e-08
2.35334699462e-07
-2.19761422924e-08
2.35550545141e-07
-2.38352008103e-08
2.35732542809e-07
-2.57219402674e-08
2.3587798678e-07
-2.76290986624e-08
2.35984579225e-07
-2.95439543273e-08
2.36050765442e-07
-3.14600243686e-08
2.36075455476e-07
-3.33656726953e-08
2.36058328472e-07
-3.52553271562e-08
2.35999521351e-07
-3.7118429944e-08
2.35899899006e-07
-3.89501971769e-08
2.35760707026e-07
-4.07409555192e-08
2.3558381241e-07
-4.24865022555e-08
2.35371327222e-07
-4.41778388545e-08
2.35125833548e-07
-4.58111953497e-08
2.34849992773e-07
-4.73781369308e-08
2.34546771702e-07
-4.88753045616e-08
2.34219053978e-07
-5.02948408428e-08
2.33869883139e-07
-5.16338822652e-08
2.33502088529e-07
-5.28852407368e-08
2.33118553209e-07
-5.40466756654e-08
2.32721859322e-07
-5.51117738299e-08
2.3231458189e-07
-5.60790273533e-08
2.31898952493e-07
-5.69428720515e-08
2.31477173917e-07
-5.77025970816e-08
2.31051097699e-07
-5.83535195418e-08
2.30622553053e-07
-5.88957465088e-08
2.30193033807e-07
-5.93254744612e-08
2.29764035496e-07
-5.96439235481e-08
2.29336760275e-07
-5.98448034634e-08
2.2891230873e-07
-5.99295775648e-08
2.28491661305e-07
-5.98989286157e-08
2.28075929413e-07
-5.97551816413e-08
2.27666013403e-07
-5.94969171347e-08
2.27262792978e-07
-5.9127144727e-08
2.26866961684e-07
-5.86451654721e-08
2.26479356648e-07
-5.80546318474e-08
2.26100666147e-07
-5.73555934917e-08
2.25731733255e-07
-5.65523620528e-08
2.25373269016e-07
-5.56457628556e-08
2.25026142126e-07
-5.46407770519e-08
2.24691099219e-07
-5.35390221584e-08
2.24369039661e-07
-5.23461427037e-08
2.24060744312e-07
-5.1064541462e-08
2.23767135051e-07
-4.97004930671e-08
2.23489013023e-07
-4.82571446709e-08
2.2322730322e-07
-4.6741329835e-08
2.2298280283e-07
-4.51568547504e-08
2.22756411041e-07
-4.35109938836e-08
2.22548887365e-07
-4.18080744679e-08
2.2236106708e-07
-4.00556386377e-08
2.22193628949e-07
-3.8258336515e-08
2.22047296413e-07
-3.64237438536e-08
2.21922613429e-07
-3.4556572112e-08
2.21820131626e-07
-3.26641344452e-08
2.21740192775e-07
-3.0750881007e-08
2.21683101866e-07
-2.88235113382e-08
2.21648914449e-07
-2.68858427607e-08
2.21637595833e-07
-2.49435707814e-08
2.21648811647e-07
-2.29994766375e-08
2.21682072945e-07
-2.10578393306e-08
2.21736527593e-07
-1.91199828028e-08
2.21811090134e-07
-1.71883425265e-08
2.21904230094e-07
-1.52623438517e-08
2.22014083522e-07
-1.33421227049e-08
2.22138232494e-07
-1.1424720423e-08
2.22273793596e-07
-9.50751352687e-09
2.22417180081e-07
-7.58498320262e-09
2.22564160082e-07
-5.65285889112e-09
2.22709612583e-07
-3.70796246891e-09
2.22847676976e-07
-1.75732740736e-09
2.2297195194e-07
1.80291426791e-10
2.23077003255e-07
2.03891161832e-09
2.23159089878e-07
3.80942410677e-09
2.2322492814e-07
5.50831105422e-09
2.23274169727e-07
7.11089052185e-09
2.23308651775e-07
8.62001362519e-09
2.23340939577e-07
1.00447426766e-08
2.23376433651e-07
1.13927388873e-08
2.23420140541e-07
1.26710716627e-08
2.2347587518e-07
1.38844842338e-08
2.23546437508e-07
1.5036988674e-08
2.23633965585e-07
1.61307634828e-08
2.23739968774e-07
1.71675034956e-08
2.2386557366e-07
1.8147514836e-08
2.2401150881e-07
1.90707641138e-08
2.24178281019e-07
1.99361696748e-08
2.24366121454e-07
2.07424035317e-08
2.24575126551e-07
2.1487384936e-08
2.24805188138e-07
2.21688740362e-08
2.25056111144e-07
2.27841555684e-08
2.25327536983e-07
2.3330448401e-08
2.25619043881e-07
2.38047535411e-08
2.25930067423e-07
2.42040987591e-08
2.26259986488e-07
2.4525522251e-08
2.26608042594e-07
2.47661718551e-08
2.26973413044e-07
2.49233975607e-08
2.27355130344e-07
2.49947267632e-08
2.27752144749e-07
2.49780347225e-08
2.28163246737e-07
2.48722803682e-08
2.28587125441e-07
2.46773755758e-08
2.29022349842e-07
2.43909169339e-08
2.29467426889e-07
2.40116124766e-08
2.29920539275e-07
2.35392165344e-08
2.30379570144e-07
2.29740696709e-08
2.30842061069e-07
2.23168123785e-08
2.31305227908e-07
2.1568696367e-08
2.31765876746e-07
2.07312641464e-08
2.32220405611e-07
1.98066469085e-08
2.32664713292e-07
1.87972469102e-08
2.33094173346e-07
1.77060208235e-08
2.33503507705e-07
1.65361799568e-08
2.33886685113e-07
1.52914037507e-08
2.34236686818e-07
1.39754179583e-08
2.34545231767e-07
1.25917491931e-08
2.34802330733e-07
1.11424263572e-08
2.34995783041e-07
9.62609620273e-09
2.35110636488e-07
8.03499888673e-09
2.35128951601e-07
6.35391776513e-09
2.35030298363e-07
4.56907866111e-09
2.34793699407e-07
2.7049742822e-09
2.34401821098e-07
9.09373338948e-10
2.33849508173e-07
-1.83446650534e-09
2.33162516767e-07
2.325048114e-07
-3.78384232587e-09
2.32374410651e-07
-1.87265797123e-09
2.32391013397e-07
-2.77843941999e-09
2.32517759756e-07
-3.70403056089e-09
2.32710030343e-07
-4.66278216511e-09
2.32960773051e-07
-5.66386335016e-09
2.33261985654e-07
-6.7214515688e-09
2.3360515754e-07
-7.84397827612e-09
2.33981238343e-07
-9.04340247061e-09
2.34380973098e-07
-1.03237114664e-08
2.34795251873e-07
-1.16914882681e-08
2.35215394221e-07
-1.31443676828e-08
2.35633237609e-07
-1.46829585752e-08
2.36041221777e-07
-1.62991489426e-08
2.36432390788e-07
-1.79889297907e-08
2.36800366325e-07
-1.97404904817e-08
2.37139346134e-07
-2.15472909449e-08
2.37444108734e-07
-2.3395948104e-08
2.37710030652e-07
-2.52791748669e-08
2.37933135136e-07
-2.71835872909e-08
2.38110108938e-07
-2.91023202913e-08
2.38238368026e-07
-3.10229050697e-08
2.38316047577e-07
-3.29394747254e-08
2.38342057666e-07
-3.48408286679e-08
2.38316029789e-07
-3.67222090229e-08
2.38238346872e-07
-3.85736319344e-08
2.38110043027e-07
-4.03912665447e-08
2.37932803641e-07
-4.21660849886e-08
2.37708826235e-07
-4.3894903188e-08
2.37440797725e-07
-4.55693690701e-08
2.37131734348e-07
-4.71867248985e-08
2.3678495021e-07
-4.87391202679e-08
2.36403897703e-07
-5.02241384827e-08
2.35992142698e-07
-5.16343934547e-08
2.35553224648e-07
-5.29678444343e-08
2.35090648167e-07
-5.42176278368e-08
2.34607773736e-07
-5.53821742777e-08
2.34107827994e-07
-5.64552330216e-08
2.33593828262e-07
-5.74358020267e-08
2.33068607183e-07
-5.831831952e-08
2.3253476803e-07
-5.91024158541e-08
2.31994716517e-07
-5.97832621232e-08
2.3145064177e-07
-6.03611439932e-08
2.30904547675e-07
-6.08319288393e-08
2.30358252277e-07
-6.1197333925e-08
2.29813392978e-07
-6.14503340799e-08
2.29271672786e-07
-6.15914745829e-08
2.28734105009e-07
-6.16208715871e-08
2.28201813719e-07
-6.15416530526e-08
2.27676538633e-07
-6.13518937755e-08
2.27159360794e-07
-6.10543194949e-08
2.26651353678e-07
-6.06476349475e-08
2.26153601444e-07
-6.01351242737e-08
2.25667177831e-07
-5.95161858405e-08
2.25193184613e-07
-5.87946733625e-08
2.24732722713e-07
-5.79707035864e-08
2.24286929893e-07
-5.70487105926e-08
2.2385694384e-07
-5.60295460736e-08
2.23443937303e-07
-5.49182198725e-08
2.23049075482e-07
-5.37163122821e-08
2.2267354759e-07
-5.24293780506e-08
2.22318520879e-07
-5.10596868061e-08
2.21985167916e-07
-4.96132718039e-08
2.21674618829e-07
-4.80930119981e-08
2.21387983463e-07
-4.65053104948e-08
2.21126302955e-07
-4.48535289661e-08
2.20890566099e-07
-4.31442844244e-08
2.20681660574e-07
-4.13812451686e-08
2.20500382716e-07
-3.95710380362e-08
2.20347388299e-07
-3.77174141589e-08
2.20223195194e-07
-3.58267627401e-08
2.20128133207e-07
-3.39026557137e-08
2.20062339319e-07
-3.19509685349e-08
2.20025706368e-07
-2.99748132913e-08
2.20017871453e-07
-2.79792713703e-08
2.20038163766e-07
-2.59667242239e-08
2.20085587606e-07
-2.39412064135e-08
2.20158770474e-07
-2.19041411389e-08
2.20255943118e-07
-1.98583278087e-08
2.20374889869e-07
-1.78040902698e-08
2.20512929501e-07
-1.57429299759e-08
2.20666872516e-07
-1.36741233794e-08
2.20833011827e-07
-1.15981768147e-08
2.21007100705e-07
-9.51417098655e-09
2.21184381555e-07
-7.4237437835e-09
2.21359647249e-07
-5.33034410963e-09
2.21527458561e-07
-3.24442860281e-09
2.21682603653e-07
-1.18259697545e-09
2.2182083667e-07
8.20054620513e-10
2.21939926216e-07
2.72412395057e-09
2.22042586454e-07
4.54514202695e-09
2.22135662013e-07
6.29272161235e-09
2.22216993035e-07
7.94377586555e-09
2.22289147724e-07
9.50145168403e-09
2.22362633518e-07
1.09694320942e-08
2.22441916031e-07
1.23521398841e-08
2.22531391676e-07
1.36530783324e-08
2.22634764479e-07
1.48758012924e-08
2.22755042512e-07
1.60228188287e-08
2.22894633556e-07
1.70965722355e-08
2.23055454177e-07
1.8098536715e-08
2.23238960657e-07
1.90300510599e-08
2.23446224336e-07
1.98916318888e-08
2.23677965603e-07
2.06836312754e-08
2.23934606237e-07
2.14057447119e-08
2.24216296547e-07
2.20575120154e-08
2.24522955738e-07
2.2638001763e-08
2.24854290477e-07
2.3146167892e-08
2.25209824998e-07
2.35806859986e-08
2.25588911979e-07
2.39401752929e-08
2.25990752841e-07
2.42231609241e-08
2.2641440093e-07
2.44281724855e-08
2.26858772254e-07
2.45538074076e-08
2.27322641285e-07
2.45987183194e-08
2.27804643707e-07
2.45617516385e-08
2.28303267714e-07
2.4442952594e-08
2.28816855102e-07
2.42432602063e-08
2.29343653434e-07
2.39605457421e-08
2.29881813371e-07
2.35937106581e-08
2.30429180782e-07
2.31427653666e-08
2.30983268524e-07
2.26080991627e-08
2.31541258451e-07
2.19902100791e-08
2.3209996838e-07
2.12899774191e-08
2.32655807518e-07
2.05083555242e-08
2.33204732589e-07
1.96466321147e-08
2.33742188146e-07
1.87061117619e-08
2.34263038576e-07
1.76883444303e-08
2.34761467689e-07
1.65947824707e-08
2.35230843639e-07
1.54268678352e-08
2.35663516147e-07
1.41854346008e-08
2.36050538173e-07
1.28701532836e-08
2.36381291978e-07
1.14778406003e-08
2.36643058005e-07
1.0000142016e-08
2.36820617399e-07
8.42033440401e-09
2.36896110943e-07
6.71280186536e-09
2.36849458785e-07
4.85436526737e-09
2.36659651958e-07
2.86957266347e-09
2.36307012228e-07
9.37462547635e-10
2.35776301597e-07
-1.57294119137e-09
2.35058448796e-07
2.3419049898e-07
-4.01327380085e-09
2.33338465277e-07
-2.01042184584e-09
2.33359383373e-07
-3.01154297053e-09
2.33506329607e-07
-4.03168720481e-09
2.33730828911e-07
-5.08368516802e-09
2.34024781431e-07
-6.17606074254e-09
2.34379082675e-07
-7.32202097423e-09
2.34783831995e-07
-8.5292019535e-09
2.35228305736e-07
-9.80873566988e-09
2.35701514554e-07
-1.11639290552e-08
2.36192461404e-07
-1.26011007025e-08
2.36690538038e-07
-1.41176367297e-08
2.37185731428e-07
-1.57141949192e-08
2.37668750592e-07
-1.73826793694e-08
2.38131030882e-07
-1.91192999013e-08
2.38564800901e-07
-2.09123217316e-08
2.38963031267e-07
-2.27554777861e-08
2.3931950612e-07
-2.4635479384e-08
2.39628778189e-07
-2.65453747712e-08
2.39886267749e-07
-2.84719353134e-08
2.40088212251e-07
-3.04087419798e-08
2.40231775289e-07
-3.23435820134e-08
2.40314965955e-07
-3.42711677201e-08
2.40336735044e-07
-3.6180655804e-08
2.40296847934e-07
-3.80679831433e-08
2.40195954034e-07
-3.99235933356e-08
2.40035411001e-07
-4.17444254607e-08
2.39817325412e-07
-4.35219062244e-08
2.39544338837e-07
-4.5253650006e-08
2.39219648497e-07
-4.69317443773e-08
2.38846775382e-07
-4.85542139473e-08
2.38429580067e-07
-5.01135949429e-08
2.37972035822e-07
-5.16081948985e-08
2.37478254268e-07
-5.30309284402e-08
2.36952282692e-07
-5.43803847014e-08
2.36398148208e-07
-5.5649889559e-08
2.35819690042e-07
-5.68383816098e-08
2.35220622891e-07
-5.79396739573e-08
2.3460440684e-07
-5.89531351157e-08
2.33974324582e-07
-5.9873138501e-08
2.33333385757e-07
-6.06995425902e-08
2.32684409826e-07
-6.14273305674e-08
2.32029959257e-07
-6.20568809681e-08
2.3137241992e-07
-6.25838353004e-08
2.30713956016e-07
-6.30091528706e-08
2.30056584002e-07
-6.33277905454e-08
2.29402110104e-07
-6.35384790572e-08
2.28751869764e-07
-6.36381887553e-08
2.28107538493e-07
-6.36327200032e-08
2.27471008331e-07
-6.35195265575e-08
2.26843648408e-07
-6.33009830298e-08
2.26226819999e-07
-6.29752149941e-08
2.25621877511e-07
-6.25450912122e-08
2.25030182465e-07
-6.20093849179e-08
2.24453107632e-07
-6.13714584971e-08
2.23892043829e-07
-6.06307598124e-08
2.23348402619e-07
-5.97911615931e-08
2.22823611729e-07
-5.88528069623e-08
2.2231911543e-07
-5.78200801747e-08
2.21836362263e-07
-5.66938172584e-08
2.21376802255e-07
-5.54788897646e-08
2.20941869492e-07
-5.41767932859e-08
2.20532975468e-07
-5.27928298462e-08
2.20151488478e-07
-5.13290844134e-08
2.19798722391e-07
-4.97911954389e-08
2.19475914054e-07
-4.81817275181e-08
2.19184206938e-07
-4.65065227493e-08
2.18924627186e-07
-4.47684766906e-08
2.18698061569e-07
-4.29734664682e-08
2.18505232307e-07
-4.11245372232e-08
2.18346669128e-07
-3.92274061116e-08
2.18222682872e-07
-3.72850673782e-08
2.18133331884e-07
-3.5302875411e-08
2.18078394808e-07
-3.32835773915e-08
2.18057332644e-07
-3.12319825133e-08
2.18069262127e-07
-2.91504312179e-08
2.18112916137e-07
-2.70430623072e-08
2.18186620619e-07
-2.4911727145e-08
2.18288257929e-07
-2.27598752983e-08
2.18415252459e-07
-2.05889274624e-08
2.18564544645e-07
-1.84018253447e-08
2.18732595426e-07
-1.61999131883e-08
2.18915386869e-07
-1.39862920438e-08
2.19108469353e-07
-1.17634225526e-08
2.1930702933e-07
-9.53668027328e-09
2.19506048031e-07
-7.31301753718e-09
2.19700554336e-07
-5.10464202347e-09
2.19886054621e-07
-2.92746487869e-09
2.2005913591e-07
-8.00210232783e-10
2.20218213878e-07
1.24461405095e-09
2.20363208968e-07
3.18555954904e-09
2.20499818307e-07
5.04448877036e-09
2.20634235569e-07
6.82277995933e-09
2.20762666132e-07
8.50310761361e-09
2.20888132653e-07
1.00856461714e-08
2.21019429212e-07
1.15728866759e-08
2.211605367e-07
1.29666395809e-08
2.21315281412e-07
1.4269536241e-08
2.21486921893e-07
1.54837492977e-08
2.21678278736e-07