/*--------------------------------*- C++ -*----------------------------------*\
| =========                 |                                                 |
| \\      /  F ield         | OpenFOAM: The Open Source CFD Toolbox           |
|  \\    /   O peration     | Version:  2206                                  |
|   \\  /    A nd           | Website:  www.openfoam.com                      |
|    \\/     M anipulation  |                                                 |
\*---------------------------------------------------------------------------*/
FoamFile
{
    version     2.0;
    format      ascii;
    arch        "LSB;label=64;scalar=64";
    class       volScalarField;
    location    "2.6/water";
    object      reactingEulerHtcModel(T.liquid);
}
// * * * * * * * * * * * * * * * * * * * * * * * * * * * * * * * * * * * * * //

dimensions      [1 0 -3 -1 0 0 0];

internalField   uniform 0;

boundaryField
{
    maxY
    {
        type            calculated;
        value           uniform 0;
    }
    symmetric
    {
        type            symmetry;
    }
    maxX
    {
        type            calculated;
        value           uniform 0;
    }
    minY
    {
        type            calculated;
        value           uniform 0;
    }
    emptyPatch
    {
        type            empty;
    }
    water_to_solid
    {
        type            calculated;
        value           nonuniform List<scalar> 
70
(
-111.210166863
-111.48002258
-112.250212131
-112.490588711
-114.145321365
-117.831078495
-123.537962057
-135.688800673
-178.035563077
-224.761158429
-242.240854731
-240.963610464
-241.106749914
-243.489180243
-246.041744665
-220.096483429
-215.384536197
-209.481806198
-214.794082132
-207.243366571
-214.378014872
-206.634996664
-213.651610591
-205.728890443
-213.717199438
-207.485071429
-214.051652163
-209.06511896
-214.673309976
-212.479515051
-215.040990624
-214.925272384
-232.745674805
-247.040586583
-247.231155497
-243.553621514
-241.924099824
-243.286451597
-248.312943387
-142.532750746
-115.276448507
-105.148504781
-112.141635881
-102.920776574
-110.990352713
-102.286551977
-110.537417067
-103.13830387
-110.322940757
-103.905762433
-110.430287054
-105.282741742
-110.267159512
-106.811072339
-110.075845861
-107.974994567
-109.98470566
-109.57375662
-123.494462585
-231.187637336
-232.137393273
-232.667479251
-233.170252075
-233.62065734
-234.064257033
-234.81441784
-235.331376117
-235.816695164
-218.472206935
-235.561102419
)
;
    }
}


// ************************************************************************* //
