/*--------------------------------*- C++ -*----------------------------------*\
| =========                 |                                                 |
| \\      /  F ield         | OpenFOAM: The Open Source CFD Toolbox           |
|  \\    /   O peration     | Version:  2212                                  |
|   \\  /    A nd           | Website:  www.openfoam.com                      |
|    \\/     M anipulation  |                                                 |
\*---------------------------------------------------------------------------*/
FoamFile
{
    version     2.0;
    format      ascii;
    arch        "LSB;label=64;scalar=64";
    class       volScalarField::Internal;
    location    "1960";
    object      dGco2;
}
// * * * * * * * * * * * * * * * * * * * * * * * * * * * * * * * * * * * * * //

dimensions      [1 -3 -1 0 0 0 0];

value           nonuniform List<scalar> 
1024
(
0.00016653
0.000166581
0.000166709
0.000166946
0.000167332
0.000167913
0.000168741
0.000169862
0.000171305
0.00017307
0.00017511
0.000177329
0.000179599
0.000181788
0.000183794
0.000185541
0.000186829
0.000187489
0.000187573
0.000187193
0.000186442
0.000185427
0.000184272
0.000183107
0.00018204
0.000181144
0.000180446
0.000179939
0.000179597
0.000179385
0.000179269
0.000179222
0.000166545
0.000166598
0.000166727
0.000166966
0.000167356
0.000167942
0.000168778
0.000169908
0.000171362
0.000173137
0.000175186
0.00017741
0.000179682
0.000181871
0.000183876
0.000185622
0.000186913
0.000187578
0.000187666
0.000187289
0.000186537
0.000185518
0.000184357
0.000183182
0.000182105
0.000181198
0.000180491
0.000179978
0.000179632
0.000179417
0.000179301
0.000179253
0.000166585
0.000166639
0.000166772
0.000167016
0.000167413
0.000168012
0.000168864
0.000170015
0.000171493
0.000173291
0.000175358
0.000177594
0.000179869
0.000182056
0.000184059
0.000185808
0.000187111
0.000187792
0.000187896
0.000187525
0.000186768
0.000185732
0.000184549
0.00018335
0.000182248
0.000181319
0.000180595
0.000180069
0.000179715
0.000179496
0.000179378
0.00017933
0.000166659
0.000166715
0.000166852
0.000167104
0.000167515
0.000168135
0.000169015
0.000170201
0.000171717
0.000173552
0.000175648
0.0001779
0.00018018
0.000182364
0.000184367
0.000186127
0.000187458
0.00018818
0.000188316
0.000187957
0.000187183
0.000186108
0.000184875
0.000183629
0.000182486
0.000181522
0.000180771
0.000180227
0.000179863
0.000179639
0.000179519
0.000179471
0.000166777
0.000166835
0.000166978
0.000167243
0.000167674
0.000168323
0.000169244
0.00017048
0.000172052
0.000173938
0.000176073
0.000178346
0.000180629
0.000182811
0.000184819
0.000186607
0.000187998
0.000188797
0.000188994
0.000188655
0.000187848
0.000186699
0.000185379
0.000184051
0.000182841
0.000181827
0.000181041
0.000180476
0.0001801
0.000179872
0.000179751
0.000179704
0.000166949
0.00016701
0.000167161
0.000167442
0.000167899
0.000168588
0.000169564
0.000170866
0.000172509
0.00017446
0.000176641
0.000178938
0.000181226
0.000183409
0.000185434
0.000187278
0.000188776
0.000189703
0.000189999
0.000189692
0.000188837
0.000187576
0.000186119
0.000184664
0.000183354
0.00018227
0.00018144
0.000180851
0.000180465
0.000180235
0.000180116
0.000180071
0.000167183
0.000167247
0.000167409
0.000167709
0.000168199
0.000168938
0.000169981
0.000171364
0.000173091
0.000175117
0.000177351
0.000179673
0.000181968
0.000184161
0.000186226
0.000188165
0.000189827
0.000190945
0.000191387
0.000191136
0.000190228
0.000188827
0.000187186
0.000185554
0.000184102
0.000182922
0.000182035
0.000181418
0.000181022
0.000180794
0.000180681
0.000180639
0.000167484
0.000167552
0.000167724
0.000168047
0.000168576
0.000169372
0.000170492
0.000171966
0.000173786
0.000175893
0.000178183
0.000180532
0.000182841
0.000185059
0.000187192
0.000189273
0.00019116
0.000192534
0.000193179
0.000193029
0.0001921
0.000190566
0.000188719
0.000186864
0.000185225
0.000183914
0.00018295
0.000182296
0.00018189
0.000181665
0.00018156
0.000181524
0.00016785
0.000167923
0.000168106
0.000168452
0.000169021
0.000169879
0.000171079
0.000172648
0.000174565
0.000176755
0.000179101
0.000181482
0.000183814
0.000186075
0.000188303
0.000190561
0.000192719
0.000194406
0.000195328
0.000195369
0.000194515
0.000192926
0.000190912
0.000188829
0.000186965
0.000185481
0.000184407
0.000183696
0.000183269
0.000183043
0.000182944
0.000182914
0.000168273
0.000168348
0.000168542
0.00016891
0.000169518
0.000170433
0.000171712
0.000173372
0.000175382
0.00017765
0.000180051
0.000182466
0.000184828
0.000187141
0.00018947
0.00019191
0.000194347
0.000196386
0.000197681
0.000198066
0.000197476
0.000196022
0.000193992
0.000191764
0.000189689
0.000187996
0.000186764
0.000185954
0.000185476
0.000185229
0.000185125
0.000185097
0.000168733
0.000168811
0.000169013
0.000169399
0.000170038
0.000171002
0.000172346
0.000174083
0.000176171
0.000178507
0.000180956
0.0001834
0.000185782
0.000188127
0.00019052
0.000193082
0.000195745
0.000198145
0.000199927
0.000200871
0.000200832
0.000199833
0.000198087
0.000195944
0.000193784
0.000191909
0.000190479
0.00018951
0.000188924
0.000188614
0.000188479
0.00018844
0.000169205
0.000169284
0.000169491
0.000169887
0.000170545
0.000171539
0.000172925
0.000174714
0.000176855
0.000179235
0.00018171
0.000184155
0.000186516
0.000188821
0.000191167
0.000193707
0.000196461
0.00019919
0.00020156
0.000203288
0.000204125
0.000203977
0.000202938
0.000201271
0.000199324
0.00019744
0.000195864
0.000194708
0.00019396
0.000193535
0.000193333
0.000193265
0.000169652
0.000169732
0.00016994
0.000170336
0.000170996
0.000171994
0.000173388
0.000175187
0.000177338
0.000179718
0.00018217
0.000184557
0.000186806
0.000188936
0.000191043
0.000193323
0.000195948
0.000198905
0.0002019
0.000204565
0.00020653
0.000207573
0.000207657
0.00020692
0.000205623
0.000204083
0.000202596
0.000201368
0.000200487
0.000199938
0.00019965
0.000199543
0.000170031
0.00017011
0.000170313
0.000170699
0.000171339
0.000172308
0.000173663
0.000175415
0.00017751
0.00017982
0.000182172
0.000184401
0.000186405
0.000188169
0.000189787
0.000191507
0.000193719
0.00019672
0.000200276
0.00020391
0.000207114
0.000209527
0.000210986
0.000211512
0.00021126
0.00021048
0.000209453
0.000208435
0.000207599
0.000207018
0.000206685
0.000206548
0.00017028
0.000170357
0.000170551
0.000170915
0.000171513
0.000172415
0.000173675
0.000175308
0.000177261
0.000179407
0.000181556
0.000183512
0.000185126
0.000186339
0.00018723
0.000188102
0.000189593
0.00019238
0.000196331
0.00020087
0.000205332
0.000209183
0.000212117
0.000214041
0.000215027
0.000215259
0.000214982
0.000214452
0.000213887
0.000213428
0.000213133
0.000213002
0.000170319
0.000170394
0.000170576
0.000170908
0.000171443
0.000172241
0.000173349
0.000174784
0.000176501
0.00017838
0.000180226
0.000181817
0.000182954
0.000183527
0.000183578
0.000183435
0.000183951
0.000186196
0.000190244
0.000195515
0.00020121
0.000206584
0.000211116
0.000214549
0.00021686
0.000218186
0.000218753
0.000218821
0.000218635
0.000218384
0.000218184
0.000218083
0.000170069
0.000170141
0.00017031
0.000170609
0.000171076
0.000171757
0.000172688
0.000173886
0.000175315
0.000176871
0.000178374
0.000179597
0.000180312
0.000180362
0.000179741
0.000178737
0.00017828
0.000179695
0.000183357
0.000188883
0.000195506
0.000202318
0.000208522
0.000213606
0.000217371
0.000219869
0.00022131
0.000221978
0.000222164
0.000222115
0.000222005
0.000221931
0.00016957
0.00016964
0.000169799
0.000170073
0.000170487
0.000171072
0.000171853
0.000172841
0.000174008
0.00017527
0.000176472
0.000177406
0.000177849
0.000177625
0.000176693
0.000175286
0.000174295
0.000175051
0.000178084
0.000183296
0.000190162
0.000197837
0.000205363
0.000211956
0.000217163
0.000220873
0.00022323
0.000224519
0.000225076
0.000225215
0.000225179
0.000225123
0.000168934
0.000169001
0.000169154
0.00016941
0.000169787
0.000170304
0.000170976
0.000171805
0.000172767
0.000173793
0.000174758
0.000175484
0.000175774
0.000175467
0.000174511
0.000173104
0.000172067
0.000172604
0.000175224
0.000179988
0.000186617
0.000194485
0.000202688
0.000210311
0.000216677
0.000221472
0.000224711
0.00022663
0.000227576
0.000227914
0.000227954
0.000227915
0.000168253
0.000168316
0.000168459
0.000168696
0.000169042
0.000169508
0.000170099
0.00017081
0.000171617
0.00017246
0.000173239
0.000173812
0.000174024
0.000173748
0.000172955
0.000171843
0.000171145
0.000171847
0.000174355
0.000178786
0.000185018
0.000192636
0.00020094
0.000209061
0.000216202
0.000221861
0.000225887
0.000228417
0.000229767
0.000230323
0.000230449
0.000230427
0.000167674
0.000167726
0.000167843
0.000168045
0.000168344
0.000168752
0.000169269
0.000169883
0.000170566
0.000171267
0.000171905
0.000172378
0.00017258
0.000172438
0.000171975
0.000171406
0.000171347
0.000172493
0.000175107
0.000179328
0.000185143
0.000192299
0.000200291
0.000208419
0.000215917
0.000222162
0.000226835
0.00022993
0.000231688
0.000232479
0.000232704
0.000232704
0.000167435
0.00016746
0.000167524
0.000167648
0.000167855
0.000168163
0.000168577
0.000169086
0.00016966
0.000170253
0.000170806
0.00017126
0.000171566
0.000171713
0.000171771
0.00017197
0.000172756
0.000174497
0.000177319
0.000181371
0.000186734
0.000193307
0.000200745
0.000208509
0.000215962
0.000222483
0.000227621
0.000231207
0.000233363
0.000234405
0.000234742
0.000234768
0.000167851
0.000167829
0.000167797
0.000167784
0.000167826
0.000167963
0.000168219
0.000168594
0.000169067
0.000169603
0.000170172
0.000170754
0.000171349
0.00017199
0.000172766
0.000173883
0.000175581
0.000177921
0.000180933
0.000184787
0.000189636
0.000195509
0.000202218
0.000209372
0.000216461
0.000222943
0.000228326
0.000232295
0.000234817
0.000236118
0.000236583
0.000236641
0.000169258
0.000169165
0.000168994
0.000168783
0.000168595
0.000168499
0.000168552
0.000168786
0.000169201
0.000169786
0.000170532
0.000171443
0.000172536
0.000173849
0.000175448
0.000177481
0.000179986
0.000182789
0.000185879
0.000189459
0.000193729
0.000198812
0.000204656
0.000211016
0.000217506
0.000223675
0.000229057
0.000233256
0.000236084
0.000237637
0.000238243
0.000238339
0.000171933
0.00017175
0.000171412
0.000170985
0.000170564
0.000170251
0.000170141
0.000170305
0.000170779
0.000171566
0.000172663
0.000174069
0.000175781
0.000177801
0.00018015
0.000182909
0.000185961
0.000188999
0.000192008
0.000195224
0.00019887
0.000203121
0.00020802
0.000213453
0.000219162
0.000224793
0.000229936
0.000234176
0.000237209
0.000238985
0.000239734
0.000239877
0.000176057
0.000175772
0.000175281
0.000174704
0.000174169
0.000173794
0.000173687
0.000173951
0.000174641
0.000175762
0.000177297
0.000179214
0.000181476
0.000184041
0.000186884
0.000190034
0.000193294
0.000196309
0.000199081
0.000201858
0.000204869
0.000208297
0.000212243
0.000216684
0.000221481
0.00022639
0.000231078
0.00023515
0.000238246
0.000240184
0.00024107
0.000241266
0.000181715
0.000181333
0.000180775
0.000180231
0.000179836
0.000179674
0.000179819
0.000180369
0.000181379
0.000182844
0.000184731
0.000186986
0.000189544
0.000192338
0.000195316
0.000198482
0.000201614
0.000204375
0.000206787
0.000209085
0.000211479
0.000214141
0.000217185
0.000220647
0.000224474
0.000228528
0.000232573
0.000236275
0.000239263
0.000241266
0.000242259
0.000242512
0.000188959
0.000188522
0.00018807
0.000187841
0.000187894
0.00018821
0.000188793
0.000189706
0.00019099
0.000192648
0.000194649
0.000196942
0.000199455
0.000202121
0.000204883
0.000207734
0.000210472
0.000212813
0.000214786
0.000216596
0.000218419
0.000220398
0.000222639
0.000225199
0.000228078
0.000231217
0.000234483
0.000237632
0.000240332
0.000242271
0.000243316
0.00024362
0.000197895
0.000197504
0.000197421
0.000197776
0.000198447
0.000199306
0.000200298
0.000201457
0.000202821
0.00020442
0.000206245
0.000208264
0.000210424
0.000212667
0.000214948
0.000217256
0.000219429
0.000221251
0.000222753
0.000224092
0.000225404
0.000226795
0.000228351
0.000230129
0.000232148
0.000234398
0.000236822
0.000239278
0.000241518
0.000243245
0.000244258
0.000244594
0.000208773
0.000208629
0.000209147
0.000210102
0.000211227
0.000212377
0.000213504
0.000214637
0.000215824
0.000217114
0.000218524
0.000220044
0.000221642
0.000223282
0.000224929
0.000226575
0.000228107
0.000229378
0.000230409
0.000231312
0.000232176
0.000233075
0.000234068
0.000235196
0.000236484
0.000237937
0.000239542
0.000241238
0.000242878
0.000244239
0.000245112
0.00024544
0.000222061
0.000222387
0.000223341
0.000224414
0.000225465
0.000226438
0.000227314
0.000228124
0.000228912
0.000229725
0.000230586
0.000231498
0.000232448
0.000233416
0.000234382
0.000235341
0.000236228
0.000236959
0.000237548
0.000238057
0.000238537
0.000239028
0.000239565
0.000240172
0.000240863
0.000241648
0.000242525
0.000243478
0.000244445
0.000245305
0.000245911
0.00024617
0.000238321
0.000238574
0.000239062
0.00023953
0.000239956
0.000240336
0.000240665
0.000240956
0.000241229
0.000241502
0.000241786
0.000242085
0.000242394
0.000242708
0.000243021
0.000243331
0.000243616
0.000243851
0.000244039
0.000244201
0.000244352
0.000244506
0.000244673
0.000244861
0.000245074
0.000245315
0.000245586
0.000245883
0.000246191
0.000246479
0.000246698
0.000246804
)
;


// ************************************************************************* //
