/*--------------------------------*- C++ -*----------------------------------*\
| =========                 |                                                 |
| \\      /  F ield         | OpenFOAM: The Open Source CFD Toolbox           |
|  \\    /   O peration     | Version:  2212                                  |
|   \\  /    A nd           | Website:  www.openfoam.com                      |
|    \\/     M anipulation  |                                                 |
\*---------------------------------------------------------------------------*/
FoamFile
{
    version     2.0;
    format      ascii;
    arch        "LSB;label=64;scalar=64";
    class       volScalarField;
    location    "1960";
    object      Gch4;
}
// * * * * * * * * * * * * * * * * * * * * * * * * * * * * * * * * * * * * * //

dimensions      [1 -3 0 0 0 0 0];

internalField   nonuniform List<scalar> 
1024
(
1.87
1.86986
1.8695
1.86885
1.86779
1.86619
1.86392
1.86085
1.85689
1.85206
1.84649
1.84043
1.83425
1.8283
1.82286
1.81814
1.81466
1.81289
1.81267
1.81371
1.81575
1.8185
1.82162
1.82478
1.82767
1.8301
1.83199
1.83337
1.83429
1.83487
1.83518
1.83531
1.86996
1.86981
1.86945
1.86879
1.86772
1.86611
1.86382
1.86072
1.85674
1.85188
1.84628
1.84021
1.83402
1.82807
1.82264
1.81792
1.81444
1.81265
1.81242
1.81345
1.81549
1.81825
1.82139
1.82458
1.8275
1.82995
1.83187
1.83326
1.8342
1.83478
1.8351
1.83523
1.86984
1.86969
1.86933
1.86865
1.86756
1.86592
1.86358
1.86043
1.85638
1.85146
1.84581
1.83971
1.83351
1.82757
1.82214
1.81742
1.81391
1.81208
1.81181
1.81282
1.81487
1.81767
1.82088
1.82412
1.82711
1.82963
1.83159
1.83302
1.83398
1.83457
1.83489
1.83502
1.86963
1.86948
1.8691
1.86841
1.86728
1.86558
1.86317
1.85992
1.85577
1.85075
1.84502
1.83888
1.83267
1.82674
1.82131
1.81656
1.81297
1.81103
1.81067
1.81165
1.81375
1.81666
1.82
1.82337
1.82647
1.82908
1.83111
1.83259
1.83358
1.83418
1.83451
1.83464
1.86931
1.86915
1.86876
1.86803
1.86685
1.86507
1.86254
1.85916
1.85485
1.84969
1.84386
1.83766
1.83145
1.82553
1.82009
1.81527
1.81152
1.80937
1.80885
1.80977
1.81196
1.81507
1.81864
1.82223
1.82551
1.82826
1.83039
1.83192
1.83293
1.83355
1.83388
1.83401
1.86884
1.86867
1.86825
1.86748
1.86623
1.86434
1.86167
1.8581
1.85361
1.84827
1.84232
1.83606
1.82983
1.82391
1.81843
1.81346
1.80943
1.80693
1.80614
1.80698
1.8093
1.81271
1.81664
1.82058
1.82412
1.82706
1.82931
1.8309
1.83195
1.83257
1.83289
1.83302
1.86819
1.86802
1.86757
1.86675
1.86541
1.86338
1.86053
1.85674
1.85202
1.84648
1.84039
1.83406
1.82782
1.82188
1.8163
1.81107
1.8066
1.80359
1.80241
1.8031
1.80555
1.80933
1.81377
1.81818
1.8221
1.8253
1.8277
1.82937
1.83044
1.83106
1.83137
1.83148
1.86737
1.86718
1.86671
1.86582
1.86438
1.86219
1.85913
1.8551
1.85012
1.84437
1.83812
1.83173
1.82546
1.81946
1.8137
1.80809
1.80302
1.79932
1.79759
1.798
1.80051
1.80465
1.80964
1.81465
1.81908
1.82262
1.82523
1.827
1.82809
1.8287
1.82899
1.82909
1.86636
1.86616
1.86566
1.86472
1.86316
1.86081
1.85752
1.85323
1.848
1.84202
1.83563
1.82916
1.82284
1.81672
1.81071
1.80463
1.79883
1.7943
1.79182
1.79171
1.79401
1.7983
1.80373
1.80935
1.81438
1.81839
1.82129
1.82321
1.82437
1.82498
1.82525
1.82533
1.86521
1.865
1.86447
1.86346
1.8618
1.85929
1.8558
1.85126
1.84577
1.83959
1.83305
1.8265
1.8201
1.81386
1.80758
1.80102
1.79447
1.78899
1.78551
1.78447
1.78605
1.78997
1.79543
1.80144
1.80703
1.8116
1.81493
1.81711
1.81841
1.81907
1.81935
1.81943
1.86394
1.86373
1.86318
1.86212
1.86038
1.85774
1.85407
1.84932
1.84363
1.83726
1.8306
1.82398
1.81754
1.81121
1.80478
1.79789
1.79074
1.78429
1.7795
1.77695
1.77704
1.77972
1.78442
1.79018
1.796
1.80105
1.8049
1.80752
1.8091
1.80993
1.8103
1.8104
1.86265
1.86244
1.86187
1.86079
1.85899
1.85627
1.85249
1.84761
1.84177
1.83529
1.82857
1.82195
1.81557
1.80937
1.80307
1.79626
1.78887
1.78154
1.77516
1.77049
1.76822
1.7686
1.77138
1.77585
1.78108
1.78615
1.79039
1.7935
1.79552
1.79666
1.7972
1.79739
1.86143
1.86121
1.86065
1.85956
1.85776
1.85503
1.85123
1.84632
1.84046
1.83399
1.82734
1.82088
1.81482
1.8091
1.80346
1.79736
1.79033
1.78239
1.77432
1.76714
1.76182
1.75899
1.75874
1.7607
1.76417
1.76829
1.77228
1.77557
1.77794
1.77941
1.78019
1.78048
1.8604
1.86018
1.85963
1.85857
1.85682
1.85418
1.85048
1.84571
1.84001
1.83373
1.82735
1.82133
1.81594
1.81122
1.80691
1.80234
1.79644
1.78838
1.7788
1.769
1.76036
1.75383
1.74988
1.74843
1.74908
1.75114
1.75388
1.7566
1.75884
1.76039
1.76128
1.76165
1.85972
1.85951
1.85898
1.85798
1.85635
1.85389
1.85046
1.84601
1.84069
1.83486
1.82904
1.82376
1.81944
1.81622
1.81389
1.81162
1.80767
1.80019
1.78955
1.7773
1.76527
1.75487
1.74695
1.74174
1.73906
1.7384
1.73911
1.74051
1.74201
1.74323
1.74401
1.74436
1.85961
1.85941
1.85891
1.85801
1.85655
1.85437
1.85135
1.84744
1.84277
1.83767
1.83267
1.82838
1.82535
1.82387
1.82382
1.8243
1.82299
1.81698
1.80607
1.79185
1.77648
1.76198
1.74976
1.74049
1.73425
1.73065
1.7291
1.72889
1.72937
1.73002
1.73055
1.73082
1.8603
1.8601
1.85964
1.85883
1.85755
1.85569
1.85315
1.84989
1.84601
1.84178
1.83771
1.83442
1.83253
1.83246
1.83423
1.83704
1.83837
1.8346
1.82473
1.80981
1.79194
1.77356
1.75683
1.74312
1.73297
1.72623
1.72234
1.72052
1.72
1.72011
1.7204
1.72059
1.86167
1.86148
1.86104
1.86029
1.85916
1.85757
1.85544
1.85275
1.84957
1.84614
1.84289
1.84037
1.83921
1.83988
1.84248
1.84638
1.84915
1.84717
1.839
1.82494
1.8064
1.78569
1.76539
1.74763
1.7336
1.72361
1.71726
1.71377
1.71226
1.71187
1.71195
1.7121
1.86341
1.86322
1.86281
1.86211
1.86108
1.85967
1.85783
1.85557
1.85295
1.85016
1.84755
1.8456
1.84484
1.84572
1.84838
1.85228
1.85517
1.85378
1.84674
1.83388
1.81599
1.79476
1.77264
1.7521
1.73496
1.72205
1.71334
1.70817
1.70561
1.70469
1.70457
1.70467
1.86528
1.8651
1.86471
1.86406
1.86312
1.86184
1.86023
1.85829
1.85609
1.8538
1.85169
1.85014
1.84959
1.85038
1.85259
1.85568
1.85765
1.85582
1.84908
1.83713
1.82032
1.79976
1.77737
1.75549
1.73627
1.72105
1.71022
1.70342
1.69978
1.69827
1.69792
1.69798
1.86687
1.86673
1.86641
1.86585
1.86503
1.86392
1.8625
1.86083
1.85896
1.85706
1.85532
1.85405
1.85352
1.85394
1.85525
1.85686
1.8571
1.85407
1.84705
1.83567
1.81999
1.80068
1.77913
1.75724
1.73707
1.72027
1.70771
1.69939
1.69466
1.69253
1.69192
1.69191
1.86755
1.86748
1.8673
1.86696
1.86639
1.86554
1.8644
1.86301
1.86144
1.85983
1.85832
1.8571
1.85629
1.85592
1.85581
1.85534
1.8533
1.84866
1.84108
1.83016
1.8157
1.79798
1.77793
1.75702
1.73697
1.71943
1.70563
1.696
1.69021
1.6874
1.68649
1.68641
1.86646
1.86652
1.8666
1.86663
1.8665
1.86611
1.8654
1.86437
1.86308
1.86162
1.86007
1.8585
1.85691
1.85521
1.85316
1.8502
1.84568
1.83942
1.83134
1.82096
1.80789
1.79206
1.77397
1.75471
1.73564
1.71822
1.70376
1.6931
1.68633
1.68284
1.68158
1.68142
1.8627
1.86295
1.8634
1.86396
1.86446
1.8647
1.86454
1.86389
1.86275
1.86116
1.85915
1.85669
1.85376
1.85024
1.84596
1.84053
1.83383
1.82631
1.81801
1.80838
1.79687
1.78318
1.76743
1.75031
1.73285
1.71627
1.70182
1.69055
1.68296
1.67879
1.67716
1.6769
1.85552
1.85601
1.85692
1.85806
1.85918
1.86001
1.86029
1.85983
1.85854
1.85641
1.85345
1.84967
1.84506
1.83964
1.83333
1.82594
1.81775
1.8096
1.80152
1.79286
1.78304
1.77159
1.75839
1.74377
1.72842
1.71328
1.69947
1.6881
1.67996
1.6752
1.67319
1.6728
1.84444
1.84521
1.84653
1.84807
1.8495
1.8505
1.85077
1.85005
1.84818
1.84516
1.84102
1.83586
1.82978
1.82288
1.81525
1.80679
1.79804
1.78994
1.78249
1.77502
1.76691
1.75768
1.74706
1.7351
1.7222
1.70901
1.69643
1.6855
1.6772
1.672
1.66963
1.6691
1.82924
1.83026
1.83176
1.83322
1.83428
1.8347
1.8343
1.83281
1.83009
1.82614
1.82106
1.81499
1.80811
1.8006
1.79259
1.78409
1.77568
1.76826
1.76178
1.7556
1.74915
1.74199
1.73379
1.72447
1.71418
1.70329
1.69243
1.6825
1.67449
1.66912
1.66646
1.66578
1.80977
1.81094
1.81215
1.81277
1.81262
1.81177
1.81019
1.80773
1.80427
1.7998
1.79442
1.78825
1.78149
1.77432
1.76689
1.75923
1.75188
1.74559
1.74028
1.73542
1.73051
1.72519
1.71916
1.71227
1.70453
1.69609
1.68732
1.67887
1.67164
1.66645
1.66365
1.66283
1.78575
1.7868
1.78703
1.78607
1.78426
1.78195
1.77928
1.77616
1.77249
1.76818
1.76327
1.75784
1.75203
1.746
1.73987
1.73366
1.72782
1.72293
1.71889
1.71529
1.71176
1.70802
1.70383
1.69905
1.69362
1.68757
1.68107
1.67448
1.66847
1.66385
1.66114
1.66024
1.75653
1.75691
1.75552
1.75295
1.74993
1.74684
1.74381
1.74075
1.73756
1.73409
1.7303
1.72621
1.72191
1.7175
1.71307
1.70864
1.70453
1.70111
1.69834
1.69592
1.69359
1.69117
1.6885
1.68546
1.682
1.6781
1.67379
1.66924
1.66484
1.6612
1.65886
1.65799
1.72083
1.71995
1.71739
1.71451
1.71168
1.70907
1.70671
1.70453
1.70241
1.70023
1.69791
1.69546
1.6929
1.6903
1.6877
1.68512
1.68274
1.68077
1.67919
1.67782
1.67653
1.67521
1.67376
1.67213
1.67027
1.66817
1.66581
1.66325
1.66066
1.65836
1.65674
1.65605
1.67716
1.67648
1.67517
1.67391
1.67276
1.67174
1.67086
1.67008
1.66934
1.66861
1.66784
1.66704
1.66621
1.66536
1.66452
1.66369
1.66292
1.66229
1.66179
1.66135
1.66094
1.66053
1.66008
1.65958
1.659
1.65835
1.65763
1.65683
1.656
1.65523
1.65465
1.65437
)
;

boundaryField
{
    movingWall
    {
        type            fixedValue;
        value           uniform 1.6535;
    }
    fixedWalls
    {
        type            zeroGradient;
    }
    floor
    {
        type            zeroGradient;
    }
    frontAndBack
    {
        type            empty;
    }
}


// ************************************************************************* //
