/*--------------------------------*- C++ -*----------------------------------*\
| =========                 |                                                 |
| \\      /  F ield         | OpenFOAM: The Open Source CFD Toolbox           |
|  \\    /   O peration     | Version:  2212                                  |
|   \\  /    A nd           | Website:  www.openfoam.com                      |
|    \\/     M anipulation  |                                                 |
\*---------------------------------------------------------------------------*/
FoamFile
{
    version     2.0;
    format      ascii;
    arch        "LSB;label=64;scalar=64";
    class       volScalarField;
    location    "1960";
    object      Saa;
}
// * * * * * * * * * * * * * * * * * * * * * * * * * * * * * * * * * * * * * //

dimensions      [1 -3 0 0 0 0 0];

internalField   nonuniform List<scalar> 
1024
(
0.00548292
0.00548294
0.00548298
0.00548307
0.00548322
0.00548344
0.00548375
0.00548417
0.00548471
0.00548535
0.00548608
0.00548685
0.00548759
0.00548827
0.00548884
0.0054893
0.00548961
0.00548975
0.00548974
0.00548962
0.0054894
0.00548911
0.00548878
0.00548845
0.00548814
0.00548788
0.00548768
0.00548753
0.00548743
0.00548736
0.00548733
0.00548732
0.00548292
0.00548294
0.00548299
0.00548308
0.00548323
0.00548345
0.00548377
0.00548419
0.00548473
0.00548538
0.00548611
0.00548687
0.00548762
0.00548829
0.00548886
0.00548932
0.00548963
0.00548977
0.00548976
0.00548964
0.00548942
0.00548913
0.0054888
0.00548847
0.00548816
0.00548789
0.00548769
0.00548754
0.00548744
0.00548737
0.00548734
0.00548733
0.00548293
0.00548295
0.005483
0.0054831
0.00548325
0.00548347
0.0054838
0.00548423
0.00548478
0.00548543
0.00548616
0.00548693
0.00548767
0.00548834
0.00548891
0.00548937
0.00548968
0.00548982
0.00548982
0.00548969
0.00548947
0.00548918
0.00548885
0.00548851
0.00548819
0.00548793
0.00548772
0.00548756
0.00548746
0.00548739
0.00548736
0.00548735
0.00548296
0.00548298
0.00548303
0.00548313
0.00548329
0.00548352
0.00548385
0.00548429
0.00548485
0.00548552
0.00548626
0.00548703
0.00548776
0.00548843
0.00548899
0.00548944
0.00548976
0.00548991
0.00548991
0.00548979
0.00548957
0.00548927
0.00548893
0.00548858
0.00548825
0.00548798
0.00548776
0.00548761
0.0054875
0.00548743
0.0054874
0.00548738
0.005483
0.00548303
0.00548308
0.00548318
0.00548334
0.00548359
0.00548393
0.00548439
0.00548497
0.00548565
0.0054864
0.00548716
0.00548789
0.00548855
0.0054891
0.00548955
0.00548988
0.00549005
0.00549007
0.00548995
0.00548973
0.00548941
0.00548905
0.00548868
0.00548834
0.00548806
0.00548783
0.00548767
0.00548756
0.0054875
0.00548746
0.00548745
0.00548307
0.00548309
0.00548315
0.00548325
0.00548343
0.00548368
0.00548405
0.00548453
0.00548513
0.00548583
0.00548658
0.00548735
0.00548806
0.0054887
0.00548925
0.00548971
0.00549005
0.00549025
0.00549029
0.00549019
0.00548995
0.00548962
0.00548923
0.00548883
0.00548847
0.00548817
0.00548794
0.00548777
0.00548766
0.00548759
0.00548756
0.00548755
0.00548315
0.00548318
0.00548324
0.00548335
0.00548353
0.00548381
0.0054842
0.00548471
0.00548533
0.00548604
0.00548681
0.00548757
0.00548827
0.0054889
0.00548944
0.00548991
0.00549029
0.00549053
0.00549061
0.00549052
0.00549028
0.00548991
0.00548948
0.00548905
0.00548866
0.00548834
0.00548809
0.00548792
0.00548781
0.00548774
0.00548771
0.0054877
0.00548326
0.00548329
0.00548335
0.00548347
0.00548367
0.00548397
0.00548438
0.00548491
0.00548556
0.0054863
0.00548707
0.00548782
0.00548851
0.00548912
0.00548966
0.00549015
0.00549058
0.00549088
0.005491
0.00549095
0.0054907
0.00549031
0.00548984
0.00548936
0.00548893
0.00548859
0.00548833
0.00548815
0.00548804
0.00548797
0.00548794
0.00548793
0.0054834
0.00548343
0.00548349
0.00548362
0.00548383
0.00548415
0.00548458
0.00548515
0.00548582
0.00548657
0.00548734
0.00548808
0.00548876
0.00548936
0.00548991
0.00549043
0.0054909
0.00549127
0.00549147
0.00549146
0.00549125
0.00549086
0.00549036
0.00548984
0.00548936
0.00548898
0.0054887
0.00548851
0.0054884
0.00548834
0.00548831
0.0054883
0.00548355
0.00548358
0.00548365
0.00548379
0.00548401
0.00548434
0.0054848
0.00548539
0.00548609
0.00548685
0.00548762
0.00548835
0.00548901
0.0054896
0.00549014
0.00549069
0.00549122
0.00549166
0.00549195
0.00549204
0.0054919
0.00549156
0.00549108
0.00549054
0.00549003
0.00548961
0.0054893
0.00548909
0.00548897
0.00548891
0.00548888
0.00548887
0.00548372
0.00548375
0.00548382
0.00548396
0.00548419
0.00548454
0.00548502
0.00548562
0.00548634
0.0054871
0.00548787
0.00548858
0.00548922
0.00548979
0.00549033
0.00549087
0.00549144
0.00549196
0.00549236
0.0054926
0.00549261
0.0054924
0.00549201
0.00549152
0.00549101
0.00549057
0.00549022
0.00548999
0.00548984
0.00548977
0.00548974
0.00548973
0.00548389
0.00548392
0.00548399
0.00548414
0.00548437
0.00548472
0.00548521
0.00548582
0.00548654
0.00548731
0.00548806
0.00548875
0.00548935
0.00548988
0.00549037
0.00549088
0.00549144
0.00549203
0.00549257
0.005493
0.00549324
0.00549325
0.00549306
0.00549272
0.00549229
0.00549188
0.00549152
0.00549126
0.00549108
0.00549099
0.00549094
0.00549093
0.00548405
0.00548408
0.00548415
0.00548429
0.00548453
0.00548487
0.00548536
0.00548596
0.00548667
0.00548743
0.00548815
0.0054888
0.00548934
0.00548979
0.00549018
0.00549058
0.00549108
0.00549171
0.0054924
0.00549306
0.00549357
0.00549388
0.00549398
0.00549388
0.00549365
0.00549335
0.00549305
0.00549279
0.00549261
0.0054925
0.00549244
0.00549241
0.00548418
0.00548421
0.00548428
0.00548442
0.00548464
0.00548497
0.00548544
0.00548602
0.0054867
0.00548742
0.0054881
0.00548868
0.00548913
0.00548944
0.00548967
0.00548988
0.00549024
0.00549087
0.00549171
0.00549259
0.0054934
0.00549403
0.00549445
0.00549467
0.0054947
0.00549461
0.00549445
0.00549428
0.00549413
0.00549403
0.00549397
0.00549394
0.00548427
0.00548429
0.00548436
0.00548449
0.00548469
0.005485
0.00548543
0.00548596
0.00548659
0.00548725
0.00548786
0.00548835
0.00548867
0.0054888
0.0054888
0.00548876
0.00548891
0.00548948
0.00549042
0.00549153
0.00549264
0.00549361
0.00549436
0.00549489
0.00549521
0.00549536
0.00549539
0.00549535
0.00549529
0.00549523
0.00549519
0.00549517
0.00548427
0.0054843
0.00548436
0.00548448
0.00548466
0.00548493
0.0054853
0.00548577
0.00548632
0.00548689
0.00548741
0.00548779
0.00548797
0.00548791
0.00548766
0.00548732
0.0054872
0.00548763
0.0054886
0.00548992
0.00549134
0.00549267
0.00549379
0.00549465
0.00549525
0.00549563
0.00549585
0.00549594
0.00549597
0.00549597
0.00549596
0.00549596
0.00548418
0.0054842
0.00548426
0.00548436
0.00548452
0.00548476
0.00548507
0.00548546
0.00548592
0.00548639
0.00548681
0.00548709
0.00548716
0.00548697
0.00548653
0.00548595
0.00548556
0.00548576
0.00548664
0.00548804
0.00548971
0.00549141
0.00549292
0.00549415
0.00549506
0.00549568
0.00549607
0.00549629
0.0054964
0.00549644
0.00549645
0.00549645
0.00548399
0.00548402
0.00548407
0.00548417
0.00548431
0.00548451
0.00548477
0.0054851
0.00548548
0.00548586
0.0054862
0.00548642
0.00548643
0.00548618
0.00548568
0.005485
0.00548446
0.00548447
0.00548518
0.00548649
0.00548824
0.00549016
0.005492
0.00549358
0.0054948
0.00549568
0.00549625
0.00549658
0.00549676
0.00549684
0.00549686
0.00549687
0.00548375
0.00548378
0.00548383
0.00548392
0.00548405
0.00548423
0.00548446
0.00548474
0.00548505
0.00548538
0.00548565
0.00548582
0.00548581
0.00548557
0.00548509
0.00548444
0.00548389
0.00548383
0.00548441
0.0054856
0.00548728
0.00548925
0.00549125
0.00549307
0.00549454
0.00549564
0.00549639
0.00549684
0.00549709
0.00549721
0.00549725
0.00549726
0.00548349
0.00548351
0.00548356
0.00548365
0.00548378
0.00548394
0.00548415
0.00548439
0.00548466
0.00548493
0.00548516
0.0054853
0.00548528
0.00548508
0.00548468
0.00548413
0.00548368
0.00548366
0.00548419
0.00548527
0.00548684
0.00548874
0.00549077
0.00549269
0.00549433
0.0054956
0.0054965
0.00549707
0.0054974
0.00549755
0.00549761
0.00549762
0.00548324
0.00548326
0.00548331
0.00548339
0.0054835
0.00548365
0.00548384
0.00548406
0.00548429
0.00548452
0.00548471
0.00548483
0.00548483
0.00548468
0.00548439
0.00548402
0.00548376
0.00548385
0.00548439
0.0054854
0.00548685
0.00548862
0.00549056
0.00549248
0.00549419
0.00549557
0.00549659
0.00549727
0.00549767
0.00549786
0.00549794
0.00549795
0.00548308
0.00548309
0.00548313
0.00548319
0.00548328
0.00548341
0.00548357
0.00548376
0.00548396
0.00548415
0.00548432
0.00548444
0.00548447
0.00548442
0.00548429
0.00548413
0.00548411
0.00548436
0.00548495
0.0054859
0.00548721
0.00548883
0.00549062
0.00549244
0.00549413
0.00549557
0.00549667
0.00549744
0.0054979
0.00549814
0.00549824
0.00549826
0.00548308
0.00548308
0.00548309
0.00548312
0.00548317
0.00548326
0.00548338
0.00548353
0.0054837
0.00548388
0.00548404
0.00548419
0.0054843
0.00548438
0.00548444
0.00548455
0.00548477
0.00548519
0.00548583
0.00548672
0.00548789
0.00548932
0.00549092
0.00549259
0.00549419
0.00549561
0.00549675
0.00549758
0.00549811
0.00549839
0.00549851
0.00549853
0.00548332
0.0054833
0.00548328
0.00548326
0.00548326
0.00548329
0.00548335
0.00548347
0.00548362
0.0054838
0.005484
0.00548422
0.00548445
0.0054847
0.00548498
0.00548534
0.00548579
0.00548633
0.00548699
0.00548781
0.00548883
0.00549005
0.00549143
0.00549291
0.00549437
0.00549571
0.00549684
0.00549771
0.00549829
0.00549861
0.00549875
0.00549879
0.00548387
0.00548383
0.00548377
0.0054837
0.00548363
0.00548361
0.00548363
0.00548372
0.00548387
0.00548409
0.00548437
0.0054847
0.00548507
0.0054855
0.00548598
0.00548652
0.00548713
0.00548775
0.0054884
0.00548913
0.00548998
0.00549099
0.00549214
0.0054934
0.00549467
0.00549589
0.00549697
0.00549784
0.00549845
0.00549881
0.00549897
0.00549901
0.00548475
0.00548469
0.00548459
0.00548448
0.00548439
0.00548434
0.00548436
0.00548446
0.00548465
0.00548494
0.0054853
0.00548575
0.00548625
0.00548681
0.00548742
0.00548808
0.00548875
0.00548939
0.00548999
0.00549061
0.00549131
0.00549211
0.00549303
0.00549405
0.00549512
0.00549618
0.00549716
0.00549799
0.0054986
0.00549899
0.00549917
0.00549922
0.00548598
0.0054859
0.00548579
0.00548568
0.00548561
0.0054856
0.00548566
0.00548582
0.00548607
0.00548643
0.00548687
0.00548738
0.00548796
0.00548857
0.00548922
0.0054899
0.00549057
0.00549116
0.00549168
0.00549219
0.00549274
0.00549336
0.00549406
0.00549485
0.0054957
0.00549657
0.00549742
0.00549817
0.00549876
0.00549914
0.00549934
0.0054994
0.00548756
0.00548747
0.00548737
0.00548733
0.00548736
0.00548744
0.00548759
0.00548782
0.00548813
0.00548851
0.00548897
0.0054895
0.00549006
0.00549065
0.00549126
0.00549188
0.00549247
0.00549297
0.0054934
0.0054938
0.00549421
0.00549467
0.00549518
0.00549576
0.0054964
0.00549707
0.00549776
0.00549839
0.00549892
0.00549929
0.00549949
0.00549955
0.0054895
0.00548941
0.0054894
0.00548948
0.00548964
0.00548984
0.00549007
0.00549034
0.00549065
0.00549102
0.00549144
0.0054919
0.00549238
0.00549288
0.00549338
0.00549389
0.00549436
0.00549475
0.00549508
0.00549537
0.00549567
0.00549598
0.00549634
0.00549674
0.00549719
0.00549767
0.00549818
0.00549867
0.00549911
0.00549944
0.00549962
0.00549969
0.00549184
0.00549181
0.00549192
0.00549213
0.00549238
0.00549264
0.00549289
0.00549315
0.00549342
0.00549372
0.00549403
0.00549438
0.00549474
0.0054951
0.00549547
0.00549583
0.00549616
0.00549644
0.00549666
0.00549686
0.00549705
0.00549725
0.00549748
0.00549773
0.00549802
0.00549833
0.00549867
0.00549901
0.00549933
0.00549958
0.00549974
0.0054998
0.00549469
0.00549476
0.00549496
0.00549519
0.00549542
0.00549563
0.00549583
0.00549601
0.00549619
0.00549637
0.00549657
0.00549677
0.00549699
0.0054972
0.00549742
0.00549763
0.00549782
0.00549798
0.00549811
0.00549822
0.00549833
0.00549844
0.00549856
0.00549869
0.00549885
0.00549902
0.0054992
0.00549939
0.00549958
0.00549974
0.00549985
0.00549989
0.00549814
0.00549819
0.0054983
0.0054984
0.00549849
0.00549857
0.00549865
0.00549871
0.00549877
0.00549883
0.0054989
0.00549897
0.00549904
0.00549911
0.00549918
0.00549924
0.00549931
0.00549936
0.0054994
0.00549943
0.00549947
0.0054995
0.00549954
0.00549958
0.00549963
0.00549968
0.00549974
0.0054998
0.00549986
0.00549991
0.00549995
0.00549997
)
;

boundaryField
{
    movingWall
    {
        type            fixedValue;
        value           uniform 0.0055;
    }
    fixedWalls
    {
        type            zeroGradient;
    }
    floor
    {
        type            zeroGradient;
    }
    frontAndBack
    {
        type            empty;
    }
}


// ************************************************************************* //
