/*--------------------------------*- C++ -*----------------------------------*\
| =========                 |                                                 |
| \\      /  F ield         | OpenFOAM: The Open Source CFD Toolbox           |
|  \\    /   O peration     | Version:  2212                                  |
|   \\  /    A nd           | Website:  www.openfoam.com                      |
|    \\/     M anipulation  |                                                 |
\*---------------------------------------------------------------------------*/
FoamFile
{
    version     2.0;
    format      ascii;
    arch        "LSB;label=64;scalar=64";
    class       volScalarField;
    location    "1960";
    object      Sco2;
}
// * * * * * * * * * * * * * * * * * * * * * * * * * * * * * * * * * * * * * //

dimensions      [1 -3 0 0 0 0 0];

internalField   nonuniform List<scalar> 
1024
(
0.00634769
0.00634965
0.00635453
0.00636357
0.00637827
0.00640043
0.00643198
0.0064747
0.00652973
0.00659702
0.00667476
0.00675935
0.00684586
0.00692931
0.00700578
0.00707235
0.00712147
0.00714662
0.00714983
0.00713532
0.00710669
0.007068
0.007024
0.00697958
0.00693891
0.00690475
0.00687815
0.00685885
0.00684581
0.00683771
0.0068333
0.0068315
0.00634829
0.00635028
0.00635523
0.00636435
0.00637918
0.00640155
0.00643339
0.00647646
0.00653189
0.00659957
0.00667764
0.00676244
0.00684902
0.00693246
0.00700888
0.00707545
0.00712466
0.00715
0.00715338
0.00713898
0.00711034
0.0070715
0.00702723
0.00698246
0.0069414
0.00690683
0.00687988
0.00686033
0.00684713
0.00683895
0.00683449
0.00683269
0.00634982
0.00635187
0.00635692
0.00636623
0.00638138
0.00640421
0.00643669
0.00648057
0.00653689
0.00660543
0.00668421
0.00676943
0.00685616
0.00693953
0.00701588
0.00708255
0.00713219
0.00715817
0.00716211
0.00714797
0.00711912
0.00707964
0.00703453
0.00698884
0.00694685
0.00691145
0.00688382
0.00686378
0.00685028
0.00684195
0.00683743
0.00683561
0.00635264
0.00635475
0.00635998
0.0063696
0.00638527
0.00640888
0.00644243
0.00648764
0.00654543
0.00661538
0.00669526
0.00678112
0.006868
0.00695127
0.0070276
0.00709469
0.00714543
0.00717294
0.00717815
0.00716447
0.00713497
0.00709396
0.00704699
0.00699949
0.0069559
0.00691917
0.00689054
0.00686982
0.00685592
0.0068474
0.00684282
0.00684099
0.00635713
0.00635934
0.0063648
0.00637488
0.0063913
0.00641606
0.00645116
0.00649829
0.00655818
0.00663009
0.00671145
0.00679809
0.00688514
0.00696831
0.00704483
0.00711298
0.00716602
0.00719648
0.007204
0.00719108
0.00716032
0.0071165
0.00706618
0.00701556
0.00696943
0.00693078
0.00690083
0.00687929
0.00686497
0.00685628
0.00685168
0.00684987
0.00636367
0.006366
0.00637177
0.00638245
0.0063999
0.00642618
0.00646336
0.00651301
0.0065756
0.00664997
0.00673312
0.00682066
0.00690789
0.00699109
0.00706829
0.00713858
0.00719566
0.00723102
0.0072423
0.0072306
0.00719799
0.00714992
0.00709439
0.00703894
0.00698901
0.0069477
0.00691605
0.00689358
0.00687886
0.0068701
0.00686558
0.00686385
0.00637259
0.00637505
0.0063812
0.00639263
0.00641134
0.00643951
0.00647925
0.00653197
0.00659779
0.00667501
0.00676017
0.00684868
0.00693617
0.00701975
0.00709846
0.0071724
0.00723573
0.00727837
0.00729521
0.00728561
0.00725103
0.00719762
0.00713508
0.00707285
0.00701752
0.00697255
0.00693873
0.00691519
0.00690013
0.00689142
0.00688709
0.00688553
0.00638406
0.00638668
0.00639324
0.00640553
0.00642568
0.00645605
0.00649872
0.00655491
0.00662429
0.00670461
0.00679188
0.00688144
0.00696945
0.00705399
0.0071353
0.00721462
0.00728653
0.00733891
0.00736352
0.00735779
0.00732239
0.00726391
0.0071935
0.0071228
0.00706031
0.00701036
0.00697361
0.00694868
0.00693321
0.00692463
0.0069206
0.00691926
0.00639803
0.00640079
0.00640779
0.00642096
0.00644266
0.00647535
0.00652111
0.00658093
0.006654
0.00673746
0.00682688
0.00691764
0.00700652
0.00709271
0.00717763
0.00726372
0.00734597
0.00741027
0.00744544
0.007447
0.00741443
0.00735385
0.00727708
0.0071977
0.00712665
0.00707008
0.00702915
0.00700205
0.00698578
0.00697715
0.00697336
0.00697224
0.00641414
0.00641702
0.00642442
0.00643843
0.00646159
0.0064965
0.00654523
0.00660853
0.00668511
0.00677157
0.0068631
0.00695516
0.00704518
0.00713333
0.00722214
0.00731514
0.00740803
0.00748574
0.00753509
0.0075498
0.0075273
0.00747188
0.00739449
0.00730958
0.00723048
0.00716594
0.00711898
0.00708812
0.00706989
0.00706047
0.00705651
0.00705542
0.00643168
0.00643467
0.00644237
0.00645705
0.00648141
0.00651816
0.00656938
0.00663562
0.00671521
0.00680425
0.0068976
0.00699075
0.00708156
0.00717093
0.00726214
0.00735982
0.0074613
0.00755281
0.00762071
0.0076567
0.00765523
0.00761714
0.00755059
0.00746891
0.00738658
0.0073151
0.0072606
0.00722365
0.00720131
0.0071895
0.00718436
0.00718286
0.00644966
0.00645271
0.00646058
0.00647566
0.00650074
0.00653865
0.00659148
0.00665967
0.00674128
0.006832
0.00692632
0.00701953
0.00710953
0.0071974
0.00728682
0.00738364
0.0074886
0.00759263
0.00768297
0.00774883
0.00778076
0.00777509
0.0077355
0.00767195
0.00759775
0.00752591
0.00746585
0.0074218
0.00739326
0.00737706
0.00736936
0.00736678
0.00646673
0.00646978
0.00647768
0.00649278
0.00651793
0.006556
0.00660911
0.0066777
0.00675967
0.00685039
0.00694388
0.00703484
0.00712059
0.00720175
0.00728207
0.00736898
0.00746907
0.00758175
0.00769593
0.0077975
0.00787243
0.00791216
0.00791536
0.00788727
0.00783782
0.00777913
0.00772245
0.00767566
0.00764208
0.00762113
0.00761017
0.00760607
0.00648114
0.00648416
0.0064919
0.00650661
0.00653102
0.00656796
0.00661959
0.00668638
0.00676623
0.00685428
0.00694394
0.00702892
0.00710528
0.00717255
0.00723421
0.00729977
0.00738409
0.00749847
0.00763402
0.00777253
0.00789466
0.00798664
0.00804227
0.0080623
0.00805272
0.00802298
0.00798385
0.00794504
0.00791316
0.00789102
0.0078783
0.0078731
0.00649064
0.00649359
0.00650099
0.00651486
0.00653767
0.00657203
0.00662006
0.0066823
0.00675676
0.00683853
0.00692047
0.00699503
0.00705653
0.0071028
0.00713675
0.00716998
0.0072268
0.00733306
0.00748365
0.00765668
0.00782673
0.00797354
0.00808538
0.00815871
0.00819629
0.00820513
0.00819457
0.00817439
0.00815285
0.00813534
0.00812411
0.0081191
0.00649215
0.006495
0.00650193
0.00651458
0.00653499
0.00656538
0.00660762
0.00666232
0.0067278
0.00679939
0.00686978
0.00693042
0.00697377
0.00699559
0.00699754
0.0069921
0.00701174
0.00709732
0.00725161
0.00745254
0.00766962
0.00787449
0.0080472
0.00817807
0.00826618
0.00831671
0.00833831
0.00834091
0.00833381
0.00832426
0.00831664
0.00831277
0.00648261
0.00648535
0.00649179
0.00650317
0.006521
0.00654693
0.00658245
0.0066281
0.00668258
0.00674188
0.00679919
0.0068458
0.00687306
0.00687496
0.00685127
0.00681302
0.00679559
0.00684955
0.0069891
0.00719976
0.0074522
0.00771184
0.00794834
0.00814214
0.00828565
0.00838086
0.00843579
0.00846126
0.00846835
0.00846647
0.00846227
0.00845945
0.00646358
0.00646624
0.00647233
0.00648275
0.00649854
0.00652083
0.00655061
0.00658827
0.00663277
0.00668086
0.00672668
0.00676228
0.00677915
0.00677062
0.00673511
0.00668148
0.00664369
0.00667251
0.00678812
0.00698678
0.00724849
0.00754104
0.00782793
0.00807923
0.00827771
0.00841914
0.00850896
0.0085581
0.00857934
0.00858463
0.00858327
0.00858114
0.00643933
0.00644191
0.00644774
0.00645749
0.00647187
0.00649158
0.00651717
0.00654876
0.00658545
0.00662457
0.00666134
0.00668901
0.00670009
0.00668837
0.00665194
0.0065983
0.00655878
0.00657925
0.0066791
0.00686071
0.00711339
0.00741327
0.00772596
0.00801651
0.00825918
0.00844197
0.00856542
0.00863856
0.00867464
0.00868751
0.00868905
0.00868754
0.00641338
0.0064158
0.00642123
0.00643028
0.00644347
0.00646123
0.00648375
0.00651086
0.0065416
0.00657374
0.00660343
0.0066253
0.00663338
0.00662284
0.00659263
0.00655024
0.00652364
0.00655039
0.00664598
0.0068149
0.00705241
0.00734281
0.00765933
0.00796888
0.00824109
0.0084568
0.00861025
0.0087067
0.00875816
0.00877933
0.00878414
0.00878332
0.00639133
0.00639328
0.00639778
0.00640545
0.00641686
0.0064324
0.0064521
0.00647551
0.00650156
0.00652827
0.00655259
0.00657062
0.00657831
0.00657293
0.00655524
0.00653356
0.00653131
0.00657499
0.00667466
0.00683555
0.00705718
0.00732995
0.00763461
0.00794442
0.0082302
0.00846828
0.00864638
0.00876438
0.00883138
0.00886153
0.0088701
0.0088701
0.00638221
0.00638315
0.0063856
0.00639033
0.00639821
0.00640995
0.00642575
0.00644516
0.00646703
0.00648961
0.00651071
0.00652801
0.00653967
0.00654527
0.00654747
0.00655506
0.00658501
0.00665138
0.00675896
0.00691342
0.00711784
0.00736837
0.0076519
0.00794783
0.00823193
0.00848051
0.00867633
0.00881305
0.0088952
0.00893492
0.0089478
0.00894879
0.00639807
0.00639722
0.00639602
0.0063955
0.00639712
0.00640234
0.00641209
0.00642639
0.0064444
0.00646486
0.00648655
0.00650873
0.00653141
0.00655582
0.0065854
0.006628
0.00669272
0.00678191
0.00689671
0.00704363
0.00722846
0.00745231
0.00770807
0.00798074
0.00825094
0.00849804
0.00870321
0.0088545
0.00895063
0.00900022
0.00901797
0.00902017
0.00645168
0.00644816
0.00644164
0.00643361
0.00642643
0.00642276
0.0064248
0.0064337
0.00644954
0.00647183
0.00650025
0.00653496
0.00657666
0.00662669
0.00668764
0.00676514
0.00686062
0.00696747
0.00708525
0.00722172
0.00738448
0.00757821
0.00780097
0.00804339
0.00829077
0.00852592
0.00873108
0.00889115
0.00899894
0.00905814
0.00908122
0.0090849
0.00655367
0.0065467
0.00653381
0.00651754
0.00650147
0.00648954
0.00648535
0.00649162
0.00650966
0.00653966
0.00658149
0.00663506
0.00670032
0.00677735
0.00686689
0.00697202
0.00708838
0.00720416
0.00731887
0.00744144
0.00758045
0.00774245
0.00792922
0.0081363
0.00835391
0.00856857
0.0087646
0.0089262
0.00904181
0.0091095
0.00913808
0.00914353
0.00671085
0.00669998
0.00668129
0.0066593
0.0066389
0.0066246
0.00662054
0.00663057
0.00665687
0.00669961
0.0067581
0.00683121
0.00691742
0.0070152
0.00712355
0.00724364
0.0073679
0.00748281
0.00758846
0.00769434
0.0078091
0.00793978
0.00809017
0.00825947
0.00844231
0.00862943
0.00880812
0.00896335
0.00908135
0.00915522
0.00918898
0.00919646
0.00692651
0.00691198
0.00689068
0.00686995
0.0068549
0.00684874
0.00685426
0.00687521
0.00691371
0.00696956
0.00704148
0.00712746
0.00722496
0.00733145
0.00744496
0.00756563
0.00768501
0.00779028
0.00788219
0.00796979
0.00806106
0.00816251
0.00827856
0.00841052
0.0085564
0.00871091
0.00886511
0.00900624
0.00912011
0.00919645
0.00923432
0.00924395
0.00720264
0.00718597
0.00716878
0.00716005
0.00716204
0.0071741
0.00719631
0.00723111
0.00728008
0.00734325
0.00741955
0.00750693
0.00760274
0.00770436
0.00780964
0.00791832
0.00802268
0.0081119
0.00818711
0.00825612
0.0083256
0.00840102
0.00848644
0.00858402
0.00869376
0.00881343
0.0089379
0.00905795
0.00916086
0.00923475
0.00927461
0.00928618
0.00754326
0.00752837
0.00752521
0.00753871
0.00756432
0.00759705
0.00763487
0.00767905
0.00773105
0.00779197
0.00786156
0.00793852
0.00802083
0.00810635
0.00819327
0.00828124
0.00836409
0.00843356
0.00849079
0.00854184
0.00859182
0.00864486
0.00870419
0.00877193
0.00884891
0.00893468
0.00902707
0.0091207
0.00920608
0.00927189
0.00931053
0.00932331
0.00795791
0.00795243
0.00797217
0.00800858
0.00805143
0.00809527
0.00813823
0.00818144
0.00822666
0.00827583
0.0083296
0.00838754
0.00844846
0.00851096
0.00857374
0.00863649
0.00869489
0.00874331
0.00878262
0.00881702
0.00884997
0.00888424
0.00892209
0.00896511
0.00901418
0.00906958
0.00913075
0.00919539
0.00925792
0.0093098
0.00934307
0.00935557
0.00846442
0.00847686
0.0085132
0.00855412
0.00859417
0.00863124
0.00866464
0.00869554
0.00872556
0.00875653
0.00878935
0.00882413
0.00886034
0.00889723
0.00893406
0.00897062
0.00900443
0.0090323
0.00905474
0.00907414
0.00909243
0.00911117
0.00913164
0.00915476
0.00918112
0.009211
0.00924445
0.00928077
0.00931763
0.00935043
0.00937352
0.00938339
0.0090842
0.00909383
0.00911243
0.00913027
0.00914654
0.009161
0.00917354
0.00918466
0.00919505
0.00920545
0.00921629
0.00922766
0.00923945
0.00925143
0.00926336
0.00927516
0.00928604
0.00929499
0.00930217
0.00930833
0.0093141
0.00931997
0.00932633
0.00933348
0.0093416
0.0093508
0.00936112
0.00937244
0.0093842
0.00939516
0.00940351
0.00940754
)
;

boundaryField
{
    movingWall
    {
        type            fixedValue;
        value           uniform 0.00942;
    }
    fixedWalls
    {
        type            zeroGradient;
    }
    floor
    {
        type            zeroGradient;
    }
    frontAndBack
    {
        type            empty;
    }
}


// ************************************************************************* //
