/*--------------------------------*- C++ -*----------------------------------*\
| =========                 |                                                 |
| \\      /  F ield         | OpenFOAM: The Open Source CFD Toolbox           |
|  \\    /   O peration     | Version:  2212                                  |
|   \\  /    A nd           | Website:  www.openfoam.com                      |
|    \\/     M anipulation  |                                                 |
\*---------------------------------------------------------------------------*/
FoamFile
{
    version     2.0;
    format      ascii;
    arch        "LSB;label=64;scalar=64";
    class       volVectorField;
    location    "1960";
    object      U;
}
// * * * * * * * * * * * * * * * * * * * * * * * * * * * * * * * * * * * * * //

dimensions      [0 1 -1 0 0 0 0];

internalField   nonuniform List<vector> 
1024
(
(2.22999e-06 -2.23012e-06 0)
(5.08174e-06 -1.62528e-06 0)
(-1.64909e-06 7.47092e-07 0)
(-2.42198e-05 3.00387e-06 0)
(-6.3547e-05 4.22206e-06 0)
(-0.000115397 4.29028e-06 0)
(-0.000173479 3.67923e-06 0)
(-0.000234042 3.08899e-06 0)
(-0.000299461 3.02055e-06 0)
(-0.000378218 3.56887e-06 0)
(-0.000481572 4.51528e-06 0)
(-0.000619933 5.61756e-06 0)
(-0.000800839 6.6931e-06 0)
(-0.00102643 7.5287e-06 0)
(-0.0012864 7.70784e-06 0)
(-0.00153282 6.02922e-06 0)
(-0.0016386 8.23886e-07 0)
(-0.00144652 -9.29792e-06 0)
(-0.000906329 -2.224e-05 0)
(-0.000132608 -3.11318e-05 0)
(0.000710779 -3.00428e-05 0)
(0.00125874 -1.59445e-05 0)
(0.00145083 3.36083e-06 0)
(0.00136824 1.58003e-05 0)
(0.00115156 2.13663e-05 0)
(0.000894847 2.33714e-05 0)
(0.000641734 2.38877e-05 0)
(0.000412542 2.32926e-05 0)
(0.000222024 2.05171e-05 0)
(8.48915e-05 1.37782e-05 0)
(1.08277e-05 2.7747e-06 0)
(-5.86027e-06 -5.98316e-06 0)
(1.82395e-06 -5.27201e-06 0)
(-4.18022e-06 4.13697e-06 0)
(-3.80134e-05 2.44881e-05 0)
(-0.000112658 4.48119e-05 0)
(-0.000231566 5.77187e-05 0)
(-0.000387216 6.10153e-05 0)
(-0.000566349 5.76553e-05 0)
(-0.000760469 5.33971e-05 0)
(-0.000975149 5.30805e-05 0)
(-0.00123103 5.81582e-05 0)
(-0.00155602 6.69513e-05 0)
(-0.00197531 7.6742e-05 0)
(-0.00250409 8.48585e-05 0)
(-0.00313846 8.80856e-05 0)
(-0.00383435 8.07008e-05 0)
(-0.0044467 5.22442e-05 0)
(-0.00464876 -1.11702e-05 0)
(-0.00406338 -0.000116325 0)
(-0.00262205 -0.000240262 0)
(-0.000628191 -0.0003367 0)
(0.0015857 -0.000327714 0)
(0.00304462 -0.000195506 0)
(0.00364529 -2.29963e-05 0)
(0.00354815 0.000113623 0)
(0.00306992 0.000196563 0)
(0.00244244 0.000241406 0)
(0.00179336 0.000261878 0)
(0.00119282 0.000261198 0)
(0.000688204 0.000233862 0)
(0.000315154 0.000173817 0)
(9.23364e-05 8.79923e-05 0)
(3.55478e-06 1.1143e-05 0)
(-6.55043e-07 1.32685e-06 0)
(-2.75424e-05 3.82638e-05 0)
(-0.000103338 9.5e-05 0)
(-0.000244523 0.000149978 0)
(-0.000455207 0.000186404 0)
(-0.000726625 0.000198221 0)
(-0.00104257 0.000192068 0)
(-0.00139279 0.000182441 0)
(-0.00178564 0.000182242 0)
(-0.00224972 0.000195736 0)
(-0.00282308 0.000218576 0)
(-0.00353807 0.000242829 0)
(-0.00440808 0.000260076 0)
(-0.00541118 0.000260152 0)
(-0.00645683 0.00022669 0)
(-0.00730618 0.000133631 0)
(-0.00748864 -5.43039e-05 0)
(-0.00649489 -0.000348088 0)
(-0.00432822 -0.000682178 0)
(-0.00146061 -0.000954259 0)
(0.00178846 -0.000941785 0)
(0.00402187 -0.000594557 0)
(0.00508841 -0.000137039 0)
(0.00513498 0.000250351 0)
(0.0045652 0.000508109 0)
(0.00371414 0.000662486 0)
(0.00278499 0.000741012 0)
(0.00190064 0.000751129 0)
(0.00114221 0.000684164 0)
(0.000563505 0.000533589 0)
(0.000193442 0.000317958 0)
(1.67628e-05 9.26999e-05 0)
(-3.89326e-06 2.77809e-05 0)
(-5.97762e-05 0.000124047 0)
(-0.000191653 0.000243504 0)
(-0.000417168 0.000353595 0)
(-0.000737866 0.000426949 0)
(-0.0011429 0.000453474 0)
(-0.00161511 0.000445462 0)
(-0.002145 0.000429642 0)
(-0.00274348 0.000430022 0)
(-0.00344234 0.00045455 0)
(-0.00428138 0.000494707 0)
(-0.00528996 0.000534269 0)
(-0.00646892 0.0005553 0)
(-0.00776835 0.000536418 0)
(-0.00904741 0.000446079 0)
(-0.00999271 0.000238585 0)
(-0.0100538 -0.000149856 0)
(-0.00868274 -0.000727412 0)
(-0.00602274 -0.00135943 0)
(-0.00266495 -0.00188435 0)
(0.0011219 -0.0019031 0)
(0.00400356 -0.00128007 0)
(0.00558059 -0.000414502 0)
(0.00592889 0.000362206 0)
(0.00543694 0.000912978 0)
(0.00452579 0.00126463 0)
(0.00346031 0.0014579 0)
(0.00240904 0.00150502 0)
(0.00148368 0.00139634 0)
(0.000756781 0.00112731 0)
(0.00027291 0.000725138 0)
(2.66017e-05 0.00025321 0)
(-7.6246e-06 8.55847e-05 0)
(-9.88677e-05 0.000290692 0)
(-0.000299829 0.000510943 0)
(-0.000628149 0.000701928 0)
(-0.00107959 0.000826458 0)
(-0.00163889 0.000873109 0)
(-0.00228784 0.000863678 0)
(-0.00301848 0.000840415 0)
(-0.00384279 0.000839895 0)
(-0.00479 0.000873252 0)
(-0.00589243 0.000926038 0)
(-0.00716639 0.000971167 0)
(-0.008592 0.000978162 0)
(-0.0100887 0.000911537 0)
(-0.0114747 0.00072284 0)
(-0.0123945 0.000345956 0)
(-0.0122794 -0.000314498 0)
(-0.0106293 -0.00124966 0)
(-0.00773959 -0.00223436 0)
(-0.00422967 -0.00304422 0)
(-0.000448619 -0.0031666 0)
(0.00290397 -0.00229869 0)
(0.00499789 -0.000944482 0)
(0.00578765 0.000353662 0)
(0.0055239 0.00132259 0)
(0.00470888 0.00196844 0)
(0.00366087 0.00234492 0)
(0.00258233 0.00246889 0)
(0.00160896 0.00233103 0)
(0.000829899 0.00192859 0)
(0.000302867 0.00129168 0)
(3.01562e-05 0.000483418 0)
(-1.19004e-05 0.000188856 0)
(-0.000144054 0.00057545 0)
(-0.000425287 0.000951157 0)
(-0.000872467 0.00125723 0)
(-0.00147286 0.00144866 0)
(-0.00220408 0.00151858 0)
(-0.00304527 0.0015048 0)
(-0.00398844 0.00146876 0)
(-0.0050432 0.00145961 0)
(-0.00623021 0.00148999 0)
(-0.0075669 0.00153803 0)
(-0.00905047 0.00156464 0)
(-0.0106391 0.00152579 0)
(-0.0122287 0.0013714 0)
(-0.0136162 0.00103721 0)
(-0.014441 0.000438 0)
(-0.0141676 -0.000551906 0)
(-0.0124004 -0.00189011 0)
(-0.0095356 -0.00325082 0)
(-0.00614685 -0.00434065 0)
(-0.00266071 -0.00463016 0)
(0.000768342 -0.003674 0)
(0.00333887 -0.00182284 0)
(0.00466085 0.000114322 0)
(0.00476258 0.00162955 0)
(0.00417865 0.00266583 0)
(0.00329472 0.00329443 0)
(0.00233637 0.00353664 0)
(0.00145422 0.00338527 0)
(0.000745643 0.00284154 0)
(0.000269299 0.00193968 0)
(2.6133e-05 0.000746015 0)
(-1.66545e-05 0.000355408 0)
(-0.000193468 0.00102392 0)
(-0.00056173 0.00162902 0)
(-0.00113666 0.00209387 0)
(-0.00189499 0.00236899 0)
(-0.00280501 0.00246104 0)
(-0.00384071 0.00243296 0)
(-0.00499076 0.00236968 0)
(-0.0062582 0.00233253 0)
(-0.00765095 0.00233409 0)
(-0.00916908 0.00234486 0)
(-0.0107914 0.00231479 0)
(-0.0124604 0.00218754 0)
(-0.0140624 0.00190026 0)
(-0.0153963 0.00137543 0)
(-0.0161269 0.000510877 0)
(-0.0157849 -0.000844863 0)
(-0.0140867 -0.00260579 0)
(-0.0114476 -0.00434756 0)
(-0.00835619 -0.00571113 0)
(-0.00518999 -0.00617769 0)
(-0.00211445 -0.00533012 0)
(0.000731225 -0.00314164 0)
(0.00257493 -0.000496492 0)
(0.00321977 0.00170125 0)
(0.00298711 0.00321854 0)
(0.00239828 0.00415624 0)
(0.00169663 0.00454423 0)
(0.00103899 0.00438595 0)
(0.00051863 0.00369865 0)
(0.000180317 0.00253509 0)
(1.58553e-05 0.000980144 0)
(-2.14322e-05 0.000604695 0)
(-0.000242072 0.00168448 0)
(-0.000694935 0.00261175 0)
(-0.00139296 0.00328733 0)
(-0.00230176 0.00366251 0)
(-0.00337921 0.0037692 0)
(-0.0045919 0.00370648 0)
(-0.0059218 0.00358824 0)
(-0.00736264 0.0034889 0)
(-0.00890942 0.00342115 0)
(-0.0105479 0.00334954 0)
(-0.012245 0.00321579 0)
(-0.0139376 0.00295409 0)
(-0.0155169 0.00249146 0)
(-0.0168012 0.00173972 0)
(-0.0174986 0.000581387 0)
(-0.017212 -0.00115649 0)
(-0.0157373 -0.0033445 0)
(-0.0134499 -0.00546883 0)
(-0.0107467 -0.0071169 0)
(-0.00792645 -0.00777704 0)
(-0.00514678 -0.00704851 0)
(-0.00250285 -0.00489039 0)
(-0.000272627 -0.00171791 0)
(0.00109357 0.00138277 0)
(0.00134319 0.0034721 0)
(0.00116125 0.00474986 0)
(0.000820968 0.00528656 0)
(0.000481547 0.00511804 0)
(0.000222628 0.00430057 0)
(6.85475e-05 0.00292838 0)
(3.75928e-06 0.00112282 0)
(-2.5307e-05 0.00095169 0)
(-0.000281255 0.00259416 0)
(-0.000802385 0.00395056 0)
(-0.00160011 0.00489523 0)
(-0.00263095 0.00538654 0)
(-0.00384335 0.00549447 0)
(-0.00519553 0.00536647 0)
(-0.00666115 0.00515286 0)
(-0.00822461 0.00494466 0)
(-0.00987128 0.00475745 0)
(-0.0115789 0.00455281 0)
(-0.0133105 0.00426751 0)
(-0.0150065 0.00382915 0)
(-0.016572 0.00315684 0)
(-0.0178522 0.00215277 0)
(-0.0185993 0.000684202 0)
(-0.0184718 -0.00144142 0)
(-0.01731 -0.0040555 0)
(-0.0154353 -0.00656467 0)
(-0.0131605 -0.0085194 0)
(-0.0107034 -0.00941863 0)
(-0.00818373 -0.00887297 0)
(-0.00569189 -0.00678383 0)
(-0.00338581 -0.00348158 0)
(-0.00148976 0.000238298 0)
(-0.000505662 0.00310528 0)
(-0.000160954 0.00482293 0)
(-6.40992e-05 0.00553896 0)
(-4.90919e-05 0.00538282 0)
(-4.17638e-05 0.00449212 0)
(-2.43453e-05 0.00302401 0)
(-4.83399e-06 0.00114248 0)
(-2.71835e-05 0.00139796 0)
(-0.000301397 0.00375886 0)
(-0.000859724 0.00565716 0)
(-0.00171498 0.00693556 0)
(-0.00282008 0.00756353 0)
(-0.00411749 0.00765966 0)
(-0.00555801 0.00743173 0)
(-0.00710726 0.00707625 0)
(-0.00874235 0.00670778 0)
(-0.0104434 0.00634952 0)
(-0.0121861 0.00596365 0)
(-0.0139357 0.0054845 0)
(-0.0156406 0.0048349 0)
(-0.017221 0.0039266 0)
(-0.0185463 0.00265118 0)
(-0.0194027 0.000859744 0)
(-0.0194853 -0.00165802 0)
(-0.0186651 -0.00469367 0)
(-0.0172223 -0.00758759 0)
(-0.0153885 -0.00987751 0)
(-0.0132993 -0.0110853 0)
(-0.0110214 -0.0108344 0)
(-0.00861946 -0.00898624 0)
(-0.0062159 -0.00576375 0)
(-0.00402102 -0.00182609 0)
(-0.00227568 0.00179644 0)
(-0.00131414 0.00404231 0)
(-0.000763794 0.00505498 0)
(-0.000426996 0.0050414 0)
(-0.000209727 0.00422347 0)
(-7.55247e-05 0.00282533 0)
(-8.05381e-06 0.00105406 0)
(-2.63497e-05 0.00192473 0)
(-0.000296063 0.00513816 0)
(-0.000850536 0.007686 0)
(-0.00170855 0.00937109 0)
(-0.00282755 0.0101702 0)
(-0.00414976 0.0102534 0)
(-0.00562108 0.00989817 0)
(-0.00720043 0.00935864 0)
(-0.00885976 0.00878291 0)
(-0.0105773 0.00820821 0)
(-0.0123301 0.00760056 0)
(-0.0140878 0.00689317 0)
(-0.0158064 0.00600413 0)
(-0.017417 0.00483686 0)
(-0.0188056 0.0032706 0)
(-0.019784 0.00114109 0)
(-0.02008 -0.00177323 0)
(-0.0195926 -0.00521781 0)
(-0.0185775 -0.00849059 0)
(-0.0171797 -0.0111506 0)
(-0.0154527 -0.0127612 0)
(-0.013406 -0.0129636 0)
(-0.0110733 -0.0115836 0)
(-0.00856187 -0.00873824 0)
(-0.00607115 -0.00491277 0)
(-0.00385699 -0.000934532 0)
(-0.0022008 0.0021843 0)
(-0.00120518 0.00374913 0)
(-0.000611093 0.00410602 0)
(-0.000264668 0.00356839 0)
(-8.11784e-05 0.00242227 0)
(-5.88002e-06 0.000908588 0)
(-2.27821e-05 0.00249183 0)
(-0.000264262 0.00664182 0)
(-0.000771314 0.00992836 0)
(-0.00157307 0.0121022 0)
(-0.00264063 0.0131308 0)
(-0.00392308 0.0132253 0)
(-0.00536489 0.012735 0)
(-0.00691954 0.0119834 0)
(-0.00855467 0.011165 0)
(-0.0102476 0.0103389 0)
(-0.0119777 0.00947805 0)
(-0.0137183 0.0085146 0)
(-0.0154299 0.00736089 0)
(-0.0170502 0.00591078 0)
(-0.0184768 0.00403129 0)
(-0.0195477 0.00154764 0)
(-0.0200331 -0.00176102 0)
(-0.0198505 -0.00558792 0)
(-0.0192459 -0.00922466 0)
(-0.0182742 -0.0122928 0)
(-0.016913 -0.0144172 0)
(-0.0151201 -0.0152605 0)
(-0.0129045 -0.0146028 0)
(-0.0103669 -0.0124354 0)
(-0.00770755 -0.00904289 0)
(-0.00519498 -0.00504046 0)
(-0.00309901 -0.00127213 0)
(-0.00161608 0.00142513 0)
(-0.000745589 0.00259363 0)
(-0.000282855 0.00264549 0)
(-7.13556e-05 0.00194517 0)
(-1.72749e-06 0.000771782 0)
(-1.69916e-05 0.00304122 0)
(-0.000209404 0.00813448 0)
(-0.000628856 0.012213 0)
(-0.00131722 0.014962 0)
(-0.00226748 0.0163084 0)
(-0.00344352 0.0164748 0)
(-0.00479261 0.015872 0)
(-0.00626336 0.014902 0)
(-0.00781793 0.0138202 0)
(-0.00943169 0.0127189 0)
(-0.011085 0.0115817 0)
(-0.0127541 0.0103395 0)
(-0.0144026 0.00889829 0)
(-0.0159735 0.00714258 0)
(-0.0173777 0.00493042 0)
(-0.0184843 0.00208463 0)
(-0.0191199 -0.0016004 0)
(-0.0192027 -0.00576273 0)
(-0.0189866 -0.00973059 0)
(-0.0184404 -0.0132313 0)
(-0.0174782 -0.0159713 0)
(-0.0160148 -0.0176345 0)
(-0.0140346 -0.0179414 0)
(-0.0116245 -0.0167313 0)
(-0.00897524 -0.0140584 0)
(-0.00635111 -0.0102877 0)
(-0.00403224 -0.00612618 0)
(-0.00223824 -0.00245202 0)
(-0.00105094 9.16961e-05 0)
(-0.000396731 0.00124696 0)
(-9.85241e-05 0.001297 0)
(-2.41652e-06 0.000614417 0)
(-9.69857e-06 0.00350124 0)
(-0.000137124 0.00944078 0)
(-0.000435349 0.014305 0)
(-0.000958072 0.0177049 0)
(-0.00172585 0.0194867 0)
(-0.00272587 0.0198316 0)
(-0.00391425 0.0191798 0)
(-0.00523533 0.0180117 0)
(-0.00664275 0.0166617 0)
(-0.00810651 0.0152711 0)
(-0.00960645 0.0138418 0)
(-0.0111215 0.0123055 0)
(-0.0126206 0.0105615 0)
(-0.0140557 0.00848752 0)
(-0.0153555 0.00593785 0)
(-0.0164249 0.00274155 0)
(-0.0171577 -0.00127747 0)
(-0.0174551 -0.00569828 0)
(-0.017602 -0.00992719 0)
(-0.0174942 -0.0138423 0)
(-0.0169956 -0.0172527 0)
(-0.0159818 -0.0198696 0)
(-0.0144031 -0.0213504 0)
(-0.0123133 -0.0213749 0)
(-0.00986893 -0.0197508 0)
(-0.00730662 -0.0165461 0)
(-0.00490207 -0.0122192 0)
(-0.00290842 -0.0076258 0)
(-0.00147443 -0.00372846 0)
(-0.000597171 -0.00111968 0)
(-0.000160492 0.000142013 0)
(-6.68027e-06 0.000311933 0)
(-1.80378e-06 0.00379182 0)
(-5.47279e-05 0.0103523 0)
(-0.000207238 0.0159041 0)
(-0.000519634 0.0199919 0)
(-0.00104142 0.0223429 0)
(-0.00179108 0.0230245 0)
(-0.00274333 0.0224417 0)
(-0.00384202 0.0211325 0)
(-0.00502878 0.0195271 0)
(-0.00626247 0.0178416 0)
(-0.00751907 0.0161129 0)
(-0.00878112 0.0142789 0)
(-0.0100273 0.0122348 0)
(-0.0112257 0.00985396 0)
(-0.0123295 0.00699189 0)
(-0.0132808 0.00348949 0)
(-0.0140436 -0.000789515 0)
(-0.0144935 -0.00535098 0)
(-0.0149685 -0.00970652 0)
(-0.0153146 -0.0139371 0)
(-0.0153565 -0.0179826 0)
(-0.0149283 -0.0216018 0)
(-0.0139307 -0.0244069 0)
(-0.0123632 -0.0259331 0)
(-0.0103279 -0.0257484 0)
(-0.0080147 -0.0236037 0)
(-0.00567356 -0.0196199 0)
(-0.00357161 -0.014436 0)
(-0.00192712 -0.00912899 0)
(-0.000833635 -0.00474724 0)
(-0.000242563 -0.00180396 0)
(-1.34981e-05 -0.000252604 0)
(5.38195e-06 0.00383194 0)
(2.45452e-05 0.0106384 0)
(2.13928e-05 0.016645 0)
(-5.72521e-05 0.0213758 0)
(-0.000279076 0.0244141 0)
(-0.000697873 0.0256418 0)
(-0.00132393 0.0253272 0)
(-0.00211468 0.024001 0)
(-0.00300076 0.0221891 0)
(-0.00392379 0.0202174 0)
(-0.00484869 0.0181902 0)
(-0.00575784 0.0160702 0)
(-0.00664122 0.0137544 0)
(-0.00749023 0.0111137 0)
(-0.00829364 0.00800467 0)
(-0.009036 0.00427613 0)
(-0.00973894 -0.000165484 0)
(-0.0103275 -0.00470169 0)
(-0.011072 -0.00896724 0)
(-0.0118681 -0.013296 0)
(-0.0125145 -0.0177968 0)
(-0.0128001 -0.0223212 0)
(-0.0125548 -0.0264814 0)
(-0.011699 -0.0297043 0)
(-0.0102613 -0.0313404 0)
(-0.00837304 -0.0308163 0)
(-0.00625016 -0.0278492 0)
(-0.00416121 -0.022694 0)
(-0.00237608 -0.0162854 0)
(-0.00108591 -0.00997151 0)
(-0.000335724 -0.00482413 0)
(-2.29245e-05 -0.00120759 0)
(1.09973e-05 0.00360787 0)
(8.95723e-05 0.0102281 0)
(0.000213201 0.0163268 0)
(0.000341103 0.0214243 0)
(0.000404709 0.0250574 0)
(0.000333416 0.0269526 0)
(8.20949e-05 0.027157 0)
(-0.000351358 0.026023 0)
(-0.00090241 0.0241304 0)
(-0.00149533 0.0219311 0)
(-0.00207073 0.0196378 0)
(-0.00259567 0.0172706 0)
(-0.00306067 0.0147468 0)
(-0.003473 0.0119429 0)
(-0.00384949 0.00872093 0)
(-0.00420212 0.00494863 0)
(-0.00449458 0.000566079 0)
(-0.00522169 -0.00376369 0)
(-0.00610868 -0.00767404 0)
(-0.00725316 -0.0117506 0)
(-0.00847522 -0.0163316 0)
(-0.00954237 -0.0214479 0)
(-0.0101939 -0.0268021 0)
(-0.0102368 -0.0317724 0)
(-0.00959506 -0.0355271 0)
(-0.00831869 -0.0371687 0)
(-0.00657481 -0.0359587 0)
(-0.00462239 -0.0316198 0)
(-0.00277393 -0.0246784 0)
(-0.00132119 -0.016537 0)
(-0.000423111 -0.00883629 0)
(-3.09464e-05 -0.00254417 0)
(1.45168e-05 0.00320771 0)
(0.00013634 0.0093137 0)
(0.000357208 0.0152034 0)
(0.000647302 0.0204165 0)
(0.000940226 0.0244457 0)
(0.00115969 0.0268999 0)
(0.00124231 0.0276589 0)
(0.00115883 0.0269266 0)
(0.000938174 0.0251705 0)
(0.000654085 0.0228772 0)
(0.000390161 0.020375 0)
(0.000206726 0.0177897 0)
(0.00012658 0.0150951 0)
(0.000133227 0.0121852 0)
(0.000193015 0.00891912 0)
(0.000219112 0.00514679 0)
(0.000323368 0.000998368 0)
(-0.000355316 -0.00295382 0)
(-0.00125494 -0.00632676 0)
(-0.00247325 -0.00977951 0)
(-0.00396885 -0.0138855 0)
(-0.00560783 -0.0189692 0)
(-0.00707964 -0.0249804 0)
(-0.00805934 -0.0313584 0)
(-0.00833419 -0.037167 0)
(-0.0078352 -0.041229 0)
(-0.0066448 -0.0423598 0)
(-0.00497803 -0.0396736 0)
(-0.00315951 -0.0330488 0)
(-0.00157189 -0.0235844 0)
(-0.000518709 -0.0133474 0)
(-3.9436e-05 -0.00409358 0)
(1.5916e-05 0.00274946 0)
(0.000163624 0.00818188 0)
(0.000450819 0.0136664 0)
(0.000861196 0.018792 0)
(0.00133416 0.0230373 0)
(0.00179183 0.0259243 0)
(0.00216022 0.0271926 0)
(0.00239248 0.0268972 0)
(0.00249368 0.0253846 0)
(0.00252395 0.0231187 0)
(0.00257194 0.0204954 0)
(0.00271445 0.0177404 0)
(0.00298607 0.0149073 0)
(0.00336513 0.0119304 0)
(0.00378402 0.00867963 0)
(0.00410641 0.00499569 0)
(0.00423893 0.00120384 0)
(0.00357761 -0.00215067 0)
(0.00259429 -0.00514595 0)
(0.00141874 -0.00803602 0)
(-5.43357e-05 -0.0114557 0)
(-0.00187204 -0.0159608 0)
(-0.00384524 -0.0219203 0)
(-0.00557408 -0.0290307 0)
(-0.00670908 -0.036401 0)
(-0.00703344 -0.0426748 0)
(-0.00650685 -0.0463121 0)
(-0.00525561 -0.04586 0)
(-0.0035673 -0.0404309 0)
(-0.00187549 -0.0304436 0)
(-0.000642938 -0.0180147 0)
(-5.1312e-05 -0.00575357 0)
(1.54802e-05 0.0023075 0)
(0.000171365 0.00703461 0)
(0.000490408 0.0120175 0)
(0.000972409 0.0169132 0)
(0.00156938 0.0212175 0)
(0.00220917 0.0243987 0)
(0.00281561 0.0260842 0)
(0.00333305 0.026195 0)
(0.00375118 0.0249618 0)
(0.00411396 0.0228006 0)
(0.0045006 0.0201388 0)
(0.00498674 0.0172822 0)
(0.0056066 0.0143677 0)
(0.00632853 0.0113872 0)
(0.00705081 0.00824158 0)
(0.00758126 0.00480717 0)
(0.00765737 0.00145702 0)
(0.00691052 -0.00149124 0)
(0.0057812 -0.00415669 0)
(0.00445601 -0.00673608 0)
(0.00298814 -0.00952968 0)
(0.00134016 -0.0130438 0)
(-0.00077552 -0.0184816 0)
(-0.00297792 -0.0256644 0)
(-0.00483351 -0.0339902 0)
(-0.00596325 -0.0420647 0)
(-0.00616993 -0.0481194 0)
(-0.00544833 -0.0502309 0)
(-0.00399855 -0.0467337 0)
(-0.00224937 -0.0370764 0)
(-0.000809192 -0.0229022 0)
(-6.73941e-05 -0.00756694 0)
(1.35161e-05 0.00192718 0)
(0.00016059 0.00600651 0)
(0.000475636 0.0104733 0)
(0.000975381 0.0150565 0)
(0.00163174 0.0192922 0)
(0.00238858 0.022626 0)
(0.00317891 0.0246026 0)
(0.00394924 0.0250334 0)
(0.00468246 0.0240507 0)
(0.00540611 0.0220212 0)
(0.00617733 0.0193841 0)
(0.00704999 0.0165015 0)
(0.00803941 0.0135797 0)
(0.00909527 0.0106674 0)
(0.0100869 0.00770427 0)
(0.0107799 0.00460411 0)
(0.0108352 0.00171755 0)
(0.0100353 -0.000779027 0)
(0.00877156 -0.00307502 0)
(0.00724009 -0.00535348 0)
(0.00557304 -0.0078673 0)
(0.00384531 -0.0109653 0)
(0.00196406 -0.0152771 0)
(-0.000325378 -0.0218842 0)
(-0.00267992 -0.0305481 0)
(-0.00455301 -0.0398737 0)
(-0.00555283 -0.0480453 0)
(-0.00548999 -0.0528166 0)
(-0.00442064 -0.0518185 0)
(-0.00270214 -0.0433679 0)
(-0.00103905 -0.0280546 0)
(-9.17384e-05 -0.00958625 0)
(1.007e-05 0.00163491 0)
(0.000130002 0.00518496 0)
(0.000401083 0.00918515 0)
(0.000857387 0.0134259 0)
(0.0014998 0.017493 0)
(0.00230201 0.0208363 0)
(0.0032206 0.0229513 0)
(0.00421596 0.0235726 0)
(0.00527071 0.0227629 0)
(0.00639318 0.0208527 0)
(0.0076044 0.0182839 0)
(0.00891588 0.0154508 0)
(0.0103063 0.0126038 0)
(0.011699 0.00983353 0)
(0.0129418 0.00711281 0)
(0.0137803 0.00438147 0)
(0.0138532 0.00194055 0)
(0.0130848 -0.000119666 0)
(0.0117408 -0.00203146 0)
(0.010073 -0.00397136 0)
(0.00822175 -0.00618652 0)
(0.00630285 -0.00900616 0)
(0.00435709 -0.0129014 0)
(0.00227203 -0.0184703 0)
(-0.000185305 -0.0265769 0)
(-0.0026537 -0.0365313 0)
(-0.00448322 -0.046338 0)
(-0.00523364 -0.0536399 0)
(-0.00473902 -0.0555142 0)
(-0.00320588 -0.0491197 0)
(-0.00135142 -0.0334746 0)
(-0.000129889 -0.0118828 0)
(4.2094e-06 0.00145088 0)
(7.11021e-05 0.0046375 0)
(0.000245173 0.00826942 0)
(0.000582983 0.0121732 0)
(0.0011308 0.0159844 0)
(0.00191086 0.0191856 0)
(0.0029158 0.0212643 0)
(0.00412666 0.0219188 0)
(0.00552631 0.0211779 0)
(0.00709484 0.0193551 0)
(0.00880075 0.0168885 0)
(0.0105966 0.0141773 0)
(0.012414 0.0114866 0)
(0.0141481 0.00892726 0)
(0.0156341 0.00649368 0)
(0.0166199 0.00413911 0)
(0.0167543 0.00210497 0)
(0.0161031 0.000453613 0)
(0.0147631 -0.001085 0)
(0.0130762 -0.00268864 0)
(0.0111612 -0.00459648 0)
(0.00912925 -0.00713363 0)
(0.00705397 -0.010717 0)
(0.00492405 -0.0158129 0)
(0.00259756 -0.0228654 0)
(-0.000112837 -0.0323968 0)
(-0.00272845 -0.0432193 0)
(-0.00445423 -0.0526994 0)
(-0.00479234 -0.0575987 0)
(-0.0036878 -0.0540183 0)
(-0.00176027 -0.0390491 0)
(-0.000191731 -0.0145303 0)
(-5.93241e-06 0.00140044 0)
(-3.91266e-05 0.00443593 0)
(-4.90277e-05 0.00782553 0)
(6.93608e-05 0.011412 0)
(0.00044584 0.0148672 0)
(0.0011668 0.0177508 0)
(0.00225505 0.0196026 0)
(0.00370486 0.0201259 0)
(0.00549456 0.0193489 0)
(0.00756176 0.0175855 0)
(0.00980629 0.0152557 0)
(0.0121143 0.0127346 0)
(0.0143708 0.0102726 0)
(0.0164494 0.00798016 0)
(0.0181848 0.00586141 0)
(0.0193469 0.00387369 0)
(0.0196194 0.00220057 0)
(0.0191132 0.000896323 0)
(0.0179483 -0.000304482 0)
(0.0164119 -0.00159884 0)
(0.0146065 -0.00320466 0)
(0.012615 -0.00544054 0)
(0.0104949 -0.00869261 0)
(0.00824862 -0.0133644 0)
(0.00581265 -0.0197978 0)
(0.00306461 -0.0282256 0)
(-6.67898e-05 -0.0388829 0)
(-0.00287184 -0.0499858 0)
(-0.00435221 -0.0578185 0)
(-0.00402459 -0.057656 0)
(-0.00226762 -0.0445177 0)
(-0.000295153 -0.0176056 0)
(-2.72868e-05 0.00154867 0)
(-0.000247078 0.00473393 0)
(-0.000560258 0.00802614 0)
(-0.000769157 0.0112199 0)
(-0.000632288 0.0141183 0)
(2.47126e-05 0.0164894 0)
(0.00125496 0.0179528 0)
(0.00301392 0.0182059 0)
(0.0052594 0.0173133 0)
(0.00787688 0.0156028 0)
(0.0106878 0.0134511 0)
(0.0135185 0.0111799 0)
(0.0162206 0.00900198 0)
(0.0186603 0.00701232 0)
(0.0206874 0.00521598 0)
(0.022113 0.00356937 0)
(0.0226606 0.00220822 0)
(0.0224439 0.00118172 0)
(0.0216913 0.000269083 0)
(0.0204249 -0.000755276 0)
(0.0188845 -0.00208458 0)
(0.0170888 -0.00400964 0)
(0.0150429 -0.00688135 0)
(0.0127158 -0.0110585 0)
(0.0100523 -0.0168459 0)
(0.00700319 -0.0244582 0)
(0.00354654 -0.0340196 0)
(-0.000193844 -0.0454941 0)
(-0.00312104 -0.0559125 0)
(-0.00402598 -0.0595624 0)
(-0.00283937 -0.0494698 0)
(-0.000467648 -0.021176 0)
(-7.78018e-05 0.00200227 0)
(-0.000644923 0.0056778 0)
(-0.00141061 0.00893079 0)
(-0.00202 0.0116032 0)
(-0.00210954 0.0137268 0)
(-0.00146751 0.0153158 0)
(-2.73191e-05 0.0162311 0)
(0.00218297 0.0161373 0)
(0.00496734 0.0151005 0)
(0.00818509 0.0134667 0)
(0.0115839 0.0115382 0)
(0.014953 0.00956176 0)
(0.0181335 0.00769987 0)
(0.0210015 0.00602453 0)
(0.023435 0.00453754 0)
(0.0252961 0.00319443 0)
(0.0263198 0.00209519 0)
(0.0265802 0.00128462 0)
(0.0263084 0.000590054 0)
(0.0255166 -0.000197809 0)
(0.0243969 -0.00127724 0)
(0.0229252 -0.00288562 0)
(0.0210491 -0.00532513 0)
(0.018689 -0.00891135 0)
(0.0157676 -0.0139299 0)
(0.012254 -0.0206205 0)
(0.00819256 -0.0291914 0)
(0.00372216 -0.0397511 0)
(-0.000726514 -0.0516404 0)
(-0.00339695 -0.059234 0)
(-0.00335826 -0.053358 0)
(-0.000736537 -0.0252395 0)
(-0.000196318 0.00297988 0)
(-0.00137657 0.00748034 0)
(-0.00272467 0.0105365 0)
(-0.00370362 0.0123847 0)
(-0.00388501 0.0134885 0)
(-0.00308978 0.0141389 0)
(-0.00133755 0.0143719 0)
(0.0015238 0.013886 0)
(0.00494744 0.0127363 0)
(0.00882751 0.0112271 0)
(0.0128635 0.00956067 0)
(0.0168385 0.00790234 0)
(0.0206025 0.00636328 0)
(0.0240504 0.00499249 0)
(0.0270868 0.00378891 0)
(0.0296123 0.00271179 0)
(0.0313194 0.00183629 0)
(0.0322089 0.00120327 0)
(0.032506 0.000679239 0)
(0.0323055 8.30345e-05 0)
(0.0316367 -0.000765132 0)
(0.030513 -0.00205303 0)
(0.0288266 -0.00402201 0)
(0.0264483 -0.00693704 0)
(0.0232635 -0.0110624 0)
(0.0192234 -0.016665 0)
(0.0143826 -0.0240465 0)
(0.00891724 -0.0335509 0)
(0.00318843 -0.0451538 0)
(-0.00166858 -0.0561628 0)
(-0.00355728 -0.0555318 0)
(-0.00109473 -0.0296548 0)
(-0.000447575 0.00480643 0)
(-0.0025778 0.0102591 0)
(-0.00446355 0.012625 0)
(-0.00554319 0.0132258 0)
(-0.00547654 0.0131139 0)
(-0.00421904 0.012774 0)
(-0.00186248 0.0122882 0)
(0.00184055 0.0114114 0)
(0.00603626 0.0102348 0)
(0.0106827 0.0089048 0)
(0.0154706 0.00752447 0)
(0.0201947 0.00618787 0)
(0.0247142 0.00496278 0)
(0.0289301 0.00388013 0)
(0.0327516 0.00293829 0)
(0.0360877 0.00210545 0)
(0.0385482 0.00143701 0)
(0.0400679 0.000963429 0)
(0.0408951 0.000580205 0)
(0.0411732 0.00014477 0)
(0.0409138 -0.0004838 0)
(0.0400761 -0.00145062 0)
(0.038533 -0.00293326 0)
(0.0361242 -0.00513757 0)
(0.0326973 -0.00829064 0)
(0.0281577 -0.0126642 0)
(0.0225148 -0.0186292 0)
(0.0159174 -0.026719 0)
(0.00873613 -0.037477 0)
(0.00183884 -0.0499202 0)
(-0.00294658 -0.055273 0)
(-0.00144523 -0.034161 0)
(-0.000888774 0.00793273 0)
(-0.00419783 0.0137993 0)
(-0.00609214 0.0145627 0)
(-0.00650689 0.0135273 0)
(-0.00546698 0.0121838 0)
(-0.00315921 0.0109494 0)
(0.000372735 0.00981078 0)
(0.00504169 0.00868917 0)
(0.0101643 0.0075943 0)
(0.0156955 0.00649047 0)
(0.0213479 0.00541059 0)
(0.0269185 0.00439588 0)
(0.0322564 0.00348119 0)
(0.0372449 0.00268385 0)
(0.0417769 0.00200171 0)
(0.0457529 0.00141287 0)
(0.0487283 0.000952211 0)
(0.0506346 0.000633085 0)
(0.0517677 0.000378286 0)
(0.0523036 8.67858e-05 0)
(0.0522646 -0.000337719 0)
(0.0515662 -0.000994547 0)
(0.0500805 -0.00200468 0)
(0.0476338 -0.00351168 0)
(0.0440453 -0.00568766 0)
(0.0391633 -0.00877128 0)
(0.0329015 -0.0131462 0)
(0.0252914 -0.0194572 0)
(0.0165991 -0.028646 0)
(0.00756684 -0.0410964 0)
(-0.00068616 -0.0516559 0)
(-0.00149303 -0.0381854 0)
(-0.00160809 0.0131059 0)
(-0.00555038 0.0172083 0)
(-0.0056881 0.0151658 0)
(-0.003721 0.012444 0)
(-0.000359524 0.0101188 0)
(0.00403231 0.00828216 0)
(0.00907619 0.00688869 0)
(0.0147906 0.00577117 0)
(0.0208516 0.00484923 0)
(0.0271467 0.0040187 0)
(0.0334381 0.00326301 0)
(0.0395246 0.00258534 0)
(0.0452439 0.0019948 0)
(0.0504692 0.0014958 0)
(0.0550962 0.00108291 0)
(0.0590429 0.000740944 0)
(0.0619231 0.00048393 0)
(0.0637386 0.000309875 0)
(0.0648092 0.000170329 0)
(0.0653187 6.46913e-06 0)
(0.0652606 -0.000235547 0)
(0.0645617 -0.000614144 0)
(0.063093 -0.00120098 0)
(0.0606806 -0.00208067 0)
(0.0571336 -0.00336148 0)
(0.0522579 -0.00521489 0)
(0.045857 -0.00796225 0)
(0.0377504 -0.0122319 0)
(0.0278855 -0.0191562 0)
(0.016577 -0.030138 0)
(0.0044327 -0.0435326 0)
(-0.000165729 -0.0396586 0)
(-0.00120256 0.0183547 0)
(-0.00293587 0.0182276 0)
(0.00338055 0.0126065 0)
(0.0103538 0.00918393 0)
(0.0171081 0.00679107 0)
(0.0236619 0.00503545 0)
(0.0300756 0.00379119 0)
(0.0364219 0.00290441 0)
(0.042638 0.0022633 0)
(0.0486853 0.00176247 0)
(0.0544374 0.00135632 0)
(0.0597625 0.00102313 0)
(0.0645541 0.000752847 0)
(0.0687406 0.000538521 0)
(0.0722805 0.00037139 0)
(0.0751572 0.000241224 0)
(0.0771597 0.000148436 0)
(0.0783645 8.64178e-05 0)
(0.079027 3.3965e-05 0)
(0.0792746 -3.09939e-05 0)
(0.0790787 -0.000131539 0)
(0.0783784 -0.000293622 0)
(0.0770488 -0.00054876 0)
(0.0749334 -0.000933566 0)
(0.0718611 -0.00149786 0)
(0.0676364 -0.00233212 0)
(0.0619988 -0.0036353 0)
(0.0545523 -0.00586054 0)
(0.0447001 -0.00997378 0)
(0.0316959 -0.017668 0)
(0.0155434 -0.0298108 0)
(0.00632514 -0.0334806 0)
(0.0208126 0.0113846 0)
(0.0272401 0.00931633 0)
(0.0403164 0.00543774 0)
(0.0509062 0.00329006 0)
(0.0587829 0.0020423 0)
(0.0649587 0.00125338 0)
(0.0699926 0.000767108 0)
(0.074212 0.000475531 0)
(0.0778286 0.000304053 0)
(0.0809848 0.000198235 0)
(0.0837344 0.000130182 0)
(0.0860946 8.48678e-05 0)
(0.0880771 5.42245e-05 0)
(0.0897007 3.36196e-05 0)
(0.0909895 1.96615e-05 0)
(0.0919703 1.00927e-05 0)
(0.0926054 4.03809e-06 0)
(0.0929518 -2.33843e-07 0)
(0.0931007 -5.15598e-06 0)
(0.0930807 -1.24214e-05 0)
(0.092871 -2.58071e-05 0)
(0.0924185 -4.92102e-05 0)
(0.0916416 -8.73029e-05 0)
(0.0904472 -0.000145366 0)
(0.0887349 -0.000231046 0)
(0.0863794 -0.000360724 0)
(0.0831689 -0.000577062 0)
(0.0786675 -0.000991632 0)
(0.0719232 -0.00188358 0)
(0.0609336 -0.00399857 0)
(0.0433134 -0.00920473 0)
(0.028603 -0.0145412 0)
)
;

boundaryField
{
    movingWall
    {
        type            fixedValue;
        value           uniform (0.1 0 0);
    }
    fixedWalls
    {
        type            noSlip;
    }
    floor
    {
        type            noSlip;
    }
    frontAndBack
    {
        type            empty;
    }
}


// ************************************************************************* //
