/*--------------------------------*- C++ -*----------------------------------*\
| =========                 |                                                 |
| \\      /  F ield         | OpenFOAM: The Open Source CFD Toolbox           |
|  \\    /   O peration     | Version:  2212                                  |
|   \\  /    A nd           | Website:  www.openfoam.com                      |
|    \\/     M anipulation  |                                                 |
\*---------------------------------------------------------------------------*/
FoamFile
{
    version     2.0;
    format      ascii;
    arch        "LSB;label=64;scalar=64";
    class       volScalarField;
    location    "1960";
    object      Xli;
}
// * * * * * * * * * * * * * * * * * * * * * * * * * * * * * * * * * * * * * //

dimensions      [1 -3 0 0 0 0 0];

internalField   nonuniform List<scalar> 
1024
(
0.0426789
0.0426795
0.0426812
0.0426843
0.0426893
0.0426968
0.0427075
0.042722
0.0427406
0.0427632
0.0427892
0.0428172
0.0428455
0.0428725
0.0428968
0.0429176
0.0429326
0.0429402
0.0429409
0.0429362
0.042927
0.0429147
0.0429008
0.0428867
0.0428738
0.0428629
0.0428544
0.0428482
0.0428441
0.0428415
0.0428401
0.0428395
0.0426791
0.0426797
0.0426814
0.0426845
0.0426896
0.0426972
0.042708
0.0427226
0.0427413
0.042764
0.0427901
0.0428182
0.0428466
0.0428735
0.0428977
0.0429185
0.0429336
0.0429412
0.042942
0.0429373
0.0429281
0.0429158
0.0429018
0.0428876
0.0428745
0.0428635
0.042855
0.0428487
0.0428445
0.0428419
0.0428405
0.0428399
0.0426796
0.0426803
0.042682
0.0426852
0.0426903
0.0426981
0.0427091
0.0427239
0.0427429
0.042766
0.0427923
0.0428205
0.0428488
0.0428757
0.0428999
0.0429207
0.0429359
0.0429437
0.0429446
0.04294
0.0429308
0.0429183
0.042904
0.0428896
0.0428762
0.042865
0.0428562
0.0428498
0.0428455
0.0428428
0.0428414
0.0428408
0.0426805
0.0426813
0.042683
0.0426863
0.0426916
0.0426996
0.042711
0.0427263
0.0427458
0.0427693
0.0427959
0.0428243
0.0428526
0.0428794
0.0429035
0.0429244
0.0429399
0.0429482
0.0429495
0.042945
0.0429357
0.0429227
0.0429079
0.0428929
0.042879
0.0428674
0.0428583
0.0428517
0.0428473
0.0428445
0.0428431
0.0428425
0.0426821
0.0426828
0.0426847
0.0426881
0.0426937
0.0427021
0.0427139
0.0427299
0.04275
0.0427741
0.0428012
0.0428298
0.0428581
0.0428847
0.0429089
0.04293
0.0429462
0.0429553
0.0429574
0.0429531
0.0429434
0.0429296
0.0429138
0.0428978
0.0428832
0.042871
0.0428615
0.0428546
0.0428501
0.0428473
0.0428459
0.0428453
0.0426843
0.0426851
0.042687
0.0426906
0.0426966
0.0427055
0.042718
0.0427348
0.0427558
0.0427807
0.0428083
0.042837
0.0428653
0.0428918
0.0429161
0.0429378
0.0429552
0.0429658
0.042969
0.0429651
0.0429549
0.0429398
0.0429224
0.042905
0.0428893
0.0428762
0.0428662
0.0428591
0.0428544
0.0428517
0.0428502
0.0428497
0.0426873
0.0426881
0.0426902
0.0426941
0.0427004
0.0427099
0.0427233
0.0427411
0.0427632
0.0427889
0.0428171
0.042846
0.0428742
0.0429008
0.0429253
0.0429481
0.0429673
0.0429801
0.042985
0.0429819
0.042971
0.0429544
0.0429349
0.0429154
0.0428981
0.0428839
0.0428733
0.0428659
0.0428611
0.0428583
0.042857
0.0428565
0.0426912
0.042692
0.0426943
0.0426984
0.0427052
0.0427155
0.0427298
0.0427487
0.0427719
0.0427986
0.0428273
0.0428565
0.0428847
0.0429113
0.0429365
0.0429608
0.0429826
0.0429984
0.0430057
0.0430037
0.0429927
0.0429746
0.0429527
0.0429308
0.0429113
0.0428956
0.0428841
0.0428763
0.0428714
0.0428687
0.0428674
0.042867
0.0426959
0.0426968
0.0426992
0.0427036
0.0427109
0.0427219
0.0427373
0.0427573
0.0427817
0.0428093
0.0428386
0.0428679
0.0428962
0.0429232
0.0429493
0.0429755
0.0430004
0.0430198
0.0430303
0.0430307
0.0430206
0.043002
0.0429783
0.0429538
0.0429317
0.0429141
0.0429014
0.0428929
0.0428878
0.0428851
0.0428839
0.0428836
0.0427013
0.0427023
0.0427047
0.0427095
0.0427172
0.042729
0.0427453
0.0427664
0.0427918
0.0428203
0.0428501
0.0428797
0.0429081
0.0429355
0.0429626
0.0429907
0.0430187
0.0430422
0.0430571
0.0430616
0.0430547
0.0430378
0.0430141
0.0429881
0.0429637
0.0429437
0.0429292
0.0429196
0.042914
0.0429111
0.0429098
0.0429095
0.0427072
0.0427082
0.0427108
0.0427157
0.0427239
0.0427362
0.0427533
0.0427753
0.0428016
0.0428308
0.042861
0.0428907
0.0429191
0.0429466
0.0429742
0.0430036
0.043034
0.0430616
0.0430822
0.0430933
0.0430931
0.0430817
0.0430615
0.0430367
0.0430116
0.0429897
0.0429729
0.0429616
0.0429547
0.0429511
0.0429495
0.0429491
0.0427132
0.0427142
0.0427169
0.0427219
0.0427303
0.0427429
0.0427605
0.0427831
0.0428099
0.0428395
0.0428699
0.0428994
0.0429273
0.042954
0.0429808
0.0430096
0.0430408
0.0430721
0.0430996
0.0431199
0.0431301
0.0431288
0.0431172
0.0430982
0.0430759
0.0430541
0.0430359
0.0430225
0.0430139
0.0430089
0.0430066
0.0430058
0.0427189
0.0427199
0.0427226
0.0427276
0.042736
0.0427486
0.0427662
0.0427889
0.0428157
0.0428452
0.0428751
0.0429037
0.04293
0.0429543
0.0429779
0.0430033
0.0430327
0.0430666
0.0431014
0.0431326
0.0431559
0.0431687
0.0431703
0.0431625
0.043148
0.0431307
0.0431138
0.0430998
0.0430898
0.0430835
0.0430802
0.043079
0.0427237
0.0427247
0.0427273
0.0427322
0.0427403
0.0427525
0.0427696
0.0427915
0.0428176
0.0428461
0.0428746
0.0429011
0.0429243
0.0429439
0.0429613
0.0429797
0.043004
0.0430383
0.0430796
0.0431222
0.04316
0.0431886
0.0432063
0.0432133
0.0432112
0.043203
0.0431918
0.0431805
0.0431712
0.0431647
0.043161
0.0431595
0.0427268
0.0427278
0.0427303
0.0427349
0.0427424
0.0427538
0.0427696
0.04279
0.0428143
0.0428406
0.0428666
0.0428897
0.0429079
0.0429207
0.0429292
0.0429371
0.0429527
0.0429844
0.0430304
0.0430837
0.0431361
0.0431815
0.0432162
0.0432393
0.0432516
0.0432551
0.0432528
0.0432474
0.0432415
0.0432366
0.0432334
0.043232
0.0427273
0.0427282
0.0427305
0.0427347
0.0427415
0.0427515
0.0427654
0.0427833
0.0428046
0.0428276
0.0428499
0.0428685
0.0428809
0.0428859
0.0428841
0.0428798
0.0428836
0.0429088
0.0429561
0.0430182
0.0430852
0.0431483
0.0432015
0.0432419
0.0432694
0.0432854
0.0432928
0.0432943
0.0432928
0.0432904
0.0432884
0.0432874
0.042724
0.0427249
0.0427271
0.0427308
0.0427367
0.0427453
0.042757
0.0427719
0.0427897
0.0428088
0.0428269
0.0428411
0.0428485
0.0428473
0.0428374
0.0428227
0.0428148
0.0428301
0.0428728
0.0429381
0.0430162
0.0430963
0.043169
0.0432285
0.0432725
0.0433019
0.0433191
0.0433274
0.0433302
0.0433301
0.0433291
0.0433284
0.0427176
0.0427185
0.0427205
0.042724
0.0427292
0.0427366
0.0427464
0.0427587
0.0427732
0.0427888
0.0428033
0.0428141
0.0428184
0.0428141
0.0428007
0.0427813
0.0427669
0.0427743
0.0428095
0.042871
0.0429521
0.0430424
0.0431306
0.0432076
0.0432682
0.0433114
0.0433389
0.0433542
0.0433611
0.0433632
0.0433631
0.0433626
0.0427094
0.0427102
0.0427122
0.0427154
0.0427202
0.0427268
0.0427352
0.0427456
0.0427576
0.0427703
0.042782
0.0427904
0.0427931
0.0427881
0.0427747
0.0427554
0.0427406
0.0427452
0.0427753
0.0428314
0.0429096
0.0430023
0.0430984
0.0431873
0.0432612
0.0433167
0.0433543
0.0433767
0.0433879
0.0433922
0.0433929
0.0433926
0.0427005
0.0427013
0.0427032
0.0427062
0.0427106
0.0427166
0.0427241
0.042733
0.0427431
0.0427536
0.0427631
0.0427698
0.0427717
0.0427673
0.0427561
0.0427406
0.0427299
0.0427364
0.042765
0.042817
0.0428904
0.0429801
0.0430774
0.043172
0.0432547
0.0433201
0.0433665
0.0433957
0.0434115
0.0434182
0.0434199
0.0434198
0.0426928
0.0426935
0.042695
0.0426976
0.0427015
0.0427068
0.0427134
0.0427212
0.0427298
0.0427385
0.0427463
0.0427519
0.0427538
0.0427512
0.0427442
0.0427354
0.0427325
0.0427442
0.042774
0.0428233
0.0428917
0.0429758
0.0430693
0.043164
0.0432507
0.0433227
0.0433763
0.0434119
0.0434322
0.0434415
0.0434443
0.0434444
0.042689
0.0426894
0.0426903
0.042692
0.0426948
0.0426989
0.0427043
0.0427109
0.0427181
0.0427256
0.0427324
0.0427377
0.042741
0.0427419
0.0427412
0.0427418
0.042749
0.0427679
0.0428001
0.0428472
0.0429101
0.0429872
0.0430742
0.0431645
0.0432507
0.0433257
0.0433845
0.0434255
0.0434502
0.0434623
0.0434664
0.0434668
0.042693
0.0426928
0.0426926
0.0426927
0.0426936
0.0426957
0.0426992
0.0427041
0.0427102
0.0427169
0.0427238
0.0427307
0.0427373
0.0427442
0.0427521
0.0427637
0.0427819
0.042808
0.0428424
0.0428871
0.0429438
0.0430126
0.0430909
0.043174
0.0432559
0.0433304
0.0433919
0.0434371
0.0434659
0.0434808
0.0434863
0.0434871
0.0427086
0.0427076
0.0427057
0.0427035
0.0427017
0.042701
0.0427022
0.0427054
0.0427107
0.0427179
0.0427269
0.0427375
0.04275
0.0427648
0.0427825
0.042805
0.042833
0.0428646
0.0428999
0.0429414
0.0429912
0.0430506
0.0431187
0.0431925
0.0432674
0.0433382
0.0433997
0.0434475
0.0434796
0.0434973
0.0435043
0.0435055
0.042739
0.0427369
0.0427331
0.0427284
0.0427238
0.0427206
0.0427198
0.0427221
0.042728
0.0427375
0.0427504
0.0427668
0.0427865
0.0428096
0.0428362
0.0428674
0.0429019
0.0429365
0.042971
0.0430081
0.0430506
0.0431001
0.0431571
0.0432201
0.0432859
0.0433505
0.0434092
0.0434574
0.0434917
0.0435119
0.0435204
0.0435222
0.0427862
0.0427829
0.0427774
0.0427709
0.042765
0.042761
0.0427601
0.0427635
0.0427718
0.042785
0.042803
0.0428252
0.0428513
0.0428808
0.0429133
0.0429492
0.0429864
0.0430208
0.0430526
0.0430846
0.0431196
0.0431595
0.0432053
0.0432567
0.043312
0.0433683
0.0434217
0.043468
0.043503
0.0435248
0.0435349
0.0435372
0.0428511
0.0428468
0.0428404
0.0428343
0.0428299
0.0428283
0.0428302
0.0428368
0.0428488
0.0428659
0.0428878
0.0429139
0.0429435
0.0429756
0.0430098
0.0430461
0.0430819
0.0431135
0.0431412
0.0431677
0.0431954
0.0432263
0.0432616
0.0433016
0.0433457
0.0433922
0.0434383
0.0434803
0.043514
0.0435365
0.0435478
0.0435507
0.0429343
0.0429293
0.0429242
0.0429216
0.0429223
0.0429261
0.042933
0.0429437
0.0429587
0.042978
0.0430012
0.0430277
0.0430567
0.0430875
0.0431192
0.0431519
0.0431833
0.0432101
0.0432328
0.0432536
0.0432747
0.0432976
0.0433236
0.0433532
0.0433863
0.0434223
0.0434595
0.0434952
0.0435257
0.0435474
0.0435592
0.0435626
0.0430368
0.0430323
0.0430314
0.0430355
0.0430433
0.0430533
0.0430648
0.0430783
0.0430941
0.0431126
0.0431338
0.0431571
0.043182
0.0432079
0.0432341
0.0432606
0.0432856
0.0433065
0.0433237
0.0433391
0.0433543
0.0433704
0.0433884
0.0434089
0.0434321
0.0434579
0.0434855
0.0435134
0.0435386
0.043558
0.0435693
0.0435731
0.0431615
0.0431598
0.0431658
0.0431767
0.0431897
0.0432029
0.043216
0.0432291
0.0432428
0.0432577
0.043274
0.0432916
0.04331
0.0433289
0.0433479
0.0433668
0.0433844
0.043399
0.0434108
0.0434212
0.0434312
0.0434416
0.043453
0.0434661
0.0434809
0.0434975
0.0435158
0.0435351
0.0435535
0.0435688
0.0435785
0.0435822
0.0433135
0.0433173
0.0433282
0.0433405
0.0433526
0.0433637
0.0433738
0.0433832
0.0433923
0.0434017
0.0434116
0.0434222
0.0434331
0.0434443
0.0434554
0.0434664
0.0434766
0.043485
0.0434918
0.0434976
0.0435032
0.0435088
0.043515
0.043522
0.04353
0.043539
0.043549
0.0435598
0.0435707
0.0435803
0.0435871
0.0435899
0.0434994
0.0435023
0.0435079
0.0435132
0.0435181
0.0435225
0.0435263
0.0435296
0.0435328
0.0435359
0.0435392
0.0435427
0.0435462
0.0435499
0.0435535
0.043557
0.0435603
0.043563
0.0435652
0.043567
0.0435688
0.0435705
0.0435725
0.0435746
0.0435771
0.0435799
0.0435829
0.0435863
0.0435898
0.043593
0.0435954
0.0435966
)
;

boundaryField
{
    movingWall
    {
        type            fixedValue;
        value           uniform 0.0436;
    }
    fixedWalls
    {
        type            zeroGradient;
    }
    floor
    {
        type            zeroGradient;
    }
    frontAndBack
    {
        type            empty;
    }
}


// ************************************************************************* //
