/*--------------------------------*- C++ -*----------------------------------*\
| =========                 |                                                 |
| \\      /  F ield         | OpenFOAM: The Open Source CFD Toolbox           |
|  \\    /   O peration     | Version:  2206                                  |
|   \\  /    A nd           | Website:  www.openfoam.com                      |
|    \\/     M anipulation  |                                                 |
\*---------------------------------------------------------------------------*/
FoamFile
{
    version     2.0;
    format      ascii;
    arch        "LSB;label=64;scalar=64";
    class       volScalarField;
    location    "3.4/water";
    object      Ct2;
}
// * * * * * * * * * * * * * * * * * * * * * * * * * * * * * * * * * * * * * //

dimensions      [0 0 0 0 0 0 0];

internalField   nonuniform List<scalar> 
23300
(
8.96939493636
8.96952756672
8.9697196985
8.96996048526
8.97023688972
8.97053778201
8.97085416764
8.97117848242
8.97150442744
8.97182659548
8.97214055874
8.97244264313
8.97273005515
8.97300068605
8.97325319203
8.97348679364
8.97370130417
8.97389693083
8.97407427799
8.97423416737
8.97437764135
8.9745058137
8.97461988628
8.97472103221
8.97481042833
8.97488916597
8.97495829582
8.97501875878
8.97507143827
8.97511710419
8.97515646844
8.97519013654
8.97521866372
8.97524251061
8.97526209826
8.9752777657
8.97528982321
8.97529851031
8.97530404708
8.97530659176
8.97530628989
8.97530323078
8.97529749401
8.97528910347
8.97527807575
8.97526444298
8.97524821392
8.97522934391
8.97520778546
8.97518344555
8.97515623101
8.97512600388
8.97509262539
8.97505591073
8.97501567232
8.97497167431
8.97492367538
8.97487138321
8.97481449697
8.97475266211
8.97468551302
8.97461262849
8.97453357554
8.97444786625
8.97435500413
8.97425444383
8.97414564222
8.97402802317
8.97390103666
8.97376413219
8.97361683043
8.97345871012
8.97328949872
8.97310907917
8.97291760749
8.97271554866
8.97250383443
8.9722839498
8.97205817138
8.97182978118
8.97160352629
8.97138620408
8.97118773389
8.97102265643
8.97091202013
8.9708803159
8.97092696568
8.97102940018
8.97116889799
8.97133234234
8.97151053408
8.97169680473
8.97188624498
8.97207515205
8.97226075635
8.97244096009
8.97261422911
8.9727794388
8.97293582846
8.97308289437
8.9732203696
8.97334814125
8.97346624222
8.97357478443
8.97367395813
8.97376397782
8.97384508693
8.97391751376
8.97398147928
8.97403715989
8.97408469533
8.97412415395
8.97415553508
8.97417875823
8.97419368159
8.97420003864
8.97419743825
8.97418532902
8.97416298884
8.97412948154
8.97408363652
8.97402400007
8.97394881183
8.97385596455
8.97374300251
8.97360712995
8.97344529139
8.97325430981
8.97303114633
8.97277326612
8.97247914318
8.9721488369
8.97178458033
8.97139121592
8.97097634992
8.97055015491
8.97012511779
8.96971671419
8.96934595806
8.96905657232
8.96548602368
8.96560444534
8.96581898861
8.96611039325
8.96646239951
8.9668602276
8.96729078032
8.96774248013
8.96820522097
8.96867017505
8.96912982216
8.96957781952
8.97000904886
8.97041948432
8.97080619669
8.97116718913
8.97150135395
8.97180828736
8.97208822438
8.97234185761
8.97257027763
8.97277481466
8.97295700041
8.9731184397
8.97326079822
8.97338570237
8.97349475037
8.97358943479
8.97367117193
8.97374124077
8.9738008256
8.9738509657
8.97389260684
8.97392655681
8.97395354211
8.9739741656
8.97398896539
8.97399837206
8.97400276782
8.97400244164
8.9739976476
8.97398855728
8.97397531712
8.97395799925
8.97393666334
8.97391136072
8.97388211876
8.97384889307
8.97381162876
8.97377020816
8.97372450889
8.97367434843
8.97361954101
8.97355984047
8.97349499699
8.97342469886
8.97334862958
8.97326640898
8.97317765141
8.97308190653
8.97297871962
8.97286757265
8.97274794813
8.97261927163
8.97248098129
8.97233247355
8.97217318136
8.9720025259
8.97182000774
8.97162516839
8.9714177001
8.97119742262
8.97096441853
8.97071903202
8.97046203775
8.97019466994
8.96991883537
8.96963718805
8.96935341246
8.96907238662
8.96880059433
8.96854642242
8.9683206268
8.96813629818
8.968007897
8.96794714518
8.9679554975
8.96802413411
8.96814117515
8.96829517911
8.96847627994
8.96867625869
8.96888847595
8.9691075505
8.96932920692
8.96954999734
8.96976721375
8.96997868884
8.97018276287
8.97037813732
8.97056386842
8.97073925011
8.9709038183
8.97105725264
8.97119938603
8.97133012124
8.97144944375
8.97155735053
8.97165386438
8.97173897165
8.97181263541
8.97187473805
8.97192509002
8.97196338914
8.97198926191
8.97200217289
8.97200142485
8.97198610568
8.9719550818
8.97190694421
8.97183999983
8.97175222709
8.97164128466
8.97150450723
8.97133897757
8.97114162553
8.97090944341
8.9706397779
8.97033077142
8.96998189104
8.96959455263
8.96917269463
8.96872317779
8.96825573196
8.96778218314
8.96731459087
8.96686190454
8.96642424698
8.96598199916
8.96547132016
8.96763640521
8.96770086671
8.96782908745
8.96801257701
8.96824281031
8.96851104576
8.96880874765
8.96912779459
8.96946065072
8.96980044281
8.97014105908
8.9704771745
8.97080430031
8.97111876235
8.97141769591
8.97169897909
8.97196118399
8.9722034821
8.97242557443
8.97262759044
8.97281001808
8.97297361177
8.97311933492
8.97324828402
8.97336164792
8.97346064889
8.97354651838
8.97362045305
8.97368360503
8.97373705043
8.97378179162
8.97381873552
8.97384870526
8.9738724252
8.97389053895
8.97390359816
8.97391208411
8.97391639762
8.97391688216
8.97391381317
8.97390742142
8.97389788124
8.97388533386
8.97386987524
8.97385156338
8.97383042815
8.97380648142
8.97377969788
8.97375003487
8.97371741536
8.97368174854
8.97364291185
8.97360077092
8.97355516078
8.97350590547
8.97345279894
8.97339562473
8.9733341369
8.97326808021
8.97319717163
8.97312112164
8.97303961682
8.97295234323
8.97285897105
8.97275918124
8.97265265352
8.97253909809
8.97241824867
8.97228990159
8.9721539161
8.97201026347
8.97185903721
8.97170051491
8.97153518063
8.97136380115
8.97118746086
8.97100765118
8.97082631436
8.97064594046
8.97046961123
8.97030108826
8.97014481899
8.97000592359
8.96988995514
8.96980235828
8.96974719657
8.96972585117
8.96973660049
8.96977573328
8.96983883092
8.96992142002
8.9700193097
8.97012876921
8.97024653903
8.97036983566
8.97049628168
8.97062388007
8.97075094378
8.97087607675
8.97099811535
8.97111611641
8.97122930689
8.97133707533
8.97143892719
8.97153447838
8.97162341571
8.97170549205
8.97178049139
8.97184822501
8.97190850006
8.97196111595
8.97200583519
8.97204237931
8.97207039394
8.97208946429
8.97209907763
8.97209861493
8.9720873245
8.97206431562
8.97202853846
8.97197878733
8.97191369988
8.9718317897
8.97173149254
8.97161126486
8.97146972133
8.97130584714
8.97111926902
8.97091060189
8.97068182779
8.97043667398
8.9701808856
8.96992228005
8.9696704045
8.96943562205
8.96922745348
8.96905213816
8.96890959725
8.96878921756
8.96867876148
8.96834516832
8.96839574341
8.96849514446
8.96863913029
8.96882223788
8.96903825567
8.96928070263
8.96954311482
8.96981927961
8.9701033842
8.97039014787
8.97067488725
8.97095357736
8.97122285566
8.97148002583
8.97172301628
8.97195034397
8.97216104691
8.97235462868
8.97253098357
8.97269033862
8.972833184
8.97296022207
8.97307230827
8.97317041058
8.97325556177
8.9733288296
8.97339127987
8.97344395707
8.97348785776
8.97352392117
8.97355301203
8.97357592003
8.97359335031
8.97360592971
8.97361420251
8.97361864087
8.97361964334
8.9736175473
8.97361262837
8.97360511338
8.97359517958
8.9735829672
8.97356857703
8.97355207912
8.97353345622
8.97351269953
8.97348977634
8.97346463705
8.97343720976
8.97340740847
8.97337512725
8.97334024797
8.97330263426
8.97326213884
8.97321859756
8.97317183656
8.9731216667
8.97306789093
8.97301029949
8.97294867789
8.97288280342
8.97281245438
8.97273740851
8.97265745436
8.97257239257
8.97248205039
8.97238628704
8.97228501266
8.97217819905
8.9720659046
8.97194829164
8.97182565846
8.97169846409
8.97156736713
8.97143325625
8.97129729191
8.97116093523
8.97102598102
8.97089456732
8.97076917405
8.97065257537
8.97054774664
8.97045767392
8.97038505623
8.97033184674
8.97029890717
8.97028599751
8.97029175731
8.97031418997
8.97035105416
8.97040004326
8.97045893816
8.97052567637
8.97059839077
8.97067541063
8.97075526175
8.97083664843
8.97091844536
8.97099967652
8.97107950594
8.97115721649
8.97123220048
8.97130393894
8.97137199245
8.97143598139
8.97149557721
8.97155048378
8.97160042919
8.9716451481
8.97168437391
8.97171782224
8.97174518375
8.97176608995
8.97178011157
8.97178675474
8.97178545269
8.97177555384
8.97175632073
8.97172692915
8.97168648369
8.97163404232
8.97156866794
8.97148950344
8.97139588893
8.97128751913
8.97116465523
8.97102838122
8.97088090075
8.97072583869
8.97056850418
8.97041603461
8.97027732694
8.97016263563
8.97008272667
8.97004751553
8.97006427933
8.97013584517
8.97025738333
8.97042461734
8.96901129139
8.96905170604
8.96913086347
8.96924609094
8.96939360906
8.9695688701
8.96976692371
8.96998266834
8.97021106772
8.97044731196
8.97068695287
8.97092598653
8.97116091865
8.97138878458
8.97160715961
8.97181413498
8.97200829216
8.97218865478
8.97235464596
8.97250603278
8.97264288046
8.97276549934
8.97287440286
8.97297026067
8.9730538626
8.97312607859
8.97318782914
8.97324005251
8.97328368245
8.9733196235
8.97334873701
8.97337182495
8.97338962419
8.97340279805
8.97341193746
8.97341755837
8.97342010758
8.97341996359
8.97341744501
8.9734128129
8.97340628
8.97339801332
8.97338814312
8.97337676474
8.97336394835
8.9733496459
8.97333382601
8.97331644385
8.97329744207
8.97327674862
8.97325428098
8.97322994396
8.97320363362
8.973175235
8.97314462579
8.97311167417
8.97307624237
8.97303818486
8.97299735198
8.97295358886
8.97290673936
8.97285664606
8.97280315498
8.97274611704
8.97268539406
8.97262086229
8.97255242037
8.97247999553
8.97240355423
8.97232311174
8.97223874608
8.97215061147
8.97205895584
8.97196413789
8.97186664719
8.97176712265
8.97166637124
8.97156538148
8.97146533137
8.97136758372
8.97127366649
8.97118522939
8.97110397306
8.97103154209
8.97096938301
8.97091858732
8.97087969765
8.97085284584
8.97083771368
8.97083346737
8.97083906746
8.97085336911
8.97087518592
8.97090334617
8.97093672904
8.97097428305
8.97101503782
8.9710581065
8.97110268732
8.97114805929
8.97119357958
8.97123867599
8.97128284229
8.97132562908
8.97136663805
8.971405512
8.97144192866
8.97147559026
8.97150621715
8.97153353737
8.97155728035
8.97157716717
8.97159290519
8.97160415622
8.97161052268
8.97161156702
8.97160680794
8.97159571813
8.97157773083
8.97155225168
8.97151868548
8.97147647639
8.97142517263
8.97136451612
8.97129456802
8.97121586944
8.97112964287
8.97103802416
8.97094431382
8.97085321481
8.97077101442
8.97070564275
8.97066652859
8.9706641552
8.97070921906
8.97081130956
8.97097711351
8.97120839346
8.9714996316
8.97184061696
8.96951592137
8.96954924663
8.96961444979
8.96970960759
8.96983185049
8.96997764071
8.97014303941
8.97032390685
8.97051608702
8.97071555523
8.97091854407
8.97112162698
8.97132178232
8.97151641958
8.97170339306
8.97188098766
8.97204790046
8.97220320497
8.97234631799
8.97247695703
8.97259510403
8.97270096379
8.97279492946
8.97287754455
8.97294947129
8.97301145652
8.9730643038
8.97310884399
8.9731459126
8.97317632684
8.97320086988
8.97322027568
8.97323522078
8.97324631659
8.97325410802
8.97325907153
8.97326161864
8.9732620977
8.97326080008
8.97325796373
8.97325378042
8.97324839964
8.97324193578
8.97323447154
8.97322606706
8.97321666934
8.97320622484
8.97319467471
8.97318195252
8.97316798308
8.97315268476
8.97313596859
8.97311774042
8.97309790015
8.97307634365
8.97305296216
8.97302764407
8.97300027466
8.97297073791
8.97293891675
8.97290469506
8.97286795868
8.97282859787
8.97278650939
8.97274159967
8.97269378828
8.97264301221
8.97258923109
8.9725324329
8.97247264118
8.97240992248
8.97234439565
8.97227624075
8.97220570993
8.97213313683
8.9720589471
8.97198366546
8.9719079216
8.9718324492
8.97175807981
8.9716857253
8.97161635077
8.97155093218
8.97149040293
8.97143558852
8.97138714215
8.97134547015
8.97131070953
8.97128292649
8.97126193363
8.97124728044
8.97123844989
8.97123486751
8.97123592863
8.97124102049
8.97124954081
8.97126090874
8.97127457307
8.97129001664
8.97130675878
8.97132435592
8.97134240076
8.97136052066
8.97137837471
8.97139565077
8.97141206121
8.97142733904
8.97144123275
8.97145350201
8.97146391209
8.97147222961
8.97147821746
8.97148163196
8.97148219691
8.97147957704
8.97147341614
8.97146333749
8.97144894911
8.97142985705
8.97140568647
8.97137611674
8.97134093177
8.97130009263
8.97125383436
8.97120279328
8.97114816404
8.97109188693
8.97103685477
8.97098712475
8.97094810409
8.97092666801
8.97093114865
8.97097111962
8.97105688139
8.97119854125
8.97140457358
8.97167978434
8.97202280398
8.97242351914
8.97286315177
8.9699220037
8.96995012494
8.97000514755
8.97008553685
8.97018897616
8.97031257464
8.97045307993
8.97060703915
8.97077095443
8.97094141254
8.9711151973
8.97128936689
8.97146131283
8.9716287866
8.97178991368
8.971943184
8.97208743782
8.9722218374
8.97234584036
8.97245916566
8.97256176406
8.9726537847
8.97273554625
8.97280750553
8.97287022987
8.97292436792
8.97297062393
8.97300973187
8.97304243362
8.97306945837
8.97309150677
8.97310923723
8.97312325704
8.97313411553
8.97314230151
8.97314824202
8.97315230438
8.97315479851
8.97315598169
8.9731560626
8.97315520717
8.97315354304
8.97315116533
8.9731481404
8.9731445171
8.97314025661
8.97313528548
8.97312953265
8.9731229233
8.97311537892
8.97310681817
8.97309715653
8.9730863074
8.97307418189
8.97306068974
8.97304573934
8.97302923849
8.97301109473
8.97299121604
8.9729695116
8.97294589252
8.9729202732
8.97289257226
8.97286271458
8.97283063266
8.97279626956
8.97275958075
8.97272053826
8.97267913311
8.97263538066
8.97258932388
8.97254103969
8.97249064274
8.97243829238
8.9723841962
8.97232861618
8.9722718704
8.97221433601
8.97215644602
8.97209868568
8.97204158055
8.97198568275
8.97193154796
8.97187971083
8.97183065363
8.97178477796
8.97174238581
8.97170363136
8.97166855238
8.9716372743
8.97160972659
8.9715856912
8.97156493495
8.97154719048
8.97153216992
8.97151957359
8.97150909895
8.9715004477
8.97149332936
8.97148746541
8.9714825905
8.9714784542
8.97147482062
8.97147146859
8.97146819013
8.97146478935
8.97146108028
8.97145688482
8.97145203018
8.97144634656
8.97143966472
8.97143181421
8.97142262314
8.97141190174
8.9713993999
8.97138486188
8.97136803025
8.97134865713
8.97132652268
8.97130146291
8.97127341047
8.97124245115
8.97120890036
8.9711734022
8.97113705391
8.97110155499
8.97106937798
8.97104395009
8.97102982879
8.97103284153
8.97106014848
8.97112016942
8.97122229943
8.97137631579
8.97159135689
8.97187433201
8.97222763095
8.9726461665
8.97311431887
8.97360505156
8.97025059388
8.97027481146
8.97032227089
8.97039162386
8.97048090338
8.9705876447
8.97070906563
8.97084220205
8.97098404284
8.97113164325
8.97128222469
8.97143324361
8.97158244386
8.97172788016
8.97186793028
8.97200128648
8.9721269429
8.97224417119
8.97235249753
8.97245167393
8.97254165321
8.97262256106
8.97269467149
8.9727583804
8.97281418151
8.97286264134
8.9729043763
8.97294003013
8.9729702541
8.97299568897
8.97301695033
8.97303461667
8.97304922085
8.9730612444
8.97307111458
8.97307920377
8.97308583067
8.97309126293
8.97309572087
8.97309938161
8.97310238385
8.97310483239
8.97310680288
8.97310834565
8.97310949133
8.97311023545
8.97311049491
8.97311018198
8.9731092159
8.9731075157
8.97310500041
8.97310158916
8.97309720137
8.97309175695
8.97308517634
8.97307738086
8.9730682927
8.9730578355
8.97304593426
8.97303251628
8.97301751102
8.9730008515
8.97298247412
8.97296232072
8.97294033841
8.97291648227
8.97289071542
8.97286301241
8.97283335955
8.97280175898
8.97276822934
8.97273281032
8.97269556351
8.97265657709
8.97261596634
8.9725738778
8.97253048848
8.97248600825
8.97244067648
8.97239476103
8.97234855085
8.97230235034
8.9722564672
8.97221120229
8.97216683424
8.97212360863
8.97208172339
8.97204133202
8.97200249491
8.97196523455
8.97192972398
8.97189597378
8.97186390058
8.97183342486
8.97180444643
8.97177685474
8.97175052884
8.97172534348
8.97170117147
8.97167788678
8.97165536537
8.97163348743
8.97161213712
8.97159120386
8.97157058138
8.97155016817
8.97152986615
8.97150958044
8.97148921801
8.97146868731
8.97144789739
8.97142675834
8.97140518201
8.9713830815
8.97136030774
8.97133671597
8.9713121765
8.97128658913
8.9712599058
8.97123216286
8.97120352565
8.97117434818
8.97114525081
8.9711172181
8.97109171789
8.97107084011
8.97105745031
8.97105534688
8.97106940393
8.971105671
8.97117138888
8.9712748647
8.97142513062
8.97163128567
8.97190139083
8.97224075197
8.97264941046
8.97311878349
8.97362802542
8.97414261346
8.97052114697
8.97054238515
8.97058414632
8.97064514731
8.97072364715
8.97081746615
8.97092414725
8.97104107597
8.97116560136
8.97129513736
8.9714272521
8.97155972809
8.97169060763
8.97181821134
8.97194114677
8.97205829836
8.97216881439
8.97227208383
8.97236771505
8.97245551005
8.97253544231
8.9726076325
8.97267232725
8.97272987648
8.97278071282
8.97282533018
8.97286426406
8.97289807241
8.97292731835
8.97295255506
8.9729743129
8.97299308947
8.97300934205
8.97302348303
8.97303587715
8.97304684127
8.97305664525
8.97306551448
8.97307363293
8.97308114702
8.97308816959
8.97309478414
8.97310104879
8.97310700046
8.97311265211
8.97311802383
8.97312305141
8.97312762966
8.97313167249
8.97313509675
8.97313782191
8.9731397702
8.97314086605
8.97314103639
8.97314021006
8.97313831829
8.97313529404
8.97313107275
8.97312559158
8.97311879049
8.97311061134
8.9731009994
8.97308990233
8.97307727215
8.97306306417
8.97304723937
8.97302976344
8.97301060953
8.97298975743
8.9729671967
8.97294292593
8.97291695621
8.97288931031
8.97286002629
8.97282915643
8.97279677044
8.9727629538
8.97272781009
8.97269145806
8.9726540324
8.97261567916
8.97257655447
8.97253681795
8.97249662962
8.97245614202
8.97241549645
8.97237481634
8.97233420358
8.97229374257
8.97225345892
8.97221337326
8.97217366473
8.97213440518
8.97209559076
8.97205721929
8.97201928313
8.97198176715
8.97194465516
8.97190792516
8.97187155492
8.97183552112
8.97179980131
8.97176437346
8.97172921737
8.97169431388
8.97165964581
8.97162519711
8.97159095354
8.97155690202
8.97152303152
8.97148933324
8.97145580264
8.97142244123
8.97138926425
8.97135623966
8.97132333755
8.9712905581
8.97125794757
8.9712256238
8.97119381147
8.97116288863
8.97113344761
8.97110637195
8.97108293106
8.97106489244
8.97105464926
8.97105535718
8.97107106918
8.97110685003
8.97116884271
8.97126424728
8.97140115723
8.9715881788
8.97183373075
8.97214488445
8.97252555211
8.97297378181
8.97347798599
8.97401259596
8.97453612929
8.97074765024
8.9707665884
8.9708040274
8.97085866903
8.97092891743
8.97101278366
8.97110803569
8.97121230942
8.97132322144
8.9714384614
8.97155587307
8.9716735067
8.97178965734
8.97190287756
8.97201198147
8.97211603152
8.97221432369
8.97230636358
8.97239184556
8.97247062821
8.97254271391
8.972608227
8.97266739524
8.97272053036
8.97276801057
8.97281026285
8.97284774644
8.97288093725
8.97291031351
8.97293634353
8.97295947501
8.9729801271
8.97299868401
8.97301549153
8.9730308546
8.97304503734
8.9730582637
8.9730707198
8.97308255631
8.97309389201
8.97310481696
8.97311539634
8.9731256738
8.97313567507
8.9731454075
8.97315488347
8.97316408667
8.97317290366
8.97318124249
8.97318901737
8.97319614812
8.97320255948
8.97320818005
8.97321294242
8.97321678211
8.97321963805
8.97322145144
8.97322216653
8.97322172938
8.97322008898
8.97321719586
8.9732130036
8.97320746727
8.97320054532
8.97319219793
8.97318238918
8.97317108544
8.97315825781
8.97314388048
8.97312793347
8.97311040099
8.97309127433
8.97307055026
8.97304823393
8.97302433712
8.97299888108
8.97297189444
8.97294341568
8.97291349059
8.97288217408
8.97284952698
8.97281561707
8.97278051518
8.97274429531
8.97270703034
8.97266879174
8.97262964541
8.97258965231
8.97254886346
8.97250732751
8.97246505593
8.97242206754
8.97237849624
8.97233448035
8.9722900598
8.97224525874
8.97220012591
8.97215469555
8.9721090079
8.97206310245
8.97201701853
8.971970798
8.97192448381
8.97187812137
8.97183175784
8.97178544323
8.9717392297
8.97169317276
8.97164733102
8.97160176787
8.97155655238
8.97151176236
8.97146748786
8.97142384021
8.97138091192
8.9713387869
8.97129759219
8.9712575152
8.97121883097
8.97118193909
8.97114741105
8.97111605098
8.97108897054
8.97106767938
8.97105418996
8.97105113412
8.97106188459
8.97109067038
8.97114266786
8.97122404129
8.97134189503
8.97150408491
8.97171881565
8.97199392017
8.97233566915
8.9727468852
8.97322404161
8.9737530215
8.9743039032
8.97482843444
8.97094094044
8.97095808785
8.9709922406
8.97104202855
8.9711059454
8.97118212721
8.97126849606
8.97136286691
8.97146305551
8.97156696486
8.97167265972
8.97177841172
8.97188273094
8.97198437227
8.97208233422
8.97217584158
8.97226432771
8.97234740899
8.9724248632
8.97249660526
8.97256266783
8.9726231813
8.97267835745
8.972728473
8.97277385521
8.97281486762
8.97285189707
8.97288534141
8.97291559838
8.97294305603
8.97296808435
8.97299102914
8.97301220685
8.97303190196
8.9730503649
8.97306781225
8.97308442705
8.97310036087
8.97311573564
8.97313064663
8.97314516498
8.97315934099
8.97317320674
8.97318677897
8.97320006129
8.97321304992
8.97322578492
8.97323816142
8.97325007336
8.97326143458
8.97327216562
8.97328219347
8.97329145019
8.97329987304
8.97330740295
8.973313985
8.97331956685
8.97332409958
8.97332753599
8.97332983185
8.97333094404
8.97333083216
8.97332945655
8.97332678015
8.97332276648
8.97331738174
8.97331059273
8.9733023692
8.97329268168
8.97328150407
8.97326881145
8.97325458275
8.97323879863
8.97322144414
8.97320250661
8.97318197826
8.97315985403
8.97313613404
8.97311082135
8.97308392419
8.97305545355
8.97302542512
8.97299385669
8.97296076974
8.97292618671
8.97289013233
8.97285263095
8.97281370781
8.97277338699
8.97273169142
8.97268864438
8.97264425512
8.97259853208
8.97255153301
8.9725034653
8.97245438065
8.97240431475
8.97235334477
8.97230152998
8.97224893638
8.97219563816
8.97214171169
8.9720872377
8.9720323027
8.97197699775
8.97192141995
8.9718656719
8.97180986322
8.97175411064
8.97169854016
8.97164328856
8.97158850714
8.97153436591
8.97148106463
8.97142882114
8.97137782612
8.97132832664
8.97128064259
8.97123519515
8.97119254443
8.97115343685
8.97111886473
8.97109013862
8.97106897306
8.9710575842
8.97105879629
8.9710761499
8.97111400126
8.97117759523
8.97127308703
8.9714074773
8.97158841016
8.97182376278
8.97212091947
8.97248556517
8.97291973244
8.97341868629
8.97396613788
8.97452799682
8.97504923911
8.9711094883
8.97112523054
8.97115688597
8.97120296953
8.97126202441
8.97133226462
8.97141171499
8.9714983171
8.97159003538
8.97168493931
8.97178127272
8.97187749235
8.97197229277
8.97206460608
8.97215359517
8.97223863155
8.97231927415
8.97239524136
8.97246638815
8.97253268147
8.97259418155
8.97265102335
8.97270340237
8.97275156098
8.9727957772
8.9728363539
8.97287360918
8.97290786755
8.97293945165
8.97296867544
8.97299583781
8.97302121811
8.97304507205
8.97306762975
8.9730890939
8.97310963988
8.97312941587
8.97314854443
8.97316712376
8.97318523019
8.97320292005
8.97322023238
8.97323719099
8.97325380725
8.97327008259
8.97328599799
8.97330160634
8.97331687057
8.97333166312
8.97334589519
8.97335948693
8.97337236685
8.97338446978
8.9733957368
8.97340611329
8.97341554934
8.97342399787
8.97343141543
8.97343776023
8.97344299337
8.97344707676
8.97344997469
8.97345165164
8.97345207415
8.9734512085
8.97344902284
8.97344548484
8.97344056395
8.97343422901
8.97342645071
8.97341719917
8.97340644644
8.97339416417
8.97338032614
8.97336490594
8.97334787949
8.97332922283
8.97330891457
8.97328693375
8.97326326221
8.97323788254
8.97321078035
8.97318194227
8.97315135804
8.97311901852
8.97308491765
8.97304905051
8.97301141514
8.97297201065
8.97293083906
8.97288790299
8.97284320653
8.97279676012
8.97274855207
8.97269859138
8.97264707419
8.97259407968
8.97253967054
8.97248390096
8.97242685969
8.97236862041
8.97230927215
8.97224891277
8.97218764692
8.97212558863
8.97206286224
8.97199960207
8.97193595429
8.97187207749
8.97180814524
8.97174434808
8.97168089782
8.97161803202
8.97155602683
8.97149521987
8.97143589935
8.97137842259
8.97132323039
8.97127087702
8.97122206795
8.97117770659
8.97113895244
8.97110729043
8.97108461218
8.97107330703
8.97107635968
8.97109744756
8.97114102754
8.97121239553
8.97131769585
8.97146384661
8.97165833334
8.97190879969
8.97222232483
8.97260420599
8.97305593528
8.97357184636
8.97413371033
8.97470332165
8.9752188618
8.97126007968
8.97127470833
8.97130446762
8.97134772351
8.97140303923
8.97146867189
8.97154271115
8.97162318659
8.97170817363
8.97179587313
8.97188467635
8.9719731971
8.97206029026
8.9721450446
8.97222677006
8.97230497049
8.9723793185
8.97244962471
8.9725158133
8.97257789693
8.97263595853
8.97269013417
8.97274060112
8.97278756693
8.97283126141
8.97287192928
8.97290982388
8.97294520153
8.97297831605
8.97300941433
8.97303873169
8.97306648882
8.97309288851
8.97311811408
8.97314232767
8.97316567022
8.97318826115
8.97321019951
8.97323156471
8.97325241839
8.97327280576
8.97329275781
8.97331229291
8.97333141928
8.97335013687
8.97336842971
8.97338631158
8.97340383928
8.97342087976
8.97343734045
8.97345313935
8.97346820568
8.97348247626
8.97349589513
8.97350841131
8.97351997907
8.9735305557
8.97354010233
8.97354858169
8.97355595934
8.97356220141
8.97356727615
8.97357115161
8.97357379748
8.97357518268
8.97357527745
8.97357405082
8.97357147294
8.97356751249
8.97356213911
8.97355532087
8.97354702669
8.97353722389
8.97352588067
8.97351296368
8.97349844051
8.97348227742
8.97346444174
8.9734448998
8.97342361926
8.97340056724
8.97337571257
8.97334902407
8.97332047275
8.97329003012
8.97325767035
8.97322336863
8.97318710314
8.97314885358
8.9731086029
8.97306633583
8.97302204134
8.97297570683
8.97292733296
8.97287690047
8.97282441449
8.97276993261
8.97271363867
8.9726555793
8.97259580702
8.9725344086
8.97247147026
8.97240707975
8.9723413461
8.97227438957
8.97220634307
8.97213735511
8.97206759128
8.97199723526
8.97192649196
8.97185559009
8.97178478693
8.97171437326
8.9716446807
8.97157615636
8.97150918353
8.97144421276
8.97138179272
8.97132259627
8.97126745829
8.97121742171
8.97117379405
8.97113821387
8.9711127279
8.97109987625
8.97110278288
8.97112524428
8.97117180679
8.97124781704
8.97135942379
8.9715134994
8.97171743446
8.97197873458
8.97230430373
8.9726992149
8.97316460847
8.97369407752
8.97426758905
8.97484281634
8.97535121857
8.97139828346
8.97141201582
8.97144033123
8.971481419
8.97153384014
8.971595869
8.97166563191
8.97174121768
8.9718207851
8.97190264054
8.97198529906
8.97206751067
8.97214827203
8.9722268124
8.97230257462
8.97237518243
8.97244441122
8.97251015425
8.97257239665
8.97263118971
8.9726866334
8.97273886069
8.972788028
8.97283430717
8.97287788067
8.97291893761
8.97295767069
8.97299427354
8.97302893771
8.97306185031
8.97309319087
8.97312312934
8.97315182333
8.97317941685
8.97320603847
8.97323180106
8.97325680103
8.97328111898
8.97330481991
8.97332795453
8.97335056009
8.97337266208
8.97339427529
8.97341540574
8.97343605121
8.9734562036
8.97347583565
8.97349507059
8.97351381785
8.97353195673
8.97354940759
8.97356610076
8.97358197473
8.97359697612
8.97361105701
8.97362417526
8.97363629195
8.97364737216
8.97365738256
8.9736662926
8.97367407211
8.97368069287
8.97368612615
8.9736903446
8.97369331972
8.97369502396
8.97369542817
8.97369450383
8.97369222052
8.9736885482
8.97368345475
8.97367690826
8.97366887464
8.97365931992
8.97364820793
8.97363550264
8.97362116591
8.97360515984
8.97358744466
8.97356798105
8.97354672825
8.9735236463
8.97349869432
8.97347183267
8.97344302144
8.97341222244
8.97337939783
8.97334451201
8.97330753027
8.97326842062
8.97322715255
8.97318369846
8.97313803388
8.97309013569
8.97303998173
8.97298756769
8.97293286883
8.97287588298
8.97281674569
8.97275555948
8.97269238885
8.9726272782
8.97256033761
8.97249165655
8.97242133935
8.97234951736
8.97227633918
8.9722019735
8.97212661332
8.97205047919
8.97197382227
8.97189693018
8.97182013299
8.9717438062
8.97166844446
8.97159456298
8.97152268366
8.97145344655
8.97138762649
8.97132617086
8.97127024474
8.9712212858
8.97118106812
8.97115177566
8.97113608275
8.97113723883
8.97115915057
8.97120645256
8.9712845519
8.97139962626
8.97155854502
8.97176866803
8.97203744998
8.97237172877
8.97277647972
8.97325262595
8.97379314382
8.97437627155
8.97495554934
8.97545593077
8.97152880826
8.97154180086
8.97156900097
8.97160839903
8.97165853733
8.97171768817
8.97178399394
8.97185558202
8.97193067454
8.97200766497
8.9720851756
8.97216207772
8.97223749658
8.97231078999
8.97238152292
8.97244942903
8.97251437727
8.97257633504
8.97263534058
8.97269147703
8.97274485565
8.97279560201
8.97284384894
8.97288973156
8.97293338579
8.97297494766
8.97301455329
8.97305233898
8.9730884404
8.97312299191
8.97315612463
8.97318796517
8.97321863321
8.97324824024
8.97327688755
8.97330466558
8.97333165273
8.97335791546
8.97338350806
8.97340847339
8.97343284331
8.97345663993
8.97347987638
8.97350255839
8.97352468557
8.97354625487
8.97356723652
8.97358768122
8.97360765073
8.97362699865
8.97364563916
8.97366350026
8.97368052091
8.97369664942
8.97371184033
8.97372605448
8.97373925617
8.97375141399
8.97376249804
8.97377248126
8.97378133679
8.9737890396
8.97379556393
8.97380088522
8.97380497745
8.97380781535
8.97380937176
8.97380961988
8.9738085307
8.97380607534
8.97380222248
8.97379694072
8.97379019613
8.97378195454
8.97377217925
8.97376083324
8.97374787702
8.9737332708
8.9737169725
8.9736989399
8.97367912877
8.97365749497
8.97363399279
8.97360857695
8.97358120108
8.97355181969
8.97352038668
8.97348685727
8.97345118665
8.97341333174
8.97337324999
8.97333090114
8.9732862459
8.97323924805
8.97318987469
8.97313809141
8.97308387729
8.97302721023
8.97296807786
8.97290646122
8.97284255394
8.9727764029
8.97270808628
8.97263765107
8.97256522381
8.97249091053
8.97241483988
8.97233717472
8.97225810467
8.97217785045
8.97209667047
8.97201486689
8.97193279247
8.97185085842
8.97176956447
8.97168955772
8.97161142114
8.97153586923
8.9714637616
8.97139614096
8.97133427739
8.97127972165
8.97123436686
8.97120051906
8.97118097397
8.97117909742
8.9711989028
8.97124511741
8.97132322371
8.97143945622
8.97160072446
8.97181441703
8.97208801301