/*--------------------------------*- C++ -*----------------------------------*\
| =========                 |                                                 |
| \\      /  F ield         | OpenFOAM: The Open Source CFD Toolbox           |
|  \\    /   O peration     | Version:  2206                                  |
|   \\  /    A nd           | Website:  www.openfoam.com                      |
|    \\/     M anipulation  |                                                 |
\*---------------------------------------------------------------------------*/
FoamFile
{
    version     2.0;
    format      ascii;
    arch        "LSB;label=64;scalar=64";
    class       volScalarField;
    location    "3.4/water";
    object      d.gas;
}
// * * * * * * * * * * * * * * * * * * * * * * * * * * * * * * * * * * * * * //

dimensions      [0 1 0 0 0 0 0];

internalField   nonuniform List<scalar> 
23300
(
0.00498791002989
0.00498790908795
0.004987909241
0.00498790944768
0.00498790970666
0.00498791000991
0.00498791034887
0.00498791071284
0.00498791109349
0.00498791148142
0.00498791187015
0.00498791225271
0.00498791262523
0.00498791298373
0.00498791332705
0.00498791365407
0.0049879139659
0.00498791426352
0.00498791454928
0.00498791482515
0.00498791509355
0.00498791535632
0.00498791561496
0.00498791587035
0.0049879161225
0.00498791637103
0.00498791661433
0.00498791685085
0.00498791707771
0.00498791729263
0.00498791749194
0.0049879176732
0.00498791783253
0.00498791796781
0.00498791807543
0.00498791815398
0.00498791820043
0.00498791821429
0.00498791819326
0.00498791813786
0.00498791804657
0.00498791792088
0.00498791776003
0.00498791756641
0.00498791734026
0.00498791708503
0.00498791680124
0.00498791649272
0.00498791616053
0.00498791580909
0.00498791543987
0.0049879150577
0.00498791466437
0.00498791426499
0.00498791386151
0.00498791345918
0.00498791306001
0.00498791266929
0.00498791228894
0.00498791192418
0.00498791157675
0.00498791125166
0.00498791095042
0.00498791067771
0.0049879104347
0.00498791022569
0.00498791005142
0.00498790991575
0.00498790981888
0.00498790976413
0.00498790975106
0.0049879097823
0.00498790985659
0.00498790997562
0.00498791013697
0.00498791034103
0.00498791058374
0.0049879108636
0.00498791117434
0.00498791151197
0.0049879118676
0.00498791223485
0.00498791260358
0.00498791296961
0.00498791333222
0.00498791369436
0.0049879140491
0.00498791439041
0.0049879147137
0.0049879150257
0.00498791533178
0.00498791563982
0.00498791595317
0.00498791627669
0.00498791661093
0.00498791695805
0.0049879173165
0.00498791768654
0.00498791806528
0.00498791845179
0.00498791884246
0.00498791923571
0.0049879196277
0.00498792001663
0.00498792039874
0.00498792077229
0.00498792113384
0.00498792148189
0.00498792181347
0.00498792212746
0.00498792242147
0.00498792269487
0.00498792294592
0.00498792317454
0.00498792337967
0.00498792356173
0.00498792372028
0.00498792385622
0.00498792396972
0.00498792406211
0.00498792413407
0.00498792418723
0.00498792422254
0.0049879242416
0.00498792424521
0.00498792423438
0.00498792420903
0.00498792416881
0.00498792411199
0.00498792403629
0.00498792393831
0.00498792381463
0.00498792366224
0.00498792348022
0.00498792327117
0.00498792304346
0.00498792281338
0.00498792260782
0.00498792246472
0.00498792138235
0.00498804200664
0.00498804103241
0.00498804108569
0.00498804117918
0.0049880413085
0.00498804146923
0.00498804165722
0.00498804186678
0.00498804209358
0.00498804233262
0.00498804258081
0.00498804283487
0.00498804309349
0.00498804335535
0.00498804362086
0.00498804389041
0.00498804416559
0.00498804444775
0.00498804473882
0.00498804504022
0.00498804535331
0.00498804567873
0.00498804601661
0.00498804636632
0.0049880467264
0.00498804709487
0.00498804746882
0.00498804784518
0.00498804822005
0.00498804858979
0.00498804895006
0.00498804929726
0.00498804962716
0.0049880499367
0.00498805022219
0.00498805048138
0.0049880507114
0.004988050911
0.00498805107819
0.00498805121276
0.00498805131361
0.00498805138148
0.00498805141609
0.00498805141903
0.00498805139088
0.00498805133413
0.00498805124977
0.00498805114073
0.00498805100844
0.00498805085622
0.00498805068583
0.00498805050085
0.0049880503032
0.00498805009662
0.00498804988308
0.00498804966633
0.00498804944826
0.00498804923249
0.00498804902073
0.00498804881638
0.00498804862084
0.00498804843717
0.00498804826639
0.00498804811114
0.00498804797199
0.00498804785108
0.00498804774849
0.00498804766588
0.00498804760279
0.00498804756041
0.00498804753779
0.00498804753566
0.00498804755265
0.00498804758909
0.00498804764326
0.00498804771523
0.00498804780303
0.00498804790662
0.00498804802413
0.00498804815594
0.00498804830127
0.00498804846284
0.00498804864423
0.00498804885536
0.00498804910842
0.00498804941078
0.00498804975611
0.00498805013126
0.00498805051862
0.00498805090768
0.00498805129122
0.00498805166676
0.00498805203193
0.00498805238684
0.00498805273052
0.00498805306366
0.00498805338554
0.00498805369678
0.00498805399657
0.00498805428532
0.00498805456208
0.004988054827
0.004988055079
0.00498805531804
0.00498805554295
0.00498805575355
0.00498805594865
0.00498805612802
0.00498805629053
0.004988056436
0.00498805656348
0.00498805667293
0.00498805676372
0.00498805683612
0.00498805688988
0.0049880569256
0.00498805694344
0.0049880569444
0.00498805692919
0.0049880568993
0.00498805685599
0.00498805680124
0.00498805673684
0.00498805666513
0.00498805658813
0.00498805650812
0.00498805642675
0.00498805634538
0.00498805626424
0.00498805618264
0.00498805609843
0.00498805600839
0.00498805590842
0.00498805579462
0.00498805566446
0.00498805551883
0.00498805536422
0.00498805521589
0.00498805510439
0.00498805400824
0.00498817563391
0.0049881746859
0.00498817472999
0.00498817481124
0.00498817492517
0.00498817506676
0.00498817523188
0.00498817541528
0.00498817561286
0.00498817582002
0.00498817603378
0.00498817625119
0.00498817647113
0.00498817669269
0.00498817691667
0.00498817714402
0.0049881773769
0.00498817761737
0.00498817786806
0.00498817813113
0.00498817840864
0.00498817870193
0.00498817901173
0.00498817933792
0.00498817967948
0.00498818003473
0.00498818040099
0.00498818077528
0.00498818115374
0.00498818153262
0.00498818190751
0.00498818227453
0.00498818262929
0.00498818296834
0.00498818328777
0.00498818358488
0.00498818385653
0.00498818410096
0.00498818431589
0.00498818450056
0.00498818465354
0.00498818477499
0.00498818486427
0.00498818492233
0.00498818494953
0.00498818494787
0.00498818491796
0.00498818486204
0.00498818478115
0.00498818467792
0.00498818455368
0.00498818441131
0.00498818425232
0.00498818407974
0.00498818389515
0.00498818370159
0.00498818350061
0.00498818329517
0.00498818308668
0.00498818287794
0.00498818267015
0.00498818246589
0.00498818226606
0.00498818207298
0.00498818188725
0.00498818171089
0.00498818154423
0.00498818138902
0.00498818124531
0.00498818111469
0.00498818099705
0.00498818089385
0.00498818080496
0.00498818073191
0.00498818067467
0.00498818063501
0.00498818061324
0.00498818061161
0.00498818063116
0.00498818067517
0.00498818074614
0.00498818084951
0.00498818099082
0.004988181179
0.00498818142184
0.00498818172279
0.00498818207476
0.00498818246881
0.00498818289259
0.00498818333467
0.00498818378491
0.00498818423694
0.00498818468483
0.00498818512528
0.00498818555463
0.00498818597121
0.0049881863726
0.004988186758
0.00498818712574
0.00498818747549
0.00498818780607
0.00498818811743
0.00498818840868
0.00498818867996
0.00498818893059
0.00498818916082
0.00498818937011
0.0049881895588
0.00498818972652
0.00498818987369
0.00498819000015
0.00498819010648
0.00498819019278
0.00498819025993
0.00498819030841
0.00498819033934
0.00498819035355
0.00498819035256
0.00498819033764
0.00498819031075
0.00498819027364
0.00498819022864
0.00498819017788
0.00498819012382
0.00498819006858
0.00498819001422
0.00498818996201
0.00498818991258
0.00498818986521
0.00498818981789
0.00498818976693
0.00498818970731
0.00498818963297
0.00498818953792
0.00498818941757
0.00498818927076
0.00498818910213
0.00498818892554
0.00498818876889
0.00498818761549
0.00498830890136
0.00498830796758
0.00498830801818
0.00498830810264
0.00498830821768
0.00498830835828
0.00498830852024
0.00498830869844
0.00498830888887
0.0049883090871
0.00498830929028
0.00498830949558
0.00498830970201
0.00498830990888
0.00498831011716
0.00498831032813
0.00498831054424
0.00498831076796
0.00498831100232
0.00498831124994
0.00498831151333
0.00498831179427
0.00498831209388
0.00498831241241
0.00498831274915
0.00498831310266
0.00498831347047
0.00498831384969
0.00498831423655
0.0049883146273
0.00498831501749
0.00498831540318
0.00498831577986
0.0049883161439
0.00498831649122
0.00498831681891
0.00498831712355
0.00498831740313
0.00498831765505
0.00498831787823
0.00498831807089
0.00498831823283
0.00498831836302
0.00498831846202
0.00498831852982
0.00498831856807
0.00498831857711
0.00498831855875
0.00498831851358
0.00498831844383
0.0049883183504
0.00498831823577
0.00498831810108
0.00498831794896
0.00498831778065
0.00498831759888
0.0049883174049
0.00498831720143
0.00498831698967
0.00498831677225
0.00498831655027
0.00498831632625
0.00498831610112
0.00498831587727
0.00498831565548
0.00498831543801
0.0049883152255
0.00498831502012
0.00498831482247
0.0049883146347
0.00498831445744
0.00498831429295
0.00498831414201
0.00498831400712
0.00498831388934
0.00498831379155
0.00498831371528
0.00498831366396
0.00498831363977
0.00498831364696
0.00498831368874
0.00498831377061
0.00498831389715
0.0049883140748
0.00498831430752
0.00498831459779
0.004988314938
0.00498831532112
0.00498831574016
0.00498831618596
0.00498831664896
0.00498831712214
0.00498831759837
0.00498831807288
0.0049883185405
0.00498831899807
0.00498831944188
0.00498831986993
0.00498832027957
0.00498832066964
0.00498832103833
0.00498832138511
0.00498832170877
0.00498832200925
0.00498832228583
0.00498832253876
0.00498832276768
0.00498832297311
0.00498832315497
0.00498832331399
0.00498832345036
0.00498832356505
0.00498832365854
0.00498832373214
0.00498832378672
0.00498832382382
0.00498832384461
0.00498832385094
0.00498832384442
0.00498832382722
0.00498832380133
0.00498832376919
0.00498832373296
0.00498832369508
0.00498832365744
0.00498832362182
0.00498832358903
0.00498832355915
0.00498832353077
0.00498832350113
0.00498832346573
0.00498832341871
0.00498832335309
0.00498832326188
0.00498832313931
0.00498832298268
0.00498832279457
0.00498832258558
0.00498832237734
0.0049883212036
0.0049884419747
0.00498844104319
0.004988441102
0.00498844119424
0.00498844131668
0.00498844146441
0.00498844163313
0.00498844181762
0.00498844201387
0.0049884422174
0.00498844242532
0.0049884426348
0.00498844284483
0.00498844305473
0.00498844326553
0.00498844347855
0.00498844369641
0.00498844392171
0.00498844415769
0.00498844440716
0.00498844467288
0.00498844495685
0.0049884452604
0.00498844558398
0.00498844592708
0.00498844628838
0.00498844666554
0.00498844705576
0.00498844745532
0.00498844786052
0.00498844826692
0.00498844867053
0.00498844906683
0.00498844945211
0.00498844982219
0.00498845017404
0.00498845050411
0.0049884508102
0.00498845108954
0.00498845134079
0.00498845156197
0.00498845175259
0.00498845191137
0.00498845203859
0.00498845213387
0.00498845219863
0.00498845223315
0.0049884522389
0.00498845221619
0.00498845216691
0.00498845209172
0.0049884519928
0.00498845187105
0.00498845172887
0.0049884515673
0.00498845138889
0.00498845119476
0.00498845098752
0.00498845076832
0.00498845053978
0.00498845030301
0.00498845006063
0.00498844981371
0.0049884495648
0.00498844931495
0.00498844906669
0.00498844882104
0.00498844858058
0.00498844834635
0.00498844812102
0.00498844790577
0.00498844770345
0.00498844751543
0.00498844734485
0.00498844719337
0.00498844706448
0.00498844696024
0.00498844688454
0.00498844683991
0.00498844683072
0.00498844686003
0.0049884469327
0.00498844705213
0.0049884472229
0.00498844744695
0.00498844772572
0.00498844805393
0.00498844842414
0.00498844882999
0.00498844926658
0.00498844972534
0.00498845019975
0.00498845068258
0.00498845116866
0.00498845165223
0.00498845212941
0.00498845259574
0.00498845304849
0.0049884534843
0.00498845390137
0.00498845429731
0.00498845467111
0.00498845502116
0.00498845534707
0.00498845564787
0.00498845592368
0.00498845617402
0.00498845639942
0.00498845659981
0.00498845677603
0.00498845692839
0.00498845705799
0.00498845716549
0.00498845725245
0.00498845731996
0.00498845736975
0.00498845740319
0.0049884574223
0.0049884574288
0.00498845742501
0.00498845741292
0.004988457395
0.00498845737334
0.00498845735022
0.00498845732733
0.00498845730614
0.00498845728709
0.00498845726985
0.00498845725257
0.00498845723203
0.00498845720324
0.00498845715986
0.00498845709434
0.00498845699892
0.00498845686676
0.00498845669363
0.00498845647999
0.00498845623321
0.00498845597012
0.00498845481571
0.00498857491552
0.00498857398198
0.00498857404981
0.00498857415207
0.00498857428556
0.00498857444537
0.00498857462714
0.00498857482561
0.00498857503661
0.00498857525554
0.00498857547939
0.00498857570517
0.00498857593173
0.00498857615826
0.00498857638568
0.00498857661523
0.00498857684945
0.00498857709094
0.00498857734292
0.00498857760823
0.00498857788965
0.00498857818923
0.00498857850837
0.00498857884756
0.00498857920635
0.00498857958346
0.00498857997662
0.00498858038304
0.00498858079909
0.00498858122107
0.00498858164458
0.00498858206567
0.00498858247981
0.00498858288329
0.00498858327194
0.00498858364265
0.00498858399185
0.00498858431724
0.00498858461596
0.00498858488657
0.00498858512693
0.00498858533641
0.00498858551357
0.0049885856585
0.00498858577045
0.00498858585078
0.00498858589985
0.00498858591891
0.00498858590808
0.00498858586907
0.00498858580234
0.00498858570992
0.00498858559254
0.0049885854525
0.00498858529072
0.00498858510969
0.00498858491047
0.00498858469569
0.00498858446648
0.00498858422555
0.0049885839741
0.00498858371487
0.0049885834491
0.00498858317957
0.00498858290755
0.00498858263586
0.00498858236582
0.00498858210035
0.00498858184085
0.00498858159036
0.00498858135044
0.00498858112432
0.00498858091375
0.00498858072221
0.00498858055169
0.00498858040594
0.00498858028722
0.00498858019954
0.00498858014541
0.00498858012906
0.00498858015317
0.00498858022196
0.00498858033784
0.00498858050421
0.00498858072181
0.00498858099115
0.00498858130933
0.00498858167001
0.00498858206489
0.00498858249057
0.00498858294113
0.00498858341059
0.00498858389209
0.00498858438051
0.00498858486996
0.00498858535633
0.00498858583482
0.00498858630229
0.00498858675498
0.00498858719066
0.00498858760653
0.00498858800118
0.00498858837265
0.00498858872025
0.00498858904273
0.00498858933999
0.00498858961139
0.0049885898573
0.0049885900776
0.00498859027305
0.00498859044397
0.00498859059146
0.00498859071621
0.00498859081986
0.00498859090364
0.00498859096934
0.00498859101838
0.00498859105283
0.00498859107446
0.00498859108556
0.0049885910881
0.00498859108448
0.00498859107666
0.00498859106674
0.00498859105619
0.0049885910462
0.00498859103694
0.00498859102773
0.00498859101641
0.00498859099945
0.00498859097155
0.004988590926
0.00498859085485
0.00498859074972
0.00498859060289
0.00498859040893
0.00498859016675
0.00498858988189
0.00498858956933
0.00498858846689
0.00498870774955
0.00498870681316
0.00498870689113
0.00498870700565
0.00498870715348
0.00498870732975
0.00498870753008
0.00498870774904
0.00498870798236
0.00498870822526
0.00498870847447
0.00498870872679
0.00498870898081
0.00498870923548
0.00498870949146
0.00498870974976
0.00498871001274
0.00498871028277
0.00498871056293
0.0049887108559
0.00498871116436
0.00498871149022
0.00498871183484
0.00498871219862
0.00498871258106
0.00498871298086
0.00498871339574
0.00498871382293
0.00498871425882
0.00498871469975
0.00498871514138
0.00498871557981
0.00498871601058
0.00498871643004
0.00498871683405
0.00498871721954
0.00498871758298
0.00498871792206
0.00498871823391
0.00498871851707
0.00498871876936
0.00498871899009
0.00498871917774
0.00498871933233
0.00498871945265
0.00498871954015
0.00498871959541
0.00498871961959
0.0049887196127
0.00498871957632
0.00498871951081
0.00498871941814
0.00498871929894
0.00498871915548
0.00498871898862
0.00498871880086
0.00498871859326
0.00498871836849
0.00498871812775
0.00498871787385
0.0049887176081
0.0049887173334
0.00498871705115
0.00498871676433
0.00498871647443
0.00498871618451
0.00498871589614
0.0049887156125
0.00498871533524
0.0049887150677
0.00498871481167
0.00498871457062
0.00498871434652
0.00498871414304
0.0049887139623
0.00498871380814
0.00498871368284
0.00498871359036
0.00498871353306
0.00498871351488
0.00498871353808
0.0049887136063
0.0049887137212
0.00498871388534
0.00498871409872
0.00498871436148
0.00498871467067
0.00498871502345
0.00498871541112
0.00498871582778
0.00498871626968
0.00498871673245
0.00498871720963
0.00498871769635
0.00498871818683
0.00498871867694
0.00498871916179
0.00498871963804
0.00498872010173
0.00498872055038
0.0049887209809
0.00498872139161
0.00498872178027
0.00498872214594
0.0049887224871
0.00498872280346
0.00498872309416
0.00498872335943
0.00498872359898
0.0049887238135
0.00498872400318
0.00498872416908
0.0049887243118
0.00498872443297
0.0049887245339
0.00498872461634
0.00498872468172
0.00498872473205
0.00498872476906
0.00498872479498
0.00498872481169
0.00498872482145
0.00498872482607
0.00498872482747
0.00498872482688
0.00498872482526
0.0049887248225
0.00498872481767
0.00498872480835
0.0049887247908
0.0049887247595
0.00498872470753
0.00498872462664
0.00498872450807
0.00498872434355
0.00498872412698
0.00498872385663
0.00498872353771
0.00498872318582
0.00498872215594
0.00498884049305
0.00498883955546
0.00498883964465
0.0049888397735
0.00498883993878
0.00498884013556
0.0049888403594
0.00498884060479
0.00498884086725
0.00498884114173
0.00498884142473
0.00498884171269
0.00498884200388
0.00498884229685
0.00498884259193
0.00498884288977
0.00498884319236
0.00498884350176
0.00498884382074
0.00498884415169
0.00498884449706
0.00498884485851
0.00498884523721
0.0049888456334
0.00498884604647
0.00498884647502
0.00498884691673
0.00498884736881
0.00498884782768
0.00498884828974
0.00498884875073
0.00498884920683
0.00498884965369
0.00498885008775
0.00498885050501
0.00498885090249
0.00498885127673
0.00498885162551
0.00498885194604
0.00498885223687
0.00498885249587
0.00498885272236
0.00498885291484
0.00498885307335
0.00498885319619
0.00498885328487
0.00498885334033
0.00498885336375
0.0049888533551
0.00498885331594
0.00498885324658
0.00498885314894
0.00498885302363
0.00498885287292
0.00498885269768
0.00498885250043
0.00498885228229
0.00498885204598
0.0049888517928
0.00498885152566
0.00498885124599
0.00498885095686
0.0049888506598
0.004988850358
0.0049888500531
0.0049888497484
0.00498884944563
0.0049888491482
0.00498884885795
0.00498884857841
0.00498884831151
0.00498884806091
0.00498884782867
0.00498884761855
0.0049888474327
0.00498884727496
0.00498884714754
0.00498884705426
0.00498884699725
0.00498884698016
0.00498884700484
0.00498884707442
0.00498884718997
0.00498884735346
0.0049888475644
0.00498884782268
0.00498884812546
0.00498884847017
0.00498884885188
0.00498884926336
0.00498884969812
0.00498885015428
0.0049888506263
0.00498885110972
0.00498885159892
0.00498885208988
0.00498885257772
0.00498885305908
0.00498885352988
0.00498885398751
0.00498885442871
0.00498885485162
0.00498885525379
0.00498885563407
0.00498885599078
0.00498885632339
0.00498885663089
0.00498885691333
0.00498885717028
0.00498885740229
0.00498885760942
0.00498885779263
0.0049888579524
0.00498885809027
0.00498885820759
0.00498885830605
0.00498885838699
0.00498885845236
0.00498885850377
0.00498885854336
0.00498885857287
0.00498885859442
0.00498885860962
0.00498885862021
0.00498885862719
0.00498885863128
0.00498885863216
0.00498885862867
0.00498885861821
0.00498885859687
0.00498885855903
0.00498885849768
0.00498885840446
0.00498885827049
0.00498885808731
0.00498885784872
0.00498885755316
0.00498885720672
0.00498885682727
0.00498885587976
0.00498897315588
0.00498897222065
0.00498897232214
0.00498897246736
0.00498897265302
0.00498897287416
0.00498897312629
0.00498897340368
0.00498897370167
0.00498897401492
0.00498897433957
0.00498897467164
0.00498897500899
0.00498897534966
0.00498897569355
0.00498897604077
0.00498897639289
0.00498897675148
0.00498897711891
0.00498897749716
0.0049889778883
0.00498897829369
0.00498897871422
0.00498897914987
0.00498897959989
0.00498898006272
0.004988980536
0.00498898101692
0.00498898150192
0.00498898198745
0.00498898246939
0.00498898294402
0.00498898340716
0.00498898385539
0.00498898428487
0.00498898469276
0.00498898507576
0.00498898543177
0.00498898575812
0.00498898605347
0.00498898631577
0.0049889865444
0.00498898673792
0.00498898689637
0.00498898701835
0.00498898710464
0.00498898715604
0.00498898717466
0.00498898716042
0.00498898711483
0.00498898703819
0.00498898693244
0.00498898679818
0.00498898663771
0.00498898645192
0.0049889862434
0.00498898601331
0.00498898576447
0.00498898549826
0.00498898521771
0.00498898492437
0.00498898462144
0.00498898431061
0.00498898399523
0.00498898367709
0.00498898335965
0.00498898304481
0.00498898273615
0.00498898243564
0.00498898214694
0.0049889818721
0.00498898161488
0.00498898137738
0.0049889811634
0.00498898097506
0.00498898081615
0.00498898068875
0.00498898059653
0.00498898054137
0.00498898052662
0.00498898055377
0.00498898062551
0.00498898074245
0.00498898090613
0.00498898111571
0.0049889813709
0.00498898166893
0.00498898200751
0.00498898238208
0.0049889827888
0.00498898321983
0.00498898367049
0.00498898413749
0.00498898461691
0.00498898510363
0.00498898559373
0.00498898608243
0.00498898656638
0.00498898704148
0.00498898750506
0.00498898795375
0.00498898838559
0.00498898879799
0.00498898918965
0.00498898955873
0.00498898990456
0.00498899022596
0.00498899052285
0.00498899079464
0.00498899104175
0.00498899126412
0.00498899146258
0.00498899163752
0.00498899179029
0.00498899192219
0.00498899203492
0.0049889921297
0.00498899220838
0.00498899227245
0.00498899232389
0.00498899236431
0.00498899239565
0.00498899241935
0.00498899243692
0.00498899244918
0.00498899245662
0.00498899245872
0.00498899245415
0.00498899244019
0.00498899241284
0.00498899236647
0.0049889922941
0.00498899218747
0.00498899203781
0.00498899183685
0.00498899157875
0.0049889912627
0.0049889908964
0.00498899050089
0.00498898963796
0.00498910574326
0.00498910481556
0.00498910493047
0.00498910509411
0.00498910530312
0.00498910555248
0.00498910583756
0.00498910615251
0.00498910649236
0.00498910685142
0.00498910722542
0.00498910760987
0.0049891080021
0.00498910839956
0.00498910880154
0.00498910920757
0.00498910961862
0.00498911003568
0.00498911046061
0.00498911089484
0.00498911134006
0.00498911179716
0.00498911226673
0.00498911274845
0.00498911324139
0.00498911374381
0.00498911425329
0.00498911476699
0.00498911528141
0.00498911579309
0.00498911629803
0.00498911679268
0.00498911727303
0.00498911773586
0.00498911817752
0.00498911859538
0.00498911898632
0.00498911934842
0.00498911967917
0.00498911997735
0.00498912024107
0.00498912046981
0.00498912066221
0.00498912081837
0.00498912093738
0.00498912101899
0.00498912106386
0.00498912107524
0.00498912105299
0.00498912099869
0.00498912091263
0.00498912079677
0.00498912065177
0.00498912047992
0.0049891202822
0.00498912006125
0.00498911981828
0.00498911955622
0.00498911927653
0.00498911898236
0.00498911867537
0.0049891183589
0.00498911803475
0.00498911770643
0.00498911737585
0.00498911704665
0.00498911672082
0.00498911640209
0.00498911609254
0.00498911579593
0.0049891155144
0.00498911525175
0.0049891150101
0.00498911479325
0.00498911460329
0.00498911444391
0.00498911431706
0.00498911422622
0.00498911417306
0.00498911416066
0.00498911419015
0.00498911426389
0.00498911438211
0.00498911454602
0.0049891147545
0.00498911500717
0.00498911530126
0.00498911563469
0.0049891160032
0.00498911640337
0.00498911682985
0.00498911727747
0.00498911774019
0.00498911821547
0.00498911869872
0.00498911918668
0.00498911967459
0.00498912015915
0.00498912063626
0.00498912110324
0.00498912155669
0.00498912199456
0.00498912241418
0.00498912281415
0.0049891231925
0.00498912354847
0.00498912388074
0.0049891241891
0.00498912447285
0.00498912473229
0.00498912496722
0.00498912517838
0.00498912536603
0.00498912553129
0.00498912567541
0.00498912580011
0.00498912590649
0.00498912599628
0.00498912607082
0.00498912613197
0.00498912618116
0.00498912622016
0.00498912625023
0.00498912627269
0.00498912628816
0.00498912629695
0.00498912629837
0.00498912629097
0.00498912627195
0.00498912623733
0.00498912618155
0.00498912609778
0.00498912597803
0.00498912581385
0.00498912559744
0.00498912532363
0.00498912499272
0.0049891246144
0.00498912421302
0.00498912343241
0.0049892382568
0.00498923734322
0.00498923747283
0.00498923765706
0.00498923789249
0.00498923817405
0.00498923849699
0.00498923885518
0.00498923924341
0.00498923965553
0.00498924008676
0.00498924053202
0.00498924098797
0.00498924145136
0.00498924192077
0.00498924239497
0.00498924287426
0.00498924335891
0.00498924385017
0.00498924434889
0.00498924485621
0.00498924537259
0.00498924589823
0.00498924643249
0.00498924697422
0.00498924752153
0.00498924807193
0.00498924862256
0.00498924917001
0.0049892497109
0.00498925024142
0.00498925075817
0.0049892512574
0.00498925173608
0.00498925219081
0.00498925261918
0.0049892530183
0.00498925338644
0.0049892537213
0.00498925402184
0.00498925428632
0.00498925451437
0.00498925470476
0.00498925485773
0.00498925497256
0.0049892550482
0.00498925508545
0.00498925508821
0.00498925505659
0.00498925499222
0.00498925489545
0.00498925476828
0.00498925461138
0.00498925442714
0.00498925421655
0.00498925398234
0.00498925372578
0.00498925344991
0.00498925315626
0.0049892528481
0.00498925252718
0.00498925219699
0.00498925185942
0.00498925151814
0.00498925117515
0.00498925083424
0.0049892504975
0.00498925016879
0.00498924985024
0.00498924954575
0.00498924925747
0.00498924898927
0.00498924874326
0.00498924852323
0.00498924833119
0.00498924817076
0.00498924804375
0.00498924795348
0.00498924790139
0.00498924789031
0.0049892479211
0.0049892479958
0.00498924811436
0.00498924827772
0.00498924848457
0.00498924873442
0.00498924902452
0.00498924935292
0.00498924971557
0.00498925010933
0.00498925052934
0.00498925097153
0.0049892514311
0.00498925190248
0.00498925238149
0.00498925286626
0.00498925335179
0.00498925383515
0.00498925431217
0.00498925478023
0.00498925523591
0.00498925567712
0.00498925610113
0.00498925650648
0.00498925689112
0.0049892572542
0.0049892575943
0.00498925791112
0.00498925820384
0.00498925847267
0.0049892587173
0.00498925893838
0.00498925913606
0.00498925931119
0.00498925946489
0.00498925959902
0.00498925971453
0.00498925981303
0.00498925989573
0.00498925996434
0.00498926002012
0.0049892600647
0.00498926009914
0.0049892601246
0.00498926014153
0.00498926015008
0.00498926014945
0.00498926013812
0.00498926011325
0.00498926007094
0.0049892600058
0.00498925991129
0.00498925977976
0.00498925960329
0.00498925937473
0.00498925908973
0.00498925874989
0.00498925836689
0.00498925796818
0.00498925726539
0.00498937069515
0.00498936980364
0.00498936994934
0.0049893701565
0.00498937042172
0.00498937073974
0.00498937110574
0.00498937151332
0.00498937195689
0.00498937242977
0.00498937292663
0.00498937344161
0.00498937397063
0.00498937450954
0.0049893750561
0.00498937560819
0.00498937616529
0.00498937672688
0.00498937729349
0.00498937786529
0.00498937844288
0.00498937902618
0.00498937961501
0.0049893802084
0.00498938080497
0.00498938140267
0.00498938199899
0.00498938259104
0.00498938317553
0.00498938374919
0.0049893843084
0.00498938484999
0.00498938537043
0.00498938586695
0.00498938633641
0.00498938677665
0.00498938718502
0.00498938756004
0.0049893878996
0.00498938820289
0.00498938846834
0.00498938869573
0.00498938888399
0.00498938903348
0.00498938914359
0.00498938921381
0.00498938924368
0.00498938923679
0.00498938919492
0.00498938911965
0.00498938901135
0.00498938887205
0.00498938870248
0.00498938850507
0.00498938828086
0.00498938803266
0.00498938776182
0.00498938747145
0.00498938716317
0.00498938684037
0.00498938650488
0.00498938616031
0.00498938580868
0.00498938545375
0.00498938509766
0.0049893847443
0.00498938439586
0.00498938405632
0.00498938372787
0.0049893834145
0.00498938311838
0.00498938284344
0.00498938259177
0.00498938236716
0.00498938217154
0.00498938200846
0.00498938187958
0.00498938178808
0.00498938173519
0.00498938172355
0.00498938175375
0.00498938182759
0.00498938194478
0.00498938210604
0.0049893823099
0.00498938255581
0.00498938284101
0.00498938316365
0.00498938351983
0.00498938390666
0.00498938431948
0.00498938475484
0.00498938520755
0.0049893856744
0.00498938614917
0.00498938662882
0.00498938711088
0.00498938759095
0.00498938806574
0.00498938853261
0.00498938898805
0.00498938943
0.00498938985569
0.00498939026361
0.00498939065166
0.00498939101891
0.00498939136388
0.00498939168619
0.00498939198494
0.00498939226025
0.00498939251174
0.00498939273995
0.00498939294495
0.00498939312732
0.00498939328795
0.00498939342893
0.00498939355109
0.00498939365591
0.00498939374447
0.00498939381833
0.00498939387865
0.00498939392685
0.00498939396389
0.00498939399074
0.00498939400772
0.00498939401487
0.0049893940113
0.00498939399546
0.00498939396456
0.00498939391483
0.00498939384111
0.00498939373722
0.004989393596
0.00498939341012
0.00498939317318
0.00498939288179
0.00498939253876
0.00498939215764
0.00498939176847
0.00498939113819
0.00498950305425
0.00498950219399
0.0049895023574
0.00498950259014
0.00498950288875
0.00498950324795
0.00498950366275
0.00498950412641
0.00498950463295
0.0049895051751
0.00498950574678
0.00498950634126
0.00498950695352
0.00498950757838
0.00498950821259
0.00498950885299
0.00498950949814
0.00498951014659
0.00498951079808
0.00498951145203
0.00498951210846
0.00498951276672
0.00498951342624
0.00498951408572
0.00498951474356
0.00498951539759
0.00498951604524
0.00498951668369
0.00498951730972
0.00498951792025
0.00498951851186
0.0049895190816
0.00498951962623
0.00498952014323
0.00498952062975
0.00498952108389
0.00498952150328
0.00498952188668
0.00498952223223
0.00498952253931
0.00498952280657