/*--------------------------------*- C++ -*----------------------------------*\
| =========                 |                                                 |
| \\      /  F ield         | OpenFOAM: The Open Source CFD Toolbox           |
|  \\    /   O peration     | Version:  2206                                  |
|   \\  /    A nd           | Website:  www.openfoam.com                      |
|    \\/     M anipulation  |                                                 |
\*---------------------------------------------------------------------------*/
FoamFile
{
    version     2.0;
    format      ascii;
    arch        "LSB;label=64;scalar=64";
    class       volScalarField;
    location    "3.4/water";
    object      epsilon.gas;
}
// * * * * * * * * * * * * * * * * * * * * * * * * * * * * * * * * * * * * * //

dimensions      [0 2 -3 0 0 0 0];

internalField   nonuniform List<scalar> 
23300
(
0.00599138351596
0.00610719540199
0.00628286863156
0.00651966308421
0.00681534554476
0.00717011219282
0.00758606823696
0.00806647978825
0.0086154591023
0.00923741739298
0.00993691212896
0.0107181099682
0.0115846664096
0.0125391548514
0.0135829738336
0.0147157938437
0.0159355699411
0.0172381038658
0.0186172785244
0.0200648189304
0.0215708154994
0.0231236804352
0.0247109095315
0.0263191176908
0.0279348891472
0.0295447286475
0.0311358492683
0.0326959349528
0.0342138028556
0.0356789777866
0.0370822560734
0.0384151580911
0.039670450539
0.0408415451336
0.0419230159676
0.0429099840737
0.0437986370105
0.0445856138971
0.0452685175326
0.0458453013482
0.046314754471
0.0466758782491
0.0469283049841
0.0470716213097
0.0471059001932
0.0470342257877
0.0468592993711
0.046583566646
0.0462098699609
0.0457411293806
0.0451807559497
0.0445323098763
0.04379982809
0.0429875248139
0.0421000570777
0.0411422788603
0.0401194462497
0.0390370261206
0.0379008392043
0.0367169186942
0.0354915926112
0.0342313840561
0.0329430371666
0.031633448912
0.0303096438551
0.0289787289139
0.0276478231542
0.0263240288501
0.0250143250222
0.0237255519874
0.0224642813447
0.0212368154793
0.0200490536957
0.0189065132338
0.017814216009
0.0167767507928
0.015798220246
0.0148823977773
0.0140328301229
0.0132532357734
0.0125480010428
0.0119231913558
0.0113880415559
0.0109575211369
0.0106556299365
0.0105121880542
0.0105166877607
0.0106277019989
0.0108152528407
0.0110602028868
0.0113497799342
0.0116748094479
0.0120280726506
0.0124034484387
0.0127953417588
0.0131984171151
0.013607375312
0.0140169039638
0.0144216038376
0.0148160389566
0.0151947345746
0.0155522687374
0.0158832986399
0.0161826607066
0.016445402223
0.0166668732574
0.0168427527728
0.0169691250292
0.0170424956948
0.0170598495794
0.0170186530981
0.0169168864944
0.0167530165113
0.0165262199695
0.0162365236219
0.0158845921264
0.0154717738335
0.0150001689944
0.0144726810697
0.0138930938791
0.0132661358702
0.0125975603293
0.0118942007808
0.0111640122198
0.0104160484102
0.00966036740432
0.00890781201927
0.00816966062796
0.00745712806251
0.00678076337827
0.00614980064735
0.00557157343766
0.00505108662586
0.00459083206191
0.00419087851285
0.00384925272693
0.00356265396417
0.00332769380943
0.00314318693508
0.00301468678246
0.00701257593771
0.00709162094753
0.0072383449148
0.00744845309004
0.00771968923969
0.00805153197815
0.00844480026057
0.00890123860195
0.00942315498889
0.0100130548436
0.0106733187886
0.0114058486983
0.0122117539546
0.0130910053818
0.0140421587557
0.0150620803098
0.0161458015199
0.0172864283999
0.0184752432724
0.0197018893706
0.0209547660714
0.0222214648404
0.023489356965
0.0247461067632
0.0259802301778
0.0271814531988
0.0283410400246
0.0294518627375
0.0305084483685
0.031506794645
0.0324442336132
0.0333191296406
0.0341306996758
0.0348787188137
0.0355633888172
0.036185110448
0.0367444254061
0.0372418589531
0.0376779208788
0.038052998023
0.0383673893678
0.0386212276503
0.0388145339025
0.0389471728526
0.0390190042812
0.0390305544652
0.0389821576102
0.0388740010344
0.0387062630878
0.0384791377887
0.0381929313844
0.0378480655588
0.0374451524434
0.0369849934709
0.0364686434872
0.0358974109091
0.0352729131445
0.0345970779734
0.0338721889063
0.0331008850776
0.0322861937126
0.0314315245233
0.0305406858198
0.0296178689057
0.0286676444415
0.0276949327865
0.0267049783102
0.0257033034738
0.0246956615446
0.0236879760325
0.02268627708
0.0216966335402
0.0207250845508
0.0197775779618
0.0188599153701
0.0179777191166
0.0171364217009
0.0163413048804
0.0155975980666
0.0149106784936
0.0142863851654
0.0137314620442
0.0132540289323
0.0128637793496
0.0125710096307
0.0123825083701
0.0122932687929
0.012287989852
0.0123502150609
0.012465689889
0.0126227844128
0.0128120637493
0.0130257292984
0.0132571472115
0.0135004845458
0.0137504547686
0.0140021433045
0.0142509061721
0.0144923144722
0.0147221391981
0.0149363544514
0.0151311573663
0.0153029897108
0.0154485630949
0.0155648782694
0.015649242119
0.01569927649
0.0157129226885
0.015688438295
0.0156243897239
0.0155196390191
0.0153733280326
0.0151848618563
0.0149539541764
0.0146807562199
0.01436571835
0.0140096121754
0.0136135686066
0.0131791335605
0.0127083415346
0.0122038071969
0.0116688304498
0.0111075070074
0.0105248281925
0.00992674760685
0.00932018455501
0.0087129331441
0.00811345114978
0.00753052003472
0.0069727936111
0.00644828243435
0.00596384222772
0.0055247347663
0.00513430301362
0.00479375038788
0.00450194611402
0.00425508369463
0.00404581458745
0.00386090015886
0.00367556265753
0.00800561643755
0.00806842289957
0.00819469732912
0.00838244601149
0.00863052786471
0.00893865915044
0.00930726525779
0.00973725613795
0.0102297710244
0.0107858968052
0.0114063831737
0.0120913446517
0.0128399771449
0.0136502826451
0.0145188451128
0.0154406577513
0.0164090571401
0.0174157589315
0.0184510461792
0.0195040758669
0.0205633290933
0.0216171240398
0.0226541889188
0.0236641799249
0.0246381431282
0.0255688113526
0.0264507776088
0.0272804734173
0.0280560475614
0.0287771037639
0.0294444204765
0.0300596105436
0.0306248384346
0.0311425313975
0.0316151830942
0.0320451657853
0.0324346345616
0.03278543124
0.0330990645379
0.0333766761806
0.0336190674092
0.0338267035781
0.033999770915
0.0341382151464
0.0342416095004
0.034309185298
0.034340115743
0.03433348539
0.0342883291176
0.0342036579321
0.0340785093021
0.0339119756465
0.0337032507828
0.0334516581874
0.0331566943715
0.0328180579361
0.0324356905393
0.0320098062545
0.0315409290795
0.0310299204269
0.0304780106591
0.029886821229
0.0292583866316
0.0285951668412
0.0279000554788
0.0271763779724
0.0264278819903
0.025658717674
0.0248734080864
0.0240768105469
0.0232740684782
0.0224705574099
0.0216718246634
0.0208835287827
0.0201113783487
0.0193610781208
0.0186382829112
0.0179485695423
0.0172974289328
0.0166902883267
0.0161325559207
0.0156296670923
0.015187055866
0.014809910023
0.0145024533499
0.0142664087177
0.014099262432
0.013994284656
0.0139426121606
0.0139351089488
0.0139632176111
0.014019269356
0.0140965058107
0.0141889782723
0.0142914089819
0.0143990628323
0.0145076445265
0.0146132289218
0.0147122169409
0.0148013136506
0.0148775176151
0.014938118866
0.0149806974852
0.0150031230399
0.0150035497145
0.0149804092549
0.0149323983268
0.01485846333
0.0147577804377
0.0146297344839
0.0144738955944
0.0142899980255
0.0140779215921
0.0138376578325
0.0135693775966
0.0132733928232
0.0129501680721
0.0126003498808
0.0122248141635
0.0118247341883
0.0114016677134
0.0109576615009
0.0104953650952
0.0100181421778
0.00953015997767
0.00903643380244
0.00854280076791
0.0080558026644
0.00758246889013
0.00713001004759
0.00670545190949
0.00631525345729
0.00596494927523
0.0056588324741
0.00539964805901
0.00518821247368
0.00502284093049
0.0048984712395
0.00480485309183
0.00473251365996
0.00884893045102
0.00890840765793
0.00902736076522
0.0092053245881
0.00944190995401
0.00973697664285
0.0100906302999
0.0105031082979
0.0109746068349
0.0115050643938
0.0120939314485
0.0127399276393
0.0134408169751
0.0141932026327
0.0149923811821
0.0158322589125
0.0167053748752
0.017603022704
0.0185155054969
0.0194324867295
0.0203434463327
0.0212381669701
0.0221072385907
0.0229424855174
0.0237373128606
0.0244868914535
0.0251882192225
0.0258400147441
0.0264425250607
0.0269972277495
0.0275065266684
0.0279734172125
0.0284012100792
0.0287932691896
0.0291528334464
0.029482860836
0.0297859509423
0.0300642782467
0.0303195867198
0.0305531807417
0.0307659613239
0.0309584486787
0.031130836792
0.0312830223112
0.0314146217909
0.0315241355381
0.0316102425279
0.0316715381022
0.0317065666815
0.0317138389778
0.0316918663056
0.0316391833482
0.0315543840317
0.0314361474824
0.0312832742429
0.0310947148037
0.0308696059034
0.0306073009285
0.0303074053957
0.0299698075651
0.0295947111683
0.0291826635198
0.0287345825541
0.0282517788078
0.0277359730615
0.0271893080253
0.0266143526376
0.0260140994866
0.0253919525638
0.02475170791
0.0240975238005
0.0234338849974
0.0227655576605
0.0220975409334
0.0214350116115
0.0207832683828
0.020147671239
0.0195335818563
0.0189462987632
0.0183909898938
0.0178726092923
0.017395786245
0.0169646497596
0.0165825475177
0.0162516119457
0.0159722015098
0.0157424775293
0.015558869048
0.0154159537039
0.0153076932294
0.0152279969346
0.0151710667823
0.0151315612611
0.0151046447517
0.0150859716321
0.015071646814
0.0150581803533
0.0150424502949
0.0150216723384
0.0149933791876
0.0149554031824
0.0149058635112
0.0148431521967
0.0147659210879
0.0146730654063
0.0145637069054
0.0144371732373
0.0142929770654
0.0141307923778
0.0139504319069
0.0137518240308
0.0135349935467
0.0133000457099
0.0130471030368
0.0127763236426
0.0124879329157
0.0121822346915
0.011859637985
0.0115206994151
0.011166184318
0.010797145059
0.0104150157204
0.0100217163918
0.00961975866052
0.00921233734981
0.00880339234727
0.00839762200651
0.00800043526922
0.00761783748239
0.00725625987083
0.00692235596056
0.00662279908956
0.00636411323954
0.00615255298551
0.00599401262159
0.00589389959528
0.00585689016441
0.00588654192734
0.00598292503629
0.00615128938445
0.00964817900594
0.00970551265728
0.00982009438467
0.0099917434044
0.0102202541746
0.0105054328946
0.010847070926
0.0112448508592
0.0116982119152
0.0122061792147
0.0127671858874
0.0133788886504
0.0140380097525
0.0147402052871
0.0154799982765
0.0162507732284
0.0170448700506
0.0178537600479
0.0186683297135
0.0194792286315
0.0202772870917
0.0210539315876
0.021801592117
0.022514019421
0.0231865198902
0.0238160440374
0.0244011721641
0.0249419632036
0.025439743249
0.0258968161601
0.0263161820716
0.0267012399892
0.0270555487394
0.027382605479
0.0276856993064
0.0279677860891
0.0282314308603
0.0284787599845
0.0287114648869
0.0289308024587
0.0291376324662
0.0293324424257
0.0295153981288
0.0296863753603
0.0298450110285
0.02998967334
0.0301188072341
0.0302308042037
0.030324015051
0.0303967583193
0.0304473450867
0.0304740953098
0.0304753659408
0.0304495716503
0.0303952147431
0.0303109093358
0.0301954125111
0.030047651176
0.0298667536427
0.0296520778663
0.0294032419915
0.0291201519327
0.0288030286687
0.0284524323807
0.0280692835867
0.0276548804567
0.027210910426
0.026739457087
0.026242998989
0.0257244029728
0.0251869077486
0.0246341018522
0.0240698911604
0.0234984612048
0.0229242288594
0.0223517888637
0.0217858485638
0.0212311554726
0.0206924093024
0.0201741615401
0.0196806923625
0.0192158661947
0.0187829549256
0.0183844335138
0.0180217532418
0.0176951387291
0.0174034875127
0.0171447443947
0.0169159707022
0.0167133234829
0.0165327396752
0.0163701794607
0.0162217830065
0.0160839596229
0.0159534261315
0.0158272186273
0.0157026868061
0.0155774838297
0.0154495515233
0.015317106981
0.0151786267281
0.0150328323927
0.0148786735836
0.0147153116041
0.0145421001396
0.0143585665744
0.0141643906652
0.0139593842871
0.0137434696076
0.0135166595002
0.0132790382787
0.0130307467516
0.0127719703129
0.0125028712106
0.0122235726333
0.0119342351397
0.0116350702693
0.0113263672962
0.0110085330036
0.0106821473919
0.0103480339269
0.0100073441437
0.00966165132854
0.00931304774485
0.00896423492243
0.00861859705181
0.00828024634658
0.00795403521518
0.00764553691253
0.00736100968796
0.0071073718444
0.00689222839381
0.00672399648943
0.00661217624763
0.00656779735582
0.00660403413276
0.00673692399252
0.00698610287733
0.00737455564903
0.00793621888572
0.0104071924907
0.0104632576484
0.0105752578863
0.0107429880706
0.0109661578671
0.0112443648568
0.0115770397122
0.0119633512471
0.0124020918295
0.0128915404018
0.013429330978
0.0140123236028
0.0146365101374
0.0152969503666
0.0159877736113
0.0167022347007
0.0174328559463
0.0181716290864
0.0189102976476
0.0196406722318
0.0203549857257
0.0210462224442
0.0217084246212
0.0223369077226
0.0229284035711
0.0234810793516
0.0239944799794
0.0244693639115
0.0249075024255
0.0253114221781
0.0256841650918
0.0260290388806
0.0263494217884
0.0266485818029
0.0269295606465
0.0271950735172
0.0274474661047
0.0276886776336
0.02792024764
0.0281433181361
0.0283586673473
0.0285667314448
0.0287676484725
0.0289612850437
0.0291472767131
0.0293242320654
0.0294904904887
0.0296443625119
0.0297841317019
0.0299080558808
0.0300143847556
0.03010137102
0.0301672925653
0.0302104685375
0.0302292839557
0.0302222094877
0.0301878277076
0.0301248557468
0.030032172397
0.0299088425304
0.0297541438868
0.0295675916969
0.0293489634952
0.0290983218538
0.0288160350371
0.0285027952524
0.0281596325051
0.0277879253951
0.0273894052637
0.0269661564621
0.0265206079489
0.0260555202218
0.025573961902
0.0250792809057
0.0245750637243
0.024065088159
0.0235532621274
0.0230435538403
0.022539905324
0.0220461350242
0.0215658225251
0.0211021839739
0.0206579360825
0.0202351646144
0.0198352055069
0.0194585669305
0.0191049109958
0.0187731221025
0.0184619846571
0.0181695985497
0.0178935445326
0.0176313113419
0.017380410765
0.0171384613183
0.016903240476
0.0166727177294
0.0164450695453
0.0162186861844
0.0159921690002
0.0157643253117
0.0155341577545
0.0153008534196
0.0150637691018
0.0148224171407
0.014576448267
0.0143256355409
0.0140698561567
0.0138090749833
0.0135433270875
0.0132727029966
0.0129973345409
0.0127173850419
0.0124330421633
0.0121444598766
0.0118517114605
0.011554899488
0.011254172315
0.0109497517805
0.0106419716256
0.0103313293775
0.0100185504068
0.00970466459276
0.00939109172447
0.00907973268038
0.00877305986961
0.00847420246875
0.00818702209778
0.00791618151971
0.00766721642237
0.00744663492612
0.00726208539303
0.00712265535061
0.00703938955808
0.0070261490558
0.00710097300908
0.00728814475306
0.00762117555309
0.00814690476187
0.0089305647056
0.0100685318158
0.0111298198477
0.011185387003
0.0112963111005
0.0114622533301
0.0116827202648
0.0119570149474
0.0122841707176
0.0126628580163
0.0130912870416
0.0135671010654
0.014087287749
0.0146481012701
0.0152450262496
0.0158727727179
0.0165253332198
0.0171960828499
0.017877948406
0.0185636137707
0.0192457795178
0.0199174284842
0.0205721087588
0.0212041755677
0.0218090057594
0.0223831280169
0.0229242970807
0.0234314681459
0.023904720335
0.0243450997142
0.0247544450059
0.0251351713948
0.0254900766635
0.0258221394497
0.0261343655031
0.0264296425234
0.0267106495627
0.0269797754461
0.0272390854594
0.027490289732
0.0277347492392
0.0279734755607
0.0282071586029
0.0284361825576
0.0286606621167
0.0288804625817
0.029095232066
0.0293040128834
0.0295050965762
0.0296967649598
0.0298772842647
0.0300449014592
0.0301978571124
0.0303343927655
0.0304527688892
0.0305512772421
0.0306282613059
0.0306821322812
0.0307113911683
0.0307146475298
0.0306906424175
0.0306382688817
0.0305565947443
0.0304448835804
0.0303026160549
0.0301295097819
0.0299255376025
0.0296909443715
0.0294262601912
0.0291323118161
0.0288102285084
0.0284614454375
0.0280876995418
0.0276910220816
0.0272737217179
0.0268383632516
0.0263877350136
0.0259248107278
0.0254526982748
0.0249745818646
0.024493650161
0.0240130182815
0.0235356379499
0.0230642068813
0.0226010755556
0.0221481667253
0.0217069092432
0.021278202391
0.020862410014
0.0204593922006
0.0200685703136
0.0196898757346
0.0193224490101
0.0189650898301
0.018616536923
0.0182755298977
0.0179408544034
0.0176113778227
0.0172860712399
0.0169640245372
0.0166444512973
0.016326690558
0.0160102020405
0.0156945606894
0.0153794468126
0.0150646367652
0.0147499905457
0.0144354406995
0.0141209792106
0.0138066464044
0.013492518955
0.0131787007614
0.0128653143189
0.0125524962562
0.0122403951295
0.0119291341816
0.0116187248419
0.0113092098442
0.0110006822165
0.0106933141224
0.0103873945863
0.0100833787016
0.00978194716409
0.00948407719761
0.00919112227446
0.00890489992912
0.0086277845338
0.00836280528946
0.00811375108354
0.00788529222529
0.00768313835157
0.00751426982687
0.0073873031511
0.00731308849031
0.00730569349594
0.00738402144689
0.00757446583567
0.00791525304632
0.00846349042529
0.00930641998481
0.0105789152944
0.0124957184121
0.0118216769204
0.0118774928024
0.0119888074568
0.012155095682
0.0123756004815
0.0126492800816
0.0129747421964
0.0133501592152
0.0137731914321
0.0142409113783
0.0147497570739
0.0152955025651
0.0158732741112
0.0164775948692
0.0171024846987
0.0177415883645
0.0183883543073
0.0190362263158
0.0196788662969
0.02031036144
0.0209254335897
0.0215196001211
0.0220893098069
0.0226320060301
0.0231461526083
0.0236311829746
0.0240874213263
0.0245159442918
0.0249184398771
0.0252970341083
0.0256541419448
0.0259923087773
0.0263140931523
0.0266219511951
0.0269181664172
0.0272047817447
0.0274835723309
0.0277560157933
0.0280232954055
0.028286295321
0.0285456213595
0.0288016099571
0.0290543562641
0.0293037264205
0.0295493791124
0.029790887477
0.0300265550365
0.0302546562439
0.0304734516135
0.0306811863937
0.0308761017008
0.0310564394907
0.0312204574373
0.0313664383193
0.0314927071366
0.0315976439315
0.0316797024246
0.0317374254224
0.0317694641549
0.0317745952715
0.0317517399501
0.031699981373
0.0316185825673
0.0315070031086
0.0313649144846
0.0311922145751
0.0309890391017
0.0307557721764
0.0304930521149
0.0302017760437
0.0298830980332
0.0295384254419
0.0291694070376
0.0287779185495
0.0283660383646
0.0279360199153
0.027490253063
0.0270312220646
0.0265614527256
0.0260834578586
0.025599674949
0.0251124072804
0.0246237642849
0.0241356138386
0.0236495423685
0.0231668335499
0.0226884580062
0.022215081369
0.0217470789614
0.0212845746127
0.0208286185711
0.0203793364985
0.0199365528888
0.0195000278196
0.0190694838413
0.018644633794
0.0182252014761
0.0178109393542
0.0174016371395
0.016997128262
0.0165972900799
0.0162020438387
0.0158113502744
0.0154252060354
0.0150436370136
0.0146666931787
0.0142944413724
0.0139269602175
0.0135643340258
0.0132066495085
0.0128539926758
0.0125064495282
0.0121641083223
0.0118270533871
0.0114952267083
0.0111686055497
0.0108472246812
0.0105312066291
0.0102207991327
0.00991642243873
0.00961872549595
0.0093286527699
0.00904752019707
0.00877710150309
0.00851972455455
0.00827838194581
0.00805686262667
0.0078599213797
0.00769351471425
0.0075651546029
0.00748446446915
0.00746407978283
0.00752113336194
0.00767974535294
0.00797527195038
0.00846169730935
0.00922471326935
0.0104050629063
0.0122400744166
0.0151415728913
0.0124894412332
0.012546268691
0.0126594809001
0.0128283326148
0.013051762853
0.0133283464749
0.0136562368864
0.0140330956744
0.0144560405431
0.0149216037335
0.0154257279164
0.0159637830116
0.0165306296682
0.0171207051839
0.0177281544619
0.0183469727706
0.0189711800675
0.0195949865225
0.0202129698137
0.0208202206369
0.0214124816055
0.0219862361423
0.0225387795729
0.0230682314602
0.0235735294188
0.0240543669753
0.024511122857
0.0249447469819
0.025356654472
0.0257485930875
0.0261225350169
0.026480556033
0.0268247493644
0.0271571342673
0.0274796021134
0.0277938582735
0.0281013987303
0.0284034800933
0.0287011190897
0.0289950823962
0.0292859006315
0.0295738705621
0.0298590769639
0.0301414016123
0.0304205489081
0.030696262224
0.03096736255
0.0312320532614
0.0314885592645
0.0317351053735
0.0319699191232
0.03219123128
0.0323972873839
0.0325863542849
0.0327567344224
0.0329067758991
0.0330348882579
0.0331395550549
0.0332193502188
0.0332729520867
0.0332991594287
0.0332969059255
0.033265274975
0.0332035135987
0.0331110451313
0.0329874814905
0.0328326327596
0.0326465166272
0.0324293637086
0.0321816227696
0.0319039604111
0.0315972604697
0.0312626164906
0.0309013235853
0.0305148621556
0.0301048807934
0.0296731704052
0.0292216379574
0.0287522720052
0.0282671096395
0.0277681975852
0.027257558178
0.0267371533483
0.0262088573505
0.0256744304548
0.025135502511
0.0245935567882
0.0240499212933
0.0235057594299
0.0229620657992
0.0224196755191
0.0218805283026
0.0213457391298
0.0208159847241
0.0202918486364
0.019773828098
0.0192623527936
0.0187578009288
0.0182605083516
0.0177707775377
0.017288881275
0.0168150670659
0.016349557602
0.0158925526523
0.0154442280396
0.0150047364334
0.0145742060833
0.0141527417649
0.0137404245506
0.0133373142867
0.0129434519121
0.0125588652694
0.0121835761048
0.0118176114138
0.0114608604331
0.0111132255584
0.0107746744178
0.010445271011
0.0101252128737
0.00981487682992
0.00951487257978
0.00922610644773
0.00894985474748
0.00868784957881
0.00844237898201
0.00821640886959
0.00801373783145
0.00783920758441
0.00769900631896
0.00760113049022
0.00755611463273
0.00757821993229
0.00768741911255
0.00791280173505
0.00829859748232
0.00891520257328
0.00988007826138
0.0113985170753
0.0138444004495
0.0179239796657
0.0131402660938
0.0131988966254
0.0133155735238
0.0134893034086
0.0137186856465
0.0140018742835
0.0143365342241
0.0147197904479
0.0151482055169
0.0156177751378
0.0161239680739
0.0166617882771
0.0172258812404
0.0178106538687
0.0184104267978
0.0190195805521
0.0196327146189
0.0202447780826
0.0208511965533
0.0214479558771
0.0220316756056
0.0225996351837
0.0231497926008
0.02368075894
0.0241917724918
0.0246826347792
0.025153654262
0.0256055589447
0.0260394248523
0.0264565809031
0.0268585371899
0.0272468965145
0.0276232947314
0.0279893290219
0.0283465170816
0.028696246129
0.0290397517969
0.0293780866438
0.0297121155935
0.0300425000632
0.0303697056204
0.0306939978991
0.0310154591336
0.0313339931663
0.0316493478688
0.0319611232143
0.0322690963747
0.0325713657851
0.0328660891816
0.0331514439081
0.0334256195568
0.0336868128288
0.0339332355838
0.0341631186277
0.034374723513
0.0345663501958
0.0347363504139
0.0348831378745
0.0350052021937
0.0351011205406
0.0351695712185
0.035209345793
0.0352193615395
0.0351986732165
0.0351464837162
0.0350621547168
0.0349452149059
0.0347953687364
0.0346125015477
0.0343966855799
0.0341481812206
0.0338674393384
0.0335550978072
0.0332119792143
0.0328390819275
0.0324375725445
0.0320087713419
0.0315541397297
0.0310752611345
0.0305738251743
0.0300516064861
0.0295104484541
0.0289522427987
0.028378914753
0.0277924038398
0.0271946489271
0.0265875671501
0.0259730354703
0.0253528655648
0.0247287832692
0.024102402625
0.0234752218387
0.0228496565265
0.0222279401289
0.0216114400778
0.0210013687158
0.0203988112952
0.0198047369715
0.0192200020882
0.0186453598896
0.0180814663889
0.0175288879336
0.0169881054841
0.0164595210548
0.0159434615748
0.0154401850264
0.0149498845921
0.0144726951965
0.0140086987393
0.0135579319952
0.0131203940605
0.0126960571009
0.0122848780124
0.0118868144121
0.0115017259453
0.0111294309639
0.0107698192752
0.0104228839202
0.0100887579814
0.0097677590223
0.00946044055988
0.00916765342476
0.00889061721527
0.00863100595294
0.00839105163962
0.00817367570953
0.00798266295038
0.0078229057178
0.00770076342102
0.00762461601917
0.00760574552198
0.00765978468807
0.00780917140623
0.00808745286625
0.00854714032304
0.00927471119219
0.0104206897691
0.0122627820122
0.0153427461858
0.0207686186228
0.0137814993574
0.0138427567054
0.0139645296611
0.0141455487836
0.0143840370361
0.0146776857821
0.0150236289961
0.0154184164778
0.0158580248978
0.016337894499
0.0168530149925
0.0173980323084
0.0179673947378
0.0185555007768
0.0191568648111
0.0197662577912
0.0203788427898
0.0209902645824
0.0215967234863
0.0221949984904
0.0227824605716
0.0233570444183
0.0239172247913
0.0244619633887
0.0249906722512
0.0255031542991
0.0259995651566
0.0264803529362
0.026946219667
0.0273980601431
0.027836922713
0.0282639487101
0.0286803354671
0.0290872807762
0.0294859527506
0.0298774439135
0.0302627512759
0.0306427424008
0.0310181464716
0.031389532196
0.0317573087424
0.0321217141097
0.0324828240476
0.032840548127
0.0331946400844
0.0335446840078
0.0338912754479
0.0342325225368
0.0345665274456
0.0348914026329
0.0352052737102
0.0355062751121
0.0357925568829
0.0360622864991
0.0363136586435
0.0365449007225
0.0367542841926
0.0369401327207
0.0371008341736
0.0372348503922
0.0373407289439
0.0374171135706
0.0374627550032
0.0374765213696
0.0374574075883
0.0374045451954
0.0373172099637
0.0371948306913
0.0370369947352
0.0368434553251
0.0366141346949
0.0363491294771
0.0360487111195
0.0357133289602
0.0353436077234
0.0349403480903
0.0345045213956
0.0340372679562
0.0335398895887
0.0330138463775
0.0324607477586
0.0318823479855
0.0312805353083
0.0306573243452
0.030014840286
0.0293553040165
0.0286810073078
0.0279942880383
0.0272974965435
0.0265929638443
0.0258829657539
0.025169692851
0.0244552345253
0.0237419171904
0.023033427358
0.022331531962
0.0216379300133
0.020954157418
0.0202815696651
0.0196213581074
0.0189745563218
0.0183420497181
0.0177245826994
0.0171227685539
0.0165370971595
0.0159679454836
0.0154155862261
0.0148801991574
0.014361881097
0.0138606586296
0.0133765001278
0.012909330943
0.0124590491618
0.0120255454769
0.0116086713266
0.0112081536361
0.0108237942966
0.0104555024029
0.0101033307705
0.00976751935725
0.00944854506229
0.00914718120987
0.00886456752421
0.00860229574753
0.00836251597612
0.00814807573911
0.00796270916108
0.00781130821018
0.00770032763961
0.00763841412442
0.00763741603407
0.00771405881598
0.00789282265414
0.00821108828046
0.0087287813646
0.0095474590089
0.0108504176243
0.0129921892265
0.0167080017899
0.0236144038176
0.0144206112908
0.0144853541067
0.0146139228212
0.0148047415387
0.015055615502
0.0153637248402
0.0157256198523
0.0161372222862
0.0165938747617
0.0170904222513
0.0176213465987
0.0181809186935
0.0187633821787
0.0193631247795
0.0199748510171
0.0205937102169
0.0212154020137
0.0218362201164
0.0224530712542
0.0230634390891
0.0236653419418
0.0242572567439
0.02483806108
0.0254069599923
0.0259634452506
0.026507244752
0.0270383047712
0.0275567568111
0.0280629104139
0.0285572229927
0.0290402898751
0.0295128080377
0.029975558807
0.0304293657395
0.0308750732675
0.0313135042475
0.0317454403728
0.0321715850421
0.0325925498662
0.0330088261173
0.0334207791626
0.0338286296058
0.0342324560546
0.0346321863364
0.0350276091632
0.0354183788367
0.0358049587886
0.036186571235
0.0365611132489
0.0369265609618
0.0372809294873
0.0376222532987
0.0379485866579
0.0382580018367
0.0385485964462
0.0388184967494
0.0390658670913
0.039288916271
0.0394859079427
0.03965516896
0.0397950998349
0.0399041841177
0.0399809982589
0.0400242213901
0.0400326442317
0.0400051788926
0.0399408666627
0.0398388875909
0.0396985670945
0.0395193851365
0.0393009816173
0.0390431649935
0.0387459164318
0.0384093977397
0.0380339542974
0.0376201222327
0.0371686302079
0.0366804058014
0.0361565761409
0.035598473138
0.0350076322504
0.034385794985
0.0337349032681
0.0330570954331
0.0323546915478
0.0316301778615
0.0308861790199
0.0301254290561
0.0293507318591
0.0285649233522
0.0277708271116
0.0269712164314
0.0261687744206
0.025366064163
0.024565382546
0.0237710792504
0.0229856305866
0.022211146011
0.0214494487351
0.0207021599204
0.0199706914892
0.019256253951
0.0185598662852
0.0178823682283
0.0172244310228
0.0165865712381
0.0159691628402
0.0153724522913
0.014796572336
0.014241558725
0.0137073660838
0.0131938868526
0.0127009704092
0.0122284462933
0.0117761865327
0.0113438214607
0.0109310568549
0.0105377057842
0.0101637251887
0.00980925886524
0.00947468612714
0.00916067989179
0.00886827552143
0.00859895644003
0.00835476265838
0.00813843582523
0.00795362031749
0.00780515577051
0.00769951820809
0.00764551045245
0.00765537815844
0.00774667804846
0.0079455265494
0.00829250781378
0.00885400014643
0.00974527195936
0.0111809672874
0.0135937390462
0.0179306306756
0.0264128071302
0.0150652683961
0.0151343950715
0.0152715362173
0.0154747751065
0.0157414517531
0.0160681768967
0.0164508519661
0.0168847023376
0.0173643693854
0.017884041989
0.0184376434718
0.0190190307099
0.0196222149746
0.0202415535575
0.0208719244391
0.0215088355628
0.0221484945309
0.0227878022001
0.0234243148287
0.0240561494722
0.0246818894855
0.0253004657557
0.0259110705331
0.0265130699553
0.0271059641806
0.0276893488906
0.0282629197065
0.0288264659732
0.0293798937842
0.029923224502
0.0304566116044
0.0309803259416
0.0314947558118
0.0320003760339
0.0324977338205
0.0329874083762
0.0334699908378
0.0339460432076
0.0344160800523
0.034880533297
0.0353397404893
0.0357939193212
0.0362431656
0.0366874409187
0.0371265840983
0.0375603165692
0.0379882667941
0.0384116144169
0.0388280007384
0.0392352165555
0.0396311243044
0.0400136203826
0.0403806276198
0.040730089287
0.0410599738384
0.0413682760306
0.0416530245752
0.0419122868906
0.0421441781701
0.0423468686272
0.0425185930811
0.0426576597675
0.0427624598101
0.0428314770014
0.042863296876
0.0428566171725
0.0428102564637
0.0427231651755
0.0425944338355
0.0424233045861
0.0422091791318
0.0419516306834
0.041650411655
0.0413054659352
0.0409169363147
0.0404851768779
0.0400107599686
0.0394944882118
0.0389374003501
0.0383407816615
0.0377061668918
0.0370353463345
0.036330362262
0.0355935060655
0.0348273031449
0.0340344961757
0.0332180148626
0.0323809440174
0.0315264801011
0.0306578891807
0.0297784578992
0.0288914499405
0.0280000598406
0.0271073754488
0.0262163370664
0.0253297684741
0.0244507341861
0.0235837609091
0.0227308898743
0.0218941991963
0.0210754936412
0.0202763192392
0.0194979872282
0.0187415836251
0.0180079838777
0.017297869187
0.0166117411127
0.0159499393808
0.0153126584807
0.0146999675051
0.0141118290408
0.0135481209378
0.013008657241
0.0124932113747
0.0120017007308
0.0115336701431
0.011088725742
0.0106665737055
0.0102670599346
0.00989021396571
0.00953629718448
0.00920585996598
0.00889980968085
0.00861949635962
0.00836682295515
0.00814439506343
0.00795573129904
0.00780557246257
0.00770035123204
0.00764893168392
0.00766381222662
0.00776315532169
0.00797435501986