/*--------------------------------*- C++ -*----------------------------------*\
| =========                 |                                                 |
| \\      /  F ield         | OpenFOAM: The Open Source CFD Toolbox           |
|  \\    /   O peration     | Version:  2206                                  |
|   \\  /    A nd           | Website:  www.openfoam.com                      |
|    \\/     M anipulation  |                                                 |
\*---------------------------------------------------------------------------*/
FoamFile
{
    version     2.0;
    format      ascii;
    arch        "LSB;label=64;scalar=64";
    class       volScalarField;
    location    "3.4/water";
    object      p;
}
// * * * * * * * * * * * * * * * * * * * * * * * * * * * * * * * * * * * * * //

dimensions      [1 -1 -2 0 0 0 0];

internalField   nonuniform List<scalar> 
23300
(
100728.761157
100728.818291
100728.80923
100728.797036
100728.781774
100728.763938
100728.744024
100728.722692
100728.700417
100728.677787
100728.655157
100728.632973
100728.611426
100728.590791
100728.571084
100728.552418
100728.534665
100728.517823
100728.501679
100728.486182
100728.471107
100728.456422
100728.441948
100728.427724
100728.413647
100728.399848
100728.38631
100728.373243
100728.360698
100728.348942
100728.338061
100728.328342
100728.319874
100728.312933
100728.307581
100728.304063
100728.302396
100728.302776
100728.305169
100728.309715
100728.316329
100728.325095
100728.33588
100728.348715
100728.363404
100728.379918
100728.398041
100728.417722
100728.438713
100728.460928
100728.484094
100728.508098
100728.532653
100728.557627
100728.582725
100728.607804
100728.632569
100728.656873
100728.680428
100728.703091
100728.724587
100728.744782
100728.763421
100728.780384
100728.795442
100728.808494
100728.819341
100728.827905
100728.834023
100728.837646
100728.838652
100728.837034
100728.832721
100728.825757
100728.816147
100728.804011
100728.789455
100728.77271
100728.754018
100728.733759
100728.712335
100728.690266
100728.668035
100728.646026
100728.624156
100728.60237
100728.580964
100728.560424
100728.540912
100728.522136
100728.503657
100728.48511
100728.466181
100728.446684
100728.42648
100728.405543
100728.383864
100728.361529
100728.338615
100728.315274
100728.291633
100728.267876
100728.244151
100728.22065
100728.197521
100728.174947
100728.153061
100728.132027
100728.111956
100728.092981
100728.075184
100728.058665
100728.04347
100728.02966
100728.017245
100728.006253
100727.99666
100727.988459
100727.981595
100727.97603
100727.971682
100727.968491
100727.966365
100727.965237
100727.965031
100727.965713
100727.967263
100727.969725
100727.973183
100727.977793
100727.983748
100727.991266
100728.00052
100728.011572
100728.024261
100728.038081
100728.052044
100728.064521
100728.073212
100728.138796
100720.765699
100720.824782
100720.821765
100720.816425
100720.809018
100720.799813
100720.789047
100720.777069
100720.764122
100720.750514
100720.736407
100720.722013
100720.70738
100720.692604
100720.677627
100720.662449
100720.646936
100720.631036
100720.614591
100720.597553
100720.579793
100720.561317
100720.542067
100720.522132
100720.501542
100720.480478
100720.45905
100720.437512
100720.416028
100720.394891
100720.374286
100720.35451
100720.335736
100720.318232
100720.302133
100720.287664
100720.274904
100720.264021
100720.255039
100720.248064
100720.243065
100720.240092
100720.23906
100720.239972
100720.242691
100720.247164
100720.253229
100720.260807
100720.26971
100720.279835
100720.290977
100720.303016
100720.315736
100720.329009
100720.342619
100720.356434
100720.370247
100720.38393
100720.39729
100720.410213
100720.422525
100720.434132
100720.444884
100720.454711
100720.463494
100720.471189
100720.477709
100720.483039
100720.487126
100720.48998
100720.491581
100720.491965
100720.491138
100720.489159
100720.486056
100720.481903
100720.476744
100720.470659
100720.463687
100720.455879
100720.44721
100720.437589
100720.426728
100720.414095
100720.398884
100720.380715
100720.359903
100720.337309
100720.313936
100720.290483
100720.267328
100720.24468
100720.222625
100720.201214
100720.180451
100720.160349
100720.140898
100720.122114
100720.103994
100720.086565
100720.069836
100720.053845
100720.038612
100720.024183
100720.010587
100719.997877
100719.986084
100719.975261
100719.96544
100719.956667
100719.948966
100719.942372
100719.936892
100719.932539
100719.9293
100719.927167
100719.926103
100719.926073
100719.92701
100719.928847
100719.931485
100719.934826
100719.938742
100719.943108
100719.947787
100719.952655
100719.9576
100719.96255
100719.967482
100719.972446
100719.977566
100719.983043
100719.98912
100719.996039
100720.003947
100720.012794
100720.022185
100720.031194
100720.03797
100720.104381
100712.671018
100712.728509
100712.72605
100712.721452
100712.714978
100712.706934
100712.697556
100712.687165
100712.675991
100712.664319
100712.652305
100712.640138
100712.627857
100712.615532
100712.603083
100712.590472
100712.577536
100712.564174
100712.550192
100712.53549
100712.519904
100712.50339
100712.48586
100712.467366
100712.447919
100712.427672
100712.406731
100712.385335
100712.363655
100712.34198
100712.320511
100712.29955
100712.279291
100712.260013
100712.241879
100712.225124
100712.209862
100712.196274
100712.184418
100712.174417
100712.166276
100712.160063
100712.155734
100712.153312
100712.152689
100712.153827
100712.156603
100712.160963
100712.16676
100712.173917
100712.182269
100712.191723
100712.202106
100712.213315
100712.225174
100712.237579
100712.250359
100712.263411
100712.276574
100712.289757
100712.302813
100712.315661
100712.328174
100712.340287
100712.351893
100712.362942
100712.373345
100712.383069
100712.392042
100712.400238
100712.407598
100712.414102
100712.419692
100712.424344
100712.427993
100712.430602
100712.432085
100712.432373
100712.431339
100712.428849
100712.42469
100712.418593
100712.410163
100712.39892
100712.384331
100712.366246
100712.345035
100712.321297
100712.295724
100712.269062
100712.241873
100712.214595
100712.187536
100712.160947
100712.135001
100712.109847
100712.085586
100712.062311
100712.040081
100712.018958
100711.998974
100711.98017
100711.962562
100711.94618
100711.931029
100711.917128
100711.904478
100711.893089
100711.882954
100711.874076
100711.866438
100711.86003
100711.854822
100711.850785
100711.847866
100711.84602
100711.845175
100711.845261
100711.846179
100711.847831
100711.850093
100711.85284
100711.855928
100711.859222
100711.862582
100711.865894
100711.869071
100711.872084
100711.874969
100711.877855
100711.88096
100711.884592
100711.889116
100711.894897
100711.90221
100711.911127
100711.921365
100711.932084
100711.941594
100712.011466
100704.598821
100704.655448
100704.652596
100704.647806
100704.64127
100704.633289
100704.624108
100704.614038
100704.603306
100704.592183
100704.580822
100704.569399
100704.55795
100704.546529
100704.535047
100704.523446
100704.511544
100704.499217
100704.486244
100704.4725
100704.457792
100704.44205
100704.425162
100704.407157
100704.388028
100704.367912
100704.346905
100704.325236
100704.303075
100704.280707
100704.258339
100704.236272
100704.214712
100704.193944
100704.174145
100704.155562
100704.138323
100704.122627
100704.10855
100704.096234
100704.085706
100704.077057
100704.070264
100704.065374
100704.062304
100704.061034
100704.061459
100704.063552
100704.067191
100704.072324
100704.078814
100704.086589
100704.095503
100704.105472
100704.116346
100704.128036
100704.14039
100704.15332
100704.166681
100704.180387
100704.194301
100704.208343
100704.222387
100704.236361
100704.25015
100704.263687
100704.276867
100704.289628
100704.301868
100704.313526
100704.324497
100704.334714
100704.344063
100704.352462
100704.359781
100704.365912
100704.370698
100704.373998
100704.375616
100704.375359
100704.372969
100704.368176
100704.360644
100704.350039
100704.336066
100704.318628
100704.298133
100704.275059
100704.249777
100704.222894
100704.194938
100704.166383
100704.137614
100704.108967
100704.080708
100704.053076
100704.02625
100704.000396
100703.975633
100703.95207
100703.92978
100703.908833
100703.889265
100703.871115
100703.854394
100703.839118
100703.825279
100703.812877
100703.801885
100703.792289
100703.784049
100703.777134
100703.771489
100703.76706
100703.763769
100703.761548
100703.760302
100703.759941
100703.760349
100703.761411
100703.762991
100703.764956
100703.767162
100703.769474
100703.771764
100703.773939
100703.775937
100703.777763
100703.779496
100703.781308
100703.783468
100703.786336
100703.79033
100703.795875
100703.80332
100703.812829
100703.824245
100703.836924
100703.849556
100703.920653
100696.539063
100696.595549
100696.592202
100696.586946
100696.579965
100696.57156
100696.561978
100696.551536
100696.540462
100696.529031
100696.517397
100696.505737
100696.494089
100696.482504
100696.470892
100696.459189
100696.447206
100696.434809
100696.421768
100696.40794
100696.393122
100696.377228
100696.360134
100696.341856
100696.322377
100696.301824
100696.280286
100696.257986
100696.23509
100696.211882
100696.188566
100696.165447
100696.142732
100696.12071
100696.099563
100696.079545
100696.060795
100696.04352
100696.027808
100696.013816
100696.001583
100695.991216
100695.98271
100695.976127
100695.971407
100695.968544
100695.967438
100695.968079
100695.970367
100695.974266
100695.979656
100695.986484
100695.994616
100696.003986
100696.014453
100696.025939
100696.038302
100696.05146
100696.06527
100696.079649
100696.094456
100696.109609
100696.124972
100696.140462
100696.155949
100696.171351
100696.186537
100696.201423
100696.215878
100696.229811
100696.243084
100696.255593
100696.267189
100696.277752
100696.287113
100696.295129
100696.301612
100696.306391
100696.309249
100696.309986
100696.308354
100696.304121
100696.297021
100696.286836
100696.273389
100696.256652
100696.236886
100696.214597
100696.190118
100696.163797
100696.136102
100696.107478
100696.078314
100696.048971
100696.019751
100695.990936
100695.96275
100695.935404
100695.909059
100695.883865
100695.859927
100695.837346
100695.816181
100695.796493
100695.778306
100695.761646
100695.746509
100695.732897
100695.720782
100695.710143
100695.700935
100695.693115
100695.68662
100695.681379
100695.677304
100695.674311
100695.672297
100695.671159
100695.670775
100695.671022
100695.671763
100695.672863
100695.674183
100695.675598
100695.676992
100695.67829
100695.679452
100695.68051
100695.681567
100695.682826
100695.684582
100695.687226
100695.691211
100695.697008
100695.705031
100695.715536
100695.728495
100695.743459
100695.75941
100695.829331
100688.488009
100688.544614
100688.540725
100688.534866
100688.527224
100688.518095
100688.507732
100688.496456
100688.484504
100688.472157
100688.459577
100688.446951
100688.434325
100688.421759
100688.409168
100688.396495
100688.383553
100688.37021
100688.356235
100688.341486
100688.325756
100688.308957
100688.29096
100688.271779
100688.251391
100688.229924
100688.20746
100688.184222
100688.160371
100688.136189
100688.111879
100688.087743
100688.063986
100688.040901
100688.018667
100687.997543
100687.977668
100687.959256
100687.942401
100687.927265
100687.913896
100687.90241
100687.892813
100687.885177
100687.879465
100687.875674
100687.8737
100687.873547
100687.875124
100687.87841
100687.883294
100687.889734
100687.897605
100687.906848
100687.917329
100687.928976
100687.941647
100687.955263
100687.969678
100687.984807
100688.000503
100688.016675
100688.033179
100688.049918
100688.066748
100688.083568
100688.100232
100688.116633
100688.13262
100688.148078
100688.162847
100688.1768
100688.189764
100688.201598
100688.212115
100688.221156
100688.228518
100688.234025
100688.237461
100688.238635
100688.237321
100688.233326
100688.226443
100688.216527
100688.203474
100688.187311
100688.168156
100688.146448
100688.122636
100688.096981
100688.069786
100688.041466
100688.012386
100687.982907
100687.953334
100687.923967
100687.895049
100687.866815
100687.839451
100687.813133
100687.787991
100687.764149
100687.741688
100687.720688
100687.701189
100687.68323
100687.666819
100687.651964
100687.638643
100687.626838
100687.616504
100687.607599
100687.600057
100687.593803
100687.58874
100687.584781
100687.581819
100687.579749
100687.578445
100687.577787
100687.577637
100687.577868
100687.578347
100687.578958
100687.579601
100687.580216
100687.580782
100687.581349
100687.582042
100687.58308
100687.584779
100687.58755
100687.591872
100687.598254
100687.607162
100687.618925
100687.633609
100687.650875
100687.669819
100687.736586
100680.444097
100680.500869
100680.49637
100680.489775
100680.481272
100680.471157
100680.459685
100680.447182
100680.433897
100680.42012
100680.406028
100680.391822
100680.377563
100680.363325
100680.34904
100680.334662
100680.32002
100680.30499
100680.289353
100680.272975
100680.255655
100680.237312
100680.217823
100680.197203
100680.175435
100680.152645
100680.128917
100680.104472
100680.079471
100680.054192
100680.028833
100680.003695
100679.978978
100679.95497
100679.931849
100679.909871
100679.889174
100679.86997
100679.852353
100679.836489
100679.822427
100679.810288
100679.80008
100679.791881
100679.785682
100679.781475
100679.779141
100679.77869
100679.780041
100679.783176
100679.787994
100679.794455
100679.802441
100679.811895
100679.822687
100679.834743
100679.847923
100679.862144
100679.877259
100679.893173
100679.909736
100679.926846
100679.944348
100679.962136
100679.980049
100679.997975
100680.01575
100680.033254
100680.050318
100680.066812
100680.082559
100680.097419
100680.111206
100680.123767
100680.134906
100680.14446
100680.152224
100680.158026
100680.161658
100680.162947
100680.161691
100680.157735
100680.150915
100680.141138
100680.128344
100680.112582
100680.093975
100680.072751
100680.049379
100680.024273
100679.997606
100679.969696
100679.940882
100679.911509
100679.881878
100679.852288
100679.822988
100679.794226
100679.766199
100679.739098
100679.713071
100679.688258
100679.664758
100679.642665
100679.622034
100679.602919
100679.585339
100679.569311
100679.554823
100679.541862
100679.53039
100679.520368
100679.511735
100679.504417
100679.498312
100679.493335
100679.48938
100679.486344
100679.484105
100679.482545
100679.481534
100679.48095
100679.48067
100679.480592
100679.480627
100679.480731
100679.480899
100679.481197
100679.481764
100679.482834
100679.484734
100679.48789
100679.492797
100679.499989
100679.509964
100679.523092
100679.539478
100679.558803
100679.580124
100679.642493
100672.406333
100672.463172
100672.457999
100672.450542
100672.440995
100672.42965
100672.416769
100672.402687
100672.38766
100672.371995
100672.355888
100672.339556
100672.323083
100672.306565
100672.289955
100672.273229
100672.256236
100672.238873
100672.220938
100672.202315
100672.182817
100672.162377
100672.140882
100672.11836
100672.094797
100672.070326
100672.045034
100672.019141
100671.992806
100671.966305
100671.939831
100671.913678
100671.88804
100671.863198
100671.839324
100671.816667
100671.795359
100671.775608
100671.757505
100671.741212
100671.726777
100671.714319
100671.703845
100671.695434
100671.689104
100671.684844
100671.682515
100671.682125
100671.683594
100671.686908
100671.691968
100671.698738
100671.707099
100671.716997
100671.7283
100671.740933
100671.754755
100671.769677
100671.785546
100671.802264
100671.819671
100671.837657
100671.856058
100671.874755
100671.893578
100671.912402
100671.931052
100671.949395
100671.967249
100671.984474
100672.000883
100672.016326
100672.030611
100672.043579
100672.055032
100672.064808
100672.072706
100672.078562
100672.082181
100672.083408
100672.082067
100672.078033
100672.071178
100672.061445
100672.048803
100672.033318
100672.015102
100671.994371
100671.971365
100671.946577
100671.920346
100671.89284
100671.864341
100671.835172
100671.805623
100671.775984
100671.746507
100671.717438
100671.688982
100671.66134
100671.634667
100671.609117
100671.5848
100671.561822
100671.54025
100671.520151
100671.501552
100671.484483
100671.468939
100671.454917
100671.442385
100671.431312
100671.421644
100671.413311
100671.406209
100671.400259
100671.395357
100671.391406
100671.38829
100671.385898
100671.384106
100671.382804
100671.381878
100671.381238
100671.38081
100671.380562
100671.380505
100671.380717
100671.381349
100671.382643
100671.384935
100671.388654
100671.394303
100671.402423
100671.413523
100671.42798
100671.445888
100671.466876
100671.489862
100671.547239
100664.374108
100664.430798
100664.424887
100664.416448
100664.405678
100664.392874
100664.378301
100664.362304
100664.345153
100664.327172
100664.308579
100664.289615
100664.270391
100664.251032
100664.231518
100664.211856
100664.191921
100664.17164
100664.150834
100664.129411
100664.107207
100664.084175
100664.060216
100664.035373
100664.009642
100663.983164
100663.956028
100663.928457
100663.900607
100663.872749
100663.84507
100663.817856
100663.791292
100663.76565
100663.74109
100663.717853
100663.696064
100663.675921
100663.657507
100663.64098
100663.626381
100663.613826
100663.603319
100663.594938
100663.588683
100663.584588
100663.582523
100663.58244
100663.584262
100663.587977
100663.593487
100663.600756
100663.609667
100663.620162
100663.632107
100663.645428
100663.659976
100663.67566
100663.692322
100663.709855
100663.728092
100663.746917
100663.766154
100663.785678
100663.805307
100663.824906
100663.844291
100663.863319
100663.8818
100663.899585
100663.91648
100663.932331
100663.94694
100663.960148
100663.971758
100663.981612
100663.989514
100663.995313
100663.998826
100663.999917
100663.998433
100663.994274
100663.98734
100663.977601
100663.965046
100663.949753
100663.93183
100663.911474
100663.888905
100663.864409
100663.838408
100663.811238
100663.783048
100663.754124
100663.724727
100663.695144
100663.665617
100663.636394
100663.607679
100663.579678
100663.552553
100663.526463
100663.501526
100663.477859
100663.455537
100663.434636
100663.415193
100663.397247
100663.380802
100663.365863
100663.352405
100663.340405
100663.329814
100663.320575
100663.312585
100663.305766
100663.300021
100663.295259
100663.291372
100663.288256
100663.285798
100663.283897
100663.282451
100663.281383
100663.28063
100663.280174
100663.280037
100663.280309
100663.281147
100663.2828
100663.285603
100663.289984
100663.296441
100663.305505
100663.317677
100663.333311
100663.352455
100663.374641
100663.398597
100663.450847
100656.347093
100656.403322
100656.396604
100656.38706
100656.374892
100656.360398
100656.343852
100656.32561
100656.305958
100656.28524
100656.263701
100656.241613
100656.219118
100656.196376
100656.173405
100656.150246
100656.126811
100656.103059
100656.078845
100656.054107
100656.028705
100656.002619
100655.975769
100655.948215
100655.919964
100655.891168
100655.861917
100655.832438
100655.802881
100655.773513
100655.744512
100655.716155
100655.688613
100655.66215
100655.636911
100655.613127
100655.590909
100655.570447
100655.551814
100655.535156
100655.52051
100655.507984
100655.497577
100655.489363
100655.483313
100655.479525
100655.477874
100655.478247
100655.480568
100655.484824
100655.490915
100655.498806
100655.508376
100655.519566
100655.532241
100655.54632
100655.561653
100655.578142
100655.595624
100655.613987
100655.633055
100655.652705
100655.672754
100655.693066
100655.713453
100655.733772
100655.753829
100655.773473
100655.792508
100655.810779
100655.828087
100655.844274
100655.859141
100655.872531
100655.884247
100655.894137
100655.902014
100655.907736
100655.911134
100655.912091
100655.910472
100655.906199
100655.899193
100655.889446
100655.876963
100655.861828
100655.844148
100655.82411
100655.801912
100655.777818
100655.752096
100655.725114
100655.697185
100655.668516
100655.639331
100655.60988
100655.580402
100655.551144
100655.522308
100655.494102
100655.466689
100655.440233
100655.414858
100655.390687
100655.367802
100655.346285
100655.326182
100655.307538
100655.290365
100655.274676
100655.260453
100655.24768
100655.236314
100655.226314
100655.217579
100655.21003
100655.203577
100655.198136
100655.193608
100655.189898
100655.186903
100655.184532
100655.182694
100655.181323
100655.18037
100655.179827
100655.179725
100655.180162
100655.1813
100655.183388
100655.186755
100655.191821
100655.199067
100655.209005
100655.222107
100655.238687
100655.258726
100655.281637
100655.305944
100655.353207
100648.325172
100648.380538
100648.372939
100648.362162
100648.34841
100648.331989
100648.313181
100648.292351
100648.26981
100648.245925
100648.220971
100648.195257
100648.168964
100648.142296
100648.115313
100648.0881
100648.060612
100648.032849
100648.004702
100647.976145
100647.947071
100647.917484
100647.887329
100647.856683
100647.825567
100647.794141
100647.7625
100647.73087
100647.699396
100647.66834
100647.637869
100647.608247
100647.579635
100647.55228
100647.526315
100647.501956
100647.4793
100647.458525
100647.439691
100647.422936
100647.408285
100647.395838
100647.385587
100647.377596
100647.371827
100647.368424
100647.367256
100647.36817
100647.371074
100647.375954
100647.382707
100647.391294
100647.401593
100647.413543
100647.427005
100647.441894
100647.458057
100647.475389
100647.493723
100647.512939
100647.532857
100647.553345
100647.574213
100647.595318
100647.616464
100647.6375
100647.658225
100647.678482
100647.69807
100647.716828
100647.734553
100647.751085
100647.766226
100647.779817
100647.791668
100647.801631
100647.809525
100647.815222
100647.818564
100647.819449
100647.817758
100647.813434
100647.806414
100647.796707
100647.784329
100647.76937
100647.751937
100647.732208
100647.710369
100647.686667
100647.661342
100647.634693
100647.606957
100647.578525
100647.549601
100647.520344
100647.491011
100647.461826
100647.432996
100647.404724
100647.377175
100647.350516
100647.324873
100647.300374
100647.277105
100647.255155
100647.234574
100647.215415
100647.197694
100647.181432
100647.166616
100647.153237
100647.141258
100647.130654
100647.121333
100647.113207
100647.106194
100647.100219
100647.09519
100647.091023
100647.087621
100647.084906
100647.082796
100647.081237
100647.080188
100647.079652
100647.079668
100647.080337
100647.081823
100647.08437
100647.088298
100647.094008
100647.101961
100647.112638
100647.126471
100647.143723
100647.164298
100647.187488
100647.21163
100647.254179
100640.308402
100640.362427
100640.353863
100640.341711
100640.326179
100640.307576
100640.286193
100640.262414
100640.236569
100640.209056
100640.180188
100640.150317
100640.119672
100640.088507
100640.056935
100640.025093
100639.992984
100639.960655
100639.928043
100639.89516
100639.861931
100639.828393
100639.794513
100639.760387
100639.726051
100639.691671
100639.657347
100639.623303
100639.589679
100639.556729
100639.524605
100639.493562
100639.463743
100639.435382
100639.408595
100639.383583
100639.360427
100639.339293
100639.320226
100639.303354
100639.288688
100639.276321
100639.266235
100639.258488
100639.253034
100639.249984
100639.249286
100639.250804
100639.254348
100639.259904
100639.267369
100639.276703
100639.287781
100639.30054
100639.314835
100639.330581
100639.347617
100639.365837
100639.385064
100639.405177
100639.425985
100639.447353
100639.469081
100639.491022
100639.512971
100639.53477
100639.556213
100639.577138
100639.597335
100639.616642
100639.634851
100639.651803
100639.667295
100639.681175
100639.693253
100639.703387
100639.711404
100639.717185
100639.720583
100639.721511
100639.719864
100639.7156
100639.708671
100639.699098
100639.686906
100639.672192
100639.655061
100639.635686
100639.614242
100639.590964
100639.566076
100639.539844
100639.512526
100639.484371
100639.455704
100639.426758
100639.397635
100639.368649
100639.339954
100639.311752
100639.284216
100639.25751
100639.231763
100639.207105
100639.183626
100639.161419
100639.140538
100639.121041
100639.102951
100639.08629
100639.071053
100639.057236
100639.044807
100639.033759
100639.024011
100639.015462
100639.008039
100639.001675
100638.996284
100638.991789
100638.988106
100638.985163
100638.982889
100638.981238
100638.980178
100638.97972
100638.979906
100638.980842
100638.982686
100638.985675
100638.990116
100638.996388
100639.004922
100639.016162
100639.030497
100639.048132
100639.068896
100639.091967
100639.115529
100639.153685
100632.297
100632.349128
100632.339504
100632.325822
100632.308293
100632.287228
100632.262933
100632.235803
100632.206199
100632.174555
100632.141227
100632.106618
100632.071017
100632.034737
100631.997953
100631.960863
100631.923526
100631.886046
100631.848405
100631.810659
100631.77277
100631.734807
100631.696761
100631.658747
100631.620812
100631.583132
100631.545807
100631.509059
100631.47302
100631.437934
100631.403942
100631.371284
100631.340085
100631.310564
100631.282819
100631.257035
100631.233278
100631.211697
100631.192324
100631.175273
100631.160545
100631.14822
100631.138271
100631.130749
100631.125605
100631.122871
100631.122622
100631.124758
100631.128964
100631.135227
100631.14344
100631.15356
100631.165459
100631.179071
100631.19425
100631.210904
100631.228869
100631.248033
100631.268217
100631.289291
100631.311059
100631.33338
100631.356047
100631.378906
100631.401745
100631.424402
100631.446662
100631.468358
100631.489275
100631.509248
100631.528065
100631.545566
100631.561547
100631.575858
100631.588311
100631.59877
100631.607069
100631.613095
100631.616714
100631.61785
100631.616409
100631.612362
100631.605674
100631.596376
100631.5845
100631.570147
100631.553423
100631.534495
100631.513533
100631.490759
100631.466388
100631.440674
100631.41385
100631.386182
100631.357942
100631.32931
100631.300574
100631.271913
100631.243457
100631.215474
100631.188098
100631.161499
100631.135809
100631.111156
100631.087635
100631.06534
100631.044331
100631.024668
100631.006376
100630.989486
100630.973995
100630.959902
100630.94718
100630.935837
100630.92581
100630.916986
100630.909296
100630.902678
100630.897054
100630.892355
100630.888504
100630.885437
100630.883091
100630.881427
100630.880422
100630.88009
100630.880477
100630.881686
100630.883871
100630.887259
100630.892136
100630.898859
100630.907824
100630.919436
100630.934034
100630.951769
100630.972398
100630.995008
100631.017664
100631.051754
100624.291338
100624.340936
100624.330146
100624.314761
100624.294994
100624.271158
100624.243569
100624.212645
100624.178775
100624.142433
100624.104032
100624.064036
100624.022802
100623.980717
100623.938029
100623.895007
100623.851777
100623.808501
100623.765216
100623.722026
100623.67893
100623.636028
100623.593336
100623.550988
100623.509042
100623.46768
100623.427001
100623.387223
100623.34847
100623.310976
100623.274864
100623.240361
100623.207574
100623.176704
100623.147832
100623.121126
100623.096633
100623.074487
100623.054705
100623.037386
100623.022517
100623.01017
100623.000304
100622.992961
100622.98808
100622.985666
100622.985857
100622.988579
100622.993461
100623.000454
100623.009447
100623.020392
100623.033159
100623.047679
100623.0638
100623.08143
100623.100398
100623.120589
100623.141817
100623.163947
100623.186778
100623.210161
100623.233885
100623.257786
100623.281648
100623.305302
100623.328525
100623.351147
100623.372947
100623.393756
100623.413358
100623.431591
100623.448252
100623.46319
100623.47622
100623.48721
100623.495999
100623.502483
100623.506536
100623.50809
100623.507063
100623.503437
100623.497186
100623.488349
100623.476965
100623.463138
100623.446972
100623.428635
100623.408288
100623.386147
100623.362415
100623.33734
100623.311145
100623.284088
100623.256393
100623.228325
100623.200077
100623.171861
100623.143874
100623.116227
100623.089163
100623.062834
100623.037357
100623.012871
100622.989471
100622.967252
100622.946278
100622.92661
100622.90828
100622.891319
100622.875728
100622.861514
100622.848651
100622.837141
100622.826957
100622.817999
100622.810175
100622.803429
100622.797691
100622.792897
100622.788977
100622.785874
100622.783533
100622.781921
100622.781019
100622.780843
100622.781442
100622.782914
100622.785406
100622.78913
100622.794353
100622.801402
100622.81064
100622.822429
100622.83706
100622.854629
100622.874836
100622.896693
100622.918194
100622.948529
100616.291929
100616.338296
100616.32622
100616.308942
100616.286668
100616.259717
100616.228413
100616.193191
100616.154477
100616.112796
100616.068621
100616.022495
100615.974857
100615.926182
100615.876804
100615.827077
100615.777202
100615.727409
100615.677794
100615.62851
100615.579596
100615.531185
100615.483315
100615.436139
100615.389722
100615.344251
100615.299823
100615.25665
100615.214846
100615.174631
100615.136114
100615.099504
100615.064889
100615.032454
100615.002259
100614.974454
100614.949068
100614.926219
100614.905907
100614.888217
100614.873123
100614.860683
100614.850847
100614.843647
100614.839015
100614.836961
100614.837454
100614.840634
100614.846259
100614.854033
100614.863857
100614.875686
100614.889386
100614.904887
100614.922034
100614.94073
100614.960803
100614.982131
100615.004523
100615.027839
100615.051873
100615.076468
100615.101406
100615.12652
100615.151583
100615.176421
100615.200805
100615.224558
100615.247454
100615.26932
100615.289937
100615.309139
100615.326722
100615.342536
100615.356396
100615.368175
100615.377714
100615.384918
100615.389664
100615.391896
100615.391539
100615.388584
100615.38301
100615.374867
100615.364196
100615.351105
100615.335698
100615.318139
100615.298585
100615.277248
100615.254321
100615.230044
100615.204634
100615.178339
100615.151381
100615.123999
100615.096401
100615.068855
100615.041429
100615.01438
100614.987851
100614.961889
100614.936797
100614.912644
100614.88952
100614.867535
100614.846751
100614.827232
100614.809014
100614.792129
100614.776585
100614.762387
100614.749518
100614.737962
100614.727737
100614.71877
100614.710928
100614.704164
100614.698413
100614.693618
100614.689715
100614.686651
100614.684378
100614.682866
100614.682101
100614.682099
100614.682908
100614.68462
100614.687373
100614.691363
100614.696833
100614.704084
100614.713438
100614.725219