/*--------------------------------*- C++ -*----------------------------------*\
| =========                 |                                                 |
| \\      /  F ield         | OpenFOAM: The Open Source CFD Toolbox           |
|  \\    /   O peration     | Version:  2206                                  |
|   \\  /    A nd           | Website:  www.openfoam.com                      |
|    \\/     M anipulation  |                                                 |
\*---------------------------------------------------------------------------*/
FoamFile
{
    version     2.0;
    format      ascii;
    arch        "LSB;label=64;scalar=64";
    class       surfaceScalarField;
    location    "3.4/water";
    object      phi;
}
// * * * * * * * * * * * * * * * * * * * * * * * * * * * * * * * * * * * * * //

dimensions      [0 3 -1 0 0 0 0];

oriented        oriented;

internalField   nonuniform List<scalar> 
46280
(
-4.64264681324e-10
4.64237433198e-10
-9.43483163681e-10
4.79218758154e-10
-1.44081377668e-09
4.97281885395e-10
-1.9621754782e-09
5.21365605673e-10
-2.5139937844e-09
5.51763458841e-10
-3.10235266175e-09
5.88365161127e-10
-3.73338257671e-09
6.30960802816e-10
-4.41269213912e-09
6.7931698202e-10
-5.14585053184e-09
7.33084694641e-10
-5.93766134972e-09
7.91823084579e-10
-6.79262931696e-09
8.54896427713e-10
-7.7141301102e-09
9.21519073351e-10
-8.70487195983e-09
9.90675087121e-10
-9.76604079388e-09
1.061191856e-09
-1.08977941709e-08
1.13169070159e-09
-1.20984578188e-08
1.2006890953e-09
-1.33651006758e-08
1.2665827546e-09
-1.46928452878e-08
1.3277706858e-09
-1.60755624796e-08
1.3826587002e-09
-1.75053270517e-08
1.42979044048e-09
-1.89732353895e-08
1.46785122584e-09
-2.04689913393e-08
1.49578137968e-09
-2.19818047793e-08
1.51275791066e-09
-2.35000518952e-08
1.51827214081e-09
-2.50121837513e-08
1.51207825521e-09
-2.65063919868e-08
1.49423283873e-09
-2.79714592247e-08
1.46501587494e-09
-2.93963796269e-08
1.42494445236e-09
-3.07711106454e-08
1.37468209966e-09
-3.20861312637e-08
1.31504380627e-09
-3.33330868234e-08
1.24690917676e-09
-3.45042962451e-08
1.17123132498e-09
-3.55933024775e-08
1.0889623786e-09
-3.65943534202e-08
1.00107104158e-09
-3.7502876798e-08
9.08481975991e-10
-3.83149603613e-08
8.12101317628e-10
-3.90277672478e-08
7.12767817288e-10
-3.9639035856e-08
6.11283491946e-10
-4.01474462904e-08
5.08373568742e-10
-4.0552154067e-08
4.04719334127e-10
-4.08531129956e-08
3.0092414742e-10
-4.10506510074e-08
1.97545888451e-10
-4.11457512171e-08
9.50674287442e-11
-4.11396819063e-08
-6.0653436022e-12
-4.10342700462e-08
-1.05442681738e-10
-4.08315786151e-08
-2.02691456213e-10
-4.05340958506e-08
-2.97511609521e-10
-4.01444957139e-08
-3.89604096065e-10
-3.9665825821e-08
-4.78696693202e-10
-3.91013095166e-08
-5.64523993493e-10
-3.84544876708e-08
-6.46846483861e-10
-3.77290684058e-08
-7.25430371018e-10
-3.69290273414e-08
-8.00063394113e-10
-3.60585036928e-08
-8.70537755108e-10
-3.51218592231e-08
-9.36664326384e-10
-3.41236165809e-08
-9.98259286454e-10
-3.30684767909e-08
-1.05515701692e-09
-3.19612951713e-08
-1.10720029907e-09
-3.08070577754e-08
-1.15425185831e-09
-2.96108902761e-08
-1.19618773538e-09
-2.8377994539e-08
-1.23290734545e-09
-2.711368627e-08
-1.26432959939e-09
-2.58232936688e-08
-1.29040131295e-09
-2.45122200621e-08
-1.31109563653e-09
-2.31858072448e-08
-1.3264186483e-09
-2.18494199642e-08
-1.33640965663e-09
-2.05082772161e-08
-1.34114576558e-09
-1.91675560883e-08
-1.34074357578e-09
-1.78321949523e-08
-1.33536146169e-09
-1.65070150856e-08
-1.32520214724e-09
-1.51965005023e-08
-1.31051237487e-09
-1.39049366034e-08
-1.29158582851e-09
-1.2636172107e-08
-1.2687599439e-09
-1.13937747091e-08
-1.2424188005e-09
-1.01807809951e-08
-1.21298702352e-09
-8.99986901995e-09
-1.18093271136e-09
-7.85310098237e-09
-1.1467594331e-09
-6.74210913937e-09
-1.11101177754e-09
-5.66782679117e-09
-1.07427206575e-09
-4.63066375571e-09
-1.03718206376e-09
-3.63018263757e-09
-1.00046941071e-09
-2.66517600668e-09
-9.65024634793e-10
-1.73315580116e-09
-9.3200732414e-10
-8.30169543331e-10
-9.03003168426e-10
4.98482272024e-11
-8.80003915555e-10
9.14365632746e-10
-8.64533213794e-10
1.77052557419e-09
-8.56145257532e-10
2.62309970854e-09
-8.52588868412e-10
3.47459016621e-09
-8.5147508604e-10
4.32562833635e-09
-8.51051831908e-10
5.1757260263e-09
-8.50081804355e-10
6.02338402761e-09
-8.47670606869e-10
6.86653373595e-09
-8.431335056e-10
7.7024564995e-09
-8.35934337766e-10
8.5281059209e-09
-8.25633104516e-10
9.3399677374e-09
-8.11872414299e-10
1.01343379594e-08
-7.94353987429e-10
1.09071705011e-08
-7.72842223217e-10
1.16543379572e-08
-7.47151484025e-10
1.23714840076e-08
-7.17154892114e-10
1.3054273925e-08
-6.82774367382e-10
1.36982552381e-08
-6.4398938513e-10
1.42990970238e-08
-6.00826793502e-10
1.4852457831e-08
-5.53368183925e-10
1.53542113875e-08
-5.01739234102e-10
1.58003206414e-08
-4.46115997704e-10
1.61870485288e-08
-3.86714324352e-10
1.65108379845e-08
-3.23795628592e-10
1.67685075459e-08
-2.5765682705e-10
1.69571376473e-08
-1.88635754181e-10
1.70742508824e-08
-1.17101380281e-10
1.71177038144e-08
-4.34581116029e-11
1.70858521318e-08
3.18626255934e-11
1.6977443017e-08
1.0840437595e-10
1.67917810882e-08
1.85671944189e-10
1.65286563203e-08
2.63120446898e-10
1.61885104834e-08
3.40154924136e-10
1.57723879421e-08
4.16118630185e-10
1.52821051406e-08
4.90290972054e-10
1.47202284695e-08
5.61873175996e-10
1.40902518334e-08
6.29983912203e-10
1.33966024898e-08
6.93646287564e-10
1.26448202536e-08
7.51788650939e-10
1.1841572184e-08
8.03245504182e-10
1.09947956115e-08
8.46782176596e-10
1.01136595326e-08
8.81134077479e-10
9.20858243726e-09
9.05081942516e-10
8.29103030814e-09
9.17550816038e-10
7.37329428073e-09
9.17740211273e-10
6.4680362831e-09
9.05257508159e-10
5.58779891337e-09
8.80241012185e-10
4.74436304799e-09
8.43436287892e-10
3.94814866302e-09
7.96217535868e-10
3.20759886545e-09
7.4055121401e-10
2.52865765601e-09
6.78943923456e-10
1.91422140938e-09
6.14438517672e-10
1.36345801587e-09
5.50765768807e-10
8.70670606569e-10
4.92789554236e-10
4.23268491664e-10
4.47404092953e-10
4.23269021671e-10
-5.1056689991e-10
9.74775988536e-10
-1.0266996606e-09
9.9533619436e-10
-1.55841749512e-09
1.02896013314e-09
-2.11293651003e-09
1.07587304153e-09
-2.69720160245e-09
1.13598560643e-09
-3.31772325681e-09
1.20887674797e-09
-3.98082458341e-09
1.29401448972e-09
-4.69230214459e-09
1.39078609445e-09
-5.45767995747e-09
1.49841435424e-09
-6.28176224144e-09
1.61590037916e-09
-7.16884593544e-09
1.74193465347e-09
-8.12220015076e-09
1.87487280083e-09
-9.14426076714e-09
2.01269399173e-09
-1.02360962213e-08
2.15303005294e-09
-1.13976251857e-08
2.29318067111e-09
-1.26271298051e-08
2.43019797876e-09
-1.39215420008e-08
2.56095742961e-09
-1.5276055194e-08
2.6822884951e-09
-1.66845157777e-08
2.79108256644e-09
-1.81391612836e-08
2.88444049174e-09
-1.96311254122e-08
2.95977942525e-09
-2.11502942679e-08
3.01495474928e-09
-2.26858953811e-08
3.04832414503e-09
-2.42264280167e-08
3.05880944084e-09
-2.5760278174e-08
3.04589493895e-09
-2.72756617443e-08
3.00962133671e-09
-2.87612026976e-08
2.95052498764e-09
-3.02058365594e-08
2.86958346548e-09
-3.15993078617e-08
2.76812331785e-09
-3.29320075094e-08
2.64774862975e-09
-3.4195373884e-08
2.51024717997e-09
-3.53816652672e-08
2.3575275784e-09
-3.64842722881e-08
2.1915426188e-09
-3.74974441576e-08
2.01424706437e-09
-3.84165314124e-08
1.82754382117e-09
-3.92376903291e-08
1.63326322246e-09
-3.99580761136e-08
1.43312933474e-09
-4.05755474206e-08
1.22875619118e-09
-4.10888259224e-08
1.02162870061e-09
-4.14972173846e-08
8.13110213448e-10
-4.18007486314e-08
6.04432725558e-10
-4.19999169273e-08
3.96711339522e-10
-4.20958126532e-08
1.90941033622e-10
-4.20898992562e-08
-1.19840287781e-11
-4.19840917746e-08
-2.11271807449e-10
-4.17805662467e-08
-4.0622476769e-10
-4.14818886388e-08
-5.96210383148e-10
-4.10908573382e-08
-7.80645606942e-10
-4.06105780203e-08
-9.58996614818e-10
-4.00443512755e-08
-1.13076318447e-09
-3.9395734967e-08
-1.29548268577e-09
-3.86684630347e-08
-1.45271670347e-09
-3.78664889914e-08
-1.60205642262e-09
-3.69939309686e-08
-1.74311177223e-09
-3.60550944227e-08
-1.87551871956e-09
-3.50544396278e-08
-1.99893127419e-09
-3.39965824537e-08
-2.11303067038e-09
-3.2886280667e-08
-2.21752006542e-09
-3.17284121869e-08
-2.31213523216e-09
-3.05279767676e-08
-2.39664153521e-09
-2.92900516457e-08
-2.47084560423e-09
-2.80198055962e-08
-2.53459407854e-09
-2.67224324646e-08
-2.58778569236e-09
-2.54031750577e-08
-2.63037123091e-09
-2.40672375843e-08
-2.66236541447e-09
-2.27198174986e-08
-2.68384745125e-09
-2.13659985303e-08
-2.6949720488e-09
-2.00107893124e-08
-2.69596985352e-09
-1.86589993352e-08
-2.68715681678e-09
-1.73152840227e-08
-2.66893374545e-09
-1.59840066368e-08
-2.6417932666e-09
-1.46692900804e-08
-2.60631781234e-09
-1.33748681012e-08
-2.5631836622e-09
-1.21041443129e-08
-2.51315709277e-09
-1.08600357779e-08
-2.45709563623e-09
-9.64503880212e-09
-2.39594322172e-09
-8.46106585777e-09
-2.33073092539e-09
-7.30951392819e-09
-2.26257623345e-09
-6.19108955026e-09
-2.19269358429e-09
-5.10586748072e-09
-2.12241561511e-09
-4.05309360242e-09
-2.05323916311e-09
-3.03123514188e-09
-1.98689348034e-09
-2.03782244695e-09
-1.92541475054e-09
-1.06970079372e-09
-1.87113406586e-09
-1.2335271575e-10
-1.82634571599e-09
8.0452984863e-10
-1.7924238797e-09
1.71724709781e-09
-1.76885533758e-09
2.61789116822e-09
-1.75323995019e-09
3.50888602977e-09
-1.74246202728e-09
4.39154773777e-09
-1.73371954484e-09
5.26620822188e-09
-1.72473375872e-09
6.13222984293e-09
-1.71369732432e-09
6.98828246332e-09
-1.69917715238e-09
7.83236934988e-09
-1.68002551469e-09
8.66205858381e-09
-1.65531307468e-09
9.47446514113e-09
-1.62428256152e-09
1.02664388738e-08
-1.58631832567e-09
1.10345216969e-08
-1.5409280383e-09
1.17751117153e-08
-1.48773211347e-09
1.24844122457e-08
-1.42645791431e-09
1.31585832918e-08
-1.35693616236e-09
1.37936899477e-08
-1.27909812162e-09
1.43858449326e-08
-1.1929727704e-09
1.49311585334e-08
-1.09868353333e-09
1.54258727272e-08
-9.96444760781e-10
1.58663130944e-08
-8.86557849856e-10
1.62490145353e-08
-7.69407511907e-10
1.65706756714e-08
-6.45458045217e-10
1.68282767211e-08
-5.15250103601e-10
1.70190375095e-08
-3.79397669151e-10
1.71405288839e-08
-2.38585506578e-10
1.71906364528e-08
-9.35666929212e-11
1.71676648683e-08
5.48408962255e-11
1.70703063629e-08
2.05761954425e-10
1.68977466484e-08
3.58237767045e-10
1.66496585883e-08
5.11207650645e-10
1.6326318466e-08
6.63500569886e-10
1.59286136638e-08
8.13822644443e-10
1.54581666652e-08
9.60742921092e-10
1.49173606485e-08
1.10267848725e-09
1.43094675141e-08
1.23788144317e-09
1.36386818401e-08
1.36443136746e-09
1.29102349608e-08
1.48023941261e-09
1.21304084696e-08
1.58307156529e-09
1.13065932512e-08
1.67060081096e-09
1.04472302723e-08
1.74049686785e-09
9.56175551611e-09
1.79055972728e-09
8.66041165484e-09
1.81889485323e-09
7.75403695774e-09
1.82411765664e-09
6.85373372169e-09
1.80556141232e-09
5.97052193721e-09
1.76345537186e-09
5.11491898514e-09
1.6990405333e-09
4.29653123177e-09
1.61460779044e-09
3.52361127276e-09
1.51347302585e-09
2.80261364555e-09
1.39994403358e-09
2.13768014287e-09
1.27937446038e-09
1.53001394776e-09
1.15843429406e-09
9.77074759878e-10
1.04573088872e-09
4.71794318858e-10
9.52686465497e-10
8.95063847733e-10
-5.6317634311e-10
1.53791605262e-09
-1.12980021025e-09
1.56193818486e-09
-1.70993717313e-09
1.60905247699e-09
-2.31185732491e-09
1.67777701255e-09
-2.94307976134e-09
1.76716382634e-09
-3.61050454829e-09
1.87629024516e-09
-4.32070163512e-09
2.00416833177e-09
-5.07960707852e-09
2.14968474321e-09
-5.89272987114e-09
2.31149515859e-09
-6.76474776502e-09
2.48791589101e-09
-7.69968034406e-09
2.67682823056e-09
-8.70043012358e-09
2.87562336213e-09
-9.76894933658e-09
3.08117669137e-09
-1.09057858191e-08
3.28986910566e-09
-1.21102813444e-08
3.49764112903e-09
-1.33801726062e-08
3.70009226306e-09
-1.47118600106e-08
3.89261037781e-09
-1.6100103634e-08
4.0705348662e-09
-1.75383890223e-08
4.22933387606e-09
-1.90187362382e-08
4.36479012907e-09
-2.0532163726e-08
4.47317344305e-09
-2.20685974996e-08
4.55139085881e-09
-2.36174032481e-08
4.59709745453e-09
-2.51673543968e-08
4.60876315288e-09
-2.67071803763e-08
4.58568989751e-09
-2.82255391946e-08
4.52798309891e-09
-2.9711526895e-08
4.43648333829e-09
-3.11546084618e-08
4.31266835203e-09
-3.25450500342e-08
4.15853729569e-09
-3.38737850518e-08
3.97648713715e-09
-3.51327562636e-08
3.7691924937e-09
-3.6314719214e-08
3.53949386776e-09
-3.74135025179e-08
3.29030154655e-09
-3.8423767196e-08
3.02451450658e-09
-3.93412043515e-08
2.74495788163e-09
-4.01622741123e-08
2.45433473019e-09
-4.08843606415e-08
2.15519377762e-09
-4.15055117324e-08
1.84990757493e-09
-4.20245666621e-08
1.54066229271e-09
-4.24409117631e-08
1.22945378248e-09
-4.2754591118e-08
9.18091268803e-10
-4.29660876533e-08
6.08204233426e-10
-4.30764210208e-08
3.01253958715e-10
-4.30869561634e-08
-1.45480775433e-12
-4.29994866801e-08
-2.98761442683e-10
-4.28160515032e-08
-5.89668191075e-10
-4.25390325651e-08
-8.73249174127e-10
-4.21710253272e-08
-1.14866333985e-09
-4.17149026859e-08
-1.41513872171e-09
-4.11737179669e-08
-1.6719604518e-09
-4.05507581411e-08
-1.91846143147e-09
-3.98494740607e-08
-2.15401510583e-09
-3.90735184434e-08
-2.37803020551e-09
-3.82266987751e-08
-2.58994717994e-09
-3.73129979034e-08
-2.78923676555e-09
-3.63365459764e-08
-2.97539997789e-09
-3.53016223664e-08
-3.14797022264e-09
-3.42126433915e-08
-3.30651645707e-09
-3.30741448526e-08
-3.45064826204e-09
-3.18907825249e-08
-3.58002156131e-09
-3.06672950539e-08
-3.69434593438e-09
-2.94085145866e-08
-3.79339219602e-09
-2.81193102238e-08
-3.87700115289e-09
-2.68046065232e-08
-3.94509227689e-09
-2.54693081467e-08
-3.99767305139e-09
-2.41183245362e-08
-4.03484789045e-09
-2.27564768922e-08
-4.05682709665e-09
-2.13885278835e-08
-4.06393503977e-09
-2.00190726313e-08
-4.05661764302e-09
-1.8652573026e-08
-4.03544877354e-09
-1.72932349057e-08
-4.00113519534e-09
-1.59450470423e-08
-3.95452029175e-09
-1.46116470414e-08
-3.89658579069e-09
-1.32963654157e-08
-3.82845247705e-09
-1.20020828823e-08
-3.75137871604e-09
-1.07312801271e-08
-3.66675885325e-09
-9.48588981604e-09
-3.57612030646e-09
-8.26735459868e-09
-3.48112340051e-09
-7.07648214035e-09
-3.38356374661e-09
-5.91352537051e-09
-3.28538336266e-09
-4.77807371632e-09
-3.18868726262e-09
-3.6692179646e-09
-3.09575915033e-09
-2.58559378604e-09
-3.00903422349e-09
-1.52578944423e-09
-2.93094719423e-09
-4.88603349728e-10
-2.8635260705e-09
5.26618838881e-10
-2.80765368045e-09
1.52066340406e-09
-2.7628932694e-09
2.49473850373e-09
-2.72732153145e-09
3.45017091866e-09
-2.69788707813e-09
4.38794120725e-09
-2.67149527073e-09
5.30852224818e-09
-2.64530687773e-09
6.21171363259e-09
-2.61689322697e-09
7.09676878522e-09
-2.58422399437e-09
7.96235964522e-09
-2.54562009325e-09
8.80675189819e-09
-2.49969678864e-09
9.62778251288e-09
-2.44531622268e-09
1.04230229851e-08
-2.38155017481e-09
1.11897479614e-08
-2.30765549775e-09
1.19250813057e-08
-2.22305688014e-09
1.26259578891e-08
-2.12733652568e-09
1.32892562175e-08
-2.02022607013e-09
1.39117574213e-08
-1.90160098538e-09
1.44902675435e-08
-1.77147472529e-09
1.50215762942e-08
-1.62999365921e-09
1.550257074e-08
-1.47743137228e-09
1.59301953071e-08
-1.31418357125e-09
1.6301558042e-08
-1.14076281251e-09
1.66138931185e-08
-9.57794116383e-10
1.68646609318e-08
-7.66010935858e-10
1.70515145947e-08
-5.66252213115e-10
1.71723955535e-08
-3.59459980293e-10
1.72255056521e-08
-1.46677600087e-10
1.72093998349e-08
7.09526740106e-11
1.71229667825e-08
2.92194246113e-10
1.69655182728e-08
5.15691697292e-10
1.67367836232e-08
7.39941572851e-10
1.64370096278e-08
9.63279445885e-10
1.6066967715e-08
1.18386386676e-09
1.56280559308e-08
1.39965905954e-09
1.51223152203e-08
1.6084185609e-09
1.45525269827e-08
1.80767353654e-09
1.39222269991e-08
1.99473080458e-09
1.32357818423e-08
2.16668796842e-09
1.24983786689e-08
2.32047433631e-09
1.17160550427e-08
2.45292743549e-09
1.08956387433e-08
2.56091300091e-09
1.00447090232e-08
2.64149213469e-09
9.17147369893e-09
2.69213036754e-09
8.28466115514e-09
2.71093267814e-09
7.39334628048e-09
2.69687696084e-09
6.50679073581e-09
2.65001331048e-09
5.63423170581e-09
2.5716007962e-09
4.78466863441e-09
2.46417324807e-09
3.9665859657e-09
2.33155763219e-09
3.18761938576e-09
2.17891296701e-09
2.45409031918e-09
2.01290597015e-09
1.7703351557e-09
1.84219182791e-09
1.13763998e-09
1.67842812948e-09
5.52083054776e-10
1.53824526702e-09
1.44714738067e-09
-6.16593623468e-10
2.15446634253e-09
-1.23780078194e-09
2.18311817714e-09
-1.87243672221e-09
2.2436386563e-09
-2.52882047917e-09
2.33414072332e-09
-3.21473851688e-09
2.45303571306e-09
-3.93729050702e-09
2.59883121082e-09
-4.70315272121e-09
2.76998777154e-09
-5.51826026546e-09
2.96478799781e-09
-6.38799427272e-09
3.18119073516e-09
-7.31677287548e-09
3.41669470038e-09
-8.30821158875e-09
3.66823106918e-09
-9.36468828096e-09
3.93210316896e-09
-1.04875192987e-08
4.20397350337e-09
-1.16765483728e-08
4.47890219426e-09
-1.29303734779e-08
4.75143259813e-09
-1.42460028645e-08
5.01572533669e-09
-1.56191591542e-08
5.26573303481e-09
-1.70440294222e-08
5.49540809817e-09
-1.85136587613e-08
5.69892964271e-09
-2.00197983906e-08
5.87093218978e-09
-2.15533775916e-08
6.00671958695e-09
-2.3104428283e-08
6.10244387364e-09
-2.46626011357e-08
6.15523830428e-09
-2.62171259259e-08
6.16329053778e-09
-2.77573246532e-08
6.1258581252e-09
-2.92725618691e-08
6.04322338174e-09
-3.07527102766e-08
5.91660300909e-09
-3.21880560631e-08
5.74801765901e-09
-3.35696890555e-08
5.54014339407e-09
-3.48893489283e-08
5.29615077651e-09
-3.61397336007e-08
5.01955202756e-09
-3.73142926859e-08
4.71405661198e-09
-3.84074646963e-08
4.38344997826e-09
-3.9414436465e-08
4.03148939058e-09
-4.03313271329e-08
3.66182625956e-09
-4.11549351401e-08
3.27794484078e-09
-4.18828863783e-08
2.88312372484e-09
-4.25133869512e-08
2.48040879596e-09
-4.30453482512e-08
2.07260302147e-09
-4.34781580508e-08
1.66226239417e-09
-4.38117900294e-08
1.2517031668e-09
-4.40466001949e-08
8.43011094118e-10
-4.41834235686e-08
4.38057581415e-10
-4.4223399684e-08
3.85157203912e-11
-4.41680572632e-08
-3.54123358637e-10
-4.40191550346e-08
-7.38578323368e-10
-4.37787570242e-08
-1.11366640859e-09
-4.34491166875e-08
-1.47831380702e-09
-4.30327405184e-08
-1.83153374599e-09
-4.2532301424e-08
-2.1724117001e-09
-4.19506886223e-08
-2.50009255287e-09
-4.12909460107e-08
-2.81377160249e-09
-4.05563065954e-08
-3.11268718987e-09
-3.97501524642e-08
-3.3961165726e-09
-3.88760321537e-08
-3.66337365337e-09
-3.79376389599e-08
-3.91380942494e-09
-3.693881024e-08
-4.14681428919e-09
-3.58835210801e-08
-4.36182247888e-09
-3.47758650441e-08
-4.55831819802e-09
-3.36200604829e-08
-4.73584323893e-09
-3.24204126556e-08
-4.89400604362e-09
-3.11813302696e-08
-5.03249164681e-09
-2.99072692709e-08
-5.15107269334e-09
-2.86027575435e-08
-5.24962077018e-09
-2.72723210002e-08
-5.32811833368e-09
-2.59205147872e-08
-5.38667038608e-09
-2.45518326749e-08
-5.42551613316e-09
-2.31707435864e-08
-5.4450398017e-09
-2.17815856789e-08
-5.4457806983e-09
-2.03886075733e-08
-5.42844186443e-09
-1.89958489968e-08
-5.39389721065e-09
-1.76071866987e-08
-5.34319683795e-09
-1.6226204111e-08
-5.2775702006e-09
-1.48562427566e-08
-5.19842730963e-09
-1.35002644678e-08
-5.10735730901e-09
-1.21609108206e-08
-5.00612517723e-09
-1.08403645041e-08
-4.8966655169e-09
-9.54042484001e-09
-4.78107489974e-09
-8.2623849956e-09
-4.66160117811e-09
-7.00714868152e-09
-4.54063060748e-09
-5.77516676278e-09
-4.4206655654e-09
-4.56665533813e-09
-4.30428051627e-09
-3.38166402478e-09
-4.19402081507e-09
-2.22042457285e-09
-4.09219551452e-09
-1.08342900467e-09
-4.00051592447e-09
2.85699916414e-11
-3.91966042817e-09
1.1146283713e-09
-3.84894508025e-09
2.17422147688e-09
-3.78692129334e-09
3.20756161328e-09
-3.73121995955e-09
4.21479530102e-09
-3.67873459888e-09
5.19600666522e-09
-3.62651047536e-09
6.15095179449e-09
-3.57184309275e-09
7.07910058194e-09
-3.51236467762e-09
7.97952351657e-09
-3.44604698421e-09
8.85101020048e-09
-3.37117518788e-09
9.69200658745e-09
-3.28631590687e-09
1.05007519287e-08
-3.19028719328e-09
1.12752291333e-08
-3.08213545393e-09
1.20132982664e-08
-2.96111777304e-09
1.27126486113e-08
-2.82668917791e-09
1.33709230278e-08
-2.67849243437e-09
1.39856697774e-08
-2.51634968751e-09
1.45544575504e-08
-2.34025472025e-09
1.50748278952e-08
-2.15036567825e-09
1.55444020268e-08
-1.94699807375e-09
1.59608351196e-08
-1.73061812581e-09
1.6321916118e-08
-1.50183678745e-09
1.66255251261e-08
-1.2614044294e-09
1.68697274891e-08
-1.01020673139e-09
1.70527355903e-08
-7.49261510326e-10
1.7172998632e-08
-4.79716947421e-10
1.72291703204e-08
-2.02850412521e-10
1.72201962435e-08
7.99323064491e-11
1.71452885241e-08
3.67100888505e-10
1.70040034262e-08
6.56981821288e-10
1.67962253718e-08
9.47718588215e-10
1.65222530928e-08
1.23725622536e-09
1.6182791855e-08
1.52332410998e-09
1.57790365791e-08
1.80341832999e-09
1.53126671499e-08
2.07478706417e-09
1.478592158e-08
2.33442262997e-09
1.4201585144e-08
2.579066425e-09
1.3563042538e-08
2.80523367175e-09
1.28742493773e-08
3.00926685469e-09
1.21397536975e-08
3.187425855e-09
1.13646450931e-08
3.3360212313e-09
1.05545483064e-08
3.45159138499e-09
9.71556187861e-09
3.5311168016e-09
8.85424240309e-09
3.57225444351e-09
7.97755263703e-09
3.57356724981e-09
7.0928474183e-09
3.53472074327e-09
6.20782320993e-09
3.45662619973e-09
5.33046827745e-09
3.34153043463e-09
4.46894076081e-09
3.19308689563e-09
3.6313660847e-09
3.01649000253e-09
2.82545697606e-09
2.81881741555e-09
2.05783933195e-09
2.60981166921e-09
1.3328069773e-09
2.40346248885e-09
6.49966111717e-10
2.22108788887e-09
2.09711392311e-09
-6.69943877679e-10
2.82436167096e-09
-1.34564530196e-09
2.85878818894e-09
-2.03568560065e-09
2.93362483768e-09
-2.74826794919e-09
3.04670172779e-09
-3.49122963706e-09
3.19594858659e-09
-4.27171181514e-09
3.37930160333e-09
-5.09636343951e-09
3.5945975768e-09
-5.9709950251e-09
3.83941614637e-09
-6.90074543031e-09
4.11090339962e-09
-7.88966267875e-09
4.40561420635e-09
-8.94086763614e-09
4.71940170436e-09
-1.00561275744e-08
5.04736771428e-09
-1.12360580102e-08
5.38387092706e-09
-1.2479745811e-08
5.72259498467e-09
-1.3785017488e-08
6.05667131218e-09
-1.51481418772e-08
6.37885398057e-09
-1.6564180996e-08
6.6817388212e-09
-1.80267838339e-08
6.95801423627e-09
-1.9528616817e-08
7.20072918545e-09
-2.1061238293e-08
7.40355636607e-09
-2.26155853545e-08
7.56103369885e-09
-2.41818993541e-08
7.66876049502e-09
-2.57502312232e-08
7.72353834455e-09
-2.73103788424e-08
7.72344113166e-09
-2.88523695485e-08
7.66781860415e-09
-3.03663732708e-08
7.55723063822e-09
-3.18431295432e-08
7.39333092434e-09
-3.32738141139e-08
7.17870629531e-09
-3.4650394267e-08
6.91669712033e-09
-3.59654446294e-08
6.61120549947e-09
-3.72124315419e-08
6.26651433593e-09
-3.83854886119e-08
5.88711795802e-09
-3.94796420793e-08
5.4775804375e-09
-4.04905640708e-08
5.04241510719e-09
-4.14147545872e-08
4.58599507125e-09
-4.2249290804e-08
4.1124837443e-09
-4.29919794194e-08
3.62579162638e-09
-4.36411165755e-08
3.1295471409e-09
-4.41956200123e-08
2.62708644601e-09
-4.46548092194e-08
2.12145090747e-09
-4.50185224549e-08
1.61539685525e-09
-4.52869221541e-08
1.11140793811e-09
-4.54605983826e-08
6.11714570815e-10
-4.55404003791e-08
1.18312545717e-10
-4.55275295782e-08
-3.67013157698e-10
-4.54234125194e-08
-8.42702888702e-10
-4.52297445209e-08
-1.30735313584e-09
-4.49483866703e-08
-1.75968139261e-09
-4.45814341653e-08
-2.19850460094e-09
-4.41311347633e-08
-2.62272284622e-09
-4.35999402907e-08
-3.03130481817e-09
-4.29904482907e-08
-3.42327705085e-09
-4.23054371804e-08
-3.7977153124e-09
-4.1547828927e-08
-4.15373961522e-09
-4.07207068956e-08
-4.49051167225e-09
-3.98272966714e-08
-4.80723539396e-09
-3.88709659435e-08
-5.10315974221e-09
-3.7855220794e-08
-5.37758394898e-09
-3.67836874188e-08
-5.62986482762e-09
-3.56601214457e-08
-5.85942576542e-09
-3.44883716775e-08
-6.06576743342e-09
-3.32724002913e-08
-6.24847952517e-09
-3.20162291209e-08
-6.4072537452e-09
-3.0723968892e-08
-6.54189720102e-09
-2.93997488421e-08
-6.65234647534e-09
-2.80477535018e-08
-6.73868146897e-09
-2.66721367253e-08
-6.80113921632e-09
-2.52770649031e-08
-6.84012679904e-09
-2.38666167831e-08
-6.85623338916e-09
-2.24448324868e-08
-6.85024070128e-09
-2.10156009538e-08
-6.82313165956e-09
-1.95827148081e-08
-6.7760968541e-09
-1.81497480588e-08
-6.71053831025e-09
-1.67201180461e-08
-6.62807049569e-09
-1.52969576513e-08
-6.53051761709e-09
-1.38831879291e-08
-6.41990735079e-09
-1.24813927918e-08
-6.29845923053e-09
-1.10939116707e-08
-6.16856770956e-09
-9.72273365004e-09
-6.03277654707e-09
-8.36963229737e-09
-5.8937428279e-09
-7.03611214442e-09
-5.75418194246e-09
-5.72361958565e-09
-5.61678304222e-09
-4.4335633827e-09
-5.48407222079e-09
-3.167564039e-09
-5.35820385186e-09
-1.92739599251e-09
-5.24067826361e-09
-7.15024944831e-10
-5.13203945173e-09
4.67655212195e-10
-5.0316187559e-09
1.61880527472e-09
-4.93807832471e-09
2.73730046828e-09
-4.84970805465e-09
3.82251517951e-09
-4.76395532825e-09
4.87396374507e-09
-4.67795149285e-09
5.89110829821e-09
-4.58899280698e-09
6.87336791437e-09
-4.49461645871e-09
7.81996019749e-09
-4.39264367798e-09
8.72997978683e-09
-4.28118680542e-09
9.60229852421e-09
-4.15863841567e-09
1.0435674848e-08
-4.02365554133e-09
1.1228680842e-08
-3.87514468393e-09
1.19798189699e-08
-3.71224803593e-09
1.26874590687e-08
-3.53433207353e-09
1.33499515942e-08
-3.3409773022e-09
1.39655685961e-08
-3.13196913061e-09
1.45326104131e-08
-2.90728916796e-09
1.50493495061e-08
-2.66710693102e-09
1.55141304275e-08
-2.41177198137e-09
1.59253168751e-08
-2.14180651415e-09
1.62813855463e-08
-1.85789885551e-09
1.65808771142e-08
-1.56089777394e-09
1.6822484781e-08
-1.25180825026e-09
1.70050099838e-08
-9.31788371737e-10
1.71274466349e-08
-6.02147940612e-10
1.71889426597e-08
-2.64348014201e-10
1.71888815187e-08
7.99985935584e-11
1.71268490672e-08
4.29131822872e-10
1.70026973843e-08
7.81138131223e-10
1.68165171795e-08
1.13389732975e-09
1.65687105057e-08
1.48506701682e-09
1.62599672352e-08
1.83206598325e-09
1.58913308521e-08
2.17205834643e-09
1.54641743956e-08
2.50194221954e-09
1.49802536038e-08
2.81834661106e-09
1.44416761205e-08
3.11764274993e-09
1.38509364988e-08
3.39597608964e-09
1.32108755359e-08
3.64932687234e-09
1.25246984229e-08
3.87360543983e-09
1.17959322642e-08
4.06478674073e-09
1.10284431773e-08
4.2190826921e-09
1.02264150856e-08
4.33314466196e-09
9.3943916948e-09
4.4042799081e-09
8.53729897946e-09
4.43066028463e-09
7.66052107109e-09
4.41150070765e-09
6.7699542606e-09
4.34719392071e-09
5.87207768421e-09
4.23940910347e-09
4.97396999702e-09
4.09119630361e-09
4.08327210798e-09
3.90718997865e-09
3.20801539406e-09
3.69407635773e-09
2.35622911153e-09
3.46160009825e-09
1.53512533622e-09
3.22456805012e-09
7.49595859323e-10
3.0066189451e-09
2.84671015363e-09
-7.20734415758e-10
3.54504445887e-09
-1.44840753801e-09
3.58642834612e-09
-2.1915966578e-09
3.67675751361e-09
-2.95851895507e-09
3.8136002649e-09
-3.75702937828e-09
3.99440930652e-09
-4.59425569619e-09
4.21651636095e-09
-5.47676337845e-09
4.47706191607e-09
-6.4101765796e-09
4.77282674573e-09
-7.39934163917e-09
5.1000317652e-09
-8.44789620224e-09
5.45417141421e-09
-9.55843840761e-09
5.8299100982e-09
-1.07321178129e-08
6.22105237787e-09
-1.19688635721e-08
6.62058397545e-09
-1.32670409355e-08
7.02077779429e-09
-1.46237623251e-08
7.41335982637e-09
-1.60346316281e-08
7.78972781787e-09
-1.74941397735e-08
8.14121358251e-09
-1.89954946054e-08
8.45937258987e-09
-2.05310839711e-08
8.73628502458e-09
-2.20923679649e-08
8.96484331786e-09
-2.36703764091e-08
9.13900915719e-09
-2.52556277791e-08
9.25401483971e-09
-2.68386215826e-08
9.30650037974e-09
-2.84097478474e-08
9.2945708331e-09
-2.99597400365e-08
9.21778073951e-09
-3.14795492188e-08
9.0770439186e-09
-3.29607365053e-08
8.87449013253e-09
-3.43953016539e-08
8.61327614644e-09
-3.57760094695e-08
8.29737887319e-09
-3.70961771485e-08
7.93137821757e-09
-3.83499409795e-08
7.5202539846e-09
-3.95320158508e-08
7.06919778848e-09
-4.06379144139e-08
6.58345644536e-09
-4.16636951096e-08
6.06820018725e-09
-4.26061464457e-08
5.52842516223e-09
-4.34625383528e-08
4.96887894879e-09
-4.42307815984e-08
4.39401460825e-09
-4.49091936032e-08
3.80796088471e-09
-4.54966393894e-08
3.2145126505e-09
-4.59923189597e-08
2.61713026948e-09
-4.63958929166e-08
2.0189516762e-09
-4.67072950918e-08
1.42280768648e-09
-4.69268433414e-08
8.31243978786e-10
-4.70550771488e-08
2.46541566794e-10
-4.70928519414e-08
-3.29256966371e-10
-4.7041247075e-08
-8.94314900223e-10
-4.6901579971e-08
-1.44703855686e-09
-4.66753129704e-08
-1.98595776916e-09
-4.63641269169e-08
-2.50970856206e-09
-4.59698432318e-08
-3.01701789913e-09
-4.54944770766e-08
-3.50668828063e-09
-4.49401818369e-08
-3.97758532926e-09
-4.43092853608e-08
-4.42862826293e-09
-4.36042551321e-08
-4.85878418122e-09
-4.28277167967e-08
-5.26706540268e-09
-4.19824374411e-08
-5.65252999638e-09
-4.10713260936e-08
-6.0142851713e-09
-4.00974326784e-08
-6.35149314602e-09
-3.90639305784e-08
-6.66337949625e-09
-3.79741290705e-08
-6.94924325578e-09
-3.68314384068e-08
-7.20846900441e-09
-3.5639393823e-08
-7.4405400139e-09
-3.44016039155e-08
-7.64505280788e-09
-3.31217846173e-08
-7.82173211267e-09
-3.180369191e-08
-7.97044655474e-09
-3.04511644786e-08
-8.09122407267e-09
-2.90680420267e-08
-8.18426727936e-09
-2.76582156533e-08
-8.24996781028e-09
-2.62255332836e-08
-8.28891967534e-09
-2.47738572286e-08
-8.30193080905e-09
-2.33069586536e-08
-8.2900325519e-09
-2.18285824443e-08
-8.25448650571e-09
-2.03423334612e-08
-8.19678812466e-09
-1.88517500472e-08
-8.11866672629e-09
-1.73601864494e-08
-8.02208067848e-09
-1.58708985225e-08
-7.90920744903e-09
-1.43869297669e-08
-7.78242620145e-09
-1.29112168483e-08
-7.64429212174e-09
-1.14464921405e-08
-7.49749833621e-09
-9.99542272353e-09
-7.34482300911e-09
-8.56054683733e-09
-7.18905388607e-09
-7.14445583662e-09
-7.03288401193e-09
-5.74975619387e-09
-6.8787670042e-09
-4.37923910418e-09
-6.72873005157e-09
-3.03575660865e-09
-6.58415509562e-09
-1.72223009424e-09
-6.44557417945e-09
-4.41252565941e-10
-6.31258994535e-09
8.0440883506e-10
-6.1837470408e-09
2.01233059952e-09
-6.05762294825e-09
3.18102162277e-09