/*--------------------------------*- C++ -*----------------------------------*\
| =========                 |                                                 |
| \\      /  F ield         | OpenFOAM: The Open Source CFD Toolbox           |
|  \\    /   O peration     | Version:  2212                                  |
|   \\  /    A nd           | Website:  www.openfoam.com                      |
|    \\/     M anipulation  |                                                 |
\*---------------------------------------------------------------------------*/
FoamFile
{
    version     2.0;
    format      ascii;
    arch        "LSB;label=64;scalar=64";
    class       surfaceScalarField;
    location    "250";
    object      phi;
}
// * * * * * * * * * * * * * * * * * * * * * * * * * * * * * * * * * * * * * //

dimensions      [0 3 -1 0 0 0 0];

oriented        oriented;

internalField   nonuniform List<scalar> 
1984
(
-9.41745e-09
9.41753e-09
-5.35813e-08
4.41636e-08
-1.22648e-07
6.90673e-08
-1.97498e-07
7.48499e-08
-2.68819e-07
7.13209e-08
-3.34486e-07
6.5667e-08
-3.92503e-07
5.80172e-08
-4.38099e-07
4.55959e-08
-4.64396e-07
2.62978e-08
-4.63915e-07
-4.8124e-10
-4.27152e-07
-3.67636e-08
-3.47388e-07
-7.9764e-08
-2.20003e-07
-1.27384e-07
-5.00222e-08
-1.69981e-07
1.45229e-07
-1.95252e-07
2.83849e-07
-1.3862e-07
3.72062e-07
-8.82126e-08
5.17282e-07
-1.4522e-07
6.92152e-07
-1.74871e-07
7.58796e-07
-6.66442e-08
6.73292e-07
8.55042e-08
4.75689e-07
1.97602e-07
2.20575e-07
2.55114e-07
-1.93584e-08
2.39934e-07
-1.11397e-07
9.20397e-08
-3.82095e-08
-7.31881e-08
9.27681e-08
-1.30978e-07
1.49911e-07
-5.71437e-08
1.31589e-07
1.83206e-08
7.52995e-08
5.62893e-08
2.15047e-08
5.37947e-08
2.15045e-08
-5.72436e-08
6.66607e-08
-2.10036e-07
1.96956e-07
-4.21023e-07
2.80054e-07
-6.47172e-07
3.01e-07
-8.62491e-07
2.8664e-07
-1.05536e-06
2.58537e-07
-1.2168e-06
2.19453e-07
-1.33433e-06
1.63129e-07
-1.39243e-06
8.43996e-08
-1.37367e-06
-1.92443e-08
-1.25782e-06
-1.52615e-07
-1.02835e-06
-3.09231e-07
-6.74762e-07
-4.80971e-07
-2.0004e-07
-6.44703e-07
3.56504e-07
-7.51796e-07
7.87839e-07
-5.69955e-07
1.08149e-06
-3.81859e-07
1.48513e-06
-5.48863e-07
1.92942e-06
-6.19155e-07
2.11372e-06
-2.50944e-07
1.92062e-06
2.78598e-07
1.40963e-06
7.0859e-07
7.06256e-07
9.58491e-07
4.69693e-08
8.9922e-07
-2.18432e-07
3.57441e-07
-6.98592e-08
-2.2176e-07
1.99504e-07
-4.00343e-07
3.29839e-07
-1.87478e-07
2.99338e-07
4.88213e-08
1.80133e-07
1.75494e-07
5.75778e-08
1.7635e-07
7.90824e-08
-1.25618e-07
1.9228e-07
-4.16415e-07
4.87754e-07
-7.89552e-07
6.53191e-07
-1.17829e-06
6.89734e-07
-1.54234e-06
6.50695e-07
-1.85875e-06
5.74945e-07
-2.10983e-06
4.70535e-07
-2.27694e-06
3.30234e-07
-2.33982e-06
1.47289e-07
-2.27446e-06
-8.46092e-08
-2.0591e-06
-3.67971e-07
-1.67678e-06
-6.91554e-07
-1.11483e-06
-1.04293e-06
-3.72428e-07
-1.3871e-06
5.0931e-07
-1.63353e-06
1.23989e-06
-1.30053e-06
1.75183e-06
-8.93798e-07
2.36961e-06
-1.16665e-06
3.02712e-06
-1.27666e-06
3.34054e-06
-5.64371e-07
3.10562e-06
5.13519e-07
2.37258e-06
1.44163e-06
1.32376e-06
2.00731e-06
3.15069e-07
1.90791e-06
-1.65779e-07
8.38287e-07
-5.60289e-08
-3.31511e-07
2.33786e-07
-6.90159e-07
3.96039e-07
-3.49731e-07
3.67725e-07
7.71339e-08
2.2454e-07
3.18679e-07
7.29487e-08
3.2794e-07
1.52031e-07
-1.98453e-07
3.90733e-07
-6.3424e-07
9.23541e-07
-1.17343e-06
1.19238e-06
-1.72153e-06
1.23784e-06
-2.2231e-06
1.15226e-06
-2.64401e-06
9.95854e-07
-2.95852e-06
7.85053e-07
-3.14377e-06
5.1548e-07
-3.17818e-06
1.81701e-07
-3.03911e-06
-2.23685e-07
-2.71334e-06
-6.93741e-07
-2.18891e-06
-1.21598e-06
-1.45271e-06
-1.77913e-06
-5.05348e-07
-2.33446e-06
6.13455e-07
-2.75234e-06
1.59201e-06
-2.27908e-06
2.29405e-06
-1.59584e-06
3.05522e-06
-1.92781e-06
3.86302e-06
-2.08447e-06
4.31287e-06
-1.01422e-06
4.10226e-06
7.24129e-07
3.25887e-06
2.28502e-06
2.01841e-06
3.24777e-06
8.07762e-07
3.11856e-06
1.01094e-07
1.54496e-06
2.79678e-08
-2.58385e-07
2.14819e-07
-8.7701e-07
3.59135e-07
-4.94048e-07
3.36459e-07
9.98098e-08
2.02087e-07
4.53051e-07
6.29501e-08
4.67077e-07
2.14981e-07
-2.54451e-07
6.45184e-07
-8.09225e-07
1.47831e-06
-1.49133e-06
1.87449e-06
-2.17671e-06
1.92322e-06
-2.79071e-06
1.76626e-06
-3.28724e-06
1.49238e-06
-3.63412e-06
1.13193e-06
-3.80722e-06
6.88585e-07
-3.78861e-06
1.63093e-07
-3.56826e-06
-4.44036e-07
-3.14518e-06
-1.11682e-06
-2.50766e-06
-1.8535e-06
-1.64096e-06
-2.64583e-06
-5.54334e-07
-3.42109e-06
6.91272e-07
-3.99794e-06
1.82421e-06
-3.41202e-06
2.66326e-06
-2.43489e-06
3.49073e-06
-2.75528e-06
4.37669e-06
-2.97043e-06
4.94914e-06
-1.58668e-06
4.80925e-06
8.64019e-07
3.95663e-06
3.13764e-06
2.67598e-06
4.52842e-06
1.42656e-06
4.36799e-06
5.6106e-07
2.41045e-06
2.02526e-07
1.00149e-07
1.96392e-07
-8.70875e-07
2.65995e-07
-5.63652e-07
2.40973e-07
1.24833e-07
1.36533e-07
5.5749e-07
3.80435e-08
5.65566e-07
2.53025e-07
-2.74248e-07
9.19433e-07
-8.93688e-07
2.09775e-06
-1.67177e-06
2.65258e-06
-2.45648e-06
2.70792e-06
-3.14955e-06
2.45933e-06
-3.69144e-06
2.03428e-06
-4.04566e-06
1.48615e-06
-4.19143e-06
8.34348e-07
-4.12101e-06
9.2678e-08
-3.84227e-06
-7.22781e-07
-3.35811e-06
-1.60098e-06
-2.64746e-06
-2.56415e-06
-1.69379e-06
-3.5995e-06
-5.25058e-07
-4.58982e-06
7.51606e-07
-5.27461e-06
1.94273e-06
-4.60315e-06
2.8559e-06
-3.34806e-06
3.6765e-06
-3.57587e-06
4.56089e-06
-3.85482e-06
5.21451e-06
-2.2403e-06
5.15497e-06
9.23565e-07
4.35949e-06
3.93312e-06
3.15735e-06
5.73056e-06
2.01026e-06
5.51508e-06
1.13511e-06
3.2856e-06
5.35705e-07
6.99548e-07
2.73752e-07
-6.08921e-07
2.04422e-07
-4.94323e-07
1.49668e-07
1.79588e-07
7.21496e-08
6.35008e-07
1.50189e-08
6.22697e-07
2.68043e-07
-2.51801e-07
1.17123e-06
-8.68675e-07
2.71463e-06
-1.68294e-06
3.46684e-06
-2.5216e-06
3.54658e-06
-3.26033e-06
3.19806e-06
-3.82489e-06
2.59884e-06
-4.17693e-06
1.83819e-06
-4.30377e-06
9.61184e-07
-4.21168e-06
5.89416e-10
-3.91879e-06
-1.01568e-06
-3.4164e-06
-2.10336e-06
-2.6696e-06
-3.31095e-06
-1.66603e-06
-4.60308e-06
-4.67318e-07
-5.78853e-06
7.71086e-07
-6.51301e-06
1.95058e-06
-5.78264e-06
2.87827e-06
-4.27575e-06
3.62506e-06
-4.32267e-06
4.41729e-06
-4.64705e-06
5.08307e-06
-2.90609e-06
5.073e-06
9.33635e-07
4.35977e-06
4.64636e-06
3.32447e-06
6.76586e-06
2.40436e-06
6.4352e-06
1.67012e-06
4.01984e-06
9.99728e-07
1.36994e-06
5.1979e-07
-1.28983e-07
2.72431e-07
-2.46964e-07
1.4186e-07
3.10159e-07
5.47368e-08
7.22131e-07
8.24157e-09
6.69192e-07
2.76285e-07
-1.96985e-07
1.36822e-06
-7.49135e-07
3.26678e-06
-1.53966e-06
4.25737e-06
-2.38874e-06
4.39566e-06
-3.14687e-06
3.95619e-06
-3.72418e-06
3.17615e-06
-4.08185e-06
2.19585e-06
-4.21696e-06
1.0963e-06
-4.14675e-06
-6.96195e-08
-3.88284e-06
-1.27959e-06
-3.39455e-06
-2.59165e-06
-2.63801e-06
-4.0675e-06
-1.61914e-06
-5.62194e-06
-4.48102e-07
-6.95957e-06
6.94766e-07
-7.65588e-06
1.81673e-06
-6.9046e-06
2.71313e-06
-5.17216e-06
3.32819e-06
-4.93773e-06
3.91993e-06
-5.23878e-06
4.49327e-06
-3.47943e-06
4.47403e-06
9.52881e-07
3.85175e-06
5.26864e-06
3.08131e-06
7.5363e-06
2.52868e-06
6.98783e-06
2.08102e-06
4.46749e-06
1.53239e-06
1.91857e-06
9.59112e-07
4.44297e-07
5.35918e-07
1.76229e-07
2.75637e-07
5.70439e-07
1.13744e-07
8.84024e-07
2.45706e-08
7.58365e-07
3.00855e-07
-1.28797e-07
1.49702e-06
-5.73262e-07
3.71124e-06
-1.29035e-06
4.97445e-06
-2.11419e-06
5.2195e-06
-2.87543e-06
4.71743e-06
-3.46743e-06
3.76815e-06
-3.84948e-06
2.5779e-06
-4.02533e-06
1.27215e-06
-4.0118e-06
-8.31438e-08
-3.80127e-06
-1.49012e-06
-3.34372e-06
-3.0492e-06
-2.59901e-06
-4.81221e-06
-1.61044e-06
-6.61051e-06
-5.39905e-07
-8.0301e-06
4.42419e-07
-8.6382e-06
1.464e-06
-7.92618e-06
2.30478e-06
-6.01294e-06
2.75161e-06
-5.38456e-06
3.02396e-06
-5.51113e-06
3.33836e-06
-3.79383e-06
3.26184e-06
1.0294e-06
2.79723e-06
5.73325e-06
2.46269e-06
7.87084e-06
2.44555e-06
7.00497e-06
2.40286e-06
4.51018e-06
2.08765e-06
2.23378e-06
1.55349e-06
9.78456e-07
1.00274e-06
7.26984e-07
5.65983e-07
1.00719e-06
2.55263e-07
1.19474e-06
6.48501e-08
9.48779e-07
3.65705e-07
-6.55292e-08
1.56254e-06
-3.85113e-07
4.03082e-06
-9.95373e-07
5.58471e-06
-1.76775e-06
5.99189e-06
-2.52356e-06
5.47324e-06
-3.13827e-06
4.38285e-06
-3.56418e-06
3.00382e-06
-3.80387e-06
1.51183e-06
-3.86332e-06
-2.36908e-08
-3.71275e-06
-1.64069e-06
-3.29605e-06
-3.4659e-06
-2.59629e-06
-5.51196e-06
-1.71066e-06
-7.49615e-06
-8.33083e-07
-8.90768e-06
-8.96389e-08
-9.38165e-06
7.68336e-07
-8.78416e-06
1.55424e-06
-6.79885e-06
1.84581e-06
-5.67613e-06
1.72359e-06
-5.38891e-06
1.55345e-06
-3.62369e-06
1.47481e-06
1.10804e-06
1.40211e-06
5.80595e-06
1.74463e-06
7.52832e-06
2.37526e-06
6.37434e-06
2.74179e-06
4.14366e-06
2.62959e-06
2.34598e-06
2.145e-06
1.46305e-06
1.50555e-06
1.36643e-06
8.98193e-07
1.61455e-06
4.18633e-07
1.67431e-06
1.10615e-07
1.2568e-06
4.7632e-07
-1.83763e-08
1.58092e-06
-2.19504e-07
4.23195e-06
-7.08009e-07
6.07322e-06
-1.41124e-06
6.69511e-06
-2.15636e-06
6.21836e-06
-2.80165e-06
5.02814e-06
-3.28528e-06
3.48745e-06
-3.59952e-06
1.82608e-06
-3.73499e-06
1.11779e-07
-3.64761e-06
-1.72808e-06
-3.29386e-06
-3.81965e-06
-2.70431e-06
-6.10151e-06
-2.03387e-06
-8.1666e-06
-1.4636e-06
-9.47794e-06
-1.02588e-06
-9.81937e-06
-4.344e-07
-9.37564e-06
2.86376e-07
-7.51962e-06
5.27287e-07
-5.91704e-06
3.74428e-08
-4.89906e-06
-5.2474e-07
-3.06151e-06
-4.35219e-07
1.01852e-06
2.29208e-07
5.14152e-06
1.37763e-06
6.3799e-06
2.55964e-06
5.19232e-06
3.17947e-06
3.52383e-06
3.1425e-06
2.38294e-06
2.62539e-06
1.98016e-06
1.87661e-06
2.11521e-06
1.12288e-06
2.36828e-06
5.17705e-07
2.27948e-06
1.35742e-07
1.63876e-06
6.12062e-07
1.04739e-08
1.57045e-06
-9.63011e-08
4.33873e-06
-4.66507e-07
6.44342e-06
-1.09097e-06
7.31958e-06
-1.82056e-06
6.94796e-06
-2.50139e-06
5.70897e-06
-3.05227e-06
4.03832e-06
-3.44865e-06
2.22245e-06
-3.66673e-06
3.29856e-07
-3.66111e-06
-1.7337e-06
-3.42673e-06
-4.05403e-06
-3.06395e-06
-6.46429e-06
-2.76581e-06
-8.46474e-06
-2.64462e-06
-9.59913e-06
-2.60135e-06
-9.86263e-06
-2.3512e-06
-9.62579e-06
-1.75914e-06
-8.11168e-06
-1.40598e-06
-6.2702e-06
-1.59754e-06
-4.70751e-06
-2.08124e-06
-2.57781e-06
-1.68529e-06
6.22568e-07
-2.69894e-07
3.72613e-06
1.51649e-06
4.59351e-06
2.91273e-06
3.79609e-06
3.519e-06
2.91756e-06
3.38909e-06
2.51286e-06
2.75623e-06
2.61303e-06
1.89826e-06
2.97317e-06
1.07566e-06
3.19088e-06
4.63428e-07
2.89172e-06
1.13806e-07
1.98838e-06
7.25868e-07
2.30508e-08
1.5474e-06
-2.51131e-08
4.38689e-06
-2.98517e-07
6.71683e-06
-8.45383e-07
7.86644e-06
-1.55644e-06
7.65901e-06
-2.27694e-06
6.42947e-06
-2.90705e-06
4.66843e-06
-3.40399e-06
2.71939e-06
-3.73489e-06
6.60761e-07
-3.87e-06
-1.59859e-06
-3.87035e-06
-4.05368e-06
-3.91417e-06
-6.42046e-06
-4.18497e-06
-8.19394e-06
-4.67747e-06
-9.10663e-06
-5.17585e-06
-9.36425e-06
-5.36758e-06
-9.43406e-06
-5.00956e-06
-8.4697e-06
-4.44341e-06
-6.83634e-06
-3.94137e-06
-5.20955e-06
-3.40556e-06
-3.11361e-06
-2.18859e-06
-5.94404e-07
-2.79134e-07
1.81667e-06
1.61367e-06
2.7007e-06
2.81827e-06
2.5915e-06
3.19511e-06
2.54072e-06
2.8726e-06
2.83536e-06
2.11052e-06
3.37511e-06
1.24238e-06
3.84131e-06
5.63955e-07
3.8693e-06
1.78327e-07
3.27735e-06
2.71844e-08
2.13952e-06
7.53053e-07
2.06956e-08
1.5267e-06
-1.09747e-08
4.41856e-06
-2.28327e-07
6.93418e-06
-7.17326e-07
8.35544e-06
-1.41733e-06
8.35901e-06
-2.18912e-06
7.20127e-06
-2.92379e-06
5.4031e-06
-3.56649e-06
3.36208e-06
-4.08752e-06
1.18179e-06
-4.49396e-06
-1.19214e-06
-4.92501e-06
-3.62263e-06
-5.61987e-06
-5.72561e-06
-6.69022e-06
-7.12359e-06
-8.00223e-06
-7.79462e-06
-9.26792e-06
-8.09855e-06
-1.01538e-05
-8.5482e-06
-1.02791e-05
-8.34443e-06
-9.71768e-06
-7.39773e-06
-8.64255e-06
-6.28469e-06
-7.0322e-06
-4.72396e-06
-4.79807e-06
-2.82853e-06
-2.14381e-06
-8.37582e-07
-1.19102e-07
6.7599e-07
7.85036e-07
1.68736e-06
8.72137e-07
2.45362e-06
4.68547e-07
3.23895e-06
-6.9364e-08
3.91302e-06
-4.45277e-07
4.21723e-06
-5.16929e-07
3.94096e-06
-3.48643e-07
3.10906e-06
-1.19217e-07
1.9101e-06
6.33836e-07
2.1162e-09
1.52458e-06
-5.43087e-08
4.47499e-06
-2.72568e-07
7.15244e-06
-7.51248e-07
8.83412e-06
-1.47539e-06
9.08315e-06
-2.33675e-06
8.06263e-06
-3.23356e-06
6.29991e-06
-4.11223e-06
4.24075e-06
-4.96658e-06
2.03614e-06
-5.88631e-06
-2.72412e-07
-7.03283e-06
-2.47611e-06
-8.682e-06
-4.07644e-06
-1.0822e-05
-4.98358e-06
-1.32284e-05
-5.38828e-06
-1.55981e-05
-5.72883e-06
-1.7608e-05
-6.53824e-06
-1.86878e-05
-7.26461e-06
-1.86587e-05
-7.42692e-06
-1.76786e-05
-7.26476e-06
-1.58609e-05
-6.54165e-06
-1.33801e-05
-5.30933e-06
-1.04985e-05
-3.71916e-06
-7.92098e-06
-1.90155e-06
-6.2761e-06
4.2483e-08
-5.22471e-06
1.40222e-06
-4.50929e-06
2.52353e-06
-3.78625e-06
3.18998e-06
-2.89469e-06
3.32568e-06
-1.90504e-06
2.9513e-06
-9.68483e-07
2.1725e-06
-2.784e-07
1.22002e-06
3.55436e-07
-2.53573e-08
1.54994e-06
-1.32182e-07
4.58181e-06
-4.02637e-07
7.42289e-06
-9.37614e-07
9.3691e-06
-1.75788e-06
9.90342e-06
-2.7911e-06
9.09585e-06
-3.95747e-06
7.46629e-06
-5.22708e-06
5.51036e-06
-6.65036e-06
3.45942e-06
-8.39669e-06
1.47392e-06
-1.07429e-05
-1.29858e-07
-1.36953e-05
-1.12406e-06
-1.71927e-05
-1.48618e-06
-2.09712e-05
-1.60982e-06
-2.47309e-05
-1.96915e-06
-2.81413e-05
-3.12777e-06
-3.04532e-05
-4.95274e-06
-3.12884e-05
-6.59168e-06
-3.08927e-05
-7.66048e-06
-2.94709e-05
-7.96346e-06
-2.72045e-05
-7.57573e-06
-2.42681e-05
-6.65556e-06
-2.08036e-05
-5.36608e-06
-1.68916e-05
-3.8695e-06
-1.31747e-05
-2.31472e-06
-9.74948e-06
-9.01653e-07
-6.74666e-06
1.87151e-07
-4.22292e-06
8.01941e-07
-2.28061e-06
1.009e-06
-9.52537e-07
8.44424e-07
-2.18578e-07
4.86059e-07
1.36857e-07
-2.43985e-08
1.57434e-06
-1.16447e-07
4.67386e-06
-3.59375e-07
7.66582e-06
-8.86669e-07
9.89639e-06
-1.76928e-06
1.0786e-05
-2.97049e-06
1.02971e-05
-4.44725e-06
8.94305e-06
-6.22681e-06
7.28991e-06
-8.42139e-06
5.654e-06
-1.1183e-05
4.23551e-06
-1.455e-05
3.23714e-06
-1.83944e-05
2.72038e-06
-2.24639e-05
2.58335e-06
-2.65055e-05
2.43177e-06
-3.02785e-05
1.80382e-06
-3.3411e-05
4.68705e-09
-3.54442e-05
-2.91951e-06
-3.61432e-05
-5.8927e-06
-3.58121e-05
-7.99153e-06
-3.46168e-05
-9.15883e-06
-3.26219e-05
-9.5706e-06
-2.9858e-05
-9.41941e-06
-2.63674e-05
-8.8567e-06
-2.22469e-05
-7.99003e-06
-1.76696e-05
-6.89201e-06
-1.29507e-05
-5.62052e-06
-8.53527e-06
-4.2283e-06
-4.90227e-06
-2.83107e-06
-2.28943e-06
-1.60384e-06
-7.60205e-07
-6.84799e-07
-1.15655e-07
-1.58491e-07
2.12027e-08
5.00858e-08
1.52425e-06
1.31227e-07
4.59272e-06
1.3084e-07
7.66621e-06
-1.25206e-07
1.01524e-05
-7.98444e-07
1.14593e-05
-1.93192e-06
1.14305e-05
-3.40013e-06
1.04113e-05
-5.18339e-06
9.07317e-06
-7.35006e-06
7.82068e-06
-9.92093e-06
6.80638e-06
-1.28046e-05
6.12086e-06
-1.58228e-05
5.73849e-06
-1.8747e-05
5.50763e-06
-2.14507e-05
5.13538e-06
-2.38156e-05
4.16873e-06
-2.57386e-05
1.9277e-06
-2.66913e-05
-1.96679e-06
-2.69392e-05
-5.6448e-06
-2.67167e-05
-8.21401e-06
-2.60799e-05
-9.79567e-06
-2.50042e-05
-1.06463e-05
-2.34485e-05
-1.09751e-05
-2.13877e-05
-1.09174e-05
-1.88297e-05
-1.0548e-05
-1.58347e-05
-9.88705e-06
-1.253e-05
-8.92522e-06
-9.10681e-06
-7.65147e-06
-5.84853e-06
-6.08936e-06
-3.12548e-06
-4.32689e-06
-1.23758e-06
-2.57269e-06
-2.59318e-07
-1.13675e-06
-2.38115e-07
1.59432e-07
1.36482e-06
4.94699e-07
4.25745e-06
8.51451e-07
7.30946e-06
1.03056e-06
9.97333e-06
8.08715e-07
1.16811e-05
6.25981e-08
1.21766e-05
-1.12886e-06
1.16027e-05
-2.61101e-06
1.05553e-05
-4.27422e-06
9.48389e-06
-6.03542e-06
8.56759e-06
-7.8612e-06
7.94664e-06
-9.64352e-06
7.52081e-06
-1.12804e-05
7.14448e-06
-1.27078e-05
6.56279e-06
-1.38907e-05
5.35166e-06
-1.47768e-05
2.81381e-06
-1.51986e-05
-1.54502e-06
-1.53725e-05
-5.47085e-06
-1.5454e-05
-8.13254e-06
-1.54278e-05
-9.82181e-06
-1.52318e-05
-1.08424e-05
-1.48026e-05
-1.14043e-05
-1.40949e-05
-1.16252e-05
-1.30557e-05
-1.15872e-05
-1.16446e-05
-1.12981e-05
-9.8564e-06
-1.07135e-05
-7.75488e-06
-9.75298e-06
-5.48389e-06
-8.36035e-06
-3.28965e-06
-6.52113e-06
-1.48878e-06
-4.37357e-06
-3.63906e-07
-2.26163e-06
-6.02021e-07
2.43051e-07
1.12177e-06
8.00901e-07
3.6996e-06
1.49235e-06
6.61801e-06
2.10058e-06
9.3651e-06
2.39658e-06
1.13851e-05
2.22482e-06
1.23484e-05
1.5511e-06
1.22764e-05
5.55833e-07
1.15506e-05
-5.49879e-07
1.05896e-05
-1.62607e-06
9.64378e-06
-2.59216e-06
8.91272e-06
-3.40909e-06
8.33774e-06
-4.0541e-06
7.78949e-06
-4.52571e-06
7.0344e-06
-4.8442e-06
5.67015e-06
-4.92318e-06
2.8928e-06
-4.93122e-06
-1.53699e-06
-5.15958e-06
-5.24249e-06
-5.56745e-06
-7.72467e-06
-6.04708e-06
-9.34219e-06
-6.51043e-06
-1.0379e-05
-6.87815e-06
-1.10365e-05
-7.1306e-06
-1.13727e-05
-7.20751e-06
-1.15103e-05
-7.02928e-06
-1.14763e-05
-6.50116e-06
-1.12416e-05
-5.58467e-06
-1.06695e-05
-4.29866e-06
-9.64635e-06
-2.7976e-06
-8.02219e-06
-1.3695e-06
-5.80167e-06
-3.61743e-07
-3.26938e-06
-9.63764e-07
2.74033e-07
8.47738e-07
9.58864e-07
3.01477e-06
1.88178e-06
5.69509e-06
2.82301e-06
8.42387e-06
3.55403e-06
1.06541e-05
3.90174e-06
1.20007e-05
3.80607e-06
1.23721e-05
3.38057e-06
1.19761e-05
2.81992e-06
1.11503e-05
2.29386e-06
1.01698e-05
1.94749e-06
9.25909e-06
1.82557e-06
8.45966e-06
1.9284e-06
7.68666e-06
2.22208e-06
6.74072e-06
2.63553e-06
5.2567e-06
3.03401e-06
2.49432e-06
3.0849e-06
-1.58788e-06
2.67789e-06
-4.83548e-06
1.9647e-06
-7.01148e-06
1.09199e-06
-8.46948e-06
1.64337e-07
-9.45139e-06
-7.54938e-07
-1.01173e-05
-1.60315e-06
-1.05245e-05
-2.35794e-06
-1.07556e-05
-2.97343e-06
-1.08608e-05
-3.33218e-06
-1.08828e-05
-3.3462e-06
-1.06555e-05
-2.92235e-06
-1.00702e-05
-2.11153e-06
-8.83302e-06
-1.13067e-06
-6.78252e-06
-3.24655e-07
-4.0754e-06
-1.28842e-06
2.57667e-07
5.90072e-07
9.63547e-07
2.30889e-06
1.98803e-06
4.67061e-06
3.12691e-06
7.28499e-06
4.16251e-06
9.61849e-06
4.92135e-06
1.12419e-05
5.32565e-06
1.19678e-05
5.43043e-06
1.18713e-05
5.38401e-06
1.11967e-05
5.34256e-06
1.02113e-05
5.44864e-06
9.15301e-06
5.76922e-06
8.13908e-06
6.30643e-06
7.14945e-06
7.01789e-06
6.02925e-06
7.8245e-06
4.4501e-06
8.47018e-06
1.84863e-06
8.50683e-06
-1.62453e-06
7.94828e-06
-4.27693e-06
7.03387e-06
-6.09708e-06
5.92237e-06
-7.35798e-06
4.71715e-06
-8.24617e-06
3.48067e-06
-8.88077e-06
2.28046e-06
-9.32427e-06
1.15073e-06
-9.62583e-06
1.14079e-07
-9.82417e-06
-7.89863e-07
-9.97889e-06
-1.43883e-06
-1.00065e-05
-1.67174e-06
-9.83729e-06
-1.43952e-06
-9.06524e-06
-8.69511e-07
-7.35253e-06
-2.73098e-07
-4.67181e-06
-1.56152e-06
2.12985e-07
3.77087e-07
8.54928e-07
1.66694e-06
1.86014e-06
3.6654e-06
3.05889e-06
6.08624e-06
4.25588e-06
8.4215e-06
5.2907e-06
1.0207e-05
6.07874e-06
1.11798e-05
6.63282e-06
1.13172e-05
7.0437e-06
1.07858e-05
7.42521e-06
9.82978e-06
7.88497e-06
8.69324e-06
8.48597e-06
7.53809e-06
9.23494e-06
6.40048e-06
1.00872e-05
5.177e-06
1.09351e-05
3.60221e-06
1.1523e-05
1.26073e-06
1.15062e-05
-1.60778e-06
1.09254e-05
-3.69607e-06
9.97218e-06
-5.14388e-06
8.7863e-06
-6.1721e-06
7.46767e-06
-6.92755e-06
6.09035e-06
-7.50345e-06
4.71882e-06
-7.95275e-06
3.40127e-06
-8.30827e-06
2.1696e-06
-8.5925e-06
1.01792e-06
-8.82721e-06
2.98626e-08
-9.01844e-06
-6.69132e-07
-9.13829e-06
-8.85178e-07
-8.84919e-06
-6.51471e-07
-7.58624e-06
-2.30166e-07
-5.09312e-06
-1.79168e-06
1.58211e-07
2.18876e-07
6.82451e-07
1.14271e-06
1.57297e-06
2.77488e-06
2.71191e-06
4.9473e-06
3.94047e-06
7.19294e-06
5.12395e-06
9.02356e-06
6.18055e-06
1.01232e-05
7.09023e-06
1.04076e-05
7.88512e-06
9.9909e-06
8.62231e-06
9.09259e-06
9.36369e-06
7.95185e-06
1.01514e-05
6.75036e-06
1.09905e-05
5.56138e-06
1.18402e-05
4.32732e-06
1.25931e-05
2.84929e-06
1.30257e-05
8.28134e-07
1.29044e-05
-1.48645e-06
1.23114e-05
-3.10313e-06
1.1389e-05
-4.2214e-06
1.02424e-05
-5.02551e-06
8.94939e-06
-5.63457e-06
7.57106e-06
-6.12512e-06
6.16077e-06
-6.54245e-06
4.76495e-06
-6.91246e-06
3.42245e-06
-7.24999e-06
2.16332e-06
-7.56809e-06
1.02816e-06
-7.88328e-06
7.89749e-08
-8.18911e-06
-4.74092e-07
-8.29612e-06
-5.05278e-07
-7.55505e-06
-2.1296e-07
-5.38543e-06
-2.00464e-06
1.02536e-07
1.1634e-07
4.79592e-07
7.6565e-07
1.18782e-06
2.06666e-06
2.17665e-06
3.95847e-06
3.33944e-06
6.03015e-06
4.57532e-06
7.78768e-06
5.80695e-06
8.89154e-06
6.98241e-06
9.2321e-06
8.07765e-06
8.89565e-06
9.09354e-06
8.0767e-06
1.00481e-05
6.99733e-06
1.09596e-05
5.83879e-06
1.18291e-05
4.69195e-06
1.26235e-05
3.53285e-06
1.32533e-05
2.21956e-06
1.35407e-05
5.40689e-07
1.33371e-05
-1.28284e-06
1.2748e-05
-2.51397e-06
1.18849e-05
-3.35831e-06
1.08264e-05
-3.96701e-06
9.62802e-06
-4.43623e-06
8.33218e-06
-4.82928e-06
6.97601e-06
-5.18628e-06
5.59578e-06
-5.53224e-06
4.22871e-06
-5.88292e-06
2.91249e-06
-6.25186e-06
1.68732e-06
-6.65811e-06
6.1246e-07
-7.11425e-06
-1.71362e-07
-7.5123e-06
-4.24604e-07
-7.30181e-06
-2.29111e-07
-5.58093e-06
-2.23376e-06
3.95379e-08
7.6803e-08
2.41234e-07
5.63955e-07
7.23594e-07
1.5843e-06
1.51528e-06
3.16679e-06
2.56431e-06
4.98112e-06
3.80014e-06
6.55185e-06
5.14285e-06
7.54883e-06
6.50515e-06
7.86979e-06
7.81348e-06
7.58732e-06
9.02368e-06
6.86651e-06
1.01202e-05
5.90078e-06
1.11033e-05
4.85571e-06
1.19712e-05
3.82404e-06
1.27011e-05
2.803e-06
1.32257e-05
1.69487e-06
1.34142e-05
3.52266e-07
1.31765e-05
-1.0452e-06
1.26236e-05
-1.96101e-06
1.18456e-05
-2.58036e-06
1.09022e-05
-3.02362e-06
9.83253e-06
-3.36652e-06
8.66353e-06
-3.66028e-06
7.41741e-06
-3.94016e-06
6.11709e-06
-4.23192e-06
4.7906e-06
-4.55643e-06
3.47265e-06
-4.93392e-06
2.20424e-06
-5.38969e-06
1.04036e-06
-5.95037e-06
9.48539e-08
-6.56679e-06
-3.73981e-07
-6.83298e-06
-2.73065e-07
-5.68184e-06
-2.50682e-06
-5.28231e-08
1.29626e-07
-7.01597e-08
5.81291e-07
1.56817e-07
1.35732e-06
7.66924e-07
2.55668e-06
1.71575e-06
4.03229e-06
2.94043e-06
5.32717e-06
4.35458e-06
6.13468e-06
5.8346e-06
6.38978e-06
7.27133e-06
6.15059e-06
8.59296e-06
5.54487e-06
9.76425e-06
4.7295e-06
1.07755e-05
3.84449e-06
1.16255e-05
2.97401e-06
1.23016e-05
2.12691e-06
1.27576e-05
1.23884e-06
1.29006e-05
2.09313e-07
1.26759e-05
-8.20521e-07
1.21872e-05
-1.4723e-06
1.15102e-05
-1.90336e-06
1.06925e-05
-2.2059e-06
9.76337e-06
-2.43744e-06
8.74067e-06
-2.63758e-06
7.63603e-06
-2.83552e-06
6.46023e-06
-3.05611e-06
5.22818e-06
-3.32438e-06
3.96315e-06
-3.66889e-06
2.69857e-06
-4.12511e-06
1.48202e-06
-4.73382e-06
4.08538e-07
-5.49332e-06
-2.85102e-07
-6.13934e-06
-3.1896e-07
-5.64798e-06
-2.82578e-06
-1.99092e-07
3.28718e-07
-4.53281e-07
8.3548e-07
-4.5771e-07
1.36175e-06
7.12555e-09
2.09184e-06
9.03189e-07
3.13623e-06
2.12895e-06
4.10141e-06
3.58633e-06
4.6773e-06
5.12188e-06
4.85423e-06
6.61246e-06
4.66001e-06
7.97637e-06
4.18096e-06
9.17085e-06
3.53502e-06
1.01828e-05
2.83256e-06
1.10126e-05
2.1442e-06
1.16545e-05
1.48501e-06
1.20767e-05
8.1664e-07
1.2211e-05
7.49802e-08
1.20211e-05
-6.30596e-07
1.16024e-05
-1.05363e-06
1.10235e-05
-1.32448e-06
1.03261e-05
-1.5085e-06
9.53503e-06
-1.64632e-06
8.66346e-06
-1.76601e-06
7.71721e-06
-1.88927e-06
6.69805e-06
-2.03695e-06
5.60753e-06
-2.23387e-06
4.45168e-06
-2.51304e-06
3.24608e-06
-2.9195e-06
2.02256e-06
-3.5103e-06
8.53372e-07
-4.32413e-06
-6.47541e-08
-5.22121e-06
-3.23378e-07
-5.38936e-06
-3.14916e-06
-3.89867e-07
7.18585e-07
-8.25627e-07
1.27124e-06
-9.39227e-07
1.47535e-06
-5.88057e-07
1.74067e-06
2.87001e-07
2.26117e-06
1.53925e-06
2.84916e-06
3.00575e-06
3.21079e-06
4.54047e-06
3.31951e-06
6.02712e-06
3.17337e-06
7.38502e-06
2.82305e-06
8.56959e-06
2.35045e-06
9.56476e-06
1.83739e-06
1.03688e-05
1.34018e-06
1.0977e-05
8.76793e-07
1.13661e-05
4.27507e-07
1.14846e-05
-4.34827e-08
1.13137e-05
-4.59654e-07
1.09492e-05
-6.89219e-07
1.04552e-05
-8.30442e-07
9.86898e-06
-9.22283e-07
9.21206e-06
-9.89399e-07
8.49481e-06
-1.04876e-06
7.71953e-06
-1.11399e-06
6.88222e-06
-1.19964e-06
5.97394e-06
-1.32559e-06
4.98295e-06
-1.52205e-06
3.89909e-06
-1.83565e-06
2.72324e-06
-2.33445e-06
1.49366e-06
-3.09455e-06
3.64487e-07
-4.09204e-06
-2.28171e-07
-4.7967e-06
-3.37733e-06
-5.42823e-07
1.26141e-06
-9.37381e-07
1.6658e-06
-9.17641e-07
1.45561e-06
-5.16527e-07
1.33956e-06
3.21937e-07
1.42271e-06
1.53525e-06
1.63585e-06
2.93814e-06
1.8079e-06
4.40337e-06
1.85429e-06
5.82318e-06
1.75355e-06
7.11725e-06
1.52898e-06
8.2363e-06
1.2314e-06
9.15788e-06
9.15811e-07
9.87633e-06
6.21727e-07
1.03898e-05
3.63284e-07
1.06879e-05
1.29477e-07
1.07424e-05
-9.79628e-08
1.05622e-05
-2.79515e-07
1.02414e-05
-3.68455e-07
9.83177e-06
-4.20758e-07
9.36247e-06
-4.5299e-07
8.84935e-06
-4.7628e-07
8.29895e-06
-4.98355e-07
7.71073e-06
-5.25775e-07
7.07752e-06
-5.66425e-07
6.38448e-06
-6.32546e-07
5.60752e-06
-7.45096e-07
4.71254e-06
-9.40661e-07
3.65914e-06
-1.28105e-06
2.42352e-06
-1.85893e-06
1.09209e-06
-2.76061e-06
7.76899e-08
-3.7823e-06
-3.29964e-06
-4.41641e-07
1.70305e-06
-1.83021e-07
1.40718e-06
3.59697e-07
9.12891e-07
9.87947e-07
7.11311e-07
1.7835e-06
6.27155e-07
2.8047e-06
6.14655e-07
3.98247e-06
6.30128e-07
5.21438e-06
6.22367e-07
6.40037e-06
5.67564e-07
7.45973e-06
4.69619e-07
8.34128e-06
3.49859e-07
9.02444e-06
2.32648e-07
9.51221e-06
1.33952e-07
9.81848e-06
5.70191e-08
9.95327e-06
-5.31533e-09
9.91713e-06
-6.18206e-08
9.73929e-06
-1.01681e-07
9.48806e-06
-1.17216e-07
9.19307e-06
-1.25772e-07
8.87075e-06
-1.30667e-07
8.52893e-06
-1.34461e-07
8.16963e-06
-1.39058e-07
7.79014e-06
-1.46287e-07
7.38248e-06
-1.58759e-07
6.93107e-06
-1.81133e-07
6.4084e-06
-2.22427e-07
5.76843e-06
-3.00694e-07
4.93911e-06
-4.51725e-07
3.82168e-06
-7.415e-07
2.3376e-06
-1.27653e-06
7.14002e-07
-2.1587e-06
-2.58564e-06
1.70305e-06
3.11023e-06
4.02312e-06
4.73443e-06
5.36158e-06
5.97624e-06
6.60636e-06
7.22873e-06
7.7963e-06
8.26591e-06
8.61577e-06
8.84842e-06
8.98237e-06
9.03939e-06
9.03408e-06
8.97226e-06
8.87058e-06
8.75336e-06
8.62759e-06
8.49692e-06
8.36246e-06
8.2234e-06
8.07711e-06
7.91836e-06
7.73722e-06
7.5148e-06
7.2141e-06
6.76238e-06
6.02088e-06
4.74434e-06
2.58564e-06
)
;

boundaryField
{
    movingWall
    {
        type            calculated;
        value           uniform 0;
    }
    fixedWalls
    {
        type            calculated;
        value           uniform 0;
    }
    floor
    {
        type            calculated;
        value           uniform 0;
    }
    frontAndBack
    {
        type            empty;
        value           nonuniform List<scalar> 0();
    }
}


// ************************************************************************* //
