/*--------------------------------*- C++ -*----------------------------------*\
| =========                 |                                                 |
| \\      /  F ield         | OpenFOAM: The Open Source CFD Toolbox           |
|  \\    /   O peration     | Version:  2212                                  |
|   \\  /    A nd           | Website:  www.openfoam.com                      |
|    \\/     M anipulation  |                                                 |
\*---------------------------------------------------------------------------*/
FoamFile
{
    version     2.0;
    format      ascii;
    arch        "LSB;label=64;scalar=64";
    class       volScalarField;
    location    "250";
    object      Sch4;
}
// * * * * * * * * * * * * * * * * * * * * * * * * * * * * * * * * * * * * * //

dimensions      [1 -3 0 0 0 0 0];

internalField   nonuniform List<scalar> 
1024
(
0.0397043
0.0397116
0.0397292
0.0397597
0.0398048
0.0398635
0.0399327
0.0400074
0.0400834
0.0401574
0.040227
0.0402889
0.0403365
0.0403581
0.0403361
0.0402473
0.0401034
0.0399616
0.0398354
0.0397131
0.0395775
0.039417
0.0392504
0.0391151
0.0390275
0.0389766
0.0389458
0.0389257
0.0389122
0.0389037
0.0388989
0.0388969
0.0397063
0.0397139
0.0397323
0.0397643
0.0398113
0.0398719
0.0399425
0.0400182
0.0400948
0.0401692
0.0402395
0.0403019
0.0403499
0.0403715
0.0403489
0.0402583
0.0401127
0.0399701
0.0398435
0.0397217
0.0395876
0.0394277
0.0392589
0.0391199
0.0390301
0.0389784
0.0389474
0.0389271
0.0389133
0.0389045
0.0388995
0.0388975
0.0397107
0.0397189
0.0397389
0.0397736
0.039824
0.0398881
0.0399616
0.0400395
0.0401178
0.0401942
0.0402667
0.0403317
0.0403818
0.0404042
0.0403798
0.0402839
0.040133
0.039987
0.0398581
0.0397356
0.0396034
0.039445
0.0392736
0.0391298
0.0390365
0.0389832
0.0389512
0.03893
0.0389155
0.0389062
0.038901
0.0388988
0.0397175
0.0397266
0.0397486
0.0397868
0.0398417
0.0399105
0.0399883
0.0400701
0.0401523
0.0402333
0.0403113
0.0403823
0.0404377
0.0404625
0.0404348
0.040328
0.0401656
0.040012
0.0398766
0.0397505
0.0396193
0.0394634
0.0392913
0.0391439
0.0390472
0.0389916
0.0389577
0.0389349
0.0389192
0.0389092
0.0389036
0.0389014
0.0397265
0.0397364
0.0397606
0.0398025
0.0398623
0.0399367
0.0400202
0.040108
0.0401973
0.040287
0.0403754
0.0404577
0.0405231
0.0405523
0.0405186
0.0403934
0.0402114
0.0400435
0.0398959
0.0397617
0.0396297
0.0394773
0.0393079
0.0391602
0.0390617
0.0390037
0.0389674
0.0389423
0.038925
0.038914
0.038908
0.0389055
0.039737
0.0397475
0.0397735
0.0398187
0.0398833
0.0399637
0.0400544
0.040151
0.0402513
0.0403549
0.0404599
0.0405601
0.0406409
0.0406764
0.0406326
0.0404802
0.0402691
0.0400786
0.0399118
0.0397644
0.0396294
0.0394817
0.039319
0.0391758
0.0390783
0.039019
0.0389802
0.0389526
0.0389334
0.0389211
0.0389145
0.0389119
0.0397481
0.0397589
0.039786
0.0398337
0.0399023
0.0399887
0.0400879
0.040196
0.0403117
0.0404349
0.0405632
0.0406882
0.0407896
0.0408318
0.0407715
0.0405827
0.0403336
0.0401123
0.0399197
0.0397547
0.0396148
0.0394729
0.0393211
0.0391875
0.039095
0.0390362
0.0389958
0.038966
0.0389447
0.038931
0.0389237
0.0389209
0.0397588
0.0397697
0.0397972
0.039846
0.0399176
0.0400096
0.0401179
0.0402399
0.0403749
0.040523
0.040681
0.040837
0.0409627
0.0410093
0.0409232
0.0406887
0.0403951
0.0401375
0.0399154
0.0397306
0.0395849
0.0394498
0.0393125
0.0391936
0.03911
0.0390543
0.0390135
0.038982
0.0389588
0.0389438
0.0389357
0.0389325
0.0397685
0.0397792
0.0398064
0.0398553
0.0399284
0.040025
0.0401425
0.0402797
0.0404368
0.0406141
0.0408071
0.0409991
0.0411505
0.0411951
0.0410707
0.040781
0.0404403
0.0401467
0.039897
0.0396945
0.0395431
0.0394156
0.0392955
0.0391952
0.0391237
0.0390727
0.0390325
0.0389997
0.0389749
0.0389586
0.0389497
0.0389463
0.0397766
0.039787
0.0398134
0.0398614
0.0399349
0.0400348
0.040161
0.0403138
0.0404948
0.0407047
0.0409375
0.0411695
0.0413451
0.0413768
0.0411985
0.0408437
0.0404572
0.0401355
0.0398681
0.0396544
0.0394992
0.0393797
0.039278
0.0391974
0.0391381
0.0390914
0.0390514
0.0390175
0.0389913
0.0389739
0.0389644
0.0389607
0.0397826
0.0397927
0.0398182
0.0398648
0.0399377
0.0400401
0.0401741
0.0403426
0.0405493
0.0407959
0.0410741
0.0413505
0.0415465
0.0415502
0.0413005
0.0408723
0.0404453
0.0401093
0.0398388
0.039624
0.0394684
0.0393568
0.0392713
0.0392062
0.0391544
0.0391091
0.039068
0.0390327
0.0390055
0.0389874
0.0389774
0.0389735
0.0397866
0.0397964
0.0398209
0.0398661
0.0399382
0.0400425
0.0401843
0.0403699
0.0406061
0.0408965
0.0412295
0.0415559
0.0417661
0.0417237
0.0413881
0.0408875
0.0404322
0.040096
0.039833
0.0396221
0.0394651
0.0393562
0.0392787
0.0392188
0.0391671
0.0391196
0.0390769
0.039041
0.0390138
0.0389959
0.0389859
0.0389819
0.0397885
0.0397981
0.0398219
0.0398661
0.0399379
0.0400451
0.0401968
0.0404039
0.0406781
0.0410256
0.0414281
0.0418116
0.0420271
0.0419238
0.0415044
0.040958
0.040504
0.0401773
0.039912
0.0396862
0.0395075
0.0393798
0.0392904
0.0392214
0.0391629
0.0391125
0.0390702
0.0390365
0.0390118
0.0389954
0.0389861
0.0389822
0.0397889
0.0397984
0.0398221
0.0398663
0.0399395
0.0400527
0.0402199
0.0404587
0.0407872
0.0412136
0.0417061
0.0421541
0.0423691
0.0422107
0.0417536
0.0412408
0.0408554
0.0405568
0.0402636
0.0399698
0.0397049
0.039493
0.0393371
0.0392232
0.0391411
0.0390835
0.0390436
0.0390154
0.0389955
0.0389819
0.0389737
0.0389701
0.0397889
0.0397987
0.0398231
0.0398693
0.0399477
0.0400734
0.0402674
0.0405561
0.0409651
0.0415016
0.0421104
0.0426353
0.0428659
0.0427155
0.0423515
0.0420378
0.0418551
0.0416521
0.0413358
0.0409246
0.0404761
0.040048
0.0396789
0.0393882
0.0391895
0.0390646
0.0389952
0.0389609
0.0389469
0.0389443
0.0389471
0.0389503
0.0397915
0.039802
0.0398286
0.0398799
0.0399696
0.0401187
0.0403574
0.0407232
0.0412496
0.0419369
0.0426978
0.0433371
0.0436622
0.0436885
0.0436642
0.0438064
0.0440436
0.0441161
0.0439298
0.0435195
0.0429488
0.04229
0.0416118
0.0409765
0.0404366
0.0400082
0.0397057
0.0395225
0.0394345
0.0394122
0.0394223
0.0394362
0.0397997
0.0398116
0.0398423
0.0399032
0.0400125
0.0401992
0.0405049
0.0409785
0.041659
0.042533
0.0434815
0.0443057
0.0448802
0.0453143
0.0458505
0.0465915
0.0473517
0.04788
0.0481388
0.0481863
0.0480476
0.0477395
0.0472837
0.046714
0.0460725
0.0454128
0.0447804
0.0442226
0.0437774
0.0434684
0.0432927
0.0432236
0.0398155
0.0398293
0.0398651
0.0399365
0.0400656
0.040287
0.0406478
0.0412005
0.041981
0.0429696
0.0440486
0.0450465
0.0458709
0.0466086
0.0474113
0.0482893
0.0490335
0.049503
0.0498434
0.0501938
0.0505779
0.0509566
0.0512661
0.0514484
0.0514663
0.0513123
0.0510055
0.0505946
0.0501499
0.0497509
0.0494661
0.0493287
0.0398225
0.0398378
0.039876
0.03995
0.040081
0.0403014
0.040654
0.0411842
0.0419207
0.0428471
0.0438755
0.0448742
0.0457491
0.0465115
0.047215
0.0478117
0.0481121
0.0480875
0.0480265
0.0481336
0.0484787
0.0490416
0.0497454
0.0504876
0.0511683
0.0517125
0.052082
0.0522718
0.0523099
0.0522511
0.0521639
0.0521063
0.0398098
0.0398257
0.0398633
0.0399322
0.040049
0.0402387
0.0405341
0.0409691
0.0415653
0.042313
0.0431551
0.0440001
0.0447639
0.0454133
0.0459422
0.0462895
0.0463579
0.0462016
0.0460792
0.0461587
0.0465097
0.0471339
0.0479797
0.0489503
0.0499241
0.0507912
0.0514807
0.0519679
0.052269
0.0524247
0.0524857
0.0524994
0.0397754
0.0397913
0.0398269
0.0398882
0.0399858
0.0401364
0.0403621
0.0406853
0.0411199
0.0416593
0.0422675
0.0428848
0.0434486
0.0439193
0.0442778
0.0444754
0.0445043
0.0444572
0.0444972
0.044729
0.0452038
0.0459359
0.0469047
0.0480456
0.049245
0.0503673
0.0512958
0.0519682
0.0523893
0.0526102
0.0527002
0.0527227
0.0397288
0.0397423
0.0397732
0.039826
0.0399064
0.0400233
0.0401892
0.0404171
0.0407142
0.0410744
0.0414738
0.0418758
0.0422406
0.0425407
0.042768
0.0429042
0.0429957
0.04313
0.0433824
0.0438034
0.0444202
0.0452449
0.046273
0.0474736
0.0487698
0.0500422
0.0511542
0.0520029
0.0525573
0.0528554
0.0529758
0.0530032
0.0397147
0.039718
0.0397317
0.0397649
0.0398241
0.0399128
0.0400343
0.0401927
0.0403896
0.0406188
0.0408646
0.0411073
0.0413286
0.0415203
0.0416927
0.0418624
0.0420936
0.0424323
0.0428897
0.0434837
0.0442261
0.0451247
0.0461811
0.0473834
0.0486853
0.0499958
0.0511861
0.0521361
0.0527838
0.0531442
0.0532919
0.0533237
0.0398341
0.0398138
0.0397838
0.0397654
0.0397776
0.0398261
0.0399069
0.0400143
0.0401431
0.0402869
0.0404386
0.0405942
0.0407558
0.0409341
0.0411543
0.0414549
0.0418823
0.0424228
0.0430487
0.0437649
0.0445782
0.0454962
0.0465257
0.0476678
0.0489015
0.0501651
0.0513499
0.0523345
0.0530361
0.0534431
0.0536153
0.0536523
0.0402153
0.0401578
0.040052
0.0399341
0.0398483
0.0398178
0.0398392
0.0398977
0.0399812
0.0400846
0.0402103
0.0403687
0.0405757
0.04085
0.0412168
0.0417149
0.0423508
0.0430567
0.0437908
0.0445618
0.0453805
0.0462586
0.0472079
0.0482384
0.0493478
0.0505021
0.0516178
0.0525818
0.0532989
0.0537345
0.0539271
0.0539699
0.0409547
0.0408524
0.0406504
0.0403942
0.0401582
0.0399992
0.0399304
0.0399373
0.0400044
0.0401276
0.0403142
0.0405773
0.0409299
0.0413813
0.0419418
0.0426355
0.0434302
0.0442284
0.0449953
0.0457515
0.0465153
0.0473036
0.0481319
0.0490155
0.0499638
0.050965
0.051963
0.0528611
0.0535604
0.0540071
0.0542159
0.0542655
0.0420874
0.0419435
0.0416563
0.0412718
0.0408809
0.04058
0.040417
0.040391
0.0404873
0.0406971
0.0410186
0.0414501
0.0419851
0.0426139
0.0433294
0.0441411
0.0449957
0.0457946
0.0465193
0.0472014
0.0478653
0.0485307
0.0492146
0.0499337
0.050703
0.051526
0.0523717
0.0531664
0.0538171
0.0542565
0.054476
0.0545331
0.0436018
0.0434355
0.0431236
0.042701
0.0422396
0.0418601
0.0416516
0.0416324
0.0417908
0.0421082
0.0425637
0.0431327
0.0437879
0.0445048
0.0452674
0.046078
0.0468822
0.0475976
0.0482211
0.048789
0.0493267
0.0498539
0.0503865
0.0509397
0.0515291
0.0521659
0.0528393
0.053501
0.0540732
0.0544843
0.0547057
0.0547701
0.0454769
0.0453285
0.0450979
0.0447824
0.0444001
0.0440583
0.043874
0.0438841
0.0440848
0.0444523
0.0449515
0.0455436
0.0461913
0.0468666
0.0475528
0.0482511
0.0489174
0.0494915
0.0499787
0.0504124
0.0508153
0.0512037
0.0515909
0.0519888
0.0524104
0.0528683
0.0533641
0.0538727
0.0543391
0.0546977
0.0549072
0.0549762
0.0477264
0.0476538
0.0476038
0.0474965
0.0472989
0.0470823
0.0469604
0.0469862
0.0471686
0.0474885
0.0479114
0.0483989
0.0489169
0.0494416
0.0499607
0.0504752
0.0509548
0.0513602
0.0516986
0.0519954
0.0522674
0.0525267
0.0527824
0.0530427
0.0533166
0.0536141
0.0539413
0.0542896
0.0546278
0.0549077
0.0550862
0.0551529
0.0504328
0.050482
0.0505954
0.0506452
0.0506052
0.050516
0.0504553
0.050474
0.0505885
0.05079
0.0510556
0.051359
0.0516775
0.0519957
0.0523062
0.0526098
0.0528895
0.0531235
0.0533171
0.0534853
0.0536384
0.053783
0.0539246
0.0540676
0.0542169
0.0543785
0.0545572
0.0547523
0.0549508
0.0551272
0.0552508
0.0553035
0.053721
0.0537696
0.0538471
0.0538934
0.0539011
0.053883
0.0538657
0.0538707
0.053907
0.0539729
0.0540605
0.0541607
0.0542653
0.0543694
0.0544704
0.0545686
0.0546587
0.0547337
0.0547955
0.0548491
0.0548976
0.0549432
0.0549877
0.0550324
0.0550788
0.0551287
0.0551839
0.0552446
0.055308
0.0553669
0.0554117
0.0554333
)
;

boundaryField
{
    movingWall
    {
        type            fixedValue;
        value           uniform 0.0555;
    }
    fixedWalls
    {
        type            zeroGradient;
    }
    floor
    {
        type            zeroGradient;
    }
    frontAndBack
    {
        type            empty;
    }
}


// ************************************************************************* //
