/*--------------------------------*- C++ -*----------------------------------*\
| =========                 |                                                 |
| \\      /  F ield         | OpenFOAM: The Open Source CFD Toolbox           |
|  \\    /   O peration     | Version:  2212                                  |
|   \\  /    A nd           | Website:  www.openfoam.com                      |
|    \\/     M anipulation  |                                                 |
\*---------------------------------------------------------------------------*/
FoamFile
{
    version     2.0;
    format      ascii;
    arch        "LSB;label=64;scalar=64";
    class       volScalarField;
    location    "250";
    object      SIC;
}
// * * * * * * * * * * * * * * * * * * * * * * * * * * * * * * * * * * * * * //

dimensions      [1 -3 0 0 0 0 0];

internalField   nonuniform List<scalar> 
1024
(
0.0921257
0.0921271
0.0921304
0.0921362
0.0921446
0.0921557
0.0921687
0.0921828
0.0921971
0.092211
0.0922241
0.0922358
0.0922447
0.0922488
0.0922447
0.0922279
0.0922008
0.0921742
0.0921504
0.0921274
0.0921018
0.0920716
0.0920402
0.0920147
0.0919982
0.0919886
0.0919828
0.091979
0.0919765
0.0919749
0.091974
0.0919736
0.0921261
0.0921275
0.092131
0.092137
0.0921459
0.0921573
0.0921706
0.0921848
0.0921992
0.0922132
0.0922265
0.0922382
0.0922473
0.0922513
0.0922471
0.09223
0.0922026
0.0921758
0.0921519
0.092129
0.0921038
0.0920736
0.0920418
0.0920156
0.0919987
0.091989
0.0919831
0.0919793
0.0919767
0.091975
0.0919741
0.0919737
0.0921269
0.0921285
0.0921322
0.0921388
0.0921482
0.0921603
0.0921741
0.0921888
0.0922036
0.0922179
0.0922316
0.0922438
0.0922533
0.0922575
0.0922529
0.0922348
0.0922064
0.0921789
0.0921547
0.0921316
0.0921067
0.0920769
0.0920446
0.0920175
0.0919999
0.0919899
0.0919838
0.0919798
0.0919771
0.0919754
0.0919744
0.091974
0.0921282
0.0921299
0.0921341
0.0921413
0.0921516
0.0921645
0.0921792
0.0921946
0.0922101
0.0922253
0.09224
0.0922534
0.0922638
0.0922685
0.0922632
0.0922431
0.0922126
0.0921836
0.0921582
0.0921344
0.0921097
0.0920803
0.0920479
0.0920201
0.0920019
0.0919914
0.0919851
0.0919808
0.0919778
0.0919759
0.0919749
0.0919744
0.0921299
0.0921318
0.0921363
0.0921442
0.0921555
0.0921695
0.0921852
0.0922017
0.0922185
0.0922354
0.0922521
0.0922676
0.0922799
0.0922854
0.092279
0.0922555
0.0922212
0.0921896
0.0921618
0.0921365
0.0921117
0.092083
0.0920511
0.0920232
0.0920047
0.0919937
0.0919869
0.0919822
0.0919789
0.0919768
0.0919757
0.0919752
0.0921319
0.0921338
0.0921387
0.0921473
0.0921594
0.0921745
0.0921916
0.0922098
0.0922287
0.0922482
0.092268
0.0922868
0.0923021
0.0923087
0.0923005
0.0922718
0.0922321
0.0921962
0.0921648
0.092137
0.0921116
0.0920838
0.0920531
0.0920262
0.0920078
0.0919966
0.0919893
0.0919841
0.0919805
0.0919782
0.0919769
0.0919764
0.092134
0.092136
0.0921411
0.0921501
0.092163
0.0921793
0.0921979
0.0922183
0.0922401
0.0922633
0.0922874
0.092311
0.0923301
0.092338
0.0923267
0.0922911
0.0922442
0.0922025
0.0921663
0.0921352
0.0921089
0.0920821
0.0920535
0.0920284
0.0920109
0.0919999
0.0919923
0.0919866
0.0919826
0.09198
0.0919787
0.0919781
0.092136
0.092138
0.0921432
0.0921524
0.0921659
0.0921832
0.0922036
0.0922265
0.092252
0.0922798
0.0923096
0.092339
0.0923627
0.0923714
0.0923552
0.0923111
0.0922558
0.0922073
0.0921654
0.0921307
0.0921032
0.0920778
0.0920519
0.0920295
0.0920138
0.0920033
0.0919956
0.0919896
0.0919853
0.0919825
0.0919809
0.0919803
0.0921378
0.0921398
0.0921449
0.0921541
0.0921679
0.0921861
0.0922082
0.092234
0.0922636
0.092297
0.0923334
0.0923695
0.092398
0.0924064
0.092383
0.0923284
0.0922643
0.092209
0.092162
0.0921238
0.0920953
0.0920713
0.0920487
0.0920298
0.0920164
0.0920068
0.0919992
0.091993
0.0919883
0.0919852
0.0919836
0.0919829
0.0921393
0.0921413
0.0921462
0.0921553
0.0921691
0.0921879
0.0922117
0.0922404
0.0922745
0.0923141
0.0923579
0.0924016
0.0924347
0.0924406
0.0924071
0.0923403
0.0922675
0.0922069
0.0921565
0.0921163
0.0920871
0.0920646
0.0920454
0.0920302
0.0920191
0.0920103
0.0920027
0.0919963
0.0919914
0.0919881
0.0919863
0.0919856
0.0921404
0.0921423
0.0921471
0.0921559
0.0921696
0.0921889
0.0922141
0.0922459
0.0922848
0.0923312
0.0923836
0.0924357
0.0924726
0.0924733
0.0924263
0.0923456
0.0922652
0.092202
0.092151
0.0921106
0.0920813
0.0920603
0.0920442
0.0920319
0.0920221
0.0920136
0.0920059
0.0919992
0.0919941
0.0919907
0.0919888
0.0919881
0.0921412
0.092143
0.0921476
0.0921562
0.0921697
0.0921894
0.0922161
0.092251
0.0922955
0.0923502
0.0924129
0.0924744
0.0925139
0.0925059
0.0924428
0.0923485
0.0922628
0.0921994
0.0921499
0.0921102
0.0920807
0.0920602
0.0920456
0.0920343
0.0920245
0.0920156
0.0920075
0.0920008
0.0919957
0.0919923
0.0919904
0.0919897
0.0921415
0.0921433
0.0921478
0.0921561
0.0921697
0.0921898
0.0922184
0.0922574
0.092309
0.0923745
0.0924503
0.0925225
0.0925631
0.0925436
0.0924647
0.0923618
0.0922763
0.0922148
0.0921648
0.0921223
0.0920886
0.0920646
0.0920478
0.0920348
0.0920238
0.0920143
0.0920063
0.092
0.0919953
0.0919922
0.0919905
0.0919897
0.0921416
0.0921434
0.0921479
0.0921562
0.09217
0.0921913
0.0922228
0.0922677
0.0923296
0.0924099
0.0925026
0.092587
0.0926275
0.0925976
0.0925116
0.092415
0.0923424
0.0922862
0.092231
0.0921757
0.0921258
0.0920859
0.0920566
0.0920351
0.0920197
0.0920088
0.0920013
0.091996
0.0919922
0.0919897
0.0919881
0.0919874
0.0921416
0.0921434
0.092148
0.0921567
0.0921715
0.0921952
0.0922317
0.0922861
0.0923631
0.0924641
0.0925788
0.0926776
0.092721
0.0926927
0.0926242
0.0925651
0.0925307
0.0924925
0.0924329
0.0923555
0.092271
0.0921904
0.0921209
0.0920662
0.0920288
0.0920052
0.0919922
0.0919857
0.0919831
0.0919826
0.0919831
0.0919837
0.0921421
0.0921441
0.0921491
0.0921587
0.0921756
0.0922037
0.0922487
0.0923175
0.0924166
0.0925461
0.0926894
0.0928097
0.092871
0.0928759
0.0928713
0.0928981
0.0929428
0.0929564
0.0929213
0.0928441
0.0927366
0.0926126
0.0924849
0.0923652
0.0922636
0.0921829
0.0921259
0.0920915
0.0920749
0.0920707
0.0920726
0.0920752
0.0921436
0.0921459
0.0921517
0.0921631
0.0921837
0.0922189
0.0922764
0.0923656
0.0924937
0.0926583
0.0928369
0.0929921
0.0931003
0.093182
0.093283
0.0934225
0.0935657
0.0936652
0.0937139
0.0937228
0.0936967
0.0936387
0.0935529
0.0934456
0.0933248
0.0932006
0.0930815
0.0929765
0.0928927
0.0928345
0.0928014
0.0927884
0.0921466
0.0921492
0.092156
0.0921694
0.0921937
0.0922354
0.0923033
0.0924074
0.0925544
0.0927405
0.0929437
0.0931316
0.0932868
0.0934258
0.0935769
0.0937422
0.0938824
0.0939708
0.0940349
0.0941008
0.0941732
0.0942445
0.0943027
0.0943371
0.0943405
0.0943115
0.0942537
0.0941763
0.0940926
0.0940174
0.0939638
0.093938
0.0921479
0.0921508
0.092158
0.0921719
0.0921966
0.0922381
0.0923045
0.0924043
0.092543
0.0927175
0.0929111
0.0930992
0.0932639
0.0934075
0.0935399
0.0936523
0.0937089
0.0937042
0.0936927
0.0937129
0.0937779
0.0938839
0.0940164
0.0941562
0.0942843
0.0943868
0.0944564
0.0944921
0.0944993
0.0944883
0.0944718
0.094461
0.0921455
0.0921485
0.0921556
0.0921686
0.0921906
0.0922263
0.0922819
0.0923638
0.0924761
0.0926169
0.0927755
0.0929346
0.0930784
0.0932007
0.0933003
0.0933657
0.0933785
0.0933491
0.0933261
0.093341
0.0934071
0.0935247
0.0936839
0.0938667
0.09405
0.0942133
0.0943432
0.0944349
0.0944916
0.0945209
0.0945324
0.094535
0.0921391
0.0921421
0.0921488
0.0921603
0.0921787
0.092207
0.0922495
0.0923104
0.0923922
0.0924938
0.0926083
0.0927246
0.0928307
0.0929194
0.0929869
0.0930241
0.0930295
0.0930207
0.0930282
0.0930718
0.0931612
0.0932991
0.0934815
0.0936963
0.0939222
0.0941335
0.0943083
0.094435
0.0945143
0.0945559
0.0945728
0.0945771
0.0921303
0.0921328
0.0921387
0.0921486
0.0921637
0.0921857
0.092217
0.0922599
0.0923158
0.0923837
0.0924589
0.0925346
0.0926033
0.0926598
0.0927026
0.0927282
0.0927454
0.0927707
0.0928183
0.0928975
0.0930137
0.093169
0.0933626
0.0935886
0.0938327
0.0940723
0.0942817
0.0944415
0.0945459
0.094602
0.0946247
0.0946299
0.0921276
0.0921283
0.0921308
0.0921371
0.0921482
0.0921649
0.0921878
0.0922176
0.0922547
0.0922979
0.0923442
0.0923899
0.0924316
0.0924676
0.0925001
0.0925321
0.0925756
0.0926394
0.0927255
0.0928373
0.0929771
0.0931463
0.0933452
0.0935716
0.0938168
0.0940636
0.0942877
0.0944666
0.0945885
0.0946564
0.0946842
0.0946902
0.0921501
0.0921463
0.0921406
0.0921372
0.0921395
0.0921486
0.0921638
0.092184
0.0922083
0.0922354
0.092264
0.0922932
0.0923237
0.0923573
0.0923987
0.0924553
0.0925358
0.0926376
0.0927554
0.0928903
0.0930434
0.0932163
0.0934101
0.0936252
0.0938575
0.0940954
0.0943185
0.094504
0.094636
0.0947127
0.0947451
0.0947521
0.0922219
0.0922111
0.0921911
0.0921689
0.0921528
0.0921471
0.0921511
0.0921621
0.0921778
0.0921973
0.092221
0.0922508
0.0922898
0.0923414
0.0924105
0.0925043
0.092624
0.0927569
0.0928952
0.0930403
0.0931945
0.0933598
0.0935386
0.0937326
0.0939416
0.0941589
0.094369
0.0945505
0.0946855
0.0947676
0.0948038
0.0948119
0.0923611
0.0923419
0.0923038
0.0922556
0.0922111
0.0921812
0.0921683
0.0921696
0.0921822
0.0922054
0.0922405
0.0922901
0.0923565
0.0924415
0.092547
0.0926776
0.0928273
0.0929776
0.093122
0.0932644
0.0934082
0.0935566
0.0937126
0.093879
0.0940575
0.0942461
0.094434
0.0946031
0.0947348
0.0948189
0.0948582
0.0948676
0.0925744
0.0925473
0.0924932
0.0924208
0.0923472
0.0922906
0.0922599
0.092255
0.0922731
0.0923126
0.0923732
0.0924544
0.0925552
0.0926736
0.0928083
0.0929611
0.093122
0.0932725
0.0934089
0.0935374
0.0936624
0.0937877
0.0939165
0.0940519
0.0941967
0.0943517
0.094511
0.0946606
0.0947831
0.0948659
0.0949072
0.0949179
0.0928596
0.0928283
0.0927695
0.0926899
0.0926031
0.0925316
0.0924924
0.0924887
0.0925186
0.0925783
0.0926641
0.0927713
0.0928946
0.0930296
0.0931732
0.0933259
0.0934773
0.093612
0.0937294
0.0938363
0.0939376
0.0940368
0.0941371
0.0942413
0.0943523
0.0944722
0.094599
0.0947236
0.0948313
0.0949087
0.0949504
0.0949626
0.0932127
0.0931847
0.0931413
0.0930819
0.0930099
0.0929455
0.0929108
0.0929127
0.0929505
0.0930197
0.0931137
0.0932252
0.0933472
0.0934743
0.0936035
0.093735
0.0938605
0.0939686
0.0940603
0.094142
0.0942179
0.094291
0.0943639
0.0944388
0.0945182
0.0946045
0.0946978
0.0947936
0.0948814
0.0949489
0.0949884
0.0950014
0.0936362
0.0936226
0.0936131
0.0935929
0.0935557
0.0935149
0.093492
0.0934969
0.0935312
0.0935915
0.0936711
0.0937629
0.0938604
0.0939592
0.094057
0.0941538
0.0942441
0.0943205
0.0943842
0.0944401
0.0944913
0.0945401
0.0945883
0.0946373
0.0946889
0.0947449
0.0948065
0.0948721
0.0949358
0.0949885
0.0950221
0.0950346
0.0941458
0.0941551
0.0941765
0.0941858
0.0941783
0.0941615
0.0941501
0.0941536
0.0941752
0.0942131
0.0942631
0.0943203
0.0943802
0.0944401
0.0944986
0.0945558
0.0946084
0.0946525
0.094689
0.0947206
0.0947495
0.0947767
0.0948034
0.0948303
0.0948584
0.0948888
0.0949225
0.0949592
0.0949966
0.0950298
0.0950531
0.095063
0.094765
0.0947742
0.0947888
0.0947975
0.0947989
0.0947955
0.0947923
0.0947932
0.0948
0.0948124
0.094829
0.0948478
0.0948675
0.0948871
0.0949061
0.0949246
0.0949416
0.0949557
0.0949674
0.0949774
0.0949866
0.0949952
0.0950035
0.095012
0.0950207
0.0950301
0.0950405
0.0950519
0.0950638
0.0950749
0.0950834
0.0950874
)
;

boundaryField
{
    movingWall
    {
        type            fixedValue;
        value           uniform 0.0951;
    }
    fixedWalls
    {
        type            zeroGradient;
    }
    floor
    {
        type            zeroGradient;
    }
    frontAndBack
    {
        type            empty;
    }
}


// ************************************************************************* //
