/*--------------------------------*- C++ -*----------------------------------*\
| =========                 |                                                 |
| \\      /  F ield         | OpenFOAM: The Open Source CFD Toolbox           |
|  \\    /   O peration     | Version:  2212                                  |
|   \\  /    A nd           | Website:  www.openfoam.com                      |
|    \\/     M anipulation  |                                                 |
\*---------------------------------------------------------------------------*/
FoamFile
{
    version     2.0;
    format      ascii;
    arch        "LSB;label=64;scalar=64";
    class       volVectorField;
    location    "250";
    object      U;
}
// * * * * * * * * * * * * * * * * * * * * * * * * * * * * * * * * * * * * * //

dimensions      [0 1 -1 0 0 0 0];

internalField   nonuniform List<vector> 
1024
(
(1.95621e-06 -9.28595e-06 0)
(-0.000296556 7.17115e-05 0)
(-0.000955707 0.000116271 0)
(-0.001785 0.000108761 0)
(-0.00260648 9.01973e-05 0)
(-0.0033653 7.62655e-05 0)
(-0.0040505 6.39703e-05 0)
(-0.00462739 4.84401e-05 0)
(-0.00502959 2.88145e-05 0)
(-0.0051712 5.60682e-06 0)
(-0.00497965 -1.64496e-05 0)
(-0.00433644 -3.77937e-05 0)
(-0.00318497 -5.6122e-05 0)
(-0.00153547 -6.45129e-05 0)
(0.000572533 -6.40445e-05 0)
(0.00260225 -3.22362e-05 0)
(0.00355274 -1.47452e-05 0)
(0.00474711 -4.87947e-05 0)
(0.00673371 -8.14711e-05 0)
(0.00823036 -2.66881e-05 0)
(0.00818248 6.70639e-05 0)
(0.00661125 0.000143542 0)
(0.00403914 0.000189003 0)
(0.000921199 0.000218555 0)
(-0.00111507 0.000113304 0)
(-0.00106332 -9.13066e-05 0)
(0.000317957 -0.000211841 0)
(0.00146589 -8.76315e-05 0)
(0.00166078 5.57012e-05 0)
(0.00118969 0.000144498 0)
(0.000523368 0.000150702 0)
(7.02002e-05 7.0013e-05 0)
(-0.000112607 0.000319028 0)
(-0.0011737 0.000965491 0)
(-0.00300593 0.0012636 0)
(-0.00519722 0.00120064 0)
(-0.00735555 0.00100363 0)
(-0.00932497 0.000802772 0)
(-0.0110327 0.000612302 0)
(-0.0123816 0.000415291 0)
(-0.0132319 0.000208024 0)
(-0.013421 -3.46946e-06 0)
(-0.0127951 -0.000210603 0)
(-0.0111291 -0.000401461 0)
(-0.00830687 -0.000558442 0)
(-0.00432934 -0.000654482 0)
(0.000825269 -0.000657158 0)
(0.00611418 -0.000414661 0)
(0.00884104 -0.00026972 0)
(0.0119866 -0.000492544 0)
(0.0165186 -0.000657532 0)
(0.0199431 -0.000275841 0)
(0.0200957 0.000449211 0)
(0.0167621 0.00119647 0)
(0.0107582 0.00180076 0)
(0.0031825 0.00191397 0)
(-0.00189791 0.000821997 0)
(-0.00192023 -0.000721022 0)
(0.000655676 -0.00144378 0)
(0.00280455 -0.000740678 0)
(0.00327388 0.000253126 0)
(0.00242897 0.00094471 0)
(0.00113234 0.00106336 0)
(0.000157686 0.000528878 0)
(-0.000251642 0.00132468 0)
(-0.00213314 0.00308924 0)
(-0.00503799 0.00370457 0)
(-0.00835208 0.00344661 0)
(-0.0115527 0.00285456 0)
(-0.0144104 0.00222681 0)
(-0.0167867 0.00162381 0)
(-0.018538 0.00103132 0)
(-0.0194987 0.000448202 0)
(-0.0194912 -0.000118141 0)
(-0.0183122 -0.000656354 0)
(-0.0157957 -0.00113132 0)
(-0.0118174 -0.0015166 0)
(-0.00638287 -0.00176872 0)
(0.000593879 -0.00180716 0)
(0.00816626 -0.00121607 0)
(0.0123911 -0.000822611 0)
(0.016863 -0.00130997 0)
(0.0226309 -0.00167079 0)
(0.0272489 -0.00079754 0)
(0.0279279 0.000974175 0)
(0.0240115 0.002942 0)
(0.0163404 0.00462924 0)
(0.00641536 0.00499414 0)
(-0.000826404 0.00227979 0)
(-0.00158333 -0.00146952 0)
(0.000722652 -0.00310829 0)
(0.00287989 -0.0017341 0)
(0.00348658 0.000448466 0)
(0.00263369 0.00206131 0)
(0.0012408 0.00242463 0)
(0.000167247 0.00127764 0)
(-0.000362131 0.00314402 0)
(-0.00289106 0.00663603 0)
(-0.00660978 0.00757342 0)
(-0.0107208 0.00690327 0)
(-0.0146014 0.00563871 0)
(-0.0179704 0.00429637 0)
(-0.0206425 0.00301064 0)
(-0.0224515 0.00178804 0)
(-0.0232392 0.000634983 0)
(-0.0228442 -0.000444405 0)
(-0.0211145 -0.00142097 0)
(-0.017997 -0.00224949 0)
(-0.0133755 -0.00291167 0)
(-0.00727294 -0.00335309 0)
(0.000354023 -0.00345038 0)
(0.00891955 -0.00243612 0)
(0.0141188 -0.00168816 0)
(0.0191773 -0.00243983 0)
(0.0251211 -0.00304759 0)
(0.0302861 -0.00162666 0)
(0.0316805 0.00149887 0)
(0.0280539 0.00513498 0)
(0.0202152 0.00831025 0)
(0.00992459 0.00911661 0)
(0.00195607 0.00483514 0)
(-0.000259039 -0.00173159 0)
(0.000741892 -0.00456698 0)
(0.00222084 -0.00278702 0)
(0.00277546 0.000620176 0)
(0.00210295 0.00325828 0)
(0.000957279 0.00387946 0)
(0.000111778 0.00206103 0)
(-0.000399445 0.00569457 0)
(-0.00322101 0.0114747 0)
(-0.0073471 0.0127429 0)
(-0.0118537 0.0114351 0)
(-0.0160341 0.00920257 0)
(-0.019559 0.00684655 0)
(-0.0222142 0.00460909 0)
(-0.0238353 0.002537 0)
(-0.0243002 0.000652111 0)
(-0.0234923 -0.00103925 0)
(-0.0214087 -0.00248857 0)
(-0.018029 -0.00368371 0)
(-0.0132295 -0.00462928 0)
(-0.00705588 -0.00525219 0)
(0.00040039 -0.00538364 0)
(0.00874096 -0.00394428 0)
(0.0143088 -0.0027909 0)
(0.0193238 -0.003741 0)
(0.0247373 -0.00463724 0)
(0.0298479 -0.00273449 0)
(0.0319102 0.00189643 0)
(0.0290422 0.00747575 0)
(0.021999 0.0123453 0)
(0.0127036 0.0136814 0)
(0.00536095 0.00825795 0)
(0.00187075 -0.000681757 0)
(0.00107501 -0.00510993 0)
(0.00146064 -0.00351233 0)
(0.00173932 0.000790508 0)
(0.00129198 0.00428378 0)
(0.000535186 0.00504972 0)
(4.26752e-05 0.00262975 0)
(-0.000347198 0.00867074 0)
(-0.00305028 0.0172075 0)
(-0.0071399 0.0189174 0)
(-0.0116426 0.0168255 0)
(-0.0157855 0.0133635 0)
(-0.0191914 0.00971611 0)
(-0.0216311 0.00628571 0)
(-0.0229653 0.00318507 0)
(-0.0231336 0.000462824 0)
(-0.0220917 -0.00186584 0)
(-0.0199638 -0.0037745 0)
(-0.0166565 -0.00533349 0)
(-0.012029 -0.00656196 0)
(-0.0061672 -0.00733864 0)
(0.000652784 -0.00742041 0)
(0.00800501 -0.00558424 0)
(0.0134338 -0.0040314 0)
(0.0179759 -0.00508004 0)
(0.0224471 -0.00629203 0)
(0.0269697 -0.00405765 0)
(0.0294377 0.00210438 0)
(0.0274137 0.00974179 0)
(0.0215997 0.0163171 0)
(0.0140132 0.0181325 0)
(0.00807554 0.0120443 0)
(0.00435965 0.00185594 0)
(0.00205022 -0.00429895 0)
(0.00120541 -0.00353298 0)
(0.000980032 0.00105741 0)
(0.000644323 0.00502789 0)
(0.000212227 0.00577236 0)
(-1.49328e-06 0.00290548 0)
(-0.000234026 0.0116258 0)
(-0.00248895 0.023246 0)
(-0.00617094 0.0256588 0)
(-0.0103475 0.0227838 0)
(-0.0142076 0.0179227 0)
(-0.0173305 0.0127711 0)
(-0.0194849 0.00796916 0)
(-0.020573 0.00373011 0)
(-0.0206051 0.000136714 0)
(-0.019609 -0.00280152 0)
(-0.0177019 -0.00515856 0)
(-0.0146922 -0.00710232 0)
(-0.0104409 -0.00862823 0)
(-0.00511163 -0.00951947 0)
(0.000814541 -0.00943497 0)
(0.00690686 -0.00723839 0)
(0.0118834 -0.00531873 0)
(0.0157147 -0.00634124 0)
(0.0190336 -0.0078543 0)
(0.0225092 -0.00548118 0)
(0.0250113 0.00214687 0)
(0.0236565 0.0118141 0)
(0.0191441 0.0199114 0)
(0.0135531 0.0219913 0)
(0.00941315 0.0155341 0)
(0.00641452 0.00515315 0)
(0.00358992 -0.00211695 0)
(0.00176735 -0.00252902 0)
(0.000906009 0.00166427 0)
(0.000438832 0.00563052 0)
(0.000111662 0.00618755 0)
(-9.11156e-06 0.00299496 0)
(-0.000110775 0.0141348 0)
(-0.00175073 0.0289527 0)
(-0.00478855 0.0324618 0)
(-0.00843206 0.0289891 0)
(-0.0118728 0.0226972 0)
(-0.014655 0.0159296 0)
(-0.0165525 0.00966561 0)
(-0.0175114 0.00425921 0)
(-0.0175936 -0.000181077 0)
(-0.0168619 -0.00369864 0)
(-0.0153015 -0.00653501 0)
(-0.0126788 -0.00891871 0)
(-0.00890043 -0.0107621 0)
(-0.00425062 -0.0117035 0)
(0.000616969 -0.0113383 0)
(0.00543834 -0.00883554 0)
(0.00982481 -0.00658049 0)
(0.0128698 -0.00742223 0)
(0.014973 -0.00913252 0)
(0.016991 -0.00680791 0)
(0.0191226 0.00215536 0)
(0.0182027 0.0136797 0)
(0.0149733 0.0228712 0)
(0.0115387 0.0247912 0)
(0.00942824 0.0180921 0)
(0.00767029 0.00816951 0)
(0.00533205 0.000940124 0)
(0.00307279 -0.000400472 0)
(0.00158871 0.0029984 0)
(0.000727596 0.0065384 0)
(0.000230901 0.00672422 0)
(9.64035e-06 0.00312837 0)
(-1.69988e-05 0.0159379 0)
(-0.00104333 0.0337984 0)
(-0.00334641 0.0388492 0)
(-0.00636359 0.0351443 0)
(-0.0093398 0.0275491 0)
(-0.0117958 0.0191704 0)
(-0.0135092 0.0114431 0)
(-0.0144551 0.00490401 0)
(-0.01471 -0.000340231 0)
(-0.0143057 -0.00445162 0)
(-0.0130931 -0.00784241 0)
(-0.010863 -0.0107339 0)
(-0.00762327 -0.0128878 0)
(-0.00379763 -0.013775 0)
(-9.62076e-05 -0.0130408 0)
(0.00348997 -0.0103227 0)
(0.0072325 -0.00776624 0)
(0.0095649 -0.00824252 0)
(0.0105379 -0.00990389 0)
(0.0107787 -0.0077311 0)
(0.0120936 0.00235132 0)
(0.0115767 0.0153395 0)
(0.00981293 0.0248336 0)
(0.00875963 0.0259644 0)
(0.00874947 0.0191563 0)
(0.00834751 0.0102644 0)
(0.0068713 0.00415187 0)
(0.00475312 0.00290455 0)
(0.00278364 0.00557722 0)
(0.00138228 0.0084571 0)
(0.000499511 0.00800669 0)
(4.47602e-05 0.0035984 0)
(3.4469e-05 0.0169908 0)
(-0.000496297 0.0374761 0)
(-0.00209681 0.0444511 0)
(-0.00448187 0.0410094 0)
(-0.00700523 0.0323914 0)
(-0.00917947 0.0225163 0)
(-0.0107762 0.0133913 0)
(-0.0117741 0.00577884 0)
(-0.012225 -0.000250182 0)
(-0.0121014 -0.00501882 0)
(-0.0111843 -0.00905291 0)
(-0.00934618 -0.012491 0)
(-0.00674404 -0.0148857 0)
(-0.00390682 -0.0155808 0)
(-0.00141364 -0.0144272 0)
(0.000949407 -0.011638 0)
(0.00397764 -0.00885901 0)
(0.00580984 -0.00877789 0)
(0.00594136 -0.00997198 0)
(0.0044239 -0.00785956 0)
(0.0044848 0.00287465 0)
(0.00481936 0.0165088 0)
(0.00499092 0.0250906 0)
(0.00642393 0.0248947 0)
(0.00817564 0.0184188 0)
(0.00876861 0.011209 0)
(0.00786568 0.00686594 0)
(0.00595643 0.00664329 0)
(0.00379796 0.00941937 0)
(0.0019816 0.0118189 0)
(0.000735604 0.0104565 0)
(7.23185e-05 0.00459402 0)
(5.05064e-05 0.0174176 0)
(-0.000147531 0.0399375 0)
(-0.00115847 0.0490519 0)
(-0.00296288 0.0464123 0)
(-0.00506994 0.0371734 0)
(-0.00700569 0.0260065 0)
(-0.00852634 0.0155852 0)
(-0.00958864 0.00694791 0)
(-0.0101955 0.000116359 0)
(-0.0102803 -0.00539199 0)
(-0.00962511 -0.0101297 0)
(-0.00823204 -0.014077 0)
(-0.00642482 -0.0165596 0)
(-0.00473768 -0.0169258 0)
(-0.00345117 -0.0153584 0)
(-0.00223465 -0.0126606 0)
(-9.82752e-05 -0.00990758 0)
(0.0015099 -0.00913096 0)
(0.00134938 -0.00931046 0)
(-0.00108413 -0.00678905 0)
(-0.00209941 0.00300329 0)
(-0.000381092 0.015942 0)
(0.00204893 0.0227179 0)
(0.00545324 0.0213868 0)
(0.00811301 0.0161385 0)
(0.00903615 0.0113744 0)
(0.00826714 0.0094749 0)
(0.00639541 0.0109767 0)
(0.00415325 0.0144281 0)
(0.00216484 0.0164956 0)
(0.000785839 0.0139217 0)
(7.57566e-05 0.00602402 0)
(4.41459e-05 0.0174256 0)
(2.80533e-05 0.0413362 0)
(-0.000544282 0.0526012 0)
(-0.00185463 0.0512481 0)
(-0.00358989 0.0418608 0)
(-0.00531836 0.029675 0)
(-0.00678019 0.0180776 0)
(-0.00789672 0.0084428 0)
(-0.00862181 0.000767864 0)
(-0.00887393 -0.00554257 0)
(-0.00851279 -0.0109701 0)
(-0.00769924 -0.0152734 0)
(-0.00688589 -0.0176179 0)
(-0.00647452 -0.017571 0)
(-0.0064105 -0.0157399 0)
(-0.00618037 -0.0131994 0)
(-0.0050382 -0.0108612 0)
(-0.00364275 -0.00959044 0)
(-0.00342741 -0.00846882 0)
(-0.00467569 -0.00544685 0)
(-0.0051619 0.002315 0)
(-0.0027231 0.012529 0)
(0.00141021 0.0175293 0)
(0.00546059 0.0162148 0)
(0.00798673 0.0132283 0)
(0.00860948 0.0115377 0)
(0.00765239 0.0125122 0)
(0.00574041 0.0160562 0)
(0.00357163 0.0203023 0)
(0.00174322 0.0218329 0)
(0.000575897 0.0176707 0)
(4.71993e-05 0.00750222 0)
(3.5177e-05 0.0172075 0)
(8.88269e-05 0.0419784 0)
(-0.00021349 0.0552095 0)
(-0.00114101 0.0554827 0)
(-0.0025554 0.0464264 0)
(-0.00410032 0.0335461 0)
(-0.00551367 0.0209169 0)
(-0.00668433 0.010311 0)
(-0.00752858 0.00176095 0)
(-0.00797717 -0.00536003 0)
(-0.00803178 -0.0113416 0)
(-0.00800828 -0.0157145 0)
(-0.00838374 -0.0176752 0)
(-0.009319 -0.0172323 0)
(-0.0104895 -0.0153754 0)
(-0.011284 -0.0132394 0)
(-0.0110808 -0.0115005 0)
(-0.0100406 -0.0103316 0)
(-0.00896752 -0.00876905 0)
(-0.00795681 -0.00551509 0)
(-0.00606915 0.000543899 0)
(-0.00279363 0.00783138 0)
(0.00151743 0.0112182 0)
(0.00482974 0.0111229 0)
(0.0065334 0.0109325 0)
(0.00659574 0.01243 0)
(0.00540178 0.0162351 0)
(0.00357816 0.0216179 0)
(0.00183894 0.0261563 0)
(0.000665029 0.0264611 0)
(0.000120455 0.0203653 0)
(-9.54176e-06 0.00836647 0)
(2.26655e-05 0.0169293 0)
(6.88844e-05 0.0422631 0)
(-0.000112148 0.0571482 0)
(-0.000784592 0.0591853 0)
(-0.00194686 0.0508732 0)
(-0.00334093 0.0376543 0)
(-0.00472767 0.0241843 0)
(-0.00598221 0.0126736 0)
(-0.00700795 0.00327183 0)
(-0.00776712 -0.00457284 0)
(-0.00845294 -0.0108076 0)
(-0.00946707 -0.0148631 0)
(-0.0111782 -0.0162644 0)
(-0.0134949 -0.0155652 0)
(-0.0159564 -0.0139659 0)
(-0.0179536 -0.0125029 0)
(-0.018898 -0.0116706 0)
(-0.0185145 -0.0112849 0)
(-0.0170566 -0.0103916 0)
(-0.0146053 -0.00813616 0)
(-0.0111017 -0.00419706 0)
(-0.00629577 0.00110802 0)
(-0.00155325 0.00510258 0)
(0.000915476 0.00707083 0)
(0.0016885 0.00970078 0)
(0.0013447 0.0143211 0)
(0.000398901 0.0206599 0)
(-0.000516045 0.0267961 0)
(-0.000945671 0.0298575 0)
(-0.000856621 0.027946 0)
(-0.000462621 0.0203028 0)
(-7.37185e-05 0.00797087 0)
(7.74669e-06 0.016769 0)
(-7.78525e-08 0.0426089 0)
(-0.000173403 0.0588412 0)
(-0.000727683 0.0625883 0)
(-0.00173694 0.0553011 0)
(-0.00304506 0.0420941 0)
(-0.00446091 0.028037 0)
(-0.00587111 0.0157768 0)
(-0.00720562 0.00567172 0)
(-0.0084812 -0.00265479 0)
(-0.0100716 -0.0086929 0)
(-0.0123573 -0.0120525 0)
(-0.0154908 -0.0128695 0)
(-0.019225 -0.0121455 0)
(-0.0231035 -0.0110743 0)
(-0.026585 -0.0105174 0)
(-0.0290789 -0.0108747 0)
(-0.0299437 -0.0118555 0)
(-0.0291411 -0.0124752 0)
(-0.0268923 -0.0120257 0)
(-0.0234424 -0.0101637 0)
(-0.0192053 -0.00678423 0)
(-0.0146808 -0.00191662 0)
(-0.0107173 0.00397578 0)
(-0.00902052 0.00975319 0)
(-0.00768152 0.0158601 0)
(-0.00655084 0.0216966 0)
(-0.00529722 0.025894 0)
(-0.00382124 0.0267654 0)
(-0.00227488 0.0232915 0)
(-0.000950775 0.0157136 0)
(-0.000124984 0.00564488 0)
(-5.55555e-06 0.0169157 0)
(-7.57835e-05 0.0433973 0)
(-0.000298283 0.0608389 0)
(-0.000840564 0.0661835 0)
(-0.00180793 0.0600883 0)
(-0.00312853 0.0472171 0)
(-0.00466683 0.0328785 0)
(-0.00633762 0.0201136 0)
(-0.00814402 0.00958555 0)
(-0.0102682 0.0012501 0)
(-0.0129998 -0.00449955 0)
(-0.016824 -0.00684973 0)
(-0.0214015 -0.00717976 0)
(-0.0265281 -0.00664722 0)
(-0.0318217 -0.00626705 0)
(-0.0367794 -0.00673272 0)
(-0.0407817 -0.00841111 0)
(-0.042962 -0.0109837 0)
(-0.0432225 -0.0133004 0)
(-0.0419387 -0.0146175 0)
(-0.0393794 -0.0145059 0)
(-0.0357827 -0.012726 0)
(-0.0313443 -0.00915873 0)
(-0.0262369 -0.00385399 0)
(-0.020663 0.00280324 0)
(-0.015633 0.00936698 0)
(-0.0112465 0.0143453 0)
(-0.00750335 0.0167806 0)
(-0.00442398 0.0164498 0)
(-0.00212971 0.0131777 0)
(-0.000690719 0.00793437 0)
(-4.85364e-05 0.00244144 0)
(-6.37137e-06 0.0172771 0)
(-6.48767e-05 0.0445415 0)
(-0.000262776 0.063163 0)
(-0.000771887 0.0700752 0)
(-0.00175475 0.0653391 0)
(-0.0032164 0.0531608 0)
(-0.0050701 0.0389966 0)
(-0.00728338 0.0262814 0)
(-0.0099654 0.0160677 0)
(-0.0134037 0.00859866 0)
(-0.0177695 0.00399536 0)
(-0.022801 0.00174426 0)
(-0.0283671 0.00115308 0)
(-0.0340599 0.000878779 0)
(-0.0395428 3.7309e-05 0)
(-0.0443487 -0.0019101 0)
(-0.0479192 -0.00543632 0)
(-0.0497178 -0.0100916 0)
(-0.0499052 -0.0146279 0)
(-0.0488431 -0.0184653 0)
(-0.0466524 -0.0213462 0)
(-0.0433715 -0.0231298 0)
(-0.039033 -0.0236959 0)
(-0.0337249 -0.0229217 0)
(-0.0276493 -0.0206777 0)
(-0.0211751 -0.016855 0)
(-0.0148004 -0.0115078 0)
(-0.00916413 -0.00549387 0)
(-0.00478547 -0.000622069 0)
(-0.00188537 0.00199882 0)
(-0.000423158 0.00229046 0)
(1.51306e-05 0.00107601 0)
(2.96348e-05 0.0172308 0)
(0.000173106 0.0448065 0)
(0.00027079 0.0644463 0)
(0.00010935 0.0732348 0)
(-0.000617993 0.0704433 0)
(-0.0020702 0.0594687 0)
(-0.00414157 0.0459279 0)
(-0.00670103 0.0337377 0)
(-0.00981223 0.0241915 0)
(-0.0136289 0.0173845 0)
(-0.0180968 0.0130561 0)
(-0.0228828 0.0105034 0)
(-0.0276316 0.00882019 0)
(-0.0321246 0.0071793 0)
(-0.0362321 0.00493559 0)
(-0.0397288 0.00155001 0)
(-0.0419661 -0.00347047 0)
(-0.0426629 -0.00945751 0)
(-0.0426305 -0.0152513 0)
(-0.0419632 -0.0205153 0)
(-0.0406337 -0.0251996 0)
(-0.0385686 -0.0292995 0)
(-0.0357078 -0.0327479 0)
(-0.0320368 -0.0353703 0)
(-0.0276123 -0.0368434 0)
(-0.0225858 -0.0366993 0)
(-0.0172151 -0.0343867 0)
(-0.0118714 -0.0294661 0)
(-0.00704212 -0.0219799 0)
(-0.00327151 -0.0131163 0)
(-0.00096939 -0.00534934 0)
(-5.32858e-05 -0.000746898 0)
(9.49713e-05 0.0161465 0)
(0.000616553 0.0429945 0)
(0.00128088 0.0632066 0)
(0.00180524 0.0738124 0)
(0.00179173 0.0737675 0)
(0.000935438 0.0653516 0)
(-0.000867866 0.0526213 0)
(-0.0033362 0.0405851 0)
(-0.00621706 0.0311613 0)
(-0.00938591 0.0242458 0)
(-0.0127414 0.0193787 0)
(-0.0161065 0.0159397 0)
(-0.0192596 0.0132732 0)
(-0.022088 0.0107064 0)
(-0.0245384 0.00759161 0)
(-0.0264802 0.00332563 0)
(-0.0276699 -0.00244953 0)
(-0.027831 -0.00902336 0)
(-0.0280291 -0.0152431 0)
(-0.0281094 -0.0210312 0)
(-0.0279425 -0.0265047 0)
(-0.0274037 -0.0317755 0)
(-0.0263947 -0.0368644 0)
(-0.0248268 -0.041672 0)
(-0.0226122 -0.0458585 0)
(-0.0197075 -0.0487929 0)
(-0.0161617 -0.0495365 0)
(-0.0121542 -0.0469942 0)
(-0.00801729 -0.0401955 0)
(-0.00426003 -0.0292045 0)
(-0.0015076 -0.0161352 0)
(-0.000130123 -0.00449116 0)
(0.000150764 0.0139115 0)
(0.00108715 0.0387245 0)
(0.00244022 0.0589017 0)
(0.00384719 0.0710908 0)
(0.00482715 0.0737445 0)
(0.00497259 0.0681915 0)
(0.00407231 0.0577413 0)
(0.00228868 0.046416 0)
(1.52752e-05 0.0365457 0)
(-0.00235905 0.0287392 0)
(-0.00450272 0.0232008 0)
(-0.00640557 0.0190373 0)
(-0.00796532 0.0156184 0)
(-0.00919212 0.0123653 0)
(-0.0101097 0.00868852 0)
(-0.0105949 0.00392823 0)
(-0.0104683 -0.00216775 0)
(-0.0103999 -0.00869281 0)
(-0.0110655 -0.0147313 0)
(-0.0120396 -0.0204278 0)
(-0.0130653 -0.025981 0)
(-0.0139706 -0.031549 0)
(-0.0146508 -0.0371952 0)
(-0.0150334 -0.043 0)
(-0.0149673 -0.0487982 0)
(-0.0142735 -0.0540775 0)
(-0.0127955 -0.0577666 0)
(-0.0105011 -0.0583857 0)
(-0.00753864 -0.0539715 0)
(-0.00436092 -0.0431544 0)
(-0.00169206 -0.0267751 0)
(-0.000168637 -0.00865353 0)
(0.00017525 0.010992 0)
(0.00143168 0.0326402 0)
(0.00342911 0.0520609 0)
(0.00573639 0.0654131 0)
(0.0077932 0.0705134 0)
(0.00911361 0.067804 0)
(0.00940271 0.0597476 0)
(0.008721 0.0496072 0)
(0.00745336 0.0398685 0)
(0.00607505 0.0316167 0)
(0.00499488 0.0252435 0)
(0.00440196 0.0203485 0)
(0.00436285 0.0163726 0)
(0.00480503 0.0127585 0)
(0.00560365 0.00890753 0)
(0.00666202 0.0038776 0)
(0.00747795 -0.00212339 0)
(0.00717693 -0.00796235 0)
(0.00581305 -0.0134101 0)
(0.00385414 -0.0186729 0)
(0.00163939 -0.0239609 0)
(-0.000646044 -0.029496 0)
(-0.00277027 -0.0351119 0)
(-0.004729 -0.0410677 0)
(-0.00640655 -0.0474271 0)
(-0.00765456 -0.0540422 0)
(-0.00816887 -0.0599111 0)
(-0.00773657 -0.063587 0)
(-0.00624449 -0.0623042 0)
(-0.00399332 -0.0532478 0)
(-0.00170376 -0.0355502 0)
(-0.000197027 -0.0124761 0)
(0.000166492 0.00797875 0)
(0.00157804 0.0257807 0)
(0.00405012 0.0437284 0)
(0.00712903 0.0576842 0)
(0.0101942 0.0648037 0)
(0.0127032 0.064695 0)
(0.014297 0.0590032 0)
(0.0149412 0.0503337 0)
(0.0149364 0.0410567 0)
(0.0147409 0.0326023 0)
(0.0147863 0.0256483 0)
(0.0153546 0.0201605 0)
(0.016543 0.0157382 0)
(0.0182691 0.0118572 0)
(0.0203227 0.00792113 0)
(0.0225397 0.00320707 0)
(0.0238399 -0.00201483 0)
(0.0230161 -0.00703638 0)
(0.0209331 -0.0118126 0)
(0.0180922 -0.0164868 0)
(0.0148543 -0.0212339 0)
(0.0114497 -0.0262011 0)
(0.00805574 -0.0315015 0)
(0.00481695 -0.0372098 0)
(0.00182838 -0.0434572 0)
(-0.000973375 -0.0506256 0)
(-0.00317142 -0.0577522 0)
(-0.00450784 -0.0639447 0)
(-0.00456161 -0.0659514 0)
(-0.00338731 -0.059662 0)
(-0.00161139 -0.0422579 0)
(-0.000206866 -0.0157695 0)
(0.000135551 0.00531671 0)
(0.00152714 0.0191266 0)
(0.00422773 0.0350201 0)
(0.00784047 0.0489648 0)
(0.0117219 0.0575523 0)
(0.0153014 0.0596185 0)
(0.018183 0.0560668 0)
(0.0202553 0.0489404 0)
(0.0217071 0.0404143 0)
(0.0228972 0.0320886 0)
(0.0241932 0.02488 0)
(0.0258644 0.0190334 0)
(0.0280185 0.0143338 0)
(0.0305824 0.0103358 0)
(0.0333037 0.00648456 0)
(0.0358181 0.00221091 0)
(0.0369397 -0.00217605 0)
(0.0358942 -0.00624287 0)
(0.0334081 -0.0101592 0)
(0.029973 -0.014089 0)
(0.0259648 -0.0181909 0)
(0.0216598 -0.0226039 0)
(0.0172741 -0.0274235 0)
(0.0129865 -0.0327401 0)
(0.00892492 -0.0386473 0)
(0.00511393 -0.0452899 0)
(0.00165787 -0.0527566 0)
(-0.00121994 -0.0607733 0)
(-0.00278918 -0.0658705 0)
(-0.002752 -0.0629339 0)
(-0.00152757 -0.0470749 0)
(-0.000211915 -0.0185035 0)
(9.61642e-05 0.00322567 0)
(0.00132016 0.0133792 0)
(0.00396771 0.0268819 0)
(0.00780075 0.0402367 0)
(0.0122168 0.0496742 0)
(0.0166599 0.0533528 0)
(0.0207339 0.0515428 0)
(0.0242658 0.0458361 0)
(0.0273087 0.0382132 0)
(0.0300551 0.030325 0)
(0.0327308 0.0232291 0)
(0.0355193 0.0173529 0)
(0.0385015 0.0126354 0)
(0.0416112 0.0087284 0)
(0.0445898 0.00515041 0)
(0.0469679 0.00145308 0)
(0.0476189 -0.00211904 0)
(0.0462334 -0.00535987 0)
(0.0434276 -0.00848848 0)
(0.039627 -0.0116687 0)
(0.0351587 -0.0150517 0)
(0.0302744 -0.0187789 0)
(0.0251787 -0.0229725 0)
(0.0200501 -0.0277475 0)
(0.015042 -0.0332182 0)
(0.0102741 -0.0395277 0)
(0.0058613 -0.0468456 0)
(0.00194824 -0.0551976 0)
(-0.00107613 -0.0629723 0)
(-0.00223023 -0.0637328 0)
(-0.00157896 -0.0504529 0)
(-0.000238531 -0.0208884 0)
(5.51386e-05 0.00175214 0)
(0.000984847 0.00892987 0)
(0.00327872 0.0200056 0)
(0.00697087 0.0322888 0)
(0.0115997 0.0419278 0)
(0.0166777 0.0465581 0)
(0.021837 0.0459701 0)
(0.0268364 0.0414314 0)
(0.0315533 0.0347491 0)
(0.0359601 0.027535 0)
(0.0400933 0.0208815 0)
(0.0440164 0.015302 0)
(0.0477639 0.0108343 0)
(0.0512758 0.00721458 0)
(0.0543174 0.00404025 0)
(0.0564156 0.000948923 0)
(0.0565882 -0.00190334 0)
(0.05485 -0.00443714 0)
(0.05177 -0.00687653 0)
(0.0477265 -0.00937192 0)
(0.0429925 -0.0120607 0)
(0.0377698 -0.0150798 0)
(0.03222 -0.0185651 0)
(0.0264908 -0.0226565 0)
(0.0207308 -0.0275044 0)
(0.0150916 -0.0332946 0)
(0.00972926 -0.0402935 0)
(0.00482171 -0.0487712 0)
(0.000663055 -0.0579714 0)
(-0.00181929 -0.0625651 0)
(-0.00185969 -0.052808 0)
(-0.000331585 -0.0232705 0)
(-2.9538e-06 0.000899999 0)
(0.000433821 0.00600176 0)
(0.00202362 0.0148741 0)
(0.00522113 0.0256707 0)
(0.00980241 0.0348211 0)
(0.0153657 0.0396818 0)
(0.0215659 0.0397498 0)
(0.0280522 0.0360919 0)
(0.0344755 0.0303398 0)
(0.040558 0.0239744 0)
(0.0461403 0.0180236 0)
(0.0511684 0.0130047 0)
(0.0556348 0.00900284 0)
(0.0594933 0.00581886 0)
(0.0625547 0.00312356 0)
(0.0643988 0.000623279 0)
(0.0642254 -0.00159758 0)
(0.0622485 -0.00353275 0)
(0.0590103 -0.00538487 0)
(0.054856 -0.00728104 0)
(0.0500148 -0.00933696 0)
(0.0446418 -0.0116744 0)
(0.0388504 -0.0144271 0)
(0.0327424 -0.0177498 0)
(0.0264327 -0.0218308 0)
(0.0200651 -0.0269162 0)
(0.0138147 -0.0333625 0)
(0.00788806 -0.0416351 0)
(0.00260391 -0.0516331 0)
(-0.00128985 -0.0596388 0)
(-0.00235429 -0.0543212 0)
(-0.000548263 -0.0260079 0)
(-0.000126934 0.000847758 0)
(-0.000600425 0.00493031 0)
(-0.00019457 0.0117704 0)
(0.00224997 0.0206613 0)
(0.00677849 0.0285492 0)
(0.0128733 0.032925 0)
(0.0201721 0.0331342 0)
(0.0281771 0.0301257 0)
(0.0362781 0.0253012 0)
(0.04396 0.0199157 0)
(0.050901 0.0148541 0)
(0.0569601 0.0105799 0)
(0.0621069 0.00718949 0)
(0.0663211 0.00453287 0)
(0.069471 0.00234785 0)
(0.0712088 0.000400044 0)
(0.0709009 -0.00127502 0)
(0.068855 -0.00270582 0)
(0.0655973 -0.00406137 0)
(0.0614553 -0.00544183 0)
(0.056634 -0.00693805 0)
(0.0512592 -0.00864929 0)
(0.0454081 -0.0106934 0)
(0.0391376 -0.0132224 0)
(0.0325113 -0.016445 0)
(0.0256264 -0.0206599 0)
(0.0186309 -0.0263118 0)
(0.01173 -0.0340361 0)
(0.00524713 -0.0442743 0)
(-0.000153984 -0.0548733 0)
(-0.00281073 -0.0548337 0)
(-0.000908651 -0.029318 0)
(-0.000452154 0.00216615 0)
(-0.00245462 0.00639244 0)
(-0.00342071 0.0110748 0)
(-0.00206664 0.0167381 0)
(0.00265307 0.0229061 0)
(0.00961046 0.0262661 0)
(0.0181371 0.0262661 0)
(0.0276718 0.0237959 0)
(0.0373571 0.0199246 0)
(0.0465033 0.0156098 0)
(0.0546858 0.0115496 0)
(0.0617137 0.0081229 0)
(0.0675508 0.00541882 0)
(0.0722025 0.00332811 0)
(0.0755825 0.00165146 0)
(0.0774001 0.000208972 0)
(0.0771237 -0.000990766 0)
(0.0751101 -0.00198991 0)
(0.0719024 -0.00292211 0)
(0.0678368 -0.0038613 0)
(0.0631165 -0.00487417 0)
(0.0578577 -0.0060348 0)
(0.0521181 -0.0074362 0)
(0.0459182 -0.00920987 0)
(0.0392642 -0.0115567 0)
(0.0321739 -0.0147938 0)
(0.0247073 -0.019425 0)
(0.016998 -0.0262206 0)
(0.00932296 -0.0360461 0)
(0.00232213 -0.048172 0)
(-0.0026418 -0.0538295 0)
(-0.00132086 -0.0332052 0)
(-0.00110247 0.0055783 0)
(-0.00509359 0.0100128 0)
(-0.00705884 0.0119046 0)
(-0.00616288 0.0140553 0)
(-0.001622 0.0172759 0)
(0.00672665 0.0194834 0)
(0.0165621 0.0192257 0)
(0.027566 0.0173202 0)
(0.0386943 0.0144413 0)
(0.049168 0.0112396 0)
(0.0585051 0.00822277 0)
(0.0664743 0.00567931 0)
(0.073017 0.00368601 0)
(0.0781339 0.00217069 0)
(0.0817537 0.000991888 0)
(0.0836343 2.03327e-05 0)
(0.0833098 -0.000752028 0)
(0.0812638 -0.00137563 0)
(0.0780848 -0.001948 0)
(0.0741267 -0.00251816 0)
(0.0695951 -0.00313037 0)
(0.064601 -0.00383411 0)
(0.0591882 -0.00469401 0)
(0.0533496 -0.00580855 0)
(0.0470372 -0.00734281 0)
(0.0401741 -0.00958315 0)
(0.0326764 -0.0130263 0)
(0.0245036 -0.0185016 0)
(0.0157819 -0.027177 0)
(0.00704182 -0.0395513 0)
(-0.000884931 -0.0502756 0)
(-0.00147317 -0.0371824 0)
(-0.00199199 0.0117037 0)
(-0.00717327 0.0144569 0)
(-0.00836788 0.012548 0)
(-0.00649476 0.0114155 0)
(-0.00144656 0.0117728 0)
(0.00782517 0.0124887 0)
(0.0186966 0.0121492 0)
(0.0308111 0.0108891 0)
(0.0430377 0.00901707 0)
(0.0545257 0.00692332 0)
(0.0647092 0.00494659 0)
(0.0732764 0.00329226 0)
(0.0801152 0.00202212 0)
(0.085219 0.00109203 0)
(0.0885678 0.000405749 0)
(0.0900319 -0.000123779 0)
(0.0893401 -0.00052083 0)
(0.087151 -0.000833724 0)
(0.084042 -0.00111928 0)
(0.080341 -0.00140289 0)
(0.0762263 -0.00170876 0)
(0.0717859 -0.00206453 0)
(0.0670434 -0.00250779 0)
(0.0619674 -0.00309996 0)
(0.0564685 -0.00395264 0)
(0.0503883 -0.00527722 0)
(0.043487 -0.00747721 0)
(0.0354619 -0.0113042 0)
(0.0260757 -0.0180279 0)
(0.0154188 -0.029101 0)
(0.00386622 -0.0427028 0)
(-0.000253397 -0.039001 0)
(-0.00143364 0.0178919 0)
(-0.00421783 0.0168343 0)
(0.000382211 0.0110953 0)
(0.00644159 0.00804193 0)
(0.0131451 0.00664955 0)
(0.0219695 0.00610527 0)
(0.0325535 0.00568712 0)
(0.0442812 0.00501116 0)
(0.0560819 0.00406749 0)
(0.0670207 0.00301367 0)
(0.0764315 0.00203 0)
(0.0839563 0.00123512 0)
(0.0895219 0.000662842 0)
(0.0932434 0.000281133 0)
(0.0952802 2.76946e-05 0)
(0.0956864 -0.000149644 0)
(0.0945256 -0.000276045 0)
(0.0924023 -0.000377103 0)
(0.089739 -0.00047184 0)
(0.0867568 -0.00056768 0)
(0.0835637 -0.000673643 0)
(0.0802028 -0.0008008 0)
(0.0766704 -0.000965276 0)
(0.0729174 -0.00119553 0)
(0.068836 -0.00154753 0)
(0.0642291 -0.00213687 0)
(0.0587577 -0.00320807 0)
(0.0518755 -0.00527602 0)
(0.042787 -0.00936595 0)
(0.0305417 -0.0171797 0)
(0.0149855 -0.0294825 0)
(0.00620843 -0.0332299 0)
(0.0207956 0.0113566 0)
(0.0268409 0.00903459 0)
(0.0390786 0.00511439 0)
(0.0488028 0.00298489 0)
(0.0560866 0.00185135 0)
(0.0626792 0.00123513 0)
(0.06943 0.000908589 0)
(0.0763801 0.000686351 0)
(0.0830438 0.000485585 0)
(0.0888449 0.000299117 0)
(0.0933883 0.000148531 0)
(0.0965652 4.82494e-05 0)
(0.0985146 -5.69056e-06 0)
(0.0994905 -2.90401e-05 0)
(0.0997194 -3.84646e-05 0)
(0.0993086 -4.39395e-05 0)
(0.0983633 -4.87384e-05 0)
(0.0971401 -5.44825e-05 0)
(0.0957862 -6.10807e-05 0)
(0.0943668 -6.85494e-05 0)
(0.0929048 -7.77643e-05 0)
(0.0914004 -9.01318e-05 0)
(0.0898351 -0.000107978 0)
(0.0881677 -0.000135871 0)
(0.0863195 -0.000183626 0)
(0.0841425 -0.000273324 0)
(0.0813518 -0.000456458 0)
(0.077393 -0.000854534 0)
(0.0711739 -0.00175385 0)
(0.0605762 -0.00389897 0)
(0.0431796 -0.00914263 0)
(0.0285829 -0.0144905 0)
)
;

boundaryField
{
    movingWall
    {
        type            fixedValue;
        value           uniform (0.1 0 0);
    }
    fixedWalls
    {
        type            noSlip;
    }
    floor
    {
        type            noSlip;
    }
    frontAndBack
    {
        type            empty;
    }
}


// ************************************************************************* //
