/*--------------------------------*- C++ -*----------------------------------*\
| =========                 |                                                 |
| \\      /  F ield         | OpenFOAM: The Open Source CFD Toolbox           |
|  \\    /   O peration     | Version:  2212                                  |
|   \\  /    A nd           | Website:  www.openfoam.com                      |
|    \\/     M anipulation  |                                                 |
\*---------------------------------------------------------------------------*/
FoamFile
{
    version     2.0;
    format      ascii;
    arch        "LSB;label=64;scalar=64";
    class       volScalarField;
    location    "250";
    object      Xch;
}
// * * * * * * * * * * * * * * * * * * * * * * * * * * * * * * * * * * * * * //

dimensions      [1 -3 0 0 0 0 0];

internalField   nonuniform List<scalar> 
1024
(
0.0201166
0.0201168
0.0201172
0.020118
0.0201191
0.0201206
0.0201224
0.0201243
0.0201262
0.0201281
0.0201298
0.0201314
0.0201326
0.0201331
0.0201325
0.0201302
0.0201265
0.0201228
0.0201196
0.0201165
0.020113
0.0201088
0.0201045
0.0201009
0.0200986
0.0200973
0.0200965
0.020096
0.0200956
0.0200954
0.0200953
0.0200952
0.0201166
0.0201168
0.0201173
0.0201181
0.0201193
0.0201208
0.0201226
0.0201246
0.0201265
0.0201284
0.0201301
0.0201317
0.0201329
0.0201334
0.0201328
0.0201305
0.0201267
0.0201231
0.0201198
0.0201167
0.0201132
0.0201091
0.0201047
0.0201011
0.0200987
0.0200973
0.0200965
0.020096
0.0200956
0.0200954
0.0200953
0.0200952
0.0201168
0.020117
0.0201175
0.0201184
0.0201196
0.0201213
0.0201231
0.0201251
0.0201271
0.020129
0.0201308
0.0201325
0.0201337
0.0201342
0.0201336
0.0201311
0.0201272
0.0201235
0.0201202
0.020117
0.0201136
0.0201095
0.0201051
0.0201013
0.0200989
0.0200975
0.0200966
0.0200961
0.0200957
0.0200955
0.0200953
0.0200953
0.0201169
0.0201172
0.0201177
0.0201187
0.0201201
0.0201218
0.0201238
0.0201259
0.020128
0.02013
0.020132
0.0201337
0.0201351
0.0201357
0.020135
0.0201322
0.0201281
0.0201241
0.0201206
0.0201174
0.020114
0.02011
0.0201055
0.0201017
0.0200992
0.0200977
0.0200968
0.0200962
0.0200958
0.0200955
0.0200954
0.0200953
0.0201172
0.0201174
0.020118
0.0201191
0.0201206
0.0201225
0.0201246
0.0201268
0.0201291
0.0201314
0.0201336
0.0201356
0.0201373
0.020138
0.0201371
0.0201338
0.0201292
0.0201249
0.0201211
0.0201177
0.0201143
0.0201104
0.020106
0.0201021
0.0200995
0.020098
0.020097
0.0200964
0.0200959
0.0200957
0.0200955
0.0200954
0.0201174
0.0201177
0.0201184
0.0201195
0.0201211
0.0201232
0.0201255
0.0201279
0.0201305
0.0201331
0.0201357
0.0201382
0.0201402
0.0201411
0.0201399
0.020136
0.0201306
0.0201257
0.0201215
0.0201177
0.0201142
0.0201105
0.0201062
0.0201025
0.0201
0.0200984
0.0200974
0.0200967
0.0200962
0.0200958
0.0200957
0.0200956
0.0201177
0.020118
0.0201187
0.0201199
0.0201216
0.0201238
0.0201263
0.0201291
0.020132
0.0201351
0.0201383
0.0201415
0.020144
0.020145
0.0201434
0.0201386
0.0201322
0.0201265
0.0201216
0.0201174
0.0201138
0.0201102
0.0201063
0.0201028
0.0201004
0.0200988
0.0200978
0.020097
0.0200964
0.0200961
0.0200959
0.0200958
0.020118
0.0201183
0.020119
0.0201202
0.020122
0.0201243
0.0201271
0.0201302
0.0201336
0.0201373
0.0201413
0.0201452
0.0201483
0.0201494
0.0201472
0.0201412
0.0201337
0.0201271
0.0201214
0.0201167
0.020113
0.0201096
0.0201061
0.020103
0.0201008
0.0200993
0.0200982
0.0200974
0.0200968
0.0200964
0.0200962
0.0200961
0.0201182
0.0201185
0.0201192
0.0201204
0.0201223
0.0201247
0.0201277
0.0201312
0.0201352
0.0201396
0.0201445
0.0201493
0.0201531
0.0201541
0.0201508
0.0201434
0.0201347
0.0201272
0.0201209
0.0201157
0.0201119
0.0201087
0.0201056
0.020103
0.0201011
0.0200998
0.0200987
0.0200979
0.0200972
0.0200968
0.0200966
0.0200965
0.0201184
0.0201187
0.0201194
0.0201206
0.0201224
0.020125
0.0201282
0.0201321
0.0201366
0.0201419
0.0201478
0.0201536
0.0201579
0.0201586
0.0201539
0.0201448
0.020135
0.0201268
0.02012
0.0201146
0.0201107
0.0201077
0.0201051
0.020103
0.0201015
0.0201003
0.0200992
0.0200983
0.0200976
0.0200972
0.0200969
0.0200968
0.0201186
0.0201188
0.0201195
0.0201207
0.0201225
0.0201251
0.0201285
0.0201328
0.020138
0.0201442
0.0201512
0.0201581
0.0201629
0.0201628
0.0201563
0.0201454
0.0201345
0.020126
0.0201192
0.0201138
0.0201099
0.0201071
0.0201049
0.0201032
0.0201019
0.0201007
0.0200996
0.0200987
0.020098
0.0200975
0.0200973
0.0200972
0.0201187
0.0201189
0.0201196
0.0201207
0.0201225
0.0201252
0.0201288
0.0201335
0.0201394
0.0201467
0.0201551
0.0201632
0.0201684
0.0201671
0.0201584
0.0201456
0.020134
0.0201255
0.0201189
0.0201136
0.0201097
0.020107
0.020105
0.0201035
0.0201021
0.0201009
0.0200998
0.0200989
0.0200982
0.0200977
0.0200975
0.0200974
0.0201187
0.020119
0.0201196
0.0201207
0.0201225
0.0201252
0.0201291
0.0201343
0.0201412
0.02015
0.0201601
0.0201696
0.0201748
0.0201719
0.0201611
0.0201471
0.0201356
0.0201273
0.0201207
0.020115
0.0201106
0.0201074
0.0201051
0.0201034
0.0201019
0.0201006
0.0200996
0.0200987
0.0200981
0.0200977
0.0200974
0.0200973
0.0201187
0.020119
0.0201196
0.0201207
0.0201226
0.0201254
0.0201297
0.0201357
0.020144
0.0201547
0.020167
0.0201781
0.0201833
0.020179
0.0201671
0.020154
0.0201442
0.0201367
0.0201293
0.0201219
0.0201153
0.02011
0.0201061
0.0201033
0.0201013
0.0200998
0.0200988
0.0200981
0.0200976
0.0200973
0.0200971
0.020097
0.0201187
0.020119
0.0201196
0.0201208
0.0201228
0.0201259
0.0201308
0.0201381
0.0201484
0.0201619
0.0201771
0.0201902
0.0201957
0.0201915
0.020182
0.0201739
0.0201692
0.020164
0.020156
0.0201457
0.0201344
0.0201237
0.0201145
0.0201073
0.0201024
0.0200993
0.0200975
0.0200967
0.0200964
0.0200963
0.0200963
0.0200964
0.0201188
0.0201191
0.0201197
0.020121
0.0201233
0.0201271
0.0201331
0.0201423
0.0201556
0.0201728
0.0201919
0.0202078
0.0202156
0.0202159
0.020215
0.0202184
0.0202241
0.0202257
0.0202209
0.0202105
0.0201962
0.0201796
0.0201627
0.0201468
0.0201334
0.0201227
0.0201152
0.0201106
0.0201084
0.0201079
0.0201081
0.0201085
0.020119
0.0201193
0.0201201
0.0201216
0.0201244
0.0201291
0.0201368
0.0201488
0.0201659
0.0201879
0.0202116
0.0202321
0.0202463
0.0202569
0.0202701
0.0202885
0.0203073
0.0203202
0.0203263
0.0203272
0.0203234
0.0203155
0.020304
0.0202897
0.0202737
0.0202572
0.0202415
0.0202276
0.0202166
0.0202089
0.0202045
0.0202028
0.0201194
0.0201197
0.0201206
0.0201224
0.0201257
0.0201313
0.0201404
0.0201544
0.020174
0.0201989
0.020226
0.0202509
0.0202714
0.0202898
0.0203098
0.0203316
0.02035
0.0203614
0.0203695
0.0203777
0.0203867
0.0203956
0.0204029
0.0204071
0.0204074
0.0204034
0.0203958
0.0203857
0.0203747
0.0203649
0.0203578
0.0203545
0.0201195
0.0201199
0.0201209
0.0201228
0.0201261
0.0201317
0.0201406
0.020154
0.0201725
0.0201959
0.0202218
0.0202468
0.0202687
0.0202878
0.0203054
0.0203203
0.0203277
0.0203268
0.0203249
0.020327
0.020335
0.0203483
0.0203651
0.0203829
0.0203993
0.0204125
0.0204215
0.0204262
0.0204272
0.0204259
0.0204238
0.0204225
0.0201192
0.0201196
0.0201206
0.0201223
0.0201253
0.0201301
0.0201375
0.0201485
0.0201636
0.0201825
0.0202037
0.020225
0.0202442
0.0202605
0.0202737
0.0202824
0.020284
0.0202799
0.0202766
0.0202781
0.0202863
0.0203013
0.0203216
0.0203449
0.0203684
0.0203893
0.020406
0.0204179
0.0204253
0.0204292
0.0204308
0.0204312
0.0201183
0.0201187
0.0201196
0.0201212
0.0201237
0.0201275
0.0201332
0.0201414
0.0201524
0.020166
0.0201814
0.0201969
0.0202111
0.020223
0.020232
0.0202369
0.0202375
0.0202362
0.0202369
0.0202423
0.0202537
0.0202714
0.0202949
0.0203225
0.0203516
0.0203787
0.0204011
0.0204174
0.0204276
0.0204331
0.0204354
0.020436
0.0201171
0.0201175
0.0201183
0.0201196
0.0201217
0.0201246
0.0201288
0.0201346
0.0201421
0.0201512
0.0201613
0.0201715
0.0201807
0.0201882
0.0201939
0.0201972
0.0201994
0.0202026
0.0202086
0.0202188
0.0202338
0.0202538
0.0202789
0.0203081
0.0203396
0.0203704
0.0203973
0.0204179
0.0204313
0.0204386
0.0204416
0.0204423
0.0201167
0.0201168
0.0201172
0.020118
0.0201196
0.0201218
0.0201249
0.0201289
0.0201339
0.0201397
0.0201459
0.020152
0.0201576
0.0201624
0.0201667
0.0201708
0.0201764
0.0201846
0.0201957
0.0202102
0.0202284
0.0202503
0.0202761
0.0203055
0.0203372
0.020369
0.0203978
0.0204208
0.0204365
0.0204452
0.0204488
0.0204497
0.0201196
0.0201191
0.0201184
0.020118
0.0201183
0.0201196
0.0201217
0.0201244
0.0201276
0.0201313
0.0201351
0.020139
0.020143
0.0201474
0.0201528
0.0201601
0.0201705
0.0201837
0.020199
0.0202165
0.0202364
0.0202589
0.0202841
0.0203121
0.0203421
0.0203729
0.0204016
0.0204254
0.0204423
0.0204521
0.0204563
0.0204573
0.0201288
0.0201274
0.0201249
0.020122
0.02012
0.0201193
0.0201199
0.0201214
0.0201235
0.0201261
0.0201292
0.0201332
0.0201382
0.0201449
0.0201539
0.020166
0.0201815
0.0201988
0.0202167
0.0202356
0.0202557
0.0202772
0.0203004
0.0203256
0.0203527
0.0203808
0.0204078
0.0204311
0.0204484
0.0204589
0.0204636
0.0204647
0.0201468
0.0201444
0.0201394
0.0201332
0.0201275
0.0201236
0.020122
0.0201222
0.0201239
0.020127
0.0201316
0.020138
0.0201466
0.0201576
0.0201713
0.0201882
0.0202076
0.0202271
0.0202458
0.0202643
0.0202831
0.0203024
0.0203227
0.0203443
0.0203674
0.0203918
0.020416
0.0204377
0.0204545
0.0204653
0.0204703
0.0204715
0.0201744
0.0201709
0.0201639
0.0201546
0.0201451
0.0201378
0.0201338
0.0201332
0.0201356
0.0201407
0.0201486
0.0201591
0.0201721
0.0201875
0.0202049
0.0202247
0.0202455
0.020265
0.0202828
0.0202995
0.0203157
0.020332
0.0203488
0.0203664
0.0203852
0.0204052
0.0204257
0.0204449
0.0204606
0.0204711
0.0204764
0.0204778
0.0202113
0.0202072
0.0201996
0.0201894
0.0201781
0.0201689
0.0201638
0.0201634
0.0201672
0.020175
0.0201861
0.0201999
0.0202159
0.0202334
0.0202519
0.0202717
0.0202913
0.0203088
0.020324
0.0203379
0.0203511
0.020364
0.0203771
0.0203906
0.020405
0.0204205
0.0204368
0.0204528
0.0204666
0.0204764
0.0204817
0.0204833
0.0202569
0.0202533
0.0202477
0.02024
0.0202307
0.0202223
0.0202178
0.0202181
0.020223
0.0202319
0.0202441
0.0202585
0.0202743
0.0202907
0.0203074
0.0203245
0.0203407
0.0203547
0.0203666
0.0203772
0.0203871
0.0203966
0.0204061
0.0204158
0.0204261
0.0204373
0.0204493
0.0204616
0.0204728
0.0204814
0.0204864
0.020488
0.0203115
0.0203098
0.0203085
0.0203059
0.0203011
0.0202958
0.0202928
0.0202935
0.0202979
0.0203057
0.020316
0.0203278
0.0203404
0.0203532
0.0203659
0.0203784
0.0203901
0.0204
0.0204083
0.0204155
0.0204222
0.0204285
0.0204348
0.0204412
0.0204479
0.0204551
0.0204631
0.0204715
0.0204796
0.0204863
0.0204905
0.0204921
0.0203772
0.0203784
0.0203811
0.0203823
0.0203813
0.0203792
0.0203777
0.0203781
0.0203809
0.0203858
0.0203923
0.0203997
0.0204074
0.0204151
0.0204227
0.0204301
0.0204369
0.0204427
0.0204474
0.0204515
0.0204552
0.0204588
0.0204623
0.0204658
0.0204694
0.0204733
0.0204777
0.0204824
0.0204872
0.0204914
0.0204943
0.0204955
0.0204569
0.0204581
0.02046
0.0204611
0.0204613
0.0204608
0.0204604
0.0204605
0.0204614
0.020463
0.0204651
0.0204676
0.0204701
0.0204726
0.0204751
0.0204775
0.0204797
0.0204815
0.020483
0.0204844
0.0204855
0.0204867
0.0204877
0.0204888
0.02049
0.0204912
0.0204925
0.020494
0.0204955
0.0204969
0.020498
0.0204985
)
;

boundaryField
{
    movingWall
    {
        type            fixedValue;
        value           uniform 0.0205;
    }
    fixedWalls
    {
        type            zeroGradient;
    }
    floor
    {
        type            zeroGradient;
    }
    frontAndBack
    {
        type            empty;
    }
}


// ************************************************************************* //
