/*--------------------------------*- C++ -*----------------------------------*\
| =========                 |                                                 |
| \\      /  F ield         | OpenFOAM: The Open Source CFD Toolbox           |
|  \\    /   O peration     | Version:  2212                                  |
|   \\  /    A nd           | Website:  www.openfoam.com                      |
|    \\/     M anipulation  |                                                 |
\*---------------------------------------------------------------------------*/
FoamFile
{
    version     2.0;
    format      ascii;
    arch        "LSB;label=64;scalar=64";
    class       volScalarField;
    location    "250";
    object      Xpr;
}
// * * * * * * * * * * * * * * * * * * * * * * * * * * * * * * * * * * * * * //

dimensions      [1 -3 0 0 0 0 0];

internalField   nonuniform List<scalar> 
1024
(
0.0825591
0.0825598
0.0825617
0.0825651
0.08257
0.0825763
0.0825838
0.082592
0.0826002
0.0826082
0.0826157
0.0826223
0.0826274
0.0826296
0.0826271
0.0826172
0.0826014
0.0825858
0.0825719
0.0825584
0.0825435
0.0825257
0.0825071
0.082492
0.0824822
0.0824765
0.082473
0.0824707
0.0824692
0.0824683
0.0824677
0.0824675
0.0825593
0.0825601
0.0825621
0.0825656
0.0825707
0.0825772
0.0825849
0.0825931
0.0826014
0.0826095
0.082617
0.0826237
0.0826288
0.0826311
0.0826284
0.0826184
0.0826024
0.0825867
0.0825728
0.0825594
0.0825446
0.0825269
0.0825081
0.0824925
0.0824825
0.0824767
0.0824732
0.0824709
0.0824694
0.0824684
0.0824678
0.0824676
0.0825597
0.0825606
0.0825628
0.0825666
0.082572
0.082579
0.082587
0.0825954
0.0826039
0.0826122
0.08262
0.082627
0.0826323
0.0826346
0.0826318
0.0826212
0.0826046
0.0825885
0.0825743
0.0825609
0.0825463
0.0825288
0.0825097
0.0824936
0.0824832
0.0824772
0.0824736
0.0824712
0.0824696
0.0824686
0.082468
0.0824677
0.0825605
0.0825615
0.0825639
0.082568
0.082574
0.0825814
0.0825899
0.0825988
0.0826077
0.0826164
0.0826248
0.0826324
0.0826383
0.0826409
0.0826377
0.0826259
0.0826081
0.0825912
0.0825763
0.0825624
0.082548
0.0825308
0.0825117
0.0824952
0.0824844
0.0824781
0.0824743
0.0824718
0.08247
0.0824689
0.0824683
0.082468
0.0825615
0.0825625
0.0825652
0.0825697
0.0825762
0.0825843
0.0825934
0.0826029
0.0826125
0.0826222
0.0826318
0.0826406
0.0826476
0.0826505
0.0826467
0.0826329
0.082613
0.0825945
0.0825783
0.0825636
0.0825491
0.0825323
0.0825135
0.082497
0.082486
0.0824795
0.0824754
0.0824726
0.0824706
0.0824694
0.0824687
0.0824684
0.0825626
0.0825637
0.0825666
0.0825715
0.0825785
0.0825872
0.0825971
0.0826075
0.0826184
0.0826296
0.0826409
0.0826517
0.0826603
0.0826639
0.0826589
0.0826421
0.0826191
0.0825982
0.0825799
0.0825637
0.082549
0.0825328
0.0825147
0.0824988
0.0824878
0.0824812
0.0824768
0.0824737
0.0824715
0.0824702
0.0824694
0.0824691
0.0825638
0.082565
0.0825679
0.0825731
0.0825806
0.0825899
0.0826007
0.0826124
0.082625
0.0826383
0.0826521
0.0826655
0.0826763
0.0826806
0.0826737
0.082653
0.0826258
0.0826016
0.0825805
0.0825625
0.0825473
0.0825317
0.0825149
0.0825001
0.0824897
0.0824831
0.0824785
0.0824752
0.0824728
0.0824713
0.0824704
0.0824701
0.0825649
0.0825661
0.0825691
0.0825744
0.0825822
0.0825922
0.082604
0.0826172
0.0826318
0.0826478
0.0826649
0.0826816
0.0826949
0.0826996
0.0826899
0.0826642
0.0826322
0.082604
0.0825797
0.0825596
0.0825438
0.0825291
0.0825139
0.0825007
0.0824913
0.0824851
0.0824805
0.0824769
0.0824743
0.0824727
0.0824718
0.0824714
0.082566
0.0825672
0.0825701
0.0825754
0.0825834
0.0825939
0.0826067
0.0826215
0.0826386
0.0826577
0.0826785
0.082699
0.0827151
0.0827194
0.0827055
0.0826737
0.0826366
0.0826046
0.0825774
0.0825554
0.0825391
0.0825252
0.082512
0.0825008
0.0824928
0.0824871
0.0824826
0.0824789
0.0824761
0.0824743
0.0824733
0.0824729
0.0825669
0.082568
0.0825709
0.0825761
0.0825841
0.082595
0.0826087
0.0826252
0.0826448
0.0826675
0.0826925
0.0827173
0.0827359
0.0827387
0.0827188
0.0826799
0.0826379
0.0826029
0.0825738
0.0825507
0.082534
0.0825211
0.0825099
0.082501
0.0824943
0.0824891
0.0824846
0.0824808
0.0824779
0.0824759
0.0824749
0.0824745
0.0825675
0.0825686
0.0825714
0.0825765
0.0825844
0.0825955
0.0826101
0.0826284
0.0826507
0.0826773
0.0827072
0.0827367
0.0827573
0.0827569
0.0827291
0.0826822
0.0826358
0.0825994
0.0825701
0.0825469
0.0825303
0.0825183
0.082509
0.0825018
0.082496
0.0824909
0.0824863
0.0824824
0.0824794
0.0824774
0.0824763
0.0824758
0.082568
0.082569
0.0825717
0.0825766
0.0825844
0.0825958
0.0826112
0.0826313
0.0826568
0.0826881
0.0827238
0.0827586
0.0827806
0.082775
0.0827378
0.082683
0.0826335
0.0825972
0.0825688
0.0825461
0.0825294
0.0825178
0.0825094
0.0825028
0.0824971
0.0824918
0.0824871
0.0824832
0.0824802
0.0824782
0.0824771
0.0824767
0.0825682
0.0825692
0.0825718
0.0825766
0.0825844
0.082596
0.0826125
0.0826349
0.0826645
0.0827019
0.0827451
0.0827859
0.0828082
0.0827959
0.0827494
0.0826896
0.0826403
0.082605
0.0825764
0.0825522
0.0825332
0.0825196
0.08251
0.0825026
0.0824962
0.0824908
0.0824862
0.0824825
0.0824798
0.0824781
0.082477
0.0824766
0.0825682
0.0825692
0.0825718
0.0825766
0.0825846
0.0825968
0.082615
0.0826408
0.0826762
0.0827221
0.0827748
0.0828225
0.0828445
0.082826
0.0827753
0.0827192
0.0826772
0.0826449
0.0826133
0.0825818
0.0825535
0.0825309
0.0825143
0.0825021
0.0824934
0.0824873
0.082483
0.08248
0.0824779
0.0824764
0.0824755
0.0824751
0.0825682
0.0825692
0.0825719
0.0825769
0.0825854
0.082599
0.08262
0.0826512
0.0826953
0.082753
0.0828182
0.0828739
0.0828974
0.0828796
0.082839
0.0828044
0.0827842
0.0827619
0.0827277
0.0826835
0.0826354
0.0825897
0.0825503
0.0825193
0.0824982
0.0824849
0.0824775
0.0824739
0.0824724
0.0824721
0.0824724
0.0824727
0.0825684
0.0825696
0.0825725
0.082578
0.0825878
0.0826039
0.0826297
0.0826692
0.0827259
0.0827998
0.0828813
0.0829492
0.0829828
0.082984
0.0829801
0.0829945
0.0830192
0.0830262
0.0830055
0.082961
0.0828996
0.0828289
0.0827563
0.0826885
0.0826309
0.0825852
0.0825529
0.0825334
0.082524
0.0825216
0.0825227
0.0825242
0.0825693
0.0825706
0.0825739
0.0825805
0.0825923
0.0826125
0.0826456
0.0826967
0.08277
0.082864
0.0829657
0.0830535
0.083114
0.0831594
0.083216
0.0832947
0.0833752
0.0834304
0.0834567
0.0834603
0.0834443
0.0834104
0.0833611
0.0832999
0.0832313
0.0831609
0.0830936
0.0830343
0.0829869
0.0829541
0.0829354
0.0829281
0.082571
0.0825725
0.0825763
0.0825841
0.082598
0.082622
0.082661
0.0827207
0.0828049
0.0829113
0.0830272
0.083134
0.0832218
0.0833002
0.0833858
0.0834794
0.0835582
0.083607
0.0836414
0.0836765
0.0837152
0.0837534
0.0837845
0.0838025
0.0838036
0.0837868
0.0837541
0.0837106
0.0836637
0.0836216
0.0835916
0.0835771
0.0825717
0.0825733
0.0825775
0.0825855
0.0825997
0.0826235
0.0826617
0.082719
0.0827985
0.0828985
0.0830092
0.0831165
0.0832102
0.0832917
0.083367
0.0834308
0.0834624
0.0834587
0.0834504
0.0834595
0.0834936
0.0835507
0.0836226
0.0836989
0.0837692
0.0838256
0.0838641
0.0838841
0.0838885
0.0838828
0.083874
0.0838682
0.0825703
0.082572
0.0825761
0.0825836
0.0825962
0.0826167
0.0826487
0.0826958
0.0827602
0.082841
0.0829319
0.083023
0.0831051
0.0831748
0.0832315
0.0832687
0.0832757
0.0832581
0.0832437
0.0832504
0.0832856
0.0833494
0.0834363
0.0835364
0.0836368
0.0837263
0.0837977
0.0838484
0.0838801
0.0838969
0.0839037
0.0839055
0.0825665
0.0825682
0.0825721
0.0825788
0.0825893
0.0826057
0.0826301
0.0826651
0.0827121
0.0827705
0.0828362
0.0829029
0.0829636
0.0830143
0.0830528
0.0830738
0.0830766
0.0830707
0.0830739
0.0830971
0.0831459
0.0832216
0.0833221
0.0834404
0.0835647
0.0836808
0.0837769
0.0838465
0.0838903
0.0839136
0.0839233
0.0839259
0.0825614
0.0825628
0.0825662
0.082572
0.0825807
0.0825934
0.0826114
0.082636
0.0826682
0.0827072
0.0827504
0.0827939
0.0828332
0.0828655
0.0828899
0.0829042
0.0829135
0.082927
0.0829528
0.0829964
0.0830605
0.0831465
0.0832537
0.0833787
0.0835134
0.0836454
0.0837606
0.0838485
0.0839059
0.083937
0.0839499
0.0839529
0.0825596
0.08256
0.0825615
0.0825652
0.0825717
0.0825814
0.0825945
0.0826117
0.082633
0.0826579
0.0826844
0.0827107
0.0827345
0.0827551
0.0827733
0.082791
0.0828149
0.08285
0.0828977
0.0829597
0.0830374
0.0831314
0.0832419
0.0833675
0.0835031
0.0836393
0.0837627
0.083861
0.083928
0.0839655
0.083981
0.0839845
0.0825718
0.0825697
0.0825667
0.0825649
0.0825665
0.0825718
0.0825807
0.0825923
0.0826063
0.0826219
0.0826382
0.0826549
0.0826722
0.082691
0.0827141
0.0827454
0.0827899
0.0828463
0.0829117
0.0829867
0.083072
0.0831682
0.0832761
0.0833956
0.0835243
0.0836558
0.0837787
0.0838806
0.083953
0.0839951
0.0840131
0.0840171
0.0826114
0.0826054
0.0825945
0.0825823
0.0825735
0.0825706
0.0825731
0.0825795
0.0825886
0.0825997
0.0826131
0.0826299
0.0826517
0.0826804
0.0827187
0.0827706
0.0828369
0.0829107
0.0829876
0.0830684
0.0831542
0.0832463
0.0833459
0.0834538
0.0835696
0.0836898
0.0838056
0.0839053
0.0839793
0.0840242
0.0840442
0.0840488
0.0826885
0.0826778
0.0826568
0.0826301
0.0826056
0.0825892
0.0825822
0.0825832
0.0825904
0.0826035
0.0826231
0.0826506
0.0826875
0.0827346
0.0827931
0.0828654
0.0829484
0.0830318
0.0831121
0.0831914
0.0832715
0.0833542
0.083441
0.0835336
0.0836327
0.083737
0.0838405
0.0839334
0.0840054
0.0840514
0.084073
0.0840782
0.0828066
0.0827916
0.0827616
0.0827216
0.0826809
0.0826496
0.0826327
0.0826301
0.0826403
0.0826623
0.0826959
0.0827409
0.0827967
0.0828623
0.0829369
0.0830216
0.0831109
0.0831944
0.0832702
0.0833417
0.0834113
0.0834811
0.0835528
0.0836281
0.0837086
0.0837943
0.0838821
0.0839642
0.0840312
0.0840763
0.0840989
0.0841048
0.0829643
0.082947
0.0829145
0.0828704
0.0828224
0.0827828
0.0827611
0.0827592
0.0827758
0.0828089
0.0828564
0.0829157
0.082984
0.0830588
0.0831383
0.0832229
0.0833069
0.0833816
0.0834469
0.0835064
0.0835627
0.083618
0.0836738
0.0837318
0.0837934
0.0838598
0.0839297
0.0839981
0.0840569
0.084099
0.0841217
0.0841283
0.0831595
0.083144
0.08312
0.0830871
0.0830472
0.0830116
0.0829924
0.0829934
0.0830144
0.0830526
0.0831047
0.0831663
0.0832339
0.0833042
0.0833758
0.0834487
0.0835182
0.0835782
0.0836292
0.0836746
0.0837168
0.0837576
0.0837982
0.0838398
0.0838839
0.0839317
0.0839831
0.0840357
0.0840836
0.0841203
0.0841417
0.0841487
0.0833934
0.0833858
0.0833805
0.0833693
0.0833486
0.083326
0.0833133
0.083316
0.083335
0.0833683
0.0834123
0.0834631
0.0835171
0.0835717
0.0836259
0.0836795
0.0837296
0.083772
0.0838074
0.0838385
0.083867
0.0838941
0.083921
0.0839482
0.0839769
0.0840079
0.0840419
0.0840779
0.0841126
0.0841412
0.0841594
0.0841662
0.0836744
0.0836795
0.0836912
0.0836963
0.0836921
0.0836828
0.0836765
0.0836784
0.0836903
0.0837113
0.0837389
0.0837705
0.0838037
0.0838368
0.0838692
0.0839009
0.0839301
0.0839545
0.0839748
0.0839924
0.0840084
0.0840236
0.0840384
0.0840534
0.084069
0.0840859
0.0841045
0.0841246
0.084145
0.0841631
0.0841756
0.0841809
0.0840156
0.0840206
0.0840287
0.0840334
0.0840342
0.0840323
0.0840305
0.084031
0.0840348
0.0840416
0.0840508
0.0840612
0.0840721
0.0840829
0.0840935
0.0841037
0.0841131
0.084121
0.0841274
0.084133
0.0841381
0.0841429
0.0841476
0.0841522
0.0841571
0.0841623
0.084168
0.0841743
0.0841808
0.0841869
0.0841914
0.0841936
)
;

boundaryField
{
    movingWall
    {
        type            fixedValue;
        value           uniform 0.0842;
    }
    fixedWalls
    {
        type            zeroGradient;
    }
    floor
    {
        type            zeroGradient;
    }
    frontAndBack
    {
        type            empty;
    }
}


// ************************************************************************* //
