/*--------------------------------*- C++ -*----------------------------------*\
| =========                 |                                                 |
| \\      /  F ield         | OpenFOAM: The Open Source CFD Toolbox           |
|  \\    /   O peration     | Version:  2212                                  |
|   \\  /    A nd           | Website:  www.openfoam.com                      |
|    \\/     M anipulation  |                                                 |
\*---------------------------------------------------------------------------*/
FoamFile
{
    version     2.0;
    format      ascii;
    arch        "LSB;label=64;scalar=64";
    class       volScalarField;
    location    "800";
    object      p_rgh;
}
// * * * * * * * * * * * * * * * * * * * * * * * * * * * * * * * * * * * * * //

dimensions      [0 2 -2 0 0 0 0];

internalField   nonuniform List<scalar> 
1024
(
0.0431951
0.0431922
0.0431887
0.0431861
0.0431853
0.0431865
0.04319
0.0431978
0.0432131
0.043241
0.0432868
0.0433534
0.0434319
0.0434922
0.0434914
0.0433858
0.043235
0.0430843
0.0429681
0.0428851
0.0428281
0.0427899
0.0427649
0.042749
0.0427391
0.0427327
0.0427286
0.0427263
0.042726
0.0427277
0.0427305
0.0427328
0.0432017
0.0431989
0.0431959
0.0431943
0.0431943
0.0431961
0.0432001
0.0432082
0.0432238
0.0432518
0.0432977
0.0433644
0.043443
0.0435032
0.0435024
0.0433971
0.0432461
0.0430949
0.0429783
0.0428948
0.0428375
0.0427989
0.0427737
0.0427575
0.0427473
0.0427408
0.0427364
0.0427338
0.042733
0.042734
0.0427363
0.0427387
0.0432147
0.0432112
0.0432087
0.0432087
0.0432105
0.043214
0.0432194
0.0432288
0.0432456
0.0432749
0.0433224
0.0433911
0.0434714
0.0435326
0.043532
0.0434262
0.0432737
0.0431207
0.0430022
0.0429173
0.0428587
0.042819
0.0427928
0.0427757
0.0427645
0.042757
0.0427516
0.0427477
0.0427454
0.0427452
0.0427472
0.0427502
0.043232
0.0432276
0.0432257
0.0432281
0.0432332
0.0432399
0.0432483
0.0432603
0.0432798
0.0433121
0.0433628
0.0434351
0.0435178
0.0435801
0.0435794
0.0434739
0.0433198
0.0431647
0.0430434
0.0429558
0.0428948
0.042853
0.0428247
0.0428056
0.0427925
0.0427827
0.0427747
0.0427678
0.0427627
0.0427606
0.0427622
0.0427659
0.0432484
0.0432435
0.0432432
0.0432494
0.0432599
0.0432721
0.0432854
0.0433019
0.0433258
0.0433624
0.0434172
0.0434918
0.043575
0.0436362
0.0436335
0.0435324
0.0433802
0.0432256
0.0431027
0.043012
0.0429481
0.0429032
0.0428716
0.0428491
0.0428323
0.0428184
0.0428055
0.0427934
0.0427834
0.0427779
0.0427783
0.0427824
0.0432547
0.0432503
0.043253
0.0432656
0.0432842
0.0433048
0.0433258
0.0433489
0.0433783
0.0434192
0.0434764
0.043549
0.0436285
0.0436854
0.0436791
0.0435872
0.0434436
0.0432951
0.0431746
0.0430831
0.0430171
0.042969
0.0429332
0.0429058
0.0428833
0.0428625
0.0428416
0.0428209
0.0428031
0.0427918
0.0427897
0.0427936
0.0432392
0.0432364
0.0432441
0.0432657
0.0432961
0.0433289
0.0433607
0.0433922
0.0434271
0.04347
0.0435251
0.0435917
0.0436645
0.0437157
0.0437057
0.0436251
0.0434955
0.0433595
0.043247
0.0431601
0.0430952
0.0430454
0.0430055
0.0429719
0.0429411
0.04291
0.0428771
0.0428435
0.042814
0.0427944
0.0427879
0.0427906
0.0431914
0.043191
0.0432053
0.0432387
0.0432848
0.043334
0.0433797
0.0434208
0.04346
0.0435019
0.0435507
0.04361
0.0436773
0.043725
0.043713
0.0436416
0.0435264
0.0434055
0.0433057
0.0432299
0.0431707
0.0431225
0.0430801
0.0430398
0.0429985
0.0429533
0.0429036
0.0428522
0.0428069
0.0427761
0.0427639
0.0427647
0.0431057
0.0431083
0.04313
0.043177
0.0432421
0.0433115
0.0433738
0.0434251
0.0434673
0.0435059
0.0435484
0.0436037
0.0436713
0.0437198
0.0437077
0.0436407
0.0435352
0.0434271
0.0433408
0.0432786
0.0432303
0.0431884
0.0431464
0.0431
0.0430464
0.0429835
0.0429119
0.042838
0.0427734
0.0427299
0.0427112
0.0427096
0.0429835
0.0429889
0.0430176
0.0430784
0.0431641
0.043256
0.0433371
0.0433991
0.0434437
0.0434798
0.0435201
0.0435795
0.043656
0.0437103
0.0436985
0.0436307
0.0435282
0.043426
0.0433495
0.0433002
0.0432658
0.0432339
0.0431948
0.0431432
0.0430762
0.0429922
0.0428947
0.042795
0.04271
0.0426543
0.0426299
0.0426261
0.0428303
0.0428381
0.0428723
0.0429451
0.0430503
0.0431654
0.0432661
0.0433395
0.0433878
0.0434248
0.0434711
0.0435458
0.0436423
0.0437066
0.0436938
0.0436205
0.0435145
0.0434091
0.043335
0.0432951
0.043275
0.0432545
0.0432196
0.0431627
0.0430802
0.0429725
0.0428471
0.042722
0.0426201
0.0425562
0.0425286
0.042523
0.042652
0.0426616
0.0426992
0.0427799
0.042901
0.0430372
0.0431575
0.0432434
0.0432978
0.043342
0.0434057
0.0435116
0.0436419
0.0437193
0.0437031
0.0436207
0.0435049
0.0433879
0.0433032
0.0432646
0.0432586
0.0432483
0.0432152
0.0431498
0.0430493
0.042917
0.0427673
0.0426249
0.0425166
0.0424535
0.0424268
0.0424205
0.0424525
0.042463
0.0425013
0.0425844
0.0427143
0.0428669
0.0430054
0.0431052
0.0431697
0.0432296
0.0433273
0.0434876
0.0436682
0.0437607
0.0437389
0.0436459
0.0435151
0.0433781
0.0432703
0.0432085
0.0431951
0.0431974
0.043162
0.0430823
0.0429634
0.0428179
0.0426664
0.0425329
0.0424361
0.0423808
0.0423573
0.0423508
0.042236
0.0422463
0.0422817
0.0423595
0.0424879
0.0426484
0.0428018
0.0429167
0.042996
0.043083
0.0432392
0.0434882
0.043737
0.0438454
0.043819
0.0437181
0.0435751
0.0434158
0.0432708
0.0431569
0.043087
0.0430595
0.0430217
0.0429516
0.0428501
0.0427272
0.0426017
0.0424942
0.0424184
0.0423762
0.0423581
0.0423525
0.0420149
0.0420227
0.0420512
0.0421167
0.0422297
0.0423822
0.0425436
0.0426748
0.0427768
0.0429074
0.0431543
0.0435343
0.0438636
0.0439887
0.0439664
0.0438729
0.0437396
0.0435829
0.0434218
0.0432656
0.0431237
0.0430069
0.0429294
0.0428792
0.0428137
0.0427261
0.0426332
0.0425548
0.0425022
0.0424753
0.0424656
0.042463
0.0418315
0.0418297
0.04184
0.0418806
0.0419655
0.0420937
0.0422455
0.0423952
0.0425414
0.0427578
0.0431451
0.0436579
0.0440573
0.0442035
0.044211
0.0441627
0.0440927
0.0440131
0.043934
0.0438596
0.0437876
0.0437087
0.0436073
0.0434667
0.0433039
0.0431366
0.0429905
0.0429039
0.0428606
0.0428461
0.0428477
0.0428524
0.0417928
0.0417674
0.0417358
0.0417247
0.0417571
0.0418425
0.0419756
0.0421602
0.0424497
0.0429519
0.0436597
0.044252
0.0444996
0.0445748
0.0445907
0.044596
0.0445973
0.0446073
0.044634
0.0446838
0.0447556
0.0448402
0.0449214
0.044978
0.0449873
0.0449308
0.0447981
0.0445897
0.0443694
0.0441932
0.0440894
0.0440525
0.0419479
0.0418908
0.0418005
0.0417135
0.0416654
0.041679
0.0417633
0.0419355
0.0422708
0.0429077
0.0436945
0.0443006
0.0446191
0.0447843
0.0448685
0.044879
0.0448723
0.044879
0.0448998
0.0449398
0.045001
0.0450812
0.0451729
0.0452646
0.0453429
0.0453967
0.0454208
0.045415
0.0453839
0.0453369
0.0452889
0.0452566
0.0422853
0.0422009
0.0420554
0.0418898
0.0417509
0.0416771
0.041693
0.0418279
0.0421501
0.0427551
0.0435448
0.0442216
0.0445871
0.0447952
0.0449216
0.0449866
0.045004
0.0450018
0.0450024
0.0450099
0.0450278
0.0450591
0.0451052
0.0451637
0.0452277
0.0452873
0.0453346
0.0453654
0.0453811
0.0453854
0.045382
0.0453758
0.0427323
0.0426327
0.0424495
0.0422214
0.0420011
0.0418406
0.0417811
0.0418624
0.0421431
0.0426844
0.0434027
0.0440536
0.0444745
0.0447266
0.044889
0.0450011
0.0450656
0.0450768
0.0450783
0.045076
0.0450698
0.0450644
0.0450658
0.0450806
0.0451112
0.045151
0.0451915
0.0452245
0.0452467
0.0452591
0.0452636
0.0452624
0.0432077
0.0431056
0.0429067
0.0426418
0.0423622
0.0421287
0.0419975
0.0420178
0.0422414
0.0427021
0.043324
0.0439186
0.0443504
0.0446274
0.0448056
0.0449251
0.0450068
0.0450637
0.0450977
0.0451171
0.0451172
0.0451067
0.0450905
0.0450764
0.0450774
0.0450948
0.0451231
0.0451522
0.0451746
0.045188
0.0451931
0.0451919
0.0436491
0.0435538
0.0433587
0.0430831
0.0427716
0.0424879
0.0422995
0.042264
0.0424272
0.0428035
0.0433222
0.0438374
0.044241
0.0445163
0.0446952
0.0448141
0.0448983
0.0449723
0.0450348
0.0450859
0.0451213
0.0451399
0.0451423
0.0451262
0.045116
0.0451201
0.0451403
0.0451676
0.0451913
0.045206
0.0452111
0.0452093
0.0440227
0.0439385
0.0437595
0.0434935
0.0431761
0.0428694
0.0426462
0.0425694
0.0426799
0.042977
0.0433934
0.0438165
0.0441636
0.0444112
0.0445755
0.0446856
0.0447658
0.0448463
0.0449277
0.0450059
0.0450747
0.045129
0.0451669
0.0451884
0.0452016
0.0452099
0.0452324
0.0452656
0.0452964
0.0453155
0.0453217
0.0453195
0.0443175
0.0442448
0.0440863
0.0438422
0.0435397
0.0432363
0.0430043
0.0429073
0.0429776
0.0432049
0.043525
0.0438518
0.0441256
0.0443262
0.0444619
0.0445551
0.0446271
0.0447083
0.044801
0.0448988
0.0449953
0.0450844
0.0451635
0.045232
0.0452905
0.0453406
0.0453878
0.0454376
0.0454853
0.0455159
0.0455258
0.0455242
0.0445332
0.0444695
0.0443313
0.0441168
0.0438451
0.0435674
0.0433514
0.0432555
0.043301
0.0434684
0.0437002
0.0439326
0.0441261
0.0442681
0.0443644
0.0444327
0.0444923
0.0445685
0.044667
0.0447782
0.0448964
0.0450168
0.0451371
0.045256
0.0453723
0.0454829
0.0455842
0.0456738
0.0457521
0.0458069
0.0458271
0.0458291
0.0446799
0.0446199
0.0444971
0.0443171
0.0440965
0.0438622
0.0436788
0.0436003
0.0436333
0.0437502
0.043902
0.0440455
0.0441583
0.0442364
0.0442863
0.0443234
0.0443659
0.0444344
0.0445336
0.0446529
0.0447877
0.0449348
0.0450933
0.0452628
0.0454414
0.0456233
0.0457988
0.0459567
0.046088
0.0461875
0.0462328
0.0462461
0.04477
0.0447111
0.0446027
0.0444592
0.0442963
0.0441289
0.0439875
0.0439362
0.0439631
0.0440356
0.044115
0.0441763
0.0442116
0.0442248
0.0442249
0.0442271
0.0442495
0.0443089
0.0444054
0.0445295
0.044677
0.0448461
0.045038
0.0452543
0.0454939
0.0457508
0.0460122
0.0462606
0.0464777
0.0466495
0.0467484
0.0467893
0.0448063
0.0447522
0.0446658
0.0445673
0.0444673
0.0443697
0.0442851
0.0442611
0.0442818
0.0443118
0.0443243
0.0443098
0.0442726
0.0442235
0.0441747
0.0441418
0.0441438
0.0441939
0.0442874
0.044415
0.0445722
0.0447587
0.0449778
0.0452333
0.0455264
0.0458536
0.0462038
0.0465581
0.0468918
0.0471756
0.0473708
0.0474699
0.0447721
0.0447378
0.0446943
0.0446579
0.0446268
0.0445972
0.0445688
0.0445707
0.0445789
0.0445654
0.0445156
0.0444322
0.0443295
0.0442244
0.0441315
0.0440673
0.0440518
0.0440942
0.0441858
0.0443163
0.0444807
0.04468
0.044919
0.0452035
0.0455379
0.0459227
0.0463529
0.0468164
0.0472919
0.0477411
0.0480913
0.0483202
0.0446192
0.0446558
0.0447018
0.0447476
0.0447841
0.0448111
0.0448348
0.0448516
0.0448402
0.0447835
0.044677
0.0445336
0.0443755
0.0442238
0.0440954
0.0440069
0.0439784
0.0440157
0.0441065
0.0442391
0.0444083
0.0446156
0.0448671
0.0451698
0.0455308
0.0459547
0.0464449
0.047003
0.0476268
0.048294
0.0489244
0.049478
0.0441514
0.0445182
0.0447286
0.0448539
0.0449412
0.04501
0.0450605
0.0450791
0.0450458
0.0449509
0.0447981
0.044608
0.044408
0.0442226
0.0440696
0.043965
0.0439284
0.0439627
0.0440532
0.0441868
0.0443583
0.0445693
0.0448264
0.0451375
0.0455107
0.045954
0.0464775
0.0470976
0.0478423
0.0487521
0.0498614
0.0511242
0.0431472
0.0443701
0.0448212
0.0449652
0.0450652
0.0451474
0.0452028
0.0452157
0.0451662
0.0450468
0.0448662
0.044649
0.0444257
0.0442223
0.0440567
0.0439443
0.043904
0.0439369
0.0440271
0.0441608
0.0443327
0.0445444
0.0448025
0.0451151
0.0454906
0.0459384
0.0464726
0.0471209
0.0479407
0.0490451
0.0506571
0.0529256
)
;

boundaryField
{
    movingWall
    {
        type            fixedFluxPressure;
        gradient        uniform 0;
        value           nonuniform List<scalar> 
32
(
0.0431472
0.0443701
0.0448212
0.0449652
0.0450652
0.0451474
0.0452028
0.0452157
0.0451662
0.0450468
0.0448662
0.044649
0.0444257
0.0442223
0.0440567
0.0439443
0.043904
0.0439369
0.0440271
0.0441608
0.0443327
0.0445444
0.0448025
0.0451151
0.0454906
0.0459384
0.0464726
0.0471209
0.0479407
0.0490451
0.0506571
0.0529256
)
;
    }
    fixedWalls
    {
        type            fixedFluxPressure;
        gradient        uniform 0;
        value           nonuniform List<scalar> 
64
(
0.0431951
0.0432017
0.0432147
0.043232
0.0432484
0.0432547
0.0432392
0.0431914
0.0431057
0.0429835
0.0428303
0.042652
0.0424525
0.042236
0.0420149
0.0418315
0.0417928
0.0419479
0.0422853
0.0427323
0.0432077
0.0436491
0.0440227
0.0443175
0.0445332
0.0446799
0.04477
0.0448063
0.0447721
0.0446192
0.0441514
0.0431472
0.0427328
0.0427387
0.0427502
0.0427659
0.0427824
0.0427936
0.0427906
0.0427647
0.0427096
0.0426261
0.042523
0.0424205
0.0423508
0.0423525
0.042463
0.0428524
0.0440525
0.0452566
0.0453758
0.0452624
0.0451919
0.0452093
0.0453195
0.0455242
0.0458291
0.0462461
0.0467893
0.0474699
0.0483202
0.049478
0.0511242
0.0529256
)
;
    }
    floor
    {
        type            fixedFluxPressure;
        gradient        uniform 0;
        value           nonuniform List<scalar> 
32
(
0.0431951
0.0431922
0.0431887
0.0431861
0.0431853
0.0431865
0.04319
0.0431978
0.0432131
0.043241
0.0432868
0.0433534
0.0434319
0.0434922
0.0434914
0.0433858
0.043235
0.0430843
0.0429681
0.0428851
0.0428281
0.0427899
0.0427649
0.042749
0.0427391
0.0427327
0.0427286
0.0427263
0.042726
0.0427277
0.0427305
0.0427328
)
;
    }
    frontAndBack
    {
        type            empty;
    }
}


// ************************************************************************* //
