/*--------------------------------*- C++ -*----------------------------------*\
| =========                 |                                                 |
| \\      /  F ield         | OpenFOAM: The Open Source CFD Toolbox           |
|  \\    /   O peration     | Version:  2212                                  |
|   \\  /    A nd           | Website:  www.openfoam.com                      |
|    \\/     M anipulation  |                                                 |
\*---------------------------------------------------------------------------*/
FoamFile
{
    version     2.0;
    format      ascii;
    arch        "LSB;label=64;scalar=64";
    class       surfaceScalarField;
    location    "800";
    object      phi;
}
// * * * * * * * * * * * * * * * * * * * * * * * * * * * * * * * * * * * * * //

dimensions      [0 3 -1 0 0 0 0];

oriented        oriented;

internalField   nonuniform List<scalar> 
1984
(
2.89487e-10
-2.88426e-10
-8.38948e-09
8.67889e-09
-2.88045e-08
2.04149e-08
-5.72932e-08
2.84886e-08
-8.9742e-08
3.24487e-08
-1.24589e-07
3.48472e-08
-1.62113e-07
3.75239e-08
-2.0211e-07
3.99965e-08
-2.42024e-07
3.99145e-08
-2.75888e-07
3.38637e-08
-2.93069e-07
1.71814e-08
-2.76083e-07
-1.6987e-08
-2.04295e-07
-7.17879e-08
-6.81893e-08
-1.36105e-07
1.1007e-07
-1.78259e-07
2.35928e-07
-1.25858e-07
2.88594e-07
-5.26656e-08
2.97383e-07
-8.78953e-09
2.83887e-07
1.3496e-08
2.60677e-07
2.32101e-08
2.33875e-07
2.68015e-08
2.06132e-07
2.77429e-08
1.78675e-07
2.74576e-08
1.5214e-07
2.65341e-08
1.26655e-07
2.54849e-08
1.0162e-07
2.50358e-08
7.60648e-08
2.55547e-08
4.99949e-08
2.60698e-08
2.57811e-08
2.42136e-08
7.92548e-09
1.78556e-08
4.28678e-11
7.88267e-09
4.27254e-11
-1.01242e-08
9.83569e-09
-4.90297e-08
4.75842e-08
-1.18883e-07
9.02678e-08
-2.11959e-07
1.21565e-07
-3.18438e-07
1.38928e-07
-4.3254e-07
1.48949e-07
-5.5185e-07
1.56834e-07
-6.72553e-07
1.60699e-07
-7.85012e-07
1.52373e-07
-8.71109e-07
1.19961e-07
-9.02252e-07
4.83243e-08
-8.35006e-07
-8.42327e-08
-6.20267e-07
-2.86528e-07
-2.30329e-07
-5.26044e-07
2.85829e-07
-6.94417e-07
6.779e-07
-5.1793e-07
8.54718e-07
-2.29484e-07
9.04057e-07
-5.81287e-08
8.83522e-07
3.40308e-08
8.28144e-07
7.85885e-08
7.564e-07
9.85457e-08
6.77352e-07
1.06791e-07
5.95424e-07
1.09385e-07
5.12927e-07
1.09031e-07
4.30612e-07
1.078e-07
3.47697e-07
1.07951e-07
2.63151e-07
1.101e-07
1.78744e-07
1.10477e-07
1.01556e-07
1.01401e-07
4.23239e-08
7.70874e-08
8.8889e-09
4.13174e-08
8.93168e-09
-2.98361e-08
3.96717e-08
-1.16892e-07
1.3464e-07
-2.55434e-07
2.28809e-07
-4.31008e-07
2.97139e-07
-6.28126e-07
3.36045e-07
-8.35658e-07
3.56481e-07
-1.04544e-06
3.66617e-07
-1.24676e-06
3.62015e-07
-1.42101e-06
3.2663e-07
-1.53835e-06
2.37292e-07
-1.55517e-06
6.51518e-08
-1.40999e-06
-2.2942e-07
-1.03977e-06
-6.56746e-07
-4.08748e-07
-1.15706e-06
4.2704e-07
-1.5302e-06
1.10026e-06
-1.19115e-06
1.43095e-06
-5.60172e-07
1.55239e-06
-1.79575e-07
1.55143e-06
3.49938e-08
1.48239e-06
1.47629e-07
1.37688e-06
2.04052e-07
1.25141e-06
2.32261e-07
1.11444e-06
2.46354e-07
9.70525e-07
2.52949e-07
8.21754e-07
2.5657e-07
6.685e-07
2.61205e-07
5.11485e-07
2.67116e-07
3.55467e-07
2.66495e-07
2.11935e-07
2.44933e-07
9.70767e-08
1.91945e-07
2.47564e-08
1.13638e-07
3.3688e-08
-5.62939e-08
9.59655e-08
-2.07221e-07
2.85567e-07
-4.32868e-07
4.54456e-07
-7.06961e-07
5.71231e-07
-1.00594e-06
6.35026e-07
-1.31182e-06
6.62357e-07
-1.60882e-06
6.63618e-07
-1.87781e-06
6.3101e-07
-2.09135e-06
5.40171e-07
-2.21013e-06
3.56064e-07
-2.17958e-06
3.46035e-08
-1.93119e-06
-4.77807e-07
-1.40309e-06
-1.18484e-06
-5.65733e-07
-1.99442e-06
5.24375e-07
-2.62031e-06
1.45193e-06
-2.11871e-06
1.95625e-06
-1.06448e-06
2.1807e-06
-4.04027e-07
2.23113e-06
-1.54404e-08
2.17445e-06
2.04308e-07
2.05508e-06
3.23419e-07
1.89674e-06
3.90608e-07
1.71203e-06
4.31066e-07
1.50802e-06
4.56952e-07
1.28886e-06
4.75729e-07
1.05735e-06
4.92714e-07
8.17394e-07
5.07076e-07
5.77486e-07
5.06404e-07
3.53593e-07
4.68826e-07
1.6842e-07
3.77118e-07
4.53673e-08
2.3669e-07
7.90553e-08
-8.55803e-08
1.81546e-07
-3.06918e-07
5.06904e-07
-6.27361e-07
7.74899e-07
-1.0055e-06
9.49368e-07
-1.4067e-06
1.03623e-06
-1.80423e-06
1.05989e-06
-2.17411e-06
1.0335e-06
-2.48935e-06
9.46246e-07
-2.71552e-06
7.66344e-07
-2.80744e-06
4.4798e-07
-2.70454e-06
-6.82977e-08
-2.34315e-06
-8.39196e-07
-1.67077e-06
-1.85722e-06
-6.74175e-07
-2.99102e-06
5.74221e-07
-3.86871e-06
1.69338e-06
-3.23786e-06
2.37311e-06
-1.74422e-06
2.72033e-06
-7.51249e-07
2.84963e-06
-1.44739e-07
2.83314e-06
2.208e-07
2.7244e-06
4.32163e-07
2.55326e-06
5.61749e-07
2.33568e-06
6.48646e-07
2.08088e-06
7.1175e-07
1.79523e-06
7.61378e-07
1.4847e-06
8.03239e-07
1.1573e-06
8.34479e-07
8.26167e-07
8.37538e-07
5.12953e-07
7.8204e-07
2.48689e-07
6.41383e-07
6.84741e-08
4.16905e-07
1.4753e-07
-1.1021e-07
2.91756e-07
-3.92886e-07
7.8958e-07
-7.98526e-07
1.18054e-06
-1.27113e-06
1.42197e-06
-1.76299e-06
1.52808e-06
-2.23689e-06
1.53379e-06
-2.6607e-06
1.45731e-06
-3.00129e-06
1.28684e-06
-3.22011e-06
9.85162e-07
-3.26968e-06
4.97549e-07
-3.09277e-06
-2.45203e-07
-2.63299e-06
-1.29898e-06
-1.84441e-06
-2.6458e-06
-7.38865e-07
-4.09656e-06
5.71571e-07
-5.17914e-06
1.80805e-06
-4.47434e-06
2.64688e-06
-2.58304e-06
3.11768e-06
-1.22205e-06
3.33804e-06
-3.651e-07
3.38216e-06
1.76671e-07
3.3053e-06
5.09023e-07
3.1422e-06
7.24853e-07
2.91052e-06
8.80324e-07
2.62031e-06
1.00197e-06
2.27955e-06
1.10213e-06
1.89732e-06
1.18547e-06
1.48621e-06
1.24559e-06
1.06535e-06
1.2584e-06
6.64133e-07
1.18325e-06
3.23467e-07
9.82048e-07
8.96115e-08
6.5076e-07
2.37141e-07
-1.21982e-07
4.13738e-07
-4.40785e-07
1.10838e-06
-9.04974e-07
1.64473e-06
-1.44885e-06
1.96585e-06
-2.01141e-06
2.09065e-06
-2.54377e-06
2.06615e-06
-3.00599e-06
1.91952e-06
-3.36089e-06
1.64175e-06
-3.56892e-06
1.19319e-06
-3.58444e-06
5.13065e-07
-3.35684e-06
-4.728e-07
-2.83063e-06
-1.82519e-06
-1.95984e-06
-3.5166e-06
-7.95397e-07
-5.261e-06
4.99603e-07
-6.47414e-06
1.79169e-06
-5.76644e-06
2.76575e-06
-3.5571e-06
3.34935e-06
-1.80565e-06
3.65498e-06
-6.70732e-07
3.76256e-06
6.90931e-08
3.72699e-06
5.44591e-07
3.58637e-06
8.65478e-07
3.3575e-06
1.10919e-06
3.04907e-06
1.3104e-06
2.66912e-06
1.48208e-06
2.22906e-06
1.62554e-06
1.74637e-06
1.72827e-06
1.24792e-06
1.75686e-06
7.73154e-07
1.65802e-06
3.73481e-07
1.38172e-06
1.0254e-07
9.21701e-07
3.39682e-07
-1.16969e-07
5.30708e-07
-4.37598e-07
1.42901e-06
-9.23009e-07
2.13014e-06
-1.50667e-06
2.54951e-06
-2.11673e-06
2.70071e-06
-2.69244e-06
2.64186e-06
-3.18651e-06
2.4136e-06
-3.55964e-06
2.01487e-06
-3.77351e-06
1.40706e-06
-3.78496e-06
5.24518e-07
-3.54334e-06
-7.14416e-07
-2.9835e-06
-2.38503e-06
-2.06501e-06
-4.43509e-06
-8.94702e-07
-6.43131e-06
3.22802e-07
-7.69165e-06
1.62372e-06
-7.06735e-06
2.71366e-06
-4.64704e-06
3.40321e-06
-2.49519e-06
3.78139e-06
-1.04891e-06
3.93938e-06
-8.88921e-08
3.94241e-06
5.41553e-07
3.82884e-06
9.79049e-07
3.61341e-06
1.32462e-06
3.30124e-06
1.62258e-06
2.89847e-06
1.88485e-06
2.4178e-06
2.1062e-06
1.88217e-06
2.26391e-06
1.32823e-06
2.3108e-06
8.07651e-07
2.17859e-06
3.81008e-07
1.80836e-06
1.01765e-07
1.20094e-06
4.41447e-07
-9.75797e-08
6.28288e-07
-3.86978e-07
1.71841e-06
-8.54469e-07
2.59763e-06
-1.44442e-06
3.13946e-06
-2.07983e-06
3.33612e-06
-2.68931e-06
3.25134e-06
-3.21853e-06
2.94282e-06
-3.62658e-06
2.42292e-06
-3.87585e-06
1.65633e-06
-3.92059e-06
5.69262e-07
-3.6991e-06
-9.35906e-07
-3.13386e-06
-2.95027e-06
-2.20795e-06
-5.361e-06
-1.09546e-06
-7.54379e-06
-2.04081e-08
-8.76671e-06
1.23999e-06
-8.32775e-06
2.43041e-06
-5.83746e-06
3.23656e-06
-3.30135e-06
3.69363e-06
-1.50598e-06
3.89513e-06
-2.90394e-07
3.9273e-06
5.09383e-07
3.83757e-06
1.06878e-06
3.63936e-06
1.52283e-06
3.33272e-06
1.92922e-06
2.92042e-06
2.29715e-06
2.41617e-06
2.61045e-06
1.84995e-06
2.83013e-06
1.27107e-06
2.88967e-06
7.44574e-07
2.70509e-06
3.35315e-07
2.21762e-06
8.47369e-08
1.45152e-06
5.26184e-07
-7.03642e-08
6.98652e-07
-3.04713e-07
1.95276e-06
-7.20788e-07
3.01371e-06
-1.28629e-06
3.70495e-06
-1.92824e-06
3.97807e-06
-2.56743e-06
3.89053e-06
-3.14189e-06
3.51728e-06
-3.60744e-06
2.88847e-06
-3.92329e-06
1.97217e-06
-4.03351e-06
6.79486e-07
-3.85839e-06
-1.11103e-06
-3.31846e-06
-3.4902e-06
-2.44488e-06
-6.23458e-06
-1.47274e-06
-8.51594e-06
-5.93796e-07
-9.64565e-06
5.2088e-07
-9.44243e-06
1.7781e-06
-7.09469e-06
2.727e-06
-4.25024e-06
3.30682e-06
-2.08581e-06
3.57761e-06
-5.61183e-07
3.64524e-06
4.41757e-07
3.58179e-06
1.13223e-06
3.40477e-06
1.69985e-06
3.10962e-06
2.22437e-06
2.69659e-06
2.71018e-06
2.18344e-06
3.1236e-06
1.61195e-06
3.40162e-06
1.0483e-06
3.45333e-06
5.69418e-07
3.18397e-06
2.32974e-07
2.55407e-06
5.20371e-08
1.63246e-06
5.78221e-07
-4.18733e-08
7.40525e-07
-2.08739e-07
2.11962e-06
-5.48488e-07
3.35345e-06
-1.06285e-06
4.21931e-06
-1.69526e-06
4.61048e-06
-2.36355e-06
4.55882e-06
-2.99651e-06
4.15025e-06
-3.54243e-06
3.43439e-06
-3.95191e-06
2.38165e-06
-4.15345e-06
8.81031e-07
-4.05074e-06
-1.21374e-06
-3.58438e-06
-3.95656e-06
-2.8595e-06
-6.95945e-06
-2.14964e-06
-9.2258e-06
-1.5381e-06
-1.02572e-05
-6.82687e-07
-1.02978e-05
5.13854e-07
-8.29123e-06
1.62326e-06
-5.35965e-06
2.4101e-06
-2.87264e-06
2.84033e-06
-9.9141e-07
2.99565e-06
2.86429e-07
2.98407e-06
1.14381e-06
2.84189e-06
1.84203e-06
2.56343e-06
2.50283e-06
2.1542e-06
3.1194e-06
1.64739e-06
3.63042e-06
1.10754e-06
3.94147e-06
6.21545e-07
3.93932e-06
2.6982e-07
3.53569e-06
7.66319e-08
2.74726e-06
6.80966e-09
1.70228e-06
5.85031e-07
-1.57898e-08
7.56315e-07
-1.10078e-07
2.21391e-06
-3.537e-07
3.59708e-06
-7.89612e-07
4.65522e-06
-1.39353e-06
5.2144e-06
-2.08936e-06
5.25465e-06
-2.79503e-06
4.85592e-06
-3.44521e-06
4.08457e-06
-3.97689e-06
2.91334e-06
-4.30177e-06
1.20591e-06
-4.31354e-06
-1.20197e-06
-4.00485e-06
-4.26526e-06
-3.57331e-06
-7.391e-06
-3.2807e-06
-9.51841e-06
-3.05553e-06
-1.04824e-05
-2.57118e-06
-1.07822e-05
-1.63361e-06
-9.2288e-06
-5.09175e-07
-6.48408e-06
5.66116e-07
-3.94793e-06
1.332e-06
-1.7573e-06
1.72922e-06
-1.10786e-07
1.83001e-06
1.04303e-06
1.75057e-06
1.92147e-06
1.48943e-06
2.76396e-06
1.08747e-06
3.52136e-06
6.29801e-07
4.08809e-06
2.21489e-07
4.34978e-06
-5.03598e-08
4.21117e-06
-1.53734e-07
3.63907e-06
-1.25582e-07
2.7191e-06
-4.75478e-08
1.62425e-06
5.37483e-07
7.76849e-09
7.48547e-07
-1.27735e-08
2.23446e-06
-1.39428e-07
3.72373e-06
-4.55888e-07
4.97169e-06
-9.93552e-07
5.75206e-06
-1.70038e-06
5.96147e-06
-2.48692e-06
5.64246e-06
-3.26906e-06
4.86671e-06
-3.96752e-06
3.6118e-06
-4.47945e-06
1.71784e-06
-4.69313e-06
-9.88289e-07
-4.68041e-06
-4.27798e-06
-4.7426e-06
-7.32881e-06
-5.06754e-06
-9.19347e-06
-5.43447e-06
-1.01154e-05
-5.49644e-06
-1.07202e-05
-4.98175e-06
-9.74348e-06
-4.05083e-06
-7.415e-06
-2.87654e-06
-5.12222e-06
-1.72797e-06
-2.90587e-06
-9.17528e-07
-9.21228e-07
-5.39584e-07
6.65082e-07
-4.96508e-07
1.87839e-06
-6.46587e-07
2.91404e-06
-8.73595e-07
3.74837e-06
-1.0537e-06
4.2682e-06
-1.09037e-06
4.38645e-06
-9.49036e-07
4.06983e-06
-6.74025e-07
3.36406e-06
-3.59044e-07
2.40412e-06
-1.06791e-07
1.372e-06
4.30692e-07
2.99599e-08
7.18587e-07
8.31017e-08
2.18131e-06
8.89354e-08
3.7179e-06
-5.89378e-08
5.11956e-06
-4.52917e-07
6.14604e-06
-1.10863e-06
6.61718e-06
-1.94908e-06
6.48292e-06
-2.87338e-06
5.79101e-06
-3.7903e-06
4.52871e-06
-4.5987e-06
2.52624e-06
-5.20904e-06
-3.77942e-07
-5.69739e-06
-3.78963e-06
-6.52074e-06
-6.50545e-06
-7.72611e-06
-7.9881e-06
-8.96424e-06
-8.8773e-06
-9.8725e-06
-9.81197e-06
-1.00653e-05
-9.55064e-06
-9.55645e-06
-7.9239e-06
-8.53595e-06
-6.14272e-06
-7.24041e-06
-4.20142e-06
-5.97986e-06
-2.18178e-06
-5.10029e-06
-2.1448e-07
-4.56411e-06
1.34221e-06
-4.15611e-06
2.50605e-06
-3.74059e-06
3.33285e-06
-3.24361e-06
3.77121e-06
-2.62839e-06
3.77124e-06
-1.91788e-06
3.35932e-06
-1.19549e-06
2.64167e-06
-5.73331e-07
1.78196e-06
-1.54308e-07
9.52973e-07
2.76383e-07
4.87499e-08
6.69837e-07
1.68752e-07
2.06131e-06
3.00171e-07
3.58648e-06
3.37425e-07
5.0823e-06
1.54243e-07
6.32923e-06
-3.45017e-07
7.11645e-06
-1.15792e-06
7.29582e-06
-2.18435e-06
6.81744e-06
-3.32156e-06
5.66592e-06
-4.49523e-06
3.69991e-06
-5.67583e-06
8.02657e-07
-7.0235e-06
-2.44196e-06
-8.9852e-06
-4.54375e-06
-1.13839e-05
-5.58942e-06
-1.37696e-05
-6.49156e-06
-1.58105e-05
-7.77103e-06
-1.70048e-05
-8.35641e-06
-1.72237e-05
-7.70495e-06
-1.66603e-05
-6.70609e-06
-1.54777e-05
-5.38405e-06
-1.38261e-05
-3.83337e-06
-1.18677e-05
-2.17286e-06
-1.00034e-05
-5.22087e-07
-8.26389e-06
7.66495e-07
-6.64004e-06
1.709e-06
-5.13313e-06
2.2643e-06
-3.7445e-06
2.38261e-06
-2.48202e-06
2.09684e-06
-1.41682e-06
1.57648e-06
-6.27075e-07
9.92214e-07
-1.56384e-07
4.82282e-07
1.19999e-07
5.81546e-08
6.11682e-07
2.17116e-07
1.90235e-06
4.33224e-07
3.37037e-06
6.10318e-07
4.90521e-06
6.15248e-07
6.3243e-06
3.14724e-07
7.41697e-06
-3.81401e-07
7.99194e-06
-1.4182e-06
7.85424e-06
-2.62879e-06
6.8765e-06
-3.94224e-06
5.01336e-06
-5.69558e-06
2.556e-06
-8.49624e-06
3.58695e-07
-1.20773e-05
-9.62666e-07
-1.57821e-05
-1.88465e-06
-1.92236e-05
-3.05002e-06
-2.22475e-05
-4.74718e-06
-2.43254e-05
-6.27846e-06
-2.5249e-05
-6.78143e-06
-2.5188e-05
-6.76701e-06
-2.42208e-05
-6.35127e-06
-2.23961e-05
-5.65805e-06
-1.97862e-05
-4.78283e-06
-1.65121e-05
-3.79616e-06
-1.29984e-05
-2.74718e-06
-9.55519e-06
-1.73425e-06
-6.43716e-06
-8.53733e-07
-3.88002e-06
-1.74527e-07
-2.02644e-06
2.43253e-07
-8.66293e-07
4.16331e-07
-2.64328e-07
3.90248e-07
-3.42949e-08
2.52248e-07
8.57042e-08
5.96743e-08
5.52008e-07
2.26611e-07
1.73541e-06
4.71294e-07
3.12569e-06
7.16686e-07
4.65982e-06
8.41095e-07
6.19989e-06
7.02206e-07
7.55586e-06
1.66487e-07
8.52766e-06
-8.62802e-07
8.88353e-06
-2.35577e-06
8.36947e-06
-4.22557e-06
6.88317e-06
-6.72504e-06
5.05547e-06
-1.00098e-05
3.64347e-06
-1.35293e-05
2.55685e-06
-1.68166e-05
1.40265e-06
-1.97079e-05
-1.58722e-07
-2.22243e-05
-2.2308e-06
-2.41487e-05
-4.35409e-06
-2.52391e-05
-5.69097e-06
-2.55551e-05
-6.45106e-06
-2.51023e-05
-6.80409e-06
-2.38656e-05
-6.89474e-06
-2.18529e-05
-6.79554e-06
-1.91297e-05
-6.51936e-06
-1.58294e-05
-6.04744e-06
-1.2201e-05
-5.36266e-06
-8.58822e-06
-4.46651e-06
-5.36678e-06
-3.39597e-06
-2.87643e-06
-2.2471e-06
-1.2432e-06
-1.21689e-06
-3.81368e-07
-4.71584e-07
-5.10427e-08
-7.80769e-08
3.46615e-08
7.88937e-08
4.73114e-07
2.88738e-07
1.52557e-06
6.00498e-07
2.81393e-06
9.5411e-07
4.30621e-06
1.25452e-06
5.89948e-06
1.38581e-06
7.42457e-06
1.23769e-06
8.67579e-06
7.06562e-07
9.41465e-06
-2.70866e-07
9.3469e-06
-1.65257e-06
8.26487e-06
-3.35272e-06
6.75562e-06
-5.20532e-06
5.49606e-06
-7.28911e-06
4.64064e-06
-9.57331e-06
3.68685e-06
-1.20129e-05
2.2809e-06
-1.42431e-05
-5.96434e-10
-1.58881e-05
-2.7091e-06
-1.69678e-05
-4.61128e-06
-1.76123e-05
-5.80654e-06
-1.78294e-05
-6.58703e-06
-1.75812e-05
-7.14297e-06
-1.68238e-05
-7.55286e-06
-1.55328e-05
-7.81037e-06
-1.37331e-05
-7.84721e-06
-1.15175e-05
-7.57817e-06
-9.03835e-06
-6.9457e-06
-6.49494e-06
-5.93937e-06
-4.11666e-06
-4.62539e-06
-2.17352e-06
-3.16004e-06
-8.58923e-07
-1.78618e-06
-1.85103e-07
-7.51897e-07
-1.50441e-07
9.54829e-08
3.77631e-07
3.50309e-07
1.27074e-06
7.36319e-07
2.42792e-06
1.20213e-06
3.84039e-06
1.67011e-06
5.4315e-06
2.04441e-06
7.05026e-06
2.23104e-06
8.48916e-06
2.15005e-06
9.49565e-06
1.73126e-06
9.76569e-06
9.1295e-07
9.08317e-06
-1.22367e-07
7.79094e-06
-1.18121e-06
6.55491e-06
-2.24431e-06
5.70374e-06
-3.40223e-06
4.84477e-06
-4.71864e-06
3.5973e-06
-6.34255e-06
1.62332e-06
-7.74921e-06
-1.30244e-06
-8.76293e-06
-3.59755e-06
-9.58821e-06
-4.98126e-06
-1.02471e-05
-5.92813e-06
-1.07053e-05
-6.68483e-06
-1.09098e-05
-7.34836e-06
-1.07724e-05
-7.9477e-06
-1.02118e-05
-8.40784e-06
-9.19932e-06
-8.59065e-06
-7.76402e-06
-8.381e-06
-6.01376e-06
-7.68964e-06
-4.13425e-06
-6.50489e-06
-2.38033e-06
-4.91396e-06
-1.02357e-06
-3.14294e-06
-2.36677e-07
-1.53879e-06
-3.87119e-07
9.4485e-08
2.83147e-07
3.5619e-07
1.00904e-06
7.67503e-07
2.0166e-06
1.28886e-06
3.31904e-06
1.8582e-06
4.86216e-06
2.39757e-06
6.51089e-06
2.82838e-06
8.05835e-06
3.08306e-06
9.24097e-06
3.0977e-06
9.75104e-06
2.81623e-06
9.36465e-06
2.32331e-06
8.28386e-06
1.79994e-06
7.07828e-06
1.36316e-06
6.14051e-06
9.23923e-07
5.28401e-06
3.75309e-07
4.14592e-06
-3.63956e-07
2.36258e-06
-1.35975e-06
-3.06644e-07
-2.32626e-06
-2.63105e-06
-3.2124e-06
-4.09512e-06
-4.05768e-06
-5.08285e-06
-4.85113e-06
-5.89138e-06
-5.58701e-06
-6.61249e-06
-6.18399e-06
-7.35072e-06
-6.50218e-06
-8.08965e-06
-6.4416e-06
-8.65122e-06
-5.93108e-06
-8.89152e-06
-4.98515e-06
-8.63557e-06
-3.70785e-06
-7.78219e-06
-2.30543e-06
-6.31638e-06
-1.06534e-06
-4.38303e-06
-2.62605e-07
-2.34152e-06
-6.49724e-07
8.02613e-08
2.02885e-07
3.13234e-07
7.76067e-07
6.967e-07
1.63314e-06
1.20816e-06
2.80759e-06
1.80374e-06
4.26657e-06
2.42457e-06
5.89006e-06
3.00929e-06
7.47362e-06
3.50309e-06
8.74717e-06
3.84991e-06
9.40423e-06
3.99091e-06
9.22364e-06
3.94371e-06
8.33106e-06
3.83063e-06
7.19135e-06
3.77939e-06
6.19175e-06
3.76633e-06
5.29707e-06
3.6985e-06
4.21374e-06
3.4813e-06
2.57979e-06
2.92623e-06
2.48419e-07
2.09256e-06
-1.79737e-06
1.19899e-06
-3.20155e-06
2.89907e-07
-4.17376e-06
-6.25539e-07
-4.97593e-06
-1.54311e-06
-5.69491e-06
-2.45974e-06
-6.43409e-06
-3.26111e-06
-7.28829e-06
-3.83383e-06
-8.0785e-06
-4.027e-06
-8.69835e-06
-3.77312e-06
-8.88945e-06
-3.08373e-06
-8.47158e-06
-2.08899e-06
-7.31112e-06
-1.04374e-06
-5.42828e-06
-2.74591e-07
-3.11067e-06
-9.24315e-07
6.0408e-08
1.42477e-07
2.44229e-07
5.92246e-07
5.62658e-07
1.31471e-06
1.01232e-06
2.35793e-06
1.57107e-06
3.70782e-06
2.20225e-06
5.25888e-06
2.86417e-06
6.81171e-06
3.51528e-06
8.09606e-06
4.10441e-06
8.81509e-06
4.56531e-06
8.76275e-06
4.87166e-06
8.02471e-06
5.08635e-06
6.97666e-06
5.30514e-06
5.97296e-06
5.53626e-06
5.06595e-06
5.70291e-06
4.0471e-06
5.68674e-06
2.59596e-06
5.3512e-06
5.83953e-07
4.70489e-06
-1.15106e-06
3.89667e-06
-2.39332e-06
3.02906e-06
-3.30615e-06
2.11966e-06
-4.06653e-06
1.19289e-06
-4.76814e-06
2.41324e-07
-5.48252e-06
-7.28511e-07
-6.31846e-06
-1.63216e-06
-7.17484e-06
-2.28898e-06
-8.04154e-06
-2.5728e-06
-8.60562e-06
-2.39889e-06
-8.64549e-06
-1.80784e-06
-7.90217e-06
-9.90731e-07
-6.24539e-06
-2.81227e-07
-3.82017e-06
-1.20554e-06
3.89389e-08
1.03538e-07
1.63843e-07
4.67341e-07
3.95176e-07
1.08338e-06
7.48677e-07
2.00442e-06
1.22697e-06
3.22952e-06
1.81893e-06
4.66693e-06
2.50376e-06
6.12687e-06
3.25201e-06
7.34781e-06
4.01334e-06
8.05377e-06
4.71076e-06
8.06533e-06
5.28531e-06
7.45016e-06
5.7498e-06
6.51217e-06
6.1631e-06
5.55966e-06
6.54321e-06
4.68584e-06
6.83599e-06
3.75432e-06
6.92851e-06
2.50345e-06
6.70411e-06
8.08354e-07
6.19032e-06
-6.37279e-07
5.48574e-06
-1.68874e-06
4.67207e-06
-2.49249e-06
3.79689e-06
-3.19135e-06
2.90218e-06
-3.87343e-06
2.01351e-06
-4.59385e-06
1.08088e-06
-5.38583e-06
1.28068e-07
-6.22204e-06
-7.82657e-07
-7.13081e-06
-1.45392e-06
-7.93436e-06
-1.71253e-06
-8.38687e-06
-1.50113e-06
-8.11357e-06
-9.26129e-07
-6.82039e-06
-2.90791e-07
-4.45551e-06
-1.49633e-06
1.53811e-08
8.81572e-08
7.26911e-08
4.10031e-07
2.01954e-07
9.54113e-07
4.40915e-07
1.76546e-06
8.18675e-07
2.85176e-06
1.34907e-06
4.13653e-06
2.02879e-06
5.44715e-06
2.83672e-06
6.53989e-06
3.71788e-06
7.1726e-06
4.58169e-06
7.20152e-06
5.3453e-06
6.68656e-06
5.98623e-06
5.87124e-06
6.53359e-06
5.01231e-06
7.00569e-06
4.21373e-06
7.36791e-06
3.3921e-06
7.52607e-06
2.34529e-06
7.38684e-06
9.47578e-07
6.98889e-06
-2.39329e-07
6.40541e-06
-1.10525e-06
5.69863e-06
-1.78571e-06
4.91239e-06
-2.40511e-06
4.07893e-06
-3.03997e-06
3.21828e-06
-3.7332e-06
2.33194e-06
-4.49949e-06
1.43216e-06
-5.32226e-06
4.82933e-07
-6.18158e-06
-4.07352e-07
-7.04408e-06
-1.0267e-06
-7.76752e-06
-1.1735e-06
-7.96678e-06
-8.5386e-07
-7.14004e-06
-3.08859e-07
-5.00051e-06
-1.80519e-06
-1.37228e-08
1.0188e-07
-3.76728e-08
4.33981e-07
-2.59128e-08
9.42353e-07
9.14416e-08
1.64811e-06
3.76296e-07
2.56691e-06
8.51917e-07
3.66091e-06
1.5216e-06
4.77747e-06
2.36919e-06
5.69229e-06
3.33012e-06
6.21167e-06
4.30026e-06
6.23138e-06
5.18267e-06
5.80415e-06
5.93494e-06
5.11897e-06
6.56708e-06
4.38017e-06
7.09575e-06
3.68507e-06
7.50161e-06
2.98623e-06
7.71361e-06
2.13329e-06
7.66176e-06
9.99422e-07
7.38279e-06
3.96468e-08
6.93351e-06
-6.55975e-07
6.36638e-06
-1.21858e-06
5.71097e-06
-1.74971e-06
4.98378e-06
-2.31278e-06
4.19388e-06
-2.9433e-06
3.34611e-06
-3.65172e-06
2.44972e-06
-4.42587e-06
1.51245e-06
-5.24431e-06
5.50999e-07
-6.08263e-06
-3.14711e-07
-6.90181e-06
-8.08708e-07
-7.47278e-06
-7.65333e-07
-7.18341e-06
-3.36378e-07
-5.42947e-06
-2.14157e-06
-5.65514e-08
1.58431e-07
-1.79247e-07
5.56677e-07
-2.87466e-07
1.05057e-06
-2.8074e-07
1.64138e-06
-7.16007e-08
2.35777e-06
3.74061e-07
3.21525e-06
1.04608e-06
4.10545e-06
1.92381e-06
4.81456e-06
2.93211e-06
5.20337e-06
3.95835e-06
5.20514e-06
4.90267e-06
4.85982e-06
5.71601e-06
4.30563e-06
6.39913e-06
3.69704e-06
6.96791e-06
3.11629e-06
7.41466e-06
2.53948e-06
7.68898e-06
1.85897e-06
7.73286e-06
9.55545e-07
7.57698e-06
1.95526e-07
7.27167e-06
-3.50661e-07
6.85731e-06
-8.04219e-07
6.34873e-06
-1.24112e-06
5.74858e-06
-1.71263e-06
5.05414e-06
-2.24886e-06
4.26317e-06
-2.86075e-06
3.38112e-06
-3.54382e-06
2.4234e-06
-4.28659e-06
1.41882e-06
-5.07804e-06
4.21675e-07
-5.90467e-06
-3.7339e-07
-6.67772e-06
-6.38879e-07
-6.91792e-06
-3.66186e-07
-5.70216e-06
-2.50776e-06
-1.2597e-07
2.84402e-07
-3.64456e-07
7.95163e-07
-5.73158e-07
1.25927e-06
-6.35528e-07
1.70375e-06
-4.72089e-07
2.19433e-06
-3.34474e-08
2.77661e-06
6.59061e-07
3.41294e-06
1.56231e-06
3.91131e-06
2.59209e-06
4.17359e-06
3.63738e-06
4.15985e-06
4.60632e-06
3.89088e-06
5.4524e-06
3.45956e-06
6.17324e-06
2.9762e-06
6.78359e-06
2.50594e-06
7.2826e-06
2.04047e-06
7.63365e-06
1.50792e-06
7.778e-06
8.11196e-07
7.74171e-06
2.31815e-07
7.57188e-06
-1.80832e-07
7.29596e-06
-5.28299e-07
6.92022e-06
-8.6539e-07
6.43966e-06
-1.23206e-06
5.84377e-06
-1.65297e-06
5.12275e-06
-2.13973e-06
4.27464e-06
-2.69571e-06
3.31075e-06
-3.3227e-06
2.25945e-06
-4.02675e-06
1.17349e-06
-4.81871e-06
1.67708e-07
-5.67194e-06
-4.37953e-07
-6.31226e-06
-3.79174e-07
-5.76094e-06
-2.88693e-06
-2.28891e-07
5.13293e-07
-5.79689e-07
1.14596e-06
-8.38905e-07
1.51849e-06
-9.03232e-07
1.76808e-06
-7.25731e-07
2.01683e-06
-2.76649e-07
2.32753e-06
4.46164e-07
2.69013e-06
1.37309e-06
2.98438e-06
2.40555e-06
3.14113e-06
3.44967e-06
3.11573e-06
4.4281e-06
2.91246e-06
5.29972e-06
2.58794e-06
6.05924e-06
2.21668e-06
6.71666e-06
1.84851e-06
7.27157e-06
1.48556e-06
7.69386e-06
1.08564e-06
7.92129e-06
5.83769e-07
7.97698e-06
1.76122e-07
7.90694e-06
-1.10798e-07
7.7313e-06
-3.52649e-07
7.45408e-06
-5.88175e-07
7.06842e-06
-8.46405e-07
6.56097e-06
-1.14552e-06
5.91704e-06
-1.49579e-06
5.1264e-06
-1.90506e-06
4.18917e-06
-2.38547e-06
3.12199e-06
-2.95956e-06
1.96588e-06
-3.66261e-06
8.12784e-07
-4.51884e-06
-1.01886e-07
-5.39759e-06
-3.42612e-07
-5.52021e-06
-3.22954e-06
-3.51881e-07
8.65174e-07
-7.60375e-07
1.55446e-06
-9.61622e-07
1.71974e-06
-9.2497e-07
1.73143e-06
-6.59694e-07
1.75155e-06
-1.47336e-07
1.81517e-06
6.09789e-07
1.93301e-06
1.53744e-06
2.05673e-06
2.55467e-06
2.12389e-06
3.58508e-06
2.08533e-06
4.56312e-06
1.93442e-06
5.4496e-06
1.70145e-06
6.23239e-06
1.43389e-06
6.91291e-06
1.16799e-06
7.48754e-06
9.10927e-07
7.93105e-06
6.42128e-07
8.18654e-06
3.28278e-07
8.2802e-06
8.24607e-08
8.25751e-06
-8.81027e-08
8.13589e-06
-2.31037e-07
7.92022e-06
-3.725e-07
7.60436e-06
-5.30548e-07
7.17516e-06
-7.16317e-07
6.61621e-06
-9.36848e-07
5.91128e-06
-1.20013e-06
5.04768e-06
-1.52187e-06
4.02151e-06
-1.9334e-06
2.84785e-06
-2.48894e-06
1.58633e-06
-3.25732e-06
4.13832e-07
-4.22509e-06
-2.12433e-07
-4.89395e-06
-3.44198e-06
-4.63436e-07
1.32861e-06
-7.42361e-07
1.83338e-06
-6.705e-07
1.64788e-06
-3.76439e-07
1.43737e-06
8.44459e-08
1.29067e-06
7.04086e-07
1.19553e-06
1.4726e-06
1.16449e-06
2.36285e-06
1.16649e-06
3.32479e-06
1.16195e-06
4.29644e-06
1.11369e-06
5.22036e-06
1.01049e-06
6.05632e-06
8.65493e-07
6.7853e-06
7.04904e-07
7.40279e-06
5.50509e-07
7.90575e-06
4.07959e-07
8.27935e-06
2.68531e-07
8.48706e-06
1.2057e-07
8.55954e-06
9.98039e-09
8.53755e-06
-6.61169e-08
8.43664e-06
-1.30125e-07
8.26063e-06
-1.96486e-07
8.00365e-06
-2.7357e-07
7.65374e-06
-3.66406e-07
7.19535e-06
-4.78462e-07
6.61029e-06
-6.15072e-07
5.87727e-06
-7.88846e-07
4.97174e-06
-1.02786e-06
3.8698e-06
-1.387e-06
2.56944e-06
-1.95696e-06
1.17656e-06
-2.83222e-06
1.11375e-07
-3.82876e-06
-3.3306e-06
-3.83263e-07
1.71187e-06
-1.36753e-08
1.46379e-06
6.56372e-07
9.7783e-07
1.32518e-06
7.6856e-07
1.99289e-06
6.22957e-07
2.67872e-06
5.09694e-07
3.40274e-06
4.40476e-07
4.16796e-06
4.01272e-07
4.95678e-06
3.73132e-07
5.73148e-06
3.38983e-07
6.44975e-06
2.92224e-07
7.07889e-06
2.36346e-07
7.60365e-06
1.80151e-07
8.0236e-06
1.30552e-07
8.34318e-06
8.83869e-08
8.56152e-06
5.01917e-08
8.66812e-06
1.39638e-08
8.68944e-06
-1.13408e-08
8.65241e-06
-2.90889e-08
8.56734e-06
-4.50519e-08
8.43419e-06
-6.33303e-08
8.24668e-06
-8.60641e-08
7.99476e-06
-1.14489e-07
7.66586e-06
-1.49563e-07
7.24418e-06
-1.93391e-07
6.70725e-06
-2.51916e-07
6.01955e-06
-3.40158e-07
5.12429e-06
-4.91745e-07
3.94029e-06
-7.72957e-07
2.40282e-06
-1.29475e-06
7.40075e-07
-2.16601e-06
-2.59053e-06
1.71187e-06
3.17567e-06
4.1535e-06
4.92206e-06
5.54501e-06
6.05471e-06
6.49518e-06
6.89645e-06
7.26959e-06
7.60857e-06
7.90079e-06
8.13714e-06
8.31729e-06
8.44784e-06
8.53623e-06
8.58642e-06
8.60038e-06
8.58904e-06
8.55996e-06
8.5149e-06
8.45157e-06
8.36551e-06
8.25102e-06
8.10146e-06
7.90807e-06
7.65615e-06
7.31599e-06
6.82425e-06
6.05129e-06
4.75654e-06
2.59053e-06
)
;

boundaryField
{
    movingWall
    {
        type            calculated;
        value           uniform 0;
    }
    fixedWalls
    {
        type            calculated;
        value           uniform 0;
    }
    floor
    {
        type            calculated;
        value           uniform 0;
    }
    frontAndBack
    {
        type            empty;
        value           nonuniform List<scalar> 0();
    }
}


// ************************************************************************* //
