/*--------------------------------*- C++ -*----------------------------------*\
| =========                 |                                                 |
| \\      /  F ield         | OpenFOAM: The Open Source CFD Toolbox           |
|  \\    /   O peration     | Version:  2212                                  |
|   \\  /    A nd           | Website:  www.openfoam.com                      |
|    \\/     M anipulation  |                                                 |
\*---------------------------------------------------------------------------*/
FoamFile
{
    version     2.0;
    format      ascii;
    arch        "LSB;label=64;scalar=64";
    class       volScalarField;
    location    "800";
    object      SIC;
}
// * * * * * * * * * * * * * * * * * * * * * * * * * * * * * * * * * * * * * //

dimensions      [1 -3 0 0 0 0 0];

internalField   nonuniform List<scalar> 
1024
(
0.0910556
0.0910571
0.0910608
0.0910675
0.091078
0.091093
0.0911127
0.0911367
0.0911642
0.0911939
0.0912247
0.0912555
0.0912846
0.0913083
0.0913203
0.0913101
0.0912788
0.0912398
0.0912009
0.0911637
0.0911289
0.0910965
0.0910664
0.0910388
0.0910143
0.0909935
0.0909767
0.0909642
0.0909554
0.0909499
0.0909468
0.0909456
0.0910559
0.0910575
0.0910613
0.0910682
0.091079
0.0910943
0.0911144
0.0911388
0.0911666
0.0911966
0.0912277
0.0912588
0.0912882
0.0913122
0.0913243
0.0913138
0.091282
0.0912426
0.0912033
0.0911659
0.091131
0.0910984
0.0910682
0.0910405
0.0910157
0.0909946
0.0909777
0.0909648
0.0909559
0.0909502
0.0909471
0.0909458
0.0910567
0.0910583
0.0910623
0.0910696
0.091081
0.091097
0.0911179
0.091143
0.0911714
0.091202
0.0912338
0.0912659
0.0912964
0.0913217
0.0913343
0.0913227
0.0912892
0.0912486
0.0912085
0.0911706
0.0911352
0.0911023
0.0910718
0.0910438
0.0910187
0.0909971
0.0909795
0.0909662
0.0909569
0.090951
0.0909477
0.0909464
0.0910579
0.0910597
0.091064
0.0910718
0.091084
0.091101
0.0911229
0.0911491
0.0911785
0.0912102
0.0912435
0.0912775
0.0913107
0.0913385
0.0913522
0.0913385
0.0913016
0.0912585
0.0912167
0.0911776
0.0911414
0.091108
0.0910771
0.0910487
0.091023
0.0910007
0.0909824
0.0909684
0.0909585
0.0909522
0.0909487
0.0909473
0.0910597
0.0910616
0.0910662
0.0910747
0.0910877
0.091106
0.0911292
0.0911567
0.0911875
0.091221
0.0912568
0.0912945
0.0913323
0.0913647
0.0913805
0.0913633
0.0913205
0.0912728
0.0912279
0.0911868
0.0911493
0.0911151
0.0910835
0.0910545
0.0910281
0.091005
0.0909859
0.0909711
0.0909606
0.0909538
0.0909501
0.0909486
0.0910618
0.0910639
0.0910688
0.0910779
0.0910919
0.0911113
0.0911359
0.091165
0.0911977
0.0912339
0.0912738
0.0913174
0.0913626
0.0914022
0.0914208
0.0913987
0.0913471
0.0912923
0.0912424
0.0911979
0.0911583
0.0911227
0.0910903
0.0910605
0.0910335
0.0910096
0.0909896
0.090974
0.0909629
0.0909557
0.0909518
0.0909502
0.0910641
0.0910662
0.0910715
0.091081
0.0910958
0.0911163
0.0911422
0.0911731
0.0912084
0.0912485
0.0912943
0.0913465
0.0914025
0.091452
0.0914741
0.0914456
0.0913821
0.0913171
0.0912599
0.0912104
0.0911675
0.0911299
0.0910962
0.0910657
0.091038
0.0910135
0.0909929
0.0909767
0.0909651
0.0909576
0.0909535
0.0909518
0.0910662
0.0910684
0.0910738
0.0910836
0.0910989
0.0911201
0.0911473
0.0911801
0.0912186
0.0912639
0.0913179
0.0913818
0.0914522
0.0915143
0.0915401
0.0915038
0.0914255
0.091347
0.0912798
0.0912234
0.0911759
0.0911355
0.0911002
0.0910688
0.0910407
0.0910159
0.090995
0.0909786
0.0909668
0.0909592
0.090955
0.0909533
0.0910677
0.0910699
0.0910753
0.0910852
0.0911006
0.0911223
0.0911504
0.0911852
0.0912275
0.0912793
0.0913437
0.0914226
0.0915114
0.091589
0.0916181
0.0915724
0.0914764
0.091381
0.091301
0.0912356
0.0911822
0.0911381
0.0911009
0.0910686
0.0910403
0.0910157
0.0909951
0.090979
0.0909674
0.0909599
0.0909558
0.0909541
0.0910681
0.0910703
0.0910757
0.0910854
0.0911006
0.0911223
0.091151
0.0911878
0.0912341
0.0912937
0.0913708
0.0914687
0.0915804
0.0916762
0.0917081
0.0916503
0.0915336
0.0914178
0.091322
0.0912455
0.0911848
0.0911363
0.0910969
0.0910641
0.0910361
0.0910123
0.0909926
0.0909774
0.0909664
0.0909594
0.0909554
0.0909537
0.091067
0.0910692
0.0910744
0.0910838
0.0910985
0.0911198
0.0911488
0.0911872
0.0912379
0.0913064
0.0913992
0.0915208
0.0916612
0.0917782
0.0918119
0.0917393
0.0915985
0.0914581
0.0913427
0.0912522
0.0911824
0.0911287
0.0910871
0.091054
0.0910271
0.0910048
0.0909869
0.0909732
0.0909633
0.0909569
0.0909532
0.0909516
0.0910638
0.091066
0.0910711
0.09108
0.091094
0.0911145
0.0911433
0.0911831
0.0912385
0.0913175
0.0914298
0.091582
0.0917583
0.0919001
0.0919354
0.091846
0.0916795
0.0915103
0.0913695
0.0912596
0.0911769
0.0911157
0.091071
0.0910379
0.0910126
0.0909929
0.0909774
0.0909658
0.0909574
0.0909517
0.0909484
0.090947
0.0910577
0.0910599
0.0910649
0.0910734
0.0910866
0.091106
0.0911342
0.0911751
0.0912358
0.0913277
0.0914654
0.0916575
0.091879
0.0920501
0.0920892
0.0919872
0.0917998
0.0916013
0.0914273
0.091287
0.0911806
0.0911043
0.0910519
0.0910167
0.0909929
0.090976
0.0909635
0.0909543
0.0909476
0.0909431
0.0909404
0.0909392
0.0910473
0.0910495
0.0910544
0.0910626
0.0910749
0.0910932
0.0911205
0.0911626
0.0912295
0.0913381
0.0915098
0.0917545
0.0920322
0.0922395
0.0922918
0.0921949
0.0920078
0.091792
0.091583
0.0913978
0.0912465
0.0911325
0.0910542
0.0910045
0.0909744
0.0909565
0.0909458
0.0909394
0.0909361
0.0909349
0.090935
0.0909354
0.0910316
0.0910341
0.0910393
0.0910476
0.0910597
0.0910773
0.091104
0.0911474
0.0912219
0.0913523
0.091569
0.0918819
0.0922284
0.092483
0.0925709
0.0925201
0.0923838
0.0921953
0.0919801
0.0917595
0.091552
0.0913719
0.0912278
0.0911228
0.0910521
0.0910102
0.0909909
0.0909874
0.0909933
0.0910028
0.0910116
0.0910166
0.0910061
0.0910081
0.0910126
0.09102
0.0910311
0.0910479
0.0910749
0.0911227
0.0912126
0.0913797
0.0916615
0.0920584
0.0924795
0.0927903
0.0929456
0.0929999
0.0929928
0.0929255
0.0928056
0.0926479
0.0924677
0.0922803
0.0920996
0.0919372
0.0917992
0.0916909
0.0916148
0.0915693
0.0915484
0.091544
0.0915471
0.0915508
0.0910021
0.0910023
0.0910037
0.0910082
0.0910183
0.0910385
0.0910772
0.0911512
0.0912898
0.0915312
0.0918965
0.0923474
0.0927768
0.0930933
0.093302
0.0934594
0.0935874
0.0936817
0.0937402
0.0937639
0.0937529
0.0937091
0.0936359
0.0935387
0.0934248
0.0933028
0.0931821
0.0930731
0.0929856
0.0929251
0.0928912
0.0928781
0.0910556
0.0910529
0.0910492
0.0910474
0.0910522
0.0910706
0.0911139
0.0912001
0.0913564
0.0916114
0.0919706
0.092393
0.0928009
0.0931285
0.0933663
0.0935437
0.0936805
0.0937976
0.0939128
0.0940283
0.0941378
0.0942326
0.0943045
0.0943475
0.0943578
0.0943355
0.0942854
0.0942172
0.0941451
0.0940831
0.0940411
0.0940217
0.0911549
0.0911495
0.0911405
0.091131
0.091127
0.0911369
0.0911731
0.0912531
0.0913996
0.0916338
0.0919564
0.0923343
0.0927098
0.093028
0.0932666
0.0934333
0.0935388
0.0936167
0.0937025
0.0938078
0.0939299
0.0940603
0.094188
0.0943027
0.0943959
0.0944622
0.0945
0.0945117
0.0945039
0.0944862
0.0944688
0.0944588
0.0912771
0.0912701
0.0912572
0.0912413
0.0912281
0.0912267
0.0912496
0.0913133
0.091437
0.0916367
0.0919125
0.0922397
0.0925756
0.0928749
0.0931093
0.0932735
0.0933706
0.0934345
0.0935059
0.0936028
0.0937279
0.0938759
0.0940345
0.0941889
0.0943255
0.0944345
0.0945122
0.0945599
0.094583
0.0945894
0.0945875
0.0945844
0.0914039
0.0913962
0.0913811
0.0913609
0.0913406
0.0913287
0.0913375
0.0913822
0.0914793
0.0916418
0.0918697
0.0921452
0.0924376
0.0927112
0.0929385
0.093108
0.0932176
0.093293
0.0933694
0.0934665
0.0935916
0.0937443
0.0939173
0.0940969
0.0942665
0.0944109
0.0945204
0.0945934
0.0946342
0.0946516
0.0946554
0.0946544
0.0915278
0.0915197
0.0915031
0.0914798
0.091454
0.0914337
0.0914302
0.0914574
0.0915297
0.0916577
0.0918418
0.0920696
0.0923196
0.0925658
0.0927849
0.0929644
0.0930975
0.0931986
0.093293
0.0933991
0.093526
0.0936772
0.0938504
0.0940369
0.0942222
0.0943893
0.0945243
0.09462
0.0946779
0.0947056
0.094714
0.0947142
0.0916531
0.0916441
0.0916253
0.0915981
0.0915666
0.0915385
0.0915243
0.0915368
0.0915881
0.0916875
0.0918358
0.092025
0.0922405
0.0924643
0.0926783
0.092871
0.0930313
0.0931614
0.0932773
0.0933952
0.0935248
0.0936721
0.0938384
0.0940196
0.0942056
0.0943816
0.0945318
0.0946449
0.0947176
0.0947552
0.0947684
0.0947698
0.091792
0.0917812
0.0917585
0.0917252
0.091686
0.0916489
0.0916245
0.0916246
0.0916601
0.091739
0.0918631
0.0920276
0.0922222
0.0924335
0.0926474
0.0928541
0.0930385
0.0931923
0.093325
0.0934509
0.0935802
0.0937201
0.0938745
0.0940429
0.0942189
0.0943915
0.0945463
0.0946697
0.094754
0.0948006
0.0948187
0.0948214
0.0919592
0.0919456
0.0919173
0.0918764
0.0918284
0.0917819
0.0917483
0.0917395
0.0917657
0.0918345
0.0919482
0.0921031
0.0922903
0.0924979
0.0927138
0.0929301
0.093129
0.0932954
0.0934351
0.0935616
0.0936851
0.0938131
0.0939512
0.094101
0.0942599
0.0944203
0.0945703
0.0946964
0.094788
0.094842
0.0948648
0.094869
0.0921673
0.0921501
0.0921163
0.0920697
0.0920164
0.0919653
0.0919277
0.0919164
0.0919418
0.0920106
0.0921248
0.0922797
0.0924656
0.0926708
0.0928843
0.0930999
0.0932992
0.0934646
0.0936005
0.0937196
0.0938315
0.0939437
0.094062
0.0941894
0.094326
0.0944675
0.0946052
0.0947268
0.0948205
0.0948797
0.0949067
0.0949125
0.0924244
0.0924038
0.0923681
0.0923234
0.0922756
0.0922314
0.0922002
0.0921953
0.0922267
0.0923006
0.0924174
0.0925714
0.0927518
0.0929472
0.0931478
0.093349
0.0935341
0.0936861
0.0938086
0.0939136
0.0940096
0.0941033
0.0942001
0.0943034
0.0944148
0.0945328
0.094652
0.0947627
0.094853
0.0949141
0.0949443
0.0949519
0.0927358
0.0927139
0.0926843
0.0926546
0.092627
0.0926035
0.0925898
0.0925977
0.0926366
0.0927122
0.0928245
0.0929675
0.093131
0.0933044
0.0934798
0.0936539
0.0938127
0.0939418
0.0940445
0.094131
0.0942086
0.0942827
0.0943577
0.0944371
0.0945227
0.0946151
0.0947116
0.0948057
0.0948872
0.0949461
0.094978
0.0949871
0.093108
0.0930893
0.0930774
0.0930756
0.0930784
0.0930826
0.0930903
0.0931104
0.0931517
0.0932202
0.0933165
0.0934358
0.0935698
0.09371
0.0938503
0.0939881
0.094113
0.0942137
0.094293
0.0943591
0.0944173
0.0944721
0.0945267
0.0945837
0.0946451
0.094712
0.0947839
0.0948573
0.0949248
0.0949772
0.095008
0.0950182
0.0935526
0.0935453
0.093561
0.0935889
0.0936175
0.0936424
0.0936641
0.0936889
0.0937246
0.0937771
0.0938481
0.0939346
0.0940309
0.0941311
0.0942307
0.0943279
0.0944155
0.0944858
0.0945409
0.0945863
0.0946259
0.0946626
0.0946987
0.094736
0.0947759
0.0948196
0.0948673
0.094918
0.0949674
0.0950087
0.0950353
0.0950453
0.0940902
0.0941029
0.094139
0.0941767
0.0942101
0.0942373
0.0942588
0.0942785
0.0943019
0.0943336
0.0943752
0.0944258
0.094482
0.0945405
0.0945984
0.0946548
0.0947054
0.0947459
0.0947775
0.0948034
0.0948258
0.0948464
0.0948664
0.0948869
0.0949086
0.0949324
0.0949586
0.094987
0.0950161
0.0950423
0.0950608
0.0950687
0.0947454
0.0947555
0.0947746
0.0947919
0.0948064
0.094818
0.0948268
0.0948342
0.0948422
0.0948525
0.094866
0.0948823
0.0949004
0.0949193
0.094938
0.0949562
0.0949724
0.0949855
0.0949956
0.0950038
0.095011
0.0950175
0.0950238
0.0950302
0.095037
0.0950443
0.0950524
0.0950613
0.0950706
0.0950793
0.095086
0.0950892
)
;

boundaryField
{
    movingWall
    {
        type            fixedValue;
        value           uniform 0.0951;
    }
    fixedWalls
    {
        type            zeroGradient;
    }
    floor
    {
        type            zeroGradient;
    }
    frontAndBack
    {
        type            empty;
    }
}


// ************************************************************************* //
