/*--------------------------------*- C++ -*----------------------------------*\
| =========                 |                                                 |
| \\      /  F ield         | OpenFOAM: The Open Source CFD Toolbox           |
|  \\    /   O peration     | Version:  2212                                  |
|   \\  /    A nd           | Website:  www.openfoam.com                      |
|    \\/     M anipulation  |                                                 |
\*---------------------------------------------------------------------------*/
FoamFile
{
    version     2.0;
    format      ascii;
    arch        "LSB;label=64;scalar=64";
    class       volScalarField;
    location    "800";
    object      Xpr;
}
// * * * * * * * * * * * * * * * * * * * * * * * * * * * * * * * * * * * * * //

dimensions      [1 -3 0 0 0 0 0];

internalField   nonuniform List<scalar> 
1024
(
0.0815584
0.0815595
0.0815622
0.081567
0.0815746
0.0815853
0.0815994
0.0816166
0.0816362
0.0816573
0.0816791
0.0817007
0.0817209
0.0817372
0.081745
0.081737
0.081714
0.0816856
0.0816572
0.0816302
0.0816047
0.081581
0.0815589
0.0815386
0.0815205
0.0815051
0.0814927
0.0814833
0.0814768
0.0814727
0.0814704
0.0814695
0.0815586
0.0815598
0.0815625
0.0815675
0.0815752
0.0815862
0.0816006
0.0816181
0.0816379
0.0816592
0.0816811
0.081703
0.0817234
0.08174
0.0817478
0.0817396
0.0817162
0.0816875
0.0816589
0.0816317
0.0816062
0.0815824
0.0815602
0.0815398
0.0815215
0.0815059
0.0814933
0.0814838
0.0814772
0.081473
0.0814706
0.0814697
0.0815592
0.0815604
0.0815633
0.0815685
0.0815767
0.0815882
0.0816031
0.0816211
0.0816413
0.081663
0.0816855
0.081708
0.0817292
0.0817465
0.0817548
0.0817457
0.0817212
0.0816917
0.0816625
0.0816349
0.0816092
0.0815852
0.0815628
0.0815422
0.0815237
0.0815077
0.0814947
0.0814848
0.0814779
0.0814735
0.0814711
0.0814701
0.0815601
0.0815614
0.0815645
0.0815701
0.0815788
0.081591
0.0816067
0.0816255
0.0816464
0.0816689
0.0816923
0.0817162
0.0817392
0.0817583
0.0817673
0.0817567
0.0817298
0.0816985
0.0816682
0.0816398
0.0816135
0.0815892
0.0815666
0.0815457
0.0815267
0.0815103
0.0814968
0.0814864
0.0814791
0.0814744
0.0814718
0.0814707
0.0815614
0.0815627
0.0815661
0.0815721
0.0815815
0.0815946
0.0816112
0.0816308
0.0816528
0.0816765
0.0817017
0.0817281
0.0817544
0.0817767
0.0817869
0.0817738
0.0817427
0.0817083
0.0816759
0.0816461
0.081619
0.0815941
0.0815711
0.0815498
0.0815304
0.0815134
0.0814993
0.0814883
0.0814805
0.0814756
0.0814728
0.0814717
0.0815629
0.0815643
0.0815679
0.0815744
0.0815845
0.0815984
0.081616
0.0816367
0.08166
0.0816856
0.0817137
0.0817442
0.0817757
0.0818029
0.0818149
0.0817982
0.0817609
0.0817214
0.0816856
0.0816536
0.081625
0.0815992
0.0815757
0.081554
0.0815342
0.0815167
0.081502
0.0814904
0.0814822
0.0814769
0.081474
0.0814728
0.0815645
0.081566
0.0815698
0.0815767
0.0815873
0.0816019
0.0816205
0.0816425
0.0816675
0.0816959
0.0817282
0.0817647
0.0818037
0.0818377
0.081852
0.0818305
0.0817847
0.0817381
0.0816972
0.0816617
0.081631
0.0816039
0.0815796
0.0815575
0.0815373
0.0815194
0.0815042
0.0814923
0.0814838
0.0814782
0.0814752
0.081474
0.081566
0.0815676
0.0815715
0.0815785
0.0815895
0.0816047
0.0816241
0.0816475
0.0816748
0.0817068
0.0817448
0.0817895
0.0818385
0.0818812
0.0818977
0.0818705
0.081814
0.0817579
0.0817101
0.0816699
0.0816361
0.0816072
0.0815819
0.0815593
0.0815389
0.0815209
0.0815056
0.0814936
0.0814849
0.0814793
0.0814762
0.0814749
0.0815671
0.0815686
0.0815725
0.0815796
0.0815907
0.0816062
0.0816263
0.0816511
0.081681
0.0817176
0.0817629
0.0818182
0.0818799
0.0819332
0.0819517
0.0819173
0.0818482
0.0817802
0.0817235
0.0816772
0.0816394
0.0816081
0.0815816
0.0815586
0.0815382
0.0815204
0.0815055
0.0814937
0.0814852
0.0814797
0.0814767
0.0814754
0.0815674
0.0815689
0.0815728
0.0815797
0.0815906
0.0816061
0.0816267
0.0816528
0.0816857
0.0817277
0.081782
0.0818505
0.0819282
0.0819939
0.0820137
0.0819703
0.0818863
0.0818039
0.0817363
0.0816824
0.0816397
0.0816055
0.0815777
0.0815545
0.0815345
0.0815175
0.0815033
0.0814923
0.0814843
0.0814791
0.0814762
0.081475
0.0815666
0.0815681
0.0815719
0.0815786
0.0815891
0.0816043
0.081625
0.0816523
0.0816882
0.0817366
0.0818018
0.081887
0.0819847
0.0820648
0.0820853
0.0820307
0.0819294
0.0818297
0.0817484
0.081685
0.0816362
0.0815986
0.0815695
0.0815463
0.0815273
0.0815116
0.0814988
0.0814889
0.0814818
0.0814771
0.0814744
0.0814732
0.0815642
0.0815658
0.0815695
0.0815759
0.0815859
0.0816005
0.081621
0.0816493
0.0816885
0.0817442
0.0818233
0.0819299
0.0820526
0.0821495
0.0821702
0.0821032
0.0819834
0.0818634
0.0817645
0.0816877
0.0816301
0.0815877
0.0815566
0.0815337
0.0815161
0.0815023
0.0814914
0.0814831
0.0814771
0.081473
0.0814706
0.0814695
0.0815598
0.0815613
0.0815649
0.081571
0.0815805
0.0815943
0.0816144
0.0816434
0.0816863
0.0817512
0.0818481
0.0819827
0.0821369
0.0822537
0.0822763
0.0821997
0.0820648
0.0819241
0.081802
0.0817041
0.0816304
0.0815777
0.0815416
0.0815175
0.0815011
0.0814895
0.0814808
0.0814743
0.0814695
0.0814662
0.0814642
0.0814633
0.0815522
0.0815538
0.0815573
0.0815632
0.081572
0.081585
0.0816045
0.0816343
0.0816816
0.0817583
0.0818792
0.0820508
0.0822441
0.0823856
0.0824166
0.0823429
0.0822077
0.0820545
0.0819078
0.0817788
0.0816739
0.0815953
0.0815414
0.0815074
0.0814869
0.0814746
0.0814672
0.0814627
0.0814602
0.0814593
0.0814592
0.0814594
0.0815407
0.0815425
0.0815462
0.0815522
0.0815609
0.0815734
0.0815925
0.0816232
0.0816759
0.0817681
0.0819209
0.0821405
0.0823817
0.0825557
0.082611
0.082569
0.0824684
0.0823334
0.0821816
0.0820275
0.0818834
0.0817589
0.0816595
0.0815873
0.0815387
0.0815099
0.0814966
0.0814941
0.0814981
0.0815045
0.0815105
0.0815139
0.081522
0.0815235
0.0815267
0.081532
0.08154
0.081552
0.0815712
0.0816052
0.081669
0.0817872
0.0819862
0.082265
0.0825586
0.0827717
0.0828741
0.0829052
0.0828934
0.0828407
0.082753
0.0826406
0.0825139
0.0823835
0.0822584
0.0821464
0.0820514
0.081977
0.0819248
0.0818936
0.0818793
0.0818763
0.0818785
0.081881
0.0815191
0.0815192
0.0815202
0.0815233
0.0815305
0.0815449
0.0815725
0.0816251
0.0817235
0.0818945
0.0821526
0.0824697
0.0827694
0.0829876
0.0831288
0.0832326
0.0833139
0.0833708
0.083403
0.0834121
0.0833986
0.0833639
0.0833106
0.0832421
0.0831632
0.0830795
0.0829972
0.0829231
0.0828638
0.0828229
0.0828
0.0827911
0.0815585
0.0815565
0.0815536
0.0815521
0.0815552
0.0815682
0.0815989
0.0816602
0.0817714
0.0819524
0.0822069
0.082505
0.0827914
0.0830198
0.0831841
0.0833045
0.0833938
0.0834664
0.0835355
0.0836038
0.0836681
0.0837233
0.0837646
0.0837879
0.0837911
0.083774
0.0837393
0.0836935
0.0836454
0.0836042
0.0835764
0.0835635
0.0816316
0.0816276
0.0816208
0.0816136
0.0816102
0.0816168
0.0816422
0.081699
0.0818032
0.0819699
0.082199
0.0824667
0.0827318
0.0829558
0.0831233
0.0832395
0.0833106
0.0833589
0.0834091
0.0834698
0.0835402
0.0836156
0.0836897
0.0837565
0.0838112
0.0838502
0.0838726
0.0838795
0.0838746
0.0838636
0.0838528
0.0838466
0.0817216
0.0817165
0.0817068
0.0816948
0.0816847
0.0816829
0.0816986
0.0817435
0.0818314
0.0819737
0.08217
0.0824026
0.0826408
0.0828529
0.083019
0.0831354
0.0832031
0.0832443
0.0832869
0.0833435
0.0834165
0.0835028
0.0835952
0.0836852
0.0837649
0.0838286
0.0838743
0.0839027
0.083917
0.0839214
0.0839209
0.0839193
0.0818149
0.0818092
0.081798
0.0817829
0.0817675
0.0817581
0.0817635
0.0817947
0.0818635
0.0819793
0.0821418
0.0823381
0.0825461
0.0827407
0.0829024
0.0830232
0.0831003
0.0831505
0.083198
0.0832564
0.0833307
0.083421
0.0835229
0.0836283
0.0837277
0.0838121
0.0838763
0.0839192
0.0839435
0.0839543
0.0839571
0.0839569
0.0819052
0.0818992
0.0818871
0.0818699
0.0818508
0.0818354
0.081832
0.0818506
0.0819016
0.0819927
0.082124
0.0822865
0.0824646
0.0826397
0.0827955
0.0829227
0.0830156
0.0830835
0.0831438
0.0832093
0.0832862
0.0833768
0.0834798
0.0835901
0.0836992
0.0837972
0.0838762
0.0839324
0.0839665
0.0839831
0.0839886
0.083989
0.0819946
0.0819882
0.0819748
0.0819553
0.0819325
0.0819119
0.081901
0.0819092
0.0819453
0.0820158
0.0821215
0.0822562
0.0824093
0.0825677
0.0827186
0.0828536
0.0829641
0.0830511
0.0831261
0.0832002
0.08328
0.0833694
0.0834693
0.0835772
0.0836872
0.0837908
0.0838789
0.0839451
0.0839877
0.08401
0.0840181
0.0840192
0.0820907
0.0820833
0.0820676
0.0820444
0.082017
0.0819907
0.0819732
0.0819729
0.0819977
0.0820534
0.0821412
0.0822573
0.0823941
0.082542
0.0826909
0.0828336
0.082959
0.0830614
0.0831476
0.0832276
0.0833082
0.083394
0.0834875
0.0835884
0.083693
0.0837949
0.0838859
0.0839581
0.0840074
0.0840348
0.0840456
0.0840475
0.082203
0.0821938
0.0821748
0.0821471
0.0821144
0.0820825
0.0820593
0.0820531
0.0820713
0.0821192
0.0821984
0.0823058
0.0824352
0.0825781
0.0827262
0.0828734
0.0830071
0.0831174
0.0832083
0.0832892
0.0833668
0.083446
0.0835301
0.0836204
0.0837153
0.0838103
0.0838986
0.0839725
0.0840259
0.0840575
0.084071
0.0840737
0.0823395
0.0823282
0.0823058
0.0822748
0.0822393
0.0822049
0.0821795
0.0821719
0.082189
0.0822359
0.0823136
0.0824188
0.082545
0.082684
0.0828283
0.0829733
0.0831063
0.0832155
0.0833039
0.0833804
0.0834511
0.083521
0.0835935
0.0836707
0.0837526
0.0838367
0.0839178
0.0839891
0.0840438
0.0840782
0.0840941
0.0840977
0.0825057
0.0824923
0.0824689
0.0824395
0.0824079
0.0823784
0.0823575
0.082354
0.0823748
0.0824239
0.0825018
0.0826047
0.0827252
0.0828558
0.08299
0.0831242
0.0832469
0.0833469
0.0834267
0.0834943
0.0835552
0.0836138
0.0836735
0.0837364
0.0838034
0.0838738
0.0839442
0.0840091
0.0840618
0.0840972
0.0841148
0.0841194
0.0827051
0.0826909
0.0826716
0.082652
0.0826336
0.0826177
0.0826083
0.0826131
0.0826383
0.0826878
0.0827617
0.082856
0.082964
0.0830789
0.0831953
0.0833107
0.0834155
0.0835003
0.0835672
0.083623
0.0836724
0.083719
0.0837655
0.083814
0.0838657
0.0839209
0.0839781
0.0840333
0.0840808
0.0841149
0.0841334
0.0841387
0.0829419
0.0829299
0.082922
0.0829202
0.0829214
0.0829234
0.0829278
0.0829404
0.082967
0.0830114
0.0830742
0.0831522
0.0832402
0.0833324
0.083425
0.083516
0.0835983
0.0836643
0.0837161
0.0837587
0.083796
0.0838305
0.0838644
0.0838994
0.0839367
0.0839768
0.0840194
0.0840625
0.0841018
0.0841321
0.0841499
0.0841558
0.0832237
0.0832189
0.0832286
0.0832459
0.0832636
0.083279
0.0832924
0.083308
0.0833308
0.0833647
0.0834107
0.083467
0.0835299
0.0835956
0.0836611
0.0837252
0.0837828
0.0838289
0.0838648
0.0838942
0.0839196
0.0839428
0.0839653
0.0839883
0.0840125
0.0840388
0.0840672
0.084097
0.0841257
0.0841496
0.0841648
0.0841706
0.0835634
0.0835714
0.083594
0.0836177
0.0836386
0.0836556
0.083669
0.0836814
0.0836963
0.0837166
0.0837435
0.0837764
0.083813
0.0838512
0.0838893
0.0839264
0.0839597
0.0839863
0.0840069
0.0840237
0.084038
0.0840511
0.0840636
0.0840762
0.0840895
0.0841038
0.0841194
0.0841362
0.0841531
0.0841682
0.0841788
0.0841833
0.0839767
0.083983
0.083995
0.0840059
0.084015
0.0840223
0.0840278
0.0840324
0.0840375
0.0840441
0.0840528
0.0840634
0.0840752
0.0840875
0.0840998
0.0841117
0.0841225
0.084131
0.0841376
0.084143
0.0841475
0.0841517
0.0841556
0.0841596
0.0841637
0.0841681
0.084173
0.0841782
0.0841836
0.0841886
0.0841925
0.0841943
)
;

boundaryField
{
    movingWall
    {
        type            fixedValue;
        value           uniform 0.0842;
    }
    fixedWalls
    {
        type            zeroGradient;
    }
    floor
    {
        type            zeroGradient;
    }
    frontAndBack
    {
        type            empty;
    }
}


// ************************************************************************* //
