/*--------------------------------*- C++ -*----------------------------------*\
| =========                 |                                                 |
| \\      /  F ield         | OpenFOAM: The Open Source CFD Toolbox           |
|  \\    /   O peration     | Version:  2206                                  |
|   \\  /    A nd           | Website:  www.openfoam.com                      |
|    \\/     M anipulation  |                                                 |
\*---------------------------------------------------------------------------*/
FoamFile
{
    version     2.0;
    format      ascii;
    arch        "LSB;label=64;scalar=64";
    class       volScalarField;
    location    "0.2/water";
    object      alpha.gas_0;
}
// * * * * * * * * * * * * * * * * * * * * * * * * * * * * * * * * * * * * * //

dimensions      [0 0 0 0 0 0 0];

internalField   nonuniform List<scalar> 
23300
(
1e-15
1e-15
1e-15
1e-15
1e-15
1e-15
1e-15
1e-15
1e-15
1e-15
1e-15
1e-15
1e-15
1e-15
1e-15
1e-15
1e-15
1e-15
1e-15
1e-15
1e-15
1e-15
1e-15
1e-15
1e-15
1e-15
1e-15
1e-15
1e-15
1e-15
1e-15
1e-15
1e-15
1e-15
1e-15
1e-15
1e-15
1e-15
1e-15
1e-15
1e-15
1e-15
1e-15
1e-15
1e-15
1e-15
1e-15
1e-15
1e-15
1e-15
1e-15
1e-15
1e-15
1e-15
1e-15
1e-15
1e-15
1e-15
1e-15
1e-15
1e-15
1e-15
1e-15
1e-15
1e-15
1e-15
1e-15
1e-15
1e-15
1e-15
1e-15
1e-15
1e-15
1e-15
1e-15
1e-15
1e-15
1e-15
1e-15
1e-15
1e-15
1e-15
1e-15
1e-15
1e-15
1e-15
1e-15
1e-15
1e-15
1e-15
1e-15
1e-15
1e-15
1e-15
1e-15
1e-15
1e-15
1e-15
1e-15
1e-15
1e-15
1e-15
1e-15
1e-15
1e-15
1e-15
1e-15
1e-15
1e-15
1e-15
1e-15
1e-15
1e-15
1e-15
1e-15
1e-15
1e-15
1e-15
1e-15
1e-15
1e-15
1e-15
1e-15
1e-15
1e-15
1e-15
1e-15
1e-15
1e-15
1e-15
1e-15
1e-15
1e-15
1e-15
1e-15
1e-15
1e-15
1e-15
1e-15
1e-15
1e-15
1e-15
1e-15
1e-15
1e-15
1e-15
1e-15
1e-15
1e-15
1e-15
1e-15
1e-15
1e-15
1e-15
1e-15
1e-15
1e-15
1e-15
1e-15
1e-15
1e-15
1e-15
1e-15
1e-15
1e-15
1e-15
1e-15
1e-15
1e-15
1e-15
1e-15
1e-15
1e-15
1e-15
1e-15
1e-15
1e-15
1e-15
1e-15
1e-15
1e-15
1e-15
1e-15
1e-15
1e-15
1e-15
1e-15
1e-15
1e-15
1e-15
1e-15
1e-15
1e-15
1e-15
1e-15
1e-15
1e-15
1e-15
1e-15
1e-15
1e-15
1e-15
1e-15
1e-15
1e-15
1e-15
1e-15
1e-15
1e-15
1e-15
1e-15
1e-15
1e-15
1e-15
1e-15
1e-15
1e-15
1e-15
1e-15
1e-15
1e-15
1e-15
1e-15
1e-15
1e-15
1e-15
1e-15
1e-15
1e-15
1e-15
1e-15
1e-15
1e-15
1e-15
1e-15
1e-15
1e-15
1e-15
1e-15
1e-15
1e-15
1e-15
1e-15
1e-15
1e-15
1e-15
1e-15
1e-15
1e-15
1e-15
1e-15
1e-15
1e-15
1e-15
1e-15
1e-15
1e-15
1e-15
1e-15
1e-15
1e-15
1e-15
1e-15
1e-15
1e-15
1e-15
1e-15
1e-15
1e-15
1e-15
1e-15
1e-15
1e-15
1e-15
1e-15
1e-15
1e-15
1e-15
1e-15
1e-15
1e-15
1e-15
1e-15
1e-15
1e-15
1e-15
1e-15
1e-15
1e-15
1e-15
1e-15
1e-15
1e-15
1e-15
1e-15
1e-15
1e-15
1e-15
1e-15
1e-15
1e-15
1e-15
1e-15
1e-15
1e-15
1e-15
1e-15
1e-15
1e-15
1e-15
1e-15
1e-15
1e-15
1e-15
1e-15
1e-15
1e-15
1e-15
1e-15
1e-15
1e-15
1e-15
1e-15
1e-15
1e-15
1e-15
1e-15
1e-15
1e-15
1e-15
1e-15
1e-15
1e-15
1e-15
1e-15
1e-15
1e-15
1e-15
1e-15
1e-15
1e-15
1e-15
1e-15
1e-15
1e-15
1e-15
1e-15
1e-15
1e-15
1e-15
1e-15
1e-15
1e-15
1e-15
1e-15
1e-15
1e-15
1e-15
1e-15
1e-15
1e-15
1e-15
1e-15
1e-15
1e-15
1e-15
1e-15
1e-15
1e-15
1e-15
1e-15
1e-15
1e-15
1e-15
1e-15
1e-15
1e-15
1e-15
1e-15
1e-15
1e-15
1e-15
1e-15
1e-15
1e-15
1e-15
1e-15
1e-15
1e-15
1e-15
1e-15
1e-15
1e-15
1e-15
1e-15
1e-15
1e-15
1e-15
1e-15
1e-15
1e-15
1e-15
1e-15
1e-15
1e-15
1e-15
1e-15
1e-15
1e-15
1e-15
1e-15
1e-15
1e-15
1e-15
1e-15
1e-15
1e-15
1e-15
1e-15
1e-15
1e-15
1e-15
1e-15
1e-15
1e-15
1e-15
1e-15
1e-15
1e-15
1e-15
1e-15
1e-15
1e-15
1e-15
1e-15
1e-15
1e-15
1e-15
1e-15
1e-15
1e-15
1e-15
1e-15
1e-15
1e-15
1e-15
1e-15
1e-15
1e-15
1e-15
1e-15
1e-15
1e-15
1e-15
1e-15
1e-15
1e-15
1e-15
1e-15
1e-15
1e-15
1e-15
1e-15
1e-15
1e-15
1e-15
1e-15
1e-15
1e-15
1e-15
1e-15
1e-15
1e-15
1e-15
1e-15
1e-15
1e-15
1e-15
1e-15
1e-15
1e-15
1e-15
1e-15
1e-15
1e-15
1e-15
1e-15
1e-15
1e-15
1e-15
1e-15
1e-15
1e-15
1e-15
1e-15
1e-15
1e-15
1e-15
1e-15
1e-15
1e-15
1e-15
1e-15
1e-15
1e-15
1e-15
1e-15
1e-15
1e-15
1e-15
1e-15
1e-15
1e-15
1e-15
1e-15
1e-15
1e-15
1e-15
1e-15
1e-15
1e-15
1e-15
1e-15
1e-15
1e-15
1e-15
1e-15
1e-15
1e-15
1e-15
1e-15
1e-15
1e-15
1e-15
1e-15
1e-15
1e-15
1e-15
1e-15
1e-15
1e-15
1e-15
1e-15
1e-15
1e-15
1e-15
1e-15
1e-15
1e-15
1e-15
1e-15
1e-15
1e-15
1e-15
1e-15
1e-15
1e-15
1e-15
1e-15
1e-15
1e-15
1e-15
1e-15
1e-15
1e-15
1e-15
1e-15
1e-15
1e-15
1e-15
1e-15
1e-15
1e-15
1e-15
1e-15
1e-15
1e-15
1e-15
1e-15
1e-15
1e-15
1e-15
1e-15
1e-15
1e-15
1e-15
1e-15
1e-15
1e-15
1e-15
1e-15
1e-15
1e-15
1e-15
1e-15
1e-15
1e-15
1e-15
1e-15
1e-15
1e-15
1e-15
1e-15
1e-15
1e-15
1e-15
1e-15
1e-15
1e-15
1e-15
1e-15
1e-15
1e-15
1e-15
1e-15
1e-15
1e-15
1e-15
1e-15
1e-15
1e-15
1e-15
1e-15
1e-15
1e-15
1e-15
1e-15
1e-15
1e-15
1e-15
1e-15
1e-15
1e-15
1e-15
1e-15
1e-15
1e-15
1e-15
1e-15
1e-15
1e-15
1e-15
1e-15
1e-15
1e-15
1e-15
1e-15
1e-15
1e-15
1e-15
1e-15
1e-15
1e-15
1e-15
1e-15
1e-15
1e-15
1e-15
1e-15
1e-15
1e-15
1e-15
1e-15
1e-15
1e-15
1e-15
1e-15
1e-15
1e-15
1e-15
1e-15
1e-15
1e-15
1e-15
1e-15
1e-15
1e-15
1e-15
1e-15
1e-15
1e-15
1e-15
1e-15
1e-15
1e-15
1e-15
1e-15
1e-15
1e-15
1e-15
1e-15
1e-15
1e-15
1e-15
1e-15
1e-15
1e-15
1e-15
1e-15
1e-15
1e-15
1e-15
1e-15
1e-15
1e-15
1e-15
1e-15
1e-15
1e-15
1e-15
1e-15
1e-15
1e-15
1e-15
1e-15
1e-15
1e-15
1e-15
1e-15
1e-15
1e-15
1e-15
1e-15
1e-15
1e-15
1e-15
1e-15
1e-15
1e-15
1e-15
1e-15
1e-15
1e-15
1e-15
1e-15
1e-15
1e-15
1e-15
1e-15
1e-15
1e-15
1e-15
1e-15
1e-15
1e-15
1e-15
1e-15
1e-15
1e-15
1e-15
1e-15
1e-15
1e-15
1e-15
1e-15
1e-15
1e-15
1e-15
1e-15
1e-15
1e-15
1e-15
1e-15
1e-15
1e-15
1e-15
1e-15
1e-15
1e-15
1e-15
1e-15
1e-15
1e-15
1e-15
1e-15
1e-15
1e-15
1e-15
1e-15
1e-15
1e-15
1e-15
1e-15
1e-15
1e-15
1e-15
1e-15
1e-15
1e-15
1e-15
1e-15
1e-15
1e-15
1e-15
1e-15
1e-15
1e-15
1e-15
1e-15
1e-15
1e-15
1e-15
1e-15
1e-15
1e-15
1e-15
1e-15
1e-15
1e-15
1e-15
1e-15
1e-15
1e-15
1e-15
1e-15
1e-15
1e-15
1e-15
1e-15
1e-15
1e-15
1e-15
1e-15
1e-15
1e-15
1e-15
1e-15
1e-15
1e-15
1e-15
1e-15
1e-15
1e-15
1e-15
1e-15
1e-15
1e-15
1e-15
1e-15
1e-15
1.00007391737e-15
1e-15
1.000002623e-15
1.00000686341e-15
1.0000056051e-15
1.00000707589e-15
1.0000064443e-15
1.00000808977e-15
1.00000747476e-15
1.00000933756e-15
1.00000869113e-15
1.00001077647e-15
1.00001020809e-15
1.00001263502e-15
1.00001212581e-15
1.00001495649e-15
1.00001452747e-15
1.00001775567e-15
1.00001756962e-15
1.00002102641e-15
1.00002124902e-15
1.00002488086e-15
1.00002542804e-15
1.00002924686e-15
1.00002992492e-15
1.00003392625e-15
1.00003465099e-15
1.00003846526e-15
1.00003904149e-15
1.0000428976e-15
1.00004346044e-15
1.00004710788e-15
1.00004744584e-15
1.00005068123e-15
1.00005056982e-15
1.00005344518e-15
1.00005303689e-15
1.00005545721e-15
1.00005444789e-15
1.000055737e-15
1.00005416078e-15
1.00005456739e-15
1.00005227065e-15
1.00005188851e-15
1.00004862579e-15
1.00004759897e-15
1.00004349595e-15
1.00004098332e-15
1.00003498908e-15
1.00003073169e-15
1.00002395324e-15
1.0000189821e-15
1.00001165283e-15
1.00000605184e-15
1.00000146812e-15
1.00000170631e-15
1.00000170051e-15
1.00000187746e-15
1.00000187487e-15
1.0000020224e-15
1.00000200221e-15
1.00000211742e-15
1.00000209391e-15
1.00000220403e-15
1.00000103097e-15
1e-15
1e-15
1e-15
1e-15
1e-15
1e-15
1e-15
1e-15
1e-15
1e-15
1e-15
1e-15
1e-15
1e-15
1e-15
1e-15
1e-15
1e-15
1e-15
1e-15
1e-15
1e-15
1e-15
1e-15
1e-15
1e-15
1e-15
1e-15
1e-15
1e-15
1e-15
1e-15
1e-15
1e-15
1e-15
1e-15
1e-15
1e-15
1e-15
1e-15
1e-15
1e-15
1e-15
1e-15
1e-15
1e-15
1e-15
1e-15
1e-15
1e-15
1e-15
1e-15
1e-15
1e-15
1e-15
1e-15
1e-15
1e-15
1e-15
1e-15
1e-15
1e-15
1e-15
1e-15
1e-15
1e-15
1e-15
1e-15
1e-15
1e-15
1e-15
1e-15
1e-15
1e-15
1e-15
1.00111360754e-15
1.00063771887e-15
1.00086430625e-15
1.00086427249e-15
1.00086233246e-15
1.00086115015e-15
1.00085860197e-15
1.00085656848e-15
1.00085324764e-15
1.00085069266e-15
1.00084671027e-15
1.00084346654e-15
1.00083915358e-15
1.00083573759e-15
1.00083106299e-15
1.00082729041e-15
1.00082214075e-15
1.00081844875e-15
1.00081298188e-15
1.00080909909e-15
1.00080339043e-15
1.00079916968e-15
1.0007928028e-15
1.00078809714e-15
1.00078124124e-15
1.00077565269e-15
1.00076925658e-15
1.00076334049e-15
1.00075476087e-15
1.00074857084e-15
1.00074059819e-15
1.00073331048e-15
1.00072416244e-15
1.00071455692e-15
1.00070177352e-15
1.00069102274e-15
1.00067679114e-15
1.00066530582e-15
1.00065030737e-15
1.00063488757e-15
1.00061916565e-15
1.00060254966e-15
1.00058484542e-15
1.00056683448e-15
1.0005467973e-15
1.00052782451e-15
1.00050691162e-15
1.00048568898e-15
1.00046096274e-15
1.00043432418e-15
1.00040590108e-15
1.0003775211e-15
1.00034753451e-15
1.00031767067e-15
1.00028315148e-15
1.00024627261e-15
1.00020743372e-15
1.00017149257e-15
1.00013573772e-15
1.00010527422e-15
1.00007666814e-15
1.00005420766e-15
1.00003265703e-15
1.00001670662e-15
1.00000285733e-15
1e-15
1e-15
1e-15
1e-15
1e-15
1e-15
1e-15
1e-15
1e-15
1e-15
1e-15
1e-15
1e-15
1e-15
1e-15
1e-15
1e-15
1e-15
1e-15
1e-15
1e-15
1e-15
1e-15
1e-15
1e-15
1e-15
1e-15
1e-15
1e-15
1e-15
1e-15
1e-15
1e-15
1e-15
1e-15
1e-15
1e-15
1e-15
1e-15
1e-15
1e-15
1e-15
1e-15
1e-15
1e-15
1e-15
1e-15
1e-15
1e-15
1e-15
1e-15
1e-15
1e-15
1e-15
1e-15
1e-15
1e-15
1e-15
1e-15
1e-15
1e-15
1e-15
1e-15
1e-15
1e-15
1e-15
1e-15
1e-15
1e-15
1e-15
1e-15
1e-15
1e-15
1e-15
1e-15
1.00298525255e-15
1.00209936171e-15
1.00232410482e-15
1.00231971581e-15
1.00231570065e-15
1.00230985429e-15
1.00230408314e-15
1.00229402788e-15
1.0022841588e-15
1.0022734725e-15
1.00226186967e-15
1.00224881871e-15
1.00223537858e-15
1.00222034468e-15
1.00220608644e-15
1.00219064642e-15
1.00217482177e-15
1.00215696921e-15
1.00214017421e-15
1.00212085501e-15
1.00210170918e-15
1.00208061904e-15
1.00205936183e-15
1.00203692516e-15
1.00201385996e-15
1.00198914176e-15
1.00196517034e-15
1.00194096567e-15
1.00191735562e-15
1.00189349865e-15
1.00187443252e-15
1.00184794229e-15
1.00182494927e-15
1.00179173567e-15
1.00175501749e-15
1.0017168526e-15
1.00167365379e-15
1.00163201434e-15
1.00159213799e-15
1.00154510119e-15
1.00150299757e-15
1.00145832221e-15
1.00141270767e-15
1.0013662383e-15
1.00131935286e-15
1.00126671151e-15
1.00121314203e-15
1.00116145927e-15
1.00111029153e-15
1.00105583791e-15
1.00100123597e-15
1.00094416196e-15
1.00088649301e-15
1.00082782136e-15
1.00076995824e-15
1.00071023585e-15
1.00064931072e-15
1.00058540539e-15
1.0005181375e-15
1.00044791609e-15
1.00037700161e-15
1.0003093095e-15
1.00024565518e-15
1.00018748436e-15
1.00014279605e-15
1.0001198759e-15
1.00010127697e-15
1.00008459668e-15
1.00006922574e-15
1.00005415419e-15
1.00004171866e-15
1.00003533032e-15
1.00003209679e-15
1.00002955862e-15
1.00002693587e-15
1.00002573369e-15
1.00002333804e-15
1.00002198969e-15
1.00001989955e-15
1.00001854161e-15
1.00001641333e-15
1.00001487567e-15
1.00001345677e-15
1.00001233695e-15
1.00001103451e-15
1.00000996988e-15
1.00000891076e-15
1.00000825776e-15
1.00000732358e-15
1.00000667285e-15
1.00000570153e-15
1.00000486632e-15
1.0000040508e-15
1.0000034301e-15
1.00000290728e-15
1.00000265517e-15
1.00000213781e-15
1.00000188598e-15
1.00000139023e-15
1.00000115265e-15
1.00000081909e-15
1.00000070257e-15
1.00000043845e-15
1.00000032839e-15
1.00000017186e-15
1.00000014238e-15
1.00000009126e-15
1.00000006393e-15
1.00000001574e-15
1e-15
1e-15
1e-15
1e-15
1e-15
1e-15
1e-15
1e-15
1e-15
1e-15
1e-15
1e-15
1e-15
1e-15
1e-15
1e-15
1e-15
1e-15
1e-15
1e-15
1e-15
1e-15
1e-15
1e-15
1e-15
1e-15
1e-15
1e-15
1e-15
1.00000116789e-15
1.00000326315e-15
1.00458867795e-15
1.00347555863e-15
1.00376635324e-15
1.00375557799e-15
1.00374676611e-15
1.00373569737e-15
1.00372169112e-15
1.0037056483e-15
1.00368782831e-15
1.0036681072e-15
1.00364975181e-15
1.00362806811e-15
1.00360504237e-15
1.00357833445e-15
1.00355224805e-15
1.00352731263e-15
1.00349982932e-15
1.00346772454e-15
1.00343793252e-15
1.00340339743e-15
1.0033685235e-15
1.00333158573e-15
1.00329585445e-15
1.00325710435e-15
1.00321723247e-15
1.00317781797e-15
1.00312745755e-15
1.00308494954e-15
1.00304996139e-15
1.0030082918e-15
1.00297742594e-15
1.00293195664e-15
1.00289369315e-15
1.00283921985e-15
1.00278122964e-15
1.00271837385e-15
1.0026493804e-15
1.00257816111e-15
1.00251631991e-15
1.0024441406e-15
1.00237705261e-15
1.00231036858e-15
1.00224059636e-15
1.00216949193e-15
1.00209634377e-15
1.0020105113e-15
1.00192450308e-15
1.00184200309e-15
1.00175670622e-15
1.00167495994e-15
1.00159654351e-15
1.00151699529e-15
1.00143786696e-15
1.00135903571e-15
1.00128221634e-15
1.00120536412e-15
1.0011301851e-15
1.00105489207e-15
1.00097982331e-15
1.00090150443e-15
1.00082090839e-15
1.00073862732e-15
1.0006580381e-15
1.00057739463e-15
1.00050249087e-15
1.00043986551e-15
1.00038300316e-15
1.00032909169e-15
1.00027746458e-15
1.00022485245e-15
1.00017814076e-15
1.00014147866e-15
1.00011810027e-15
1.00009962754e-15
1.00008171485e-15
1.00006608094e-15
1.00004963893e-15
1.0000354604e-15
1.00002354006e-15
1.00002153283e-15
1.00001882375e-15
1.00001710455e-15
1.00001480645e-15
1.00001353989e-15
1.00001209329e-15
1.00001127124e-15
1.00001017784e-15
1.0000094534e-15
1.00000838972e-15
1.00000767654e-15
1.00000651977e-15
1.00000561529e-15
1.00000471755e-15
1.00000414324e-15
1.00000354652e-15
1.00000325016e-15
1.00000266987e-15
1.00000238214e-15
1.00000183952e-15
1.00000155444e-15
1.00000116296e-15
1.00000101406e-15
1.00000070257e-15
1.00000055361e-15
1.00000034372e-15
1.00000028485e-15
1.00000018258e-15
1.00000012789e-15
1.00000005808e-15
1e-15
1e-15
1e-15
1e-15
1e-15
1e-15
1e-15
1e-15
1e-15
1e-15
1e-15
1e-15
1e-15
1e-15
1e-15
1e-15
1e-15
1e-15
1e-15
1e-15
1e-15
1e-15
1e-15
1e-15
1e-15
1e-15
1e-15
1e-15
1e-15
1.00000122676e-15
1.00000408095e-15
1.0051719543e-15
1.00430583348e-15
1.00463991488e-15
1.00462779095e-15
1.00461149867e-15
1.00459226001e-15
1.00456734392e-15
1.00455239541e-15
1.00453074448e-15
1.00450516552e-15
1.00448540604e-15
1.00445951007e-15
1.00443476205e-15
1.0044014712e-15
1.00436785971e-15
1.00433578604e-15
1.00430088922e-15
1.00426047595e-15
1.00422050414e-15
1.00417694464e-15
1.00413248573e-15
1.00408648286e-15
1.00403979089e-15
1.00398895599e-15
1.00393732297e-15
1.00388764199e-15
1.00382238921e-15
1.00376668933e-15
1.00371865137e-15
1.00365968403e-15
1.00360811242e-15
1.00354547637e-15
1.00348708984e-15
1.00341930098e-15
1.00335109963e-15
1.00327885579e-15
1.0032032536e-15
1.00312460401e-15
1.00305342937e-15
1.00297671203e-15
1.00290015573e-15
1.00282431669e-15
1.00274515847e-15
1.00266527562e-15
1.00258291797e-15
1.0024948517e-15
1.002409098e-15
1.00232047926e-15
1.00222312448e-15
1.00212804908e-15
1.00203867409e-15
1.00195291402e-15
1.00187157973e-15
1.00179057352e-15
1.00171083442e-15
1.00163299754e-15
1.00155778881e-15
1.00148500252e-15
1.00141526281e-15
1.00134635721e-15
1.00127903761e-15
1.00121304146e-15
1.00114822438e-15
1.00108322859e-15
1.00101835151e-15
1.00095286858e-15
1.00088741174e-15
1.00082191133e-15
1.00075612761e-15
1.00068675713e-15
1.00062035673e-15
1.00055392239e-15
1.00050046591e-15
1.00045406122e-15
1.00040903022e-15
1.00036445746e-15
1.00031989357e-15
1.00027751831e-15
1.00023779819e-15
1.00020454773e-15
1.00017793474e-15
1.00015319449e-15
1.00013189558e-15
1.00010999539e-15
1.0000910604e-15
1.00007362393e-15
1.00005585627e-15
1.00004172332e-15
1.00002560793e-15
1.00001208573e-15
1.00000683471e-15
1.00000607144e-15
1.00000519437e-15
1.00000483955e-15
1.00000417825e-15
1.00000384516e-15
1.00000320193e-15
1.00000287831e-15
1.00000226205e-15
1.00000195622e-15
1.00000150684e-15
1.00000132555e-15
1.00000095072e-15
1.00000077882e-15
1.00000051558e-15
1.00000042733e-15
1.00000027391e-15
1.00000019185e-15
1.00000004723e-15
1e-15
1e-15
1e-15
1e-15
1e-15
1e-15
1e-15
1e-15
1e-15
1e-15
1e-15
1e-15
1e-15
1e-15
1e-15
1e-15
1e-15
1e-15
1e-15
1e-15
1e-15
1e-15
1e-15
1e-15
1e-15
1e-15
1e-15
1e-15
1e-15
1.00000118437e-15
1.00000489875e-15
1.00529942601e-15
1.00465670374e-15
1.00496810314e-15
1.00495710699e-15
1.00493558041e-15
1.00490956973e-15
1.00487926352e-15
1.00486699619e-15
1.00484451523e-15
1.00481809503e-15
1.00479761662e-15
1.00477079045e-15
1.00474788616e-15
1.00471279715e-15
1.00467688831e-15
1.00463960363e-15
1.00460098139e-15
1.00455770441e-15
1.00451261091e-15
1.00446546551e-15
1.00441802404e-15
1.00436875198e-15
1.00431481632e-15
1.00425715424e-15
1.00419963536e-15
1.00414323602e-15
1.00407819215e-15
1.00401612344e-15
1.00395526286e-15
1.00388673208e-15
1.00381975074e-15
1.00374790774e-15
1.00367685281e-15
1.00360346393e-15
1.00353192379e-15
1.00345826552e-15
1.00338335304e-15
1.00330717743e-15
1.00323236575e-15
1.00315516316e-15
1.00307656278e-15
1.00299682387e-15
1.00291450381e-15
1.00283297935e-15
1.00275281122e-15
1.00267560728e-15
1.0026003386e-15
1.00252151941e-15
1.00244096084e-15
1.00235797363e-15
1.00227716944e-15
1.0022022437e-15
1.0021354604e-15
1.00206871069e-15
1.0020015553e-15
1.00193673899e-15
1.00187457097e-15
1.00181573155e-15
1.00176137343e-15
1.001710972e-15
1.00166507083e-15
1.00162287752e-15
1.00158313502e-15
1.0015451996e-15
1.00150821848e-15
1.00147055022e-15
1.00143221037e-15
1.00139330252e-15
1.00135387471e-15
1.00131260141e-15
1.00127171544e-15
1.00122681504e-15
1.00118389869e-15
1.00114312127e-15
1.00110267181e-15
1.00106069486e-15
1.00101852193e-15
1.0009763057e-15
1.00093428392e-15
1.00088484179e-15
1.0008408985e-15
1.00079522547e-15
1.00075594908e-15
1.00071087874e-15
1.00067163914e-15
1.00063306377e-15
1.00059444076e-15
1.0005625877e-15
1.00052507628e-15
1.00049167551e-15
1.00045327798e-15
1.00042341111e-15
1.00039123181e-15
1.00035955737e-15
1.0003401855e-15
1.0003179624e-15
1.00029387574e-15
1.00026726133e-15
1.00024650861e-15
1.00023081227e-15
1.00021527327e-15
1.00019945689e-15
1.00018349938e-15
1.00016756969e-15
1.00015323443e-15
1.00013768452e-15
1.0001253185e-15
1.00011574357e-15
1.00010552691e-15
1.00009678642e-15
1.00008657704e-15
1.00007844207e-15
1.00007085425e-15
1.00006256948e-15
1.0000549798e-15
1.00004916329e-15
1.00004371002e-15
1.00003901682e-15
1.00003263555e-15
1.00002689634e-15
1.00002124712e-15
1.00001654343e-15
1.00001265438e-15
1.00000952561e-15
1.00000611674e-15
1.00000339354e-15
1e-15
1e-15
1e-15
1e-15
1e-15
1e-15
1e-15
1e-15
1e-15
1e-15
1e-15
1e-15
1.00029546957e-15
1.00049849098e-15
1.00535948574e-15
1.00481175849e-15
1.00510297963e-15
1.00507751071e-15
1.00505341289e-15
1.0050242048e-15
1.00499267405e-15
1.00498081201e-15
1.00495770732e-15
1.00493158515e-15
1.00490926735e-15
1.00488200593e-15
1.00485932377e-15
1.00482355187e-15
1.00478685379e-15
1.00474672267e-15
1.00470600462e-15
1.00466146708e-15
1.00461455894e-15
1.00456576683e-15
1.00451743045e-15
1.00446736851e-15
1.00441047357e-15
1.00435051982e-15
1.00429120788e-15
1.00423267064e-15
1.00416906038e-15
1.00410418947e-15
1.00403734322e-15
1.00396612884e-15
1.0038939685e-15
1.00381931366e-15
1.00374418775e-15
1.00366900695e-15
1.00359655864e-15
1.00352272493e-15
1.00344767961e-15
1.00337171204e-15
1.00329411847e-15
1.00321469452e-15
1.00313407455e-15
1.00305247157e-15
1.0029694706e-15
1.00288682819e-15
1.00280836116e-15
1.0027354146e-15
1.00266340287e-15
1.00259151645e-15
1.00252625514e-15
1.00246015341e-15
1.00239336761e-15
1.00233203866e-15
1.00227981305e-15
1.0022288938e-15
1.00217702728e-15
1.00212641019e-15
1.00207740345e-15
1.00203158175e-15
1.00199122482e-15
1.00195785781e-15
1.00193025735e-15
1.00190542365e-15
1.00188296756e-15
1.00186229516e-15
1.0018432386e-15
1.0018252336e-15
1.00180808374e-15
1.00179135234e-15
1.00177521862e-15
1.00175940543e-15
1.00174423208e-15
1.00172854485e-15
1.001712487e-15
1.00169642165e-15
1.00168066005e-15
1.00166473577e-15
1.00164923784e-15
1.00163349966e-15
1.00161821662e-15
1.00159971128e-15
1.00158161684e-15
1.00156144233e-15
1.00154342405e-15
1.00152162388e-15
1.0015020704e-15
1.00148162154e-15
1.00146141832e-15
1.00144386361e-15
1.00142298296e-15
1.00140358022e-15
1.001379921e-15
1.00135885872e-15
1.00133365519e-15
1.00130634171e-15
1.00128970674e-15
1.00126939797e-15
1.00124585084e-15
1.00121773892e-15
1.00119506133e-15
1.00117768173e-15
1.00116011408e-15
1.00114102908e-15
1.00112180524e-15
1.00110150629e-15
1.00108343306e-15
1.00106216651e-15
1.00104645954e-15
1.00103408923e-15
1.00102174116e-15
1.00101014971e-15
1.00099692653e-15
1.00098551694e-15
1.00097630024e-15
1.00096414661e-15
1.00095466329e-15
1.00094682e-15
1.00094081325e-15
1.0009345504e-15
1.00092596104e-15
1.00091738737e-15
1.00090968275e-15
1.00090278962e-15
1.00089807718e-15
1.00089400639e-15
1.00088983872e-15
1.0008863121e-15
1.0008813779e-15
1.00087413727e-15
1.00086809568e-15
1.00086194813e-15
1.00085756859e-15
1.00085296888e-15
1.00084975597e-15
1.00084800646e-15
1.00084641668e-15
1.00083578623e-15
1.0007902718e-15
1.00087096223e-15
1.00144138922e-15
1.00171934668e-15
1.00542243941e-15
1.0049216342e-15
1.0052159226e-15
1.00515714981e-15
1.00513145378e-15
1.0051004215e-15
1.0050683318e-15
1.00505594975e-15
1.00503203955e-15
1.00500549288e-15
1.00498107469e-15
1.00495304597e-15
1.0049294341e-15
1.00489274819e-15
1.00485521625e-15
1.00481335864e-15
1.00477110533e-15
1.00472539485e-15
1.00467765735e-15
1.00462754969e-15
1.00457849236e-15
1.00452826189e-15
1.00447033618e-15
1.00440980541e-15
1.00435020597e-15
1.00429155904e-15
1.0042274372e-15
1.00416092603e-15
1.00409232731e-15
1.00402058541e-15
1.00394705771e-15
1.0038714625e-15
1.00379507652e-15
1.00371913885e-15
1.00364629409e-15
1.0035719802e-15
1.00349558063e-15
1.00341729988e-15
1.00333703527e-15
1.00325566002e-15
1.00317307655e-15
1.0030914245e-15
1.00301036999e-15
1.00292849132e-15
1.00285246972e-15
1.0027828303e-15
1.00271408652e-15
1.00264901306e-15
1.0025955486e-15
1.00254367251e-15
1.00248980193e-15
1.00243989885e-15
1.00239795525e-15
1.00235855679e-15
1.00231819676e-15
1.00227716988e-15
1.00223612292e-15
1.00219732924e-15
1.0021639593e-15
1.00213893646e-15
1.00211951552e-15
1.00210089206e-15
1.00208378896e-15
1.0020675737e-15
1.00205263937e-15
1.00203858645e-15
1.00202538194e-15
1.00201259899e-15
1.00200061867e-15
1.00198901363e-15
1.00197817714e-15
1.0019676069e-15
1.00195724567e-15
1.0019468574e-15
1.00193694725e-15
1.00192749332e-15
1.00191860364e-15
1.00190969668e-15
1.00190131823e-15
1.0018929483e-15
1.00188483725e-15
1.00187649878e-15
1.00186873172e-15
1.00186091128e-15
1.00185444863e-15
1.00184791594e-15
1.00184199106e-15
1.00183613315e-15
1.00183047932e-15
1.00182476639e-15
1.00181933324e-15
1.00181408267e-15
1.001808666e-15
1.00180274128e-15
1.0017984629e-15
1.00179372808e-15
1.00178868972e-15
1.00178295953e-15
1.00177805093e-15
1.00177359719e-15
1.00176915156e-15
1.00176414822e-15
1.00175950513e-15
1.00175460003e-15
1.0017500917e-15
1.0017447866e-15
1.00174081535e-15
1.00173750339e-15
1.00173384569e-15
1.00172982683e-15
1.00172528687e-15
1.00172115661e-15
1.00171773426e-15
1.00171347525e-15
1.00170968708e-15
1.00170579158e-15
1.00170201072e-15
1.00169779681e-15
1.0016946069e-15
1.00169163195e-15
1.0016889839e-15
1.00168652391e-15
1.00168470789e-15
1.00168298211e-15
1.0016813207e-15
1.0016798219e-15
1.00167812902e-15
1.00167654468e-15
1.00167510663e-15
1.00167374357e-15
1.00167256288e-15
1.00167152371e-15
1.00167056663e-15
1.00166981088e-15
1.0016691259e-15
1.00166498059e-15
1.00166117175e-15
1.00172606466e-15
1.00213005509e-15
1.00233395768e-15
1.00549901538e-15
1.00504024518e-15
1.00534489869e-15
1.00524318832e-15
1.00521483935e-15
1.00518215934e-15
1.00514967681e-15
1.0051360357e-15
1.00511098888e-15
1.00508333749e-15
1.00505661195e-15
1.00502732566e-15
1.005002214e-15
1.00496407068e-15
1.0049253639e-15
1.00488208155e-15
1.00483845288e-15
1.00479135132e-15
1.00474286943e-15
1.00469134188e-15
1.00464134058e-15
1.00459096496e-15
1.00453247247e-15
1.00447171089e-15
1.00441224051e-15
1.00435401008e-15
1.00428795904e-15
1.00422043334e-15
1.00415236912e-15
1.00408055164e-15
1.00400682072e-15
1.00393068302e-15
1.0038537611e-15
1.00377717093e-15
1.00370373744e-15
1.00362788446e-15
1.0035487497e-15
1.00346616349e-15
1.00338513565e-15
1.00330476454e-15
1.00322235209e-15
1.00314466395e-15
1.00307157701e-15
1.0029969121e-15
1.00292925887e-15
1.00286886e-15
1.00281006812e-15
1.00275754646e-15
1.0027182444e-15
1.00268076634e-15
1.00264033045e-15
1.00260137687e-15
1.00256753944e-15
1.0025363029e-15
1.00250394246e-15
1.00246873464e-15
1.002431845e-15
1.00239568291e-15
1.0023639375e-15
1.00233950141e-15
1.00231938757e-15
1.00229859385e-15
1.0022786916e-15
1.0022591293e-15
1.00224049901e-15
1.00222231896e-15
1.00220475215e-15
1.0021874892e-15
1.00217112682e-15
1.00215490773e-15
1.00213955173e-15
1.00212448109e-15
1.00210982829e-15
1.00209515916e-15
1.00208106006e-15
1.00206736717e-15
1.00205416516e-15
1.00204106722e-15
1.00202839743e-15
1.00201584317e-15
1.00200366617e-15
1.00199141393e-15
1.00197975868e-15
1.00196877417e-15
1.00195971966e-15
1.00195127034e-15
1.00194345138e-15
1.00193543956e-15
1.00192833723e-15
1.00192112484e-15
1.00191457543e-15
1.00190797093e-15
1.00190182559e-15
1.00189577066e-15
1.0018902942e-15
1.00188472091e-15
1.00187967814e-15
1.00187476376e-15
1.00187025417e-15
1.00186605414e-15
1.00186218602e-15
1.00185824457e-15
1.00185452357e-15
1.00185102728e-15
1.00184769859e-15
1.00184466698e-15
1.0018416806e-15
1.00183873894e-15
1.00183554499e-15
1.00183189335e-15
1.00182826582e-15
1.00182508548e-15
1.00182208288e-15
1.00181887342e-15
1.00181545597e-15
1.00181161195e-15
1.00180736049e-15
1.00180293845e-15
1.00180080281e-15
1.00179900008e-15
1.00179736081e-15
1.00179582413e-15
1.00179446415e-15
1.00179318353e-15
1.00179201282e-15
1.00179092825e-15
1.00178993724e-15
1.00178904378e-15
1.00178824699e-15
1.00178754502e-15
1.00178692453e-15
1.00178642597e-15
1.00178586935e-15
1.00178525353e-15
1.00178472149e-15
1.00178255747e-15
1.0017938075e-15
1.00185612778e-15
1.00223812568e-15
1.00245445467e-15
1.0055861108e-15
1.00517751706e-15
1.0054735474e-15
1.00534620715e-15
1.00531496069e-15
1.00528007579e-15
1.00524667033e-15
1.00523160237e-15
1.0052050181e-15
1.00517535707e-15
1.00514624847e-15
1.00511518122e-15
1.00508825013e-15
1.00504807868e-15
1.00500777753e-15
1.00496305526e-15
1.0049180745e-15
1.00486944086e-15
1.00481994159e-15
1.00476691553e-15
1.00471577491e-15
1.00466499115e-15
1.00460573412e-15
1.00454444192e-15
1.00448500982e-15
1.00442682847e-15
1.00435859056e-15
1.00429073333e-15
1.00422434514e-15
1.00415230703e-15
1.00407851348e-15
1.00400185853e-15
1.00392426854e-15
1.0038462488e-15
1.0037703788e-15
1.00369046614e-15
1.00360983075e-15
1.00352649587e-15
1.00344992858e-15
1.00337915535e-15
1.00330840124e-15
1.003248098e-15
1.0031974941e-15
1.00314459993e-15
1.00309895373e-15
1.00306035945e-15
1.00302351937e-15
1.00299092713e-15
1.00296709882e-15
1.00294172993e-15
1.00291307722e-15
1.00288317805e-15
1.00285466174e-15
1.00282693374e-15
1.00279782311e-15
1.00276470322e-15
1.00272907928e-15
1.00269224801e-15
1.00265806728e-15
1.0026283586e-15
1.0026008106e-15
1.00257192099e-15
1.002543941e-15
1.00251633686e-15
1.00248950948e-15
1.00246285868e-15
1.00243685966e-15
1.00241119226e-15
1.0023866104e-15
1.00236208074e-15
1.00233860156e-15
1.00231563147e-15
1.00229326688e-15
1.00227089635e-15
1.00224932752e-15
1.00222810574e-15
1.00220742964e-15
1.00218712621e-15
1.00216732147e-15
1.00214763839e-15
1.00212844264e-15
1.00210909313e-15
1.00209061121e-15
1.0020730395e-15
1.0020580077e-15
1.00204423053e-15
1.00203122206e-15
1.0020181721e-15
1.00200646141e-15
1.00199489836e-15
1.00198412374e-15
1.00197352963e-15
1.0019634313e-15
1.00195376533e-15
1.0019449237e-15
1.00193583311e-15
1.00192761735e-15
1.00191957005e-15
1.00191208717e-15
1.00190551723e-15
1.00189956039e-15
1.00189368983e-15
1.00188778277e-15
1.00188230222e-15
1.00187714044e-15
1.00187269144e-15
1.00186800958e-15
1.00186331491e-15
1.00185879753e-15
1.00185380141e-15
1.00184911944e-15
1.00184505153e-15
1.0018411508e-15
1.00183692187e-15
1.0018326146e-15
1.00182805483e-15
1.00182327946e-15
1.00181842894e-15
1.00181586915e-15
1.00181354769e-15
1.00181148405e-15
1.00180950852e-15
1.00180780381e-15
1.00180627953e-15
1.00180493746e-15
1.00180368424e-15
1.00180244936e-15
1.00180129986e-15
1.00180026932e-15
1.00179937598e-15
1.00179862161e-15
1.00179794138e-15
1.00179718198e-15
1.00179644913e-15
1.00179580482e-15
1.00179356897e-15
1.00180150673e-15
1.00187119822e-15
1.00228743077e-15
1.00253479785e-15
1.00568093945e-15
1.00531412727e-15
1.00558637046e-15
1.00546391358e-15
1.00543047982e-15
1.00539274699e-15
1.00535818626e-15
1.00534107412e-15
1.00531236396e-15
1.00528015959e-15
1.00524836884e-15
1.00521502603e-15
1.00518595767e-15
1.00514334442e-15
1.00510104221e-15
1.00505469658e-15
1.0050082288e-15
1.00495807974e-15
1.00490727533e-15
1.00485286632e-15
1.00480064369e-15
1.00474915611e-15
1.00468890594e-15
1.00462675038e-15
1.00456720526e-15
1.00450860168e-15
1.00443908498e-15
1.00437146629e-15
1.00430677272e-15
1.00423430218e-15
1.00415999443e-15
1.00408220356e-15
1.00400252973e-15
1.00392165337e-15
1.00384540323e-15
1.00376956257e-15
1.00370140389e-15
1.00363446416e-15
1.00357673965e-15
1.00353158197e-15
1.0034870049e-15
1.00345827639e-15
1.00344504269e-15
1.00342942628e-15
1.00341573928e-15
1.00340517852e-15
1.00339039014e-15
1.00337332718e-15
1.00335734716e-15
1.00333523464e-15
1.00331078678e-15
1.00328366165e-15
1.00325524693e-15
1.00322508225e-15
1.00319364442e-15
1.00315910238e-15
1.00312260654e-15
1.00308339031e-15
1.00304544139e-15
1.00300914627e-15
1.0029723581e-15
1.0029342463e-15
1.00289737995e-15
1.00286123418e-15
1.00282575374e-15
1.00279023962e-15
1.00275545907e-15
1.00272098726e-15
1.00268762978e-15
1.00265425879e-15
1.00262197747e-15
1.00259041987e-15
1.00255966429e-15
1.00252888011e-15
1.00249903812e-15
1.00246941248e-15
1.00244038005e-15
1.0024119223e-15
1.00238403682e-15
1.0023563364e-15
1.00232915024e-15
1.00230166591e-15
1.00227513692e-15
1.00224939416e-15
1.00222631255e-15
1.00220490192e-15
1.00218439047e-15
1.00216400454e-15
1.00214540409e-15
1.00212724136e-15
1.00210999819e-15
1.00209327631e-15
1.00207702226e-15
1.00206160382e-15
1.00204745077e-15
1.00203278222e-15
1.00201941722e-15
1.00200617696e-15
1.00199362915e-15
1.00198266901e-15
1.00197275579e-15
1.00196313936e-15
1.00195309382e-15
1.00194378942e-15
1.00193513305e-15
1.00192779983e-15
1.00191992062e-15
1.00191203577e-15
1.00190511187e-15
1.00189762699e-15