/*--------------------------------*- C++ -*----------------------------------*\
| =========                 |                                                 |
| \\      /  F ield         | OpenFOAM: The Open Source CFD Toolbox           |
|  \\    /   O peration     | Version:  2206                                  |
|   \\  /    A nd           | Website:  www.openfoam.com                      |
|    \\/     M anipulation  |                                                 |
\*---------------------------------------------------------------------------*/
FoamFile
{
    version     2.0;
    format      ascii;
    arch        "LSB;label=64;scalar=64";
    class       surfaceScalarField;
    location    "0.2/water";
    object      phi;
}
// * * * * * * * * * * * * * * * * * * * * * * * * * * * * * * * * * * * * * //

dimensions      [0 3 -1 0 0 0 0];

oriented        oriented;

internalField   nonuniform List<scalar> 
46280
(
-3.83422405404e-10
3.83398921844e-10
-7.65528455817e-10
3.82069610506e-10
-1.14859121095e-09
3.83047106788e-10
-1.53158447895e-09
3.82957131385e-10
-1.91404132587e-09
3.82445241608e-10
-2.2958061516e-09
3.81728978371e-10
-2.67666134442e-09
3.80850921202e-10
-3.05649507742e-09
3.79799938181e-10
-3.43506100084e-09
3.78565614909e-10
-3.81221923882e-09
3.7712713438e-10
-4.18769114185e-09
3.75474305009e-10
-4.56130699062e-09
3.7358810565e-10
-4.93276299718e-09
3.71460297027e-10
-5.30186119953e-09
3.69074223072e-10
-5.66827902519e-09
3.66423563228e-10
-6.03179395558e-09
3.6349443415e-10
-6.3920699716e-09
3.60282705969e-10
-6.7488654247e-09
3.56777755045e-10
-7.10183636044e-09
3.52978080378e-10
-7.45072860514e-09
3.48876630945e-10
-7.79519618408e-09
3.44474774959e-10
-8.13497941382e-09
3.3976914113e-10
-8.46973652849e-09
3.34764072187e-10
-8.79920926777e-09
3.294597966e-10
-9.12306619902e-09
3.23863454337e-10
-9.44105668946e-09
3.17978468056e-10
-9.75286501151e-09
3.11814285937e-10
-1.00582532474e-08
3.05377026593e-10
-1.03569259519e-08
2.98678038472e-10
-1.0648662046e-08
2.91725673769e-10
-1.0933189966e-08
2.84532592313e-10
-1.12103083161e-08
2.77108753578e-10
-1.1479771922e-08
2.6946761243e-10
-1.17414009832e-08
2.61620353571e-10
-1.19949784374e-08
2.53580807056e-10
-1.22403470978e-08
2.45360923979e-10
-1.24773189138e-08
2.36974534957e-10
-1.27057598202e-08
2.28434214395e-10
-1.29255115041e-08
2.19753785582e-10
-1.31364636259e-08
2.10946533034e-10
-1.33384884593e-08
2.02026326062e-10
-1.35314998353e-08
1.93006913384e-10
-1.37154003331e-08
1.83901375025e-10
-1.38901265531e-08
1.74722875886e-10
-1.40556094412e-08
1.65483128658e-10
-1.42118066098e-08
1.56194888541e-10
-1.43586766428e-08
1.46869596983e-10
-1.4496198816e-08
1.37520869173e-10
-1.4624359188e-08
1.28159204877e-10
-1.47431568368e-08
1.18797189481e-10
-1.48526037223e-08
1.0944492002e-10
-1.49527195768e-08
1.00116087904e-10
-1.50435421184e-08
9.0819705645e-11
-1.51251079547e-08
8.15665837733e-11
-1.51974730677e-08
7.23613330782e-11
-1.52606846733e-08
6.32126877474e-11
-1.53148178077e-08
5.41283437257e-11
-1.53599417041e-08
4.51251280655e-11
-1.539616309e-08
3.62155290738e-11
-1.5423579528e-08
2.74176550643e-11
-1.54423309305e-08
1.87444420882e-11
-1.54525540568e-08
1.02241770159e-11
-1.5454406725e-08
1.84458500797e-12
-1.54479728686e-08
-6.43309096413e-12
-1.5433360087e-08
-1.46219859533e-11
-1.54106210809e-08
-2.27386260057e-11
-1.53798326472e-08
-3.07987389844e-11
-1.5341052499e-08
-3.87802171994e-11
-1.5294381442e-08
-4.66824246859e-11
-1.5239892347e-08
-5.44896605355e-11
-1.51777180297e-08
-6.21866959497e-11
-1.51079604988e-08
-6.97586112838e-11
-1.50307716119e-08
-7.72022147054e-11
-1.49462639605e-08
-8.45092576872e-11
-1.48545977924e-08
-9.16803776665e-11
-1.47558904064e-08
-9.87095093461e-11
-1.46503066684e-08
-1.05598757887e-10
-1.45379662404e-08
-1.12343060769e-10
-1.44190366206e-08
-1.18945379042e-10
-1.42936384909e-08
-1.25401254003e-10
-1.41619407753e-08
-1.31714145199e-10
-1.40240643354e-08
-1.37880045842e-10
-1.38801784693e-08
-1.43902900879e-10
-1.37304033978e-08
-1.49779144005e-10
-1.35749079408e-08
-1.55513034708e-10
-1.3413811185e-08
-1.61101290316e-10
-1.3247280805e-08
-1.66548443424e-10
-1.30754342064e-08
-1.71851587974e-10
-1.28984371618e-08
-1.7701554032e-10
-1.27164049436e-08
-1.82037666345e-10
-1.25295009302e-08
-1.86922891948e-10
-1.23378380448e-08
-1.91668793431e-10
-1.2141576825e-08
-1.96280434179e-10
-1.19408275147e-08
-2.00755688398e-10
-1.17357472748e-08
-2.05099745372e-10
-1.1526443448e-08
-2.09310682402e-10
-1.13130695195e-08
-2.13393681913e-10
-1.10957298909e-08
-2.17346977177e-10
-1.08745741234e-08
-2.21175726445e-10
-1.06497036148e-08
-2.24878361677e-10
-1.042126369e-08
-2.28460045701e-10
-1.01893526621e-08
-2.31919401166e-10
-9.95411140376e-09
-2.352614961e-10
-9.71563522101e-09
-2.38485084791e-10
-9.4740604152e-09
-2.41595112772e-10
-9.22947938509e-09
-2.44590467927e-10
-8.98202377497e-09
-2.4747593635e-10
-8.73178321665e-09
-2.50250526937e-10
-8.4788846476e-09
-2.52918863224e-10
-8.22341502764e-09
-2.55480107051e-10
-7.96549654782e-09
-2.57938691337e-10
-7.70521365537e-09
-2.6029387396e-10
-7.44268388767e-09
-2.62549848474e-10
-7.17798937016e-09
-2.6470596605e-10
-6.91124310178e-09
-2.66766175001e-10
-6.64252507619e-09
-2.68729918982e-10
-6.37194389734e-09
-2.70600879651e-10
-6.09957767092e-09
-2.72378569573e-10
-5.82553077585e-09
-2.74066385469e-10
-5.54987970425e-09
-2.75663899792e-10
-5.27272482271e-09
-2.77174188616e-10
-4.99414131011e-09
-2.78596842819e-10
-4.71422587695e-09
-2.79934567466e-10
-4.43305274601e-09
-2.81186904434e-10
-4.1507155715e-09
-2.82356075723e-10
-3.86728836029e-09
-2.83441381048e-10
-3.58286267673e-09
-2.84444249037e-10
-3.29751424424e-09
-2.8536321813e-10
-3.01133451518e-09
-2.86197988451e-10
-2.72440560724e-09
-2.86944763793e-10
-2.43682513331e-09
-2.87598549527e-10
-2.14869418546e-09
-2.88148043937e-10
-1.86013721456e-09
-2.8857476267e-10
-1.57130707885e-09
-2.88847813159e-10
-1.28239745857e-09
-2.88926946519e-10
-9.93655096608e-10
-2.88759082282e-10
-7.05659952474e-10
-2.88010083831e-10
-4.2195906153e-10
-2.83714812034e-10
-1.62851725042e-10
-2.59121116515e-10
-1.62855449444e-10
-5.16029072007e-10
8.99403653985e-10
-1.03442230939e-09
9.00432793262e-10
-1.551980748e-09
9.00585318784e-10
-2.06839901604e-09
8.99345295482e-10
-2.58331900764e-09
8.97348228001e-10
-3.09648593356e-09
8.94867453187e-10
-3.60759267063e-09
8.91944307396e-10
-4.11637873094e-09
8.88559736799e-10
-4.62250986113e-09
8.84686667658e-10
-5.12570223317e-09
8.80295810109e-10
-5.62559594461e-09
8.75360529729e-10
-6.12188146414e-09
8.69853286463e-10
-6.61417617618e-09
8.63750055871e-10
-7.10214576184e-09
8.57027119574e-10
-7.58538982669e-09
8.49664977343e-10
-8.06355428915e-09
8.41645467168e-10
-8.53622759487e-09
8.32955092164e-10
-9.00304337593e-09
8.23582605506e-10
-9.46358680308e-09
8.13521678504e-10
-9.91748816094e-09
8.02768809235e-10
-1.03643380212e-08
7.91325356175e-10
-1.08037726146e-08
7.79195730376e-10
-1.12353965142e-08
7.66388863634e-10
-1.1658860561e-08
7.52916630695e-10
-1.20737910908e-08
7.38794794868e-10
-1.24798609311e-08
7.24041655634e-10
-1.28767246465e-08
7.08678587435e-10
-1.32640828436e-08
6.9272901773e-10
-1.36416231467e-08
6.7621862971e-10
-1.40090779104e-08
6.59174643945e-10
-1.43661710325e-08
6.41625688067e-10
-1.47126690966e-08
6.23601459508e-10
-1.50483341496e-08
6.0513233953e-10
-1.53729681102e-08
5.86249442772e-10
-1.56863718069e-08
5.66983915575e-10
-1.5988382586e-08
5.47367386768e-10
-1.62788398418e-08
5.2743098201e-10
-1.65576155279e-08
5.07206200484e-10
-1.68245863312e-08
4.86723596438e-10
-1.70796569041e-08
4.66014069639e-10
-1.73227389037e-08
4.45107171996e-10
-1.75537671349e-08
4.2403278946e-10
-1.77726861564e-08
4.02819082869e-10
-1.79794595499e-08
3.81494583657e-10
-1.81740636827e-08
3.60085767305e-10
-1.83564898106e-08
3.38619949397e-10
-1.85267445065e-08
3.17122570029e-10
-1.86848442311e-08
2.95620062504e-10
-1.88308235323e-08
2.74136486661e-10
-1.89647232787e-08
2.52696823369e-10
-1.90866039419e-08
2.31323177561e-10
-1.91965260792e-08
2.10038394256e-10
-1.92945710881e-08
1.88861826435e-10
-1.93808176966e-08
1.67813487689e-10
-1.94553697322e-08
1.46909892996e-10
-1.95183264773e-08
1.26169697261e-10
-1.95698109156e-08
1.05608622625e-10
-1.96099294445e-08
8.52437351791e-11
-1.96388078125e-08
6.50889640488e-11
-1.96565506163e-08
4.51602128312e-11
-1.96632820647e-08
2.54701175869e-11
-1.96590775173e-08
6.01893934864e-12
-1.96440469558e-08
-1.3192641006e-11
-1.96183370773e-08
-3.21441971018e-11
-1.95821347601e-08
-5.0831882348e-11
-1.95356324093e-08
-6.92428111311e-11
-1.94790744276e-08
-8.73652218818e-11
-1.94126615369e-08
-1.05195590162e-10
-1.93366278947e-08
-1.22725470226e-10
-1.92511732482e-08
-1.39947457778e-10
-1.91565091694e-08
-1.56861051481e-10
-1.90528107583e-08
-1.73460841607e-10
-1.89402796479e-08
-1.89744427099e-10
-1.88190867221e-08
-2.05706659684e-10
-1.86894327647e-08
-2.21346213357e-10
-1.85514881701e-08
-2.36659213407e-10
-1.84054538974e-08
-2.51645624203e-10
-1.82514998747e-08
-2.66302799305e-10
-1.80898266876e-08
-2.8063182061e-10
-1.7920603176e-08
-2.94631057711e-10
-1.77440286676e-08
-3.08302508631e-10
-1.75602701254e-08
-3.21645429384e-10
-1.73695248126e-08
-3.34662619572e-10
-1.71719572334e-08
-3.47354087449e-10
-1.69677619006e-08
-3.59723270999e-10
-1.67571002427e-08
-3.71770814283e-10
-1.65401633213e-08
-3.83500724315e-10
-1.63171090264e-08
-3.94914232768e-10
-1.60881245163e-08
-4.06015821901e-10
-1.58533638176e-08
-4.16807186094e-10
-1.56130097008e-08
-4.27293159069e-10
-1.53672119449e-08
-4.37475831453e-10
-1.5116148517e-08
-4.47360354383e-10
-1.48599647574e-08
-4.56949184633e-10
-1.45988335972e-08
-4.66247712152e-10
-1.43328958098e-08
-4.75258656618e-10
-1.40623190326e-08
-4.83987547829e-10
-1.37872393377e-08
-4.92437307291e-10
-1.35078188502e-08
-5.00613560095e-10
-1.32241888858e-08
-5.085194082e-10
-1.29365059637e-08
-5.16160539868e-10
-1.26448967113e-08
-5.23540180579e-10
-1.23495119801e-08
-5.3066399809e-10
-1.20504737524e-08
-5.3753527925e-10
-1.17479271723e-08
-5.44159627135e-10
-1.14419896824e-08
-5.50540354251e-10
-1.11328007355e-08
-5.56682947529e-10
-1.08204733611e-08
-5.62590710055e-10
-1.05051413827e-08
-5.68268994162e-10
-1.01869136099e-08
-5.73721075498e-10
-9.86591837937e-09
-5.78952123525e-10
-9.54226047173e-09
-5.83965332143e-10
-9.21606288348e-09
-5.88765643759e-10
-8.88742657586e-09
-5.93356143887e-10
-8.55646940407e-09
-5.97741521637e-10
-8.22328875731e-09
-6.0192472897e-10
-7.88799758077e-09
-6.05910169822e-10
-7.55068997761e-09
-6.09700627871e-10
-7.21147423575e-09
-6.13300185837e-10
-6.8704414887e-09
-6.16711425781e-10
-6.52769565078e-09
-6.19938064438e-10
-6.18332519141e-09
-6.22982425226e-10
-5.83743000286e-09
-6.25847784902e-10
-5.49009620397e-09
-6.28536115295e-10
-5.14142010129e-09
-6.31050118795e-10
-4.79148590237e-09
-6.33391219104e-10
-4.44038666059e-09
-6.35561248178e-10
-4.08820524518e-09
-6.37560649721e-10
-3.73503119481e-09
-6.39389738254e-10
-3.38094575045e-09
-6.41047015696e-10
-3.02603223156e-09
-6.42529911366e-10
-2.67036453547e-09
-6.43833473991e-10
-2.31400465122e-09
-6.44952570699e-10
-1.95697899184e-09
-6.45891447822e-10
-1.59921951989e-09
-6.46704061077e-10
-1.24043546439e-09
-6.47560079835e-10
-8.80213289243e-10
-6.48247407896e-10
-5.21500125941e-10
-6.42442024753e-10
-1.93350359271e-10
-5.87284714483e-10
-3.56209528501e-10
-5.35517992246e-10
1.43489949013e-09
-1.07235760475e-09
1.43724383119e-09
-1.60921798798e-09
1.43742650739e-09
-2.1454391729e-09
1.43553838974e-09
-2.68049319456e-09
1.43238508815e-09
-3.21401183855e-09
1.42835866513e-09
-3.74561797288e-09
1.42353598282e-09
-4.27498567636e-09
1.41790147022e-09
-4.80173208659e-09
1.41142084539e-09
-5.32551504103e-09
1.40405528447e-09
-5.84592972572e-09
1.39576553096e-09
-6.36260874793e-09
1.38651219813e-09
-6.8751238416e-09
1.37625832104e-09
-7.3830825412e-09
1.36496950969e-09
-7.88603769584e-09
1.35261598813e-09
-8.38357748388e-09
1.33917235638e-09
-8.87524372726e-09
1.32461924116e-09
-9.36061433774e-09
1.30894292249e-09
-9.83923001501e-09
1.29213656805e-09
-1.03106693142e-08
1.27419961406e-09
-1.07744826306e-08
1.25513857199e-09
-1.12302603667e-08
1.23496615247e-09
-1.16775730742e-08
1.21370171837e-09
-1.21160331769e-08
1.19137018267e-09
-1.2545240459e-08
1.1680021903e-09
-1.29648377023e-08
1.14363286415e-09
-1.33744610577e-08
1.11830186114e-09
-1.37737897791e-08
1.09205209748e-09
-1.41625012845e-08
1.06492978352e-09
-1.45403151117e-08
1.03698318732e-09
-1.49069527604e-08
1.00826269984e-09
-1.52621759195e-08
9.78819715613e-10
-1.56057512664e-08
9.48706786715e-10
-1.59374829217e-08
9.1797663027e-10
-1.62571824658e-08
8.86682340454e-10
-1.6564695563e-08
8.54876521629e-10
-1.68598774209e-08
8.22611549669e-10
-1.71426134182e-08
7.89938803666e-10
-1.74128001653e-08
7.56908924042e-10
-1.76703600292e-08
7.23571156054e-10
-1.79152280312e-08
6.89973649973e-10
-1.81473603878e-08
6.5616300123e-10
-1.83667275503e-08
6.2218461987e-10
-1.85733168867e-08
5.88082396115e-10
-1.87671319636e-08
5.53899093376e-10
-1.89481891962e-08
5.19676224623e-10
-1.91165229342e-08
4.85454382136e-10
-1.92721762379e-08
4.51272892006e-10
-1.94152116552e-08
4.17169727887e-10
-1.95456962001e-08
3.83181256659e-10
-1.96637176331e-08
3.49342091975e-10
-1.97693639636e-08
3.15684839569e-10
-1.9862745044e-08
2.82239941052e-10
-1.99439672453e-08
2.49035872879e-10
-2.00131603427e-08
2.16099470071e-10
-2.00704465382e-08
1.83455992545e-10
-2.01159706741e-08
1.51128579862e-10
-2.01498656428e-08
1.19138564511e-10
-2.01722866757e-08
8.7505070183e-11
-2.01833721134e-08
5.62451411869e-11
-2.01832797952e-08
2.53720524475e-11
-2.01721607741e-08
-5.1010788636e-12
-2.01502062999e-08
-3.51537318384e-11
-2.01175828274e-08
-6.47692388058e-11
-2.00744917554e-08
-9.39304680616e-11
-2.0021113572e-08
-1.22623202149e-10
-1.99576505119e-08
-1.50836696105e-10
-1.98842864637e-08
-1.78562516521e-10
-1.98012269173e-08
-2.0579431533e-10
-1.9708651693e-08
-2.32526249159e-10
-1.96067692631e-08
-2.58753631471e-10
-1.94957624228e-08
-2.84471929874e-10
-1.93758404917e-08
-3.09677315907e-10
-1.92471857791e-08
-3.34366288499e-10
-1.91100073282e-08
-3.58536376425e-10
-1.89644865221e-08
-3.82185573841e-10
-1.8810831614e-08
-4.05312942526e-10
-1.86492225968e-08
-4.27917982398e-10
-1.8479866266e-08
-4.50001202033e-10
-1.83029405993e-08
-4.71563466483e-10
-1.81186501762e-08
-4.9260656787e-10
-1.7927170324e-08
-5.13132573963e-10
-1.77287027139e-08
-5.33144398932e-10
-1.75234194607e-08
-5.52645152289e-10
-1.73115186783e-08
-5.71638708199e-10
-1.70931687368e-08
-5.9012906754e-10
-1.68685636278e-08
-6.08120929953e-10
-1.66378675881e-08
-6.25619061994e-10
-1.64012700541e-08
-6.42628856455e-10
-1.61589307869e-08
-6.59155709726e-10
-1.59110342347e-08
-6.75205580564e-10
-1.56577353923e-08
-6.90784383133e-10
-1.53992134121e-08
-7.05898541723e-10
-1.5135618362e-08
-7.20554392091e-10
-1.48671238709e-08
-7.34758719004e-10
-1.45938749523e-08
-7.48518172258e-10
-1.43160395031e-08
-7.61839795246e-10
-1.40337573888e-08
-7.74730457978e-10
-1.37471906241e-08
-7.8719737916e-10
-1.34564739242e-08
-7.99247578433e-10
-1.31617633715e-08
-8.10888377224e-10
-1.28631885919e-08
-8.22126863161e-10
-1.25608996985e-08
-8.32970378135e-10
-1.22550212983e-08
-8.43426006415e-10
-1.19456975412e-08
-8.53501042296e-10
-1.16330481396e-08
-8.63202497215e-10
-1.1317211328e-08
-8.72537553681e-10
-1.0998302076e-08
-8.81513097022e-10
-1.0676452814e-08
-8.90136149327e-10
-1.03517739739e-08
-8.98413418794e-10
-1.00243923379e-08
-9.06351709974e-10
-9.6944140088e-09
-9.13957497679e-10
-9.36196030033e-09
-9.21237318446e-10
-9.02713321022e-09
-9.28197368054e-10
-8.69004880403e-09
-9.34843869932e-10
-8.35080523697e-09
-9.41182698721e-10
-8.00951357671e-09
-9.47219721268e-10
-7.66626842881e-09
-9.529604463e-10
-7.32117612176e-09
-9.58410339161e-10
-6.97432802028e-09
-9.63574497934e-10
-6.62582598931e-09
-9.68457936294e-10
-6.27575842431e-09
-9.73065283781e-10
-5.92422302404e-09
-9.77401035262e-10
-5.57130542403e-09
-9.8146927483e-10
-5.21709943626e-09
-9.85273883212e-10
-4.86168811817e-09
-9.88818283835e-10
-4.50516136288e-09
-9.9210560201e-10
-4.14759965355e-09
-9.95138443768e-10
-3.78908790942e-09
-9.97919013812e-10
-3.42970272993e-09
-1.00044902056e-09
-3.06952044592e-09
-1.00272994631e-09
-2.7086076392e-09
-1.00476395195e-09
-2.34701970612e-09
-1.00655840244e-09
-1.98478412935e-09
-1.00814495006e-09
-1.62185932283e-09
-1.00964644336e-09
-1.25805442026e-09
-1.01138189054e-09
-8.93275960425e-10
-1.01304095753e-09
-5.31380372089e-10
-1.0043516111e-09
-2.01538865341e-10
-9.17140020912e-10
-5.57752096578e-10
-5.39126161597e-10
1.97400480046e-09
-1.07911691042e-09
1.97720708477e-09
-1.61925607717e-09
1.97754762912e-09
-2.15885384694e-09
1.97510847216e-09
-2.69739381246e-09
1.97090885346e-09
-3.23451065774e-09
1.96544835443e-09
-3.76982523387e-09
1.95883577697e-09
-4.30300644609e-09
1.95105676005e-09
-4.83366623852e-09
1.94206777252e-09
-5.36145258925e-09
1.93181781016e-09
-5.88595064468e-09
1.92025312749e-09
-6.4067786641e-09
1.90731976347e-09
-6.92349405987e-09
1.89296621096e-09
-7.43568630892e-09
1.87714518823e-09
-7.94289038255e-09
1.85981542846e-09
-8.4446738349e-09
1.84094275813e-09
-8.94055832641e-09
1.82050132504e-09
-9.43010005634e-09
1.79847429732e-09
-9.91281894815e-09
1.77485448772e-09
-1.03882723948e-08
1.74964456609e-09
-1.08559910998e-08
1.72285706753e-09
-1.13155463667e-08
1.69451413355e-09
-1.17664915829e-08
1.66464700884e-09
-1.22084233186e-08
1.63329540328e-09
-1.26409277129e-08
1.60050663485e-09
-1.30636356189e-08
1.56633476445e-09
-1.34761734883e-08
1.53083958387e-09
-1.38782127196e-08
1.4940857057e-09
-1.42694249284e-08
1.45614156997e-09
-1.46495256247e-08
1.41707860851e-09
-1.50182340072e-08
1.37697037172e-09
-1.5375311031e-08
1.33589183917e-09
-1.57205239444e-08
1.29391872771e-09
-1.60536787486e-08
1.25112696926e-09
-1.63745897696e-08
1.20759217603e-09
-1.66831064483e-08
1.16338924372e-09
-1.69790881906e-08
1.11859194579e-09
-1.72624253846e-08
1.07327261626e-09
-1.75330197583e-08
1.02750183478e-09
-1.77907995914e-08
9.81348230456e-10
-1.80357058808e-08
9.3487838468e-10
-1.82677018482e-08
8.88156849492e-10
-1.84867651058e-08
8.41246231771e-10
-1.86928914861e-08
7.94207278884e-10
-1.88860930099e-08
7.47098853576e-10
-1.90663956065e-08
6.99977888874e-10
-1.92338425331e-08
6.52899371989e-10
-1.93884863553e-08
6.0591625488e-10
-1.95303981673e-08
5.59079350556e-10
-1.96596541496e-08
5.12437129898e-10
-1.97763501137e-08
4.66035516042e-10
-1.98805828478e-08
4.19917670492e-10
-1.99724698451e-08
3.7412394007e-10
-2.00521258809e-08
3.28692054326e-10
-2.0119687323e-08
2.83657344671e-10
-2.01752840187e-08
2.39052724006e-10
-2.02190682057e-08
1.94908526735e-10
-2.02511824483e-08
1.51252582582e-10
-2.02717926854e-08
1.08110304499e-10
-2.02810528669e-08
6.5504704772e-11
-2.02791426726e-08
2.34560240438e-11
-2.02662292655e-08
-1.80156073944e-11
-2.02425006386e-08
-5.88890716451e-11
-2.02081256138e-08
-9.91459727971e-11
-2.01632957437e-08
-1.38767951891e-10
-2.01081830621e-08
-1.77738237772e-10
-2.00429850341e-08
-2.16043239298e-10
-1.99678789259e-08
-2.53671655143e-10
-1.98830686583e-08
-2.90613978432e-10
-1.9788736389e-08
-3.26862235053e-10
-1.96850904937e-08
-3.62409767486e-10
-1.95723158329e-08
-3.97250986008e-10
-1.94506228025e-08
-4.31381384268e-10
-1.93201966885e-08
-4.64797456486e-10
-1.91812480818e-08
-4.97496764662e-10
-1.90339615006e-08
-5.29477839803e-10
-1.88785466785e-08
-5.60740230902e-10
-1.8715186556e-08
-5.91284388396e-10
-1.85440891543e-08
-6.2111169797e-10
-1.83654351251e-08
-6.50224345973e-10
-1.81794300095e-08
-6.78625349403e-10
-1.7986251544e-08
-7.06318426567e-10
-1.77861020995e-08
-7.33308030473e-10
-1.75791559308e-08
-7.59599218255e-10
-1.73656116166e-08
-7.85197682311e-10
-1.71456394474e-08
-8.1010962161e-10
-1.69194336867e-08
-8.34341782233e-10
-1.66871602688e-08
-8.57901334637e-10
-1.64490086939e-08
-8.80795916214e-10
-1.62051402088e-08
-9.03033505796e-10
-1.59557391694e-08
-9.24622465487e-10
-1.57009618853e-08
-9.45571424527e-10
-1.54409872739e-08
-9.65889328225e-10
-1.51759665383e-08
-9.85585323999e-10
-1.49060729249e-08
-1.00466881037e-09
-1.46314524056e-08
-1.02314932283e-09
-1.4352272373e-08
-1.04103658203e-09
-1.40686735088e-08
-1.0583403856e-09
-1.37808172322e-08
-1.07507066203e-09
-1.34888389376e-08
-1.09123736648e-09
-1.31928940122e-08
-1.10685053479e-09
-1.28931126152e-08
-1.12192018049e-09
-1.2589644075e-08
-1.13645634952e-09
-1.2282613405e-08
-1.15046901765e-09
-1.19721638989e-08
-1.16396814742e-09
-1.16584155575e-08
-1.17696358902e-09
-1.13415057035e-08
-1.18946514034e-09
-1.1021549491e-08
-1.20148245028e-09
-1.06986783858e-08
-1.21302508116e-09
-1.0373002897e-08
-1.22410241056e-09
-1.00446487914e-08
-1.23472369505e-09
-9.71372214454e-09
-1.2448979748e-09
-9.38034321514e-09
-1.25463413682e-09
-9.04461388073e-09
-1.26394082169e-09
-8.70664912174e-09
-1.27282648737e-09
-8.36654687934e-09
-1.28129932001e-09
-8.0244171067e-09
-1.28936729454e-09
-7.68035410038e-09
-1.29703809006e-09
-7.33446304395e-09
-1.3043191458e-09
-6.9868348903e-09
-1.31121758231e-09
-6.63757031759e-09
-1.31774025167e-09
-6.28675718799e-09
-1.32389366263e-09
-5.93449195033e-09
-1.32968402608e-09
-5.58085954896e-09
-1.33511718374e-09
-5.225952455e-09
-1.34019865418e-09
-4.86985284939e-09
-1.34493356797e-09
-4.51264921991e-09
-1.34932672264e-09
-4.15442108167e-09
-1.35338255376e-09
-3.79525229327e-09
-1.35710524163e-09
-3.43521923141e-09
-1.36049878785e-09
-3.07439933493e-09
-1.36356745908e-09
-2.71286384344e-09
-1.36631705681e-09
-2.35067935503e-09
-1.36876063262e-09
-1.98789871367e-09
-1.37094340844e-09
-1.62453286441e-09
-1.37302978154e-09
-1.26049699595e-09
-1.37543452626e-09
-8.95887988549e-10
-1.37766496919e-09
-5.34645003018e-10
-1.3656085197e-09
-2.04921122234e-10
-1.24687763034e-09
-7.62676899804e-10
-5.41953624699e-10
2.51593866821e-09
-1.08474213624e-09
2.51996807067e-09
-1.62768044685e-09
2.52046888991e-09
-2.17012054983e-09
2.51752139361e-09
-2.71157641851e-09
2.51234890687e-09
-3.2517131502e-09
2.50555808324e-09
-3.79017056683e-09
2.49727881353e-09
-4.326629668e-09
2.48748973332e-09
-4.86070746561e-09
2.47613256551e-09
-5.39205209897e-09
2.46313852447e-09
-5.92024461838e-09
2.44843489054e-09
-6.44489424148e-09
2.43194878733e-09
-6.96554641681e-09
2.41361060038e-09
-7.48177462943e-09
2.39335670099e-09
-7.99309572823e-09
2.37113170108e-09
-8.49905631721e-09
2.34689020486e-09
-8.99915586067e-09
2.32059836381e-09
-9.49292692096e-09
2.2922349505e-09
-9.97986552941e-09
2.26179209918e-09
-1.04595050811e-08
2.22927559885e-09
-1.09313529962e-08
2.19470479154e-09
-1.13949582989e-08
2.15811214025e-09
-1.18498536066e-08
2.11954242573e-09
-1.22956164873e-08
2.07905176065e-09
-1.27318160856e-08
2.0367063191e-09
-1.31580683861e-08
1.99258104775e-09
-1.35739871459e-08
1.94675822525e-09
-1.39792332121e-08
1.89932613298e-09
-1.43734697259e-08
1.85037768197e-09
-1.47564056418e-08
1.80000923318e-09
-1.51277554076e-08
1.74831944249e-09
-1.54872767985e-08
1.69540831867e-09
-1.58347353633e-08
1.64137633627e-09
-1.61699365935e-08
1.58632373397e-09
-1.64926954547e-08
1.53034987277e-09
-1.68028628615e-08
1.47355270858e-09
-1.71003005523e-08
1.41602831957e-09
-1.73849017824e-08
1.35787049666e-09
-1.76565718059e-08
1.29917043353e-09
-1.79152428082e-08
1.24001652215e-09
-1.81608603318e-08
1.18049439944e-09
-1.83933925797e-08
1.12068703935e-09
-1.86128228686e-08
1.06067492482e-09
-1.88191530302e-08
1.00053601175e-09
-1.90124015779e-08
9.40345685659e-10
-1.91926009494e-08
8.80176397036e-10
-1.93598011542e-08
8.20097680226e-10
-1.95140614688e-08
7.60176172146e-10
-1.96554598975e-08
7.00475615773e-10
-1.97840793404e-08
6.41056510891e-10
-1.99000223779e-08
5.81976020078e-10
-2.00033923197e-08
5.23287735871e-10
-2.00943131852e-08
4.65041790027e-10
-2.01729059026e-08
4.07284919144e-10
-2.02393130015e-08
3.50060833673e-10
-2.02936703459e-08
2.93410079933e-10
-2.03361361721e-08
2.37370044958e-10
-2.03668589211e-08
1.81975056672e-10
-2.03860104027e-08
1.27256693091e-10
-2.03937502884e-08
7.32438995341e-11
-2.03902618958e-08
1.99616875329e-11
-2.03757137276e-08
-3.25649892714e-11
-2.03502975062e-08
-8.43121291707e-11
-2.03141872267e-08
-1.35258066584e-10
-2.02675806522e-08
-1.85382272074e-10
-2.02106555206e-08
-2.34665836462e-10
-2.01436148269e-08
-2.83092582351e-10
-2.0066640861e-08
-3.30648765946e-10
-1.99799416681e-08
-3.77322699099e-10
-1.98837030861e-08
-4.23104645346e-10
-1.97781366643e-08
-4.67986555144e-10
-1.96634301612e-08
-5.11961988294e-10
-1.95397967534e-08
-5.55025945353e-10
-1.9407424494e-08
-5.97174863738e-10
-1.92665266578e-08
-6.38406484697e-10
-1.91172904058e-08
-6.78719857172e-10
-1.89599279744e-08
-7.18115217385e-10
-1.87946247238e-08
-7.56593989904e-10
-1.86215909262e-08
-7.9415866337e-10
-1.84410093952e-08
-8.3081278021e-10
-1.82530876527e-08
-8.66560817348e-10
-1.80580053235e-08
-9.01408182437e-10
-1.78559664837e-08
-9.35361102039e-10
-1.76471470161e-08
-9.68426609212e-10
-1.74317469573e-08
-1.00061243326e-09
-1.72099379871e-08
-1.03192699129e-09
-1.69819155889e-08
-1.06237929152e-09
-1.67478468534e-08
-1.09197892836e-09
-1.65079222771e-08
-1.12073598657e-09
-1.62623040565e-08
-1.1486610318e-09
-1.60111773464e-08
-1.17576502013e-09
-1.57546992194e-08
-1.20205929475e-09
-1.5493049205e-08
-1.22755550865e-09
-1.52263790841e-08
-1.25226562077e-09
-1.49548625351e-08
-1.27620182039e-09
-1.46786459447e-08
-1.29937651803e-09
-1.43978969822e-08
-1.32180227602e-09
-1.4112756598e-08
-1.34349180244e-09
-1.38233863451e-08
-1.36445789253e-09
-1.35299217489e-08
-1.38471342164e-09
-1.32325181895e-08
-1.40427129308e-09
-1.29313058256e-08
-1.42314442772e-09
-1.26264338526e-08
-1.44134571548e-09
-1.23180271704e-08
-1.45888800186e-09
-1.20062288248e-08
-1.47578404953e-09
-1.16911586009e-08
-1.49204652266e-09
-1.13729534692e-08
-1.5076879568e-09
-1.10517282768e-08
-1.52272074026e-09
-1.07276140402e-08
-1.53715709111e-09
-1.04007208726e-08
-1.55100903503e-09
-1.00711739975e-08
-1.5642883893e-09
-9.73907901625e-09
-1.57700673521e-09
-9.40455556598e-09
-1.58917540868e-09
-9.06770497777e-09
-1.60080547189e-09
-8.72864153945e-09
-1.61190770872e-09
-8.38746257761e-09
-1.62249259595e-09
-8.04427728983e-09
-1.63257030058e-09
-7.69917929415e-09
-1.64215065182e-09
-7.35227296123e-09
-1.65124314047e-09
-7.00364850839e-09
-1.65985689082e-09
-6.65340574791e-09
-1.66800066315e-09
-6.30163176046e-09
-1.67568282375e-09
-5.94842208889e-09
-1.68291135465e-09
-5.59386088145e-09
-1.68969382233e-09
-5.2380397123e-09
-1.69603739729e-09
-4.88104003716e-09
-1.70194883235e-09
-4.52294963686e-09
-1.7074344979e-09
-4.16384768503e-09
-1.71250039418e-09
-3.80381799069e-09
-1.71715221574e-09
-3.44293787004e-09
-1.72139550322e-09
-3.08128690601e-09
-1.72523592849e-09
-2.71894067223e-09
-1.72868070884e-09
-2.35597377098e-09
-1.73174519933e-09
-1.9924519326e-09
-1.73448292622e-09
-1.62840611817e-09
-1.73709293407e-09
-1.26377777025e-09
-1.74007955447e-09
-8.98674519744e-10
-1.74278311185e-09
-5.36959303631e-10
-1.72733756493e-09
-2.06731030819e-10
-1.57711955104e-09
-9.69411588919e-10
-5.45426732042e-10
3.06134580239e-09
-1.09173726458e-09
3.06625134089e-09
-1.63824267885e-09
3.06695768336e-09
-2.18431584746e-09
3.06356710435e-09
-2.72950535581e-09
3.05752329335e-09
-3.27350990536e-09
3.04953556956e-09
-3.81599325533e-09
3.0397477929e-09
-4.35665312429e-09
3.02812363681e-09
-4.89511573267e-09
3.0145821957e-09
-5.43103123765e-09
2.99903002858e-09
-5.9639760055e-09
2.98136885957e-09
-6.49354866523e-09
2.96150080163e-09
-7.01927864602e-09
2.93933274657e-09
-7.54071859656e-09
2.91477992789e-09
-8.05736055113e-09
2.88776881536e-09
-8.56872304576e-09
2.85823955579e-09
-9.07427509272e-09
2.82614793697e-09
-9.57351738208e-09
2.7914668484e-09
-1.00659133362e-08
2.75418712322e-09
-1.05509641133e-08
2.71431788218e-09
-1.10281456613e-08
2.67188623493e-09
-1.14969773925e-08
2.62693660158e-09
-1.19569642365e-08
2.57952946983e-09
-1.24076589276e-08
2.5297399504e-09
-1.28486083691e-08
2.47765593225e-09
-1.32794095833e-08
2.42337626131e-09
-1.36996601182e-08
2.36700871876e-09
-1.410900782e-08
2.30866821011e-09
-1.45071053781e-08
2.24847490812e-09
-1.48936541209e-08
2.18655270212e-09
-1.52683630041e-08
2.12302769739e-09
-1.5630986605e-08
2.05802703526e-09
-1.59812889454e-08
1.99167778927e-09
-1.63190757545e-08
1.92410612033e-09
-1.66441634758e-08
1.85543650456e-09
-1.69564057752e-08
1.78579112789e-09
-1.7255668027e-08
1.71528933752e-09
-1.75418479942e-08
1.64404719636e-09
-1.78148560934e-08
1.57217719874e-09
-1.80746303262e-08
1.49978814441e-09
-1.83211226694e-08
1.42698532902e-09
-1.85543083506e-08
1.3538707756e-09
-1.87741783315e-08
1.28054340402e-09
-1.89807423891e-08
1.20709875876e-09
-1.91740271702e-08
1.13362883754e-09
-1.93540732546e-08
1.06022173286e-09
-1.95209390906e-08
9.86961690519e-10
-1.9674692375e-08
9.13929160914e-10
-1.98154197168e-08
8.41200842687e-10
-1.99432124398e-08
7.68849253186e-10
-2.00581816135e-08
6.96942680715e-10
-2.01604387232e-08
6.25545022788e-10
-2.02501159701e-08
5.54716010138e-10
-2.0327342112e-08
4.84511231238e-10
-2.03922674576e-08
4.14982525427e-10
-2.04450352397e-08
3.46177863538e-10
-2.04858110237e-08
2.78141445822e-10
-2.0514750138e-08
2.10913855678e-10
-2.05320310772e-08
1.44532436205e-10
-2.05378194885e-08
7.90315522284e-11
-2.05323042895e-08
1.44404192528e-11
-2.05156590888e-08
-4.92114923055e-11
-2.04880815976e-08
-1.11896598116e-10
-2.04497521284e-08
-1.73589454009e-10
-2.04008752635e-08
-2.34267033392e-10
-2.03416352958e-08
-2.93908382602e-10
-2.02722416319e-08
-3.52495049241e-10
-2.01928823092e-08
-4.10011346883e-10
-2.01037707304e-08
-4.66443956128e-10
-2.00050974592e-08
-5.21781853547e-10
-1.98970784826e-08
-5.76016040287e-10
-1.97799055594e-08
-6.29139511208e-10
-1.96537957517e-08
-6.81147037235e-10
-1.95189406887e-08
-7.32035162587e-10
-1.93755571654e-08
-7.8180200861e-10
-1.92238355807e-08
-8.30447281705e-10
-1.9063991353e-08
-8.77972101173e-10
-1.88962127445e-08
-9.24379008238e-10
-1.87207128694e-08
-9.69671791221e-10
-1.8537677107e-08
-1.01385549002e-09
-1.83473154799e-08
-1.05693623858e-09