/*--------------------------------*- C++ -*----------------------------------*\
| =========                 |                                                 |
| \\      /  F ield         | OpenFOAM: The Open Source CFD Toolbox           |
|  \\    /   O peration     | Version:  2206                                  |
|   \\  /    A nd           | Website:  www.openfoam.com                      |
|    \\/     M anipulation  |                                                 |
\*---------------------------------------------------------------------------*/
FoamFile
{
    version     2.0;
    format      ascii;
    arch        "LSB;label=64;scalar=64";
    class       volScalarField;
    location    "0.2/water";
    object      reactingEulerHtcModel(T.liquid);
}
// * * * * * * * * * * * * * * * * * * * * * * * * * * * * * * * * * * * * * //

dimensions      [1 0 -3 -1 0 0 0];

internalField   uniform 0;

boundaryField
{
    maxY
    {
        type            calculated;
        value           uniform 0;
    }
    symmetric
    {
        type            symmetry;
    }
    maxX
    {
        type            calculated;
        value           uniform 0;
    }
    minY
    {
        type            calculated;
        value           uniform 0;
    }
    emptyPatch
    {
        type            empty;
    }
    water_to_solid
    {
        type            calculated;
        value           nonuniform List<scalar> 
70
(
-70.7597468548
-66.0419155254
-66.0068938804
-66.510231692
-68.2408769655
-73.8381101148
-93.2467542807
-154.124856513
-211.572234353
-233.150968409
-242.912476678
-243.570048444
-242.428483352
-243.783396295
-242.642771709
-243.939848656
-243.032139024
-244.116696778
-243.993432142
-245.502035536
-250.55262368
-249.908850355
-245.732425336
-242.961424992
-243.630419645
-249.231506359
-238.112823729
-170.975345062
-158.724796128
-159.761750512
-157.175472569
-159.11072686
-157.569805164
-158.951234172
-158.564176991
-159.413314485
-159.471556131
-161.744431781
-168.016889664
-176.517700607
-186.461463035
-193.183304469
-195.72021886
-195.930683089
-194.687428698
-190.724353534
-183.111022694
-174.854286573
-165.687955865
-159.596182918
-157.034782855
-159.274074194
-154.899764109
-159.02096155
-154.615131158
-158.720465951
-156.041088237
-158.291249547
-157.803283311
-237.525701516
-237.530510919
-237.565765849
-237.73750271
-237.980577601
-238.257266154
-238.667371957
-239.677663109
-239.537565285
-187.006643897
-216.293191633
)
;
    }
}


// ************************************************************************* //
