/*--------------------------------*- C++ -*----------------------------------*\
| =========                 |                                                 |
| \\      /  F ield         | OpenFOAM: The Open Source CFD Toolbox           |
|  \\    /   O peration     | Version:  2212                                  |
|   \\  /    A nd           | Website:  www.openfoam.com                      |
|    \\/     M anipulation  |                                                 |
\*---------------------------------------------------------------------------*/
FoamFile
{
    version     2.0;
    format      ascii;
    arch        "LSB;label=64;scalar=64";
    class       volScalarField;
    location    "640";
    object      Gco2;
}
// * * * * * * * * * * * * * * * * * * * * * * * * * * * * * * * * * * * * * //

dimensions      [1 -3 0 0 0 0 0];

internalField   nonuniform List<scalar> 
1024
(
0.0566033
0.056558
0.056448
0.056255
0.0559672
0.0555872
0.0551346
0.0546423
0.054148
0.0536875
0.0532962
0.0530068
0.0528332
0.0527767
0.0528368
0.0530202
0.0533373
0.0537646
0.0542524
0.0547813
0.0553406
0.0559284
0.056544
0.0571759
0.0577946
0.058362
0.0588433
0.0592193
0.059488
0.0596613
0.0597579
0.0597976
0.0565941
0.056547
0.056433
0.0562331
0.0559364
0.0555468
0.0550859
0.0545868
0.0540871
0.0536221
0.0532284
0.05294
0.0527696
0.0527166
0.0527801
0.0529662
0.0532854
0.0537142
0.0542028
0.0547315
0.0552897
0.0558755
0.0564894
0.0571213
0.0577433
0.0583173
0.0588073
0.0591921
0.0594681
0.0596462
0.0597455
0.0597861
0.056573
0.0565232
0.0564024
0.0561908
0.0558781
0.0554703
0.0549906
0.0544728
0.0539537
0.0534703
0.053064
0.0527746
0.0526118
0.0525695
0.0526439
0.0528402
0.0531689
0.053606
0.0541003
0.0546312
0.0551882
0.0557701
0.0563794
0.0570097
0.0576363
0.0582223
0.0587294
0.0591321
0.0594231
0.0596115
0.0597165
0.0597593
0.0565393
0.0564866
0.0563579
0.0561319
0.0557982
0.0553638
0.0548523
0.0542971
0.0537353
0.053209
0.0527711
0.052474
0.0523232
0.0523022
0.0524006
0.0526212
0.0529743
0.0534341
0.0539452
0.0544855
0.0550442
0.0556216
0.0562233
0.0568486
0.0574786
0.0580791
0.0586092
0.0590374
0.0593505
0.0595546
0.0596682
0.0597145
0.0564937
0.0564385
0.0563023
0.0560615
0.0557035
0.0552339
0.0546745
0.054057
0.0534209
0.0528184
0.0523223
0.0520044
0.0518677
0.0518805
0.0520208
0.0522869
0.0526889
0.0531955
0.0537433
0.0543064
0.0548741
0.0554493
0.0560417
0.056658
0.0572875
0.0579009
0.0584556
0.0589132
0.0592532
0.0594766
0.0596011
0.0596515
0.0564375
0.0563806
0.0562384
0.0559837
0.0555995
0.0550861
0.0544607
0.0537526
0.0530058
0.0522893
0.051704
0.0513462
0.0512202
0.0512782
0.0514812
0.051821
0.0523063
0.0528947
0.0535081
0.0541143
0.0547032
0.0552817
0.0558655
0.0564696
0.0570929
0.0577136
0.0582887
0.0587741
0.0591407
0.059384
0.0595198
0.0595744
0.0563711
0.0563134
0.056167
0.0559
0.0554884
0.0549237
0.054215
0.0533883
0.0524953
0.0516285
0.0509235
0.0505033
0.0503797
0.0504907
0.0507778
0.051224
0.0518359
0.0525516
0.0532674
0.0539419
0.0545669
0.0551559
0.0557328
0.0563221
0.0569331
0.0575521
0.0581383
0.0586429
0.0590298
0.0592887
0.0594335
0.0594916
0.0562928
0.0562349
0.0560858
0.0558082
0.0553687
0.054747
0.0539406
0.0529719
0.0519031
0.0508566
0.0500074
0.0495059
0.049376
0.0495459
0.0499371
0.0505251
0.0513142
0.052211
0.0530712
0.0538399
0.0545138
0.0551179
0.0556875
0.0562579
0.0568489
0.0574547
0.0580376
0.0585465
0.058941
0.0592067
0.0593558
0.0594156
0.0561973
0.0561397
0.0559887
0.0557014
0.0552339
0.0545509
0.0536363
0.0525081
0.0512421
0.0499972
0.0489912
0.048402
0.0482661
0.0485035
0.0490191
0.0497861
0.0508086
0.0519469
0.0529955
0.05388
0.054608
0.0552233
0.0557777
0.0563197
0.0568789
0.057456
0.0580167
0.0585102
0.0588949
0.0591552
0.0593022
0.0593619
0.0560736
0.0560164
0.0558638
0.0555667
0.0550698
0.0543215
0.05329
0.0519885
0.0505117
0.0490621
0.0479039
0.0472413
0.047117
0.0474392
0.0481009
0.0490838
0.0503981
0.0518446
0.0531288
0.0541459
0.0549226
0.0555331
0.0560531
0.0565478
0.0570559
0.0575834
0.0580987
0.0585538
0.0589095
0.0591516
0.0592902
0.0593479
0.0559015
0.0558446
0.0556895
0.0553803
0.0548499
0.0540292
0.0528697
0.0513821
0.049688
0.0480427
0.0467595
0.0460623
0.0459849
0.0464146
0.0472378
0.0484615
0.0501167
0.0519425
0.0535235
0.0546981
0.0555154
0.0560972
0.056554
0.0569729
0.0574034
0.0578546
0.0582985
0.0586917
0.0590007
0.059214
0.0593397
0.0593944
0.0556458
0.0555886
0.0554284
0.0551017
0.054528
0.0536209
0.0523172
0.0506318
0.048726
0.0469164
0.0455617
0.0448887
0.044898
0.0454429
0.0464113
0.0478549
0.0498563
0.0521241
0.0540959
0.0554985
0.0563783
0.0569205
0.0572889
0.0576034
0.057928
0.0582764
0.0586249
0.0589373
0.0591873
0.059366
0.0594771
0.0595288
0.0552503
0.0551914
0.0550212
0.0546663
0.0540325
0.0530176
0.0515507
0.0496657
0.0475788
0.045669
0.0443228
0.0437379
0.0438501
0.0444679
0.0454885
0.0470253
0.0492644
0.0519811
0.0544765
0.0562831
0.0573549
0.057916
0.0582085
0.0584085
0.0586101
0.0588383
0.0590779
0.0593025
0.059493
0.0596398
0.0597388
0.0597881
0.0546413
0.0545782
0.0543909
0.0539935
0.0532778
0.0521322
0.050493
0.0484338
0.0462357
0.0443278
0.0430864
0.0426334
0.0428106
0.0433782
0.0442455
0.045587
0.0477549
0.0507559
0.0538582
0.0563576
0.0579692
0.0588082
0.0591676
0.0593084
0.0593982
0.0595112
0.0596588
0.0598219
0.0599748
0.0600976
0.0601796
0.060219
0.0537423
0.0536724
0.0534611
0.0530091
0.0521975
0.0509173
0.0491338
0.0469773
0.0447869
0.0430098
0.0419608
0.0416447
0.0418028
0.0421509
0.0425797
0.0432602
0.0447057
0.0473606
0.0507501
0.0540491
0.056693
0.0585066
0.0596018
0.0602082
0.0605179
0.0606636
0.0607143
0.0606975
0.060629
0.0605324
0.0604412
0.0603872
0.0525329
0.0524539
0.0522168
0.0517152
0.0508314
0.0494771
0.0476635
0.0455719
0.0435568
0.0420242
0.0412039
0.0410146
0.0411415
0.0412458
0.041103
0.0406831
0.0404122
0.0412076
0.0432989
0.046118
0.0490274
0.0516093
0.0536854
0.0552269
0.0562533
0.0568217
0.0569922
0.0568538
0.0565249
0.0561426
0.0558301
0.055663
0.0513714
0.0512916
0.0510567
0.0505686
0.049725
0.048463
0.0468175
0.0449643
0.0432058
0.0418841
0.0412188
0.0411817
0.0415011
0.0417903
0.0416398
0.0406296
0.0386152
0.0364321
0.0351234
0.0348624
0.0353823
0.0363529
0.0375173
0.0386923
0.0397641
0.0406608
0.0413246
0.0417364
0.0419189
0.0419394
0.0418844
0.0418318
0.0505466
0.0504711
0.0502553
0.0498146
0.049062
0.047946
0.0464991
0.0448698
0.0433119
0.0421251
0.0415358
0.041594
0.0421434
0.0428836
0.0434134
0.0431777
0.0415287
0.0385837
0.0353303
0.0324528
0.0302177
0.0286354
0.0276361
0.0271403
0.0270586
0.0272981
0.0277558
0.0283163
0.0288589
0.0292851
0.0295449
0.0296499
0.0500419
0.0499714
0.0497773
0.0493896
0.0487337
0.0477621
0.0464954
0.0450511
0.0436375
0.0425128
0.0418974
0.0418926
0.0424361
0.0433253
0.044248
0.0447341
0.0440633
0.0419009
0.0387969
0.0354018
0.032195
0.0294169
0.0271511
0.0254135
0.0241917
0.0234517
0.0231318
0.0231361
0.0233389
0.0236037
0.0238185
0.0239265
0.0497715
0.0497052
0.049531
0.0491928
0.0486287
0.0477936
0.0466942
0.0454167
0.0441274
0.0430426
0.0423626
0.0422103
0.042585
0.0433615
0.0443085
0.0450651
0.0450251
0.0437236
0.0413416
0.0382752
0.0349492
0.0317032
0.0287658
0.0262777
0.0243115
0.022885
0.0219659
0.0214772
0.0213086
0.0213314
0.0214211
0.0214865
0.0496751
0.0496122
0.0494545
0.0491593
0.0486774
0.0479688
0.0470301
0.0459195
0.0447638
0.0437371
0.04301
0.042703
0.0428454
0.0433622
0.0440799
0.0447259
0.0448504
0.0440437
0.0423032
0.0397974
0.0367853
0.033547
0.0303416
0.0273942
0.0248793
0.0229067
0.0215077
0.0206379
0.0201954
0.0200459
0.0200484
0.0200849
0.0496996
0.0496412
0.0494994
0.0492417
0.0488308
0.0482348
0.0474466
0.0465048
0.045501
0.0445655
0.0438296
0.0433908
0.0432819
0.0434552
0.0437813
0.0440599
0.0440013
0.0433286
0.0419749
0.0399608
0.0373951
0.0344501
0.0313298
0.0282558
0.0254461
0.0230874
0.0212935
0.0200842
0.0193913
0.0190867
0.0190152
0.0190305
0.0497571
0.0497113
0.0495965
0.0493834
0.0490416
0.0485474
0.047896
0.0471142
0.0462639
0.0454309
0.0446982
0.0441263
0.043737
0.0435001
0.0433292
0.0430964
0.0426648
0.0418991
0.0407194
0.0390583
0.0369165
0.0343676
0.0315416
0.0286076
0.0257629
0.0232199
0.0211572
0.0196703
0.0187498
0.0182946
0.018149
0.0181439
0.049674
0.0496601
0.0496049
0.0494711
0.0492225
0.0488368
0.0483114
0.0476652
0.0469334
0.0461582
0.0453754
0.0446123
0.0438839
0.0431835
0.0424733
0.0416968
0.0408472
0.0399024
0.0387807
0.037364
0.0355851
0.0334431
0.0310006
0.0283682
0.0256963
0.0231724
0.0209943
0.0193197
0.0182106
0.017615
0.017394
0.0173672
0.04918
0.0492269
0.0492838
0.0492915
0.0491896
0.0489395
0.0485308
0.047971
0.0472717
0.046443
0.0454947
0.0444455
0.0433241
0.0421559
0.0409496
0.0397057
0.0385085
0.0374064
0.0363118
0.0350816
0.0336139
0.0318604
0.0298291
0.0275775
0.0252073
0.0228644
0.0207272
0.0189766
0.0177372
0.0170215
0.0167268
0.0166762
0.0479735
0.0481085
0.0483237
0.0485269
0.0486167
0.0485165
0.0481909
0.0476324
0.0468417
0.0458256
0.0446033
0.0432159
0.0417195
0.0401692
0.0386042
0.0370559
0.0356547
0.0344802
0.0334365
0.0323733
0.0311784
0.0297818
0.0281571
0.0263197
0.024324
0.02227
0.0203017
0.0185928
0.0172998
0.016497
0.0161354
0.016059
0.04582
0.0460519
0.0464206
0.0467972
0.047042
0.0470355
0.0467121
0.0460568
0.0450812
0.043818
0.042321
0.0406633
0.0389239
0.037171
0.0354528
0.0338069
0.0323712
0.0312298
0.0302832
0.0293878
0.0284376
0.0273592
0.0261113
0.0246832
0.023093
0.021396
0.0196917
0.0181279
0.0168675
0.0160262
0.0156122
0.0155094
0.0426049
0.0429068
0.0433315
0.0437315
0.0439742
0.0439278
0.0435148
0.0427247
0.0415882
0.0401673
0.0385439
0.0368089
0.0350455
0.0333176
0.0316666
0.0301224
0.0288069
0.0277935
0.0269893
0.0262681
0.0255394
0.0247382
0.0238218
0.0227685
0.0215752
0.0202634
0.0188878
0.0175548
0.0164107
0.0155905
0.0151501
0.0150237
0.0383014
0.0385951
0.0388817
0.0390715
0.0391131
0.0389103
0.0383929
0.0375474
0.0364066
0.0350382
0.0335262
0.0319564
0.0304
0.0289068
0.0275065
0.0262184
0.0251372
0.0243201
0.0236898
0.0231453
0.0226164
0.0220517
0.0214156
0.0206857
0.0198509
0.0189132
0.0178938
0.0168541
0.0159033
0.0151702
0.0147404
0.014599
0.032873
0.033024
0.03297
0.0328097
0.0325896
0.0322512
0.0317275
0.0309884
0.0300479
0.0289551
0.027774
0.0265697
0.0253937
0.0242805
0.0232489
0.0223099
0.0215288
0.020945
0.0205027
0.0201303
0.019779
0.0194131
0.0190072
0.0185441
0.018013
0.0174091
0.0167354
0.0160183
0.0153214
0.0147422
0.0143707
0.0142315
0.0261688
0.0260452
0.0256834
0.0253348
0.0250261
0.0247088
0.0243257
0.0238401
0.0232477
0.0225717
0.0218489
0.0211178
0.0204093
0.0197433
0.0191301
0.0185752
0.0181158
0.0177746
0.0175188
0.0173068
0.0171107
0.0169102
0.0166906
0.0164419
0.0161571
0.0158319
0.0154644
0.0150617
0.014651
0.0142844
0.0140259
0.0139155
0.0179506
0.0178327
0.0176209
0.0174442
0.017302
0.0171731
0.0170345
0.0168691
0.0166716
0.0164479
0.0162095
0.0159691
0.0157369
0.0155193
0.0153196
0.0151393
0.0149904
0.01488
0.0147977
0.01473
0.014668
0.0146052
0.014537
0.0144601
0.0143724
0.0142725
0.0141592
0.0140338
0.0139027
0.0137803
0.0136867
0.0136414
)
;

boundaryField
{
    movingWall
    {
        type            fixedValue;
        value           uniform 0.0135;
    }
    fixedWalls
    {
        type            zeroGradient;
    }
    floor
    {
        type            zeroGradient;
    }
    frontAndBack
    {
        type            empty;
    }
}


// ************************************************************************* //
