/*--------------------------------*- C++ -*----------------------------------*\
| =========                 |                                                 |
| \\      /  F ield         | OpenFOAM: The Open Source CFD Toolbox           |
|  \\    /   O peration     | Version:  2212                                  |
|   \\  /    A nd           | Website:  www.openfoam.com                      |
|    \\/     M anipulation  |                                                 |
\*---------------------------------------------------------------------------*/
FoamFile
{
    version     2.0;
    format      ascii;
    arch        "LSB;label=64;scalar=64";
    class       volScalarField;
    location    "640";
    object      SIC;
}
// * * * * * * * * * * * * * * * * * * * * * * * * * * * * * * * * * * * * * //

dimensions      [1 -3 0 0 0 0 0];

internalField   nonuniform List<scalar> 
1024
(
0.0913852
0.0913891
0.0913985
0.0914151
0.0914399
0.0914725
0.0915114
0.0915538
0.0915963
0.0916359
0.0916695
0.0916944
0.0917094
0.0917142
0.0917091
0.0916934
0.0916662
0.0916295
0.0915876
0.0915421
0.0914941
0.0914435
0.0913906
0.0913363
0.0912831
0.0912344
0.091193
0.0911607
0.0911376
0.0911227
0.0911144
0.091111
0.091386
0.09139
0.0913998
0.091417
0.0914425
0.091476
0.0915156
0.0915585
0.0916015
0.0916415
0.0916754
0.0917002
0.0917148
0.0917194
0.091714
0.091698
0.0916706
0.0916338
0.0915918
0.0915464
0.0914984
0.0914481
0.0913953
0.091341
0.0912875
0.0912382
0.0911961
0.091163
0.0911393
0.091124
0.0911155
0.091112
0.0913878
0.0913921
0.0914024
0.0914206
0.0914475
0.0914826
0.0915238
0.0915683
0.091613
0.0916545
0.0916895
0.0917144
0.0917284
0.0917321
0.0917257
0.0917089
0.0916807
0.0916431
0.0916007
0.091555
0.0915072
0.0914571
0.0914048
0.0913506
0.0912967
0.0912464
0.0912028
0.0911682
0.0911432
0.091127
0.0911179
0.0911143
0.0913907
0.0913952
0.0914063
0.0914257
0.0914544
0.0914917
0.0915357
0.0915835
0.0916318
0.091677
0.0917147
0.0917402
0.0917532
0.091755
0.0917466
0.0917277
0.0916974
0.0916579
0.091614
0.0915676
0.0915196
0.0914699
0.0914182
0.0913644
0.0913103
0.0912587
0.0912131
0.0911763
0.0911494
0.0911319
0.0911221
0.0911181
0.0913946
0.0913993
0.0914111
0.0914318
0.0914625
0.0915029
0.091551
0.0916041
0.0916588
0.0917106
0.0917533
0.0917806
0.0917924
0.0917913
0.0917793
0.0917565
0.091722
0.0916785
0.0916314
0.091583
0.0915342
0.0914847
0.0914338
0.0913808
0.0913267
0.091274
0.0912263
0.091187
0.0911578
0.0911386
0.0911278
0.0911235
0.0913994
0.0914043
0.0914165
0.0914384
0.0914715
0.0915156
0.0915694
0.0916303
0.0916945
0.0917561
0.0918064
0.0918372
0.0918481
0.0918431
0.0918257
0.0917966
0.0917549
0.0917044
0.0916516
0.0915995
0.0915489
0.0914992
0.091449
0.091397
0.0913435
0.0912901
0.0912407
0.0911989
0.0911674
0.0911465
0.0911348
0.0911301
0.0914051
0.0914101
0.0914227
0.0914456
0.091481
0.0915296
0.0915905
0.0916616
0.0917384
0.0918129
0.0918736
0.0919097
0.0919204
0.0919109
0.0918863
0.091848
0.0917954
0.0917339
0.0916724
0.0916144
0.0915607
0.09151
0.0914604
0.0914097
0.0913572
0.091304
0.0912536
0.0912102
0.091177
0.0911547
0.0911422
0.0911373
0.0914119
0.0914168
0.0914297
0.0914535
0.0914913
0.0915448
0.0916141
0.0916974
0.0917893
0.0918793
0.0919524
0.0919955
0.0920067
0.0919922
0.0919586
0.0919082
0.0918404
0.0917633
0.0916893
0.0916232
0.0915653
0.0915133
0.0914643
0.0914153
0.0913645
0.0913124
0.0912623
0.0912185
0.0911846
0.0911617
0.0911489
0.0911438
0.0914201
0.091425
0.091438
0.0914627
0.0915029
0.0915616
0.0916403
0.0917373
0.0918461
0.0919532
0.0920398
0.0920905
0.0921023
0.0920819
0.0920377
0.0919718
0.091884
0.0917861
0.0916959
0.0916199
0.0915572
0.0915043
0.0914566
0.09141
0.0913619
0.0913123
0.0912641
0.0912216
0.0911885
0.0911662
0.0911535
0.0911484
0.0914307
0.0914356
0.0914487
0.0914743
0.091517
0.0915813
0.09167
0.091782
0.091909
0.0920337
0.0921333
0.0921904
0.0922012
0.0921736
0.0921168
0.0920324
0.0919194
0.091795
0.0916846
0.0915971
0.0915303
0.0914777
0.091433
0.0913904
0.0913467
0.0913013
0.091257
0.0912179
0.0911873
0.0911665
0.0911546
0.0911496
0.0914455
0.0914504
0.0914637
0.0914903
0.0915359
0.0916065
0.0917062
0.0918341
0.0919798
0.0921213
0.0922318
0.0922918
0.0922986
0.0922618
0.0921911
0.092086
0.0919438
0.0917868
0.0916508
0.0915497
0.0914793
0.0914293
0.0913899
0.0913539
0.0913168
0.091278
0.0912398
0.091206
0.0911795
0.0911611
0.0911503
0.0911456
0.0914675
0.0914724
0.0914862
0.0915143
0.0915636
0.0916416
0.0917537
0.0918986
0.0920626
0.0922182
0.0923348
0.0923928
0.0923922
0.0923455
0.0922624
0.0921384
0.0919663
0.0917713
0.0916016
0.0914809
0.0914052
0.0913585
0.0913268
0.0912997
0.0912718
0.0912418
0.0912118
0.0911849
0.0911634
0.0911481
0.0911385
0.0911341
0.0915015
0.0915066
0.0915212
0.0915517
0.0916062
0.0916935
0.0918196
0.0919817
0.0921612
0.0923255
0.0924414
0.0924919
0.0924824
0.0924295
0.0923419
0.0922099
0.0920174
0.0917837
0.091569
0.0914135
0.0913213
0.0912729
0.0912477
0.0912305
0.0912131
0.0911935
0.0911729
0.0911535
0.0911372
0.0911245
0.091116
0.0911118
0.0915539
0.0915593
0.0915754
0.0916096
0.0916711
0.0917696
0.0919106
0.0920877
0.0922768
0.0924409
0.0925478
0.092587
0.092572
0.0925233
0.092449
0.0923337
0.0921474
0.0918892
0.0916223
0.0914072
0.0912685
0.0911962
0.0911653
0.0911531
0.0911454
0.0911356
0.0911229
0.0911089
0.0910957
0.0910852
0.0910781
0.0910748
0.0916311
0.0916372
0.0916553
0.0916942
0.091764
0.0918741
0.0920275
0.0922129
0.0924014
0.0925543
0.0926447
0.0926721
0.0926587
0.092629
0.0925923
0.092534
0.0924098
0.0921815
0.0918899
0.0916059
0.0913784
0.0912223
0.091128
0.0910758
0.0910491
0.0910365
0.0910322
0.0910336
0.0910395
0.0910479
0.0910557
0.0910604
0.0917351
0.0917419
0.0917623
0.0918054
0.0918814
0.0919979
0.0921539
0.0923338
0.0925071
0.092639
0.0927097
0.0927262
0.0927155
0.0927067
0.0927193
0.0927557
0.0927793
0.092711
0.0925312
0.0922886
0.0920382
0.091816
0.0916373
0.0915046
0.0914162
0.0913673
0.0913526
0.0913646
0.0913929
0.0914258
0.0914527
0.0914671
0.091835
0.0918418
0.091862
0.091904
0.0919765
0.0920851
0.0922266
0.0923859
0.0925372
0.0926509
0.0927082
0.0927116
0.0926842
0.0926596
0.0926728
0.09276
0.0929337
0.0931219
0.0932348
0.0932574
0.0932128
0.0931293
0.0930291
0.092928
0.0928357
0.0927585
0.0927013
0.0926659
0.0926501
0.0926484
0.0926531
0.0926576
0.0919058
0.0919123
0.0919309
0.0919688
0.0920335
0.0921295
0.0922539
0.092394
0.0925279
0.09263
0.0926807
0.0926758
0.0926286
0.0925651
0.0925197
0.0925403
0.0926826
0.0929364
0.0932168
0.0934648
0.0936574
0.0937938
0.09388
0.0939227
0.0939298
0.0939092
0.0938698
0.0938215
0.0937747
0.093738
0.0937156
0.0937066
0.0919492
0.0919553
0.0919719
0.0920053
0.0920617
0.0921452
0.0922541
0.0923783
0.0924998
0.0925965
0.0926494
0.0926498
0.0926031
0.0925267
0.0924475
0.0924059
0.092464
0.0926505
0.0929181
0.0932107
0.0934871
0.0937265
0.0939218
0.0940716
0.0941769
0.0942407
0.0942683
0.0942679
0.0942504
0.0942276
0.0942091
0.0941997
0.0919724
0.0919781
0.0919931
0.0920222
0.0920707
0.0921424
0.092237
0.0923468
0.0924576
0.0925508
0.0926092
0.0926223
0.0925901
0.0925233
0.092442
0.0923771
0.0923809
0.0924933
0.0926987
0.0929631
0.0932497
0.0935295
0.0937827
0.0939972
0.0941668
0.0942898
0.094369
0.0944111
0.0944256
0.0944236
0.0944159
0.0944102
0.0919807
0.0919861
0.0919996
0.092025
0.0920664
0.0921273
0.092208
0.0923035
0.0924028
0.092491
0.0925535
0.0925798
0.0925676
0.0925231
0.0924615
0.0924061
0.0923957
0.0924656
0.0926158
0.0928318
0.0930915
0.0933706
0.0936469
0.093901
0.0941179
0.094288
0.0944086
0.0944836
0.0945218
0.0945346
0.0945344
0.0945312
0.0919785
0.0919835
0.0919957
0.0920179
0.0920532
0.0921044
0.0921722
0.0922531
0.0923394
0.0924197
0.092483
0.0925207
0.09253
0.0925151
0.0924872
0.0924634
0.0924688
0.0925271
0.092644
0.0928177
0.0930389
0.0932928
0.0935618
0.0938268
0.0940691
0.0942725
0.0944272
0.0945315
0.0945912
0.0946175
0.0946236
0.0946223
0.0919736
0.0919775
0.0919874
0.0920057
0.0920351
0.0920775
0.0921335
0.0922007
0.0922738
0.0923453
0.0924083
0.0924575
0.092491
0.0925114
0.0925263
0.0925465
0.092584
0.0926502
0.0927521
0.0928954
0.0930801
0.0932999
0.0935435
0.0937965
0.0940418
0.0942611
0.094439
0.0945672
0.0946466
0.0946859
0.0946984
0.0946989
0.0919808
0.0919819
0.0919867
0.0919982
0.0920195
0.0920527
0.0920978
0.0921533
0.0922162
0.0922829
0.0923502
0.0924158
0.0924786
0.0925389
0.0926002
0.0926673
0.0927407
0.0928224
0.0929192
0.0930415
0.0931949
0.0933796
0.0935902
0.0938171
0.0940475
0.0942652
0.0944531
0.0945975
0.0946932
0.0947446
0.0947636
0.0947659
0.0920234
0.0920193
0.0920144
0.0920137
0.0920224
0.0920439
0.092079
0.0921271
0.0921872
0.0922585
0.0923401
0.0924305
0.0925271
0.0926278
0.0927318
0.0928391
0.0929424
0.0930376
0.0931321
0.0932382
0.0933648
0.093516
0.0936912
0.0938853
0.0940897
0.0942918
0.0944762
0.0946272
0.0947341
0.0947958
0.0948213
0.0948256
0.0921274
0.0921158
0.0920972
0.0920796
0.0920718
0.0920804
0.0921084
0.0921564
0.0922245
0.092312
0.0924172
0.0925367
0.0926657
0.0927993
0.0929342
0.0930677
0.0931886
0.09329
0.09338
0.0934718
0.0935749
0.0936953
0.0938354
0.0939939
0.094166
0.0943431
0.0945129
0.0946603
0.0947719
0.0948411
0.0948723
0.0948789
0.0923131
0.0922931
0.0922613
0.0922288
0.0922077
0.0922082
0.092236
0.0922924
0.0923764
0.0924852
0.0926142
0.0927571
0.092907
0.093058
0.0932061
0.0933481
0.0934719
0.0935703
0.093652
0.0937293
0.0938112
0.0939042
0.0940119
0.094135
0.0942722
0.0944185
0.0945656
0.0947005
0.0948092
0.0948818
0.0949175
0.0949264
0.0925903
0.0925643
0.0925277
0.0924932
0.0924722
0.0924762
0.0925117
0.0925798
0.0926777
0.0928001
0.09294
0.0930896
0.0932416
0.0933905
0.0935328
0.0936659
0.0937794
0.0938668
0.0939362
0.0939984
0.0940612
0.0941303
0.0942094
0.0943002
0.0944031
0.0945163
0.0946349
0.0947499
0.0948487
0.0949194
0.0949574
0.0949683
0.0929614
0.0929361
0.0929114
0.092895
0.0928914
0.0929088
0.0929534
0.0930262
0.0931246
0.0932425
0.0933728
0.0935081
0.0936423
0.093771
0.0938917
0.0940027
0.094096
0.0941664
0.0942208
0.0942678
0.0943134
0.0943621
0.094417
0.0944799
0.0945519
0.0946328
0.0947207
0.0948104
0.0948925
0.0949557
0.0949928
0.095005
0.0934295
0.0934164
0.0934211
0.0934349
0.0934539
0.093483
0.0935282
0.0935919
0.0936729
0.0937671
0.0938689
0.0939727
0.0940741
0.0941701
0.094259
0.0943399
0.0944073
0.0944576
0.0944958
0.0945279
0.0945582
0.0945898
0.0946248
0.0946647
0.0947105
0.0947626
0.0948207
0.0948826
0.0949427
0.0949927
0.0950248
0.0950368
0.0940076
0.0940182
0.0940494
0.0940795
0.0941061
0.0941334
0.0941664
0.0942083
0.0942594
0.0943176
0.0943799
0.094443
0.094504
0.0945614
0.0946143
0.0946621
0.0947017
0.0947311
0.0947532
0.0947715
0.0947884
0.0948057
0.0948246
0.0948461
0.0948707
0.0948987
0.0949304
0.0949652
0.0950006
0.0950322
0.0950546
0.0950641
0.0947162
0.0947264
0.0947446
0.0947599
0.0947721
0.0947833
0.0947952
0.0948094
0.0948265
0.0948458
0.0948663
0.094887
0.094907
0.0949258
0.094943
0.0949586
0.0949714
0.0949809
0.094988
0.0949939
0.0949992
0.0950046
0.0950105
0.0950171
0.0950247
0.0950333
0.0950431
0.0950539
0.0950652
0.0950758
0.0950839
0.0950878
)
;

boundaryField
{
    movingWall
    {
        type            fixedValue;
        value           uniform 0.0951;
    }
    fixedWalls
    {
        type            zeroGradient;
    }
    floor
    {
        type            zeroGradient;
    }
    frontAndBack
    {
        type            empty;
    }
}


// ************************************************************************* //
