/*--------------------------------*- C++ -*----------------------------------*\
| =========                 |                                                 |
| \\      /  F ield         | OpenFOAM: The Open Source CFD Toolbox           |
|  \\    /   O peration     | Version:  2212                                  |
|   \\  /    A nd           | Website:  www.openfoam.com                      |
|    \\/     M anipulation  |                                                 |
\*---------------------------------------------------------------------------*/
FoamFile
{
    version     2.0;
    format      ascii;
    arch        "LSB;label=64;scalar=64";
    class       volScalarField;
    location    "190";
    object      SIC;
}
// * * * * * * * * * * * * * * * * * * * * * * * * * * * * * * * * * * * * * //

dimensions      [1 -3 0 0 0 0 0];

internalField   nonuniform List<scalar> 
1024
(
0.0927077
0.0927084
0.0927101
0.0927128
0.0927167
0.0927218
0.0927277
0.092734
0.0927407
0.0927475
0.0927547
0.092762
0.0927691
0.0927748
0.0927767
0.0927726
0.0927638
0.0927538
0.0927448
0.092737
0.0927305
0.092725
0.0927201
0.0927155
0.0927107
0.0927057
0.0927008
0.0926966
0.0926932
0.0926909
0.0926895
0.092689
0.0927079
0.0927086
0.0927103
0.0927131
0.0927172
0.0927223
0.0927283
0.0927346
0.0927413
0.0927481
0.0927552
0.0927626
0.0927697
0.0927755
0.0927775
0.0927733
0.0927643
0.0927543
0.0927451
0.0927373
0.0927307
0.0927252
0.0927204
0.0927158
0.0927111
0.0927061
0.0927013
0.0926969
0.0926935
0.0926911
0.0926897
0.0926891
0.0927082
0.0927089
0.0927107
0.0927137
0.092718
0.0927233
0.0927292
0.0927355
0.092742
0.0927488
0.092756
0.0927635
0.0927709
0.0927771
0.0927794
0.0927749
0.0927654
0.0927551
0.0927457
0.0927377
0.092731
0.0927255
0.0927207
0.0927163
0.0927117
0.0927069
0.092702
0.0926976
0.092694
0.0926915
0.09269
0.0926893
0.0927085
0.0927093
0.0927112
0.0927144
0.0927188
0.0927242
0.0927301
0.0927362
0.0927425
0.0927492
0.0927564
0.0927643
0.0927726
0.0927798
0.0927828
0.0927777
0.0927673
0.0927561
0.0927462
0.0927379
0.0927311
0.0927256
0.092721
0.0927167
0.0927124
0.0927078
0.092703
0.0926985
0.0926947
0.092692
0.0926904
0.0926897
0.0927088
0.0927096
0.0927116
0.0927149
0.0927194
0.0927247
0.0927304
0.0927361
0.0927421
0.0927486
0.0927561
0.0927647
0.0927744
0.0927836
0.0927878
0.092782
0.0927699
0.0927573
0.0927465
0.0927377
0.0927306
0.0927251
0.0927206
0.0927167
0.0927127
0.0927084
0.0927039
0.0926993
0.0926955
0.0926926
0.0926909
0.0926902
0.0927089
0.0927097
0.0927117
0.092715
0.0927193
0.0927243
0.0927294
0.0927346
0.0927402
0.0927465
0.0927543
0.0927641
0.0927761
0.0927884
0.0927946
0.092788
0.0927733
0.0927584
0.0927461
0.0927364
0.092729
0.0927235
0.0927192
0.0927157
0.0927123
0.0927085
0.0927043
0.0927
0.0926961
0.0926932
0.0926915
0.0926907
0.0927087
0.0927095
0.0927114
0.0927143
0.0927182
0.0927225
0.0927269
0.0927313
0.0927362
0.0927422
0.0927504
0.0927617
0.0927769
0.0927935
0.0928029
0.0927956
0.0927773
0.0927591
0.0927446
0.0927336
0.0927257
0.0927202
0.0927163
0.0927135
0.0927107
0.0927076
0.092704
0.0927
0.0926964
0.0926936
0.0926919
0.0926912
0.092708
0.0927087
0.0927104
0.0927129
0.092716
0.0927194
0.0927226
0.0927258
0.0927297
0.0927351
0.0927436
0.0927568
0.092776
0.0927986
0.0928124
0.0928046
0.0927819
0.0927592
0.0927416
0.0927289
0.0927204
0.0927149
0.0927116
0.0927095
0.0927077
0.0927056
0.0927027
0.0926994
0.0926962
0.0926937
0.0926921
0.0926914
0.0927066
0.0927073
0.0927086
0.0927105
0.0927127
0.0927147
0.0927165
0.0927182
0.0927206
0.0927251
0.0927336
0.0927488
0.0927731
0.0928033
0.0928228
0.0928148
0.0927866
0.0927582
0.0927366
0.0927219
0.0927126
0.0927073
0.0927048
0.0927038
0.0927032
0.0927022
0.0927004
0.092698
0.0926954
0.0926933
0.0926919
0.0926913
0.0927043
0.0927049
0.092706
0.0927072
0.0927083
0.0927089
0.0927089
0.0927087
0.0927094
0.0927125
0.0927207
0.0927382
0.0927688
0.0928083
0.0928344
0.0928257
0.092791
0.0927555
0.0927293
0.0927121
0.0927021
0.0926972
0.0926958
0.0926963
0.0926973
0.0926977
0.0926972
0.0926957
0.092694
0.0926924
0.0926913
0.0926907
0.092701
0.0927015
0.0927023
0.0927029
0.092703
0.0927021
0.0927004
0.0926983
0.092697
0.0926986
0.0927066
0.092727
0.0927657
0.0928158
0.0928481
0.0928371
0.0927941
0.0927504
0.0927189
0.0926992
0.0926887
0.0926847
0.0926849
0.0926872
0.09269
0.0926921
0.092693
0.0926928
0.0926919
0.0926909
0.09269
0.0926896
0.0926961
0.0926967
0.0926974
0.0926977
0.092697
0.0926951
0.092692
0.0926883
0.0926853
0.0926857
0.0926944
0.0927196
0.0927685
0.0928296
0.0928654
0.0928481
0.0927943
0.0927416
0.0927046
0.0926828
0.0926725
0.09267
0.0926722
0.0926767
0.0926816
0.0926855
0.0926881
0.0926892
0.0926892
0.0926887
0.0926882
0.0926878
0.0926895
0.0926901
0.0926909
0.0926913
0.0926906
0.0926885
0.092685
0.0926806
0.0926768
0.0926773
0.0926891
0.0927229
0.0927847
0.0928549
0.0928875
0.0928567
0.0927889
0.0927268
0.0926853
0.0926625
0.0926534
0.0926532
0.092658
0.092665
0.0926722
0.0926782
0.0926824
0.0926848
0.0926858
0.0926858
0.0926855
0.0926852
0.0926795
0.0926801
0.0926812
0.0926821
0.0926823
0.0926811
0.0926783
0.0926747
0.0926726
0.0926777
0.0926995
0.0927492
0.0928261
0.0928976
0.0929128
0.0928575
0.0927725
0.0927029
0.0926598
0.0926384
0.092632
0.0926349
0.0926428
0.0926526
0.0926622
0.0926703
0.0926762
0.0926799
0.0926817
0.0926822
0.0926821
0.0926819
0.0926713
0.0926706
0.0926692
0.0926675
0.0926661
0.0926653
0.0926659
0.09267
0.092681
0.0927061
0.0927529
0.0928256
0.0929091
0.0929579
0.0929308
0.0928392
0.0927385
0.0926674
0.0926281
0.0926116
0.0926098
0.0926167
0.0926278
0.0926402
0.092652
0.0926619
0.0926693
0.092674
0.0926765
0.0926774
0.0926774
0.0926772
0.0927564
0.092755
0.0927522
0.092749
0.0927474
0.0927497
0.0927586
0.0927767
0.0928075
0.0928546
0.0929179
0.0929866
0.0930296
0.093007
0.0929125
0.092787
0.0926841
0.0926235
0.092595
0.0925867
0.0925905
0.092601
0.0926146
0.092629
0.0926425
0.092654
0.0926626
0.0926682
0.0926712
0.0926723
0.0926724
0.0926722
0.0930083
0.0930099
0.0930128
0.0930171
0.0930234
0.093033
0.0930475
0.0930675
0.0930934
0.0931217
0.0931421
0.0931352
0.0930789
0.0929709
0.092839
0.0927182
0.0926352
0.0925928
0.0925764
0.0925748
0.0925821
0.0925943
0.092609
0.0926242
0.0926379
0.0926488
0.0926566
0.0926616
0.0926641
0.0926651
0.0926651
0.0926649
0.093215
0.0932181
0.0932237
0.0932309
0.0932387
0.0932459
0.0932514
0.0932532
0.0932479
0.0932297
0.093191
0.0931254
0.0930344
0.0929271
0.0928146
0.0927093
0.0926323
0.092594
0.0925811
0.0925818
0.0925897
0.092601
0.0926137
0.0926263
0.0926379
0.0926477
0.0926549
0.0926592
0.0926609
0.0926609
0.0926605
0.0926602
0.0933085
0.0933106
0.0933143
0.0933187
0.0933227
0.0933248
0.0933235
0.0933162
0.0932998
0.0932708
0.0932261
0.0931641
0.0930843
0.0929874
0.092877
0.0927632
0.0926707
0.0926199
0.0926015
0.0926008
0.0926089
0.0926206
0.0926328
0.0926431
0.09265
0.0926527
0.0926521
0.0926503
0.0926498
0.092652
0.0926558
0.0926585
0.0933589
0.0933606
0.093364
0.0933687
0.0933741
0.0933792
0.093382
0.0933803
0.0933711
0.0933519
0.0933204
0.0932738
0.0932087
0.0931212
0.0930101
0.0928811
0.09276
0.0926796
0.0926395
0.0926234
0.0926187
0.092618
0.0926178
0.0926173
0.0926185
0.0926248
0.0926402
0.0926671
0.0927034
0.0927414
0.092771
0.0927856
0.093394
0.093396
0.0934005
0.093408
0.0934184
0.0934311
0.0934444
0.0934558
0.0934627
0.0934624
0.0934525
0.093429
0.093386
0.0933162
0.0932132
0.0930768
0.0929303
0.0928164
0.0927475
0.0927108
0.0926949
0.092695
0.0927104
0.0927434
0.0927964
0.0928696
0.0929593
0.0930563
0.093146
0.0932155
0.0932577
0.0932747
0.0934202
0.0934224
0.093428
0.0934382
0.0934538
0.0934748
0.0934999
0.0935267
0.0935526
0.093575
0.0935912
0.0935966
0.0935839
0.0935433
0.093464
0.0933398
0.0931896
0.0930648
0.0929928
0.0929684
0.0929865
0.0930461
0.0931445
0.0932755
0.0934279
0.0935859
0.0937321
0.0938503
0.0939289
0.0939669
0.0939766
0.093975
0.093442
0.093444
0.0934495
0.0934605
0.0934785
0.0935045
0.0935381
0.0935776
0.0936205
0.0936643
0.0937065
0.0937427
0.093765
0.0937622
0.0937198
0.0936258
0.0934922
0.0933767
0.0933242
0.0933375
0.0934148
0.0935515
0.0937336
0.0939388
0.0941403
0.0943143
0.0944446
0.0945251
0.0945591
0.0945574
0.0945386
0.0945228
0.093467
0.0934681
0.0934723
0.093482
0.0934997
0.0935271
0.0935648
0.0936117
0.0936659
0.0937255
0.0937882
0.0938507
0.0939062
0.0939428
0.0939436
0.0938909
0.0937853
0.0936815
0.0936401
0.0936755
0.0937859
0.0939568
0.0941613
0.0943664
0.0945434
0.0946768
0.0947656
0.0948159
0.0948362
0.0948343
0.0948201
0.0948068
0.0935056
0.0935048
0.093506
0.0935126
0.093528
0.0935547
0.0935938
0.0936448
0.0937061
0.0937757
0.0938517
0.0939316
0.094011
0.0940801
0.0941215
0.094113
0.094043
0.0939521
0.093906
0.0939325
0.0940345
0.0941925
0.0943731
0.0945422
0.0946785
0.0947779
0.094847
0.0948925
0.0949189
0.0949293
0.0949277
0.0949218
0.093569
0.0935653
0.0935622
0.0935647
0.0935773
0.0936034
0.0936439
0.0936983
0.0937645
0.0938405
0.093924
0.0940131
0.0941046
0.0941919
0.0942616
0.0942912
0.0942586
0.0941873
0.0941349
0.0941371
0.0942056
0.0943257
0.0944667
0.094599
0.0947075
0.0947922
0.0948583
0.0949088
0.094944
0.0949641
0.0949711
0.0949704
0.0936676
0.0936604
0.0936529
0.0936524
0.0936644
0.093692
0.0937357
0.0937936
0.0938633
0.0939421
0.0940279
0.0941187
0.0942122
0.0943038
0.094385
0.0944377
0.0944361
0.0943888
0.0943389
0.0943212
0.0943537
0.094431
0.0945317
0.0946325
0.0947211
0.0947967
0.0948614
0.0949158
0.0949576
0.0949846
0.0949972
0.0949993
0.0938087
0.0937984
0.0937894
0.0937903
0.093806
0.0938382
0.0938859
0.093946
0.0940156
0.0940922
0.0941738
0.0942586
0.0943452
0.0944302
0.0945088
0.0945685
0.0945855
0.09456
0.0945203
0.0944948
0.094502
0.0945442
0.0946102
0.0946833
0.0947532
0.0948171
0.0948756
0.0949279
0.0949713
0.095002
0.0950182
0.0950224
0.0939966
0.093986
0.0939818
0.0939905
0.0940137
0.094051
0.0940998
0.0941571
0.0942206
0.0942882
0.0943583
0.09443
0.0945023
0.094573
0.0946394
0.0946936
0.0947173
0.0947066
0.0946794
0.0946557
0.0946507
0.0946699
0.0947094
0.0947586
0.0948094
0.0948586
0.0949058
0.0949503
0.0949895
0.0950195
0.0950371
0.0950427
0.0942356
0.0942301
0.0942381
0.0942576
0.0942864
0.0943232
0.0943662
0.0944135
0.0944637
0.0945157
0.0945685
0.0946216
0.0946745
0.0947261
0.0947748
0.0948161
0.0948374
0.0948347
0.0948183
0.094801
0.0947932
0.0948002
0.0948215
0.0948515
0.0948844
0.0949178
0.094951
0.0949834
0.0950137
0.0950387
0.0950549
0.0950609
0.0945334
0.0945392
0.0945579
0.09458
0.0946046
0.0946317
0.0946609
0.0946915
0.094723
0.0947549
0.0947869
0.0948187
0.0948501
0.0948806
0.0949095
0.0949345
0.0949484
0.0949486
0.0949403
0.0949303
0.0949245
0.0949264
0.0949364
0.0949518
0.0949696
0.0949882
0.095007
0.0950259
0.0950443
0.0950606
0.0950722
0.0950772
0.0949005
0.0949057
0.0949158
0.0949255
0.0949352
0.0949451
0.0949553
0.0949658
0.0949764
0.094987
0.0949976
0.095008
0.0950183
0.0950282
0.0950376
0.0950458
0.0950505
0.0950508
0.0950483
0.0950451
0.0950431
0.0950434
0.0950463
0.0950509
0.0950564
0.0950622
0.0950682
0.0950741
0.0950801
0.0950856
0.0950898
0.0950919
)
;

boundaryField
{
    movingWall
    {
        type            fixedValue;
        value           uniform 0.0951;
    }
    fixedWalls
    {
        type            zeroGradient;
    }
    floor
    {
        type            zeroGradient;
    }
    frontAndBack
    {
        type            empty;
    }
}


// ************************************************************************* //
