/*--------------------------------*- C++ -*----------------------------------*\
| =========                 |                                                 |
| \\      /  F ield         | OpenFOAM: The Open Source CFD Toolbox           |
|  \\    /   O peration     | Version:  2212                                  |
|   \\  /    A nd           | Website:  www.openfoam.com                      |
|    \\/     M anipulation  |                                                 |
\*---------------------------------------------------------------------------*/
FoamFile
{
    version     2.0;
    format      ascii;
    arch        "LSB;label=64;scalar=64";
    class       volScalarField;
    location    "190";
    object      T;
}
// * * * * * * * * * * * * * * * * * * * * * * * * * * * * * * * * * * * * * //

dimensions      [0 0 0 1 0 0 0];

internalField   nonuniform List<scalar> 
1024
(
309.957
309.956
309.952
309.946
309.938
309.931
309.923
309.916
309.909
309.901
309.892
309.881
309.869
309.86
309.86
309.879
309.892
309.902
309.91
309.916
309.922
309.927
309.931
309.936
309.94
309.945
309.95
309.956
309.961
309.966
309.968
309.97
309.87
309.865
309.851
309.831
309.807
309.783
309.76
309.738
309.714
309.689
309.662
309.628
309.595
309.571
309.571
309.624
309.663
309.692
309.717
309.737
309.755
309.77
309.784
309.798
309.812
309.827
309.844
309.861
309.879
309.893
309.902
309.905
309.777
309.767
309.743
309.705
309.663
309.621
309.582
309.543
309.503
309.461
309.415
309.363
309.316
309.284
309.283
309.358
309.417
309.464
309.503
309.536
309.566
309.593
309.617
309.642
309.667
309.694
309.723
309.754
309.786
309.813
309.829
309.836
309.684
309.67
309.632
309.576
309.514
309.454
309.398
309.344
309.291
309.236
309.179
309.122
309.076
309.045
309.043
309.115
309.18
309.234
309.281
309.324
309.364
309.401
309.436
309.471
309.508
309.548
309.591
309.638
309.686
309.727
309.754
309.763
309.596
309.577
309.526
309.452
309.371
309.296
309.226
309.162
309.101
309.043
308.988
308.943
308.909
308.887
308.883
308.931
308.984
309.032
309.078
309.121
309.163
309.207
309.25
309.295
309.343
309.395
309.453
309.516
309.582
309.64
309.677
309.69
309.516
309.494
309.432
309.342
309.247
309.159
309.083
309.016
308.957
308.907
308.867
308.84
308.821
308.807
308.8
308.82
308.851
308.883
308.917
308.953
308.99
309.032
309.078
309.128
309.184
309.246
309.317
309.397
309.48
309.554
309.602
309.619
309.444
309.421
309.353
309.253
309.147
309.054
308.976
308.915
308.867
308.832
308.81
308.798
308.789
308.778
308.768
308.768
308.778
308.794
308.813
308.835
308.861
308.895
308.936
308.985
309.044
309.114
309.195
309.288
309.386
309.474
309.532
309.551
309.382
309.359
309.29
309.186
309.075
308.98
308.907
308.855
308.821
308.801
308.793
308.79
308.785
308.775
308.761
308.752
308.749
308.751
308.757
308.767
308.782
308.803
308.835
308.878
308.935
309.006
309.093
309.196
309.306
309.405
309.467
309.488
309.327
309.307
309.242
309.138
309.027
308.934
308.867
308.825
308.803
308.796
308.797
308.798
308.793
308.78
308.763
308.75
308.741
308.736
308.734
308.735
308.74
308.751
308.772
308.806
308.857
308.925
309.015
309.124
309.241
309.345
309.41
309.43
309.279
309.263
309.206
309.109
309.001
308.91
308.848
308.814
308.801
308.801
308.808
308.811
308.803
308.786
308.768
308.753
308.741
308.733
308.727
308.723
308.722
308.726
308.738
308.763
308.805
308.869
308.958
309.069
309.19
309.295
309.357
309.376
309.237
309.226
309.182
309.096
308.993
308.903
308.843
308.813
308.805
308.811
308.823
308.826
308.813
308.792
308.772
308.756
308.743
308.733
308.725
308.72
308.716
308.715
308.721
308.739
308.774
308.832
308.919
309.029
309.15
309.252
309.31
309.326
309.199
309.192
309.16
309.095
309.008
308.922
308.856
308.822
308.814
308.822
308.84
308.84
308.822
308.798
308.776
308.758
308.744
308.734
308.725
308.718
308.713
308.71
308.713
308.725
308.755
308.809
308.892
309.001
309.118
309.213
309.265
309.279
309.163
309.16
309.14
309.095
309.03
308.96
308.9
308.861
308.846
308.851
308.861
308.853
308.828
308.8
308.776
308.759
308.744
308.733
308.724
308.717
308.711
308.707
308.707
308.717
308.743
308.794
308.874
308.98
309.091
309.179
309.224
309.235
309.126
309.126
309.117
309.091
309.05
309.001
308.956
308.922
308.905
308.901
308.888
308.862
308.827
308.796
308.773
308.757
308.743
308.731
308.722
308.714
308.707
308.703
308.703
308.711
308.735
308.784
308.863
308.965
309.069
309.147
309.185
309.194
309.078
309.081
309.081
309.072
309.052
309.025
308.997
308.974
308.956
308.93
308.891
308.849
308.811
308.783
308.766
308.753
308.74
308.727
308.716
308.708
308.701
308.697
308.697
308.706
308.731
308.78
308.857
308.955
309.051
309.118
309.149
309.156
308.977
308.983
308.993
308.999
308.998
308.988
308.971
308.942
308.903
308.862
308.824
308.794
308.775
308.764
308.758
308.75
308.735
308.719
308.706
308.696
308.691
308.688
308.691
308.703
308.731
308.784
308.863
308.958
309.04
309.093
309.117
309.122
308.736
308.736
308.737
308.74
308.742
308.74
308.733
308.731
308.731
308.733
308.737
308.743
308.751
308.757
308.758
308.75
308.731
308.707
308.69
308.683
308.681
308.683
308.691
308.711
308.752
308.814
308.891
308.97
309.034
309.074
309.091
309.094
308.681
308.681
308.683
308.687
308.693
308.7
308.708
308.716
308.726
308.736
308.746
308.755
308.763
308.767
308.765
308.756
308.736
308.709
308.689
308.685
308.689
308.7
308.721
308.753
308.8
308.859
308.924
308.986
309.033
309.061
309.072
309.074
308.678
308.68
308.685
308.691
308.7
308.711
308.722
308.732
308.742
308.75
308.758
308.765
308.77
308.774
308.775
308.771
308.758
308.737
308.722
308.722
308.732
308.751
308.777
308.813
308.857
308.906
308.956
309
309.031
309.049
309.054
309.055
308.683
308.686
308.691
308.7
308.711
308.721
308.731
308.739
308.747
308.753
308.759
308.765
308.772
308.779
308.785
308.79
308.789
308.783
308.777
308.78
308.793
308.813
308.84
308.872
308.907
308.944
308.977
309.004
309.019
309.024
309.02
309.016
308.685
308.688
308.694
308.703
308.713
308.723
308.73
308.736
308.741
308.746
308.751
308.757
308.764
308.773
308.785
308.798
308.811
308.821
308.826
308.831
308.844
308.862
308.884
308.906
308.928
308.946
308.957
308.957
308.945
308.918
308.892
308.881
308.678
308.681
308.687
308.695
308.703
308.711
308.716
308.72
308.724
308.728
308.732
308.736
308.742
308.751
308.764
308.782
308.803
308.823
308.837
308.845
308.853
308.861
308.867
308.867
308.859
308.839
308.803
308.753
308.711
308.689
308.687
308.689
308.672
308.674
308.68
308.687
308.694
308.699
308.702
308.703
308.703
308.703
308.704
308.707
308.711
308.717
308.728
308.745
308.767
308.789
308.804
308.81
308.808
308.798
308.779
308.747
308.705
308.658
308.624
308.612
308.607
308.605
308.607
308.609
308.666
308.668
308.673
308.679
308.685
308.69
308.691
308.69
308.687
308.683
308.68
308.677
308.678
308.681
308.688
308.702
308.721
308.74
308.753
308.757
308.748
308.726
308.694
308.656
308.621
308.603
308.597
308.594
308.593
308.592
308.592
308.592
308.66
308.662
308.667
308.673
308.678
308.682
308.683
308.681
308.677
308.671
308.664
308.657
308.652
308.651
308.655
308.664
308.679
308.697
308.71
308.713
308.703
308.68
308.65
308.621
308.603
308.598
308.596
308.594
308.593
308.592
308.591
308.591
308.655
308.657
308.661
308.667
308.672
308.675
308.676
308.674
308.669
308.663
308.655
308.647
308.638
308.632
308.631
308.636
308.646
308.662
308.675
308.682
308.676
308.659
308.635
308.614
308.605
308.601
308.599
308.597
308.595
308.594
308.593
308.592
308.651
308.653
308.657
308.662
308.666
308.669
308.67
308.667
308.663
308.657
308.649
308.641
308.633
308.625
308.62
308.619
308.624
308.634
308.646
308.657
308.658
308.648
308.63
308.617
308.609
308.605
308.602
308.599
308.597
308.596
308.594
308.594
308.647
308.649
308.653
308.657
308.661
308.663
308.663
308.661
308.657
308.652
308.645
308.638
308.631
308.623
308.617
308.613
308.613
308.616
308.623
308.633
308.639
308.635
308.627
308.619
308.612
308.608
308.604
308.601
308.599
308.597
308.596
308.595
308.645
308.646
308.649
308.653
308.656
308.657
308.657
308.655
308.652
308.648
308.643
308.637
308.631
308.624
308.618
308.613
308.61
308.609
308.611
308.616
308.621
308.622
308.619
308.615
308.611
308.608
308.605
308.602
308.6
308.598
308.596
308.596
308.642
308.644
308.646
308.648
308.65
308.651
308.651
308.649
308.647
308.644
308.64
308.636
308.631
308.626
308.62
308.615
308.61
308.607
308.606
308.607
308.61
308.611
308.61
308.609
308.607
308.605
308.604
308.602
308.6
308.599
308.597
308.596
308.64
308.641
308.642
308.644
308.645
308.645
308.645
308.645
308.643
308.642
308.639
308.636
308.632
308.628
308.623
308.617
308.612
308.608
308.605
308.604
308.605
308.605
308.605
308.604
308.604
308.603
308.602
308.601
308.6
308.599
308.598
308.597
308.639
308.639
308.64
308.641
308.641
308.642
308.642
308.642
308.641
308.64
308.639
308.636
308.633
308.629
308.624
308.618
308.613
308.609
308.606
308.604
308.603
308.603
308.603
308.602
308.602
308.602
308.601
308.601
308.6
308.599
308.598
308.598
)
;

boundaryField
{
    movingWall
    {
        type            zeroGradient;
    }
    fixedWalls
    {
        type            zeroGradient;
    }
    floor
    {
        type            fixedValue;
        value           uniform 310;
    }
    frontAndBack
    {
        type            empty;
    }
}


// ************************************************************************* //
