/*--------------------------------*- C++ -*----------------------------------*\
| =========                 |                                                 |
| \\      /  F ield         | OpenFOAM: The Open Source CFD Toolbox           |
|  \\    /   O peration     | Version:  2212                                  |
|   \\  /    A nd           | Website:  www.openfoam.com                      |
|    \\/     M anipulation  |                                                 |
\*---------------------------------------------------------------------------*/
FoamFile
{
    version     2.0;
    format      ascii;
    arch        "LSB;label=64;scalar=64";
    class       volScalarField;
    location    "190";
    object      Xch;
}
// * * * * * * * * * * * * * * * * * * * * * * * * * * * * * * * * * * * * * //

dimensions      [1 -3 0 0 0 0 0];

internalField   nonuniform List<scalar> 
1024
(
0.020205
0.0202051
0.0202053
0.0202057
0.0202062
0.0202069
0.0202076
0.0202084
0.0202093
0.0202102
0.0202111
0.0202121
0.020213
0.0202137
0.020214
0.0202135
0.0202124
0.0202111
0.0202099
0.0202089
0.0202081
0.0202074
0.0202068
0.0202062
0.0202056
0.020205
0.0202043
0.0202038
0.0202034
0.0202031
0.0202029
0.0202028
0.0202051
0.0202051
0.0202054
0.0202057
0.0202063
0.0202069
0.0202077
0.0202085
0.0202094
0.0202103
0.0202112
0.0202121
0.0202131
0.0202138
0.0202141
0.0202136
0.0202124
0.0202111
0.02021
0.020209
0.0202081
0.0202074
0.0202068
0.0202063
0.0202057
0.020205
0.0202044
0.0202038
0.0202034
0.0202031
0.0202029
0.0202028
0.0202051
0.0202052
0.0202054
0.0202058
0.0202064
0.020207
0.0202078
0.0202086
0.0202095
0.0202103
0.0202113
0.0202123
0.0202132
0.020214
0.0202143
0.0202138
0.0202126
0.0202112
0.02021
0.020209
0.0202082
0.0202075
0.0202069
0.0202063
0.0202057
0.0202051
0.0202045
0.0202039
0.0202035
0.0202031
0.020203
0.0202029
0.0202051
0.0202052
0.0202055
0.0202059
0.0202065
0.0202072
0.0202079
0.0202087
0.0202095
0.0202104
0.0202113
0.0202124
0.0202134
0.0202144
0.0202148
0.0202141
0.0202128
0.0202114
0.0202101
0.020209
0.0202082
0.0202075
0.0202069
0.0202064
0.0202058
0.0202052
0.0202046
0.020204
0.0202036
0.0202032
0.020203
0.0202029
0.0202052
0.0202053
0.0202055
0.020206
0.0202065
0.0202072
0.020208
0.0202087
0.0202095
0.0202103
0.0202113
0.0202124
0.0202137
0.0202149
0.0202154
0.0202147
0.0202131
0.0202115
0.0202101
0.020209
0.0202081
0.0202074
0.0202068
0.0202063
0.0202058
0.0202053
0.0202047
0.0202042
0.0202037
0.0202033
0.0202031
0.020203
0.0202052
0.0202053
0.0202056
0.020206
0.0202065
0.0202072
0.0202078
0.0202085
0.0202092
0.02021
0.020211
0.0202123
0.0202138
0.0202154
0.0202163
0.0202154
0.0202135
0.0202116
0.02021
0.0202088
0.0202079
0.0202072
0.0202066
0.0202062
0.0202058
0.0202053
0.0202048
0.0202042
0.0202037
0.0202034
0.0202031
0.0202031
0.0202052
0.0202053
0.0202055
0.0202059
0.0202064
0.0202069
0.0202075
0.020208
0.0202087
0.0202094
0.0202105
0.020212
0.0202139
0.0202161
0.0202173
0.0202164
0.020214
0.0202117
0.0202098
0.0202084
0.0202074
0.0202067
0.0202062
0.0202059
0.0202056
0.0202052
0.0202047
0.0202042
0.0202038
0.0202034
0.0202032
0.0202031
0.0202051
0.0202052
0.0202054
0.0202057
0.0202061
0.0202065
0.0202069
0.0202073
0.0202078
0.0202085
0.0202096
0.0202113
0.0202138
0.0202167
0.0202185
0.0202175
0.0202146
0.0202117
0.0202094
0.0202078
0.0202067
0.020206
0.0202056
0.0202054
0.0202052
0.0202049
0.0202046
0.0202041
0.0202037
0.0202034
0.0202032
0.0202031
0.0202049
0.020205
0.0202051
0.0202054
0.0202056
0.0202059
0.0202061
0.0202063
0.0202066
0.0202072
0.0202083
0.0202102
0.0202134
0.0202173
0.0202198
0.0202188
0.0202152
0.0202115
0.0202087
0.0202068
0.0202057
0.020205
0.0202047
0.0202046
0.0202046
0.0202045
0.0202043
0.0202039
0.0202036
0.0202034
0.0202032
0.0202031
0.0202046
0.0202047
0.0202048
0.0202049
0.0202051
0.0202051
0.0202051
0.0202051
0.0202051
0.0202055
0.0202066
0.0202088
0.0202128
0.0202179
0.0202213
0.0202202
0.0202157
0.0202111
0.0202077
0.0202055
0.0202043
0.0202037
0.0202035
0.0202036
0.0202038
0.0202039
0.0202038
0.0202037
0.0202034
0.0202032
0.0202031
0.020203
0.0202041
0.0202042
0.0202043
0.0202044
0.0202044
0.0202042
0.020204
0.0202037
0.0202035
0.0202037
0.0202047
0.0202074
0.0202124
0.0202189
0.0202231
0.0202217
0.0202161
0.0202104
0.0202063
0.0202038
0.0202025
0.020202
0.0202021
0.0202024
0.0202028
0.0202031
0.0202033
0.0202033
0.0202032
0.020203
0.0202029
0.0202029
0.0202035
0.0202036
0.0202037
0.0202037
0.0202036
0.0202033
0.0202029
0.0202024
0.020202
0.020202
0.0202032
0.0202064
0.0202127
0.0202207
0.0202253
0.020223
0.0202161
0.0202092
0.0202045
0.0202016
0.0202003
0.0202001
0.0202004
0.020201
0.0202017
0.0202023
0.0202026
0.0202028
0.0202028
0.0202028
0.0202027
0.0202026
0.0202026
0.0202027
0.0202028
0.0202029
0.0202028
0.0202025
0.020202
0.0202014
0.0202009
0.020201
0.0202025
0.0202068
0.0202148
0.0202239
0.0202281
0.0202241
0.0202153
0.0202073
0.0202019
0.020199
0.0201978
0.0201979
0.0201985
0.0201995
0.0202005
0.0202013
0.0202019
0.0202022
0.0202024
0.0202024
0.0202023
0.0202023
0.0202013
0.0202014
0.0202015
0.0202017
0.0202017
0.0202015
0.0202012
0.0202007
0.0202004
0.020201
0.0202038
0.0202103
0.0202202
0.0202294
0.0202313
0.0202242
0.0202132
0.0202041
0.0201986
0.0201958
0.020195
0.0201955
0.0201966
0.0201979
0.0201992
0.0202003
0.0202011
0.0202016
0.0202018
0.0202019
0.0202019
0.0202019
0.0202002
0.0202001
0.0202
0.0201997
0.0201996
0.0201995
0.0201995
0.0202
0.0202015
0.0202047
0.0202107
0.0202201
0.0202309
0.0202371
0.0202336
0.0202217
0.0202087
0.0201995
0.0201944
0.0201923
0.0201921
0.0201931
0.0201946
0.0201963
0.0201979
0.0201992
0.0202002
0.0202008
0.0202012
0.0202013
0.0202013
0.0202013
0.0202112
0.0202111
0.0202107
0.0202103
0.0202101
0.0202104
0.0202115
0.0202139
0.0202178
0.0202239
0.020232
0.0202409
0.0202463
0.0202433
0.0202311
0.0202149
0.0202016
0.0201938
0.0201902
0.0201891
0.0201897
0.0201911
0.0201929
0.0201948
0.0201966
0.0201982
0.0201993
0.0202001
0.0202005
0.0202006
0.0202006
0.0202006
0.0202439
0.0202441
0.0202445
0.020245
0.0202458
0.020247
0.0202489
0.0202514
0.0202547
0.0202583
0.0202608
0.0202598
0.0202524
0.0202384
0.0202214
0.020206
0.0201953
0.0201899
0.0201878
0.0201876
0.0201886
0.0201903
0.0201922
0.0201942
0.020196
0.0201975
0.0201985
0.0201992
0.0201995
0.0201997
0.0201997
0.0201997
0.0202705
0.0202709
0.0202716
0.0202725
0.0202735
0.0202743
0.0202749
0.0202751
0.0202743
0.0202718
0.0202666
0.0202581
0.0202463
0.0202326
0.0202182
0.0202048
0.020195
0.0201901
0.0201885
0.0201886
0.0201897
0.0201912
0.0201929
0.0201946
0.0201961
0.0201974
0.0201983
0.0201989
0.0201991
0.0201991
0.0201991
0.020199
0.0202824
0.0202826
0.0202831
0.0202836
0.020284
0.0202842
0.0202839
0.0202828
0.0202805
0.0202766
0.0202708
0.0202627
0.0202525
0.0202401
0.0202261
0.0202117
0.0202
0.0201935
0.0201912
0.0201912
0.0201923
0.0201938
0.0201954
0.0201967
0.0201977
0.020198
0.020198
0.0201978
0.0201977
0.020198
0.0201985
0.0201988
0.0202887
0.0202889
0.0202893
0.0202898
0.0202904
0.0202909
0.0202911
0.0202907
0.0202893
0.0202867
0.0202825
0.0202765
0.0202681
0.020257
0.0202429
0.0202266
0.0202113
0.0202012
0.0201961
0.0201941
0.0201936
0.0201936
0.0201936
0.0201936
0.0201937
0.0201945
0.0201965
0.0201999
0.0202044
0.0202092
0.0202128
0.0202147
0.0202931
0.0202933
0.0202939
0.0202947
0.0202959
0.0202974
0.0202989
0.0203001
0.0203008
0.0203006
0.0202991
0.020296
0.0202905
0.0202815
0.0202685
0.0202513
0.0202328
0.0202184
0.0202098
0.0202052
0.0202032
0.0202033
0.0202052
0.0202094
0.020216
0.0202252
0.0202364
0.0202485
0.0202597
0.0202684
0.0202737
0.0202758
0.0202964
0.0202967
0.0202973
0.0202985
0.0203004
0.0203029
0.0203059
0.0203091
0.0203121
0.0203148
0.0203166
0.0203171
0.0203153
0.0203101
0.0203
0.0202843
0.0202654
0.0202497
0.0202406
0.0202375
0.0202398
0.0202472
0.0202595
0.0202759
0.0202949
0.0203146
0.0203328
0.0203475
0.0203573
0.0203621
0.0203633
0.0203631
0.0202992
0.0202994
0.0203001
0.0203014
0.0203036
0.0203067
0.0203108
0.0203156
0.0203208
0.0203261
0.0203312
0.0203355
0.0203381
0.0203375
0.020332
0.0203201
0.0203033
0.0202888
0.0202822
0.0202838
0.0202934
0.0203104
0.0203331
0.0203586
0.0203837
0.0204052
0.0204214
0.0204313
0.0204355
0.0204353
0.020433
0.0204311
0.0203023
0.0203024
0.0203029
0.0203041
0.0203063
0.0203096
0.0203142
0.0203199
0.0203266
0.0203338
0.0203415
0.0203491
0.0203558
0.0203601
0.02036
0.0203532
0.02034
0.020327
0.0203218
0.0203261
0.0203398
0.0203611
0.0203865
0.0204119
0.0204337
0.0204501
0.020461
0.0204671
0.0204695
0.0204693
0.0204675
0.0204659
0.0203071
0.020307
0.0203071
0.0203079
0.0203098
0.0203131
0.0203179
0.0203241
0.0203316
0.0203401
0.0203494
0.0203592
0.0203689
0.0203772
0.0203821
0.0203808
0.020372
0.0203606
0.0203549
0.0203582
0.0203709
0.0203905
0.0204129
0.0204338
0.0204505
0.0204626
0.0204709
0.0204763
0.0204794
0.0204806
0.0204805
0.0204798
0.0203148
0.0203144
0.020314
0.0203143
0.0203159
0.0203191
0.020324
0.0203307
0.0203388
0.0203481
0.0203583
0.0203692
0.0203804
0.020391
0.0203994
0.0204028
0.0203986
0.0203897
0.0203833
0.0203836
0.0203922
0.0204071
0.0204245
0.0204408
0.020454
0.0204643
0.0204721
0.0204781
0.0204823
0.0204846
0.0204855
0.0204854
0.0203269
0.020326
0.0203251
0.020325
0.0203265
0.0203299
0.0203352
0.0203423
0.0203508
0.0203605
0.020371
0.0203821
0.0203935
0.0204046
0.0204145
0.0204208
0.0204204
0.0204145
0.0204083
0.0204062
0.0204103
0.02042
0.0204324
0.0204448
0.0204556
0.0204647
0.0204724
0.0204788
0.0204837
0.0204869
0.0204884
0.0204887
0.020344
0.0203427
0.0203417
0.0203418
0.0203437
0.0203476
0.0203534
0.0203608
0.0203693
0.0203786
0.0203886
0.020399
0.0204095
0.0204199
0.0204294
0.0204366
0.0204386
0.0204353
0.0204304
0.0204274
0.0204283
0.0204336
0.0204418
0.0204508
0.0204593
0.020467
0.020474
0.0204802
0.0204853
0.0204889
0.0204908
0.0204913
0.0203668
0.0203655
0.020365
0.020366
0.0203689
0.0203734
0.0203793
0.0203863
0.0203941
0.0204023
0.0204109
0.0204196
0.0204284
0.020437
0.0204451
0.0204517
0.0204545
0.0204531
0.0204497
0.0204468
0.0204463
0.0204487
0.0204536
0.0204596
0.0204658
0.0204718
0.0204774
0.0204827
0.0204873
0.0204909
0.0204929
0.0204936
0.0203957
0.020395
0.020396
0.0203983
0.0204018
0.0204063
0.0204115
0.0204173
0.0204234
0.0204297
0.0204362
0.0204426
0.0204491
0.0204554
0.0204613
0.0204663
0.0204688
0.0204685
0.0204664
0.0204643
0.0204634
0.0204643
0.020467
0.0204706
0.0204747
0.0204787
0.0204827
0.0204865
0.0204901
0.020493
0.0204949
0.0204956
0.0204317
0.0204324
0.0204346
0.0204373
0.0204403
0.0204436
0.0204471
0.0204508
0.0204546
0.0204585
0.0204624
0.0204663
0.0204701
0.0204739
0.0204774
0.0204804
0.0204821
0.0204821
0.020481
0.0204798
0.0204791
0.0204794
0.0204806
0.0204825
0.0204847
0.0204869
0.0204892
0.0204914
0.0204936
0.0204955
0.0204969
0.0204975
0.0204759
0.0204766
0.0204778
0.020479
0.0204801
0.0204813
0.0204826
0.0204839
0.0204851
0.0204864
0.0204877
0.020489
0.0204902
0.0204915
0.0204926
0.0204936
0.0204942
0.0204942
0.0204939
0.0204935
0.0204932
0.0204933
0.0204936
0.0204942
0.0204949
0.0204956
0.0204963
0.020497
0.0204977
0.0204984
0.0204989
0.0204991
)
;

boundaryField
{
    movingWall
    {
        type            fixedValue;
        value           uniform 0.0205;
    }
    fixedWalls
    {
        type            zeroGradient;
    }
    floor
    {
        type            zeroGradient;
    }
    frontAndBack
    {
        type            empty;
    }
}


// ************************************************************************* //
