/*--------------------------------*- C++ -*----------------------------------*\
| =========                 |                                                 |
| \\      /  F ield         | OpenFOAM: The Open Source CFD Toolbox           |
|  \\    /   O peration     | Version:  2212                                  |
|   \\  /    A nd           | Website:  www.openfoam.com                      |
|    \\/     M anipulation  |                                                 |
\*---------------------------------------------------------------------------*/
FoamFile
{
    version     2.0;
    format      ascii;
    arch        "LSB;label=64;scalar=64";
    class       surfaceScalarField;
    location    "0.07";
    object      phi;
}
// * * * * * * * * * * * * * * * * * * * * * * * * * * * * * * * * * * * * * //

dimensions      [0 3 -1 0 0 0 0];

oriented        oriented;

internalField   nonuniform List<scalar> 
65152
(
5.21843e-12
-5.2184e-12
1.66272e-11
-1.14087e-11
2.99243e-11
-1.32971e-11
4.36016e-11
-1.36772e-11
5.72782e-11
-1.36766e-11
7.0853e-11
-1.35748e-11
8.42811e-11
-1.3428e-11
9.75282e-11
-1.32471e-11
1.10563e-10
-1.30348e-11
1.23355e-10
-1.27924e-11
1.35876e-10
-1.25205e-11
1.48096e-10
-1.22198e-11
1.59987e-10
-1.18909e-11
1.71521e-10
-1.15342e-11
1.82671e-10
-1.11503e-11
1.93411e-10
-1.07396e-11
2.03714e-10
-1.03027e-11
2.13554e-10
-9.84031e-12
2.22907e-10
-9.353e-12
2.31749e-10
-8.84151e-12
2.40055e-10
-8.30663e-12
2.47805e-10
-7.74922e-12
2.54975e-10
-7.1702e-12
2.61545e-10
-6.5706e-12
2.67497e-10
-5.95148e-12
2.72811e-10
-5.31403e-12
2.7747e-10
-4.65952e-12
2.8146e-10
-3.98932e-12
2.84765e-10
-3.30493e-12
2.87373e-10
-2.608e-12
2.89273e-10
-1.90041e-12
2.90458e-10
-1.18441e-12
2.90921e-10
-4.63151e-13
2.90661e-10
2.59407e-13
2.89669e-10
9.92551e-13
2.87944e-10
1.72457e-12
2.85483e-10
2.46092e-12
2.82286e-10
3.1977e-12
2.78353e-10
3.93257e-12
2.7369e-10
4.66291e-12
2.68304e-10
5.38629e-12
2.62204e-10
6.10033e-12
2.55401e-10
6.80275e-12
2.4791e-10
7.49127e-12
2.39746e-10
8.16368e-12
2.30928e-10
8.81777e-12
2.21477e-10
9.4514e-12
2.11414e-10
1.00624e-11
2.00765e-10
1.06489e-11
1.89557e-10
1.12087e-11
1.77817e-10
1.174e-11
1.65576e-10
1.2241e-11
1.52866e-10
1.27099e-11
1.39721e-10
1.31451e-11
1.26176e-10
1.3545e-11
1.12267e-10
1.39084e-11
9.80334e-11
1.42338e-11
8.35133e-11
1.45201e-11
6.87471e-11
1.47663e-11
5.37757e-11
1.49714e-11
3.8641e-11
1.51346e-11
2.33857e-11
1.52553e-11
8.05313e-12
1.53326e-11
-7.31261e-12
1.53657e-11
-2.2679e-11
1.53664e-11
-3.80102e-11
1.53312e-11
-5.32574e-11
1.52472e-11
-6.83748e-11
1.51174e-11
-8.33182e-11
1.49434e-11
-9.80445e-11
1.47263e-11
-1.12512e-10
1.44673e-11
-1.26679e-10
1.41676e-11
-1.40508e-10
1.38285e-11
-1.53959e-10
1.34511e-11
-1.66996e-10
1.30371e-11
-1.79584e-10
1.25878e-11
-1.91689e-10
1.21049e-11
-2.03279e-10
1.15901e-11
-2.14324e-10
1.10453e-11
-2.24797e-10
1.04723e-11
-2.3467e-10
9.87317e-12
-2.4392e-10
9.24992e-12
-2.52525e-10
8.60469e-12
-2.60464e-10
7.93961e-12
-2.67721e-10
7.25693e-12
-2.7428e-10
6.55883e-12
-2.80128e-10
5.84765e-12
-2.85253e-10
5.12562e-12
-2.89649e-10
4.39514e-12
-2.93307e-10
3.65856e-12
-2.96226e-10
2.91842e-12
-2.98403e-10
2.17727e-12
-2.99841e-10
1.4376e-12
-3.00543e-10
7.02773e-13
-3.00516e-10
-2.72316e-14
-2.99763e-10
-7.53088e-13
-2.98286e-10
-1.47689e-12
-2.96091e-10
-2.195e-12
-2.93187e-10
-2.90457e-12
-2.89584e-10
-3.60339e-12
-2.85294e-10
-4.2895e-12
-2.80333e-10
-4.96124e-12
-2.74716e-10
-5.61703e-12
-2.68461e-10
-6.25551e-12
-2.61585e-10
-6.87535e-12
-2.5411e-10
-7.47538e-12
-2.46056e-10
-8.05449e-12
-2.37444e-10
-8.6117e-12
-2.28298e-10
-9.14605e-12
-2.18641e-10
-9.65671e-12
-2.08498e-10
-1.01429e-11
-1.97895e-10
-1.06039e-11
-1.86856e-10
-1.10391e-11
-1.75408e-10
-1.14479e-11
-1.63578e-10
-1.18297e-11
-1.51394e-10
-1.21841e-11
-1.38884e-10
-1.25105e-11
-1.26075e-10
-1.28085e-11
-1.12998e-10
-1.30776e-11
-9.96806e-11
-1.33172e-11
-8.6154e-11
-1.35266e-11
-7.24495e-11
-1.37046e-11
-5.86011e-11
-1.38485e-11
-4.46537e-11
-1.39475e-11
-3.07084e-11
-1.39454e-11
-1.7146e-11
-1.35624e-11
-5.47407e-12
-1.16721e-11
-5.47409e-12
7.2643e-12
-1.24827e-11
2.23938e-11
-2.65383e-11
3.97881e-11
-3.06913e-11
5.75688e-11
-3.14579e-11
7.52931e-11
-3.14009e-11
9.28603e-11
-3.1142e-11
1.10229e-10
-3.07969e-11
1.27366e-10
-3.03837e-11
1.44236e-10
-2.99053e-11
1.60806e-10
-2.93623e-11
1.77041e-10
-2.87552e-11
1.92906e-10
-2.80847e-11
2.08366e-10
-2.73514e-11
2.23388e-10
-2.65561e-11
2.37938e-10
-2.56996e-11
2.51981e-10
-2.47828e-11
2.65485e-10
-2.38067e-11
2.78417e-10
-2.27725e-11
2.90745e-10
-2.16813e-11
3.02439e-10
-2.05347e-11
3.13466e-10
-1.9334e-11
3.23798e-10
-1.8081e-11
3.33405e-10
-1.67775e-11
3.4226e-10
-1.54254e-11
3.50336e-10
-1.40269e-11
3.57606e-10
-1.25845e-11
3.64047e-10
-1.11005e-11
3.69636e-10
-9.57783e-12
3.7435e-10
-8.0193e-12
3.7817e-10
-6.42806e-12
3.81077e-10
-4.80741e-12
3.83054e-10
-3.16078e-12
3.84082e-10
-1.4916e-12
3.84141e-10
2.00008e-13
3.83234e-10
1.90031e-12
3.81347e-10
3.61163e-12
3.78476e-10
5.3317e-12
3.74623e-10
7.05095e-12
3.69789e-10
8.76627e-12
3.63979e-10
1.04728e-11
3.572e-10
1.21656e-11
3.4946e-10
1.38395e-11
3.40774e-10
1.54893e-11
3.31155e-10
1.71097e-11
3.20624e-10
1.86955e-11
3.092e-10
2.02414e-11
2.96909e-10
2.17421e-11
2.83779e-10
2.31923e-11
2.69841e-10
2.45872e-11
2.55128e-10
2.59215e-11
2.39678e-10
2.71905e-11
2.23529e-10
2.83895e-11
2.06725e-10
2.95141e-11
1.8931e-10
3.05599e-11
1.71332e-10
3.15231e-11
1.5284e-10
3.23999e-11
1.33887e-10
3.31869e-11
1.14526e-10
3.3881e-11
9.48132e-11
3.44795e-11
7.48045e-11
3.49801e-11
5.45583e-11
3.53808e-11
3.41338e-11
3.56799e-11
1.359e-11
3.58763e-11
-7.01397e-12
3.59697e-11
-2.76095e-11
3.59618e-11
-4.81301e-11
3.58518e-11
-6.85193e-11
3.56364e-11
-8.8718e-11
3.53161e-11
-1.08667e-10
3.48926e-11
-1.28309e-10
3.43677e-11
-1.47585e-10
3.3744e-11
-1.66442e-10
3.30238e-11
-1.84823e-10
3.22103e-11
-2.02679e-10
3.13067e-11
-2.19959e-10
3.03168e-11
-2.36615e-10
2.92442e-11
-2.52604e-10
2.80934e-11
-2.67882e-10
2.68686e-11
-2.82412e-10
2.55745e-11
-2.96155e-10
2.42159e-11
-3.0908e-10
2.27978e-11
-3.21155e-10
2.13253e-11
-3.32354e-10
1.98037e-11
-3.42653e-10
1.82382e-11
-3.5203e-10
1.66342e-11
-3.60468e-10
1.4997e-11
-3.67953e-10
1.3332e-11
-3.74472e-10
1.16445e-11
-3.80017e-10
9.93987e-12
-3.84581e-10
8.22317e-12
-3.88162e-10
6.49953e-12
-3.90759e-10
4.77377e-12
-3.92371e-10
3.04924e-12
-3.93003e-10
1.33519e-12
-3.92662e-10
-3.68297e-13
-3.91356e-10
-2.05881e-12
-3.89104e-10
-3.72968e-12
-3.85921e-10
-5.37826e-12
-3.81824e-10
-7.00087e-12
-3.76834e-10
-8.59398e-12
-3.70969e-10
-1.01541e-11
-3.64252e-10
-1.16781e-11
-3.56707e-10
-1.3163e-11
-3.48356e-10
-1.46059e-11
-3.39227e-10
-1.60044e-11
-3.29347e-10
-1.7356e-11
-3.18743e-10
-1.86585e-11
-3.07445e-10
-1.99101e-11
-2.95482e-10
-2.11087e-11
-2.82886e-10
-2.2253e-11
-2.69688e-10
-2.33412e-11
-2.55919e-10
-2.43721e-11
-2.41614e-10
-2.53445e-11
-2.26805e-10
-2.62573e-11
-2.11525e-10
-2.71094e-11
-1.95809e-10
-2.79001e-11
-1.79691e-10
-2.86286e-11
-1.63206e-10
-2.92942e-11
-1.46387e-10
-2.98962e-11
-1.2927e-10
-3.04341e-11
-1.1189e-10
-3.09074e-11
-9.42787e-11
-3.13156e-11
-7.64714e-11
-3.16559e-11
-5.85087e-11
-3.19102e-11
-4.04913e-11
-3.19628e-11
-2.28618e-11
-3.1192e-11
-7.49625e-12
-2.70377e-11
-1.29704e-11
7.72155e-12
-2.02042e-11
2.33374e-11
-4.21541e-11
4.12216e-11
-4.85755e-11
5.95165e-11
-4.97528e-11
7.77723e-11
-4.96567e-11
9.58785e-11
-4.92481e-11
1.13788e-10
-4.87063e-11
1.31463e-10
-4.80591e-11
1.48869e-10
-4.73108e-11
1.65969e-10
-4.64621e-11
1.82727e-10
-4.55138e-11
1.99109e-10
-4.44666e-11
2.15079e-10
-4.33213e-11
2.30602e-10
-4.20789e-11
2.45643e-10
-4.07406e-11
2.60168e-10
-3.93075e-11
2.74143e-10
-3.77812e-11
2.87533e-10
-3.61631e-11
3.00307e-10
-3.44551e-11
3.12432e-10
-3.26591e-11
3.23875e-10
-3.07774e-11
3.34606e-10
-2.88124e-11
3.44596e-10
-2.67666e-11
3.53813e-10
-2.46431e-11
3.62232e-10
-2.24451e-11
3.69823e-10
-2.0176e-11
3.76562e-10
-1.78397e-11
3.82425e-10
-1.54402e-11
3.87387e-10
-1.29819e-11
3.91429e-10
-1.04696e-11
3.9453e-10
-7.90815e-12
3.96672e-10
-5.30289e-12
3.97839e-10
-2.6592e-12
3.98017e-10
2.22937e-14
3.97198e-10
2.71919e-12
3.95373e-10
5.43664e-12
3.92533e-10
8.17187e-12
3.88675e-10
1.09094e-11
3.83798e-10
1.36432e-11
3.77905e-10
1.63657e-11
3.71001e-10
1.90692e-11
3.63096e-10
2.17452e-11
3.54199e-10
2.43856e-11
3.44327e-10
2.69818e-11
3.33498e-10
2.95253e-11
3.21731e-10
3.20074e-11
3.09054e-10
3.44197e-11
2.95493e-10
3.67534e-11
2.8108e-10
3.90003e-11
2.65849e-10
4.11521e-11
2.49839e-10
4.32006e-11
2.3309e-10
4.51381e-11
2.15647e-10
4.69571e-11
1.97557e-10
4.86504e-11
1.78869e-10
5.02113e-11
1.59635e-10
5.16336e-11
1.3991e-10
5.29115e-11
1.19752e-10
5.40397e-11
9.92175e-11
5.50137e-11
7.83683e-11
5.58293e-11
5.72659e-11
5.64832e-11
3.59729e-11
5.69728e-11
1.45531e-11
5.72961e-11
-6.929e-12
5.74517e-11
-2.84041e-11
5.74369e-11
-4.98036e-11
5.72513e-11
-7.10635e-11
5.68963e-11
-9.21204e-11
5.6373e-11
-1.12911e-10
5.56836e-11
-1.33375e-10
5.48311e-11
-1.5345e-10
5.38192e-11
-1.73079e-10
5.26522e-11
-1.92203e-10
5.13351e-11
-2.1077e-10
4.98733e-11
-2.28726e-10
4.82729e-11
-2.46022e-10
4.65405e-11
-2.62612e-10
4.4683e-11
-2.78451e-10
4.27079e-11
-2.935e-10
4.06229e-11
-3.0772e-10
3.8436e-11
-3.21078e-10
3.61554e-11
-3.33542e-10
3.37896e-11
-3.45085e-10
3.13472e-11
-3.55684e-10
2.88368e-11
-3.65317e-10
2.62673e-11
-3.73968e-10
2.36472e-11
-3.81621e-10
2.09853e-11
-3.88267e-10
1.82901e-11
-3.93897e-10
1.557e-11
-3.98507e-10
1.28332e-11
-4.02095e-10
1.00878e-11
-4.04663e-10
7.34133e-12
-4.06214e-10
4.59974e-12
-4.06758e-10
1.87907e-12
-4.06302e-10
-8.23922e-13
-4.04857e-10
-3.50363e-12
-4.02438e-10
-6.14937e-12
-3.99059e-10
-8.75674e-12
-3.9474e-10
-1.13201e-11
-3.895e-10
-1.38341e-11
-3.83361e-10
-1.62936e-11
-3.76345e-10
-1.86939e-11
-3.68478e-10
-2.10303e-11
-3.59785e-10
-2.32989e-11
-3.50294e-10
-2.54957e-11
-3.40032e-10
-2.76173e-11
-3.2903e-10
-2.96605e-11
-3.17318e-10
-3.16224e-11
-3.04927e-10
-3.35002e-11
-2.91888e-10
-3.52917e-11
-2.78235e-10
-3.69946e-11
-2.64e-10
-3.8607e-11
-2.49217e-10
-4.01272e-11
-2.33921e-10
-4.15537e-11
-2.18145e-10
-4.28851e-11
-2.01925e-10
-4.41203e-11
-1.85296e-10
-4.52581e-11
-1.68292e-10
-4.62978e-11
-1.5095e-10
-4.72384e-11
-1.33305e-10
-4.80795e-11
-1.15392e-10
-4.88203e-11
-9.72474e-11
-4.94603e-11
-7.89081e-11
-4.99952e-11
-6.04211e-11
-5.03973e-11
-4.18968e-11
-5.04872e-11
-2.37848e-11
-4.93041e-11
-7.94164e-12
-4.2881e-11
-2.0912e-11
7.94338e-12
-2.81475e-11
2.3927e-11
-5.81377e-11
4.22145e-11
-6.68629e-11
6.09223e-11
-6.84605e-11
7.9595e-11
-6.83293e-11
9.81196e-11
-6.77727e-11
1.16448e-10
-6.70342e-11
1.3454e-10
-6.6152e-11
1.52362e-10
-6.5132e-11
1.69875e-10
-6.39753e-11
1.87044e-10
-6.26828e-11
2.03833e-10
-6.12554e-11
2.20205e-10
-5.9694e-11
2.36126e-10
-5.79999e-11
2.5156e-10
-5.61745e-11
2.66472e-10
-5.42192e-11
2.80827e-10
-5.21359e-11
2.9459e-10
-4.99266e-11
3.07729e-10
-4.75934e-11
3.20208e-10
-4.5139e-11
3.31997e-10
-4.25661e-11
3.43063e-10
-3.98778e-11
3.53374e-10
-3.70776e-11
3.629e-10
-3.41693e-11
3.71612e-10
-3.11572e-11
3.79482e-10
-2.80457e-11
3.86482e-10
-2.484e-11
3.92587e-10
-2.15454e-11
3.97773e-10
-1.81678e-11
4.02017e-10
-1.47134e-11
4.05298e-10
-1.11892e-11
4.07597e-10
-7.60209e-12
4.08898e-10
-3.95971e-12
4.09187e-10
-2.66847e-13
4.08449e-10
3.45729e-12
4.06678e-10
7.20724e-12
4.03863e-10
1.0987e-11
4e-10
1.47729e-11
3.95086e-10
1.85569e-11
3.89123e-10
2.23283e-11
3.82116e-10
2.60762e-11
3.74072e-10
2.9789e-11
3.65003e-10
3.34551e-11
3.54922e-10
3.70627e-11
3.43848e-10
4.05998e-11
3.31801e-10
4.40541e-11
3.18807e-10
4.74137e-11
3.04894e-10
5.06664e-11
2.90094e-10
5.38003e-11
2.74442e-10
5.68036e-11
2.57978e-10
5.96648e-11
2.40743e-10
6.23727e-11
2.22784e-10
6.49166e-11
2.04148e-10
6.72863e-11
1.84887e-10
6.94721e-11
1.65056e-10
7.14649e-11
1.44711e-10
7.32564e-11
1.23912e-10
7.4839e-11
1.0272e-10
7.62059e-11
8.11975e-11
7.73514e-11
5.94102e-11
7.82705e-11
3.74238e-11
7.89592e-11
1.53055e-11
7.94144e-11
-6.87656e-12
7.96339e-11
-2.90527e-11
7.9613e-11
-5.1153e-11
7.93517e-11
-7.31092e-11
7.88525e-11
-9.48539e-11
7.81177e-11
-1.16321e-10
7.71505e-11
-1.37445e-10
7.59554e-11
-1.58164e-10
7.45376e-11
-1.78415e-10
7.29033e-11
-1.98139e-10
7.10595e-11
-2.1728e-10
6.90143e-11
-2.35784e-10
6.67763e-11
-2.53598e-10
6.4355e-11
-2.70675e-10
6.17602e-11
-2.8697e-10
5.90027e-11
-3.02441e-10
5.60935e-11
-3.17049e-10
5.30439e-11
-3.30759e-10
4.98658e-11
-3.43541e-10
4.65711e-11
-3.55366e-10
4.3172e-11
-3.6621e-10
3.96808e-11
-3.76052e-10
3.61097e-11
-3.84876e-10
3.24711e-11
-3.92668e-10
2.87769e-11
-3.99417e-10
2.50392e-11
-4.05117e-10
2.12697e-11
-4.09763e-10
1.74799e-11
-4.13356e-10
1.36808e-11
-4.15898e-10
9.8831e-12
-4.17394e-10
6.09503e-12
-4.17855e-10
2.34003e-12
-4.17288e-10
-1.39029e-12
-4.15708e-10
-5.08391e-12
-4.13129e-10
-8.72884e-12
-4.09567e-10
-1.23183e-11
-4.05043e-10
-1.58445e-11
-3.99577e-10
-1.93001e-11
-3.93192e-10
-2.26784e-11
-3.85913e-10
-2.59729e-11
-3.77766e-10
-2.91777e-11
-3.68778e-10
-3.22873e-11
-3.58977e-10
-3.52967e-11
-3.48393e-10
-3.82014e-11
-3.37056e-10
-4.0997e-11
-3.24999e-10
-4.36799e-11
-3.12253e-10
-4.62465e-11
-2.9885e-10
-4.86939e-11
-2.84826e-10
-5.10193e-11
-2.70213e-10
-5.32202e-11
-2.55046e-10
-5.52945e-11
-2.39359e-10
-5.72402e-11
-2.23189e-10
-5.90556e-11
-2.0657e-10
-6.07394e-11
-1.89538e-10
-6.22903e-11
-1.72128e-10
-6.37071e-11
-1.54378e-10
-6.4989e-11
-1.36322e-10
-6.61352e-11
-1.17998e-10
-6.7145e-11
-9.94409e-11
-6.80173e-11
-8.06897e-11
-6.87465e-11
-6.17927e-11
-6.92944e-11
-4.28627e-11
-6.94172e-11
-2.43552e-11
-6.78117e-11
-8.15288e-12
-5.90835e-11
-2.90649e-11
8.20608e-12
-3.63536e-11
2.46696e-11
-7.46012e-11
4.34963e-11
-8.56896e-11
6.27562e-11
-8.77203e-11
8.19828e-11
-8.75559e-11
1.01061e-10
-8.68506e-11
1.1994e-10
-8.59139e-11
1.38583e-10
-8.47949e-11
1.56952e-10
-8.35008e-11
1.7501e-10
-8.20332e-11
1.9272e-10
-8.0393e-11
2.10046e-10
-7.85812e-11
2.26951e-10
-7.65991e-11
2.43399e-10
-7.44478e-11
2.59354e-10
-7.21291e-11
2.74779e-10
-6.96446e-11
2.8964e-10
-6.69964e-11
3.039e-10
-6.41867e-11
3.17525e-10
-6.12183e-11
3.3048e-10
-5.80941e-11
3.42731e-10
-5.48174e-11
3.54246e-10
-5.1392e-11
3.6499e-10
-4.7822e-11
3.74933e-10
-4.41121e-11
3.84043e-10
-4.02673e-11
3.92291e-10
-3.62933e-11
3.99647e-10
-3.21963e-11
4.06085e-10
-2.7983e-11
4.11578e-10
-2.36606e-11
4.16101e-10
-1.92371e-11
4.19633e-10
-1.4721e-11
4.22152e-10
-1.01213e-11
4.2364e-10
-5.44758e-12
4.24081e-10
-7.07295e-13
4.23457e-10
4.08051e-12
4.21762e-10
8.90286e-12
4.18984e-10
1.37644e-11
4.15117e-10
1.86407e-11
4.10156e-10
2.35179e-11
4.04101e-10
2.83826e-11
3.96957e-10
3.32203e-11
3.8873e-10
3.80163e-11
3.7943e-10
4.27555e-11
3.6907e-10
4.74223e-11
3.57669e-10
5.2001e-11
3.45247e-10
5.64758e-11
3.3183e-10
6.08307e-11
3.17447e-10
6.50499e-11
3.02129e-10
6.91176e-11
2.85915e-10
7.30181e-11
2.68843e-10
7.67364e-11
2.50958e-10
8.02576e-11
2.32308e-10
8.35674e-11
2.12942e-10
8.66521e-11
1.92915e-10
8.94989e-11
1.72284e-10
9.20957e-11
1.51109e-10
9.44312e-11
1.29453e-10
9.64954e-11
1.0738e-10
9.82791e-11
8.49567e-11
9.97745e-11
6.22523e-11
1.00975e-10
3.93366e-11
1.01875e-10
1.62808e-11
1.0247e-10
-6.84301e-12
1.02758e-10
-2.99612e-11
1.02731e-10
-5.30001e-11
1.02391e-10
-7.5887e-11
1.01739e-10
-9.85504e-11
1.00781e-10
-1.2092e-10
9.95199e-11
-1.42926e-10
9.7962e-11
-1.64503e-10
9.61143e-11
-1.85585e-10
9.39851e-11
-2.06109e-10
9.15841e-11
-2.26017e-10
8.89217e-11
-2.4525e-10
8.60096e-11
-2.63756e-10
8.28603e-11
-2.81483e-10
7.94871e-11
-2.98384e-10
7.59042e-11
-3.14417e-10
7.2126e-11
-3.29541e-10
6.81679e-11
-3.4372e-10
6.40452e-11
-3.56923e-10
5.9774e-11
-3.69121e-10
5.53701e-11
-3.8029e-10
5.08497e-11
-3.90409e-10
4.62289e-11
-3.99462e-10
4.15237e-11
-4.07435e-10
3.675e-11
-4.14319e-10
3.19233e-11
-4.20108e-10
2.70589e-11
-4.248e-10
2.21716e-11
-4.28395e-10
1.72758e-11
-4.30897e-10
1.23848e-11
-4.32315e-10
7.51336e-12
-4.32659e-10
2.68393e-12
-4.31939e-10
-2.11121e-12
-4.30169e-10
-6.85389e-12
-4.27367e-10
-1.15309e-11
-4.23552e-10
-1.61333e-11
-4.18745e-10
-2.06513e-11
-4.12969e-10
-2.50757e-11
-4.0625e-10
-2.9398e-11
-3.98613e-10
-3.36101e-11
-3.90086e-10
-3.77047e-11
-3.80698e-10
-4.16752e-11
-3.7048e-10
-4.55152e-11
-3.59462e-10
-4.92193e-11
-3.47677e-10
-5.27823e-11
-3.35157e-10
-5.61996e-11
-3.21936e-10
-5.94672e-11
-3.08049e-10
-6.25813e-11
-2.9353e-10
-6.55387e-11
-2.78414e-10
-6.83366e-11
-2.62736e-10
-7.09723e-11
-2.46532e-10
-7.34438e-11
-2.29839e-10
-7.5749e-11
-2.12692e-10
-7.78864e-11
-1.95128e-10
-7.98545e-11
-1.77183e-10
-8.16521e-11
-1.58894e-10
-8.32783e-11
-1.40297e-10
-8.47321e-11
-1.21429e-10
-8.60127e-11
-1.02328e-10
-8.71188e-11
-8.30312e-11
-8.80433e-11
-6.35885e-11
-8.87372e-11
-4.4115e-11
-8.88908e-11
-2.50773e-11
-8.68496e-11
-8.4049e-12
-7.5756e-11
-3.74698e-11
8.53289e-12
-4.48865e-11
2.56025e-11
-9.16708e-11
4.51134e-11
-1.05201e-10
6.50746e-11
-1.07681e-10
8.50046e-11
-1.07486e-10
1.04785e-10
-1.06631e-10
1.24365e-10
-1.05494e-10
1.43705e-10
-1.04136e-10
1.62769e-10
-1.02564e-10
1.81518e-10
-1.00783e-10
1.99916e-10
-9.87908e-11
2.17925e-10
-9.65901e-11
2.35508e-10
-9.41818e-11
2.52627e-10
-9.15672e-11
2.69246e-10
-8.87481e-11
2.85328e-10
-8.57262e-11
3.00835e-10
-8.25037e-11
3.15732e-10
-7.90833e-11
3.29981e-10
-7.54677e-11
3.43547e-10
-7.16603e-11
3.56395e-10
-6.76648e-11
3.68488e-10
-6.34854e-11
3.79793e-10
-5.9127e-11
3.90276e-10
-5.45948e-11
3.99904e-10
-4.98948e-11
4.08644e-10
-4.50335e-11
4.16466e-10
-4.00181e-11
4.23339e-10
-3.48567e-11
4.29237e-10
-2.95578e-11
4.3413e-10
-2.41309e-11
4.37996e-10
-1.85862e-11
4.40809e-10
-1.29346e-11
4.42549e-10
-7.18763e-12
4.43197e-10
-1.35533e-12
4.42734e-10
4.54354e-12
4.41152e-10
1.04854e-11
4.38435e-10
1.64811e-11
4.34574e-10
2.25012e-11
4.29565e-10
2.85272e-11
4.23405e-10
3.45425e-11
4.16096e-10
4.05291e-11
4.07644e-10
4.64688e-11
3.98057e-10
5.23425e-11
3.87348e-10
5.81309e-11
3.75535e-10
6.38142e-11
3.62638e-10
6.93726e-11
3.48683e-10
7.4786e-11
3.33699e-10
8.00342e-11
3.17719e-10
8.50973e-11
3.00782e-10
8.99556e-11
2.82928e-10
9.45898e-11
2.64205e-10
9.89809e-11
2.44662e-10
1.03111e-10
2.24352e-10
1.06962e-10
2.03333e-10
1.10518e-10
1.81665e-10
1.13763e-10
1.59413e-10
1.16683e-10
1.36643e-10
1.19265e-10
1.13425e-10
1.21498e-10
8.98292e-11
1.2337e-10
6.59307e-11
1.24873e-10
4.18042e-11
1.26001e-10
1.75264e-11
1.26748e-10
-6.82519e-12
1.27109e-10
-3.11713e-11
1.27077e-10
-5.54325e-11
1.26652e-10
-7.95306e-11
1.25838e-10
-1.03388e-10
1.24639e-10
-1.2693e-10
1.23062e-10
-1.50082e-10
1.21114e-10
-1.72772e-10
1.18804e-10
-1.9493e-10
1.16143e-10
-2.1649e-10
1.13144e-10
-2.37388e-10
1.0982e-10
-2.57563e-10
1.06185e-10
-2.76959e-10
1.02256e-10
-2.95522e-10
9.80497e-11
-3.13202e-10
9.35842e-11
-3.29954e-10
8.88782e-11
-3.45737e-10
8.39507e-11
-3.60513e-10
7.88217e-11
-3.7425e-10
7.35111e-11
-3.86919e-10
6.80392e-11
-3.98496e-10
6.24263e-11
-4.0896e-10
5.66928e-11
-4.18295e-10
5.08587e-11
-4.26489e-10
4.49439e-11
-4.33534e-10
3.89678e-11
-4.39424e-10
3.29496e-11
-4.4416e-10
2.69076e-11
-4.47744e-10
2.08595e-11
-4.50182e-10
1.4822e-11
-4.51484e-10
8.816e-12
-4.51665e-10
2.8649e-12
-4.50733e-10
-3.0434e-12
-4.48708e-10
-8.87946e-12
-4.45608e-10
-1.46303e-11
-4.41457e-10
-2.02848e-11
-4.36277e-10
-2.58311e-11
-4.30095e-10
-3.12582e-11
-4.22937e-10
-3.65559e-11
-4.14833e-10
-4.17146e-11
-4.05812e-10
-4.67258e-11
-3.95905e-10
-5.15814e-11
-3.85146e-10
-5.62743e-11
-3.73568e-10
-6.07978e-11
-3.61204e-10
-6.51462e-11
-3.4809e-10
-6.93142e-11
-3.3426e-10
-7.32972e-11
-3.1975e-10
-7.70909e-11
-3.04597e-10
-8.06917e-11
-2.88838e-10
-8.40965e-11
-2.72507e-10
-8.73025e-11
-2.55644e-10
-9.03073e-11
-2.38284e-10
-9.31088e-11
-2.20465e-10
-9.57054e-11
-2.02224e-10
-9.80956e-11
-1.83598e-10
-1.00278e-10
-1.64625e-10
-1.02252e-10
-1.45341e-10
-1.04016e-10
-1.25784e-10
-1.0557e-10
-1.0599e-10
-1.06912e-10
-8.60006e-11
-1.08033e-10
-6.58639e-11
-1.08874e-10
-4.5699e-11
-1.09056e-10
-2.59875e-11
-1.06561e-10
-8.72015e-12
-9.30234e-11
-4.619e-11
8.9303e-12
-5.38167e-11
2.67344e-11
-1.09475e-10
4.70747e-11
-1.25541e-10
6.78865e-11
-1.28493e-10
8.86702e-11
-1.2827e-10
1.09303e-10
-1.27263e-10
1.29733e-10
-1.25924e-10
1.49921e-10
-1.24324e-10
1.6983e-10
-1.22473e-10
1.8942e-10
-1.20373e-10
2.08655e-10
-1.18026e-10
2.27496e-10
-1.15431e-10
2.45906e-10
-1.12591e-10
2.63846e-10
-1.09507e-10
2.81277e-10
-1.0618e-10
2.98163e-10
-1.02612e-10
3.14464e-10
-9.88048e-11
3.30143e-10
-9.47618e-11
3.45161e-10
-9.04858e-11
3.5948e-10
-8.59801e-11
3.73064e-10
-8.12487e-11
3.85875e-10
-7.62963e-11
3.97876e-10
-7.1128e-11
4.09031e-10
-6.57497e-11
4.19304e-10
-6.01679e-11
4.28661e-10
-5.43902e-11
4.37068e-10
-4.84245e-11
4.44491e-10
-4.22801e-11
4.509e-10
-3.59667e-11
4.56264e-10
-2.94953e-11
4.60556e-10
-2.28777e-11
4.63748e-10
-1.61267e-11
4.65816e-10
-9.25577e-12
4.66738e-10
-2.27736e-12
4.6649e-10
4.79142e-12
4.65062e-10
1.19135e-11
4.62441e-10
1.9102e-11
4.58609e-10
2.63337e-11
4.53559e-10
3.35775e-11
4.47287e-10
4.08147e-11
4.39792e-10
4.80239e-11
4.31078e-10
5.51827e-11
4.21152e-10
6.22681e-11
4.10027e-10
6.92564e-11
3.97717e-10
7.61237e-11
3.84245e-10
8.28453e-11
3.69634e-10
8.93968e-11
3.53915e-10
9.57533e-11
3.37122e-10
1.0189e-10
3.19295e-10
1.07783e-10
3.00477e-10
1.13408e-10
2.80716e-10
1.18741e-10
2.60067e-10
1.2376e-10
2.38585e-10
1.28444e-10
2.16332e-10
1.32771e-10
1.93374e-10
1.36722e-10
1.69779e-10
1.40279e-10
1.45619e-10
1.43425e-10
1.2097e-10
1.46147e-10
9.5909e-11
1.48431e-10
7.05169e-11
1.50266e-10
4.48753e-11
1.51643e-10
1.90677e-11
1.52556e-10
-6.82108e-12
1.52998e-10
-3.27043e-11
1.5296e-10
-5.84951e-11
1.52443e-10
-8.4108e-11
1.5145e-10
-1.09459e-10
1.4999e-10
-1.34465e-10
1.48068e-10
-1.59046e-10
1.45695e-10
-1.83123e-10
1.42882e-10
-2.06622e-10
1.39642e-10
-2.2947e-10
1.35992e-10
-2.51598e-10
1.31948e-10
-2.72942e-10
1.27528e-10
-2.93439e-10
1.22753e-10
-3.13034e-10
1.17644e-10
-3.31673e-10
1.12224e-10
-3.49309e-10
1.06514e-10
-3.65899e-10
1.00541e-10
-3.81404e-10
9.43267e-11
-3.9579e-10
8.78973e-11
-4.09029e-10
8.12777e-11
-4.21095e-10
7.44927e-11
-4.3197e-10
6.75672e-11
-4.41637e-10
6.05259e-11
-4.50086e-10
5.33931e-11
-4.57311e-10
4.61924e-11
-4.63308e-10
3.89469e-11
-4.6808e-10
3.1679e-11
-4.71631e-10
2.44101e-11
-4.73967e-10
1.71585e-11
-4.75108e-10
9.95686e-12
-4.75072e-10
2.82882e-12
-4.73862e-10
-4.25394e-12
-4.71504e-10
-1.12371e-11
-4.68022e-10
-1.81123e-11
-4.63441e-10
-2.4866e-11
-4.57788e-10
-3.14845e-11
-4.51091e-10
-3.79551e-11
-4.43381e-10
-4.42657e-11
-4.3469e-10
-5.04055e-11
-4.25052e-10
-5.63646e-11
-4.14499e-10
-6.2134e-11
-4.03068e-10
-6.77055e-11
-3.90794e-10
-7.30718e-11
-3.77714e-10
-7.82265e-11
-3.63864e-10
-8.31638e-11
-3.49283e-10
-8.78785e-11
-3.34008e-10
-9.23662e-11
-3.18077e-10
-9.66231e-11
-3.01527e-10
-1.00646e-10
-2.84398e-10
-1.04432e-10
-2.66728e-10
-1.07978e-10
-2.48554e-10
-1.11283e-10
-2.29915e-10
-1.14345e-10
-2.10849e-10
-1.17162e-10
-1.91393e-10
-1.19733e-10
-1.71587e-10
-1.22058e-10
-1.51467e-10
-1.24136e-10
-1.31072e-10
-1.25966e-10
-1.10438e-10
-1.27545e-10
-8.96065e-11
-1.28865e-10
-6.86272e-11
-1.29853e-10
-4.76231e-11
-1.3006e-10
-2.70942e-11
-1.2709e-10
-9.10488e-12
-1.11013e-10
-5.52949e-11
9.40148e-12
-6.32182e-11
2.80703e-11
-1.28144e-10
4.93858e-11
-1.46856e-10
7.1198e-11
-1.50306e-10
9.2986e-11
-1.50058e-10
1.14622e-10
-1.48899e-10
1.36054e-10
-1.47356e-10
1.57242e-10
-1.45511e-10
1.78146e-10
-1.43378e-10
1.9873e-10
-1.40957e-10
2.18955e-10
-1.3825e-10
2.38781e-10
-1.35258e-10
2.5817e-10
-1.3198e-10
2.77083e-10
-1.2842e-10
2.95481e-10
-1.24577e-10
3.13323e-10
-1.20454e-10
3.30571e-10
-1.16052e-10
3.47184e-10
-1.11375e-10
3.63122e-10
-1.06424e-10
3.78347e-10
-1.01204e-10
3.92816e-10
-9.57184e-11
4.06492e-10
-8.99719e-11
4.19334e-10
-8.39701e-11
4.31303e-10
-7.7719e-11
4.42361e-10
-7.12259e-11
4.5247e-10
-6.44987e-11
4.61592e-10
-5.75463e-11
4.6969e-10
-5.03788e-11
4.76731e-10
-4.30071e-11
4.82679e-10
-3.54436e-11
4.87503e-10
-2.77015e-11
4.91172e-10
-1.97954e-11
4.93657e-10
-1.17408e-11
4.94932e-10
-3.55245e-12
4.94965e-10
4.75879e-12
4.93748e-10
1.31298e-11
4.91267e-10
2.15834e-11
4.87493e-10
3.01074e-11
4.82419e-10
3.86517e-11
4.76037e-10
4.71972e-11
4.68342e-10
5.57183e-11
4.59337e-10
6.41881e-11
4.49026e-10
7.25792e-11
4.37419e-10
8.08634e-11
4.24531e-10
8.90117e-11
4.10381e-10
9.69946e-11
3.94996e-10
1.04782e-10
3.78404e-10
1.12345e-10
3.60642e-10
1.19652e-10
3.4175e-10
1.26675e-10
3.21775e-10
1.33383e-10
3.00767e-10
1.39749e-10
2.78783e-10
1.45744e-10
2.55885e-10
1.51342e-10
2.32139e-10
1.56517e-10
2.07616e-10
1.61245e-10
1.8239e-10
1.65504e-10
1.56542e-10
1.69274e-10
1.30152e-10
1.72536e-10
1.03307e-10
1.75275e-10
7.60956e-11
1.77478e-10
4.86071e-11
1.79131e-10
2.09343e-11
1.80228e-10
-6.82914e-12
1.80761e-10
-3.45868e-11
1.80718e-10
-6.22424e-11
1.80098e-10
-8.97012e-11
1.78909e-10
-1.1687e-10
1.77159e-10
-1.43658e-10
1.74856e-10
-1.69977e-10
1.72013e-10
-1.9574e-10
1.68645e-10
-2.20865e-10
1.64767e-10
-2.45273e-10
1.604e-10
-2.68889e-10
1.55564e-10
-2.91642e-10
1.50281e-10
-3.13467e-10
1.44578e-10
-3.34302e-10
1.38479e-10
-3.54091e-10
1.32013e-10
-3.72784e-10
1.25207e-10
-3.90335e-10
1.18092e-10
-4.06704e-10
1.10696e-10
-4.21856e-10
1.0305e-10
-4.35762e-10
9.51839e-11
-4.48399e-10
8.71289e-11
-4.59746e-10
7.89145e-11
-4.6979e-10
7.05704e-11
-4.78523e-10
6.21257e-11
-4.8594e-10
5.36088e-11
-4.9204e-10
4.50472e-11
-4.96829e-10
3.64675e-11
-5.00314e-10
2.78956e-11
-5.02505e-10
1.93496e-11
-5.0343e-10
1.08813e-11
-5.03104e-10
2.50281e-12
-5.01536e-10
-5.82159e-12
-4.98758e-10
-1.40159e-11
-4.94795e-10
-2.20749e-11
-4.89678e-10
-2.99832e-11
-4.83437e-10
-3.77252e-11
-4.76106e-10
-4.52862e-11
-4.67719e-10
-5.2653e-11
-4.58311e-10
-5.98133e-11
-4.4792e-10
-6.67562e-11
-4.36582e-10
-7.34717e-11
-4.24337e-10
-7.99509e-11
-4.11223e-10
-8.61859e-11
-3.97279e-10
-9.21699e-11
-3.82547e-10
-9.78966e-11
-3.67064e-10
-1.03361e-10
-3.50873e-10
-1.08558e-10
-3.34011e-10
-1.13484e-10
-3.16521e-10
-1.18137e-10
-2.98441e-10
-1.22512e-10
-2.79811e-10
-1.26608e-10
-2.60671e-10
-1.30423e-10
-2.4106e-10
-1.33956e-10
-2.21018e-10
-1.37205e-10
-2.00582e-10
-1.40169e-10
-1.79792e-10
-1.42848e-10
-1.58686e-10
-1.45242e-10
-1.37302e-10
-1.4735e-10
-1.15679e-10
-1.49169e-10
-9.38551e-11
-1.50689e-10
-7.18839e-11
-1.51825e-10
-4.98924e-11
-1.52052e-10
-2.84019e-11
-1.48581e-10
-9.56208e-12
-1.29853e-10
-6.4857e-11
9.94902e-12
-7.31672e-11
2.96142e-11
-1.47809e-10
5.20512e-11
-1.69293e-10
7.5014e-11
-1.73268e-10
9.79577e-11
-1.73001e-10
1.20749e-10
-1.71691e-10
1.43335e-10
-1.69942e-10
1.65675e-10
-1.67851e-10
1.8773e-10
-1.65433e-10
2.09462e-10
-1.62689e-10
2.30831e-10
-1.59619e-10
2.51799e-10
-1.56225e-10
2.72325e-10
-1.52506e-10
2.92369e-10
-1.48464e-10
3.11891e-10
-1.44099e-10
3.3085e-10
-1.39413e-10
3.49203e-10
-1.34406e-10
3.66911e-10
-1.29082e-10
3.8393e-10
-1.23443e-10
4.00218e-10
-1.17492e-10
4.15733e-10
-1.11233e-10
4.30431e-10
-1.04671e-10
4.44271e-10
-9.781e-11
4.5721e-10
-9.06577e-11
4.69205e-10
-8.32209e-11
4.80214e-10
-7.55081e-11
4.90197e-10
-6.75287e-11
4.99111e-10
-5.92935e-11
5.06919e-10
-5.08144e-11
5.1358e-10
-4.21048e-11
5.19058e-10
-3.31795e-11
5.23317e-10
-2.40546e-11
5.26324e-10
-1.47475e-11
5.28047e-10
-5.27537e-12
5.28445e-10
4.36104e-12
5.27514e-10
1.40609e-11
5.25226e-10
2.38712e-11
5.21556e-10
3.37767e-11
5.16488e-10
4.37203e-11
5.10008e-10
5.36767e-11
5.02111e-10
6.36159e-11
4.92792e-10
7.35064e-11
4.82056e-10
8.3316e-11
4.69908e-10
9.30112e-11
4.56362e-10
1.02558e-10
4.41436e-10
1.1192e-10
4.25155e-10
1.21063e-10
4.07549e-10
1.29951e-10
3.88655e-10
1.38547e-10
3.68514e-10
1.46816e-10
3.47176e-10
1.54721e-10
3.24696e-10
1.6223e-10
3.01133e-10
1.69307e-10
2.76555e-10
1.7592e-10
2.51034e-10
1.82038e-10
2.24648e-10
1.87631e-10
1.97478e-10
1.92674e-10
1.69613e-10
1.97139e-10
1.41143e-10
2.01006e-10
1.12163e-10
2.04255e-10
8.27724e-11
2.06868e-10
5.30712e-11
2.08833e-10
2.31626e-11
2.10137e-10
-6.84811e-12
2.10772e-10
-3.68529e-11
2.10723e-10
-6.67433e-11
2.09989e-10
-9.64135e-11
2.08579e-10
-1.25759e-10
2.06504e-10
-1.54679e-10
2.03776e-10
-1.83074e-10
2.00408e-10
-2.10849e-10
1.9642e-10
-2.37913e-10
1.91831e-10
-2.64177e-10
1.86665e-10
-2.89561e-10
1.80947e-10
-3.13985e-10
1.74706e-10
-3.3738e-10
1.67972e-10
-3.59678e-10
1.60777e-10
-3.8082e-10
1.53154e-10
-4.0075e-10
1.45138e-10
-4.19423e-10
1.36764e-10
-4.36795e-10
1.28068e-10
-4.52832e-10
1.19086e-10
-4.67503e-10
1.09855e-10
-4.80786e-10
1.00412e-10
-4.92664e-10
9.07917e-11
-5.03123e-10
8.10298e-11
-5.12159e-10
7.1161e-11
-5.19769e-10
6.12187e-11
-5.25957e-10
5.12352e-11
-5.30731e-10
4.12417e-11
-5.34103e-10
3.12681e-11
-5.36094e-10
2.13398e-11
-5.36723e-10
1.15107e-11
-5.36036e-10
1.81534e-12
-5.34011e-10
-7.846e-12
-5.30704e-10
-1.73231e-11
-5.26146e-10
-2.66335e-11
-5.2037e-10
-3.57591e-11
-5.13413e-10
-4.46824e-11
-5.05312e-10
-5.33871e-11
-4.96106e-10
-6.18585e-11
-4.85837e-10
-7.00832e-11
-4.74544e-10
-7.80494e-11
-4.62269e-10
-8.57463e-11
-4.49055e-10
-9.31647e-11
-4.34945e-10
-1.00296e-10
-4.19981e-10
-1.07134e-10
-4.04207e-10
-1.13671e-10
-3.87664e-10
-1.19903e-10
-3.70397e-10
-1.25826e-10
-3.52447e-10
-1.31435e-10
-3.33857e-10
-1.36727e-10
-3.14667e-10
-1.41701e-10
-2.94921e-10
-1.46354e-10
-2.74658e-10
-1.50686e-10
-2.5392e-10
-1.54694e-10
-2.32746e-10
-1.58379e-10
-2.11176e-10
-1.61739e-10
-1.89249e-10
-1.64775e-10
-1.67005e-10
-1.67487e-10
-1.44481e-10
-1.69873e-10
-1.21717e-10
-1.71934e-10
-9.87512e-11
-1.73654e-10
-7.56385e-11
-1.74938e-10
-5.25111e-11
-1.75179e-10
-2.99143e-11
-1.71178e-10
-1.00941e-11
-1.49673e-10
-7.49512e-11
1.05754e-11
-8.37426e-11
3.13695e-11
-1.68603e-10
5.50745e-11
-1.92998e-10
7.9338e-11
-1.97532e-10
1.03589e-10
-1.97252e-10
1.27688e-10
-1.9579e-10
1.51581e-10
-1.93835e-10
1.75227e-10
-1.91497e-10
1.98588e-10
-1.88794e-10
2.21624e-10
-1.85725e-10
2.44297e-10
-1.82292e-10
2.66565e-10
-1.78494e-10
2.88389e-10
-1.7433e-10
3.09727e-10
-1.69802e-10
3.30538e-10
-1.6491e-10
3.50779e-10
-1.59653e-10
3.70407e-10
-1.54034e-10
3.89377e-10
-1.48053e-10
4.07646e-10
-1.41712e-10
4.25169e-10
-1.35015e-10
4.41899e-10
-1.27964e-10
4.57792e-10
-1.20563e-10
4.728e-10
-1.12818e-10
4.86878e-10
-1.04735e-10
4.99977e-10