/*--------------------------------*- C++ -*----------------------------------*\
| =========                 |                                                 |
| \\      /  F ield         | OpenFOAM: The Open Source CFD Toolbox           |
|  \\    /   O peration     | Version:  2212                                  |
|   \\  /    A nd           | Website:  www.openfoam.com                      |
|    \\/     M anipulation  |                                                 |
\*---------------------------------------------------------------------------*/
FoamFile
{
    version     2.0;
    format      ascii;
    arch        "LSB;label=64;scalar=64";
    class       volScalarField;
    location    "210";
    object      Gch4;
}
// * * * * * * * * * * * * * * * * * * * * * * * * * * * * * * * * * * * * * //

dimensions      [1 -3 0 0 0 0 0];

internalField   nonuniform List<scalar> 
1024
(
1.83491
1.83487
1.83477
1.83457
1.83428
1.8339
1.83345
1.83296
1.83248
1.83201
1.83158
1.83119
1.83087
1.83068
1.83074
1.83119
1.83212
1.83321
1.83422
1.8351
1.83586
1.8365
1.83703
1.83746
1.83784
1.83816
1.83843
1.83865
1.83881
1.83892
1.83898
1.83901
1.83491
1.83486
1.83475
1.83455
1.83424
1.83385
1.83339
1.8329
1.83242
1.83196
1.83152
1.83113
1.83081
1.83062
1.83067
1.83112
1.83206
1.83316
1.83417
1.83507
1.83583
1.83647
1.837
1.83744
1.83781
1.83813
1.83841
1.83863
1.8388
1.83891
1.83898
1.83901
1.83489
1.83484
1.83471
1.83449
1.83417
1.83375
1.83328
1.83279
1.83231
1.83185
1.83141
1.83101
1.83068
1.83046
1.83049
1.83094
1.83191
1.83304
1.83407
1.83498
1.83576
1.83641
1.83695
1.83739
1.83777
1.8381
1.83838
1.83861
1.83878
1.8389
1.83897
1.839
1.83485
1.83479
1.83465
1.83441
1.83406
1.83363
1.83314
1.83265
1.83216
1.8317
1.83126
1.83083
1.83046
1.83019
1.83017
1.83061
1.83162
1.83282
1.83391
1.83485
1.83565
1.83633
1.83689
1.83734
1.83773
1.83806
1.83834
1.83858
1.83876
1.83889
1.83897
1.839
1.8348
1.83474
1.83458
1.83432
1.83394
1.83349
1.83299
1.8325
1.83201
1.83154
1.83107
1.8306
1.83015
1.82978
1.82966
1.83006
1.83116
1.83248
1.83365
1.83466
1.83552
1.83624
1.83683
1.83731
1.83771
1.83804
1.83833
1.83856
1.83875
1.83888
1.83896
1.839
1.83475
1.83468
1.83451
1.83423
1.83384
1.83337
1.83287
1.83237
1.83189
1.8314
1.83089
1.83034
1.82977
1.82924
1.82894
1.82928
1.83047
1.83197
1.83328
1.83441
1.83536
1.83615
1.83679
1.8373
1.83772
1.83806
1.83834
1.83857
1.83876
1.83889
1.83896
1.839
1.8347
1.83463
1.83446
1.83417
1.83377
1.8333
1.83281
1.83232
1.83183
1.83132
1.83075
1.8301
1.82936
1.82859
1.82805
1.82825
1.82955
1.83126
1.83279
1.83409
1.83517
1.83606
1.83678
1.83735
1.83778
1.83812
1.83839
1.83861
1.83878
1.8389
1.83898
1.83901
1.83467
1.8346
1.83443
1.83415
1.83376
1.83331
1.83283
1.83236
1.83187
1.83135
1.83072
1.82996
1.82903
1.82796
1.82706
1.82704
1.82842
1.83037
1.83215
1.83368
1.83495
1.83599
1.83682
1.83744
1.8379
1.83824
1.83849
1.83869
1.83884
1.83894
1.83901
1.83904
1.83467
1.8346
1.83445
1.83419
1.83383
1.83341
1.83297
1.83253
1.83208
1.83156
1.83091
1.83005
1.8289
1.82746
1.82608
1.82573
1.82712
1.8293
1.83139
1.8332
1.83471
1.83593
1.83689
1.83759
1.83808
1.83841
1.83863
1.8388
1.83892
1.83901
1.83907
1.8391
1.83471
1.83465
1.83451
1.83428
1.83397
1.83362
1.83325
1.83288
1.83249
1.83202
1.83139
1.83048
1.82913
1.82724
1.82523
1.82443
1.82576
1.82815
1.83054
1.83266
1.83444
1.83588
1.83699
1.83777
1.8383
1.83862
1.83882
1.83894
1.83904
1.8391
1.83915
1.83918
1.83481
1.83475
1.83463
1.83444
1.8342
1.83393
1.83366
1.8334
1.83313
1.83278
1.83223
1.8313
1.82973
1.82728
1.82449
1.82316
1.82443
1.82702
1.82972
1.83215
1.83421
1.83587
1.83713
1.838
1.83855
1.83886
1.83903
1.83912
1.83918
1.83923
1.83927
1.8393
1.83498
1.83493
1.83482
1.83468
1.83452
1.83435
1.83421
1.8341
1.83398
1.83379
1.83336
1.83245
1.8306
1.8274
1.82367
1.82186
1.82321
1.82608
1.82908
1.8318
1.83411
1.83597
1.83735
1.83829
1.83885
1.83915
1.83927
1.83933
1.83936
1.83939
1.83943
1.83945
1.83526
1.83521
1.83512
1.83501
1.83491
1.83485
1.83485
1.8349
1.83496
1.83494
1.83464
1.83368
1.83137
1.82716
1.82243
1.8204
1.82217
1.82551
1.82886
1.83182
1.83431
1.83628
1.83773
1.83869
1.83923
1.83948
1.83956
1.83958
1.83958
1.8396
1.83963
1.83965
1.83568
1.83563
1.83556
1.83548
1.83544
1.83546
1.83555
1.8357
1.83589
1.83599
1.83574
1.83454
1.83138
1.82585
1.82032
1.81871
1.82152
1.82566
1.82941
1.83253
1.83506
1.83701
1.83841
1.83929
1.83974
1.8399
1.83991
1.83987
1.83984
1.83985
1.83987
1.83989
1.83627
1.8362
1.83608
1.83594
1.83582
1.83579
1.83588
1.83613
1.83646
1.83668
1.83626
1.83427
1.82955
1.82251
1.81695
1.81706
1.82182
1.82708
1.83121
1.83434
1.83669
1.83841
1.83956
1.84021
1.84046
1.84047
1.84037
1.84027
1.84021
1.8402
1.84022
1.84024
1.83716
1.83726
1.83745
1.83765
1.83783
1.83797
1.83807
1.83811
1.83794
1.83719
1.83513
1.83074
1.82359
1.81586
1.81259
1.81654
1.82417
1.83054
1.83478
1.83757
1.83943
1.84063
1.8413
1.84152
1.84143
1.84117
1.84089
1.84069
1.84058
1.84055
1.84057
1.84059
1.82893
1.82925
1.82993
1.83087
1.83188
1.83273
1.83316
1.83292
1.8317
1.8291
1.82462
1.81814
1.81096
1.807
1.81008
1.81929
1.82918
1.83575
1.8394
1.84142
1.84251
1.84301
1.8431
1.84288
1.84249
1.84206
1.84168
1.84142
1.84127
1.84121
1.84121
1.84123
1.81126
1.81147
1.81197
1.81276
1.81373
1.81461
1.81504
1.81465
1.81311
1.81025
1.80625
1.80218
1.8005
1.80387
1.81235
1.82323
1.83287
1.83892
1.84207
1.84358
1.84414
1.84414
1.84377
1.8432
1.84258
1.84204
1.84166
1.84149
1.84146
1.8415
1.84155
1.84156
1.7978
1.79781
1.7979
1.79809
1.7984
1.79872
1.79885
1.79854
1.79763
1.79625
1.79492
1.79477
1.79714
1.80268
1.81102
1.82119
1.831
1.83783
1.84158
1.84336
1.84399
1.844
1.84374
1.84344
1.84323
1.84314
1.84309
1.84296
1.8426
1.84204
1.84146
1.84111
1.79053
1.79049
1.79043
1.79037
1.79032
1.79026
1.7901
1.78975
1.78918
1.78855
1.78826
1.78898
1.79138
1.79598
1.80309
1.81263
1.82292
1.83103
1.83612
1.83905
1.84069
1.84159
1.84203
1.84204
1.8415
1.84026
1.83817
1.83528
1.83193
1.82878
1.82648
1.82537
1.78638
1.78634
1.78623
1.78606
1.78578
1.78537
1.78477
1.78394
1.78292
1.78185
1.781
1.78079
1.78172
1.78446
1.7897
1.79781
1.80747
1.81553
1.82046
1.82262
1.8226
1.82078
1.81745
1.81289
1.80742
1.80138
1.79526
1.7896
1.78494
1.78174
1.78004
1.77944
1.7835
1.78346
1.78333
1.78305
1.78256
1.78177
1.78063
1.77912
1.77728
1.77523
1.77315
1.77133
1.77025
1.77062
1.77334
1.77906
1.78668
1.7926
1.79456
1.79255
1.78699
1.7784
1.76778
1.75632
1.74525
1.73566
1.72822
1.72351
1.72156
1.72179
1.72305
1.72404
1.78094
1.78092
1.7808
1.7805
1.77988
1.77884
1.77728
1.77518
1.77256
1.76952
1.76617
1.76272
1.75954
1.75736
1.75722
1.76012
1.7654
1.76918
1.7683
1.76246
1.75237
1.73925
1.72496
1.71136
1.69989
1.69127
1.68558
1.68275
1.68239
1.68375
1.68578
1.68722
1.77799
1.77804
1.77802
1.77779
1.77718
1.77602
1.7742
1.77169
1.7685
1.76471
1.7604
1.75568
1.75081
1.74636
1.74343
1.74342
1.74652
1.74931
1.7479
1.74134
1.73047
1.71718
1.70383
1.69224
1.68332
1.67694
1.67266
1.67012
1.66905
1.66918
1.67006
1.67091
1.77397
1.77414
1.7743
1.77424
1.77371
1.77251
1.77051
1.76768
1.76407
1.75976
1.75481
1.7493
1.74337
1.7374
1.73228
1.72958
1.73048
1.73268
1.73224
1.72744
1.71859
1.70757
1.69671
1.68752
1.68038
1.67493
1.67077
1.66772
1.66575
1.66482
1.66472
1.665
1.76816
1.76851
1.76892
1.76905
1.76857
1.76726
1.76502
1.76185
1.75787
1.75319
1.74787
1.74198
1.73559
1.72895
1.72265
1.71806
1.71692
1.71826
1.71875
1.71629
1.71042
1.70238
1.69406
1.68669
1.68051
1.67531
1.67088
1.66725
1.66458
1.66299
1.66236
1.66233
1.75996
1.76052
1.76115
1.76134
1.76073
1.75911
1.75647
1.75292
1.74863
1.74375
1.73836
1.73249
1.72618
1.71957
1.71309
1.70771
1.70518
1.70549
1.70626
1.70551
1.70227
1.69701
1.69095
1.68513
1.67984
1.67504
1.67065
1.66678
1.6637
1.66166
1.66068
1.66049
1.74893
1.74966
1.75029
1.75022
1.74915
1.74701
1.74392
1.74008
1.73571
1.73094
1.72583
1.72042
1.7147
1.70873
1.70282
1.69759
1.69452
1.69405
1.69464
1.69472
1.69324
1.6901
1.68597
1.68163
1.67739
1.67332
1.66941
1.66576
1.66266
1.66042
1.65923
1.65891
1.73474
1.73547
1.73567
1.7349
1.73315
1.73052
1.72722
1.72345
1.71939
1.71514
1.71075
1.70621
1.70149
1.69663
1.69178
1.68737
1.68448
1.68364
1.68393
1.68425
1.68371
1.68199
1.67939
1.67639
1.67329
1.67017
1.66707
1.66404
1.66129
1.65916
1.6579
1.65749
1.71701
1.71736
1.71665
1.71507
1.71287
1.7102
1.7072
1.70402
1.70076
1.69747
1.69416
1.6908
1.68738
1.68387
1.68039
1.67716
1.67491
1.67408
1.67417
1.67445
1.67432
1.67345
1.67194
1.67007
1.66804
1.66594
1.66379
1.66162
1.65953
1.65778
1.65665
1.65622
1.69509
1.69463
1.69317
1.69145
1.68957
1.68757
1.68551
1.68342
1.68135
1.67931
1.6773
1.67529
1.67327
1.67121
1.66917
1.66726
1.66588
1.66532
1.66531
1.66549
1.66548
1.66509
1.66434
1.66335
1.66225
1.66109
1.65988
1.65862
1.65737
1.65624
1.65543
1.65508
1.66814
1.66774
1.66698
1.66623
1.66549
1.66476
1.66403
1.66331
1.6626
1.66192
1.66126
1.6606
1.65994
1.65927
1.65861
1.65799
1.65753
1.65734
1.65733
1.65739
1.65739
1.65729
1.65706
1.65676
1.65642
1.65605
1.65568
1.65528
1.65488
1.6545
1.6542
1.65406
)
;

boundaryField
{
    movingWall
    {
        type            fixedValue;
        value           uniform 1.6535;
    }
    fixedWalls
    {
        type            zeroGradient;
    }
    floor
    {
        type            zeroGradient;
    }
    frontAndBack
    {
        type            empty;
    }
}


// ************************************************************************* //
