/*--------------------------------*- C++ -*----------------------------------*\
| =========                 |                                                 |
| \\      /  F ield         | OpenFOAM: The Open Source CFD Toolbox           |
|  \\    /   O peration     | Version:  2212                                  |
|   \\  /    A nd           | Website:  www.openfoam.com                      |
|    \\/     M anipulation  |                                                 |
\*---------------------------------------------------------------------------*/
FoamFile
{
    version     2.0;
    format      ascii;
    arch        "LSB;label=64;scalar=64";
    class       volScalarField;
    location    "210";
    object      Gco2;
}
// * * * * * * * * * * * * * * * * * * * * * * * * * * * * * * * * * * * * * //

dimensions      [1 -3 0 0 0 0 0];

internalField   nonuniform List<scalar> 
1024
(
0.0436941
0.0436863
0.0436676
0.0436348
0.0435862
0.0435225
0.0434475
0.0433669
0.0432864
0.0432098
0.0431379
0.0430731
0.0430205
0.0429898
0.0429986
0.0430732
0.0432275
0.0434073
0.0435735
0.04372
0.0438453
0.0439503
0.0440372
0.0441093
0.0441709
0.044224
0.044269
0.0443053
0.0443323
0.0443504
0.0443607
0.044365
0.0436922
0.0436841
0.0436644
0.0436302
0.0435798
0.0435143
0.043438
0.0433571
0.0432767
0.0432004
0.0431286
0.0430637
0.0430106
0.0429792
0.0429874
0.043062
0.0432176
0.043399
0.0435663
0.0437136
0.0438396
0.0439451
0.0440326
0.044105
0.0441668
0.0442201
0.0442656
0.0443026
0.0443304
0.0443493
0.0443601
0.0443647
0.043688
0.0436791
0.0436578
0.0436208
0.0435669
0.0434983
0.0434201
0.0433386
0.0432585
0.0431825
0.0431104
0.0430443
0.0429888
0.0429539
0.0429586
0.0430327
0.0431923
0.043379
0.0435499
0.0436999
0.043828
0.0439353
0.0440242
0.0440977
0.0441602
0.044214
0.0442602
0.0442983
0.0443275
0.0443475
0.0443591
0.0443641
0.0436813
0.0436715
0.043648
0.0436073
0.0435491
0.0434768
0.0433964
0.0433146
0.0432348
0.0431586
0.0430849
0.0430151
0.0429531
0.0429092
0.0429052
0.042977
0.0431449
0.043343
0.0435218
0.0436778
0.0438107
0.0439219
0.0440139
0.0440895
0.0441533
0.0442078
0.0442548
0.044294
0.0443244
0.0443455
0.044358
0.0443633
0.0436727
0.043662
0.0436361
0.0435918
0.0435294
0.0434536
0.0433716
0.0432896
0.0432099
0.0431323
0.0430547
0.042977
0.0429023
0.0428414
0.0428206
0.0428869
0.0430679
0.0432856
0.0434793
0.0436466
0.0437884
0.0439068
0.0440042
0.0440835
0.0441492
0.0442045
0.0442518
0.0442913
0.0443224
0.0443442
0.0443572
0.0443627
0.0436634
0.0436521
0.0436244
0.0435773
0.0435119
0.043434
0.0433512
0.0432694
0.0431891
0.0431087
0.0430241
0.0429336
0.0428388
0.0427506
0.0427021
0.0427569
0.0429549
0.0432012
0.0434188
0.0436048
0.0437615
0.0438916
0.0439978
0.0440828
0.0441512
0.044207
0.0442536
0.0442924
0.0443229
0.0443446
0.0443576
0.0443631
0.0436552
0.0436435
0.0436151
0.0435671
0.0435009
0.0434229
0.0433408
0.0432597
0.0431788
0.0430945
0.0430007
0.0428933
0.042771
0.0426442
0.042554
0.0425875
0.0428028
0.0430853
0.0433369
0.043551
0.0437303
0.0438779
0.0439968
0.0440897
0.0441617
0.0442176
0.0442623
0.0442987
0.0443273
0.0443476
0.04436
0.0443654
0.0436499
0.0436383
0.0436106
0.0435638
0.0434996
0.0434243
0.0433452
0.0432666
0.0431864
0.0430991
0.0429964
0.0428703
0.0427154
0.0425387
0.0423895
0.042387
0.0426145
0.0429367
0.0432317
0.0434838
0.0436941
0.0438659
0.0440021
0.0441054
0.0441816
0.0442371
0.0442787
0.0443111
0.0443362
0.0443542
0.0443654
0.0443704
0.0436495
0.0436384
0.0436125
0.0435693
0.0435103
0.0434412
0.0433685
0.0432958
0.0432201
0.0431342
0.0430265
0.0428845
0.042695
0.042457
0.0422284
0.0421706
0.0424
0.0427605
0.0431049
0.0434036
0.0436531
0.0438555
0.0440132
0.0441291
0.0442103
0.044265
0.0443024
0.0443296
0.0443501
0.044365
0.0443746
0.0443793
0.0436562
0.0436458
0.0436225
0.0435849
0.0435341
0.0434752
0.0434137
0.0433524
0.0432877
0.0432107
0.0431063
0.0429551
0.0427314
0.0424189
0.0420869
0.0419541
0.0421746
0.0425694
0.042965
0.0433151
0.0436095
0.0438472
0.0440295
0.0441597
0.0442462
0.0442997
0.0443323
0.0443536
0.044369
0.0443806
0.0443886
0.0443929
0.0436723
0.0436627
0.0436426
0.0436117
0.0435718
0.0435269
0.043482
0.0434389
0.0433935
0.0433349
0.0432438
0.043091
0.0428317
0.0424258
0.0419637
0.0417437
0.0419543
0.0423828
0.0428286
0.0432305
0.0435709
0.0438452
0.0440527
0.0441971
0.0442883
0.04434
0.0443674
0.0443826
0.044393
0.0444014
0.0444081
0.044412
0.0437005
0.0436914
0.0436744
0.0436508
0.0436232
0.0435956
0.0435719
0.0435532
0.0435343
0.0435021
0.0434316
0.0432803
0.0429748
0.0424457
0.0418291
0.0415287
0.0417512
0.0422259
0.0427224
0.043172
0.0435535
0.0438599
0.0440889
0.0442442
0.0443377
0.0443862
0.0444076
0.0444168
0.0444226
0.0444282
0.0444337
0.0444374
0.0437463
0.0437375
0.0437226
0.0437051
0.0436889
0.0436786
0.0436777
0.0436857
0.0436958
0.043692
0.043642
0.0434838
0.0431014
0.042405
0.0416232
0.0412865
0.0415786
0.0421318
0.0426851
0.0431748
0.0435853
0.0439115
0.0441516
0.0443096
0.0443996
0.044441
0.0444548
0.0444576
0.044459
0.0444623
0.0444669
0.0444704
0.0438159
0.0438076
0.0437949
0.0437828
0.0437762
0.0437788
0.043793
0.0438182
0.0438489
0.0438664
0.0438248
0.0436255
0.0431024
0.042189
0.041273
0.0410062
0.0414709
0.0421546
0.0427742
0.0432908
0.0437086
0.0440319
0.044263
0.044408
0.0444829
0.0445099
0.0445117
0.0445059
0.0445021
0.0445031
0.0445071
0.0445107
0.0439126
0.0439015
0.0438816
0.0438578
0.0438383
0.0438325
0.0438483
0.0438884
0.0439437
0.043979
0.0439108
0.0435803
0.0428006
0.0416363
0.0407154
0.040731
0.0415189
0.0423876
0.0430714
0.0435884
0.0439779
0.0442624
0.0444528
0.0445597
0.0446022
0.044604
0.0445885
0.0445721
0.0445625
0.0445607
0.0445635
0.0445668
0.0440599
0.0440767
0.0441065
0.0441405
0.0441706
0.0441936
0.0442101
0.0442159
0.0441881
0.0440638
0.0437224
0.0429971
0.0418148
0.0405349
0.0399914
0.0406436
0.0419042
0.0429595
0.04366
0.0441215
0.0444297
0.0446284
0.0447387
0.0447763
0.0447619
0.04472
0.0446744
0.0446404
0.0446227
0.0446184
0.0446213
0.0446251
0.042699
0.042753
0.0428646
0.0430198
0.0431872
0.0433268
0.0433982
0.0433585
0.0431572
0.0427264
0.0419863
0.0409128
0.0397238
0.0390653
0.0395715
0.0410945
0.0427313
0.0438193
0.0444246
0.0447578
0.0449378
0.0450219
0.0450364
0.0450004
0.0449365
0.044866
0.0448047
0.0447609
0.0447363
0.0447274
0.0447275
0.0447301
0.0397781
0.0398124
0.0398947
0.0400261
0.0401863
0.0403313
0.040403
0.040338
0.0400825
0.039609
0.0389448
0.0382689
0.0379865
0.0385417
0.0399423
0.0417443
0.0433409
0.0443437
0.0448654
0.0451148
0.0452089
0.0452089
0.0451488
0.0450547
0.0449522
0.0448631
0.0448016
0.0447723
0.044768
0.0447754
0.0447825
0.0447856
0.0375506
0.0375528
0.0375661
0.037598
0.0376485
0.0377009
0.0377216
0.0376691
0.0375176
0.0372865
0.0370638
0.0370354
0.0374239
0.0383392
0.0397186
0.0414048
0.0430306
0.0441618
0.0447838
0.0450801
0.0451848
0.045187
0.0451443
0.0450945
0.0450597
0.0450454
0.0450388
0.0450163
0.0449572
0.044864
0.0447681
0.0447097
0.0363447
0.0363379
0.0363277
0.0363175
0.0363089
0.0362973
0.0362699
0.0362099
0.0361132
0.036005
0.0359549
0.0360705
0.036465
0.0372253
0.0384029
0.0399828
0.0416887
0.0430346
0.0438789
0.0443652
0.0446367
0.0447881
0.0448616
0.0448628
0.0447739
0.0445674
0.0442213
0.0437414
0.0431844
0.0426615
0.0422804
0.0420965
0.0356571
0.0356491
0.0356316
0.0356019
0.0355556
0.0354855
0.0353833
0.0352437
0.0350719
0.0348914
0.0347477
0.0347086
0.034861
0.0353136
0.0361809
0.0375237
0.0391259
0.0404627
0.0412796
0.0416379
0.0416352
0.0413327
0.04078
0.0400231
0.0391138
0.0381104
0.037095
0.0361552
0.0353803
0.0348496
0.0345669
0.034467
0.0351788
0.0351713
0.0351492
0.0351026
0.0350194
0.0348872
0.0346963
0.0344436
0.0341358
0.0337921
0.0334435
0.0331397
0.0329571
0.0330162
0.033465
0.0344121
0.0356747
0.0366564
0.0369817
0.0366461
0.035722
0.0342952
0.0325303
0.0306265
0.0287856
0.027192
0.0259566
0.0251732
0.0248493
0.0248883
0.0250971
0.025261
0.0347527
0.0347493
0.0347304
0.0346791
0.0345755
0.0344004
0.0341398
0.0337887
0.0333522
0.0328447
0.0322857
0.0317097
0.0311797
0.0308143
0.0307884
0.0312685
0.0321425
0.0327694
0.0326221
0.0316509
0.0299739
0.0277929
0.0254176
0.0231564
0.0212479
0.0198142
0.0188671
0.0183954
0.0183346
0.0185615
0.0188992
0.0191387
0.0342632
0.0342709
0.034268
0.0342293
0.0341262
0.0339324
0.0336292
0.0332098
0.0326785
0.0320472
0.0313282
0.0305417
0.0297301
0.0289889
0.0284984
0.0284935
0.0290064
0.0294702
0.0292345
0.0281445
0.0263371
0.0241274
0.0219073
0.0199781
0.0184936
0.0174293
0.0167156
0.0162911
0.0161116
0.0161333
0.0162802
0.0164225
0.0335937
0.0336218
0.0336496
0.033639
0.03355
0.0333492
0.0330156
0.032544
0.0319424
0.0312244
0.0304002
0.029482
0.0284935
0.0274991
0.0266447
0.0261935
0.0263403
0.0267063
0.0266328
0.0258349
0.024363
0.0225308
0.0207247
0.0191953
0.018005
0.0170941
0.0163988
0.015889
0.0155597
0.0154039
0.0153877
0.0154338
0.0326264
0.0326846
0.0327534
0.0327746
0.032695
0.0324765
0.0321018
0.031574
0.0309105
0.0301304
0.0292453
0.0282643
0.0271995
0.0260924
0.0250433
0.0242775
0.0240845
0.024306
0.0243874
0.0239795
0.0230045
0.0216681
0.0202831
0.0190552
0.0180258
0.0171566
0.0164162
0.0158089
0.0153627
0.0150955
0.0149904
0.0149865
0.03126
0.0313537
0.031458
0.0314899
0.0313875
0.0311181
0.0306779
0.0300858
0.0293714
0.0285587
0.02766
0.0266826
0.0256312
0.0245305
0.0234506
0.0225534
0.022129
0.0221806
0.0223087
0.0221842
0.0216466
0.0207706
0.0197636
0.0187933
0.0179122
0.0171101
0.016376
0.0157285
0.0152128
0.0148713
0.0147086
0.0146764
0.0294209
0.0295434
0.0296481
0.0296358
0.0294571
0.0291014
0.0285863
0.0279465
0.0272173
0.0264222
0.0255717
0.0246699
0.0237161
0.0227227
0.0217366
0.0208657
0.0203524
0.0202731
0.020371
0.0203848
0.0201388
0.0196166
0.0189309
0.0182068
0.0175007
0.0168209
0.0161671
0.0155577
0.0150381
0.0146639
0.0144639
0.0144107
0.0270544
0.0271763
0.0272094
0.0270824
0.02679
0.0263518
0.0258002
0.0251715
0.0244948
0.0237873
0.0230551
0.0222985
0.0215128
0.0207021
0.0198951
0.0191595
0.0186762
0.018536
0.0185848
0.0186384
0.0185489
0.0182631
0.0178294
0.01733
0.016813
0.0162934
0.0157744
0.0152675
0.0148083
0.014451
0.0142398
0.0141722
0.0240972
0.0241555
0.0240374
0.0237741
0.0234063
0.0229607
0.0224614
0.0219316
0.021388
0.0208392
0.0202865
0.0197277
0.0191569
0.0185732
0.0179923
0.0174536
0.017078
0.0169405
0.0169542
0.017002
0.0169802
0.0168361
0.0165845
0.0162729
0.015935
0.0155848
0.0152254
0.0148614
0.0145125
0.0142199
0.0140292
0.0139582
0.0204398
0.020363
0.0201205
0.0198329
0.0195193
0.0191864
0.0188419
0.0184941
0.018149
0.0178089
0.0174732
0.0171389
0.0168015
0.0164589
0.0161182
0.0157994
0.0155698
0.0154763
0.0154753
0.0155039
0.0155033
0.0154389
0.0153129
0.0151485
0.0149647
0.0147708
0.0145689
0.0143594
0.0141498
0.0139612
0.0138255
0.0137669
0.0159427
0.0158769
0.0157495
0.0156248
0.0155019
0.0153791
0.0152569
0.0151368
0.0150197
0.014906
0.0147949
0.0146854
0.0145755
0.0144645
0.0143541
0.0142505
0.0141748
0.0141426
0.0141409
0.01415
0.0141514
0.0141333
0.0140957
0.0140454
0.0139885
0.013928
0.0138648
0.0137988
0.0137315
0.0136681
0.0136185
0.0135942
)
;

boundaryField
{
    movingWall
    {
        type            fixedValue;
        value           uniform 0.0135;
    }
    fixedWalls
    {
        type            zeroGradient;
    }
    floor
    {
        type            zeroGradient;
    }
    frontAndBack
    {
        type            empty;
    }
}


// ************************************************************************* //
