/*--------------------------------*- C++ -*----------------------------------*\
| =========                 |                                                 |
| \\      /  F ield         | OpenFOAM: The Open Source CFD Toolbox           |
|  \\    /   O peration     | Version:  2212                                  |
|   \\  /    A nd           | Website:  www.openfoam.com                      |
|    \\/     M anipulation  |                                                 |
\*---------------------------------------------------------------------------*/
FoamFile
{
    version     2.0;
    format      ascii;
    arch        "LSB;label=64;scalar=64";
    class       volScalarField;
    location    "210";
    object      Saa;
}
// * * * * * * * * * * * * * * * * * * * * * * * * * * * * * * * * * * * * * //

dimensions      [1 -3 0 0 0 0 0];

internalField   nonuniform List<scalar> 
1024
(
0.00549362
0.00549365
0.00549369
0.00549372
0.00549375
0.00549378
0.00549382
0.00549385
0.00549389
0.00549391
0.00549394
0.00549396
0.00549398
0.00549399
0.00549399
0.00549396
0.00549391
0.00549384
0.00549378
0.00549372
0.00549368
0.00549364
0.0054936
0.00549358
0.00549356
0.00549354
0.00549353
0.00549351
0.00549351
0.0054935
0.0054935
0.00549349
0.00549365
0.00549367
0.00549369
0.00549372
0.00549375
0.00549379
0.00549382
0.00549386
0.00549389
0.00549392
0.00549394
0.00549397
0.00549399
0.005494
0.00549399
0.00549396
0.00549391
0.00549384
0.00549378
0.00549372
0.00549368
0.00549364
0.00549361
0.00549358
0.00549356
0.00549354
0.00549353
0.00549351
0.00549351
0.0054935
0.0054935
0.00549349
0.00549367
0.00549368
0.0054937
0.00549373
0.00549376
0.0054938
0.00549383
0.00549387
0.0054939
0.00549392
0.00549395
0.00549397
0.00549399
0.005494
0.005494
0.00549397
0.00549392
0.00549385
0.00549378
0.00549373
0.00549368
0.00549364
0.00549361
0.00549358
0.00549356
0.00549354
0.00549353
0.00549352
0.00549351
0.0054935
0.0054935
0.00549349
0.00549369
0.0054937
0.00549371
0.00549374
0.00549377
0.00549381
0.00549384
0.00549387
0.0054939
0.00549393
0.00549396
0.00549398
0.005494
0.00549402
0.00549402
0.00549399
0.00549393
0.00549386
0.00549379
0.00549374
0.00549369
0.00549364
0.00549361
0.00549358
0.00549356
0.00549354
0.00549353
0.00549352
0.00549351
0.0054935
0.0054935
0.00549349
0.0054937
0.00549371
0.00549373
0.00549375
0.00549378
0.00549382
0.00549385
0.00549388
0.00549391
0.00549394
0.00549397
0.005494
0.00549402
0.00549404
0.00549405
0.00549402
0.00549396
0.00549388
0.00549381
0.00549374
0.00549369
0.00549365
0.00549361
0.00549358
0.00549356
0.00549354
0.00549353
0.00549352
0.00549351
0.0054935
0.0054935
0.00549349
0.00549372
0.00549372
0.00549374
0.00549376
0.00549379
0.00549382
0.00549386
0.00549389
0.00549392
0.00549395
0.00549398
0.00549401
0.00549404
0.00549407
0.00549409
0.00549406
0.00549399
0.0054939
0.00549383
0.00549376
0.0054937
0.00549365
0.00549361
0.00549358
0.00549356
0.00549354
0.00549353
0.00549351
0.0054935
0.0054935
0.00549349
0.00549349
0.00549373
0.00549373
0.00549374
0.00549377
0.0054938
0.00549383
0.00549386
0.00549389
0.00549392
0.00549395
0.00549398
0.00549402
0.00549406
0.0054941
0.00549413
0.00549412
0.00549404
0.00549394
0.00549385
0.00549377
0.00549371
0.00549365
0.00549361
0.00549358
0.00549355
0.00549353
0.00549352
0.00549351
0.0054935
0.0054935
0.00549349
0.00549349
0.00549373
0.00549374
0.00549375
0.00549377
0.0054938
0.00549383
0.00549386
0.00549389
0.00549392
0.00549395
0.00549398
0.00549402
0.00549408
0.00549414
0.00549419
0.00549418
0.0054941
0.00549399
0.00549388
0.00549379
0.00549371
0.00549365
0.0054936
0.00549357
0.00549354
0.00549352
0.00549351
0.0054935
0.0054935
0.00549349
0.00549349
0.00549349
0.00549374
0.00549374
0.00549375
0.00549377
0.00549379
0.00549382
0.00549385
0.00549388
0.0054939
0.00549393
0.00549397
0.00549402
0.00549408
0.00549416
0.00549424
0.00549425
0.00549417
0.00549404
0.00549392
0.00549381
0.00549372
0.00549365
0.00549359
0.00549355
0.00549353
0.00549351
0.0054935
0.0054935
0.00549349
0.00549349
0.00549348
0.00549348
0.00549374
0.00549374
0.00549375
0.00549377
0.00549379
0.00549381
0.00549383
0.00549385
0.00549388
0.0054939
0.00549393
0.00549399
0.00549406
0.00549417
0.00549428
0.00549432
0.00549424
0.0054941
0.00549396
0.00549384
0.00549373
0.00549364
0.00549358
0.00549354
0.00549351
0.00549349
0.00549349
0.00549348
0.00549348
0.00549348
0.00549348
0.00549348
0.00549373
0.00549374
0.00549374
0.00549376
0.00549377
0.00549379
0.00549381
0.00549382
0.00549383
0.00549385
0.00549388
0.00549393
0.00549402
0.00549416
0.00549431
0.00549438
0.00549431
0.00549416
0.005494
0.00549386
0.00549373
0.00549364
0.00549356
0.00549352
0.00549349
0.00549348
0.00549347
0.00549347
0.00549347
0.00549347
0.00549347
0.00549347
0.00549372
0.00549373
0.00549373
0.00549374
0.00549375
0.00549376
0.00549377
0.00549378
0.00549378
0.00549379
0.00549381
0.00549386
0.00549396
0.00549414
0.00549435
0.00549444
0.00549436
0.0054942
0.00549403
0.00549387
0.00549373
0.00549362
0.00549354
0.00549349
0.00549347
0.00549346
0.00549345
0.00549346
0.00549346
0.00549346
0.00549346
0.00549346
0.00549371
0.00549371
0.00549372
0.00549372
0.00549373
0.00549373
0.00549373
0.00549373
0.00549372
0.00549372
0.00549373
0.00549379
0.00549392
0.00549415
0.00549441
0.00549451
0.0054944
0.00549421
0.00549402
0.00549385
0.00549371
0.00549359
0.00549351
0.00549346
0.00549344
0.00549343
0.00549343
0.00549344
0.00549344
0.00549344
0.00549344
0.00549344
0.00549369
0.00549369
0.00549369
0.0054937
0.0054937
0.0054937
0.00549369
0.00549368
0.00549367
0.00549366
0.00549367
0.00549373
0.00549391
0.00549422
0.00549451
0.00549458
0.00549441
0.00549418
0.00549397
0.0054938
0.00549365
0.00549354
0.00549346
0.00549342
0.0054934
0.0054934
0.00549341
0.00549342
0.00549342
0.00549343
0.00549343
0.00549343
0.00549365
0.00549365
0.00549366
0.00549367
0.00549368
0.00549368
0.00549367
0.00549365
0.00549363
0.00549362
0.00549364
0.00549375
0.00549401
0.00549439
0.00549467
0.00549464
0.00549437
0.00549408
0.00549385
0.00549367
0.00549354
0.00549344
0.00549338
0.00549335
0.00549335
0.00549336
0.00549338
0.00549339
0.0054934
0.0054934
0.0054934
0.0054934
0.00549359
0.00549359
0.00549358
0.00549356
0.00549355
0.00549354
0.00549354
0.00549354
0.00549354
0.00549359
0.0054937
0.00549395
0.00549434
0.00549473
0.00549487
0.00549462
0.00549419
0.00549385
0.00549362
0.00549347
0.00549337
0.0054933
0.00549327
0.00549327
0.00549329
0.00549331
0.00549334
0.00549336
0.00549337
0.00549338
0.00549338
0.00549338
0.00549408
0.00549406
0.00549402
0.00549396
0.0054939
0.00549386
0.00549383
0.00549384
0.00549391
0.00549405
0.0054943
0.00549464
0.00549499
0.00549514
0.00549492
0.0054944
0.00549388
0.00549354
0.00549335
0.00549324
0.00549318
0.00549316
0.00549316
0.00549319
0.00549322
0.00549326
0.00549329
0.00549332
0.00549333
0.00549333
0.00549333
0.00549333
0.00549508
0.00549507
0.00549504
0.00549499
0.00549494
0.00549489
0.00549486
0.00549487
0.00549494
0.00549508
0.00549527
0.00549543
0.00549544
0.00549518
0.0054947
0.00549413
0.00549365
0.00549335
0.0054932
0.00549312
0.0054931
0.0054931
0.00549313
0.00549317
0.00549322
0.00549326
0.00549329
0.0054933
0.00549331
0.00549331
0.00549331
0.00549331
0.0054958
0.0054958
0.00549579
0.00549577
0.00549575
0.00549572
0.0054957
0.00549569
0.00549571
0.00549573
0.00549574
0.00549567
0.00549547
0.00549514
0.0054947
0.00549419
0.00549372
0.00549339
0.00549322
0.00549314
0.00549312
0.00549313
0.00549315
0.00549318
0.0054932
0.00549322
0.00549323
0.00549324
0.00549325
0.00549328
0.0054933
0.00549332
0.00549614
0.00549614
0.00549614
0.00549614
0.00549612
0.0054961
0.00549608
0.00549606
0.00549604
0.00549601
0.00549595
0.00549584
0.00549566
0.0054954
0.00549503
0.00549457
0.00549408
0.0054937
0.00549347
0.00549335
0.00549328
0.00549325
0.00549325
0.00549325
0.00549328
0.00549334
0.00549343
0.00549356
0.0054937
0.00549383
0.00549392
0.00549397
0.00549632
0.00549632
0.00549632
0.00549631
0.00549631
0.00549629
0.00549628
0.00549627
0.00549626
0.00549625
0.00549622
0.00549617
0.00549607
0.00549589
0.00549561
0.00549522
0.00549477
0.00549439
0.00549417
0.00549407
0.00549407
0.00549415
0.00549429
0.00549448
0.0054947
0.00549495
0.0054952
0.00549543
0.00549563
0.00549576
0.00549583
0.00549586
0.00549645
0.00549644
0.00549644
0.00549644
0.00549644
0.00549644
0.00549645
0.00549647
0.00549649
0.00549652
0.00549655
0.00549657
0.00549656
0.00549649
0.00549632
0.00549604
0.00549568
0.00549539
0.00549529
0.00549535
0.00549557
0.00549591
0.00549633
0.00549678
0.00549721
0.00549758
0.00549787
0.00549805
0.00549813
0.00549813
0.00549808
0.00549805
0.00549655
0.00549655
0.00549655
0.00549655
0.00549655
0.00549657
0.0054966
0.00549664
0.0054967
0.00549678
0.00549686
0.00549695
0.00549703
0.00549706
0.00549701
0.00549684
0.00549658
0.0054964
0.00549641
0.00549662
0.00549701
0.00549752
0.00549806
0.00549857
0.00549899
0.00549929
0.00549948
0.00549956
0.00549957
0.00549952
0.00549945
0.0054994
0.00549667
0.00549667
0.00549666
0.00549666
0.00549667
0.00549669
0.00549673
0.0054968
0.00549688
0.00549699
0.00549712
0.00549726
0.00549741
0.00549752
0.00549758
0.00549752
0.00549736
0.00549722
0.00549727
0.00549751
0.00549793
0.00549843
0.00549892
0.00549932
0.00549961
0.00549979
0.0054999
0.00549995
0.00549997
0.00549996
0.00549993
0.00549991
0.00549681
0.00549681
0.0054968
0.00549679
0.0054968
0.00549683
0.00549688
0.00549696
0.00549706
0.00549719
0.00549735
0.00549752
0.0054977
0.00549788
0.00549801
0.00549805
0.00549797
0.00549787
0.00549789
0.00549808
0.00549841
0.00549882
0.00549921
0.00549951
0.00549972
0.00549985
0.00549993
0.00549998
0.00550001
0.00550002
0.00550003
0.00550002
0.005497
0.00549699
0.00549698
0.00549697
0.00549697
0.00549701
0.00549707
0.00549716
0.00549728
0.00549742
0.00549759
0.00549777
0.00549797
0.00549817
0.00549835
0.00549846
0.00549845
0.00549838
0.00549837
0.00549847
0.0054987
0.005499
0.00549929
0.00549952
0.00549969
0.00549981
0.0054999
0.00549995
0.00549999
0.00550002
0.00550003
0.00550004
0.00549725
0.00549723
0.00549721
0.0054972
0.00549721
0.00549726
0.00549733
0.00549743
0.00549756
0.00549771
0.00549787
0.00549805
0.00549825
0.00549845
0.00549864
0.00549878
0.00549883
0.00549879
0.00549876
0.0054988
0.00549894
0.00549914
0.00549934
0.00549953
0.00549967
0.00549978
0.00549987
0.00549993
0.00549998
0.00550001
0.00550003
0.00550003
0.00549756
0.00549754
0.00549752
0.00549752
0.00549754
0.0054976
0.00549769
0.0054978
0.00549792
0.00549807
0.00549822
0.00549838
0.00549856
0.00549874
0.00549891
0.00549906
0.00549913
0.00549912
0.00549909
0.0054991
0.00549917
0.00549929
0.00549943
0.00549957
0.00549968
0.00549978
0.00549986
0.00549993
0.00549997
0.0055
0.00550002
0.00550003
0.00549794
0.00549792
0.00549792
0.00549793
0.00549798
0.00549805
0.00549814
0.00549824
0.00549836
0.00549848
0.00549861
0.00549875
0.00549889
0.00549904
0.00549918
0.00549931
0.00549938
0.00549939
0.00549937
0.00549936
0.00549939
0.00549946
0.00549955
0.00549964
0.00549973
0.00549981
0.00549987
0.00549993
0.00549997
0.0055
0.00550002
0.00550002
0.00549841
0.0054984
0.00549841
0.00549845
0.00549851
0.00549858
0.00549866
0.00549875
0.00549884
0.00549894
0.00549903
0.00549913
0.00549923
0.00549934
0.00549944
0.00549953
0.00549959
0.0054996
0.0054996
0.00549959
0.0054996
0.00549963
0.00549969
0.00549975
0.0054998
0.00549986
0.0054999
0.00549995
0.00549998
0.0055
0.00550001
0.00550002
0.00549897
0.00549898
0.00549901
0.00549906
0.00549911
0.00549916
0.00549921
0.00549927
0.00549933
0.00549938
0.00549944
0.0054995
0.00549956
0.00549962
0.00549968
0.00549974
0.00549977
0.00549979
0.00549978
0.00549978
0.00549978
0.0054998
0.00549982
0.00549985
0.00549989
0.00549992
0.00549994
0.00549997
0.00549999
0.0055
0.00550001
0.00550001
0.00549964
0.00549965
0.00549967
0.00549969
0.00549971
0.00549973
0.00549975
0.00549976
0.00549978
0.0054998
0.00549982
0.00549984
0.00549986
0.00549988
0.0054999
0.00549992
0.00549993
0.00549993
0.00549993
0.00549993
0.00549993
0.00549994
0.00549994
0.00549995
0.00549996
0.00549997
0.00549998
0.00549999
0.0055
0.0055
0.0055
0.00550001
)
;

boundaryField
{
    movingWall
    {
        type            fixedValue;
        value           uniform 0.0055;
    }
    fixedWalls
    {
        type            zeroGradient;
    }
    floor
    {
        type            zeroGradient;
    }
    frontAndBack
    {
        type            empty;
    }
}


// ************************************************************************* //
