/*--------------------------------*- C++ -*----------------------------------*\
| =========                 |                                                 |
| \\      /  F ield         | OpenFOAM: The Open Source CFD Toolbox           |
|  \\    /   O peration     | Version:  2212                                  |
|   \\  /    A nd           | Website:  www.openfoam.com                      |
|    \\/     M anipulation  |                                                 |
\*---------------------------------------------------------------------------*/
FoamFile
{
    version     2.0;
    format      ascii;
    arch        "LSB;label=64;scalar=64";
    class       volScalarField;
    location    "210";
    object      SIC;
}
// * * * * * * * * * * * * * * * * * * * * * * * * * * * * * * * * * * * * * //

dimensions      [1 -3 0 0 0 0 0];

internalField   nonuniform List<scalar> 
1024
(
0.0924853
0.0924866
0.0924887
0.0924918
0.0924963
0.092502
0.0925086
0.0925157
0.0925227
0.0925293
0.0925356
0.0925412
0.0925457
0.0925484
0.0925476
0.0925412
0.0925279
0.0925123
0.092498
0.0924853
0.0924745
0.0924654
0.0924579
0.0924517
0.0924463
0.0924418
0.0924379
0.0924348
0.0924324
0.0924309
0.09243
0.0924296
0.0924861
0.092487
0.092489
0.0924923
0.0924969
0.0925027
0.0925095
0.0925165
0.0925235
0.0925302
0.0925364
0.092542
0.0925466
0.0925493
0.0925486
0.0925421
0.0925287
0.092513
0.0924986
0.0924859
0.092475
0.0924658
0.0924583
0.092452
0.0924467
0.0924421
0.0924382
0.092435
0.0924326
0.092431
0.09243
0.0924296
0.0924868
0.0924877
0.0924897
0.0924931
0.092498
0.0925041
0.092511
0.0925182
0.0925251
0.0925317
0.0925379
0.0925437
0.0925485
0.0925515
0.0925511
0.0925447
0.0925309
0.0925148
0.0925
0.092487
0.092476
0.0924667
0.092459
0.0924527
0.0924473
0.0924426
0.0924386
0.0924354
0.0924328
0.0924311
0.0924301
0.0924297
0.0924877
0.0924886
0.0924907
0.0924944
0.0924996
0.092506
0.0925131
0.0925202
0.0925272
0.0925338
0.0925401
0.0925462
0.0925516
0.0925553
0.0925557
0.0925495
0.092535
0.0925179
0.0925024
0.0924889
0.0924775
0.0924679
0.0924599
0.0924534
0.0924479
0.0924432
0.0924391
0.0924357
0.0924331
0.0924313
0.0924302
0.0924297
0.0924886
0.0924895
0.0924919
0.0924959
0.0925014
0.0925081
0.0925153
0.0925224
0.0925293
0.0925361
0.0925428
0.0925495
0.0925559
0.0925612
0.092563
0.0925573
0.0925416
0.0925228
0.0925061
0.0924917
0.0924794
0.0924692
0.0924607
0.0924539
0.0924482
0.0924435
0.0924394
0.092436
0.0924333
0.0924314
0.0924303
0.0924298
0.0924895
0.0924905
0.092493
0.0924972
0.092503
0.0925098
0.0925171
0.0925242
0.0925311
0.0925381
0.0925454
0.0925532
0.0925614
0.0925691
0.0925733
0.0925685
0.0925514
0.0925301
0.0925113
0.0924953
0.0924817
0.0924705
0.0924613
0.092454
0.0924481
0.0924432
0.0924392
0.0924359
0.0924332
0.0924313
0.0924302
0.0924297
0.0924904
0.0924914
0.0924939
0.0924981
0.092504
0.0925108
0.092518
0.092525
0.092532
0.0925393
0.0925474
0.0925567
0.0925673
0.0925783
0.0925861
0.0925832
0.0925646
0.0925402
0.0925184
0.0924999
0.0924844
0.0924717
0.0924614
0.0924534
0.0924472
0.0924423
0.0924385
0.0924353
0.0924328
0.0924311
0.09243
0.0924296
0.0924909
0.0924919
0.0924944
0.0924985
0.0925041
0.0925107
0.0925176
0.0925244
0.0925314
0.0925389
0.0925478
0.0925587
0.0925721
0.0925874
0.0926003
0.0926005
0.0925808
0.092553
0.0925275
0.0925057
0.0924876
0.0924727
0.0924609
0.092452
0.0924454
0.0924406
0.092437
0.0924342
0.0924321
0.0924305
0.0924295
0.0924291
0.092491
0.092492
0.0924943
0.092498
0.0925032
0.0925093
0.0925156
0.0925219
0.0925285
0.0925359
0.0925452
0.0925575
0.0925739
0.0925944
0.0926142
0.0926192
0.0925994
0.0925682
0.0925385
0.0925127
0.0924911
0.0924736
0.09246
0.09245
0.092443
0.0924382
0.092435
0.0924326
0.0924309
0.0924296
0.0924287
0.0924283
0.0924905
0.0924914
0.0924934
0.0924967
0.0925012
0.0925063
0.0925117
0.092517
0.0925226
0.0925293
0.0925383
0.0925514
0.0925707
0.0925977
0.0926264
0.0926379
0.0926189
0.0925848
0.0925506
0.0925203
0.0924949
0.0924743
0.0924586
0.0924473
0.0924399
0.0924352
0.0924324
0.0924306
0.0924292
0.0924282
0.0924275
0.0924272
0.0924892
0.09249
0.0924918
0.0924945
0.092498
0.0925019
0.0925058
0.0925096
0.0925135
0.0925186
0.0925264
0.0925397
0.0925621
0.0925972
0.0926371
0.0926561
0.0926379
0.0926009
0.0925624
0.0925276
0.0924982
0.0924745
0.0924566
0.0924441
0.0924362
0.0924317
0.0924294
0.0924281
0.0924271
0.0924264
0.0924258
0.0924255
0.0924868
0.0924876
0.0924891
0.0924911
0.0924935
0.092496
0.092498
0.0924997
0.0925013
0.0925041
0.0925102
0.0925233
0.0925497
0.0925955
0.0926487
0.0926747
0.0926555
0.0926145
0.0925715
0.0925327
0.0924997
0.0924733
0.0924535
0.09244
0.092432
0.0924278
0.0924259
0.0924251
0.0924246
0.0924241
0.0924236
0.0924233
0.0924829
0.0924837
0.0924849
0.0924865
0.0924879
0.0924888
0.0924889
0.0924882
0.0924874
0.0924877
0.092492
0.0925057
0.0925388
0.092599
0.0926665
0.0926957
0.0926704
0.0926226
0.0925748
0.0925325
0.092497
0.0924688
0.0924481
0.0924344
0.0924266
0.092423
0.0924218
0.0924216
0.0924215
0.0924212
0.0924208
0.0924205
0.0924769
0.0924776
0.0924787
0.0924798
0.0924804
0.0924801
0.092479
0.0924768
0.0924742
0.0924726
0.0924763
0.0924935
0.0925387
0.0926176
0.0926968
0.0927199
0.0926797
0.0926207
0.0925671
0.0925224
0.0924863
0.0924584
0.0924384
0.0924259
0.0924194
0.0924171
0.0924169
0.0924174
0.0924177
0.0924176
0.0924173
0.092417
0.0924686
0.0924696
0.0924713
0.0924733
0.092475
0.0924755
0.0924742
0.0924707
0.092466
0.0924629
0.0924688
0.0924974
0.0925648
0.0926654
0.092745
0.0927437
0.0926756
0.0926005
0.0925414
0.0924967
0.0924631
0.0924385
0.092422
0.0924128
0.0924091
0.0924089
0.0924103
0.0924117
0.0924125
0.0924127
0.0924124
0.0924121
0.0924559
0.0924545
0.0924519
0.0924489
0.0924463
0.0924443
0.0924429
0.0924424
0.0924449
0.0924556
0.0924851
0.0925478
0.09265
0.0927606
0.0928076
0.0927513
0.0926423
0.0925511
0.0924906
0.0924507
0.092424
0.0924069
0.0923973
0.0923941
0.0923953
0.0923989
0.0924029
0.0924058
0.0924073
0.0924077
0.0924074
0.0924071
0.0925735
0.0925689
0.0925592
0.0925458
0.0925313
0.0925193
0.0925131
0.0925165
0.092534
0.0925712
0.0926352
0.092728
0.0928308
0.0928877
0.092844
0.0927124
0.0925709
0.0924768
0.0924245
0.0923957
0.0923801
0.0923729
0.0923716
0.0923747
0.0923802
0.0923863
0.0923916
0.0923954
0.0923975
0.0923983
0.0923983
0.092398
0.092826
0.092823
0.0928159
0.0928045
0.0927907
0.0927782
0.092772
0.0927776
0.0927997
0.0928406
0.0928981
0.0929565
0.092981
0.0929331
0.092812
0.0926562
0.0925182
0.0924315
0.0923864
0.0923648
0.0923567
0.0923567
0.0923619
0.09237
0.0923788
0.0923865
0.0923919
0.0923944
0.0923948
0.0923941
0.0923935
0.0923932
0.0930185
0.0930183
0.0930172
0.0930144
0.0930101
0.0930055
0.0930038
0.0930083
0.0930215
0.0930415
0.0930608
0.0930633
0.0930297
0.0929506
0.0928314
0.0926856
0.092545
0.0924472
0.0923934
0.0923678
0.0923588
0.0923586
0.0923623
0.0923666
0.0923696
0.0923708
0.0923713
0.0923733
0.0923784
0.0923865
0.0923948
0.0923998
0.0931228
0.0931234
0.0931243
0.0931251
0.0931259
0.0931269
0.0931293
0.0931346
0.0931429
0.0931523
0.0931567
0.0931468
0.0931127
0.093047
0.0929452
0.0928086
0.0926611
0.0925447
0.0924717
0.0924296
0.0924062
0.0923931
0.0923867
0.0923866
0.0923943
0.0924121
0.0924421
0.0924836
0.0925317
0.092577
0.0926099
0.0926258
0.0931822
0.0931829
0.0931845
0.093187
0.0931911
0.0931972
0.093206
0.0932182
0.0932331
0.0932487
0.0932612
0.0932646
0.0932514
0.0932123
0.0931374
0.0930213
0.0928827
0.0927671
0.0926965
0.0926655
0.0926657
0.0926919
0.0927397
0.0928052
0.0928838
0.0929706
0.0930584
0.0931397
0.0932068
0.0932527
0.0932771
0.0932857
0.0932236
0.0932243
0.0932262
0.0932302
0.0932374
0.0932489
0.0932655
0.0932874
0.093314
0.0933438
0.093374
0.0934003
0.0934161
0.093411
0.0933723
0.0932904
0.0931812
0.0930963
0.0930682
0.0930972
0.0931772
0.0933006
0.0934533
0.093618
0.0937772
0.093915
0.0940219
0.0940897
0.0941177
0.0941143
0.0940963
0.0940821
0.0932605
0.0932608
0.0932624
0.0932669
0.0932758
0.093291
0.0933136
0.093344
0.0933818
0.0934257
0.0934741
0.0935239
0.0935698
0.0936015
0.0936037
0.0935623
0.0934867
0.0934325
0.0934453
0.0935293
0.0936743
0.093863
0.0940685
0.0942641
0.0944292
0.0945533
0.0946352
0.0946761
0.0946813
0.0946617
0.0946325
0.0946117
0.0933028
0.0933022
0.0933024
0.0933058
0.0933147
0.0933315
0.0933577
0.0933941
0.09344
0.0934947
0.0935569
0.0936249
0.0936952
0.0937593
0.0938018
0.0938023
0.093758
0.0937178
0.0937382
0.0938325
0.0939889
0.0941801
0.0943721
0.094539
0.0946675
0.0947596
0.0948214
0.0948582
0.0948737
0.0948718
0.0948591
0.0948468
0.0933608
0.0933583
0.0933559
0.0933569
0.0933646
0.0933819
0.0934108
0.0934516
0.0935037
0.0935659
0.0936372
0.0937166
0.0938022
0.0938882
0.0939622
0.0940012
0.0939886
0.0939569
0.0939633
0.0940323
0.0941596
0.0943181
0.0944744
0.0946067
0.0947098
0.0947886
0.0948488
0.094893
0.0949215
0.094935
0.0949364
0.0949324
0.0934445
0.0934394
0.0934335
0.0934317
0.0934385
0.0934575
0.0934899
0.0935356
0.093593
0.0936605
0.0937371
0.093822
0.0939141
0.0940099
0.0941007
0.094167
0.0941838
0.0941646
0.0941576
0.0941928
0.0942772
0.0943928
0.0945126
0.0946189
0.094708
0.0947832
0.0948474
0.0948999
0.0949386
0.0949617
0.0949708
0.0949712
0.0935627
0.0935546
0.0935456
0.0935428
0.0935517
0.093575
0.0936131
0.0936644
0.0937262
0.0937965
0.0938743
0.0939589
0.0940499
0.0941451
0.0942386
0.0943162
0.094353
0.0943485
0.0943374
0.0943482
0.0943947
0.0944705
0.0945576
0.0946416
0.0947178
0.0947873
0.0948508
0.0949069
0.0949516
0.0949812
0.0949953
0.0949981
0.0937219
0.0937113
0.0937022
0.0937033
0.0937188
0.0937496
0.0937941
0.0938495
0.0939126
0.0939814
0.094055
0.0941331
0.0942156
0.0943016
0.0943869
0.0944623
0.0945067
0.0945136
0.0945051
0.0945039
0.0945252
0.0945704
0.0946297
0.0946924
0.0947535
0.0948123
0.094869
0.0949217
0.0949667
0.0949992
0.0950165
0.0950211
0.0939267
0.0939162
0.0939133
0.0939243
0.0939496
0.0939875
0.0940353
0.0940897
0.0941483
0.0942095
0.0942729
0.0943383
0.0944063
0.0944765
0.0945463
0.09461
0.0946518
0.094664
0.0946598
0.0946551
0.0946628
0.0946876
0.0947251
0.0947683
0.0948131
0.094858
0.094903
0.0949469
0.0949867
0.0950176
0.0950359
0.0950418
0.0941827
0.0941776
0.0941879
0.0942106
0.0942425
0.0942811
0.0943243
0.0943701
0.0944172
0.0944647
0.0945125
0.0945609
0.0946103
0.0946608
0.0947111
0.0947577
0.0947902
0.0948021
0.0948009
0.0947968
0.0947987
0.0948111
0.0948329
0.0948599
0.0948891
0.0949194
0.0949505
0.0949821
0.0950123
0.0950376
0.0950541
0.0950603
0.0944993
0.0945059
0.0945269
0.0945518
0.094579
0.0946078
0.0946376
0.0946677
0.0946976
0.094727
0.094756
0.094785
0.0948142
0.0948438
0.0948733
0.0949009
0.0949208
0.0949289
0.094929
0.0949265
0.0949265
0.0949321
0.094943
0.0949572
0.0949731
0.0949899
0.0950074
0.0950256
0.0950437
0.09506
0.0950718
0.0950769
0.0948885
0.0948942
0.0949053
0.0949161
0.0949267
0.0949373
0.0949479
0.0949583
0.0949684
0.0949783
0.0949879
0.0949974
0.0950069
0.0950165
0.095026
0.095035
0.0950416
0.0950443
0.0950445
0.0950437
0.0950436
0.0950452
0.0950484
0.0950528
0.0950577
0.0950629
0.0950684
0.0950741
0.0950799
0.0950854
0.0950897
0.0950918
)
;

boundaryField
{
    movingWall
    {
        type            fixedValue;
        value           uniform 0.0951;
    }
    fixedWalls
    {
        type            zeroGradient;
    }
    floor
    {
        type            zeroGradient;
    }
    frontAndBack
    {
        type            empty;
    }
}


// ************************************************************************* //
