/*--------------------------------*- C++ -*----------------------------------*\
| =========                 |                                                 |
| \\      /  F ield         | OpenFOAM: The Open Source CFD Toolbox           |
|  \\    /   O peration     | Version:  2212                                  |
|   \\  /    A nd           | Website:  www.openfoam.com                      |
|    \\/     M anipulation  |                                                 |
\*---------------------------------------------------------------------------*/
FoamFile
{
    version     2.0;
    format      ascii;
    arch        "LSB;label=64;scalar=64";
    class       volScalarField;
    location    "210";
    object      Xpr;
}
// * * * * * * * * * * * * * * * * * * * * * * * * * * * * * * * * * * * * * //

dimensions      [1 -3 0 0 0 0 0];

internalField   nonuniform List<scalar> 
1024
(
0.0827986
0.0827995
0.0828008
0.0828027
0.0828053
0.0828086
0.0828125
0.0828165
0.0828205
0.0828243
0.0828278
0.082831
0.0828336
0.0828351
0.0828346
0.0828309
0.0828233
0.0828145
0.0828063
0.082799
0.0827929
0.0827877
0.0827834
0.0827798
0.0827768
0.0827742
0.0827721
0.0827703
0.082769
0.0827681
0.0827676
0.0827674
0.0827992
0.0827998
0.082801
0.0828029
0.0828056
0.082809
0.0828129
0.082817
0.082821
0.0828247
0.0828283
0.0828314
0.082834
0.0828356
0.0828352
0.0828315
0.0828238
0.0828149
0.0828066
0.0827994
0.0827931
0.0827879
0.0827836
0.08278
0.082777
0.0827744
0.0827722
0.0827704
0.0827691
0.0827682
0.0827677
0.0827674
0.0827997
0.0828003
0.0828015
0.0828035
0.0828063
0.0828099
0.0828138
0.0828179
0.0828219
0.0828256
0.0828292
0.0828324
0.0828351
0.0828368
0.0828366
0.0828329
0.082825
0.0828158
0.0828074
0.0828
0.0827937
0.0827884
0.082784
0.0827804
0.0827773
0.0827747
0.0827725
0.0827706
0.0827692
0.0827683
0.0827677
0.0827675
0.0828003
0.0828008
0.0828021
0.0828042
0.0828072
0.082811
0.082815
0.0828191
0.082823
0.0828268
0.0828304
0.0828338
0.0828368
0.082839
0.0828391
0.0828356
0.0828273
0.0828176
0.0828088
0.0828011
0.0827945
0.082789
0.0827845
0.0827808
0.0827777
0.082775
0.0827727
0.0827708
0.0827694
0.0827683
0.0827677
0.0827675
0.0828009
0.0828014
0.0828028
0.0828051
0.0828083
0.0828121
0.0828162
0.0828203
0.0828242
0.0828281
0.0828319
0.0828357
0.0828393
0.0828423
0.0828432
0.08284
0.0828311
0.0828204
0.0828108
0.0828026
0.0827956
0.0827897
0.0827849
0.082781
0.0827778
0.0827751
0.0827729
0.082771
0.0827694
0.0827684
0.0827678
0.0827675
0.0828014
0.082802
0.0828034
0.0828058
0.0828092
0.0828131
0.0828172
0.0828213
0.0828252
0.0828292
0.0828333
0.0828377
0.0828424
0.0828467
0.082849
0.0828463
0.0828366
0.0828245
0.0828137
0.0828046
0.0827968
0.0827904
0.0827852
0.082781
0.0827777
0.082775
0.0827727
0.0827709
0.0827694
0.0827684
0.0827677
0.0827675
0.0828019
0.0828025
0.082804
0.0828064
0.0828098
0.0828137
0.0828178
0.0828218
0.0828257
0.0828299
0.0828344
0.0828397
0.0828456
0.0828518
0.0828562
0.0828545
0.0828439
0.0828301
0.0828177
0.0828071
0.0827983
0.082791
0.0827852
0.0827806
0.0827771
0.0827744
0.0827723
0.0827705
0.0827692
0.0827682
0.0827676
0.0827673
0.0828023
0.0828029
0.0828043
0.0828066
0.0828098
0.0828136
0.0828175
0.0828214
0.0828253
0.0828296
0.0828346
0.0828407
0.0828483
0.0828569
0.0828641
0.0828642
0.082853
0.0828373
0.0828228
0.0828103
0.0828
0.0827915
0.0827848
0.0827798
0.0827761
0.0827734
0.0827714
0.0827699
0.0827687
0.0827679
0.0827673
0.0827671
0.0828023
0.0828029
0.0828042
0.0828064
0.0828093
0.0828128
0.0828163
0.0828199
0.0828236
0.0828278
0.082833
0.08284
0.0828492
0.0828608
0.0828719
0.0828747
0.0828634
0.0828458
0.0828288
0.0828142
0.0828019
0.0827919
0.0827842
0.0827785
0.0827746
0.082772
0.0827702
0.082769
0.082768
0.0827673
0.0827668
0.0827666
0.0828021
0.0828026
0.0828037
0.0828056
0.0828081
0.0828111
0.0828141
0.0828171
0.0828202
0.082824
0.082829
0.0828364
0.0828473
0.0828625
0.0828787
0.0828851
0.0828743
0.082855
0.0828356
0.0828184
0.0828039
0.0827922
0.0827833
0.0827769
0.0827727
0.0827702
0.0827687
0.0827677
0.082767
0.0827665
0.0827661
0.0827659
0.0828013
0.0828018
0.0828028
0.0828043
0.0828063
0.0828085
0.0828107
0.0828128
0.082815
0.0828178
0.0828222
0.0828297
0.0828423
0.0828621
0.0828846
0.0828952
0.0828849
0.0828639
0.0828421
0.0828223
0.0828056
0.0827922
0.082782
0.082775
0.0827706
0.0827682
0.0827669
0.0827663
0.0827658
0.0827654
0.0827651
0.0827649
0.0827999
0.0828004
0.0828012
0.0828024
0.0828038
0.0828051
0.0828063
0.0828072
0.082808
0.0828095
0.0828129
0.0828203
0.0828352
0.082861
0.082891
0.0829055
0.0828945
0.0828713
0.082847
0.082825
0.0828063
0.0827913
0.0827801
0.0827725
0.0827681
0.0827658
0.0827649
0.0827645
0.0827643
0.0827641
0.0827638
0.0827637
0.0827977
0.0827981
0.0827989
0.0827997
0.0828005
0.082801
0.082801
0.0828006
0.0828001
0.0828002
0.0828026
0.0828103
0.0828289
0.0828628
0.0829008
0.082917
0.0829026
0.0828756
0.0828486
0.0828246
0.0828045
0.0827886
0.0827768
0.0827692
0.0827649
0.082763
0.0827625
0.0827625
0.0827625
0.0827624
0.0827622
0.082762
0.0827943
0.0827947
0.0827953
0.0827959
0.0827962
0.0827961
0.0827954
0.0827941
0.0827925
0.0827916
0.0827936
0.0828033
0.0828288
0.0828732
0.0829176
0.0829302
0.0829074
0.0828741
0.0828439
0.0828187
0.0827982
0.0827824
0.0827712
0.0827642
0.0827607
0.0827596
0.0827596
0.08276
0.0827603
0.0827603
0.0827601
0.08276
0.0827895
0.0827901
0.0827911
0.0827922
0.0827932
0.0827934
0.0827927
0.0827906
0.0827879
0.0827861
0.0827894
0.0828055
0.0828435
0.0829
0.0829443
0.082943
0.0829045
0.0828622
0.0828289
0.0828038
0.0827848
0.0827709
0.0827617
0.0827566
0.0827547
0.0827548
0.0827558
0.0827567
0.0827573
0.0827574
0.0827573
0.0827571
0.0827822
0.0827814
0.0827799
0.0827783
0.0827768
0.0827757
0.0827748
0.0827745
0.0827759
0.0827819
0.0827986
0.0828339
0.0828913
0.0829531
0.0829786
0.0829463
0.0828849
0.0828337
0.0827998
0.0827774
0.0827624
0.0827528
0.0827475
0.0827458
0.0827467
0.082749
0.0827515
0.0827533
0.0827542
0.0827545
0.0827544
0.0827542
0.082849
0.0828463
0.0828409
0.0828333
0.0828251
0.0828182
0.0828147
0.0828166
0.0828264
0.0828474
0.0828833
0.0829353
0.0829923
0.0830231
0.0829974
0.0829232
0.082844
0.0827915
0.0827622
0.0827461
0.0827374
0.0827334
0.0827328
0.0827348
0.0827382
0.0827418
0.082745
0.0827473
0.0827486
0.0827491
0.0827491
0.082749
0.0829916
0.08299
0.0829859
0.0829795
0.0829716
0.0829645
0.0829609
0.082964
0.0829762
0.0829988
0.0830305
0.0830622
0.0830744
0.0830461
0.0829776
0.0828906
0.0828139
0.0827658
0.0827407
0.0827287
0.0827243
0.0827244
0.0827275
0.0827323
0.0827374
0.082742
0.0827451
0.0827466
0.0827469
0.0827466
0.0827463
0.0827461
0.0830995
0.0830994
0.0830987
0.083097
0.0830944
0.0830917
0.0830904
0.0830925
0.0830993
0.0831096
0.0831192
0.0831191
0.083099
0.0830539
0.0829872
0.0829062
0.0828284
0.0827743
0.0827446
0.0827305
0.0827257
0.0827258
0.082728
0.0827307
0.0827325
0.0827334
0.0827339
0.082735
0.0827378
0.0827422
0.0827468
0.0827495
0.0831571
0.0831574
0.0831578
0.0831581
0.0831583
0.0831584
0.0831592
0.0831614
0.0831651
0.0831691
0.0831702
0.0831634
0.0831433
0.0831061
0.0830493
0.0829736
0.0828921
0.0828279
0.0827878
0.0827648
0.082752
0.0827451
0.0827418
0.0827419
0.0827462
0.0827561
0.0827725
0.0827951
0.0828214
0.0828461
0.082864
0.0828727
0.0831897
0.08319
0.0831907
0.0831919
0.0831937
0.0831965
0.0832006
0.0832064
0.0832135
0.0832209
0.0832266
0.0832273
0.0832189
0.0831965
0.0831545
0.0830902
0.0830137
0.08295
0.0829111
0.082894
0.0828941
0.0829084
0.0829345
0.0829702
0.083013
0.0830603
0.0831081
0.0831523
0.0831888
0.0832138
0.0832271
0.0832319
0.0832123
0.0832126
0.0832135
0.0832154
0.0832189
0.0832246
0.0832329
0.083244
0.0832575
0.0832727
0.0832881
0.0833014
0.083309
0.0833052
0.0832831
0.0832375
0.0831772
0.0831302
0.0831144
0.0831299
0.0831732
0.0832402
0.083323
0.0834123
0.0834985
0.0835731
0.0836309
0.0836676
0.0836828
0.0836811
0.0836714
0.0836637
0.0832324
0.0832325
0.0832333
0.0832354
0.08324
0.0832477
0.0832593
0.083275
0.0832947
0.0833177
0.0833431
0.0833693
0.0833932
0.0834094
0.0834095
0.083386
0.0833441
0.0833141
0.0833205
0.0833658
0.0834442
0.0835463
0.0836574
0.0837629
0.0838517
0.0839182
0.083962
0.0839837
0.0839864
0.0839758
0.0839602
0.0839491
0.0832554
0.083255
0.083255
0.0832566
0.0832612
0.0832698
0.0832835
0.0833025
0.0833267
0.0833556
0.0833885
0.0834246
0.0834618
0.0834955
0.0835174
0.0835166
0.0834917
0.0834696
0.0834804
0.0835313
0.0836158
0.083719
0.0838224
0.0839119
0.0839803
0.084029
0.0840613
0.0840804
0.0840883
0.0840872
0.0840805
0.084074
0.0832865
0.0832852
0.0832838
0.0832842
0.0832881
0.0832972
0.0833123
0.0833338
0.0833613
0.0833943
0.0834322
0.0834744
0.0835198
0.0835654
0.0836042
0.0836242
0.0836165
0.083599
0.0836024
0.0836398
0.0837087
0.0837941
0.083878
0.0839486
0.0840031
0.0840442
0.0840753
0.0840979
0.0841125
0.0841194
0.0841202
0.0841182
0.0833311
0.0833284
0.0833252
0.0833241
0.0833277
0.0833376
0.0833546
0.0833788
0.0834092
0.083445
0.0834857
0.0835308
0.0835798
0.0836306
0.0836785
0.0837131
0.0837212
0.0837105
0.0837068
0.0837261
0.0837718
0.0838341
0.0838983
0.0839548
0.0840018
0.0840409
0.084074
0.0841009
0.0841206
0.0841324
0.0841371
0.0841374
0.0833937
0.0833894
0.0833846
0.0833831
0.0833877
0.0834
0.08342
0.0834471
0.0834798
0.0835171
0.0835584
0.0836034
0.0836517
0.0837022
0.0837516
0.0837924
0.0838113
0.0838084
0.0838025
0.0838085
0.0838339
0.0838748
0.0839214
0.0839661
0.0840062
0.0840424
0.0840752
0.084104
0.0841268
0.0841418
0.084149
0.0841505
0.0834777
0.0834721
0.0834673
0.0834678
0.0834759
0.0834921
0.0835156
0.0835448
0.0835782
0.0836146
0.0836536
0.083695
0.0837388
0.0837844
0.0838296
0.0838693
0.0838924
0.0838956
0.083891
0.0838905
0.0839022
0.0839267
0.0839585
0.0839918
0.0840239
0.0840547
0.084084
0.0841111
0.0841341
0.0841505
0.0841593
0.0841617
0.0835855
0.0835799
0.0835784
0.0835841
0.0835974
0.0836173
0.0836424
0.0836711
0.0837021
0.0837344
0.083768
0.0838027
0.0838387
0.0838759
0.0839128
0.0839464
0.0839683
0.0839744
0.0839721
0.0839697
0.083974
0.0839874
0.0840075
0.0840305
0.0840541
0.0840776
0.0841009
0.0841235
0.0841438
0.0841596
0.0841688
0.0841718
0.0837198
0.0837172
0.0837225
0.0837344
0.0837511
0.0837714
0.0837941
0.0838183
0.0838431
0.0838682
0.0838935
0.083919
0.0839452
0.083972
0.0839986
0.0840232
0.0840402
0.0840463
0.0840456
0.0840434
0.0840445
0.0840513
0.084063
0.0840773
0.0840928
0.0841086
0.0841248
0.0841411
0.0841565
0.0841694
0.0841777
0.0841808
0.0838857
0.0838892
0.0839002
0.0839132
0.0839275
0.0839426
0.0839582
0.0839741
0.0839898
0.0840053
0.0840207
0.084036
0.0840515
0.0840672
0.0840828
0.0840973
0.0841078
0.084112
0.0841119
0.0841106
0.0841107
0.0841137
0.0841196
0.0841272
0.0841356
0.0841444
0.0841535
0.0841628
0.0841721
0.0841804
0.0841863
0.0841889
0.0840895
0.0840924
0.0840982
0.0841039
0.0841094
0.084115
0.0841206
0.084126
0.0841314
0.0841366
0.0841416
0.0841467
0.0841517
0.0841568
0.0841618
0.0841666
0.08417
0.0841714
0.0841715
0.0841711
0.084171
0.0841719
0.0841736
0.084176
0.0841786
0.0841813
0.0841842
0.0841871
0.0841901
0.0841929
0.084195
0.0841961
)
;

boundaryField
{
    movingWall
    {
        type            fixedValue;
        value           uniform 0.0842;
    }
    fixedWalls
    {
        type            zeroGradient;
    }
    floor
    {
        type            zeroGradient;
    }
    frontAndBack
    {
        type            empty;
    }
}


// ************************************************************************* //
