/*--------------------------------*- C++ -*----------------------------------*\
| =========                 |                                                 |
| \\      /  F ield         | OpenFOAM: The Open Source CFD Toolbox           |
|  \\    /   O peration     | Version:  2212                                  |
|   \\  /    A nd           | Website:  www.openfoam.com                      |
|    \\/     M anipulation  |                                                 |
\*---------------------------------------------------------------------------*/
FoamFile
{
    version     2.0;
    format      ascii;
    arch        "LSB;label=64;scalar=64";
    class       surfaceScalarField;
    location    "0.14";
    object      phi;
}
// * * * * * * * * * * * * * * * * * * * * * * * * * * * * * * * * * * * * * //

dimensions      [0 3 -1 0 0 0 0];

oriented        oriented;

internalField   nonuniform List<scalar> 
65152
(
-2.8103e-12
2.8103e-12
-2.99327e-12
1.82964e-13
-7.9399e-13
-2.19928e-12
2.57449e-12
-3.36848e-12
6.34669e-12
-3.7722e-12
1.02164e-11
-3.86971e-12
1.40777e-11
-3.8613e-12
1.7891e-11
-3.81329e-12
2.16357e-11
-3.74468e-12
2.52965e-11
-3.66085e-12
2.88602e-11
-3.56364e-12
3.23142e-11
-3.45403e-12
3.56469e-11
-3.33276e-12
3.88475e-11
-3.20051e-12
4.19054e-11
-3.05791e-12
4.4811e-11
-2.90563e-12
4.75553e-11
-2.74431e-12
5.013e-11
-2.57466e-12
5.25273e-11
-2.39737e-12
5.47405e-11
-2.21318e-12
5.67634e-11
-2.02284e-12
5.85905e-11
-1.82715e-12
6.02174e-11
-1.62692e-12
6.16404e-11
-1.42299e-12
6.28567e-11
-1.21624e-12
6.38643e-11
-1.00761e-12
6.46624e-11
-7.98083e-13
6.52512e-11
-5.88823e-13
6.56325e-11
-3.81252e-13
6.58101e-11
-1.77637e-13
6.57949e-11
1.52647e-14
6.55727e-11
2.22204e-13
6.51566e-11
4.16068e-13
6.45584e-11
5.98219e-13
6.37798e-11
7.78655e-13
6.28224e-11
9.57353e-13
6.16894e-11
1.13305e-12
6.03847e-11
1.30473e-12
5.89133e-11
1.47142e-12
5.72811e-11
1.63223e-12
5.54947e-11
1.78647e-12
5.35611e-11
1.93356e-12
5.14881e-11
2.07307e-12
4.92835e-11
2.20467e-12
4.69554e-11
2.32815e-12
4.4512e-11
2.44336e-12
4.19618e-11
2.55027e-12
3.9313e-11
2.64886e-12
3.65738e-11
2.73922e-12
3.37524e-11
2.82147e-12
3.08566e-11
2.89581e-12
2.78942e-11
2.96242e-12
2.48727e-11
3.0216e-12
2.17991e-11
3.0736e-12
1.86804e-11
3.11874e-12
1.55232e-11
3.15729e-12
1.23337e-11
3.18957e-12
9.11789e-12
3.21581e-12
5.88168e-12
3.23625e-12
2.6307e-12
3.25102e-12
-6.29359e-13
3.2601e-12
-3.89239e-12
3.26307e-12
-7.15332e-12
3.26098e-12
-1.04138e-11
3.26054e-12
-1.368e-11
3.26623e-12
-1.69509e-11
3.27096e-12
-2.02182e-11
3.26728e-12
-2.34729e-11
3.25474e-12
-2.67072e-11
3.23436e-12
-2.99139e-11
3.20672e-12
-3.3086e-11
3.17215e-12
-3.62167e-11
3.13076e-12
-3.92993e-11
3.08259e-12
-4.23268e-11
3.02753e-12
-4.52922e-11
2.96547e-12
-4.81884e-11
2.89622e-12
-5.1008e-11
2.81963e-12
-5.37434e-11
2.7355e-12
-5.63871e-11
2.64371e-12
-5.89312e-11
2.54411e-12
-6.13678e-11
2.43664e-12
-6.3689e-11
2.32123e-12
-6.58869e-11
2.19792e-12
-6.79536e-11
2.06675e-12
-6.98814e-11
1.9279e-12
-7.1663e-11
1.78155e-12
-7.32909e-11
1.62802e-12
-7.47586e-11
1.46772e-12
-7.60598e-11
1.30118e-12
-7.71888e-11
1.12906e-12
-7.8141e-11
9.52237e-13
-7.89127e-11
7.71682e-13
-7.95011e-11
5.88488e-13
-7.99045e-11
4.03427e-13
-8.01209e-11
2.16423e-13
-8.01453e-11
2.44222e-14
-7.9973e-11
-1.72264e-13
-7.95964e-11
-3.7664e-13
-7.90097e-11
-5.86664e-13
-7.82093e-11
-8.00392e-13
-7.7193e-11
-1.01624e-12
-7.59601e-11
-1.23292e-12
-7.45108e-11
-1.44926e-12
-7.28465e-11
-1.66422e-12
-7.09697e-11
-1.87681e-12
-6.88836e-11
-2.0861e-12
-6.65924e-11
-2.29121e-12
-6.41011e-11
-2.49129e-12
-6.14156e-11
-2.6855e-12
-5.85425e-11
-2.87308e-12
-5.54892e-11
-3.05326e-12
-5.22639e-11
-3.22531e-12
-4.88753e-11
-3.38854e-12
-4.5333e-11
-3.54229e-12
-4.16471e-11
-3.68589e-12
-3.78283e-11
-3.81875e-12
-3.38881e-11
-3.94022e-12
-2.98384e-11
-4.0497e-12
-2.56919e-11
-4.14647e-12
-2.14623e-11
-4.22962e-12
-1.71649e-11
-4.29738e-12
-1.28204e-11
-4.34448e-12
-8.46847e-12
-4.35196e-12
-4.21505e-12
-4.25342e-12
-3.67545e-13
-3.8475e-12
2.30167e-12
-2.66921e-12
2.51186e-12
-2.10183e-13
2.51186e-12
-9.14747e-13
3.72505e-12
2.57175e-12
-3.30354e-12
9.64105e-12
-9.26858e-12
1.82501e-11
-1.19775e-11
2.73307e-11
-1.28528e-11
3.64758e-11
-1.30148e-11
4.55511e-11
-1.29366e-11
5.4508e-11
-1.27701e-11
6.33196e-11
-1.25563e-11
7.19642e-11
-1.23054e-11
8.04207e-11
-1.20201e-11
8.86684e-11
-1.17017e-11
9.66866e-11
-1.1351e-11
1.04455e-10
-1.09692e-11
1.11955e-10
-1.05574e-11
1.19166e-10
-1.01168e-11
1.2607e-10
-9.64859e-12
1.3265e-10
-9.15419e-12
1.38888e-10
-8.63501e-12
1.44767e-10
-8.09256e-12
1.50272e-10
-7.52839e-12
1.55389e-10
-6.94415e-12
1.60104e-10
-6.34152e-12
1.64403e-10
-5.72227e-12
1.68275e-10
-5.0882e-12
1.71709e-10
-4.44121e-12
1.74694e-10
-3.78317e-12
1.77221e-10
-3.11606e-12
1.79282e-10
-2.44179e-12
1.80866e-10
-1.76225e-12
1.81961e-10
-1.07883e-12
1.82574e-10
-3.91489e-13
1.82694e-10
2.95855e-13
1.82321e-10
9.7191e-13
1.81452e-10
1.64742e-12
1.80092e-10
2.31769e-12
1.78244e-10
2.98087e-12
1.75914e-10
3.63451e-12
1.73109e-10
4.27677e-12
1.69835e-10
4.90577e-12
1.66102e-10
5.51978e-12
1.61919e-10
6.11712e-12
1.57295e-10
6.6963e-12
1.52244e-10
7.25585e-12
1.46778e-10
7.79446e-12
1.40911e-10
8.3109e-12
1.34657e-10
8.80406e-12
1.28033e-10
9.27291e-12
1.21055e-10
9.71657e-12
1.13743e-10
1.01342e-11
1.06114e-10
1.05252e-11
9.81872e-11
1.08888e-11
8.99842e-11
1.12246e-11
8.15257e-11
1.15322e-11
7.28332e-11
1.18113e-11
6.3929e-11
1.20615e-11
5.48359e-11
1.22827e-11
4.55771e-11
1.24747e-11
3.61761e-11
1.26374e-11
2.66565e-11
1.27706e-11
1.70423e-11
1.28743e-11
7.3571e-12
1.29483e-11
-2.37463e-12
1.29928e-11
-1.21251e-11
1.30111e-11
-2.18643e-11
1.30055e-11
-3.15658e-11
1.29725e-11
-4.12057e-11
1.29072e-11
-5.07596e-11
1.28087e-11
-6.02029e-11
1.26777e-11
-6.95109e-11
1.25148e-11
-7.86593e-11
1.23207e-11
-8.76243e-11
1.20957e-11
-9.63821e-11
1.18404e-11
-1.0491e-10
1.15553e-11
-1.13185e-10
1.12407e-11
-1.21186e-10
1.08972e-11
-1.28892e-10
1.05254e-11
-1.36282e-10
1.0126e-11
-1.43338e-10
9.69952e-12
-1.50041e-10
9.24689e-12
-1.56373e-10
8.76898e-12
-1.62318e-10
8.26673e-12
-1.67862e-10
7.74124e-12
-1.72989e-10
7.19366e-12
-1.77686e-10
6.62526e-12
-1.81942e-10
6.0374e-12
-1.85745e-10
5.43155e-12
-1.89087e-10
4.80925e-12
-1.91958e-10
4.1722e-12
-1.94351e-10
3.52214e-12
-1.96259e-10
2.86098e-12
-1.97678e-10
2.19068e-12
-1.98603e-10
1.51309e-12
-1.9903e-10
8.30339e-13
-1.98958e-10
1.44595e-13
-1.98384e-10
-5.4952e-13
-1.9731e-10
-1.24646e-12
-1.95743e-10
-1.9437e-12
-1.9369e-10
-2.63949e-12
-1.91158e-10
-3.33185e-12
-1.88156e-10
-4.01866e-12
-1.84691e-10
-4.69786e-12
-1.80773e-10
-5.36734e-12
-1.76412e-10
-6.02511e-12
-1.71619e-10
-6.66918e-12
-1.66408e-10
-7.29766e-12
-1.6079e-10
-7.90868e-12
-1.54781e-10
-8.50047e-12
-1.48395e-10
-9.07133e-12
-1.41649e-10
-9.61962e-12
-1.34558e-10
-1.01438e-11
-1.27141e-10
-1.06423e-11
-1.19416e-10
-1.11138e-11
-1.11401e-10
-1.15571e-11
-1.03116e-10
-1.19707e-11
-9.45814e-11
-1.23536e-11
-8.58168e-11
-1.27048e-11
-7.68433e-11
-1.30232e-11
-6.76818e-11
-1.3308e-11
-5.83535e-11
-1.35579e-11
-4.88804e-11
-1.37704e-11
-3.92895e-11
-1.39354e-11
-2.96298e-11
-1.40116e-11
-2.00368e-11
-1.38465e-11
-1.092e-11
-1.29643e-11
-3.35433e-12
-1.02348e-11
6.32929e-13
-4.19743e-12
3.14479e-12
-4.89076e-13
4.21413e-12
3.98941e-12
-7.78203e-12
1.20506e-11
-1.73298e-11
2.16637e-11
-2.15906e-11
3.17591e-11
-2.29482e-11
4.19261e-11
-2.31819e-11
5.20243e-11
-2.30348e-11
6.19995e-11
-2.27453e-11
7.18207e-11
-2.23776e-11
8.14631e-11
-2.19478e-11
9.0903e-11
-2.14601e-11
1.00118e-10
-2.09162e-11
1.09084e-10
-2.03177e-11
1.17781e-10
-1.9666e-11
1.26186e-10
-1.89628e-11
1.34279e-10
-1.82098e-11
1.4204e-10
-1.74088e-11
1.49447e-10
-1.6562e-11
1.56484e-10
-1.56713e-11
1.6313e-10
-1.47391e-11
1.69369e-10
-1.37677e-11
1.75185e-10
-1.27595e-11
1.8056e-10
-1.17171e-11
1.85481e-10
-1.06431e-11
1.89933e-10
-9.54034e-12
1.93904e-10
-8.41158e-12
1.9738e-10
-7.25971e-12
2.00352e-10
-6.08768e-12
2.02808e-10
-4.89842e-12
2.04741e-10
-3.69484e-12
2.06142e-10
-2.47974e-12
2.07006e-10
-1.25569e-12
2.07322e-10
-1.96512e-14
2.0709e-10
1.20396e-12
2.06308e-10
2.42927e-12
2.04976e-10
3.64984e-12
2.03095e-10
4.86178e-12
2.00668e-10
6.06121e-12
1.977e-10
7.24497e-12
1.94196e-10
8.40984e-12
1.90163e-10
9.55269e-12
1.8561e-10
1.06705e-11
1.80546e-10
1.17602e-11
1.74983e-10
1.2819e-11
1.68933e-10
1.38442e-11
1.62411e-10
1.4833e-11
1.55432e-10
1.5783e-11
1.48014e-10
1.66917e-11
1.40173e-10
1.7557e-11
1.31931e-10
1.83767e-11
1.23307e-10
1.91488e-11
1.14324e-10
1.98716e-11
1.05006e-10
2.05434e-11
9.53752e-11
2.11627e-11
8.54584e-11
2.17282e-11
7.52813e-11
2.22386e-11
6.4871e-11
2.2693e-11
5.42552e-11
2.30905e-11
4.34622e-11
2.34304e-11
3.2521e-11
2.37119e-11
2.14606e-11
2.39348e-11
1.03105e-11
2.40985e-11
-8.99247e-13
2.42025e-11
-1.21344e-11
2.42463e-11
-2.33576e-11
2.42287e-11
-3.45341e-11
2.41491e-11
-4.56334e-11
2.40066e-11
-5.66259e-11
2.38012e-11
-6.74819e-11
2.35338e-11
-7.81721e-11
2.3205e-11
-8.86673e-11
2.28159e-11
-9.89389e-11
2.23674e-11
-1.08959e-10
2.18605e-11
-1.187e-10
2.12967e-11
-1.28137e-10
2.06772e-11
-1.37243e-10
2.00037e-11
-1.45995e-10
1.92777e-11
-1.54371e-10
1.85012e-11
-1.62347e-10
1.7676e-11
-1.69904e-10
1.68042e-11
-1.77023e-10
1.58881e-11
-1.83687e-10
1.493e-11
-1.89878e-10
1.39324e-11
-1.95582e-10
1.28979e-11
-2.00786e-10
1.18293e-11
-2.05478e-10
1.07293e-11
-2.09647e-10
9.60086e-12
-2.13285e-10
8.44706e-12
-2.16384e-10
7.27097e-12
-2.18937e-10
6.07576e-12
-2.20941e-10
4.8647e-12
-2.22391e-10
3.64099e-12
-2.23286e-10
2.40767e-12
-2.23624e-10
1.1683e-12
-2.2341e-10
-6.88064e-14
-2.22637e-10
-1.3227e-12
-2.21315e-10
-2.56871e-12
-2.19449e-10
-3.80907e-12
-2.17048e-10
-5.04103e-12
-2.14118e-10
-6.26151e-12
-2.10669e-10
-7.46736e-12
-2.06712e-10
-8.6554e-12
-2.02257e-10
-9.8225e-12
-1.97316e-10
-1.09656e-11
-1.91904e-10
-1.20817e-11
-1.86033e-10
-1.31679e-11
-1.79721e-10
-1.42214e-11
-1.72982e-10
-1.52395e-11
-1.65833e-10
-1.62197e-11
-1.58293e-10
-1.71595e-11
-1.5038e-10
-1.80566e-11
-1.42114e-10
-1.89088e-11
-1.33514e-10
-1.97139e-11
-1.24601e-10
-2.04701e-11
-1.15396e-10
-2.11756e-11
-1.05921e-10
-2.18285e-11
-9.6198e-11
-2.24275e-11
-8.62501e-11
-2.29711e-11
-7.61002e-11
-2.34579e-11
-6.57718e-11
-2.38863e-11
-5.52901e-11
-2.42521e-11
-4.4686e-11
-2.45395e-11
-3.40141e-11
-2.46835e-11
-2.34154e-11
-2.44452e-11
-1.33022e-11
-2.30775e-11
-4.74969e-12
-1.87873e-11
1.87808e-13
-9.13492e-12
3.3326e-12
-4.60152e-13
4.67428e-12
4.22898e-12
-1.24712e-11
1.25858e-11
-2.56866e-11
2.25235e-11
-3.15283e-11
3.29527e-11
-3.33774e-11
4.34559e-11
-3.36851e-11
5.38898e-11
-3.34687e-11
6.41982e-11
-3.30536e-11
7.4349e-11
-3.25284e-11
8.43163e-11
-3.1915e-11
9.40755e-11
-3.12193e-11
1.03603e-10
-3.04437e-11
1.12875e-10
-2.95902e-11
1.2187e-10
-2.86608e-11
1.30565e-10
-2.76576e-11
1.38938e-10
-2.65831e-11
1.46969e-10
-2.54396e-11
1.54637e-10
-2.42298e-11
1.61922e-10
-2.29566e-11
1.68806e-10
-2.16228e-11
1.7527e-10
-2.02318e-11
1.81297e-10
-1.87866e-11
1.86871e-10
-1.72909e-11
1.91976e-10
-1.57481e-11
1.96598e-10
-1.41619e-11
2.00722e-10
-1.25362e-11
2.04338e-10
-1.08749e-11
2.07432e-10
-9.18206e-12
2.09995e-10
-7.46171e-12
2.12018e-10
-5.71805e-12
2.13494e-10
-3.95518e-12
2.14415e-10
-2.17702e-12
2.1478e-10
-3.84687e-13
2.14578e-10
1.40583e-12
2.13814e-10
3.19404e-12
2.12484e-10
4.97996e-12
2.10588e-10
6.75754e-12
2.08128e-10
8.52094e-12
2.05108e-10
1.02654e-11
2.01532e-10
1.19861e-11
1.97406e-10
1.36782e-11
1.92739e-10
1.53372e-11
1.87541e-10
1.69585e-11
1.81822e-10
1.85377e-11
1.75596e-10
2.00705e-11
1.68876e-10
2.15528e-11
1.61679e-10
2.29804e-11
1.54021e-10
2.43495e-11
1.45922e-10
2.56564e-11
1.37401e-10
2.68976e-11
1.2848e-10
2.80698e-11
1.19182e-10
2.91698e-11
1.0953e-10
3.01949e-11
9.9551e-11
3.11422e-11
8.92699e-11
3.20093e-11
7.87145e-11
3.27941e-11
6.79131e-11
3.34945e-11
5.68948e-11
3.41089e-11
4.56896e-11
3.46356e-11
3.43279e-11
3.50736e-11
2.2841e-11
3.54218e-11
1.12604e-11
3.56791e-11
-3.81196e-13
3.58442e-11
-1.20488e-11
3.59139e-11
-2.37069e-11
3.58869e-11
-3.532e-11
3.57622e-11
-4.68545e-11
3.55411e-11
-5.82779e-11
3.52247e-11
-6.95584e-11
3.48144e-11
-8.06647e-11
3.43113e-11
-9.15659e-11
3.37171e-11
-1.02232e-10
3.30334e-11
-1.12633e-10
3.2262e-11
-1.22742e-10
3.14053e-11
-1.3253e-10
3.04657e-11
-1.41972e-10
2.94457e-11
-1.51043e-10
2.83483e-11
-1.59718e-10
2.71765e-11
-1.67976e-10
2.59336e-11
-1.75795e-10
2.46232e-11
-1.83155e-10
2.32489e-11
-1.9004e-10
2.18145e-11
-1.96431e-10
2.0324e-11
-2.02315e-10
1.87815e-11
-2.07677e-10
1.71915e-11
-2.12506e-10
1.55581e-11
-2.16791e-10
1.3886e-11
-2.20523e-10
1.21798e-11
-2.23696e-10
1.0444e-11
-2.26304e-10
8.68355e-12
-2.28343e-10
6.90317e-12
-2.29809e-10
5.10772e-12
-2.30703e-10
3.30175e-12
-2.31026e-10
1.49077e-12
-2.30778e-10
-3.16893e-13
-2.2996e-10
-2.14021e-12
-2.28578e-10
-3.95104e-12
-2.26636e-10
-5.75085e-12
-2.24141e-10
-7.53551e-12
-2.21102e-10
-9.30061e-12
-2.17528e-10
-1.10417e-11
-2.13429e-10
-1.27544e-11
-2.08817e-10
-1.44345e-11
-2.03705e-10
-1.60777e-11
-1.98106e-10
-1.768e-11
-1.92037e-10
-1.92376e-11
-1.85511e-10
-2.07466e-11
-1.78547e-10
-2.22035e-11
-1.71162e-10
-2.36049e-11
-1.63374e-10
-2.49473e-11
-1.55203e-10
-2.62279e-11
-1.46668e-10
-2.74435e-11
-1.37791e-10
-2.85915e-11
-1.28592e-10
-2.96692e-11
-1.19093e-10
-3.06743e-11
-1.09317e-10
-3.16046e-11
-9.92865e-11
-3.24579e-11
-8.90251e-11
-3.32324e-11
-7.85566e-11
-3.39264e-11
-6.79055e-11
-3.45374e-11
-5.70979e-11
-3.50597e-11
-4.61661e-11
-3.54713e-11
-3.51661e-11
-3.56835e-11
-2.42422e-11
-3.53692e-11
-1.38131e-11
-3.35065e-11
-4.97434e-12
-2.76261e-11
1.63947e-13
-1.42732e-11
3.49655e-12
-4.73188e-13
5.14747e-12
4.37643e-12
-1.73208e-11
1.30106e-11
-3.43208e-11
2.32768e-11
-4.17945e-11
3.40515e-11
-4.41521e-11
4.49039e-11
-4.45375e-11
5.56854e-11
-4.42502e-11
6.63378e-11
-4.3706e-11
7.68279e-11
-4.30185e-11
8.71288e-11
-4.22159e-11
9.72154e-11
-4.13058e-11
1.07063e-10
-4.02914e-11
1.16648e-10
-3.9175e-11
1.25947e-10
-3.79594e-11
1.34936e-10
-3.6647e-11
1.43594e-10
-3.52409e-11
1.51898e-10
-3.37442e-11
1.59829e-10
-3.21601e-11
1.67364e-10
-3.04923e-11
1.74486e-10
-2.87444e-11
1.81175e-10
-2.69204e-11
1.87412e-10
-2.50244e-11
1.93182e-10
-2.30608e-11
1.98468e-10
-2.10341e-11
2.03255e-10
-1.8949e-11
2.07529e-10
-1.68103e-11
2.11277e-10
-1.4623e-11
2.14488e-10
-1.23925e-11
2.1715e-10
-1.01238e-11
2.19255e-10
-7.8226e-12
2.20794e-10
-5.49418e-12
2.21761e-10
-3.14389e-12
2.2215e-10
-7.74517e-13
2.21957e-10
1.59886e-12
2.21183e-10
3.96847e-12
2.19825e-10
6.33836e-12
2.17882e-10
8.70004e-12
2.15357e-10
1.10462e-11
2.12252e-10
1.33703e-11
2.08572e-10
1.56657e-11
2.04325e-10
1.7926e-11
1.99517e-10
2.01449e-11
1.94159e-10
2.23162e-11
1.88263e-10
2.4434e-11
1.81842e-10
2.64922e-11
1.74909e-10
2.84851e-11
1.67483e-10
3.04072e-11
1.59579e-10
3.2253e-11
1.51218e-10
3.40173e-11
1.42421e-10
3.5695e-11
1.33209e-10
3.72816e-11
1.23607e-10
3.87724e-11
1.13638e-10
4.01634e-11
1.0333e-10
4.14505e-11
9.27089e-11
4.26302e-11
8.18038e-11
4.36992e-11
7.06438e-11
4.46546e-11
5.92591e-11
4.54937e-11
4.76806e-11
4.62142e-11
3.59402e-11
4.68141e-11
2.40701e-11
4.72918e-11
1.21036e-11
4.76456e-11
7.4684e-14
4.78732e-11
-1.19832e-11
4.79719e-11
-2.40322e-11
4.79359e-11
-3.60365e-11
4.77665e-11
-4.79611e-11
4.74657e-11
-5.97718e-11
4.70355e-11
-7.14354e-11
4.6478e-11
-8.29191e-11
4.5795e-11
-9.41908e-11
4.49888e-11
-1.05219e-10
4.40619e-11
-1.15974e-10
4.30169e-11
-1.26426e-10
4.18572e-11
-1.36546e-10
4.05862e-11
-1.46308e-10
3.92077e-11
-1.55686e-10
3.77259e-11
-1.64655e-10
3.61452e-11
-1.73191e-10
3.44702e-11
-1.81274e-10
3.27059e-11
-1.88882e-10
3.08574e-11
-1.95998e-10
2.89302e-11
-2.02604e-10
2.69297e-11
-2.08684e-10
2.48618e-11
-2.14225e-10
2.27323e-11
-2.19214e-10
2.05473e-11
-2.23641e-10
1.83128e-11
-2.27496e-10
1.60352e-11
-2.30773e-10
1.37208e-11
-2.33465e-10
1.13759e-11
-2.35569e-10
9.00706e-12
-2.37082e-10
6.62073e-12
-2.38003e-10
4.22323e-12
-2.38334e-10
1.82145e-12
-2.38075e-10
-5.75963e-13
-2.37228e-10
-2.98724e-12
-2.35797e-10
-5.38156e-12
-2.33789e-10
-7.75913e-12
-2.3121e-10
-1.01145e-11
-2.28069e-10
-1.24418e-11
-2.24375e-10
-1.47353e-11
-2.2014e-10
-1.69894e-11
-2.15376e-10
-1.91987e-11
-2.10096e-10
-2.13578e-11
-2.04314e-10
-2.34615e-11
-1.98047e-10
-2.5505e-11
-1.9131e-10
-2.74836e-11
-1.84121e-10
-2.93926e-11
-1.76498e-10
-3.12277e-11
-1.6846e-10
-3.29849e-11
-1.60028e-10
-3.46603e-11
-1.51221e-10
-3.62501e-11
-1.42061e-10
-3.7751e-11
-1.32571e-10
-3.91597e-11
-1.22772e-10
-4.04731e-11
-1.12688e-10
-4.16886e-11
-1.02343e-10
-4.28035e-11
-9.17596e-11
-4.38155e-11
-8.09637e-11
-4.47223e-11
-6.99802e-11
-4.55209e-11
-5.8836e-11
-4.62038e-11
-4.75645e-11
-4.67428e-11
-3.6224e-11
-4.7024e-11
-2.49633e-11
-4.66298e-11
-1.42154e-11
-4.42545e-11
-5.10888e-12
-3.67325e-11
1.814e-13
-1.95635e-11
3.67795e-12
-4.86662e-13
5.63413e-12
4.56234e-12
-2.23698e-11
1.35456e-11
-4.33041e-11
2.42286e-11
-5.24775e-11
3.54441e-11
-5.53676e-11
4.67425e-11
-5.58359e-11
5.7968e-11
-5.54757e-11
6.90598e-11
-5.47978e-11
7.99832e-11
-5.39419e-11
9.07102e-11
-5.2943e-11
1.01215e-10
-5.18105e-11
1.11472e-10
-5.05483e-11
1.21456e-10
-4.91593e-11
1.31143e-10
-4.76467e-11
1.4051e-10
-4.60136e-11
1.49533e-10
-4.42636e-11
1.58189e-10
-4.24004e-11
1.66457e-10
-4.0428e-11
1.74315e-10
-3.83506e-11
1.81744e-10
-3.61728e-11
1.88723e-10
-3.38994e-11
1.95234e-10
-3.15353e-11
2.01259e-10
-2.90858e-11
2.06781e-10
-2.65563e-11
2.11785e-10
-2.39527e-11
2.16255e-10
-2.12808e-11
2.20179e-10
-1.85468e-11
2.23544e-10
-1.57571e-11
2.26338e-10
-1.29181e-11
2.28552e-10
-1.00367e-11
2.30177e-10
-7.11957e-12
2.31207e-10
-4.17341e-12
2.31635e-10
-1.20247e-12
2.31455e-10
1.77832e-12
2.3067e-10
4.75386e-12
2.29276e-10
7.73227e-12
2.27273e-10
1.07029e-11
2.24663e-10
1.36566e-11
2.21448e-10
1.65849e-11
2.17634e-10
1.94797e-11
2.13228e-10
2.23327e-11
2.08237e-10
2.51357e-11
2.02672e-10
2.7881e-11
1.96545e-10
3.05608e-11
1.8987e-10
3.31674e-11
1.82662e-10
3.56935e-11
1.74937e-10
3.81318e-11
1.66715e-10
4.04751e-11
1.58016e-10
4.27169e-11
1.4886e-10
4.48504e-11
1.39272e-10
4.68696e-11
1.29276e-10
4.87685e-11
1.18898e-10
5.05415e-11
1.08165e-10
5.21835e-11
9.71058e-11
5.36896e-11
8.57496e-11
5.50555e-11
7.41271e-11
5.62771e-11
6.22699e-11
5.73509e-11
5.02103e-11
5.82738e-11
3.79814e-11
5.90431e-11
2.56168e-11
5.96564e-11
1.31509e-11
6.01116e-11
6.18437e-13
6.04056e-11
-1.19417e-11
6.0532e-11
-2.44944e-11
6.04886e-11
-3.70019e-11
6.02741e-11
-4.94274e-11
5.98912e-11
-6.17349e-11
5.93431e-11
-7.38895e-11
5.86326e-11
-8.58568e-11
5.77624e-11
-9.76034e-11
5.67355e-11
-1.09097e-10
5.5555e-11
-1.20304e-10
5.42249e-11
-1.31196e-10
5.27492e-11
-1.41743e-10
5.11327e-11
-1.51916e-10
4.93804e-11
-1.61687e-10
4.74978e-11
-1.71033e-10
4.54905e-11
-1.79927e-10
4.33648e-11
-1.88348e-10
4.11271e-11
-1.96275e-10
3.87842e-11
-2.03688e-10
3.63429e-11
-2.10569e-10
3.38106e-11
-2.16901e-10
3.11946e-11
-2.22672e-10
2.85026e-11
-2.27867e-10
2.57422e-11
-2.32475e-10
2.29214e-11
-2.36488e-10
2.0048e-11
-2.39897e-10
1.71303e-11
-2.42698e-10
1.41762e-11
-2.44885e-10
1.11941e-11
-2.46456e-10
8.19198e-12
-2.4741e-10
5.17795e-12
-2.47749e-10
2.16038e-12
-2.47473e-10
-8.52461e-13
-2.46584e-10
-3.87627e-12
-2.45087e-10
-6.87837e-12
-2.42989e-10
-9.85739e-12
-2.40297e-10
-1.28065e-11
-2.3702e-10
-1.57185e-11
-2.33169e-10
-1.85863e-11
-2.28755e-10
-2.1403e-11
-2.23792e-10
-2.4162e-11
-2.18293e-10
-2.68568e-11
-2.12273e-10
-2.9481e-11
-2.0575e-10
-3.20288e-11
-1.98739e-10
-3.44943e-11
-1.91259e-10
-3.68722e-11
-1.8333e-10
-3.91571e-11
-1.74971e-10
-4.13441e-11
-1.66202e-10
-4.34286e-11
-1.57047e-10
-4.5406e-11
-1.47525e-10
-4.72723e-11
-1.37661e-10
-4.90236e-11
-1.27478e-10
-5.06562e-11
-1.17e-10
-5.21669e-11
-1.06251e-10
-5.35525e-11
-9.52562e-11
-5.48102e-11
-8.40412e-11
-5.59373e-11
-7.26322e-11
-5.69299e-11
-6.10569e-11
-5.7779e-11
-4.93502e-11
-5.84495e-11
-3.7573e-11
-5.88012e-11
-2.58815e-11
-5.83213e-11
-1.47267e-11
-5.54093e-11
-5.28074e-12
-4.61784e-11
2.01617e-13
-2.50458e-11
3.87957e-12
-4.98868e-13
6.133e-12
4.80113e-12
-2.76698e-11
1.42177e-11
-5.27207e-11
2.54169e-11
-6.36766e-11
3.71782e-11
-6.71289e-11
4.90293e-11
-6.7687e-11
6.08054e-11
-6.72519e-11
7.24421e-11
-6.64345e-11
8.3903e-11
-6.54028e-11
9.5159e-11
-6.41989e-11
1.06183e-10
-6.28343e-11
1.16948e-10
-6.13136e-11
1.27429e-10
-5.96403e-11
1.376e-10
-5.78179e-11
1.47437e-10
-5.58502e-11
1.56915e-10
-5.37414e-11
1.6601e-10
-5.14957e-11
1.747e-10
-4.9118e-11
1.82963e-10
-4.66132e-11
1.90776e-10
-4.39865e-11
1.9812e-10
-4.12436e-11
2.04975e-10
-3.83904e-11
2.11323e-10
-3.5433e-11
2.17144e-10
-3.23779e-11
2.22424e-10
-2.9232e-11
2.27145e-10
-2.60021e-11
2.31294e-10
-2.26958e-11
2.34857e-10
-1.93205e-11
2.37823e-10
-1.5884e-11
2.40181e-10
-1.23945e-11
2.41921e-10
-8.85995e-12
2.43037e-10
-5.28851e-12
2.4352e-10
-1.68573e-12
2.43363e-10
1.9348e-12
2.42572e-10
5.54532e-12
2.41141e-10
9.16331e-12
2.3907e-10
1.27736e-11
2.36361e-10
1.63662e-11
2.33015e-10
1.99302e-11
2.29039e-10
2.34557e-11
2.24439e-10
2.69326e-11
2.19224e-10
3.03508e-11
2.13405e-10
3.37007e-11
2.06993e-10
3.69726e-11
2.00003e-10
4.01572e-11
1.92452e-10
4.32453e-11
1.84356e-10
4.62278e-11
1.75735e-10
4.90959e-11
1.6661e-10
5.18413e-11
1.57005e-10
5.44557e-11
1.46944e-10
5.69313e-11
1.36451e-10
5.92608e-11
1.25556e-10
6.14371e-11
1.14286e-10
6.34536e-11
1.02671e-10
6.53044e-11
9.07429e-11
6.69837e-11
7.85335e-11
6.84865e-11
6.6076e-11
6.98084e-11
5.34046e-11
7.09452e-11
4.05541e-11
7.18936e-11
2.75602e-11
7.26505e-11
1.44588e-11
7.3213e-11
1.28697e-12
7.35775e-11
-1.19169e-11
7.37359e-11
-2.51132e-11
7.3685e-11
-3.82621e-11
7.34231e-11
-5.13248e-11
7.2954e-11
-6.42634e-11
7.22818e-11
-7.7041e-11
7.14102e-11
-8.96212e-11
7.03427e-11
-1.01969e-10
6.90831e-11
-1.14049e-10
6.76356e-11
-1.25829e-10
6.60048e-11
-1.37276e-10
6.41962e-11
-1.48359e-10
6.22156e-11
-1.59048e-10
6.00694e-11
-1.69314e-10
5.77642e-11
-1.79131e-10
5.53076e-11
-1.88474e-10
5.2707e-11
-1.97317e-10
4.99705e-11
-2.05639e-10
4.71067e-11
-2.13421e-10
4.4124e-11
-2.20641e-10
4.10316e-11
-2.27285e-10
3.78385e-11
-2.33337e-10
3.45543e-11
-2.38783e-10
3.11884e-11
-2.43612e-10
2.77505e-11
-2.47815e-10
2.42505e-11
-2.51383e-10
2.06982e-11
-2.5431e-10
1.71036e-11
-2.56593e-10
1.3477e-11
-2.58229e-10
9.82779e-12
-2.59217e-10
6.16615e-12
-2.59558e-10
2.50187e-12
-2.59253e-10
-1.1574e-12
-2.58305e-10
-4.82486e-12
-2.56718e-10
-8.46476e-12
-2.54501e-10
-1.20745e-11
-2.51662e-10
-1.56458e-11
-2.4821e-10
-1.91702e-11
-2.44157e-10
-2.26393e-11
-2.39515e-10
-2.60447e-11
-2.34299e-10
-2.93785e-11
-2.28522e-10
-3.26332e-11
-2.22202e-10
-3.58012e-11
-2.15355e-10
-3.88756e-11
-2.08e-10
-4.18495e-11
-2.00156e-10
-4.47165e-11
-1.91842e-10
-4.74705e-11
-1.83081e-10
-5.01057e-11
-1.73893e-10
-5.26165e-11
-1.64301e-10
-5.49978e-11
-1.54328e-10
-5.72447e-11
-1.43999e-10
-5.93528e-11
-1.33338e-10
-6.13178e-11
-1.22369e-10
-6.31358e-11
-1.11118e-10
-6.48032e-11
-9.96114e-11
-6.63167e-11
-8.78756e-11
-6.7673e-11
-7.59377e-11
-6.88678e-11
-6.3827e-11
-6.98898e-11
-5.15797e-11
-7.06968e-11
-3.92605e-11
-7.11204e-11
-2.70345e-11
-7.05473e-11
-1.53752e-11
-6.70686e-11
-5.50773e-12
-5.60459e-11
2.16056e-13
-3.07696e-11
4.09563e-12
-5.09739e-13
6.64274e-12
5.09797e-12
-3.32775e-11
1.50368e-11
-6.26595e-11
2.6856e-11
-7.54958e-11
3.92726e-11
-7.95455e-11
5.17874e-11
-8.02018e-11
6.42251e-11
-7.96895e-11
7.65168e-11
-7.87262e-11
8.8624e-11
-7.751e-11
1.00516e-10
-7.60911e-11
1.12165e-10
-7.4483e-11
1.23542e-10
-7.26912e-11
1.34622e-10
-7.07196e-11
1.45376e-10
-6.85725e-11
1.5578e-10
-6.6254e-11
1.65808e-10
-6.37689e-11
1.75434e-10
-6.11222e-11
1.84635e-10
-5.83193e-11
1.93388e-10
-5.53659e-11
2.0167e-10
-5.2268e-11
2.09458e-10
-4.90321e-11
2.16733e-10
-4.5665e-11
2.23474e-10
-4.21738e-11
2.29662e-10
-3.85661e-11
2.35279e-10
-3.48495e-11
2.4031e-10
-3.10324e-11
2.44737e-10
-2.71232e-11
2.48547e-10
-2.31308e-11
2.51728e-10
-1.90642e-11
2.54266e-10
-1.49329e-11
2.56153e-10
-1.07465e-11
2.57378e-10
-6.51438e-12
2.57936e-10
-2.24353e-12
2.57819e-10
2.0522e-12
2.57028e-10
6.33667e-12
2.55559e-10
1.06315e-11
2.53414e-10
1.49194e-11
2.50591e-10
1.91889e-11
2.47094e-10
2.34268e-11
2.42929e-10
2.76213e-11
2.38101e-10
3.17604e-11
2.3262e-10
3.58319e-11
2.26497e-10
3.98241e-11
2.19744e-10
4.37255e-11
2.12376e-10
4.75248e-11
2.04411e-10
5.12107e-11
1.95866e-10
5.47723e-11
1.86763e-10
5.81992e-11
1.77123e-10
6.14808e-11
1.66972e-10
6.46075e-11
1.56333e-10
6.75695e-11
1.45236e-10
7.0358e-11
1.33709e-10
7.29642e-11
1.21782e-10
7.53803e-11
1.09488e-10
7.75987e-11
9.68591e-11
7.96127e-11
8.39299e-11
8.14158e-11
7.07357e-11
8.30026e-11
5.73128e-11
8.43681e-11
4.36983e-11
8.5508e-11
2.99303e-11
8.64185e-11
1.60477e-11
8.70957e-11
2.09066e-12
8.75345e-11
-1.19073e-11
8.77338e-11
-2.5896e-11
8.76737e-11
-3.98338e-11
8.73609e-11
-5.36795e-11
8.67997e-11
-6.73929e-11
8.59952e-11
-8.09346e-11
8.49519e-11
-9.4266e-11
8.36742e-11
-1.0735e-10
8.21668e-11
-1.20149e-10
8.04347e-11
-1.32628e-10
7.84838e-11
-1.44752e-10
7.63206e-11
-1.56489e-10
7.39523e-11
-1.67806e-10
7.13866e-11
-1.78673e-10
6.86318e-11
-1.89063e-10
6.56969e-11
-1.98947e-10
6.25911e-11
-2.083e-10
5.93242e-11
-2.171e-10
5.59064e-11
-2.25324e-10
5.23483e-11
-2.32953e-10
4.86606e-11
-2.39969e-10
4.48545e-11
-2.46356e-10
4.09414e-11
-2.52101e-10
3.69327e-11
-2.5719e-10
3.28401e-11
-2.61615e-10
2.86754e-11
-2.65367e-10
2.44504e-11
-2.68441e-10
2.01772e-11
-2.70832e-10
1.58679e-11
-2.72538e-10
1.15336e-11
-2.73558e-10
7.18669e-12
-2.73894e-10
2.83807e-12
-2.73547e-10
-1.50519e-12
-2.72518e-10
-5.85305e-12
-2.70816e-10
-1.01667e-11
-2.68449e-10
-1.44423e-11
-2.65424e-10
-1.86701e-11
-2.61754e-10
-2.284e-11
-2.57451e-10
-2.69424e-11
-2.52528e-10
-3.09675e-11
-2.47001e-10
-3.49062e-11
-2.40884e-10
-3.87495e-11
-2.34197e-10
-4.2489e-11
-2.26956e-10
-4.61164e-11
-2.19181e-10
-4.96239e-11
-2.10894e-10
-5.30041e-11
-2.02114e-10
-5.625e-11
-1.92865e-10
-5.93548e-11
-1.83169e-10
-6.23124e-11
-1.7305e-10
-6.51167e-11
-1.62533e-10
-6.77622e-11
-1.51642e-10
-7.02438e-11
-1.40403e-10
-7.25566e-11
-1.28843e-10
-7.46961e-11
-1.16987e-10
-7.66584e-11
-1.04864e-10
-7.84395e-11
-9.25017e-11
-8.00358e-11
-7.99274e-11
-8.1442e-11
-6.71723e-11
-8.26449e-11
-5.42748e-11
-8.35942e-11
-4.1304e-11
-8.40912e-11
-2.84357e-11
-8.34156e-11
-1.61706e-11
-7.93337e-11
-5.7963e-12
-6.64202e-11
2.1857e-13
-3.67845e-11
4.3142e-12
-5.03925e-13
7.14666e-12
5.46417e-12
-3.92456e-11
1.60151e-11
-7.32104e-11
2.85611e-11
-8.80419e-11
4.17465e-11
-9.2731e-11
5.50406e-11
-9.34959e-11
6.82554e-11
-9.29043e-11
8.13168e-11
-9.17876e-11
9.41839e-11
-9.0377e-11
1.06824e-10
-8.87315e-11
1.19208e-10
-8.6867e-11
1.31307e-10
-8.47897e-11
1.43091e-10
-8.25042e-11
1.54534e-10
-8.00151e-11
1.65607e-10
-7.73272e-11
1.76284e-10
-7.44459e-11
1.86539e-10
-7.13768e-11
1.96345e-10
-6.81259e-11
2.05679e-10
-6.46996e-11
2.14516e-10
-6.11048e-11
2.22833e-10
-5.73489e-11
2.30607e-10
-5.34394e-11
2.37818e-10
-4.93844e-11
2.44444e-10
-4.51926e-11
2.50467e-10
-4.08727e-11
2.55869e-10
-3.64341e-11
2.60632e-10
-3.18866e-11
2.64742e-10
-2.72403e-11
2.68183e-10
-2.25055e-11
2.70944e-10
-1.76933e-11
2.73012e-10
-1.28146e-11
2.74378e-10
-7.88029e-12
2.75033e-10
-2.89884e-12
2.74965e-10
2.12044e-12
2.74183e-10
7.1186e-12
2.7268e-10
1.2135e-11
2.70453e-10
1.71455e-11
2.67505e-10
2.21371e-11
2.63837e-10
2.70946e-11
2.59455e-10
3.20042e-11
2.54363e-10
3.68515e-11
2.48573e-10
4.16221e-11
2.42095e-10
4.63022e-11
2.34943e-10
5.08781e-11
2.27131e-10
5.53362e-11
2.18679e-10
5.96634e-11
2.09604e-10
6.38466e-11
1.9993e-10
6.78733e-11
1.8968e-10
7.17312e-11
1.78879e-10
7.54083e-11
1.67555e-10
7.88933e-11
1.55738e-10
8.21754e-11
1.43458e-10
8.52444e-11
1.30748e-10
8.80906e-11
1.17641e-10
9.0705e-11
1.04175e-10
9.30794e-11
9.03841e-11
9.52064e-11
7.63076e-11
9.70791e-11
6.19842e-11
9.86916e-11
4.74534e-11
1.00039e-10
3.27558e-11
1.01116e-10
1.79325e-11
1.01919e-10
3.02555e-12
1.02442e-10
-1.19168e-11
1.02676e-10
-2.68525e-11
1.02609e-10
-4.17347e-11
1.02243e-10
-5.65182e-11
1.01583e-10
-7.11594e-11
1.00636e-10
-8.56157e-11
9.94082e-11
-9.98458e-11
9.79043e-11
-1.13809e-10
9.61302e-11
-1.27467e-10
9.4092e-11
-1.4078e-10
9.17969e-11
-1.53712e-10
8.92525e-11
-1.66227e-10
8.64676e-11
-1.78292e-10
8.34513e-11
-1.89873e-10
8.02137e-11
-2.00942e-10
7.67653e-11
-2.11468e-10
7.31173e-11
-2.21425e-10
6.92813e-11
-2.30788e-10
6.52696e-11
-2.39534e-10
6.10946e-11
-2.47643e-10
5.67692e-11
-2.55095e-10
5.23067e-11
-2.61874e-10
4.77205e-11
-2.67966e-10
4.30242e-11
-2.73357e-10
3.82316e-11
-2.78038e-10
3.33566e-11
-2.82001e-10
2.84132e-11
-2.85239e-10
2.34159e-11
-2.8775e-10
1.83785e-11
-2.89531e-10
1.33143e-11
-2.90581e-10
8.23686e-12
-2.90903e-10
3.15994e-12
-2.90496e-10
-1.91234e-12
-2.89365e-10
-6.98388e-12
-2.87518e-10
-1.20136e-11
-2.84964e-10
-1.69962e-11
-2.81713e-10
-2.19204e-11
-2.77779e-10
-2.67748e-11
-2.73173e-10
-3.1548e-11
-2.67911e-10
-3.6229e-11
-2.6201e-10
-4.08074e-11
-2.55487e-10
-4.52728e-11
-2.4836e-10
-4.96157e-11
-2.4065e-10
-5.38268e-11
-2.32377e-10
-5.78971e-11
-2.23562e-10
-6.18182e-11
-2.1423e-10
-6.55823e-11
-2.04403e-10
-6.91817e-11
-1.94106e-10
-7.26094e-11
-1.83364e-10
-7.58587e-11
-1.72203e-10
-7.89233e-11
-1.60649e-10
-8.17976e-11
-1.4873e-10
-8.44759e-11
-1.36473e-10
-8.69535e-11
-1.23905e-10
-8.92256e-11
-1.11057e-10
-9.12881e-11
-9.7956e-11
-9.31365e-11
-8.4633e-11
-9.47651e-11
-7.11199e-11
-9.6158e-11
-5.74577e-11
-9.72564e-11
-4.37204e-11
-9.78284e-11
-3.00963e-11
-9.70398e-11
-1.71169e-11
-9.2313e-11
-6.14129e-12
-7.73959e-11
2.29516e-13
-4.31552e-11
4.54372e-12
-5.01053e-13
7.64772e-12
5.89542e-12
-4.5642e-11
1.71583e-11
-8.44733e-11
3.05457e-11
-1.01429e-10
4.462e-11
-1.06805e-10
5.88149e-11
-1.07691e-10
7.2928e-11
-1.07017e-10
8.68795e-11
-1.05739e-10
1.00626e-10
-1.04123e-10
1.14132e-10
-1.02238e-10
1.27367e-10
-1.00102e-10
1.40301e-10
-9.77233e-11
1.52903e-10
-9.51061e-11
1.65144e-10
-9.22558e-11
1.76994e-10
-8.91777e-11
1.88426e-10
-8.58777e-11
1.99411e-10
-8.2362e-11
2.09923e-10
-7.86374e-11
2.19934e-10
-7.47109e-11
2.29419e-10
-7.05903e-11
2.38354e-10
-6.62835e-11
2.46714e-10
-6.17993e-11
2.54476e-10
-5.71465e-11
2.61618e-10
-5.23349e-11
2.6812e-10
-4.73743e-11