/*--------------------------------*- C++ -*----------------------------------*\
| =========                 |                                                 |
| \\      /  F ield         | OpenFOAM: The Open Source CFD Toolbox           |
|  \\    /   O peration     | Version:  2212                                  |
|   \\  /    A nd           | Website:  www.openfoam.com                      |
|    \\/     M anipulation  |                                                 |
\*---------------------------------------------------------------------------*/
FoamFile
{
    version     2.0;
    format      ascii;
    arch        "LSB;label=64;scalar=64";
    class       volScalarField::Internal;
    location    "440";
    object      dGch4;
}
// * * * * * * * * * * * * * * * * * * * * * * * * * * * * * * * * * * * * * //

dimensions      [1 -3 -1 0 0 0 0];

value           nonuniform List<scalar> 
1024
(
0.000954879
0.000955246
0.000956128
0.00095766
0.000959903
0.000962794
0.00096614
0.000969674
0.000973126
0.000976266
0.000978871
0.000980724
0.000981609
0.00098141
0.000980086
0.000977572
0.000973973
0.000969747
0.000965316
0.000960785
0.000956243
0.000951735
0.000947257
0.00094281
0.000938476
0.000934425
0.000930882
0.000928026
0.000925929
0.000924551
0.000923775
0.000923455
0.00095496
0.000955343
0.000956265
0.000957862
0.000960186
0.000963159
0.000966574
0.000970162
0.00097366
0.000976839
0.000979471
0.000981333
0.000982206
0.000981985
0.000980646
0.000978127
0.000974528
0.0009703
0.000965858
0.000961313
0.000956758
0.000952238
0.00094775
0.000943291
0.000938929
0.000934829
0.000931215
0.000928279
0.000926112
0.000924684
0.00092388
0.000923548
0.000955142
0.000955551
0.000956539
0.000958248
0.00096072
0.000963853
0.000967427
0.000971172
0.000974829
0.000978162
0.000980914
0.000982827
0.000983671
0.000983383
0.000981979
0.000979411
0.000975776
0.000971499
0.000966999
0.000962396
0.000957793
0.00095324
0.000948734
0.000944255
0.000939851
0.000935661
0.000931914
0.000928824
0.000926515
0.000924984
0.00092412
0.000923765
0.000955427
0.000955866
0.000956933
0.000958781
0.000961449
0.000964823
0.000968675
0.000972738
0.00097675
0.000980439
0.000983478
0.000985531
0.00098634
0.000985916
0.000984357
0.00098165
0.000977885
0.000973454
0.000968787
0.000964031
0.000959309
0.000954678
0.00095013
0.000945625
0.000941172
0.000936875
0.000932953
0.000929651
0.000927142
0.00092546
0.000924509
0.00092412
0.000955804
0.000956269
0.000957413
0.00095941
0.000962311
0.000966011
0.000970292
0.000974896
0.000979538
0.000983871
0.000987438
0.000989775
0.00099057
0.000989934
0.000988103
0.000985121
0.000981069
0.000976301
0.000971277
0.000966199
0.000961228
0.000956431
0.00095179
0.000947238
0.000942734
0.00093833
0.000934224
0.000930687
0.000927947
0.000926088
0.000925033
0.000924605
0.000956256
0.00095674
0.00095795
0.000960092
0.000963253
0.000967369
0.000972256
0.000977667
0.000983275
0.000988605
0.000993004
0.000995821
0.00099667
0.000995776
0.000993554
0.000990136
0.000985584
0.000980203
0.00097453
0.000968869
0.000963445
0.00095834
0.000953518
0.000948873
0.000944308
0.00093981
0.000935542
0.00093179
0.00092883
0.0009268
0.000925644
0.000925178
0.000956771
0.000957269
0.00095853
0.000960806
0.00096425
0.000968869
0.000974545
0.000981051
0.00098799
0.000994705
0.00100027
0.00100381
0.00100484
0.0010037
0.00100101
0.000997006
0.000991696
0.000985325
0.000978594
0.000971982
0.000965825
0.000960215
0.000955087
0.000950281
0.000945635
0.000941061
0.00093668
0.000932773
0.000929654
0.000927496
0.000926264
0.000925769
0.000957352
0.000957858
0.000959161
0.000961565
0.000965311
0.000970516
0.000977158
0.000985039
0.000993674
0.00100217
0.00100925
0.00101376
0.00101514
0.00101385
0.00101069
0.00100599
0.000999629
0.000991774
0.000983436
0.000975399
0.000968158
0.000961815
0.000956243
0.000951204
0.000946458
0.00094184
0.000937417
0.000933455
0.000930273
0.000928064
0.000926801
0.000926293
0.000958023
0.000958536
0.000959877
0.000962412
0.000966487
0.000972359
0.000980133
0.000989661
0.00100035
0.001011
0.00101992
0.00102565
0.00102759
0.00102629
0.00102274
0.00101729
0.0010095
0.000999502
0.000988838
0.000978797
0.000970091
0.000962797
0.000956676
0.000951371
0.000946542
0.00094194
0.000937578
0.000933687
0.000930568
0.000928401
0.000927158
0.000926652
0.000958837
0.000959359
0.000960747
0.000963431
0.000967878
0.000974512
0.0009836
0.000995061
0.00100817
0.00102133
0.00103239
0.00103955
0.00104222
0.00104111
0.00103732
0.00103102
0.00102127
0.00100821
0.000994277
0.000981547
0.000971021
0.000962648
0.000955978
0.000950471
0.000945657
0.000941194
0.000937035
0.000933366
0.000930443
0.000928412
0.000927235
0.000926743
0.000959895
0.000960432
0.000961885
0.000964759
0.000969655
0.00097719
0.000987829
0.00100157
0.00101749
0.00103353
0.00104696
0.00105569
0.00105923
0.0010585
0.00105459
0.00104723
0.00103475
0.00101739
0.000998941
0.000982684
0.000970031
0.000960623
0.000953597
0.000948125
0.000943552
0.000939439
0.000935676
0.000932396
0.000929799
0.000927986
0.000926912
0.000926442
0.000961369
0.000961931
0.000963485
0.000966622
0.000972102
0.000980763
0.00099329
0.00100974
0.00102891
0.00104813
0.00106407
0.00107442
0.00107891
0.00107871
0.0010747
0.00106593
0.00104985
0.00102686
0.0010023
0.000981299
0.000966094
0.000955842
0.000948881
0.000943895
0.000939964
0.000936537
0.000933439
0.000930743
0.000928587
0.000927036
0.000926065
0.000925608
0.000963548
0.000964152
0.00096586
0.000969386
0.000975673
0.000985806
0.00100069
0.00102038
0.00104321
0.00106576
0.00108413
0.00109597
0.00110137
0.00110172
0.0010976
0.00108734
0.00106758
0.0010383
0.00100595
0.000978148
0.00095907
0.000947803
0.00094136
0.000937387
0.000934472
0.000931965
0.000929708
0.000927759
0.00092618
0.000924987
0.000924177
0.000923763
0.00096694
0.000967619
0.000969578
0.000973683
0.000981088
0.000993139
0.00101092
0.00103434
0.00106106
0.00108678
0.00110712
0.00111996
0.00112597
0.00112679
0.00112284
0.00111226
0.00109114
0.00105747
0.00101695
0.000979665
0.000953245
0.000938666
0.000932301
0.00092999
0.000929016
0.000928091
0.000926855
0.000925394
0.000923914
0.000922624
0.000921692
0.000921214
0.000971872
0.000972641
0.000974932
0.000979826
0.000988749
0.00100329
0.00102459
0.00105209
0.00108255
0.00111069
0.00113187
0.00114464
0.00115047
0.00115146
0.00114864
0.0011412
0.00112539
0.00109519
0.00105156
0.00100455
0.000965271
0.000938887
0.000924723
0.000918231
0.000915728
0.00091483
0.000914435
0.000914296
0.000914491
0.00091503
0.000915692
0.000916139
0.000980179
0.000981132
0.000984007
0.000990155
0.00100124
0.00101889
0.0010438
0.00107447
0.00110664
0.00113463
0.00115425
0.00116497
0.00116893
0.00116889
0.00116742
0.00116687
0.00116659
0.00115752
0.00113116
0.00109092
0.00104688
0.0010077
0.000977504
0.000956233
0.00094299
0.00093632
0.000934983
0.000937636
0.000942728
0.000948453
0.000953107
0.000955578
0.000990217
0.000991298
0.000994516
0.0010013
0.00101325
0.0010317
0.00105675
0.00108655
0.00111715
0.00114354
0.00116168
0.00117028
0.00117072
0.00116601
0.00116056
0.00116089
0.00117408
0.00119644
0.00121309
0.00121552
0.00120468
0.00118609
0.00116509
0.00114543
0.00112917
0.00111719
0.00110993
0.00110706
0.00110757
0.00110991
0.00111243
0.00111395
0.000998558
0.000999663
0.00100287
0.00100952
0.00102107
0.00103859
0.00106198
0.00108949
0.00111766
0.00114213
0.00115902
0.00116625
0.00116397
0.00115406
0.00114022
0.00112923
0.00113218
0.00115507
0.00118969
0.001225
0.00125364
0.00127327
0.00128455
0.00128919
0.0012891
0.00128586
0.00128079
0.00127504
0.0012697
0.00126566
0.0012633
0.0012624
0.00100425
0.00100532
0.00100833
0.00101444
0.00102494
0.00104078
0.00106189
0.00108674
0.00111246
0.00113532
0.0011518
0.00115953
0.00115779
0.00114747
0.0011311
0.0011139
0.00110613
0.00111685
0.00114383
0.00118002
0.00121818
0.00125322
0.00128256
0.00130532
0.00132146
0.00133147
0.00133618
0.00133683
0.00133495
0.00133221
0.00132993
0.00132879
0.00100758
0.00100859
0.00101132
0.00101671
0.00102587
0.00103966
0.00105813
0.00108011
0.00110324
0.00112441
0.00114056
0.00114937
0.00114974
0.00114183
0.00112726
0.00110984
0.00109795
0.00110044
0.00111825
0.001148
0.00118474
0.0012235
0.00126026
0.00129223
0.00131787
0.00133665
0.00134889
0.00135558
0.00135813
0.00135818
0.00135729
0.00135658
0.00100894
0.00100989
0.00101233
0.00101699
0.00102475
0.00103635
0.00105197
0.00107079
0.00109098
0.00110999
0.00112528
0.00113479
0.00113737
0.00113286
0.00112236
0.00110873
0.00109838
0.00109845
0.00111076
0.00113416
0.0011661
0.00120322
0.00124192
0.00127873
0.00131083
0.00133632
0.00135453
0.00136592
0.00137178
0.00137385
0.00137392
0.00137351
0.00100875
0.00100964
0.00101182
0.00101581
0.00102228
0.00103182
0.00104463
0.00106017
0.00107707
0.00109336
0.00110706
0.0011166
0.00112106
0.00112029
0.00111514
0.00110783
0.00110283
0.00110487
0.00111555
0.00113492
0.00116208
0.00119529
0.00123211
0.00126961
0.00130471
0.00133462
0.00135758
0.00137312
0.00138206
0.00138601
0.00138696
0.00138679
0.00100779
0.00100853
0.00101036
0.00101369
0.00101902
0.00102676
0.00103704
0.00104946
0.00106304
0.00107639
0.00108818
0.00109751
0.00110388
0.00110733
0.00110852
0.001109
0.00111127
0.00111759
0.00112908
0.00114646
0.00116987
0.00119875
0.00123182
0.00126711
0.00130208
0.00133384
0.00135985
0.00137869
0.00139038
0.00139616
0.00139801
0.00139808
0.00100793
0.00100827
0.00100934
0.00101167
0.00101572
0.00102177
0.00102984
0.00103956
0.00105028
0.00106119
0.0010717
0.00108155
0.00109068
0.00109915
0.00110731
0.00111593
0.00112564
0.00113669
0.00114986
0.00116631
0.00118679
0.00121156
0.00124022
0.00127168
0.00130421
0.00133537
0.00136252
0.0013835
0.0013974
0.00140487
0.00140763
0.00140796
0.00101257
0.00101207
0.00101161
0.00101202
0.00101408
0.00101815
0.00102417
0.00103182
0.00104075
0.00105072
0.00106172
0.00107383
0.00108706
0.00110123
0.0011162
0.00113201
0.00114785
0.00116268
0.00117719
0.00119286
0.0012108
0.0012317
0.00125577
0.00128265
0.00131133
0.00134004
0.00136645
0.00138818
0.00140357
0.00141245
0.00141609
0.00141671
0.00102595
0.00102417
0.00102131
0.0010187
0.00101774
0.00101927
0.00102343
0.00103004
0.00103899
0.00105028
0.00106403
0.00108014
0.00109824
0.00111776
0.00113813
0.00115894
0.00117855
0.00119538
0.00121023
0.00122473
0.00124016
0.00125739
0.00127696
0.00129896
0.00132303
0.00134805
0.00137223
0.0013933
0.00140924
0.00141911
0.00142354
0.00142447
0.00105158
0.00104835
0.0010429
0.00103703
0.00103284
0.00103197
0.00103503
0.00104204
0.00105284
0.00106724
0.0010849
0.00110518
0.00112724
0.00115019
0.00117335
0.00119615
0.00121678
0.00123363
0.00124761
0.00126039
0.00127322
0.00128698
0.0013023
0.00131952
0.00133869
0.00135928
0.00138011
0.00139929
0.00141475
0.00142504
0.00143009
0.00143133
0.00109121
0.00108689
0.00108011
0.00107278
0.00106711
0.00106535
0.00106861
0.00107699
0.00109013
0.00110732
0.00112765
0.00115002
0.00117333
0.00119667
0.00121944
0.0012412
0.00126032
0.00127546
0.00128756
0.00129815
0.00130832
0.00131885
0.00133033
0.00134315
0.00135756
0.00137344
0.00139019
0.00140648
0.00142047
0.00143047
0.00143583
0.00143735
0.00114505
0.00114079
0.00113551
0.00113025
0.00112623
0.00112565
0.00112984
0.00113907
0.00115286
0.00117025
0.00119006
0.00121107
0.00123222
0.00125279
0.00127236
0.00129065
0.00130643
0.00131868
0.00132824
0.00133636
0.0013439
0.0013515
0.00135962
0.0013686
0.00137872
0.00139006
0.00140245
0.00141513
0.00142673
0.00143566
0.00144088
0.00144259
0.0012132
0.00121089
0.0012102
0.00120973
0.00120927
0.00121056
0.00121505
0.00122325
0.0012349
0.00124918
0.00126506
0.00128152
0.00129774
0.00131323
0.00132773
0.0013411
0.00135249
0.00136123
0.00136795
0.00137355
0.00137863
0.00138365
0.0013889
0.00139466
0.00140113
0.00140844
0.00141661
0.00142535
0.00143384
0.00144089
0.00144541
0.0014471
0.00129729
0.00129866
0.00130244
0.00130534
0.00130716
0.00130915
0.00131251
0.00131788
0.00132525
0.00133418
0.001344
0.00135407
0.0013639
0.0013732
0.00138182
0.00138972
0.00139641
0.0014015
0.00140539
0.00140859
0.00141145
0.00141423
0.0014171
0.00142022
0.0014237
0.00142764
0.0014321
0.001437
0.00144201
0.00144647
0.00144962
0.00145096
0.00140028
0.00140172
0.00140416
0.00140594
0.00140706
0.00140799
0.0014092
0.00141101
0.00141345
0.00141641
0.00141965
0.00142297
0.0014262
0.00142923
0.00143204
0.00143461
0.00143677
0.00143841
0.00143966
0.00144069
0.00144159
0.00144247
0.00144337
0.00144434
0.00144541
0.00144662
0.001448
0.00144952
0.00145112
0.00145261
0.00145375
0.0014543
)
;


// ************************************************************************* //
