/*--------------------------------*- C++ -*----------------------------------*\
| =========                 |                                                 |
| \\      /  F ield         | OpenFOAM: The Open Source CFD Toolbox           |
|  \\    /   O peration     | Version:  2212                                  |
|   \\  /    A nd           | Website:  www.openfoam.com                      |
|    \\/     M anipulation  |                                                 |
\*---------------------------------------------------------------------------*/
FoamFile
{
    version     2.0;
    format      ascii;
    arch        "LSB;label=64;scalar=64";
    class       volScalarField;
    location    "440";
    object      Sch4;
}
// * * * * * * * * * * * * * * * * * * * * * * * * * * * * * * * * * * * * * //

dimensions      [1 -3 0 0 0 0 0];

internalField   nonuniform List<scalar> 
1024
(
0.0364015
0.0364155
0.0364493
0.0365079
0.0365936
0.0367041
0.036832
0.0369671
0.0370991
0.0372192
0.0373188
0.0373896
0.0374234
0.0374159
0.0373658
0.0372705
0.0371339
0.0369733
0.0368044
0.0366315
0.0364578
0.0362853
0.0361138
0.0359434
0.0357774
0.0356224
0.0354868
0.0353776
0.0352975
0.0352449
0.0352152
0.035203
0.0364046
0.0364193
0.0364545
0.0365156
0.0366044
0.0367181
0.0368486
0.0369858
0.0371196
0.0372411
0.0373418
0.037413
0.0374463
0.037438
0.0373873
0.0372918
0.0371553
0.0369945
0.0368252
0.0366517
0.0364776
0.0363046
0.0361327
0.0359618
0.0357948
0.0356378
0.0354996
0.0353873
0.0353045
0.0352499
0.0352192
0.0352066
0.0364116
0.0364272
0.036465
0.0365303
0.0366248
0.0367446
0.0368813
0.0370245
0.0371644
0.0372919
0.0373972
0.0374703
0.0375026
0.0374917
0.0374384
0.0373411
0.0372032
0.0370405
0.036869
0.0366933
0.0365173
0.0363431
0.0361705
0.0359988
0.0358301
0.0356697
0.0355263
0.0354081
0.0353199
0.0352614
0.0352284
0.0352149
0.0364225
0.0364392
0.0364801
0.0365507
0.0366527
0.0367818
0.0369291
0.0370846
0.0372382
0.0373794
0.0374957
0.0375742
0.037605
0.0375889
0.0375298
0.0374271
0.0372842
0.0371157
0.0369377
0.0367561
0.0365755
0.0363983
0.0362241
0.0360514
0.0358808
0.0357162
0.0355661
0.0354398
0.0353439
0.0352797
0.0352433
0.0352285
0.0364369
0.0364547
0.0364984
0.0365748
0.0366857
0.0368273
0.0369911
0.0371674
0.0373452
0.0375112
0.0376478
0.0377371
0.0377674
0.0377432
0.0376737
0.0375605
0.0374066
0.0372251
0.0370335
0.0368395
0.0366494
0.0364657
0.036288
0.0361135
0.0359409
0.0357721
0.0356149
0.0354796
0.0353748
0.0353037
0.0352635
0.0352471
0.0364542
0.0364727
0.036519
0.0366009
0.0367218
0.0368793
0.0370665
0.0372738
0.0374887
0.037693
0.0378616
0.0379693
0.0380015
0.0379675
0.0378831
0.0377533
0.0375802
0.0373751
0.0371586
0.0369422
0.0367347
0.0365393
0.0363546
0.0361765
0.0360015
0.0358291
0.0356656
0.0355219
0.0354088
0.0353311
0.0352869
0.0352691
0.0364739
0.0364929
0.0365412
0.0366283
0.03676
0.0369369
0.0371543
0.0374037
0.0376698
0.0379272
0.0381407
0.0382759
0.038315
0.0382716
0.0381694
0.0380173
0.0378151
0.037572
0.0373148
0.037062
0.0368265
0.0366117
0.0364153
0.036231
0.0360528
0.0358774
0.0357095
0.0355599
0.0354405
0.0353579
0.0353109
0.0352919
0.0364962
0.0365155
0.0365653
0.0366574
0.0368008
0.0370001
0.0372546
0.0375568
0.0378879
0.0382135
0.038485
0.0386576
0.0387104
0.038661
0.0385409
0.0383624
0.0381197
0.0378196
0.0375008
0.0371935
0.0369165
0.0366737
0.0364603
0.0362671
0.036085
0.0359078
0.0357382
0.0355864
0.0354645
0.03538
0.0353316
0.0353122
0.0365219
0.0365415
0.0365928
0.0366899
0.0368459
0.0370709
0.0373689
0.0377342
0.0381439
0.0385521
0.038894
0.0391134
0.0391874
0.0391379
0.039003
0.0387954
0.0384979
0.0381154
0.0377077
0.0373239
0.0369911
0.0367121
0.0364777
0.0362743
0.036089
0.0359124
0.035745
0.0355957
0.0354762
0.0353932
0.0353456
0.0353262
0.0365532
0.0365732
0.0366263
0.0367291
0.0368994
0.0371535
0.0375019
0.0379412
0.0384435
0.0389482
0.0393715
0.0396455
0.0397476
0.0397052
0.0395606
0.0393201
0.0389472
0.0384473
0.0379147
0.0374286
0.0370268
0.0367069
0.0364518
0.0362408
0.036056
0.0358846
0.0357249
0.035584
0.0354718
0.035394
0.0353489
0.0353301
0.0365939
0.0366144
0.03667
0.0367801
0.0369676
0.0372563
0.037664
0.0381905
0.0388005
0.0394148
0.0399286
0.0402625
0.0403976
0.0403692
0.0402193
0.0399372
0.0394588
0.0387946
0.0380897
0.03747
0.0369882
0.0366296
0.0363613
0.0361518
0.0359763
0.0358182
0.0356735
0.0355475
0.0354477
0.0353781
0.035337
0.035319
0.0366506
0.0366721
0.0367316
0.0368517
0.0370616
0.0373933
0.0378732
0.0385034
0.0392375
0.0399728
0.0405818
0.0409769
0.0411474
0.0411379
0.0409832
0.0406456
0.0400289
0.0391489
0.0382114
0.0374124
0.0368353
0.036446
0.0361811
0.0359906
0.0358398
0.035708
0.0355887
0.035485
0.035402
0.0353424
0.0353052
0.0352877
0.0367345
0.0367576
0.036823
0.036958
0.0371987
0.0375867
0.0381567
0.0389102
0.0397834
0.0406451
0.0413457
0.041796
0.0419995
0.0420097
0.0418492
0.0414535
0.0406955
0.0395741
0.0383389
0.0372826
0.0365614
0.0361364
0.0358928
0.0357416
0.0356299
0.0355333
0.0354463
0.0353711
0.0353103
0.0352645
0.0352335
0.0352177
0.0368651
0.0368911
0.0369661
0.0371231
0.0374066
0.0378678
0.0385482
0.0394436
0.0404641
0.0414447
0.0422185
0.0427049
0.0429294
0.0429554
0.0428003
0.0423925
0.0415813
0.0402897
0.0387407
0.0373238
0.0363273
0.0357814
0.0355444
0.0354582
0.0354212
0.0353854
0.0353378
0.0352817
0.035225
0.0351756
0.0351399
0.0351215
0.037055
0.0370844
0.0371721
0.0373593
0.0377007
0.038257
0.0390707
0.0401207
0.0412818
0.0423518
0.0431545
0.0436349
0.0438502
0.0438823
0.0437705
0.0434843
0.0428755
0.0417115
0.0400366
0.0382441
0.0367582
0.035769
0.0352433
0.0350053
0.0349148
0.0348823
0.0348667
0.0348597
0.0348649
0.0348831
0.0349065
0.0349226
0.0373743
0.0374107
0.0375206
0.0377555
0.0381791
0.038853
0.0398028
0.0409709
0.0421944
0.0432552
0.0439954
0.0443954
0.0445389
0.0445323
0.0444758
0.0444576
0.0444459
0.0440856
0.0430572
0.041504
0.0398189
0.0383297
0.0371876
0.0363876
0.0358918
0.0356444
0.0355981
0.0357016
0.0358966
0.0361148
0.0362918
0.0363857
0.037759
0.0378002
0.0379231
0.0381818
0.0386379
0.0393408
0.0402949
0.0414281
0.0425894
0.0435877
0.0442701
0.0445879
0.0445969
0.0444147
0.0442116
0.044237
0.0447551
0.0456109
0.0462291
0.0462934
0.0458522
0.0451226
0.0443095
0.0435554
0.0429351
0.0424819
0.0422109
0.0421084
0.0421342
0.0422291
0.0423291
0.0423884
0.038078
0.0381202
0.0382426
0.038496
0.0389362
0.039603
0.0404931
0.0415381
0.0426066
0.0435317
0.044166
0.0444323
0.0443378
0.043957
0.0434344
0.0430305
0.043167
0.0440634
0.0453952
0.0467372
0.0478137
0.048542
0.0489531
0.0491147
0.0491012
0.0489715
0.0487753
0.0485558
0.0483527
0.0482003
0.0481119
0.0480785
0.0382953
0.0383362
0.0384508
0.0386837
0.0390838
0.0396866
0.0404892
0.0414331
0.0424081
0.0432728
0.0438928
0.0441787
0.0441054
0.0437086
0.0430877
0.0424433
0.042168
0.0426008
0.043649
0.0450388
0.0464929
0.0478211
0.048929
0.049785
0.0503902
0.0507631
0.050936
0.0509555
0.0508804
0.0507738
0.0506862
0.0506423
0.0384223
0.0384611
0.038565
0.0387705
0.0391193
0.039644
0.0403462
0.0411809
0.0420581
0.0428591
0.0434677
0.0437965
0.0438041
0.0434991
0.0429455
0.0422897
0.0418517
0.041966
0.0426627
0.0438094
0.0452152
0.0466908
0.0480849
0.0492943
0.0502622
0.0509701
0.0514307
0.0516813
0.0517756
0.0517757
0.0517408
0.0517137
0.0384741
0.0385106
0.0386036
0.0387811
0.0390765
0.0395181
0.0401121
0.0408271
0.0415929
0.0423128
0.0428897
0.0432465
0.0433397
0.043165
0.0427656
0.042252
0.041869
0.0418858
0.0423684
0.0432714
0.0444953
0.0459113
0.0473825
0.0487792
0.0499946
0.0509588
0.0516468
0.0520767
0.0522974
0.0523747
0.0523769
0.052361
0.0384668
0.0385008
0.0385837
0.038736
0.0389824
0.0393456
0.039833
0.0404235
0.0410646
0.0416818
0.0421998
0.0425591
0.0427254
0.0426942
0.0424988
0.0422248
0.0420427
0.0421302
0.0425461
0.0432921
0.0443327
0.0456005
0.0470024
0.0484275
0.0497591
0.050893
0.0517623
0.0523507
0.0526886
0.0528378
0.0528735
0.0528667
0.0384301
0.0384584
0.038528
0.0386552
0.0388582
0.0391527
0.0395438
0.0400161
0.0405317
0.0410378
0.0414846
0.0418371
0.042078
0.0422086
0.0422551
0.0422772
0.0423695
0.0426166
0.04306
0.0437269
0.0446222
0.0457245
0.0469844
0.0483268
0.0496555
0.0508609
0.0518476
0.0525619
0.0530048
0.0532237
0.0532938
0.0532962
0.038435
0.038448
0.0384891
0.038578
0.0387323
0.0389628
0.0392697
0.0396394
0.0400467
0.0404609
0.0408601
0.0412342
0.0415812
0.0419043
0.0422166
0.0425481
0.0429217
0.0433463
0.0438509
0.0444798
0.0452621
0.0462069
0.0472985
0.0484958
0.0497325
0.0509166
0.0519476
0.0527438
0.0532716
0.0535547
0.0536594
0.0536719
0.0386111
0.0385924
0.0385751
0.0385911
0.0386697
0.0388247
0.0390538
0.039345
0.039685
0.0400644
0.0404831
0.0409448
0.041449
0.0419895
0.0425611
0.0431657
0.0437711
0.0443376
0.0448914
0.045489
0.0461729
0.0469695
0.0478864
0.0489094
0.0500004
0.0510919
0.0520956
0.052921
0.0535057
0.0538427
0.053981
0.0540044
0.0391199
0.0390524
0.0389438
0.0388447
0.0388087
0.0388674
0.0390263
0.0392784
0.0396194
0.0400502
0.0405745
0.0411889
0.0418792
0.0426233
0.0434004
0.0441939
0.0449418
0.0455834
0.0461488
0.0467012
0.0472886
0.047945
0.0486899
0.0495275
0.0504431
0.051395
0.0523141
0.0531149
0.0537206
0.0540959
0.0542643
0.0542995
0.0400955
0.0399723
0.0397651
0.0395423
0.0393837
0.0393512
0.0394688
0.0397364
0.0401489
0.0406983
0.0413718
0.0421451
0.0429859
0.0438608
0.0447432
0.0456119
0.0463976
0.0470391
0.0475711
0.0480575
0.0485456
0.0490694
0.0496525
0.0503082
0.0510373
0.0518207
0.0526129
0.0533422
0.05393
0.0543214
0.0545132
0.0545605
0.0416041
0.0414397
0.0411817
0.0409031
0.0406883
0.0406228
0.0407483
0.0410688
0.0415702
0.042226
0.0430014
0.0438539
0.0447419
0.0456311
0.0464984
0.0473268
0.0480547
0.048631
0.0490913
0.049494
0.0498805
0.0502812
0.050718
0.0512062
0.0517544
0.0523587
0.052996
0.0536156
0.0541474
0.0545278
0.0547315
0.0547896
0.0436542
0.0434922
0.0432913
0.0430917
0.0429398
0.0429191
0.0430803
0.043433
0.0439593
0.0446226
0.0453778
0.0461781
0.0469839
0.0477672
0.0485123
0.0492087
0.049809
0.0502751
0.0506386
0.0509473
0.0512342
0.0515233
0.0518321
0.0521741
0.052559
0.0529908
0.0534621
0.0539443
0.0543855
0.0547251
0.0549237
0.0549888
0.0462501
0.0461621
0.0461359
0.0461183
0.0461019
0.0461525
0.0463245
0.046638
0.0470828
0.0476274
0.0482326
0.0488593
0.0494772
0.0500669
0.0506189
0.0511278
0.0515612
0.0518938
0.0521493
0.0523621
0.0525555
0.0527461
0.0529461
0.0531653
0.0534113
0.0536896
0.0540007
0.0543329
0.054656
0.0549243
0.0550961
0.0551603
0.0494535
0.0495054
0.0496494
0.0497601
0.0498299
0.0499065
0.0500355
0.0502406
0.0505222
0.0508624
0.0512366
0.0516202
0.0519946
0.0523486
0.052677
0.0529776
0.053232
0.0534259
0.0535736
0.0536952
0.0538041
0.0539097
0.0540191
0.0541378
0.0542702
0.0544202
0.0545898
0.0547763
0.0549667
0.0551366
0.0552562
0.0553073
0.0533764
0.0534313
0.0535245
0.0535922
0.053635
0.0536706
0.0537172
0.0537862
0.0538795
0.0539922
0.0541159
0.0542422
0.0543651
0.0544807
0.0545876
0.0546852
0.0547675
0.0548301
0.0548776
0.0549164
0.054951
0.0549843
0.0550184
0.0550553
0.0550961
0.0551423
0.0551945
0.0552526
0.0553133
0.0553701
0.0554135
0.0554344
)
;

boundaryField
{
    movingWall
    {
        type            fixedValue;
        value           uniform 0.0555;
    }
    fixedWalls
    {
        type            zeroGradient;
    }
    floor
    {
        type            zeroGradient;
    }
    frontAndBack
    {
        type            empty;
    }
}


// ************************************************************************* //
