/*--------------------------------*- C++ -*----------------------------------*\
| =========                 |                                                 |
| \\      /  F ield         | OpenFOAM: The Open Source CFD Toolbox           |
|  \\    /   O peration     | Version:  2212                                  |
|   \\  /    A nd           | Website:  www.openfoam.com                      |
|    \\/     M anipulation  |                                                 |
\*---------------------------------------------------------------------------*/
FoamFile
{
    version     2.0;
    format      ascii;
    arch        "LSB;label=64;scalar=64";
    class       volScalarField::Internal;
    location    "1690";
    object      dGco2;
}
// * * * * * * * * * * * * * * * * * * * * * * * * * * * * * * * * * * * * * //

dimensions      [1 -3 -1 0 0 0 0];

value           nonuniform List<scalar> 
1024
(
0.000148689
0.000148761
0.000148937
0.000149259
0.000149779
0.000150552
0.000151634
0.000153062
0.000154848
0.000156958
0.000159315
0.000161804
0.000164293
0.000166649
0.00016874
0.000170416
0.000171375
0.000171425
0.000170727
0.000169479
0.000167837
0.000165946
0.000163967
0.000162063
0.000160372
0.000158977
0.000157903
0.000157126
0.000156603
0.000156277
0.000156099
0.000156027
0.000148711
0.000148783
0.000148961
0.000149287
0.000149813
0.000150595
0.000151688
0.00015313
0.000154929
0.000157051
0.000159416
0.000161909
0.0001644
0.000166755
0.000168846
0.000170523
0.000171485
0.000171537
0.000170839
0.000169588
0.000167942
0.000166047
0.000164061
0.000162145
0.00016044
0.00015903
0.000157943
0.000157156
0.000156626
0.000156297
0.000156117
0.000156044
0.000148763
0.000148837
0.000149019
0.000149352
0.000149891
0.000150693
0.000151811
0.000153283
0.000155112
0.00015726
0.000159645
0.00016215
0.000164646
0.000167003
0.000169097
0.000170782
0.000171755
0.000171812
0.000171105
0.000169836
0.00016817
0.000166257
0.000164251
0.000162312
0.000160579
0.000159141
0.000158028
0.000157223
0.00015668
0.000156343
0.00015616
0.000156086
0.000148856
0.000148933
0.000149121
0.000149467
0.000150026
0.000150858
0.000152017
0.000153536
0.000155415
0.00015761
0.000160031
0.000162561
0.00016507
0.000167438
0.000169544
0.000171249
0.000172248
0.000172313
0.000171579
0.00017026
0.000168539
0.000166579
0.000164534
0.000162556
0.000160783
0.000159306
0.00015816
0.00015733
0.00015677
0.000156424
0.000156236
0.00015616
0.000149003
0.000149082
0.000149279
0.000149642
0.000150229
0.000151103
0.000152319
0.000153906
0.000155859
0.000158124
0.000160603
0.000163176
0.000165716
0.000168109
0.000170246
0.000171996
0.000173043
0.000173118
0.000172327
0.000170904
0.000169069
0.000167015
0.000164897
0.000162862
0.000161038
0.000159517
0.000158335
0.000157478
0.000156901
0.000156546
0.000156354
0.000156277
0.000149215
0.000149298
0.000149505
0.000149888
0.000150511
0.000151439
0.000152728
0.000154407
0.00015646
0.000158824
0.000161393
0.000164037
0.000166634
0.000169077
0.000171276
0.000173105
0.000174228
0.000174313
0.000173425
0.000171824
0.000169793
0.000167571
0.000165332
0.000163211
0.000161327
0.00015976
0.000158546
0.000157668
0.00015708
0.00015672
0.000156527
0.00015645
0.000149503
0.00014959
0.000149809
0.000150216
0.000150882
0.000151876
0.000153256
0.000155049
0.000157233
0.000159734
0.000162431
0.000165186
0.000167876
0.00017041
0.00017271
0.000174661
0.000175893
0.000175985
0.000174954
0.000173093
0.000170761
0.000168275
0.000165844
0.000163598
0.000161639
0.00016003
0.000158794
0.000157909
0.000157322
0.000156967
0.000156779
0.000156706
0.000149881
0.000149972
0.000150202
0.000150637
0.00015135
0.00015242
0.000153909
0.000155844
0.000158196
0.000160877
0.000163751
0.000166667
0.000169501
0.000172172
0.000174624
0.000176744
0.000178116
0.000178218
0.000177012
0.00017482
0.000172082
0.000169215
0.000166496
0.000164068
0.00016201
0.000160359
0.000159116
0.000158244
0.000157676
0.000157342
0.00015717
0.000157105
0.000150359
0.000150454
0.000150697
0.00015116
0.000151926
0.000153083
0.000154699
0.000156804
0.000159364
0.000162277
0.000165386
0.000168522
0.000171555
0.000174416
0.000177067
0.000179401
0.00018095
0.000181092
0.000179731
0.000177193
0.000173978
0.000170617
0.00016749
0.000164792
0.000162587
0.000160881
0.00015964
0.000158798
0.000158271
0.000157975
0.000157833
0.000157784
0.000150952
0.00015105
0.000151306
0.000151799
0.000152623
0.000153876
0.000155639
0.000157945
0.000160757
0.000163957
0.00016736
0.000170774
0.000174058
0.000177153
0.000180041
0.000182624
0.000184403
0.000184681
0.000183298
0.000180536
0.000176895
0.000172982
0.000169319
0.000166214
0.000163767
0.000161953
0.000160693
0.000159883
0.000159411
0.000159169
0.000159069
0.000159043
0.000151676
0.000151778
0.000152047
0.000152571
0.000153457
0.000154818
0.000156746
0.000159283
0.000162388
0.000165921
0.000169666
0.000173399
0.000176964
0.000180313
0.00018345
0.000186305
0.000188395
0.000189015
0.000187925
0.000185292
0.000181522
0.000177215
0.000172998
0.000169334
0.000166462
0.000164393
0.000163018
0.000162187
0.000161745
0.000161553
0.000161497
0.000161495
0.000152547
0.000152652
0.000152934
0.000153491
0.000154443
0.000155918
0.000158024
0.000160811
0.000164231
0.000168119
0.000172222
0.000176275
0.000180109
0.000183686
0.000187039
0.000190158
0.000192658
0.000193916
0.000193615
0.000191747
0.000188513
0.000184376
0.000179941
0.000175787
0.000172331
0.000169758
0.000168031
0.000167001
0.00016647
0.000166254
0.000166203
0.000166211
0.000153571
0.000153679
0.000153973
0.000154562
0.000155577
0.000157161
0.000159438
0.000162462
0.000166179
0.000170396
0.000174815
0.000179135
0.000183163
0.000186867
0.000190318
0.000193599
0.000196515
0.000198646
0.000199639
0.000199296
0.000197558
0.000194615
0.00019088
0.000186875
0.000183104
0.000179959
0.000177623
0.000176088
0.000175206
0.000174779
0.000174623
0.000174593
0.00015473
0.00015484
0.000155143
0.000155753
0.000156811
0.000158474
0.000160875
0.000164074
0.000168007
0.000172455
0.000177082
0.000181542
0.000185609
0.000189238
0.000192528
0.000195666
0.000198727
0.00020162
0.000204049
0.00020567
0.000206181
0.000205474
0.000203656
0.000201012
0.000197942
0.000194882
0.000192209
0.000190151
0.00018876
0.000187947
0.000187555
0.000187424
0.000155961
0.000156071
0.000156373
0.000156981
0.00015804
0.000159713
0.000162137
0.000165379
0.00016937
0.000173878
0.000178536
0.000182949
0.000186833
0.000190093
0.00019282
0.000195285
0.000197872
0.000200947
0.000204368
0.000207695
0.000210444
0.000212276
0.000213039
0.000212757
0.000211602
0.000209867
0.000207905
0.000206063
0.000204588
0.000203581
0.000203015
0.000202789
0.00015714
0.000157246
0.000157532
0.000158104
0.000159099
0.000160674
0.000162968
0.000166054
0.000169875
0.000174208
0.000178678
0.000182846
0.000186345
0.000188984
0.000190793
0.000192073
0.0001935
0.000195998
0.000199674
0.000204044
0.000208463
0.000212387
0.000215467
0.000217553
0.000218648
0.000218884
0.000218485
0.000217734
0.000216907
0.000216213
0.000215759
0.000215553
0.000158029
0.000158127
0.000158385
0.000158893
0.000159768
0.000161149
0.000163169
0.000165909
0.000169342
0.000173279
0.000177372
0.000181173
0.000184247
0.000186296
0.000187244
0.000187338
0.000187406
0.000188838
0.000192116
0.000196882
0.000202424
0.000207966
0.000212898
0.00021686
0.00021973
0.000221557
0.000222511
0.000222827
0.000222759
0.000222537
0.000222325
0.000222208
0.000158494
0.000158584
0.000158813
0.000159253
0.000159999
0.000161166
0.000162875
0.00016521
0.000168171
0.000171618
0.000175259
0.000178681
0.000181438
0.000183166
0.000183701
0.000183198
0.000182464
0.000183003
0.000185566
0.000190109
0.000196124
0.000202792
0.00020926
0.00021487
0.000219267
0.000222375
0.000224323
0.000225359
0.000225772
0.000225836
0.000225767
0.000225701
0.000158626
0.000158708
0.000158911
0.000159292
0.000159926
0.000160907
0.000162335
0.000164292
0.000166796
0.000169753
0.000172934
0.000175987
0.000178499
0.000180102
0.000180586
0.000180035
0.000179186
0.000179422
0.000181507
0.000185611
0.000191499
0.000198548
0.000205909
0.000212746
0.000218453
0.000222747
0.000225638
0.000227339
0.000228164
0.000228444
0.000228463
0.00022842
0.000158564
0.000158636
0.000158814
0.000159142
0.00015968
0.000160503
0.000161695
0.000163325
0.000165418
0.000167916
0.000170644
0.000173322
0.000175603
0.000177161
0.000177791
0.000177553
0.000177096
0.000177563
0.000179589
0.000183412
0.000188976
0.000195902
0.000203524
0.000211017
0.000217631
0.000222888
0.000226633
0.000228986
0.000230237
0.000230746
0.000230856
0.000230832
0.000158485
0.000158541
0.000158681
0.000158945
0.000159386
0.000160066
0.000161052
0.000162402
0.00016414
0.000166223
0.000168527
0.000170842
0.000172908
0.000174473
0.000175387
0.000175728
0.000176022
0.000177088
0.000179373
0.00018312
0.000188378
0.00019495
0.000202379
0.000209999
0.000217073
0.000222993
0.000227437
0.000230388
0.000232063
0.000232816
0.000233027
0.000233025
0.000158653
0.000158677
0.000158752
0.000158916
0.000159224
0.000159738
0.000160519
0.000161614
0.000163041
0.000164771
0.000166716
0.000168739
0.000170673
0.00017236
0.000173721
0.000174859
0.000176132
0.000177982
0.00018067
0.000184427
0.000189386
0.000195499
0.000202475
0.00020982
0.000216924
0.000223174
0.000228119
0.000231582
0.000233666
0.000234674
0.000235
0.000235024
0.00015942
0.000159391
0.000159355
0.000159357
0.000159464
0.000159752
0.000160293
0.000161136
0.000162297
0.00016376
0.000165477
0.000167375
0.000169366
0.000171372
0.000173362
0.000175438
0.000177748
0.000180376
0.000183441
0.000187179
0.000191785
0.000197332
0.000203685
0.000210498
0.000217294
0.000223544
0.000228757
0.000232612
0.000235068
0.000236336
0.00023679
0.000236846
0.000161174
0.000161065
0.000160869
0.000160642
0.000160475
0.000160476
0.000160743
0.000161348
0.000162321
0.000163666
0.000165364
0.000167383
0.000169677
0.000172198
0.000174925
0.000177923
0.000181132
0.00018436
0.000187653
0.000191266
0.000195434
0.000200317
0.000205906
0.000212001
0.000218249
0.000224217
0.000229445
0.000233536
0.000236298
0.000237816
0.000238409
0.000238503
0.00016425
0.000164038
0.000163649
0.000163166
0.000162714
0.000162437
0.000162474
0.000162931
0.000163866
0.000165294
0.000167205
0.000169567
0.00017233
0.000175431
0.000178824
0.000182528
0.00018633
0.00018987
0.000193178
0.000196531
0.000200184
0.000204339
0.000209075
0.000214314
0.00021983
0.000225291
0.000230295
0.00023443
0.000237395
0.000239134
0.000239868
0.000240008
0.000168876
0.000168547
0.000167977
0.000167305
0.000166691
0.000166297
0.00016628
0.000166778
0.000167866
0.000169553
0.000171809
0.000174576
0.00017777
0.000181303
0.000185097
0.00018914
0.000193137
0.000196673
0.000199782
0.000202756
0.000205844
0.000209254
0.000213111
0.000217423
0.000222074
0.000226844
0.00023141
0.000235385
0.000238412
0.000240309
0.000241177
0.000241369
0.000175165
0.000174727
0.00017407
0.000173412
0.000172916
0.000172708
0.000172909
0.000173661
0.000175028
0.000177005
0.000179539
0.000182548
0.000185927
0.000189569
0.000193386
0.00019735
0.000201157
0.000204409
0.000207152
0.000209663
0.000212171
0.000214863
0.000217874
0.000221259
0.000224985
0.000228931
0.000232875
0.00023649
0.000239411
0.000241372
0.000242344
0.000242591
0.000183182
0.000182682
0.000182139
0.000181815
0.000181788
0.000182072
0.00018271
0.000183807
0.000185411
0.000187518
0.000190082
0.000193019
0.000196225
0.000199602
0.000203066
0.000206589
0.000209901
0.000212666
0.000214932
0.000216941
0.000218885
0.000220918
0.00022316
0.000225682
0.000228497
0.00023156
0.000234746
0.000237822
0.000240462
0.000242359
0.000243382
0.000243679
0.000193044
0.000192598
0.000192465
0.000192785
0.000193439
0.000194309
0.000195373
0.000196695
0.000198325
0.000200289
0.000202566
0.000205096
0.0002078
0.000210599
0.000213426
0.000216258
0.000218882
0.00022104
0.000222777
0.000224281
0.000225699
0.000227148
0.000228723
0.000230486
0.000232469
0.00023467
0.000237037
0.000239437
0.000241627
0.000243316
0.000244308
0.000244636
0.000205018
0.00020485
0.000205389
0.000206387
0.000207557
0.000208759
0.000209965
0.000211227
0.000212607
0.000214159
0.00021589
0.000217771
0.000219753
0.000221782
0.000223813
0.000225827
0.000227676
0.000229184
0.000230383
0.000231405
0.000232349
0.000233296
0.00023431
0.000235437
0.000236707
0.000238131
0.0002397
0.000241357
0.000242961
0.000244292
0.000245147
0.000245467
0.000219619
0.000219973
0.000221005
0.000222155
0.000223271
0.000224301
0.000225238
0.000226129
0.000227031
0.000227995
0.000229041
0.000230163
0.000231335
0.000232529
0.000233718
0.00023489
0.000235962
0.000236831
0.000237518
0.000238097
0.000238625
0.000239147
0.000239699
0.000240308
0.000240991
0.000241761
0.00024262
0.000243551
0.000244497
0.000245338
0.000245931
0.000246185
0.000237466
0.000237743
0.000238274
0.00023878
0.000239236
0.00023964
0.000239992
0.000240311
0.00024062
0.000240942
0.000241285
0.000241651
0.000242033
0.00024242
0.000242804
0.000243183
0.000243528
0.000243807
0.000244027
0.000244212
0.000244379
0.000244543
0.000244715
0.000244904
0.000245115
0.000245352
0.000245617
0.000245907
0.000246209
0.00024649
0.000246705
0.000246808
)
;


// ************************************************************************* //
