/*--------------------------------*- C++ -*----------------------------------*\
| =========                 |                                                 |
| \\      /  F ield         | OpenFOAM: The Open Source CFD Toolbox           |
|  \\    /   O peration     | Version:  2212                                  |
|   \\  /    A nd           | Website:  www.openfoam.com                      |
|    \\/     M anipulation  |                                                 |
\*---------------------------------------------------------------------------*/
FoamFile
{
    version     2.0;
    format      ascii;
    arch        "LSB;label=64;scalar=64";
    class       volScalarField;
    location    "1690";
    object      Gch4;
}
// * * * * * * * * * * * * * * * * * * * * * * * * * * * * * * * * * * * * * //

dimensions      [1 -3 0 0 0 0 0];

internalField   nonuniform List<scalar> 
1024
(
1.92165
1.92144
1.92095
1.92005
1.91859
1.91642
1.91338
1.90938
1.90437
1.89846
1.89187
1.88493
1.878
1.87146
1.86568
1.86108
1.85849
1.8584
1.86038
1.86387
1.86844
1.8737
1.87921
1.88452
1.88923
1.89312
1.89612
1.89829
1.89975
1.90066
1.90115
1.90136
1.92159
1.92138
1.92088
1.91997
1.91849
1.9163
1.91323
1.90919
1.90414
1.8982
1.89159
1.88463
1.8777
1.87117
1.86539
1.86079
1.85818
1.85809
1.86007
1.86357
1.86815
1.87343
1.87896
1.88429
1.88904
1.89298
1.89601
1.8982
1.89968
1.9006
1.9011
1.90131
1.92144
1.92123
1.92072
1.91978
1.91827
1.91602
1.91289
1.90876
1.90363
1.89762
1.89095
1.88396
1.87702
1.87048
1.8647
1.86007
1.85744
1.85734
1.85934
1.86288
1.86752
1.87285
1.87843
1.88383
1.88866
1.89267
1.89577
1.89802
1.89953
1.90047
1.90099
1.90119
1.92118
1.92096
1.92043
1.91946
1.91789
1.91556
1.91231
1.90805
1.90279
1.89664
1.88988
1.88282
1.87584
1.86928
1.86346
1.85879
1.85608
1.85596
1.85804
1.86172
1.86651
1.87196
1.87765
1.88316
1.8881
1.89221
1.89541
1.89772
1.89928
1.90025
1.90078
1.90099
1.92077
1.92054
1.91999
1.91897
1.91732
1.91487
1.91146
1.90701
1.90155
1.89521
1.88828
1.88111
1.87405
1.86742
1.86152
1.85673
1.8539
1.85375
1.85599
1.85996
1.86506
1.87077
1.87665
1.88232
1.88739
1.89163
1.89492
1.89731
1.89892
1.89991
1.90045
1.90067
1.92017
1.91994
1.91936
1.91828
1.91653
1.91393
1.91032
1.90561
1.89987
1.89326
1.88608
1.87872
1.8715
1.86474
1.85868
1.85368
1.85064
1.85047
1.85298
1.85744
1.86308
1.86924
1.87546
1.88136
1.8866
1.89096
1.89434
1.89679
1.89843
1.89944
1.89997
1.90019
1.91936
1.91912
1.9185
1.91736
1.91549
1.91271
1.90884
1.90382
1.89771
1.89072
1.88319
1.87552
1.86806
1.86106
1.85473
1.84939
1.84606
1.84588
1.84879
1.85396
1.86043
1.86732
1.87407
1.8803
1.88575
1.89022
1.89366
1.89613
1.89776
1.89875
1.89928
1.89948
1.9183
1.91805
1.9174
1.91618
1.91418
1.91118
1.90701
1.9016
1.89502
1.88753
1.87952
1.87141
1.86356
1.85618
1.84945
1.84366
1.83995
1.83975
1.84314
1.84924
1.85682
1.86476
1.87229
1.87902
1.88474
1.88932
1.89278
1.89521
1.89679
1.89772
1.8982
1.89838
1.91696
1.9167
1.91601
1.91472
1.91257
1.90933
1.9048
1.89891
1.89176
1.88363
1.87497
1.86626
1.85787
1.84998
1.84271
1.83634
1.83216
1.83186
1.83568
1.84273
1.85163
1.86093
1.86958
1.87705
1.88317
1.8879
1.89135
1.89369
1.89515
1.89598
1.89638
1.89651
1.9153
1.91502
1.91431
1.91293
1.91062
1.90711
1.90218
1.89573
1.88787
1.87895
1.86948
1.86001
1.85094
1.84242
1.83451
1.82747
1.82267
1.822
1.82589
1.83356
1.84363
1.85445
1.86457
1.87316
1.87993
1.88496
1.88845
1.8907
1.89202
1.89269
1.89297
1.89304
1.91327
1.91299
1.91223
1.91076
1.90828
1.90447
1.89908
1.89199
1.88333
1.87349
1.86308
1.85273
1.84289
1.83369
1.8251
1.81733
1.81169
1.81009
1.81318
1.82049
1.83092
1.84282
1.85446
1.86458
1.87252
1.87824
1.88205
1.88435
1.88558
1.88611
1.88627
1.88628
1.91083
1.91054
1.90975
1.90819
1.90552
1.9014
1.89551
1.88773
1.87819
1.86737
1.85598
1.84476
1.83419
1.82437
1.8152
1.80671
1.79995
1.79661
1.79754
1.80275
1.8117
1.82313
1.83536
1.84682
1.85635
1.86346
1.86823
1.87108
1.87254
1.87314
1.87328
1.87326
1.90796
1.90766
1.90684
1.90519
1.90235
1.89792
1.89157
1.88312
1.87277
1.86103
1.84877
1.83683
1.82573
1.81557
1.80614
1.79721
1.78932
1.7836
1.78098
1.78201
1.78686
1.79499
1.80528
1.81631
1.8267
1.83536
1.8418
1.84603
1.84846
1.84964
1.85007
1.85015
1.90472
1.90441
1.90356
1.90186
1.8989
1.89426
1.88755
1.87863
1.86767
1.8553
1.84247
1.83013
1.81893
1.80897
1.79999
1.79147
1.78319
1.77539
1.76886
1.76453
1.76321
1.76521
1.77023
1.7775
1.78593
1.79434
1.80168
1.80733
1.81115
1.81339
1.81446
1.81482
1.90127
1.90096
1.90012
1.89842
1.89546
1.89079
1.88402
1.87498
1.86386
1.85133
1.8384
1.82619
1.81548
1.80653
1.79909
1.79241
1.78544
1.77717
1.76795
1.75898
1.75157
1.74664
1.7446
1.7454
1.74857
1.75332
1.75868
1.76371
1.76774
1.77049
1.77204
1.77266
1.89796
1.89767
1.89687
1.89527
1.89249
1.8881
1.88169
1.87308
1.86243
1.85037
1.83795
1.82639
1.81673
1.80947
1.80453
1.80108
1.79728
1.7906
1.78071
1.76893
1.75701
1.74642
1.7381
1.73246
1.7295
1.72885
1.72992
1.73195
1.73419
1.73606
1.73729
1.73785
1.89546
1.89519
1.89447
1.89305
1.89061
1.88675
1.88111
1.87346
1.86388
1.8529
1.84151
1.83094
1.82241
1.81674
1.81413
1.8139
1.8138
1.81001
1.80121
1.78838
1.77343
1.75848
1.74518
1.73449
1.72673
1.72179
1.71919
1.71831
1.71848
1.71906
1.71962
1.71993
1.89414
1.89389
1.89325
1.89202
1.88994
1.88668
1.8819
1.87538
1.86711
1.85748
1.84732
1.83777
1.83009
1.82527
1.82376
1.82514
1.82721
1.82583
1.81897
1.80674
1.79051
1.77252
1.75507
1.73994
1.72808
1.71969
1.71443
1.71162
1.71048
1.71029
1.71046
1.71063
1.89374
1.89352
1.89295
1.89189
1.89012
1.88738
1.88339
1.87791
1.87091
1.86264
1.85375
1.84521
1.83818
1.83368
1.83229
1.83378
1.83614
1.83558
1.83
1.81894
1.80306
1.78403
1.76417
1.74573
1.73034
1.71876
1.71096
1.70637
1.70413
1.70336
1.70329
1.7034
1.89389
1.89369
1.8932
1.89228
1.89078
1.88848
1.88515
1.88059
1.87473
1.86774
1.8601
1.85259
1.84619
1.8418
1.84
1.84061
1.84189
1.84069
1.83526
1.82495
1.80993
1.79123
1.77065
1.75044
1.7326
1.71844
1.70834
1.70199
1.69861
1.69723
1.69692
1.69698
1.8941
1.89394
1.89355
1.89281
1.89158
1.88968
1.88692
1.88315
1.87828
1.87244
1.86598
1.85948
1.85368
1.84927
1.84668
1.84571
1.84492
1.84207
1.83592
1.82581
1.8116
1.79385
1.77379
1.75322
1.73415
1.71819
1.70622
1.69827
1.69375
1.69171
1.69113
1.69113
1.89364
1.89357
1.89336
1.8929
1.89203
1.89059
1.8884
1.88533
1.88133
1.87648
1.87102
1.86535
1.85992
1.85519
1.85138
1.84823
1.84477
1.83977
1.8325
1.82235
1.80894
1.79241
1.77357
1.75374
1.73458
1.71774
1.70442
1.69509
1.68948
1.68676
1.68587
1.6858
1.89155
1.89163
1.89172
1.8917
1.89139
1.89056
1.88904
1.88667
1.88342
1.87931
1.87451
1.8692
1.86364
1.85805
1.85254
1.84683
1.84053
1.8334
1.8251
1.81497
1.80251
1.78751
1.77034
1.75195
1.73362
1.71677
1.70273
1.69235
1.68574
1.68232
1.68109
1.68094
1.88679
1.88708
1.88761
1.88821
1.88864
1.88861
1.88784
1.88613
1.8834
1.87964
1.87491
1.8693
1.86294
1.85598
1.84847
1.84026
1.8315
1.82272
1.81379
1.80399
1.7927
1.77949
1.76439
1.74793
1.73107
1.71499
1.70091
1.68989
1.68246
1.67837
1.67677
1.67651
1.87842
1.879
1.88005
1.88135
1.88256
1.88329
1.88315
1.88186
1.87925
1.87529
1.87
1.86348
1.85587
1.84735
1.83804
1.82791
1.81754
1.80791
1.79892
1.78982
1.77992
1.76868
1.75587
1.74172
1.72684
1.71212
1.69864
1.68751
1.67953
1.67485
1.67287
1.67249
1.86586
1.86675
1.86829
1.87011
1.87176
1.87281
1.87283
1.87143
1.86842
1.86378
1.85757
1.84998
1.84122
1.83154
1.82115
1.81011
1.79921
1.78958
1.78113
1.77306
1.76468
1.75545
1.74502
1.73337
1.72082
1.70796
1.69566
1.68496
1.67682
1.67171
1.66938
1.66886
1.84877
1.84996
1.85174
1.85352
1.85486
1.85541
1.85484
1.85277
1.84901
1.84359
1.83665
1.82842
1.81917
1.80921
1.79878
1.78796
1.77758
1.76873
1.76127
1.75445
1.74764
1.74035
1.7322
1.72305
1.713
1.70236
1.69173
1.682
1.67415
1.66888
1.66626
1.6656
1.827
1.82836
1.82983
1.83071
1.83077
1.82999
1.82824
1.82524
1.82085
1.81509
1.80809
1.80007
1.79131
1.78209
1.77263
1.76301
1.75399
1.74646
1.74029
1.73483
1.72956
1.72405
1.71798
1.71116
1.70356
1.6953
1.68672
1.67844
1.67134
1.66624
1.66349
1.66269
1.80023
1.80144
1.8018
1.80093
1.79915
1.79678
1.79388
1.79028
1.78583
1.78047
1.77426
1.76735
1.75998
1.75234
1.74462
1.7369
1.72974
1.72386
1.71914
1.71505
1.7112
1.70727
1.70301
1.69824
1.69288
1.68695
1.68057
1.67411
1.66822
1.66369
1.66102
1.66014
1.76773
1.76819
1.76672
1.76402
1.76084
1.75757
1.75429
1.75086
1.7471
1.74287
1.73815
1.73302
1.72761
1.72208
1.71654
1.71104
1.706
1.7019
1.69863
1.69585
1.69329
1.69072
1.68798
1.68493
1.6815
1.67766
1.67343
1.66897
1.66465
1.66108
1.65878
1.65792
1.72812
1.72716
1.72436
1.72124
1.71821
1.71541
1.71286
1.71044
1.70799
1.70536
1.70251
1.69945
1.69625
1.693
1.68976
1.68656
1.68364
1.68127
1.6794
1.67782
1.67639
1.67497
1.67348
1.67183
1.66998
1.66791
1.66559
1.66309
1.66054
1.65828
1.65669
1.65601
1.67971
1.67896
1.67752
1.67614
1.67491
1.67381
1.67285
1.67199
1.67114
1.67027
1.66933
1.66834
1.6673
1.66624
1.66519
1.66416
1.66322
1.66246
1.66186
1.66136
1.6609
1.66046
1.65999
1.65948
1.65891
1.65827
1.65756
1.65677
1.65596
1.65521
1.65463
1.65435
)
;

boundaryField
{
    movingWall
    {
        type            fixedValue;
        value           uniform 1.6535;
    }
    fixedWalls
    {
        type            zeroGradient;
    }
    floor
    {
        type            zeroGradient;
    }
    frontAndBack
    {
        type            empty;
    }
}


// ************************************************************************* //
