/*--------------------------------*- C++ -*----------------------------------*\
| =========                 |                                                 |
| \\      /  F ield         | OpenFOAM: The Open Source CFD Toolbox           |
|  \\    /   O peration     | Version:  2212                                  |
|   \\  /    A nd           | Website:  www.openfoam.com                      |
|    \\/     M anipulation  |                                                 |
\*---------------------------------------------------------------------------*/
FoamFile
{
    version     2.0;
    format      ascii;
    arch        "LSB;label=64;scalar=64";
    class       volScalarField;
    location    "1690";
    object      p_rgh;
}
// * * * * * * * * * * * * * * * * * * * * * * * * * * * * * * * * * * * * * //

dimensions      [0 2 -2 0 0 0 0];

internalField   nonuniform List<scalar> 
1024
(
0.0431943
0.0431937
0.0431927
0.0431919
0.0431918
0.0431926
0.0431946
0.0431977
0.0432018
0.0432065
0.0432117
0.0432177
0.0432252
0.0432356
0.0432507
0.0432701
0.0432839
0.0432773
0.0432428
0.0431874
0.0431281
0.0430819
0.0430525
0.0430357
0.0430266
0.0430219
0.0430197
0.0430192
0.0430199
0.0430213
0.0430229
0.043024
0.0431956
0.043195
0.0431942
0.0431936
0.0431936
0.0431945
0.0431965
0.0431995
0.0432035
0.0432082
0.0432135
0.0432195
0.0432271
0.0432376
0.0432526
0.043272
0.0432855
0.0432785
0.0432439
0.0431888
0.04313
0.0430844
0.0430554
0.0430388
0.0430298
0.043025
0.0430226
0.0430219
0.0430222
0.0430233
0.0430246
0.0430257
0.0431983
0.0431975
0.0431967
0.0431963
0.0431966
0.0431977
0.0431998
0.043203
0.0432071
0.043212
0.0432175
0.0432238
0.0432316
0.0432423
0.0432576
0.0432772
0.0432907
0.0432836
0.0432488
0.0431936
0.0431347
0.043089
0.0430602
0.0430437
0.0430346
0.0430296
0.043027
0.0430258
0.0430256
0.0430263
0.0430276
0.0430289
0.0432022
0.0432011
0.0432002
0.0432
0.0432006
0.0432023
0.043205
0.0432087
0.0432134
0.0432188
0.0432247
0.0432314
0.0432396
0.0432508
0.0432667
0.043287
0.043301
0.0432937
0.0432586
0.0432026
0.0431425
0.0430957
0.0430664
0.0430498
0.0430405
0.0430352
0.043032
0.0430302
0.0430294
0.0430298
0.0430312
0.0430329
0.0432069
0.0432055
0.0432045
0.0432046
0.0432059
0.0432084
0.0432123
0.0432172
0.043223
0.0432294
0.0432362
0.0432435
0.0432523
0.0432642
0.0432809
0.0433019
0.0433167
0.0433087
0.0432727
0.0432154
0.043153
0.0431038
0.0430735
0.0430564
0.0430467
0.0430408
0.0430368
0.0430343
0.0430329
0.0430329
0.0430344
0.0430364
0.0432118
0.0432102
0.0432092
0.0432098
0.0432121
0.0432162
0.0432219
0.043229
0.0432367
0.0432448
0.0432528
0.0432611
0.0432706
0.0432831
0.0433004
0.0433217
0.0433366
0.0433269
0.0432888
0.0432298
0.0431645
0.0431122
0.0430798
0.0430619
0.0430516
0.0430448
0.0430399
0.0430365
0.0430344
0.0430339
0.0430352
0.0430373
0.0432157
0.043214
0.0432133
0.0432147
0.0432187
0.0432252
0.043234
0.0432443
0.0432551
0.0432656
0.0432754
0.0432847
0.0432947
0.0433073
0.0433243
0.0433446
0.0433576
0.0433451
0.043304
0.0432424
0.0431741
0.0431184
0.043083
0.0430642
0.0430529
0.043045
0.043039
0.0430344
0.0430316
0.0430306
0.0430314
0.0430331
0.0432171
0.0432155
0.0432153
0.0432181
0.0432246
0.0432347
0.0432479
0.0432628
0.0432779
0.0432918
0.0433036
0.0433139
0.0433237
0.0433353
0.0433501
0.0433673
0.0433761
0.0433598
0.0433157
0.0432517
0.0431802
0.0431207
0.0430814
0.0430612
0.0430487
0.0430395
0.0430321
0.0430266
0.0430229
0.0430213
0.0430215
0.0430225
0.0432142
0.0432129
0.0432136
0.0432183
0.0432282
0.0432433
0.0432626
0.0432839
0.0433045
0.0433223
0.0433362
0.0433467
0.0433552
0.0433639
0.0433742
0.043386
0.0433893
0.0433695
0.0433236
0.0432582
0.0431863
0.0431212
0.0430774
0.0430542
0.0430397
0.0430286
0.0430199
0.0430135
0.0430093
0.0430072
0.0430066
0.0430068
0.0432055
0.0432045
0.0432063
0.0432135
0.0432279
0.0432495
0.0432766
0.0433058
0.043333
0.043355
0.0433704
0.0433799
0.0433855
0.0433893
0.0433933
0.0433982
0.0433964
0.0433754
0.0433315
0.0432691
0.0431983
0.0431319
0.0430809
0.0430486
0.0430309
0.0430176
0.0430074
0.043
0.0429953
0.0429928
0.0429916
0.0429912
0.0431892
0.0431886
0.0431917
0.0432019
0.0432216
0.0432511
0.0432877
0.0433261
0.0433605
0.0433865
0.0434025
0.0434098
0.0434111
0.0434091
0.0434061
0.0434035
0.0433986
0.04338
0.043344
0.0432928
0.0432324
0.0431701
0.0431122
0.0430652
0.0430371
0.0430182
0.0430045
0.0429951
0.0429894
0.0429864
0.042985
0.0429842
0.0431636
0.0431634
0.0431677
0.0431811
0.0432069
0.0432453
0.0432925
0.043341
0.0433826
0.043412
0.0434279
0.0434325
0.0434292
0.0434214
0.0434117
0.0434031
0.0433965
0.0433841
0.0433625
0.0433324
0.043296
0.0432544
0.0432064
0.0431513
0.0430935
0.0430553
0.0430298
0.0430139
0.0430051
0.0430012
0.0429998
0.0429994
0.0431257
0.0431258
0.0431314
0.0431479
0.0431798
0.0432273
0.0432854
0.0433441
0.0433929
0.0434256
0.0434416
0.0434442
0.0434374
0.043425
0.04341
0.043396
0.0433875
0.0433824
0.0433781
0.0433747
0.0433718
0.0433662
0.0433512
0.0433191
0.0432651
0.0431922
0.0431293
0.0430935
0.0430737
0.0430649
0.0430623
0.0430621
0.0430717
0.043072
0.0430785
0.0430975
0.0431345
0.0431904
0.0432587
0.0433273
0.0433836
0.0434207
0.0434384
0.0434406
0.043432
0.0434164
0.0433972
0.043378
0.0433653
0.0433642
0.0433729
0.0433907
0.043416
0.0434442
0.0434675
0.0434772
0.0434658
0.0434298
0.0433714
0.0433018
0.043249
0.0432216
0.0432101
0.0432068
0.0429984
0.0429988
0.0430055
0.0430255
0.0430655
0.0431273
0.0432044
0.0432828
0.0433481
0.0433917
0.0434136
0.0434178
0.0434092
0.0433917
0.0433688
0.0433448
0.0433275
0.043325
0.0433369
0.0433615
0.0433971
0.0434397
0.0434828
0.0435191
0.0435424
0.0435489
0.0435386
0.0435145
0.0434825
0.0434501
0.043429
0.0434201
0.0429089
0.0429092
0.042915
0.0429337
0.0429731
0.0430369
0.0431199
0.043208
0.0432844
0.0433383
0.043368
0.0433776
0.0433719
0.0433553
0.0433314
0.0433052
0.0432847
0.043278
0.0432843
0.0433017
0.0433295
0.0433661
0.0434073
0.0434476
0.0434814
0.0435051
0.0435176
0.0435205
0.0435167
0.0435095
0.0435022
0.0434969
0.0428232
0.0428231
0.0428271
0.0428421
0.0428765
0.0429369
0.0430212
0.0431165
0.0432046
0.0432717
0.043313
0.0433313
0.043332
0.0433199
0.0433002
0.0432789
0.0432644
0.043256
0.0432537
0.0432566
0.0432659
0.0432832
0.0433083
0.0433382
0.0433678
0.0433924
0.0434093
0.0434184
0.0434215
0.0434209
0.0434181
0.043415
0.0427714
0.0427707
0.0427726
0.0427833
0.042811
0.0428631
0.0429405
0.0430352
0.0431317
0.0432133
0.0432678
0.0432969
0.0433056
0.0432998
0.0432857
0.0432716
0.0432698
0.0432661
0.0432619
0.0432561
0.043249
0.0432444
0.043247
0.0432584
0.043276
0.0432947
0.0433096
0.0433188
0.0433226
0.0433226
0.0433202
0.043317
0.0427584
0.0427572
0.0427569
0.0427633
0.042784
0.0428268
0.0428947
0.0429832
0.04308
0.0431682
0.0432343
0.0432745
0.0432916
0.0432915
0.0432814
0.0432704
0.0432708
0.0432759
0.0432798
0.0432769
0.0432663
0.0432501
0.0432344
0.0432268
0.0432295
0.0432389
0.0432495
0.0432572
0.0432606
0.0432603
0.0432574
0.0432535
0.0427736
0.0427718
0.0427695
0.0427719
0.0427861
0.04282
0.042878
0.042958
0.0430502
0.0431396
0.0432118
0.0432595
0.0432828
0.0432863
0.0432774
0.0432656
0.0432633
0.043272
0.0432834
0.0432913
0.0432918
0.0432798
0.0432562
0.0432361
0.0432267
0.043228
0.0432347
0.0432411
0.0432443
0.0432436
0.0432398
0.043235
0.0428057
0.0428033
0.0427991
0.042798
0.0428067
0.042833
0.0428821
0.0429536
0.0430394
0.0431257
0.0431983
0.0432484
0.0432738
0.0432779
0.0432677
0.043253
0.0432474
0.0432578
0.0432753
0.0432929
0.043305
0.0433061
0.0432949
0.0432722
0.0432572
0.0432552
0.0432621
0.0432704
0.0432751
0.0432749
0.0432703
0.0432641
0.0428458
0.0428426
0.042837
0.0428329
0.0428373
0.0428579
0.0429005
0.042965
0.0430443
0.0431248
0.0431931
0.04324
0.0432625
0.0432636
0.0432498
0.0432313
0.043223
0.0432343
0.0432566
0.0432825
0.043306
0.0433217
0.0433268
0.0433217
0.0433126
0.0433137
0.0433273
0.0433438
0.0433547
0.0433575
0.0433529
0.0433452
0.0428868
0.0428829
0.0428761
0.04287
0.0428718
0.0428894
0.0429284
0.0429885
0.0430621
0.0431354
0.0431955
0.0432341
0.0432489
0.0432432
0.0432235
0.0432005
0.0431896
0.0432005
0.0432274
0.0432607
0.043295
0.0433259
0.0433505
0.0433688
0.0433837
0.0434008
0.0434283
0.0434616
0.0434868
0.0434975
0.0434949
0.0434859
0.0429238
0.042919
0.0429114
0.0429048
0.0429064
0.0429239
0.0429627
0.0430212
0.0430902
0.043155
0.0432038
0.0432299
0.0432331
0.0432174
0.04319
0.0431616
0.0431481
0.0431586
0.0431883
0.0432276
0.043272
0.0433184
0.0433649
0.0434119
0.0434609
0.0435125
0.0435674
0.0436264
0.0436769
0.0437043
0.0437072
0.0436985
0.0429533
0.0429474
0.0429394
0.0429343
0.0429389
0.0429602
0.043002
0.043061
0.0431256
0.0431806
0.0432156
0.0432265
0.0432151
0.0431872
0.0431504
0.0431158
0.0430992
0.043109
0.0431397
0.0431842
0.0432379
0.0432998
0.0433699
0.0434499
0.0435408
0.0436407
0.0437435
0.0438425
0.043931
0.0439885
0.0440049
0.0440003
0.0429729
0.0429653
0.0429576
0.0429566
0.0429685
0.0429968
0.0430447
0.043105
0.0431647
0.0432084
0.0432276
0.0432215
0.0431942
0.0431526
0.0431054
0.0430639
0.0430438
0.0430524
0.0430839
0.0431327
0.043195
0.043272
0.0433663
0.0434818
0.0436202
0.0437784
0.0439462
0.0441087
0.0442514
0.0443591
0.0444044
0.0444128
0.0429772
0.0429684
0.0429633
0.0429707
0.0429945
0.0430343
0.0430876
0.0431496
0.0432032
0.0432338
0.0432361
0.0432124
0.0431686
0.0431131
0.0430553
0.0430068
0.0429835
0.0429913
0.043024
0.0430765
0.0431467
0.043238
0.0433557
0.0435064
0.0436941
0.0439162
0.044161
0.0444082
0.0446331
0.0448165
0.0449182
0.0449562
0.042953
0.0429465
0.0429504
0.0429739
0.0430153
0.0430692
0.0431293
0.0431907
0.043236
0.0432521
0.0432374
0.0431965
0.0431372
0.0430688
0.0430014
0.0429471
0.0429216
0.0429293
0.0429636
0.0430198
0.0430977
0.0432018
0.0433404
0.0435228
0.0437563
0.0440411
0.0443676
0.0447151
0.0450533
0.0453459
0.0455461
0.0456439
0.0428752
0.0428834
0.0429127
0.0429654
0.0430305
0.0430996
0.0431666
0.0432246
0.0432591
0.0432605
0.04323
0.043174
0.0431014
0.0430226
0.0429478
0.0428896
0.0428633
0.0428719
0.0429082
0.0429684
0.0430529
0.0431675
0.0433228
0.0435307
0.0438014
0.0441397
0.0445419
0.0449942
0.0454702
0.0459253
0.0462799
0.0465077
0.0426898
0.0427605
0.0428569
0.0429564
0.0430465
0.0431288
0.0431995
0.0432506
0.0432734
0.0432614
0.0432176
0.0431494
0.0430668
0.0429805
0.0429011
0.0428409
0.0428151
0.042825
0.0428634
0.0429271
0.0430165
0.0431386
0.0433052
0.0435303
0.0438263
0.0442024
0.0446625
0.0452066
0.0458278
0.0464978
0.0471299
0.0476817
0.042199
0.0425878
0.042827
0.0429758
0.0430811
0.0431665
0.043233
0.0432746
0.0432857
0.0432624
0.043208
0.043131
0.0430415
0.0429504
0.0428682
0.0428072
0.042782
0.0427932
0.0428332
0.0428991
0.0429913
0.0431173
0.0432896
0.0435231
0.0438315
0.0442267
0.0447194
0.0453238
0.0460637
0.0469733
0.0480817
0.0493407
0.0411813
0.0424158
0.0428783
0.0430276
0.0431271
0.0432076
0.0432655
0.0432974
0.0432994
0.0432681
0.043207
0.0431244
0.0430308
0.0429368
0.042853
0.0427915
0.0427665
0.0427781
0.042819
0.0428855
0.0429787
0.0431056
0.0432793
0.0435147
0.0438258
0.0442256
0.0447287
0.0453607
0.0461742
0.0472765
0.0488857
0.0511488
)
;

boundaryField
{
    movingWall
    {
        type            fixedFluxPressure;
        gradient        uniform 0;
        value           nonuniform List<scalar> 
32
(
0.0411813
0.0424158
0.0428783
0.0430276
0.0431271
0.0432076
0.0432655
0.0432974
0.0432994
0.0432681
0.043207
0.0431244
0.0430308
0.0429368
0.042853
0.0427915
0.0427665
0.0427781
0.042819
0.0428855
0.0429787
0.0431056
0.0432793
0.0435147
0.0438258
0.0442256
0.0447287
0.0453607
0.0461742
0.0472765
0.0488857
0.0511488
)
;
    }
    fixedWalls
    {
        type            fixedFluxPressure;
        gradient        uniform 0;
        value           nonuniform List<scalar> 
64
(
0.0431943
0.0431956
0.0431983
0.0432022
0.0432069
0.0432118
0.0432157
0.0432171
0.0432142
0.0432055
0.0431892
0.0431636
0.0431257
0.0430717
0.0429984
0.0429089
0.0428232
0.0427714
0.0427584
0.0427736
0.0428057
0.0428458
0.0428868
0.0429238
0.0429533
0.0429729
0.0429772
0.042953
0.0428752
0.0426898
0.042199
0.0411813
0.043024
0.0430257
0.0430289
0.0430329
0.0430364
0.0430373
0.0430331
0.0430225
0.0430068
0.0429912
0.0429842
0.0429994
0.0430621
0.0432068
0.0434201
0.0434969
0.043415
0.043317
0.0432535
0.043235
0.0432641
0.0433452
0.0434859
0.0436985
0.0440003
0.0444128
0.0449562
0.0456439
0.0465077
0.0476817
0.0493407
0.0511488
)
;
    }
    floor
    {
        type            fixedFluxPressure;
        gradient        uniform 0;
        value           nonuniform List<scalar> 
32
(
0.0431943
0.0431937
0.0431927
0.0431919
0.0431918
0.0431926
0.0431946
0.0431977
0.0432018
0.0432065
0.0432117
0.0432177
0.0432252
0.0432356
0.0432507
0.0432701
0.0432839
0.0432773
0.0432428
0.0431874
0.0431281
0.0430819
0.0430525
0.0430357
0.0430266
0.0430219
0.0430197
0.0430192
0.0430199
0.0430213
0.0430229
0.043024
)
;
    }
    frontAndBack
    {
        type            empty;
    }
}


// ************************************************************************* //
