/*--------------------------------*- C++ -*----------------------------------*\
| =========                 |                                                 |
| \\      /  F ield         | OpenFOAM: The Open Source CFD Toolbox           |
|  \\    /   O peration     | Version:  2206                                  |
|   \\  /    A nd           | Website:  www.openfoam.com                      |
|    \\/     M anipulation  |                                                 |
\*---------------------------------------------------------------------------*/
FoamFile
{
    version     2.0;
    format      ascii;
    arch        "LSB;label=64;scalar=64";
    class       volVectorField;
    location    "759600";
    object      U;
}
// * * * * * * * * * * * * * * * * * * * * * * * * * * * * * * * * * * * * * //

dimensions      [0 1 -1 0 0 0 0];

internalField   nonuniform List<vector> 
16
(
(-6.97984e-08 2.28762e-08 0)
(-2.82464e-08 -5.47642e-08 0)
(9.87846e-08 -1.64062e-08 0)
(4.53398e-08 5.52648e-08 0)
(-1.49061e-08 7.79345e-08 0)
(-3.7539e-08 -1.15999e-07 0)
(-4.02058e-08 -5.50409e-08 0)
(-1.4199e-08 8.6677e-08 0)
(4.61931e-08 7.36224e-08 0)
(1.82355e-08 -3.25885e-08 0)
(-8.11197e-08 -3.78508e-08 0)
(-3.03106e-08 2.07543e-09 0)
(3.2905e-08 1.52093e-08 0)
(5.35885e-08 1.26183e-08 0)
(1.59134e-08 -7.52436e-09 0)
(6.48527e-09 -2.47186e-08 0)
)
;

boundaryField
{
    movingWall
    {
        type            noSlip;
    }
    fixedWalls
    {
        type            noSlip;
    }
    frontAndBack
    {
        type            empty;
    }
}


// ************************************************************************* //
