/*--------------------------------*- C++ -*----------------------------------*\
| =========                 |                                                 |
| \\      /  F ield         | OpenFOAM: The Open Source CFD Toolbox           |
|  \\    /   O peration     | Version:  2206                                  |
|   \\  /    A nd           | Website:  www.openfoam.com                      |
|    \\/     M anipulation  |                                                 |
\*---------------------------------------------------------------------------*/
FoamFile
{
    version     2.0;
    format      ascii;
    arch        "LSB;label=64;scalar=64";
    class       volScalarField;
    location    "15";
    object      p;
}
// * * * * * * * * * * * * * * * * * * * * * * * * * * * * * * * * * * * * * //

dimensions      [0 2 -2 0 0 0 0];

internalField   nonuniform List<scalar> 
1024
(
3.08749e-12
-3.07195e-09
-9.22615e-09
-1.64135e-08
-2.19908e-08
-2.27377e-08
-1.50905e-08
4.93233e-09
4.21028e-08
1.0255e-07
1.94237e-07
3.27184e-07
5.13295e-07
7.65735e-07
1.09685e-06
1.5151e-06
1.98215e-06
2.40636e-06
2.74602e-06
3.00734e-06
3.20137e-06
3.34077e-06
3.43736e-06
3.50132e-06
3.54088e-06
3.56242e-06
3.57095e-06
3.57066e-06
3.56525e-06
3.55807e-06
3.55187e-06
3.54873e-06
3.08114e-09
3.08857e-12
-5.16669e-09
-1.08994e-08
-1.5065e-08
-1.47866e-08
-6.59414e-09
1.35656e-08
5.05929e-08
1.10705e-07
2.01885e-07
3.34126e-07
5.19283e-07
7.70471e-07
1.09999e-06
1.51627e-06
1.98114e-06
2.40334e-06
2.74136e-06
3.00137e-06
3.1944e-06
3.33305e-06
3.4291e-06
3.49272e-06
3.53212e-06
3.55379e-06
3.56287e-06
3.56361e-06
3.55964e-06
3.55394e-06
3.54873e-06
3.54559e-06
9.23893e-09
5.16753e-09
-1.20374e-11
-4.81722e-09
-7.78123e-09
-6.48834e-09
2.32673e-09
2.27057e-08
5.96368e-08
1.1942e-07
2.10066e-07
3.41547e-07
5.25674e-07
7.75511e-07
1.10331e-06
1.51747e-06
1.98002e-06
2.40008e-06
2.73635e-06
2.99499e-06
3.18696e-06
3.32483e-06
3.42033e-06
3.4836e-06
3.52289e-06
3.54478e-06
3.55449e-06
3.55625e-06
3.5535e-06
3.54874e-06
3.54352e-06
3.53939e-06
1.64554e-08
1.09062e-08
4.76016e-09
-7.36671e-11
-2.53834e-09
-6.2202e-10
8.68283e-09
2.93047e-08
6.62317e-08
1.25806e-07
2.16064e-07
3.46973e-07
5.30324e-07
7.79148e-07
1.10566e-06
1.51826e-06
1.97912e-06
2.39764e-06
2.73265e-06
2.9903e-06
3.18152e-06
3.31883e-06
3.41396e-06
3.47703e-06
3.51633e-06
3.53847e-06
3.54866e-06
3.55105e-06
3.5488e-06
3.54401e-06
3.53781e-06
3.53218e-06
2.21298e-08
1.51144e-08
7.69259e-09
2.27254e-09
-2.45176e-10
1.8911e-09
1.14732e-08
3.22872e-08
6.9266e-08
1.28756e-07
2.18815e-07
3.49421e-07
5.32367e-07
7.80679e-07
1.10657e-06
1.51845e-06
1.97854e-06
2.39641e-06
2.7309e-06
2.98813e-06
3.17904e-06
3.31613e-06
3.41112e-06
3.47414e-06
3.51352e-06
3.53586e-06
3.54634e-06
3.54895e-06
3.54663e-06
3.54124e-06
3.53375e-06
3.52664e-06
2.30927e-08
1.49419e-08
6.37068e-09
1.92443e-10
-2.68037e-09
-6.11448e-10
9.06069e-09
3.00096e-08
6.71028e-08
1.26675e-07
2.16804e-07
3.475e-07
5.30588e-07
7.79126e-07
1.10536e-06
1.51774e-06
1.97845e-06
2.39694e-06
2.73197e-06
2.98964e-06
3.18088e-06
3.31821e-06
3.41339e-06
3.47658e-06
3.51612e-06
3.53862e-06
3.54921e-06
3.55175e-06
3.54907e-06
3.54291e-06
3.53426e-06
3.526e-06
1.58083e-08
6.91471e-09
-2.50969e-09
-9.3864e-09
-1.27138e-08
-1.08649e-08
-1.21923e-09
1.98455e-08
5.71609e-08
1.17062e-07
2.07665e-07
3.39042e-07
5.23099e-07
7.72976e-07
1.10101e-06
1.51571e-06
1.97909e-06
2.40013e-06
2.73728e-06
2.99663e-06
3.18916e-06
3.32743e-06
3.42327e-06
3.48692e-06
3.52678e-06
3.54946e-06
3.56004e-06
3.56236e-06
3.55922e-06
3.55236e-06
3.54285e-06
3.53384e-06
-3.77489e-09
-1.31307e-08
-2.31447e-08
-3.05808e-08
-3.43374e-08
-3.27417e-08
-2.31461e-08
-1.91034e-09
3.58177e-08
9.6418e-08
1.88089e-07
3.21017e-07
5.07259e-07
7.60107e-07
1.09206e-06
1.51176e-06
1.98081e-06
2.40719e-06
2.74877e-06
3.01163e-06
3.20683e-06
3.34705e-06
3.44427e-06
3.50884e-06
3.54926e-06
3.57219e-06
3.58277e-06
3.58486e-06
3.58129e-06
3.57386e-06
3.56375e-06
3.55427e-06
-4.07554e-08
-5.04733e-08
-6.09584e-08
-6.88582e-08
-7.29848e-08
-7.16003e-08
-6.19848e-08
-4.0418e-08
-1.95661e-09
5.98962e-08
1.53497e-07
2.89237e-07
4.79417e-07
7.37593e-07
1.07652e-06
1.50507e-06
1.98409e-06
2.41982e-06
2.76913e-06
3.03813e-06
3.238e-06
3.38164e-06
3.48125e-06
3.54741e-06
3.58877e-06
3.61217e-06
3.62285e-06
3.62476e-06
3.62083e-06
3.61293e-06
3.60234e-06
3.59249e-06
-1.02179e-07
-1.12318e-07
-1.23314e-07
-1.3168e-07
-1.36149e-07
-1.34906e-07
-1.25123e-07
-1.02939e-07
-6.32392e-08
6.87406e-10
9.7469e-08
2.3783e-07
4.34461e-07
7.0133e-07
1.0516e-06
1.49444e-06
1.98955e-06
2.44033e-06
2.80211e-06
3.08101e-06
3.28842e-06
3.43759e-06
3.54107e-06
3.60979e-06
3.65273e-06
3.67695e-06
3.6879e-06
3.68973e-06
3.68548e-06
3.6771e-06
3.66598e-06
3.6557e-06
-1.98207e-07
-2.08939e-07
-2.20616e-07
-2.29553e-07
-2.34395e-07
-2.33221e-07
-2.23049e-07
-1.99808e-07
-1.58111e-07
-9.09039e-08
1.08715e-08
1.58456e-07
3.65135e-07
6.45496e-07
1.0133e-06
1.47818e-06
1.99802e-06
2.47196e-06
2.85294e-06
3.14712e-06
3.36622e-06
3.52397e-06
3.63348e-06
3.70623e-06
3.75166e-06
3.77725e-06
3.78877e-06
3.79061e-06
3.78601e-06
3.77706e-06
3.76523e-06
3.75432e-06
-3.43676e-07
-3.55279e-07
-3.67927e-07
-3.77641e-07
-3.82944e-07
-3.81767e-07
-3.70897e-07
-3.45952e-07
-3.01138e-07
-2.2888e-07
-1.1947e-07
3.91045e-08
2.61004e-07
5.61722e-07
9.55872e-07
1.45375e-06
2.01058e-06
2.51919e-06
2.92902e-06
3.24625e-06
3.48306e-06
3.65386e-06
3.7726e-06
3.85155e-06
3.90086e-06
3.92864e-06
3.94112e-06
3.94309e-06
3.93807e-06
3.92834e-06
3.91549e-06
3.90366e-06
-5.60605e-07
-5.73493e-07
-5.87557e-07
-5.98375e-07
-6.04296e-07
-6.03027e-07
-5.91013e-07
-5.63405e-07
-5.13806e-07
-4.33868e-07
-3.1293e-07
-1.37846e-07
1.06798e-07
4.37777e-07
8.70891e-07
1.41736e-06
2.02859e-06
2.5883e-06
3.04089e-06
3.39252e-06
3.65593e-06
3.84647e-06
3.97924e-06
4.06767e-06
4.12298e-06
4.15417e-06
4.16822e-06
4.1705e-06
4.16492e-06
4.15406e-06
4.13973e-06
4.12654e-06
-8.82409e-07
-8.97217e-07
-9.1338e-07
-9.25813e-07
-9.32601e-07
-9.31111e-07
-9.17271e-07
-8.85535e-07
-8.28608e-07
-7.37e-07
-5.98656e-07
-3.98812e-07
-1.20296e-07
2.55426e-07
7.45742e-07
1.36313e-06
2.0536e-06
2.68807e-06
3.20375e-06
3.60663e-06
3.91005e-06
4.13057e-06
4.28481e-06
4.38787e-06
4.4525e-06
4.48906e-06
4.50563e-06
4.50845e-06
4.50212e-06
4.48961e-06
4.47307e-06
4.45783e-06
-1.36172e-06
-1.37946e-06
-1.39882e-06
-1.41369e-06
-1.42174e-06
-1.41982e-06
-1.40306e-06
-1.36485e-06
-1.29654e-06
-1.18695e-06
-1.022e-06
-7.84641e-07
-4.55315e-07
-1.3208e-08
5.61074e-07
1.28167e-06
2.08712e-06
2.83074e-06
3.43969e-06
3.91946e-06
4.28382e-06
4.55063e-06
4.73844e-06
4.86457e-06
4.94405e-06
4.98922e-06
5.00992e-06
5.01373e-06
5.00629e-06
4.99128e-06
4.97134e-06
4.95295e-06
-2.08489e-06
-2.10732e-06
-2.13177e-06
-2.15047e-06
-2.16045e-06
-2.15769e-06
-2.13606e-06
-2.08727e-06
-2.00059e-06
-1.86232e-06
-1.65546e-06
-1.35986e-06
-9.52951e-07
-4.11239e-07
2.86893e-07
1.15764e-06
2.12952e-06
3.03255e-06
3.78023e-06
4.37701e-06
4.83631e-06
5.17681e-06
5.41909e-06
5.58328e-06
5.68755e-06
5.74731e-06
5.7751e-06
5.78078e-06
5.7717e-06
5.7527e-06
5.72728e-06
5.70379e-06
-3.1241e-06
-3.15399e-06
-3.18649e-06
-3.21119e-06
-3.22406e-06
-3.2197e-06
-3.18996e-06
-3.12402e-06
-3.00807e-06
-2.82486e-06
-2.55362e-06
-2.17055e-06
-1.65003e-06
-9.66393e-07
-9.6422e-08
9.78174e-07
2.17391e-06
3.29393e-06
4.23563e-06
5.00169e-06
5.60334e-06
6.05815e-06
6.38745e-06
6.61395e-06
6.75961e-06
6.84414e-06
6.88426e-06
6.89346e-06
6.88199e-06
6.85666e-06
6.82238e-06
6.7906e-06
-4.43418e-06
-4.47518e-06
-4.51959e-06
-4.553e-06
-4.56979e-06
-4.5625e-06
-4.52007e-06
-4.42816e-06
-4.26902e-06
-4.02121e-06
-3.6601e-06
-3.15901e-06
-2.49098e-06
-1.63055e-06
-5.55168e-07
7.54697e-07
2.20443e-06
3.574e-06
4.74735e-06
5.72569e-06
6.51556e-06
7.1294e-06
7.58542e-06
7.9062e-06
8.11645e-06
8.24061e-06
8.30096e-06
8.31642e-06
8.30176e-06
8.26695e-06
8.21922e-06
8.17476e-06
-5.93457e-06
-5.99146e-06
-6.05279e-06
-6.09824e-06
-6.11973e-06
-6.10679e-06
-6.04443e-06
-5.91395e-06
-5.69318e-06
-5.35691e-06
-4.87803e-06
-4.22962e-06
-3.38698e-06
-2.32872e-06
-1.03589e-06
5.11341e-07
2.21063e-06
3.8281e-06
5.24175e-06
6.45413e-06
7.46623e-06
8.2813e-06
8.90839e-06
9.36394e-06
9.67109e-06
9.85715e-06
9.95041e-06
9.97702e-06
9.95855e-06
9.91004e-06
9.84241e-06
9.77915e-06
-7.61861e-06
-7.69897e-06
-7.78496e-06
-7.84716e-06
-7.87367e-06
-7.84965e-06
-7.75491e-06
-7.56582e-06
-7.25633e-06
-6.79911e-06
-6.16775e-06
-5.33934e-06
-4.29615e-06
-3.02479e-06
-1.5122e-06
2.61529e-07
2.19057e-06
4.03717e-06
5.68258e-06
7.13596e-06
8.39537e-06
9.45336e-06
1.03041e-05
1.09495e-05
1.14025e-05
1.16873e-05
1.1836e-05
1.18834e-05
1.1861e-05
1.17921e-05
1.16938e-05
1.16014e-05
-9.49362e-06
-9.61e-06
-9.73297e-06
-9.81846e-06
-9.84839e-06
-9.80176e-06
-9.65236e-06
-9.37235e-06
-8.93425e-06
-8.31267e-06
-7.48707e-06
-6.44415e-06
-5.17782e-06
-3.68546e-06
-1.96034e-06
1.87057e-08
2.14671e-06
4.19036e-06
6.04261e-06
7.72577e-06
9.24149e-06
1.05755e-05
1.17058e-05
1.26116e-05
1.32831e-05
1.37284e-05
1.3975e-05
1.40643e-05
1.40408e-05
1.39408e-05
1.37929e-05
1.36527e-05
-1.15808e-05
-1.17546e-05
-1.19342e-05
-1.20508e-05
-1.20767e-05
-1.19836e-05
-1.17404e-05
-1.13193e-05
-1.0697e-05
-9.85691e-06
-8.79104e-06
-7.50124e-06
-5.99614e-06
-4.28397e-06
-2.36216e-06
-2.05856e-07
2.08468e-06
4.28574e-06
6.30735e-06
8.19037e-06
9.94865e-06
1.15712e-05
1.30268e-05
1.42715e-05
1.52608e-05
1.59664e-05
1.63909e-05
1.65698e-05
1.65589e-05
1.64133e-05
1.61819e-05
1.59581e-05
-1.39294e-05
-1.41967e-05
-1.44627e-05
-1.4615e-05
-1.46134e-05
-1.44254e-05
-1.40226e-05
-1.33863e-05
-1.25075e-05
-1.13867e-05
-1.0035e-05
-8.47295e-06
-6.72357e-06
-4.80246e-06
-2.70665e-06
-4.04338e-07
2.01163e-06
4.32904e-06
6.47625e-06
8.51454e-06
1.04769e-05
1.23685e-05
1.41657e-05
1.58154e-05
1.72396e-05
1.83544e-05
1.9102e-05
1.94778e-05
1.95298e-05
1.93302e-05
1.89597e-05
1.85859e-05
-1.66478e-05
-1.7065e-05
-1.74532e-05
-1.76261e-05
-1.75354e-05
-1.71602e-05
-1.64929e-05
-1.55403e-05
-1.43182e-05
-1.28518e-05
-1.11755e-05
-9.32794e-06
-7.34119e-06
-5.23134e-06
-2.9889e-06
-5.72011e-07
1.93532e-06
4.33166e-06
6.56149e-06
8.70411e-06
1.08134e-05
1.29193e-05
1.50257e-05
1.71e-05
1.90601e-05
2.07716e-05
2.20809e-05
2.28785e-05
2.31436e-05
2.29317e-05
2.23581e-05
2.17301e-05
-1.99733e-05
-2.06099e-05
-2.1136e-05
-2.12507e-05
-2.09283e-05
-2.02014e-05
-1.91148e-05
-1.77173e-05
-1.60572e-05
-1.41877e-05
-1.21646e-05
-1.00368e-05
-7.83475e-06
-5.56549e-06
-3.20704e-06
-7.05496e-07
1.86407e-06
4.30894e-06
6.58547e-06
8.78584e-06
1.09805e-05
1.32249e-05
1.55607e-05
1.80065e-05
2.05309e-05
2.30068e-05
2.51949e-05
2.68119e-05
2.76476e-05
2.76282e-05
2.68539e-05
2.58618e-05
-2.4375e-05
-2.52735e-05
-2.58549e-05
-2.56767e-05
-2.48295e-05
-2.34806e-05
-2.17637e-05
-1.97765e-05
-1.75968e-05
-1.52974e-05
-1.29406e-05
-1.05671e-05
-8.191e-06
-5.80128e-06
-3.36015e-06
-8.01895e-07
1.80605e-06
4.27718e-06
6.57525e-06
8.79993e-06
1.10321e-05
1.33459e-05
1.58186e-05
1.8532e-05
2.15549e-05
2.48617e-05
2.82253e-05
3.11992e-05
3.32542e-05
3.39662e-05
3.32295e-05
3.18604e-05
-3.06897e-05
-3.17427e-05
-3.20165e-05
-3.09922e-05
-2.90938e-05
-2.6733e-05
-2.41468e-05
-2.14601e-05
-1.87463e-05
-1.6062e-05
-1.34418e-05
-1.08938e-05
-8.40374e-06
-5.93991e-06
-3.45039e-06
-8.60799e-07
1.76645e-06
4.24882e-06
6.5535e-06
8.78404e-06
1.10271e-05
1.33691e-05
1.59148e-05
1.88039e-05
2.22221e-05
2.63187e-05
3.10244e-05
3.58876e-05
4.00617e-05
4.253e-05
4.25739e-05
4.11228e-05
-4.04283e-05
-4.10147e-05
-3.99478e-05
-3.69858e-05
-3.32446e-05
-2.94336e-05
-2.5821e-05
-2.24636e-05
-1.93344e-05
-1.64072e-05
-1.36487e-05
-1.10218e-05
-8.4854e-06
-5.99344e-06
-3.4866e-06
-8.86836e-07
1.74548e-06
4.22883e-06
6.5319e-06
8.75978e-06
1.10026e-05
1.33555e-05
1.59446e-05
1.89602e-05
2.26927e-05
2.74954e-05
3.3564e-05
4.07144e-05
4.80253e-05
5.38506e-05
5.63234e-05
5.58829e-05
-5.61489e-05
-5.43197e-05
-4.9565e-05
-4.29159e-05
-3.64354e-05
-3.09165e-05
-2.63886e-05
-2.2611e-05
-1.93271e-05
-1.63618e-05
-1.36067e-05
-1.09926e-05
-8.46766e-06
-5.98416e-06
-3.4835e-06
-8.88992e-07
1.73815e-06
4.21566e-06
6.5119e-06
8.73207e-06
1.09683e-05
1.33219e-05
1.59349e-05
1.90358e-05
2.29992e-05
2.83614e-05
3.56873e-05
4.52765e-05
5.66629e-05
6.79605e-05
7.58504e-05
7.91265e-05
-8.29434e-05
-7.27102e-05
-5.94272e-05
-4.70642e-05
-3.74618e-05
-3.05872e-05
-2.56892e-05
-2.19607e-05
-1.88444e-05
-1.60386e-05
-1.34003e-05
-1.08635e-05
-8.38791e-06
-5.93601e-06
-3.45631e-06
-8.76851e-07
1.73833e-06
4.20503e-06
6.49003e-06
8.69723e-06
1.09187e-05
1.32573e-05
1.58618e-05
1.8978e-05
2.30245e-05
2.86646e-05
3.68032e-05
4.84454e-05
6.42221e-05
8.32406e-05
0.00010206
0.000116159
-0.000143682
-9.78211e-05
-6.56102e-05
-4.66669e-05
-3.51662e-05
-2.82376e-05
-2.39004e-05
-2.07604e-05
-1.80876e-05
-1.5573e-05
-1.3114e-05
-1.0686e-05
-8.27755e-06
-5.86834e-06
-3.41702e-06
-8.57884e-07
1.74128e-06
4.1937e-06
6.46362e-06
8.65237e-06
1.08492e-05
1.31534e-05
1.57067e-05
1.87437e-05
2.2667e-05
2.81499e-05
3.62568e-05
4.8616e-05
6.74879e-05
9.5534e-05
0.000137028
0.000192207
-0.000267275
-0.000129868
-6.75282e-05
-4.32361e-05
-3.12874e-05
-2.5249e-05
-2.19516e-05
-1.95751e-05
-1.73836e-05
-1.51529e-05
-1.2858e-05
-1.05269e-05
-8.17794e-06
-5.80678e-06
-3.38097e-06
-8.40288e-07
1.74424e-06
4.18341e-06
6.43912e-06
8.60984e-06
1.07812e-05
1.30458e-05
1.55326e-05
1.84493e-05
2.21486e-05
2.72318e-05
3.47291e-05
4.65595e-05
6.65347e-05
0.000102615
0.000178434
0.000327569
)
;

boundaryField
{
    movingWall
    {
        type            zeroGradient;
    }
    fixedWalls
    {
        type            zeroGradient;
    }
    frontAndBack
    {
        type            empty;
    }
}


// ************************************************************************* //
