/*--------------------------------*- C++ -*----------------------------------*\
| =========                 |                                                 |
| \\      /  F ield         | OpenFOAM: The Open Source CFD Toolbox           |
|  \\    /   O peration     | Version:  2206                                  |
|   \\  /    A nd           | Website:  www.openfoam.com                      |
|    \\/     M anipulation  |                                                 |
\*---------------------------------------------------------------------------*/
FoamFile
{
    version     2.0;
    format      ascii;
    arch        "LSB;label=64;scalar=64";
    class       volScalarField;
    location    "0.03";
    object      f_Bilger;
}
// * * * * * * * * * * * * * * * * * * * * * * * * * * * * * * * * * * * * * //

dimensions      [0 0 0 0 0 0 0];

internalField   nonuniform List<scalar> 
4000
(
0.998871
0.994735
0.988144
0.978277
0.96428
0.94538
0.920995
0.890833
0.854961
0.81396
0.769109
0.721529
0.672386
0.622793
0.573747
0.526085
0.480472
0.437393
0.397174
0.359996
0.325922
0.294921
0.266895
0.241695
0.21914
0.199036
0.181172
0.165361
0.151267
0.138836
0.12788
0.118249
0.109802
0.102405
0.0959374
0.0902914
0.0853694
0.0810842
0.0773581
0.0741216
0.0713132
0.0688781
0.0667674
0.0649381
0.063352
0.0619753
0.060778
0.0597336
0.0588187
0.0580126
0.057298
0.0566583
0.0560757
0.0555392
0.055039
0.0545623
0.0540995
0.0536389
0.0531741
0.052697
0.0521997
0.0516746
0.0511141
0.0505106
0.049857
0.049146
0.0483704
0.0475231
0.0465974
0.0455864
0.0444842
0.0432849
0.0419833
0.0405747
0.0390557
0.0374237
0.0356801
0.0338279
0.0318712
0.0298149
0.0276647
0.0254251
0.0231113
0.0207421
0.0183437
0.0159412
0.0135575
0.0112613
0.00909621
0.00710336
0.00534103
0.00386117
0.00267114
0.0017586
0.00109383
0.000635711
0.000338844
0.000159596
6.01305e-05
1.04721e-05
0.998966
0.995181
0.989166
0.980173
0.967404
0.9501
0.927634
0.899599
0.865897
0.827003
0.783982
0.737842
0.689689
0.640625
0.591675
0.543735
0.497538
0.453648
0.41246
0.37422
0.339044
0.306944
0.277853
0.251646
0.228156
0.207219
0.188481
0.171649
0.15687
0.143794
0.132278
0.12215
0.113259
0.105466
0.0986452
0.0926844
0.0874821
0.0829474
0.0789992
0.0755651
0.0725807
0.0699887
0.0677385
0.0657849
0.064088
0.0626125
0.061327
0.0602039
0.0592185
0.058349
0.0575774
0.0568867
0.0562573
0.0556782
0.0551395
0.0546256
0.0541299
0.053637
0.0531414
0.0526343
0.0521075
0.0515536
0.0509643
0.0503319
0.0496487
0.0489074
0.0481005
0.0472208
0.0462614
0.0452158
0.0440789
0.0428441
0.0415059
0.0400604
0.0385044
0.0368367
0.035056
0.0331638
0.031165
0.0290694
0.0268903
0.0246386
0.0223189
0.0199529
0.0175742
0.0152173
0.0129295
0.0107195
0.00862856
0.00670492
0.00501278
0.00360035
0.00247317
0.0016163
0.000997919
0.000575896
0.000305007
0.000142856
5.35554e-05
9.28323e-06
0.999048
0.995559
0.989998
0.981667
0.969812
0.953702
0.932716
0.906424
0.874667
0.837896
0.796985
0.752816
0.706379
0.658692
0.610727
0.563364
0.517351
0.473289
0.43163
0.392682
0.356625
0.323531
0.293386
0.266133
0.241496
0.219149
0.199047
0.181319
0.16557
0.151643
0.139341
0.128492
0.11894
0.110545
0.103178
0.0967215
0.0910711
0.0861322
0.0818198
0.0780582
0.0747795
0.0719235
0.0694364
0.0672704
0.0653832
0.063737
0.0622985
0.0610381
0.0599293
0.0589487
0.0580768
0.0572964
0.0565845
0.05593
0.055323
0.0547453
0.0541901
0.0536417
0.0530932
0.0525351
0.0519581
0.0513551
0.0507182
0.0500397
0.049312
0.0485275
0.047679
0.0467596
0.0457628
0.0446831
0.0435165
0.0422488
0.0408784
0.0394025
0.0378165
0.0361193
0.0343114
0.0323951
0.0303738
0.0282511
0.0260265
0.0237371
0.0213968
0.0190309
0.0166795
0.0143631
0.0121151
0.00997227
0.00797231
0.00615472
0.0045726
0.0032661
0.00223309
0.00145391
0.000895109
0.000515517
0.000272641
0.000127551
4.77582e-05
8.26758e-06
0.999109
0.995832
0.990592
0.982725
0.971507
0.956236
0.93631
0.911302
0.881034
0.845981
0.806879
0.764521
0.719804
0.67366
0.626993
0.580633
0.535305
0.491612
0.450024
0.410885
0.374419
0.340765
0.309819
0.281305
0.255231
0.231866
0.211066
0.192433
0.175798
0.160993
0.14785
0.136209
0.125918
0.116838
0.108838
0.101801
0.0956182
0.0901931
0.085438
0.081274
0.0776303
0.0744438
0.0716578
0.069222
0.0670912
0.0652254
0.0635888
0.0621497
0.0608796
0.0597534
0.0587494
0.0578505
0.0570297
0.0562759
0.0555788
0.0549178
0.0542862
0.0536651
0.0530489
0.052428
0.0517938
0.0511356
0.0504455
0.0497157
0.0489378
0.0481042
0.0472073
0.0462398
0.0451939
0.0440618
0.0428341
0.0415144
0.0400955
0.0385734
0.0369479
0.0352189
0.033388
0.0314595
0.0294412
0.0273453
0.0251884
0.0229509
0.0206459
0.0182961
0.0159671
0.0136924
0.011504
0.0094359
0.00751866
0.00578706
0.00428686
0.00305419
0.00208335
0.00135341
0.00083136
0.000477649
0.000251935
0.000117499
4.38346e-05
7.56106e-06
0.999148
0.996009
0.990975
0.983405
0.972601
0.957887
0.938684
0.914583
0.885408
0.851685
0.814042
0.773212
0.730023
0.685335
0.639988
0.59476
0.550341
0.507315
0.466151
0.427221
0.390674
0.35636
0.324411
0.295272
0.268915
0.244982
0.223359
0.203897
0.186437
0.17082
0.156888
0.144488
0.133475
0.123712
0.115072
0.107437
0.100699
0.0947608
0.0895328
0.0849345
0.080893
0.0773429
0.0742254
0.0714878
0.0690827
0.0669679
0.0651053
0.0634612
0.0620052
0.0607103
0.0595526
0.0585158
0.0575683
0.0566983
0.055896
0.0551373
0.0544163
0.0537108
0.0530152
0.0523193
0.0516133
0.0508873
0.0501323
0.0493391
0.0485
0.0476068
0.0466521
0.0456283
0.0445289
0.0433475
0.0420785
0.0407176
0.0392609
0.0377064
0.0360537
0.0343036
0.0324592
0.030526
0.0285126
0.0264302
0.0242913
0.0221072
0.0198849
0.0176465
0.0154029
0.0131941
0.0110556
0.00904292
0.00718812
0.00552198
0.00408327
0.00290572
0.00198021
0.00128529
0.00078877
0.000452638
0.000238354
0.000110921
4.12623e-05
7.096e-06
0.999174
0.996125
0.991226
0.983853
0.973329
0.958999
0.940306
0.916861
0.8885
0.8558
0.819309
0.779721
0.737812
0.694391
0.650245
0.606108
0.562635
0.520389
0.479775
0.440942
0.404104
0.369607
0.337856
0.308583
0.281752
0.257276
0.235045
0.21493
0.196792
0.180485
0.165864
0.152787
0.141116
0.130719
0.121475
0.113268
0.105992
0.0995496
0.0938518
0.0888174
0.0843726
0.0804506
0.0769912
0.0739397
0.0712473
0.0688698
0.0667674
0.0649045
0.0632489
0.0617719
0.0604474
0.0592592
0.0581788
0.0571808
0.0562632
0.055397
0.0545782
0.0537803
0.0529987
0.052222
0.0514394
0.0506411
0.0498173
0.0489592
0.0480583
0.0471065
0.0460962
0.0450203
0.0438722
0.042646
0.0413366
0.0399397
0.0384522
0.0368723
0.0352005
0.0334383
0.0315895
0.0296601
0.0276591
0.0255982
0.023491
0.0213487
0.0191776
0.0169921
0.0148239
0.0127084
0.0106772
0.00874419
0.00695235
0.00533814
0.00393879
0.0027987
0.00190506
0.00123528
0.000757398
0.000434328
0.000228505
0.000106192
3.94243e-05
6.76422e-06
0.999192
0.996204
0.991396
0.984158
0.973829
0.959772
0.941448
0.918485
0.890778
0.85888
0.823309
0.784731
0.743886
0.701542
0.658447
0.615298
0.572704
0.531075
0.490703
0.452005
0.415561
0.381563
0.34983
0.32042
0.293322
0.268479
0.245803
0.225186
0.206505
0.18963
0.174429
0.160769
0.148521
0.13756
0.12777
0.119038
0.111262
0.104346
0.0982024
0.0927499
0.0879147
0.0836297
0.0798336
0.0764711
0.0734917
0.0708501
0.0685051
0.0664196
0.06456
0.0628962
0.0614006
0.0600554
0.0588344
0.0577051
0.0566682
0.0556884
0.0547682
0.0538745
0.0530045
0.0521449
0.0512846
0.0504132
0.0495207
0.0485982
0.0476368
0.0466286
0.0455657
0.0444413
0.043249
0.041983
0.0406387
0.039212
0.0377002
0.0361017
0.0344177
0.0326502
0.0308033
0.0288834
0.0268993
0.024863
0.0227883
0.0206879
0.0185687
0.016438
0.0143254
0.012268
0.0102935
0.00843098
0.00671096
0.00516263
0.00382502
0.00272207
0.00185361
0.00120147
0.000735555
0.000421173
0.000221309
0.000102703
3.80577e-05
6.51603e-06
0.999205
0.996262
0.991521
0.984383
0.974201
0.960353
0.942318
0.919735
0.892564
0.861316
0.8265
0.788757
0.7488
0.707368
0.66518
0.622854
0.580826
0.539581
0.499814
0.461929
0.425942
0.39205
0.360346
0.330867
0.303603
0.278509
0.25551
0.234511
0.215404
0.198071
0.18239
0.168238
0.155496
0.144045
0.133772
0.124573
0.116345
0.108998
0.102443
0.0966019
0.0914008
0.0867727
0.0826562
0.0789953
0.075739
0.0728409
0.0702589
0.0679549
0.0658941
0.0640452
0.0623795
0.0608773
0.0595145
0.0582532
0.0570965
0.0560044
0.0549827
0.0539938
0.0530348
0.0520926
0.0511554
0.0502122
0.0492529
0.0482682
0.0472492
0.0461878
0.0450762
0.0439076
0.0426757
0.041375
0.0400008
0.0385497
0.037019
0.0354076
0.0337164
0.0319483
0.0301073
0.0281999
0.026235
0.0242242
0.0221817
0.0201205
0.0180489
0.0159694
0.0139071
0.0119021
0.0099807
0.00817115
0.00650222
0.00500181
0.00370311
0.00263787
0.00179938
0.00116869
0.000717527
0.000411276
0.000215981
0.000100089
3.70141e-05
6.32367e-06
0.999216
0.996309
0.991622
0.984566
0.974505
0.960832
0.943038
0.920774
0.894055
0.863356
0.829175
0.792135
0.75293
0.712268
0.67077
0.62898
0.587524
0.547114
0.508004
0.470495
0.434812
0.401115
0.369502
0.340019
0.312664
0.2874
0.264166
0.242876
0.223433
0.205731
0.189656
0.175095
0.161933
0.150061
0.139371
0.12976
0.121133
0.113399
0.106474
0.100279
0.094743
0.0897984
0.0853842
0.0814444
0.0779276
0.0747869
0.0719797
0.0694669
0.0672129
0.0651855
0.0633553
0.0617006
0.0601997
0.0588097
0.0575361
0.0563346
0.0552141
0.0541322
0.0530871
0.052065
0.0510536
0.0500417
0.0490188
0.0479753
0.0469024
0.0457917
0.0446356
0.0434271
0.04216
0.040829
0.0394297
0.0379585
0.0364132
0.0347927
0.0330979
0.031332
0.0294991
0.0276057
0.0256603
0.0236744
0.0216621
0.0196372
0.0176078
0.0155748
0.0135577
0.0115989
0.00972366
0.00795935
0.00633353
0.00487284
0.00360783
0.00257037
0.00175356
0.00113902
0.00069907
0.000400806
0.000210604
9.76318e-05
3.6104e-05
6.1661e-06
0.999225
0.99635
0.991711
0.984728
0.974774
0.961255
0.943674
0.921692
0.895365
0.86514
0.831505
0.795069
0.756493
0.716392
0.67538
0.63423
0.593555
0.553691
0.515034
0.477889
0.442485
0.40898
0.377474
0.348017
0.320613
0.295233
0.271824
0.250309
0.2306
0.212598
0.196199
0.181296
0.167782
0.15555
0.1445
0.134533
0.125556
0.117481
0.110227
0.103717
0.0978785
0.0926472
0.0879618
0.0837665
0.0800098
0.0766446
0.0736278
0.0709199
0.0684848
0.0662894
0.0643037
0.0625042
0.0608722
0.0593595
0.0579744
0.0566686
0.0554534
0.0542841
0.0531578
0.05206
0.0509786
0.0499019
0.0488195
0.0477214
0.0465987
0.0454429
0.0442464
0.0430022
0.0417041
0.0403468
0.0389261
0.0374384
0.0358816
0.0342548
0.0325586
0.0307965
0.0289726
0.0270932
0.0251667
0.0232041
0.0212192
0.0192266
0.0172343
0.0152425
0.0132657
0.0113467
0.00951115
0.00778532
0.00619586
0.00476834
0.00353152
0.00251696
0.00171787
0.00111634
0.000685425
0.000393121
0.000206607
9.57716e-05
3.53991e-05
6.04091e-06
0.999233
0.996387
0.991793
0.984876
0.975022
0.961644
0.944256
0.922528
0.896549
0.86674
0.833579
0.79765
0.759545
0.719927
0.679586
0.639053
0.598848
0.55942
0.521142
0.484311
0.44915
0.415818
0.384416
0.354994
0.327563
0.302099
0.278555
0.256862
0.236938
0.218692
0.202025
0.186836
0.173024
0.160488
0.149129
0.138855
0.129575
0.121203
0.11366
0.106871
0.100765
0.0952778
0.0903493
0.0859238
0.0819501
0.0783809
0.0751729
0.0722863
0.0696845
0.0673341
0.0652044
0.0632707
0.0615166
0.0598895
0.0584001
0.0569962
0.0556888
0.0544481
0.0532432
0.0520743
0.0509276
0.0497911
0.0486537
0.0475056
0.0463375
0.0451409
0.0439081
0.0426321
0.0413067
0.0399267
0.0384876
0.0369863
0.0354204
0.0337891
0.0320928
0.0303351
0.0285202
0.0266541
0.024745
0.0228035
0.0208431
0.0188786
0.0169185
0.0149623
0.0130212
0.0111361
0.0093341
0.00764084
0.00608194
0.00468216
0.00346895
0.00247349
0.00168905
0.00109817
0.000674587
0.000387046
0.000203453
9.43036e-05
3.48426e-05
5.94213e-06
0.999241
0.996422
0.991869
0.985014
0.975251
0.962003
0.944792
0.923294
0.897622
0.868178
0.835422
0.799888
0.762226
0.723187
0.683335
0.643256
0.603467
0.564411
0.526454
0.489889
0.454937
0.421754
0.390442
0.361056
0.333608
0.30808
0.284428
0.262591
0.242491
0.224042
0.207152
0.191725
0.177662
0.164868
0.153248
0.142711
0.133169
0.124541
0.116747
0.109715
0.103375
0.0976627
0.0925196
0.0878901
0.0837232
0.0799717
0.0765923
0.0735449
0.0707928
0.0683021
0.0660418
0.0639858
0.0621206
0.0603893
0.058805
0.0573124
0.0559216
0.0546091
0.053335
0.0521022
0.0508964
0.0497055
0.0485185
0.0473252
0.0461163
0.0448832
0.0436182
0.0423141
0.0409648
0.0395651
0.0381104
0.0365976
0.0350243
0.0333897
0.0316941
0.029941
0.0281346
0.0262806
0.024387
0.0224642
0.0205251
0.0185847
0.0166527
0.0147263
0.0128164
0.0109597
0.00918614
0.00752027
0.005987
0.00461038
0.00341697
0.00243748
0.00166526
0.00108323
0.000665707
0.000382089
0.000200891
9.31158e-05
3.43942e-05
5.86288e-06
0.999248
0.996454
0.991938
0.98514
0.975461
0.962331
0.94528
0.923988
0.898587
0.869457
0.837027
0.801875
0.76469
0.726062
0.686613
0.646915
0.607477
0.568734
0.531048
0.494707
0.459929
0.426872
0.395638
0.366283
0.338822
0.313243
0.289504
0.267547
0.247302
0.228686
0.21161
0.195982
0.181709
0.168698
0.156856
0.146096
0.136333
0.127486
0.119477
0.112235
0.105692
0.0997856
0.0944558
0.0896482
0.0853121
0.0814006
0.0778701
0.0746807
0.0717953
0.06918
0.0668035
0.0646386
0.0626743
0.06085
0.059181
0.057609
0.0561432
0.0547649
0.0534291
0.052139
0.0508805
0.0496413
0.0484101
0.0471767
0.0459317
0.0446664
0.043373
0.0420445
0.0406745
0.0392577
0.0377897
0.0362673
0.034688
0.033051
0.0313564
0.0296076
0.0278087
0.0259655
0.0240855
0.0221789
0.0202583
0.0183384
0.0164298
0.014529
0.0126452
0.0108126
0.00906283
0.00741987
0.00590798
0.00455064
0.00337377
0.00240759
0.00164554
0.00107086
0.000658378
0.000378015
0.000198796
9.21509e-05
3.40325e-05
5.79932e-06
0.999255
0.996483
0.992
0.985253
0.975648
0.962623
0.945713
0.924602
0.899434
0.870563
0.83844
0.803665
0.766822
0.728541
0.689432
0.650056
0.610914
0.572434
0.534974
0.498819
0.464187
0.431234
0.400065
0.370735
0.343265
0.317642
0.293831
0.271777
0.251412
0.232657
0.215427
0.199633
0.185185
0.171992
0.159965
0.149019
0.139068
0.130036
0.121845
0.114426
0.107711
0.101638
0.0961484
0.0911881
0.0867066
0.0826569
0.0789959
0.0756833
0.0726822
0.0699583
0.0674803
0.0652201
0.0631693
0.0612646
0.0595215
0.0578796
0.0563475
0.0549112
0.0535209
0.0521806
0.050876
0.0495944
0.0483246
0.0470562
0.0457798
0.0444867
0.0431688
0.0418191
0.0404314
0.0390001
0.0375209
0.0359903
0.0344062
0.0327672
0.0310738
0.0293288
0.0275366
0.0257026
0.0238344
0.0219416
0.0200367
0.0181341
0.0162447
0.0143659
0.0125035
0.0106909
0.00896099
0.00733704
0.00584283
0.00450142
0.00333823
0.00238304
0.00162938
0.0010608
0.000652475
0.000374761
0.000197134
9.13896e-05
3.3748e-05
5.74944e-06
0.99926
0.996507
0.992054
0.985351
0.97581
0.962876
0.946086
0.92513
0.900157
0.871517
0.839682
0.805183
0.768629
0.730639
0.691813
0.652703
0.613805
0.575542
0.538268
0.502267
0.467754
0.434887
0.403769
0.374461
0.346983
0.321325
0.297455
0.275321
0.254857
0.235989
0.218632
0.202702
0.18811
0.174768
0.162589
0.151487
0.141383
0.132197
0.123855
0.116288
0.109429
0.103217
0.0975936
0.092505
0.0879009
0.0837348
0.0799632
0.0765463
0.0734467
0.0706302
0.0680652
0.0657224
0.0635933
0.0616336
0.0598236
0.0581202
0.0565306
0.0550439
0.0536066
0.0522231
0.0508789
0.0495611
0.0482584
0.0469602
0.0456571
0.0443402
0.0430016
0.0416341
0.0402314
0.0387879
0.0372993
0.0357621
0.0341739
0.0325336
0.0308411
0.0290996
0.027313
0.0254869
0.0236285
0.0217472
0.0198553
0.0179672
0.0160936
0.0142327
0.012388
0.0105919
0.00887823
0.00726983
0.00579006
0.00446161
0.00330957
0.00236335
0.00161658
0.00105289
0.000647849
0.000372225
0.000195847
9.08037e-05
3.35309e-05
5.71144e-06
0.999264
0.996527
0.992098
0.985432
0.975945
0.963086
0.946397
0.92557
0.900759
0.872327
0.840704
0.806433
0.770115
0.732362
0.693764
0.654871
0.61617
0.578083
0.54096
0.505082
0.470665
0.437867
0.406791
0.3775
0.350015
0.324329
0.300412
0.278213
0.257671
0.238711
0.221254
0.205214
0.190507
0.177044
0.164742
0.153516
0.143286
0.133976
0.125512
0.117825
0.110849
0.104524
0.0987911
0.0935975
0.0888932
0.0846314
0.0807691
0.0772661
0.0740854
0.0711927
0.068556
0.0661463
0.0639546
0.0619404
0.060078
0.0583246
0.0566877
0.0551592
0.0536827
0.0522633
0.0508861
0.0495383
0.0482082
0.0468853
0.0455601
0.0442236
0.0428679
0.0414857
0.0400707
0.0386173
0.0371211
0.0355784
0.033987
0.0323455
0.0306541
0.0289153
0.0271334
0.0253137
0.0234633
0.0215915
0.0197102
0.0178337
0.0159729
0.0141264
0.012296
0.0105131
0.0088125
0.00721656
0.00574834
0.00443024
0.00328711
0.00234805
0.00160673
0.00104693
0.000644446
0.000370378
0.000194912
9.03768e-05
3.33708e-05
5.68316e-06
0.999268
0.996543
0.992133
0.985496
0.976051
0.963251
0.946643
0.925919
0.901244
0.872962
0.841507
0.807417
0.771285
0.733717
0.6953
0.656576
0.61803
0.58008
0.543074
0.507292
0.472951
0.440206
0.409163
0.379885
0.352395
0.326688
0.302734
0.280485
0.259882
0.240852
0.223316
0.207191
0.192394
0.178838
0.16644
0.155117
0.14479
0.135383
0.126824
0.119043
0.111975
0.105561
0.0997428
0.0944668
0.0896834
0.0853463
0.0814124
0.0778415
0.0745967
0.0716436
0.0689503
0.0664874
0.0642453
0.0621862
0.0602819
0.0584891
0.0568148
0.0552532
0.0537458
0.0522979
0.0508947
0.0495229
0.0481711
0.0468286
0.0454858
0.0441338
0.0427646
0.0413708
0.039946
0.0384848
0.0369825
0.0354357
0.0338417
0.0321994
0.0305087
0.0287722
0.026994
0.0251793
0.0233352
0.0214708
0.0195978
0.0177305
0.0158796
0.0140443
0.0122249
0.0104524
0.00876194
0.00717567
0.00571638
0.00440631
0.00327015
0.00233679
0.00159949
0.00104243
0.000641767
0.000368907
0.00019417
9.00424e-05
3.32483e-05
5.66206e-06
0.99927
0.996555
0.992159
0.985543
0.976129
0.963372
0.946823
0.926175
0.901599
0.873429
0.842099
0.808142
0.772148
0.734717
0.696432
0.657833
0.619401
0.581552
0.544633
0.508922
0.474636
0.44193
0.410912
0.381644
0.35415
0.328427
0.304447
0.282162
0.261514
0.242433
0.224839
0.208653
0.19379
0.180166
0.167698
0.156304
0.145906
0.136427
0.127798
0.119948
0.112813
0.106333
0.100452
0.0951148
0.090273
0.0858802
0.0818932
0.078272
0.0749797
0.0719817
0.0692464
0.0667442
0.0644646
0.0623718
0.0604362
0.0586137
0.0569118
0.0553253
0.0537945
0.0523254
0.0509026
0.049513
0.048145
0.0467879
0.045432
0.0440684
0.0426891
0.0412866
0.0398547
0.0383877
0.036881
0.035331
0.0337352
0.0320923
0.0304021
0.0286673
0.0268918
0.0250809
0.0232414
0.0213824
0.0195155
0.0176549
0.0158113
0.0139841
0.0121729
0.010408
0.00872496
0.0071458
0.00569313
0.00438899
0.00325795
0.00232827
0.0015939
0.001039
0.000639813
0.000367857
0.000193647
8.98083e-05
3.31625e-05
5.64723e-06
0.999272
0.996562
0.992175
0.985572
0.976178
0.963451
0.94694
0.926343
0.90183
0.873734
0.842485
0.808616
0.772711
0.73537
0.697173
0.658656
0.620299
0.582517
0.545654
0.509991
0.475741
0.443061
0.412059
0.382798
0.355302
0.329569
0.305572
0.283264
0.262587
0.243472
0.225841
0.209615
0.194709
0.18104
0.168526
0.157086
0.146641
0.137116
0.12844
0.120545
0.113366
0.106844
0.10092
0.0955436
0.0906634
0.0862338
0.0822119
0.0785576
0.0752338
0.0722063
0.0694432
0.066915
0.0646107
0.0624956
0.0605391
0.058697
0.0569766
0.0553737
0.0538275
0.0523441
0.0509084
0.0495069
0.0481282
0.0467613
0.0453968
0.0440256
0.0426395
0.0412314
0.0397947
0.0383238
0.0368142
0.0352621
0.0336651
0.0320218
0.0303321
0.0285983
0.0268246
0.0250161
0.0231797
0.0213243
0.0194614
0.0176052
0.0157663
0.0139444
0.0121386
0.0103787
0.0087006
0.00712613
0.00567776
0.00437738
0.00324946
0.0023225
0.00159018
0.00103674
0.000638514
0.00036716
0.0001933
8.96536e-05
3.3106e-05
5.63746e-06
0.999273
0.996565
0.992183
0.985586
0.976201
0.963487
0.946994
0.92642
0.901936
0.873876
0.842666
0.808839
0.772978
0.735681
0.697526
0.659049
0.620729
0.58298
0.546146
0.510506
0.476274
0.443608
0.412615
0.383358
0.355862
0.330125
0.306119
0.283801
0.26311
0.243979
0.226331
0.210085
0.195158
0.181468
0.168932
0.157469
0.147002
0.137454
0.128756
0.120839
0.113638
0.107095
0.101151
0.0957546
0.0908556
0.0864081
0.0823689
0.0786983
0.0753591
0.0723171
0.0695402
0.0669992
0.0646827
0.0625566
0.0605899
0.0587381
0.0570085
0.0553974
0.0538435
0.0523532
0.050911
0.0495037
0.0481196
0.046748
0.0453791
0.0440041
0.0426148
0.0412038
0.0397648
0.0382921
0.036781
0.0352279
0.0336303
0.0319868
0.0302973
0.0285641
0.0267913
0.024984
0.0231491
0.0212955
0.0194345
0.0175804
0.0157439
0.0139245
0.0121213
0.0103638
0.00868812
0.00711592
0.00566967
0.00437124
0.00324508
0.00231951
0.00158824
0.00103555
0.000637828
0.000366788
0.000193115
8.95702e-05
3.30755e-05
5.63216e-06
0.999273
0.996565
0.992182
0.985584
0.976199
0.963483
0.946988
0.926413
0.901927
0.873864
0.842654
0.808825
0.772963
0.735665
0.69751
0.659032
0.620712
0.582963
0.546129
0.510489
0.476258
0.443592
0.4126
0.383343
0.355847
0.330111
0.306106
0.283788
0.263098
0.243967
0.22632
0.210074
0.195149
0.181459
0.168924
0.157461
0.146994
0.137448
0.12875
0.120833
0.113633
0.10709
0.101147
0.0957505
0.0908518
0.0864046
0.0823657
0.0786954
0.0753565
0.0723146
0.069538
0.0669972
0.0646809
0.0625549
0.0605884
0.0587367
0.0570072
0.0553962
0.0538424
0.0523521
0.0509099
0.0495027
0.0481186
0.046747
0.0453782
0.0440032
0.0426139
0.041203
0.039764
0.0382912
0.0367802
0.0352271
0.0336295
0.0319861
0.0302966
0.0285633
0.0267906
0.0249833
0.0231484
0.0212948
0.0194338
0.0175797
0.0157432
0.0139239
0.0121207
0.0103632
0.00868751
0.00711536
0.00566915
0.00437079
0.00324472
0.00231924
0.00158804
0.00103541
0.00063774
0.000366737
0.000193088
8.95576e-05
3.30708e-05
5.63136e-06
0.999272
0.996561
0.992173
0.985568
0.976172
0.96344
0.946925
0.926323
0.901805
0.873704
0.842451
0.808578
0.77267
0.735327
0.697127
0.658609
0.620251
0.582468
0.545606
0.509943
0.475693
0.443015
0.412014
0.382754
0.35526
0.329528
0.305532
0.283226
0.262551
0.243438
0.225809
0.209584
0.19468
0.181013
0.168501
0.157062
0.146619
0.137096
0.128422
0.120528
0.11335
0.106829
0.100907
0.0955312
0.0906521
0.0862235
0.0822024
0.0785489
0.075226
0.0721991
0.0694366
0.066909
0.0646053
0.0624906
0.0605346
0.0586928
0.0569727
0.0553701
0.053824
0.0523408
0.0509052
0.049504
0.0481253
0.0467586
0.0453941
0.0440229
0.042637
0.0412289
0.0397922
0.0383214
0.0368118
0.0352598
0.0336628
0.0320195
0.0303298
0.0285961
0.0268225
0.025014
0.0231776
0.0213223
0.0194595
0.0176033
0.0157645
0.0139426
0.0121368
0.0103769
0.00869893
0.00712455
0.00567631
0.00437613
0.00324854
0.0023218
0.00158967
0.00103639
0.000638294
0.000367031
0.000193232
8.96215e-05
3.30941e-05
5.63541e-06
0.99927
0.996553
0.992156
0.985537
0.97612
0.96336
0.946805
0.926151
0.901567
0.873391
0.842054
0.808091
0.77209
0.734654
0.696365
0.657763
0.619329
0.581478
0.544558
0.508847
0.47456
0.441856
0.410839
0.381572
0.354081
0.32836
0.304382
0.2821
0.261455
0.242376
0.224786
0.208603
0.193743
0.180121
0.167656
0.156265
0.145869
0.136394
0.127766
0.119919
0.112787
0.106309
0.100429
0.0950942
0.0902542
0.085863
0.0818775
0.0782577
0.0749666
0.0719698
0.0692355
0.0667342
0.0644556
0.0623635
0.0604284
0.0586064
0.0569051
0.0553192
0.0537888
0.0523199
0.0508974
0.0495081
0.0481402
0.0467833
0.0454275
0.0440641
0.0426848
0.0412825
0.0398506
0.0383837
0.036877
0.0353271
0.0337314
0.0320886
0.0303985
0.0286637
0.0268884
0.0250775
0.0232382
0.0213793
0.0195126
0.0176521
0.0158086
0.0139815
0.0121705
0.0104057
0.0087229
0.00714396
0.00569149
0.00438754
0.00325671
0.00232731
0.00159321
0.00103854
0.000639524
0.000367691
0.00019356
8.97679e-05
3.31476e-05
5.64468e-06
0.999268
0.996542
0.992131
0.985491
0.976043
0.963239
0.946625
0.925892
0.901211
0.87292
0.841457
0.807358
0.771218
0.733642
0.695218
0.656489
0.617938
0.579984
0.542976
0.507193
0.472851
0.440106
0.409065
0.379788
0.3523
0.326596
0.302645
0.2804
0.2598
0.240774
0.223242
0.207122
0.192328
0.178777
0.166382
0.155063
0.14474
0.135337
0.126781
0.119003
0.111939
0.105528
0.099712
0.0944386
0.0896576
0.0853228
0.0813909
0.077822
0.0745789
0.0716273
0.0689354
0.0664738
0.0642329
0.0621746
0.0602713
0.0584792
0.0568057
0.0552448
0.0537378
0.0522905
0.0508876
0.0495161
0.0481646
0.0468223
0.0454797
0.0441279
0.0427587
0.0413651
0.0399404
0.0384793
0.0369771
0.0354304
0.0338365
0.0321944
0.0305038
0.0287674
0.0269894
0.0251749
0.0233309
0.0214667
0.019594
0.0177269
0.0158762
0.0140411
0.0122221
0.0104498
0.0087597
0.00717378
0.00571485
0.00440511
0.00326921
0.00233612
0.00159891
0.00104202
0.00064153
0.000368774
0.000194101
9.00107e-05
3.32364e-05
5.66002e-06
0.999264
0.996526
0.992096
0.985428
0.975938
0.963075
0.946381
0.925547
0.900727
0.872285
0.840651
0.80637
0.770042
0.732278
0.693671
0.65477
0.616062
0.577969
0.540842
0.504961
0.470542
0.437743
0.406669
0.377379
0.349896
0.324214
0.3003
0.278106
0.257568
0.238613
0.22116
0.205126
0.190424
0.176967
0.164669
0.153448
0.143223
0.133918
0.125458
0.117775
0.110803
0.104482
0.0987524
0.0935622
0.0888608
0.0846019
0.0807422
0.0772416
0.0740631
0.0711723
0.0685374
0.0661291
0.0639389
0.0619259
0.0600646
0.0583122
0.0566763
0.0551486
0.0536727
0.0522539
0.0508772
0.0495297
0.0482
0.0468774
0.0455523
0.0442161
0.0428605
0.0414785
0.0400636
0.0386104
0.0371142
0.0355717
0.0339805
0.0323392
0.0306479
0.0289093
0.0271276
0.0253082
0.023458
0.0215866
0.0197056
0.0178295
0.015969
0.0141229
0.0122928
0.0105104
0.00881024
0.00721474
0.00574694
0.00442925
0.00328648
0.00234768
0.00160668
0.0010469
0.000644395
0.000370339
0.000194887
9.03627e-05
3.3364e-05
5.68196e-06
0.99926
0.996506
0.992052
0.985347
0.975804
0.962865
0.94607
0.925107
0.900124
0.87148
0.839628
0.805115
0.768547
0.730545
0.691706
0.652586
0.613679
0.575409
0.538129
0.502123
0.467608
0.43474
0.403623
0.374316
0.34684
0.321186
0.29732
0.275191
0.254733
0.23587
0.21852
0.202597
0.188011
0.174675
0.162502
0.151406
0.141308
0.132127
0.123791
0.116229
0.109375
0.103167
0.0975478
0.0924631
0.0878627
0.0836999
0.0799314
0.0765172
0.0734202
0.0706061
0.0680431
0.0657021
0.0635749
0.0616165
0.0598078
0.0581056
0.0565173
0.0550315
0.0535949
0.0522121
0.0508684
0.049551
0.0482486
0.0469508
0.0456479
0.0443312
0.0429928
0.0416255
0.0402229
0.0387796
0.0372911
0.0357541
0.034166
0.0325259
0.0308337
0.0290924
0.0273061
0.0254803
0.0236223
0.0217415
0.01985
0.0179623
0.0160892
0.0142288
0.0123846
0.010589
0.00887586
0.00726797
0.00578867
0.00446063
0.00330888
0.00236297
0.00161633
0.00105279
0.000647817
0.000372216
0.000195843
9.08014e-05
3.35298e-05
5.71102e-06
0.999254
0.996481
0.991997
0.985248
0.975639
0.962609
0.945692
0.924572
0.899392
0.870502
0.838382
0.803585
0.766724
0.728429
0.689306
0.649918
0.610765
0.572277
0.53481
0.49865
0.464015
0.431061
0.399892
0.370564
0.343098
0.31748
0.293674
0.271626
0.251267
0.23252
0.215297
0.199511
0.18507
0.171885
0.159866
0.148926
0.138982
0.129956
0.121772
0.114359
0.107649
0.101581
0.0960965
0.0911407
0.0866633
0.0826175
0.0789599
0.0756505
0.0726522
0.069931
0.0674553
0.0651973
0.0631485
0.0612455
0.0595038
0.0578632
0.0563326
0.0548972
0.0535078
0.0521681
0.050864
0.0495829
0.0483134
0.0470454
0.0457692
0.0444763
0.0431586
0.0418091
0.0404215
0.0389904
0.0375113
0.035981
0.034397
0.0327583
0.0310651
0.0293205
0.0275286
0.025695
0.0238272
0.0219349
0.0200305
0.0181285
0.0162397
0.0143613
0.0124995
0.0106876
0.00895827
0.00733489
0.0058412
0.00450022
0.00333738
0.00238241
0.00162898
0.00106057
0.000652333
0.000374679
0.000197091
9.13691e-05
3.37407e-05
5.7482e-06
0.999248
0.996452
0.991934
0.985133
0.975448
0.962312
0.945251
0.923948
0.898533
0.869384
0.836928
0.801786
0.764572
0.725924
0.68646
0.646749
0.6073
0.568549
0.530856
0.494509
0.459728
0.426671
0.395438
0.366085
0.338629
0.313056
0.289323
0.267375
0.247138
0.228531
0.211464
0.195845
0.181581
0.168578
0.156745
0.145993
0.136238
0.127398
0.119396
0.112161
0.105624
0.0997234
0.094399
0.0895964
0.0852649
0.0813575
0.0778309
0.0746449
0.0717627
0.0691502
0.0667762
0.0646137
0.0626516
0.0608292
0.0591619
0.0575912
0.0561269
0.0547497
0.0534148
0.0521253
0.0508674
0.0496286
0.0483977
0.0471646
0.0459199
0.0446548
0.0433616
0.0420332
0.0406633
0.0392467
0.0377789
0.0362566
0.0346776
0.0330407
0.0313464
0.029598
0.0277995
0.0259566
0.0240772
0.0221711
0.0202511
0.0183319
0.0164239
0.0145236
0.0126405
0.0108085
0.00905948
0.00741718
0.00590587
0.00454906
0.00337263
0.0024068
0.001645
0.00107052
0.000658171
0.000377897
0.000198733
9.21206e-05
3.40207e-05
5.7972e-06
0.999241
0.99642
0.991863
0.985004
0.975234
0.961977
0.944754
0.923241
0.897552
0.868088
0.835305
0.799728
0.762064
0.723016
0.683151
0.64306
0.603259
0.564193
0.526229
0.489659
0.454703
0.421521
0.390212
0.36083
0.333389
0.307869
0.284226
0.262399
0.242309
0.223871
0.206991
0.191574
0.177522
0.164738
0.153127
0.1426
0.133067
0.124447
0.116661
0.109636
0.103302
0.0975967
0.0924594
0.0878352
0.0836732
0.0799262
0.0765509
0.0735072
0.0707584
0.0682707
0.066013
0.0639596
0.0620967
0.0603673
0.0587848
0.0572935
0.0559044
0.0545929
0.0533196
0.0520874
0.0508822
0.0496918
0.0485051
0.0473121
0.0461035
0.0448706
0.0436057
0.0423017
0.0409526
0.0395529
0.0380984
0.0365857
0.0350126
0.0333783
0.0316829
0.0299301
0.028124
0.0262705
0.0243775
0.0224552
0.0205168
0.0185771
0.0166457
0.0147199
0.0128106
0.0109548
0.00918197
0.00751684
0.00598426
0.00460827
0.00341542
0.00243638
0.00166452
0.00108275
0.000665415
0.00038192
0.0002008
9.30725e-05
3.43774e-05
5.85987e-06
0.999233
0.996384
0.991786
0.984863
0.975
0.96161
0.944208
0.922461
0.89646
0.866627
0.833444
0.797488
0.759352
0.719714
0.679359
0.638814
0.598599
0.559161
0.520876
0.484041
0.44888
0.415551
0.384154
0.35474
0.327318
0.301866
0.278333
0.256652
0.236741
0.218507
0.201853
0.186676
0.172876
0.160351
0.149003
0.138739
0.129468
0.121106
0.113571
0.106789
0.10069
0.0952099
0.0902875
0.0858676
0.0818989
0.0783343
0.0751305
0.0722477
0.0696493
0.067302
0.0651751
0.0632439
0.0614922
0.059867
0.0583793
0.0569767
0.055671
0.0544313
0.0532272
0.0520589
0.0509128
0.0497766
0.0486396
0.0474918
0.0463239
0.0451274
0.0438947
0.0426188
0.0412935
0.0399135
0.0384746
0.0369733
0.0354076
0.0337764
0.0320804
0.030323
0.0285084
0.0266428
0.0247342
0.0227932
0.0208335
0.0188697
0.0169102
0.0149547
0.0130143
0.0111301
0.00932898
0.00763657
0.00607849
0.00467946
0.00346694
0.00247205
0.00168807
0.00109753
0.000674193
0.000386816
0.00020333
9.42444e-05
3.48197e-05
5.93804e-06
0.999224
0.996346
0.991702
0.984711
0.974747
0.961214