/*--------------------------------*- C++ -*----------------------------------*\
| =========                 |                                                 |
| \\      /  F ield         | OpenFOAM: The Open Source CFD Toolbox           |
|  \\    /   O peration     | Version:  2206                                  |
|   \\  /    A nd           | Website:  www.openfoam.com                      |
|    \\/     M anipulation  |                                                 |
\*---------------------------------------------------------------------------*/
FoamFile
{
    version     2.0;
    format      ascii;
    arch        "LSB;label=64;scalar=64";
    class       volScalarField;
    location    "0.03";
    object      O2;
}
// * * * * * * * * * * * * * * * * * * * * * * * * * * * * * * * * * * * * * //

dimensions      [0 0 0 0 0 0 0];

internalField   nonuniform List<scalar> 
4000
(
3.73894e-12
1.99352e-11
5.76811e-11
1.47199e-10
3.54691e-10
8.16802e-10
1.79819e-09
3.77841e-09
7.57035e-09
1.4445e-08
2.61953e-08
4.54006e-08
7.55905e-08
1.21472e-07
1.892e-07
2.86683e-07
4.23949e-07
6.13544e-07
8.70992e-07
1.21531e-06
1.66955e-06
2.26144e-06
3.02404e-06
3.99644e-06
5.2245e-06
6.76175e-06
8.67027e-06
1.10219e-05
1.39005e-05
1.74019e-05
2.16386e-05
2.67416e-05
3.28659e-05
4.01963e-05
4.89554e-05
5.94133e-05
7.18996e-05
8.68201e-05
0.000104676
0.000126092
0.000151846
0.000182923
0.000220565
0.00026636
0.000322348
0.00039117
0.000476263
0.000582123
0.000714656
0.000881623
0.00109286
0.0013614
0.0017058
0.00214678
0.00270857
0.00343149
0.00434306
0.00547156
0.00682574
0.00840818
0.0102143
0.0122397
0.0144891
0.0169674
0.0196872
0.0226665
0.0259281
0.0294972
0.0334003
0.0376641
0.0423137
0.0473734
0.0528653
0.0588082
0.0652172
0.0721027
0.0794591
0.0872742
0.0955297
0.104206
0.113278
0.122727
0.132489
0.142486
0.152604
0.162741
0.172798
0.182486
0.191621
0.20003
0.207465
0.213709
0.21873
0.22258
0.225385
0.227318
0.22857
0.229327
0.229746
0.229956
4.71897e-12
2.51044e-11
7.22567e-11
1.83018e-10
4.37058e-10
9.96501e-10
2.17062e-09
4.51086e-09
8.9367e-09
1.68426e-08
3.01714e-08
5.16667e-08
8.5023e-08
1.351e-07
2.08171e-07
3.12219e-07
4.57266e-07
6.55746e-07
9.22929e-07
1.27737e-06
1.74141e-06
2.3417e-06
3.10975e-06
4.08254e-06
5.30306e-06
6.82115e-06
8.6936e-06
1.09876e-05
1.37769e-05
1.71497e-05
2.12057e-05
2.60625e-05
3.18589e-05
3.87607e-05
4.69683e-05
5.67257e-05
6.8333e-05
8.21612e-05
9.86716e-05
0.000118442
0.0001422
0.000170867
0.000205623
0.000247985
0.000299923
0.000364015
0.000443657
0.000543352
0.0006691
0.00082891
0.00103314
0.0012955
0.00163632
0.00207833
0.00264826
0.00339708
0.00435191
0.00554734
0.00698897
0.00867453
0.0105943
0.0127408
0.0151136
0.0177169
0.0205635
0.023672
0.0270664
0.0307726
0.0348177
0.0392277
0.044024
0.0492336
0.0548792
0.060978
0.0675429
0.0745794
0.0820924
0.090076
0.0985092
0.107351
0.116545
0.126045
0.135832
0.145815
0.155851
0.165795
0.175448
0.184772
0.193595
0.201711
0.20885
0.214809
0.219565
0.223181
0.22579
0.22757
0.228713
0.229397
0.229774
0.229961
6.42753e-12
3.40175e-11
9.68871e-11
2.4198e-10
5.68786e-10
1.27565e-09
2.73327e-09
5.5896e-09
1.09045e-08
2.02311e-08
3.57168e-08
6.03303e-08
9.79986e-08
1.53798e-07
2.34175e-07
3.47201e-07
5.02857e-07
7.13348e-07
9.93445e-07
1.36085e-06
1.83656e-06
2.44528e-06
3.21573e-06
4.18119e-06
5.37894e-06
6.85222e-06
8.65222e-06
1.08319e-05
1.34543e-05
1.65898e-05
2.032e-05
2.47401e-05
2.99627e-05
3.61235e-05
4.33876e-05
5.19589e-05
6.20906e-05
7.40991e-05
8.83827e-05
0.000105445
0.00012593
0.000150659
0.000180703
0.000217454
0.000262752
0.000319046
0.000389622
0.000478929
0.000593027
0.000740204
0.000931559
0.0011819
0.00151436
0.00195589
0.00253985
0.0033176
0.0043413
0.00564865
0.00723901
0.00909924
0.0112156
0.0135679
0.016144
0.0189446
0.0219813
0.0252734
0.028844
0.0327182
0.0369212
0.0414753
0.0463966
0.051745
0.0575268
0.0637538
0.0704455
0.0776064
0.0852341
0.0933194
0.101847
0.110804
0.12019
0.129849
0.139723
0.149705
0.159626
0.1694
0.178884
0.187925
0.196363
0.204032
0.210707
0.21622
0.220578
0.223866
0.226223
0.227825
0.22885
0.229462
0.229798
0.229965
8.7583e-12
4.60963e-11
1.29853e-10
3.19663e-10
7.39417e-10
1.63108e-09
3.43767e-09
6.91804e-09
1.32892e-08
2.42698e-08
4.22234e-08
7.03453e-08
1.12783e-07
1.74799e-07
2.62952e-07
3.85304e-07
5.51637e-07
7.73691e-07
1.06541e-06
1.44317e-06
1.92602e-06
2.53594e-06
3.29735e-06
4.23802e-06
5.39121e-06
6.79157e-06
8.4759e-06
1.04874e-05
1.28728e-05
1.56843e-05
1.89818e-05
2.28354e-05
2.73291e-05
3.25659e-05
3.86738e-05
4.58136e-05
5.41887e-05
6.40571e-05
7.57486e-05
8.9686e-05
0.000106416
0.000126649
0.000151321
0.000181675
0.000219376
0.000266687
0.000326704
0.000403714
0.000503694
0.000635035
0.00080939
0.00104243
0.00135981
0.00179232
0.00237964
0.00318302
0.00428422
0.00572752
0.00749961
0.00957138
0.0119105
0.0144906
0.0172919
0.0203105
0.0235596
0.0270592
0.0308339
0.0349114
0.0393216
0.0440967
0.0492759
0.0548437
0.0608299
0.067252
0.07411
0.081405
0.0891301
0.0972669
0.105782
0.114625
0.123726
0.133166
0.142891
0.152805
0.162632
0.172229
0.181463
0.190188
0.198277
0.205583
0.211913
0.217114
0.22121
0.22429
0.226492
0.227985
0.228937
0.229504
0.229815
0.229968
1.17242e-11
6.13864e-11
1.71166e-10
4.15718e-10
9.47137e-10
2.05647e-09
4.26564e-09
8.45025e-09
1.59861e-08
2.87398e-08
4.92717e-08
8.09599e-08
1.28104e-07
1.9605e-07
2.91329e-07
4.21803e-07
5.96809e-07
8.27312e-07
1.12603e-06
1.5076e-06
1.98825e-06
2.58601e-06
3.3225e-06
4.22059e-06
5.30361e-06
6.59771e-06
8.13031e-06
9.93072e-06
1.20306e-05
1.4465e-05
1.72741e-05
2.05059e-05
2.42198e-05
2.84909e-05
3.34155e-05
3.91179e-05
4.57584e-05
5.35442e-05
6.27436e-05
7.37058e-05
8.68877e-05
0.000102892
0.000122524
0.000146868
0.000177404
0.000216175
0.000266033
0.000331005
0.000416829
0.00053175
0.0006876
0.000900447
0.00119757
0.00161331
0.00219288
0.00300812
0.0041815
0.00577053
0.00774729
0.0100744
0.0126911
0.0155479
0.018619
0.0219027
0.0254091
0.029159
0.0331776
0.0374917
0.0421275
0.0471105
0.0524639
0.0582056
0.0643515
0.0709099
0.0778831
0.0852671
0.0930489
0.101205
0.1097
0.118486
0.127511
0.136726
0.146102
0.155546
0.165012
0.174332
0.183355
0.191846
0.199672
0.206702
0.212772
0.21774
0.221645
0.224577
0.226672
0.22809
0.228994
0.229532
0.229826
0.22997
1.52324e-11
7.93751e-11
2.19264e-10
5.2598e-10
1.18174e-09
2.52854e-09
5.1676e-09
1.00872e-08
1.88084e-08
3.33152e-08
5.63222e-08
9.13213e-08
1.42665e-07
2.15651e-07
3.16611e-07
4.52991e-07
6.3343e-07
8.67828e-07
1.16722e-06
1.5437e-06
2.01132e-06
2.586e-06
3.28284e-06
4.11854e-06
5.11033e-06
6.27583e-06
7.63287e-06
9.19974e-06
1.09957e-05
1.30421e-05
1.53642e-05
1.79938e-05
2.09724e-05
2.43549e-05
2.82146e-05
3.26487e-05
3.7785e-05
4.37911e-05
5.08867e-05
5.93606e-05
6.95953e-05
8.21015e-05
9.75693e-05
0.000116942
0.000141525
0.000173151
0.000214421
0.000269076
0.000342558
0.000442866
0.000581851
0.00077601
0.00105204
0.0014513
0.00202455
0.00286094
0.00406241
0.00578147
0.00797298
0.0105645
0.0134679
0.016612
0.0199627
0.0235143
0.0272776
0.0312729
0.0355244
0.0400581
0.044899
0.0500708
0.0555945
0.0614876
0.0677635
0.0744291
0.0814828
0.0889177
0.0967183
0.104859
0.113301
0.121997
0.130887
0.139926
0.149086
0.158307
0.167455
0.176381
0.184951
0.193107
0.200667
0.207477
0.213382
0.218192
0.221962
0.224788
0.226804
0.228167
0.229036
0.229552
0.229834
0.229971
1.91326e-11
9.92723e-11
2.71928e-10
6.45059e-10
1.43103e-09
3.02137e-09
6.09161e-09
1.17311e-08
2.15657e-08
3.76788e-08
6.28714e-08
1.00668e-07
1.55368e-07
2.32087e-07
3.36796e-07
4.76346e-07
6.58451e-07
8.9152e-07
1.18501e-06
1.54978e-06
1.99662e-06
2.53633e-06
3.18086e-06
3.94171e-06
4.83016e-06
5.85698e-06
7.0325e-06
8.36677e-06
9.87031e-06
1.15552e-05
1.34372e-05
1.55375e-05
1.78863e-05
2.05259e-05
2.35141e-05
2.69295e-05
3.08769e-05
3.54948e-05
4.09664e-05
4.75344e-05
5.5523e-05
6.53694e-05
7.7671e-05
9.3254e-05
0.000113277
0.000139389
0.000173964
0.00022047
0.000284036
0.000372332
0.000496927
0.000674516
0.000931493
0.00131135
0.00186803
0.00270039
0.00391778
0.00575548
0.00815021
0.0110036
0.0141882
0.0176135
0.0212376
0.0250513
0.0290638
0.0332939
0.0377651
0.042502
0.047529
0.0528682
0.0585393
0.0645583
0.0709365
0.0776805
0.0847855
0.0922429
0.100035
0.108136
0.116507
0.125098
0.133852
0.142714
0.151655
0.160645
0.169559
0.178239
0.18657
0.194428
0.201685
0.208218
0.213862
0.218515
0.222179
0.224931
0.226897
0.228223
0.229066
0.229567
0.229839
0.229973
2.32049e-11
1.19944e-10
3.26092e-10
7.65822e-10
1.67966e-09
3.50378e-09
6.97783e-09
1.32733e-08
2.40828e-08
4.1553e-08
6.85074e-08
1.08424e-07
1.65454e-07
2.44421e-07
3.5082e-07
4.90715e-07
6.70723e-07
8.98381e-07
1.18162e-06
1.52823e-06
1.94654e-06
2.44471e-06
3.03067e-06
3.71181e-06
4.49483e-06
5.38555e-06
6.38908e-06
7.51014e-06
8.75387e-06
1.0127e-05
1.16397e-05
1.33077e-05
1.51544e-05
1.72144e-05
1.95359e-05
2.21849e-05
2.52499e-05
2.88487e-05
3.31374e-05
3.83242e-05
4.46894e-05
5.26138e-05
6.26227e-05
7.54503e-05
9.21378e-05
0.000114183
0.000143772
0.000184139
0.000240131
0.000319099
0.000432299
0.00059645
0.000837615
0.00120041
0.00174137
0.00256592
0.0037932
0.00571589
0.0082881
0.01138
0.0148261
0.0185163
0.0223997
0.0264621
0.0307098
0.0351596
0.0398337
0.0447557
0.0499488
0.0554343
0.0612307
0.0673527
0.0738105
0.0806093
0.0877444
0.0952046
0.102972
0.111019
0.11931
0.127794
0.136412
0.145108
0.153849
0.162622
0.171323
0.179783
0.18789
0.195524
0.202566
0.208896
0.214376
0.21887
0.222408
0.225069
0.226973
0.228265
0.229089
0.229578
0.229844
0.229973
2.72121e-11
1.40187e-10
3.78601e-10
8.81234e-10
1.91319e-09
3.948e-09
7.77603e-09
1.46284e-08
2.62308e-08
4.47513e-08
7.29806e-08
1.14286e-07
1.72597e-07
2.52369e-07
3.58475e-07
4.96297e-07
6.71804e-07
8.90902e-07
1.15969e-06
1.48432e-06
1.87077e-06
2.32467e-06
2.85109e-06
3.45435e-06
4.13791e-06
4.90433e-06
5.75554e-06
6.69321e-06
7.71965e-06
8.83897e-06
1.00587e-05
1.13915e-05
1.28576e-05
1.44866e-05
1.63204e-05
1.84166e-05
2.0852e-05
2.37292e-05
2.71846e-05
3.14009e-05
3.66254e-05
4.3197e-05
5.15866e-05
6.24588e-05
7.67656e-05
9.58908e-05
0.000121876
0.000157778
0.000208229
0.000280336
0.000385114
0.000539275
0.000768628
0.00111858
0.00164752
0.00246587
0.0037028
0.00567067
0.00838409
0.0116857
0.0153686
0.0193026
0.0234268
0.0277205
0.0321861
0.0368381
0.0416971
0.0467855
0.0521258
0.0577384
0.0636409
0.0698471
0.0763666
0.0832036
0.090354
0.0978048
0.105538
0.113527
0.121734
0.130113
0.138604
0.147147
0.15571
0.164287
0.172797
0.181062
0.188974
0.196418
0.203278
0.209441
0.214778
0.219155
0.222601
0.225194
0.22705
0.228309
0.229111
0.229588
0.229848
0.229974
3.09421e-11
1.5894e-10
4.26754e-10
9.85545e-10
2.12046e-09
4.33403e-09
8.45298e-09
1.57457e-08
2.79415e-08
4.71938e-08
7.6218e-08
1.18226e-07
1.76875e-07
2.56187e-07
3.60619e-07
4.94894e-07
6.63711e-07
8.71942e-07
1.12435e-06
1.42547e-06
1.7795e-06
2.1901e-06
2.66027e-06
3.19223e-06
3.78737e-06
4.44634e-06
5.16933e-06
5.95659e-06
6.80921e-06
7.73028e-06
8.72625e-06
9.80856e-06
1.09953e-05
1.23133e-05
1.38001e-05
1.5507e-05
1.75025e-05
1.98779e-05
2.27551e-05
2.62979e-05
3.07291e-05
3.63564e-05
4.36108e-05
5.31056e-05
6.57272e-05
8.27767e-05
0.000106193
0.000138905
0.0001854
0.000252625
0.000351437
0.000498583
0.000719696
0.00106065
0.00158081
0.00239348
0.00363384
0.00561872
0.00844155
0.0119219
0.0158144
0.0199689
0.0243126
0.0288179
0.0334824
0.0383182
0.0433438
0.0485809
0.0540509
0.0597736
0.0657661
0.0720418
0.0786095
0.0854732
0.0926295
0.100064
0.107759
0.115689
0.123817
0.132098
0.140472
0.148879
0.157285
0.165689
0.17403
0.182126
0.189871
0.197152
0.203859
0.209882
0.2151
0.21938
0.222752
0.22529
0.227108
0.228341
0.229128
0.229596
0.229851
0.229975
3.42415e-11
1.7545e-10
4.68717e-10
1.07508e-09
2.29499e-09
4.6516e-09
8.99462e-09
1.66101e-08
2.9208e-08
4.89001e-08
7.82989e-08
1.20427e-07
1.78658e-07
2.56719e-07
3.58481e-07
4.8789e-07
6.48914e-07
8.45413e-07
1.08102e-06
1.35903e-06
1.68228e-06
2.05302e-06
2.47286e-06
2.94267e-06
3.46265e-06
4.03245e-06
4.65151e-06
5.31959e-06
6.03747e-06
6.80807e-06
7.63756e-06
8.53679e-06
9.52271e-06
1.062e-05
1.18632e-05
1.32988e-05
1.49891e-05
1.70172e-05
1.94937e-05
2.25686e-05
2.64467e-05
3.14127e-05
3.78682e-05
4.63894e-05
5.78156e-05
7.33898e-05
9.49797e-05
0.000125433
0.000169145
0.000232977
0.00032773
0.000470285
0.000686304
0.00102241
0.0015395
0.00235519
0.00361643
0.00556467
0.00846464
0.0120938
0.016169
0.0205198
0.025061
0.029757
0.034601
0.0396018
0.0447764
0.0501452
0.0557291
0.0615472
0.0676164
0.0739496
0.0805557
0.0874383
0.0945949
0.102011
0.109668
0.117541
0.125596
0.133788
0.142059
0.150348
0.158618
0.166871
0.175061
0.183015
0.190618
0.197762
0.204339
0.210245
0.215364
0.219564
0.222874
0.225367
0.227154
0.228367
0.229142
0.229602
0.229853
0.229975
3.70291e-11
1.89332e-10
5.03633e-10
1.14841e-09
2.43495e-09
4.89962e-09
9.40388e-09
1.7236e-08
3.0071e-08
4.99622e-08
7.94006e-08
1.21225e-07
1.78592e-07
2.5479e-07
3.53215e-07
4.7725e-07
6.30167e-07
8.15027e-07
1.03458e-06
1.29118e-06
1.58668e-06
1.92238e-06
2.299e-06
2.71662e-06
3.17483e-06
3.67287e-06
4.20997e-06
4.78588e-06
5.40156e-06
6.06006e-06
6.76761e-06
7.53475e-06
8.37762e-06
9.31941e-06
1.03921e-05
1.16388e-05
1.3117e-05
1.49031e-05
1.71e-05
1.98467e-05
2.33348e-05
2.78319e-05
3.3718e-05
4.15418e-05
5.21087e-05
6.66192e-05
8.68897e-05
0.000115707
0.000157396
0.00021874
0.000310457
0.000449398
0.000660933
0.000991531
0.00150162
0.00230834
0.00356086
0.00549623
0.00845446
0.0122081
0.0164417
0.0209655
0.0256819
0.0305478
0.0355515
0.0406989
0.0460053
0.05149
0.0571732
0.0630739
0.0692085
0.0755899
0.0822268
0.0891231
0.0962771
0.103674
0.111295
0.119118
0.127107
0.13522
0.143401
0.151588
0.159739
0.167867
0.175925
0.183759
0.191242
0.198271
0.20474
0.210548
0.215583
0.219716
0.222974
0.22543
0.227191
0.228388
0.229152
0.229607
0.229855
0.229975
3.92896e-11
2.00535e-10
5.31499e-10
1.20593e-09
2.5422e-09
5.08391e-09
9.69565e-09
1.76569e-08
3.05997e-08
5.05086e-08
7.97577e-08
1.21033e-07
1.77193e-07
2.51223e-07
3.46109e-07
4.64748e-07
6.0985e-07
7.83851e-07
9.88838e-07
1.22647e-06
1.49795e-06
1.80395e-06
2.14463e-06
2.51968e-06
2.92842e-06
3.36999e-06
3.84373e-06
4.3496e-06
4.88885e-06
5.46481e-06
6.08381e-06
6.7562e-06
7.4975e-06
8.32966e-06
9.28273e-06
1.03971e-05
1.17264e-05
1.33424e-05
1.53414e-05
1.78548e-05
2.1064e-05
2.52239e-05
3.06986e-05
3.80168e-05
4.79592e-05
6.16956e-05
8.10059e-05
0.000108633
0.00014885
0.000208375
0.000297843
0.000434033
0.000641968
0.00096777
0.00147115
0.00226824
0.00350951
0.0054283
0.00842669
0.0122809
0.0166482
0.021321
0.0261899
0.0312043
0.0363478
0.0416236
0.0470452
0.0526308
0.0584
0.0643717
0.070562
0.0769838
0.083646
0.0905526
0.0977021
0.10508
0.11267
0.120447
0.128379
0.136423
0.144527
0.152627
0.16068
0.1687
0.176648
0.18438
0.191762
0.198694
0.205073
0.2108
0.215765
0.219842
0.223057
0.225482
0.227222
0.228405
0.229161
0.229611
0.229856
0.229976
4.10557e-11
2.09244e-10
5.52909e-10
1.2493e-09
2.62091e-09
5.21416e-09
9.89095e-09
1.79154e-08
3.08736e-08
5.06823e-08
7.96139e-08
1.20167e-07
1.75e-07
2.46813e-07
3.38255e-07
4.51831e-07
5.8981e-07
7.54158e-07
9.46471e-07
1.16793e-06
1.41929e-06
1.70083e-06
2.01241e-06
2.35353e-06
2.72345e-06
3.1214e-06
3.54689e-06
4.0002e-06
4.48286e-06
4.99847e-06
5.55347e-06
6.15803e-06
6.82712e-06
7.5817e-06
8.4503e-06
9.47109e-06
1.06949e-05
1.21897e-05
1.40472e-05
1.63927e-05
1.94002e-05
2.33156e-05
2.84913e-05
3.54423e-05
4.4932e-05
5.81104e-05
7.67343e-05
0.00010352
0.000142712
0.000200994
0.000288946
0.000423297
0.000628773
0.00095112
0.00144973
0.00223979
0.00347272
0.00537919
0.00839524
0.0123257
0.0168026
0.0216007
0.0265996
0.0317415
0.0370054
0.0423918
0.0479124
0.0535846
0.0594275
0.0654595
0.0716968
0.0781525
0.0848354
0.0917497
0.0988945
0.106256
0.113818
0.121556
0.129438
0.137424
0.145462
0.153489
0.161461
0.169388
0.177245
0.184893
0.192192
0.199044
0.205348
0.211008
0.215915
0.219946
0.223125
0.225524
0.227247
0.228419
0.229168
0.229614
0.229858
0.229976
4.239e-11
2.15789e-10
5.68796e-10
1.28082e-09
2.67635e-09
5.3017e-09
1.00127e-08
1.80552e-08
3.09707e-08
5.06162e-08
7.91539e-08
1.18949e-07
1.72472e-07
2.42195e-07
3.30497e-07
4.39573e-07
5.71358e-07
7.27469e-07
9.09152e-07
1.11726e-06
1.35225e-06
1.61418e-06
1.90275e-06
2.2174e-06
2.55742e-06
2.9222e-06
3.31147e-06
3.72575e-06
4.16688e-06
4.63865e-06
5.14754e-06
5.70357e-06
6.32126e-06
7.02075e-06
7.82935e-06
8.78353e-06
9.93195e-06
1.13398e-05
1.30951e-05
1.53191e-05
1.81803e-05
2.1918e-05
2.68771e-05
3.3563e-05
4.27288e-05
5.55135e-05
7.36628e-05
9.98845e-05
0.000138419
0.000195954
0.000283085
0.000416599
0.000621309
0.000939472
0.00143576
0.00222159
0.00344882
0.0053461
0.00836503
0.0123517
0.0169164
0.0218177
0.026925
0.0321739
0.0375393
0.043019
0.0486231
0.0543683
0.0602729
0.0663555
0.072632
0.0791156
0.0858154
0.0927357
0.099876
0.107224
0.114762
0.122466
0.130307
0.138245
0.146227
0.154193
0.162098
0.16995
0.177733
0.185311
0.192541
0.199327
0.205571
0.211176
0.216036
0.220029
0.223179
0.225558
0.227267
0.22843
0.229174
0.229617
0.229859
0.229976
4.33657e-11
2.20549e-10
5.802e-10
1.30294e-09
2.71388e-09
5.35758e-09
1.00823e-08
1.81153e-08
3.09595e-08
5.04132e-08
7.85548e-08
1.17632e-07
1.69965e-07
2.37845e-07
3.23439e-07
4.2871e-07
5.55343e-07
7.04701e-07
8.77789e-07
1.07524e-06
1.29732e-06
1.54395e-06
1.81478e-06
2.10924e-06
2.42671e-06
2.76672e-06
3.1292e-06
3.51492e-06
3.9259e-06
4.36609e-06
4.84199e-06
5.36347e-06
5.94465e-06
6.60504e-06
7.371e-06
8.27772e-06
9.37221e-06
1.07175e-05
1.23994e-05
1.45356e-05
1.72912e-05
2.0901e-05
2.57047e-05
3.2202e-05
4.11402e-05
5.36526e-05
7.14812e-05
9.73338e-05
0.000135456
0.000192546
0.00027921
0.000412246
0.000616541
0.000933812
0.00142895
0.00221269
0.00343675
0.00532685
0.00834032
0.012367
0.0169997
0.0219835
0.0271786
0.0325148
0.0379633
0.0435194
0.0491922
0.0549971
0.0609524
0.0670762
0.0733846
0.0798909
0.0866041
0.0935291
0.100665
0.108001
0.115519
0.123197
0.131004
0.138902
0.146839
0.154756
0.162608
0.170398
0.178121
0.185643
0.192818
0.199552
0.205747
0.211308
0.216131
0.220093
0.223221
0.225583
0.227281
0.228437
0.229178
0.229619
0.229859
0.229976
4.40571e-11
2.23904e-10
5.88132e-10
1.31796e-09
2.73837e-09
5.3915e-09
1.01181e-08
1.81286e-08
3.08932e-08
5.01633e-08
7.79482e-08
1.16404e-07
1.67734e-07
2.34091e-07
3.17485e-07
4.19705e-07
5.4226e-07
6.86333e-07
8.52762e-07
1.04204e-06
1.25431e-06
1.48943e-06
1.74703e-06
2.02656e-06
2.3275e-06
2.64949e-06
2.99266e-06
3.35791e-06
3.74745e-06
4.1653e-06
4.61797e-06
5.11519e-06
5.67078e-06
6.30376e-06
7.03976e-06
7.91304e-06
8.96941e-06
1.02705e-05
1.19001e-05
1.3974e-05
1.66547e-05
2.0174e-05
2.48685e-05
3.12346e-05
4.00165e-05
5.23459e-05
6.99661e-05
9.55908e-05
0.000133481
0.000190362
0.000276883
0.000409909
0.000614545
0.000932396
0.00142879
0.00221515
0.00344535
0.0053481
0.00833405
0.0123806
0.0170614
0.0221075
0.0273706
0.0327752
0.038289
0.0439055
0.0496323
0.0554844
0.0614797
0.067636
0.0739694
0.0804934
0.0872171
0.0941456
0.101279
0.108605
0.116108
0.123764
0.131544
0.139411
0.147313
0.155192
0.163001
0.170745
0.178421
0.185899
0.193032
0.199725
0.205882
0.211409
0.216203
0.220141
0.223251
0.225602
0.227292
0.228444
0.229181
0.22962
0.22986
0.229976
4.45259e-11
2.26168e-10
5.9342e-10
1.32775e-09
2.75371e-09
5.41105e-09
1.01341e-08
1.81201e-08
3.08132e-08
4.99298e-08
7.74276e-08
1.15394e-07
1.65949e-07
2.31146e-07
3.12882e-07
4.12827e-07
5.32366e-07
6.72563e-07
8.34147e-07
1.01752e-06
1.22276e-06
1.44968e-06
1.69792e-06
1.96697e-06
2.25636e-06
2.56586e-06
2.89569e-06
3.24691e-06
3.6218e-06
4.02447e-06
4.46139e-06
4.9422e-06
5.48048e-06
6.09489e-06
6.81057e-06
7.66113e-06
8.69152e-06
9.96235e-06
1.15563e-05
1.35876e-05
1.62173e-05
1.96752e-05
2.42959e-05
3.05741e-05
3.92525e-05
5.14628e-05
6.895e-05
9.44343e-05
0.000132188
0.000188957
0.000275414
0.000408449
0.000613271
0.000931264
0.00142769
0.00221363
0.00344208
0.00534015
0.00831821
0.0123839
0.0171019
0.0221946
0.0275083
0.0329635
0.0385258
0.0441871
0.0499541
0.0558412
0.061866
0.0680464
0.0743984
0.0809354
0.0876668
0.0945978
0.101728
0.109048
0.116539
0.124179
0.13194
0.139784
0.14766
0.155511
0.163289
0.170999
0.17864
0.186087
0.193188
0.199851
0.20598
0.211482
0.216254
0.220177
0.223275
0.225616
0.227301
0.228448
0.229183
0.229621
0.22986
0.229976
4.48164e-11
2.27566e-10
5.96657e-10
1.33365e-09
2.76266e-09
5.42166e-09
1.01404e-08
1.81068e-08
3.0748e-08
4.97567e-08
7.70563e-08
1.1469e-07
1.64722e-07
2.29143e-07
3.09778e-07
4.08221e-07
5.25781e-07
6.63447e-07
8.21885e-07
1.00144e-06
1.20215e-06
1.42383e-06
1.6661e-06
1.9285e-06
2.2106e-06
2.51224e-06
2.83372e-06
3.17617e-06
3.54196e-06
3.9352e-06
4.36237e-06
4.83302e-06
5.36059e-06
5.96352e-06
6.66661e-06
7.50305e-06
8.51729e-06
9.76932e-06
1.1341e-05
1.33459e-05
1.59438e-05
1.93636e-05
2.39387e-05
3.01628e-05
3.87777e-05
5.0915e-05
6.83212e-05
9.37195e-05
0.000131389
0.000188082
0.000274481
0.000407475
0.000612311
0.00093018
0.00142624
0.00221125
0.00343789
0.00533196
0.00830517
0.0123839
0.0171267
0.0222505
0.0275976
0.0330864
0.0386808
0.0443717
0.0501653
0.0560756
0.0621199
0.0683162
0.0746804
0.081226
0.0879625
0.0948952
0.102024
0.109339
0.116822
0.124453
0.132201
0.140029
0.147889
0.155721
0.163479
0.171166
0.178785
0.186211
0.193291
0.199934
0.206045
0.211531
0.21629
0.220201
0.223291
0.225626
0.227306
0.228451
0.229184
0.229622
0.22986
0.229976
4.49587e-11
2.28251e-10
5.98242e-10
1.33654e-09
2.76704e-09
5.42684e-09
1.01435e-08
1.81004e-08
3.07164e-08
4.96724e-08
7.68753e-08
1.14347e-07
1.64125e-07
2.28169e-07
3.08269e-07
4.05984e-07
5.22583e-07
6.59024e-07
8.15937e-07
9.93642e-07
1.19217e-06
1.41132e-06
1.65072e-06
1.90991e-06
2.18851e-06
2.48637e-06
2.80385e-06
3.14212e-06
3.50355e-06
3.8923e-06
4.31482e-06
4.78064e-06
5.30312e-06
5.90058e-06
6.59769e-06
7.42742e-06
8.434e-06
9.6771e-06
1.12383e-05
1.32307e-05
1.58136e-05
1.92156e-05
2.37696e-05
2.99686e-05
3.85547e-05
5.06596e-05
6.80308e-05
9.33939e-05
0.000131031
0.000187702
0.00027409
0.000407089
0.000611958
0.000929798
0.00142571
0.00221029
0.00343612
0.00532837
0.00829943
0.0123848
0.0171399
0.0222791
0.0276429
0.0331483
0.0387586
0.0444641
0.0502707
0.0561924
0.0622464
0.0684504
0.0748206
0.0813703
0.0881093
0.0950426
0.102171
0.109483
0.116963
0.124588
0.13233
0.140151
0.148002
0.155825
0.163574
0.17125
0.178858
0.186273
0.193343
0.199977
0.206079
0.211557
0.216308
0.220214
0.223299
0.225631
0.227309
0.228452
0.229185
0.229622
0.22986
0.229976
4.49727e-11
2.28323e-10
5.98432e-10
1.33696e-09
2.76793e-09
5.42858e-09
1.01467e-08
1.8106e-08
3.07255e-08
4.96866e-08
7.68964e-08
1.14377e-07
1.64166e-07
2.28223e-07
3.08339e-07
4.0607e-07
5.22688e-07
6.59149e-07
8.16084e-07
9.93811e-07
1.19236e-06
1.41153e-06
1.65095e-06
1.91016e-06
2.18878e-06
2.48666e-06
2.80416e-06
3.14244e-06
3.50389e-06
3.89266e-06
4.31521e-06
4.78106e-06
5.30359e-06
5.90111e-06
6.59829e-06
7.42814e-06
8.43487e-06
9.67818e-06
1.12397e-05
1.32324e-05
1.58159e-05
1.92187e-05
2.37737e-05
2.99743e-05
3.85627e-05
5.06709e-05
6.80471e-05
9.34178e-05
0.000131067
0.000187756
0.000274174
0.000407218
0.000612158
0.000930112
0.0014262
0.00221106
0.0034373
0.00533019
0.00830216
0.0123881
0.0171436
0.0222829
0.0276467
0.0331521
0.0387623
0.0444677
0.0502743
0.0561959
0.0622499
0.0684538
0.0748239
0.0813736
0.0881125
0.0950459
0.102174
0.109486
0.116966
0.124591
0.132333
0.140154
0.148005
0.155828
0.163577
0.171253
0.178861
0.186276
0.193346
0.199979
0.206081
0.211559
0.21631
0.220215
0.2233
0.225631
0.227309
0.228453
0.229185
0.229622
0.22986
0.229976
4.48549e-11
2.27763e-10
5.97176e-10
1.33482e-09
2.7651e-09
5.42645e-09
1.01493e-08
1.81224e-08
3.07737e-08
4.97969e-08
7.71163e-08
1.14776e-07
1.6484e-07
2.29299e-07
3.09979e-07
4.08473e-07
5.26088e-07
6.63816e-07
8.22316e-07
1.00193e-06
1.20271e-06
1.42446e-06
1.66679e-06
1.92924e-06
2.2114e-06
2.51309e-06
2.83462e-06
3.17712e-06
3.54296e-06
3.93626e-06
4.3635e-06
4.83425e-06
5.36196e-06
5.96507e-06
6.66841e-06
7.50519e-06
8.5199e-06
9.77257e-06
1.13452e-05
1.33512e-05
1.59508e-05
1.93731e-05
2.39517e-05
3.01807e-05
3.88032e-05
5.09516e-05
6.83747e-05
9.37989e-05
0.000131508
0.000188263
0.000274757
0.0004079
0.000612956
0.000931172
0.00142776
0.00221359
0.00344145
0.00533741
0.00831335
0.0123939
0.0171375
0.0222616
0.0276089
0.0330976
0.0386919
0.0443826
0.050176
0.0560861
0.0621303
0.0683263
0.0746904
0.0812358
0.0879722
0.0949047
0.102033
0.109348
0.116831
0.124461
0.132209
0.140037
0.147897
0.155729
0.163487
0.171174
0.178793
0.186218
0.193298
0.19994
0.206051
0.211536
0.216294
0.220204
0.223293
0.225627
0.227307
0.228451
0.229185
0.229622
0.22986
0.229976
4.45839e-11
2.26463e-10
5.94201e-10
1.32952e-09
2.75739e-09
5.41828e-09
1.01476e-08
1.81439e-08
3.08528e-08
4.99924e-08
7.75217e-08
1.1553e-07
1.66137e-07
2.31398e-07
3.13209e-07
4.13241e-07
5.32876e-07
6.73177e-07
8.34871e-07
1.01835e-06
1.22371e-06
1.45075e-06
1.69909e-06
1.96824e-06
2.25773e-06
2.56731e-06
2.89723e-06
3.24852e-06
3.6235e-06
4.02626e-06
4.46331e-06
4.94428e-06
5.48279e-06
6.09751e-06
6.81361e-06
7.66475e-06
8.69593e-06
9.96785e-06
1.15633e-05
1.35967e-05
1.62292e-05
1.96911e-05
2.43176e-05
3.06042e-05
3.92949e-05
5.15234e-05
6.9038e-05
9.45637e-05
0.000132381
0.000189247
0.000275854
0.000409123
0.000614294
0.000932844
0.00143015
0.00221747
0.00344799
0.00534929
0.00833197
0.0124006
0.0171199
0.0222132
0.027527
0.032982
0.0385441
0.0442051
0.0499717
0.0558586
0.0618831
0.0680632
0.0744149
0.0809516
0.0876827
0.0946134
0.101744
0.109063
0.116553
0.124194
0.131954
0.139797
0.147673
0.155523
0.163301
0.17101
0.178651
0.186096
0.193197
0.199858
0.205987
0.211488
0.216259
0.220181
0.223278
0.225618
0.227302
0.228449
0.229183
0.229621
0.22986
0.229976
4.41265e-11
2.24259e-10
5.89073e-10
1.3201e-09
2.74288e-09
5.40045e-09
1.01349e-08
1.81589e-08
3.09443e-08
5.02452e-08
7.80732e-08
1.16586e-07
1.67989e-07
2.34437e-07
3.17939e-07
4.20284e-07
5.42977e-07
6.87201e-07
8.53791e-07
1.04323e-06
1.25567e-06
1.49096e-06
1.74871e-06
2.02839e-06
2.32947e-06
2.65158e-06
2.99486e-06
3.36022e-06
3.74987e-06
4.16785e-06
4.62069e-06
5.11813e-06
5.67403e-06
6.30744e-06
7.04403e-06
7.91814e-06
8.97564e-06
1.02782e-05
1.191e-05
1.39868e-05
1.66716e-05
2.01967e-05
2.48994e-05
3.12775e-05
4.00769e-05
5.24324e-05
7.00915e-05
9.57754e-05
0.000133756
0.000190777
0.000277514
0.000410877
0.000616016
0.00093467
0.00143231
0.00222064
0.00345376
0.00536098
0.00835326
0.0124037
0.0170864
0.0221332
0.0273965
0.0328008
0.0383142
0.0439303
0.0496567
0.0555084
0.0615033
0.0676591
0.0739922
0.0805157
0.087239
0.094167
0.101299
0.108625
0.116127
0.123783
0.131563
0.139428
0.14733
0.155207
0.163015
0.170758
0.178433
0.18591
0.193041
0.199733
0.205888
0.211414
0.216207
0.220143
0.223254
0.225604
0.227293
0.228444
0.229181
0.22962
0.22986
0.229976
4.34436e-11
2.20948e-10
5.81264e-10
1.30537e-09
2.71906e-09
5.368e-09
1.01022e-08
1.81514e-08
3.10215e-08
5.05138e-08
7.87102e-08
1.17862e-07
1.7029e-07
2.38289e-07
3.24027e-07
4.29463e-07
5.56284e-07
7.05847e-07
8.79153e-07
1.07683e-06
1.29914e-06
1.546e-06
1.81704e-06
2.1117e-06
2.42935e-06
2.76952e-06
3.13215e-06
3.51799e-06
3.92911e-06
4.36945e-06
4.84554e-06
5.36729e-06
5.94885e-06
6.60979e-06
7.37652e-06
8.28432e-06
9.3803e-06
1.07277e-05
1.24123e-05
1.45524e-05
1.73134e-05
2.09308e-05
2.57452e-05
3.22581e-05
4.1219e-05
5.3765e-05
7.16442e-05
9.75735e-05
0.000135813
0.000193086
0.000280033
0.000413512
0.000618467
0.000936792
0.00143357
0.0022199
0.00344779
0.00534382
0.00836494
0.0123963
0.0170313
0.0220159
0.0272112
0.0325471
0.0379952
0.0435508
0.049223
0.0550275
0.0609823
0.0671055
0.0734134
0.0799191
0.0866317
0.093556
0.100691
0.108027
0.115544
0.12322
0.131026
0.138922
0.146859
0.154774
0.162624
0.170413
0.178134
0.185655
0.192828
0.19956
0.205753
0.211312
0.216134
0.220095
0.223221
0.225583
0.227281
0.228437
0.229178
0.229619
0.229859
0.229976
4.24792e-11
2.16247e-10
5.70023e-10
1.28364e-09
2.68239e-09
5.31394e-09
1.00362e-08
1.80982e-08
3.10451e-08
5.0738e-08
7.93443e-08
1.19233e-07
1.72877e-07
2.42753e-07
3.31239e-07
4.4053e-07
5.72561e-07
7.2894e-07
9.10912e-07
1.11932e-06
1.35461e-06
1.61684e-06
1.90569e-06
2.2206e-06
2.56086e-06
2.92583e-06
3.31527e-06
3.7297e-06
4.17097e-06
4.6429e-06
5.152e-06
5.70833e-06
6.32645e-06
7.02659e-06
7.83613e-06
8.79165e-06
9.94192e-06
1.13523e-05
1.31112e-05
1.53401e-05
1.82081e-05
2.19553e-05
2.69277e-05
3.36329e-05
4.28266e-05
5.56524e-05
7.38629e-05
0.000100177
0.000138852
0.000196606
0.000284074
0.000418114
0.000623611
0.000943046
0.00144133
0.00223033
0.00346228
0.00536686
0.00839473
0.0123868
0.0169541
0.0218564
0.0269639
0.0322126
0.0375775
0.0430566
0.0486602
0.0544047
0.0603088
0.0663907
0.0726666
0.0791496
0.0858485
0.092768
0.0999073
0.107254
0.114791
0.122494
0.130333
0.138269
0.146249
0.154214
0.162117
0.169966
0.177747
0.185323
0.192551
0.199335
0.205577
0.21118
0.216039
0.22003
0.22318
0.225558
0.227267
0.22843
0.229174
0.229617
0.229859
0.229976
4.11628e-11
2.09794e-10
5.54385e-10
1.25271e-09
2.62821e-09
5.22897e-09
9.91953e-09
1.79678e-08
3.09645e-08
5.08324e-08
7.98473e-08
1.20518e-07
1.75503e-07
2.47509e-07
3.39186e-07
4.53037e-07
5.91331e-07
7.56026e-07
9.48714e-07
1.17057e-06
1.42232e-06
1.70424e-06
2.01619e-06
2.35765e-06
2.72786e-06
3.12605e-06
3.55175e-06
4.00521e-06
4.48801e-06
5.00377e-06
5.55895e-06
6.16381e-06
6.83336e-06
7.58868e-06
8.45836e-06
9.48072e-06
1.07068e-05
1.22047e-05
1.40665e-05
1.64179e-05
1.94338e-05
2.33607e-05
2.85528e-05
3.5527e-05
4.50505e-05
5.82785e-05
7.69762e-05
0.000103873
0.000143234
0.000201776
0.000290132
0.000425104
0.000631536
0.000955416
0.00145637
0.0022502
0.00348865
0.0054037
0.00842959
0.0123659
0.0168457
0.021645
0.0266441
0.0317858
0.0370493
0.0424351
0.0479552
0.0536268
0.059469
0.0655004
0.0717371
0.078192
0.084874
0.0917874
0.098931
0.106292
0.113852
0.121588
0.129469
0.137453
0.145488
0.153513
0.161482
0.169407
0.177262
0.184907
0.192203
0.199053
0.205355
0.211013
0.215919
0.219948
0.223127
0.225525
0.227248
0.228419
0.229168
0.229614
0.229858
0.229976
3.94183e-11
2.01197e-10
5.33279e-10
1.21005e-09