/*--------------------------------*- C++ -*----------------------------------*\
| =========                 |                                                 |
| \\      /  F ield         | OpenFOAM: The Open Source CFD Toolbox           |
|  \\    /   O peration     | Version:  2206                                  |
|   \\  /    A nd           | Website:  www.openfoam.com                      |
|    \\/     M anipulation  |                                                 |
\*---------------------------------------------------------------------------*/
FoamFile
{
    version     2.0;
    format      ascii;
    arch        "LSB;label=64;scalar=64";
    class       volVectorField;
    location    "0.03";
    object      U;
}
// * * * * * * * * * * * * * * * * * * * * * * * * * * * * * * * * * * * * * //

dimensions      [0 1 -1 0 0 0 0];

internalField   nonuniform List<vector> 
4000
(
(0.100061 -0.00710161 0)
(0.0997773 -0.0220767 0)
(0.0991186 -0.0377336 0)
(0.098153 -0.0540591 0)
(0.0969296 -0.0708 0)
(0.0954547 -0.0875146 0)
(0.0937189 -0.103633 0)
(0.0917112 -0.118551 0)
(0.0894242 -0.131729 0)
(0.0868551 -0.142771 0)
(0.0840113 -0.151465 0)
(0.0809186 -0.157786 0)
(0.0776172 -0.161856 0)
(0.0741526 -0.163903 0)
(0.0705697 -0.164215 0)
(0.0669099 -0.163099 0)
(0.0632093 -0.160858 0)
(0.0594985 -0.157764 0)
(0.0558035 -0.154052 0)
(0.0521488 -0.149917 0)
(0.0485524 -0.145529 0)
(0.0450287 -0.14102 0)
(0.0415905 -0.136494 0)
(0.0382492 -0.132028 0)
(0.0350158 -0.127681 0)
(0.0318995 -0.123497 0)
(0.0289096 -0.119505 0)
(0.0260514 -0.115737 0)
(0.0233136 -0.11222 0)
(0.0206983 -0.108966 0)
(0.018231 -0.105974 0)
(0.015919 -0.103245 0)
(0.0137553 -0.100778 0)
(0.0117368 -0.0985689 0)
(0.0098604 -0.0966114 0)
(0.00812153 -0.0948982 0)
(0.0065141 -0.0934207 0)
(0.00503126 -0.0921698 0)
(0.00366532 -0.0911357 0)
(0.00240805 -0.0903086 0)
(0.00125084 -0.0896787 0)
(0.000184957 -0.0892364 0)
(-0.000798264 -0.0889722 0)
(-0.00170725 -0.088877 0)
(-0.00254993 -0.0889421 0)
(-0.00333379 -0.0891589 0)
(-0.00406566 -0.0895192 0)
(-0.00475179 -0.0900145 0)
(-0.00539788 -0.0906365 0)
(-0.00600922 -0.0913765 0)
(-0.00659093 -0.0922252 0)
(-0.00714845 -0.093173 0)
(-0.00768822 -0.0942095 0)
(-0.00821827 -0.0953241 0)
(-0.00874955 -0.0965059 0)
(-0.00929849 -0.0977451 0)
(-0.00988778 -0.0990363 0)
(-0.0105458 -0.100381 0)
(-0.0113063 -0.101789 0)
(-0.0122005 -0.103278 0)
(-0.0132412 -0.104871 0)
(-0.0144353 -0.106591 0)
(-0.0157963 -0.108465 0)
(-0.0173323 -0.110516 0)
(-0.0190466 -0.112764 0)
(-0.0209418 -0.115226 0)
(-0.0230206 -0.117913 0)
(-0.025286 -0.120837 0)
(-0.0277405 -0.124003 0)
(-0.0303869 -0.127415 0)
(-0.0332275 -0.131068 0)
(-0.0362631 -0.134957 0)
(-0.039491 -0.139065 0)
(-0.0429044 -0.143366 0)
(-0.0464927 -0.147818 0)
(-0.0502411 -0.152362 0)
(-0.0541306 -0.156922 0)
(-0.0581388 -0.161398 0)
(-0.0622374 -0.165661 0)
(-0.0663896 -0.169554 0)
(-0.0705481 -0.172886 0)
(-0.0746598 -0.175432 0)
(-0.0786678 -0.17694 0)
(-0.0825049 -0.177133 0)
(-0.0860978 -0.175719 0)
(-0.0893725 -0.172412 0)
(-0.0922547 -0.166956 0)
(-0.0946684 -0.159195 0)
(-0.0965603 -0.149092 0)
(-0.097929 -0.136764 0)
(-0.0988295 -0.122537 0)
(-0.0993607 -0.106966 0)
(-0.0996352 -0.0907892 0)
(-0.0997551 -0.0748103 0)
(-0.0998093 -0.0597362 0)
(-0.0998628 -0.0460328 0)
(-0.0999478 -0.0338514 0)
(-0.100053 -0.0230575 0)
(-0.10012 -0.0133345 0)
(-0.100079 -0.00429687 0)
(0.100314 -0.00556672 0)
(0.100703 -0.0180104 0)
(0.100774 -0.0314275 0)
(0.100486 -0.0456467 0)
(0.099877 -0.0603771 0)
(0.0989587 -0.0752041 0)
(0.0977137 -0.0896173 0)
(0.0961187 -0.103074 0)
(0.0941545 -0.115076 0)
(0.0918117 -0.125241 0)
(0.0890993 -0.133346 0)
(0.0860523 -0.13933 0)
(0.0827249 -0.143279 0)
(0.0791778 -0.145383 0)
(0.0754708 -0.145898 0)
(0.0716585 -0.145105 0)
(0.0677877 -0.143285 0)
(0.0638972 -0.140693 0)
(0.0600186 -0.137551 0)
(0.0561767 -0.134048 0)
(0.0523939 -0.130319 0)
(0.048687 -0.126476 0)
(0.0450699 -0.122603 0)
(0.0415542 -0.118767 0)
(0.0381526 -0.115014 0)
(0.0348777 -0.111388 0)
(0.0317165 -0.107928 0)
(0.0286419 -0.104661 0)
(0.0256881 -0.101585 0)
(0.0229049 -0.0986984 0)
(0.020282 -0.0960098 0)
(0.0178011 -0.0935284 0)
(0.0154638 -0.0912574 0)
(0.0132704 -0.089197 0)
(0.0112178 -0.0873458 0)
(0.00930127 -0.0857009 0)
(0.00751527 -0.0842583 0)
(0.00585316 -0.0830131 0)
(0.0043079 -0.0819598 0)
(0.00287195 -0.0810925 0)
(0.00153749 -0.080405 0)
(0.000296566 -0.0798909 0)
(-0.000858761 -0.0795439 0)
(-0.0019362 -0.0793578 0)
(-0.00294315 -0.0793262 0)
(-0.00388652 -0.079443 0)
(-0.00477272 -0.0797022 0)
(-0.00560748 -0.0800976 0)
(-0.00639596 -0.0806232 0)
(-0.00714264 -0.0812729 0)
(-0.00785163 -0.0820406 0)
(-0.00852715 -0.0829197 0)
(-0.00917389 -0.083904 0)
(-0.0097978 -0.084987 0)
(-0.0104074 -0.0861637 0)
(-0.0110195 -0.0874304 0)
(-0.0116625 -0.088782 0)
(-0.0123712 -0.0902175 0)
(-0.0131784 -0.0917408 0)
(-0.014108 -0.0933574 0)
(-0.0151865 -0.0950762 0)
(-0.01644 -0.0969134 0)
(-0.0178765 -0.0988838 0)
(-0.0194939 -0.101001 0)
(-0.0212905 -0.103277 0)
(-0.0232681 -0.105724 0)
(-0.0254305 -0.10835 0)
(-0.0277807 -0.111163 0)
(-0.0303213 -0.114166 0)
(-0.0330553 -0.11736 0)
(-0.0359884 -0.120742 0)
(-0.0391241 -0.124306 0)
(-0.0424581 -0.128036 0)
(-0.0459804 -0.1319 0)
(-0.0496796 -0.135854 0)
(-0.0535447 -0.139841 0)
(-0.0575598 -0.143789 0)
(-0.0617003 -0.147604 0)
(-0.0659344 -0.151164 0)
(-0.0702221 -0.15432 0)
(-0.0745154 -0.156893 0)
(-0.078766 -0.158677 0)
(-0.0829147 -0.159437 0)
(-0.0868814 -0.158923 0)
(-0.0905837 -0.156884 0)
(-0.0939369 -0.153094 0)
(-0.0968484 -0.147387 0)
(-0.099239 -0.139647 0)
(-0.101051 -0.129876 0)
(-0.102273 -0.118243 0)
(-0.102958 -0.105108 0)
(-0.103202 -0.0910206 0)
(-0.103119 -0.0766587 0)
(-0.102819 -0.062718 0)
(-0.102407 -0.0497719 0)
(-0.101963 -0.0381573 0)
(-0.101535 -0.0279333 0)
(-0.101117 -0.0189316 0)
(-0.10067 -0.0108656 0)
(-0.100205 -0.00344343 0)
(0.10026 -0.00524509 0)
(0.100728 -0.0168514 0)
(0.10098 -0.0293379 0)
(0.100993 -0.0426066 0)
(0.100769 -0.0564158 0)
(0.100293 -0.0703906 0)
(0.0995265 -0.08405 0)
(0.0984285 -0.0968695 0)
(0.0969603 -0.108358 0)
(0.0950927 -0.118131 0)
(0.092819 -0.125954 0)
(0.0901632 -0.13175 0)
(0.0871723 -0.135588 0)
(0.0839044 -0.137642 0)
(0.0804196 -0.138155 0)
(0.0767758 -0.137401 0)
(0.0730242 -0.135653 0)
(0.0692083 -0.133162 0)
(0.0653636 -0.130147 0)
(0.0615178 -0.126785 0)
(0.0576935 -0.12322 0)
(0.0539103 -0.119558 0)
(0.0501877 -0.115878 0)
(0.0465444 -0.112246 0)
(0.0429771 -0.108719 0)
(0.0394598 -0.105337 0)
(0.0360058 -0.102111 0)
(0.0326913 -0.0990381 0)
(0.0295497 -0.096118 0)
(0.0265443 -0.0933649 0)
(0.0236584 -0.0907928 0)
(0.0209026 -0.0884061 0)
(0.0182829 -0.0862071 0)
(0.0158004 -0.0841974 0)
(0.0134549 -0.082377 0)
(0.011244 -0.0807452 0)
(0.00916421 -0.0793 0)
(0.00721105 -0.0780385 0)
(0.0053789 -0.0769573 0)
(0.0036614 -0.0760524 0)
(0.00205163 -0.0753194 0)
(0.000542351 -0.0747538 0)
(-0.000873749 -0.0743506 0)
(-0.00220394 -0.0741051 0)
(-0.00345518 -0.0740124 0)
(-0.00463408 -0.0740677 0)
(-0.00574668 -0.0742662 0)
(-0.00679842 -0.0746032 0)
(-0.00779405 -0.0750743 0)
(-0.00873762 -0.0756751 0)
(-0.00963269 -0.0764013 0)
(-0.0104831 -0.077249 0)
(-0.0112931 -0.0782141 0)
(-0.0120714 -0.0792928 0)
(-0.0128312 -0.0804809 0)
(-0.0135816 -0.0817744 0)
(-0.0143435 -0.0831669 0)
(-0.0151572 -0.0846533 0)
(-0.0160624 -0.0862311 0)
(-0.0170946 -0.0879054 0)
(-0.0182874 -0.0896858 0)
(-0.0196608 -0.0915811 0)
(-0.0212219 -0.0936018 0)
(-0.0229749 -0.0957611 0)
(-0.024922 -0.0980647 0)
(-0.0270657 -0.100519 0)
(-0.0294059 -0.103132 0)
(-0.0319411 -0.105908 0)
(-0.0346712 -0.10885 0)
(-0.037602 -0.111957 0)
(-0.0407455 -0.115223 0)
(-0.0440969 -0.118631 0)
(-0.04763 -0.122157 0)
(-0.0513188 -0.125778 0)
(-0.0551544 -0.129459 0)
(-0.0591345 -0.13315 0)
(-0.0632408 -0.136781 0)
(-0.067443 -0.140262 0)
(-0.0717037 -0.14348 0)
(-0.0759803 -0.146295 0)
(-0.080222 -0.148543 0)
(-0.0843663 -0.150033 0)
(-0.0883387 -0.150548 0)
(-0.0920573 -0.14986 0)
(-0.0954412 -0.147736 0)
(-0.0984102 -0.14396 0)
(-0.100885 -0.138358 0)
(-0.102797 -0.130838 0)
(-0.104103 -0.121426 0)
(-0.104811 -0.110303 0)
(-0.104991 -0.0978284 0)
(-0.104761 -0.0845323 0)
(-0.104251 -0.0710615 0)
(-0.103583 -0.0580657 0)
(-0.102864 -0.046067 0)
(-0.102181 -0.0353531 0)
(-0.101581 -0.0259455 0)
(-0.101066 -0.0176541 0)
(-0.1006 -0.0101871 0)
(-0.10016 -0.00325219 0)
(0.100301 -0.00479991 0)
(0.100904 -0.0154336 0)
(0.101355 -0.0268724 0)
(0.101626 -0.0390486 0)
(0.101707 -0.0517554 0)
(0.101569 -0.0646574 0)
(0.101161 -0.0773126 0)
(0.100429 -0.0892322 0)
(0.0993208 -0.0999534 0)
(0.0977965 -0.109108 0)
(0.0958429 -0.116466 0)
(0.0934809 -0.121943 0)
(0.0907552 -0.125591 0)
(0.0877221 -0.127564 0)
(0.0844413 -0.128086 0)
(0.0809704 -0.127412 0)
(0.0773614 -0.1258 0)
(0.0736587 -0.12349 0)
(0.0698989 -0.120691 0)
(0.066112 -0.117573 0)
(0.0623235 -0.11427 0)
(0.0585558 -0.110887 0)
(0.0548089 -0.107518 0)
(0.0510552 -0.104226 0)
(0.0472983 -0.101038 0)
(0.043618 -0.0979593 0)
(0.0400772 -0.0949961 0)
(0.0366556 -0.0921565 0)
(0.0333297 -0.0894623 0)
(0.0301056 -0.0869263 0)
(0.0269904 -0.0845503 0)
(0.0239908 -0.0823356 0)
(0.0211134 -0.0802847 0)
(0.0183618 -0.0783992 0)
(0.0157381 -0.0766802 0)
(0.0132425 -0.075128 0)
(0.0108741 -0.0737424 0)
(0.00863063 -0.0725226 0)
(0.0065084 -0.0714672 0)
(0.0045028 -0.0705742 0)
(0.00260839 -0.0698414 0)
(0.000819174 -0.0692661 0)
(-0.000871226 -0.0688453 0)
(-0.00246932 -0.068576 0)
(-0.00398167 -0.0684547 0)
(-0.00541461 -0.0684782 0)
(-0.00677421 -0.0686431 0)
(-0.00806608 -0.0689462 0)
(-0.0092953 -0.0693845 0)
(-0.0104663 -0.069955 0)
(-0.0115829 -0.0706553 0)
(-0.0126488 -0.0714829 0)
(-0.0136678 -0.0724358 0)
(-0.0146435 -0.0735121 0)
(-0.0155811 -0.0747082 0)
(-0.0164882 -0.0760193 0)
(-0.0173868 -0.0774409 0)
(-0.0183173 -0.0789652 0)
(-0.0193336 -0.0805854 0)
(-0.0204865 -0.082303 0)
(-0.0218108 -0.084122 0)
(-0.0233339 -0.0860451 0)
(-0.0250738 -0.0880747 0)
(-0.0270173 -0.0902125 0)
(-0.0291482 -0.0924672 0)
(-0.0314745 -0.0948458 0)
(-0.0340001 -0.0973515 0)
(-0.0367225 -0.0999871 0)
(-0.0396384 -0.102754 0)
(-0.0427402 -0.10565 0)
(-0.0460089 -0.108668 0)
(-0.0494341 -0.111788 0)
(-0.053022 -0.114993 0)
(-0.0567769 -0.118259 0)
(-0.0606822 -0.121558 0)
(-0.0647036 -0.124842 0)
(-0.0688103 -0.128049 0)
(-0.0729712 -0.131094 0)
(-0.0771495 -0.133873 0)
(-0.0813011 -0.136259 0)
(-0.0853771 -0.138098 0)
(-0.089321 -0.139212 0)
(-0.0930651 -0.139403 0)
(-0.0965303 -0.13846 0)
(-0.099629 -0.136179 0)
(-0.102277 -0.13237 0)
(-0.104399 -0.126891 0)
(-0.105939 -0.119674 0)
(-0.106864 -0.110763 0)
(-0.107188 -0.100342 0)
(-0.106992 -0.0887578 0)
(-0.106402 -0.076509 0)
(-0.105557 -0.0641897 0)
(-0.104583 -0.0523844 0)
(-0.103595 -0.0415489 0)
(-0.102682 -0.0319175 0)
(-0.101896 -0.0234791 0)
(-0.101239 -0.0160327 0)
(-0.100674 -0.00929022 0)
(-0.100176 -0.00297527 0)
(0.100318 -0.00444138 0)
(0.100996 -0.0142887 0)
(0.101559 -0.0248913 0)
(0.101981 -0.0361998 0)
(0.102251 -0.0480316 0)
(0.102331 -0.0600762 0)
(0.102165 -0.071919 0)
(0.10169 -0.0830975 0)
(0.100847 -0.0931715 0)
(0.0995869 -0.101789 0)
(0.0978915 -0.108725 0)
(0.0957782 -0.113895 0)
(0.0932879 -0.117339 0)
(0.0904739 -0.119199 0)
(0.0873939 -0.119682 0)
(0.0841042 -0.119028 0)
(0.0806562 -0.117482 0)
(0.0770944 -0.115275 0)
(0.0734574 -0.112606 0)
(0.0697794 -0.109645 0)
(0.0660712 -0.106538 0)
(0.0623019 -0.10339 0)
(0.0584657 -0.10027 0)
(0.0546493 -0.0972097 0)
(0.0509254 -0.0942296 0)
(0.0472714 -0.0913428 0)
(0.0436661 -0.088574 0)
(0.0401251 -0.0859435 0)
(0.0366579 -0.0834554 0)
(0.0332716 -0.0811115 0)
(0.0299756 -0.0789131 0)
(0.0267784 -0.0768611 0)
(0.023687 -0.0749562 0)
(0.0207072 -0.0731997 0)
(0.0178431 -0.0715924 0)
(0.0150977 -0.0701351 0)
(0.0124722 -0.068828 0)
(0.00996636 -0.0676715 0)
(0.0075785 -0.0666653 0)
(0.0053057 -0.0658089 0)
(0.00314409 -0.0651012 0)
(0.00108898 -0.0645411 0)
(-0.000864883 -0.0641267 0)
(-0.00272318 -0.0638563 0)
(-0.00449178 -0.0637278 0)
(-0.00617666 -0.0637388 0)
(-0.00778366 -0.0638871 0)
(-0.00931841 -0.0641702 0)
(-0.0107861 -0.064586 0)
(-0.0121914 -0.065132 0)
(-0.0135387 -0.0658063 0)
(-0.0148324 -0.0666065 0)
(-0.0160767 -0.0675305 0)
(-0.0172754 -0.0685771 0)
(-0.0184326 -0.0697445 0)
(-0.0195525 -0.0710349 0)
(-0.0206454 -0.0724508 0)
(-0.0217428 -0.0739785 0)
(-0.022906 -0.0756082 0)
(-0.0241964 -0.0773312 0)
(-0.0256496 -0.0791431 0)
(-0.0272825 -0.0810429 0)
(-0.0290991 -0.0830291 0)
(-0.031118 -0.0850995 0)
(-0.0333552 -0.087261 0)
(-0.0358002 -0.0895194 0)
(-0.0384446 -0.0918774 0)
(-0.0412855 -0.0943363 0)
(-0.0443172 -0.0968963 0)
(-0.0475294 -0.0995546 0)
(-0.0509085 -0.102307 0)
(-0.0544422 -0.105149 0)
(-0.0581212 -0.108066 0)
(-0.0619324 -0.111037 0)
(-0.0658556 -0.114023 0)
(-0.0698642 -0.116981 0)
(-0.073928 -0.119853 0)
(-0.0780125 -0.122565 0)
(-0.0820781 -0.125022 0)
(-0.0860793 -0.127107 0)
(-0.0899638 -0.128679 0)
(-0.0936678 -0.129573 0)
(-0.0971224 -0.129605 0)
(-0.100267 -0.128583 0)
(-0.10303 -0.126314 0)
(-0.105337 -0.122625 0)
(-0.107116 -0.117387 0)
(-0.108308 -0.110548 0)
(-0.108883 -0.10216 0)
(-0.108868 -0.0924053 0)
(-0.10835 -0.0816124 0)
(-0.107466 -0.0702468 0)
(-0.106364 -0.0588567 0)
(-0.10517 -0.0479785 0)
(-0.103999 -0.0380268 0)
(-0.102941 -0.0292086 0)
(-0.102046 -0.0215007 0)
(-0.101314 -0.0147032 0)
(-0.100702 -0.00853695 0)
(-0.100178 -0.00273799 0)
(0.100342 -0.00409114 0)
(0.1011 -0.0131803 0)
(0.101767 -0.0229807 0)
(0.102318 -0.0334519 0)
(0.102736 -0.04443 0)
(0.102978 -0.0556269 0)
(0.102983 -0.066655 0)
(0.102684 -0.0770812 0)
(0.102017 -0.0864923 0)
(0.100928 -0.0945563 0)
(0.0993999 -0.10106 0)
(0.0974486 -0.105916 0)
(0.095115 -0.109159 0)
(0.0924514 -0.110914 0)
(0.0895147 -0.111371 0)
(0.086361 -0.110753 0)
(0.0830424 -0.10929 0)
(0.0796053 -0.107201 0)
(0.0760744 -0.104687 0)
(0.0724439 -0.101918 0)
(0.0687237 -0.0990224 0)
(0.0649737 -0.0960881 0)
(0.0612513 -0.0931629 0)
(0.0575494 -0.0902812 0)
(0.0538528 -0.0874866 0)
(0.0501775 -0.084811 0)
(0.0465339 -0.0822633 0)
(0.0429315 -0.0798474 0)
(0.0393815 -0.0775656 0)
(0.0358926 -0.0754179 0)
(0.0324738 -0.0734039 0)
(0.0291343 -0.0715233 0)
(0.0258827 -0.0697763 0)
(0.0227262 -0.0681628 0)
(0.019671 -0.0666836 0)
(0.0167215 -0.0653391 0)
(0.013881 -0.0641303 0)
(0.011151 -0.0630577 0)
(0.00853181 -0.0621219 0)
(0.0060223 -0.0613232 0)
(0.00362033 -0.0606616 0)
(0.00132276 -0.0601367 0)
(-0.00087436 -0.0597478 0)
(-0.0029756 -0.0594941 0)
(-0.00498593 -0.0593742 0)
(-0.00691058 -0.0593869 0)
(-0.0087549 -0.0595307 0)
(-0.0105241 -0.059804 0)
(-0.0122234 -0.0602051 0)
(-0.013857 -0.0607325 0)
(-0.0154283 -0.0613847 0)
(-0.0169404 -0.0621601 0)
(-0.0183987 -0.0630572 0)
(-0.0198073 -0.0640749 0)
(-0.021178 -0.0652111 0)
(-0.0225262 -0.066464 0)
(-0.0238321 -0.0678293 0)
(-0.0251026 -0.0692977 0)
(-0.0264022 -0.0708609 0)
(-0.0277946 -0.072509 0)
(-0.0293345 -0.0742356 0)
(-0.0310561 -0.0760389 0)
(-0.0329743 -0.0779207 0)
(-0.0350973 -0.0798861 0)
(-0.0374276 -0.0819335 0)
(-0.0399616 -0.0840624 0)
(-0.042693 -0.0862745 0)
(-0.0456149 -0.0885699 0)
(-0.0487182 -0.0909475 0)
(-0.0519916 -0.0934042 0)
(-0.0554221 -0.0959351 0)
(-0.0589952 -0.0985325 0)
(-0.0626951 -0.101183 0)
(-0.0665029 -0.103866 0)
(-0.0703958 -0.106553 0)
(-0.074347 -0.109202 0)
(-0.0783261 -0.111761 0)
(-0.0822978 -0.114161 0)
(-0.0862224 -0.116314 0)
(-0.0900546 -0.118114 0)
(-0.0937411 -0.11943 0)
(-0.0972231 -0.120112 0)
(-0.100442 -0.119997 0)
(-0.103334 -0.118909 0)
(-0.105816 -0.116673 0)
(-0.107816 -0.113131 0)
(-0.10928 -0.108167 0)
(-0.110175 -0.101738 0)
(-0.11048 -0.0938955 0)
(-0.110218 -0.0848138 0)
(-0.109477 -0.0748024 0)
(-0.108391 -0.0642946 0)
(-0.107099 -0.0537994 0)
(-0.105733 -0.0438094 0)
(-0.104411 -0.0346998 0)
(-0.103225 -0.0266517 0)
(-0.102225 -0.0196316 0)
(-0.101412 -0.0134429 0)
(-0.100744 -0.00781871 0)
(-0.100185 -0.00251021 0)
(0.100361 -0.00376583 0)
(0.101184 -0.0121474 0)
(0.101933 -0.0211968 0)
(0.102581 -0.0308821 0)
(0.103107 -0.0410531 0)
(0.103467 -0.0514427 0)
(0.103596 -0.0616894 0)
(0.103422 -0.071389 0)
(0.102879 -0.0801559 0)
(0.101912 -0.0876797 0)
(0.100502 -0.0937585 0)
(0.0986682 -0.0983083 0)
(0.0964499 -0.101355 0)
(0.0938999 -0.103011 0)
(0.0910763 -0.10345 0)
(0.0880361 -0.102877 0)
(0.0848234 -0.10151 0)
(0.0814569 -0.0995637 0)
(0.0779537 -0.0972287 0)
(0.0743611 -0.0946457 0)
(0.07073 -0.0919205 0)
(0.0670858 -0.0891388 0)
(0.0634341 -0.0863738 0)
(0.0597745 -0.0836819 0)
(0.0561087 -0.0810907 0)
(0.0524457 -0.0786164 0)
(0.0487978 -0.076268 0)
(0.0451749 -0.0740477 0)
(0.041585 -0.0719558 0)
(0.038036 -0.0699914 0)
(0.0345378 -0.0681527 0)
(0.0311001 -0.066438 0)
(0.0277321 -0.0648459 0)
(0.0244422 -0.0633757 0)
(0.0212377 -0.0620275 0)
(0.0181244 -0.0608014 0)
(0.0151069 -0.0596982 0)
(0.0121886 -0.0587187 0)
(0.00937123 -0.0578636 0)
(0.0066555 -0.0571335 0)
(0.0040408 -0.0565289 0)
(0.00152548 -0.0560501 0)
(-0.000893075 -0.0556971 0)
(-0.00321826 -0.0554696 0)
(-0.00545412 -0.0553671 0)
(-0.00760513 -0.0553889 0)
(-0.00967605 -0.0555341 0)
(-0.0116717 -0.0558018 0)
(-0.0135967 -0.056191 0)
(-0.0154555 -0.0567009 0)
(-0.0172521 -0.0573308 0)
(-0.0189904 -0.05808 0)
(-0.0206745 -0.058948 0)
(-0.0223059 -0.0599334 0)
(-0.023886 -0.0610343 0)
(-0.0254112 -0.0622441 0)
(-0.0268696 -0.063552 0)
(-0.0282796 -0.0649543 0)
(-0.0297003 -0.0664405 0)
(-0.0311974 -0.068002 0)
(-0.0328284 -0.0696348 0)
(-0.0346307 -0.0713362 0)
(-0.0366244 -0.0731056 0)
(-0.0388187 -0.0749434 0)
(-0.0412146 -0.0768494 0)
(-0.0438087 -0.0788238 0)
(-0.0465946 -0.080867 0)
(-0.0495631 -0.0829789 0)
(-0.0527039 -0.0851581 0)
(-0.0560044 -0.0874022 0)
(-0.0594498 -0.0897063 0)
(-0.0630237 -0.0920624 0)
(-0.0667073 -0.0944584 0)
(-0.0704797 -0.0968755 0)
(-0.0743166 -0.0992875 0)
(-0.0781905 -0.101658 0)
(-0.0820701 -0.103939 0)
(-0.0859199 -0.106066 0)
(-0.0897003 -0.107958 0)
(-0.0933669 -0.109517 0)
(-0.09687 -0.110624 0)
(-0.100153 -0.111141 0)
(-0.103158 -0.110917 0)
(-0.105821 -0.10979 0)
(-0.108069 -0.107602 0)
(-0.109836 -0.104216 0)
(-0.111071 -0.0995353 0)
(-0.111732 -0.0935222 0)
(-0.111798 -0.0862273 0)
(-0.111306 -0.0778124 0)
(-0.110354 -0.0685631 0)
(-0.109082 -0.0588777 0)
(-0.107638 -0.0492245 0)
(-0.106144 -0.0400554 0)
(-0.104714 -0.0317122 0)
(-0.103435 -0.0243548 0)
(-0.102358 -0.0179467 0)
(-0.101484 -0.0123002 0)
(-0.100775 -0.00716281 0)
(-0.100189 -0.00230106 0)
(0.100378 -0.00345229 0)
(0.101257 -0.0111489 0)
(0.102075 -0.0194671 0)
(0.102802 -0.0283825 0)
(0.103415 -0.0377565 0)
(0.103867 -0.0473433 0)
(0.104089 -0.0568091 0)
(0.10401 -0.0657803 0)
(0.103559 -0.0739006 0)
(0.102683 -0.0808826 0)
(0.101363 -0.0865373 0)
(0.0996176 -0.090784 0)
(0.0974874 -0.0936422 0)
(0.0950261 -0.0952123 0)
(0.092292 -0.095653 0)
(0.0893292 -0.0951592 0)
(0.0861575 -0.0939344 0)
(0.0828083 -0.0921621 0)
(0.0793618 -0.0899964 0)
(0.0758734 -0.0875763 0)
(0.0723426 -0.08502 0)
(0.0687731 -0.0824212 0)
(0.065174 -0.0798486 0)
(0.0615524 -0.0773483 0)
(0.0579172 -0.0749483 0)
(0.0542769 -0.0726634 0)
(0.0506396 -0.0705011 0)
(0.0470126 -0.0684634 0)
(0.0434024 -0.06655 0)
(0.0398168 -0.0647586 0)
(0.0362656 -0.0630859 0)
(0.0327585 -0.0615293 0)
(0.0293045 -0.0600864 0)
(0.0259122 -0.0587558 0)
(0.0225893 -0.0575366 0)
(0.0193426 -0.0564287 0)
(0.0161779 -0.0554325 0)
(0.0130998 -0.0545485 0)
(0.0101116 -0.0537775 0)
(0.00721538 -0.0531202 0)
(0.004412 -0.0525773 0)
(0.00170115 -0.0521493 0)
(-0.000918458 -0.0518366 0)
(-0.00344894 -0.0516394 0)
(-0.00589316 -0.0515575 0)
(-0.00825462 -0.0515906 0)
(-0.0105374 -0.0517383 0)
(-0.012746 -0.052 0)
(-0.0148849 -0.0523748 0)
(-0.0169585 -0.0528622 0)
(-0.01897 -0.0534612 0)
(-0.0209222 -0.0541709 0)
(-0.0228177 -0.0549904 0)
(-0.0246561 -0.0559182 0)
(-0.0264345 -0.0569527 0)
(-0.0281443 -0.0580908 0)
(-0.0297697 -0.059328 0)
(-0.0313152 -0.0606579 0)
(-0.0328328 -0.0620664 0)
(-0.0344026 -0.0635415 0)
(-0.0360953 -0.0650766 0)
(-0.0379541 -0.0666688 0)
(-0.0400004 -0.0683171 0)
(-0.0422424 -0.0700212 0)
(-0.0446806 -0.0717811 0)
(-0.0473113 -0.0735973 0)
(-0.0501272 -0.07547 0)
(-0.0531186 -0.077399 0)
(-0.0562732 -0.0793832 0)
(-0.0595769 -0.0814203 0)
(-0.0630138 -0.0835057 0)
(-0.0665661 -0.0856323 0)
(-0.0702139 -0.0877889 0)
(-0.0739349 -0.0899587 0)
(-0.0777039 -0.0921178 0)
(-0.0814924 -0.0942327 0)
(-0.085269 -0.0962589 0)
(-0.0889986 -0.098138 0)
(-0.0926421 -0.0997957 0)
(-0.0961562 -0.101141 0)
(-0.0994933 -0.102064 0)
(-0.1026 -0.10244 0)
(-0.105415 -0.10213 0)
(-0.107878 -0.100987 0)
(-0.109922 -0.0988695 0)
(-0.111487 -0.0956544 0)
(-0.112524 -0.0912554 0)
(-0.112992 -0.0856438 0)
(-0.112879 -0.0788737 0)
(-0.112219 -0.0711011 0)
(-0.111108 -0.0625899 0)
(-0.10969 -0.0537055 0)
(-0.108112 -0.044872 0)
(-0.106502 -0.0364973 0)
(-0.10497 -0.0288892 0)
(-0.103605 -0.0221891 0)
(-0.102462 -0.0163583 0)
(-0.101541 -0.0112203 0)
(-0.100798 -0.00654 0)
(-0.100193 -0.00210154 0)
(0.100393 -0.00314981 0)
(0.101317 -0.0101799 0)
(0.102191 -0.0177836 0)
(0.102982 -0.0259404 0)
(0.103666 -0.0345253 0)
(0.104193 -0.0433137 0)
(0.104493 -0.0520002 0)
(0.104493 -0.0602428 0)
(0.10412 -0.0677154 0)
(0.10332 -0.0741541 0)
(0.102078 -0.0793839 0)
(0.10041 -0.083328 0)
(0.098357 -0.0860003 0)
(0.0959662 -0.0874919 0)
(0.0932761 -0.0879504 0)
(0.0903297 -0.0875509 0)
(0.0871995 -0.0864634 0)
(0.0839583 -0.0848465 0)
(0.0806249 -0.0828496 0)
(0.0772044 -0.0806161 0)
(0.0737226 -0.0782606 0)
(0.0701964 -0.0758675 0)
(0.0666361 -0.0734991 0)
(0.0630497 -0.0711976 0)
(0.0594438 -0.0689903 0)
(0.0558249 -0.0668928 0)
(0.0521998 -0.0649125 0)
(0.0485738 -0.0630515 0)
(0.0449521 -0.0613087 0)
(0.0413421 -0.0596812 0)
(0.0377527 -0.0581655 0)
(0.0341927 -0.0567583 0)
(0.030671 -0.0554567 0)
(0.027196 -0.0542588 0)
(0.0237756 -0.0531633 0)
(0.0204174 -0.0521693 0)
(0.0171277 -0.0512769 0)
(0.0139121 -0.0504862 0)
(0.0107751 -0.0497977 0)
(0.00771995 -0.0492123 0)
(0.00474868 -0.0487305 0)
(0.00186232 -0.048353 0)
(-0.00093921 -0.0480804 0)
(-0.00365693 -0.047913 0)
(-0.00629273 -0.0478509 0)
(-0.00884918 -0.0478941 0)
(-0.0113294 -0.0480421 0)
(-0.0137368 -0.0482947 0)
(-0.016075 -0.0486511 0)
(-0.0183472 -0.0491107 0)
(-0.0205565 -0.0496725 0)
(-0.0227052 -0.0503356 0)
(-0.0247952 -0.0510991 0)
(-0.0268256 -0.0519617 0)
(-0.0287918 -0.0529222 0)
(-0.0306812 -0.053979 0)
(-0.0324705 -0.0551302 0)
(-0.0341507 -0.0563717 0)
(-0.0357663 -0.0576887 0)
(-0.037404 -0.0590659 0)
(-0.0391451 -0.0604955 0)
(-0.0410416 -0.0619736 0)
(-0.0431187 -0.0634982 0)
(-0.0453868 -0.0650683 0)
(-0.0478471 -0.0666838 0)
(-0.0504952 -0.0683447 0)
(-0.0533227 -0.0700512 0)
(-0.0563185 -0.0718032 0)
(-0.0594694 -0.0735998 0)
(-0.0627605 -0.075439 0)
(-0.0661748 -0.077317 0)
(-0.0696937 -0.0792276 0)
(-0.0732962 -0.0811604 0)
(-0.0769593 -0.0831001 0)
(-0.0806571 -0.0850247 0)
(-0.0843609 -0.0869037 0)
(-0.0880391 -0.0886959 0)
(-0.0916567 -0.090348 0)
(-0.0951749 -0.0917919 0)
(-0.0985517 -0.0929443 0)
(-0.101741 -0.0937056 0)
(-0.104689 -0.0939617 0)
(-0.107338 -0.0935863 0)
(-0.109625 -0.0924478 0)
(-0.111492 -0.0904181 0)
(-0.112883 -0.0873914 0)
(-0.113746 -0.0832905 0)
(-0.114045 -0.0780924 0)
(-0.113772 -0.0718504 0)
(-0.112964 -0.0647093 0)
(-0.111718 -0.0569126 0)
(-0.11018 -0.0487945 0)
(-0.108498 -0.0407415 0)
(-0.106797 -0.033122 0)
(-0.105188 -0.0262112 0)
(-0.103758 -0.0201338 0)
(-0.10256 -0.0148488 0)
(-0.101595 -0.0101912 0)
(-0.100822 -0.00594424 0)
(-0.100197 -0.00191056 0)
(0.100404 -0.00285509 0)
(0.101366 -0.0092315 0)
(0.102285 -0.0161315 0)
(0.103129 -0.0235362 0)
(0.103872 -0.0313352 0)
(0.104464 -0.0393259 0)
(0.104833 -0.0472319 0)
(0.104904 -0.0547437 0)
(0.104604 -0.0615656 0)
(0.103879 -0.067458 0)
(0.102711 -0.0722606 0)
(0.101121 -0.0759016 0)
(0.0991379 -0.0783937 0)
(0.0967949 -0.0798185 0)
(0.0941391 -0.0802975 0)
(0.0912534 -0.079971 0)
(0.088208 -0.078996 0)
(0.0850332 -0.0775334 0)
(0.0817503 -0.075733 0)
(0.078381 -0.0737153 0)
(0.0749465 -0.0715796 0)
(0.0714622 -0.0694046 0)
(0.067938 -0.0672485 0)
(0.0643815 -0.065152 0)
(0.0607991 -0.0631417 0)
(0.0571971 -0.0612329 0)
(0.0535812 -0.059433 0)
(0.0499555 -0.0577444 0)
(0.046324 -0.0561664 0)
(0.0426936 -0.0546961 0)
(0.0390718 -0.0533301 0)
(0.0354668 -0.0520649 0)
(0.0318868 -0.0508973 0)
(0.0283403 -0.0498249 0)
(0.0248354 -0.0488462 0)
(0.0213798 -0.0479599 0)
(0.0179808 -0.0471657 0)
(0.0146443 -0.0464635 0)
(0.0113757 -0.0458538 0)
(0.00817905 -0.0453369 0)
(0.0050574 -0.0449136 0)
(0.00201276 -0.0445844 0)
(-0.000953773 -0.0443499 0)
(-0.00384202 -0.0442103 0)
(-0.00665264 -0.0441659 0)
(-0.00938713 -0.0442167 0)
(-0.0120477 -0.0443625 0)
(-0.0146372 -0.0446029 0)
(-0.0171586 -0.0449374 0)
(-0.0196146 -0.0453656 0)
(-0.0220075 -0.0458868 0)
(-0.0243387 -0.0465001 0)
(-0.0266087 -0.0472048 0)
(-0.0288157 -0.0479998 0)
(-0.030954 -0.0488839 0)
(-0.0330119 -0.0498561 0)
(-0.0349646 -0.0509135 0)
(-0.0367812 -0.0520522 0)
(-0.0384848 -0.0532621 0)
(-0.0401751 -0.0545317 0)
(-0.0419532 -0.0558497 0)
(-0.0438776 -0.0572096 0)
(-0.0459757 -0.0586079 0)
(-0.0482588 -0.0600431 0)
(-0.0507285 -0.0615145 0)
(-0.0533806 -0.0630221 0)
(-0.0562065 -0.0645659 0)
(-0.0591948 -0.0661461 0)
(-0.0623319 -0.0677621 0)
(-0.0656021 -0.0694123 0)
(-0.0689876 -0.0710933 0)
(-0.0724686 -0.0727994 0)
(-0.0760235 -0.0745212 0)
(-0.0796283 -0.0762446 0)
(-0.0832567 -0.0779494 0)
(-0.0868796 -0.0796079 0)
(-0.0904657 -0.0811826 0)
(-0.0939803 -0.0826247 0)
(-0.0973852 -0.0838722 0)
(-0.100639 -0.0848495 0)
(-0.103696 -0.0854666 0)
(-0.106502 -0.0856202 0)
(-0.109001 -0.0851968 0)
(-0.11113 -0.0840789 0)
(-0.112843 -0.0821538 0)
(-0.114083 -0.0793278 0)
(-0.114791 -0.0755332 0)
(-0.114939 -0.0707532 0)
(-0.114524 -0.0650395 0)
(-0.113584 -0.0585265 0)
(-0.112219 -0.0514361 0)
(-0.110576 -0.0440712 0)
(-0.108804 -0.0367798 0)
(-0.107027 -0.0298924 0)
(-0.105353 -0.0236541 0)
(-0.103871 -0.0181728 0)
(-0.102631 -0.0134082 0)
(-0.101634 -0.00920818 0)
(-0.100838 -0.0053746 0)
(-0.100199 -0.00172832 0)
(0.100413 -0.00256628 0)
(0.101404 -0.00830044 0)
(0.10236 -0.0145051 0)
(0.10325 -0.0211655 0)
(0.104043 -0.0281835 0)
(0.104692 -0.0353788 0)
(0.105124 -0.0425049 0)
(0.105262 -0.0492846 0)
(0.105032 -0.0554532 0)
(0.104379 -0.0607951 0)
(0.103284 -0.0651655 0)
(0.101757 -0.0684997 0)
(0.0998231 -0.0708067 0)
(0.0975374 -0.0721496 0)
(0.0949756 -0.0726285 0)
(0.092185 -0.0723718 0)
(0.0892019 -0.0715286 0)
(0.0860716 -0.0702433 0)
(0.0828283 -0.0686451 0)
(0.0794974 -0.0668441 0)
(0.0760981 -0.0649312 0)
(0.0726442 -0.0629783 0)
(0.0691458 -0.0610391 0)
(0.0656107 -0.0591515 0)
(0.0620449 -0.0573405 0)
(0.0584542 -0.055621 0)
(0.0548433 -0.0540005 0)
(0.0512143 -0.052482 0)
(0.0475705 -0.051065 0)
(0.0439184 -0.0497472 0)
(0.0402652 -0.0485254 0)
(0.0366182 -0.0473961 0)
(0.0329855 -0.0463562 0)
(0.0293749 -0.0454032 0)
(0.0257946 -0.044535 0)
(0.0222523 -0.0437504 0)
(0.0187554 -0.0430487 0)
(0.0153105 -0.0424297 0)
(0.0119235 -0.0418936 0)
(0.00859938 -0.0414407 0)
(0.00534214 -0.0410715 0)
(0.00215482 -0.0407866 0)
(-0.000960544 -0.0405863 0)
(-0.00400287 -0.0404711 0)
(-0.00697199 -0.0404413 0)
(-0.00986857 -0.0404968 0)
(-0.012694 -0.0406377 0)
(-0.0154502 -0.0408635 0)
(-0.0181392 -0.041174 0)
(-0.0207631 -0.0415685 0)
(-0.0233234 -0.0420466 0)
(-0.025821 -0.0426075 0)
(-0.028256 -0.0432505 0)
(-0.0306261 -0.0439748 0)
(-0.0329243 -0.0447793 0)
(-0.0351326 -0.0456629 0)
(-0.0372188 -0.0466229 0)
(-0.0391521 -0.0476554 0)
(-0.0409568 -0.0487547 0)
(-0.0427195 -0.049911 0)
(-0.0445364 -0.0511117 0)
(-0.0464795 -0.0523486 0)
(-0.0485862 -0.0536173 0)
(-0.0508718 -0.0549157 0)
(-0.0533395 -0.0562429 0)
(-0.0559858 -0.0575988 0)
(-0.0588021 -0.0589836 0)
(-0.0617766 -0.0603972 0)
(-0.0648948 -0.0618392 0)
(-0.06814 -0.063308 0)
(-0.0714936 -0.0648006 0)
(-0.0749351 -0.0663117 0)
(-0.0784421 -0.0678328 0)
(-0.0819906 -0.0693513 0)
(-0.085554 -0.0708488 0)
(-0.0891033 -0.0723003 0)
(-0.0926064 -0.0736719 0)
(-0.0960285 -0.0749193 0)
(-0.0993318 -0.0759866 0)
(-0.102475 -0.0768057 0)
(-0.105413 -0.0772957 0)
(-0.108093 -0.0773648 0)
(-0.110457 -0.0769122 0)
(-0.11245 -0.0758327 0)
(-0.114024 -0.0740295 0)
(-0.115123 -0.0714172 0)
(-0.11569 -0.067938 0)
(-0.115702 -0.063581 0)
(-0.115158 -0.0583961 0)
(-0.114101 -0.0525061 0)
(-0.11263 -0.0461123 0)
(-0.110895 -0.0394867 0)
(-0.109046 -0.0329404 0)
(-0.107205 -0.0267671 0)
(-0.105479 -0.0211827 0)
(-0.103955 -0.0162799 0)
(-0.102682 -0.0120187 0)
(-0.101661 -0.0082599 0)
(-0.100849 -0.0048247 0)
(-0.100201 -0.00155206 0)
(0.10042 -0.00228257 0)
(0.101434 -0.00738472 0)
(0.10242 -0.0129026 0)
(0.103346 -0.0188268 0)
(0.104184 -0.0250705 0)
(0.104884 -0.0314753 0)
(0.105375 -0.0378242 0)
(0.105578 -0.0438723 0)
(0.105418 -0.0493853 0)
(0.104836 -0.0541716 0)
(0.10381 -0.0581029 0)
(0.102348 -0.0611193 0)
(0.100487 -0.0632208 0)
(0.0982867 -0.0644581 0)
(0.0957975 -0.0649257 0)
(0.0930666 -0.0647447 0)
(0.0901396 -0.0640396 0)
(0.0870585 -0.0629335 0)
(0.0838574 -0.0615404 0)
(0.0805627 -0.0599593 0)
(0.0771939 -0.0582722 0)
(0.0737652 -0.0565441 0)
(0.0702872 -0.0548239 0)
(0.0667674 -0.0531466 0)
(0.063212 -0.0515358 0)
(0.0596262 -0.0500057 0)
(0.0560136 -0.048564 0)
(0.0523759 -0.0472141 0)
(0.048716 -0.0459558 0)
(0.04504 -0.0447869 0)
(0.0413544 -0.0437048 0)
(0.0376663 -0.0427061 0)
(0.0339831 -0.041788 0)
(0.0303127 -0.040948 0)
(0.0266631 -0.0401841 0)
(0.0230419 -0.0394952 0)
(0.0194568 -0.0388804 0)
(0.0159147 -0.0383393 0)
(0.0124219 -0.0378718 0)
(0.0089838 -0.0374784 0)
(0.00560508 -0.0371592 0)
(0.00228946 -0.0369147 0)
(-0.000960224 -0.0367452 0)
(-0.00414196 -0.0366512 0)
(-0.0072546 -0.0366328 0)
(-0.0102978 -0.0366902 0)
(-0.0132722 -0.0368232 0)
(-0.0161787 -0.0370315 0)
(-0.0190191 -0.037315 0)
(-0.0217947 -0.037673 0)
(-0.0245068 -0.0381051 0)
(-0.0271553 -0.0386106 0)
(-0.0297394 -0.039189 0)
(-0.0322554 -0.0398397 0)
(-0.0346952 -0.0405618 0)
(-0.0370416 -0.0413547 0)
(-0.0392617 -0.0422182 0)
(-0.0413136 -0.043151 0)
(-0.0432047 -0.0441441 0)
(-0.0450197 -0.0451825 0)
(-0.0468662 -0.0462578 0)
(-0.0488245 -0.0473648 0)
(-0.0509369 -0.0484993 0)