/*--------------------------------*- C++ -*----------------------------------*\
| =========                 |                                                 |
| \\      /  F ield         | OpenFOAM: The Open Source CFD Toolbox           |
|  \\    /   O peration     | Version:  2212                                  |
|   \\  /    A nd           | Website:  www.openfoam.com                      |
|    \\/     M anipulation  |                                                 |
\*---------------------------------------------------------------------------*/
FoamFile
{
    version     2.0;
    format      ascii;
    arch        "LSB;label=64;scalar=64";
    class       volScalarField;
    location    "1060";
    object      Gh2;
}
// * * * * * * * * * * * * * * * * * * * * * * * * * * * * * * * * * * * * * //

dimensions      [1 -3 0 0 0 0 0];

internalField   nonuniform List<scalar> 
1024
(
1.26585e-05
1.26573e-05
1.26544e-05
1.26492e-05
1.26411e-05
1.26298e-05
1.26155e-05
1.25988e-05
1.25809e-05
1.25629e-05
1.25459e-05
1.25311e-05
1.25198e-05
1.25132e-05
1.25129e-05
1.25207e-05
1.25373e-05
1.25599e-05
1.2585e-05
1.2612e-05
1.26409e-05
1.26712e-05
1.27019e-05
1.27314e-05
1.2758e-05
1.27804e-05
1.2798e-05
1.28109e-05
1.28197e-05
1.28253e-05
1.28284e-05
1.28296e-05
1.26584e-05
1.26572e-05
1.26542e-05
1.26489e-05
1.26406e-05
1.26292e-05
1.26147e-05
1.2598e-05
1.258e-05
1.25619e-05
1.2545e-05
1.25301e-05
1.25188e-05
1.25122e-05
1.2512e-05
1.25198e-05
1.25365e-05
1.25589e-05
1.25839e-05
1.26108e-05
1.26395e-05
1.26697e-05
1.27004e-05
1.273e-05
1.27568e-05
1.27794e-05
1.27972e-05
1.28103e-05
1.28193e-05
1.28249e-05
1.2828e-05
1.28293e-05
1.26583e-05
1.2657e-05
1.26539e-05
1.26484e-05
1.26399e-05
1.26282e-05
1.26135e-05
1.25965e-05
1.25784e-05
1.25601e-05
1.25428e-05
1.25277e-05
1.25162e-05
1.25098e-05
1.25098e-05
1.25179e-05
1.25347e-05
1.2557e-05
1.25818e-05
1.26084e-05
1.26368e-05
1.26667e-05
1.26973e-05
1.27271e-05
1.27542e-05
1.27772e-05
1.27955e-05
1.2809e-05
1.28183e-05
1.28241e-05
1.28273e-05
1.28286e-05
1.2658e-05
1.26567e-05
1.26535e-05
1.26478e-05
1.26391e-05
1.26271e-05
1.26121e-05
1.25948e-05
1.25763e-05
1.25576e-05
1.25394e-05
1.25234e-05
1.25116e-05
1.25054e-05
1.25062e-05
1.2515e-05
1.25321e-05
1.25544e-05
1.25789e-05
1.2605e-05
1.26328e-05
1.26623e-05
1.26926e-05
1.27225e-05
1.275e-05
1.27737e-05
1.27926e-05
1.28068e-05
1.28165e-05
1.28226e-05
1.2826e-05
1.28273e-05
1.26579e-05
1.26565e-05
1.26532e-05
1.26474e-05
1.26385e-05
1.26263e-05
1.2611e-05
1.25934e-05
1.25743e-05
1.25543e-05
1.25344e-05
1.25168e-05
1.25042e-05
1.24986e-05
1.25006e-05
1.25109e-05
1.2529e-05
1.25515e-05
1.25757e-05
1.26012e-05
1.26282e-05
1.26568e-05
1.26867e-05
1.27165e-05
1.27444e-05
1.27689e-05
1.27887e-05
1.28037e-05
1.2814e-05
1.28205e-05
1.2824e-05
1.28255e-05
1.26579e-05
1.26565e-05
1.26533e-05
1.26475e-05
1.26385e-05
1.26263e-05
1.26108e-05
1.25927e-05
1.25724e-05
1.25505e-05
1.2528e-05
1.25077e-05
1.24939e-05
1.2489e-05
1.24932e-05
1.25061e-05
1.2526e-05
1.25492e-05
1.25732e-05
1.25979e-05
1.26238e-05
1.26513e-05
1.26803e-05
1.27098e-05
1.2738e-05
1.27632e-05
1.2784e-05
1.27998e-05
1.28108e-05
1.28177e-05
1.28215e-05
1.2823e-05
1.26583e-05
1.2657e-05
1.26538e-05
1.26482e-05
1.26395e-05
1.26274e-05
1.26118e-05
1.2593e-05
1.25711e-05
1.25464e-05
1.252e-05
1.24962e-05
1.24808e-05
1.2477e-05
1.24844e-05
1.25013e-05
1.25242e-05
1.25487e-05
1.25727e-05
1.25966e-05
1.26212e-05
1.26472e-05
1.26749e-05
1.27036e-05
1.27318e-05
1.27574e-05
1.27789e-05
1.27955e-05
1.28072e-05
1.28145e-05
1.28186e-05
1.28202e-05
1.26591e-05
1.26579e-05
1.26549e-05
1.26496e-05
1.26414e-05
1.26296e-05
1.2614e-05
1.25943e-05
1.25702e-05
1.25417e-05
1.25106e-05
1.24827e-05
1.24658e-05
1.24638e-05
1.24758e-05
1.24981e-05
1.25252e-05
1.25516e-05
1.25758e-05
1.25988e-05
1.26219e-05
1.26461e-05
1.26721e-05
1.26996e-05
1.27271e-05
1.27527e-05
1.27746e-05
1.27916e-05
1.28037e-05
1.28114e-05
1.28156e-05
1.28173e-05
1.26601e-05
1.2659e-05
1.26564e-05
1.26515e-05
1.26438e-05
1.26325e-05
1.26168e-05
1.25958e-05
1.25688e-05
1.25356e-05
1.2499e-05
1.24671e-05
1.24497e-05
1.24513e-05
1.24697e-05
1.24991e-05
1.25315e-05
1.25603e-05
1.25848e-05
1.26068e-05
1.2628e-05
1.265e-05
1.26739e-05
1.26995e-05
1.27258e-05
1.27506e-05
1.27721e-05
1.27891e-05
1.28012e-05
1.28089e-05
1.28131e-05
1.28148e-05
1.26602e-05
1.26592e-05
1.26569e-05
1.26526e-05
1.26454e-05
1.26344e-05
1.26182e-05
1.25953e-05
1.25644e-05
1.25256e-05
1.24836e-05
1.24491e-05
1.24336e-05
1.24416e-05
1.2469e-05
1.25072e-05
1.25459e-05
1.25774e-05
1.26019e-05
1.26225e-05
1.26414e-05
1.26608e-05
1.2682e-05
1.27052e-05
1.27293e-05
1.27525e-05
1.27728e-05
1.27889e-05
1.28005e-05
1.28079e-05
1.2812e-05
1.28137e-05
1.26562e-05
1.26555e-05
1.26536e-05
1.26496e-05
1.26427e-05
1.26313e-05
1.26138e-05
1.25879e-05
1.25522e-05
1.25077e-05
1.24617e-05
1.24276e-05
1.24182e-05
1.24366e-05
1.2476e-05
1.2525e-05
1.25705e-05
1.26045e-05
1.26289e-05
1.26476e-05
1.26637e-05
1.268e-05
1.26979e-05
1.27179e-05
1.27391e-05
1.27596e-05
1.27777e-05
1.27922e-05
1.28026e-05
1.28094e-05
1.28133e-05
1.28149e-05
1.26425e-05
1.26419e-05
1.26401e-05
1.26362e-05
1.26288e-05
1.26162e-05
1.2596e-05
1.2566e-05
1.25251e-05
1.24766e-05
1.24304e-05
1.24022e-05
1.24043e-05
1.24375e-05
1.24912e-05
1.25517e-05
1.26042e-05
1.2641e-05
1.26651e-05
1.2682e-05
1.26954e-05
1.27082e-05
1.27224e-05
1.27386e-05
1.27559e-05
1.27728e-05
1.27878e-05
1.27999e-05
1.28088e-05
1.28147e-05
1.28182e-05
1.28198e-05
1.26106e-05
1.26099e-05
1.26078e-05
1.26032e-05
1.25945e-05
1.25794e-05
1.25556e-05
1.25214e-05
1.24773e-05
1.24291e-05
1.23894e-05
1.2374e-05
1.23927e-05
1.24423e-05
1.25095e-05
1.25799e-05
1.26389e-05
1.26791e-05
1.27046e-05
1.27215e-05
1.27336e-05
1.27441e-05
1.2755e-05
1.27671e-05
1.27799e-05
1.27926e-05
1.28039e-05
1.28132e-05
1.28202e-05
1.28251e-05
1.28281e-05
1.28294e-05
1.2554e-05
1.25529e-05
1.255e-05
1.2544e-05
1.25331e-05
1.25151e-05
1.24883e-05
1.2452e-05
1.24093e-05
1.23682e-05
1.23423e-05
1.23447e-05
1.23803e-05
1.24418e-05
1.25154e-05
1.25895e-05
1.26524e-05
1.26976e-05
1.27285e-05
1.27505e-05
1.27668e-05
1.27796e-05
1.27905e-05
1.28005e-05
1.281e-05
1.28186e-05
1.28261e-05
1.28319e-05
1.28361e-05
1.28387e-05
1.28401e-05
1.28406e-05
1.2475e-05
1.24735e-05
1.24697e-05
1.24622e-05
1.24494e-05
1.24296e-05
1.24018e-05
1.23674e-05
1.23311e-05
1.23023e-05
1.22926e-05
1.23097e-05
1.23522e-05
1.2411e-05
1.24758e-05
1.25403e-05
1.2598e-05
1.26449e-05
1.2683e-05
1.27159e-05
1.27449e-05
1.27702e-05
1.27912e-05
1.28074e-05
1.28187e-05
1.28253e-05
1.28278e-05
1.28271e-05
1.28243e-05
1.28208e-05
1.28179e-05
1.28163e-05
1.23874e-05
1.23857e-05
1.23813e-05
1.23729e-05
1.2359e-05
1.23385e-05
1.23115e-05
1.22806e-05
1.22515e-05
1.22325e-05
1.22302e-05
1.22454e-05
1.22726e-05
1.23043e-05
1.23356e-05
1.23641e-05
1.23883e-05
1.24092e-05
1.243e-05
1.24532e-05
1.24798e-05
1.25086e-05
1.25378e-05
1.25651e-05
1.25881e-05
1.26051e-05
1.26155e-05
1.26194e-05
1.26182e-05
1.26143e-05
1.26102e-05
1.26077e-05
1.23146e-05
1.23128e-05
1.2308e-05
1.22987e-05
1.22836e-05
1.22617e-05
1.22336e-05
1.22023e-05
1.21725e-05
1.21494e-05
1.21345e-05
1.21251e-05
1.21154e-05
1.21005e-05
1.2077e-05
1.20424e-05
1.19978e-05
1.19519e-05
1.19137e-05
1.18849e-05
1.18678e-05
1.18629e-05
1.187e-05
1.18879e-05
1.19146e-05
1.1947e-05
1.19813e-05
1.20128e-05
1.20378e-05
1.20542e-05
1.20628e-05
1.20657e-05
1.22751e-05
1.22735e-05
1.22691e-05
1.22606e-05
1.22464e-05
1.22254e-05
1.21975e-05
1.21645e-05
1.21293e-05
1.20955e-05
1.20641e-05
1.2033e-05
1.19975e-05
1.19529e-05
1.18957e-05
1.18234e-05
1.17392e-05
1.16565e-05
1.15842e-05
1.15219e-05
1.14707e-05
1.14315e-05
1.14054e-05
1.13934e-05
1.13958e-05
1.14114e-05
1.14372e-05
1.14685e-05
1.14994e-05
1.15245e-05
1.15407e-05
1.15477e-05
1.2255e-05
1.22535e-05
1.22496e-05
1.22418e-05
1.2229e-05
1.22096e-05
1.21834e-05
1.21509e-05
1.21143e-05
1.20762e-05
1.20382e-05
1.19994e-05
1.19565e-05
1.19058e-05
1.18443e-05
1.17702e-05
1.16891e-05
1.1614e-05
1.15497e-05
1.14927e-05
1.14408e-05
1.13933e-05
1.1351e-05
1.13157e-05
1.12894e-05
1.12734e-05
1.12681e-05
1.1272e-05
1.1282e-05
1.12939e-05
1.13035e-05
1.13085e-05
1.22456e-05
1.22442e-05
1.22406e-05
1.22337e-05
1.22222e-05
1.2205e-05
1.21812e-05
1.21512e-05
1.21163e-05
1.20787e-05
1.20403e-05
1.20013e-05
1.196e-05
1.19136e-05
1.18594e-05
1.1796e-05
1.17286e-05
1.16676e-05
1.16145e-05
1.15638e-05
1.15116e-05
1.14574e-05
1.14028e-05
1.13514e-05
1.13068e-05
1.12719e-05
1.12478e-05
1.12341e-05
1.12287e-05
1.1229e-05
1.12314e-05
1.12333e-05
1.22421e-05
1.22408e-05
1.22376e-05
1.22315e-05
1.22214e-05
1.22063e-05
1.21854e-05
1.21587e-05
1.21271e-05
1.20923e-05
1.20563e-05
1.20199e-05
1.19824e-05
1.19417e-05
1.18955e-05
1.18419e-05
1.17849e-05
1.17322e-05
1.16842e-05
1.16353e-05
1.15813e-05
1.1521e-05
1.14562e-05
1.13909e-05
1.1331e-05
1.12811e-05
1.12439e-05
1.12197e-05
1.12065e-05
1.12013e-05
1.12006e-05
1.12012e-05
1.22403e-05
1.22393e-05
1.22367e-05
1.22316e-05
1.22231e-05
1.22102e-05
1.21922e-05
1.21689e-05
1.21409e-05
1.21095e-05
1.20763e-05
1.20423e-05
1.20074e-05
1.19699e-05
1.19279e-05
1.18793e-05
1.18266e-05
1.17761e-05
1.17286e-05
1.16795e-05
1.1625e-05
1.15631e-05
1.14944e-05
1.14224e-05
1.13528e-05
1.12915e-05
1.12431e-05
1.12094e-05
1.11894e-05
1.118e-05
1.11773e-05
1.11773e-05
1.22352e-05
1.22348e-05
1.22332e-05
1.22298e-05
1.22233e-05
1.22129e-05
1.21976e-05
1.21773e-05
1.21522e-05
1.21233e-05
1.20916e-05
1.20581e-05
1.20228e-05
1.19848e-05
1.19425e-05
1.18939e-05
1.18409e-05
1.17894e-05
1.17408e-05
1.16914e-05
1.16377e-05
1.15775e-05
1.15104e-05
1.14383e-05
1.13658e-05
1.12986e-05
1.12424e-05
1.12009e-05
1.11745e-05
1.11611e-05
1.11564e-05
1.1156e-05
1.22203e-05
1.22209e-05
1.22213e-05
1.22203e-05
1.22167e-05
1.22089e-05
1.21961e-05
1.21777e-05
1.21538e-05
1.2125e-05
1.20922e-05
1.20563e-05
1.20176e-05
1.19759e-05
1.19301e-05
1.18787e-05
1.18236e-05
1.17708e-05
1.17219e-05
1.16736e-05
1.16227e-05
1.15666e-05
1.15042e-05
1.14366e-05
1.13666e-05
1.12991e-05
1.12395e-05
1.11928e-05
1.11613e-05
1.1144e-05
1.11374e-05
1.11364e-05
1.21888e-05
1.21909e-05
1.2194e-05
1.21964e-05
1.21959e-05
1.21907e-05
1.21792e-05
1.21607e-05
1.21354e-05
1.21038e-05
1.2067e-05
1.20263e-05
1.19824e-05
1.19358e-05
1.1886e-05
1.18317e-05
1.17755e-05
1.1723e-05
1.16758e-05
1.16307e-05
1.15844e-05
1.15344e-05
1.14793e-05
1.14189e-05
1.13552e-05
1.12917e-05
1.1233e-05
1.11842e-05
1.11492e-05
1.11287e-05
1.112e-05
1.11184e-05
1.21348e-05
1.21389e-05
1.2145e-05
1.21505e-05
1.21524e-05
1.2148e-05
1.21357e-05
1.21145e-05
1.20851e-05
1.20486e-05
1.20067e-05
1.19609e-05
1.19126e-05
1.18624e-05
1.18104e-05
1.17557e-05
1.17008e-05
1.16513e-05
1.1608e-05
1.15678e-05
1.15277e-05
1.14852e-05
1.14387e-05
1.13876e-05
1.13326e-05
1.12761e-05
1.12216e-05
1.1174e-05
1.11376e-05
1.11147e-05
1.11043e-05
1.1102e-05
1.20546e-05
1.20607e-05
1.2069e-05
1.20755e-05
1.20768e-05
1.20703e-05
1.20542e-05
1.20284e-05
1.19941e-05
1.19531e-05
1.19074e-05
1.1859e-05
1.18092e-05
1.17589e-05
1.17083e-05
1.16566e-05
1.16063e-05
1.15622e-05
1.15247e-05
1.14906e-05
1.14575e-05
1.14231e-05
1.13858e-05
1.13447e-05
1.12999e-05
1.12525e-05
1.1205e-05
1.11613e-05
1.11258e-05
1.1102e-05
1.10902e-05
1.10872e-05
1.19461e-05
1.19536e-05
1.19615e-05
1.19649e-05
1.19613e-05
1.19492e-05
1.19278e-05
1.18977e-05
1.18606e-05
1.18183e-05
1.1773e-05
1.17262e-05
1.16794e-05
1.16331e-05
1.15877e-05
1.15425e-05
1.14996e-05
1.14628e-05
1.14321e-05
1.14048e-05
1.13789e-05
1.13524e-05
1.1324e-05
1.12928e-05
1.12585e-05
1.12214e-05
1.11827e-05
1.11454e-05
1.11132e-05
1.10901e-05
1.10776e-05
1.10739e-05
1.18079e-05
1.1815e-05
1.18179e-05
1.18135e-05
1.1802e-05
1.17836e-05
1.17584e-05
1.17275e-05
1.1692e-05
1.16534e-05
1.16133e-05
1.15729e-05
1.15332e-05
1.14948e-05
1.14577e-05
1.14216e-05
1.13879e-05
1.13595e-05
1.13361e-05
1.13158e-05
1.12967e-05
1.12775e-05
1.12573e-05
1.12352e-05
1.12107e-05
1.11839e-05
1.1155e-05
1.11258e-05
1.10991e-05
1.10784e-05
1.10663e-05
1.10623e-05
1.16371e-05
1.16402e-05
1.16337e-05
1.16202e-05
1.16026e-05
1.15817e-05
1.15577e-05
1.15311e-05
1.15023e-05
1.14721e-05
1.14414e-05
1.14111e-05
1.13817e-05
1.13536e-05
1.13269e-05
1.13011e-05
1.12775e-05
1.12578e-05
1.12417e-05
1.12279e-05
1.12151e-05
1.12025e-05
1.11894e-05
1.11751e-05
1.11593e-05
1.11418e-05
1.11226e-05
1.11024e-05
1.10828e-05
1.10665e-05
1.10561e-05
1.10522e-05
1.14274e-05
1.14228e-05
1.14088e-05
1.1393e-05
1.13768e-05
1.13604e-05
1.13433e-05
1.13257e-05
1.13074e-05
1.12887e-05
1.127e-05
1.12517e-05
1.12341e-05
1.12175e-05
1.12017e-05
1.11867e-05
1.1173e-05
1.11617e-05
1.11525e-05
1.11447e-05
1.11375e-05
1.11306e-05
1.11233e-05
1.11156e-05
1.1107e-05
1.10975e-05
1.1087e-05
1.10756e-05
1.10641e-05
1.10538e-05
1.10465e-05
1.10434e-05
1.11708e-05
1.1167e-05
1.11596e-05
1.11527e-05
1.11461e-05
1.11399e-05
1.11338e-05
1.11277e-05
1.11215e-05
1.11152e-05
1.11091e-05
1.1103e-05
1.10973e-05
1.10919e-05
1.10867e-05
1.10819e-05
1.10775e-05
1.10738e-05
1.10709e-05
1.10684e-05
1.10661e-05
1.1064e-05
1.10617e-05
1.10593e-05
1.10566e-05
1.10537e-05
1.10504e-05
1.10469e-05
1.10432e-05
1.10398e-05
1.10372e-05
1.10359e-05
)
;

boundaryField
{
    movingWall
    {
        type            fixedValue;
        value           uniform 1.1032e-05;
    }
    fixedWalls
    {
        type            zeroGradient;
    }
    floor
    {
        type            zeroGradient;
    }
    frontAndBack
    {
        type            empty;
    }
}


// ************************************************************************* //
