-0.11 	0.00987179 	0.000285147 	0.0132791
-0.109559 	0.0104771 	0.000278858 	0.0135764
-0.109118 	0.0110825 	0.000272569 	0.0138737
-0.108677 	0.0116878 	0.00026628 	0.014171
-0.108236 	0.0122932 	0.000259992 	0.0144683
-0.107796 	0.0129115 	0.000279182 	0.0148102
-0.107355 	0.0135333 	0.000305165 	0.0151639
-0.106914 	0.0140011 	0.000313589 	0.0152887
-0.106473 	0.0143079 	0.000303476 	0.0151739
-0.106032 	0.0146147 	0.000293363 	0.015059
-0.105591 	0.0149072 	0.000266504 	0.0149215
-0.10515 	0.0151966 	0.000235994 	0.0147791
-0.104709 	0.015486 	0.000205484 	0.0146367
-0.104269 	0.0157754 	0.000174974 	0.0144943
-0.103828 	0.0160648 	0.000144464 	0.0143519
-0.103387 	0.0163213 	0.000102759 	0.0141337
-0.102946 	0.0165388 	4.77228e-05 	0.0138259
-0.102505 	0.0167563 	-7.31284e-06 	0.0135182
-0.102064 	0.0169738 	-6.23485e-05 	0.0132104
-0.101623 	0.0171913 	-0.000117384 	0.0129026
-0.101182 	0.0174096 	-0.000170501 	0.0125959
-0.100741 	0.0176322 	-0.000212227 	0.0122956
-0.100301 	0.0178548 	-0.00025395 	0.0119953
-0.0998597 	0.0180524 	-0.00030746 	0.011669
-0.0994188 	0.0182247 	-0.000372987 	0.0113163
-0.098978 	0.018397 	-0.000438513 	0.0109635
-0.0985371 	0.018552 	-0.000500599 	0.0106561
-0.0980962 	0.0187045 	-0.000562187 	0.0103552
-0.0976553 	0.018857 	-0.000623775 	0.0100544
-0.0972144 	0.0190095 	-0.000685364 	0.00975353
-0.0967735 	0.019162 	-0.000746952 	0.00945267
-0.0963327 	0.0193202 	-0.00083615 	0.00909685
-0.0958918 	0.019482 	-0.000942173 	0.00870757
-0.0954509 	0.0196437 	-0.0010482 	0.00831828
-0.09501 	0.0198055 	-0.00115422 	0.007929
-0.0945691 	0.0199673 	-0.00126024 	0.00753971
-0.0941283 	0.0201271 	-0.00135419 	0.00716797
-0.0936874 	0.0202834 	-0.00142651 	0.00682765
-0.0932465 	0.0204397 	-0.00149883 	0.00648733
-0.0928056 	0.020596 	-0.00157115 	0.006147
-0.0923647 	0.0207522 	-0.00164347 	0.00580668
-0.0919238 	0.0209085 	-0.00171579 	0.00546635
-0.091483 	0.0210648 	-0.00178811 	0.00512603
-0.0531263 	0.0231215 	-0.00378288 	-0.00961974
-0.0526854 	0.0247645 	-0.00358522 	-0.00902878
-0.0522445 	0.0275627 	-0.00308442 	-0.00819917
-0.0518036 	0.0315787 	-0.00299833 	-0.00732676
-0.0509218 	0.043049 	-0.00439427 	-0.00476347
-0.050481 	0.0523778 	-0.00263778 	-0.00256401
-0.0500401 	0.0612867 	-0.000697069 	-0.000286936
-0.0376954 	0.0334947 	0.000685074 	-0.000901035
-0.0372545 	0.0214173 	0.00194818 	-0.0033536
-0.0368136 	0.017441 	0.000948292 	-0.00532816
-0.0363727 	0.0147207 	5.60294e-05 	-0.00723104
-0.0359319 	0.013905 	-0.000496667 	-0.00824999
-0.035491 	0.0129463 	-0.00119567 	-0.0091978
-0.0350501 	0.0119061 	-0.00126666 	-0.00945505
-0.0346092 	0.0109925 	-0.00129123 	-0.009781
-0.0341683 	0.0100448 	-0.00129835 	-0.00981534
-0.0337275 	0.00926912 	-0.00126232 	-0.00983436
-0.0332866 	0.00852837 	-0.00124248 	-0.00968731
-0.0328457 	0.00783127 	-0.00125892 	-0.00950126
0.00507014 	-0.00524567 	-4.07094e-05 	0.000115082
0.00551102 	-0.00506853 	-0.000259923 	0.00039327
0.0059519 	-0.00489138 	-0.000479136 	0.000671457
0.00639279 	-0.00448292 	-0.000690516 	0.00090326
0.00683367 	-0.00383495 	-0.000893785 	0.00108703
0.00727455 	-0.00318699 	-0.00109705 	0.00127081
0.00771543 	-0.00253902 	-0.00130032 	0.00145458
0.00815631 	-0.00189105 	-0.00150359 	0.00163835
0.00859719 	-0.00130043 	-0.00166774 	0.00175843
0.00903808 	-0.00136206 	-0.00156363 	0.00172394
0.00947896 	-0.00143843 	-0.00145421 	0.00170098
0.00991984 	-0.00151479 	-0.00134479 	0.00167802
0.0103607 	-0.00159116 	-0.00123537 	0.00165506
0.0108016 	-0.00166752 	-0.00112594 	0.0016321
0.0112425 	-0.00182098 	-0.00118694 	0.00176308
0.0116834 	-0.00199494 	-0.00129323 	0.00193498
0.0121242 	-0.00223447 	-0.00139258 	0.00212453
0.0125651 	-0.00272204 	-0.00160596 	0.00251668
0.013006 	-0.00320961 	-0.00181934 	0.00290884
0.0134469 	-0.00371675 	-0.00194152 	0.00321482
0.0138878 	-0.00424575 	-0.00196188 	0.0034246
0.0143287 	-0.00477474 	-0.00198225 	0.00363437
0.0147695 	-0.00530374 	-0.00200261 	0.00384415
0.0152104 	-0.00583273 	-0.00202297 	0.00405392
0.0156513 	-0.00638998 	-0.00207987 	0.00429175
0.0160922 	-0.00695311 	-0.00241649 	0.00457525
0.0165331 	-0.00751624 	-0.00275312 	0.00485874
0.0169739 	-0.00807937 	-0.00308974 	0.00514224
0.0174148 	-0.0086425 	-0.00342637 	0.00542574
0.0178557 	-0.00920563 	-0.00376299 	0.00570923
0.0182966 	-0.00956937 	-0.00414426 	0.0059675
0.0187375 	-0.0098183 	-0.00455123 	0.00621124
0.0191784 	-0.0100672 	-0.0049582 	0.00645497
0.0196192 	-0.0100239 	-0.00522454 	0.00638176
0.0200601 	-0.00993987 	-0.00544697 	0.00625575
0.020501 	-0.00991101 	-0.00569218 	0.00616432
0.0209419 	-0.0101916 	-0.00606509 	0.00626669
0.0213828 	-0.0104722 	-0.00643801 	0.00636906
0.0218236 	-0.0107528 	-0.00681093 	0.00647143
0.0222645 	-0.0110334 	-0.00718384 	0.00657379
0.0227054 	-0.011314 	-0.00755676 	0.00667616
0.0231463 	-0.011562 	-0.00767673 	0.00662493
0.0235872 	-0.0118328 	-0.00766434 	0.00650729
0.0240281 	-0.0121035 	-0.00765195 	0.00638966
0.0244689 	-0.0123743 	-0.00763956 	0.00627202
0.0249098 	-0.012645 	-0.00762717 	0.00615439
0.0253507 	-0.0128971 	-0.00760291 	0.00601438
0.0257916 	-0.0129677 	-0.0074634 	0.00565705
0.0262325 	-0.0130383 	-0.00732389 	0.00529972
0.0266733 	-0.0132286 	-0.00713268 	0.00491116
0.0271142 	-0.0136611 	-0.00683848 	0.00444075
0.0275551 	-0.0140935 	-0.00654427 	0.00397035
0.027996 	-0.0145743 	-0.00626046 	0.00359215
0.0284369 	-0.0150986 	-0.00598597 	0.00329683
0.0288778 	-0.0156229 	-0.00571149 	0.00300151
0.0293186 	-0.0161472 	-0.00543701 	0.00270619
0.0297595 	-0.0166715 	-0.00516253 	0.00241087
0.0302004 	-0.0171958 	-0.00488805 	0.00211555
0.0306413 	-0.0177086 	-0.00464304 	0.00148888
0.0310822 	-0.0182151 	-0.00440289 	0.000842842
0.031523 	-0.0187216 	-0.00416274 	0.0001968
0.0319639 	-0.0192281 	-0.00392259 	-0.000449242
0.0324048 	-0.0197347 	-0.00368245 	-0.00109528
0.0328457 	-0.0202426 	-0.00343034 	-0.00175661
0.0332866 	-0.0207532 	-0.00315561 	-0.00244687
0.0337275 	-0.0212637 	-0.00288088 	-0.00313712
0.0341683 	-0.0217281 	-0.00267545 	-0.00387607
0.0346092 	-0.0221578 	-0.00252659 	-0.00464839
0.0350501 	-0.0225876 	-0.00237774 	-0.00542071
0.035491 	-0.0229204 	-0.00228821 	-0.00624734
0.0359319 	-0.023224 	-0.00221653 	-0.00709032
0.0363727 	-0.0235276 	-0.00214485 	-0.00793329
0.0368136 	-0.0238313 	-0.00207317 	-0.00877627
0.0372545 	-0.0241349 	-0.00200149 	-0.00961924
0.0376954 	-0.0244228 	-0.00194254 	-0.0104044
0.0381363 	-0.0246438 	-0.00192637 	-0.0109707
0.0385772 	-0.0248647 	-0.0019102 	-0.0115369
0.039018 	-0.0250857 	-0.00189403 	-0.0121032
0.0394589 	-0.0253067 	-0.00187787 	-0.0126695
0.0398998 	-0.0255276 	-0.0018617 	-0.0132357
0.0403407 	-0.0258634 	-0.00178912 	-0.0137601
0.0407816 	-0.0262294 	-0.00170173 	-0.0142734
0.0412224 	-0.0265887 	-0.00161416 	-0.0147596
0.0416633 	-0.0269276 	-0.0015153 	-0.0149463
0.0421042 	-0.0272665 	-0.00141644 	-0.015133
0.0425451 	-0.0275537 	-0.0013246 	-0.0153154
0.042986 	-0.0277875 	-0.00124001 	-0.0154934
0.0434269 	-0.0280213 	-0.00115541 	-0.0156715
0.0438677 	-0.0282551 	-0.00107082 	-0.0158495
0.0443086 	-0.0284889 	-0.000986221 	-0.0160276
0.0447495 	-0.0287194 	-0.000874026 	-0.0161478
0.0451904 	-0.0289332 	-0.000695459 	-0.0161587
0.0456313 	-0.029147 	-0.000516891 	-0.0161696
0.0460721 	-0.0293608 	-0.000338323 	-0.0161805
0.046513 	-0.0295746 	-0.000159756 	-0.0161915
0.0469539 	-0.0298358 	4.23099e-06 	-0.0162098
0.0473948 	-0.0301456 	0.000153276 	-0.0162359
0.0478357 	-0.030437 	0.00030659 	-0.0162582
0.0482766 	-0.0304739 	0.000426846 	-0.0162471
0.0487174 	-0.0305109 	0.000547101 	-0.0162361
0.0491583 	-0.030518 	0.000687619 	-0.0162972
0.0495992 	-0.0305101 	0.000838298 	-0.0163945
0.0500401 	-0.0305022 	0.000988976 	-0.0164918
0.050481 	-0.0304943 	0.00113966 	-0.0165891
0.0509218 	-0.0304864 	0.00129033 	-0.0166864
0.0513627 	-0.0302584 	0.00129126 	-0.0166584
0.0518036 	-0.0299845 	0.00125904 	-0.0165997
0.0522445 	-0.0297107 	0.00122682 	-0.0165409
0.0526854 	-0.0294368 	0.0011946 	-0.0164822
0.0531263 	-0.0291629 	0.00116238 	-0.0164234
0.0535671 	-0.0288891 	0.00113016 	-0.0163646
0.054008 	-0.0285864 	0.00105986 	-0.0162115
0.0544489 	-0.0282791 	0.000983334 	-0.016043
0.0548898 	-0.0279717 	0.000906809 	-0.0158745
0.0553307 	-0.0275905 	0.000817896 	-0.015569
0.0557715 	-0.0272066 	0.00073237 	-0.0152509
0.0562124 	-0.0268227 	0.000646844 	-0.0149328
0.0566533 	-0.0264645 	0.000566831 	-0.0146113
0.0570942 	-0.0261094 	0.000487489 	-0.0142893
0.0575351 	-0.0257543 	0.000408146 	-0.0139673
0.057976 	-0.0253992 	0.000328804 	-0.0136454
0.0584168 	-0.0250442 	0.000249461 	-0.0133234
0.0588577 	-0.0246891 	0.000170119 	-0.0130015
0.0592986 	-0.0244313 	0.00013789 	-0.0126861
0.0597395 	-0.0241851 	0.000108204 	-0.0123724
0.0601804 	-0.0239389 	7.85179e-05 	-0.0120587
0.0606212 	-0.0236926 	4.88319e-05 	-0.011745
0.0610621 	-0.0234464 	1.91459e-05 	-0.0114313
0.061503 	-0.0232002 	-1.05401e-05 	-0.0111175
0.0619439 	-0.0229715 	-1.50873e-05 	-0.0108332
0.0623848 	-0.0227439 	-1.79702e-05 	-0.0105507
0.0628257 	-0.0225163 	-2.08532e-05 	-0.0102683
0.0632665 	-0.0223883 	-3.39793e-05 	-0.0100109
0.0637074 	-0.0222646 	-4.74494e-05 	-0.00975434
0.0641483 	-0.0221409 	-6.09195e-05 	-0.0094978
0.0645892 	-0.0220189 	-7.69687e-05 	-0.00927964
0.0650301 	-0.0218968 	-9.30491e-05 	-0.00906196
0.0654709 	-0.0217748 	-0.000109129 	-0.00884427
0.0659118 	-0.0216528 	-0.00012521 	-0.00862658
0.0663527 	-0.0215307 	-0.00014129 	-0.0084089
0.0667936 	-0.0214104 	-0.000157092 	-0.00818202
0.0672345 	-0.0213028 	-0.000171126 	-0.00788369
0.0681162 	-0.0210876 	-0.000199183 	-0.00728705
0.0685571 	-0.02098 	-0.000213207 	-0.00698874
0.068998 	-0.0208724 	-0.000227231 	-0.00669043
0.0694389 	-0.0207663 	-0.000241615 	-0.00639335
0.0698798 	-0.0206834 	-0.000261505 	-0.00611504
0.0703206 	-0.0206005 	-0.000281395 	-0.00583673
0.0707615 	-0.0205176 	-0.000301286 	-0.00555842
0.0712024 	-0.0204347 	-0.000321176 	-0.00528011
0.0716433 	-0.0203518 	-0.000341066 	-0.0050018
0.0720842 	-0.0202689 	-0.000360956 	-0.00472349
0.0725251 	-0.020186 	-0.000380846 	-0.00444517
0.0729659 	-0.0201031 	-0.000400737 	-0.00416686
0.0734068 	-0.0200202 	-0.000420627 	-0.00388855
0.0738477 	-0.0199373 	-0.000440517 	-0.00361024
0.0742886 	-0.0198544 	-0.000460407 	-0.00333193
0.0747295 	-0.0197752 	-0.000480973 	-0.00305021
0.0751703 	-0.0197332 	-0.000507239 	-0.00273462
0.0756112 	-0.0196912 	-0.000533505 	-0.00241903
0.0760521 	-0.0196492 	-0.000559771 	-0.00210343
0.076493 	-0.0196072 	-0.000586037 	-0.00178784
0.0778156 	-0.019481 	-0.000664788 	-0.000841233
0.0782565 	-0.019439 	-0.000691033 	-0.000525714
0.0786974 	-0.019397 	-0.000717279 	-0.000210196
0.0791383 	-0.0193549 	-0.000743525 	0.000105322
0.0795792 	-0.0193126 	-0.000767586 	0.00042047
0.08002 	-0.0192668 	-0.000764294 	0.00073098
0.0804609 	-0.0192211 	-0.000761002 	0.00104149
0.0809018 	-0.0191753 	-0.00075771 	0.001352
0.0813427 	-0.0191295 	-0.000754418 	0.00166251
0.0817836 	-0.0190838 	-0.000751126 	0.00197302
0.0822244 	-0.0190705 	-0.000753821 	0.00227873
0.0826653 	-0.0190813 	-0.000761099 	0.00258042
0.0831062 	-0.019092 	-0.000768378 	0.00288211
0.0835471 	-0.0191027 	-0.000775657 	0.0031838
0.083988 	-0.0191134 	-0.000782936 	0.00348549
0.0844289 	-0.0191242 	-0.000790214 	0.00378718
0.0848697 	-0.0191318 	-0.000821947 	0.00410176
0.0853106 	-0.0191394 	-0.000853999 	0.00441651
0.0857515 	-0.0191469 	-0.00088605 	0.00473126
0.0861924 	-0.0191545 	-0.000918102 	0.00504601
0.0866333 	-0.0191621 	-0.000950153 	0.00536076
0.0870741 	-0.0191696 	-0.000982205 	0.00567551
0.100301 	-0.0169583 	-0.00161641 	0.0147538
0.108677 	-0.0102877 	-0.000826452 	0.0148266
0.109118 	-0.00961309 	-0.000757192 	0.0142708
0.109559 	-0.0089385 	-0.000687932 	0.0137151
0.11 	-0.00826391 	-0.000618672 	0.0131593
