/*--------------------------------*- C++ -*----------------------------------*\
| =========                 |                                                 |
| \\      /  F ield         | OpenFOAM: The Open Source CFD Toolbox           |
|  \\    /   O peration     | Version:  2206                                  |
|   \\  /    A nd           | Website:  www.openfoam.com                      |
|    \\/     M anipulation  |                                                 |
\*---------------------------------------------------------------------------*/
FoamFile
{
    version     2.0;
    format      ascii;
    arch        "LSB;label=64;scalar=64";
    class       surfaceScalarField;
    location    "1";
    object      phi;
}
// * * * * * * * * * * * * * * * * * * * * * * * * * * * * * * * * * * * * * //

dimensions      [0 3 -1 0 0 0 0];

oriented        oriented;

internalField   nonuniform List<scalar> 
2244
(
-0.66796322
-1.4579221
-0.03484304
0.22107175
-0.054583338
-0.13058847
-0.037408775
-0.0024442195
-0.0066831962
-0.0020485739
0.50513965
-0.14937824
-0.066286461
-0.14000153
-0.24169396
0.073474165
0.053114342
-0.044354843
-0.080388054
-0.12317966
0.0092026724
0.021688162
-0.00088933518
-0.025657743
-0.099091127
0.0052528627
-0.017016984
-0.0043307783
-0.012173244
0.041132792
-0.0057045327
-0.038303254
-0.043559485
-0.10622664
0.019849088
0.0043070338
-0.034090527
-0.041133685
-0.1400405
-0.0014377472
0.0025541719
-0.0028925197
-0.025361189
-0.088251584
0.011497143
0.0045370662
-0.015599403
0.0050622744
-0.13560825
0.00036235527
-0.0083086396
-0.022220048
-0.00016260147
-0.108118
-0.021462789
-0.0087910051
-0.0050807357
0.003457324
-0.0017615616
-0.021964295
-0.0027485757
0.019796958
0.0010224355
-0.0025334803
-0.0098499235
-0.0017122029
0.0074801409
-0.030546892
-0.012949619
-0.0045990755
0.44552145
0.0085751685
0.15171852
-0.060528482
-0.32118281
-0.43220381
0.38258652
0.045801643
-0.18783928
0.1367978
0.047803523
-0.10974936
0.36365567
-0.025924308
-0.00023050773
0.0051305703
-0.13383859
-0.05423002
0.046508302
0.002501115
-0.046803928
0.0020580531
-0.042930523
0.45974296
0.079838172
0.055695876
0.090102653
0.1092674
-0.80520972
0.39236187
0.058845404
-0.40430469
0.2201849
-0.049069677
0.41820476
0.25390661
-0.02806362
-0.030774115
0.0059700238
0.026589359
0.054818063
0.48322365
-0.10931394
-0.021877253
0.0097198526
0.00026945931
-0.42923396
0.36724478
0.14845484
-0.0053928811
-0.28310549
0.044145393
-0.22966328
0.010265871
-0.06405918
-0.0052850151
0.039730875
0.95262089
4.2666065
0.6853372
-1.7470584
-0.039449528
3.1528725
-0.16945138
1.0786048
2.7453811
-13.117247
-1.5084711
-0.76009484
46.336443
-8.9613079
-1.0557972
229.18633
-213.95499
-16.413242
-0.5300548
5.9475053
6.2847122
-27.222777
-103.11573
-13.920565
330.382
-3.9006015
196.70141
-445.19666
3.6878809
-204.78252
214.11434
-7.7962508
18.278173
-1.8387899
-9.4508746
-13.280036
-231.83663
14.417739
279.19098
-13.910362
-214.67666
177.79431
7.4897599
-157.85983
163.01327
-6.8588555
12.743341
-1.7657814
-6.9981556
-13.780456
-121.95461
9.591566
171.4166
-1.2086236
-163.11432
113.35396
6.4107994
-117.65145
121.69632
-6.213534
14.455721
-1.0140253
-5.9977453
-15.087358
-95.984381
7.2264875
120.71049
-0.85137075
-121.33483
97.160467
6.112515
-74.051534
76.671685
-6.09979
15.206325
-0.51393884
-3.9283084
-15.372551
-88.027859
4.6439849
74.677306
-0.72099797
-76.207077
90.18322
6.0911005
-29.67647
30.041
-6.1042004
15.338149
-0.05091128
-1.9065967
-15.392135
-85.264998
1.578159
28.424382
-0.27144264
-30.198503
84.285246
6.1073857
14.787973
-16.338014
-6.1091202
15.379352
0.40792017
0.46996397
-15.383538
-83.049317
-1.2310442
-17.522762
0.254977
15.934532
79.751543
6.1187149
59.331441
-63.76602
-6.1087988
15.428931
0.87209101
2.0809673
-15.449095
-80.89065
-4.7317043
-64.168804
0.80830569
62.136554
70.96369
6.0803848
104.53486
-110.66936
-5.9463624
15.680066
1.3095467
5.271705
-15.948942
-74.197616
-7.6082167
-110.69725
1.6597672
109.08558
64.634231
5.7903662
152.97006
-159.74048
-5.6993919
16.697188
1.4525772
10.233714
-17.406834
-75.951712
-9.3787293
-166.67715
2.7596284
158.87055
81.008733
5.7967911
217.53896
-219.55769
-3.0899125
19.025282
-2.0281995
24.07992
-23.94484
-138.21742
-2.9958526
-310.09084
5.6219737
225.8981
244.90869
14.727783
-234.79312
221.61387
1.9612751
7.29454
-10.646325
13.965255
-0.46119377
417.23635
-8.2938425
-308.33916
-13.736208
-195.04337
126.90637
-0.50099614
-1.7892338
0.66277237
-0.55293691
-0.027253325
-2.3176436
-0.25200919
0.11618014
-0.46405293
25.237315
0.33744275
-0.3250506
14.241696
-57.533479
-0.001242158
-0.048521584
-0.033908193
0.008787599
-0.0031415942
-0.084798641
-0.054551888
-0.075786491
0.00072161276
-0.0062697284
0.52338163
-1.0459518
-0.37637148
-1.3001499
0.15518805
-2.2808637
-0.7876952
-0.54345783
1.8444571
-1.839769
-1.175961
-1.905274
0.11826051
-0.0079010318
-0.15421079
-0.82958632
0.4728819
0.00017127813
-0.10591453
-0.00076414812
-0.042924484
1.1027098
-0.63599163
-0.70441179
-1.8021221
-1.6511825
-2.419042
-2.4039378
-0.47596868
1.814259
-1.5687165
-0.62559948
-1.9905788
-0.031019191
-0.067591364
-0.063668923
-0.85405242
0.24435114
0.12248279
-0.55907453
-0.015492825
-1.5060696
-0.017251963
0.52215608
-0.58894177
-0.029495275
-1.1194842
-0.39788279
-0.20244341
0.03835622
-0.023902905
0.035985166
0.012529083
0.1751009
-0.05162071
0.050252419
-0.014695533
0.26388594
-0.14994763
0.13482168
0.011262882
0.27146714
-0.0036883244
-0.013945701
0.3369153
0.2313433
-0.035301563
-0.080442435
-1.329956
2.564278
0.31990728
0.47050396
-0.001274835
-0.050202277
-1.4557457
2.1698953
1.7232037
0.11276939
0.322655
-0.0090382447
0.37073247
-0.75264086
-0.0024306823
0.24824112
0.032115022
-0.078072075
0.081835628
-0.12873956
0.22220386
-0.16314333
0.98870799
-2.1908477
2.5740531
-0.081940685
0.40111663
0.094974622
0.67745082
-2.3683268
2.5137108
1.8451448
-0.11671777
0.086732313
0.095787502
0.86400182
-1.0127207
3.0466688
-0.46598808
-0.022251014
-0.44650397
-0.049174023
-1.3296363
-0.1963469
0.63370753
0.064747561
0.012538374
-1.0378597
1.9645619
0.17598193
0.26877338
-0.040110797
0.03418651
0.87141151
-0.0075209015
-0.29383518
-0.029938222
1.3097571
-0.011761656
-0.56164825
-0.073372749
4.7456874
0.23059324
0.19503686
1.0387967
0.89632177
-4.1609141
0.014145397
-0.00057778807
0.18325919
-0.009799708
0.021843531
-0.0013090321
0.22982986
-0.012964899
3.7068237
0.20091785
0.28317098
0.0091227661
0.0074055527
-2.7504724
0.0099666291
-0.00045182906
0.089995284
-0.0085145613
0.010656502
-0.00039141141
0.10291479
-0.0082042403
2.6072225
0.10328649
0.12878301
0.0028886758
0.0026490707
-2.1270041
0.0080272711
-0.00068342065
0.1168522
-0.00567922
0.007618281
-0.00063553214
0.11218237
-0.0051690391
1.9847192
0.09667894
0.10086651
0.0029536955
0.0031241027
-1.3744521
0.0044266191
-0.00031199846
0.067695504
-0.0032115283
0.0041143812
-0.00036310248
0.061364068
-0.0029246877
1.1528658
0.062851571
0.065253705
0.0018472816
0.0019968402
-0.78739939
0.0027237953
-0.00029546041
0.050913808
-0.0017167907
0.0025427733
-0.00026555569
0.048295303
-0.0015607278
0.68667795
0.042722194
0.042676434
0.0013114562
0.0014079262
-0.41156519
0.0010853147
-0.00014443941
0.035602663
-0.00044443273
0.0010365786
-0.00017356905
0.033047172
-0.00042584166
0.29995216
0.030985534
0.032238444
0.00093309021
0.00099975376
-0.10236015
0.00011310771
2.4359427e-05
0.003901022
0.00011704388
-2.9324846e-05
0.0041839464
0.025746137
0.0028261256
0.0033633523
0.00037545329
0.00035012977
-0.0065984783
0.062095368
-0.060459865
-0.0057663084
-0.1201419
-0.0088996915
-0.38981959
-0.078368318
-0.27292628
-0.67647325
-0.35911764
-0.15708312
-0.22891438
-0.0069258942
-0.12618682
-0.11799997
-0.0084886994
-0.035881802
-0.16864438
-0.26071502
-0.67898003
-0.1202812
-0.20439952
-0.60074503
-0.058462763
-0.0061301232
-0.072381059
-0.17446756
-0.13560798
-0.011416014
-0.039636388
-0.0059966388
-0.077669015
-0.047371243
-0.0070087333
-0.09109051
-0.12444926
-0.3680098
-0.020609199
-0.085791913
-0.28162685
-0.002788383
-0.076167445
-0.01108292
-0.077157092
-0.19273155
-0.0064399383
-0.014582772
-0.12344279
0.0048539882
-0.048158675
-0.05172742
-0.010780519
-0.14391799
0.022233173
-0.54096877
-0.040113743
-0.017990468
-0.035800114
-0.036820176
-0.1512812
-0.4060742
-0.14723376
-0.18188161
-0.042457545
-0.13389914
-0.20457497
-0.040521855
-0.058565546
-0.091987748
-0.20008803
-0.19072429
-0.075482759
-0.51225276
-0.054957453
-0.1396421
-0.4937485
-0.063970595
-0.1757136
-0.58621394
-0.016612203
-0.084095494
-0.03439033
-0.14304135
-0.076939097
-0.020478729
-0.013496405
-0.071128453
-0.12225761
-0.066426997
-0.081218635
-0.27892475
-0.070426615
-0.10733104
-0.40465844
-0.053647491
-0.054524299
-0.2757736
-0.0020649909
-0.0011971515
0.00021083791
-0.078662631
-0.0055233206
-0.00033775997
0.0017385944
-0.043764576
-0.0016609707
-0.0013859993
-0.0014188329
-0.05177329
-0.27914404
-0.0026593254
-0.011318159
-0.036832482
-0.08937057
-0.010903279
-0.0042704401
-0.11821713
-0.015149883
-0.00642257
-0.036691922
-0.0065433546
-0.10417568
-0.032918
-0.41670743
-0.061130448
-0.0058384398
-0.026289349
0.0083008602
-0.47637028
-0.037222237
-0.15225785
-0.0036901623
-0.086496797
-0.091519005
-0.0065470305
-0.023332991
-0.029720941
-0.090369608
-0.12031381
-0.0089613854
-0.53224822
-0.017638893
-0.078536036
-0.37709175
-0.0057829323
-0.09852902
-0.43368572
-0.0095435224
-0.072545942
-0.0074207066
-0.082750261
-0.072014808
-0.01634825
-0.017289225
-0.042260367
-0.11255458
-0.053490559
-0.040436055
-0.26148334
-0.0060819764
-0.074686085
-0.34006347
-0.052907879
-0.058508374
-0.24484076
-0.001589418
-0.0058632629
0.00065807692
-0.092306615
-0.0011940868
-0.00096164356
-0.075486528
-0.0020298784
-0.010366383
0.0014235143
-0.002100941
-0.28612142
-0.0017778851
-0.0025280267
-0.052297282
-0.007254631
0.009284203
-0.10693632
-0.0049743972
-0.001676312
-0.0098460005
-0.001268613
-0.032396359
0.003784494
-0.0013954128
0.0097301433
-0.45954285
-0.0015316292
-0.0021901027
0.00042514031
-0.020251411
0.0048743696
-0.10205059
-0.0062901953
-0.01044133
-0.0018866805
0.00065972992
-0.0025050845
-0.002148408
-0.0030841939
-0.2964411
3.4307101e-05
-0.018028222
-0.0042532188
-0.015976572
-0.062614435
0.0090588546
-0.017335507
0.054973398
0.0061920106
-0.0016204516
0.081594264
-0.25654818
-0.10533434
-0.15880387
0.026906011
0.029133203
0.00020558797
0.011681713
-0.0034258933
0.0096657068
0.14206241
-0.32748579
0.95193226
0.0090092195
0.191934
-0.00926208
0.026875535
-0.28271494
-0.37096785
-0.033739083
-0.030233446
-0.64913653
-0.092268407
-0.11394341
0.0081079648
-0.00026659704
-0.29273917
-0.09182751
-0.03404063
0.00044597939
-0.0037091352
-0.6005468
0.00052987304
-0.00062553838
0.0062733934
-0.032622893
0.0024178993
-0.00087458368
0.0011100843
0.00084107367
0.2470936
0.10042223
0.0015561258
-0.0025658678
1.4727138
0.15136018
0.0018457191
0.086098573
-0.62571177
-0.029043911
-0.0024522715
-0.44168916
-0.033769897
0.014867978
-0.038742977
0.00082257345
0.32366936
-0.39682243
0.0037708371
-0.055441243
0.012046274
-0.002892442
-0.19331349
0.082875878
0.004139358
-0.01355239
-0.0089251916
-0.0019737335
0.1621167
0.0033809577
1.5847521
-0.20802674
-0.00024951186
0.046311692
0.35356947
0.0022232453
-0.0030896296
0.21429414
3.2372882
-0.18499979
0.66786101
1.3715052
-0.22761708
1.1695286
-0.32100956
17.504477
3.5156204
1.0472375
14.694111
-10.903316
-0.23193599
2.2708087
0.29063441
0.58641915
50.808409
2.5810263
-49.403176
-2.2820052
49.361573
-10.809485
0.82249331
-0.023731169
-2.7142294
-0.51033921
-0.2718762
1.1756408
118.12594
0.65063739
0.050983915
-1.0533877
-1.588252
-0.39083952
-0.1743659
-0.59012093
-0.008967921
-1.372461
-7.9182181
52.127928
-48.166493
-7.6030372
-0.40054549
0.68585685
-2.0778273
0.79030087
-1.9772681
-1.3811187
8.1970148
-0.079335547
1.3440114
-3.9410614
-0.42500598
0.23353804
-3.5866124
-0.39034787
0.29751083
-4.8057955
-31.775982
-4.2934698
11.707939
0.13552371
0.15453509
-0.59482663
-0.48283894
-1.5133164
-0.86850068
-0.1227167
-1.5401129
-8.6731576
-1.2927298
-1.817243
0.1607091
17.441499
-60.385355
0.763568
-0.046391415
-0.7092112
0.075653575
-2.4736188
-0.18921222
0.10965894
0.70187622
-0.24219202
2.2031331
-0.0087740164
0.97763632
0.80381559
-2.4841996
9.1973643
-0.21584229
0.52512643
0.30433634
-0.98214344
-0.1553242
-0.59561426
-7.3373527
-1.2759151
0.011340638
-0.44065972
-0.45439914
-0.78793844
0.62502568
-0.39560858
0.65429307
-0.5186893
0.71075215
1.2528642
0.15622937
0.95002707
0.084058262
1.065288
0.16087153
-0.071500369
-0.063216904
-0.041695306
-0.15187994
-0.088347775
-0.13541637
-0.11860987
-0.085074765
-0.16303803
-1.4198373
-1.4476204
-0.65056477
0.45136894
-0.013358248
-0.18101984
0.12072844
-0.32114833
0.0015390355
-0.037996134
-2.5206086
0.52792569
-2.258687
-0.43593555
0.35013839
-0.025037247
0.030550842
-0.1131177
-0.032458945
0.056315044
0.23916073
-1.2583087
-0.082690879
-0.044447575
-1.3388001
-0.069850122
0.14546142
-0.076456525
0.011137773
0.60234755
-2.7193401
0.39355594
-0.065364166
-0.088452626
0.020955587
-2.0279316
0.40651941
0.12317172
-0.0014380854
-0.0067743
-0.061733689
-1.0652188
0.36945146
-0.069418038
-0.0004798034
-0.0069759467
-0.19538453
0.32961304
-0.006665755
-0.013839116
-0.029317676
-0.28119061
-1.741228
0.36059823
-0.026395205
-0.077498143
0.0023047398
-0.073825432
-0.01206041
-1.1930988
0.33612598
-0.010061204
-0.097179332
-0.12752749
0.44728382
-0.0020180587
-0.18376601
-0.079352245
-2.3260666
0.18446861
0.63901941
-0.082497481
-0.043558047
-0.19281417
-0.38446378
-0.16829805
-0.071519481
-0.061208535
-1.3227233
0.043102464
-0.011064179
-0.012624364
-0.070448651
-0.010189059
-0.32546663
-0.0041014049
0.26282924
-0.044590804
-1.9895862
-0.72205049
0.083114374
-0.010700065
-0.017674263
-0.10155663
-0.034598129
-0.049239237
0.24207725
0.22251244
0.023905373
0.06517783
0.12632759
-0.18294319
-0.094207795
-1.1552851
-0.88671804
-0.35865042
-0.21299621
-0.019926861
0.0527299
-0.030606411
-0.020461241
-0.15660687
-0.61284506
-0.075233248
-0.72739157
0.28923289
-0.022936287
0.012260795
-0.30533019
-0.92834635
1.9012654
-0.8870242
-0.11840162
-0.022820839
1.9448593
-0.0065123301
-0.050768505
0.072399701
0.091145133
-0.8309658
-0.015835762
-0.43934571
-0.033716872
0.044641177
-0.26615564
-1.1610554
0.16603447
-0.08511558
-1.3187677
-0.098592289
0.34088027
0.12536028
-0.047045273
-0.49061583
-0.21709708
-0.013220948
0.032841514
-1.3370624
0.053147882
-0.3120456
-1.6633228
2.3241775
-0.28852563
-2.3113221
2.536627
-2.6653052
-0.23598998
0.24023107
2.699562
-1.1251933
-0.43456193
-1.3674349
-0.0098969533
-0.9346415
-1.7755161
0.27512843
-1.2191052
0.094165948
0.32756015
-4.8085781
-0.13495964
-0.97359071
1.7944229
-0.08563314
-2.3971008
2.4890866
-1.7871014
0.068161763
0.25314169
2.1645523
0.92520104
-1.2279308
-0.3685676
0.17004298
1.9454898
0.31266083
-4.310756
1.3326086
0.278486
-0.99795499
0.01432245
-0.010286582
-0.02105174
-1.0496199
-0.062353068
0.026811195
-0.03023396
-0.29121448
0.00096972858
0.084410362
0.14853932
0.035361137
0.62030978
-1.2770318
1.8341962
0.14217562
-0.015773266
0.013856429
-1.0804586
0.054335165
0.1391522
1.9875901
-0.032242742
0.054267892
0.5792243
-1.1916651
0.16093609
-0.19585543
-0.029264183
0.64495551
-2.5558722
2.6487276
-0.4534319
-1.3511855
2.5170309
-1.6156227
-0.35440101
0.43008801
2.2738632
-1.6274838
0.69093459
2.0839903
0.075622437
-4.7702485
-1.0494902
0.76887877
0.015652773
0.84502059
-0.79981206
0.53505725
-1.7877503
2.0758491
-0.0014669173
-1.6512112
2.1328503
-0.94175731
0.17797802
0.23067825
1.987127
1.8695072
2.1122544
0.80059496
1.4650179
-1.0966128
0.66493238
1.4246399
-0.95641113
0.24645072
0.41644782
0.029186725
-0.069127508
0.038245998
-0.9437663
-0.014494685
0.080132234
0.59349608
0.056622546
-0.042127862
0.030940877
-0.047086782
0.04412554
-0.06963589
-0.97265045
-0.018906783
-0.031808579
-0.11091926
-0.034661995
-0.18395638
-0.021863978
0.069268156
-0.16995115
-0.023247257
-0.019936041
-0.008876019
-0.82779453
1.7142032
0.0013467808
-0.10048395
0.10550745
-0.015422996
0.0095905069
0.25176107
0.12745113
-0.015879204
0.0091699201
0.0313022
-0.034426016
-0.021875039
-0.061817471
-0.49545875
-0.59412781
-0.2174413
-0.0011034994
0.0024719896
-0.016350333
-0.10465869
-0.28192137
-0.54161851
-0.22181588
-0.66723917
0.054132659
-0.85620343
-0.7139962
0.43516782
-0.027807103
0.020665868
-0.46877721
-0.034967826
1.7601956
0.98181104
0.15323701
3.2988824
0.31905812
0.050917395
-0.06007945
0.17299081
0.45075006
0.27910605
-0.0045135779
0.0183519
3.1224144
0.77107577
-0.8337506
-0.1268692
-0.041561542
0.053824198
-0.60819279
0.026711157
-0.41000689
-0.45256374
0.28052536
0.10218232
1.3008077
0.42573108
0.62190935
2.9572379
0.30910555
0.22607277
1.8631807
0.36545868
-0.048288286
0.2521285
0.17389917
0.069973118
0.0045431495
0.087763992
-0.59916915
-1.9105451
-0.54310617
-0.83443414
-0.043618524
-0.024475883
0.00027032245
0.0014279183
0.00072830814
-0.018761039
-9.7490686e-05
-0.0064374642
-0.20447578
-0.0010716523
0.001169143
-0.01410634
0.064961964
0.0075392967
-0.40277778
0.0005173645
-0.00225241
-0.014570769
0.19669461
0.0016633855
0.0156796
0.0019807988
182.24862
8.2224272
9.4835084
-34.829036
467.81451
-341.4756
2.3264517
-507.70624
530.88659
5.5829093
4.753481
-1.0373579
-20.912972
142.05171
34.903052
-172.49718
40.789662
-478.08165
23.242583
17.412643
533.45532
8.0107787
-24.199067
244.37456
-4.6095905
36.041265
-196.75438
483.66912
14.028273
-211.38527
2.3563268
528.6782
186.03462
-178.51901
536.54305
6.2771464
13.474165
-13.305647
22.630163
-528.16279
31.513998
-4.9081197
-217.58472
9.3913495
-16.185057
-14.470867
-112.49587
-337.71364
21.257313
-180.89061
164.36973
9.1577581
-17.065391
-0.72373102
-13.340254
-253.58378
9.4055335
-68.041006
-13.139984
167.227
20.830234
2.1975309
175.98888
-4.3543575
-5.033798
118.06641
-0.5922799
17.117768
215.8155
-115.54105
10.33846
211.79816
-5.3787722
185.02568
-239.51732
-70.629953
185.17992
10.158184
19.806522
-7.7828012
-2.3000788
-184.57026
16.939982
-7.1472371
-171.07793
8.260632
-13.465174
-14.345111
-73.888484
-210.11217
8.2939223
-142.21094
128.50992
7.9284296
-12.315982
-1.1814808
-14.945085
-168.65104
3.9460301
-60.20024
1.1878477
96.389369
17.0854
1.3977042
139.31298
0.035307444
-2.7783994
88.636421
-0.26135637
17.452304
163.10363
-74.076139
9.5336232
163.83891
-3.366388
143.34643
-161.69319
-61.845283
143.81226
9.0826009
17.138961
-6.4133291
0.68206041
-143.4098
17.577288
-5.9928142
-128.44966
7.5246264
-10.437
-15.638372
-73.619327
-146.88787
4.6097538
-98.73661
88.998976
7.5223031
-8.6986641
-1.0418562
-15.713683
-113.5381
2.0734856
-65.747969
1.6195508
80.831317
17.883795
1.3163166
96.782417
-0.055912301
-1.7661803
78.858254
-0.11455492
17.991899
121.25193
-73.311728
8.8376792
121.58124
-2.6903324
98.967162
-109.4355
-66.852202
99.087833
8.7327621
18.049167
-5.7397602
0.20699976
-99.043227
18.152268
-5.6841905
-81.038324
7.3898467
-6.7419871
-15.918854
-75.069348
-90.11779
2.5761466
-53.174993
47.996196
7.4382168
-4.5574992
-0.68925038
-15.857608
-59.807215
0.61625538
-71.512223
0.87747754
75.48507
18.100665
0.84417206
51.905255
-0.1192731
-1.1411543
74.144685
-0.073091996
18.073811
76.15843
-75.129055
8.6896288
76.254799
-1.5506098
52.95455
-58.186874
-72.342178
52.974941
8.6764167
18.278547
-5.6335287
0.034951147
-52.995571
18.242255
-5.6523506
-33.076551
7.3826259
-3.1037687
-15.928481
-77.309084
-34.269773
0.27813507
-7.2909992
6.7479642
7.3967762
-0.26128497
-0.31521574
-15.90999
-6.2954222
-0.77394907
-77.263285
0.30833567
71.452432
18.09397
0.29853783
6.6765979
-0.050765591
-0.40596235
70.207186
-0.045652524
18.078551
30.177504
-77.611072
8.6601891
30.203351
-0.25447673
6.6281781
-7.0063009
-77.713105
6.6267338
8.6605393
18.268515
-5.6484095
0.034396785
-6.6290205
18.251494
-5.6567606
15.323431
7.3937793
0.8861942
-15.90865
-78.046627
21.742834
-1.7543081
38.470226
-34.538156
7.3524101
3.9120037
0.05775682
-15.970895
47.063416
-2.3828248
-83.212226
-0.21366958
68.849049
18.073477
-0.25777507
-38.898745
0.043730694
-0.057086834
65.780493
-0.023604329
18.091217
-15.926186
-78.845622
8.645146
-15.939184
0.87391899
-39.750314
43.865578
-83.521573
-39.763196
8.6390673
18.242872
-5.6672929
0.068015762
39.791476
18.270716
-5.6563984
63.051972
7.3601577
4.2338036
-15.966048
-82.798023
77.118195
-4.4738144
84.240633
-76.034239
7.2083976
7.9750299
0.438898
-16.245672
100.40838
-4.0547637
-93.029508
-0.67771954
62.242546
18.094871
-0.80933903
-84.976098
0.26405648
0.48235654
57.272192
0.0032485991
18.267833
-62.110292
-83.766229
8.5918455
-62.148671
1.887673
-86.377162
94.984278
-92.427449
-86.356838
8.5363802
18.258214
-5.680087
0.22143516
86.460798
18.460069
-5.5999293
112.75001
7.1704842
8.9247848
-16.486162
-84.114179
134.12654
-5.9077693
133.44315
-118.86039
6.8838149
14.088533
0.99011742
-17.354301
157.63991
-4.0196425
-92.609407
-0.91606614
57.007136
18.554049
-1.3772061
-131.01826
0.90834526
2.181595
58.072246
0.11775844
19.257401
-109.02415
-84.965513
8.40818
-109.00738
4.9601233
-134.36377
149.71231
-90.373027
-134.2654
8.2962176
18.73166
-5.5323785
0.70563245
134.53206
19.530203
-5.2916151
166.81416
7.0028851
14.633721
-18.120769
-75.101269
202.83475
-5.2444214
192.21154
-165.73783
6.9398017
24.136459
2.7270735
-20.157812
254.70344
3.4490901
-95.082382
-0.87764805
72.11443
20.039518
-1.8623793
-182.07001
2.8521896
5.2064738
119.73502
1.0962773
21.758194
-158.70296
-72.909606
8.3565127
-158.8686
13.202856
-185.4964
241.82943
-89.066271
-185.81543
8.715308
20.421686
-5.2940252
1.1115152
186.00398
22.630349
-5.1032589
257.71997
5.196995
34.533578
-25.686306
-130.08901
359.24427
2.7144807
557.34126
-576.66925
20.97596
-32.882159
14.491249
-9.7117428
-53.458328
-24.697803
434.26695
5.8096028
234.6659
26.747822
0.77129006
-588.09772
-15.153498
-41.771247
-380.94691
8.9349912
2.4129617
-224.48228
-139.92362
6.9372309
-222.74294
-13.076603
-569.98319
-66.378727
437.66727
-601.8122
38.545818
28.996328
-1.9855673
-30.743956
565.4099
7.2050079
-38.354134
-188.35676
-0.66772133
-2.3345417
-0.44442112
-49.522452
309.41523
0.42060766
-17.242866
9.5692398
-7.1532757
0.53695252
-75.046692
-5.8603696
6.2770032
132.6559
1.2081001
7.5704398
6.6977031
-0.79738279
-6.2218013
-0.38074607
195.47599
-44.620531
-0.81705198
234.94094
-4.0042841
9.3734716
-66.652789
8.7757332
1.0254738
1.5244357
-0.24911916
-9.7814797
-0.048795688
-0.0051458252
-0.49655122
-1.1544477
-0.87665881
-0.05764039
-0.017021209
-0.16639737
-0.099984001
-0.59247065
0.2768968
0.081151197
-0.20256089
-1.2941451
-0.10330139
-0.0070173088
-1.5712925
-0.091508163
-0.10865175
0.0042107228
-0.0049907352
-0.032668346
-0.16890581
-0.33584307
-0.0011877247
-0.80516319
-0.28142791
-0.0027276549
-0.040431466
-0.004164941
-0.73795531
-0.039824594
-0.03925298
0.011316519
-0.19475221
-0.17665913
-0.016742085
-0.36997918
-0.045481481
-0.55193633
-0.06823585
-4.5972957
0.36637733
0.2838236
-0.00013156523
-0.0011633642
-0.015192885
0.009804311
-0.0032402761
-0.023161016
0.086960606
0.047029482
-3.978418
0.9076718
-4.3014079
-0.060395723
-0.0017675883
0.072039617
0.037685964
0.05755415
-3.6095607
0.00097548622
-0.017345209
0.73034006
-4.9624218
-0.052387629
0.0081055068
0.16461471
0.032421976
0.10097195
-4.1174992
0.0013876224
-0.015648435
-0.057766329
-0.050394302
0.037431374
0.032933165
-0.018440118
-0.015310866
0.16994604
-0.0097491546
0.2066393
-0.01257376
-3.0038045
0.10192466
0.14486498
0.0090027487
-0.00053744271
-0.010207694
0.011759608
-0.0015043674
-0.011014451
-0.0007541122
0.02084524
-2.6612536
-0.001268184
-2.8760476
-0.011409703
-0.002237525
0.032926374
-0.00048537638
0.0040552538
-2.5668703
7.3134871e-05
-0.0098153053
-0.0029752085
-3.169039
-0.011105312
-0.0026353068
0.087015895
-0.0012538788
-0.017756818
-2.679665
-0.00015790986
-0.010049726
-0.011249306
-0.010257801
0.00066218325
9.5635967e-06
-0.010117486
-0.010012607
0.090334297
-0.0083179028
0.08648447
-0.0080977873
-2.2060247
0.042017303
0.068713958
0.0044282522
-0.00080635385
-0.0083328724
0.0010823208
-0.00032796807
-0.0077928693
0.0032301508
0.02533521
-1.9709685
-0.0020303228
-2.2007818
-0.0082749489
-0.0010523016
0.043582021
-0.00018897356
0.031324867
-1.922991
0.0003511588
-0.0072054494
-0.002433793
-2.2405967
-0.0088062208
-0.001292609
0.026577771
-0.00051340737
0.0091718167
-1.9410704
0.00011099438
-0.0077964007
-0.0080798768
-0.0084467177
-0.00016421645
-0.00011577632
-0.0074427479
-0.007969073
0.10760828
-0.0055262835
0.097677771
-0.0050812873
-1.430037
0.078214314
0.0888535
0.04482956
-0.00018317844
-0.0045303427
0.039163066
0.00011417354
-0.0041586602
0.037395748
0.048833779
-1.1040266
-0.0020533774
-1.449538
-0.0054085413
-0.00095649322
0.073084662
-0.0001144146
0.044619593
-1.0994283
0.0005019493
-0.0041110492
-0.0019055086
-1.4506249
-0.0058525646
-0.0010309092
0.056869981
-0.00012317084
0.033268097
-1.1023644
0.0003848648
-0.0044631803
-0.005158011
-0.0055663068
9.6922988e-05
0.0002488849
-0.004304348
-0.0046570109
0.058734403
-0.0031248858
0.052980979
-0.0028605897
-0.81611828
0.044487832
0.051141889
0.014891238
-0.00017630835
-0.0028172576
0.01258295
-1.1548965e-05
-0.0025903534
0.01553692
0.020890848
-0.66814365
-0.0012091153
-0.83114093
-0.0030980864
-0.00062502981
0.031297841
-8.3422772e-05
0.019814043
-0.65671406
0.00022183128
-0.0024519487
-0.0011146005
-0.831193
-0.0033550246
-0.00067241375
0.02266423
-8.7907696e-05
0.014457012
-0.658135
0.00016665086
-0.0026528635
-0.0029507471
-0.0031909736
-1.3787366e-05
6.4064108e-05
-0.00255875
-0.0027616093
0.045292509
-0.0016638106
0.041073289
-0.0015354719
-0.43715838
0.037003795
0.039873169
0.023924147
-1.0906855e-05
-0.0011131302
0.021444215
0.00011202161
-0.0010468275
0.020596016
0.025052229
-0.27877537
-0.00084676033
-0.44550698
-0.0016546956
-0.00042167002
0.035127156
-2.6328056e-05
0.023602272
-0.27598323
0.00026302689
-0.0010289866
-0.0007396615
-0.44405658
-0.0017687701
-0.00043371945
0.028282946
5.7782735e-06
0.019141852
-0.27637493
0.00021542005
-0.0010830835
-0.0015401079
-0.0016496699
4.1717475e-05
0.00013510968
-0.0011176885
-0.0011754555
0.029166646
-0.00042299954
0.027124672
-0.0004136029
-0.12079714
0.026493471
0.028947821
0.016856466
2.9661049e-05
-9.8398045e-05
0.016365528
9.2485312e-05
-0.00010428425
0.016148147
0.018245593
-0.013057769
-0.00058970601
-0.12557331
-0.00047581116
-0.00030496968
0.022455063
-0.00014422695
0.016012192
-0.013363893
0.00017410206
-0.00012050226
-0.00050370064
-0.12491708
-0.00047394428
-0.00031480754
0.020460397
-0.00010668534
0.013893285
-0.013234472
0.00014009312
-0.00010868222
-0.000397756
-0.00039860762
-9.4038642e-05
-2.6227669e-05
-0.00020168774
-0.00018097404
0.0027783573
0.0030891727
0.0016191203
0.0017215906
-0.00053452802
-0.00017376556
-0.00050105952
-0.00016915573
0.11367363
-2.1779902
-1.0101318
-2.2754871
-2.4237482
-2.5931762
-0.33022403
-0.16727826
0.29645763
0.23408203
-0.44727054
-0.19811218
0.19393819
-0.77012722
-0.058849313
-0.80296095
-1.3733285
-1.0526614
-1.7824106
-1.4181687
-0.15744424
-0.70277984
-0.11760262
-0.197799
-0.79530648
-0.10404543
-0.17794466
-0.65754425
-2.3649106
-1.6905409
-2.149775
-2.027032
-2.3783234
-0.43684879
-0.2941469
-0.27876087
-0.81937643
-0.45543935
-0.79092815
-0.076888745
-1.3324124
-1.4827639
-1.7174236
-1.4268419
-0.88048988
-0.20985553
-0.12446706
-0.89817828
)
;

boundaryField
{
    GeoShaft
    {
        type            calculated;
        value           uniform 0;
    }
    GeoTank
    {
        type            calculated;
        value           uniform 0;
    }
}


// ************************************************************************* //
