/*--------------------------------*- C++ -*----------------------------------*\
| =========                 |                                                 |
| \\      /  F ield         | OpenFOAM: The Open Source CFD Toolbox           |
|  \\    /   O peration     | Version:  2206                                  |
|   \\  /    A nd           | Website:  www.openfoam.com                      |
|    \\/     M anipulation  |                                                 |
\*---------------------------------------------------------------------------*/
FoamFile
{
    version     2.0;
    format      ascii;
    arch        "LSB;label=64;scalar=64";
    class       volScalarField;
    location    "0.6/water";
    object      Ct2;
}
// * * * * * * * * * * * * * * * * * * * * * * * * * * * * * * * * * * * * * //

dimensions      [0 0 0 0 0 0 0];

internalField   nonuniform List<scalar> 
23300
(
8.97322089536
8.97376002107
8.97418170211
8.97447156695
8.97468125467
8.97484037388
8.97496558116
8.97506702483
8.9751511186
8.97522222485
8.97528328258
8.97533646883
8.97538329701
8.97542497833
8.97546235981
8.97549617401
8.97552692444
8.97555508479
8.97558096754
8.97560489649
8.97562707141
8.97564772447
8.97566698566
8.97568502863
8.97570193851
8.97571785011
8.97573281884
8.97574695292
8.97576028761
8.97577291232
8.97578484843
8.97579617167
8.9758068937
8.97581707991
8.97582673507
8.97583591641
8.97584462376
8.97585290778
8.97586076479
8.97586824008
8.97587532764
8.97588206826
8.97588845448
8.97589452324
8.97590026621
8.9759057169
8.97591086656
8.97591574563
8.97592034529
8.9759246933
8.97592878101
8.97593263374
8.97593624317
8.97593963237
8.97594279338
8.97594574715
8.97594848609
8.9759510293
8.9759533696
8.97595552451
8.9759574875
8.97595927506
8.97596088179
8.97596232402
8.97596359823
8.97596472133
8.97596569153
8.97596652489
8.97596721729
8.97596777692
8.97596818589
8.97596844465
8.9759685409
8.97596847454
8.97596823436
8.97596782542
8.97596723908
8.97596648088
8.97596554271
8.97596442971
8.97596313371
8.97596165912
8.9759599975
8.97595815236
8.9759561148
8.97595388729
8.97595146032
8.97594883522
8.97594600172
8.9759429598
8.97593969827
8.97593621559
8.97593249939
8.97592854639
8.97592434275
8.97591988313
8.97591515189
8.9759101412
8.97590483317
8.97589921699
8.97589327191
8.97588698343
8.97588032719
8.97587328413
8.97586582519
8.97585792556
8.97584955009
8.97584066658
8.97583123186
8.97582120407
8.97581052932
8.9757991529
8.97578700638
8.97577401755
8.97576009785
8.97574515077
8.97572905918
8.97571169189
8.97569289023
8.97567247197
8.97565021606
8.97562586243
8.97559909284
8.97556952339
8.97553667721
8.97549996313
8.97545863032
8.97541171792
8.97535796756
8.97529570487
8.97522264553
8.97513560008
8.97502998845
8.97489905217
8.97473254322
8.974514512
8.97421891443
8.97379550098
8.9731285359
8.97227903178
8.97178348636
8.97191279455
8.97207630168
8.97226028732
8.97245065612
8.97263668743
8.97281226363
8.97297490875
8.97312394968
8.9732599985
8.9733839229
8.97349698892
8.9736002414
8.97369487034
8.97378174562
8.97386182978
8.97393577504
8.97400432849
8.97406795981
8.97412724668
8.97418252105
8.97423423509
8.9742826206
8.97432803831
8.97437064792
8.9744107436
8.97444843315
8.97448396167
8.9745173995
8.9745489551
8.97457867162
8.97460672959
8.97463315231
8.97465809832
8.9746815762
8.97470372654
8.9747245468
8.97474416248
8.97476256275
8.97477986028
8.97479603825
8.97481119821
8.97482531908
8.97483849247
8.97485069424
8.97486200699
8.97487240457
8.97488196144
8.97489065039
8.97489853868
8.9749055987
8.97491189111
8.97491738828
8.97492214473
8.97492613301
8.97492940227
8.97493192592
8.97493374933
8.97493484873
8.97493526925
8.97493499478
8.97493407814
8.97493252194
8.97493040306
8.97492776454
8.97492473598
8.97492143548
8.97491808923
8.9749149567
8.97491247249
8.97491105448
8.97491017243
8.97490875116
8.97490679206
8.97490426885
8.97490119646
8.97489754827
8.97489333664
8.97488853382
8.97488314921
8.97487715337
8.97487055234
8.97486331453
8.97485544222
8.97484690123
8.97483768961
8.97482777
8.97481713573
8.97480574564
8.97479358763
8.97478061597
8.97476681232
8.97475212549
8.97473652986
8.97471996766
8.9747024048
8.97468377556
8.97466403595
8.97464311067
8.97462094406
8.97459744938
8.97457255721
8.97454616713
8.97451819363
8.97448852005
8.97445704221
8.97442362451
8.97438814141
8.9743504358
8.97431035844
8.9742677288
8.9742223728
8.97417408645
8.9741226724
8.97406790712
8.97400957718
8.97394745116
8.97388131724
8.97381096181
8.97373621074
8.97365691764
8.97357301205
8.97348450098
8.97339152713
8.97329438604
8.97319359412
8.97308991727
8.97298443704
8.97287856945
8.97277409346
8.97267310721
8.97257794341
8.97249095337
8.97241411503
8.97234816256
8.97229033089
8.97222799656
8.97213512874
8.97214507163
8.97276311458
8.97268428656
8.97268880652
8.9726975343
8.97271800078
8.97275118135
8.97279565236
8.97284928192
8.97290993776
8.97297552483
8.97304430593
8.97311471507
8.97318559597
8.97325593712
8.9733250786
8.97339243514
8.97345769351
8.97352055002
8.97358090662
8.97363862819
8.9736937387
8.97374619587
8.97379608672
8.97384341538
8.97388829701
8.97393075523
8.97397091363
8.97400880049
8.97404453718
8.97407814889
8.9741097496
8.97413935799
8.97416707853
8.97419292214
8.97421698281
8.97423926285
8.97425984454
8.97427872025
8.97429595889
8.97431154142
8.97432552172
8.97433786776
8.97434861642
8.97435772048
8.97436519682
8.97437097961
8.97437506165
8.97437735405
8.97437782064
8.97437634404
8.97437285293
8.97436719411
8.9743592524
8.97434882836
8.97433575101
8.9743197611
8.97430061749
8.97427798638
8.97425154446
8.9742208794
8.97418560196
8.97414527742
8.97409958095
8.97404830811
8.9739916382
8.97393028843
8.9738659203
8.9738013893
8.97374113319
8.97369105291
8.97365680224
8.97364046677
8.97362420401
8.97360723124
8.97358959938
8.97357133738
8.97355251587
8.97353316752
8.97351336467
8.97349314309
8.97347257686
8.97345170446
8.97343060118
8.97340930739
8.97338789868
8.97336641637
8.97334493522
8.97332349633
8.97330217245
8.97328100326
8.97326005821
8.97323937435
8.97321901665
8.97319901838
8.97317943888
8.97316030668
8.97314167455
8.97312356545
8.97310602484
8.97308906952
8.97307273716
8.97305703806
8.97304200186
8.97302763231
8.97301395105
8.97300095546
8.97298865948
8.9729770545
8.9729661473
8.97295592385
8.97294638445
8.9729375104
8.97292929629
8.9729217196
8.97291477013
8.97290842236
8.97290266219
8.972897462
8.97289280465
8.97288866118
8.97288501222
8.97288182818
8.97287908805
8.97287676215
8.9728748283
8.97287325705
8.97287202525
8.97287110355
8.97287046723
8.97287008514
8.97286992559
8.97286994056
8.97287004953
8.97287006884
8.97286952826
8.97286714695
8.97285975711
8.97284457712
8.97287333138
8.97325894528
8.9740968245
8.97277839771
8.97277634837
8.97277374447
8.972773341
8.97277612531
8.97278240627
8.97279226848
8.97280568394
8.97282250701
8.97284253961
8.97286548598
8.9728910388
8.97291881846
8.97294846667
8.97297957857
8.97301179406
8.9730447262
8.97307804675
8.97311141231
8.97314454384
8.9731771517
8.97320901053
8.97323988387
8.973269596
8.97329795677
8.97332483174
8.97335006757
8.97337356136
8.97339518695
8.97341486412
8.97343248585
8.97344798752
8.97346127511
8.97347229429
8.97348095942
8.97348722236
8.97349100261
8.97349225609
8.9734909068
8.97348691578
8.97348021473
8.97347077527
8.9734585449
8.97344351659
8.97342566744
8.97340502869
8.97338162728
8.97335555567
8.97332691593
8.97329588823
8.97326267612
8.97322757165
8.97319089959
8.97315307618
8.97311454944
8.97307584843
8.9730375177
8.97300015617
8.97296434601
8.97293068213
8.97289969742
8.97287188486
8.97284762235
8.97282719266
8.97281071802
8.9727981984
8.97278949094
8.97278438302
8.97278246214
8.97278276097
8.97278322829
8.97278377741
8.97278439107
8.97278507307
8.972785811
8.97278660841
8.97278745328
8.97278834864
8.9727892828
8.97279025839
8.97279126408
8.97279230224
8.97279336199
8.97279444554
8.97279554256
8.97279665516
8.97279777365
8.97279890012
8.97280002554
8.97280115204
8.97280227129
8.97280338549
8.97280448701
8.97280557813
8.97280665195
8.97280771083
8.97280874855
8.97280976755
8.97281076231
8.97281173531
8.97281268167
8.97281360394
8.97281449781
8.97281536586
8.97281620435
8.97281701585
8.97281779713
8.97281855072
8.97281927388
8.97281996905
8.97282063392
8.97282127086
8.97282187792
8.97282245735
8.97282300753
8.97282353059
8.97282402519
8.9728244933
8.97282493382
8.97282534855
8.97282573662
8.97282609963
8.97282643689
8.97282674984
8.97282703793
8.97282730235
8.97282754254
8.97282775879
8.97282794863
8.97282810611
8.97282821173
8.97282821193
8.97282796036
8.9728270891
8.97282488259
8.97282182715
8.97283826917
8.97302346777
8.97367053528
8.97452358283
8.97283259191
8.9728317121
8.97283038007
8.97282937798
8.97282904132
8.97282948955
8.97283080715
8.97283303602
8.97283620426
8.97284031464
8.9728453479
8.97285126723
8.97285801006
8.97286550233
8.97287364546
8.97288233465
8.97289144492
8.97290085025
8.97291041014
8.97291998804
8.97292943868
8.97293862536
8.97294740777
8.9729556581
8.97296324904
8.97297006906
8.97297601023
8.97298098317
8.97298490444
8.9729877115
8.97298934964
8.9729897871
8.97298900117
8.97298699372
8.97298377625
8.97297938568
8.97297386825
8.97296729562
8.97295974743
8.97295132759
8.97294214533
8.97293233153
8.97292201817
8.97291135441
8.97290048467
8.97288956441
8.97287873723
8.97286815059
8.97285793267
8.97284820849
8.97283907759
8.97283063081
8.97282292967
8.97281602402
8.97280993367
8.97280466687
8.97280020439
8.97279651832
8.9727935584
8.97279127042
8.97278958411
8.97278843053
8.9727877312
8.97278741416
8.97278740444
8.97278763886
8.97278805754
8.97278861577
8.9727892765
8.9727900159
8.97279082435
8.97279169962
8.97279263455
8.972793626
8.97279466717
8.97279575486
8.97279688252
8.97279804692
8.97279924178
8.97280046395
8.97280170741
8.97280296916
8.97280424354
8.97280552775
8.97280681652
8.97280810733
8.97280939532
8.97281067832
8.97281195192
8.97281321428
8.97281446148
8.97281569203
8.9728169025
8.97281809176
8.97281925685
8.97282039697
8.97282150964
8.97282259439
8.97282364916
8.97282467379
8.97282566661
8.97282662775
8.9728275559
8.97282845142
8.97282931334
8.9728301422
8.97283093733
8.97283169944
8.9728324281
8.97283312414
8.97283378736
8.97283441866
8.972835018
8.97283558636
8.97283612382
8.97283663138
8.97283710924
8.97283755836
8.97283797903
8.97283837219
8.97283873815
8.9728390778
8.9728393915
8.97283968005
8.97283994382
8.97284018345
8.97284039908
8.97284059051
8.97284075563
8.97284088787
8.9728409681
8.97284094597
8.97284070268
8.9728400392
8.97283923945
8.97284465085
8.97290739236
8.97324841584
8.97400756475
8.97479705192
8.97284383511
8.97284364257
8.97284326271
8.97284291254
8.97284271843
8.97284270803
8.97284291274
8.97284332999
8.97284396833
8.97284481526
8.9728458632
8.97284709048
8.97284847632
8.97284998993
8.97285160019
8.9728532685
8.97285495647
8.97285662001
8.97285821699
8.97285970113
8.97286103043
8.97286216043
8.97286305345
8.97286367101
8.97286398366
8.97286396275
8.97286359034
8.97286285055
8.97286173918
8.97286025486
8.97285840798
8.97285621197
8.97285369109
8.9728508722
8.97284779114
8.97284448526
8.97284099831
8.97283737412
8.97283365991
8.9728299014
8.97282614472
8.97282243301
8.97281880707
8.97281530369
8.97281195511
8.97280878904
8.97280582724
8.97280308706
8.9728005794
8.9727983115
8.97279628442
8.97279449675
8.97279294183
8.9727916119
8.97279049525
8.97278958038
8.97278885323
8.97278830106
8.97278790984
8.97278766751
8.97278756171
8.97278758226
8.97278771932
8.97278796499
8.97278831196
8.97278875427
8.97278928639
8.97278990316
8.97279059744
8.97279136549
8.97279220287
8.97279310446
8.97279406561
8.97279508101
8.97279614596
8.97279725512
8.97279840386
8.97279958693
8.97280079987
8.97280203759
8.97280329585
8.97280456983
8.97280585555
8.97280714853
8.97280844509
8.97280974116
8.9728110334
8.97281231818
8.97281359253
8.97281485328
8.97281609786
8.97281732357
8.97281852824
8.97281970963
8.97282086596
8.97282199545
8.97282309667
8.9728241683
8.97282520925
8.97282621858
8.97282719554
8.97282813954
8.97282905013
8.97282992703
8.97283077005
8.97283157917
8.97283235443
8.97283309604
8.97283380422
8.97283447936
8.97283512183
8.97283573217
8.97283631087
8.97283685855
8.97283737577
8.97283786326
8.9728383216
8.97283875156
8.97283915374
8.9728395289
8.97283987766
8.97284020075
8.97284049877
8.97284077242
8.97284102223
8.97284124875
8.97284145222
8.97284163227
8.97284178676
8.97284190892
8.97284198061
8.97284195951
8.97284177579
8.97284150342
8.97284293123
8.97286057407
8.97298132762
8.97345849495
8.97424912904
8.97497417401
8.97284767385
8.97284774258
8.97284775887
8.97284777453
8.97284785119
8.97284798738
8.97284819554
8.97284845581
8.97284876525
8.97284910042
8.97284945142
8.97284979424
8.97285011558
8.97285039232
8.97285061065
8.97285074914
8.97285079535
8.97285073013
8.97285054359
8.97285021944
8.97284975127
8.97284912637
8.97284834266
8.97284739188
8.97284627695
8.97284499472
8.97284355346
8.97284195538
8.9728402139
8.97283833631
8.97283634044
8.97283423778
8.9728320493
8.9728297894
8.97282748052
8.97282513842
8.97282278526
8.97282043659
8.97281811279
8.97281582791
8.97281359935
8.97281143878
8.97280935999
8.97280737181
8.97280548424
8.9728037032
8.97280203519
8.97280048354
8.9727990518
8.97279774119
8.97279655304
8.97279548706
8.97279454305
8.97279371972
8.97279301595
8.97279242981
8.9727919597
8.97279160326
8.97279135867
8.97279122323
8.97279119495
8.97279127075
8.97279144845
8.97279172444
8.97279209624
8.97279255965
8.97279311085
8.97279374439
8.97279445532
8.97279523854
8.97279609047
8.97279700526
8.97279797903
8.97279900566
8.97280008118
8.97280119941
8.97280235644
8.97280354619
8.97280476485
8.97280600659
8.97280726776
8.97280854286
8.9728098285
8.97281111955
8.9728124129
8.97281370391
8.97281498979
8.97281626637
8.97281753123
8.97281878073
8.97282001279
8.97282122433
8.97282241363
8.97282357811
8.97282471644
8.97282582653
8.97282690739
8.97282795743
8.97282897596
8.97282996183
8.97283091467
8.97283183369
8.97283271881
8.97283356958
8.97283438614
8.97283516836
8.97283591656
8.97283663087
8.97283731178
8.9728379596
8.97283857495
8.97283915832
8.97283971041
8.97284023181
8.97284072329
8.97284118554
8.97284161933
8.97284202539
8.97284240451
8.97284275742
8.9728430849
8.97284338766
8.97284366643
8.9728439219
8.9728441547
8.97284436537
8.97284455419
8.97284472074
8.97284486286
8.97284497398
8.97284503829
8.97284502749
8.97284494762
8.97284526983
8.97284986479
8.97288375212
8.97307105929
8.97365468959
8.97443396525
8.97510291522
8.97284816656
8.97284834158
8.97284853448
8.97284874684
8.97284901736
8.97284933408
8.97284970092
8.97285009001
8.97285049263
8.9728508791
8.97285123651
8.97285153769
8.9728517702
8.97285191129
8.97285195178
8.97285187416
8.97285167371
8.97285133796
8.97285086671
8.97285025187
8.97284949736
8.97284859879
8.97284756378
8.97284639122
8.97284509196
8.97284366781
8.97284213233
8.97284048986
8.97283875602
8.97283693713
8.97283505007
8.97283310254
8.97283111182
8.9728290863
8.97282704284
8.9728249899
8.97282294321
8.9728209108
8.97281890677
8.97281693841
8.97281501791
8.97281315161
8.97281134971
8.97280961754
8.97280796338
8.97280639157
8.9728049086
8.97280351787
8.97280222432
8.97280103043
8.97279993981
8.97279895406
8.97279807562
8.97279730522
8.97279664431
8.97279609269
8.97279565098
8.97279531806
8.97279509382
8.97279497624
8.97279496456
8.9727950559
8.97279524889
8.97279553979
8.97279592669
8.97279640509
8.97279697157
8.97279761852
8.97279834294
8.97279913866
8.97280000238
8.97280092779
8.97280191133
8.97280294643
8.97280402944
8.97280515376
8.97280631571
8.97280750885
8.9728087296
8.97280997175
8.9728112319
8.97281250421
8.97281378552
8.97281507041
8.97281635601
8.97281763741
8.97281891206
8.9728201756
8.97282142582
8.97282265891
8.97282387304
8.97282506499
8.97282623325
8.97282737518
8.97282848965
8.97282957451
8.972830629
8.97283165147
8.97283264147
8.97283359782
8.97283452035
8.9728354083
8.97283626175
8.97283708031
8.97283786429
8.97283861359
8.97283932872
8.97284000984
8.97284065761
8.9728412724
8.97284185497
8.97284240587
8.97284292594
8.97284341584
8.97284387645
8.97284430853
8.97284471297
8.97284509056
8.97284544219
8.97284576865
8.97284607081
8.97284634944
8.97284660535
8.97284683927
8.97284705191
8.97284724382
8.97284741532
8.97284756599
8.97284769372
8.97284779255
8.97284785063
8.97284786095
8.97284793757
8.97284909456
8.97285793388
8.97291226163
8.97317121613
8.97383039978
8.97457912593
8.97520162869
8.97284760181
8.97284783979
8.97284814325
8.97284849832
8.97284893489
8.97284943436
8.97284999503
8.97285058319
8.97285118475
8.97285176452
8.97285230605
8.97285277804
8.97285316645
8.97285344651
8.97285360946
8.97285363771
8.9728535286
8.97285327094
8.97285286755
8.97285231224
8.97285161216
8.97285076489
8.97284978093
8.97284866071
8.97284741727
8.97284605329
8.97284458366
8.97284301277
8.97284135667
8.972839621
8.97283782229
8.97283596696
8.97283407138
8.97283214239
8.97283019564
8.97282823803
8.97282628414
8.97282434068
8.97282242088
8.9728205311
8.97281868307
8.97281688268
8.97281514008
8.97281346062
8.97281185287
8.97281032151
8.97280887361
8.97280751307
8.97280624554
8.97280507406
8.97280400295
8.97280303428
8.97280217117
8.97280141466
8.97280076676
8.97280022745
8.9727997978
8.97279947671
8.97279926444
8.97279915888
8.9727991596
8.97279926353
8.97279946958
8.97279977378
8.97280017444
8.97280066668
8.97280124764
8.97280190784
8.9728026447
8.97280345193
8.97280432635
8.97280526125
8.97280625322
8.97280729537
8.97280838416
8.9728095127
8.97281067743
8.97281187162
8.9728130918
8.97281433154
8.97281558752
8.97281685371
8.97281812705
8.97281940196
8.97282067568
8.97282194318
8.97282320202
8.97282444777
8.97282567832
8.97282688986
8.97282808066
8.97282924748
8.97283038898
8.97283150252
8.9728325871
8.97283364065
8.97283466252
8.97283565115
8.97283660623
8.97283752665
8.9728384124
8.97283926281
8.9728400781
8.97284085799
8.97284160293
8.97284231292
8.97284298862
8.97284363029
8.97284423871
8.97284481439
8.97284535819
8.97284587077
8.9728463531
8.97284680593
8.97284723026
8.97284762694
8.97284799696
8.97284834121
8.97284866066
8.97284895621
8.97284922878
8.97284947925
8.97284970848
8.97284991727
8.97285010637
8.97285027642
8.97285042774
8.97285055995
8.97285067109
8.97285075632
8.97285080974
8.97285085447
8.97285115119
8.97285342668
8.97286773461
8.9729467617
8.97327882748
8.97398542311
8.97469666657
8.97528073067
8.97284646726
8.97284676363
8.97284716836
8.9728476634
8.97284827411
8.97284897691
8.97284976422
8.97285059568
8.97285145157
8.97285229038
8.97285309078
8.97285381654
8.97285445064
8.97285496509
8.97285535007
8.97285558652
8.97285567215
8.97285559554
8.97285536067
8.97285496171
8.97285440721
8.97285369528
8.97285283773
8.97285183545
8.97285070258
8.97284944212
8.97284806979
8.97284659017
8.97284501984
8.97284336452
8.97284164106
8.97283985586
8.9728380255
8.97283615675
8.97283426542
8.97283235842
8.97283045048
8.97282854845
8.97282666572
8.97282480893
8.97282299004
8.9728212153
8.97281949515
8.97281783534
8.97281624477
8.9728147285
8.97281329395
8.97281194535
8.9728106887
8.97280952725
8.97280846566
8.97280750613
8.97280665207
8.97280590455
8.97280526586
8.97280473591
8.97280431602
8.97280400499
8.97280380333
8.97280370876
8.97280372108
8.97280383701
8.97280405568
8.97280437282
8.97280478694
8.97280529286
8.97280588775
8.97280656057
8.97280730939
8.97280812748
8.97280901175
8.97280995514
8.97281095432
8.97281200209
8.97281309497
8.9728142258
8.97281539108
8.97281658385
8.97281780069
8.97281903495
8.9728202834
8.97282153983
8.97282280125
8.97282406197
8.9728253193
8.97282656815
8.97282780615
8.97282902884
8.97283023422
8.97283141848
8.97283257999
8.97283371557
8.97283482399
8.97283590267
8.97283695076
8.97283796626
8.97283894868
8.97283989655
8.9728408097
8.97284168716
8.97284252905
8.97284333484
8.97284410489
8.97284483907
8.97284553793
8.97284620167
8.97284683103
8.97284742646
8.97284798884
8.97284851882
8.97284901739
8.97284948536
8.97284992377
8.97285033356
8.97285071579
8.97285107145
8.97285140163
8.97285170733
8.9728519896
8.97285224946
8.9728524879
8.97285270589
8.97285290436
8.97285308419
8.9728532462
8.97285339106
8.97285351914
8.97285363013
8.97285372237
8.9728537927
8.97285384376
8.97285393955
8.97285453324
8.9728582611
8.97287941671
8.97298733648
8.97339058672
8.9741212134
8.97479422705
8.97534614452
8.97284490381
8.97284526755
8.97284578531
8.97284643925
8.97284725223
8.97284819466
8.9728492522
8.97285037687
8.97285154137
8.97285269661
8.97285381521
8.97285485474
8.97285579412
8.97285660138
8.97285726485
8.97285776354
8.97285809507
8.97285824746
8.97285822549
8.97285802348
8.97285765108
8.97285710675
8.97285640341
8.9728555424
8.97285453889
8.97285339634
8.9728521314
8.97285074912
8.97284926692
8.97284769099
8.97284603888
8.97284431749
8.97284254397
8.97284072561
8.97283887871
8.97283701071
8.97283513676
8.97283326424
8.97283140697
8.97282957207
8.97282777189
8.97282601316
8.97282430668
8.9728226586
8.97282107816
8.97281957077
8.97281814415
8.97281680277
8.97281555292
8.972814398
8.97281334295
8.97281239
8.97281154284
8.97281080247
8.97281017145
8.97280964956
8.9728092384
8.97280893657
8.97280874485
8.97280866075
8.97280868432
8.97280881203
8.97280904322
8.97280937333
8.97280980099
8.97281032046
8.97281092874
8.97281161382
8.97281237401
8.97281320224
8.97281409543
8.97281504618
8.97281605118
8.97281710293
8.97281819798
8.97281932888
8.97282049218
8.97282168067
8.97282289098
8.97282411626
8.97282535333
8.97282659583
8.97282784082
8.97282908253
8.97283031834
8.97283154309
8.97283275452
8.97283394815
8.9728351221
8.97283627258
8.97283739807
8.97283849549
8.9728395637
8.97284060026
8.97284160442
8.97284257434
8.97284350964
8.97284440903
8.97284527246
8.97284609914
8.97284688931
8.97284764264
8.97284835963
8.9728490403
8.97284968537
8.9728502952
8.97285087067
8.9728514124
8.97285192141
8.97285239852
8.97285284483
8.97285326131
8.97285364914
8.97285400938
8.97285434322
8.97285465179
8.97285493626
8.97285519778
8.97285543749
8.97285565651
8.97285585593
8.9728560368
8.97285620014
8.97285634691
8.97285647799
8.97285659411
8.97285669569
8.97285678253
8.97285685345
8.97285690775
8.97285695976
8.97285712738
8.97285811066
8.97286368161
8.97289322187
8.97303400882
8.97350358874
8.97424006963
8.97487693044
8.97540156802
8.97284288604
8.97284333191
8.97284398539
8.97284483036
8.97284588719
8.97284711943
8.97284850427
8.97284998353
8.972851521
8.97285305793
8.97285455911
8.97285597458
8.97285727813
8.97285843303
8.97285942534
8.97286023197
8.9728608504
8.97286126828
8.97286149135
8.97286151432
8.97286134812
8.97286099182
8.97286045963
8.97285975359
8.97285889008
8.97285787334
8.97285672115
8.97285543937
8.97285404645
8.97285254939
8.97285096664
8.9728493059
8.97284758509
8.97284581227
8.97284400442
8.97284216968
8.97284032379
8.97283847481
8.97283663703
8.97283481823
8.97283303117
8.97283128313
8.97282958528
8.97282794424
8.97282636958
8.97282486706
8.9728234447
8.97282210722
8.97282086118
8.97281971013
8.97281865925
8.97281771081
8.97281686874
8.97281613398
8.97281550934
8.97281499444
8.97281459114
8.97281429783
8.97281411555
8.97281404156
8.97281407618
8.97281421556
8.97281445929
8.97281480243
8.97281524374
8.97281577685
8.97281639848
8.97281709547
8.97281786652
8.97281870413
8.97281960523
8.97282056207
8.97282157133
8.97282262518
8.97282372017
8.97282484858
8.97282600696
8.97282718787
8.97282838795
8.97282960018
8.97283082141
8.97283204515
8.97283326851
8.97283448565
8.97283569401
8.97283688842
8.9728380667
8.97283922441
8.97284035975
8.97284146903
8.97284255085
8.97284360221
8.97284462214
8.97284560832
8.97284656017
8.97284747599
8.97284835556
8.97284919778
8.97285000276
8.9728507699
8.97285149961
8.97285219174
8.97285284695
8.97285346548
8.9728540482
8.97285459567
8.97285510892
8.97285558876
8.97285603634
8.97285645269
8.97285683904
8.97285719654
8.97285752648
8.9728578301
8.97285810869
8.97285836356
8.97285859596
8.9728588072
8.9728589985
8.97285917113
8.97285932622
8.97285946498
8.97285958847
8.97285969777
8.97285979379
8.97285987736
8.97285994894
8.97286000853
8.97286005566
8.97286009306
8.97286015061
8.97286041582
8.97286189959
8.97286976767
8.97290938509
8.97308662861
8.97361538453
8.97434441413
8.97494828208
8.97544942216
8.97284032326
8.97284087166
8.97284169283
8.97284277264
8.97284412915
8.97284571629
8.9728475008
8.97284941188
8.97285140153
8.97285339881
8.97285535889
8.97285722239
8.97285895677
8.97286051983
8.97286189497
8.97286305709
8.97286400379
8.97286472282
8.97286522134
8.97286549494
8.97286555626
8.97286540542
8.97286505826
8.97286451792
8.97286380232
8.9728629168
8.97286188057
8.97286070061
8.97285939665
8.97285797676
8.97285646053
8.97285485667
8.97285318406
8.9728514517
8.97284967738
8.97284787011
8.97284604632
8.97284421485
8.9728423906
8.97284058203
8.97283880239
8.97283705957
8.97283536518
8.97283372628
8.97283215285
8.97283065097
8.97282922902
8.97282789193
8.97282664658
8.97282549658
8.97282444745
8.97282350138
8.97282266262
8.97282193195
8.97282131247
8.97282080359
8.97282040744
8.97282012215
8.97281994905
8.97281988507
8.9728199308
8.97282008204
8.97282033858
8.97282069509
8.97282115037
8.97282169737
8.97282233231
8.97282304089
8.97282382228
8.9728246685
8.97282557645
8.97282653796
8.97282754971
8.97282860349
8.97282969586
8.9728308188
8.97283196885
8.97283313833
8.97283432388
8.97283551833
8.97283671852
8.97283791789
8.97283911357
8.97284029969
8.97284147374
8.97284263059
8.97284376812
8.97284488198
8.97284597048
8.97284703004
8.97284805939
8.97284905569
8.97285001812
8.97285094454
8.97285183452
8.97285268659
8.9728535007
8.97285427595
8.97285501263
8.97285571039
8.97285636979
8.97285699094
8.97285757466
8.97285812143
8.97285863228
8.972859108
8.97285954978
8.97285995865
8.97286033593
8.97286068284
8.97286100074
8.97286129101
8.97286155505
8.9728617943
8.97286201016
8.97286220411
8.9728623775
8.97286253182
8.97286266836
8.97286278853
8.97286289357
8.9728629848
8.97286306334
8.97286313039
8.97286318691
8.97286323385
8.97286327171
8.97286330078
8.97286332159
8.97286334153
8.97286341077
8.97286380516
8.97286592119
8.97287660988
8.97292814232
8.97314487604
8.97372405578
8.97443650046
8.97501074929
8.97549136599
8.97283709164
8.97283776946
8.97283879996
8.97284017172
8.97284189885
8.97284392379
8.97284619943
8.97284863848
8.97285117811
8.97285373211
8.97285624306
8.97285864031
8.97286088347
8.97286292411
8.9728647428
8.9728663127
8.97286763212
8.97286868964
8.97286949461
8.97287004424
8.9728703535
8.97287042416
8.97287027421
8.97286990835
8.97286934643
8.97286859535
8.97286767607
8.97286659703
8.97286537954
8.97286403304
8.97286257846
8.97286102576
8.97285939495
8.97285769616
8.97285594814
8.97285416093
8.97285235176
8.97285053036
8.97284871231
8.97284690684
8.97284512781
8.9728433837
8.97284168664
8.97284004416
8.97283846669
8.97283696063
8.97283553474
8.97283419413
8.97283294604
8.9728317941
8.97283074415
8.97282979831
8.97282896109
8.97282823311
8.97282761774
8.97282711413
8.97282672469
8.97282644724
8.97282628335
8.97282622965
8.97282628691
8.97282645057
8.97282672058
8.97282709122
8.97282756144
8.97282812232
8.97282877003
8.97282949045
8.97283028191
8.97283113603
8.9728320497
8.97283301434
8.97283402656
8.97283507782
8.97283616461
8.97283727863
8.97283841636
8.97283956991
8.97284073592
8.97284190705
8.97284308015
8.9728442486
8.97284540955
8.97284655713
8.9728476889
8.97284879977
8.97284988776
8.9728509486
8.97285198074
8.97285298074
8.97285394751
8.9728548784
8.97285577276
8.97285662868
8.97285744591
8.97285822324
8.9728589608
8.97285965796
8.97286031522
8.97286093248
8.97286151051
8.97286204968
8.97286255101
8.97286301523
8.97286344358
8.97286383708
8.97286419711
8.97286452495
8.97286482206
8.97286508991
8.97286533002
8.97286554397
8.9728657333
8.97286589965
8.97286604455
8.97286616966
8.97286627646
8.97286636658
8.97286644142
8.97286650256
8.9728665513
8.9728665891
8.97286661717
8.97286663682
8.97286664906
8.97286665495
8.97286665511
8.97286665017
8.97286664211
8.97286664444
8.97286673336
8.97286729523
8.97287019872
8.97288430602
8.97294971726
8.97320825754
8.97382820863
8.97451829701
8.97506611155
8.97552857825
8.97283304576
8.97283388713
8.97283517922
8.97283691488
8.97283910279
8.97284167001
8.97284455116
8.97284763836
8.97285084894
8.97285407747
8.97285725072
8.97286028405
8.9728631276
8.97286572592
8.97286805677
8.97287009217
8.97287183212
8.97287326721
8.97287441008
8.97287526058
8.97287583692
8.97287614327
8.9728762004
8.97287601516
8.9728756099
8.97287499349
8.97287418911
8.97287320704
8.9728720705
8.97287079058
8.97286938983
8.9728678797
8.97286628155
8.97286460683
8.9728628754
8.97286109847
8.97285929422
8.97285747339
8.97285565236
8.97285384119
8.9728520544
8.97285030115
8.97284859414
8.97284694137
8.97284535377
8.97284383801
8.97284240331
8.9728410549
8.97283980037
8.97283864336
8.97283759001
8.9728366423
8.97283580505
8.97283507859
8.97283446659
8.97283396788
8.9728335851
8.97283331574
8.97283316158
8.97283311886
8.97283318854
8.97283336563
8.97283365016
8.97283403598
8.97283452219
8.97283509865
8.97283575922
8.97283649156
8.97283729279
8.97283815412
8.9728390723
8.97284003837
8.97284104881
8.97284209474
8.97284317253
8.9728442736
8.97284539438
8.97284652676
8.97284766734
8.97284880867
8.97284994759
8.97285107744
8.97285219541
8.97285329566
8.97285437583
8.97285543096
8.97285645915
8.9728574563
8.97285842103
8.97285935011
8.97286024263
8.97286109617
8.97286191031
8.97286268339
8.97286341541
8.97286410542
8.97286475381
8.97286536024
8.97286592543
8.9728664496
8.97286693374
8.97286737853
8.97286778519
8.97286815477
8.97286848869
8.97286878827
8.97286905507
8.97286929065
8.97286949664
8.97286967476
8.9728698267
8.97286995427
8.97287005915
8.97287014321
8.9728702081
8.97287025568
8.97287028754
8.97287030551
8.97287031107
8.97287030598
8.97287029161
8.97287026958
8.97287024116
8.9728702078
8.97287017058
8.97287013066
8.97287008881
8.97287004618
8.97287000664
8.9728699917
8.97287011036
8.97287088558
8.97287475762
8.97289295953