/*--------------------------------*- C++ -*----------------------------------*\
| =========                 |                                                 |
| \\      /  F ield         | OpenFOAM: The Open Source CFD Toolbox           |
|  \\    /   O peration     | Version:  2206                                  |
|   \\  /    A nd           | Website:  www.openfoam.com                      |
|    \\/     M anipulation  |                                                 |
\*---------------------------------------------------------------------------*/
FoamFile
{
    version     2.0;
    format      ascii;
    arch        "LSB;label=64;scalar=64";
    class       volScalarField;
    location    "0.6/water";
    object      k.gas;
}
// * * * * * * * * * * * * * * * * * * * * * * * * * * * * * * * * * * * * * //

dimensions      [0 2 -2 0 0 0 0];

internalField   nonuniform List<scalar> 
23300
(
4.7349569521e-05
5.72819381902e-05
7.20632293044e-05
8.92382098072e-05
0.000107974165565
0.000127951132896
0.000149000238024
0.000171003322872
0.000193869185636
0.000217518426527
0.000241883585989
0.000266900806667
0.000292513669018
0.000318665926891
0.000345306744471
0.000372383646625
0.000399848601109
0.000427650903777
0.000455743891952
0.000484077602776
0.000512606038576
0.000541279495405
0.000570052361276
0.00059887504001
0.000627702269391
0.000656484590408
0.000685177172006
0.000713730808686
0.000742101226832
0.000770239628987
0.000798102464582
0.000825641597856
0.000852814536707
0.000879574327409
0.000905880184569
0.000931687152504
0.000956956956387
0.000981647394557
0.00100572320134
0.00102914521652
0.00105188118695
0.00107389491972
0.00109515704791
0.00111563436838
0.00113530049506
0.00115412542477
0.00117208588721
0.00118915513514
0.00120531287952
0.00122053542806
0.00123480526086
0.00124810170501
0.00126041018921
0.00127171348613
0.00128200053153
0.00129125812796
0.00129947921741
0.0013066549878
0.00131278255206
0.00131785729717
0.00132187966726
0.00132484721333
0.0013267598829
0.00132761113862
0.00132739139677
0.00132607827097
0.00132363931103
0.00132002399463
0.00131516884809
0.00130899276842
0.00130142942416
0.00129265632247
0.00128295091498
0.00127238152203
0.00126098701757
0.00124879686068
0.00123584086633
0.00122214632137
0.00120774264352
0.001192657341
0.00117692005495
0.00116055857783
0.00114360265686
0.00112608018602
0.00110802081284
0.00108945232223
0.00107040405634
0.00105090349697
0.00103097950017
0.00101065907995
0.000989970457581
0.00096894004852
0.000947595326449
0.000925962013732
0.000904066760526
0.000881934537155
0.000859591128387
0.000837060724217
0.000814368231128
0.000791537057794
0.000768591247243
0.000745553453629
0.000722446900795
0.000699293545135
0.000676115866092
0.000652935208247
0.000629773409547
0.000606651315038
0.000583590249724
0.000560610696649
0.000537733623101
0.000514979316113
0.000492368571504
0.000469921679517
0.000447659486741
0.000425602524656
0.000403771955285
0.000382188836047
0.000360874961138
0.000339852257657
0.000319143536467
0.000298772017373
0.000278762006417
0.000259138552922
0.000239928077282
0.000221158176622
0.000202858251151
0.000185059524779
0.000167795816004
0.000151104041098
0.00013502567891
0.000119608796666
0.000104912168644
9.10123629903e-05
7.8017256599e-05
6.60942830295e-05
5.55492293729e-05
4.71130179075e-05
4.28477172714e-05
4.56194922292e-05
2.19342898823e-05
2.423414178e-05
2.77180805791e-05
3.18134852168e-05
3.63555047037e-05
4.12899490815e-05
4.65901947864e-05
5.22356974273e-05
5.82074034287e-05
6.4485331773e-05
7.10487845973e-05
7.78753042672e-05
8.49414502534e-05
9.22220138116e-05
9.96909942475e-05
0.000107320913652
0.000115083889345
0.000122950973893
0.000130893265392
0.000138881223404
0.000146885792731
0.000154877670558
0.000162828434019
0.00017070974293
0.00017849446638
0.000186155814968
0.000193668464107
0.000201007614711
0.000208150107923
0.000215073421211
0.000221756782056
0.000228180135183
0.000234325285903
0.000240174886133
0.00024571361534
0.000250927179995
0.00025580346484
0.000260331482004
0.000264502416123
0.000268308516159
0.000271744057742
0.000274804265528
0.000277486260985
0.0002797880728
0.000281709551445
0.00028325141973
0.000284416071528
0.00028520661948
0.000285627577568
0.000285683979011
0.000285382046168
0.000284728480217
0.000283731161562
0.000282398578637
0.000280740467281
0.00027876727321
0.000276490671336
0.0002739230621
0.000271078022029
0.000267969864267
0.000264614004881
0.000261026526421
0.000257224472023
0.000253225597237
0.000249049009678
0.000244715591711
0.000240249226711
0.000235677865231
0.000231037782687
0.000226388217038
0.00022180886834
0.000217328643521
0.000212790237508
0.000208202524891
0.000203577179898
0.000198924220723
0.000194252742072
0.000189570845206
0.000184886146231
0.000180205532654
0.000175535551101
0.000170882140523
0.000166250970431
0.00016164718027
0.00015707568513
0.000152540929355
0.00014804716632
0.000143598228873
0.000139197786267
0.000134849132067
0.000130555420119
0.00012631946981
0.000122143982291
0.000118031362241
0.00011398391501
0.000110003683721
0.000106092627993
0.00010225247542
9.84848830038e-05
9.47913024467e-05
9.1173125654e-05
8.76315631921e-05
8.41677749832e-05
8.07827609488e-05
7.74774777179e-05
7.42527402643e-05
7.1109325483e-05
6.80478838829e-05
6.50690311928e-05
6.21732694613e-05
5.93610679921e-05
5.66327932312e-05
5.39887802025e-05
5.14292704667e-05
4.895447515e-05
4.65645203225e-05
4.42595027295e-05
4.20394420284e-05
3.99043303361e-05
3.78540909013e-05
3.58886225606e-05
3.4007764524e-05
3.22113367183e-05
3.04991103353e-05
2.8870844767e-05
2.73262635357e-05
2.58650884918e-05
2.44870219422e-05
2.31917825976e-05
2.19791084427e-05
2.08488445732e-05
1.98011397946e-05
1.88372076513e-05
1.79620386257e-05
1.71948869412e-05
1.66117089392e-05
1.65298532979e-05
1.83748189868e-05
2.83055466727e-05
6.06709052015e-05
1.4989578614e-05
1.55844913856e-05
1.64493503613e-05
1.74515708947e-05
1.85552843797e-05
1.97489424565e-05
2.10264760648e-05
2.23825332916e-05
2.381171924e-05
2.53078972531e-05
2.68643778471e-05
2.84735318223e-05
3.0127106226e-05
3.18159537392e-05
3.35304083885e-05
3.52600898973e-05
3.69943140111e-05
3.87219353574e-05
4.04317694058e-05
4.21124469097e-05
4.37528338253e-05
4.53418802596e-05
4.6869029419e-05
4.83240497322e-05
4.96974268963e-05
5.09801726821e-05
5.21641935594e-05
5.32420683077e-05
5.42073825248e-05
5.50544695934e-05
5.57787091007e-05
5.63762443538e-05
5.68442634575e-05
5.71807223932e-05
5.73846257191e-05
5.74557619208e-05
5.73949648855e-05
5.72038374046e-05
5.68849662254e-05
5.64416291089e-05
5.58779747756e-05
5.51987446636e-05
5.44094439095e-05
5.35160927409e-05
5.2525377867e-05
5.14444082802e-05
5.02808164281e-05
4.90425027039e-05
4.7737694934e-05
4.63747141598e-05
4.49620359248e-05
4.35081099202e-05
4.20214341589e-05
4.05104159954e-05
3.89834466544e-05
3.74488093029e-05
3.59147975028e-05
3.43897350935e-05
3.28822025171e-05
3.1401192946e-05
2.99564253554e-05
2.85585671423e-05
2.72195243368e-05
2.59525478665e-05
2.47722122225e-05
2.36940261969e-05
2.27338988331e-05
2.19079037544e-05
2.123220543e-05
2.07155457758e-05
2.03483929112e-05
1.99972856351e-05
1.96568784959e-05
1.93271669828e-05
1.90082382516e-05
1.87001034344e-05
1.8402729748e-05
1.81160220072e-05
1.78398586696e-05
1.7574071744e-05
1.73184787848e-05
1.70728624394e-05
1.6836999585e-05
1.66106409584e-05
1.63935379587e-05
1.61854225694e-05
1.59860321885e-05
1.57950899764e-05
1.56123279812e-05
1.54374680066e-05
1.52702432441e-05
1.51103797164e-05
1.49576165577e-05
1.48116880449e-05
1.46723426375e-05
1.45393256049e-05
1.44123969339e-05
1.42913145774e-05
1.41758513513e-05
1.40657788307e-05
1.39608833351e-05
1.38609504751e-05
1.37657802984e-05
1.36751724683e-05
1.35889406235e-05
1.35068981662e-05
1.34288718976e-05
1.33546884061e-05
1.32841870448e-05
1.32172069131e-05
1.31535992421e-05
1.30932149516e-05
1.30359164957e-05
1.29815659702e-05
1.29300364721e-05
1.28812007282e-05
1.28349420229e-05
1.27911433193e-05
1.27496978123e-05
1.27104985117e-05
1.26734484758e-05
1.26384508268e-05
1.26054187172e-05
1.25742657418e-05
1.25449156456e-05
1.25172930488e-05
1.24913327884e-05
1.24669710996e-05
1.24441564192e-05
1.24228521716e-05
1.24031003e-05
1.23852518744e-05
1.23709505518e-05
1.23670192871e-05
1.24010524731e-05
1.25857963749e-05
1.34031777825e-05
1.7066168719e-05
3.35332039346e-05
9.00939571908e-05
1.31819425745e-05
1.33525441792e-05
1.35890447045e-05
1.38574905002e-05
1.41494779785e-05
1.44618520925e-05
1.47925795601e-05
1.51395389376e-05
1.55005639919e-05
1.58731415187e-05
1.62546178069e-05
1.66419990935e-05
1.70321662119e-05
1.74217282973e-05
1.78072410716e-05
1.81850960722e-05
1.85517345418e-05
1.89035556475e-05
1.92371198547e-05
1.95490639743e-05
1.98362913701e-05
2.00958863063e-05
2.03252894803e-05
2.05222070122e-05
2.06847702959e-05
2.08114363871e-05
2.09011295916e-05
2.09531289612e-05
2.09671874279e-05
2.09434040251e-05
2.08823213484e-05
2.07847893417e-05
2.06520514234e-05
2.04856128234e-05
2.02873238187e-05
2.0059255521e-05
1.98037744663e-05
1.9523417501e-05
1.92209497817e-05
1.88992378773e-05
1.85612962016e-05
1.82101679292e-05
1.78489678845e-05
1.74807746882e-05
1.71086674195e-05
1.67356227153e-05
1.63645401434e-05
1.59981439286e-05
1.5639004086e-05
1.52894537303e-05
1.4951617824e-05
1.46273521713e-05
1.43182805094e-05
1.40257503784e-05
1.37508754463e-05
1.34945080044e-05
1.32572915897e-05
1.30396534067e-05
1.28418658655e-05
1.26640474803e-05
1.25062161623e-05
1.23682776515e-05
1.22500519835e-05
1.21512340428e-05
1.20713905991e-05
1.20099227503e-05
1.19661269421e-05
1.19391851541e-05
1.19275314111e-05
1.19268430017e-05
1.1927365419e-05
1.19286893828e-05
1.19307465016e-05
1.19334809974e-05
1.1936849987e-05
1.19408035244e-05
1.19453015527e-05
1.19502961099e-05
1.19557484539e-05
1.19616120514e-05
1.19678495026e-05
1.19744160123e-05
1.19812759889e-05
1.19883868815e-05
1.19957154178e-05
1.20032217628e-05
1.2010875387e-05
1.20186395371e-05
1.20264867309e-05
1.20343835451e-05
1.20423057315e-05
1.20502233332e-05
1.20581154169e-05
1.20659555296e-05
1.20737260398e-05
1.20814039491e-05
1.20889748362e-05
1.20964190353e-05
1.2103725179e-05
1.21108767528e-05
1.21178652362e-05
1.21246770406e-05
1.21313062469e-05
1.21377419338e-05
1.2143980512e-05
1.21500134465e-05
1.21558391895e-05
1.21614512981e-05
1.21668499708e-05
1.21720305582e-05
1.21769947111e-05
1.2181739278e-05
1.21862670767e-05
1.21905761677e-05
1.2194670264e-05
1.21985483671e-05
1.22022148345e-05
1.22056693592e-05
1.220891672e-05
1.22119570858e-05
1.22147954777e-05
1.2217432381e-05
1.22198729556e-05
1.22221179399e-05
1.22241726339e-05
1.22260380882e-05
1.22277199418e-05
1.22292206632e-05
1.22305521824e-05
1.22317478407e-05
1.22329573319e-05
1.22347949132e-05
1.22397593386e-05
1.22577850836e-05
1.23283873523e-05
1.26122817412e-05
1.37984963077e-05
1.90763013027e-05
4.28899452121e-05
0.000125845568014
1.26615423936e-05
1.2714404022e-05
1.27841091735e-05
1.28612804601e-05
1.29439832927e-05
1.30312782106e-05
1.31224564154e-05
1.32166217974e-05
1.33129017685e-05
1.34102424498e-05
1.3507608355e-05
1.36038205354e-05
1.36977371619e-05
1.37881269617e-05
1.38738312058e-05
1.39536600861e-05
1.40265381138e-05
1.40914122566e-05
1.41473816132e-05
1.41936106867e-05
1.42294450017e-05
1.42543258576e-05
1.42678935462e-05
1.42699015763e-05
1.42603087492e-05
1.42391915419e-05
1.42068252843e-05
1.41635933e-05
1.41100569149e-05
1.4046861288e-05
1.39747961491e-05
1.38947019021e-05
1.38075260467e-05
1.3714234594e-05
1.36158673987e-05
1.35134556594e-05
1.34080742553e-05
1.33007627048e-05
1.31925725051e-05
1.30844917922e-05
1.29774897466e-05
1.28724479975e-05
1.27702045059e-05
1.26714926247e-05
1.25769839566e-05
1.24872338034e-05
1.24027224286e-05
1.23238073309e-05
1.22507648874e-05
1.21837514495e-05
1.2122847035e-05
1.20680248938e-05
1.20191958608e-05
1.19761836918e-05
1.19387681353e-05
1.1906664209e-05
1.18795632322e-05
1.18571144601e-05
1.1838962436e-05
1.18247282535e-05
1.18140414518e-05
1.18065197537e-05
1.18017966553e-05
1.1799501975e-05
1.17992896366e-05
1.18008241062e-05
1.18038113134e-05
1.18079794934e-05
1.18130980559e-05
1.18188415983e-05
1.18251473341e-05
1.18319728211e-05
1.18392840216e-05
1.18470375937e-05
1.18551995418e-05
1.18637276244e-05
1.18725889377e-05
1.18817425741e-05
1.18911567906e-05
1.19007921138e-05
1.19106181776e-05
1.19205972241e-05
1.19307006112e-05
1.19408926611e-05
1.19511468275e-05
1.19614298675e-05
1.19717176601e-05
1.19819796932e-05
1.19921945232e-05
1.20023345826e-05
1.20123812707e-05
1.20223100909e-05
1.20321053635e-05
1.20417457046e-05
1.20512183525e-05
1.20605050016e-05
1.20695957331e-05
1.20784752171e-05
1.2087136242e-05
1.20955662945e-05
1.21037606841e-05
1.21117095097e-05
1.21194103775e-05
1.21268557611e-05
1.21340453117e-05
1.21409736163e-05
1.21476421025e-05
1.21540471959e-05
1.21601918235e-05
1.21660739691e-05
1.21716977817e-05
1.21770625249e-05
1.21821732991e-05
1.21870303767e-05
1.21916395516e-05
1.21960018477e-05
1.22001235125e-05
1.22040060832e-05
1.22076560467e-05
1.22110752442e-05
1.22142702245e-05
1.22172429704e-05
1.22199999747e-05
1.22225432698e-05
1.2224879251e-05
1.22270100327e-05
1.22289422492e-05
1.22306801015e-05
1.22322403856e-05
1.22336744428e-05
1.22351994079e-05
1.22376819752e-05
1.22445647272e-05
1.22693513296e-05
1.23653964018e-05
1.27495531786e-05
1.43561610284e-05
2.15502916769e-05
5.40250666328e-05
0.000165482623631
1.25008024756e-05
1.25184441829e-05
1.25403810409e-05
1.2563818101e-05
1.25884370539e-05
1.26139338647e-05
1.26400607357e-05
1.26663814135e-05
1.26925248563e-05
1.27179933893e-05
1.27423600887e-05
1.27651155063e-05
1.27858301041e-05
1.28040280879e-05
1.28193271096e-05
1.28313294979e-05
1.2839742503e-05
1.28442801004e-05
1.28447676081e-05
1.2841049833e-05
1.28330837362e-05
1.2820850659e-05
1.28044398402e-05
1.27839634541e-05
1.27596328763e-05
1.27316757371e-05
1.27004060067e-05
1.26661425177e-05
1.26292736031e-05
1.25901773026e-05
1.25492819289e-05
1.25069894742e-05
1.24637341554e-05
1.24199107091e-05
1.23759319049e-05
1.23321617885e-05
1.22889713975e-05
1.22466760966e-05
1.22055888681e-05
1.21659618908e-05
1.21280379473e-05
1.20919970315e-05
1.20580063088e-05
1.2026171791e-05
1.19965864795e-05
1.19692865885e-05
1.19442975321e-05
1.19215944909e-05
1.19011463399e-05
1.18828804037e-05
1.18667241529e-05
1.18525733638e-05
1.18403309086e-05
1.18298772755e-05
1.18211059915e-05
1.18138958563e-05
1.18081429932e-05
1.18037343929e-05
1.18005767281e-05
1.17985709021e-05
1.1797637974e-05
1.17976946874e-05
1.17986770891e-05
1.18005171214e-05
1.18031644628e-05
1.18065639579e-05
1.18106751727e-05
1.18154506203e-05
1.18208360334e-05
1.18267953886e-05
1.18332994544e-05
1.18403078377e-05
1.18477880456e-05
1.18556978322e-05
1.18640038092e-05
1.18726638969e-05
1.18816451339e-05
1.18909064081e-05
1.19004157744e-05
1.19101335465e-05
1.19200292296e-05
1.19300649658e-05
1.19402121125e-05
1.19504350237e-05
1.19607072786e-05
1.19709957862e-05
1.19812766587e-05
1.19915196386e-05
1.20017036061e-05
1.20118013352e-05
1.20217946247e-05
1.20316593933e-05
1.20413804233e-05
1.20509368085e-05
1.20603163005e-05
1.20695011223e-05
1.20784819089e-05
1.20872438994e-05
1.2095780466e-05
1.21040796944e-05
1.21121374981e-05
1.21199445957e-05
1.21274992079e-05
1.2134794439e-05
1.2141830557e-05
1.21486027822e-05
1.21551131528e-05
1.2161358723e-05
1.21673430169e-05
1.21730646361e-05
1.21785283068e-05
1.21837338944e-05
1.21886870515e-05
1.2193388632e-05
1.21978449532e-05
1.22020575967e-05
1.22060333003e-05
1.22097741333e-05
1.22132870345e-05
1.22165743473e-05
1.22196430282e-05
1.22224955221e-05
1.22251386695e-05
1.22275749032e-05
1.22298108876e-05
1.22318490983e-05
1.22336966011e-05
1.22353590852e-05
1.22368586947e-05
1.22382675558e-05
1.22398808618e-05
1.22428567037e-05
1.22517249838e-05
1.22840995848e-05
1.24092903719e-05
1.29091368343e-05
1.50046804004e-05
2.44493029098e-05
6.68296374035e-05
0.000208160264679
1.24485289422e-05
1.24551914672e-05
1.24628920987e-05
1.24706858841e-05
1.24786566967e-05
1.2486671738e-05
1.24946359483e-05
1.25022729958e-05
1.25093842347e-05
1.25156651039e-05
1.25209000199e-05
1.25248058707e-05
1.25271914821e-05
1.25278277457e-05
1.25265788145e-05
1.25232895843e-05
1.25178965277e-05
1.25103258681e-05
1.25005898436e-05
1.24886924365e-05
1.24747156072e-05
1.24587308851e-05
1.24408786374e-05
1.24212843426e-05
1.24001327304e-05
1.23775878749e-05
1.2353863253e-05
1.23291451204e-05
1.23036591798e-05
1.22775971747e-05
1.22511809043e-05
1.22245924787e-05
1.21980364159e-05
1.21716739975e-05
1.21456836359e-05
1.21201992222e-05
1.2095368348e-05
1.20712943225e-05
1.20480919087e-05
1.20258330137e-05
1.20045999122e-05
1.1984434734e-05
1.19653900828e-05
1.19474821987e-05
1.19307387053e-05
1.19151551858e-05
1.19007398618e-05
1.18874733749e-05
1.18753503359e-05
1.18643420756e-05
1.18544350119e-05
1.18455960311e-05
1.18378076616e-05
1.18310357827e-05
1.18252617754e-05
1.18204523766e-05
1.18165891248e-05
1.18136402137e-05
1.18115875822e-05
1.18104005955e-05
1.18100611122e-05
1.1810538787e-05
1.18118144184e-05
1.18138567097e-05
1.18166443109e-05
1.18201436024e-05
1.18243275189e-05
1.18291537494e-05
1.18345793489e-05
1.18405713485e-05
1.18470999787e-05
1.1854124695e-05
1.18616131938e-05
1.18695234142e-05
1.18778220588e-05
1.18864669562e-05
1.18954249778e-05
1.19046547344e-05
1.19141240175e-05
1.19237928398e-05
1.19336304746e-05
1.19435988334e-05
1.19536691348e-05
1.19638056122e-05
1.19739818188e-05
1.19841646626e-05
1.19943303435e-05
1.20044487183e-05
1.20144988615e-05
1.20244537685e-05
1.20342955278e-05
1.20440003758e-05
1.20535534687e-05
1.20629343023e-05
1.20721310739e-05
1.20811264801e-05
1.20899116608e-05
1.20984723878e-05
1.21068025844e-05
1.21148909155e-05
1.21227338795e-05
1.21303228083e-05
1.21376565298e-05
1.21447287839e-05
1.21515404564e-05
1.21580874155e-05
1.21643723173e-05
1.21703928663e-05
1.21761531961e-05
1.21816525522e-05
1.21868962542e-05
1.21918847984e-05
1.21966244075e-05
1.22011165484e-05
1.22053680789e-05
1.22093811714e-05
1.22131630704e-05
1.22167164092e-05
1.22200485954e-05
1.22231625059e-05
1.22260655219e-05
1.22287605845e-05
1.2231254907e-05
1.2233551375e-05
1.22356569793e-05
1.22375746757e-05
1.22393121643e-05
1.22408771127e-05
1.22422982866e-05
1.22436725469e-05
1.22453862777e-05
1.22489349249e-05
1.2260101597e-05
1.23012257152e-05
1.24599550131e-05
1.30930403536e-05
1.57547412199e-05
2.78181864268e-05
8.12978661348e-05
0.000253431429669
1.24303153195e-05
1.24335599757e-05
1.2437082665e-05
1.24404786848e-05
1.24439177596e-05
1.24473033202e-05
1.24505746601e-05
1.24534913398e-05
1.24559016991e-05
1.24575513327e-05
1.24582812243e-05
1.24578723305e-05
1.24562013151e-05
1.24531094583e-05
1.24485312113e-05
1.24423788916e-05
1.24346505411e-05
1.24253257072e-05
1.24144591809e-05
1.24020853469e-05
1.23883029659e-05
1.23731865493e-05
1.23568653325e-05
1.23394403143e-05
1.23210590421e-05
1.23018372034e-05
1.22819300477e-05
1.22614578094e-05
1.22405742476e-05
1.22193955881e-05
1.21980665423e-05
1.2176692766e-05
1.2155404596e-05
1.21342930788e-05
1.21134713886e-05
1.20930143375e-05
1.20730172112e-05
1.20535386365e-05
1.20346565908e-05
1.20164146098e-05
1.19988748221e-05
1.19820675032e-05
1.19660409955e-05
1.19508145456e-05
1.19364249847e-05
1.19228827492e-05
1.19102152797e-05
1.18984261218e-05
1.18875350902e-05
1.18775403154e-05
1.18684552824e-05
1.18602736555e-05
1.18530033796e-05
1.18466341187e-05
1.1841168691e-05
1.1836592952e-05
1.18329048663e-05
1.1830086621e-05
1.18281316078e-05
1.18270184876e-05
1.18267363079e-05
1.1827260209e-05
1.18285749177e-05
1.18306518976e-05
1.1833471593e-05
1.1837001618e-05
1.18412164724e-05
1.1846059826e-05
1.18515004454e-05
1.18575005151e-05
1.18640295833e-05
1.18710466033e-05
1.18785190053e-05
1.18864045038e-05
1.18946696181e-05
1.19032719211e-05
1.19121780426e-05
1.19213462873e-05
1.19307441866e-05
1.19403314627e-05
1.19500771751e-05
1.19599430202e-05
1.19699000957e-05
1.19799125298e-05
1.19899538705e-05
1.19999910455e-05
1.20100003711e-05
1.20199518512e-05
1.20298247944e-05
1.20395924645e-05
1.20492372932e-05
1.2058735896e-05
1.20680738695e-05
1.20772311865e-05
1.20861965672e-05
1.20949532688e-05
1.21034930221e-05
1.21118022273e-05
1.21198754518e-05
1.21277020415e-05
1.21352791769e-05
1.2142598909e-05
1.21496607714e-05
1.21564592473e-05
1.21629959388e-05
1.21692674687e-05
1.21752772081e-05
1.21810236163e-05
1.21865115296e-05
1.21917409392e-05
1.21967178462e-05
1.22014434749e-05
1.22059247008e-05
1.22101636947e-05
1.22141679319e-05
1.22179402593e-05
1.22214884979e-05
1.22248159215e-05
1.22279304686e-05
1.22308356184e-05
1.2233539232e-05
1.22360448104e-05
1.22383599924e-05
1.22404881822e-05
1.22424367614e-05
1.22442092701e-05
1.22458142218e-05
1.22472617086e-05
1.22485884238e-05
1.22499202578e-05
1.22517495906e-05
1.22559615561e-05
1.22697804317e-05
1.23209647797e-05
1.25181695884e-05
1.33041580008e-05
1.66185701275e-05
3.17037906536e-05
9.74200764704e-05
0.000300996945891
1.2422726649e-05
1.24250430046e-05
1.24275833508e-05
1.24301099303e-05
1.2432804903e-05
1.24355555465e-05
1.24382902543e-05
1.24407569524e-05
1.24427921393e-05
1.24441338176e-05
1.24446215653e-05
1.24440368109e-05
1.24422627354e-05
1.24391504545e-05
1.24346473289e-05
1.24286797825e-05
1.24212599562e-05
1.24123796398e-05
1.24021030391e-05
1.23904698531e-05
1.23775798175e-05
1.23635035854e-05
1.23483621565e-05
1.23322440033e-05
1.23152807252e-05
1.22975690419e-05
1.22792432559e-05
1.22604012222e-05
1.22411739377e-05
1.22216550488e-05
1.22019677674e-05
1.21821977752e-05
1.21624575552e-05
1.21428226641e-05
1.21233934101e-05
1.21042344562e-05
1.20854336568e-05
1.20670449541e-05
1.20491441799e-05
1.2031775244e-05
1.20150027541e-05
1.19988615008e-05
1.19834057966e-05
1.19686622389e-05
1.19546757268e-05
1.19414654593e-05
1.19290676657e-05
1.19174947634e-05
1.19067749036e-05
1.18969141677e-05
1.18879330844e-05
1.18798317061e-05
1.18726233161e-05
1.18663022027e-05
1.18608748246e-05
1.18563300686e-05
1.18526681475e-05
1.18498730708e-05
1.18479395075e-05
1.18468471335e-05
1.18465856452e-05
1.18471306514e-05
1.18484670924e-05
1.18505665192e-05
1.18534092939e-05
1.18569626827e-05
1.18612003164e-05
1.18660569676e-05
1.18715049456e-05
1.18775044229e-05
1.1884024199e-05
1.18910225887e-05
1.18984665471e-05
1.19063133459e-05
1.19145291506e-05
1.19230711522e-05
1.19319056665e-05
1.19409906511e-05
1.19502933686e-05
1.19597732562e-05
1.19693991837e-05
1.1979132661e-05
1.1988944705e-05
1.19987993828e-05
1.20086702888e-05
1.20185244284e-05
1.2028338298e-05
1.20380821201e-05
1.20477355142e-05
1.20572720977e-05
1.2066674735e-05
1.20759205189e-05
1.20849955865e-05
1.20938804971e-05
1.21025646032e-05
1.21110318404e-05
1.21192746464e-05
1.21272801739e-05
1.21350437535e-05
1.21425555399e-05
1.2149813516e-05
1.21568105802e-05
1.21635470913e-05
1.21700184028e-05
1.21762269494e-05
1.21821702321e-05
1.21878524486e-05
1.21932729321e-05
1.21984373273e-05
1.22033464839e-05
1.22080071831e-05
1.22124214835e-05
1.22165970038e-05
1.22205367173e-05
1.22242487982e-05
1.22277368581e-05
1.22310093669e-05
1.22340703199e-05
1.2236928249e-05
1.2239587307e-05
1.22420558884e-05
1.22443381171e-05
1.2246442103e-05
1.22483718261e-05
1.22501351089e-05
1.22517361607e-05
1.22531844629e-05
1.22544929753e-05
1.22557077342e-05
1.22569885435e-05
1.22589507798e-05
1.22639291417e-05
1.22808031695e-05
1.23435328558e-05
1.25847716498e-05
1.35457147422e-05
1.76097697221e-05
3.61543545175e-05
0.000115179802097
0.000350635298167
1.24179239982e-05
1.24201998291e-05
1.24228741672e-05
1.24257679032e-05
1.24290533405e-05
1.24325890773e-05
1.24362676482e-05
1.24397950687e-05
1.24429729026e-05
1.24455028187e-05
1.24471930833e-05
1.24478003604e-05
1.24471895708e-05
1.24451993566e-05
1.24417713161e-05
1.24368303236e-05
1.24303910341e-05
1.24224493167e-05
1.24130745713e-05
1.24023110156e-05
1.23902622362e-05
1.2377001126e-05
1.23626498202e-05
1.23472964166e-05
1.23310713427e-05
1.23140691664e-05
1.22964217564e-05
1.22782241417e-05
1.22596046871e-05
1.22406545138e-05
1.22214948445e-05
1.22022098251e-05
1.21829110996e-05
1.21636740078e-05
1.21445993257e-05
1.21257528307e-05
1.21072240506e-05
1.20890691845e-05
1.20713666899e-05
1.20541635603e-05
1.20375276224e-05
1.20214971741e-05
1.20061299227e-05
1.19914559717e-05
1.19775234001e-05
1.1964354555e-05
1.19519883402e-05
1.19404397275e-05
1.19297388786e-05
1.19198937319e-05
1.19109261343e-05
1.19028373197e-05
1.18956412828e-05
1.18893329437e-05
1.1883919036e-05
1.18793887187e-05
1.18757422486e-05
1.18729637428e-05
1.18710478523e-05
1.18699743051e-05
1.18697327419e-05
1.18702986955e-05
1.18716568583e-05
1.18737784081e-05
1.18766432245e-05
1.18802181488e-05
1.18844760049e-05
1.18893418075e-05
1.18947905479e-05
1.19007813062e-05
1.19072820251e-05
1.19142502644e-05
1.19216523703e-05
1.19294450306e-05
1.19375939403e-05
1.19460558136e-05
1.19547965912e-05
1.19637738452e-05
1.19729545581e-05
1.1982297888e-05
1.19917725386e-05
1.200133987e-05
1.2010970867e-05
1.20206295951e-05
1.20302897635e-05
1.20399185335e-05
1.20494926666e-05
1.20589826992e-05
1.20683686616e-05
1.20776246351e-05
1.2086734029e-05
1.20956745369e-05
1.21044329589e-05
1.21129905738e-05
1.21213374967e-05
1.21294584813e-05
1.21373468068e-05
1.21449905219e-05
1.21523858565e-05
1.21595239188e-05
1.21664036285e-05
1.21730188747e-05
1.21793709721e-05
1.21854562836e-05
1.21912782017e-05
1.21968352396e-05
1.22021325395e-05
1.22071704351e-05
1.22119554894e-05
1.22164895294e-05
1.22207802171e-05
1.22248305552e-05
1.22286489969e-05
1.22322394179e-05
1.22356107734e-05
1.2238767529e-05
1.22417188753e-05
1.22444696079e-05
1.22470289136e-05
1.22494016869e-05
1.22515969074e-05
1.2253619379e-05
1.22554777247e-05
1.22571765501e-05
1.22587241648e-05
1.22601255224e-05
1.2261391227e-05
1.22625376005e-05
1.22636216682e-05
1.2264842831e-05
1.22669591953e-05
1.22728239977e-05
1.22932154527e-05
1.23691773535e-05
1.26607124498e-05
1.38213386644e-05
1.87434105093e-05
4.12188897805e-05
0.000134554871774
0.000402174435668
1.2412995906e-05
1.24156089906e-05
1.24188992142e-05
1.24227150348e-05
1.24272185888e-05
1.24322218703e-05
1.24375663441e-05
1.24429009136e-05
1.24479683292e-05
1.2452415133e-05
1.24560031816e-05
1.24584471762e-05
1.24595812826e-05
1.24592217977e-05
1.24572977212e-05
1.24537285529e-05
1.24485302419e-05
1.24417037065e-05
1.24333263659e-05
1.24234511548e-05
1.24121909521e-05
1.23996272227e-05
1.23858904145e-05
1.23710759891e-05
1.23553214136e-05
1.23387275105e-05
1.23214321627e-05
1.23035358056e-05
1.22851720087e-05
1.22664366164e-05
1.22474553681e-05
1.22283165474e-05
1.22091357089e-05
1.21899918172e-05
1.21709890187e-05
1.21521962592e-05
1.2133705946e-05
1.21155770236e-05
1.20978903646e-05
1.2080695292e-05
1.2064061585e-05
1.20480294396e-05
1.20326580448e-05
1.20179789552e-05
1.20040412661e-05
1.19908683363e-05
1.19784996558e-05
1.1966950807e-05
1.19562521701e-05
1.19464119539e-05
1.19374519334e-05
1.19293733492e-05
1.19221899266e-05
1.19158964231e-05
1.1910499217e-05
1.19059872485e-05
1.19023604521e-05
1.18996027771e-05
1.1897708666e-05
1.18966577593e-05
1.18964395613e-05
1.18970294832e-05
1.18984120077e-05
1.19005580166e-05
1.19034465383e-05
1.190704187e-05
1.19113142919e-05
1.19161839375e-05
1.19216258641e-05
1.1927598225e-05
1.19340680596e-05
1.19409920812e-05
1.19483359326e-05
1.19560556169e-05
1.19641162756e-05
1.19724740756e-05
1.19810945375e-05
1.19899348208e-05
1.19989616249e-05
1.20081338427e-05
1.20174200449e-05
1.20267814905e-05
1.20361891949e-05
1.20456072992e-05
1.20550097143e-05
1.20643638587e-05
1.20736468666e-05
1.20828297089e-05
1.20918929513e-05
1.21008112763e-05
1.21095687759e-05
1.21181438938e-05
1.21265242409e-05
1.21346919736e-05
1.21426381228e-05
1.21503484238e-05
1.21578171521e-05
1.21650334175e-05
1.2171994503e-05
1.21786926327e-05
1.21851278134e-05
1.21912950825e-05
1.2197196854e-05
1.22028306514e-05
1.22082009597e-05
1.22133074469e-05
1.22181563246e-05
1.22227490603e-05
1.22270932493e-05
1.22311918184e-05
1.2235053414e-05
1.22386820939e-05
1.22420872381e-05
1.2245273725e-05
1.22482513712e-05
1.22510255855e-05
1.22536063486e-05
1.22559993344e-05
1.22582144427e-05
1.22602573768e-05
1.22621377489e-05
1.22638610983e-05
1.2265436601e-05
1.22668695381e-05
1.22681687464e-05
1.22693400042e-05
1.22703952159e-05
1.22713546543e-05
1.22722882815e-05
1.22734417919e-05
1.22757389447e-05
1.22826305536e-05
1.23070702512e-05
1.23981782323e-05
1.2747053697e-05
1.41350558463e-05
2.00359892309e-05
4.6946394678e-05
0.000155518859847
0.000455476643219
1.24065792001e-05
1.24097532862e-05
1.24139666774e-05
1.2419088223e-05
1.24252615364e-05
1.24322457027e-05
1.24398125351e-05
1.24475304452e-05
1.24550688498e-05
1.24620006993e-05
1.24680231205e-05
1.24727971702e-05
1.24761162785e-05
1.24777678563e-05
1.24776656263e-05
1.24757235814e-05
1.24719615252e-05
1.24663893577e-05
1.24590976153e-05
1.24501534005e-05
1.24396846061e-05
1.24277869138e-05
1.2414604688e-05
1.24002461569e-05
1.23848610365e-05
1.23685613056e-05
1.23514954073e-05
1.23337732937e-05
1.23155373538e-05
1.2296891252e-05
1.22779677824e-05
1.22588613881e-05
1.22396930236e-05
1.22205463263e-05
1.22015294151e-05
1.21827146733e-05
1.21641973183e-05
1.21460387496e-05
1.21283217308e-05
1.21110972694e-05
1.20944363151e-05
1.20783801439e-05
1.20629885532e-05
1.20482937035e-05
1.20343448675e-05
1.20211656455e-05
1.20087953886e-05
1.19972496503e-05
1.19865584502e-05
1.19767297717e-05
1.19677848841e-05
1.19597246688e-05
1.19525622738e-05
1.19462920382e-05
1.19409197802e-05
1.19364340545e-05
1.19328343466e-05
1.19301043304e-05
1.19282381587e-05
1.19272153039e-05
1.19270250669e-05
1.1927642656e-05
1.19290522519e-05
1.19312243302e-05
1.19341370439e-05
1.19377519799e-05
1.19420359935e-05
1.19469031188e-05
1.19523293046e-05
1.19582716166e-05
1.1964696189e-05
1.19715588333e-05
1.19788244212e-05
1.19864481982e-05
1.19943946916e-05
1.20026194722e-05
1.20110876121e-05
1.20197558493e-05
1.20285906111e-05
1.20375505572e-05
1.20466041747e-05
1.20557126915e-05
1.20648472368e-05
1.20739721299e-05
1.20830615958e-05
1.20920834403e-05
1.21010153061e-05
1.21098287517e-05