/*--------------------------------*- C++ -*----------------------------------*\
| =========                 |                                                 |
| \\      /  F ield         | OpenFOAM: The Open Source CFD Toolbox           |
|  \\    /   O peration     | Version:  2206                                  |
|   \\  /    A nd           | Website:  www.openfoam.com                      |
|    \\/     M anipulation  |                                                 |
\*---------------------------------------------------------------------------*/
FoamFile
{
    version     2.0;
    format      ascii;
    arch        "LSB;label=64;scalar=64";
    class       volScalarField;
    location    "0.6/water";
    object      p;
}
// * * * * * * * * * * * * * * * * * * * * * * * * * * * * * * * * * * * * * //

dimensions      [1 -1 -2 0 0 0 0];

internalField   nonuniform List<scalar> 
23300
(
100727.219762
100727.222646
100727.227725
100727.235316
100727.245503
100727.258198
100727.273452
100727.291134
100727.311296
100727.333784
100727.358648
100727.385718
100727.415036
100727.446419
100727.479903
100727.515297
100727.552628
100727.591699
100727.632534
100727.674934
100727.718921
100727.764296
100727.811082
100727.859084
100727.908327
100727.95862
100728.009993
100728.062261
100728.11546
100728.169412
100728.224158
100728.27953
100728.335574
100728.392132
100728.449255
100728.506795
100728.564808
100728.623156
100728.681898
100728.740908
100728.800247
100728.8598
100728.919628
100728.979626
100729.039854
100729.100219
100729.160779
100729.221448
100729.282282
100729.343205
100729.404267
100729.4654
100729.526649
100729.587953
100729.64935
100729.710786
100729.772293
100729.833822
100729.895397
100729.956974
100730.01857
100730.080144
100730.141707
100730.20322
100730.26469
100730.326079
100730.387387
100730.448581
100730.509658
100730.570589
100730.631359
100730.691909
100730.752207
100730.812226
100730.871947
100730.931339
100730.990379
100731.049034
100731.107279
100731.165081
100731.222413
100731.279242
100731.33554
100731.391274
100731.446417
100731.500937
100731.554806
100731.607994
100731.660474
100731.712218
100731.763199
100731.813391
100731.862769
100731.911309
100731.958986
100732.005781
100732.051669
100732.096632
100732.140649
100732.183705
100732.225778
100732.266857
100732.306922
100732.345963
100732.383963
100732.420915
100732.456801
100732.491618
100732.52535
100732.557995
100732.589539
100732.61998
100732.649308
100732.677522
100732.704612
100732.730579
100732.755415
100732.779121
100732.80169
100732.823125
100732.84342
100732.862578
100732.880595
100732.897472
100732.913208
100732.927806
100732.941262
100732.953582
100732.964762
100732.974807
100732.983716
100732.991494
100732.998141
100733.003664
100733.008071
100733.011385
100733.013647
100733.014946
100733.015437
100733.01539
100719.135589
100719.13846
100719.14351
100719.151153
100719.161413
100719.174221
100719.189591
100719.20743
100719.227747
100719.250431
100719.275483
100719.302779
100719.332312
100719.363946
100719.397664
100719.433323
100719.4709
100719.510246
100719.551332
100719.594009
100719.638246
100719.683893
100719.730923
100719.779186
100719.82866
100719.879201
100719.930788
100719.983285
100720.036678
100720.090837
100720.145754
100720.201309
100720.2575
100720.314216
100720.371461
100720.429132
100720.487242
100720.545697
100720.604512
100720.663605
100720.722995
100720.782607
100720.842465
100720.902502
100720.962744
100721.023131
100721.083688
100721.144364
100721.205184
100721.266101
100721.327139
100721.388258
100721.449476
100721.510758
100721.572121
100721.633531
100721.695002
100721.756501
100721.818039
100721.879586
100721.941145
100722.002688
100722.064216
100722.125699
100722.187134
100722.248493
100722.309768
100722.37093
100722.431969
100722.492857
100722.553555
100722.61403
100722.674277
100722.734262
100722.793958
100722.853333
100722.91236
100722.971007
100723.029247
100723.087046
100723.144377
100723.201206
100723.257506
100723.313244
100723.368391
100723.422917
100723.476792
100723.529988
100723.582475
100723.634227
100723.685217
100723.735418
100723.784805
100723.833354
100723.881041
100723.927845
100723.973742
100724.018715
100724.062742
100724.105807
100724.147889
100724.188977
100724.229051
100724.268101
100724.30611
100724.34307
100724.378966
100724.413791
100724.447533
100724.480186
100724.511739
100724.542189
100724.571527
100724.59975
100724.62685
100724.652827
100724.677673
100724.70139
100724.723971
100724.745417
100724.765725
100724.784896
100724.802926
100724.819818
100724.83557
100724.850183
100724.863658
100724.875996
100724.887196
100724.897263
100724.906195
100724.913997
100724.920671
100724.92622
100724.930653
100724.933988
100724.936263
100724.937567
100724.93806
100724.938082
100711.04312
100711.046041
100711.05114
100711.058888
100711.0693
100711.082306
100711.097914
100711.116035
100711.136667
100711.159704
100711.185135
100711.212841
100711.242801
100711.274885
100711.309064
100711.345199
100711.383255
100711.423088
100711.464658
100711.507821
100711.552534
100711.598655
100711.646144
100711.694859
100711.744764
100711.795725
100711.84771
100711.900591
100711.954342
100712.008844
100712.064077
100712.119931
100712.176394
100712.233364
100712.290837
100712.348719
100712.407015
100712.46564
100712.524603
100712.583828
100712.64333
100712.703043
100712.762983
100712.823092
100712.883391
100712.943827
100713.004422
100713.065131
100713.125973
100713.186911
100713.247963
100713.309095
100713.370322
100713.431615
100713.492986
100713.554408
100713.615889
100713.677404
100713.738958
100713.800525
100713.862106
100713.923677
100713.985235
100714.046753
100714.108225
100714.169625
100714.230942
100714.29215
100714.353233
100714.414146
100714.474879
100714.535425
100714.595754
100714.655829
100714.715622
100714.775098
100714.834229
100714.892983
100714.951329
100715.009236
100715.066674
100715.12361
100715.180013
100715.235854
100715.291101
100715.345723
100715.399692
100715.452978
100715.505553
100715.557388
100715.608457
100715.658733
100715.708191
100715.756808
100715.804557
100715.85142
100715.897372
100715.942395
100715.986468
100716.029575
100716.071696
100716.112818
100716.152924
100716.192001
100716.230035
100716.267016
100716.302931
100716.337771
100716.371526
100716.40419
100716.435752
100716.466208
100716.49555
100716.523776
100716.550877
100716.576854
100716.601699
100716.625413
100716.647991
100716.669434
100716.689737
100716.708903
100716.726928
100716.743814
100716.75956
100716.774168
100716.787636
100716.799968
100716.811163
100716.821224
100716.830151
100716.837948
100716.844616
100716.850159
100716.854586
100716.857911
100716.860175
100716.861472
100716.861977
100716.862057
100702.941414
100702.944402
100702.949613
100702.957541
100702.968196
100702.981511
100702.997487
100703.016036
100703.037149
100703.060719
100703.086727
100703.115051
100703.145663
100703.178429
100703.213313
100703.250172
100703.288963
100703.329539
100703.371855
100703.415761
100703.461212
100703.50806
100703.556261
100703.605671
100703.656252
100703.707864
100703.760475
100703.813955
100703.868276
100703.923316
100703.979058
100704.035389
100704.092297
100704.149681
100704.207536
100704.265772
100704.324391
100704.383311
100704.442541
100704.50201
100704.561731
100704.621642
100704.681759
100704.742029
100704.802471
100704.863037
100704.923748
100704.984564
100705.045505
100705.106535
100705.167674
100705.228889
100705.290198
100705.351572
100705.413025
100705.474531
100705.536099
100705.597705
100705.659355
100705.721024
100705.782714
100705.8444
100705.906078
100705.967725
100706.029333
100706.090876
100706.152341
100706.213702
100706.274933
100706.336006
100706.396911
100706.457618
100706.518102
100706.578331
100706.638276
100706.697905
100706.757188
100706.816093
100706.874589
100706.932644
100706.990227
100707.047306
100707.103849
100707.159824
100707.215202
100707.269951
100707.324041
100707.377444
100707.430129
100707.48207
100707.533238
100707.583609
100707.633155
100707.681853
100707.729679
100707.776612
100707.822629
100707.867711
100707.911838
100707.954993
100707.997157
100708.038317
100708.078455
100708.117561
100708.155619
100708.192619
100708.22855
100708.263402
100708.297165
100708.329834
100708.361398
100708.391854
100708.421193
100708.449414
100708.476508
100708.502476
100708.527311
100708.551013
100708.573579
100708.595007
100708.615297
100708.634447
100708.652457
100708.669328
100708.685058
100708.69965
100708.713104
100708.72542
100708.7366
100708.746646
100708.755559
100708.763342
100708.769996
100708.775526
100708.779938
100708.783247
100708.785495
100708.786781
100708.787296
100708.787414
100694.829889
100694.832966
100694.838346
100694.846528
100694.857526
100694.871266
100694.887748
100694.90688
100694.928649
100694.952941
100694.979733
100695.008896
100695.040394
100695.074087
100695.109931
100695.147776
100695.187573
100695.229168
100695.272508
100695.317439
100695.363908
100695.411763
100695.460954
100695.511333
100695.562857
100695.615385
100695.668878
100695.723205
100695.778336
100695.834149
100695.890623
100695.947645
100696.005204
100696.063198
100696.121623
100696.180389
100696.239499
100696.298875
100696.358525
100696.418381
100696.478458
100696.538695
100696.599113
100696.659658
100696.720353
100696.781154
100696.842082
100696.903101
100696.964232
100697.025441
100697.086751
100697.148131
100697.209601
100697.271132
100697.332742
100697.394405
100697.456131
100697.517898
100697.579712
100697.64155
100697.703412
100697.765276
100697.827139
100697.888976
100697.950778
100698.01252
100698.07419
100698.135754
100698.197192
100698.258477
100698.319591
100698.380503
100698.44119
100698.50162
100698.561765
100698.621592
100698.681072
100698.740171
100698.79886
100698.857103
100698.914871
100698.972131
100699.02885
100699.084997
100699.14054
100699.195448
100699.249692
100699.303241
100699.356066
100699.408139
100699.459432
100699.50992
100699.559576
100699.608378
100699.656299
100699.703319
100699.749416
100699.794571
100699.838763
100699.881977
100699.924193
100699.965398
100700.005576
100700.044715
100700.0828
100700.119823
100700.15577
100700.190634
100700.224405
100700.257077
100700.288641
100700.319093
100700.348425
100700.376636
100700.403718
100700.429671
100700.454489
100700.478173
100700.500719
100700.522127
100700.542394
100700.561522
100700.579509
100700.596357
100700.612064
100700.626632
100700.640062
100700.652356
100700.663513
100700.673537
100700.682428
100700.690189
100700.696822
100700.702331
100700.70672
100700.710006
100700.712231
100700.713501
100700.714023
100700.714171
100686.708163
100686.711356
100686.71696
100686.725479
100686.736922
100686.751215
100686.768353
100686.788237
100686.810851
100686.836074
100686.863874
100686.894115
100686.926753
100686.961639
100686.998719
100687.037835
100687.07893
100687.12184
100687.166505
100687.212762
100687.260551
100687.309713
100687.360191
100687.411832
100687.464587
100687.518309
100687.572958
100687.628397
100687.684594
100687.741424
100687.798865
100687.856803
100687.915226
100687.974033
100688.03322
100688.092698
100688.152471
100688.212463
100688.272684
100688.333069
100688.393634
100688.454322
100688.515155
100688.576085
100688.637135
100688.698265
100688.7595
100688.820804
100688.882203
100688.943666
100689.005218
100689.066829
100689.128523
100689.190273
100689.252097
100689.313973
100689.375912
100689.437892
100689.499922
100689.561978
100689.624063
100689.686153
100689.748247
100689.810319
100689.872363
100689.93435
100689.996268
100690.058084
100690.119776
100690.181317
100690.242688
100690.303857
100690.3648
100690.425483
100690.485881
100690.545959
100690.605687
100690.665031
100690.723961
100690.782442
100690.840443
100690.897929
100690.954868
100691.011229
100691.066979
100691.122086
100691.176521
100691.230252
100691.283251
100691.335488
100691.386937
100691.437571
100691.487364
100691.536292
100691.58433
100691.631459
100691.677654
100691.722899
100691.767172
100691.810457
100691.852737
100691.893998
100691.934223
100691.973402
100692.01152
100692.048568
100692.084535
100692.119413
100692.153192
100692.185868
100692.21743
100692.247876
100692.277198
100692.305395
100692.332461
100692.358394
100692.383191
100692.406851
100692.429371
100692.450752
100692.470991
100692.49009
100692.508047
100692.524865
100692.540542
100692.55508
100692.56848
100692.580744
100692.591872
100692.601867
100692.61073
100692.618463
100692.625068
100692.630548
100692.634909
100692.638166
100692.640361
100692.641612
100692.642144
100692.642321
100678.575889
100678.579224
100678.585112
100678.594054
100678.606059
100678.621044
100678.639001
100678.659827
100678.683495
100678.709876
100678.738932
100678.770514
100678.804569
100678.840938
100678.879555
100678.920253
100678.962961
100679.007508
100679.053821
100679.101728
100679.15116
100679.201949
100679.25403
100679.307243
100679.36153
100679.416741
100679.472829
100679.529653
100679.587179
100679.645276
100679.703923
100679.763003
100679.822505
100679.882325
100679.942463
100680.002829
100680.06343
100680.12419
100680.185125
100680.246169
100680.307343
100680.368594
100680.429947
100680.491356
100680.552849
100680.614389
100680.676005
100680.737665
100680.799398
100680.861176
100680.923025
100680.984923
100681.046892
100681.108911
100681.170999
100681.233134
100681.295332
100681.357572
100681.419862
100681.482182
100681.544536
100681.606899
100681.669271
100681.731627
100681.793959
100681.85624
100681.918458
100681.980577
100682.042574
100682.104424
100682.166104
100682.227583
100682.288836
100682.349829
100682.410535
100682.470918
100682.530949
100682.590592
100682.649815
100682.708585
100682.766868
100682.824629
100682.881837
100682.938457
100682.994457
100683.049806
100683.104471
100683.158424
100683.211632
100683.264069
100683.315705
100683.366515
100683.416472
100683.465553
100683.513733
100683.560991
100683.607306
100683.652658
100683.697027
100683.740399
100683.782755
100683.824082
100683.864363
100683.90359
100683.941747
100683.978826
100684.014816
100684.04971
100684.083499
100684.116177
100684.147736
100684.178175
100684.207485
100684.235665
100684.26271
100684.28862
100684.31339
100684.337021
100684.359509
100684.380857
100684.401062
100684.420127
100684.438048
100684.454829
100684.47047
100684.484972
100684.498336
100684.510564
100684.521657
100684.531617
100684.540446
100684.548145
100684.554716
100684.560163
100684.56449
100684.567712
100684.569874
100684.571104
100684.571647
100684.571852
100670.432668
100670.436178
100670.442416
100670.451879
100670.464569
100670.4804
100670.49936
100670.521332
100670.546285
100670.574079
100670.604662
100670.637875
100670.673654
100670.711823
100670.752307
100670.794923
100670.83959
100670.88612
100670.93443
100670.984336
100671.035758
100671.088514
100671.142534
100671.197644
100671.253782
100671.310788
100671.368611
100671.427102
100671.486224
100671.545845
100671.605938
100671.666386
100671.727177
100671.788208
100671.849479
100671.910903
100671.972488
100672.03416
100672.095939
100672.157763
100672.219657
100672.28157
100672.343533
100672.405504
100672.467516
100672.529535
100672.591596
100672.653669
100672.715789
100672.777932
100672.840128
100672.902358
100672.964646
100673.026976
100673.089369
100673.151806
100673.214305
100673.276846
100673.339441
100673.40207
100673.464736
100673.527419
100673.590116
100673.652805
100673.715477
100673.778106
100673.840674
100673.903147
100673.965506
100674.027719
100674.089766
100674.151612
100674.213232
100674.274592
100674.335663
100674.396408
100674.456798
100674.516796
100674.576369
100674.635481
100674.694099
100674.752187
100674.809712
100674.86664
100674.922937
100674.978571
100675.03351
100675.087723
100675.141179
100675.193851
100675.245708
100675.296726
100675.346877
100675.396138
100675.444485
100675.491896
100675.53835
100675.583828
100675.628311
100675.671784
100675.714228
100675.755632
100675.79598
100675.835262
100675.873464
100675.910579
100675.946596
100675.981508
100676.015307
100676.047988
100676.079544
100676.109973
100676.139268
100676.167428
100676.194449
100676.220331
100676.245069
100676.268666
100676.291118
100676.312428
100676.332593
100676.351616
100676.369495
100676.386234
100676.401832
100676.416292
100676.429614
100676.441801
100676.452853
100676.462772
100676.471561
100676.479221
100676.485754
100676.491161
100676.495449
100676.498632
100676.500758
100676.501967
100676.502523
100676.502754
100662.278031
100662.281751
100662.28841
100662.298497
100662.312015
100662.328865
100662.349027
100662.372378
100662.398873
100662.428358
100662.460771
100662.495937
100662.533775
100662.574097
100662.61681
100662.661716
100662.708716
100662.757608
100662.808296
100662.860577
100662.91436
100662.969451
100663.025765
100663.08312
100663.141444
100663.200566
100663.26043
100663.32088
100663.381875
100663.443277
100663.505058
100663.567101
100663.629391
100663.691826
100663.754408
100663.81705
100663.879766
100663.942485
100664.005229
100664.067941
100664.130651
100664.193314
100664.255965
100664.318568
100664.381161
100664.443716
100664.506272
100664.568806
100664.631356
100664.693905
100664.756485
100664.819082
100664.881727
100664.944403
100665.007137
100665.069912
100665.132749
100665.19563
100665.25857
100665.321548
100665.384571
100665.447618
100665.510689
100665.573759
100665.636822
100665.699851
100665.762825
100665.82571
100665.888486
100665.951121
100666.013592
100666.075864
100666.137912
100666.199699
100666.261196
100666.322365
100666.383173
100666.443585
100666.503565
100666.563076
100666.622085
100666.680554
100666.73845
100666.795735
100666.852378
100666.908344
100666.963601
100667.018118
100667.071862
100667.124806
100667.176921
100667.228179
100667.278555
100667.328024
100667.376563
100667.424151
100667.470766
100667.51639
100667.561004
100667.604593
100667.64714
100667.688633
100667.729056
100667.768401
100667.806655
100667.843811
100667.879858
100667.914791
100667.948601
100667.981285
100668.012837
100668.043254
100668.072531
100668.100668
100668.127661
100668.15351
100668.178212
100668.201769
100668.224179
100668.245445
100668.265564
100668.284539
100668.302371
100668.319062
100668.334611
100668.349023
100668.362297
100668.374436
100668.385442
100668.395316
100668.40406
100668.411675
100668.418164
100668.423529
100668.427774
100668.430915
100668.433001
100668.434189
100668.43476
100668.435015
100654.111408
100654.115378
100654.122539
100654.133372
100654.147871
100654.165932
100654.187526
100654.212512
100654.240835
100654.272327
100654.306907
100654.344384
100654.384659
100654.427524
100654.472868
100654.520472
100654.57022
100654.621892
100654.67537
100654.730438
100654.786987
100654.844806
100654.903799
100654.963769
100655.024633
100655.086211
100655.148436
100655.211148
100655.274299
100655.337747
100655.401463
100655.465324
100655.52932
100655.593347
100655.65741
100655.721424
100655.785408
100655.849294
100655.913111
100655.976806
100656.040416
100656.103902
100656.167304
100656.230594
100656.293816
100656.356949
100656.420038
100656.483066
100656.546077
100656.609059
100656.672051
100656.735042
100656.798068
100656.861118
100656.92422
100656.987364
100657.05057
100657.113825
100657.177145
100657.240511
100657.303932
100657.367388
100657.430878
100657.49438
100657.557885
100657.621368
100657.684806
100657.74816
100657.811413
100657.874529
100657.937487
100658.000249
100658.062788
100658.125066
100658.187053
100658.248708
100658.31
100658.370888
100658.431337
100658.491309
100658.550768
100658.609676
100658.667997
100658.725695
100658.782736
100658.839084
100658.894706
100658.949571
100659.003646
100659.056903
100659.109311
100659.160845
100659.211478
100659.261186
100659.309945
100659.357735
100659.404533
100659.450324
100659.495086
100659.538807
100659.58147
100659.623063
100659.663572
100659.702989
100659.741301
100659.778503
100659.814583
100659.849539
100659.883362
100659.916049
100659.947595
100659.977999
100660.007256
100660.035366
100660.062326
100660.088138
100660.112799
100660.136311
100660.158674
100660.179889
100660.199956
100660.218879
100660.236656
100660.253293
100660.268788
100660.283146
100660.296366
100660.308453
100660.319406
100660.32923
100660.337924
100660.345491
100660.351932
100660.35725
100660.361449
100660.364543
100660.366589
100660.367756
100660.368343
100660.368619
100645.932127
100645.936392
100645.944146
100645.955859
100645.971519
100645.991009
100646.014288
100646.041203
100646.07168
100646.105531
100646.14266
100646.18285
100646.225984
100646.271829
100646.320252
100646.371011
100646.423969
100646.478879
100646.535607
100646.593912
100646.653668
100646.714646
100646.776732
100646.839714
100646.903498
100646.967889
100647.032815
100647.098104
100647.163704
100647.229468
100647.295364
100647.36127
100647.427173
100647.492974
100647.558678
100647.624207
100647.689583
100647.754744
100647.819726
100647.884483
100647.949059
100648.013421
100648.07762
100648.141635
100648.205517
100648.269252
100648.332894
100648.396434
100648.459921
100648.52335
100648.586767
100648.650167
100648.71359
100648.77703
100648.840521
100648.904054
100648.967654
100649.031311
100649.095043
100649.158833
100649.222691
100649.286597
100649.350553
100649.414535
100649.478536
100649.542529
100649.606488
100649.670372
100649.734163
100649.797827
100649.861336
100649.924655
100649.987753
100650.050591
100650.113137
100650.175348
100650.23719
100650.298622
100650.359608
100650.420105
100650.480078
100650.539487
100650.598295
100650.656463
100650.713957
100650.77074
100650.826778
100650.882039
100650.936491
100650.990103
100651.042845
100651.094693
100651.145617
100651.195595
100651.244603
100651.29262
100651.339626
100651.385604
100651.430534
100651.474404
100651.517197
100651.558903
100651.599508
100651.639005
100651.677382
100651.714634
100651.750752
100651.785733
100651.819569
100651.85226
100651.883799
100651.914188
100651.943421
100651.971501
100651.998425
100652.024195
100652.048809
100652.072271
100652.09458
100652.115739
100652.135748
100652.154612
100652.17233
100652.188906
100652.204341
100652.218639
100652.2318
100652.243829
100652.254726
100652.264494
100652.273134
100652.280649
100652.287039
100652.292306
100652.296455
100652.299501
100652.301504
100652.302652
100652.303255
100652.303552
100637.739396
100637.744008
100637.75246
100637.765207
100637.782229
100637.803396
100637.828654
100637.857827
100637.890827
100637.927441
100637.967549
100638.01091
100638.05738
100638.106698
100638.158706
100638.213133
100638.269814
100638.328478
100638.388963
100638.451005
100638.514454
100638.57906
100638.644691
100638.711116
100638.778225
100638.845813
100638.913795
100638.981991
100639.050342
100639.118697
100639.187022
100639.255193
100639.3232
100639.390946
100639.458442
100639.525613
100639.592489
100639.659014
100639.725234
100639.79111
100639.856696
100639.92197
100639.98699
100640.051745
100640.116296
100640.180639
100640.244835
100640.308884
100640.372845
100640.436719
100640.50056
100640.564368
100640.62819
100640.692027
100640.755914
100640.81985
100640.883862
100640.947943
100641.012113
100641.076358
100641.140689
100641.205087
100641.269555
100641.334067
100641.398618
100641.463179
100641.52772
100641.592198
100641.656595
100641.720873
100641.785006
100641.848954
100641.912685
100641.976157
100642.039336
100642.102177
100642.164644
100642.226694
100642.288288
100642.349382
100642.409938
100642.469914
100642.529273
100642.587974
100642.645981
100642.703257
100642.759766
100642.815475
100642.870352
100642.924365
100642.977484
100643.029684
100643.080936
100643.131218
100643.180505
100643.228779
100643.276017
100643.322204
100643.367322
100643.411358
100643.454296
100643.496128
100643.53684
100643.576425
100643.614874
100643.652183
100643.688342
100643.72335
100643.757201
100643.789894
100643.821426
100643.851797
100643.881004
100643.90905
100643.935933
100643.961656
100643.986219
100644.009625
100644.031875
100644.052972
100644.072918
100644.091716
100644.109368
100644.125878
100644.141248
100644.15548
100644.168578
100644.180544
100644.191379
100644.201087
100644.20967
100644.217128
100644.223463
100644.228678
100644.232774
100644.235769
100644.23773
100644.238859
100644.239481
100644.239795
100629.532289
100629.537307
100629.546574
100629.560531
100629.579149
100629.602278
100629.629847
100629.661661
100629.697606
100629.737442
100629.781023
100629.828075
100629.878425
100629.931777
100629.987943
100630.046616
100630.107603
100630.170596
100630.235408
100630.301742
100630.369423
100630.438176
100630.507845
100630.57818
100630.649055
100630.720248
100630.791662
100630.863108
100630.934522
100631.005746
100631.076748
100631.147401
100631.2177
100631.287551
100631.356971
100631.425892
100631.494354
100631.562311
100631.629816
100631.696845
100631.763461
100631.829653
100631.895492
100631.960977
100632.026182
100632.091112
100632.155841
100632.220377
100632.284788
100632.349085
100632.41333
100632.47753
100632.54174
100632.605965
100632.670247
100632.734589
100632.799022
100632.863543
100632.928173
100632.992901
100633.057739
100633.122669
100633.187694
100633.252788
100633.317945
100633.383134
100633.448324
100633.513464
100633.578538
100633.643506
100633.708339
100633.772994
100633.837438
100633.901625
100633.965518
100634.029071
100634.092245
100634.154992
100634.217273
100634.279041
100634.340256
100634.400873
100634.460854
100634.520156
100634.578742
100634.636572
100634.693612
100634.749825
100634.805178
100634.859642
100634.913184
100634.965779
100635.017398
100635.06802
100635.117619
100635.166178
100635.213676
100635.260096
100635.305422
100635.349642
100635.392742
100635.434713
100635.475543
100635.515227
100635.553755
100635.591124
100635.627329
100635.662367
100635.696233
100635.728929
100635.760451
100635.790802
100635.81998
100635.847989
100635.874826
100635.900498
100635.925004
100635.948349
100635.970534
100635.991563
100636.011439
100636.030167
100636.047747
100636.064186
100636.079483
100636.093646
100636.106674
100636.118573
100636.129342
100636.138987
100636.147508
100636.154907
100636.161185
100636.166344
100636.170386
100636.173329
100636.175247
100636.176359
100636.176999
100636.17733
100621.309718
100621.315209
100621.325432
100621.340805
100621.361283
100621.386703
100621.416971
100621.451863
100621.491239
100621.534828
100621.582448
100621.633789
100621.688641
100621.74667
100621.807647
100621.871227
100621.937177
100622.005154
100622.074932
100622.146181
100622.218696
100622.292168
100622.36642
100622.441176
100622.51629
100622.591524
100622.666768
100622.741824
100622.816621
100622.890997
100622.964918
100623.038262
100623.111026
100623.183123
100623.254579
100623.325336
100623.395444
100623.464869
100623.533679
100623.601861
100623.669494
100623.736581
100623.803205
100623.869381
100623.935194
100624.000664
100624.065875
100624.130848
100624.195663
100624.26034
100624.324948
100624.389507
100624.454076
100624.518667
100624.58333
100624.648071
100624.712926
100624.777895
100624.843001
100624.908237
100624.973614
100625.039116
100625.104745
100625.170475
100625.236298
100625.30218
100625.368087
100625.433964
100625.499793
100625.565533
100625.63115
100625.6966
100625.761844
100625.826836
100625.891534
100625.955888
100626.019857
100626.08339
100626.146445
100626.208972
100626.270928
100626.332268
100626.392948
100626.452926
100626.512162
100626.570615
100626.628249
100626.685027
100626.740915
100626.795882
100626.849897
100626.902932
100626.954961
100627.005961
100627.055908
100627.104784
100627.152569
100627.199248
100627.244805
100627.289229
100627.332506
100627.37463
100627.41559
100627.455381
100627.493996
100627.531433
100627.567686
100627.602756
100627.636639
100627.669338
100627.700849
100627.731179
100627.760324
100627.788291
100627.815079
100627.840694
100627.865138
100627.888416
100627.91053
100627.931486
100627.951286
100627.969937
100627.98744
100628.003802
100628.019023
100628.03311
100628.046065
100628.057891
100628.068592
100628.07817
100628.086626
100628.093963
100628.100182
100628.105283
100628.10927
100628.112159
100628.114034
100628.115131
100628.115791
100628.116138
100613.070424
100613.076469
100613.087806
100613.104829
100613.127481
100613.155571
100613.188983
100613.227462
100613.270834
100613.318786
100613.3711
100613.42742
100613.487492
100613.550935
100613.617474
100613.686716
100613.758383
100613.832085
100613.907556
100613.984423
100614.062443
100614.141275
100614.22071
100614.300445
100614.380314
100614.460057
100614.539554
100614.618594
100614.6971
100614.774908
100614.851986
100614.928214
100615.003598
100615.078059
100615.151634
100615.224279
100615.296059
100615.366954
100615.43705
100615.506349
100615.574948
100615.642866
100615.710205
100615.776994
100615.843335
100615.909263
100615.974876
100616.040209
100616.105352
100616.170339
100616.23525
100616.300112
100616.364993
100616.429914
100616.49493
100616.560051
100616.62532
100616.690738
100616.756333
100616.822097
100616.888045
100616.954159
100617.020441
100617.086864
100617.153419
100617.220063
100617.28676
100617.353457
100617.420129
100617.486731
100617.553226
100617.619566
100617.68571
100617.751605
100617.817207
100617.882463
100617.947326
100618.011744
100618.075669
100618.139049
100618.201839
100618.263989
100618.325455
100618.386191
100618.446155
100618.505306
100618.563605
100618.621014
100618.677499
100618.733027
100618.787569
100618.841095
100618.893579
100618.944998
100618.995331
100619.044558
100619.09266
100619.139625
100619.185436
100619.230085
100619.273558
100619.31585
100619.356952
100619.396861
100619.435571
100619.473081
100619.509387
100619.544492
100619.578392
100619.611093
100619.642593
100619.672897
100619.702007
100619.729928
100619.756662
100619.782216
100619.806592
100619.829798
100619.851836
100619.872713
100619.892432
100619.911
100619.92842
100619.944699
100619.959839
100619.973846
100619.986723
100619.998474
100620.009102
100620.01861
100620.026999
100620.034272
100620.04043
100620.045472