/*--------------------------------*- C++ -*----------------------------------*\
| =========                 |                                                 |
| \\      /  F ield         | OpenFOAM: The Open Source CFD Toolbox           |
|  \\    /   O peration     | Version:  2206                                  |
|   \\  /    A nd           | Website:  www.openfoam.com                      |
|    \\/     M anipulation  |                                                 |
\*---------------------------------------------------------------------------*/
FoamFile
{
    version     2.0;
    format      ascii;
    arch        "LSB;label=64;scalar=64";
    class       volScalarField;
    location    "0.6/water";
    object      T.gas;
}
// * * * * * * * * * * * * * * * * * * * * * * * * * * * * * * * * * * * * * //

dimensions      [0 0 0 1 0 0 0];

internalField   nonuniform List<scalar> 
23300
(
332.999999724
332.999999724
332.99999972
332.999999716
332.999999712
332.999999708
332.999999705
332.999999701
332.999999699
332.999999696
332.999999694
332.999999692
332.99999969
332.999999689
332.999999689
332.999999688
332.999999689
332.999999689
332.999999691
332.999999692
332.999999694
332.999999697
332.9999997
332.999999704
332.999999708
332.999999713
332.999999718
332.999999723
332.999999729
332.999999735
332.999999741
332.999999748
332.999999756
332.999999763
332.999999771
332.999999779
332.999999787
332.999999796
332.999999805
332.999999813
332.999999823
332.999999832
332.999999841
332.999999851
332.99999986
332.99999987
332.999999879
332.999999889
332.999999899
332.999999908
332.999999918
332.999999928
332.999999937
332.999999947
332.999999957
332.999999966
332.999999975
332.999999985
332.999999994
333.000000003
333.000000012
333.00000002
333.000000029
333.000000037
333.000000046
333.000000054
333.000000062
333.000000071
333.000000079
333.000000087
333.000000095
333.000000103
333.000000111
333.000000119
333.000000127
333.000000135
333.000000143
333.00000015
333.000000158
333.000000164
333.000000171
333.000000176
333.000000181
333.000000186
333.000000189
333.00000019
333.000000188
333.000000187
333.000000193
333.000000203
333.000000223
333.000000233
333.00000024
333.000000246
333.000000251
333.000000257
333.000000261
333.000000266
333.00000027
333.000000275
333.000000279
333.000000283
333.000000286
333.00000029
333.000000293
333.000000296
333.000000299
333.000000302
333.000000305
333.000000307
333.00000031
333.000000312
333.000000314
333.000000315
333.000000317
333.000000318
333.00000032
333.000000321
333.000000322
333.000000322
333.000000323
333.000000324
333.000000324
333.000000324
333.000000325
333.000000325
333.000000325
333.000000324
333.000000324
333.000000323
333.000000323
333.000000322
333.00000032
333.000000318
333.000000314
333.000000306
333.00000029
333.000000258
333.000000202
333.000000128
332.999999261
332.999999264
332.999999265
332.999999266
332.999999267
332.999999269
332.999999271
332.999999273
332.999999276
332.999999279
332.999999283
332.999999287
332.999999292
332.999999297
332.999999302
332.999999309
332.999999315
332.999999323
332.999999331
332.999999339
332.999999349
332.999999358
332.999999369
332.99999938
332.999999392
332.999999404
332.999999416
332.99999943
332.999999444
332.999999458
332.999999473
332.999999488
332.999999503
332.99999952
332.999999536
332.999999553
332.99999957
332.999999587
332.999999605
332.999999623
332.999999641
332.99999966
332.999999678
332.999999697
332.999999716
332.999999735
332.999999755
332.999999774
332.999999793
332.999999813
332.999999832
332.999999852
332.999999871
332.999999891
332.99999991
332.99999993
332.999999949
332.999999968
332.999999987
333.000000006
333.000000025
333.000000044
333.000000063
333.000000082
333.000000101
333.00000012
333.000000138
333.000000157
333.000000176
333.000000195
333.000000214
333.000000233
333.000000253
333.000000272
333.000000291
333.000000309
333.000000328
333.000000346
333.000000364
333.000000382
333.0000004
333.000000417
333.000000434
333.000000451
333.000000467
333.000000483
333.000000499
333.000000515
333.000000531
333.000000547
333.000000562
333.000000577
333.000000592
333.000000606
333.000000619
333.000000632
333.000000645
333.000000658
333.00000067
333.000000682
333.000000693
333.000000704
333.000000715
333.000000725
333.000000735
333.000000745
333.000000755
333.000000764
333.000000772
333.000000781
333.000000789
333.000000797
333.000000804
333.000000811
333.000000818
333.000000824
333.000000831
333.000000837
333.000000842
333.000000848
333.000000853
333.000000858
333.000000862
333.000000867
333.000000871
333.000000875
333.000000878
333.000000881
333.000000884
333.000000887
333.000000889
333.000000891
333.000000891
333.000000889
333.000000883
333.000000865
333.000000825
333.000000737
333.000000564
333.000000324
332.999998652
332.999998654
332.999998656
332.999998658
332.999998661
332.999998665
332.99999867
332.999998675
332.999998681
332.999998688
332.999998696
332.999998704
332.999998714
332.999998725
332.999998736
332.999998749
332.999998763
332.999998778
332.999998794
332.999998812
332.99999883
332.999998849
332.99999887
332.999998891
332.999998913
332.999998937
332.999998961
332.999998986
332.999999012
332.999999039
332.999999066
332.999999095
332.999999124
332.999999153
332.999999184
332.999999215
332.999999246
332.999999278
332.999999311
332.999999344
332.999999377
332.999999411
332.999999446
332.999999481
332.999999516
332.999999551
332.999999587
332.999999623
332.999999659
332.999999695
332.999999732
332.999999768
332.999999805
332.999999842
332.999999879
332.999999916
332.999999953
332.99999999
333.000000026
333.000000063
333.0000001
333.000000137
333.000000174
333.00000021
333.000000247
333.000000283
333.00000032
333.000000356
333.000000392
333.000000429
333.000000465
333.0000005
333.000000536
333.000000571
333.000000605
333.00000064
333.000000673
333.000000707
333.00000074
333.000000772
333.000000804
333.000000835
333.000000866
333.000000896
333.000000926
333.000000955
333.000000983
333.000001011
333.000001038
333.000001064
333.00000109
333.000001115
333.000001139
333.000001163
333.000001186
333.000001208
333.00000123
333.000001251
333.000001271
333.000001291
333.00000131
333.000001328
333.000001346
333.000001363
333.000001379
333.000001395
333.00000141
333.000001425
333.000001439
333.000001452
333.000001465
333.000001477
333.000001488
333.000001499
333.00000151
333.00000152
333.000001529
333.000001538
333.000001546
333.000001554
333.000001562
333.000001569
333.000001575
333.000001581
333.000001587
333.000001592
333.000001597
333.000001601
333.000001605
333.000001608
333.00000161
333.000001612
333.000001612
333.000001608
333.000001596
333.000001565
333.000001494
333.000001336
333.00000102
333.000000585
332.999998014
332.999998015
332.999998016
332.999998018
332.999998022
332.999998027
332.999998033
332.99999804
332.999998048
332.999998058
332.999998069
332.999998081
332.999998096
332.999998111
332.999998129
332.999998148
332.999998169
332.999998192
332.999998217
332.999998243
332.999998271
332.9999983
332.999998331
332.999998364
332.999998398
332.999998434
332.999998471
332.999998509
332.999998548
332.999998589
332.999998631
332.999998674
332.999998718
332.999998763
332.999998809
332.999998856
332.999998904
332.999998953
332.999999002
332.999999053
332.999999103
332.999999155
332.999999207
332.999999259
332.999999312
332.999999366
332.99999942
332.999999474
332.999999529
332.999999584
332.999999639
332.999999694
332.999999749
332.999999805
332.99999986
332.999999916
332.999999972
333.000000027
333.000000083
333.000000138
333.000000193
333.000000248
333.000000303
333.000000358
333.000000412
333.000000467
333.000000521
333.000000574
333.000000628
333.000000681
333.000000733
333.000000785
333.000000836
333.000000886
333.000000936
333.000000985
333.000001034
333.000001081
333.000001128
333.000001174
333.00000122
333.000001264
333.000001308
333.00000135
333.000001392
333.000001433
333.000001472
333.000001511
333.000001549
333.000001586
333.000001622
333.000001657
333.000001691
333.000001724
333.000001756
333.000001787
333.000001817
333.000001846
333.000001874
333.000001901
333.000001927
333.000001953
333.000001977
333.000002
333.000002023
333.000002044
333.000002065
333.000002085
333.000002104
333.000002122
333.000002139
333.000002156
333.000002172
333.000002186
333.000002201
333.000002214
333.000002227
333.000002239
333.00000225
333.000002261
333.000002271
333.00000228
333.000002289
333.000002297
333.000002304
333.000002311
333.000002317
333.000002323
333.000002328
333.000002332
333.000002335
333.000002337
333.000002337
333.000002331
333.000002314
333.000002269
333.000002166
333.000001935
333.000001478
333.000000865
332.999997368
332.999997367
332.999997368
332.999997371
332.999997375
332.999997381
332.999997389
332.999997398
332.999997408
332.999997421
332.999997435
332.999997452
332.999997471
332.999997492
332.999997515
332.999997541
332.99999757
332.999997601
332.999997634
332.99999767
332.999997707
332.999997748
332.99999779
332.999997834
332.999997881
332.999997929
332.999997979
332.999998031
332.999998085
332.99999814
332.999998197
332.999998255
332.999998315
332.999998376
332.999998438
332.999998502
332.999998566
332.999998632
332.999998698
332.999998766
332.999998834
332.999998903
332.999998973
332.999999044
332.999999115
332.999999186
332.999999259
332.999999331
332.999999404
332.999999477
332.999999551
332.999999625
332.999999699
332.999999772
332.999999846
332.99999992
332.999999994
333.000000068
333.000000142
333.000000215
333.000000288
333.000000361
333.000000434
333.000000506
333.000000578
333.000000649
333.00000072
333.000000791
333.000000861
333.00000093
333.000000999
333.000001066
333.000001133
333.000001199
333.000001264
333.000001328
333.000001391
333.000001453
333.000001514
333.000001574
333.000001632
333.00000169
333.000001746
333.000001802
333.000001855
333.000001908
333.000001959
333.00000201
333.000002058
333.000002106
333.000002152
333.000002197
333.000002241
333.000002283
333.000002324
333.000002364
333.000002403
333.00000244
333.000002476
333.00000251
333.000002544
333.000002576
333.000002607
333.000002637
333.000002666
333.000002693
333.000002719
333.000002745
333.000002769
333.000002792
333.000002814
333.000002835
333.000002855
333.000002874
333.000002892
333.000002909
333.000002925
333.00000294
333.000002954
333.000002968
333.00000298
333.000002992
333.000003003
333.000003013
333.000003023
333.000003031
333.000003039
333.000003046
333.000003052
333.000003058
333.000003062
333.000003065
333.000003064
333.000003056
333.000003033
333.000002975
333.000002838
333.000002533
333.000001932
333.000001155
332.999996718
332.999996716
332.999996717
332.99999672
332.999996726
332.999996733
332.999996742
332.999996752
332.999996765
332.999996781
332.999996799
332.999996819
332.999996843
332.999996869
332.999996899
332.999996932
332.999996968
332.999997007
332.999997049
332.999997094
332.999997142
332.999997193
332.999997247
332.999997303
332.999997362
332.999997423
332.999997487
332.999997553
332.999997621
332.999997691
332.999997763
332.999997837
332.999997912
332.999997989
332.999998068
332.999998148
332.999998229
332.999998312
332.999998396
332.999998481
332.999998567
332.999998654
332.999998742
332.999998831
332.99999892
332.99999901
332.9999991
332.999999191
332.999999283
332.999999375
332.999999467
332.999999559
332.999999652
332.999999744
332.999999836
332.999999929
333.000000021
333.000000113
333.000000205
333.000000297
333.000000388
333.000000479
333.000000569
333.000000659
333.000000748
333.000000837
333.000000925
333.000001013
333.000001099
333.000001185
333.00000127
333.000001354
333.000001436
333.000001518
333.000001598
333.000001677
333.000001755
333.000001831
333.000001906
333.00000198
333.000002052
333.000002123
333.000002192
333.000002259
333.000002326
333.00000239
333.000002453
333.000002515
333.000002574
333.000002632
333.000002689
333.000002744
333.000002797
333.000002849
333.000002899
333.000002947
333.000002994
333.00000304
333.000003083
333.000003126
333.000003166
333.000003205
333.000003243
333.000003279
333.000003314
333.000003347
333.000003379
333.00000341
333.000003439
333.000003467
333.000003493
333.000003519
333.000003543
333.000003566
333.000003587
333.000003608
333.000003627
333.000003646
333.000003663
333.000003679
333.000003694
333.000003708
333.000003722
333.000003734
333.000003745
333.000003755
333.000003765
333.000003773
333.000003781
333.000003787
333.000003792
333.000003795
333.000003794
333.000003785
333.000003756
333.000003683
333.000003511
333.000003128
333.000002382
333.000001453
332.999996066
332.999996064
332.999996064
332.999996068
332.999996074
332.999996082
332.999996092
332.999996105
332.99999612
332.999996138
332.999996159
332.999996184
332.999996212
332.999996244
332.999996279
332.999996319
332.999996362
332.99999641
332.999996461
332.999996516
332.999996574
332.999996636
332.999996701
332.99999677
332.999996841
332.999996916
332.999996993
332.999997073
332.999997156
332.999997241
332.999997328
332.999997417
332.999997509
332.999997602
332.999997698
332.999997795
332.999997893
332.999997993
332.999998095
332.999998197
332.999998301
332.999998406
332.999998512
332.999998619
332.999998727
332.999998836
332.999998945
332.999999055
332.999999165
332.999999275
332.999999386
332.999999497
332.999999609
332.99999972
332.999999831
332.999999942
333.000000053
333.000000164
333.000000274
333.000000384
333.000000493
333.000000602
333.00000071
333.000000818
333.000000925
333.000001031
333.000001137
333.000001242
333.000001345
333.000001448
333.000001549
333.000001649
333.000001747
333.000001844
333.00000194
333.000002034
333.000002126
333.000002217
333.000002307
333.000002394
333.00000248
333.000002564
333.000002646
333.000002726
333.000002804
333.000002881
333.000002956
333.000003028
333.000003099
333.000003168
333.000003234
333.000003299
333.000003362
333.000003423
333.000003482
333.000003539
333.000003594
333.000003647
333.000003699
333.000003748
333.000003796
333.000003842
333.000003886
333.000003929
333.000003969
333.000004008
333.000004046
333.000004081
333.000004115
333.000004148
333.000004179
333.000004209
333.000004237
333.000004263
333.000004289
333.000004313
333.000004335
333.000004357
333.000004377
333.000004395
333.000004413
333.000004429
333.000004445
333.000004459
333.000004472
333.000004484
333.000004495
333.000004504
333.000004513
333.000004521
333.000004527
333.00000453
333.000004529
333.000004517
333.000004482
333.000004393
333.000004186
333.000003721
333.000002828
333.000001759
332.999995413
332.99999541
332.999995411
332.999995415
332.999995421
332.99999543
332.999995441
332.999995455
332.999995472
332.999995492
332.999995516
332.999995545
332.999995577
332.999995614
332.999995656
332.999995702
332.999995753
332.999995809
332.999995869
332.999995933
332.999996002
332.999996075
332.999996152
332.999996233
332.999996317
332.999996405
332.999996496
332.999996591
332.999996688
332.999996788
332.999996891
332.999996997
332.999997105
332.999997215
332.999997327
332.999997441
332.999997557
332.999997675
332.999997794
332.999997915
332.999998037
332.99999816
332.999998285
332.99999841
332.999998537
332.999998664
332.999998792
332.999998921
332.99999905
332.99999918
332.99999931
332.99999944
332.99999957
332.999999701
332.999999831
332.999999961
333.000000091
333.00000022
333.000000349
333.000000478
333.000000605
333.000000733
333.000000859
333.000000985
333.00000111
333.000001234
333.000001357
333.000001479
333.0000016
333.000001719
333.000001837
333.000001953
333.000002068
333.00000218
333.000002292
333.000002401
333.000002508
333.000002614
333.000002717
333.000002819
333.000002918
333.000003015
333.00000311
333.000003203
333.000003294
333.000003382
333.000003468
333.000003552
333.000003634
333.000003713
333.00000379
333.000003864
333.000003937
333.000004007
333.000004075
333.00000414
333.000004204
333.000004265
333.000004324
333.00000438
333.000004435
333.000004488
333.000004538
333.000004587
333.000004633
333.000004678
333.00000472
333.000004761
333.0000048
333.000004837
333.000004872
333.000004906
333.000004938
333.000004968
333.000004997
333.000005024
333.000005049
333.000005074
333.000005096
333.000005118
333.000005137
333.000005156
333.000005173
333.000005189
333.000005204
333.000005217
333.00000523
333.000005241
333.000005251
333.000005259
333.000005266
333.00000527
333.000005268
333.000005254
333.000005212
333.000005108
333.000004862
333.000004311
333.000003271
333.000002073
332.99999476
332.999994756
332.999994756
332.99999476
332.999994767
332.999994776
332.999994787
332.999994802
332.999994821
332.999994843
332.99999487
332.999994902
332.999994938
332.99999498
332.999995028
332.99999508
332.999995139
332.999995203
332.999995272
332.999995346
332.999995426
332.99999551
332.999995599
332.999995692
332.99999579
332.999995891
332.999995997
332.999996106
332.999996218
332.999996334
332.999996453
332.999996575
332.999996699
332.999996826
332.999996955
332.999997087
332.999997221
332.999997357
332.999997494
332.999997633
332.999997774
332.999997916
332.99999806
332.999998204
332.99999835
332.999998496
332.999998644
332.999998792
332.99999894
332.999999089
332.999999239
332.999999388
332.999999538
332.999999688
332.999999837
332.999999987
333.000000136
333.000000284
333.000000432
333.000000579
333.000000726
333.000000872
333.000001017
333.000001161
333.000001304
333.000001446
333.000001587
333.000001727
333.000001865
333.000002001
333.000002136
333.000002268
333.000002399
333.000002528
333.000002655
333.00000278
333.000002902
333.000003022
333.00000314
333.000003255
333.000003368
333.000003479
333.000003587
333.000003692
333.000003795
333.000003895
333.000003993
333.000004088
333.00000418
333.00000427
333.000004357
333.000004441
333.000004523
333.000004602
333.000004679
333.000004753
333.000004824
333.000004893
333.000004959
333.000005023
333.000005084
333.000005143
333.0000052
333.000005254
333.000005306
333.000005356
333.000005404
333.000005449
333.000005493
333.000005534
333.000005574
333.000005611
333.000005647
333.00000568
333.000005712
333.000005742
333.000005771
333.000005798
333.000005823
333.000005847
333.000005869
333.000005889
333.000005908
333.000005926
333.000005942
333.000005957
333.000005971
333.000005983
333.000005994
333.000006003
333.00000601
333.000006014
333.000006012
333.000005995
333.000005947
333.000005825
333.00000554
333.000004899
333.000003713
333.000002394
332.999994107
332.999994102
332.999994101
332.999994105
332.999994111
332.99999412
332.999994132
332.999994147
332.999994166
332.99999419
332.999994219
332.999994254
332.999994294
332.999994341
332.999994394
332.999994453
332.999994519
332.999994591
332.99999467
332.999994754
332.999994844
332.99999494
332.999995041
332.999995147
332.999995258
332.999995374
332.999995494
332.999995618
332.999995746
332.999995877
332.999996012
332.999996151
332.999996292
332.999996437
332.999996584
332.999996733
332.999996885
332.999997039
332.999997196
332.999997354
332.999997513
332.999997674
332.999997837
332.999998001
332.999998166
332.999998332
332.999998499
332.999998667
332.999998836
332.999999004
332.999999174
332.999999343
332.999999513
332.999999682
332.999999851
333.00000002
333.000000189
333.000000357
333.000000524
333.000000691
333.000000856
333.000001021
333.000001185
333.000001348
333.00000151
333.00000167
333.000001829
333.000001986
333.000002142
333.000002295
333.000002447
333.000002597
333.000002744
333.000002889
333.000003032
333.000003172
333.000003309
333.000003444
333.000003576
333.000003706
333.000003833
333.000003957
333.000004078
333.000004196
333.000004311
333.000004423
333.000004532
333.000004638
333.000004741
333.000004841
333.000004938
333.000005032
333.000005123
333.000005211
333.000005296
333.000005378
333.000005457
333.000005533
333.000005607
333.000005678
333.000005745
333.000005811
333.000005873
333.000005933
333.000005991
333.000006046
333.000006098
333.000006148
333.000006196
333.000006241
333.000006285
333.000006326
333.000006365
333.000006402
333.000006437
333.00000647
333.000006501
333.00000653
333.000006557
333.000006583
333.000006607
333.000006629
333.00000665
333.000006669
333.000006687
333.000006703
333.000006718
333.000006731
333.000006743
333.000006753
333.000006761
333.000006765
333.000006762
333.000006742
333.000006687
333.000006547
333.000006219
333.000005486
333.000004153
333.000002723
332.999993453
332.999993448
332.999993446
332.999993448
332.999993454
332.999993462
332.999993473
332.999993488
332.999993508
332.999993533
332.999993564
332.999993601
332.999993645
332.999993696
332.999993754
332.99999382
332.999993893
332.999993974
332.999994061
332.999994156
332.999994257
332.999994364
332.999994478
332.999994597
332.999994722
332.999994852
332.999994987
332.999995126
332.99999527
332.999995418
332.99999557
332.999995726
332.999995885
332.999996047
332.999996212
332.99999638
332.99999655
332.999996723
332.999996899
332.999997076
332.999997255
332.999997436
332.999997618
332.999997802
332.999997987
332.999998173
332.99999836
332.999998548
332.999998737
332.999998926
332.999999115
332.999999305
332.999999495
332.999999684
332.999999874
333.000000063
333.000000251
333.000000439
333.000000626
333.000000813
333.000000998
333.000001182
333.000001365
333.000001547
333.000001728
333.000001907
333.000002084
333.000002259
333.000002433
333.000002604
333.000002773
333.00000294
333.000003103
333.000003265
333.000003423
333.000003579
333.000003732
333.000003882
333.000004029
333.000004172
333.000004313
333.00000445
333.000004584
333.000004715
333.000004842
333.000004966
333.000005086
333.000005203
333.000005317
333.000005427
333.000005534
333.000005638
333.000005738
333.000005834
333.000005928
333.000006018
333.000006104
333.000006188
333.000006268
333.000006346
333.00000642
333.000006491
333.000006559
333.000006625
333.000006687
333.000006747
333.000006804
333.000006858
333.00000691
333.000006959
333.000007006
333.000007051
333.000007093
333.000007133
333.00000717
333.000007206
333.000007239
333.000007271
333.0000073
333.000007328
333.000007354
333.000007378
333.0000074
333.00000742
333.000007439
333.000007457
333.000007472
333.000007487
333.000007499
333.00000751
333.000007518
333.000007522
333.000007518
333.000007496
333.000007432
333.000007274
333.000006901
333.00000607
333.000004592
333.000003059
332.9999928
332.999992794
332.999992791
332.999992792
332.999992796
332.999992802
332.999992813
332.999992827
332.999992846
332.999992871
332.999992903
332.999992942
332.999992989
332.999993044
332.999993108
332.99999318
332.99999326
332.999993349
332.999993446
332.999993551
332.999993663
332.999993783
332.999993909
332.999994042
332.999994181
332.999994326
332.999994476
332.999994631
332.999994792
332.999994956
332.999995126
332.999995299
332.999995476
332.999995656
332.99999584
332.999996027
332.999996216
332.999996409
332.999996604
332.999996801
332.999997
332.999997201
332.999997403
332.999997607
332.999997813
332.99999802
332.999998227
332.999998436
332.999998645
332.999998855
332.999999065
332.999999276
332.999999486
332.999999696
332.999999906
333.000000116
333.000000325
333.000000533
333.00000074
333.000000947
333.000001152
333.000001356
333.000001559
333.00000176
333.00000196
333.000002158
333.000002354
333.000002548
333.00000274
333.000002929
333.000003115
333.000003299
333.00000348
333.000003658
333.000003833
333.000004004
333.000004173
333.000004337
333.000004499
333.000004657
333.000004811
333.000004962
333.000005109
333.000005252
333.000005391
333.000005527
333.000005659
333.000005787
333.000005911
333.000006031
333.000006148
333.00000626
333.000006369
333.000006474
333.000006576
333.000006674
333.000006768
333.000006858
333.000006945
333.000007029
333.000007109
333.000007186
333.00000726
333.00000733
333.000007397
333.000007461
333.000007523
333.000007581
333.000007636
333.000007689
333.000007739
333.000007787
333.000007832
333.000007874
333.000007914
333.000007952
333.000007988
333.000008021
333.000008052
333.000008082
333.000008109
333.000008134
333.000008158
333.00000818
333.0000082
333.000008218
333.000008235
333.000008249
333.000008263
333.000008274
333.000008282
333.000008286
333.000008281
333.000008255
333.000008183
333.000008005
333.000007586
333.000006653
333.000005032
333.000003402
332.999992149
332.999992141
332.999992136
332.999992135
332.999992137
332.999992141
332.999992149
332.999992162
332.999992179
332.999992204
332.999992236
332.999992276
332.999992326
332.999992384
332.999992453
332.999992531
332.999992619
332.999992716
332.999992823
332.999992938
332.999993062
332.999993194
332.999993334
332.99999348
332.999993634
332.999993794
332.99999396
332.999994132
332.99999431
332.999994492
332.999994679
332.99999487
332.999995066
332.999995265
332.999995468
332.999995675
332.999995884
332.999996096
332.999996311
332.999996528
332.999996748
332.99999697
332.999997193
332.999997418
332.999997645
332.999997873
332.999998102
332.999998331
332.999998562
332.999998793
332.999999025
332.999999256
332.999999488
332.999999719
332.99999995
333.000000181
333.000000411
333.00000064
333.000000868
333.000001095
333.000001321
333.000001545
333.000001768
333.000001989
333.000002208
333.000002426
333.000002641
333.000002854
333.000003064
333.000003272
333.000003476
333.000003677
333.000003875
333.00000407
333.000004261
333.000004449
333.000004633
333.000004813
333.000004989
333.000005161
333.00000533
333.000005494
333.000005654
333.000005809
333.000005961
333.000006108
333.000006251
333.00000639
333.000006524
333.000006654
333.00000678
333.000006902
333.00000702
333.000007133
333.000007242
333.000007347
333.000007449
333.000007546
333.000007639
333.000007729
333.000007815
333.000007897
333.000007975
333.000008051
333.000008122
333.00000819
333.000008256
333.000008317
333.000008376
333.000008432
333.000008485
333.000008535
333.000008583
333.000008627
333.00000867
333.000008709
333.000008747
333.000008782
333.000008815
333.000008845
333.000008874
333.0000089
333.000008925
333.000008948
333.000008968
333.000008987
333.000009005
333.00000902
333.000009034
333.000009045
333.000009054
333.000009058
333.000009051
333.000009022
333.000008941
333.000008742
333.000008272
333.000007234
333.000005472
333.000003752
332.9999915
332.99999149
332.999991483
332.999991479
332.999991478
332.999991479
332.999991483
332.999991493
332.999991508
332.999991531
332.999991562
332.999991603
332.999991654
332.999991716
332.999991789
332.999991873
332.999991968
332.999992074
332.99999219
332.999992317
332.999992453
332.999992598
332.999992751
332.999992913
332.999993082
332.999993258
332.99999344
332.999993629
332.999993824
332.999994025
332.99999423
332.999994441
332.999994655
332.999994874
332.999995097
332.999995323
332.999995553
332.999995786
332.999996021
332.99999626
332.999996501
332.999996743
332.999996988
332.999997235
332.999997483
332.999997733
332.999997984
332.999998235
332.999998488
332.999998741
332.999998994
332.999999248
332.999999501
332.999999754
333.000000007
333.000000259
333.000000511
333.000000761
333.000001011
333.000001259
333.000001505
333.00000175
333.000001994
333.000002235
333.000002475
333.000002712
333.000002947
333.00000318
333.000003409
333.000003635
333.000003857
333.000004077
333.000004292
333.000004504
333.000004712
333.000004916
333.000005115
333.000005311
333.000005502
333.000005688
333.000005871
333.000006048
333.000006221
333.000006389
333.000006553
333.000006712
333.000006866
333.000007015
333.000007159
333.000007299
333.000007435
333.000007565
333.000007691
333.000007812
333.000007929
333.000008041
333.000008149
333.000008253
333.000008352
333.000008447
333.000008538
333.000008625
333.000008708
333.000008788
333.000008863
333.000008935
333.000009004
333.000009069
333.000009131
333.000009189
333.000009245
333.000009297
333.000009347
333.000009393
333.000009437
333.000009478
333.000009517
333.000009554
333.000009587
333.000009619
333.000009649
333.000009676
333.000009701
333.000009725
333.000009746
333.000009765
333.000009783
333.000009799
333.000009813
333.000009825
333.000009833
333.000009836
333.000009828
333.000009795
333.000009705
333.000009483
333.000008961
333.000007814
333.000005914
333.000004109
332.999990854
332.999990842
332.999990832
332.999990824
332.999990819
332.999990815
332.999990815
332.99999082
332.999990831
332.999990851
332.99999088
332.999990921
332.999990973
332.999991037
332.999991114
332.999991204
332.999991307
332.999991422
332.999991548
332.999991686
332.999991834
332.999991993
332.999992161
332.999992337
332.999992522
332.999992715
332.999992915
332.999993122
332.999993335
332.999993555
332.999993779
332.999994009
332.999994244
332.999994483
332.999994726
332.999994974
332.999995224
332.999995478
332.999995736
332.999995995
332.999996258
332.999996523
332.99999679
332.999997059
332.999997329
332.999997601
332.999997875
332.999998149
332.999998424
332.9999987
332.999998975
332.999999252
332.999999528
332.999999803
333.000000078
333.000000353
333.000000626
333.000000899
333.00000117
333.00000144
333.000001708
333.000001975
333.000002239
333.000002502
333.000002762
333.00000302
333.000003275
333.000003527
333.000003776
333.000004021
333.000004262
333.000004499
333.000004733
333.000004962
333.000005187
333.000005407
333.000005622
333.000005833
333.000006039
333.00000624
333.000006436
333.000006627
333.000006813
333.000006994
333.000007169
333.00000734
333.000007504
333.000007664
333.000007819
333.000007968
333.000008112
333.000008251
333.000008385
333.000008514
333.000008638
333.000008757
333.000008871
333.00000898
333.000009085
333.000009185
333.000009281
333.000009373
333.00000946
333.000009543
333.000009622
333.000009697
333.000009769
333.000009836
333.000009901
333.000009961
333.000010019
333.000010073
333.000010124
333.000010172
333.000010217
333.00001026
333.0000103
333.000010337
333.000010372
333.000010404
333.000010434
333.000010462
333.000010487
333.000010511
333.000010533
333.000010552
333.00001057
333.000010586
333.0000106
333.000010612
333.000010621
333.000010623
333.000010613
333.000010576