/*--------------------------------*- C++ -*----------------------------------*\
| =========                 |                                                 |
| \\      /  F ield         | OpenFOAM: The Open Source CFD Toolbox           |
|  \\    /   O peration     | Version:  2212                                  |
|   \\  /    A nd           | Website:  www.openfoam.com                      |
|    \\/     M anipulation  |                                                 |
\*---------------------------------------------------------------------------*/
FoamFile
{
    version     2.0;
    format      ascii;
    arch        "LSB;label=64;scalar=64";
    class       volScalarField::Internal;
    location    "2000";
    object      dGco2;
}
// * * * * * * * * * * * * * * * * * * * * * * * * * * * * * * * * * * * * * //

dimensions      [1 -3 -1 0 0 0 0];

value           nonuniform List<scalar> 
1024
(
0.000167013
0.000167062
0.000167187
0.000167419
0.000167796
0.000168365
0.000169177
0.000170279
0.000171704
0.000173454
0.000175486
0.000177707
0.000179989
0.0001822
0.000184234
0.000186017
0.000187353
0.000188069
0.000188214
0.000187899
0.000187219
0.000186277
0.000185193
0.000184093
0.000183085
0.000182238
0.000181579
0.0001811
0.000180777
0.000180576
0.000180466
0.000180422
0.000167027
0.000167078
0.000167205
0.000167439
0.000167819
0.000168394
0.000169213
0.000170324
0.000171759
0.000173519
0.000175559
0.000177786
0.00018007
0.000182281
0.000184315
0.000186098
0.000187436
0.000188156
0.000188306
0.000187994
0.000187314
0.000186368
0.000185278
0.000184168
0.00018315
0.000182293
0.000181625
0.000181141
0.000180813
0.00018061
0.0001805
0.000180455
0.000167066
0.000167119
0.000167248
0.000167487
0.000167875
0.000168462
0.000169297
0.000170428
0.000171886
0.000173669
0.000175728
0.000177966
0.000180255
0.000182464
0.000184495
0.00018628
0.000187629
0.000188366
0.000188532
0.000188228
0.000187545
0.000186584
0.000185472
0.000184338
0.000183296
0.000182418
0.000181733
0.000181236
0.000180901
0.000180694
0.000180582
0.000180538
0.000167139
0.000167194
0.000167327
0.000167574
0.000167975
0.000168581
0.000169443
0.000170609
0.000172105
0.000173924
0.000176012
0.000178267
0.00018056
0.000182766
0.000184796
0.000186591
0.000187968
0.000188745
0.000188946
0.000188659
0.000187964
0.000186967
0.000185808
0.000184626
0.000183542
0.000182629
0.000181918
0.000181404
0.000181059
0.000180848
0.000180734
0.000180689
0.000167256
0.000167312
0.000167452
0.00016771
0.000168131
0.000168765
0.000169667
0.000170881
0.000172431
0.000174301
0.000176428
0.000178705
0.000181002
0.000183204
0.000185237
0.000187057
0.000188492
0.000189347
0.000189613
0.000189354
0.000188637
0.000187574
0.00018633
0.000185068
0.000183915
0.000182951
0.000182205
0.000181669
0.000181313
0.000181098
0.000180984
0.00018094
0.000167426
0.000167485
0.000167633
0.000167906
0.000168352
0.000169025
0.00016998
0.000171259
0.000172879
0.000174813
0.000176987
0.000179286
0.000181586
0.000183786
0.000185833
0.000187704
0.000189242
0.000190227
0.0001906
0.000190387
0.000189638
0.000188478
0.000187105
0.000185717
0.000184463
0.000183427
0.000182635
0.000182073
0.000181706
0.000181488
0.000181376
0.000181334
0.000167657
0.00016772
0.000167877
0.00016817
0.000168648
0.000169369
0.000170389
0.000171747
0.00017345
0.000175458
0.000177683
0.000180005
0.000182308
0.000184513
0.000186593
0.000188554
0.000190252
0.00019143
0.000191961
0.000191823
0.000191046
0.000189768
0.000188226
0.000186665
0.000185267
0.000184131
0.000183278
0.000182685
0.000182306
0.000182088
0.00018198
0.000181942
0.000167955
0.000168022
0.00016819
0.000168504
0.000169019
0.000169797
0.000170892
0.000172338
0.000174133
0.000176219
0.000178496
0.000180841
0.000183151
0.000185373
0.000187512
0.000189606
0.000191524
0.000192962
0.00019371
0.000193699
0.000192931
0.000191549
0.000189825
0.000188054
0.00018647
0.0001852
0.000184263
0.000183628
0.000183234
0.000183016
0.000182914
0.00018288
0.000168317
0.000168388
0.000168567
0.000168904
0.000169459
0.000170296
0.00017147
0.000173009
0.000174897
0.000177061
0.000179389
0.000181758
0.000184081
0.000186334
0.000188556
0.000190816
0.000193
0.000194753
0.000195792
0.000195996
0.000195334
0.000193934
0.000192077
0.000190104
0.000188307
0.000186862
0.00018581
0.00018511
0.000184689
0.000184464
0.000184365
0.000184335
0.000168734
0.000168809
0.000168998
0.000169356
0.000169948
0.000170842
0.000172091
0.000173718
0.000175693
0.000177929
0.000180303
0.000182695
0.000185034
0.000187326
0.000189635
0.000192064
0.000194518
0.00019662
0.000198037
0.000198601
0.000198228
0.000197
0.000195169
0.00019309
0.00019111
0.000189467
0.000188256
0.00018745
0.000186969
0.000186716
0.000186608
0.000186577
0.000169187
0.000169263
0.000169461
0.000169836
0.000170459
0.000171399
0.00017271
0.000174409
0.000176455
0.000178749
0.000181159
0.000183565
0.000185911
0.000188218
0.000190577
0.000193114
0.000195778
0.00019823
0.000200123
0.000201241
0.000201424
0.000200671
0.00019916
0.00019721
0.000195188
0.000193393
0.000191998
0.000191035
0.000190443
0.000190123
0.000189979
0.000189935
0.000169647
0.000169725
0.000169926
0.000170311
0.000170951
0.000171919
0.000173268
0.000175012
0.000177102
0.000179429
0.00018185
0.000184242
0.000186551
0.000188805
0.000191103
0.000193603
0.000196339
0.000199094
0.000201547
0.000203418
0.000204453
0.000204537
0.000203739
0.00020229
0.000200521
0.000198759
0.000197251
0.000196124
0.00019538
0.000194949
0.000194739
0.000194667
0.000170077
0.000170155
0.000170357
0.000170742
0.000171382
0.000172351
0.000173703
0.00017545
0.000177539
0.000179853
0.000182238
0.000184558
0.000186742
0.000188809
0.000190857
0.000193085
0.000195674
0.000198626
0.000201664
0.000204426
0.000206539
0.000207766
0.000208054
0.00020752
0.000206406
0.000205014
0.00020363
0.000202465
0.000201614
0.000201075
0.000200789
0.00020068
0.000170431
0.000170508
0.000170706
0.00017108
0.000171699
0.000172636
0.000173944
0.000175637
0.000177661
0.000179894
0.000182166
0.000184317
0.000186247
0.000187945
0.000189501
0.000191166
0.000193328
0.000196301
0.000199867
0.000203557
0.000206857
0.000209397
0.000211001
0.000211676
0.00021157
0.00021092
0.00021
0.00020906
0.000208274
0.000207722
0.000207401
0.000207268
0.00017065
0.000170725
0.000170913
0.000171265
0.000171842
0.00017271
0.000173921
0.000175489
0.000177365
0.000179425
0.000181487
0.000183359
0.000184897
0.000186046
0.000186883
0.000187706
0.000189149
0.000191902
0.000195846
0.000200416
0.000204943
0.000208884
0.000211916
0.000213938
0.000215017
0.000215334
0.00021513
0.00021466
0.000214139
0.000213708
0.000213429
0.000213303
0.000170653
0.000170726
0.000170902
0.000171223
0.000171738
0.000172502
0.000173562
0.000174932
0.000176571
0.00017836
0.000180116
0.000181621
0.000182684
0.000183199
0.000183209
0.000183036
0.000183523
0.000185741
0.000189776
0.000195065
0.000200809
0.000206254
0.000210864
0.000214371
0.000216745
0.000218121
0.000218727
0.000218826
0.000218663
0.000218428
0.000218237
0.000218139
0.000170366
0.000170436
0.0001706
0.000170888
0.000171338
0.000171989
0.000172877
0.000174016
0.000175371
0.000176841
0.000178255
0.000179392
0.000180034
0.00018003
0.000179375
0.000178358
0.000177901
0.000179312
0.000182966
0.000188502
0.000195159
0.000202024
0.000208293
0.00021344
0.000217257
0.000219794
0.000221262
0.000221948
0.000222145
0.000222102
0.000221996
0.000221923
0.000169836
0.000169904
0.00017006
0.000170324
0.000170723
0.000171284
0.000172028
0.000172965
0.000174066
0.000175249
0.000176367
0.000177217
0.000177586
0.000177306
0.000176341
0.000174926
0.000173951
0.000174726
0.000177773
0.000183003
0.000189897
0.00019761
0.000205184
0.000211824
0.000217071
0.000220812
0.00022319
0.000224493
0.000225057
0.0002252
0.000225166
0.000225111
0.000169179
0.000169245
0.000169394
0.000169642
0.000170006
0.000170503
0.000171144
0.00017193
0.000172835
0.000173793
0.00017468
0.000175327
0.000175544
0.000175178
0.000174185
0.000172768
0.00017175
0.000172318
0.000174969
0.000179764
0.000186424
0.000194324
0.000202563
0.00021022
0.000216615
0.000221431
0.000224684
0.000226612
0.000227563
0.000227904
0.000227945
0.000227906
0.000168487
0.000168549
0.000168687
0.000168917
0.000169252
0.0001697
0.000170265
0.000170941
0.000171699
0.000172483
0.000173194
0.000173696
0.00017384
0.000173505
0.000172673
0.000171547
0.000170864
0.000171598
0.000174142
0.000178611
0.000184876
0.000192526
0.00020086
0.000209006
0.000216167
0.000221839
0.000225873
0.000228408
0.000229761
0.000230317
0.000230444
0.000230422
0.000167907
0.000167957
0.00016807
0.000168264
0.000168553
0.000168944
0.000169438
0.000170022
0.000170665
0.000171316
0.000171897
0.000172308
0.000172449
0.000172254
0.000171751
0.000171165
0.000171114
0.000172285
0.000174932
0.000179187
0.000185035
0.000192223
0.000200242
0.00020839
0.000215902
0.000222155
0.000226831
0.000229928
0.000231686
0.000232476
0.000232701
0.000232701
0.000167677
0.0001677
0.00016776
0.000167877
0.000168072
0.000168364
0.000168758
0.00016924
0.00016978
0.000170331
0.000170837
0.000171241
0.000171496
0.000171597
0.000171619
0.000171798
0.000172583
0.000174337
0.00017718
0.000181259
0.00018665
0.00019325
0.000200712
0.000208494
0.000215958
0.000222485
0.000227623
0.000231209
0.000233363
0.000234404
0.000234741
0.000234767
0.000168108
0.000168085
0.00016805
0.00016803
0.000168062
0.000168185
0.000168421
0.000168772
0.000169216
0.000169719
0.000170252
0.000170794
0.000171348
0.00017195
0.000172692
0.000173784
0.000175471
0.00017781
0.000180831
0.000184701
0.00018957
0.000195464
0.000202194
0.000209363
0.000216461
0.000222948
0.000228331
0.000232298
0.000234818
0.000236118
0.000236583
0.00023664
0.00016953
0.000169437
0.000169264
0.000169051
0.000168856
0.00016875
0.000168788
0.000169002
0.000169395
0.000169954
0.000170671
0.00017155
0.000172609
0.000173885
0.000175448
0.00017745
0.000179932
0.000182724
0.000185811
0.000189396
0.000193677
0.000198774
0.000204634
0.000211007
0.000217505
0.000223678
0.000229062
0.00023326
0.000236086
0.000237638
0.000238242
0.000238339
0.000172214
0.000172032
0.000171696
0.000171271
0.00017085
0.000170535
0.000170419
0.000170571
0.000171028
0.000171795
0.000172868
0.000174245
0.000175922
0.000177905
0.000180213
0.000182933
0.000185954
0.000188971
0.000191968
0.00019518
0.00019883
0.000203089
0.000207999
0.000213442
0.000219159
0.000224795
0.000229939
0.000234178
0.00023721
0.000238985
0.000239734
0.000239877
0.000176335
0.000176052
0.000175567
0.000174999
0.000174473
0.000174107
0.000174004
0.000174263
0.000174943
0.000176047
0.000177558
0.000179444
0.000181668
0.000184191
0.000186989
0.000190096
0.000193319
0.000196308
0.000199063
0.000201832
0.000204839
0.00020827
0.000212222
0.000216671
0.000221474
0.000226388
0.000231078
0.000235151
0.000238246
0.000240184
0.000241069
0.000241265
0.000181978
0.0001816
0.000181049
0.000180519
0.000180141
0.000179996
0.000180154
0.000180707
0.00018171
0.000183159
0.00018502
0.000187242
0.000189759
0.000192508
0.00019544
0.000198561
0.000201656
0.000204391
0.000206784
0.00020907
0.000211458
0.000214118
0.000217166
0.000220633
0.000224465
0.000228522
0.00023257
0.000236274
0.000239262
0.000241265
0.000242259
0.000242511
0.000189195
0.000188762
0.00018832
0.000188105
0.000188176
0.000188513
0.000189112
0.000190031
0.000191312
0.000192954
0.00019493
0.000197189
0.000199663
0.000202287
0.000205006
0.000207816
0.00021052
0.000212836
0.000214792
0.000216591
0.000218406
0.000220381
0.000222622
0.000225185
0.000228067
0.00023121
0.000234479
0.00023763
0.000240331
0.00024227
0.000243315
0.000243619
0.000198095
0.000197707
0.000197631
0.000197996
0.000198683
0.00019956
0.000200567
0.000201733
0.000203095
0.00020468
0.000206484
0.000208474
0.0002106
0.000212808
0.000215053
0.000217327
0.000219472
0.000221275
0.000222762
0.000224092
0.000225396
0.000226783
0.000228339
0.000230117
0.000232139
0.000234391
0.000236817
0.000239275
0.000241517
0.000243244
0.000244258
0.000244593
0.000208928
0.000208786
0.000209306
0.000210266
0.000211399
0.00021256
0.000213698
0.000214837
0.000216023
0.000217305
0.0002187
0.000220198
0.000221772
0.000223386
0.000225007
0.000226629
0.000228141
0.000229397
0.000230418
0.000231313
0.000232172
0.000233068
0.000234059
0.000235188
0.000236477
0.000237932
0.000239538
0.000241235
0.000242877
0.000244238
0.000245112
0.00024544
0.000222162
0.000222487
0.000223439
0.000224513
0.000225567
0.000226545
0.000227427
0.000228241
0.000229029
0.000229837
0.000230689
0.000231589
0.000232525
0.000233477
0.000234429
0.000235374
0.000236249
0.000236971
0.000237554
0.000238058
0.000238535
0.000239025
0.000239561
0.000240167
0.000240859
0.000241644
0.000242522
0.000243476
0.000244444
0.000245305
0.000245911
0.00024617
0.000238356
0.000238608
0.000239095
0.000239562
0.000239989
0.00024037
0.000240701
0.000240994
0.000241267
0.000241538
0.00024182
0.000242114
0.000242419
0.000242728
0.000243036
0.000243341
0.000243623
0.000243855
0.000244041
0.000244202
0.000244352
0.000244505
0.000244672
0.000244859
0.000245072
0.000245314
0.000245585
0.000245882
0.000246191
0.000246478
0.000246698
0.000246804
)
;


// ************************************************************************* //
