/*--------------------------------*- C++ -*----------------------------------*\
| =========                 |                                                 |
| \\      /  F ield         | OpenFOAM: The Open Source CFD Toolbox           |
|  \\    /   O peration     | Version:  2212                                  |
|   \\  /    A nd           | Website:  www.openfoam.com                      |
|    \\/     M anipulation  |                                                 |
\*---------------------------------------------------------------------------*/
FoamFile
{
    version     2.0;
    format      ascii;
    arch        "LSB;label=64;scalar=64";
    class       volScalarField;
    location    "2000";
    object      Gco2;
}
// * * * * * * * * * * * * * * * * * * * * * * * * * * * * * * * * * * * * * //

dimensions      [1 -3 0 0 0 0 0];

internalField   nonuniform List<scalar> 
1024
(
0.048871
0.0488482
0.048792
0.0486889
0.0485214
0.048269
0.0479091
0.047421
0.0467899
0.0460151
0.0451159
0.0441331
0.0431235
0.0421457
0.0412462
0.0404582
0.039868
0.039552
0.0394879
0.0396269
0.0399274
0.0403437
0.0408225
0.0413088
0.0417541
0.0421282
0.0424195
0.0426311
0.042774
0.0428628
0.0429112
0.0429308
0.0488636
0.0488406
0.048784
0.04868
0.048511
0.0482563
0.0478934
0.0474012
0.0467656
0.0459863
0.0450833
0.044098
0.0430874
0.0421097
0.0412107
0.0404229
0.0398316
0.0395135
0.0394474
0.039585
0.0398854
0.0403033
0.0407851
0.0412752
0.0417253
0.0421037
0.0423989
0.0426132
0.0427579
0.0428476
0.0428964
0.042916
0.0488454
0.048822
0.0487644
0.0486584
0.0484861
0.0482263
0.0478562
0.0473551
0.0467093
0.04592
0.0450088
0.0440183
0.043006
0.042029
0.041131
0.0403422
0.0397461
0.0394207
0.0393478
0.0394817
0.0397836
0.0402082
0.0406994
0.0412002
0.0416608
0.0420487
0.0423515
0.0425711
0.0427191
0.0428104
0.0428598
0.0428797
0.0488125
0.0487885
0.0487291
0.0486197
0.0484417
0.0481733
0.0477913
0.0472752
0.0466128
0.0458073
0.0448831
0.0438851
0.0428708
0.0418952
0.040998
0.0402049
0.0395966
0.0392534
0.0391649
0.0392917
0.0395987
0.0400391
0.0405512
0.0410729
0.0415523
0.0419555
0.0422697
0.042497
0.0426493
0.0427426
0.0427927
0.0428126
0.0487606
0.0487356
0.0486736
0.0485592
0.0483729
0.0480918
0.0476923
0.0471546
0.0464683
0.0456403
0.0446989
0.0436916
0.0426757
0.0417018
0.0408034
0.0399992
0.0393653
0.0389878
0.0388704
0.0389847
0.0393016
0.039771
0.0403203
0.040878
0.0413873
0.0418131
0.0421428
0.0423796
0.0425368
0.042632
0.0426822
0.0427019
0.0486852
0.0486588
0.0485934
0.0484723
0.0482746
0.0479764
0.0475536
0.0469873
0.0462702
0.045414
0.044452
0.0434347
0.0424175
0.0414448
0.0405403
0.0397134
0.039034
0.0385991
0.0384346
0.0385284
0.0388592
0.0393717
0.039978
0.0405911
0.0411452
0.0416029
0.041953
0.0422011
0.0423633
0.0424596
0.0425091
0.0425278
0.0485824
0.0485545
0.0484849
0.0483554
0.0481436
0.047824
0.0473723
0.0467712
0.0460174
0.0451286
0.0441442
0.0431168
0.0420983
0.0411236
0.0402047
0.0393384
0.0385884
0.0380681
0.0378338
0.0378944
0.0382374
0.0388019
0.039483
0.0401726
0.04079
0.0412917
0.0416688
0.0419307
0.042098
0.0421944
0.042242
0.0422591
0.0484503
0.0484207
0.0483463
0.0482072
0.047979
0.0476347
0.0471499
0.0465095
0.0457152
0.0447918
0.0437844
0.042747
0.0417257
0.0407437
0.0397988
0.0388742
0.0380271
0.0373922
0.0370614
0.0370662
0.0374054
0.0380152
0.0387769
0.0395589
0.0402584
0.0408197
0.0412334
0.041514
0.0416879
0.0417843
0.0418294
0.0418444
0.0482896
0.0482583
0.048179
0.0480299
0.0477842
0.0474137
0.0468939
0.0462126
0.0453772
0.0444194
0.0433897
0.0423422
0.0413152
0.0403195
0.0393381
0.0383399
0.0373759
0.0366018
0.0361427
0.0360522
0.0363444
0.0369622
0.037782
0.0386536
0.039447
0.0400852
0.0405499
0.040859
0.0410453
0.0411446
0.0411885
0.0412016
0.0481048
0.0480721
0.0479883
0.0478297
0.0475674
0.0471719
0.0466188
0.0458989
0.045025
0.0440356
0.0429857
0.0419282
0.0408941
0.0398819
0.0388619
0.0377894
0.0367063
0.035778
0.0351522
0.0349028
0.035067
0.0356089
0.0364169
0.0373348
0.0382089
0.0389344
0.0394696
0.0398253
0.0400379
0.0401495
0.0401975
0.0402112
0.0479045
0.0478706
0.0477834
0.0476172
0.0473416
0.0469256
0.0463452
0.0455934
0.044688
0.043673
0.0426075
0.0415438
0.0405074
0.0394882
0.038447
0.0373268
0.0361507
0.0350682
0.0342322
0.0337383
0.0336565
0.0339885
0.0346552
0.0355158
0.0364083
0.0372005
0.0378167
0.0382418
0.0385034
0.0386448
0.0387081
0.0387276
0.0477009
0.0476664
0.0475772
0.0474067
0.0471234
0.0466952
0.0460981
0.0453266
0.044402
0.0433729
0.0423024
0.0412449
0.040225
0.0392299
0.0382158
0.0371125
0.0359049
0.0346884
0.0336053
0.0327785
0.0323209
0.0322829
0.0326344
0.0332732
0.0340539
0.0348317
0.0354971
0.0359947
0.0363233
0.0365135
0.0366061
0.0366381
0.0475105
0.0474758
0.0473865
0.0472161
0.0469327
0.0465041
0.0459059
0.0451331
0.0442089
0.0431855
0.0421311
0.0411063
0.0401417
0.0392295
0.0383257
0.0373429
0.036201
0.0348978
0.0335558
0.0323358
0.0314021
0.0308594
0.0307311
0.030966
0.0314568
0.0320709
0.0326813
0.0331956
0.033571
0.0338087
0.033935
0.0339831
0.0473536
0.0473194
0.0472321
0.0470666
0.0467925
0.0463781
0.0457993
0.0450505
0.0441553
0.0431681
0.0421637
0.0412132
0.0403613
0.0396126
0.0389265
0.0381931
0.0372397
0.0359272
0.0343523
0.0327226
0.0312644
0.0301421
0.0294329
0.0291337
0.0291794
0.0294655
0.029871
0.0302854
0.0306318
0.0308757
0.0310172
0.0310757
0.047257
0.0472236
0.0471402
0.0469846
0.0467294
0.0463455
0.0458098
0.0451161
0.0442864
0.0433757
0.0424646
0.0416377
0.0409592
0.040453
0.0400853
0.0397237
0.039088
0.0378731
0.0361314
0.0341125
0.0321126
0.0303717
0.0290317
0.0281379
0.0276606
0.02752
0.027609
0.0278157
0.0280451
0.028235
0.0283582
0.0284135
0.0472555
0.0472234
0.0471454
0.0470035
0.0467757
0.0464376
0.0459687
0.0453626
0.044638
0.0438469
0.0430711
0.0424066
0.0419379
0.0417122
0.0417101
0.0417891
0.041576
0.0405973
0.0388151
0.0364787
0.0339411
0.0315355
0.0294992
0.0279498
0.0269008
0.0262926
0.026024
0.0259795
0.026051
0.0261543
0.0262384
0.0262815
0.0473828
0.0473519
0.0472793
0.0471516
0.0469527
0.0466646
0.0462716
0.0457682
0.0451692
0.0445192
0.0438945
0.0433925
0.0431099
0.0431136
0.0434049
0.0438567
0.044061
0.043439
0.0418251
0.0393794
0.0364385
0.0334057
0.0306366
0.0283631
0.0266771
0.0255565
0.0249077
0.0246041
0.0245165
0.0245349
0.0245818
0.0246138
0.0476171
0.047587
0.0475183
0.0474012
0.0472247
0.0469769
0.0466475
0.0462332
0.0457463
0.0452232
0.0447296
0.0443543
0.0441923
0.0443176
0.0447461
0.0453736
0.045807
0.0454659
0.0441204
0.0418099
0.0387641
0.0353566
0.0320112
0.0290784
0.0267608
0.0251085
0.0240582
0.0234827
0.0232329
0.0231695
0.0231842
0.0232085
0.0479081
0.0478789
0.0478131
0.0477033
0.0475421
0.0473224
0.0470389
0.0466913
0.0462908
0.0458676
0.0454756
0.0451901
0.0450948
0.0452581
0.0456987
0.0463271
0.0467791
0.0465297
0.0453592
0.0432409
0.0402986
0.0368087
0.0331693
0.0297875
0.0269634
0.0248365
0.0233999
0.0225485
0.0221281
0.0219776
0.0219591
0.0219763
0.0482147
0.0481874
0.0481262
0.0480243
0.0478763
0.0476779
0.0474277
0.047129
0.0467935
0.0464468
0.0461327
0.0459112
0.0458486
0.0459977
0.0463671
0.0468667
0.0471703
0.0468478
0.0457245
0.0437506
0.0409826
0.0376031
0.0339222
0.0303242
0.0271618
0.0246572
0.0228761
0.0217568
0.0211595
0.0209136
0.0208574
0.0208667
0.0484715
0.0484496
0.0483993
0.0483134
0.0481858
0.0480125
0.0477938
0.0475355
0.047251
0.0469632
0.0467067
0.0465254
0.0464637
0.0465507
0.0467743
0.047035
0.0470595
0.0465439
0.0453756
0.043496
0.0409125
0.0377374
0.0341953
0.0305967
0.0272798
0.0245186
0.0224542
0.0210869
0.0203108
0.0199614
0.0198619
0.0198619
0.048574
0.0485639
0.0485373
0.0484855
0.0483987
0.0482693
0.0480951
0.0478818
0.047643
0.0473992
0.0471754
0.0469975
0.0468852
0.0468415
0.046833
0.0467557
0.0464108
0.0456374
0.0443822
0.0425808
0.0401993
0.0372837
0.0339879
0.0305513
0.0272553
0.0243737
0.0221052
0.0205222
0.0195713
0.0191116
0.0189624
0.0189509
0.0483843
0.0483947
0.04841
0.0484185
0.048404
0.0483495
0.0482447
0.0480893
0.0478929
0.0476702
0.047435
0.0471956
0.0469512
0.0466863
0.0463597
0.0458786
0.0451352
0.0441029
0.0427695
0.0410606
0.0389099
0.0363062
0.0333339
0.0301681
0.0270337
0.0241697
0.0217933
0.020042
0.0189296
0.0183558
0.0181504
0.0181249
0.0477571
0.0477981
0.0478742
0.0479683
0.0480539
0.0481006
0.0480833
0.0479884
0.0478147
0.0475674
0.0472507
0.0468627
0.0463952
0.0458322
0.0451427
0.0442599
0.0431647
0.0419328
0.04057
0.038987
0.0370962
0.0348447
0.0322567
0.0294424
0.026573
0.0238476
0.0214712
0.0196181
0.0183706
0.0176856
0.0174186
0.017376
0.0465723
0.0466526
0.046801
0.0469884
0.0471739
0.0473127
0.0473639
0.0472963
0.0470942
0.0467552
0.0462812
0.0456735
0.0449329
0.044058
0.0430391
0.0418391
0.0405058
0.0391742
0.0378508
0.0364325
0.0348206
0.0329399
0.0307712
0.0283675
0.0258434
0.0233553
0.0210843
0.0192132
0.017875
0.0170916
0.0167609
0.0166978
0.044753
0.0448779
0.0450919
0.0453428
0.0455747
0.0457361
0.0457811
0.0456664
0.0453662
0.0448783
0.0442112
0.0433782
0.0423964
0.0412828
0.0400478
0.0386766
0.0372539
0.0359345
0.0347182
0.0334957
0.0321675
0.0306523
0.0289071
0.0269425
0.0248216
0.0226523
0.020582
0.0187842
0.0174181
0.0165629
0.0161722
0.0160855
0.042262
0.0424287
0.0426717
0.0429059
0.0430726
0.0431361
0.0430661
0.042822
0.0423787
0.0417388
0.0409169
0.039936
0.0388246
0.037611
0.0363167
0.034939
0.0335731
0.0323658
0.0313093
0.0302997
0.0292453
0.0280705
0.0267248
0.0251939
0.0235019
0.0217105
0.0199236
0.0182888
0.0169701
0.0160862
0.0156478
0.0155362
0.0390757
0.0392669
0.039462
0.0395568
0.0395253
0.0393764
0.0391116
0.0387055
0.03814
0.0374148
0.0365422
0.035545
0.0344527
0.0332944
0.032094
0.0308533
0.0296599
0.0286375
0.0277738
0.0269797
0.0261781
0.0253059
0.0243163
0.0231847
0.0219119
0.0205244
0.0190817
0.0176909
0.0164989
0.0156433
0.0151818
0.0150477
0.0351467
0.0353176
0.0353512
0.0351899
0.0348865
0.0344995
0.0340548
0.0335399
0.0329385
0.0322383
0.0314418
0.0305632
0.0296247
0.0286499
0.0276589
0.0266548
0.0257078
0.0249121
0.0242555
0.0236685
0.0230926
0.0224799
0.0217931
0.0210079
0.0201153
0.0191207
0.0180498
0.0169649
0.0159759
0.0152138
0.0147663
0.0146182
0.0303642
0.0304269
0.0301972
0.0297734
0.0292731
0.0287603
0.028258
0.027755
0.0272314
0.0266655
0.0260496
0.0253879
0.0246931
0.0239806
0.0232648
0.0225488
0.0218814
0.021327
0.0208761
0.0204809
0.0201017
0.0197061
0.0192683
0.0187699
0.0182009
0.0175586
0.0168494
0.0161005
0.015376
0.0147751
0.0143898
0.0142451
0.0245219
0.0243783
0.0239582
0.0234841
0.0230187
0.022587
0.0221977
0.0218382
0.0214903
0.0211335
0.0207571
0.0203598
0.0199467
0.0195261
0.0191062
0.018689
0.0183027
0.0179838
0.0177265
0.0175038
0.0172933
0.0170771
0.0168404
0.0165726
0.0162671
0.0159206
0.0155329
0.0151119
0.0146849
0.014305
0.0140376
0.0139233
0.0173732
0.017262
0.0170473
0.0168409
0.0166523
0.0164842
0.0163382
0.0162088
0.0160883
0.0159684
0.0158441
0.0157141
0.0155796
0.015443
0.015307
0.0151724
0.0150481
0.0149457
0.0148634
0.0147926
0.0147262
0.0146585
0.014585
0.0145022
0.0144081
0.0143014
0.0141818
0.0140505
0.0139143
0.0137874
0.0136907
0.013644
)
;

boundaryField
{
    movingWall
    {
        type            fixedValue;
        value           uniform 0.0135;
    }
    fixedWalls
    {
        type            zeroGradient;
    }
    floor
    {
        type            zeroGradient;
    }
    frontAndBack
    {
        type            empty;
    }
}


// ************************************************************************* //
