/*--------------------------------*- C++ -*----------------------------------*\
| =========                 |                                                 |
| \\      /  F ield         | OpenFOAM: The Open Source CFD Toolbox           |
|  \\    /   O peration     | Version:  2212                                  |
|   \\  /    A nd           | Website:  www.openfoam.com                      |
|    \\/     M anipulation  |                                                 |
\*---------------------------------------------------------------------------*/
FoamFile
{
    version     2.0;
    format      ascii;
    arch        "LSB;label=64;scalar=64";
    class       volScalarField;
    location    "2000";
    object      Sco2;
}
// * * * * * * * * * * * * * * * * * * * * * * * * * * * * * * * * * * * * * //

dimensions      [1 -3 0 0 0 0 0];

internalField   nonuniform List<scalar> 
1024
(
0.00636611
0.00636798
0.00637275
0.00638158
0.00639597
0.00641767
0.00644862
0.00649063
0.00654495
0.00661165
0.00668908
0.00677373
0.00686072
0.006945
0.00702256
0.00709052
0.00714145
0.00716873
0.00717426
0.00716226
0.00713634
0.00710041
0.0070591
0.00701715
0.00697873
0.00694647
0.00692133
0.00690309
0.00689076
0.0068831
0.00687893
0.00687723
0.00636665
0.0063686
0.00637343
0.00638234
0.00639686
0.00641875
0.00644998
0.00649233
0.00654704
0.00661413
0.00669189
0.00677676
0.00686384
0.0069481
0.00702562
0.00709358
0.0071446
0.00717204
0.00717775
0.00716588
0.00713996
0.0071039
0.00706234
0.00702005
0.00698122
0.00694858
0.00692311
0.00690463
0.00689215
0.00688441
0.00688021
0.00687851
0.00636816
0.00637016
0.00637509
0.00638419
0.006399
0.00642134
0.00645318
0.0064963
0.00655188
0.00661984
0.00669831
0.00678363
0.00687086
0.00695506
0.0070325
0.00710054
0.00715197
0.00718006
0.00718635
0.0071748
0.00714875
0.00711211
0.00706973
0.00702652
0.00698679
0.00695332
0.0069272
0.00690826
0.0068955
0.00688762
0.00688336
0.00688164
0.00637094
0.00637301
0.0063781
0.0063875
0.0064028
0.00642589
0.00645876
0.00650317
0.0065602
0.00662955
0.00670914
0.0067951
0.0068825
0.0069666
0.00704398
0.00711239
0.00716488
0.0071945
0.00720214
0.0071912
0.00716471
0.0071267
0.00708252
0.0070375
0.00699615
0.00696136
0.00693426
0.00691465
0.00690152
0.00689346
0.00688915
0.00688743
0.00637538
0.00637753
0.00638286
0.00639269
0.00640872
0.00643291
0.00646728
0.00651356
0.00657264
0.00664394
0.00672501
0.00681178
0.00689934
0.00698329
0.00706077
0.00713015
0.00718485
0.00721743
0.00722756
0.0072177
0.00719036
0.00714985
0.00710245
0.00705433
0.00701038
0.00697365
0.0069452
0.00692478
0.00691122
0.00690301
0.00689867
0.00689698
0.00638185
0.00638411
0.00638974
0.00640016
0.00641717
0.00644283
0.00647921
0.00652796
0.0065897
0.00666343
0.00674629
0.00683393
0.0069216
0.00700547
0.00708348
0.00715483
0.00721345
0.00725099
0.00726519
0.00725709
0.00722854
0.00718431
0.00713199
0.00707908
0.00703127
0.00699178
0.00696158
0.00694017
0.00692618
0.00691788
0.00691361
0.00691199
0.00639067
0.00639307
0.00639906
0.0064102
0.00642844
0.00645594
0.00649482
0.00654657
0.00661148
0.00668802
0.00677282
0.00686134
0.00694914
0.00703318
0.00711245
0.0071872
0.00725193
0.00729685
0.00731707
0.00731183
0.00728222
0.00723349
0.0071747
0.00711519
0.00706192
0.00701863
0.0069861
0.0069635
0.00694907
0.00694075
0.00693664
0.00693517
0.00640203
0.00640458
0.00641098
0.00642295
0.0064426
0.00647223
0.00651397
0.00656911
0.00663751
0.00671704
0.00680383
0.00689323
0.00698128
0.00706597
0.00714749
0.00722729
0.00730041
0.00735521
0.00738376
0.00738333
0.00735404
0.00730139
0.00723564
0.00716815
0.00710778
0.00705935
0.00702366
0.00699945
0.00698444
0.00697612
0.00697223
0.00697094
0.00641584
0.00641854
0.00642536
0.00643821
0.00645936
0.00649126
0.00653601
0.00659468
0.00666663
0.00674914
0.00683785
0.00692815
0.0070167
0.00710259
0.00718728
0.00727344
0.00735666
0.00742349
0.0074631
0.00747089
0.00744565
0.00739229
0.00732152
0.00724628
0.0071778
0.00712272
0.00708262
0.00705595
0.00703987
0.00703131
0.00702752
0.00702639
0.00643174
0.00643456
0.00644177
0.00645544
0.00647801
0.00651208
0.0065597
0.00662171
0.00669698
0.00678222
0.0068727
0.00696387
0.00705305
0.00714038
0.00722843
0.00732102
0.00741453
0.00749466
0.00754868
0.00757017
0.00755596
0.00750914
0.00743936
0.00736011
0.00728465
0.00722203
0.00717583
0.00714514
0.00712679
0.00711717
0.00711302
0.00711184
0.00644898
0.0064519
0.00645941
0.00647373
0.00649746
0.00653329
0.00658327
0.00664803
0.00672603
0.00681349
0.00690533
0.00699705
0.00708645
0.00717441
0.00726431
0.00736103
0.00746259
0.00755604
0.00762819
0.00767079
0.0076778
0.00764908
0.00759148
0.00751714
0.00744008
0.00737168
0.00731848
0.00728179
0.00725921
0.00724701
0.00724154
0.00723986
0.0064665
0.00646948
0.00647716
0.00649184
0.00651625
0.00655313
0.00660456
0.00667102
0.00675069
0.00683938
0.00693166
0.00702287
0.00711087
0.00719678
0.00728436
0.00737966
0.00748395
0.00758898
0.00768246
0.00775379
0.00779323
0.00779643
0.00776602
0.00771081
0.00764337
0.00757618
0.00751872
0.00747576
0.00744739
0.00743096
0.00742297
0.00742021
0.00648291
0.00648589
0.00649358
0.00650826
0.00653267
0.0065696
0.00662113
0.00668771
0.00676735
0.00685556
0.00694647
0.00703488
0.00711814
0.00719692
0.00727501
0.00735994
0.00745859
0.00757112
0.00768695
0.00779222
0.00787275
0.00791952
0.00793051
0.00791014
0.0078677
0.00781462
0.00776188
0.00771745
0.00768503
0.00766449
0.00765359
0.00764943
0.00649641
0.00649936
0.00650688
0.00652114
0.00654475
0.00658045
0.00663032
0.00669484
0.006772
0.0068571
0.00694372
0.00702572
0.00709929
0.00716399
0.00722333
0.00728676
0.00736917
0.00748251
0.00761845
0.00775907
0.00788488
0.00798169
0.00804283
0.00806857
0.00806454
0.00803976
0.00800468
0.00796885
0.00793891
0.00791783
0.0079056
0.00790055
0.00650474
0.00650761
0.0065148
0.00652821
0.0065502
0.00658327
0.00662943
0.00668921
0.00676072
0.00683924
0.00691783
0.00698919
0.0070478
0.00709161
0.0071235
0.00715489
0.00720991
0.00731483
0.00746515
0.00763936
0.00781192
0.00796213
0.00807773
0.0081548
0.00819593
0.00820799
0.00820023
0.00818232
0.00816246
0.00814603
0.00813538
0.00813059
0.00650487
0.00650764
0.00651436
0.00652658
0.00654621
0.00657534
0.00661575
0.00666799
0.00673044
0.00679866
0.00686558
0.00692295
0.00696347
0.00698309
0.00698347
0.00697686
0.00699543
0.00707998
0.00723379
0.00743539
0.00765434
0.00786191
0.00803761
0.00817129
0.00826178
0.00831423
0.00833735
0.00834112
0.0083349
0.00832594
0.00831866
0.00831492
0.00649391
0.00649658
0.00650283
0.00651383
0.00653097
0.0065558
0.00658966
0.00663305
0.00668469
0.00674073
0.00679462
0.00683797
0.00686245
0.00686228
0.00683734
0.00679858
0.00678115
0.00683493
0.00697422
0.00718524
0.00743898
0.00770067
0.00793962
0.0081358
0.0082813
0.00837799
0.00843395
0.00846011
0.00846763
0.008466
0.00846192
0.00845915
0.00647374
0.00647634
0.00648225
0.00649234
0.00650755
0.0065289
0.00655729
0.00659299
0.00663497
0.00668007
0.00672266
0.00675507
0.00676913
0.00675846
0.00672168
0.00666776
0.00663057
0.00666012
0.00677626
0.00697561
0.00723839
0.00753241
0.00782109
0.00807419
0.00827421
0.00841682
0.00850745
0.0085571
0.00857863
0.00858407
0.00858277
0.00858067
0.00644869
0.00645121
0.00645688
0.00646633
0.00648022
0.00649915
0.00652358
0.00655354
0.00658806
0.00662455
0.00665837
0.00668302
0.00669132
0.00667736
0.00663951
0.0065855
0.0065467
0.00656835
0.0066694
0.00685217
0.00710603
0.00740715
0.0077212
0.00801307
0.00825682
0.00844042
0.00856441
0.00863789
0.00867415
0.00868712
0.0086887
0.0086872
0.00642231
0.00642465
0.00642993
0.0064387
0.00645145
0.00646854
0.00649009
0.00651583
0.00654475
0.00657464
0.00660174
0.00662087
0.00662633
0.00661357
0.00658185
0.00653894
0.00651292
0.00654088
0.00663787
0.0068082
0.00704702
0.00733863
0.00765627
0.0079668
0.00823977
0.00845597
0.00860973
0.00870635
0.0087579
0.00877911
0.00878394
0.00878312
0.00640022
0.0064021
0.00640643
0.00641382
0.00642481
0.00643973
0.00645857
0.00648082
0.00650535
0.00653015
0.00655227
0.00656794
0.00657331
0.00656589
0.00654673
0.0065244
0.00652246
0.00656707
0.00666796
0.00683016
0.00705309
0.00732706
0.00763273
0.00794332
0.00822963
0.00846801
0.00864623
0.00876428
0.00883128
0.00886143
0.00886999
0.00886999
0.00639143
0.0063923
0.00639459
0.00639904
0.0064065
0.00641764
0.00643264
0.00645101
0.00647158
0.0064926
0.0065119
0.00652727
0.006537
0.00654085
0.00654169
0.00654851
0.00657842
0.00664528
0.00675367
0.00690913
0.00711464
0.00736623
0.00765065
0.00794727
0.00823178
0.00848056
0.00867642
0.00881311
0.00889521
0.00893489
0.00894775
0.00894874
0.00640787
0.00640697
0.00640564
0.00640488
0.00640611
0.00641078
0.00641979
0.00643317
0.00645009
0.00646928
0.00648957
0.00651024
0.00653137
0.00655429
0.00658257
0.00662422
0.0066885
0.00677769
0.00689282
0.00704033
0.00722593
0.00745062
0.00770713
0.00798038
0.00825095
0.00849822
0.0087034
0.00885463
0.00895069
0.00900022
0.00901795
0.00902014
0.00646206
0.00645852
0.00645194
0.0064438
0.00643638
0.00643232
0.00643378
0.00644194
0.00645691
0.00647822
0.00650555
0.00653905
0.00657943
0.00662807
0.00668766
0.00676395
0.00685858
0.00696499
0.00708266
0.0072193
0.00738248
0.00757679
0.00780015
0.00804306
0.00829077
0.00852607
0.00873126
0.00889128
0.00899901
0.00905816
0.00908121
0.00908488
0.00656438
0.00655744
0.00654462
0.00652843
0.00651239
0.00650039
0.00649594
0.00650174
0.00651916
0.0065484
0.00658931
0.00664177
0.00670572
0.00678128
0.00686928
0.00697293
0.0070881
0.0072031
0.00731736
0.0074398
0.00757892
0.00774124
0.00792841
0.00813589
0.00835379
0.00856861
0.00876471
0.00892629
0.00904186
0.00910951
0.00913807
0.00914351
0.00672146
0.00671068
0.00669219
0.00667052
0.00665048
0.00663652
0.00663261
0.00664249
0.00666839
0.00671049
0.00676807
0.00683998
0.00692474
0.0070209
0.00712755
0.00724597
0.00736883
0.00748276
0.00758778
0.00769332
0.00780797
0.00793874
0.00808938
0.00825896
0.00844205
0.00862935
0.00880812
0.00896337
0.00908136
0.00915522
0.00918896
0.00919644
0.00693654
0.00692214
0.00690115
0.00688092
0.00686651
0.00686101
0.00686704
0.00688809
0.00692634
0.00698157
0.00705252
0.0071372
0.00723315
0.00733794
0.0074497
0.00756866
0.00768662
0.00779086
0.00788208
0.00796924
0.00806026
0.00816167
0.00827782
0.00840997
0.00855604
0.00871071
0.00886501
0.00900619
0.00912009
0.00919643
0.0092343
0.00924393
0.00721164
0.00719513
0.00717827
0.00717008
0.00717279
0.00718563
0.00720848
0.00724352
0.00729233
0.00735493
0.00743026
0.00751635
0.00761066
0.00771066
0.00781431
0.00792144
0.00802449
0.00811277
0.00818734
0.0082559
0.00832509
0.00840038
0.00848581
0.00858349
0.00869337
0.00881317
0.00893774
0.00905786
0.00916081
0.00923472
0.00927458
0.00928616
0.00755087
0.00753612
0.00753321
0.00754713
0.00757332
0.00760672
0.0076451
0.00768954
0.00774146
0.0078019
0.00787067
0.00794652
0.00802754
0.00811171
0.00819728
0.00828397
0.00836574
0.00843444
0.00849114
0.00854182
0.00859153
0.00864442
0.00870371
0.00877149
0.00884855
0.00893442
0.00902689
0.00912059
0.00920601
0.00927184
0.0093105
0.00932329
0.00796381
0.00795839
0.00797823
0.00801482
0.00805801
0.00810228
0.00814563
0.00818906
0.00823426
0.00828311
0.00833628
0.00839341
0.0084534
0.00851491
0.00857671
0.00863854
0.00869617
0.00874403
0.00878296
0.00881708
0.00884982
0.00888397
0.00892176
0.00896479
0.00901391
0.00906936
0.0091306
0.00919528
0.00925786
0.00930977
0.00934305
0.00935555
0.00846827
0.00848067
0.00851694
0.00855787
0.00859805
0.00863533
0.00866894
0.00869997
0.00873001
0.00876081
0.0087933
0.0088276
0.00886327
0.00889958
0.00893584
0.00897186
0.00900521
0.00903275
0.00905496
0.00907419
0.00909236
0.00911103
0.00913146
0.00915458
0.00918095
0.00921087
0.00924435
0.0092807
0.00931758
0.0093504
0.00937351
0.00938338
0.00908555
0.00909515
0.00911369
0.00913151
0.00914779
0.00916231
0.00917491
0.00918608
0.00919648
0.00920683
0.00921756
0.00922879
0.00924041
0.0092522
0.00926394
0.00927556
0.00928629
0.00929514
0.00930224
0.00930836
0.00931409
0.00931993
0.00932627
0.00933342
0.00934155
0.00935076
0.00936109
0.00937242
0.00938419
0.00939515
0.0094035
0.00940754
)
;

boundaryField
{
    movingWall
    {
        type            fixedValue;
        value           uniform 0.00942;
    }
    fixedWalls
    {
        type            zeroGradient;
    }
    floor
    {
        type            zeroGradient;
    }
    frontAndBack
    {
        type            empty;
    }
}


// ************************************************************************* //
