/*--------------------------------*- C++ -*----------------------------------*\
| =========                 |                                                 |
| \\      /  F ield         | OpenFOAM: The Open Source CFD Toolbox           |
|  \\    /   O peration     | Version:  2206                                  |
|   \\  /    A nd           | Website:  www.openfoam.com                      |
|    \\/     M anipulation  |                                                 |
\*---------------------------------------------------------------------------*/
FoamFile
{
    version     2.0;
    format      ascii;
    arch        "LSB;label=64;scalar=64";
    class       volVectorField;
    location    "13";
    object      U;
}
// * * * * * * * * * * * * * * * * * * * * * * * * * * * * * * * * * * * * * //

dimensions      [0 1 -1 0 0 0 0];

internalField   nonuniform List<vector> 
1024
(
(2.7497e-08 -2.75589e-08 0)
(3.3789e-08 -1.02255e-08 0)
(-1.12107e-07 2.27537e-08 0)
(-4.78232e-07 5.2005e-08 0)
(-1.08406e-06 7.21369e-08 0)
(-1.91648e-06 8.30888e-08 0)
(-2.94644e-06 8.71419e-08 0)
(-4.14749e-06 8.72504e-08 0)
(-5.50572e-06 8.5438e-08 0)
(-7.01455e-06 8.23171e-08 0)
(-8.66095e-06 7.76545e-08 0)
(-1.04118e-05 7.0931e-08 0)
(-1.22015e-05 6.16272e-08 0)
(-1.39153e-05 4.90975e-08 0)
(-1.5376e-05 3.30217e-08 0)
(-1.63102e-05 1.27246e-08 0)
(-1.63506e-05 -1.03621e-08 0)
(-1.54834e-05 -3.11898e-08 0)
(-1.40628e-05 -4.80199e-08 0)
(-1.23652e-05 -6.13475e-08 0)
(-1.05736e-05 -7.13748e-08 0)
(-8.80923e-06 -7.86923e-08 0)
(-7.14274e-06 -8.38048e-08 0)
(-5.61109e-06 -8.72381e-08 0)
(-4.22988e-06 -8.92361e-08 0)
(-3.00737e-06 -8.91918e-08 0)
(-1.95852e-06 -8.50818e-08 0)
(-1.11045e-06 -7.39501e-08 0)
(-4.92513e-07 -5.35086e-08 0)
(-1.18024e-07 -2.37979e-08 0)
(3.25376e-08 9.80785e-09 0)
(2.76788e-08 2.76671e-08 0)
(1.02291e-08 -3.39194e-08 0)
(-1.39901e-07 1.39987e-07 0)
(-6.69508e-07 4.19095e-07 0)
(-1.73538e-06 6.88045e-07 0)
(-3.4071e-06 8.89241e-07 0)
(-5.68158e-06 1.00722e-06 0)
(-8.50555e-06 1.0547e-06 0)
(-1.18176e-05 1.05656e-06 0)
(-1.55782e-05 1.03291e-06 0)
(-1.97635e-05 9.91596e-07 0)
(-2.43323e-05 9.31273e-07 0)
(-2.91898e-05 8.46777e-07 0)
(-3.41525e-05 7.31845e-07 0)
(-3.89008e-05 5.79973e-07 0)
(-4.2942e-05 3.85626e-07 0)
(-4.5519e-05 1.44293e-07 0)
(-4.56174e-05 -1.23492e-07 0)
(-4.32034e-05 -3.69275e-07 0)
(-3.926e-05 -5.70241e-07 0)
(-3.45514e-05 -7.29172e-07 0)
(-2.95846e-05 -8.50569e-07 0)
(-2.46945e-05 -9.40426e-07 0)
(-2.00771e-05 -1.00486e-06 0)
(-1.58366e-05 -1.04909e-06 0)
(-1.20203e-05 -1.07452e-06 0)
(-8.65638e-06 -1.07336e-06 0)
(-5.78681e-06 -1.0255e-06 0)
(-3.47455e-06 -9.0604e-07 0)
(-1.77362e-06 -7.0223e-07 0)
(-6.8719e-07 -4.29514e-07 0)
(-1.45378e-07 -1.45721e-07 0)
(9.90006e-09 3.25707e-08 0)
(-2.26271e-08 1.11697e-07 0)
(-4.18849e-07 6.69377e-07 0)
(-1.40417e-06 1.40372e-06 0)
(-3.17228e-06 2.11287e-06 0)
(-5.82418e-06 2.66395e-06 0)
(-9.38261e-06 3.00391e-06 0)
(-1.37962e-05 3.15151e-06 0)
(-1.89875e-05 3.16511e-06 0)
(-2.48982e-05 3.09813e-06 0)
(-3.14854e-05 2.97428e-06 0)
(-3.86791e-05 2.79167e-06 0)
(-4.63261e-05 2.53623e-06 0)
(-5.4135e-05 2.18972e-06 0)
(-6.16018e-05 1.73323e-06 0)
(-6.79494e-05 1.1498e-06 0)
(-7.19875e-05 4.27391e-07 0)
(-7.21254e-05 -3.71394e-07 0)
(-6.83158e-05 -1.1057e-06 0)
(-6.21054e-05 -1.70692e-06 0)
(-5.46945e-05 -2.18241e-06 0)
(-4.68801e-05 -2.54634e-06 0)
(-3.91877e-05 -2.81626e-06 0)
(-3.19263e-05 -3.01e-06 0)
(-2.5262e-05 -3.14173e-06 0)
(-1.92737e-05 -3.21354e-06 0)
(-1.401e-05 -3.20185e-06 0)
(-9.53289e-06 -3.05323e-06 0)
(-5.92191e-06 -2.70936e-06 0)
(-3.22918e-06 -2.15151e-06 0)
(-1.43185e-06 -1.43291e-06 0)
(-4.28382e-07 -6.87068e-07 0)
(-2.3519e-08 -1.17434e-07 0)
(-5.18292e-08 4.77485e-07 0)
(-6.89151e-07 1.73599e-06 0)
(-2.1187e-06 3.17261e-06 0)
(-4.54059e-06 4.52929e-06 0)
(-8.05573e-06 5.59902e-06 0)
(-1.27025e-05 6.27997e-06 0)
(-1.84415e-05 6.59153e-06 0)
(-2.51954e-05 6.63203e-06 0)
(-3.28969e-05 6.50011e-06 0)
(-4.14889e-05 6.24318e-06 0)
(-5.08748e-05 5.85941e-06 0)
(-6.08507e-05 5.32135e-06 0)
(-7.10336e-05 4.59178e-06 0)
(-8.07646e-05 3.63181e-06 0)
(-8.90285e-05 2.40573e-06 0)
(-9.42744e-05 8.90109e-07 0)
(-9.44355e-05 -7.82551e-07 0)
(-8.94565e-05 -2.32099e-06 0)
(-8.13529e-05 -3.58121e-06 0)
(-7.16874e-05 -4.57768e-06 0)
(-6.14983e-05 -5.34074e-06 0)
(-5.14695e-05 -5.90662e-06 0)
(-4.20046e-05 -6.31179e-06 0)
(-3.33228e-05 -6.58386e-06 0)
(-2.55308e-05 -6.72503e-06 0)
(-1.86926e-05 -6.68811e-06 0)
(-1.28798e-05 -6.37454e-06 0)
(-8.1719e-06 -5.68618e-06 0)
(-4.60908e-06 -4.60394e-06 0)
(-2.15263e-06 -3.2301e-06 0)
(-7.01143e-07 -1.77252e-06 0)
(-5.30235e-08 -4.90609e-07 0)
(-7.22124e-08 1.08483e-06 0)
(-8.95653e-07 3.41517e-06 0)
(-2.68724e-06 5.83638e-06 0)
(-5.64804e-06 8.05094e-06 0)
(-9.86249e-06 9.79353e-06 0)
(-1.53669e-05 1.09199e-05 0)
(-2.2129e-05 1.14523e-05 0)
(-3.00775e-05 1.15339e-05 0)
(-3.91452e-05 1.13157e-05 0)
(-4.92668e-05 1.08736e-05 0)
(-6.03257e-05 1.02057e-05 0)
(-7.20781e-05 9.26657e-06 0)
(-8.40695e-05 7.99293e-06 0)
(-9.55222e-05 6.31819e-06 0)
(-0.000105239 4.18056e-06 0)
(-0.000111396 1.54124e-06 0)
(-0.000111569 -1.36814e-06 0)
(-0.000105697 -4.04419e-06 0)
(-9.61515e-05 -6.23678e-06 0)
(-8.47689e-05 -7.97027e-06 0)
(-7.2771e-05 -9.2978e-06 0)
(-6.0962e-05 -1.02818e-05 0)
(-4.98186e-05 -1.09841e-05 0)
(-3.96008e-05 -1.14505e-05 0)
(-3.04362e-05 -1.16835e-05 0)
(-2.23976e-05 -1.16075e-05 0)
(-1.55566e-05 -1.10718e-05 0)
(-9.98696e-06 -9.93359e-06 0)
(-5.72154e-06 -8.17143e-06 0)
(-2.72369e-06 -5.93027e-06 0)
(-9.08515e-07 -3.47619e-06 0)
(-7.35009e-08 -1.10764e-06 0)
(-8.39919e-08 1.9258e-06 0)
(-1.02602e-06 5.71863e-06 0)
(-3.06603e-06 9.44162e-06 0)
(-6.41215e-06 1.27479e-05 0)
(-1.11339e-05 1.53214e-05 0)
(-1.72553e-05 1.6989e-05 0)
(-2.47417e-05 1.77886e-05 0)
(-3.35249e-05 1.79185e-05 0)
(-4.35409e-05 1.7589e-05 0)
(-5.47216e-05 1.69072e-05 0)
(-6.69375e-05 1.58691e-05 0)
(-7.99169e-05 1.4406e-05 0)
(-9.31547e-05 1.24216e-05 0)
(-0.000105791 9.81395e-06 0)
(-0.000116504 6.48789e-06 0)
(-0.000123281 2.38525e-06 0)
(-0.000123459 -2.13382e-06 0)
(-0.000116976 -6.28991e-06 0)
(-0.00010644 -9.69579e-06 0)
(-9.38762e-05 -1.23888e-05 0)
(-8.06315e-05 -1.44514e-05 0)
(-6.75937e-05 -1.59796e-05 0)
(-5.52904e-05 -1.70678e-05 0)
(-4.40102e-05 -1.77849e-05 0)
(-3.3894e-05 -1.81358e-05 0)
(-2.50175e-05 -1.80139e-05 0)
(-1.74497e-05 -1.72092e-05 0)
(-1.1261e-05 -1.55245e-05 0)
(-6.48679e-06 -1.2923e-05 0)
(-3.10278e-06 -9.57875e-06 0)
(-1.03885e-06 -5.80856e-06 0)
(-8.52628e-08 -1.95985e-06 0)
(-8.97616e-08 2.98206e-06 0)
(-1.09675e-06 8.62338e-06 0)
(-3.2852e-06 1.39854e-05 0)
(-6.87619e-06 1.86449e-05 0)
(-1.19338e-05 2.22267e-05 0)
(-1.847e-05 2.4537e-05 0)
(-2.64417e-05 2.56466e-05 0)
(-3.57782e-05 2.5826e-05 0)
(-4.64166e-05 2.53556e-05 0)
(-5.82881e-05 2.4376e-05 0)
(-7.12556e-05 2.28783e-05 0)
(-8.50291e-05 2.07648e-05 0)
(-9.90702e-05 1.78988e-05 0)
(-0.000112466 1.41348e-05 0)
(-0.000123813 9.33794e-06 0)
(-0.000130985 3.42625e-06 0)
(-0.000131168 -3.08245e-06 0)
(-0.000124301 -9.06732e-06 0)
(-0.000113136 -1.39733e-05 0)
(-9.98159e-05 -1.7854e-05 0)
(-8.57681e-05 -2.08271e-05 0)
(-7.19341e-05 -2.30297e-05 0)
(-5.88761e-05 -2.45959e-05 0)
(-4.69013e-05 -2.56237e-05 0)
(-3.61588e-05 -2.61234e-05 0)
(-2.67253e-05 -2.59547e-05 0)
(-1.86691e-05 -2.48379e-05 0)
(-1.20632e-05 -2.25039e-05 0)
(-6.95171e-06 -1.88837e-05 0)
(-3.32205e-06 -1.41726e-05 0)
(-1.10947e-06 -8.74628e-06 0)
(-9.10058e-08 -3.02867e-06 0)
(-9.28621e-08 4.2468e-06 0)
(-1.13745e-06 1.21234e-05 0)
(-3.41738e-06 1.94787e-05 0)
(-7.16853e-06 2.5781e-05 0)
(-1.24572e-05 3.05763e-05 0)
(-1.92889e-05 3.36488e-05 0)
(-2.76115e-05 3.51173e-05 0)
(-3.73482e-05 3.53454e-05 0)
(-4.84332e-05 3.4699e-05 0)
(-6.07959e-05 3.33577e-05 0)
(-7.42934e-05 3.13045e-05 0)
(-8.86225e-05 2.84059e-05 0)
(-0.00010322 2.44772e-05 0)
(-0.000117137 1.93214e-05 0)
(-0.000128917 1.27575e-05 0)
(-0.000136356 4.67523e-06 0)
(-0.00013655 -4.22053e-06 0)
(-0.000129434 -1.23996e-05 0)
(-0.000117849 -1.91076e-05 0)
(-0.000104013 -2.44177e-05 0)
(-8.94087e-05 -2.84882e-05 0)
(-7.50158e-05 -3.15048e-05 0)
(-6.14219e-05 -3.36488e-05 0)
(-4.8949e-05 -3.50542e-05 0)
(-3.77526e-05 -3.57393e-05 0)
(-2.79123e-05 -3.55251e-05 0)
(-1.94994e-05 -3.40467e-05 0)
(-1.25935e-05 -3.09422e-05 0)
(-7.24762e-06 -2.60957e-05 0)
(-3.45573e-06 -1.97248e-05 0)
(-1.1506e-06 -1.22847e-05 0)
(-9.41389e-08 -4.30785e-06 0)
(-9.58374e-08 5.74022e-06 0)
(-1.17452e-06 1.62754e-05 0)
(-3.53488e-06 2.60159e-05 0)
(-7.42738e-06 3.42898e-05 0)
(-1.29239e-05 4.054e-05 0)
(-2.00275e-05 4.4521e-05 0)
(-2.86796e-05 4.64104e-05 0)
(-3.87961e-05 4.66878e-05 0)
(-5.03054e-05 4.58241e-05 0)
(-6.31321e-05 4.40459e-05 0)
(-7.71259e-05 4.13259e-05 0)
(-9.197e-05 3.74878e-05 0)
(-0.000107078 3.22904e-05 0)
(-0.000121466 2.54772e-05 0)
(-0.000133633 1.68145e-05 0)
(-0.00014131 6.15874e-06 0)
(-0.000141524 -5.56628e-06 0)
(-0.000134202 -1.63478e-05 0)
(-0.000122252 -2.51979e-05 0)
(-0.000107954 -3.22121e-05 0)
(-9.28403e-05 -3.75945e-05 0)
(-7.79265e-05 -4.15869e-05 0)
(-6.38263e-05 -4.44258e-05 0)
(-5.08774e-05 -4.62881e-05 0)
(-3.92446e-05 -4.72024e-05 0)
(-2.90129e-05 -4.6943e-05 0)
(-2.02603e-05 -4.50399e-05 0)
(-1.30743e-05 -4.10164e-05 0)
(-7.51444e-06 -3.46985e-05 0)
(-3.57699e-06 -2.63347e-05 0)
(-1.18892e-06 -1.64837e-05 0)
(-9.72327e-08 -5.81884e-06 0)
(-1.00021e-07 7.51342e-06 0)
(-1.22437e-06 2.12171e-05 0)
(-3.68706e-06 3.38112e-05 0)
(-7.75385e-06 4.44507e-05 0)
(-1.35027e-05 5.24489e-05 0)
(-2.09363e-05 5.75197e-05 0)
(-2.99906e-05 5.99103e-05 0)
(-4.05737e-05 6.024e-05 0)
(-5.26063e-05 5.91078e-05 0)
(-6.6005e-05 5.6798e-05 0)
(-8.06081e-05 5.32721e-05 0)
(-9.60794e-05 4.83035e-05 0)
(-0.000111803 4.1585e-05 0)
(-0.000126755 3.27922e-05 0)
(-0.00013938 2.16326e-05 0)
(-0.00014734 7.92431e-06 0)
(-0.000147583 -7.15404e-06 0)
(-0.000140031 -2.10248e-05 0)
(-0.000127656 -3.24271e-05 0)
(-0.000112812 -4.14811e-05 0)
(-9.70835e-05 -4.84407e-05 0)
(-8.15335e-05 -5.36111e-05 0)
(-6.68086e-05 -5.72929e-05 0)
(-5.3269e-05 -5.9713e-05 0)
(-4.10934e-05 -6.09116e-05 0)
(-3.03768e-05 -6.06053e-05 0)
(-2.1206e-05 -5.81963e-05 0)
(-1.36769e-05 -5.30689e-05 0)
(-7.85457e-06 -4.49815e-05 0)
(-3.73574e-06 -3.42242e-05 0)
(-1.24102e-06 -2.14864e-05 0)
(-1.01633e-07 -7.61474e-06 0)
(-1.06153e-07 9.64902e-06 0)
(-1.29736e-06 2.71755e-05 0)
(-3.90701e-06 4.32185e-05 0)
(-8.21939e-06 5.67219e-05 0)
(-1.43188e-05 6.68383e-05 0)
(-2.22075e-05 7.32294e-05 0)
(-3.18152e-05 7.62236e-05 0)
(-4.30406e-05 7.66091e-05 0)
(-5.57941e-05 7.51408e-05 0)
(-6.99801e-05 7.21742e-05 0)
(-8.5419e-05 6.76586e-05 0)
(-0.000101746 6.13088e-05 0)
(-0.000118304 5.27425e-05 0)
(-0.000134013 4.15589e-05 0)
(-0.000147247 2.7401e-05 0)
(-0.000155583 1.00444e-05 0)
(-0.000155872 -9.03554e-06 0)
(-0.000148022 -2.66027e-05 0)
(-0.00013509 -4.10763e-05 0)
(-0.000119514 -5.26017e-05 0)
(-0.000102955 -6.14852e-05 0)
(-8.65359e-05 -6.81014e-05 0)
(-7.09519e-05 -7.28237e-05 0)
(-5.65967e-05 -7.5937e-05 0)
(-4.36706e-05 -7.74938e-05 0)
(-3.22837e-05 -7.71393e-05 0)
(-2.25347e-05 -7.41203e-05 0)
(-1.45301e-05 -6.76537e-05 0)
(-8.34156e-06 -5.74185e-05 0)
(-3.96606e-06 -4.37594e-05 0)
(-1.31756e-06 -2.75275e-05 0)
(-1.08107e-07 -9.78119e-06 0)
(-1.15082e-07 1.22708e-05 0)
(-1.40439e-06 3.44939e-05 0)
(-4.22868e-06 5.47775e-05 0)
(-8.89708e-06 7.18041e-05 0)
(-1.55013e-05 8.45267e-05 0)
(-2.40421e-05 9.25398e-05 0)
(-3.44404e-05 9.62698e-05 0)
(-4.65814e-05 9.67111e-05 0)
(-6.03601e-05 9.48104e-05 0)
(-7.56626e-05 9.10113e-05 0)
(-9.22813e-05 8.52506e-05 0)
(-0.000109809 7.7176e-05 0)
(-0.000127526 6.63202e-05 0)
(-0.000144276 5.21999e-05 0)
(-0.00015834 3.43911e-05 0)
(-0.000167186 1.26234e-05 0)
(-0.000167544 -1.12815e-05 0)
(-0.000159302 -3.33246e-05 0)
(-0.000145619 -5.1549e-05 0)
(-0.000129042 -6.61229e-05 0)
(-0.00011133 -7.74031e-05 0)
(-9.36924e-05 -8.58368e-05 0)
(-7.68939e-05 -9.18775e-05 0)
(-6.13791e-05 -9.58762e-05 0)
(-4.73823e-05 -9.78978e-05 0)
(-3.50365e-05 -9.7499e-05 0)
(-2.44586e-05 -9.37355e-05 0)
(-1.57703e-05 -8.56202e-05 0)
(-9.05258e-06 -7.2737e-05 0)
(-4.30382e-06 -5.55007e-05 0)
(-1.43011e-06 -3.49637e-05 0)
(-1.17567e-07 -1.24469e-05 0)
(-1.28104e-07 1.5567e-05 0)
(-1.56171e-06 4.36969e-05 0)
(-4.70139e-06 6.93149e-05 0)
(-9.89131e-06 9.0773e-05 0)
(-1.72325e-05 0.000106771 0)
(-2.67227e-05 0.000116815 0)
(-3.82685e-05 0.000121455 0)
(-5.17339e-05 0.000121941 0)
(-6.69899e-05 0.00011946 0)
(-8.38924e-05 0.000114568 0)
(-0.000102189 0.000107189 0)
(-0.000121407 9.68957e-05 0)
(-0.000140737 8.31282e-05 0)
(-0.000158912 6.53209e-05 0)
(-0.000174098 4.29873e-05 0)
(-0.000183629 1.58109e-05 0)
(-0.000184091 -1.39847e-05 0)
(-0.000175343 -4.1526e-05 0)
(-0.000160663 -6.44163e-05 0)
(-0.000142726 -8.28388e-05 0)
(-0.000123416 -9.71888e-05 0)
(-0.000104062 -0.000107981 0)
(-8.55333e-05 -0.000115751 0)
(-6.83518e-05 -0.000120924 0)
(-5.28065e-05 -0.000123576 0)
(-3.90675e-05 -0.000123151 0)
(-2.72812e-05 -0.000118466 0)
(-1.75932e-05 -0.00010828 0)
(-1.00997e-05 -9.2059e-05 0)
(-4.80204e-06 -7.03105e-05 0)
(-1.59614e-06 -4.43428e-05 0)
(-1.31419e-07 -1.58089e-05 0)
(-1.47469e-07 1.98374e-05 0)
(-1.79606e-06 5.56201e-05 0)
(-5.4053e-06 8.81476e-05 0)
(-1.13701e-05 0.000115341 0)
(-1.9804e-05 0.000135569 0)
(-3.0698e-05 0.000148222 0)
(-4.39354e-05 0.000154002 0)
(-5.93448e-05 0.000154492 0)
(-7.6756e-05 0.000151188 0)
(-9.59727e-05 0.000144789 0)
(-0.000116669 0.000135213 0)
(-0.000138265 0.000121951 0)
(-0.00015982 0.000104354 0)
(-0.000179917 8.17892e-05 0)
(-0.000196578 5.37302e-05 0)
(-0.000207002 1.98205e-05 0)
(-0.000207622 -1.72592e-05 0)
(-0.000198261 -5.16604e-05 0)
(-0.000182306 -8.0481e-05 0)
(-0.00016256 -0.000103903 0)
(-0.000141058 -0.000122326 0)
(-0.000119292 -0.000136307 0)
(-9.82843e-05 -0.000146456 0)
(-7.86827e-05 -0.00015327 0)
(-6.08663e-05 -0.00015683 0)
(-4.50703e-05 -0.000156434 0)
(-3.14916e-05 -0.000150591 0)
(-2.03161e-05 -0.000137734 0)
(-1.16658e-05 -0.000117185 0)
(-5.54792e-06 -8.9573e-05 0)
(-1.84479e-06 -5.65437e-05 0)
(-1.52141e-07 -2.01829e-05 0)
(-1.76926e-07 2.55765e-05 0)
(-2.15378e-06 7.16406e-05 0)
(-6.47962e-06 0.000113444 0)
(-1.36254e-05 0.000148325 0)
(-2.37208e-05 0.000174201 0)
(-3.67433e-05 0.000190303 0)
(-5.25339e-05 0.000197532 0)
(-7.08582e-05 0.000197909 0)
(-9.14695e-05 0.000193342 0)
(-0.000114075 0.000184729 0)
(-0.000138218 0.000171994 0)
(-0.000163147 0.000154557 0)
(-0.000187718 0.000131711 0)
(-0.000210318 0.00010281 0)
(-0.000228821 6.73477e-05 0)
(-0.000240336 2.4946e-05 0)
(-0.000241203 -2.12229e-05 0)
(-0.000231195 -6.4295e-05 0)
(-0.00021373 -0.000100822 0)
(-0.000191688 -0.000130953 0)
(-0.000167248 -0.00015502 0)
(-0.000142115 -0.000173545 0)
(-0.000117541 -0.000187165 0)
(-9.43776e-05 -0.000196432 0)
(-7.31644e-05 -0.000201409 0)
(-5.42579e-05 -0.00020119 0)
(-3.79492e-05 -0.000193873 0)
(-2.44982e-05 -0.000177465 0)
(-1.40733e-05 -0.000151102 0)
(-6.69507e-06 -0.000115587 0)
(-2.22715e-06 -7.30272e-05 0)
(-1.83896e-07 -2.60944e-05 0)
(-2.2372e-07 3.36527e-05 0)
(-2.72347e-06 9.41773e-05 0)
(-8.1902e-06 0.000149012 0)
(-1.72128e-05 0.000194663 0)
(-2.99404e-05 0.000228403 0)
(-4.63184e-05 0.000249224 0)
(-6.61048e-05 0.000258297 0)
(-8.89415e-05 0.000258249 0)
(-0.000114428 0.000251556 0)
(-0.000142079 0.000239409 0)
(-0.000171191 0.000221786 0)
(-0.000200717 0.000198093 0)
(-0.00022921 0.000167671 0)
(-0.000254829 0.000130012 0)
(-0.000275367 8.47657e-05 0)
(-0.000288029 3.15765e-05 0)
(-0.000289285 -2.59363e-05 0)
(-0.000278847 -8.00394e-05 0)
(-0.000259928 -0.000126792 0)
(-0.000235273 -0.000166273 0)
(-0.000207112 -0.000198582 0)
(-0.000177382 -0.000224025 0)
(-0.000147668 -0.000243123 0)
(-0.000119169 -0.000256388 0)
(-9.2729e-05 -0.000263802 0)
(-6.89476e-05 -0.000264149 0)
(-4.83092e-05 -0.000254957 0)
(-3.12226e-05 -0.000233647 0)
(-1.79496e-05 -0.000199118 0)
(-8.54346e-06 -0.000152443 0)
(-2.84323e-06 -9.63914e-05 0)
(-2.3494e-07 -3.44775e-05 0)
(-2.99579e-07 4.4864e-05 0)
(-3.632e-06 0.000125446 0)
(-1.09109e-05 0.000198315 0)
(-2.29031e-05 0.000258798 0)
(-3.97738e-05 0.000303244 0)
(-6.13931e-05 0.000330284 0)
(-8.73473e-05 0.000341436 0)
(-0.000117023 0.000340142 0)
(-0.000149699 0.000329667 0)
(-0.000184497 0.000311654 0)
(-0.000220246 0.000286273 0)
(-0.000255412 0.000253125 0)
(-0.00028815 0.000211892 0)
(-0.000316466 0.000162541 0)
(-0.00033836 0.000105156 0)
(-0.000351631 3.94457e-05 0)
(-0.000353448 -3.08173e-05 0)
(-0.00034349 -9.76998e-05 0)
(-0.000324203 -0.000157139 0)
(-0.000297653 -0.000209153 0)
(-0.000265762 -0.000253343 0)
(-0.000230558 -0.000289411 0)
(-0.00019403 -0.000317386 0)
(-0.000157935 -0.00033746 0)
(-0.000123686 -0.000349321 0)
(-9.23848e-05 -0.000351246 0)
(-6.49317e-05 -0.000339964 0)
(-4.20525e-05 -0.000312117 0)
(-2.42097e-05 -0.000266329 0)
(-1.15352e-05 -0.000204099 0)
(-3.84277e-06 -0.000129165 0)
(-3.19241e-07 -4.62443e-05 0)
(-4.12506e-07 5.9104e-05 0)
(-4.98194e-06 0.000165121 0)
(-1.4947e-05 0.000260773 0)
(-3.13208e-05 0.000339829 0)
(-5.42567e-05 0.000397403 0)
(-8.34518e-05 0.000431611 0)
(-0.000118143 0.00044436 0)
(-0.000157207 0.000440102 0)
(-0.000199288 0.000423141 0)
(-0.00024278 0.000395838 0)
(-0.000285749 0.000358907 0)
(-0.00032601 0.000312606 0)
(-0.0003614 0.000257506 0)
(-0.000390136 0.000194534 0)
(-0.000411057 0.000124473 0)
(-0.000423376 4.70456e-05 0)
(-0.000425832 -3.4469e-05 0)
(-0.000418166 -0.000113182 0)
(-0.000401285 -0.000185716 0)
(-0.000375723 -0.000252248 0)
(-0.00034233 -0.000311717 0)
(-0.000302699 -0.000362734 0)
(-0.000259017 -0.000404194 0)
(-0.000213715 -0.000435336 0)
(-0.000169114 -0.000455047 0)
(-0.000127258 -0.000460702 0)
(-8.98925e-05 -0.000447929 0)
(-5.8407e-05 -0.000412428 0)
(-3.36936e-05 -0.000352577 0)
(-1.6075e-05 -0.000270534 0)
(-5.36027e-06 -0.000171372 0)
(-4.47501e-07 -6.14132e-05 0)
(-5.71751e-07 7.6205e-05 0)
(-6.90677e-06 0.000212703 0)
(-2.06985e-05 0.000335507 0)
(-4.32765e-05 0.000436407 0)
(-7.46999e-05 0.000508912 0)
(-0.000114287 0.000550417 0)
(-0.000160588 0.000563237 0)
(-0.000211523 0.00055306 0)
(-0.000264615 0.000525603 0)
(-0.000317105 0.000484453 0)
(-0.000366065 0.000431513 0)
(-0.000408748 0.00036843 0)
(-0.000443118 0.000297298 0)
(-0.000468326 0.000220365 0)
(-0.000484857 0.000139122 0)
(-0.000494103 5.30128e-05 0)
(-0.000497104 -3.59271e-05 0)
(-0.000493805 -0.000123098 0)
(-0.000483042 -0.000206764 0)
(-0.000463106 -0.000287797 0)
(-0.00043287 -0.00036472 0)
(-0.000392522 -0.000434849 0)
(-0.000343706 -0.000495282 0)
(-0.000289213 -0.000543365 0)
(-0.000232448 -0.000576207 0)
(-0.000176934 -0.000589465 0)
(-0.000125961 -0.000577116 0)
(-8.22422e-05 -0.000533696 0)
(-4.75742e-05 -0.000457451 0)
(-2.27264e-05 -0.000351564 0)
(-7.57903e-06 -0.000222926 0)
(-6.32359e-07 -7.99563e-05 0)
(-8.08584e-07 9.69582e-05 0)
(-9.74734e-06 0.000270355 0)
(-2.9153e-05 0.000425773 0)
(-6.07375e-05 0.000552377 0)
(-0.000104257 0.000641525 0)
(-0.000158221 0.000689592 0)
(-0.000219843 0.000699384 0)
(-0.000285326 0.000678304 0)
(-0.00035038 0.000634259 0)
(-0.000410682 0.000573043 0)
(-0.000462368 0.000498797 0)
(-0.000502701 0.000415438 0)
(-0.000530707 0.000327051 0)
(-0.000547459 0.000237152 0)
(-0.000555831 0.000147494 0)
(-0.00055983 5.67295e-05 0)
(-0.000563134 -3.49855e-05 0)
(-0.000566038 -0.000126131 0)
(-0.000565217 -0.000217381 0)
(-0.000556477 -0.000311051 0)
(-0.000536036 -0.000406074 0)
(-0.000501493 -0.000498945 0)
(-0.000452556 -0.000584737 0)
(-0.00039126 -0.000657904 0)
(-0.000321659 -0.000712234 0)
(-0.000249143 -0.000740008 0)
(-0.000179561 -0.000732248 0)
(-0.000118161 -0.000681705 0)
(-6.8653e-05 -0.000586605 0)
(-3.28583e-05 -0.000451787 0)
(-1.09579e-05 -0.000286792 0)
(-9.14343e-07 -0.000102929 0)
(-1.17351e-06 0.000122698 0)
(-1.41037e-05 0.000341676 0)
(-4.20427e-05 0.00053687 0)
(-8.70898e-05 0.000693799 0)
(-0.000148179 0.000800823 0)
(-0.000222091 0.000852962 0)
(-0.000303511 0.000853907 0)
(-0.00038575 0.000813874 0)
(-0.000461949 0.000744523 0)
(-0.000526211 0.000655503 0)
(-0.00057452 0.000554543 0)
(-0.000605476 0.000448512 0)
(-0.000620549 0.000343353 0)
(-0.000623697 0.000243106 0)
(-0.000620516 0.000148877 0)
(-0.00061749 5.79158e-05 0)
(-0.000620743 -3.18222e-05 0)
(-0.000630993 -0.000122014 0)
(-0.000643167 -0.000216037 0)
(-0.000651069 -0.000318338 0)
(-0.000648293 -0.000429531 0)
(-0.000629 -0.000546712 0)
(-0.000589192 -0.000663826 0)
(-0.000527918 -0.000772131 0)
(-0.000448048 -0.000860335 0)
(-0.000356247 -0.000914515 0)
(-0.000261849 -0.000919859 0)
(-0.000174613 -0.000865515 0)
(-0.000102245 -0.00074943 0)
(-4.91091e-05 -0.000579061 0)
(-1.63791e-05 -0.000368092 0)
(-1.36505e-06 -0.000132162 0)
(-1.76718e-06 0.000155527 0)
(-2.10992e-05 0.000432253 0)
(-6.25009e-05 0.00067678 0)
(-0.0001282 0.000869265 0)
(-0.000215041 0.000993868 0)
(-0.000316209 0.00104416 0)
(-0.000421855 0.00102601 0)
(-0.000520963 0.000954855 0)
(-0.000603861 0.000848868 0)
(-0.000664164 0.000723804 0)
(-0.000699691 0.000592092 0)
(-0.000712442 0.000463365 0)
(-0.000707741 0.000344263 0)
(-0.000692874 0.000237884 0)
(-0.000675789 0.000143552 0)
(-0.000664684 5.66582e-05 0)
(-0.000667469 -2.69382e-05 0)
(-0.000685251 -0.000111566 0)
(-0.000711939 -0.000202981 0)
(-0.00074047 -0.000307998 0)
(-0.000762872 -0.000430124 0)
(-0.000770155 -0.000569208 0)
(-0.00075342 -0.000720558 0)
(-0.000705833 -0.000873886 0)
(-0.000625226 -0.00101221 0)
(-0.000516409 -0.00111187 0)
(-0.000391548 -0.00114683 0)
(-0.000267161 -0.00109788 0)
(-0.000158799 -0.000960747 0)
(-7.68972e-05 -0.000746496 0)
(-2.57141e-05 -0.000475585 0)
(-2.14532e-06 -0.00017081 0)
(-2.7991e-06 0.000199027 0)
(-3.2919e-05 0.000551227 0)
(-9.62667e-05 0.000857816 0)
(-0.000194062 0.00109077 0)
(-0.000318112 0.00122873 0)
(-0.00045454 0.00126492 0)
(-0.000586222 0.00121086 0)
(-0.000696971 0.00109182 0)
(-0.000775786 0.000936455 0)
(-0.00081886 0.000768698 0)
(-0.000829084 0.000605507 0)
(-0.000814049 0.000457492 0)
(-0.000783598 0.00032973 0)
(-0.000747787 0.00022256 0)
(-0.000715772 0.000132601 0)
(-0.000696285 5.33191e-05 0)
(-0.000698116 -2.10174e-05 0)
(-0.00072261 -9.64188e-05 0)
(-0.000763386 -0.000180171 0)
(-0.000813878 -0.000281003 0)
(-0.000866441 -0.000405783 0)
(-0.000910854 -0.000559054 0)
(-0.000934133 -0.000741156 0)
(-0.000921807 -0.000944787 0)
(-0.000861621 -0.00115026 0)
(-0.000749542 -0.00132245 0)
(-0.00059524 -0.00141656 0)
(-0.000421813 -0.00139488 0)
(-0.000257856 -0.00124376 0)
(-0.000127214 -0.000976904 0)
(-4.30205e-05 -0.000625461 0)
(-3.63331e-06 -0.000224952 0)
(-4.71549e-06 0.000259492 0)
(-5.36452e-05 0.000713501 0)
(-0.00015296 0.00109805 0)
(-0.000299355 0.00137293 0)
(-0.000473448 0.00151128 0)
(-0.000648999 0.00151066 0)
(-0.000799479 0.00139574 0)
(-0.000905494 0.00120882 0)
(-0.000959616 0.000993103 0)
(-0.000965949 0.000780792 0)
(-0.00093601 0.000590624 0)
(-0.000884013 0.000430595 0)
(-0.000823416 0.000301395 0)
(-0.000765319 0.000199143 0)
(-0.000718399 0.000117477 0)
(-0.000690632 4.83494e-05 0)
(-0.000690791 -1.48125e-05 0)
(-0.00072019 -7.86206e-05 0)
(-0.000772598 -0.000150807 0)
(-0.000842948 -0.000240956 0)
(-0.000925858 -0.000358587 0)
(-0.00101296 -0.000513459 0)
(-0.00109079 -0.000714025 0)
(-0.00113934 -0.000962476 0)
(-0.00113376 -0.00124485 0)
(-0.00105228 -0.00151958 0)
(-0.000889577 -0.00171799 0)
(-0.00066671 -0.00176804 0)
(-0.000426868 -0.00162864 0)
(-0.000218214 -0.00130668 0)
(-7.58794e-05 -0.00084663 0)
(-6.64588e-06 -0.000306376 0)
(-8.39406e-06 0.000347503 0)
(-8.97827e-05 0.000941023 0)
(-0.000244941 0.00141917 0)
(-0.000457392 0.00172617 0)
(-0.000686038 0.00183543 0)
(-0.000887261 0.00176106 0)
(-0.00102776 0.00155386 0)
(-0.0010932 0.00128118 0)
(-0.00108892 0.00100175 0)
(-0.00103298 0.000751676 0)
(-0.000947077 0.000545583 0)
(-0.000850358 0.000384291 0)
(-0.000756989 0.000261891 0)
(-0.000676471 0.000169904 0)
(-0.000615173 9.95551e-05 0)
(-0.000579184 4.20964e-05 0)
(-0.000576516 -9.08587e-06 0)
(-0.000608095 -6.02857e-05 0)
(-0.000667851 -0.000118682 0)
(-0.000752431 -0.000193448 0)
(-0.000859714 -0.000295107 0)
(-0.000985841 -0.000437102 0)
(-0.00112193 -0.000636266 0)
(-0.00124941 -0.000909171 0)
(-0.00133621 -0.0012593 0)
(-0.00134003 -0.00165374 0)
(-0.00122572 -0.002007 0)
(-0.000990732 -0.00219974 0)
(-0.00067882 -0.00213283 0)
(-0.000367439 -0.001777 0)
(-0.000134345 -0.00118044 0)
(-1.25733e-05 -0.000434459 0)
(-1.54372e-05 0.000478501 0)
(-0.000149708 0.00125836 0)
(-0.000380568 0.00183352 0)
(-0.000661597 0.00213731 0)
(-0.000917879 0.00216348 0)
(-0.00109156 0.00196648 0)
(-0.00115722 0.001639 0)
(-0.00112225 0.00127623 0)
(-0.00101535 0.000945285 0)
(-0.000870573 0.000676085 0)
(-0.000716169 0.000471519 0)
(-0.000570825 0.000321864 0)
(-0.0004449 0.000214351 0)
(-0.000343446 0.000137017 0)
(-0.000269017 7.99769e-05 0)
(-0.000225034 3.47862e-05 0)
(-0.000218219 -4.51574e-06 0)
(-0.000248777 -4.32809e-05 0)
(-0.000310512 -8.74612e-05 0)
(-0.000401267 -0.000144806 0)
(-0.000521801 -0.000225034 0)
(-0.00067342 -0.000342387 0)
(-0.000855216 -0.000518721 0)
(-0.00105849 -0.000784025 0)
(-0.00125766 -0.0011666 0)
(-0.00140274 -0.00166234 0)
(-0.00142708 -0.00219482 0)
(-0.00127959 -0.00260661 0)
(-0.000966271 -0.00271372 0)
(-0.000570623 -0.0023964 0)
(-0.000226093 -0.0016625 0)
(-2.34125e-05 -0.000632828 0)
(-2.9147e-05 0.000672561 0)
(-0.000243488 0.00168053 0)
(-0.000553363 0.0023187 0)
(-0.000859542 0.00254125 0)
(-0.00105371 0.00240784 0)
(-0.0010901 0.00204492 0)
(-0.000982294 0.00159377 0)
(-0.000778116 0.00116488 0)
(-0.000531701 0.000815592 0)
(-0.000284851 0.000556722 0)
(-6.18807e-05 0.000374437 0)
(0.000126877 0.000248845 0)
(0.000279275 0.00016264 0)
(0.00039661 0.000102802 0)
(0.000480739 5.99033e-05 0)
(0.000531119 2.67428e-05 0)
(0.000542586 -1.50274e-06 0)
(0.000515783 -2.89261e-05 0)
(0.000457231 -5.99795e-05 0)
(0.000368626 -0.000100493 0)
(0.000247557 -0.000158165 0)
(8.89385e-05 -0.000245394 0)
(-0.000113971 -0.000383716 0)
(-0.000366346 -0.00060908 0)
(-0.000662866 -0.000970028 0)
(-0.000971421 -0.00150196 0)
(-0.00121892 -0.00217277 0)
(-0.00130426 -0.00283228 0)
(-0.00115072 -0.00322505 0)
(-0.000780887 -0.00308714 0)
(-0.000352485 -0.00228982 0)
(-4.27526e-05 -0.000922552 0)
(-5.56865e-05 0.000955347 0)
(-0.00038201 0.00219549 0)
(-0.000724683 0.00278843 0)
(-0.000926368 0.00280458 0)
(-0.000891089 0.00244006 0)
(-0.000644662 0.00190971 0)
(-0.000272452 0.00138012 0)
(0.000137087 0.000943444 0)
(0.000522294 0.000624727 0)
(0.000853555 0.000408468 0)
(0.00112388 0.000266353 0)
(0.00133747 0.000173302 0)
(0.00150213 0.000111687 0)
(0.00162522 7.00453e-05 0)
(0.00171227 4.07992e-05 0)
(0.0017651 1.86012e-05 0)
(0.00178007 1.1313e-12 0)
(0.00175849 -1.7804e-05 0)
(0.001707 -3.78015e-05 0)
(0.00162726 -6.39035e-05 0)
(0.00151638 -0.000101426 0)
(0.00136762 -0.000159488 0)
(0.00116962 -0.00025518 0)
(0.000905848 -0.000420893 0)
(0.000557971 -0.000710034 0)
(0.000120236 -0.00118675 0)
(-0.000369604 -0.00188102 0)
(-0.000803189 -0.00271401 0)
(-0.00101738 -0.00343852 0)
(-0.000893336 -0.00365776 0)
(-0.000502938 -0.00298968 0)
(-7.57182e-05 -0.00131624 0)
(-9.89969e-05 0.00136988 0)
(-0.00055143 0.0027407 0)
(-0.000766876 0.00306716 0)
(-0.000620413 0.00274161 0)
(-0.000154519 0.00214261 0)
(0.00047498 0.00152453 0)
(0.00112119 0.00101496 0)
(0.00169397 0.000648137 0)
(0.0021602 0.00040706 0)
(0.00252299 0.000256388 0)
(0.00279965 0.000163197 0)
(0.00300869 0.000104619 0)
(0.00316522 6.68228e-05 0)
(0.00328018 4.17137e-05 0)
(0.00336086 2.43064e-05 0)
(0.00341032 1.12468e-05 0)
(0.0034262 4.17478e-07 0)
(0.00341007 -9.82891e-06 0)
(0.00336806 -2.12708e-05 0)
(0.00330183 -3.62e-05 0)
(0.00320869 -5.77991e-05 0)
(0.00308195 -9.17261e-05 0)
(0.00290909 -0.000149141 0)
(0.00266838 -0.000252877 0)
(0.00232575 -0.000445687 0)
(0.00183908 -0.000793792 0)
(0.00118494 -0.0013692 0)
(0.000410951 -0.00219567 0)
(-0.000309188 -0.00314765 0)
(-0.000709217 -0.00383555 0)
(-0.000619363 -0.00360987 0)
(-0.000121878 -0.00183389 0)
(-0.000171464 0.00202286 0)
(-0.000617312 0.00316057 0)
(-0.000325157 0.00289336 0)
(0.000474343 0.00219898 0)
(0.00146055 0.00150483 0)
(0.00240592 0.000959212 0)
(0.00319508 0.000584471 0)
(0.00380003 0.000348719 0)
(0.00424393 0.000208806 0)
(0.00456591 0.000127725 0)
(0.00480085 8.00394e-05 0)
(0.00497377 5.09156e-05 0)
(0.00510126 3.24004e-05 0)
(0.00519405 2.01964e-05 0)
(0.00525895 1.17815e-05 0)
(0.00529902 5.49883e-06 0)
(0.00531278 3.12988e-07 0)
(0.00530164 -4.5603e-06 0)
(0.00527051 -9.99071e-06 0)
(0.00522081 -1.70854e-05 0)
(0.00515039 -2.74095e-05 0)
(0.00505369 -4.38157e-05 0)
(0.00491968 -7.21013e-05 0)
(0.00472776 -0.00012466 0)
(0.00444096 -0.000226597 0)
(0.0040004 -0.000423512 0)
(0.00333313 -0.000785919 0)
(0.00239139 -0.00140106 0)
(0.00123464 -0.00231335 0)
(0.000114143 -0.0033614 0)
(-0.00051455 -0.0038972 0)
(-0.000188627 -0.00253783 0)
(-0.000117718 0.0026101 0)
(1.46799e-05 0.00296737 0)
(0.00138797 0.00204929 0)
(0.0029043 0.00125863 0)
(0.00415875 0.000726765 0)
(0.0051057 0.000403306 0)
(0.00577887 0.000221191 0)
(0.00623907 0.000122774 0)
(0.00655164 7.04696e-05 0)
(0.00676813 4.23107e-05 0)
(0.00692243 2.6392e-05 0)
(0.00703478 1.68058e-05 0)
(0.00711723 1.07199e-05 0)
(0.00717713 6.6973e-06 0)
(0.00721903 3.9153e-06 0)
(0.007245 1.8316e-06 0)
(0.00725418 1.10074e-07 0)
(0.00724752 -1.5113e-06 0)
(0.00722815 -3.32102e-06 0)
(0.007197 -5.69766e-06 0)
(0.00715262 -9.18422e-06 0)
(0.00709124 -1.47954e-05 0)
(0.0070052 -2.46296e-05 0)
(0.00687966 -4.32919e-05 0)
(0.00668637 -8.05766e-05 0)
(0.00637482 -0.000156311 0)
(0.00586479 -0.000308889 0)
(0.00504868 -0.000611834 0)
(0.00381655 -0.00118706 0)
(0.00213045 -0.00215214 0)
(0.000389078 -0.00329573 0)
(-4.10494e-05 -0.00293688 0)
(0.00261807 0.00119726 0)
(0.00376865 0.000984579 0)
(0.00568485 0.000443776 0)
(0.00702863 0.000198119 0)
(0.00781296 9.24924e-05 0)
(0.00828307 4.18925e-05 0)
(0.00856914 1.93161e-05 0)
(0.00874509 9.60969e-06 0)
(0.00885763 5.2621e-06 0)
(0.00893368 3.15393e-06 0)
(0.00898767 2.00456e-06 0)
(0.00902715 1.30451e-06 0)
(0.00905627 8.47591e-07 0)
(0.00907751 5.36996e-07 0)
(0.00909242 3.17607e-07 0)