/*--------------------------------*- C++ -*----------------------------------*\
| =========                 |                                                 |
| \\      /  F ield         | OpenFOAM: The Open Source CFD Toolbox           |
|  \\    /   O peration     | Version:  2212                                  |
|   \\  /    A nd           | Website:  www.openfoam.com                      |
|    \\/     M anipulation  |                                                 |
\*---------------------------------------------------------------------------*/
FoamFile
{
    version     2.0;
    format      ascii;
    arch        "LSB;label=64;scalar=64";
    class       volScalarField::Internal;
    location    "560";
    object      dGco2;
}
// * * * * * * * * * * * * * * * * * * * * * * * * * * * * * * * * * * * * * //

dimensions      [1 -3 -1 0 0 0 0];

value           nonuniform List<scalar> 
1024
(
0.000149028
0.000149041
0.000149097
0.000149204
0.000149372
0.000149605
0.000149898
0.000150232
0.000150584
0.000150931
0.000151257
0.000151555
0.00015181
0.000151993
0.000152049
0.000151897
0.000151474
0.00015091
0.000150329
0.00014977
0.00014925
0.000148774
0.00014834
0.000147946
0.00014759
0.000147277
0.000147016
0.000146812
0.000146665
0.000146569
0.000146516
0.000146494
0.000149021
0.000149043
0.000149103
0.000149215
0.000149389
0.000149628
0.000149925
0.000150263
0.000150616
0.000150962
0.000151288
0.000151585
0.000151841
0.000152027
0.000152085
0.000151933
0.000151508
0.000150941
0.000150358
0.000149798
0.000149277
0.0001488
0.000148366
0.00014797
0.000147613
0.000147297
0.000147032
0.000146824
0.000146673
0.000146575
0.00014652
0.000146498
0.000149027
0.000149054
0.00014912
0.000149239
0.000149423
0.000149673
0.000149979
0.000150322
0.000150676
0.00015102
0.000151346
0.000151645
0.000151908
0.000152104
0.000152172
0.000152024
0.000151591
0.000151014
0.000150425
0.000149859
0.000149334
0.000148855
0.000148418
0.000148019
0.000147657
0.000147336
0.000147064
0.000146848
0.000146691
0.000146588
0.00014653
0.000146506
0.000149044
0.000149073
0.000149146
0.000149276
0.000149473
0.000149736
0.000150054
0.000150401
0.000150755
0.000151098
0.000151425
0.000151733
0.000152014
0.000152236
0.000152331
0.000152193
0.000151745
0.000151145
0.000150538
0.000149961
0.000149426
0.000148939
0.000148496
0.000148091
0.000147721
0.000147391
0.000147109
0.000146882
0.000146716
0.000146607
0.000146545
0.00014652
0.000149068
0.000149101
0.00014918
0.000149321
0.000149531
0.000149808
0.000150135
0.000150486
0.000150839
0.000151182
0.000151516
0.000151843
0.00015216
0.000152433
0.000152578
0.000152461
0.00015199
0.00015135
0.000150711
0.000150109
0.000149556
0.000149054
0.000148597
0.00014818
0.000147798
0.000147456
0.000147161
0.000146923
0.000146747
0.000146631
0.000146565
0.000146539
0.000149096
0.000149131
0.000149215
0.000149365
0.000149586
0.000149872
0.000150204
0.000150556
0.000150907
0.000151253
0.000151601
0.000151962
0.000152338
0.000152694
0.000152923
0.000152846
0.000152344
0.000151645
0.000150954
0.000150311
0.000149726
0.000149197
0.000148717
0.00014828
0.000147881
0.000147523
0.000147214
0.000146964
0.000146779
0.000146657
0.000146589
0.000146561
0.000149121
0.000149157
0.000149244
0.000149397
0.000149622
0.000149911
0.000150242
0.000150588
0.000150936
0.000151286
0.000151655
0.000152066
0.000152526
0.000153003
0.000153356
0.000153345
0.000152814
0.000152041
0.000151277
0.000150573
0.000149938
0.000149366
0.00014885
0.000148383
0.00014796
0.000147584
0.000147261
0.000147001
0.000146809
0.000146683
0.000146613
0.000146584
0.000149134
0.00014917
0.000149256
0.000149406
0.000149626
0.000149906
0.000150225
0.00015056
0.0001509
0.000151252
0.000151645
0.000152113
0.000152682
0.000153321
0.000153848
0.000153939
0.00015339
0.000152535
0.00015168
0.000150894
0.000150188
0.000149556
0.000148989
0.000148482
0.000148028
0.000147631
0.000147296
0.000147029
0.000146833
0.000146705
0.000146634
0.000146606
0.000149125
0.00014916
0.000149241
0.000149381
0.000149584
0.000149843
0.000150138
0.00015045
0.000150771
0.000151116
0.000151527
0.000152056
0.000152754
0.000153599
0.000154356
0.000154586
0.000154038
0.000153103
0.000152147
0.000151262
0.000150468
0.000149759
0.000149128
0.000148569
0.00014808
0.000147661
0.000147314
0.000147043
0.000146847
0.00014672
0.00014665
0.000146622
0.000149081
0.000149114
0.000149188
0.000149312
0.000149488
0.000149712
0.000149968
0.00015024
0.000150526
0.000150849
0.000151265
0.000151856
0.000152709
0.000153815
0.000154854
0.000155249
0.000154708
0.000153693
0.000152631
0.000151642
0.000150751
0.000149956
0.000149253
0.000148638
0.000148111
0.00014767
0.000147315
0.000147043
0.00014685
0.000146726
0.000146657
0.000146629
0.000148987
0.000149018
0.000149084
0.000149187
0.00014933
0.000149508
0.00014971
0.000149925
0.000150159
0.000150445
0.000150861
0.000151529
0.000152588
0.000154023
0.000155376
0.000155914
0.000155341
0.000154225
0.000153055
0.000151966
0.000150984
0.000150109
0.000149339
0.000148674
0.000148114
0.000147656
0.000147297
0.000147027
0.000146839
0.000146719
0.000146653
0.000146625
0.00014882
0.000148849
0.000148907
0.000148992
0.000149101
0.000149229
0.000149369
0.000149519
0.000149693
0.000149946
0.000150393
0.00015121
0.000152581
0.000154411
0.000156045
0.000156606
0.000155877
0.000154592
0.000153299
0.000152122
0.000151074
0.000150146
0.000149336
0.000148644
0.00014807
0.00014761
0.000147255
0.000146994
0.000146813
0.000146697
0.000146633
0.000146606
0.000148588
0.000148604
0.00014864
0.000148698
0.000148773
0.000148859
0.00014895
0.000149055
0.000149209
0.000149504
0.000150109
0.000151254
0.00015308
0.000155303
0.000157038
0.000157349
0.000156233
0.000154656
0.000153203
0.000151955
0.000150884
0.000149956
0.000149159
0.000148488
0.000147941
0.000147507
0.000147175
0.000146931
0.000146762
0.000146653
0.00014659
0.000146563
0.000148703
0.000148669
0.000148613
0.000148556
0.000148522
0.00014853
0.000148597
0.000148753
0.000149064
0.000149658
0.000150724
0.00015244
0.000154758
0.000157117
0.000158475
0.000158047
0.000156225
0.000154217
0.000152576
0.000151284
0.000150246
0.000149394
0.00014869
0.000148118
0.00014766
0.0001473
0.000147023
0.000146816
0.000146668
0.000146569
0.00014651
0.000146483
0.000151214
0.000151124
0.000150952
0.000150731
0.000150521
0.000150398
0.000150442
0.000150736
0.000151369
0.000152443
0.000154043
0.000156132
0.000158371
0.00015999
0.000160065
0.000158283
0.000155523
0.000153064
0.000151283
0.000150006
0.000149071
0.000148374
0.00014785
0.000147455
0.000147152
0.000146915
0.000146729
0.000146583
0.00014647
0.000146388
0.000146335
0.000146309
0.000158344
0.000158296
0.000158195
0.000158057
0.000157925
0.000157869
0.000157977
0.000158333
0.000159
0.000159991
0.000161218
0.000162419
0.000163105
0.00016264
0.000160647
0.000157422
0.000154048
0.000151474
0.000149737
0.000148549
0.000147722
0.000147163
0.000146819
0.00014663
0.000146519
0.000146426
0.000146323
0.000146216
0.000146127
0.00014607
0.000146044
0.000146037
0.000166217
0.000166244
0.000166292
0.000166352
0.000166417
0.00016649
0.000166582
0.000166704
0.000166844
0.000166928
0.000166802
0.000166225
0.000164932
0.000162778
0.000159907
0.000156768
0.000154076
0.000152239
0.000150961
0.000149862
0.000148793
0.00014776
0.00014684
0.000146119
0.000145652
0.000145463
0.000145537
0.000145827
0.000146251
0.000146698
0.000147055
0.000147246
0.000170316
0.00017035
0.000170409
0.000170476
0.000170526
0.000170531
0.000170462
0.000170289
0.000169975
0.00016947
0.000168715
0.000167658
0.0001663
0.000164741
0.000163215
0.000162081
0.00016174
0.0001622
0.000162968
0.000163614
0.000163924
0.000163852
0.000163479
0.000162942
0.000162407
0.000162027
0.000161902
0.000162066
0.000162464
0.000162964
0.000163402
0.000163648
0.000172355
0.000172379
0.000172421
0.00017247
0.000172511
0.000172524
0.000172491
0.000172394
0.000172219
0.000171965
0.000171654
0.000171346
0.000171152
0.000171257
0.000171967
0.000173762
0.000177065
0.000181597
0.000186457
0.000191
0.000194829
0.00019775
0.000199752
0.000200893
0.000201245
0.000200932
0.000200102
0.000198964
0.000197774
0.000196789
0.00019617
0.000195917
0.000173784
0.000173808
0.00017386
0.000173946
0.000174069
0.000174233
0.000174437
0.000174678
0.000174957
0.000175286
0.000175712
0.000176329
0.000177293
0.000178854
0.000181399
0.000185516
0.000191576
0.000198901
0.000206183
0.000212689
0.000218084
0.000222294
0.000225456
0.00022764
0.000228881
0.000229217
0.000228722
0.000227555
0.000225998
0.00022444
0.000223266
0.00022269
0.000175009
0.000175032
0.000175094
0.00017522
0.000175436
0.000175767
0.000176229
0.000176829
0.000177565
0.000178438
0.000179481
0.000180777
0.000182481
0.000184855
0.000188307
0.000193425
0.000200421
0.000208241
0.000215386
0.000221232
0.000225715
0.000229076
0.000231683
0.000233735
0.000235317
0.000236423
0.000237017
0.000237083
0.000236688
0.000236014
0.000235343
0.000234946
0.000176236
0.000176251
0.00017631
0.000176452
0.000176726
0.000177177
0.000177842
0.000178734
0.000179844
0.000181151
0.000182651
0.000184384
0.000186465
0.000189121
0.000192726
0.000197819
0.000204512
0.000211635
0.000217756
0.000222447
0.000225886
0.00022853
0.000230784
0.000232852
0.000234769
0.00023645
0.000237772
0.000238651
0.00023908
0.000239139
0.00023899
0.000238839
0.00017767
0.000177665
0.000177697
0.000177825
0.000178119
0.00017865
0.00017947
0.000180599
0.000182021
0.000183688
0.000185552
0.000187596
0.000189872
0.000192541
0.000195906
0.00020044
0.000206252
0.000212319
0.000217441
0.000221337
0.00022427
0.000226697
0.000228972
0.000231273
0.000233596
0.000235797
0.000237674
0.000239071
0.000239938
0.000240338
0.00024042
0.000240378
0.00017955
0.000179507
0.000179482
0.000179564
0.000179853
0.000180446
0.000181409
0.000182765
0.000184482
0.000186481
0.000188672
0.000190983
0.000193403
0.000196015
0.000199038
0.000202863
0.000207636
0.00021262
0.000216919
0.000220335
0.000223071
0.000225466
0.000227798
0.000230224
0.000232757
0.000235272
0.000237541
0.000239347
0.000240567
0.000241218
0.000241441
0.000241447
0.000182141
0.000182037
0.000181925
0.000181941
0.000182224
0.000182898
0.000184036
0.000185647
0.000187669
0.000189989
0.000192477
0.000195024
0.000197569
0.000200132
0.000202851
0.000206026
0.000209836
0.000213836
0.00021743
0.000220469
0.00022305
0.000225386
0.00022768
0.000230065
0.000232581
0.000235148
0.000237578
0.000239634
0.000241124
0.000241992
0.00024234
0.000242387
0.000185702
0.000185515
0.000185302
0.000185265
0.000185591
0.000186413
0.000187789
0.00018969
0.000192012
0.000194606
0.000197319
0.000200025
0.000202639
0.000205143
0.000207612
0.000210263
0.000213275
0.000216429
0.000219374
0.000222004
0.00022434
0.000226501
0.000228626
0.000230823
0.000233142
0.00023555
0.000237916
0.000240029
0.000241667
0.000242699
0.000243161
0.000243248
0.000190457
0.000190174
0.000189889
0.000189881
0.000190358
0.000191429
0.000193095
0.000195274
0.000197819
0.000200564
0.000203358
0.000206082
0.000208649
0.000211028
0.000213253
0.000215474
0.000217842
0.000220282
0.000222618
0.000224788
0.000226777
0.000228647
0.000230486
0.000232377
0.000234371
0.00023647
0.000238599
0.000240594
0.000242239
0.000243356
0.000243908
0.000244038
0.000196584
0.000196226
0.000195976
0.000196159
0.000196932
0.000198316
0.000200241
0.000202578
0.000205167
0.000207858
0.000210526
0.000213076
0.000215437
0.000217577
0.000219511
0.000221338
0.00022317
0.000225005
0.000226781
0.000228472
0.000230057
0.000231563
0.000233045
0.00023456
0.000236156
0.000237852
0.00023962
0.000241356
0.000242875
0.000243985
0.000244586
0.000244753
0.000204251
0.000203902
0.000203895
0.000204455
0.000205589
0.000207214
0.000209217
0.000211468
0.000213841
0.000216228
0.000218541
0.000220716
0.000222704
0.00022448
0.000226051
0.000227477
0.000228837
0.000230157
0.000231432
0.000232665
0.000233837
0.000234958
0.000236059
0.00023718
0.000238357
0.000239614
0.000240954
0.000242327
0.000243603
0.000244605
0.0002452
0.000245393
0.000213685
0.000213533
0.000213989
0.00021495
0.000216277
0.000217864
0.000219629
0.000221491
0.000223375
0.000225222
0.000226981
0.000228614
0.000230094
0.000231403
0.000232545
0.000233556
0.000234483
0.000235359
0.0002362
0.000237018
0.000237802
0.000238553
0.00023929
0.000240037
0.000240816
0.00024165
0.000242551
0.000243507
0.000244448
0.000245244
0.000245763
0.000245957
0.000225263
0.000225524
0.000226338
0.000227322
0.00022841
0.000229565
0.000230762
0.00023197
0.000233158
0.000234302
0.000235379
0.00023637
0.000237262
0.000238047
0.000238726
0.000239318
0.000239848
0.000240339
0.000240807
0.000241263
0.0002417
0.00024212
0.000242531
0.000242945
0.000243375
0.000243833
0.000244331
0.000244871
0.000245427
0.000245933
0.000246297
0.000246453
0.000239444
0.000239657
0.000240073
0.00024049
0.000240909
0.00024133
0.000241751
0.000242166
0.000242568
0.000242951
0.000243309
0.000243637
0.000243931
0.000244189
0.000244411
0.000244603
0.000244773
0.000244929
0.000245076
0.000245221
0.000245359
0.000245492
0.000245621
0.000245751
0.000245885
0.000246028
0.000246182
0.000246351
0.000246528
0.000246697
0.000246829
0.000246894
)
;


// ************************************************************************* //
