/*--------------------------------*- C++ -*----------------------------------*\
| =========                 |                                                 |
| \\      /  F ield         | OpenFOAM: The Open Source CFD Toolbox           |
|  \\    /   O peration     | Version:  2212                                  |
|   \\  /    A nd           | Website:  www.openfoam.com                      |
|    \\/     M anipulation  |                                                 |
\*---------------------------------------------------------------------------*/
FoamFile
{
    version     2.0;
    format      ascii;
    arch        "LSB;label=64;scalar=64";
    class       surfaceScalarField;
    location    "560";
    object      phi;
}
// * * * * * * * * * * * * * * * * * * * * * * * * * * * * * * * * * * * * * //

dimensions      [0 3 -1 0 0 0 0];

oriented        oriented;

internalField   nonuniform List<scalar> 
1984
(
4.17411e-10
-4.91812e-10
-1.04101e-08
1.08274e-08
-3.54554e-08
2.50451e-08
-6.91303e-08
3.36748e-08
-1.07021e-07
3.78911e-08
-1.49386e-07
4.23646e-08
-1.98894e-07
4.95082e-08
-2.57327e-07
5.84334e-08
-3.2395e-07
6.66226e-08
-3.94915e-07
7.09658e-08
-4.62041e-07
6.71261e-08
-5.10001e-07
4.79603e-08
-5.1506e-07
5.05817e-09
-4.50038e-07
-6.50219e-08
-3.06918e-07
-1.4312e-07
-1.17868e-07
-1.89049e-07
2.50388e-08
-1.42907e-07
9.16133e-08
-6.65742e-08
1.26371e-07
-3.47578e-08
1.44905e-07
-1.85336e-08
1.58836e-07
-1.39314e-08
1.7303e-07
-1.41937e-08
1.85946e-07
-1.29168e-08
1.92556e-07
-6.60941e-09
1.88928e-07
3.62957e-09
1.73224e-07
1.57042e-08
1.45195e-07
2.80282e-08
1.06942e-07
3.82533e-08
6.39815e-08
4.29606e-08
2.60181e-08
3.79636e-08
3.93067e-09
2.20874e-08
3.93075e-09
-1.36135e-08
1.31215e-08
-6.53955e-08
6.26088e-08
-1.55293e-07
1.14942e-07
-2.71425e-07
1.49807e-07
-4.03579e-07
1.70046e-07
-5.5004e-07
1.88826e-07
-7.13765e-07
2.13233e-07
-8.95432e-07
2.401e-07
-1.08916e-06
2.60353e-07
-1.28057e-06
2.62378e-07
-1.44431e-06
2.30861e-07
-1.54017e-06
1.43817e-07
-1.51097e-06
-2.41334e-08
-1.29759e-06
-2.78404e-07
-8.88128e-07
-5.52583e-07
-3.54289e-07
-7.22888e-07
6.68456e-08
-5.64041e-07
2.77089e-07
-2.76817e-07
3.88186e-07
-1.45855e-07
4.52247e-07
-8.25948e-08
4.99592e-07
-6.12775e-08
5.43183e-07
-5.77843e-08
5.79329e-07
-4.90622e-08
5.95848e-07
-2.31287e-08
5.82568e-07
1.69097e-08
5.34005e-07
6.42672e-08
4.49937e-07
1.12096e-07
3.37438e-07
1.50753e-07
2.12661e-07
1.67738e-07
1.00275e-07
1.5035e-07
2.5393e-08
9.69693e-08
2.93237e-08
-4.22749e-08
5.53962e-08
-1.62619e-07
1.82952e-07
-3.47316e-07
2.9964e-07
-5.7487e-07
3.77361e-07
-8.29512e-07
4.24688e-07
-1.10526e-06
4.64574e-07
-1.40034e-06
5.08314e-07
-1.70937e-06
5.49128e-07
-2.01813e-06
5.69113e-07
-2.30073e-06
5.44983e-07
-2.51678e-06
4.46908e-07
-2.60792e-06
2.34957e-07
-2.4938e-06
-1.38254e-07
-2.10393e-06
-6.68273e-07
-1.43917e-06
-1.21734e-06
-5.92367e-07
-1.56969e-06
9.91892e-08
-1.2556e-06
4.68059e-07
-6.45686e-07
6.69957e-07
-3.47753e-07
7.92761e-07
-2.05399e-07
8.82479e-07
-1.50996e-07
9.58948e-07
-1.34253e-07
1.01798e-06
-1.08098e-07
1.04271e-06
-4.78538e-08
1.01743e-06
4.21918e-08
9.33058e-07
1.48637e-07
7.89991e-07
2.55163e-07
6.00427e-07
3.40317e-07
3.8973e-07
3.78436e-07
1.94617e-07
3.45462e-07
5.4731e-08
2.36855e-07
8.40547e-08
-8.3154e-08
1.3855e-07
-2.97744e-07
3.97542e-07
-6.059e-07
6.07795e-07
-9.69969e-07
7.4143e-07
-1.3656e-06
8.20318e-07
-1.77986e-06
8.78832e-07
-2.20303e-06
9.31485e-07
-2.62131e-06
9.67405e-07
-3.01199e-06
9.59799e-07
-3.34025e-06
8.7324e-07
-3.55567e-06
6.62324e-07
-3.58815e-06
2.67446e-07
-3.34886e-06
-3.77546e-07
-2.77426e-06
-1.24288e-06
-1.88625e-06
-2.10535e-06
-7.93973e-07
-2.66197e-06
1.18148e-07
-2.16772e-06
6.41581e-07
-1.16912e-06
9.4293e-07
-6.49103e-07
1.13429e-06
-3.96761e-07
1.27313e-06
-2.89834e-07
1.38463e-06
-2.4575e-07
1.46609e-06
-1.89557e-07
1.49825e-06
-8.00157e-08
1.4604e-06
8.00391e-08
1.34006e-06
2.68976e-07
1.13836e-06
4.56866e-07
8.72037e-07
6.06642e-07
5.74267e-07
6.76206e-07
2.93162e-07
6.26567e-07
8.49257e-08
4.45092e-07
1.6898e-07
-1.29352e-07
2.67902e-07
-4.48331e-07
7.16521e-07
-8.90734e-07
1.0502e-06
-1.39846e-06
1.24916e-06
-1.93441e-06
1.35627e-06
-2.47608e-06
1.4205e-06
-3.00504e-06
1.46045e-06
-3.49981e-06
1.46217e-06
-3.93155e-06
1.39153e-06
-4.26059e-06
1.20229e-06
-4.43203e-06
8.33763e-07
-4.3693e-06
2.0471e-07
-3.98933e-06
-7.57516e-07
-3.24291e-06
-1.98929e-06
-2.17331e-06
-3.17494e-06
-9.16328e-07
-3.91895e-06
1.35428e-07
-3.21947e-06
7.84566e-07
-1.81826e-06
1.1807e-06
-1.04523e-06
1.44132e-06
-6.57388e-07
1.6298e-06
-4.78304e-07
1.77495e-06
-3.90909e-07
1.87702e-06
-2.91626e-07
1.9161e-06
-1.19092e-07
1.86674e-06
1.29398e-07
1.71275e-06
4.22966e-07
1.45566e-06
7.13955e-07
1.11663e-06
9.45673e-07
7.37082e-07
1.05575e-06
3.7744e-07
9.86209e-07
1.09732e-07
7.128e-07
2.78712e-07
-1.66154e-07
4.34056e-07
-5.71834e-07
1.1222e-06
-1.13064e-06
1.60901e-06
-1.76469e-06
1.88321e-06
-2.42059e-06
2.01217e-06
-3.06382e-06
2.06374e-06
-3.66752e-06
2.06414e-06
-4.20462e-06
1.99928e-06
-4.64344e-06
1.83035e-06
-4.94384e-06
1.50269e-06
-5.05181e-06
9.4173e-07
-4.88749e-06
4.03893e-08
-4.37686e-06
-1.26814e-06
-3.47959e-06
-2.88657e-06
-2.26468e-06
-4.38986e-06
-9.12448e-07
-5.27118e-06
1.91138e-07
-4.32306e-06
9.14423e-07
-2.54154e-06
1.38077e-06
-1.51158e-06
1.69532e-06
-9.71938e-07
1.92185e-06
-7.04834e-07
2.09113e-06
-5.60194e-07
2.20688e-06
-4.07369e-07
2.24982e-06
-1.62037e-07
2.18982e-06
1.89398e-07
2.00594e-06
6.06849e-07
1.69945e-06
1.02044e-06
1.29654e-06
1.34859e-06
8.48686e-07
1.50361e-06
4.29587e-07
1.40531e-06
1.23068e-07
1.01932e-06
4.0178e-07
-1.77302e-07
6.11358e-07
-6.22908e-07
1.56781e-06
-1.25161e-06
2.23771e-06
-1.97231e-06
2.60391e-06
-2.7132e-06
2.75305e-06
-3.42512e-06
2.77566e-06
-4.07267e-06
2.71169e-06
-4.62524e-06
2.55185e-06
-5.05131e-06
2.25642e-06
-5.31342e-06
1.7648e-06
-5.35962e-06
9.87926e-07
-5.11666e-06
-2.02562e-07
-4.49742e-06
-1.88739e-06
-3.46327e-06
-3.92071e-06
-2.12851e-06
-5.72462e-06
-7.33196e-07
-6.6665e-06
3.52889e-07
-5.40915e-06
1.08998e-06
-3.27863e-06
1.58216e-06
-2.00376e-06
1.91613e-06
-1.30591e-06
2.15261e-06
-9.41312e-07
2.32318e-06
-7.30766e-07
2.43524e-06
-5.19421e-07
2.47148e-06
-1.98276e-07
2.39728e-06
2.63594e-07
2.18588e-06
8.18246e-07
1.83734e-06
1.36899e-06
1.38373e-06
1.8022e-06
8.88499e-07
1.99883e-06
4.38208e-07
1.8556e-06
1.21435e-07
1.33609e-06
5.23215e-07
-1.53964e-07
7.65322e-07
-5.729e-07
1.98674e-06
-1.2024e-06
2.86721e-06
-1.95236e-06
3.35387e-06
-2.73338e-06
3.53407e-06
-3.47869e-06
3.52096e-06
-4.14307e-06
3.37607e-06
-4.69354e-06
3.10232e-06
-5.10113e-06
2.66401e-06
-5.3329e-06
1.99658e-06
-5.339e-06
9.94026e-07
-5.03641e-06
-5.05152e-07
-4.31402e-06
-2.60978e-06
-3.14749e-06
-5.08724e-06
-1.71889e-06
-7.15322e-06
-3.31032e-07
-8.05436e-06
7.00169e-07
-6.44035e-06
1.39811e-06
-3.97658e-06
1.86181e-06
-2.46746e-06
2.16627e-06
-1.61037e-06
2.36918e-06
-1.14423e-06
2.50344e-06
-8.6502e-07
2.58077e-06
-5.96754e-07
2.58754e-06
-2.05047e-07
2.48604e-06
3.651e-07
2.24375e-06
1.06054e-06
1.8587e-06
1.75404e-06
1.36947e-06
2.29143e-06
8.52171e-07
2.51613e-06
4.03118e-07
2.30465e-06
1.05845e-07
1.63336e-06
6.29061e-07
-9.78002e-08
8.63122e-07
-4.15314e-07
2.30426e-06
-9.58548e-07
3.41044e-06
-1.66351e-06
4.05883e-06
-2.43064e-06
4.3012e-06
-3.17203e-06
4.26235e-06
-3.82835e-06
4.03238e-06
-4.36243e-06
3.6364e-06
-4.74768e-06
3.04926e-06
-4.95505e-06
2.20394e-06
-4.93164e-06
9.70619e-07
-4.56581e-06
-8.7098e-07
-3.72532e-06
-3.45027e-06
-2.4396e-06
-6.37296e-06
-9.67747e-07
-8.62507e-06
3.55796e-07
-9.3779e-06
1.29885e-06
-7.3834e-06
1.9226e-06
-4.60033e-06
2.30753e-06
-2.85238e-06
2.53008e-06
-1.83292e-06
2.64848e-06
-1.26263e-06
2.69893e-06
-9.15467e-07
2.69889e-06
-5.96715e-07
2.64003e-06
-1.46192e-07
2.48567e-06
5.19457e-07
2.19997e-06
1.34624e-06
1.77905e-06
2.17496e-06
1.26787e-06
2.8026e-06
7.53634e-07
3.03037e-06
3.35762e-07
2.72253e-06
8.14832e-08
1.88764e-06
7.10544e-07
-2.01189e-08
8.83241e-07
-1.64901e-07
2.44904e-06
-5.1393e-07
3.75947e-06
-1.07125e-06
4.61615e-06
-1.75085e-06
4.98081e-06
-2.44298e-06
4.95448e-06
-3.06452e-06
4.65392e-06
-3.56463e-06
4.13652e-06
-3.91264e-06
3.39727e-06
-4.07854e-06
2.36984e-06
-4.00048e-06
8.9256e-07
-3.52512e-06
-1.34634e-06
-2.54893e-06
-4.42647e-06
-1.1991e-06
-7.72278e-06
1.98326e-07
-1.00225e-05
1.38671e-06
-1.05663e-05
2.20972e-06
-8.20641e-06
2.72018e-06
-5.11079e-06
2.98415e-06
-3.11636e-06
3.07976e-06
-1.92853e-06
3.06702e-06
-1.24988e-06
2.98651e-06
-8.34962e-07
2.86225e-06
-4.72449e-07
2.69055e-06
2.55046e-08
2.44718e-06
7.62828e-07
2.09656e-06
1.69685e-06
1.63433e-06
2.63719e-06
1.11096e-06
3.32597e-06
6.20149e-07
3.52119e-06
2.54625e-07
3.08805e-06
5.52736e-08
2.08699e-06
7.65817e-07
6.56117e-08
8.17629e-07
1.41975e-07
2.37268e-06
9.85467e-08
3.8029e-06
-1.53068e-07
4.86777e-06
-6.00919e-07
5.42866e-06
-1.15553e-06
5.5091e-06
-1.70376e-06
5.20214e-06
-2.15235e-06
4.58511e-06
-2.4417e-06
3.68663e-06
-2.52773e-06
2.45587e-06
-2.31043e-06
6.75253e-07
-1.62219e-06
-2.03458e-06
-5.15258e-07
-5.5334e-06
7.12586e-07
-8.95062e-06
1.86939e-06
-1.11793e-05
2.82798e-06
-1.15249e-05
3.46873e-06
-8.84716e-06
3.80529e-06
-5.44735e-06
3.90694e-06
-3.218e-06
3.84271e-06
-1.8643e-06
3.66782e-06
-1.07499e-06
3.42233e-06
-5.89463e-07
3.12927e-06
-1.79392e-07
2.80089e-06
3.53883e-07
2.42734e-06
1.13638e-06
1.98332e-06
2.14088e-06
1.4679e-06
3.15262e-06
9.35871e-07
3.85799e-06
4.80517e-07
3.97654e-06
1.76717e-07
3.39185e-06
3.2544e-08
2.23117e-06
7.98361e-07
1.47645e-07
6.69984e-07
4.62107e-07
2.05821e-06
7.96865e-07
3.46814e-06
1.01003e-06
4.6546e-06
1.01363e-06
5.42506e-06
8.18919e-07
5.70381e-06
5.15316e-07
5.50575e-06
2.21889e-07
4.87854e-06
5.03582e-08
3.85816e-06
1.00562e-07
2.40567e-06
5.46771e-07
2.29043e-07
1.4246e-06
-2.9124e-06
2.41752e-06
-6.52631e-06
3.35352e-06
-9.88662e-06
4.16054e-06
-1.19863e-05
4.74587e-06
-1.21102e-05
5.05128e-06
-9.15257e-06
5.12182e-06
-5.51789e-06
5.01292e-06
-3.1091e-06
4.76818e-06
-1.61956e-06
4.4233e-06
-7.30116e-07
3.99807e-06
-1.64226e-07
3.51539e-06
3.03288e-07
3.00053e-06
8.68735e-07
2.46148e-06
1.67543e-06
1.8917e-06
2.71066e-06
1.30366e-06
3.74066e-06
7.5913e-07
4.40252e-06
3.44633e-07
4.39104e-06
1.05963e-07
3.63052e-06
1.3905e-08
2.32322e-06
8.12266e-07
2.08305e-07
4.6168e-07
7.39194e-07
1.52732e-06
1.46325e-06
2.74409e-06
2.21348e-06
3.90436e-06
2.84599e-06
4.79255e-06
3.289e-06
5.2608e-06
3.55561e-06
5.23913e-06
3.72609e-06
4.70807e-06
3.92349e-06
3.66075e-06
4.29166e-06
2.0375e-06
4.8979e-06
-3.77201e-07
5.65807e-06
-3.67257e-06
6.37302e-06
-7.24127e-06
6.85965e-06
-1.03733e-05
7.07419e-06
-1.22009e-05
7.01828e-06
-1.20543e-05
6.77798e-06
-8.91227e-06
6.46209e-06
-5.202e-06
6.09068e-06
-2.73769e-06
5.65881e-06
-1.1877e-06
5.14856e-06
-2.19867e-07
4.55133e-06
4.33006e-07
3.8948e-06
9.59816e-07
3.20042e-06
1.56312e-06
2.4817e-06
2.39415e-06
1.75693e-06
3.43542e-06
1.07462e-06
4.42297e-06
5.19457e-07
4.95768e-06
1.69992e-07
4.7405e-06
2.09291e-08
3.77958e-06
-7.96165e-09
2.35212e-06
8.04305e-07
2.26663e-07
2.35017e-07
8.79748e-07
8.74238e-07
1.89544e-06
1.7284e-06
3.12934e-06
2.67047e-06
4.41565e-06
3.50624e-06
5.62491e-06
4.05154e-06
6.69161e-06
4.17243e-06
7.61603e-06
3.78365e-06
8.45155e-06
2.82523e-06
9.2899e-06
1.19915e-06
1.01733e-05
-1.26063e-06
1.08255e-05
-4.32476e-06
1.10689e-05
-7.48464e-06
1.08198e-05
-1.01242e-05
1.01202e-05
-1.15013e-05
9.10884e-06
-1.10429e-05
8.0976e-06
-7.90103e-06
7.28113e-06
-4.38554e-06
6.60265e-06
-2.0592e-06
5.97205e-06
-5.57099e-07
5.30398e-06
4.48201e-07
4.6001e-06
1.13688e-06
3.84797e-06
1.71195e-06
3.02551e-06
2.38558e-06
2.13219e-06
3.28748e-06
1.20804e-06
4.35958e-06
4.53386e-07
5.17762e-06
-4.62632e-09
5.4157e-06
-1.68711e-07
4.90459e-06
-1.39184e-07
3.75006e-06
-5.0576e-08
2.26351e-06
7.53729e-07
1.76678e-07
5.8339e-08
7.58446e-07
2.92469e-07
1.79316e-06
6.93682e-07
3.2334e-06
1.23023e-06
4.9529e-06
1.78673e-06
6.80616e-06
2.19828e-06
8.67697e-06
2.30162e-06
1.04996e-05
1.96101e-06
1.22454e-05
1.07944e-06
1.38386e-05
-3.9405e-07
1.49842e-05
-2.4062e-06
1.53852e-05
-4.72576e-06
1.49481e-05
-7.0476e-06
1.37151e-05
-8.89112e-06
1.1848e-05
-9.63423e-06
9.64058e-06
-8.83545e-06
7.69166e-06
-5.95211e-06
6.36205e-06
-3.05592e-06
5.3092e-06
-1.00635e-06
4.44598e-06
3.06114e-07
3.72915e-06
1.16504e-06
3.01245e-06
1.85357e-06
2.15759e-06
2.5668e-06
1.15348e-06
3.38969e-06
1.31024e-07
4.30993e-06
-6.95164e-07
5.18576e-06
-1.12573e-06
5.60819e-06
-1.12901e-06
5.41898e-06
-8.37459e-07
4.61303e-06
-4.49632e-07
3.36223e-06
-1.33148e-07
1.94702e-06
6.2058e-07
8.31961e-08
-2.48571e-08
4.44889e-07
-6.92234e-08
1.22717e-06
-8.86029e-08
2.52404e-06
-6.66291e-08
4.33457e-06
-2.38028e-08
6.54795e-06
-1.50969e-08
8.962e-06
-1.12437e-07
1.13535e-05
-4.30508e-07
1.3498e-05
-1.06501e-06
1.51286e-05
-2.02465e-06
1.59419e-05
-3.21948e-06
1.57675e-05
-4.55141e-06
1.45298e-05
-5.80991e-06
1.23159e-05
-6.67725e-06
9.3193e-06
-6.63759e-06
5.96501e-06
-5.48117e-06
3.06333e-06
-3.05042e-06
7.69825e-07
-7.62424e-07
-8.82624e-07
6.46094e-07
-1.87997e-06
1.30345e-06
-2.54821e-06
1.83328e-06
-3.14858e-06
2.45395e-06
-3.75454e-06
3.17277e-06
-4.28979e-06
3.92494e-06
-4.57061e-06
4.59075e-06
-4.39275e-06
5.00791e-06
-3.77952e-06
4.99496e-06
-2.85197e-06
4.49143e-06
-1.81099e-06
3.57205e-06
-8.79536e-07
2.43077e-06
-2.39834e-07
1.30732e-06
3.80747e-07
7.14631e-08
-9.63205e-08
3.29642e-07
-3.27402e-07
8.44098e-07
-6.03059e-07
1.67056e-06
-8.9309e-07
2.81213e-06
-1.16537e-06
4.19799e-06
-1.40096e-06
5.69415e-06
-1.60859e-06
7.09202e-06
-1.82838e-06
8.14454e-06
-2.11752e-06
8.63875e-06
-2.51886e-06
8.43929e-06
-3.02002e-06
7.40645e-06
-3.51857e-06
5.42479e-06
-3.82825e-06
2.45487e-06
-3.70733e-06
-1.28735e-06
-2.89536e-06
-5.3759e-06
-1.39262e-06
-8.82052e-06
3.94203e-07
-1.09869e-05
1.40396e-06
-1.20609e-05
1.72013e-06
-1.25793e-05
1.82181e-06
-1.26827e-05
1.93665e-06
-1.23909e-05
2.16218e-06
-1.17162e-05
2.49807e-06
-1.06677e-05
2.87644e-06
-9.26468e-06
3.18773e-06
-7.56589e-06
3.30911e-06
-5.71151e-06
3.14058e-06
-3.88129e-06
2.66122e-06
-2.2632e-06
1.95396e-06
-1.0216e-06
1.18917e-06
-2.59816e-07
5.45541e-07
1.20931e-07
5.3844e-08
-1.50164e-07
1.84336e-07
-4.57894e-07
3.64939e-07
-7.83662e-07
5.62266e-07
-1.09042e-06
7.36111e-07
-1.33922e-06
8.43883e-07
-1.50873e-06
8.39508e-07
-1.60422e-06
6.61973e-07
-1.65084e-06
2.20863e-07
-1.67641e-06
-6.0247e-07
-1.69553e-06
-1.93007e-06
-1.69242e-06
-3.84976e-06
-1.59888e-06
-6.3622e-06
-1.31581e-06
-9.3425e-06
-7.27033e-07
-1.24904e-05
2.52572e-07
-1.54552e-05
1.5721e-06
-1.77583e-05
2.69731e-06
-1.9282e-05
2.9277e-06
-2.01437e-05
2.58179e-06
-2.02817e-05
1.95982e-06
-1.9662e-05
1.31693e-06
-1.82977e-05
7.97917e-07
-1.62566e-05
4.57006e-07
-1.36772e-05
2.97007e-07
-1.07615e-05
2.71995e-07
-7.77801e-06
3.25673e-07
-5.03736e-06
3.99932e-07
-2.81945e-06
4.43306e-07
-1.28703e-06
4.21541e-07
-4.24545e-07
3.26678e-07
-6.62394e-08
1.87236e-07
5.46915e-08
-3.7242e-08
-1.12922e-07
-1.66738e-07
-3.28398e-07
-4.17718e-07
-5.32683e-07
-8.19596e-07
-6.8854e-07
-1.39388e-06
-7.64936e-07
-2.14628e-06
-7.56336e-07
-3.06973e-06
-6.80768e-07
-4.1581e-06
-5.62462e-07
-5.41734e-06
-4.17177e-07
-6.86523e-06
-2.47629e-07
-8.51138e-06
-4.62732e-08
-1.03321e-05
2.21873e-07
-1.22621e-05
6.14112e-07
-1.42162e-05
1.22712e-06
-1.61493e-05
2.1857e-06
-1.8152e-05
3.57477e-06
-2.00673e-05
4.61264e-06
-2.15111e-05
4.3715e-06
-2.2325e-05
3.39565e-06
-2.23874e-05
2.0222e-06
-2.16118e-05
5.41318e-07
-2.00407e-05
-7.73178e-07
-1.7776e-05
-1.80765e-06
-1.49397e-05
-2.5393e-06
-1.17424e-05
-2.92529e-06
-8.46477e-06
-2.95198e-06
-5.42909e-06
-2.63575e-06
-2.94805e-06
-2.03773e-06
-1.24022e-06
-1.28629e-06
-3.3258e-07
-5.80963e-07
-2.17621e-08
-1.23583e-07
3.29293e-08
-1.11999e-07
-9.23079e-10
-4.4649e-07
6.0922e-09
-1.01059e-06
3.14171e-08
-1.78201e-06
8.28822e-08
-2.71123e-06
1.64279e-07
-3.73931e-06
2.71748e-07
-4.81729e-06
3.97208e-07
-5.91525e-06
5.35498e-07
-7.02132e-06
6.88902e-07
-8.13443e-06
8.65482e-07
-9.26264e-06
1.08193e-06
-1.0414e-05
1.37319e-06
-1.16066e-05
1.80673e-06
-1.28619e-05
2.48242e-06
-1.41929e-05
3.51676e-06
-1.56251e-05
5.00698e-06
-1.69554e-05
5.9429e-06
-1.79345e-05
5.35058e-06
-1.84619e-05
3.9231e-06
-1.84497e-05
2.00997e-06
-1.78307e-05
-7.77046e-08
-1.68149e-05
-1.78901e-06
-1.5391e-05
-3.23146e-06
-1.35922e-05
-4.33819e-06
-1.14653e-05
-5.05217e-06
-9.10498e-06
-5.31227e-06
-6.65659e-06
-5.08414e-06
-4.31739e-06
-4.37693e-06
-2.32624e-06
-3.27744e-06
-9.15714e-07
-1.99149e-06
-1.86226e-07
-8.53071e-07
-1.53297e-07
-9.91834e-08
9.82602e-08
-3.96478e-07
3.03387e-07
-8.88602e-07
5.23542e-07
-1.54235e-06
7.36633e-07
-2.30479e-06
9.26719e-07
-3.12475e-06
1.0917e-06
-3.9678e-06
1.24026e-06
-4.81605e-06
1.38375e-06
-5.65989e-06
1.53274e-06
-6.49423e-06
1.69982e-06
-7.31807e-06
1.90578e-06
-8.13291e-06
2.18803e-06
-8.93673e-06
2.61055e-06
-9.72394e-06
3.26963e-06
-1.0492e-05
4.28486e-06
-1.12376e-05
5.75257e-06
-1.18458e-05
6.55107e-06
-1.22372e-05
5.74196e-06
-1.24072e-05
4.09317e-06
-1.23343e-05
1.93704e-06
-1.21002e-05
-3.11788e-07
-1.17095e-05
-2.17974e-06
-1.11755e-05
-3.76546e-06
-1.04286e-05
-5.08509e-06
-9.40057e-06
-6.08019e-06
-8.06424e-06
-6.6486e-06
-6.44076e-06
-6.70762e-06
-4.62627e-06
-6.19143e-06
-2.80741e-06
-5.09629e-06
-1.26525e-06
-3.53365e-06
-2.96839e-07
-1.82148e-06
-4.50136e-07
-6.96711e-08
1.67931e-07
-2.72582e-07
5.06297e-07
-6.06956e-07
8.57916e-07
-1.05825e-06
1.18792e-06
-1.6008e-06
1.46927e-06
-2.20285e-06
1.69375e-06
-2.83292e-06
1.87034e-06
-3.46492e-06
2.01575e-06
-4.07994e-06
2.14775e-06
-4.665e-06
2.28488e-06
-5.21119e-06
2.45197e-06
-5.71063e-06
2.68747e-06
-6.15237e-06
3.05228e-06
-6.52008e-06
3.63734e-06
-6.79304e-06
4.55782e-06
-6.93645e-06
5.89598e-06
-6.90431e-06
6.51893e-06
-6.75594e-06
5.5936e-06
-6.56293e-06
3.90015e-06
-6.40409e-06
1.77821e-06
-6.3655e-06
-3.50385e-07
-6.41931e-06
-2.12592e-06
-6.53356e-06
-3.65121e-06
-6.59608e-06
-5.02257e-06
-6.46834e-06
-6.20793e-06
-6.05609e-06
-7.06086e-06
-5.28256e-06
-7.48115e-06
-4.14952e-06
-7.32447e-06
-2.76565e-06
-6.48017e-06
-1.3793e-06
-4.92e-06
-3.59193e-07
-2.84158e-06
-8.09329e-07
-4.3794e-08
2.11725e-07
-1.79216e-07
6.4172e-07
-4.09921e-07
1.08862e-06
-7.25934e-07
1.50394e-06
-1.1066e-06
1.84993e-06
-1.52571e-06
2.11287e-06
-1.95678e-06
2.30141e-06
-2.37681e-06
2.43578e-06
-2.76808e-06
2.53902e-06
-3.11793e-06
2.63473e-06
-3.4162e-06
2.75024e-06
-3.65067e-06
2.92194e-06
-3.80355e-06
3.20516e-06
-3.84884e-06
3.68263e-06
-3.75308e-06
4.46206e-06
-3.45886e-06
5.60175e-06
-2.9633e-06
6.02337e-06
-2.42723e-06
5.05752e-06
-1.9592e-06
3.43212e-06
-1.67477e-06
1.49378e-06
-1.71338e-06
-3.11773e-07
-1.99357e-06
-1.84574e-06
-2.4434e-06
-3.20138e-06
-2.97681e-06
-4.48916e-06
-3.44435e-06
-5.74039e-06
-3.74149e-06
-6.76372e-06
-3.71389e-06
-7.50874e-06
-3.27293e-06
-7.76543e-06
-2.42816e-06
-7.32494e-06
-1.34877e-06
-5.99939e-06
-3.93474e-07
-3.79688e-06
-1.2028e-06
-3.23174e-08
2.44043e-07
-1.33019e-07
7.42422e-07
-3.02607e-07
1.25821e-06
-5.2858e-07
1.72991e-06
-7.90015e-07
2.11137e-06
-1.06322e-06
2.38607e-06
-1.32628e-06
2.56447e-06
-1.56182e-06
2.67132e-06
-1.7578e-06
2.73501e-06
-1.9069e-06
2.78383e-06
-2.00273e-06
2.84607e-06
-2.03262e-06
2.95183e-06
-1.97608e-06
3.14862e-06
-1.79993e-06
3.50648e-06
-1.45969e-06
4.12182e-06
-8.83352e-07
5.02542e-06
-1.02555e-07
5.24258e-06
6.72577e-07
4.28239e-06
1.2631e-06
2.84159e-06
1.54344e-06
1.21344e-06
1.47126e-06
-2.39596e-07
1.13473e-06
-1.5092e-06
6.12559e-07
-2.67921e-06
-5.5931e-08
-3.82067e-06
-8.09898e-07
-4.98642e-06
-1.53556e-06
-6.03807e-06
-2.06297e-06
-6.98133e-06
-2.23201e-06
-7.59639e-06
-1.93263e-06
-7.62432e-06
-1.22781e-06
-6.70421e-06
-4.11869e-07
-4.61282e-06
-1.61467e-06
-3.50383e-08
2.79081e-07
-1.33399e-07
8.40783e-07
-2.79867e-07
1.40468e-06
-4.49783e-07
1.89983e-06
-6.19404e-07
2.28099e-06
-7.69759e-07
2.53643e-06
-8.87193e-07
2.6819e-06
-9.62909e-07
2.74704e-06
-9.92367e-07
2.76447e-06
-9.74795e-07
2.76625e-06
-9.08603e-07
2.77987e-06
-7.81978e-07
2.8252e-06
-5.7476e-07
2.94141e-06
-2.4805e-07
3.17977e-06
2.62195e-07
3.61157e-06
1.02429e-06
4.26332e-06
1.95392e-06
4.31295e-06
2.78583e-06
3.45048e-06
3.35705e-06
2.27037e-06
3.57698e-06
9.93517e-07
3.48814e-06
-1.50754e-07
3.16611e-06
-1.18718e-06
2.67129e-06
-2.1844e-06
2.0355e-06
-3.18487e-06
1.24379e-06
-4.19471e-06
3.72875e-07
-5.16715e-06
-4.86731e-07
-6.12172e-06
-1.14663e-06
-6.93648e-06
-1.3561e-06
-7.41486e-06
-1.05199e-06
-7.00832e-06
-4.24016e-07
-5.24079e-06
-2.03869e-06
-5.4484e-08
3.33565e-07
-1.81097e-07
9.67396e-07
-3.32348e-07
1.55593e-06
-4.65022e-07
2.0325e-06
-5.54599e-07
2.37057e-06
-5.91718e-07
2.57355e-06
-5.75366e-07
2.66555e-06
-5.06845e-07
2.67851e-06
-3.89916e-07
2.64754e-06
-2.29484e-07
2.60582e-06
-2.42998e-08
2.57469e-06
2.34952e-07
2.56595e-06
5.66454e-07
2.6099e-06
1.00587e-06
2.74036e-06
1.6094e-06
3.00805e-06
2.44583e-06
3.42689e-06
3.394e-06
3.36478e-06
4.19805e-06
2.64643e-06
4.73027e-06
1.73815e-06
4.94178e-06
7.82009e-07
4.88391e-06
-9.28873e-08
4.61136e-06
-9.14624e-07
4.1557e-06
-1.72874e-06
3.53358e-06
-2.56275e-06
2.75802e-06
-3.41915e-06
1.87289e-06
-4.28202e-06
8.99725e-07
-5.14856e-06
-4.20236e-08
-5.99473e-06
-7.20918e-07
-6.73596e-06
-8.2921e-07
-6.90003e-06
-4.29624e-07
-5.64038e-06
-2.46831e-06
-9.86912e-08
4.32256e-07
-2.80981e-07
1.14968e-06
-4.47052e-07
1.722e-06
-5.39044e-07
2.12449e-06
-5.41208e-07
2.37273e-06
-4.60069e-07
2.49241e-06
-3.09283e-07
2.51477e-06
-9.85139e-08
2.46775e-06
1.58697e-07
2.39033e-06
4.52303e-07
2.31222e-06
7.82299e-07
2.24469e-06
1.15596e-06
2.19229e-06
1.59084e-06
2.17503e-06
2.11486e-06
2.21634e-06
2.77197e-06
2.35094e-06
3.61496e-06
2.5839e-06
4.51597e-06
2.46377e-06
5.25585e-06
1.90655e-06
5.74815e-06
1.24585e-06
5.97069e-06
5.59474e-07
5.96137e-06
-8.35684e-08
5.7497e-06
-7.02951e-07
5.34768e-06
-1.32672e-06
4.76022e-06
-1.97529e-06
3.99643e-06
-2.65536e-06
3.08203e-06
-3.36762e-06
2.05389e-06
-4.12042e-06
9.84362e-07
-4.9252e-06
9.50649e-09
-5.76111e-06
-5.36976e-07
-6.35354e-06
-4.15356e-07
-5.762e-06
-2.88367e-06
-1.78814e-07
6.1107e-07
-4.30698e-07
1.40157e-06
-5.89866e-07
1.88117e-06
-6.07002e-07
2.14163e-06
-4.91069e-07
2.2568e-06
-2.68597e-07
2.26993e-06
3.55105e-08
2.21066e-06
3.94889e-07
2.10837e-06
7.8501e-07
2.00021e-06
1.20293e-06
1.89429e-06
1.64987e-06
1.79776e-06
2.12894e-06
1.71321e-06
2.65117e-06
1.6528e-06
3.23541e-06
1.6321e-06
3.91288e-06
1.67346e-06
4.71932e-06
1.77746e-06
5.53465e-06
1.64844e-06
6.18923e-06
1.25196e-06
6.63215e-06
8.02927e-07
6.85421e-06
3.37418e-07
6.87557e-06
-1.04929e-07
6.70728e-06
-5.34668e-07
6.3517e-06
-9.71133e-07
5.80631e-06
-1.4299e-06
5.0714e-06
-1.92044e-06
4.15832e-06
-2.45455e-06
3.09376e-06
-3.05586e-06
1.92968e-06
-3.76112e-06
7.67607e-07
-4.59903e-06
-1.37547e-07
-5.44839e-06
-3.56722e-07
-5.54282e-06
-3.24039e-06
-2.94983e-07
9.06052e-07
-5.91828e-07
1.69841e-06
-6.65515e-07
1.95485e-06
-5.29734e-07
2.00585e-06
-2.35107e-07
1.96217e-06
1.71224e-07
1.8636e-06
6.4288e-07
1.739e-06
1.143e-06
1.60825e-06
1.66221e-06
1.481e-06
2.19541e-06
1.36109e-06
2.74087e-06
1.25229e-06
3.29793e-06
1.15615e-06
3.87133e-06
1.07941e-06
4.47234e-06
1.03108e-06
5.12248e-06
1.02333e-06
5.84505e-06
1.05488e-06
6.53842e-06
9.55079e-07
7.08202e-06
7.08363e-07
7.45023e-06
4.34721e-07
7.63794e-06
1.49704e-07
7.65346e-06
-1.20453e-07
7.4998e-06
-3.81008e-07
7.17654e-06
-6.47867e-07
6.67805e-06
-9.31416e-07
5.99783e-06
-1.24021e-06
5.13304e-06
-1.58976e-06
4.08927e-06
-2.0121e-06
2.8911e-06
-2.56295e-06
1.60669e-06
-3.31463e-06
4.18992e-07
-4.26069e-06
-2.11483e-07
-4.91235e-06
-3.45187e-06
-4.24872e-07
1.33092e-06
-6.17112e-07
1.89065e-06
-4.23236e-07
1.76098e-06
-8.51172e-10
1.58346e-06
5.45865e-07
1.41545e-06
1.14426e-06
1.2652e-06
1.76417e-06
1.11909e-06
2.38594e-06
9.86484e-07
2.99921e-06
8.67726e-07
3.59782e-06
7.62483e-07
4.17852e-06
6.71599e-07
4.73977e-06
5.94902e-07
5.28463e-06
5.34544e-07
5.82205e-06
4.93672e-07
6.36905e-06
4.76326e-07
6.9432e-06
4.80728e-07
7.47019e-06
4.28089e-07
7.87104e-06
3.07518e-07
8.13362e-06
1.72133e-07
8.25274e-06
3.05904e-08
8.23313e-06
-1.00845e-07
8.07781e-06
-2.25689e-07
7.78566e-06
-3.55715e-07
7.35029e-06
-4.96054e-07
6.76199e-06
-6.51911e-07
6.00785e-06
-8.35623e-07
5.07142e-06
-1.07567e-06
3.93655e-06
-1.42808e-06
2.6079e-06
-1.98598e-06
1.19523e-06
-2.84802e-06
1.18244e-07
-3.83536e-06
-3.33363e-06
-3.72813e-07
1.70374e-06
4.67814e-08
1.47106e-06
7.96609e-07
1.01115e-06
1.56502e-06
8.15054e-07
2.31373e-06
6.66739e-07
3.03833e-06
5.40608e-07
3.72055e-06
4.36873e-07
4.35299e-06
3.54039e-07
4.93301e-06
2.87707e-07
5.46059e-06
2.34908e-07
5.93839e-06
1.93792e-07
6.37089e-06
1.62403e-07
6.76567e-06
1.39765e-07
7.13393e-06
1.2541e-07
7.49109e-06
1.19174e-07
7.85181e-06
1.20008e-07
8.1733e-06
1.06599e-07
8.40823e-06
7.25815e-08
8.54847e-06
3.18911e-08
8.58894e-06
-9.87459e-09
8.53506e-06
-4.69627e-08
8.3915e-06
-8.21287e-08
8.15587e-06
-1.20084e-07
7.82202e-06
-1.62211e-07
7.38039e-06
-2.10282e-07
6.81479e-06
-2.70017e-07
6.09568e-06
-3.56561e-07
5.17168e-06
-5.04072e-07
3.96562e-06
-7.79922e-07
2.41444e-06
-1.29683e-06
7.44199e-07
-2.16512e-06
-2.58943e-06
1.70374e-06
3.1748e-06
4.18595e-06
5.001e-06
5.66774e-06
6.20835e-06
6.64522e-06
6.99926e-06
7.28697e-06
7.52188e-06
7.71567e-06
7.87807e-06
8.01784e-06
8.14325e-06
8.26242e-06
8.38243e-06
8.48903e-06
8.56161e-06
8.5935e-06
8.58362e-06
8.53666e-06
8.45453e-06
8.33445e-06
8.17224e-06
7.96196e-06
7.69194e-06
7.33538e-06
6.83131e-06
6.05138e-06
4.75455e-06
2.58943e-06
)
;

boundaryField
{
    movingWall
    {
        type            calculated;
        value           uniform 0;
    }
    fixedWalls
    {
        type            calculated;
        value           uniform 0;
    }
    floor
    {
        type            calculated;
        value           uniform 0;
    }
    frontAndBack
    {
        type            empty;
        value           nonuniform List<scalar> 0();
    }
}


// ************************************************************************* //
