/*--------------------------------*- C++ -*----------------------------------*\
| =========                 |                                                 |
| \\      /  F ield         | OpenFOAM: The Open Source CFD Toolbox           |
|  \\    /   O peration     | Version:  2212                                  |
|   \\  /    A nd           | Website:  www.openfoam.com                      |
|    \\/     M anipulation  |                                                 |
\*---------------------------------------------------------------------------*/
FoamFile
{
    version     2.0;
    format      ascii;
    arch        "LSB;label=64;scalar=64";
    class       volScalarField;
    location    "560";
    object      Sch4;
}
// * * * * * * * * * * * * * * * * * * * * * * * * * * * * * * * * * * * * * //

dimensions      [1 -3 0 0 0 0 0];

internalField   nonuniform List<scalar> 
1024
(
0.0356324
0.0356374
0.0356498
0.0356722
0.0357065
0.0357538
0.035813
0.0358806
0.0359518
0.0360219
0.036088
0.0361481
0.0361997
0.0362367
0.036248
0.036217
0.0361315
0.0360172
0.0358996
0.0357865
0.0356812
0.0355848
0.035497
0.0354172
0.0353451
0.0352819
0.0352289
0.0351876
0.0351578
0.0351385
0.0351277
0.0351232
0.0356333
0.0356386
0.0356515
0.0356745
0.0357099
0.0357583
0.0358186
0.0358868
0.0359582
0.0360281
0.036094
0.0361542
0.0362059
0.0362434
0.0362552
0.0362243
0.0361383
0.0360234
0.0359055
0.035792
0.0356865
0.03559
0.0355021
0.0354221
0.0353497
0.0352859
0.0352323
0.0351901
0.0351596
0.0351397
0.0351286
0.035124
0.0356357
0.0356414
0.0356551
0.0356795
0.0357169
0.0357675
0.0358295
0.0358988
0.0359704
0.03604
0.0361058
0.0361664
0.0362194
0.036259
0.0362728
0.0362428
0.0361552
0.0360383
0.0359189
0.0358044
0.0356982
0.0356011
0.0355126
0.035432
0.0353588
0.0352938
0.0352387
0.035195
0.0351631
0.0351422
0.0351305
0.0351257
0.0356398
0.0356458
0.0356607
0.0356871
0.035727
0.0357803
0.0358445
0.0359149
0.0359865
0.0360558
0.0361219
0.0361842
0.0362409
0.0362857
0.0363049
0.0362769
0.0361862
0.0360647
0.0359419
0.0358249
0.0357168
0.0356182
0.0355284
0.0354465
0.0353717
0.0353049
0.0352477
0.0352019
0.0351682
0.035146
0.0351336
0.0351285
0.0356451
0.0356516
0.0356677
0.0356962
0.0357388
0.0357949
0.035861
0.035932
0.0360034
0.0360728
0.0361402
0.0362065
0.0362704
0.0363255
0.0363548
0.0363312
0.0362358
0.0361062
0.0359768
0.035855
0.0357431
0.0356414
0.0355489
0.0354645
0.0353873
0.035318
0.0352583
0.03521
0.0351744
0.0351509
0.0351376
0.0351323
0.0356509
0.0356579
0.035675
0.0357052
0.0357499
0.0358079
0.0358751
0.0359462
0.0360173
0.0360871
0.0361575
0.0362306
0.0363065
0.0363784
0.0364246
0.036409
0.0363074
0.0361659
0.0360261
0.0358959
0.0357775
0.0356704
0.0355732
0.0354848
0.035404
0.0353316
0.035269
0.0352184
0.0351809
0.0351562
0.0351424
0.0351367
0.035656
0.0356632
0.0356808
0.0357118
0.0357573
0.0358157
0.0358826
0.0359528
0.0360232
0.0360939
0.0361686
0.0362515
0.0363446
0.0364408
0.0365123
0.0365101
0.0364027
0.0362461
0.0360915
0.035949
0.0358203
0.0357045
0.0356001
0.0355056
0.03542
0.0353439
0.0352785
0.0352259
0.035187
0.0351615
0.0351472
0.0351414
0.0356587
0.0356659
0.0356833
0.0357137
0.0357581
0.0358148
0.0358794
0.0359472
0.0360159
0.0360872
0.0361665
0.0362611
0.0363761
0.0365051
0.0366118
0.0366302
0.0365192
0.0363462
0.0361731
0.036014
0.035871
0.0357431
0.0356284
0.0355256
0.0354338
0.0353535
0.0352855
0.0352314
0.0351918
0.0351659
0.0351515
0.0351457
0.0356569
0.0356639
0.0356803
0.0357086
0.0357498
0.0358021
0.0358619
0.035925
0.0359899
0.0360598
0.0361427
0.0362495
0.0363905
0.0365613
0.0367143
0.0367611
0.0366504
0.0364611
0.0362675
0.0360885
0.0359278
0.0357843
0.0356565
0.0355434
0.0354444
0.0353594
0.0352892
0.0352343
0.0351946
0.0351689
0.0351547
0.0351489
0.0356481
0.0356547
0.0356697
0.0356947
0.0357304
0.0357758
0.0358276
0.0358826
0.0359405
0.0360058
0.0360898
0.0362089
0.0363811
0.0366045
0.0368148
0.0368951
0.0367859
0.0365805
0.0363656
0.0361654
0.0359851
0.0358242
0.0356819
0.0355575
0.0354506
0.0353613
0.0352893
0.0352343
0.0351951
0.03517
0.0351561
0.0351504
0.035629
0.0356353
0.0356486
0.0356696
0.0356985
0.0357345
0.0357754
0.035819
0.0358662
0.035924
0.0360079
0.0361424
0.0363561
0.0366459
0.03692
0.0370295
0.0369139
0.0366881
0.0364514
0.0362309
0.0360323
0.0358552
0.0356993
0.0355647
0.0354513
0.0353586
0.0352857
0.0352312
0.035193
0.0351687
0.0351552
0.0351496
0.0355953
0.0356012
0.0356129
0.0356301
0.0356523
0.0356782
0.0357066
0.0357368
0.0357719
0.035823
0.0359126
0.0360772
0.0363535
0.0367234
0.0370548
0.0371694
0.0370226
0.0367626
0.0365007
0.0362626
0.0360506
0.0358629
0.0356988
0.0355587
0.0354425
0.0353493
0.0352774
0.0352244
0.0351877
0.0351643
0.0351512
0.0351457
0.035548
0.0355514
0.0355588
0.0355705
0.0355858
0.0356033
0.0356218
0.0356428
0.0356736
0.0357328
0.035854
0.0360843
0.0364527
0.0369027
0.0372553
0.03732
0.037095
0.0367757
0.0364816
0.036229
0.0360121
0.0358244
0.035663
0.0355274
0.0354164
0.0353285
0.0352611
0.0352117
0.0351774
0.0351553
0.0351427
0.0351372
0.0355693
0.0355624
0.0355513
0.0355401
0.0355335
0.0355353
0.0355487
0.0355799
0.0356421
0.0357609
0.035975
0.0363209
0.0367896
0.0372686
0.0375462
0.037462
0.0370944
0.0366876
0.0363551
0.0360934
0.0358834
0.0357107
0.0355683
0.0354525
0.0353597
0.0352867
0.0352305
0.0351884
0.0351585
0.0351384
0.0351264
0.035121
0.0360712
0.036053
0.0360181
0.0359734
0.0359309
0.0359057
0.0359141
0.035973
0.0361003
0.0363167
0.0366401
0.0370634
0.0375189
0.0378506
0.0378702
0.0375124
0.0369542
0.0364559
0.0360946
0.0358356
0.0356459
0.0355045
0.0353984
0.0353182
0.0352568
0.0352089
0.035171
0.0351414
0.0351186
0.0351019
0.0350911
0.0350859
0.037509
0.037499
0.0374782
0.0374495
0.0374221
0.0374102
0.0374312
0.0375028
0.0376378
0.0378393
0.0380899
0.0383369
0.0384808
0.0383924
0.0379931
0.0373422
0.0366587
0.0361365
0.0357835
0.0355422
0.0353739
0.03526
0.0351899
0.035151
0.0351282
0.0351092
0.0350882
0.0350667
0.0350487
0.0350372
0.035032
0.0350308
0.0391059
0.0391113
0.0391209
0.0391326
0.0391454
0.0391599
0.0391784
0.0392037
0.0392331
0.0392526
0.0392304
0.0391178
0.0388603
0.0384275
0.0378481
0.037213
0.0366677
0.0362956
0.0360364
0.0358132
0.0355957
0.0353854
0.0351981
0.0350511
0.0349559
0.0349171
0.034932
0.034991
0.035077
0.0351676
0.0352402
0.0352788
0.0399407
0.0399476
0.0399596
0.0399732
0.0399835
0.0399848
0.0399713
0.0399371
0.0398747
0.0397743
0.0396236
0.0394119
0.0391393
0.0388261
0.0385193
0.0382923
0.0382259
0.0383216
0.0384792
0.0386113
0.0386746
0.0386602
0.0385841
0.0384747
0.0383654
0.0382872
0.0382606
0.0382924
0.0383719
0.0384723
0.0385605
0.0386101
0.0403554
0.0403603
0.0403689
0.0403788
0.0403871
0.04039
0.0403838
0.0403647
0.0403302
0.0402798
0.0402184
0.040158
0.0401208
0.0401449
0.0402917
0.0406593
0.0413324
0.0422539
0.0432405
0.0441618
0.0449375
0.0455286
0.0459335
0.0461636
0.046234
0.0461693
0.0459999
0.0457678
0.0455254
0.0453248
0.0451986
0.045147
0.0406455
0.0406503
0.0406608
0.040678
0.040703
0.0407361
0.0407776
0.0408268
0.0408837
0.040951
0.0410384
0.0411648
0.0413619
0.0416803
0.0421986
0.0430359
0.0442664
0.0457516
0.0472264
0.0485426
0.0496334
0.050484
0.0511229
0.0515643
0.0518149
0.0518827
0.0517824
0.051546
0.0512309
0.0509156
0.0506778
0.0505611
0.0408936
0.0408982
0.0409109
0.0409363
0.0409799
0.0410467
0.0411402
0.0412617
0.0414107
0.0415878
0.0417997
0.0420631
0.0424096
0.0428922
0.0435935
0.0446324
0.0460511
0.0476349
0.0490803
0.0502617
0.051167
0.0518459
0.0523727
0.0527878
0.0531079
0.0533324
0.0534531
0.053467
0.0533876
0.0532517
0.0531163
0.053036
0.0411424
0.0411454
0.0411572
0.0411859
0.0412412
0.0413324
0.0414667
0.041647
0.0418715
0.0421361
0.0424402
0.0427917
0.0432142
0.0437534
0.044485
0.0455181
0.0468745
0.0483166
0.0495545
0.0505023
0.0511971
0.0517316
0.0521876
0.0526067
0.0529952
0.053336
0.0536041
0.0537826
0.0538699
0.053882
0.053852
0.0538215
0.0414332
0.0414322
0.0414385
0.0414643
0.0415237
0.0416308
0.0417964
0.0420247
0.0423123
0.0426495
0.0430268
0.043441
0.0439026
0.044444
0.0451267
0.0460462
0.0472238
0.0484521
0.049488
0.0502755
0.0508686
0.0513596
0.0518204
0.0522867
0.0527575
0.0532038
0.0535843
0.0538675
0.0540432
0.0541244
0.0541412
0.0541327
0.0418143
0.0418055
0.0418004
0.0418168
0.0418751
0.0419948
0.0421894
0.0424635
0.0428107
0.0432151
0.0436584
0.0441264
0.0446167
0.0451464
0.0457595
0.046535
0.0475023
0.0485115
0.0493812
0.0500722
0.0506257
0.0511106
0.0515829
0.0520745
0.0525879
0.0530975
0.0535574
0.0539234
0.0541707
0.0543027
0.0543477
0.054349
0.0423393
0.0423182
0.0422956
0.0422985
0.0423557
0.0424918
0.0427219
0.0430475
0.0434565
0.0439257
0.0444292
0.0449447
0.04546
0.0459795
0.0465307
0.0471745
0.0479467
0.048757
0.0494846
0.0500995
0.0506219
0.0510951
0.0515596
0.0520428
0.0525525
0.0530726
0.053565
0.0539816
0.0542835
0.0544594
0.0545299
0.0545394
0.0430609
0.0430228
0.0429798
0.0429722
0.0430379
0.0432042
0.0434824
0.0438669
0.0443365
0.0448612
0.0454101
0.0459577
0.0464869
0.0469941
0.0474945
0.048032
0.0486427
0.0492819
0.0498784
0.0504108
0.0508836
0.0513213
0.0517516
0.0521966
0.0526665
0.0531543
0.0536336
0.0540617
0.0543935
0.0546025
0.0546961
0.0547139
0.044024
0.0439666
0.0439089
0.0439073
0.0440038
0.0442203
0.0445575
0.0449983
0.0455131
0.0460684
0.0466337
0.0471848
0.0477045
0.0481862
0.0486369
0.0490872
0.0495675
0.0500621
0.0505353
0.0509748
0.0513776
0.0517562
0.0521286
0.0525116
0.0529157
0.0533409
0.0537721
0.0541761
0.0545093
0.0547357
0.0548475
0.0548737
0.0452648
0.0451923
0.0451417
0.0451788
0.0453352
0.0456154
0.046005
0.0464778
0.0470016
0.0475461
0.0480858
0.0486018
0.0490797
0.049513
0.0499048
0.0502749
0.0506465
0.0510186
0.0513784
0.051721
0.052042
0.052347
0.0526471
0.0529541
0.0532772
0.0536208
0.053979
0.0543305
0.0546382
0.0548629
0.0549847
0.0550186
0.0468174
0.0467468
0.0467453
0.0468589
0.0470885
0.0474175
0.0478227
0.0482784
0.0487586
0.0492415
0.0497095
0.0501495
0.0505519
0.0509115
0.0512296
0.0515187
0.0517943
0.052062
0.0523206
0.0525704
0.0528077
0.0530346
0.0532577
0.0534848
0.053723
0.0539777
0.0542492
0.0545272
0.0547855
0.0549885
0.055109
0.0551481
0.0487276
0.0486969
0.0487893
0.0489841
0.0492527
0.0495739
0.0499313
0.0503081
0.0506895
0.0510632
0.0514191
0.0517496
0.0520489
0.0523139
0.0525451
0.05275
0.0529381
0.0531157
0.0532862
0.053452
0.0536107
0.0537628
0.0539122
0.0540633
0.0542212
0.05439
0.0545726
0.0547662
0.0549567
0.055118
0.0552232
0.0552625
0.0510721
0.0511249
0.0512898
0.0514892
0.0517094
0.0519433
0.0521857
0.0524301
0.0526706
0.0529022
0.05312
0.0533206
0.0535011
0.0536599
0.0537974
0.0539174
0.0540249
0.0541244
0.0542192
0.0543116
0.0544003
0.0544853
0.0545686
0.0546524
0.0547394
0.0548322
0.0549331
0.0550424
0.055155
0.0552575
0.0553312
0.0553629
0.0539437
0.0539867
0.054071
0.0541555
0.0542403
0.0543256
0.0544109
0.0544948
0.0545762
0.0546537
0.0547261
0.0547925
0.0548519
0.0549041
0.054949
0.0549879
0.0550224
0.055054
0.055084
0.0551132
0.0551412
0.0551681
0.0551943
0.0552207
0.0552478
0.0552767
0.055308
0.0553421
0.0553781
0.0554123
0.055439
0.0554522
)
;

boundaryField
{
    movingWall
    {
        type            fixedValue;
        value           uniform 0.0555;
    }
    fixedWalls
    {
        type            zeroGradient;
    }
    floor
    {
        type            zeroGradient;
    }
    frontAndBack
    {
        type            empty;
    }
}


// ************************************************************************* //
