/*--------------------------------*- C++ -*----------------------------------*\
| =========                 |                                                 |
| \\      /  F ield         | OpenFOAM: The Open Source CFD Toolbox           |
|  \\    /   O peration     | Version:  2212                                  |
|   \\  /    A nd           | Website:  www.openfoam.com                      |
|    \\/     M anipulation  |                                                 |
\*---------------------------------------------------------------------------*/
FoamFile
{
    version     2.0;
    format      ascii;
    arch        "LSB;label=64;scalar=64";
    class       volScalarField;
    location    "560";
    object      SIC;
}
// * * * * * * * * * * * * * * * * * * * * * * * * * * * * * * * * * * * * * //

dimensions      [1 -3 0 0 0 0 0];

internalField   nonuniform List<scalar> 
1024
(
0.0913599
0.0913603
0.0913624
0.0913664
0.0913729
0.0913817
0.0913929
0.0914056
0.091419
0.0914322
0.0914447
0.091456
0.0914657
0.0914727
0.0914748
0.091469
0.0914529
0.0914314
0.0914092
0.0913879
0.0913681
0.09135
0.0913334
0.0913184
0.0913048
0.0912929
0.0912829
0.0912751
0.0912695
0.0912659
0.0912638
0.091263
0.0913595
0.0913604
0.0913626
0.0913669
0.0913735
0.0913826
0.0913939
0.0914068
0.0914202
0.0914334
0.0914458
0.0914572
0.0914669
0.091474
0.0914762
0.0914704
0.0914542
0.0914325
0.0914103
0.091389
0.0913691
0.0913509
0.0913344
0.0913193
0.0913057
0.0912936
0.0912835
0.0912756
0.0912698
0.0912661
0.091264
0.0912631
0.0913597
0.0913607
0.0913632
0.0913678
0.0913748
0.0913843
0.091396
0.0914091
0.0914225
0.0914357
0.0914481
0.0914595
0.0914695
0.0914769
0.0914795
0.0914738
0.0914574
0.0914353
0.0914129
0.0913913
0.0913713
0.091353
0.0913364
0.0913212
0.0913074
0.0912951
0.0912848
0.0912765
0.0912705
0.0912666
0.0912644
0.0912635
0.0913603
0.0913615
0.0913642
0.0913692
0.0913767
0.0913867
0.0913988
0.0914121
0.0914256
0.0914386
0.0914511
0.0914628
0.0914735
0.0914819
0.0914855
0.0914803
0.0914632
0.0914403
0.0914172
0.0913952
0.0913748
0.0913563
0.0913393
0.0913239
0.0913098
0.0912972
0.0912865
0.0912778
0.0912715
0.0912673
0.091265
0.091264
0.0913613
0.0913625
0.0913655
0.0913709
0.0913789
0.0913895
0.0914019
0.0914153
0.0914288
0.0914418
0.0914545
0.091467
0.0914791
0.0914894
0.091495
0.0914905
0.0914725
0.0914481
0.0914238
0.0914008
0.0913798
0.0913606
0.0913432
0.0913273
0.0913128
0.0912997
0.0912884
0.0912794
0.0912726
0.0912682
0.0912657
0.0912647
0.0913623
0.0913636
0.0913669
0.0913726
0.091381
0.0913919
0.0914046
0.091418
0.0914314
0.0914445
0.0914578
0.0914716
0.0914859
0.0914994
0.0915081
0.0915052
0.091486
0.0914594
0.0914331
0.0914086
0.0913862
0.0913661
0.0913478
0.0913311
0.0913159
0.0913023
0.0912905
0.0912809
0.0912739
0.0912692
0.0912666
0.0912656
0.0913633
0.0913646
0.091368
0.0913738
0.0913824
0.0913934
0.091406
0.0914192
0.0914325
0.0914458
0.0914599
0.0914755
0.091493
0.0915112
0.0915246
0.0915242
0.091504
0.0914745
0.0914454
0.0914185
0.0913943
0.0913725
0.0913528
0.091335
0.0913189
0.0913046
0.0912923
0.0912824
0.091275
0.0912702
0.0912675
0.0912664
0.0913638
0.0913651
0.0913684
0.0913742
0.0913825
0.0913932
0.0914054
0.0914182
0.0914311
0.0914445
0.0914595
0.0914773
0.091499
0.0915232
0.0915433
0.0915468
0.0915259
0.0914933
0.0914607
0.0914308
0.0914039
0.0913798
0.0913582
0.0913388
0.0913215
0.0913064
0.0912936
0.0912834
0.0912759
0.0912711
0.0912684
0.0912673
0.0913635
0.0913648
0.0913679
0.0913732
0.091381
0.0913908
0.0914021
0.091414
0.0914262
0.0914394
0.091455
0.0914751
0.0915017
0.0915338
0.0915627
0.0915715
0.0915506
0.091515
0.0914785
0.0914448
0.0914145
0.0913875
0.0913635
0.0913422
0.0913235
0.0913075
0.0912943
0.0912839
0.0912765
0.0912716
0.091269
0.0912679
0.0913618
0.0913631
0.0913659
0.0913706
0.0913773
0.0913859
0.0913956
0.091406
0.0914169
0.0914292
0.091445
0.0914675
0.0914999
0.091542
0.0915816
0.0915967
0.0915761
0.0915375
0.091497
0.0914593
0.0914253
0.0913951
0.0913682
0.0913448
0.0913247
0.0913079
0.0912943
0.0912839
0.0912766
0.0912719
0.0912692
0.0912682
0.0913582
0.0913594
0.0913619
0.0913659
0.0913713
0.0913781
0.0913858
0.091394
0.0914029
0.0914138
0.0914296
0.091455
0.0914952
0.0915498
0.0916014
0.091622
0.0916002
0.0915577
0.0915131
0.0914716
0.0914342
0.0914009
0.0913715
0.0913462
0.0913248
0.0913074
0.0912936
0.0912834
0.0912762
0.0912716
0.0912691
0.091268
0.0913519
0.091353
0.0913552
0.0913584
0.0913626
0.0913675
0.0913729
0.0913785
0.0913852
0.0913948
0.0914117
0.0914427
0.0914947
0.0915644
0.0916267
0.0916484
0.0916207
0.0915717
0.0915224
0.0914776
0.0914377
0.0914023
0.0913714
0.0913451
0.0913232
0.0913056
0.0912921
0.0912821
0.0912752
0.0912708
0.0912683
0.0912673
0.091343
0.0913436
0.091345
0.0913472
0.0913501
0.0913534
0.0913569
0.0913608
0.0913667
0.0913778
0.0914006
0.091444
0.0915134
0.0915981
0.0916645
0.0916767
0.0916343
0.0915742
0.0915188
0.0914713
0.0914304
0.0913951
0.0913647
0.0913391
0.0913183
0.0913017
0.091289
0.0912797
0.0912733
0.0912691
0.0912667
0.0912657
0.091347
0.0913457
0.0913436
0.0913415
0.0913403
0.0913406
0.0913431
0.091349
0.0913607
0.0913831
0.0914234
0.0914885
0.0915768
0.091667
0.0917193
0.0917034
0.0916342
0.0915576
0.091495
0.0914457
0.0914062
0.0913737
0.0913469
0.091325
0.0913076
0.0912938
0.0912832
0.0912753
0.0912697
0.0912659
0.0912636
0.0912626
0.0914415
0.0914381
0.0914315
0.0914231
0.0914151
0.0914104
0.0914119
0.091423
0.091447
0.0914878
0.0915487
0.0916284
0.0917141
0.0917766
0.0917803
0.0917129
0.0916078
0.091514
0.091446
0.0913972
0.0913615
0.0913349
0.0913149
0.0912998
0.0912882
0.0912792
0.0912721
0.0912665
0.0912622
0.091259
0.091257
0.091256
0.0917123
0.0917104
0.0917065
0.0917011
0.0916959
0.0916937
0.0916976
0.0917111
0.0917365
0.0917745
0.0918217
0.0918682
0.0918953
0.0918786
0.0918034
0.0916809
0.0915522
0.0914539
0.0913874
0.091342
0.0913103
0.0912888
0.0912756
0.0912683
0.091264
0.0912604
0.0912565
0.0912524
0.091249
0.0912468
0.0912459
0.0912456
0.092013
0.092014
0.0920158
0.092018
0.0920204
0.0920232
0.0920266
0.0920314
0.0920369
0.0920406
0.0920364
0.0920152
0.0919667
0.0918852
0.0917761
0.0916566
0.0915539
0.0914838
0.091435
0.091393
0.091352
0.0913124
0.0912772
0.0912495
0.0912316
0.0912243
0.0912271
0.0912382
0.0912544
0.0912714
0.0912851
0.0912924
0.0921702
0.0921715
0.0921737
0.0921763
0.0921782
0.0921785
0.0921759
0.0921695
0.0921578
0.0921388
0.0921105
0.0920706
0.0920193
0.0919603
0.0919025
0.0918598
0.0918473
0.0918653
0.091895
0.0919199
0.0919318
0.0919291
0.0919147
0.0918941
0.0918736
0.0918588
0.0918538
0.0918598
0.0918748
0.0918937
0.0919103
0.0919196
0.0922483
0.0922492
0.0922508
0.0922527
0.0922542
0.0922548
0.0922536
0.09225
0.0922435
0.092234
0.0922225
0.0922111
0.0922041
0.0922086
0.0922363
0.0923055
0.0924322
0.0926058
0.0927916
0.092965
0.0931111
0.0932224
0.0932987
0.093342
0.0933552
0.093343
0.0933111
0.0932674
0.0932218
0.093184
0.0931603
0.0931506
0.0923029
0.0923038
0.0923058
0.092309
0.0923137
0.09232
0.0923278
0.092337
0.0923477
0.0923604
0.0923769
0.0924007
0.0924378
0.0924978
0.0925953
0.092753
0.0929847
0.0932644
0.0935421
0.0937899
0.0939953
0.0941555
0.0942758
0.0943589
0.0944061
0.0944189
0.0944
0.0943555
0.0942961
0.0942368
0.094192
0.09417
0.0923496
0.0923505
0.0923529
0.0923577
0.0923659
0.0923784
0.092396
0.0924189
0.092447
0.0924803
0.0925202
0.0925698
0.0926351
0.092726
0.092858
0.0930536
0.0933208
0.093619
0.0938912
0.0941136
0.0942841
0.0944119
0.0945111
0.0945893
0.0946496
0.0946918
0.0947146
0.0947172
0.0947022
0.0946766
0.0946511
0.094636
0.0923965
0.092397
0.0923993
0.0924047
0.0924151
0.0924322
0.0924575
0.0924915
0.0925338
0.0925836
0.0926408
0.092707
0.0927866
0.0928881
0.0930259
0.0932204
0.0934758
0.0937474
0.0939805
0.094159
0.0942898
0.0943904
0.0944763
0.0945552
0.0946284
0.0946925
0.094743
0.0947766
0.0947931
0.0947953
0.0947897
0.0947839
0.0924512
0.092451
0.0924522
0.0924571
0.0924683
0.0924884
0.0925196
0.0925626
0.0926167
0.0926802
0.0927513
0.0928293
0.0929162
0.0930182
0.0931467
0.0933199
0.0935416
0.0937729
0.093968
0.0941162
0.0942279
0.0943204
0.0944071
0.0944949
0.0945836
0.0946676
0.0947393
0.0947926
0.0948257
0.094841
0.0948441
0.0948425
0.092523
0.0925213
0.0925204
0.0925234
0.0925344
0.092557
0.0925936
0.0926452
0.0927106
0.0927868
0.0928702
0.0929584
0.0930507
0.0931504
0.0932659
0.0934119
0.093594
0.0937841
0.0939478
0.094078
0.0941822
0.0942735
0.0943624
0.094455
0.0945517
0.0946476
0.0947342
0.0948031
0.0948497
0.0948745
0.094883
0.0948833
0.0926219
0.0926179
0.0926136
0.0926142
0.0926249
0.0926506
0.0926939
0.0927552
0.0928322
0.0929206
0.0930154
0.0931124
0.0932095
0.0933073
0.0934111
0.0935323
0.0936777
0.0938303
0.0939673
0.0940831
0.0941815
0.0942706
0.094358
0.094449
0.094545
0.0946429
0.0947356
0.0948141
0.0948709
0.0949041
0.0949173
0.0949191
0.0927577
0.0927506
0.0927425
0.092741
0.0927534
0.0927847
0.0928371
0.0929095
0.0929979
0.0930967
0.0932001
0.0933032
0.0934028
0.0934983
0.0935926
0.0936938
0.0938088
0.0939291
0.0940415
0.0941417
0.0942307
0.0943132
0.0943942
0.094478
0.0945665
0.0946583
0.0947486
0.0948292
0.0948916
0.094931
0.0949486
0.094952
0.0929391
0.0929283
0.0929174
0.0929171
0.0929353
0.0929761
0.0930395
0.0931225
0.0932195
0.093324
0.0934305
0.0935343
0.0936321
0.0937228
0.0938077
0.0938925
0.0939829
0.094076
0.0941652
0.0942479
0.0943238
0.0943951
0.0944652
0.0945373
0.0946134
0.0946934
0.0947746
0.0948507
0.0949135
0.0949561
0.0949771
0.0949821
0.0931727
0.0931591
0.0931496
0.0931565
0.093186
0.0932387
0.0933121
0.0934011
0.0934998
0.0936023
0.0937039
0.0938011
0.0938911
0.0939727
0.0940464
0.0941161
0.0941861
0.0942562
0.0943239
0.0943884
0.0944489
0.0945063
0.0945628
0.0946206
0.0946815
0.0947461
0.0948136
0.0948798
0.0949377
0.09498
0.095003
0.0950093
0.0934651
0.0934518
0.0934515
0.0934729
0.0935161
0.0935781
0.0936544
0.0937402
0.0938306
0.0939215
0.0940096
0.0940925
0.0941683
0.094236
0.0942959
0.0943503
0.0944022
0.0944526
0.0945013
0.0945484
0.094593
0.0946358
0.0946778
0.0947205
0.0947654
0.0948133
0.0948645
0.0949168
0.0949655
0.0950037
0.0950264
0.0950337
0.0938248
0.093819
0.0938364
0.0938731
0.0939236
0.0939841
0.0940514
0.0941224
0.0941942
0.0942646
0.0943316
0.0943938
0.0944502
0.0945001
0.0945436
0.0945822
0.0946176
0.094651
0.0946831
0.0947144
0.0947442
0.0947729
0.094801
0.0948295
0.0948592
0.094891
0.0949254
0.0949618
0.0949977
0.0950281
0.0950479
0.0950553
0.0942662
0.0942762
0.0943072
0.0943448
0.0943862
0.0944303
0.0944759
0.0945219
0.0945672
0.0946108
0.0946518
0.0946896
0.0947236
0.0947535
0.0947794
0.094802
0.0948222
0.094841
0.0948588
0.0948762
0.0948929
0.0949089
0.0949246
0.0949404
0.0949568
0.0949743
0.0949933
0.0950138
0.095035
0.0950543
0.0950682
0.0950742
0.0948069
0.0948151
0.0948309
0.0948468
0.0948628
0.0948789
0.0948949
0.0949107
0.094926
0.0949406
0.0949543
0.0949668
0.094978
0.0949878
0.0949962
0.0950036
0.0950101
0.095016
0.0950217
0.0950272
0.0950324
0.0950375
0.0950424
0.0950474
0.0950525
0.0950579
0.0950638
0.0950703
0.095077
0.0950835
0.0950885
0.095091
)
;

boundaryField
{
    movingWall
    {
        type            fixedValue;
        value           uniform 0.0951;
    }
    fixedWalls
    {
        type            zeroGradient;
    }
    floor
    {
        type            zeroGradient;
    }
    frontAndBack
    {
        type            empty;
    }
}


// ************************************************************************* //
