/*--------------------------------*- C++ -*----------------------------------*\
| =========                 |                                                 |
| \\      /  F ield         | OpenFOAM: The Open Source CFD Toolbox           |
|  \\    /   O peration     | Version:  2212                                  |
|   \\  /    A nd           | Website:  www.openfoam.com                      |
|    \\/     M anipulation  |                                                 |
\*---------------------------------------------------------------------------*/
FoamFile
{
    version     2.0;
    format      ascii;
    arch        "LSB;label=64;scalar=64";
    class       volScalarField;
    location    "560";
    object      Xli;
}
// * * * * * * * * * * * * * * * * * * * * * * * * * * * * * * * * * * * * * //

dimensions      [1 -3 0 0 0 0 0];

internalField   nonuniform List<scalar> 
1024
(
0.0424171
0.0424172
0.0424179
0.0424193
0.0424215
0.0424246
0.0424285
0.042433
0.0424376
0.0424422
0.0424465
0.0424504
0.0424537
0.042456
0.0424566
0.0424543
0.0424485
0.0424406
0.0424326
0.0424248
0.0424175
0.0424109
0.0424048
0.0423992
0.0423943
0.0423899
0.0423862
0.0423834
0.0423813
0.04238
0.0423792
0.0423789
0.0424169
0.0424172
0.042418
0.0424194
0.0424217
0.0424249
0.0424289
0.0424334
0.0424381
0.0424426
0.0424469
0.0424508
0.0424541
0.0424564
0.042457
0.0424548
0.0424489
0.0424411
0.042433
0.0424252
0.0424179
0.0424112
0.0424051
0.0423996
0.0423946
0.0423902
0.0423864
0.0423835
0.0423814
0.04238
0.0423793
0.0423789
0.0424169
0.0424173
0.0424182
0.0424198
0.0424222
0.0424255
0.0424296
0.0424342
0.0424389
0.0424434
0.0424477
0.0424516
0.0424549
0.0424574
0.0424582
0.042456
0.04245
0.042442
0.0424339
0.042426
0.0424187
0.042412
0.0424058
0.0424003
0.0423952
0.0423907
0.0423869
0.0423839
0.0423817
0.0423802
0.0423794
0.0423791
0.0424171
0.0424175
0.0424185
0.0424202
0.0424229
0.0424264
0.0424306
0.0424352
0.0424399
0.0424444
0.0424487
0.0424527
0.0424563
0.0424591
0.0424602
0.0424582
0.042452
0.0424437
0.0424354
0.0424274
0.0424199
0.0424131
0.0424069
0.0424012
0.0423961
0.0423914
0.0423875
0.0423843
0.042382
0.0423805
0.0423796
0.0423793
0.0424175
0.0424179
0.042419
0.0424208
0.0424236
0.0424273
0.0424317
0.0424364
0.042441
0.0424455
0.0424499
0.0424542
0.0424583
0.0424617
0.0424635
0.0424617
0.0424552
0.0424464
0.0424376
0.0424293
0.0424216
0.0424146
0.0424083
0.0424024
0.0423971
0.0423923
0.0423882
0.0423849
0.0423824
0.0423808
0.0423799
0.0423795
0.0424178
0.0424183
0.0424194
0.0424214
0.0424244
0.0424282
0.0424326
0.0424373
0.0424419
0.0424465
0.042451
0.0424557
0.0424606
0.0424652
0.042468
0.0424668
0.0424599
0.0424503
0.0424408
0.042432
0.0424239
0.0424165
0.0424098
0.0424038
0.0423982
0.0423932
0.0423889
0.0423854
0.0423829
0.0423812
0.0423802
0.0423798
0.0424182
0.0424186
0.0424198
0.0424219
0.0424249
0.0424287
0.0424331
0.0424377
0.0424423
0.0424469
0.0424518
0.0424571
0.0424631
0.0424692
0.0424737
0.0424733
0.042466
0.0424555
0.0424451
0.0424354
0.0424267
0.0424187
0.0424116
0.0424051
0.0423992
0.042394
0.0423895
0.0423859
0.0423833
0.0423815
0.0423805
0.0423801
0.0424183
0.0424188
0.04242
0.042422
0.0424249
0.0424287
0.0424329
0.0424374
0.0424418
0.0424465
0.0424516
0.0424577
0.0424651
0.0424734
0.0424801
0.042481
0.0424735
0.0424619
0.0424503
0.0424396
0.0424299
0.0424212
0.0424134
0.0424064
0.0424001
0.0423946
0.04239
0.0423863
0.0423836
0.0423818
0.0423808
0.0423804
0.0424182
0.0424187
0.0424198
0.0424216
0.0424244
0.0424278
0.0424318
0.0424359
0.0424401
0.0424447
0.04245
0.0424569
0.042466
0.042477
0.0424867
0.0424894
0.0424819
0.0424692
0.0424563
0.0424443
0.0424335
0.0424238
0.0424151
0.0424074
0.0424007
0.0423949
0.0423901
0.0423864
0.0423837
0.042382
0.042381
0.0423806
0.0424176
0.0424181
0.0424191
0.0424207
0.0424231
0.0424261
0.0424295
0.0424331
0.0424369
0.0424411
0.0424466
0.0424543
0.0424653
0.0424797
0.042493
0.0424978
0.0424904
0.0424767
0.0424625
0.0424491
0.042437
0.0424262
0.0424166
0.0424082
0.042401
0.0423949
0.0423901
0.0423863
0.0423837
0.042382
0.042381
0.0423806
0.0424164
0.0424168
0.0424177
0.0424191
0.042421
0.0424234
0.0424261
0.0424289
0.042432
0.0424358
0.0424412
0.0424499
0.0424636
0.0424822
0.0424996
0.0425062
0.0424983
0.0424833
0.0424677
0.042453
0.0424398
0.0424279
0.0424175
0.0424084
0.0424008
0.0423946
0.0423897
0.042386
0.0423835
0.0423818
0.0423809
0.0423805
0.0424142
0.0424146
0.0424153
0.0424165
0.0424179
0.0424196
0.0424215
0.0424235
0.0424258
0.0424291
0.0424349
0.0424455
0.0424633
0.0424871
0.042508
0.0425148
0.0425047
0.0424875
0.0424703
0.0424546
0.0424405
0.0424281
0.0424171
0.0424078
0.0424
0.0423938
0.042389
0.0423855
0.042383
0.0423814
0.0423806
0.0423802
0.042411
0.0424112
0.0424117
0.0424125
0.0424135
0.0424147
0.0424159
0.0424173
0.0424193
0.0424231
0.042431
0.0424458
0.0424696
0.0424984
0.0425205
0.0425237
0.0425084
0.0424874
0.0424681
0.0424516
0.0424374
0.042425
0.0424143
0.0424053
0.042398
0.0423922
0.0423877
0.0423845
0.0423822
0.0423807
0.0423799
0.0423795
0.0424123
0.0424119
0.0424112
0.0424105
0.04241
0.0424102
0.042411
0.0424131
0.0424171
0.0424248
0.0424387
0.042461
0.0424911
0.0425215
0.0425384
0.0425318
0.0425071
0.0424804
0.0424588
0.0424418
0.0424281
0.0424168
0.0424075
0.0423999
0.0423939
0.0423892
0.0423855
0.0423827
0.0423808
0.0423794
0.0423786
0.0423782
0.0424451
0.0424439
0.0424417
0.0424387
0.042436
0.0424343
0.0424348
0.0424387
0.0424469
0.0424609
0.0424817
0.0425088
0.0425376
0.0425579
0.0425577
0.0425331
0.0424962
0.0424637
0.0424404
0.0424237
0.0424116
0.0424025
0.0423957
0.0423906
0.0423867
0.0423837
0.0423813
0.0423794
0.0423779
0.0423768
0.0423761
0.0423757
0.0425386
0.042538
0.0425366
0.0425347
0.0425329
0.042532
0.0425333
0.0425378
0.0425463
0.042559
0.0425746
0.0425896
0.0425976
0.0425902
0.0425627
0.0425195
0.0424748
0.0424411
0.0424186
0.0424033
0.0423927
0.0423857
0.0423815
0.0423792
0.0423779
0.0423768
0.0423755
0.0423741
0.042373
0.0423722
0.0423718
0.0423717
0.0426412
0.0426415
0.0426421
0.0426427
0.0426434
0.042644
0.0426449
0.042646
0.0426472
0.0426476
0.0426449
0.0426361
0.0426178
0.0425883
0.0425497
0.0425082
0.0424729
0.0424492
0.0424328
0.0424189
0.0424054
0.0423925
0.042381
0.042372
0.0423663
0.0423639
0.0423648
0.0423685
0.0423738
0.0423793
0.0423838
0.0423861
0.0426936
0.042694
0.0426946
0.0426952
0.0426955
0.0426951
0.0426935
0.0426904
0.0426852
0.0426774
0.0426661
0.0426509
0.0426319
0.0426105
0.0425898
0.0425745
0.0425695
0.042575
0.0425845
0.0425925
0.0425962
0.0425952
0.0425904
0.0425836
0.0425768
0.042572
0.0425704
0.0425724
0.0425773
0.0425835
0.042589
0.0425921
0.0427192
0.0427195
0.0427198
0.0427201
0.0427201
0.0427195
0.0427181
0.0427156
0.042712
0.0427072
0.0427017
0.0426964
0.0426926
0.0426927
0.0427007
0.0427225
0.0427635
0.04282
0.0428804
0.0429366
0.0429838
0.0430196
0.0430439
0.0430576
0.0430616
0.0430574
0.043047
0.0430328
0.043018
0.0430058
0.0429982
0.042995
0.0427374
0.0427376
0.042738
0.0427387
0.0427397
0.0427409
0.0427424
0.0427442
0.0427464
0.0427492
0.0427533
0.0427599
0.042771
0.0427897
0.042821
0.042872
0.0429473
0.0430383
0.0431284
0.0432084
0.0432741
0.0433249
0.0433625
0.0433882
0.0434024
0.0434058
0.0433993
0.0433847
0.0433656
0.0433466
0.0433323
0.0433253
0.0427531
0.0427533
0.0427539
0.0427551
0.0427573
0.0427607
0.0427655
0.042772
0.04278
0.0427898
0.0428019
0.0428173
0.0428379
0.042867
0.0429097
0.0429733
0.0430603
0.0431573
0.0432454
0.0433167
0.0433705
0.0434099
0.0434397
0.0434625
0.0434798
0.0434917
0.0434979
0.0434981
0.0434933
0.0434852
0.0434773
0.0434726
0.0427689
0.042769
0.0427695
0.042771
0.042774
0.042779
0.0427865
0.0427967
0.0428096
0.0428249
0.0428429
0.0428638
0.0428893
0.0429221
0.0429668
0.0430302
0.0431135
0.0432019
0.0432773
0.0433343
0.0433751
0.0434054
0.0434303
0.0434526
0.0434731
0.043491
0.0435051
0.0435145
0.0435192
0.0435199
0.0435183
0.0435167
0.042787
0.0427868
0.0427871
0.0427885
0.0427917
0.0427978
0.0428073
0.0428206
0.0428374
0.0428573
0.0428798
0.0429047
0.0429326
0.0429656
0.0430075
0.043064
0.0431365
0.0432118
0.0432749
0.0433222
0.0433569
0.0433846
0.0434097
0.0434346
0.0434595
0.043483
0.0435031
0.043518
0.0435274
0.0435318
0.0435328
0.0435325
0.0428101
0.0428096
0.0428092
0.04281
0.0428133
0.0428202
0.0428315
0.0428476
0.0428681
0.0428921
0.0429185
0.0429466
0.0429762
0.0430084
0.043046
0.0430938
0.0431534
0.0432154
0.0432684
0.0433098
0.0433421
0.0433696
0.0433956
0.0434222
0.0434496
0.0434766
0.043501
0.0435203
0.0435334
0.0435404
0.0435429
0.0435431
0.0428415
0.0428402
0.0428388
0.0428389
0.0428422
0.0428501
0.0428636
0.0428827
0.0429068
0.0429346
0.0429646
0.0429954
0.0430263
0.0430578
0.0430915
0.0431311
0.0431787
0.0432285
0.0432728
0.0433096
0.0433402
0.0433672
0.043393
0.0434194
0.0434468
0.0434746
0.0435008
0.0435228
0.0435388
0.0435481
0.0435519
0.0435525
0.042884
0.0428817
0.0428792
0.0428787
0.0428825
0.0428922
0.0429085
0.042931
0.0429587
0.0429896
0.0430221
0.0430547
0.0430863
0.0431168
0.0431472
0.0431802
0.0432178
0.043257
0.0432933
0.0433251
0.0433529
0.043378
0.0434021
0.0434266
0.0434521
0.0434783
0.0435039
0.0435266
0.0435441
0.0435551
0.0435601
0.0435611
0.0429402
0.0429368
0.0429334
0.0429333
0.0429389
0.0429515
0.0429712
0.042997
0.0430272
0.0430598
0.0430931
0.0431257
0.0431566
0.0431853
0.0432125
0.04324
0.0432695
0.0432999
0.0433286
0.0433549
0.0433785
0.0434004
0.0434214
0.0434426
0.0434647
0.0434877
0.0435108
0.0435323
0.0435498
0.0435618
0.0435677
0.0435691
0.0430121
0.0430079
0.043005
0.0430071
0.0430162
0.0430324
0.0430551
0.0430826
0.0431132
0.0431451
0.0431768
0.0432071
0.0432354
0.0432612
0.0432846
0.0433071
0.0433298
0.0433526
0.0433745
0.043395
0.0434138
0.0434315
0.0434485
0.0434657
0.0434834
0.0435021
0.0435213
0.0435401
0.0435563
0.0435681
0.0435745
0.0435763
0.0431018
0.0430977
0.0430976
0.0431041
0.0431174
0.0431364
0.0431599
0.0431864
0.0432143
0.0432425
0.0432699
0.0432957
0.0433194
0.0433407
0.0433597
0.0433771
0.0433939
0.0434103
0.043426
0.0434409
0.0434549
0.0434681
0.0434808
0.0434936
0.0435068
0.0435206
0.0435353
0.0435501
0.0435638
0.0435744
0.0435807
0.0435827
0.0432117
0.0432099
0.0432152
0.0432264
0.0432419
0.0432605
0.0432811
0.043303
0.0433251
0.0433469
0.0433676
0.043387
0.0434046
0.0434202
0.043434
0.0434463
0.0434577
0.0434686
0.0434789
0.0434888
0.0434982
0.0435071
0.0435156
0.0435242
0.0435329
0.0435422
0.043552
0.0435624
0.0435724
0.0435809
0.0435864
0.0435884
0.0433463
0.0433494
0.0433588
0.0433703
0.0433829
0.0433964
0.0434104
0.0434245
0.0434385
0.043452
0.0434647
0.0434764
0.043487
0.0434963
0.0435045
0.0435117
0.0435182
0.0435243
0.04353
0.0435356
0.0435408
0.0435458
0.0435506
0.0435553
0.0435602
0.0435653
0.0435707
0.0435766
0.0435825
0.0435879
0.0435917
0.0435933
0.0435109
0.0435134
0.0435182
0.0435231
0.0435279
0.0435329
0.0435378
0.0435426
0.0435473
0.0435518
0.0435561
0.0435599
0.0435634
0.0435665
0.0435692
0.0435715
0.0435736
0.0435755
0.0435773
0.0435791
0.0435807
0.0435823
0.0435838
0.0435853
0.0435868
0.0435884
0.0435901
0.043592
0.0435939
0.0435956
0.043597
0.0435977
)
;

boundaryField
{
    movingWall
    {
        type            fixedValue;
        value           uniform 0.0436;
    }
    fixedWalls
    {
        type            zeroGradient;
    }
    floor
    {
        type            zeroGradient;
    }
    frontAndBack
    {
        type            empty;
    }
}


// ************************************************************************* //
