/*--------------------------------*- C++ -*----------------------------------*\
| =========                 |                                                 |
| \\      /  F ield         | OpenFOAM: The Open Source CFD Toolbox           |
|  \\    /   O peration     | Version:  2212                                  |
|   \\  /    A nd           | Website:  www.openfoam.com                      |
|    \\/     M anipulation  |                                                 |
\*---------------------------------------------------------------------------*/
FoamFile
{
    version     2.0;
    format      ascii;
    arch        "LSB;label=64;scalar=64";
    class       volScalarField::Internal;
    location    "110";
    object      dGco2;
}
// * * * * * * * * * * * * * * * * * * * * * * * * * * * * * * * * * * * * * //

dimensions      [1 -3 -1 0 0 0 0];

value           nonuniform List<scalar> 
1024
(
0.000203467
0.000203502
0.000203582
0.000203716
0.000203904
0.000204134
0.000204391
0.000204662
0.000204939
0.000205223
0.000205522
0.000205839
0.000206171
0.000206502
0.000206795
0.000206984
0.000206972
0.000206783
0.000206513
0.000206222
0.000205936
0.000205662
0.000205401
0.000205146
0.000204892
0.000204643
0.000204411
0.000204214
0.000204063
0.000203961
0.000203902
0.000203878
0.000203474
0.00020351
0.000203595
0.000203736
0.000203931
0.000204167
0.000204428
0.000204701
0.000204981
0.000205267
0.000205567
0.000205884
0.000206214
0.000206543
0.000206834
0.000207019
0.000207003
0.000206809
0.000206537
0.000206245
0.00020596
0.000205688
0.000205428
0.000205175
0.000204923
0.000204674
0.000204439
0.000204236
0.000204079
0.000203972
0.00020391
0.000203884
0.000203487
0.000203526
0.000203617
0.000203769
0.000203976
0.000204224
0.000204496
0.000204781
0.000205072
0.000205368
0.000205675
0.000205995
0.000206325
0.000206651
0.000206936
0.000207108
0.000207073
0.00020686
0.000206574
0.000206277
0.000205992
0.000205724
0.00020547
0.000205224
0.000204978
0.000204731
0.000204492
0.000204281
0.000204113
0.000203995
0.000203927
0.000203899
0.000203505
0.000203547
0.000203645
0.000203808
0.000204031
0.000204297
0.000204591
0.000204901
0.000205218
0.00020554
0.000205866
0.000206197
0.00020653
0.000206853
0.000207124
0.000207267
0.000207186
0.000206926
0.000206607
0.000206294
0.000206007
0.000205747
0.000205505
0.000205271
0.000205038
0.0002048
0.000204561
0.000204341
0.00020416
0.00020403
0.000203953
0.000203921
0.000203526
0.000203569
0.000203673
0.000203847
0.000204087
0.000204379
0.000204707
0.00020506
0.000205425
0.000205792
0.000206156
0.000206512
0.000206856
0.000207174
0.000207419
0.000207505
0.000207338
0.000206992
0.000206611
0.000206267
0.000205975
0.000205724
0.000205501
0.000205289
0.000205077
0.000204856
0.000204626
0.000204403
0.000204211
0.00020407
0.000203985
0.00020395
0.000203547
0.000203591
0.000203699
0.000203882
0.00020414
0.000204464
0.00020484
0.000205255
0.000205693
0.000206132
0.000206557
0.000206955
0.000207317
0.000207624
0.000207821
0.00020781
0.000207507
0.000207027
0.000206549
0.000206158
0.000205857
0.000205622
0.000205426
0.000205248
0.000205068
0.000204875
0.000204664
0.000204448
0.000204254
0.000204106
0.000204017
0.000203979
0.000203567
0.000203611
0.00020372
0.000203911
0.000204188
0.000204548
0.000204986
0.000205485
0.000206021
0.000206559
0.000207068
0.000207525
0.000207908
0.000208187
0.000208301
0.000208142
0.00020765
0.000206989
0.000206383
0.00020593
0.000205621
0.00020541
0.000205253
0.000205121
0.000204987
0.000204835
0.000204655
0.000204458
0.000204274
0.000204129
0.000204039
0.000204001
0.000203584
0.000203628
0.000203738
0.000203935
0.000204232
0.000204636
0.000205147
0.000205749
0.000206407
0.000207068
0.000207681
0.000208202
0.000208595
0.000208818
0.000208801
0.000208447
0.000207726
0.000206851
0.000206089
0.000205561
0.000205246
0.000205069
0.000204966
0.000204895
0.000204821
0.000204722
0.000204586
0.000204423
0.000204261
0.000204129
0.000204046
0.00020401
0.0002036
0.000203644
0.000203755
0.000203959
0.000204278
0.000204733
0.00020533
0.000206054
0.000206853
0.000207653
0.000208374
0.000208948
0.000209323
0.000209449
0.000209263
0.000208691
0.000207741
0.00020664
0.000205696
0.000205073
0.000204746
0.000204609
0.000204571
0.000204573
0.000204571
0.000204538
0.000204458
0.00020434
0.000204211
0.000204102
0.000204031
0.000203998
0.000203618
0.000203662
0.000203776
0.00020399
0.000204338
0.000204852
0.00020555
0.00020641
0.000207364
0.000208305
0.000209121
0.000209718
0.000210034
0.000210028
0.000209669
0.00020892
0.000207795
0.00020648
0.000205319
0.000204553
0.000204188
0.000204082
0.000204106
0.000204183
0.000204258
0.000204295
0.000204278
0.000204214
0.000204127
0.000204046
0.000203988
0.000203959
0.000203643
0.000203689
0.000203808
0.000204037
0.000204423
0.000205009
0.000205822
0.000206833
0.000207946
0.000209016
0.000209893
0.000210467
0.000210689
0.000210557
0.000210091
0.00020928
0.000208085
0.000206581
0.000205152
0.000204162
0.000203691
0.000203577
0.000203639
0.000203776
0.000203918
0.00020402
0.000204062
0.000204051
0.000204006
0.000203954
0.00020391
0.000203885
0.000203688
0.000203736
0.000203864
0.000204117
0.000204551
0.000205226
0.000206172
0.000207344
0.000208608
0.000209771
0.000210657
0.000211164
0.000211291
0.000211101
0.00021066
0.000209946
0.000208814
0.000207185
0.000205443
0.000204112
0.000203412
0.000203205
0.000203257
0.000203421
0.000203605
0.000203756
0.000203849
0.000203883
0.000203872
0.000203839
0.000203803
0.000203778
0.000203771
0.000203823
0.000203966
0.000204255
0.000204758
0.000205544
0.000206638
0.000207967
0.000209348
0.000210542
0.000211371
0.000211784
0.000211859
0.000211719
0.000211446
0.000210989
0.000210103
0.000208515
0.000206494
0.000204703
0.000203571
0.000203102
0.000203053
0.000203185
0.000203356
0.000203501
0.000203599
0.000203649
0.000203659
0.000203643
0.000203616
0.000203596
0.000203933
0.000203993
0.000204163
0.000204508
0.000205108
0.000206032
0.000207278
0.000208725
0.000210137
0.000211256
0.000211947
0.000212245
0.000212298
0.000212259
0.000212219
0.000212162
0.000211846
0.000210748
0.000208752
0.00020649
0.000204656
0.00020357
0.000203154
0.000203152
0.000203307
0.000203466
0.000203562
0.000203583
0.00020355
0.000203493
0.000203441
0.00020341
0.000204172
0.000204244
0.000204447
0.000204859
0.000205562
0.000206601
0.000207932
0.000209383
0.000210693
0.000211626
0.000212102
0.000212212
0.000212132
0.000212036
0.000212096
0.000212484
0.000213166
0.000213473
0.000212564
0.000210549
0.000208118
0.000205944
0.000204348
0.00020335
0.00020284
0.000202618
0.000202575
0.00020263
0.000202735
0.00020286
0.000202973
0.000203037
0.00020453
0.000204613
0.000204845
0.000205305
0.00020606
0.00020712
0.000208394
0.000209677
0.000210708
0.000211273
0.000211319
0.00021094
0.000210312
0.00020965
0.000209266
0.000209648
0.000211233
0.00021376
0.00021587
0.000216638
0.000215989
0.000214429
0.000212547
0.000210756
0.000209284
0.000208179
0.000207469
0.000207119
0.000207071
0.000207212
0.000207405
0.00020753
0.000204799
0.000204886
0.000205113
0.000205537
0.0002062
0.000207083
0.00020808
0.000208989
0.000209564
0.000209605
0.000209045
0.000207955
0.000206496
0.000204889
0.000203465
0.000202742
0.000203381
0.000205972
0.000210086
0.000214654
0.000218582
0.0002213
0.000222795
0.000223339
0.000223264
0.000222851
0.00022229
0.000221709
0.000221219
0.000220878
0.000220691
0.000220623
0.000204782
0.000204872
0.000205078
0.000205432
0.000205954
0.000206617
0.00020733
0.000207924
0.000208192
0.000207956
0.000207145
0.000205824
0.000204163
0.000202395
0.000200792
0.00019958
0.000198883
0.000199015
0.000200481
0.000203598
0.00020806
0.000213082
0.000217863
0.000221869
0.00022488
0.000226897
0.000228052
0.00022854
0.000228595
0.000228443
0.000228262
0.000228159
0.000204537
0.000204627
0.000204812
0.000205101
0.000205496
0.00020598
0.000206486
0.000206892
0.000207036
0.000206769
0.000206023
0.000204854
0.000203426
0.000201977
0.000200741
0.000199844
0.000199283
0.000199106
0.000199493
0.000200786
0.000203332
0.000207174
0.000211923
0.000216899
0.000221433
0.000225082
0.000227684
0.000229308
0.000230157
0.000230488
0.00023055
0.000230529
0.000204138
0.000204235
0.000204419
0.000204675
0.00020499
0.000205348
0.000205711
0.000206001
0.000206108
0.000205915
0.000205353
0.000204454
0.000203348
0.000202223
0.000201241
0.000200439
0.000199781
0.000199397
0.000199494
0.000200318
0.00020215
0.000205217
0.0002095
0.000214598
0.000219818
0.000224446
0.000228016
0.000230401
0.000231746
0.000232342
0.000232508
0.000232508
0.000203562
0.000203658
0.000203846
0.000204108
0.000204413
0.000204731
0.000205031
0.000205267
0.00020537
0.000205261
0.000204881
0.000204237
0.000203411
0.000202532
0.000201702
0.000200947
0.000200337
0.000200061
0.000200245
0.000201017
0.000202578
0.00020518
0.000208978
0.000213818
0.00021917
0.000224286
0.00022851
0.00023151
0.000233304
0.000234155
0.000234423
0.00023444
0.000203172
0.000203207
0.000203301
0.000203477
0.00020373
0.000204027
0.000204321
0.00020456
0.000204693
0.000204665
0.00020443
0.000203983
0.000203369
0.000202667
0.00020196
0.000201336
0.000200989
0.000201064
0.000201568
0.000202542
0.000204124
0.000206541
0.000210005
0.000214513
0.0002197
0.000224898
0.00022941
0.000232774
0.000234882
0.000235933
0.000236287
0.000236321
0.00020372
0.000203634
0.000203491
0.000203369
0.000203352
0.000203459
0.000203651
0.000203856
0.000204006
0.000204038
0.00020391
0.000203608
0.000203159
0.000202628
0.000202124
0.000201846
0.000202034
0.000202668
0.000203622
0.000204886
0.000206571
0.000208882
0.000212048
0.000216159
0.000220994
0.000226002
0.000230524
0.000234049
0.000236362
0.000237573
0.000238008
0.000238059
0.000205564
0.000205363
0.000204944
0.000204395
0.000203883
0.000203543
0.000203406
0.000203411
0.000203465
0.000203483
0.000203407
0.000203218
0.000202946
0.00020268
0.000202587
0.00020294
0.000203882
0.00020516
0.000206557
0.000208069
0.000209815
0.000211992
0.00021483
0.00021847
0.000222809
0.000227434
0.000231765
0.000235286
0.000237711
0.000239046
0.000239558
0.000239631
0.000208431
0.000208159
0.000207533
0.000206587
0.00020552
0.000204581
0.000203921
0.000203543
0.000203361
0.000203275
0.000203218
0.000203173
0.000203188
0.000203386
0.000203955
0.000205134
0.000206858
0.000208681
0.000210382
0.000212012
0.000213716
0.000215688
0.000218145
0.000221246
0.000224982
0.000229075
0.000233059
0.000236447
0.000238902
0.000240337
0.000240928
0.000241028
0.000211887
0.000211575
0.000210824
0.000209612
0.000208102
0.0002066
0.00020538
0.000204555
0.000204091
0.000203903
0.000203925
0.000204148
0.000204621
0.000205459
0.000206792
0.000208733
0.000211024
0.000213146
0.000214946
0.000216541
0.000218095
0.000219794
0.00022183
0.000224361
0.000227434
0.000230898
0.000234412
0.000237549
0.000239953
0.000241452
0.000242121
0.000242255
0.000215684
0.000215348
0.000214567
0.000213293
0.000211608
0.000209773
0.000208144
0.000206976
0.000206326
0.000206138
0.000206355
0.000206951
0.000207943
0.000209381
0.000211296
0.000213677
0.000216173
0.000218303
0.000220005
0.000221435
0.000222763
0.000224152
0.000225761
0.00022773
0.000230135
0.000232921
0.000235871
0.000238648
0.000240907
0.000242417
0.000243152
0.000243327
0.000219782
0.000219459
0.000218802
0.000217749
0.000216268
0.000214492
0.000212758
0.000211469
0.000210788
0.000210692
0.000211119
0.000212018
0.000213353
0.000215099
0.000217207
0.000219601
0.000221939
0.000223838
0.000225298
0.000226483
0.000227546
0.000228619
0.000229827
0.00023128
0.00023306
0.000235169
0.000237499
0.000239818
0.000241828
0.000243272
0.000244043
0.000244257
0.000224291
0.000224049
0.000223705
0.000223142
0.000222201
0.000220871
0.000219391
0.000218219
0.000217612
0.000217587
0.000218093
0.000219057
0.000220405
0.00022207
0.000223971
0.000226021
0.000227943
0.000229459
0.000230599
0.000231504
0.000232295
0.000233072
0.000233924
0.000234932
0.000236162
0.000237645
0.000239345
0.000241131
0.000242785
0.000244066
0.000244817
0.00024506
0.000229441
0.000229365
0.000229453
0.000229446
0.000229119
0.000228403
0.000227417
0.000226535
0.000226047
0.000226023
0.000226437
0.000227217
0.000228286
0.000229571
0.000230997
0.000232494
0.000233868
0.000234937
0.00023573
0.000236352
0.000236886
0.000237399
0.000237949
0.000238588
0.000239363
0.000240305
0.000241415
0.000242636
0.000243843
0.000244855
0.000245506
0.000245749
0.000235575
0.000235738
0.000236125
0.000236412
0.00023646
0.000236221
0.000235736
0.00023522
0.000234895
0.000234852
0.000235087
0.000235554
0.000236199
0.000236968
0.000237812
0.000238689
0.000239488
0.000240106
0.000240561
0.000240916
0.000241217
0.000241502
0.000241802
0.000242145
0.000242557
0.000243058
0.000243658
0.00024434
0.000245049
0.00024569
0.000246146
0.000246341
0.000243059
0.000243182
0.000243398
0.000243561
0.000243633
0.000243601
0.00024347
0.000243305
0.00024319
0.000243165
0.000243235
0.000243385
0.000243593
0.000243842
0.000244115
0.000244398
0.000244655
0.000244853
0.000245
0.000245113
0.000245209
0.000245299
0.000245392
0.000245498
0.000245624
0.000245777
0.000245961
0.000246172
0.000246398
0.000246613
0.000246778
0.000246859
)
;


// ************************************************************************* //
