/*--------------------------------*- C++ -*----------------------------------*\
| =========                 |                                                 |
| \\      /  F ield         | OpenFOAM: The Open Source CFD Toolbox           |
|  \\    /   O peration     | Version:  2212                                  |
|   \\  /    A nd           | Website:  www.openfoam.com                      |
|    \\/     M anipulation  |                                                 |
\*---------------------------------------------------------------------------*/
FoamFile
{
    version     2.0;
    format      ascii;
    arch        "LSB;label=64;scalar=64";
    class       volScalarField;
    location    "110";
    object      Gco2;
}
// * * * * * * * * * * * * * * * * * * * * * * * * * * * * * * * * * * * * * //

dimensions      [1 -3 0 0 0 0 0];

internalField   nonuniform List<scalar> 
1024
(
0.0327222
0.0327069
0.0326715
0.032612
0.0325291
0.0324275
0.0323145
0.0321956
0.0320738
0.0319487
0.0318176
0.0316788
0.0315338
0.031389
0.0312609
0.0311786
0.0311837
0.0312667
0.0313849
0.0315126
0.0316383
0.0317586
0.0318738
0.0319861
0.0320979
0.0322076
0.0323097
0.0323968
0.0324637
0.032509
0.032535
0.0325459
0.0327192
0.0327032
0.0326658
0.0326034
0.0325173
0.0324132
0.0322983
0.0321781
0.0320552
0.0319293
0.0317978
0.0316593
0.0315148
0.0313708
0.0312438
0.0311631
0.0311702
0.031255
0.0313743
0.0315024
0.0316278
0.0317473
0.0318616
0.031973
0.0320841
0.032194
0.0322975
0.032387
0.0324565
0.0325041
0.0325315
0.032543
0.0327134
0.0326963
0.0326558
0.0325889
0.0324974
0.032388
0.032268
0.0321428
0.0320149
0.0318846
0.0317502
0.0316105
0.0314663
0.0313237
0.0311996
0.0311244
0.0311399
0.0312329
0.0313579
0.0314884
0.0316136
0.0317313
0.031843
0.0319514
0.0320599
0.0321688
0.0322739
0.0323674
0.0324418
0.0324936
0.0325238
0.0325364
0.0327054
0.0326871
0.0326436
0.0325715
0.0324732
0.0323556
0.0322261
0.0320897
0.0319499
0.0318088
0.0316661
0.0315216
0.0313762
0.0312355
0.0311173
0.031055
0.0310905
0.0312038
0.0313433
0.0314807
0.0316066
0.0317212
0.0318278
0.0319304
0.0320333
0.0321384
0.0322435
0.0323407
0.0324209
0.0324783
0.032512
0.0325261
0.0326963
0.0326771
0.0326311
0.0325541
0.0324482
0.0323194
0.0321746
0.0320191
0.0318583
0.031697
0.031538
0.0313828
0.0312333
0.0310952
0.0309885
0.0309511
0.0310239
0.0311748
0.0313416
0.0314924
0.0316207
0.0317309
0.0318293
0.0319224
0.0320157
0.0321132
0.0322147
0.0323132
0.032398
0.0324604
0.0324977
0.0325133
0.032687
0.0326674
0.0326198
0.0325389
0.0324248
0.0322819
0.0321158
0.0319322
0.0317393
0.0315467
0.0313611
0.0311878
0.031031
0.0308983
0.0308131
0.030818
0.03095
0.0311593
0.031368
0.0315397
0.0316718
0.0317753
0.0318617
0.0319405
0.0320195
0.0321046
0.0321979
0.0322932
0.032379
0.0324441
0.0324838
0.0325003
0.0326783
0.0326587
0.0326104
0.0325263
0.0324038
0.0322441
0.0320507
0.03183
0.0315938
0.0313578
0.0311354
0.0309372
0.030772
0.0306517
0.0306035
0.0306727
0.030887
0.031175
0.0314401
0.0316391
0.0317751
0.0318683
0.0319373
0.031996
0.032055
0.0321223
0.0322018
0.0322885
0.0323701
0.032434
0.0324736
0.0324902
0.0326706
0.0326511
0.0326025
0.0325156
0.0323841
0.0322051
0.0319789
0.0317124
0.0314225
0.0311327
0.0308655
0.0306399
0.0304709
0.030376
0.0303847
0.0305395
0.0308531
0.0312347
0.0315681
0.0318002
0.0319393
0.0320178
0.0320633
0.0320952
0.0321279
0.0321716
0.0322317
0.0323038
0.0323757
0.0324337
0.0324704
0.0324863
0.0326635
0.032644
0.0325949
0.0325048
0.0323632
0.0321616
0.0318971
0.0315773
0.0312252
0.0308747
0.0305607
0.0303123
0.030152
0.0301002
0.0301831
0.0304325
0.0308458
0.0313262
0.0317398
0.0320142
0.0321585
0.0322195
0.032237
0.0322366
0.0322375
0.0322526
0.0322882
0.0323404
0.0323972
0.0324454
0.0324771
0.0324915
0.0326555
0.0326358
0.0325855
0.0324909
0.0323366
0.0321085
0.0317998
0.0314198
0.0309999
0.0305876
0.0302326
0.0299754
0.0298418
0.0298476
0.0300054
0.0303316
0.0308209
0.0313958
0.0319052
0.0322422
0.0324036
0.0324514
0.0324416
0.032408
0.0323752
0.0323592
0.0323671
0.0323958
0.0324342
0.0324701
0.0324956
0.0325084
0.0326438
0.0326236
0.0325709
0.0324693
0.0322987
0.0320387
0.0316791
0.0312327
0.0307433
0.0302755
0.0298949
0.0296486
0.0295567
0.0296173
0.0298212
0.0301738
0.0306939
0.0313516
0.0319793
0.0324149
0.0326228
0.032674
0.0326473
0.032587
0.032525
0.0324805
0.032462
0.0324675
0.0324872
0.0325106
0.0325299
0.0325409
0.0326237
0.0326023
0.0325456
0.0324338
0.0322414
0.0319427
0.0315247
0.0310078
0.0304528
0.0299449
0.0295617
0.0293455
0.0292949
0.0293802
0.0295724
0.0298822
0.030375
0.0310881
0.0318536
0.0324393
0.0327474
0.0328388
0.0328162
0.032744
0.0326631
0.0325967
0.0325559
0.0325414
0.0325464
0.0325611
0.0325771
0.0325878
0.0325863
0.0325633
0.0325
0.0323725
0.03215
0.0318024
0.0313194
0.030734
0.0301285
0.0296081
0.029251
0.0290762
0.0290482
0.0291112
0.0292295
0.0294271
0.0298123
0.0305079
0.0313961
0.0321837
0.0326806
0.0328861
0.0329071
0.0328488
0.0327735
0.0327097
0.0326667
0.0326449
0.0326404
0.0326475
0.0326593
0.0326685
0.0325138
0.0324871
0.0324123
0.0322599
0.0319946
0.0315866
0.0310367
0.0304
0.0297821
0.0292964
0.0290011
0.0288774
0.0288587
0.0288775
0.0288942
0.0289165
0.0290519
0.0295321
0.0304097
0.0314047
0.0322104
0.0326851
0.0328647
0.0328635
0.0327944
0.0327241
0.0326818
0.0326726
0.0326873
0.0327125
0.032736
0.0327495
0.0324058
0.0323744
0.0322848
0.0321029
0.0317929
0.0313344
0.0307482
0.0301113
0.0295396
0.0291365
0.0289356
0.0288947
0.0289352
0.02898
0.0289543
0.0287815
0.0284772
0.0283395
0.0287408
0.0296304
0.0307017
0.0316565
0.0323544
0.032788
0.0330081
0.0331022
0.0331192
0.0330944
0.0330485
0.032994
0.0329451
0.0329169
0.0322459
0.0322093
0.0321072
0.0319045
0.0315719
0.0311051
0.0305449
0.0299821
0.0295331
0.029291
0.0292792
0.0294538
0.0297366
0.0300318
0.0302018
0.0300308
0.0293278
0.0282111
0.0272832
0.0269521
0.0272474
0.0279419
0.0287744
0.0295629
0.0302089
0.0306919
0.031
0.0311493
0.0311667
0.0311011
0.0310141
0.0309581
0.032124
0.0320856
0.0319862
0.0317994
0.0315073
0.0311179
0.0306792
0.0302797
0.0300295
0.0300165
0.0302703
0.0307577
0.0314071
0.0321191
0.0327476
0.033063
0.0327744
0.0316246
0.0298048
0.0277912
0.0260671
0.0248816
0.0242356
0.0240069
0.0240474
0.0242335
0.0244819
0.0247371
0.0249498
0.0250963
0.0251759
0.0252044
0.0321264
0.0320873
0.0319967
0.0318406
0.0316106
0.0313176
0.0310032
0.0307419
0.0306261
0.0307345
0.031098
0.031687
0.0324256
0.0332085
0.0339156
0.0344467
0.034749
0.0346853
0.034031
0.0326482
0.0306749
0.0284603
0.0263579
0.0246015
0.0232854
0.0224066
0.0219062
0.0216973
0.0216764
0.0217451
0.021825
0.0218707
0.0322307
0.0321914
0.0321099
0.0319825
0.0318074
0.0315931
0.0313692
0.0311907
0.0311293
0.0312509
0.0315859
0.0321091
0.0327454
0.0333888
0.0339343
0.0343264
0.0345696
0.0346435
0.0344687
0.0338932
0.0327648
0.0310664
0.0289715
0.0267811
0.0247893
0.0231896
0.0220507
0.0213418
0.0209726
0.0208295
0.0208037
0.0208137
0.0324028
0.0323607
0.0322801
0.0321674
0.032028
0.0318692
0.0317083
0.03158
0.0315344
0.0316234
0.0318769
0.0322803
0.0327748
0.0332753
0.0337086
0.0340585
0.0343423
0.0345056
0.0344577
0.0340906
0.0332793
0.0319251
0.0300363
0.0277909
0.0254955
0.0234635
0.0218987
0.020855
0.0202675
0.0200082
0.0199367
0.0199376
0.0326525
0.0326101
0.0325271
0.0324122
0.0322783
0.0321384
0.0320062
0.0319026
0.0318582
0.0319093
0.0320817
0.0323717
0.0327414
0.033133
0.0334989
0.0338277
0.0340894
0.0342031
0.0341147
0.0337699
0.0330802
0.0319334
0.0302607
0.0281298
0.025776
0.0235289
0.0216757
0.0203618
0.0195772
0.019206
0.01909
0.0190829
0.032831
0.0328139
0.0327696
0.0326894
0.032576
0.0324446
0.0323158
0.0322114
0.0321542
0.0321694
0.0322769
0.0324787
0.032754
0.0330661
0.0333777
0.0336489
0.0337937
0.0337508
0.0335201
0.0330859
0.0323879
0.0313253
0.0298029
0.0278212
0.0255414
0.023258
0.0212779
0.0198033
0.0188805
0.0184213
0.0182672
0.0182531
0.0326138
0.0326492
0.0327068
0.0327523
0.0327522
0.0326989
0.0326112
0.0325199
0.0324549
0.0324429
0.0325025
0.0326391
0.0328404
0.0330762
0.0332981
0.0334171
0.0333255
0.0330348
0.0326054
0.0320435
0.0313017
0.0302883
0.0288997
0.0270948
0.0249715
0.0227723
0.0207875
0.0192418
0.0182284
0.0176988
0.0175091
0.0174869
0.0318316
0.0319187
0.032098
0.0323302
0.0325429
0.0326797
0.0327302
0.0327221
0.0326957
0.0326879
0.0327229
0.0328082
0.03293
0.033048
0.0330884
0.0329289
0.0325045
0.0319301
0.0313061
0.0306359
0.0298687
0.0289156
0.0276733
0.0260779
0.024174
0.0221439
0.020243
0.0186983
0.0176355
0.0170505
0.0168265
0.0167949
0.0305895
0.0307094
0.0309835
0.031393
0.0318503
0.0322477
0.0325231
0.0326779
0.0327508
0.0327846
0.0328084
0.0328278
0.0328212
0.0327337
0.0324819
0.0319587
0.0311904
0.0303769
0.0296197
0.0288988
0.0281511
0.0272891
0.0262157
0.0248579
0.0232202
0.0214239
0.0196756
0.0181894
0.0171124
0.0164836
0.0162246
0.0161809
0.0290753
0.0292144
0.0295464
0.0300778
0.0307345
0.0313818
0.0319016
0.0322491
0.0324418
0.0325167
0.0325018
0.0324007
0.0321902
0.0318201
0.0312317
0.0303728
0.0293558
0.0284121
0.0276129
0.0269088
0.0262272
0.0254852
0.0245967
0.0234901
0.0221437
0.0206243
0.0190827
0.017706
0.0166511
0.0159937
0.0157003
0.0156413
0.027402
0.0275522
0.0278996
0.0284635
0.029204
0.0300024
0.0307036
0.0311997
0.0314711
0.0315417
0.0314381
0.03117
0.0307299
0.0300947
0.0292499
0.0281981
0.0270926
0.0261467
0.0253924
0.0247612
0.0241792
0.0235731
0.0228715
0.0220115
0.0209585
0.0197371
0.0184431
0.0172243
0.0162327
0.0155701
0.0152472
0.0151705
0.0255904
0.0257351
0.0260297
0.0265002
0.0271565
0.0279356
0.0286861
0.0292348
0.0295175
0.0295457
0.0293469
0.0289437
0.0283522
0.0275813
0.0266516
0.0255945
0.0245598
0.0237178
0.0230711
0.022548
0.0220822
0.0216139
0.0210877
0.0204534
0.019675
0.0187505
0.0177284
0.0167109
0.0158285
0.0151946
0.0148561
0.0147619
0.0235957
0.023705
0.0238615
0.0241171
0.0245393
0.0251268
0.0257705
0.0262694
0.0265198
0.0265159
0.0262819
0.0258498
0.0252521
0.0245169
0.0236786
0.0227739
0.0219239
0.0212518
0.0207472
0.0203478
0.0200008
0.0196616
0.0192907
0.0188512
0.0183135
0.0176638
0.0169182
0.0161347
0.0154085
0.0148458
0.0145161
0.0144095
0.0213182
0.021353
0.0213183
0.0213271
0.021478
0.0217978
0.0222289
0.022605
0.0228062
0.0228036
0.0226119
0.0222615
0.0217872
0.0212196
0.0205908
0.0199302
0.0193225
0.018849
0.0184977
0.0182233
0.017989
0.017765
0.0175256
0.017247
0.0169086
0.0164961
0.0160095
0.0154735
0.0149437
0.0144995
0.0142134
0.0141069
0.0186063
0.0185351
0.0183661
0.0182428
0.0182262
0.0183347
0.0185483
0.0187695
0.0189038
0.0189144
0.0188044
0.018594
0.0183079
0.0179679
0.0175954
0.0172084
0.0168553
0.0165818
0.01638
0.0162234
0.0160912
0.0159668
0.0158363
0.0156867
0.0155069
0.0152875
0.0150246
0.0147256
0.014414
0.0141325
0.0139324
0.0138467
0.0152991
0.0152448
0.0151501
0.0150791
0.0150485
0.015064
0.015122
0.0151928
0.0152409
0.0152488
0.0152158
0.0151485
0.0150558
0.0149456
0.0148251
0.0147004
0.0145868
0.0144989
0.0144342
0.0143842
0.0143421
0.0143029
0.0142622
0.014216
0.014161
0.014094
0.0140136
0.0139208
0.0138215
0.0137275
0.0136548
0.0136194
)
;

boundaryField
{
    movingWall
    {
        type            fixedValue;
        value           uniform 0.0135;
    }
    fixedWalls
    {
        type            zeroGradient;
    }
    floor
    {
        type            zeroGradient;
    }
    frontAndBack
    {
        type            empty;
    }
}


// ************************************************************************* //
