/*--------------------------------*- C++ -*----------------------------------*\
| =========                 |                                                 |
| \\      /  F ield         | OpenFOAM: The Open Source CFD Toolbox           |
|  \\    /   O peration     | Version:  2212                                  |
|   \\  /    A nd           | Website:  www.openfoam.com                      |
|    \\/     M anipulation  |                                                 |
\*---------------------------------------------------------------------------*/
FoamFile
{
    version     2.0;
    format      ascii;
    arch        "LSB;label=64;scalar=64";
    class       volScalarField;
    location    "110";
    object      p_rgh;
}
// * * * * * * * * * * * * * * * * * * * * * * * * * * * * * * * * * * * * * //

dimensions      [0 2 -2 0 0 0 0];

internalField   nonuniform List<scalar> 
1024
(
0.0432018
0.0431921
0.0431983
0.0432317
0.0432958
0.0433921
0.0435149
0.0436399
0.04373
0.0437562
0.0437112
0.0436109
0.04348
0.0433195
0.0431139
0.042811
0.0423613
0.0418092
0.0412792
0.040865
0.0405989
0.040458
0.0404028
0.0403986
0.0404203
0.040451
0.0404803
0.0405025
0.040517
0.0405271
0.0405365
0.0405438
0.0432482
0.0432396
0.0432499
0.0432883
0.0433572
0.0434587
0.0435879
0.0437186
0.0438115
0.043838
0.0437918
0.0436899
0.0435583
0.0433984
0.0431948
0.0428936
0.0424441
0.0418903
0.0413571
0.0409388
0.0406694
0.0405256
0.0404675
0.0404603
0.0404788
0.0405061
0.0405316
0.0405498
0.0405597
0.0405653
0.0405716
0.0405786
0.0433037
0.0433003
0.0433273
0.0433889
0.0434821
0.0436066
0.0437569
0.0439018
0.0440006
0.0440275
0.0439788
0.0438732
0.0437399
0.0435812
0.0433807
0.0430821
0.0426325
0.0420751
0.0415345
0.041105
0.0408253
0.0406725
0.0406062
0.0405913
0.0406026
0.040623
0.0406414
0.040651
0.0406502
0.0406445
0.0406443
0.0406514
0.0433244
0.043335
0.043399
0.043512
0.0436589
0.0438307
0.0440158
0.0441785
0.0442828
0.04431
0.0442606
0.0441538
0.0440202
0.0438619
0.0436617
0.0433619
0.0429104
0.0423498
0.0418033
0.0413615
0.0410681
0.0409015
0.0408218
0.0407943
0.0407941
0.0408038
0.040811
0.0408066
0.0407872
0.0407611
0.0407473
0.0407529
0.0432703
0.043304
0.043428
0.0436239
0.0438551
0.0440949
0.0443188
0.0444947
0.0445998
0.0446263
0.0445798
0.0444776
0.0443466
0.0441863
0.0439783
0.0436684
0.04321
0.0426478
0.0421031
0.0416633
0.0413637
0.0411875
0.0410952
0.0410534
0.0410383
0.0410328
0.0410227
0.040996
0.0409469
0.040887
0.0408477
0.0408463
0.0431216
0.0431834
0.0433837
0.0436875
0.0440258
0.0443442
0.0446023
0.0447829
0.0448821
0.0449047
0.044861
0.0447666
0.0446377
0.0444713
0.0442465
0.043916
0.0434434
0.0428779
0.0423405
0.0419221
0.0416362
0.0414679
0.0413751
0.0413247
0.0412951
0.0412697
0.0412334
0.041171
0.0410752
0.0409629
0.0408822
0.040866
0.0428885
0.0429763
0.0432557
0.0436789
0.0441349
0.0445337
0.0448215
0.0450015
0.0450895
0.0451028
0.0450568
0.0449647
0.0448328
0.0446549
0.0444082
0.0440509
0.0435571
0.0429816
0.0424473
0.0420491
0.0417997
0.0416645
0.0415923
0.0415469
0.0415076
0.0414588
0.0413845
0.041268
0.0411023
0.0409148
0.0407763
0.0407385
0.0426028
0.0427092
0.0430567
0.0435956
0.0441698
0.0446485
0.0449687
0.0451495
0.0452241
0.045222
0.0451648
0.0450646
0.0449227
0.0447284
0.0444591
0.0440748
0.0435554
0.0429603
0.0424173
0.042027
0.0418163
0.0417283
0.0416946
0.0416686
0.041626
0.0415505
0.041425
0.0412324
0.0409704
0.040685
0.0404774
0.0404154
0.0423043
0.0424199
0.0428145
0.0434526
0.0441401
0.0447022
0.0450654
0.045254
0.0453146
0.0452911
0.045213
0.0450938
0.0449337
0.044721
0.0444312
0.0440235
0.0434766
0.0428523
0.0422872
0.0418895
0.0417045
0.0416614
0.0416723
0.0416725
0.0416286
0.0415212
0.0413302
0.0410389
0.0406563
0.0402578
0.0399801
0.0398973
0.0420292
0.0421445
0.0425618
0.0432756
0.0440691
0.0447233
0.0451444
0.0453486
0.045394
0.0453425
0.0452346
0.0450867
0.0449
0.0446643
0.0443564
0.0439344
0.0433599
0.0426986
0.0420993
0.0416847
0.0415131
0.0415059
0.041558
0.0415803
0.0415295
0.0413798
0.0411067
0.0406953
0.0401754
0.0396638
0.0393315
0.0392367
0.0418033
0.0419128
0.0423302
0.0430955
0.0439874
0.0447451
0.0452369
0.0454597
0.0454846
0.0453977
0.0452517
0.0450671
0.0448472
0.0445841
0.0442562
0.0438196
0.0432266
0.0425356
0.041889
0.0414525
0.0412963
0.0413287
0.0414162
0.0414434
0.0413674
0.0411564
0.0407794
0.0402284
0.0395706
0.0389721
0.0386196
0.0385271
0.041643
0.041745
0.0421528
0.0429499
0.0439322
0.0448001
0.0453633
0.0455961
0.04559
0.0454594
0.045269
0.0450427
0.0447857
0.0444922
0.0441423
0.0436923
0.0430874
0.042373
0.0416992
0.0412196
0.0410347
0.041202
0.0413043
0.0413011
0.041168
0.0408652
0.0403563
0.0396422
0.0389047
0.0383128
0.0379926
0.0379112
0.0415586
0.0416559
0.042064
0.0428908
0.0439597
0.0449305
0.0455368
0.0457383
0.0456827
0.0455028
0.0452683
0.0450028
0.0447112
0.0443886
0.0440177
0.0435595
0.042961
0.0422489
0.0415524
0.0410106
0.0407692
0.0409117
0.0410594
0.0410225
0.0408095
0.0404012
0.0398021
0.0390766
0.0383822
0.0378657
0.037604
0.0375408
0.0415518
0.0416563
0.0420885
0.0429712
0.0441332
0.0451718
0.0457582
0.0458891
0.0457597
0.0455241
0.045245
0.0449408
0.0446158
0.044268
0.0438826
0.0434298
0.0428738
0.0422212
0.0415461
0.0409335
0.0405053
0.040368
0.0404837
0.0404601
0.0402609
0.0398792
0.0393424
0.0387318
0.0381762
0.037789
0.0376095
0.037573
0.0415323
0.0416587
0.0421428
0.043101
0.0443275
0.0453604
0.0458864
0.0459676
0.0458124
0.0455568
0.0452522
0.0449131
0.0445442
0.0441512
0.0437438
0.043316
0.0428652
0.042392
0.0418948
0.041371
0.0408554
0.0404105
0.0401174
0.0400097
0.0399095
0.0396515
0.039261
0.0388253
0.0384525
0.0382273
0.038158
0.0381668
0.0413174
0.0414797
0.0420286
0.0430569
0.0443152
0.0453245
0.0458196
0.0458925
0.0457422
0.0454916
0.0451852
0.0448343
0.0444418
0.0440138
0.0435709
0.0431657
0.0428736
0.0427209
0.0426504
0.0425951
0.0425117
0.0423695
0.0421371
0.0417795
0.0412967
0.0407865
0.040308
0.0399961
0.0398236
0.0398219
0.0399383
0.0400415
0.0407277
0.040932
0.0415338
0.0426133
0.0439183
0.0449747
0.0455225
0.0456425
0.0455222
0.0452848
0.0449757
0.0446041
0.044172
0.0436907
0.0431966
0.0427672
0.0425466
0.0426309
0.0429219
0.0433237
0.0437804
0.0442588
0.0447308
0.0451637
0.0455117
0.0457223
0.0457454
0.0455403
0.0453446
0.045256
0.045273
0.0453222
0.0399729
0.0402133
0.0408269
0.0418923
0.0432571
0.044432
0.0451156
0.0453403
0.0452806
0.0450743
0.0447736
0.0443896
0.0439158
0.0433496
0.0427246
0.0421667
0.0418745
0.0419745
0.0423144
0.042766
0.0432537
0.0437375
0.0441961
0.0446182
0.0449928
0.0453146
0.0455799
0.0457969
0.0459792
0.0461369
0.0462584
0.0463202
0.0393133
0.0395882
0.0402041
0.041206
0.04249
0.0437243
0.0446025
0.0450321
0.0450925
0.0449471
0.0446752
0.0443003
0.0438184
0.0432135
0.0424759
0.0417307
0.0413138
0.0413737
0.0417024
0.0421611
0.042659
0.0431444
0.043589
0.0439913
0.0443504
0.0446612
0.044921
0.0451372
0.0453247
0.0454945
0.0456356
0.0457168
0.0388561
0.0391421
0.0397366
0.0406505
0.0418113
0.0430009
0.0439719
0.0445814
0.0448274
0.044802
0.0445905
0.0442339
0.0437377
0.0430827
0.0422621
0.0414242
0.0409805
0.0409737
0.0412454
0.04168
0.0421859
0.0426974
0.0431634
0.0435843
0.0439602
0.04428
0.0445401
0.0447465
0.0449164
0.0450666
0.045194
0.045271
0.0387881
0.0389994
0.039481
0.0402499
0.0412482
0.0423221
0.0432865
0.0439981
0.0443993
0.0445119
0.0443875
0.044065
0.0435585
0.0428623
0.0420076
0.0411667
0.0407281
0.0407155
0.0409702
0.0413877
0.0418868
0.0424064
0.0429062
0.0433652
0.0437782
0.0441242
0.0443996
0.0446043
0.0447591
0.0448892
0.0450008
0.0450714
0.0394684
0.0394579
0.0396297
0.0401073
0.0408572
0.0417482
0.0426248
0.043349
0.043834
0.0440502
0.0440074
0.0437253
0.0432195
0.0425052
0.041654
0.0408656
0.040489
0.0405251
0.0408091
0.0412419
0.0417524
0.0422891
0.0428146
0.0433024
0.0437372
0.0441085
0.0444096
0.0446207
0.0447645
0.0448759
0.0449716
0.0450352
0.0410167
0.0407323
0.04043
0.0404201
0.0407729
0.0413829
0.0420912
0.0427475
0.043237
0.0434931
0.04349
0.0432288
0.042724
0.0420126
0.0412007
0.0405151
0.0402528
0.0403834
0.0407342
0.0412083
0.0417428
0.0422961
0.0428384
0.0433463
0.0438011
0.0441928
0.0445033
0.0447301
0.0448713
0.0449677
0.0450471
0.0451021
0.0428053
0.0424161
0.0417686
0.0412418
0.0410965
0.0413285
0.0417907
0.0423084
0.042731
0.0429574
0.0429367
0.0426586
0.0421429
0.0414491
0.0407113
0.0401711
0.0400611
0.0403124
0.0407474
0.0412712
0.0418307
0.042394
0.0429404
0.0434544
0.0439191
0.0443244
0.0446506
0.0448886
0.0450432
0.0451352
0.0452017
0.0452481
0.0440146
0.043718
0.0430682
0.0422773
0.0417208
0.0415731
0.0417589
0.0420952
0.0423979
0.0425357
0.0424448
0.0421146
0.0415781
0.0409169
0.0402847
0.0399157
0.0399726
0.0403481
0.0408623
0.0414267
0.0419993
0.0425589
0.0430943
0.0435986
0.0440616
0.0444738
0.044817
0.0450782
0.0452596
0.0453656
0.045428
0.0454686
0.0445215
0.0443241
0.0438363
0.0430869
0.0423626
0.0419657
0.0419278
0.0420897
0.0422518
0.0422687
0.0420769
0.0416781
0.0411233
0.0405139
0.0400114
0.0398189
0.040032
0.0405114
0.0410819
0.0416647
0.0422306
0.0427693
0.043279
0.043761
0.0442115
0.0446263
0.0449907
0.0452892
0.0455115
0.0456623
0.0457412
0.0457849
0.044648
0.0444662
0.0440812
0.0435149
0.0428504
0.0423639
0.0421978
0.0422297
0.042263
0.0421592
0.0418668
0.0414079
0.0408529
0.0403168
0.0399537
0.0399182
0.0402499
0.0407928
0.0413848
0.0419593
0.042499
0.0430024
0.0434756
0.0439266
0.0443598
0.0447746
0.0451635
0.045511
0.0457997
0.046026
0.0461559
0.0462224
0.0446696
0.0444773
0.0441259
0.043683
0.0432118
0.0427873
0.0425375
0.0424856
0.04242
0.0422171
0.0418492
0.0413571
0.0408249
0.0403705
0.0401268
0.0401986
0.0405899
0.0411471
0.0417258
0.0422703
0.0427713
0.0432333
0.0436669
0.0440848
0.0444979
0.0449123
0.0453295
0.0457392
0.0461218
0.0464493
0.0466809
0.0468047
0.0446475
0.0444743
0.0441886
0.0438704
0.0435644
0.0432795
0.0430217
0.0429009
0.0427618
0.0424895
0.042073
0.0415672
0.04106
0.0406603
0.0404776
0.0405848
0.0409741
0.0415062
0.0420494
0.0425541
0.0430144
0.0434368
0.0438345
0.0442225
0.0446167
0.0450306
0.045476
0.0459539
0.0464524
0.0469345
0.0473232
0.0475759
0.0445124
0.0444335
0.044299
0.044156
0.0440248
0.0438869
0.0436963
0.0435471
0.0433458
0.0430106
0.0425443
0.0420082
0.0414879
0.0410827
0.0408884
0.0409666
0.041315
0.0418051
0.0423083
0.0427761
0.0432019
0.0435929
0.0439623
0.044327
0.0447064
0.0451195
0.0455876
0.0461285
0.0467521
0.0474397
0.0481038
0.0486859
0.0440607
0.0443491
0.0444536
0.0444807
0.0445081
0.0445204
0.0444688
0.0443339
0.0440743
0.0436629
0.0431217
0.0425163
0.0419346
0.0414733
0.0412243
0.041248
0.0415501
0.0420032
0.0424756
0.0429172
0.0433196
0.0436897
0.0440405
0.0443896
0.0447581
0.0451686
0.0456492
0.0462329
0.0469611
0.0478791
0.0490167
0.0503113
0.0430773
0.0442486
0.0446428
0.0447468
0.044848
0.044948
0.0449896
0.0448953
0.0446105
0.0441389
0.0435254
0.0428493
0.0422047
0.0416899
0.0413959
0.0413833
0.0416584
0.042092
0.0425491
0.042978
0.0433691
0.0437291
0.0440711
0.0444123
0.0447741
0.0451809
0.045664
0.0462678
0.0470625
0.0481671
0.0498025
0.052103
)
;

boundaryField
{
    movingWall
    {
        type            fixedFluxPressure;
        gradient        uniform 0;
        value           nonuniform List<scalar> 
32
(
0.0430773
0.0442486
0.0446428
0.0447468
0.044848
0.044948
0.0449896
0.0448953
0.0446105
0.0441389
0.0435254
0.0428493
0.0422047
0.0416899
0.0413959
0.0413833
0.0416584
0.042092
0.0425491
0.042978
0.0433691
0.0437291
0.0440711
0.0444123
0.0447741
0.0451809
0.045664
0.0462678
0.0470625
0.0481671
0.0498025
0.052103
)
;
    }
    fixedWalls
    {
        type            fixedFluxPressure;
        gradient        uniform 0;
        value           nonuniform List<scalar> 
64
(
0.0432018
0.0432482
0.0433037
0.0433244
0.0432703
0.0431216
0.0428885
0.0426028
0.0423043
0.0420292
0.0418033
0.041643
0.0415586
0.0415518
0.0415323
0.0413174
0.0407277
0.0399729
0.0393133
0.0388561
0.0387881
0.0394684
0.0410167
0.0428053
0.0440146
0.0445215
0.044648
0.0446696
0.0446475
0.0445124
0.0440607
0.0430773
0.0405438
0.0405786
0.0406514
0.0407529
0.0408463
0.040866
0.0407385
0.0404154
0.0398973
0.0392367
0.0385271
0.0379112
0.0375408
0.037573
0.0381668
0.0400415
0.0453222
0.0463202
0.0457168
0.045271
0.0450714
0.0450352
0.0451021
0.0452481
0.0454686
0.0457849
0.0462224
0.0468047
0.0475759
0.0486859
0.0503113
0.052103
)
;
    }
    floor
    {
        type            fixedFluxPressure;
        gradient        uniform 0;
        value           nonuniform List<scalar> 
32
(
0.0432018
0.0431921
0.0431983
0.0432317
0.0432958
0.0433921
0.0435149
0.0436399
0.04373
0.0437562
0.0437112
0.0436109
0.04348
0.0433195
0.0431139
0.042811
0.0423613
0.0418092
0.0412792
0.040865
0.0405989
0.040458
0.0404028
0.0403986
0.0404203
0.040451
0.0404803
0.0405025
0.040517
0.0405271
0.0405365
0.0405438
)
;
    }
    frontAndBack
    {
        type            empty;
    }
}


// ************************************************************************* //
