/*--------------------------------*- C++ -*----------------------------------*\
| =========                 |                                                 |
| \\      /  F ield         | OpenFOAM: The Open Source CFD Toolbox           |
|  \\    /   O peration     | Version:  2212                                  |
|   \\  /    A nd           | Website:  www.openfoam.com                      |
|    \\/     M anipulation  |                                                 |
\*---------------------------------------------------------------------------*/
FoamFile
{
    version     2.0;
    format      ascii;
    arch        "LSB;label=64;scalar=64";
    class       volScalarField;
    location    "110";
    object      T;
}
// * * * * * * * * * * * * * * * * * * * * * * * * * * * * * * * * * * * * * //

dimensions      [0 0 0 1 0 0 0];

internalField   nonuniform List<scalar> 
1024
(
309.942
309.938
309.928
309.914
309.898
309.882
309.866
309.851
309.843
309.842
309.846
309.852
309.855
309.853
309.849
309.844
309.844
309.85
309.859
309.869
309.879
309.888
309.897
309.905
309.913
309.92
309.927
309.935
309.942
309.948
309.952
309.953
309.823
309.809
309.776
309.73
309.68
309.63
309.58
309.539
309.516
309.513
309.524
309.539
309.548
309.544
309.531
309.519
309.518
309.532
309.56
309.591
309.621
309.649
309.676
309.702
309.726
309.749
309.772
309.796
309.818
309.837
309.849
309.854
309.699
309.674
309.615
309.532
309.442
309.355
309.273
309.211
309.178
309.173
309.187
309.209
309.223
309.217
309.198
309.18
309.179
309.199
309.238
309.29
309.34
309.388
309.434
309.478
309.52
309.56
309.6
309.641
309.681
309.716
309.739
309.747
309.579
309.544
309.457
309.336
309.206
309.085
308.981
308.907
308.87
308.863
308.876
308.898
308.912
308.907
308.888
308.871
308.871
308.891
308.931
308.992
309.056
309.12
309.183
309.244
309.303
309.36
309.417
309.476
309.536
309.589
309.625
309.639
309.466
309.423
309.314
309.161
308.999
308.854
308.74
308.667
308.631
308.623
308.631
308.647
308.659
308.657
308.644
308.634
308.637
308.654
308.687
308.739
308.803
308.873
308.946
309.018
309.09
309.162
309.235
309.311
309.39
309.464
309.515
309.535
309.364
309.318
309.195
309.02
308.838
308.682
308.571
308.506
308.475
308.466
308.471
308.481
308.489
308.491
308.488
308.488
308.497
308.511
308.533
308.565
308.616
308.678
308.748
308.822
308.9
308.981
309.066
309.158
309.255
309.348
309.414
309.439
309.271
309.227
309.102
308.919
308.73
308.574
308.471
308.414
308.389
308.382
308.384
308.391
308.399
308.406
308.412
308.423
308.437
308.452
308.465
308.48
308.509
308.552
308.608
308.674
308.749
308.832
308.924
309.027
309.139
309.248
309.326
309.355
309.188
309.149
309.031
308.852
308.665
308.514
308.42
308.37
308.349
308.345
308.348
308.355
308.365
308.376
308.389
308.407
308.427
308.443
308.453
308.458
308.467
308.49
308.526
308.577
308.642
308.721
308.815
308.924
309.047
309.167
309.251
309.281
309.113
309.081
308.976
308.808
308.629
308.486
308.397
308.352
308.335
308.333
308.339
308.348
308.36
308.374
308.392
308.413
308.437
308.457
308.466
308.466
308.463
308.469
308.488
308.522
308.575
308.646
308.737
308.85
308.98
309.104
309.189
309.217
309.043
309.018
308.929
308.778
308.611
308.475
308.388
308.345
308.331
308.333
308.342
308.353
308.368
308.385
308.404
308.427
308.452
308.475
308.487
308.485
308.475
308.469
308.474
308.496
308.537
308.6
308.689
308.804
308.936
309.06
309.139
309.163
308.978
308.959
308.886
308.753
308.599
308.469
308.384
308.343
308.333
308.337
308.349
308.363
308.38
308.398
308.419
308.441
308.467
308.491
308.507
308.507
308.49
308.474
308.471
308.485
308.52
308.579
308.667
308.783
308.915
309.031
309.098
309.116
308.915
308.901
308.842
308.728
308.586
308.462
308.379
308.342
308.336
308.344
308.358
308.373
308.391
308.409
308.43
308.452
308.478
308.504
308.523
308.529
308.513
308.479
308.473
308.486
308.521
308.582
308.675
308.795
308.917
309.012
309.062
309.074
308.854
308.842
308.793
308.694
308.566
308.448
308.372
308.342
308.34
308.351
308.366
308.382
308.399
308.416
308.435
308.457
308.483
308.512
308.538
308.552
308.545
308.518
308.505
308.522
308.563
308.63
308.721
308.826
308.924
308.994
309.028
309.035
308.791
308.781
308.737
308.648
308.531
308.424
308.361
308.341
308.345
308.357
308.371
308.385
308.4
308.416
308.432
308.452
308.478
308.51
308.543
308.574
308.596
308.602
308.596
308.613
308.652
308.711
308.785
308.863
308.93
308.974
308.993
308.996
308.731
308.72
308.678
308.596
308.49
308.4
308.351
308.338
308.343
308.353
308.365
308.378
308.39
308.404
308.418
308.436
308.458
308.487
308.521
308.562
308.608
308.654
308.693
308.721
308.749
308.789
308.837
308.884
308.922
308.943
308.948
308.946
308.68
308.668
308.627
308.551
308.458
308.382
308.342
308.332
308.335
308.343
308.352
308.362
308.373
308.384
308.398
308.413
308.431
308.448
308.466
308.488
308.517
308.554
308.6
308.653
308.711
308.766
308.811
308.837
308.85
308.848
308.839
308.83
308.652
308.639
308.6
308.531
308.446
308.377
308.339
308.327
308.327
308.333
308.341
308.349
308.36
308.373
308.389
308.407
308.425
308.436
308.439
308.439
308.437
308.435
308.433
308.432
308.433
308.436
308.444
308.461
308.474
308.478
308.476
308.473
308.644
308.63
308.595
308.534
308.455
308.386
308.344
308.327
308.324
308.327
308.333
308.341
308.353
308.37
308.393
308.422
308.448
308.462
308.466
308.464
308.459
308.454
308.448
308.442
308.436
308.43
308.424
308.417
308.409
308.4
308.393
308.389
308.647
308.633
308.601
308.548
308.479
308.412
308.363
308.336
308.327
308.326
308.33
308.338
308.35
308.368
308.398
308.437
308.472
308.49
308.495
308.493
308.487
308.479
308.471
308.463
308.456
308.449
308.443
308.436
308.429
308.422
308.414
308.41
308.656
308.642
308.614
308.568
308.51
308.448
308.396
308.361
308.342
308.336
308.337
308.343
308.355
308.376
308.409
308.452
308.489
308.51
308.519
308.518
308.511
308.501
308.491
308.48
308.471
308.462
308.455
308.45
308.444
308.438
308.432
308.428
308.656
308.647
308.626
308.59
308.541
308.487
308.437
308.398
308.372
308.358
308.354
308.358
308.37
308.392
308.426
308.469
308.504
308.526
308.535
308.535
308.528
308.518
308.506
308.494
308.482
308.472
308.464
308.458
308.453
308.448
308.443
308.44
308.63
308.631
308.624
308.602
308.567
308.523
308.479
308.439
308.41
308.391
308.382
308.383
308.394
308.416
308.448
308.488
308.52
308.538
308.546
308.545
308.539
308.528
308.516
308.503
308.491
308.479
308.47
308.464
308.459
308.455
308.451
308.448
308.571
308.583
308.596
308.595
308.579
308.549
308.513
308.479
308.449
308.428
308.417
308.416
308.425
308.445
308.475
308.508
308.534
308.548
308.553
308.551
308.543
308.533
308.52
308.508
308.495
308.484
308.475
308.468
308.464
308.46
308.457
308.455
308.504
308.519
308.546
308.566
308.571
308.559
308.536
308.509
308.484
308.465
308.453
308.451
308.459
308.476
308.501
308.528
308.546
308.554
308.555
308.551
308.543
308.533
308.521
308.509
308.497
308.486
308.478
308.471
308.467
308.464
308.462
308.46
308.46
308.472
308.497
308.528
308.549
308.554
308.545
308.528
308.51
308.495
308.485
308.484
308.49
308.505
308.524
308.542
308.552
308.555
308.553
308.547
308.538
308.529
308.518
308.507
308.497
308.488
308.48
308.474
308.47
308.468
308.465
308.464
308.443
308.451
308.469
308.498
308.526
308.542
308.545
308.538
308.527
308.517
308.51
308.51
308.515
308.526
308.539
308.549
308.552
308.551
308.546
308.539
308.531
308.522
308.513
308.504
308.496
308.488
308.481
308.476
308.472
308.47
308.468
308.467
308.441
308.447
308.461
308.483
308.509
308.53
308.54
308.54
308.535
308.53
308.527
308.527
308.531
308.537
308.544
308.547
308.546
308.541
308.535
308.529
308.522
308.515
308.508
308.501
308.494
308.488
308.482
308.478
308.474
308.472
308.471
308.469
308.442
308.448
308.461
308.478
308.498
308.518
308.532
308.537
308.536
308.535
308.534
308.534
308.536
308.538
308.54
308.538
308.534
308.529
308.523
308.518
308.512
308.507
308.501
308.496
308.491
308.487
308.483
308.479
308.476
308.474
308.473
308.471
308.442
308.448
308.458
308.472
308.487
308.503
308.518
308.526
308.529
308.53
308.53
308.53
308.53
308.53
308.529
308.525
308.521
308.516
308.512
308.508
308.504
308.5
308.496
308.492
308.489
308.486
308.483
308.48
308.478
308.476
308.474
308.473
308.44
308.444
308.452
308.461
308.472
308.484
308.498
308.507
308.512
308.515
308.516
308.517
308.517
308.516
308.515
308.512
308.509
308.506
308.503
308.5
308.497
308.494
308.492
308.489
308.487
308.485
308.483
308.481
308.479
308.477
308.476
308.474
308.437
308.44
308.444
308.449
308.455
308.463
308.473
308.481
308.489
308.494
308.497
308.5
308.502
308.503
308.504
308.503
308.501
308.499
308.497
308.495
308.493
308.491
308.489
308.487
308.486
308.484
308.483
308.481
308.48
308.478
308.477
308.476
308.435
308.436
308.438
308.441
308.444
308.449
308.456
308.463
308.471
308.478
308.485
308.49
308.494
308.496
308.498
308.498
308.497
308.496
308.494
308.493
308.491
308.489
308.488
308.487
308.485
308.484
308.483
308.482
308.48
308.479
308.478
308.476
)
;

boundaryField
{
    movingWall
    {
        type            zeroGradient;
    }
    fixedWalls
    {
        type            zeroGradient;
    }
    floor
    {
        type            fixedValue;
        value           uniform 310;
    }
    frontAndBack
    {
        type            empty;
    }
}


// ************************************************************************* //
