/*--------------------------------*- C++ -*----------------------------------*\
| =========                 |                                                 |
| \\      /  F ield         | OpenFOAM: The Open Source CFD Toolbox           |
|  \\    /   O peration     | Version:  2212                                  |
|   \\  /    A nd           | Website:  www.openfoam.com                      |
|    \\/     M anipulation  |                                                 |
\*---------------------------------------------------------------------------*/
FoamFile
{
    version     2.0;
    format      ascii;
    arch        "LSB;label=64;scalar=64";
    class       volVectorField;
    location    "110";
    object      U;
}
// * * * * * * * * * * * * * * * * * * * * * * * * * * * * * * * * * * * * * //

dimensions      [0 1 -1 0 0 0 0];

internalField   nonuniform List<vector> 
1024
(
(-9.48156e-05 8.65022e-05 0)
(-0.00101016 0.000262076 0)
(-0.00249517 0.000299131 0)
(-0.00402855 0.000240149 0)
(-0.00520176 0.00015628 0)
(-0.0058087 6.45274e-05 0)
(-0.00571617 -3.29797e-05 0)
(-0.00481297 -0.000117752 0)
(-0.00322337 -0.000147022 0)
(-0.00136212 -0.000124016 0)
(0.000345196 -8.02656e-05 0)
(0.00165532 -3.98568e-05 0)
(0.00261028 -2.80098e-05 0)
(0.00361222 -3.26688e-05 0)
(0.0050323 -4.78136e-05 0)
(0.00711149 -5.9304e-05 0)
(0.00951164 -5.73488e-05 0)
(0.0113577 -2.83922e-05 0)
(0.0120407 1.86393e-05 0)
(0.0116214 6.68263e-05 0)
(0.0104088 9.74517e-05 0)
(0.00881841 0.000110109 0)
(0.00715922 0.000110595 0)
(0.00560376 0.000102722 0)
(0.00424317 8.78989e-05 0)
(0.00312353 6.74422e-05 0)
(0.0022495 4.58279e-05 0)
(0.00156988 3.30351e-05 0)
(0.000989825 3.75009e-05 0)
(0.000461759 4.23732e-05 0)
(7.70756e-05 7.08034e-06 0)
(-3.82997e-05 -4.30042e-05 0)
(-0.000385363 0.00111825 0)
(-0.0029182 0.00239822 0)
(-0.00644045 0.00252069 0)
(-0.0098596 0.00193674 0)
(-0.0123561 0.00113465 0)
(-0.0135291 0.000329089 0)
(-0.0131676 -0.000412142 0)
(-0.0111823 -0.000976486 0)
(-0.00787823 -0.00119266 0)
(-0.00393813 -0.00108183 0)
(-7.24814e-05 -0.000806079 0)
(0.0032761 -0.0005231 0)
(0.00591688 -0.000395679 0)
(0.0086977 -0.000420597 0)
(0.0124164 -0.000533263 0)
(0.0176107 -0.000621358 0)
(0.0234811 -0.000594937 0)
(0.0281423 -0.000386371 0)
(0.0304381 -3.11459e-05 0)
(0.0302438 0.000353848 0)
(0.0281925 0.000668355 0)
(0.0250069 0.000885043 0)
(0.0213235 0.00101337 0)
(0.0175733 0.00106752 0)
(0.0140327 0.00105466 0)
(0.0108741 0.000984516 0)
(0.00817309 0.000888396 0)
(0.00588951 0.00082717 0)
(0.00389177 0.000836154 0)
(0.00211059 0.000806878 0)
(0.000736425 0.000527748 0)
(3.63318e-05 8.18606e-05 0)
(-0.000606206 0.00343 0)
(-0.00422865 0.00645322 0)
(-0.00892472 0.00639881 0)
(-0.0133124 0.00475254 0)
(-0.0164027 0.00264783 0)
(-0.0177286 0.000606531 0)
(-0.017063 -0.00116422 0)
(-0.0145124 -0.00241696 0)
(-0.0105411 -0.00289505 0)
(-0.00581285 -0.0026917 0)
(-0.000990281 -0.00213411 0)
(0.0036728 -0.00151884 0)
(0.0076244 -0.00119119 0)
(0.0117993 -0.00122961 0)
(0.0171011 -0.0014859 0)
(0.0242277 -0.00169344 0)
(0.0322366 -0.00163454 0)
(0.0388769 -0.00117362 0)
(0.0428652 -0.000347913 0)
(0.0437013 0.000594255 0)
(0.0420164 0.00142669 0)
(0.0386067 0.00208274 0)
(0.0342074 0.00256134 0)
(0.0293604 0.00287596 0)
(0.024448 0.00303318 0)
(0.0197356 0.0030486 0)
(0.0153807 0.00297976 0)
(0.0114249 0.00293888 0)
(0.00781351 0.00299118 0)
(0.00452403 0.00292273 0)
(0.00183271 0.00223578 0)
(0.000183648 0.000808018 0)
(-0.000631681 0.00669441 0)
(-0.00455536 0.0120002 0)
(-0.00962908 0.0115963 0)
(-0.0143082 0.00844827 0)
(-0.0175156 0.00454361 0)
(-0.0187712 0.000832656 0)
(-0.0178887 -0.00223748 0)
(-0.015214 -0.00427146 0)
(-0.011277 -0.00502285 0)
(-0.00663109 -0.00473191 0)
(-0.00178568 -0.00391916 0)
(0.0032891 -0.00299413 0)
(0.00796912 -0.00243069 0)
(0.0129285 -0.00245762 0)
(0.0189458 -0.00286135 0)
(0.0267858 -0.0032148 0)
(0.0356779 -0.00314274 0)
(0.0434128 -0.00242396 0)
(0.0487329 -0.00106569 0)
(0.0509474 0.000585867 0)
(0.0502983 0.00212712 0)
(0.0475688 0.00343047 0)
(0.0434782 0.00448266 0)
(0.0385668 0.00529506 0)
(0.0332275 0.0058724 0)
(0.0277482 0.00623392 0)
(0.022327 0.00645387 0)
(0.0170755 0.00667327 0)
(0.0120335 0.00696781 0)
(0.00725957 0.00700174 0)
(0.00314713 0.00582038 0)
(0.000379257 0.00257629 0)
(-0.000481844 0.0102613 0)
(-0.00400856 0.0182833 0)
(-0.00882386 0.0175987 0)
(-0.0133274 0.0127182 0)
(-0.0163832 0.00667962 0)
(-0.0175081 0.00101786 0)
(-0.0165955 -0.00347451 0)
(-0.0141394 -0.00628357 0)
(-0.0106423 -0.00727894 0)
(-0.00654435 -0.00690979 0)
(-0.0021997 -0.00589632 0)
(0.00252521 -0.00475759 0)
(0.00729111 -0.00399382 0)
(0.0123689 -0.00397979 0)
(0.0183316 -0.00449991 0)
(0.0259548 -0.00501735 0)
(0.0348241 -0.00498699 0)
(0.0429399 -0.00406371 0)
(0.049027 -0.00220389 0)
(0.0524184 0.000203033 0)
(0.0529083 0.00256087 0)
(0.0511899 0.00464993 0)
(0.0479232 0.00644868 0)
(0.0435862 0.00797374 0)
(0.0385197 0.00923313 0)
(0.0329817 0.0102508 0)
(0.0271704 0.01111 0)
(0.0212332 0.0119592 0)
(0.0152758 0.0128539 0)
(0.00943248 0.0132865 0)
(0.00421976 0.0116369 0)
(0.000547736 0.00568385 0)
(-0.000258198 0.0134627 0)
(-0.00296091 0.0245141 0)
(-0.00709682 0.0238988 0)
(-0.0111399 0.0173181 0)
(-0.0139264 0.0089962 0)
(-0.0149606 0.00123815 0)
(-0.0142172 -0.00471079 0)
(-0.0121959 -0.00825992 0)
(-0.00934042 -0.00946586 0)
(-0.00600334 -0.00902776 0)
(-0.00241596 -0.00785789 0)
(0.00152025 -0.00658864 0)
(0.00580996 -0.00570106 0)
(0.0104456 -0.00563672 0)
(0.0158147 -0.0062465 0)
(0.0226778 -0.00696375 0)
(0.0310163 -0.00707005 0)
(0.0391037 -0.00602741 0)
(0.0455442 -0.00371622 0)
(0.0495589 -0.000576018 0)
(0.050948 0.00264876 0)
(0.0501348 0.0056 0)
(0.0477527 0.00825815 0)
(0.0442082 0.0106618 0)
(0.0397622 0.0128335 0)
(0.0346133 0.0148045 0)
(0.0289341 0.0166596 0)
(0.0228813 0.018537 0)
(0.0166026 0.0204324 0)
(0.0103005 0.0215729 0)
(0.00460198 0.0194488 0)
(0.000586323 0.00997477 0)
(-6.05589e-05 0.0158204 0)
(-0.0018089 0.0299853 0)
(-0.00505306 0.0300072 0)
(-0.00849562 0.0220387 0)
(-0.0109889 0.0114889 0)
(-0.0120056 0.00161259 0)
(-0.0115662 -0.00578691 0)
(-0.0100827 -0.0100426 0)
(-0.00795813 -0.01143 0)
(-0.00548097 -0.0109297 0)
(-0.00278868 -0.00963547 0)
(0.000157657 -0.0082927 0)
(0.00356471 -0.0073563 0)
(0.00737545 -0.00726772 0)
(0.0118345 -0.00797745 0)
(0.0176919 -0.00896571 0)
(0.0252513 -0.0093494 0)
(0.0331443 -0.00830386 0)
(0.0397829 -0.00557485 0)
(0.0441475 -0.00167376 0)
(0.0460695 0.0024391 0)
(0.0458175 0.00628374 0)
(0.0440885 0.00985305 0)
(0.0412543 0.0132351 0)
(0.0374965 0.0164862 0)
(0.0329423 0.019649 0)
(0.0277218 0.022803 0)
(0.0219815 0.0260546 0)
(0.0158936 0.0292832 0)
(0.00972346 0.0313093 0)
(0.00419059 0.0285101 0)
(0.000469091 0.0148219 0)
(6.12832e-05 0.0171563 0)
(-0.000834872 0.034194 0)
(-0.00314224 0.0354977 0)
(-0.00593816 0.0266979 0)
(-0.00815056 0.0141756 0)
(-0.00920597 0.00226464 0)
(-0.00912288 -0.00655867 0)
(-0.00821554 -0.0114767 0)
(-0.00687046 -0.0130054 0)
(-0.00531847 -0.012443 0)
(-0.00361963 -0.0110566 0)
(-0.00173011 -0.00967759 0)
(0.000512997 -0.0087681 0)
(0.00327739 -0.00871147 0)
(0.00665601 -0.00957934 0)
(0.0114255 -0.0109517 0)
(0.0180409 -0.0118076 0)
(0.0256489 -0.010931 0)
(0.0324485 -0.00783295 0)
(0.0371976 -0.00308251 0)
(0.0395211 0.00200821 0)
(0.0395518 0.00679024 0)
(0.038199 0.0112831 0)
(0.0358915 0.0156743 0)
(0.0327607 0.0200875 0)
(0.0288643 0.0245871 0)
(0.0242824 0.0292428 0)
(0.0191371 0.0341038 0)
(0.0136125 0.038851 0)
(0.00803467 0.041712 0)
(0.00319512 0.0377708 0)
(0.000259915 0.0193718 0)
(0.000106758 0.0175698 0)
(-0.000167364 0.0369193 0)
(-0.00161152 0.0400486 0)
(-0.00376751 0.0311304 0)
(-0.00570841 0.0170639 0)
(-0.00682268 0.00329602 0)
(-0.00709873 -0.00688637 0)
(-0.00679555 -0.0123763 0)
(-0.00628159 -0.0139768 0)
(-0.00572067 -0.0133473 0)
(-0.00510344 -0.0119161 0)
(-0.00433706 -0.0105506 0)
(-0.00328438 -0.00974186 0)
(-0.00177371 -0.00981359 0)
(0.000438854 -0.0109274 0)
(0.00409327 -0.0128201 0)
(0.00959275 -0.0143976 0)
(0.0167559 -0.0139548 0)
(0.023601 -0.0106177 0)
(0.0288954 -0.0049361 0)
(0.0318341 0.00135028 0)
(0.0320976 0.00718624 0)
(0.0309839 0.0126057 0)
(0.0291023 0.0179827 0)
(0.0265613 0.0235576 0)
(0.0233519 0.0294369 0)
(0.0195044 0.0356822 0)
(0.0151146 0.0422528 0)
(0.0103812 0.0485116 0)
(0.0057054 0.0518656 0)
(0.00192521 0.0460627 0)
(4.46642e-05 0.0228242 0)
(0.000104591 0.0173583 0)
(0.000196968 0.038176 0)
(-0.000547505 0.0434592 0)
(-0.00210599 0.0351737 0)
(-0.00376948 0.0201286 0)
(-0.00493324 0.00479347 0)
(-0.00556729 -0.0065938 0)
(-0.00592372 -0.0124811 0)
(-0.00631227 -0.0140497 0)
(-0.0068138 -0.0133529 0)
(-0.00735565 -0.0119467 0)
(-0.00779835 -0.0106964 0)
(-0.00797187 -0.0100895 0)
(-0.00766442 -0.0104582 0)
(-0.00658171 -0.011965 0)
(-0.00421614 -0.0143976 0)
(1.79501e-05 -0.0169521 0)
(0.0064188 -0.0173268 0)
(0.0130212 -0.0140772 0)
(0.0189369 -0.00749866 0)
(0.0228106 0.000312363 0)
(0.0235897 0.00741148 0)
(0.02281 0.0137419 0)
(0.0214569 0.0200499 0)
(0.0195905 0.0267364 0)
(0.0171255 0.0339729 0)
(0.0140596 0.0418165 0)
(0.0104855 0.0500779 0)
(0.00665946 0.0576122 0)
(0.00310145 0.0607697 0)
(0.000642449 0.0522208 0)
(-0.000116618 0.0246129 0)
(8.69544e-05 0.0167506 0)
(0.000321886 0.0383514 0)
(5.10961e-05 0.0456812 0)
(-0.000982651 0.0386723 0)
(-0.0023558 0.0233047 0)
(-0.00354718 0.00685288 0)
(-0.00456841 -0.00541899 0)
(-0.00568734 -0.0114216 0)
(-0.00706904 -0.0128344 0)
(-0.0086992 -0.0120944 0)
(-0.0104535 -0.0108196 0)
(-0.0121559 -0.00983447 0)
(-0.0136001 -0.00959891 0)
(-0.0145308 -0.010435 0)
(-0.0146043 -0.0125246 0)
(-0.0133453 -0.0157338 0)
(-0.0103248 -0.0192356 0)
(-0.00541787 -0.020697 0)
(0.000586438 -0.0181996 0)
(0.00684242 -0.011064 0)
(0.011697 -0.00119496 0)
(0.0141093 0.00729465 0)
(0.013885 0.0143855 0)
(0.0132913 0.0215523 0)
(0.012214 0.0293141 0)
(0.0105059 0.0378954 0)
(0.0081837 0.047327 0)
(0.00539179 0.0571516 0)
(0.00258058 0.065411 0)
(0.000439769 0.0671826 0)
(-0.000468653 0.0549187 0)
(-0.000209355 0.0245386 0)
(5.99349e-05 0.0160135 0)
(0.000283871 0.0379176 0)
(0.000239766 0.0469299 0)
(-0.000404527 0.041525 0)
(-0.00147768 0.0264937 0)
(-0.00265922 0.00959582 0)
(-0.00414393 -0.00298182 0)
(-0.00619892 -0.00872392 0)
(-0.00868305 -0.00988491 0)
(-0.011494 -0.00918302 0)
(-0.0144716 -0.00819711 0)
(-0.0174249 -0.0076697 0)
(-0.0201261 -0.00801796 0)
(-0.0222968 -0.00954289 0)
(-0.0235874 -0.012428 0)
(-0.0235443 -0.016593 0)
(-0.0217321 -0.0212434 0)
(-0.0180063 -0.0237656 0)
(-0.0131126 -0.0221417 0)
(-0.00757387 -0.0160151 0)
(-0.00258182 -0.00621332 0)
(0.00406978 0.00618324 0)
(0.00422835 0.0140549 0)
(0.00455286 0.0220285 0)
(0.0041416 0.0309363 0)
(0.00299219 0.0410366 0)
(0.0013102 0.0521695 0)
(-0.000498865 0.0633177 0)
(-0.00173516 0.0704548 0)
(-0.00201945 0.0689784 0)
(-0.00136728 0.0535218 0)
(-0.000279754 0.0225041 0)
(2.32049e-05 0.0154384 0)
(0.000100316 0.0374776 0)
(2.91099e-05 0.0477313 0)
(-0.000433481 0.0437883 0)
(-0.00129487 0.0295795 0)
(-0.00255742 0.0131704 0)
(-0.00463438 0.00150392 0)
(-0.00766033 -0.00396049 0)
(-0.0113685 -0.00508827 0)
(-0.0153925 -0.00460077 0)
(-0.0195125 -0.00402546 0)
(-0.0235781 -0.00406763 0)
(-0.0273814 -0.00516463 0)
(-0.0306691 -0.00758576 0)
(-0.0331447 -0.0114731 0)
(-0.0343988 -0.0167754 0)
(-0.0340049 -0.0227473 0)
(-0.0316723 -0.0266006 0)
(-0.0278568 -0.0260404 0)
(-0.0230737 -0.0207531 0)
(-0.0178178 -0.0114909 0)
(-0.0114946 0.000483919 0)
(-0.00794785 0.0114378 0)
(-0.00680906 0.0213255 0)
(-0.00637293 0.0321336 0)
(-0.00656323 0.0438519 0)
(-0.00688592 0.0555644 0)
(-0.00677689 0.0653136 0)
(-0.00585981 0.0695445 0)
(-0.0041486 0.0644716 0)
(-0.0020677 0.0470396 0)
(-0.000319986 0.0182997 0)
(-2.68288e-05 0.0155472 0)
(-0.000210302 0.0380639 0)
(-0.000563123 0.04908 0)
(-0.00121651 0.0462279 0)
(-0.00231921 0.0332603 0)
(-0.00420551 0.0186305 0)
(-0.0072876 0.00914079 0)
(-0.0114274 0.0052162 0)
(-0.0161382 0.00401155 0)
(-0.0210594 0.00350452 0)
(-0.0259313 0.00275381 0)
(-0.0305645 0.00131454 0)
(-0.0348611 -0.00105561 0)
(-0.038827 -0.00454295 0)
(-0.0422598 -0.00949763 0)
(-0.0447294 -0.0160028 0)
(-0.0458812 -0.0233353 0)
(-0.0453125 -0.0286282 0)
(-0.0431616 -0.0295377 0)
(-0.0396656 -0.0257304 0)
(-0.0350779 -0.0175195 0)
(-0.0297062 -0.00580938 0)
(-0.0239598 0.00739303 0)
(-0.0212524 0.0193097 0)
(-0.0189787 0.0312258 0)
(-0.016965 0.0429628 0)
(-0.0148135 0.053223 0)
(-0.0121824 0.0599495 0)
(-0.00899486 0.060456 0)
(-0.00551971 0.0523959 0)
(-0.00237155 0.035185 0)
(-0.000291528 0.0122555 0)
(-5.2662e-05 0.0166299 0)
(-0.000451945 0.0405749 0)
(-0.00115847 0.0525131 0)
(-0.00223636 0.0507362 0)
(-0.00388576 0.0396013 0)
(-0.00645987 0.0275114 0)
(-0.0100642 0.0198654 0)
(-0.0144094 0.0162346 0)
(-0.0192119 0.0143441 0)
(-0.0243052 0.0127545 0)
(-0.0295627 0.0108246 0)
(-0.0348507 0.00821645 0)
(-0.0399824 0.00464023 0)
(-0.0446514 -0.000214441 0)
(-0.0486684 -0.00640172 0)
(-0.0520149 -0.0140273 0)
(-0.0545199 -0.0225424 0)
(-0.0558191 -0.0290976 0)
(-0.0557594 -0.0315163 0)
(-0.0542278 -0.0295969 0)
(-0.0510883 -0.0235016 0)
(-0.0463875 -0.0137058 0)
(-0.0403626 -0.00118136 0)
(-0.0338579 0.0121699 0)
(-0.0286543 0.0233646 0)
(-0.0236831 0.0333504 0)
(-0.0189081 0.0408866 0)
(-0.0141587 0.0442064 0)
(-0.00947885 0.0416366 0)
(-0.00521014 0.0325293 0)
(-0.00193859 0.0187349 0)
(-0.000192705 0.00513865 0)
(-3.92798e-05 0.0184082 0)
(-0.000444591 0.044953 0)
(-0.0012869 0.058735 0)
(-0.00265183 0.0586251 0)
(-0.00467277 0.0495356 0)
(-0.00747112 0.0394021 0)
(-0.0109369 0.0326157 0)
(-0.0148631 0.0287805 0)
(-0.0191433 0.0261577 0)
(-0.0237341 0.0235958 0)
(-0.0285952 0.0205357 0)
(-0.0336669 0.016657 0)
(-0.0388524 0.0117017 0)
(-0.0439715 0.0054472 0)
(-0.0486329 -0.00224094 0)
(-0.0521153 -0.0109607 0)
(-0.0551759 -0.0203592 0)
(-0.0576761 -0.0278616 0)
(-0.0592524 -0.0317606 0)
(-0.0595504 -0.0322763 0)
(-0.0581657 -0.0297727 0)
(-0.0548157 -0.0246015 0)
(-0.0494374 -0.0170355 0)
(-0.0422828 -0.00729555 0)
(-0.034044 0.00400621 0)
(-0.025867 0.0141425 0)
(-0.0181919 0.021159 0)
(-0.0115016 0.0230882 0)
(-0.00617719 0.0203721 0)
(-0.00247449 0.0138824 0)
(-0.000521389 0.00643519 0)
(3.63085e-05 0.0012066 0)
(1.23495e-05 0.0196031 0)
(-0.000119356 0.0486745 0)
(-0.000644142 0.0651532 0)
(-0.00177317 0.067518 0)
(-0.00361664 0.0602858 0)
(-0.00607984 0.0510247 0)
(-0.00891153 0.0441424 0)
(-0.0119431 0.0397375 0)
(-0.0151506 0.0364405 0)
(-0.0185599 0.0331953 0)
(-0.0221866 0.0294338 0)
(-0.0260184 0.0248068 0)
(-0.0300083 0.019017 0)
(-0.0340547 0.0117877 0)
(-0.0379588 0.00295196 0)
(-0.0413877 -0.00727734 0)
(-0.0437667 -0.0174135 0)
(-0.0463229 -0.0253607 0)
(-0.0483604 -0.0302141 0)
(-0.049495 -0.032677 0)
(-0.0493528 -0.0334204 0)
(-0.0476699 -0.0330086 0)
(-0.0443053 -0.0318313 0)
(-0.039258 -0.0300736 0)
(-0.0327539 -0.0276652 0)
(-0.0253518 -0.0242898 0)
(-0.0178558 -0.0194516 0)
(-0.0110733 -0.0127016 0)
(-0.00566525 -0.00613038 0)
(-0.00209197 -0.00110148 0)
(-0.000385007 0.0014187 0)
(3.37849e-05 0.00124244 0)
(8.11041e-05 0.0192325 0)
(0.000405989 0.0491034 0)
(0.000570637 0.0679463 0)
(0.000236914 0.0735839 0)
(-0.000915373 0.0685785 0)
(-0.00280292 0.0597436 0)
(-0.00500598 0.0522209 0)
(-0.00719511 0.0469638 0)
(-0.00929291 0.0429658 0)
(-0.0113673 0.039154 0)
(-0.0134695 0.0348719 0)
(-0.0156118 0.0296953 0)
(-0.0177826 0.0232657 0)
(-0.0199467 0.0152884 0)
(-0.0218983 0.0056987 0)
(-0.0235194 -0.00491589 0)
(-0.0246822 -0.0152444 0)
(-0.0269909 -0.0229502 0)
(-0.0291399 -0.0279922 0)
(-0.0307447 -0.0312307 0)
(-0.0315083 -0.033376 0)
(-0.0312979 -0.0350045 0)
(-0.0300814 -0.0364685 0)
(-0.0278829 -0.037906 0)
(-0.0247666 -0.0390981 0)
(-0.0208856 -0.0394278 0)
(-0.0164663 -0.0379584 0)
(-0.0118085 -0.0337603 0)
(-0.0073567 -0.0264598 0)
(-0.00366282 -0.0169052 0)
(-0.00120081 -0.00755358 0)
(-9.2145e-05 -0.00121663 0)
(0.000155979 0.0171217 0)
(0.00102851 0.0457588 0)
(0.00208087 0.065912 0)
(0.00284766 0.0745844 0)
(0.00285479 0.0729483 0)
(0.00196182 0.0658052 0)
(0.000481326 0.0579049 0)
(-0.00108845 0.0513605 0)
(-0.00236436 0.0463897 0)
(-0.00335913 0.0419577 0)
(-0.00411271 0.037256 0)
(-0.00466124 0.031774 0)
(-0.00499905 0.0251266 0)
(-0.00516042 0.0170753 0)
(-0.00456069 0.00765728 0)
(-0.00405847 -0.00372781 0)
(-0.00500898 -0.013834 0)
(-0.00760084 -0.0208018 0)
(-0.0102885 -0.02568 0)
(-0.0127138 -0.0292157 0)
(-0.0145808 -0.0320399 0)
(-0.0158217 -0.0347205 0)
(-0.0164391 -0.0375756 0)
(-0.0164907 -0.0408861 0)
(-0.0159056 -0.0445411 0)
(-0.0145927 -0.0478664 0)
(-0.0125093 -0.0496348 0)
(-0.00975439 -0.0482869 0)
(-0.00663586 -0.0424232 0)
(-0.00364314 -0.0318164 0)
(-0.00135535 -0.0183466 0)
(-0.000128734 -0.00538186 0)
(0.000202113 0.0136763 0)
(0.00157665 0.0390861 0)
(0.00356665 0.0593793 0)
(0.00558006 0.0705933 0)
(0.00698811 0.0724505 0)
(0.00744395 0.0679741 0)
(0.00705196 0.0609844 0)
(0.00625578 0.0540198 0)
(0.00557259 0.0480105 0)
(0.00530328 0.0426711 0)
(0.00553331 0.0373382 0)
(0.00623932 0.0314265 0)
(0.00738837 0.0244649 0)
(0.00888187 0.0160946 0)
(0.0109515 0.0064725 0)
(0.0130915 -0.00367752 0)
(0.0122237 -0.0120967 0)
(0.00966918 -0.018169 0)
(0.00645674 -0.0226384 0)
(0.00314705 -0.026099 0)
(0.000109958 -0.0290916 0)
(-0.00251986 -0.0321419 0)
(-0.00460265 -0.0353613 0)
(-0.00630109 -0.0391901 0)
(-0.00758822 -0.0438674 0)
(-0.00830298 -0.0490222 0)
(-0.00822237 -0.0534863 0)
(-0.00720473 -0.0552434 0)
(-0.00538513 -0.0518805 0)
(-0.00319271 -0.0419241 0)
(-0.00127508 -0.0263455 0)
(-0.000141194 -0.00869011 0)
(0.000208459 0.00966947 0)
(0.00191804 0.0303299 0)
(0.00472443 0.0495336 0)
(0.0079399 0.0625496 0)
(0.0107984 0.0676783 0)
(0.0127773 0.0663455 0)
(0.0137602 0.0612759 0)
(0.0140355 0.0548281 0)
(0.0141234 0.0483547 0)
(0.0145131 0.0422144 0)
(0.0154926 0.0361583 0)
(0.0171389 0.0297397 0)
(0.0193918 0.0225096 0)
(0.0220442 0.0141458 0)
(0.024898 0.00489728 0)
(0.0270036 -0.00422621 0)
(0.0261449 -0.011327 0)
(0.0234307 -0.0162472 0)
(0.0198071 -0.019857 0)
(0.0158454 -0.0227777 0)
(0.0119237 -0.0254809 0)
(0.00823875 -0.0283303 0)
(0.00488964 -0.0315535 0)
(0.00194611 -0.0353867 0)
(-0.000688907 -0.0403441 0)
(-0.00286798 -0.0463589 0)
(-0.00436442 -0.0527426 0)
(-0.00482492 -0.0573445 0)
(-0.00417708 -0.0569117 0)
(-0.00272932 -0.0486832 0)
(-0.00115907 -0.032406 0)
(-0.00013356 -0.0114109 0)
(0.000177539 0.00583679 0)
(0.00197071 0.0209703 0)
(0.0052998 0.0379559 0)
(0.00946833 0.0518711 0)
(0.0136048 0.0597408 0)
(0.0170509 0.0615429 0)
(0.0195107 0.0589063 0)
(0.0211046 0.0537366 0)
(0.0222673 0.0474912 0)
(0.023531 0.0409581 0)
(0.0253074 0.0343427 0)
(0.0277711 0.0274933 0)
(0.0308542 0.0201176 0)
(0.0342317 0.0120155 0)
(0.0373982 0.00348959 0)
(0.0390554 -0.00444428 0)
(0.0376781 -0.010303 0)
(0.034385 -0.0142015 0)
(0.0301367 -0.0170117 0)
(0.025496 -0.0193194 0)
(0.0207946 -0.0215688 0)
(0.0162339 -0.0240916 0)
(0.0119528 -0.0271136 0)
(0.00805698 -0.0308432 0)
(0.00456224 -0.0355509 0)
(0.00146651 -0.0415587 0)
(-0.00120822 -0.0491831 0)
(-0.00289328 -0.0562028 0)
(-0.00327098 -0.0587888 0)
(-0.00246292 -0.0529652 0)
(-0.00112629 -0.0370025 0)
(-0.000129489 -0.0136178 0)
(0.000121927 0.00272448 0)
(0.00171837 0.0124232 0)
(0.00513733 0.0263142 0)
(0.00984069 0.0401684 0)
(0.014894 0.050043 0)
(0.019542 0.0545975 0)
(0.0233702 0.0544168 0)
(0.0263687 0.0508622 0)
(0.0288597 0.0453221 0)
(0.0313114 0.0388386 0)
(0.0341243 0.031989 0)
(0.0374785 0.0249416 0)
(0.041271 0.017621 0)
(0.0450697 0.00997464 0)
(0.048181 0.00234599 0)
(0.0491119 -0.00436016 0)
(0.046914 -0.00905399 0)
(0.0428392 -0.0120307 0)
(0.0378904 -0.0141077 0)
(0.0326224 -0.0158125 0)
(0.0273163 -0.0175504 0)
(0.0221322 -0.0196394 0)
(0.0171864 -0.0223276 0)
(0.0125777 -0.0258405 0)
(0.00837642 -0.0304324 0)
(0.00462385 -0.0364126 0)
(0.00132926 -0.0440903 0)
(-0.00138337 -0.0530087 0)
(-0.00271083 -0.0585611 0)
(-0.00248678 -0.055648 0)
(-0.00127453 -0.0408604 0)
(-0.000146282 -0.0156407 0)
(6.25621e-05 0.000599587 0)
(0.00124404 0.00576802 0)
(0.0042421 0.0160885 0)
(0.00892424 0.028949 0)
(0.0143946 0.0399764 0)
(0.0198359 0.0466415 0)
(0.0247806 0.0485583 0)
(0.0291387 0.0465591 0)
(0.0331108 0.0419083 0)
(0.0370192 0.0357956 0)
(0.0411284 0.0290623 0)
(0.0455143 0.0221339 0)
(0.0499855 0.0151354 0)
(0.0540138 0.00814892 0)
(0.0568038 0.00154791 0)
(0.0568651 -0.00394176 0)
(0.0537631 -0.00759276 0)
(0.0489252 -0.00978643 0)
(0.0433876 -0.0112468 0)
(0.0376827 -0.0124325 0)
(0.0320312 -0.0137033 0)
(0.0265302 -0.0153588 0)
(0.0212426 -0.0176582 0)
(0.0162301 -0.0208494 0)
(0.0115559 -0.025204 0)
(0.00727475 -0.0310597 0)
(0.00343156 -0.0387973 0)
(3.50569e-05 -0.0484101 0)
(-0.00230618 -0.0567889 0)
(-0.00274753 -0.0572045 0)
(-0.00166496 -0.044479 0)
(-0.000210677 -0.0178446 0)
(2.53823e-05 -0.000607488 0)
(0.00070029 0.0014484 0)
(0.00276797 0.00836576 0)
(0.00672466 0.0194279 0)
(0.0120272 0.0306793 0)
(0.0178186 0.0386282 0)
(0.023604 0.0420258 0)
(0.0292358 0.0412533 0)
(0.0347671 0.0374603 0)
(0.0403002 0.0319153 0)
(0.0458716 0.0256095 0)
(0.0513767 0.019126 0)
(0.0565004 0.0127288 0)
(0.0606372 0.00659422 0)
(0.0629655 0.00109199 0)
(0.0622 -0.00326195 0)
(0.0583319 -0.00602554 0)
(0.0529479 -0.00759196 0)
(0.0470912 -0.00857301 0)
(0.0412523 -0.0093549 0)
(0.0355823 -0.0102454 0)
(0.0301045 -0.0115141 0)
(0.024811 -0.0134158 0)
(0.0197014 -0.0162152 0)
(0.0147981 -0.0202096 0)
(0.0101411 -0.0257622 0)
(0.00577549 -0.0333029 0)
(0.00175865 -0.0430522 0)
(-0.00164818 -0.0536073 0)
(-0.00303885 -0.0576721 0)
(-0.00229664 -0.0479932 0)
(-0.000362369 -0.0205697 0)
(5.28427e-06 -0.00109091 0)
(1.04089e-05 -0.000536863 0)
(0.000599202 0.00389201 0)
(0.00304188 0.0126227 0)
(0.00769349 0.0230118 0)
(0.013596 0.0312037 0)
(0.020079 0.0353091 0)
(0.0269375 0.0353078 0)
(0.0340577 0.0322447 0)
(0.0412692 0.0273931 0)
(0.048334 0.0217726 0)
(0.0549448 0.0160161 0)
(0.0606664 0.0104549 0)
(0.064855 0.00530784 0)
(0.0667435 0.000899886 0)
(0.0653963 -0.00244925 0)
(0.0611142 -0.0044931 0)
(0.0555675 -0.00558522 0)
(0.049768 -0.00622127 0)
(0.0441471 -0.0067163 0)
(0.038787 -0.00732188 0)
(0.0336414 -0.00826648 0)
(0.0286306 -0.0097838 0)
(0.0236823 -0.0121377 0)
(0.0187558 -0.0156425 0)
(0.01385 -0.020688 0)
(0.00899922 -0.0277535 0)
(0.00429073 -0.0372763 0)
(-0.000166825 -0.048799 0)
(-0.00297915 -0.0567174 0)
(-0.00304281 -0.0511246 0)
(-0.000641771 -0.0240359 0)
(-0.000151561 -0.000660402 0)
(-0.00136071 0.000217138 0)
(-0.00258345 0.00338299 0)
(-0.00221455 0.00896726 0)
(0.0012519 0.0169786 0)
(0.00744819 0.024536 0)
(0.014759 0.0286385 0)
(0.022856 0.0289855 0)
(0.0315444 0.0265326 0)
(0.0403755 0.0224744 0)
(0.048846 0.0177376 0)
(0.0564765 0.0129143 0)
(0.0627533 0.00834113 0)
(0.0670543 0.00423482 0)
(0.0687454 0.00084524 0)
(0.0672708 -0.00165512 0)
(0.0630951 -0.0031366 0)
(0.0578507 -0.0038842 0)
(0.0524909 -0.00428471 0)
(0.0473908 -0.00458672 0)
(0.0425832 -0.00498603 0)
(0.0379747 -0.00566437 0)
(0.0334321 -0.00681992 0)
(0.0288192 -0.00869426 0)
(0.0240244 -0.0115969 0)
(0.0189826 -0.015931 0)
(0.013688 -0.0222176 0)
(0.00820259 -0.0310498 0)
(0.0026823 -0.0425522 0)
(-0.00193414 -0.05377 0)
(-0.00356764 -0.0532405 0)
(-0.00104496 -0.0282357 0)
(-0.000561417 0.00158786 0)
(-0.0036469 0.00389199 0)
(-0.00659066 0.00579421 0)
(-0.00781387 0.00838508 0)
(-0.00588205 0.0125796 0)
(-0.000196151 0.0179842 0)
(0.00849371 0.0219516 0)
(0.0178985 0.0224552 0)
(0.0280811 0.0205758 0)
(0.0383959 0.0174004 0)
(0.0481389 0.0136754 0)
(0.0567272 0.00989678 0)
(0.0636295 0.00636613 0)
(0.0682989 0.00326992 0)
(0.0702638 0.000779265 0)
(0.0692299 -0.00101985 0)
(0.0656601 -0.00205847 0)
(0.0610758 -0.00254949 0)
(0.0563958 -0.00278519 0)
(0.0519718 -0.00295434 0)
(0.04782 -0.00320117 0)
(0.0438284 -0.00366017 0)
(0.0398347 -0.00448513 0)
(0.0356562 -0.00587601 0)
(0.0311134 -0.00810808 0)
(0.0260556 -0.0115668 0)
(0.0203887 -0.0167916 0)
(0.014112 -0.0244989 0)
(0.0074169 -0.0353274 0)
(0.000973057 -0.0481132 0)
(-0.00328394 -0.0534716 0)
(-0.00146012 -0.0329221 0)
(-0.00121983 0.0060395 0)
(-0.00614249 0.00947556 0)
(-0.00994225 0.00923339 0)
(-0.0117664 0.00880705 0)
(-0.0106685 0.00972166 0)
(-0.00604714 0.0121906 0)
(0.00295026 0.0150907 0)
(0.0139004 0.0157963 0)
(0.0253744 0.0145718 0)
(0.0369822 0.01235 0)
(0.0478872 0.00968549 0)
(0.0574555 0.00697009 0)
(0.0651619 0.00445438 0)
(0.0705221 0.00228802 0)
(0.073163 0.000582682 0)
(0.0728844 -0.000616904 0)
(0.0700735 -0.00127788 0)
(0.0662177 -0.00155911 0)
(0.0622499 -0.00167017 0)
(0.0585192 -0.00174393 0)
(0.0550373 -0.00187714 0)
(0.0516841 -0.00215923 0)
(0.0482818 -0.00269638 0)
(0.0446181 -0.00363439 0)
(0.0404593 -0.00518755 0)
(0.0355657 -0.00768063 0)
(0.0297179 -0.0116155 0)
(0.0227767 -0.0177576 0)
(0.0148258 -0.027107 0)
(0.00644072 -0.0399185 0)
(-0.00125007 -0.0506424 0)
(-0.00155797 -0.0374048 0)
(-0.00188562 0.0125227 0)
(-0.00725342 0.0150007 0)
(-0.00941514 0.0118514 0)
(-0.00959149 0.00897799 0)
(-0.00789616 0.00749839 0)
(-0.00387548 0.00748646 0)
(0.00446379 0.00868298 0)
(0.0155201 0.00927061 0)
(0.0276077 0.00873602 0)
(0.0399782 0.00746112 0)
(0.051661 0.00582641 0)
(0.0619265 0.00412967 0)
(0.0701985 0.00256762 0)
(0.0759961 0.00125473 0)
(0.0790031 0.00025966 0)
(0.0790989 -0.000400152 0)
(0.0767608 -0.000727574 0)
(0.0735087 -0.000838128 0)
(0.070231 -0.000860739 0)
(0.0672234 -0.000873559 0)
(0.0644648 -0.000929898 0)
(0.0618175 -0.00107878 0)
(0.0590941 -0.00138144 0)
(0.0560705 -0.00192684 0)
(0.0524862 -0.00285407 0)
(0.0480392 -0.00439135 0)
(0.0423849 -0.00693254 0)
(0.0351678 -0.0111733 0)
(0.0261636 -0.0182724 0)
(0.0155508 -0.029556 0)
(0.00390479 -0.0431589 0)
(-0.000260957 -0.0393396 0)
(-0.00119933 0.0184538 0)
(-0.00357353 0.017593 0)
(0.00120396 0.0113724 0)
(0.00642349 0.00762921 0)
(0.011141 0.00535933 0)
(0.0161742 0.00409018 0)
(0.0228946 0.00380953 0)
(0.0319516 0.0038742 0)
(0.0426172 0.00370065 0)
(0.0538327 0.00317304 0)
(0.0644739 0.00243186 0)
(0.0736724 0.00164581 0)
(0.0808122 0.000937209 0)
(0.0855 0.000373136 0)
(0.0876213 -1.76524e-05 0)
(0.0872709 -0.000243911 0)
(0.0851667 -0.000329357 0)
(0.0825983 -0.000336073 0)
(0.0801977 -0.00031848 0)
(0.0781104 -0.000307805 0)
(0.0762529 -0.000323321 0)
(0.0744753 -0.000383433 0)
(0.072602 -0.00051381 0)
(0.070431 -0.000754754 0)
(0.067721 -0.00117338 0)
(0.0641689 -0.00188943 0)
(0.0593714 -0.003136 0)
(0.0527758 -0.00539265 0)
(0.0436468 -0.00962719 0)
(0.0311525 -0.0174898 0)
(0.0152933 -0.0297571 0)
(0.00627874 -0.0334475 0)
(0.0209248 0.0115602 0)
(0.0273374 0.00933658 0)
(0.0399352 0.00534989 0)
(0.0496775 0.00311963 0)
(0.0564003 0.00186153 0)
(0.0615151 0.00110005 0)
(0.0661151 0.000709042 0)
(0.0711004 0.000539525 0)
(0.0766846 0.000444273 0)
(0.0824424 0.000341326 0)
(0.0877031 0.000224602 0)
(0.0919253 0.000114763 0)
(0.094814 2.94612e-05 0)
(0.096308 -2.54748e-05 0)
(0.096545 -5.09923e-05 0)
(0.09578 -5.65574e-05 0)
(0.0944923 -4.96013e-05 0)
(0.0932382 -3.88905e-05 0)
(0.0922103 -2.98659e-05 0)
(0.0913901 -2.55164e-05 0)
(0.0906844 -2.68022e-05 0)
(0.0899943 -3.55318e-05 0)
(0.0892191 -5.5362e-05 0)
(0.088245 -9.27291e-05 0)
(0.0869305 -0.000159089 0)
(0.0850812 -0.000276561 0)
(0.0823944 -0.000493536 0)
(0.0783394 -0.000924358 0)
(0.0718926 -0.00184582 0)
(0.0610304 -0.00399523 0)
(0.043409 -0.0092281 0)
(0.0286473 -0.0145659 0)
)
;

boundaryField
{
    movingWall
    {
        type            fixedValue;
        value           uniform (0.1 0 0);
    }
    fixedWalls
    {
        type            noSlip;
    }
    floor
    {
        type            noSlip;
    }
    frontAndBack
    {
        type            empty;
    }
}


// ************************************************************************* //
