/*--------------------------------*- C++ -*----------------------------------*\
| =========                 |                                                 |
| \\      /  F ield         | OpenFOAM: The Open Source CFD Toolbox           |
|  \\    /   O peration     | Version:  2212                                  |
|   \\  /    A nd           | Website:  www.openfoam.com                      |
|    \\/     M anipulation  |                                                 |
\*---------------------------------------------------------------------------*/
FoamFile
{
    version     2.0;
    format      ascii;
    arch        "LSB;label=64;scalar=64";
    class       volScalarField;
    location    "110";
    object      Xli;
}
// * * * * * * * * * * * * * * * * * * * * * * * * * * * * * * * * * * * * * //

dimensions      [1 -3 0 0 0 0 0];

internalField   nonuniform List<scalar> 
1024
(
0.0431788
0.0431791
0.0431799
0.0431813
0.0431831
0.0431854
0.043188
0.0431907
0.0431935
0.0431963
0.0431993
0.0432025
0.0432058
0.0432091
0.043212
0.0432139
0.0432138
0.0432119
0.0432092
0.0432063
0.0432034
0.0432007
0.0431981
0.0431955
0.043193
0.0431905
0.0431882
0.0431863
0.0431848
0.0431838
0.0431832
0.0431829
0.0431788
0.0431792
0.04318
0.0431815
0.0431834
0.0431858
0.0431884
0.0431911
0.0431939
0.0431968
0.0431998
0.0432029
0.0432062
0.0432095
0.0432124
0.0432142
0.0432141
0.0432121
0.0432094
0.0432065
0.0432036
0.0432009
0.0431984
0.0431958
0.0431933
0.0431908
0.0431885
0.0431865
0.0431849
0.0431839
0.0431833
0.043183
0.043179
0.0431794
0.0431803
0.0431818
0.0431838
0.0431863
0.0431891
0.0431919
0.0431948
0.0431978
0.0432008
0.043204
0.0432073
0.0432106
0.0432134
0.0432151
0.0432147
0.0432126
0.0432098
0.0432068
0.043204
0.0432013
0.0431988
0.0431963
0.0431939
0.0431914
0.043189
0.0431869
0.0431853
0.0431841
0.0431834
0.0431831
0.0431791
0.0431796
0.0431805
0.0431822
0.0431844
0.0431871
0.04319
0.0431931
0.0431963
0.0431995
0.0432028
0.043206
0.0432094
0.0432126
0.0432153
0.0432167
0.0432158
0.0432133
0.0432101
0.043207
0.0432041
0.0432015
0.0431991
0.0431968
0.0431945
0.0431921
0.0431897
0.0431875
0.0431857
0.0431844
0.0431837
0.0431834
0.0431794
0.0431798
0.0431808
0.0431826
0.043185
0.0431879
0.0431912
0.0431947
0.0431984
0.043202
0.0432057
0.0432092
0.0432126
0.0432157
0.0432182
0.043219
0.0432173
0.0432139
0.0432101
0.0432067
0.0432038
0.0432013
0.0431991
0.0431969
0.0431948
0.0431926
0.0431904
0.0431881
0.0431862
0.0431848
0.043184
0.0431836
0.0431796
0.04318
0.0431811
0.0431829
0.0431855
0.0431887
0.0431925
0.0431967
0.0432011
0.0432055
0.0432097
0.0432136
0.0432172
0.0432202
0.0432221
0.043222
0.0432189
0.0432142
0.0432094
0.0432056
0.0432026
0.0432002
0.0431983
0.0431965
0.0431947
0.0431928
0.0431907
0.0431886
0.0431867
0.0431852
0.0431843
0.0431839
0.0431798
0.0431802
0.0431813
0.0431832
0.043186
0.0431896
0.043194
0.043199
0.0432044
0.0432097
0.0432148
0.0432193
0.0432231
0.0432258
0.0432268
0.0432252
0.0432203
0.0432138
0.0432078
0.0432033
0.0432002
0.0431981
0.0431966
0.0431952
0.0431939
0.0431924
0.0431906
0.0431887
0.0431868
0.0431854
0.0431845
0.0431841
0.0431799
0.0431804
0.0431815
0.0431834
0.0431864
0.0431905
0.0431956
0.0432017
0.0432083
0.0432149
0.0432209
0.0432261
0.0432299
0.043232
0.0432317
0.0432282
0.043221
0.0432123
0.0432048
0.0431995
0.0431964
0.0431947
0.0431937
0.043193
0.0431922
0.0431913
0.0431899
0.0431883
0.0431867
0.0431854
0.0431846
0.0431842
0.0431801
0.0431805
0.0431817
0.0431837
0.0431869
0.0431915
0.0431975
0.0432047
0.0432127
0.0432207
0.0432278
0.0432335
0.0432371
0.0432382
0.0432362
0.0432305
0.043221
0.0432102
0.0432008
0.0431946
0.0431914
0.0431901
0.0431897
0.0431897
0.0431897
0.0431894
0.0431886
0.0431875
0.0431862
0.0431851
0.0431844
0.0431841
0.0431803
0.0431807
0.0431819
0.043184
0.0431875
0.0431927
0.0431997
0.0432083
0.0432178
0.0432272
0.0432353
0.0432411
0.043244
0.0432438
0.0432401
0.0432326
0.0432215
0.0432085
0.043197
0.0431894
0.0431858
0.0431848
0.043185
0.0431858
0.0431866
0.043187
0.0431868
0.0431862
0.0431854
0.0431846
0.043184
0.0431837
0.0431805
0.043181
0.0431822
0.0431845
0.0431884
0.0431943
0.0432024
0.0432125
0.0432237
0.0432343
0.0432429
0.0432484
0.0432504
0.0432489
0.0432441
0.0432361
0.0432242
0.0432094
0.0431953
0.0431855
0.0431808
0.0431797
0.0431804
0.0431818
0.0431832
0.0431842
0.0431847
0.0431846
0.0431842
0.0431836
0.0431832
0.043183
0.043181
0.0431815
0.0431828
0.0431853
0.0431896
0.0431964
0.0432059
0.0432176
0.0432302
0.0432417
0.0432504
0.0432552
0.0432562
0.0432541
0.0432496
0.0432425
0.0432313
0.0432153
0.0431981
0.0431849
0.043178
0.043176
0.0431765
0.0431782
0.0431801
0.0431816
0.0431826
0.0431829
0.0431828
0.0431825
0.0431821
0.0431819
0.0431818
0.0431823
0.0431838
0.0431867
0.0431917
0.0431996
0.0432105
0.0432238
0.0432375
0.0432493
0.0432573
0.0432611
0.0432616
0.04326
0.0432572
0.0432526
0.0432438
0.0432282
0.0432083
0.0431907
0.0431795
0.043175
0.0431745
0.0431758
0.0431776
0.0431791
0.0431801
0.0431806
0.0431807
0.0431805
0.0431803
0.0431801
0.0431835
0.0431841
0.0431858
0.0431892
0.0431952
0.0432045
0.0432169
0.0432314
0.0432453
0.0432563
0.0432628
0.0432655
0.0432657
0.0432651
0.0432645
0.0432639
0.0432607
0.04325
0.0432303
0.0432081
0.0431901
0.0431795
0.0431755
0.0431756
0.0431771
0.0431787
0.0431797
0.0431799
0.0431796
0.0431791
0.0431785
0.0431782
0.0431859
0.0431866
0.0431886
0.0431928
0.0431998
0.0432102
0.0432235
0.0432379
0.0432507
0.0432598
0.0432642
0.0432649
0.0432638
0.0432626
0.043263
0.0432667
0.0432734
0.0432764
0.0432675
0.0432477
0.0432238
0.0432025
0.0431869
0.0431773
0.0431724
0.0431703
0.0431699
0.0431705
0.0431715
0.0431727
0.0431738
0.0431744
0.0431895
0.0431903
0.0431927
0.0431973
0.0432048
0.0432154
0.043228
0.0432407
0.0432508
0.0432562
0.0432563
0.0432522
0.0432456
0.0432387
0.0432347
0.0432383
0.0432539
0.0432789
0.0432997
0.0433071
0.0433006
0.0432852
0.0432667
0.0432491
0.0432348
0.043224
0.0432172
0.0432139
0.0432135
0.043215
0.0432169
0.0432182
0.0431923
0.0431931
0.0431954
0.0431996
0.0432062
0.043215
0.043225
0.043234
0.0432396
0.0432397
0.0432339
0.0432227
0.0432079
0.0431916
0.0431773
0.0431701
0.0431764
0.043202
0.0432427
0.0432877
0.0433262
0.0433528
0.0433672
0.0433724
0.0433716
0.0433676
0.0433621
0.0433565
0.0433519
0.0433487
0.0433469
0.0433463
0.0431922
0.0431931
0.0431951
0.0431987
0.0432039
0.0432105
0.0432176
0.0432235
0.043226
0.0432235
0.0432152
0.0432017
0.0431849
0.0431671
0.0431511
0.043139
0.0431321
0.0431334
0.043148
0.0431788
0.0432228
0.0432722
0.0433191
0.0433582
0.0433876
0.0434072
0.0434184
0.0434232
0.0434238
0.0434224
0.0434207
0.0434197
0.0431898
0.0431907
0.0431926
0.0431954
0.0431994
0.0432042
0.0432093
0.0432133
0.0432146
0.0432118
0.0432042
0.0431922
0.0431778
0.0431632
0.0431508
0.0431418
0.0431362
0.0431344
0.0431382
0.0431509
0.0431761
0.043214
0.0432606
0.0433094
0.0433537
0.0433892
0.0434145
0.0434303
0.0434386
0.0434419
0.0434426
0.0434424
0.0431859
0.0431869
0.0431887
0.0431912
0.0431944
0.043198
0.0432016
0.0432045
0.0432055
0.0432034
0.0431976
0.0431884
0.0431772
0.0431658
0.043156
0.043148
0.0431414
0.0431376
0.0431384
0.0431465
0.0431645
0.0431947
0.0432367
0.0432867
0.0433377
0.0433828
0.0434176
0.0434407
0.0434538
0.0434597
0.0434613
0.0434613
0.0431802
0.0431812
0.0431831
0.0431857
0.0431887
0.0431919
0.0431949
0.0431972
0.0431981
0.043197
0.043193
0.0431864
0.043178
0.0431691
0.0431608
0.0431533
0.0431472
0.0431444
0.0431461
0.0431536
0.0431689
0.0431944
0.0432316
0.043279
0.0433313
0.0433811
0.0434222
0.0434513
0.0434687
0.043477
0.0434797
0.0434799
0.043176
0.0431764
0.0431775
0.0431793
0.0431819
0.0431849
0.0431878
0.0431902
0.0431915
0.0431911
0.0431886
0.043184
0.0431778
0.0431707
0.0431636
0.0431574
0.0431539
0.0431545
0.0431594
0.0431688
0.0431842
0.0432078
0.0432417
0.0432857
0.0433364
0.043387
0.0434308
0.0434634
0.0434838
0.043494
0.0434975
0.0434979
0.0431806
0.0431798
0.0431786
0.0431777
0.0431778
0.0431791
0.0431811
0.0431832
0.0431847
0.0431849
0.0431835
0.0431804
0.0431759
0.0431705
0.0431654
0.0431625
0.0431642
0.0431704
0.0431796
0.0431919
0.0432083
0.0432308
0.0432616
0.0433017
0.0433489
0.0433976
0.0434415
0.0434756
0.043498
0.0435097
0.0435139
0.0435145
0.0431977
0.0431958
0.0431919
0.0431868
0.0431822
0.0431793
0.0431783
0.0431785
0.0431792
0.0431793
0.0431785
0.0431766
0.0431738
0.043171
0.04317
0.0431732
0.0431824
0.0431948
0.0432084
0.0432231
0.04324
0.0432611
0.0432887
0.0433242
0.0433664
0.0434114
0.0434533
0.0434874
0.0435108
0.0435237
0.0435287
0.0435294
0.043225
0.0432224
0.0432163
0.0432074
0.0431973
0.0431886
0.0431826
0.0431793
0.0431777
0.043177
0.0431765
0.043176
0.0431761
0.0431778
0.0431832
0.0431946
0.0432113
0.0432291
0.0432457
0.0432615
0.043278
0.0432971
0.0433209
0.0433511
0.0433874
0.0434271
0.0434657
0.0434984
0.0435221
0.0435359
0.0435417
0.0435427
0.0432584
0.0432553
0.043248
0.0432363
0.0432218
0.0432076
0.0431962
0.0431886
0.0431844
0.0431828
0.0431831
0.0431853
0.0431898
0.0431979
0.0432107
0.0432295
0.0432518
0.0432725
0.04329
0.0433055
0.0433205
0.043337
0.0433567
0.0433812
0.043411
0.0434446
0.0434786
0.0435089
0.0435321
0.0435465
0.043553
0.0435543
0.0432952
0.0432919
0.0432842
0.0432718
0.0432555
0.0432379
0.0432225
0.0432116
0.0432056
0.0432041
0.0432064
0.0432122
0.0432219
0.0432358
0.0432543
0.0432773
0.0433016
0.0433224
0.043339
0.0433529
0.0433657
0.0433791
0.0433947
0.0434137
0.0434371
0.0434641
0.0434926
0.0435194
0.0435411
0.0435556
0.0435627
0.0435644
0.0433351
0.0433319
0.0433254
0.043315
0.0433005
0.0432834
0.0432669
0.0432548
0.0432485
0.0432479
0.0432523
0.0432611
0.0432741
0.043291
0.0433114
0.0433346
0.0433574
0.0433759
0.0433901
0.0434016
0.0434119
0.0434223
0.0434339
0.043448
0.0434652
0.0434856
0.0435081
0.0435305
0.0435498
0.0435637
0.0435711
0.0435731
0.0433789
0.0433765
0.043373
0.0433674
0.0433581
0.0433451
0.0433309
0.0433199
0.0433144
0.0433145
0.0433196
0.0433291
0.0433422
0.0433583
0.0433768
0.0433966
0.0434153
0.0434301
0.0434412
0.04345
0.0434577
0.0434652
0.0434734
0.0434831
0.043495
0.0435094
0.0435258
0.043543
0.0435589
0.0435712
0.0435784
0.0435807
0.0434289
0.0434281
0.0434288
0.0434286
0.0434252
0.0434182
0.0434087
0.0434004
0.043396
0.043396
0.0434002
0.0434079
0.0434183
0.0434308
0.0434446
0.0434591
0.0434725
0.0434829
0.0434906
0.0434966
0.0435018
0.0435068
0.0435121
0.0435182
0.0435257
0.0435348
0.0435456
0.0435573
0.0435689
0.0435786
0.0435848
0.0435871
0.0434883
0.0434898
0.0434935
0.0434962
0.0434965
0.0434941
0.0434894
0.0434845
0.0434816
0.0434813
0.0434837
0.0434884
0.0434946
0.0435021
0.0435103
0.0435188
0.0435266
0.0435326
0.043537
0.0435405
0.0435434
0.0435461
0.043549
0.0435523
0.0435563
0.0435612
0.043567
0.0435735
0.0435803
0.0435865
0.0435908
0.0435927
0.0435607
0.0435619
0.0435639
0.0435655
0.0435661
0.0435658
0.0435645
0.0435629
0.0435619
0.0435617
0.0435624
0.0435639
0.0435659
0.0435684
0.043571
0.0435737
0.0435762
0.0435782
0.0435796
0.0435807
0.0435816
0.0435825
0.0435834
0.0435844
0.0435856
0.0435871
0.0435889
0.0435909
0.0435931
0.0435951
0.0435967
0.0435975
)
;

boundaryField
{
    movingWall
    {
        type            fixedValue;
        value           uniform 0.0436;
    }
    fixedWalls
    {
        type            zeroGradient;
    }
    floor
    {
        type            zeroGradient;
    }
    frontAndBack
    {
        type            empty;
    }
}


// ************************************************************************* //
