/*--------------------------------*- C++ -*----------------------------------*\
| =========                 |                                                 |
| \\      /  F ield         | OpenFOAM: The Open Source CFD Toolbox           |
|  \\    /   O peration     | Version:  2206                                  |
|   \\  /    A nd           | Website:  www.openfoam.com                      |
|    \\/     M anipulation  |                                                 |
\*---------------------------------------------------------------------------*/
FoamFile
{
    version     2.0;
    format      ascii;
    arch        "LSB;label=64;scalar=64";
    class       volVectorField;
    location    "327600";
    object      U;
}
// * * * * * * * * * * * * * * * * * * * * * * * * * * * * * * * * * * * * * //

dimensions      [0 1 -1 0 0 0 0];

internalField   nonuniform List<vector> 
16
(
(1.47826e-07 -1.21274e-07 0)
(2.38483e-07 -1.09646e-08 0)
(1.87073e-07 2.25013e-08 0)
(1.06984e-07 1.05003e-07 0)
(9.77489e-09 -2.67287e-07 0)
(6.16064e-08 -1.75749e-08 0)
(2.22136e-08 9.98621e-08 0)
(-2.50277e-08 1.90272e-07 0)
(-8.56003e-08 -1.93413e-07 0)
(-1.29895e-07 -2.53111e-08 0)
(-9.46829e-08 1.09745e-07 0)
(-6.52931e-08 1.06854e-07 0)
(-6.91229e-08 -5.10939e-08 0)
(-1.7258e-07 -1.41399e-08 0)
(-1.12382e-07 3.96604e-08 0)
(-1.99763e-08 2.67845e-08 0)
)
;

boundaryField
{
    movingWall
    {
        type            noSlip;
    }
    fixedWalls
    {
        type            noSlip;
    }
    frontAndBack
    {
        type            empty;
    }
}


// ************************************************************************* //
