/*--------------------------------*- C++ -*----------------------------------*\
| =========                 |                                                 |
| \\      /  F ield         | OpenFOAM: The Open Source CFD Toolbox           |
|  \\    /   O peration     | Version:  2206                                  |
|   \\  /    A nd           | Website:  www.openfoam.com                      |
|    \\/     M anipulation  |                                                 |
\*---------------------------------------------------------------------------*/
FoamFile
{
    version     2.0;
    format      ascii;
    arch        "LSB;label=64;scalar=64";
    class       volVectorField;
    location    "662400";
    object      U;
}
// * * * * * * * * * * * * * * * * * * * * * * * * * * * * * * * * * * * * * //

dimensions      [0 1 -1 0 0 0 0];

internalField   nonuniform List<vector> 
16
(
(2.30276e-08 -2.25394e-08 0)
(1.19545e-07 -3.44387e-08 0)
(1.309e-07 9.58429e-09 0)
(4.15854e-08 4.57175e-08 0)
(1.96444e-08 -1.1964e-07 0)
(7.10765e-08 -7.67825e-08 0)
(5.0864e-08 7.16916e-08 0)
(4.65082e-09 1.25417e-07 0)
(-2.46174e-08 -1.10875e-07 0)
(-8.27515e-08 -6.55202e-08 0)
(-7.67869e-08 7.54049e-08 0)
(-2.80948e-08 1.00423e-07 0)
(-1.70417e-08 -1.56504e-08 0)
(-1.08949e-07 -2.25218e-08 0)
(-1.03713e-07 1.60838e-08 0)
(-1.90917e-08 2.25847e-08 0)
)
;

boundaryField
{
    movingWall
    {
        type            noSlip;
    }
    fixedWalls
    {
        type            noSlip;
    }
    frontAndBack
    {
        type            empty;
    }
}


// ************************************************************************* //
