/*--------------------------------*- C++ -*----------------------------------*\
| =========                 |                                                 |
| \\      /  F ield         | OpenFOAM: The Open Source CFD Toolbox           |
|  \\    /   O peration     | Version:  2212                                  |
|   \\  /    A nd           | Website:  www.openfoam.com                      |
|    \\/     M anipulation  |                                                 |
\*---------------------------------------------------------------------------*/
FoamFile
{
    version     2.0;
    format      ascii;
    arch        "LSB;label=64;scalar=64";
    class       volScalarField::Internal;
    location    "1790";
    object      dGch4;
}
// * * * * * * * * * * * * * * * * * * * * * * * * * * * * * * * * * * * * * //

dimensions      [1 -3 -1 0 0 0 0];

value           nonuniform List<scalar> 
1024
(
0.000995726
0.000996029
0.000996776
0.000998145
0.00100036
0.00100368
0.00100837
0.00101466
0.00102266
0.00103232
0.00104335
0.00105525
0.00106736
0.00107899
0.00108954
0.00109838
0.0011042
0.00110608
0.00110448
0.0011001
0.00109364
0.00108582
0.00107736
0.00106905
0.00106156
0.0010553
0.00105044
0.00104692
0.00104454
0.00104306
0.00104225
0.00104192
0.000995821
0.000996127
0.00099688
0.000998263
0.0010005
0.00100386
0.00100859
0.00101493
0.00102299
0.0010327
0.00104378
0.0010557
0.00106783
0.00107947
0.00109001
0.00109886
0.0011047
0.0011066
0.00110501
0.00110063
0.00109416
0.00108631
0.00107782
0.00106946
0.0010619
0.00105558
0.00105066
0.00104709
0.00104468
0.00104318
0.00104236
0.00104203
0.000996052
0.000996364
0.000997132
0.000998545
0.00100083
0.00100426
0.0010091
0.00101556
0.00102375
0.00103358
0.00104475
0.00105674
0.0010689
0.00108055
0.0010911
0.00109999
0.0011059
0.00110788
0.00110632
0.00110191
0.00109535
0.00108739
0.00107879
0.00107031
0.00106261
0.00105616
0.00105113
0.00104748
0.00104501
0.00104348
0.00104265
0.00104231
0.000996468
0.00099679
0.000997583
0.000999043
0.00100141
0.00100496
0.00100996
0.00101662
0.00102502
0.00103506
0.00104639
0.00105849
0.0010707
0.00108239
0.00109299
0.00110198
0.00110807
0.00111022
0.00110872
0.00110418
0.00109738
0.00108916
0.00108031
0.0010716
0.0010637
0.00105706
0.00105188
0.00104811
0.00104558
0.00104401
0.00104316
0.00104282
0.000997125
0.00099746
0.000998287
0.000999815
0.0010023
0.00100602
0.00101125
0.00101819
0.0010269
0.00103723
0.0010488
0.00106106
0.00107338
0.00108514
0.00109587
0.0011051
0.00111153
0.00111399
0.00111256
0.00110778
0.0011005
0.00109174
0.00108243
0.00107335
0.00106515
0.00105828
0.00105293
0.00104905
0.00104644
0.00104484
0.00104398
0.00104364
0.000998078
0.000998429
0.0009993
0.00100092
0.00100354
0.00100749
0.00101302
0.00102034
0.00102946
0.00104018
0.00105208
0.00106457
0.00107705
0.00108898
0.00109997
0.00110962
0.00111665
0.0011196
0.00111826
0.00111307
0.00110501
0.00109537
0.00108528
0.00107562
0.00106701
0.00105986
0.00105433
0.00105035
0.0010477
0.00104609
0.00104524
0.00104491
0.00099938
0.000999748
0.00100067
0.00100239
0.0010052
0.00100942
0.00101533
0.00102311
0.00103274
0.00104395
0.00105627
0.00106909
0.00108184
0.00109408
0.00110551
0.00111586
0.00112377
0.00112744
0.00112624
0.0011205
0.00111135
0.00110041
0.00108916
0.00107861
0.00106942
0.00106193
0.00105623
0.0010522
0.00104956
0.00104799
0.00104718
0.00104687
0.00100107
0.00100146
0.00100244
0.00100427
0.00100729
0.00101183
0.00101818
0.0010265
0.00103673
0.00104855
0.0010614
0.00107468
0.00108785
0.00110057
0.00111269
0.00112403
0.00113315
0.00113779
0.00113685
0.00113055
0.00112014
0.00110755
0.00109469
0.00108289
0.00107289
0.00106496
0.00105908
0.00105503
0.00105245
0.00105097
0.00105025
0.00104999
0.00100317
0.00100358
0.00100461
0.00100657
0.00100981
0.0010147
0.00102154
0.00103048
0.0010414
0.00105393
0.00106745
0.00108133
0.00109509
0.00110851
0.00112157
0.00113417
0.00114479
0.00115069
0.00115034
0.00114382
0.00113233
0.00111802
0.00110322
0.00108974
0.00107858
0.00107001
0.00106387
0.00105979
0.00105732
0.00105598
0.00105538
0.00105519
0.00100568
0.0010061
0.00100719
0.00100928
0.00101274
0.00101799
0.00102534
0.00103494
0.00104664
0.00105998
0.0010743
0.00108894
0.00110346
0.00111775
0.0011319
0.00114592
0.00115823
0.00116578
0.00116674
0.00116092
0.00114924
0.00113379
0.00111715
0.0011017
0.00108892
0.00107932
0.00107267
0.00106843
0.00106601
0.0010648
0.00106433
0.00106422
0.00100857
0.00100901
0.00101015
0.00101235
0.00101603
0.00102162
0.00102949
0.00103976
0.00105227
0.0010665
0.00108171
0.0010972
0.00111256
0.00112774
0.00114292
0.00115824
0.00117226
0.00118201
0.00118546
0.00118205
0.00117211
0.00115724
0.00113994
0.00112291
0.00110825
0.00109702
0.00108927
0.00108444
0.00108177
0.00108052
0.00108008
0.00108001
0.00101179
0.00101224
0.00101342
0.00101571
0.00101956
0.00102546
0.00103379
0.0010447
0.00105799
0.00107308
0.00108917
0.00110547
0.00112153
0.00113732
0.0011531
0.00116919
0.00118463
0.00119705
0.00120445
0.00120573
0.00120042
0.00118922
0.00117399
0.00115728
0.00114152
0.00112848
0.00111894
0.00111272
0.00110915
0.0011074
0.00110673
0.00110658
0.00101521
0.00101567
0.00101687
0.00101922
0.0010232
0.00102931
0.00103798
0.00104937
0.00106327
0.00107905
0.00109579
0.0011126
0.0011289
0.0011446
0.00116
0.00117573
0.00119172
0.00120677
0.00121912
0.00122709
0.00122932
0.00122544
0.00121626
0.00120352
0.00118942
0.00117608
0.00116505
0.00115702
0.00115187
0.00114901
0.00114769
0.00114727
0.00101865
0.00101911
0.00102032
0.00102267
0.00102666
0.00103282
0.0010416
0.00105317
0.00106733
0.00108338
0.00110029
0.00111698
0.00113269
0.00114715
0.00116067
0.00117424
0.00118906
0.00120567
0.00122268
0.00123787
0.00124904
0.00125487
0.00125507
0.00125031
0.001242
0.00123195
0.00122198
0.00121352
0.0012073
0.00120334
0.00120125
0.00120047
0.00102179
0.00102224
0.00102342
0.0010257
0.00102956
0.00103553
0.00104404
0.00105532
0.00106915
0.00108481
0.00110115
0.00111687
0.00113093
0.0011428
0.00115269
0.00116196
0.00117325
0.00118935
0.00120944
0.0012308
0.0012504
0.001266
0.00127644
0.00128155
0.0012819
0.00127866
0.00127333
0.00126746
0.00126229
0.0012585
0.00125625
0.0012553
0.00102413
0.00102456
0.00102568
0.0010278
0.00103135
0.0010368
0.0010446
0.00105495
0.00106769
0.00108212
0.00109703
0.00111095
0.0011225
0.00113081
0.00113588
0.00113921
0.0011448
0.00115796
0.00117899
0.00120491
0.00123185
0.00125646
0.00127656
0.00129119
0.00130037
0.00130481
0.00130565
0.00130424
0.00130192
0.00129968
0.00129809
0.00129734
0.00102493
0.00102535
0.00102638
0.00102829
0.00103142
0.00103616
0.00104289
0.00105184
0.00106288
0.00107542
0.00108831
0.00110005
0.00110905
0.0011141
0.00111486
0.00111262
0.00111204
0.00112035
0.0011396
0.00116761
0.0012003
0.00123321
0.00126266
0.00128647
0.00130387
0.0013152
0.00132149
0.00132411
0.00132449
0.00132385
0.00132306
0.00132259
0.00102408
0.00102448
0.00102544
0.00102716
0.0010299
0.00103396
0.00103965
0.00104716
0.00105644
0.00106701
0.00107787
0.00108765
0.00109475
0.00109785
0.00109633
0.00109116
0.00108688
0.00109108
0.00110687
0.00113367
0.00116854
0.00120704
0.00124435
0.00127674
0.00130215
0.00132014
0.00133147
0.00133757
0.0013401
0.00134063
0.00134035
0.00134003
0.0010221
0.00102249
0.00102339
0.00102496
0.0010274
0.00103092
0.00103575
0.00104206
0.0010498
0.00105861
0.00106768
0.00107584
0.00108167
0.00108388
0.00108181
0.0010762
0.00107128
0.00107397
0.00108737
0.0011119
0.00114597
0.00118621
0.00122789
0.00126644
0.00129853
0.00132264
0.00133888
0.00134846
0.00135313
0.00135476
0.00135491
0.00135469
0.00101953
0.00101989
0.00102073
0.00102216
0.00102435
0.00102744
0.0010316
0.00103693
0.0010434
0.00105071
0.00105823
0.00106503
0.00106994
0.00107193
0.00107043
0.00106619
0.001063
0.00106654
0.00107936
0.00110218
0.00113435
0.00117368
0.00121646
0.00125822
0.00129491
0.00132396
0.00134463
0.0013576
0.00136451
0.00136733
0.00136795
0.00136783
0.00101716
0.00101746
0.00101816
0.00101939
0.00102127
0.00102395
0.00102752
0.00103204
0.00103746
0.00104351
0.00104974
0.00105544
0.00105981
0.00106212
0.00106214
0.00106071
0.00106101
0.00106708
0.00108066
0.00110256
0.00113273
0.00116985
0.00121132
0.00125352
0.00129247
0.00132493
0.00134924
0.00136535
0.0013745
0.00137861
0.00137977
0.00137976
0.00101626
0.00101641
0.00101683
0.00101764
0.00101901
0.0010211
0.001024
0.00102775
0.00103226
0.00103733
0.00104262
0.00104771
0.00105216
0.00105564
0.00105821
0.00106082
0.00106578
0.00107527
0.00109021
0.00111148
0.0011395
0.00117377
0.00121254
0.00125305
0.00129202
0.00132616
0.00135309
0.00137192
0.00138323
0.00138871
0.00139048
0.00139061
0.00101857
0.00101848
0.00101837
0.00101844
0.00101892
0.00102007
0.00102206
0.00102496
0.0010287
0.00103316
0.00103816
0.00104352
0.00104911
0.00105488
0.00106105
0.00106853
0.0010785
0.00109142
0.00110762
0.00112809
0.00115364
0.00118443
0.00121955
0.00125702
0.00129421
0.00132828
0.00135662
0.00137755
0.00139085
0.00139772
0.00140018
0.00140048
0.00102607
0.00102558
0.0010247
0.00102367
0.00102288
0.00102274
0.0010236
0.00102567
0.00102898
0.00103351
0.0010392
0.00104602
0.00105397
0.00106304
0.00107341
0.00108572
0.0011001
0.00111567
0.0011325
0.00115171
0.00117439
0.0012012
0.00123192
0.00126533
0.00129947
0.00133197
0.00136037
0.00138256
0.00139752
0.00140574
0.00140894
0.00140945
0.00104045
0.00103944
0.0010376
0.00103533
0.00103319
0.00103181
0.00103174
0.00103339
0.00103696
0.00104249
0.00104994
0.00105925
0.00107028
0.00108291
0.0010971
0.00111322
0.00113057
0.0011475
0.00116402
0.00118144
0.00120096
0.00122351
0.00124937
0.001278
0.00130808
0.00133779
0.00136497
0.00138739
0.00140345
0.00141286
0.00141683
0.00141759
0.00106286
0.00106127
0.00105853
0.00105533
0.00105245
0.0010506
0.00105046
0.00105261
0.00105735
0.00106466
0.00107441
0.00108635
0.00110016
0.00111552
0.00113219
0.00115031
0.00116874
0.00118558
0.00120088
0.00121604
0.00123227
0.00125057
0.00127149
0.00129495
0.00132028
0.0013462
0.00137099
0.00139254
0.00140894
0.00141921
0.0014239
0.00142494
0.0010939
0.00109174
0.00108856
0.00108543
0.00108318
0.00108235
0.00108347
0.00108714
0.00109359
0.00110273
0.00111432
0.00112798
0.00114322
0.00115962
0.00117685
0.00119491
0.00121259
0.00122803
0.0012414
0.00125401
0.00126701
0.00128129
0.0012975
0.00131584
0.00133608
0.00135751
0.00137891
0.0013985
0.00141433
0.00142494
0.0014302
0.00143154
0.00113386
0.00113138
0.00112874
0.00112728
0.00112738
0.00112906
0.00113247
0.00113803
0.00114589
0.00115599
0.00116808
0.00118177
0.00119658
0.0012121
0.00122797
0.00124419
0.00125963
0.00127273
0.0012837
0.00129368
0.00130363
0.00131431
0.00132629
0.00133989
0.00135514
0.00137175
0.00138903
0.0014057
0.00142
0.00143027
0.00143581
0.00143742
0.00118331
0.00118109
0.00118048
0.00118222
0.00118571
0.00119032
0.0011959
0.00120267
0.00121081
0.0012204
0.00123132
0.0012433
0.00125597
0.00126898
0.00128206
0.00129517
0.00130742
0.00131764
0.00132601
0.00133342
0.0013406
0.00134814
0.00135649
0.00136596
0.00137668
0.00138859
0.00140142
0.00141443
0.00142629
0.00143543
0.0014408
0.00144258
0.00124357
0.00124273
0.00124548
0.00125059
0.00125662
0.00126285
0.0012691
0.00127558
0.00128254
0.0012902
0.0012986
0.00130759
0.00131695
0.00132645
0.00133589
0.00134525
0.00135389
0.00136102
0.00136677
0.00137178
0.00137653
0.00138142
0.00138676
0.00139279
0.00139963
0.00140734
0.00141583
0.00142481
0.0014335
0.0014407
0.00144533
0.00144706
0.00131719
0.00131897
0.00132419
0.00133002
0.00133572
0.00134101
0.00134585
0.00135042
0.00135499
0.00135979
0.00136489
0.00137028
0.00137585
0.00138146
0.001387
0.00139245
0.00139746
0.00140157
0.00140485
0.00140768
0.00141032
0.001413
0.0014159
0.00141915
0.00142283
0.00142698
0.00143163
0.00143668
0.0014418
0.00144635
0.00144956
0.00145093
0.00140724
0.00140864
0.00141132
0.00141388
0.0014162
0.00141827
0.00142008
0.00142172
0.00142329
0.00142489
0.00142658
0.00142834
0.00143015
0.00143197
0.00143377
0.00143553
0.00143714
0.00143846
0.00143951
0.00144041
0.00144125
0.00144209
0.00144299
0.00144399
0.00144513
0.00144641
0.00144784
0.00144941
0.00145105
0.00145257
0.00145373
0.00145429
)
;


// ************************************************************************* //
