/*--------------------------------*- C++ -*----------------------------------*\
| =========                 |                                                 |
| \\      /  F ield         | OpenFOAM: The Open Source CFD Toolbox           |
|  \\    /   O peration     | Version:  2212                                  |
|   \\  /    A nd           | Website:  www.openfoam.com                      |
|    \\/     M anipulation  |                                                 |
\*---------------------------------------------------------------------------*/
FoamFile
{
    version     2.0;
    format      ascii;
    arch        "LSB;label=64;scalar=64";
    class       volScalarField;
    location    "1790";
    object      p;
}
// * * * * * * * * * * * * * * * * * * * * * * * * * * * * * * * * * * * * * //

dimensions      [0 2 -2 0 0 0 0];

internalField   nonuniform List<scalar> 
1024
(
0
-4.09918e-07
-1.13565e-06
-1.85913e-06
-2.26189e-06
-2.1137e-06
-1.36919e-06
-1.71287e-07
1.25889e-06
2.81484e-06
4.67625e-06
7.44019e-06
1.21919e-05
2.0771e-05
3.61138e-05
6.15278e-05
9.45696e-05
0.000117961
0.00011448
8.44244e-05
3.64439e-05
-1.39336e-05
-5.25723e-05
-7.7221e-05
-9.16132e-05
-9.95798e-05
-0.000103633
-0.000105171
-0.000104971
-0.000103662
-0.000102005
-0.000100854
-0.0928115
-0.092812
-0.0928126
-0.0928132
-0.0928136
-0.0928135
-0.0928129
-0.0928119
-0.0928106
-0.0928092
-0.0928075
-0.0928048
-0.0928002
-0.0927919
-0.0927769
-0.0927521
-0.0927199
-0.0926976
-0.092702
-0.092732
-0.092779
-0.092828
-0.0928654
-0.092889
-0.0929026
-0.0929101
-0.0929138
-0.0929152
-0.0929152
-0.0929142
-0.0929128
-0.0929116
-0.199425
-0.199425
-0.199426
-0.199426
-0.199427
-0.199427
-0.199426
-0.199426
-0.199425
-0.199424
-0.199422
-0.19942
-0.199416
-0.199408
-0.199394
-0.19937
-0.199339
-0.199318
-0.199324
-0.199354
-0.1994
-0.199447
-0.199483
-0.199505
-0.199517
-0.199523
-0.199526
-0.199528
-0.199527
-0.199527
-0.199525
-0.199524
-0.321892
-0.321893
-0.321894
-0.321895
-0.321895
-0.321895
-0.321895
-0.321895
-0.321894
-0.321894
-0.321893
-0.321891
-0.321888
-0.321881
-0.321868
-0.321845
-0.321816
-0.321797
-0.321804
-0.321834
-0.321879
-0.321925
-0.321959
-0.321979
-0.321989
-0.321994
-0.321996
-0.321996
-0.321996
-0.321994
-0.321993
-0.321991
-0.462572
-0.462573
-0.462575
-0.462576
-0.462576
-0.462577
-0.462577
-0.462577
-0.462578
-0.462578
-0.462578
-0.462577
-0.462575
-0.46257
-0.462558
-0.462538
-0.462511
-0.462494
-0.462503
-0.462533
-0.462576
-0.462621
-0.462654
-0.462671
-0.462678
-0.46268
-0.46268
-0.462679
-0.462678
-0.462677
-0.462675
-0.462672
-0.624174
-0.624176
-0.624177
-0.624179
-0.62418
-0.62418
-0.624181
-0.624183
-0.624184
-0.624186
-0.624187
-0.624188
-0.624187
-0.624184
-0.624175
-0.624157
-0.624134
-0.624119
-0.624129
-0.624159
-0.624201
-0.624244
-0.624275
-0.62429
-0.624294
-0.624293
-0.624291
-0.624288
-0.624286
-0.624284
-0.624281
-0.624279
-0.809811
-0.809813
-0.809815
-0.809816
-0.809817
-0.809819
-0.809821
-0.809823
-0.809826
-0.809829
-0.809832
-0.809835
-0.809837
-0.809836
-0.809831
-0.809817
-0.809796
-0.809784
-0.809794
-0.809824
-0.809865
-0.809905
-0.809935
-0.809947
-0.809947
-0.809943
-0.809938
-0.809934
-0.80993
-0.809928
-0.809925
-0.809923
-1.02306
-1.02306
-1.02306
-1.02306
-1.02307
-1.02307
-1.02307
-1.02307
-1.02308
-1.02308
-1.02309
-1.0231
-1.0231
-1.0231
-1.0231
-1.02309
-1.02307
-1.02306
-1.02307
-1.0231
-1.02314
-1.02318
-1.0232
-1.02321
-1.02321
-1.0232
-1.0232
-1.02319
-1.02319
-1.02318
-1.02318
-1.02318
-1.26802
-1.26802
-1.26803
-1.26803
-1.26803
-1.26803
-1.26804
-1.26804
-1.26805
-1.26806
-1.26807
-1.26807
-1.26808
-1.26809
-1.26809
-1.26809
-1.26807
-1.26807
-1.26807
-1.26809
-1.26813
-1.26816
-1.26818
-1.26819
-1.26818
-1.26817
-1.26816
-1.26816
-1.26815
-1.26815
-1.26815
-1.26815
-1.54942
-1.54943
-1.54943
-1.54943
-1.54943
-1.54944
-1.54944
-1.54945
-1.54946
-1.54947
-1.54948
-1.54949
-1.5495
-1.54952
-1.54952
-1.54952
-1.54951
-1.54951
-1.54951
-1.54952
-1.54954
-1.54956
-1.54958
-1.54958
-1.54957
-1.54956
-1.54956
-1.54955
-1.54955
-1.54955
-1.54955
-1.54955
-1.87268
-1.87269
-1.87269
-1.87269
-1.87269
-1.8727
-1.8727
-1.87271
-1.87272
-1.87274
-1.87275
-1.87277
-1.87278
-1.8728
-1.87281
-1.87282
-1.87281
-1.8728
-1.8728
-1.8728
-1.87281
-1.87281
-1.87281
-1.87281
-1.8728
-1.87279
-1.87279
-1.87278
-1.87278
-1.87278
-1.87278
-1.87278
-2.24403
-2.24403
-2.24403
-2.24403
-2.24404
-2.24404
-2.24405
-2.24406
-2.24407
-2.24409
-2.2441
-2.24412
-2.24415
-2.24417
-2.24419
-2.2442
-2.2442
-2.24419
-2.24418
-2.24416
-2.24415
-2.24414
-2.24412
-2.2441
-2.24409
-2.24408
-2.24408
-2.24408
-2.24408
-2.24409
-2.24409
-2.24409
-2.67061
-2.67061
-2.67061
-2.67061
-2.67062
-2.67062
-2.67063
-2.67064
-2.67065
-2.67067
-2.67069
-2.67071
-2.67074
-2.67077
-2.67079
-2.67081
-2.67081
-2.67081
-2.67079
-2.67076
-2.67073
-2.6707
-2.67067
-2.67064
-2.67062
-2.67061
-2.67061
-2.67061
-2.67061
-2.67061
-2.67061
-2.67062
-3.16064
-3.16064
-3.16064
-3.16064
-3.16065
-3.16065
-3.16066
-3.16067
-3.16069
-3.1607
-3.16073
-3.16075
-3.16078
-3.16081
-3.16084
-3.16087
-3.16088
-3.16087
-3.16085
-3.16082
-3.16078
-3.16073
-3.16069
-3.16065
-3.16062
-3.1606
-3.1606
-3.1606
-3.1606
-3.1606
-3.1606
-3.16061
-3.72355
-3.72355
-3.72355
-3.72355
-3.72356
-3.72356
-3.72357
-3.72358
-3.7236
-3.72362
-3.72364
-3.72367
-3.7237
-3.72374
-3.72377
-3.7238
-3.72381
-3.72381
-3.72379
-3.72375
-3.72371
-3.72366
-3.72361
-3.72357
-3.72353
-3.72351
-3.7235
-3.72349
-3.7235
-3.7235
-3.7235
-3.72351
-4.37017
-4.37017
-4.37017
-4.37017
-4.37018
-4.37018
-4.37019
-4.3702
-4.37022
-4.37024
-4.37026
-4.37029
-4.37033
-4.37036
-4.3704
-4.37044
-4.37045
-4.37045
-4.37043
-4.3704
-4.37036
-4.37032
-4.37027
-4.37022
-4.37018
-4.37015
-4.37014
-4.37013
-4.37013
-4.37014
-4.37014
-4.37014
-5.06153
-5.06153
-5.06153
-5.06153
-5.06153
-5.06154
-5.06155
-5.06156
-5.06158
-5.0616
-5.06162
-5.06165
-5.06169
-5.06173
-5.06177
-5.06181
-5.06182
-5.06182
-5.06181
-5.06179
-5.06175
-5.06171
-5.06167
-5.06163
-5.06159
-5.06156
-5.06154
-5.06153
-5.06152
-5.06153
-5.06153
-5.06153
-5.70812
-5.70812
-5.70812
-5.70812
-5.70812
-5.70813
-5.70814
-5.70815
-5.70817
-5.70819
-5.70822
-5.70825
-5.70828
-5.70832
-5.70837
-5.70841
-5.70843
-5.70842
-5.70841
-5.70839
-5.70837
-5.70834
-5.7083
-5.70826
-5.70822
-5.70819
-5.70817
-5.70815
-5.70815
-5.70815
-5.70816
-5.70816
-6.27098
-6.27098
-6.27098
-6.27098
-6.27099
-6.27099
-6.271
-6.27102
-6.27103
-6.27106
-6.27109
-6.27112
-6.27116
-6.2712
-6.27124
-6.27128
-6.27131
-6.2713
-6.27129
-6.27127
-6.27125
-6.27122
-6.27119
-6.27116
-6.27112
-6.27109
-6.27106
-6.27105
-6.27104
-6.27104
-6.27105
-6.27106
-6.76097
-6.76097
-6.76097
-6.76097
-6.76097
-6.76098
-6.76099
-6.761
-6.76102
-6.76104
-6.76107
-6.76111
-6.76115
-6.7612
-6.76124
-6.76129
-6.76131
-6.76131
-6.76129
-6.76127
-6.76125
-6.76122
-6.76119
-6.76116
-6.76113
-6.76109
-6.76106
-6.76104
-6.76104
-6.76104
-6.76104
-6.76105
-7.18752
-7.18752
-7.18752
-7.18752
-7.18752
-7.18752
-7.18753
-7.18754
-7.18756
-7.18758
-7.18762
-7.18765
-7.1877
-7.18775
-7.1878
-7.18785
-7.18788
-7.18788
-7.18786
-7.18783
-7.1878
-7.18777
-7.18774
-7.18771
-7.18767
-7.18763
-7.1876
-7.18757
-7.18756
-7.18755
-7.18756
-7.18757
-7.55885
-7.55885
-7.55885
-7.55884
-7.55884
-7.55885
-7.55885
-7.55886
-7.55887
-7.5589
-7.55893
-7.55897
-7.55902
-7.55908
-7.55914
-7.55919
-7.55922
-7.55922
-7.5592
-7.55917
-7.55914
-7.5591
-7.55906
-7.55902
-7.55897
-7.55893
-7.55888
-7.55884
-7.55881
-7.55881
-7.55881
-7.55882
-7.8821
-7.8821
-7.8821
-7.8821
-7.8821
-7.8821
-7.88209
-7.8821
-7.88211
-7.88213
-7.88217
-7.88221
-7.88227
-7.88234
-7.8824
-7.88246
-7.88249
-7.88249
-7.88247
-7.88244
-7.8824
-7.88235
-7.8823
-7.88224
-7.88218
-7.88212
-7.88205
-7.88199
-7.88195
-7.88193
-7.88194
-7.88195
-8.16352
-8.16352
-8.16351
-8.16351
-8.16351
-8.1635
-8.16349
-8.16349
-8.16349
-8.16351
-8.16355
-8.16361
-8.16367
-8.16374
-8.16382
-8.16388
-8.16392
-8.16392
-8.1639
-8.16386
-8.16382
-8.16376
-8.16369
-8.16361
-8.16353
-8.16343
-8.16334
-8.16325
-8.16318
-8.16315
-8.16314
-8.16315
-8.4085
-8.4085
-8.4085
-8.4085
-8.40849
-8.40847
-8.40846
-8.40845
-8.40845
-8.40847
-8.40851
-8.40857
-8.40864
-8.40872
-8.4088
-8.40887
-8.40891
-8.40891
-8.40889
-8.40886
-8.4088
-8.40873
-8.40865
-8.40855
-8.40843
-8.40829
-8.40816
-8.40803
-8.40792
-8.40786
-8.40784
-8.40784
-8.62178
-8.62178
-8.62178
-8.62177
-8.62175
-8.62173
-8.62171
-8.62169
-8.62168
-8.6217
-8.62175
-8.62182
-8.6219
-8.62199
-8.62207
-8.62214
-8.62219
-8.62219
-8.62217
-8.62213
-8.62207
-8.622
-8.62189
-8.62176
-8.62161
-8.62142
-8.62123
-8.62104
-8.62088
-8.62076
-8.62071
-8.62071
-8.80745
-8.80746
-8.80746
-8.80744
-8.80741
-8.80738
-8.80735
-8.80732
-8.80732
-8.80734
-8.80739
-8.80746
-8.80755
-8.80764
-8.80773
-8.80781
-8.80785
-8.80786
-8.80784
-8.8078
-8.80774
-8.80765
-8.80753
-8.80737
-8.80717
-8.80694
-8.80667
-8.80641
-8.80617
-8.80597
-8.80587
-8.80583
-8.96912
-8.96912
-8.96911
-8.96909
-8.96904
-8.969
-8.96895
-8.96892
-8.96892
-8.96894
-8.969
-8.96908
-8.96917
-8.96927
-8.96936
-8.96944
-8.96949
-8.9695
-8.96948
-8.96943
-8.96937
-8.96927
-8.96914
-8.96895
-8.96872
-8.96842
-8.96809
-8.96773
-8.96738
-8.96708
-8.96687
-8.96677
-9.10992
-9.10991
-9.10987
-9.10982
-9.10975
-9.10969
-9.10964
-9.10961
-9.1096
-9.10963
-9.10969
-9.10977
-9.10987
-9.10997
-9.11006
-9.11015
-9.11019
-9.11021
-9.11019
-9.11014
-9.11007
-9.10997
-9.10982
-9.10962
-9.10935
-9.10901
-9.10861
-9.10815
-9.10767
-9.10721
-9.10685
-9.10662
-9.2326
-9.23253
-9.23243
-9.23233
-9.23224
-9.23217
-9.23211
-9.23207
-9.23207
-9.2321
-9.23216
-9.23225
-9.23235
-9.23245
-9.23255
-9.23264
-9.23269
-9.2327
-9.23268
-9.23264
-9.23256
-9.23246
-9.2323
-9.23208
-9.23179
-9.23142
-9.23096
-9.23042
-9.2298
-9.22913
-9.22849
-9.22794
-9.33973
-9.33934
-9.3391
-9.33896
-9.33885
-9.33877
-9.33871
-9.33868
-9.33868
-9.33872
-9.33879
-9.33887
-9.33898
-9.33909
-9.33919
-9.33927
-9.33932
-9.33934
-9.33932
-9.33927
-9.3392
-9.33909
-9.33893
-9.33871
-9.33841
-9.33802
-9.33753
-9.33693
-9.33619
-9.33528
-9.33418
-9.33292
-9.43359
-9.43235
-9.43189
-9.43174
-9.43164
-9.43157
-9.43152
-9.43149
-9.4315
-9.43154
-9.4316
-9.4317
-9.4318
-9.43191
-9.43202
-9.4321
-9.43216
-9.43217
-9.43215
-9.43211
-9.43203
-9.43192
-9.43177
-9.43154
-9.43124
-9.43085
-9.43035
-9.42972
-9.42891
-9.42781
-9.42621
-9.42394
)
;

boundaryField
{
    movingWall
    {
        type            calculated;
        value           nonuniform List<scalar> 
32
(
-9.47679
-9.47556
-9.47509
-9.47494
-9.47485
-9.47477
-9.47472
-9.47469
-9.4747
-9.47474
-9.47481
-9.4749
-9.47501
-9.47512
-9.47522
-9.47531
-9.47536
-9.47538
-9.47536
-9.47531
-9.47524
-9.47513
-9.47497
-9.47475
-9.47445
-9.47405
-9.47356
-9.47293
-9.47212
-9.47102
-9.46941
-9.46715
)
;
    }
    fixedWalls
    {
        type            calculated;
        value           nonuniform List<scalar> 
64
(
0
-0.0928115
-0.199425
-0.321892
-0.462572
-0.624174
-0.809811
-1.02306
-1.26802
-1.54942
-1.87268
-2.24403
-2.67061
-3.16064
-3.72355
-4.37017
-5.06153
-5.70812
-6.27098
-6.76097
-7.18752
-7.55885
-7.8821
-8.16352
-8.4085
-8.62178
-8.80745
-8.96912
-9.10992
-9.2326
-9.33973
-9.43359
-0.000100854
-0.0929116
-0.199524
-0.321991
-0.462672
-0.624279
-0.809923
-1.02318
-1.26815
-1.54955
-1.87278
-2.24409
-2.67062
-3.16061
-3.72351
-4.37014
-5.06153
-5.70816
-6.27106
-6.76105
-7.18757
-7.55882
-7.88195
-8.16315
-8.40784
-8.62071
-8.80583
-8.96677
-9.10662
-9.22794
-9.33292
-9.42394
)
;
    }
    floor
    {
        type            calculated;
        value           nonuniform List<scalar> 
32
(
0.0431943
0.0431939
0.0431932
0.0431925
0.0431921
0.0431922
0.043193
0.0431942
0.0431957
0.0431972
0.0431991
0.0432019
0.0432067
0.0432153
0.0432307
0.0432562
0.0432893
0.0433127
0.0433093
0.0432792
0.0432312
0.0431807
0.043142
0.0431173
0.0431029
0.0430948
0.0430907
0.0430892
0.0430894
0.0430906
0.0430923
0.0430934
)
;
    }
    frontAndBack
    {
        type            empty;
    }
}


// ************************************************************************* //
