/*--------------------------------*- C++ -*----------------------------------*\
| =========                 |                                                 |
| \\      /  F ield         | OpenFOAM: The Open Source CFD Toolbox           |
|  \\    /   O peration     | Version:  2212                                  |
|   \\  /    A nd           | Website:  www.openfoam.com                      |
|    \\/     M anipulation  |                                                 |
\*---------------------------------------------------------------------------*/
FoamFile
{
    version     2.0;
    format      ascii;
    arch        "LSB;label=64;scalar=64";
    class       volScalarField;
    location    "50";
    object      p_rgh;
}
// * * * * * * * * * * * * * * * * * * * * * * * * * * * * * * * * * * * * * //

dimensions      [0 2 -2 0 0 0 0];

internalField   nonuniform List<scalar> 
1024
(
0.0432124
0.043212
0.0431924
0.0431522
0.0431123
0.0431029
0.0431442
0.0432406
0.0433824
0.0435421
0.0436708
0.0437169
0.0436272
0.0433325
0.0426693
0.0418732
0.0414311
0.0416802
0.0424717
0.0434846
0.0440113
0.0441077
0.0440343
0.0438966
0.0437564
0.043631
0.0435265
0.043444
0.0433849
0.0433513
0.0433445
0.0433547
0.0432856
0.0432845
0.0432605
0.0432137
0.0431681
0.0431554
0.0431971
0.0432975
0.0434457
0.043613
0.0437483
0.0437981
0.0437089
0.0434109
0.0427354
0.041921
0.0414823
0.0417553
0.0425652
0.0435991
0.0441332
0.0442307
0.0441529
0.0440085
0.0438613
0.0437288
0.0436175
0.0435281
0.0434617
0.0434203
0.0434071
0.0434155
0.0434547
0.0434467
0.0434039
0.0433297
0.0432539
0.043233
0.0432904
0.0434175
0.0435934
0.0437837
0.0439319
0.0439865
0.0438979
0.0435933
0.0428898
0.0420097
0.0415592
0.041887
0.0427503
0.0438157
0.0443594
0.0444685
0.0443935
0.0442447
0.0440898
0.0439448
0.0438149
0.0437011
0.043605
0.0435325
0.0434954
0.0434955
0.0436986
0.0436695
0.043585
0.0434533
0.0433367
0.0433196
0.0434203
0.0436075
0.0438374
0.0440618
0.044219
0.0442709
0.0441775
0.0438629
0.0431299
0.0421282
0.0416283
0.0420276
0.0429638
0.04403
0.0445814
0.0447244
0.0446772
0.0445466
0.044401
0.0442527
0.0440996
0.0439419
0.0437862
0.0436498
0.0435636
0.0435447
0.0439565
0.0438877
0.0437397
0.0435421
0.0434045
0.0434185
0.0435923
0.0438675
0.044167
0.0444193
0.044569
0.0446038
0.0444964
0.0441664
0.0434251
0.0422762
0.0416514
0.0421104
0.0431023
0.0441473
0.0447129
0.0449005
0.0448993
0.0448145
0.0447048
0.0445754
0.0444099
0.0441999
0.0439594
0.0437274
0.0435673
0.0435198
0.0441595
0.044043
0.0438275
0.0435968
0.0434727
0.0435455
0.0438133
0.0441869
0.0445492
0.0448058
0.0449277
0.0449333
0.0448071
0.0444628
0.043727
0.0425162
0.0416081
0.0420965
0.0431294
0.0441754
0.0447489
0.0449683
0.045012
0.0449825
0.0449253
0.0448363
0.0446755
0.0444184
0.0440811
0.0437323
0.0434829
0.043403
0.044246
0.0440978
0.0438553
0.0436298
0.0435516
0.043708
0.0440799
0.0445427
0.044941
0.0451741
0.0452556
0.0452307
0.0450926
0.0447526
0.0440387
0.042972
0.0415303
0.0420036
0.0431306
0.0441761
0.0447355
0.0449599
0.0450289
0.0450434
0.0450362
0.044993
0.0448502
0.044559
0.0441262
0.0436542
0.043314
0.0432043
0.0441728
0.0440241
0.0437932
0.0436119
0.0436183
0.0438865
0.0443673
0.0448981
0.0453002
0.0454921
0.0455337
0.045488
0.0453577
0.0450659
0.0444835
0.0436462
0.04158
0.0419291
0.0432248
0.0442324
0.0447333
0.0449162
0.0449806
0.045018
0.0450463
0.0450375
0.0449164
0.0446018
0.0440828
0.0434956
0.0430756
0.0429433
0.0438957
0.0437633
0.0435772
0.0434839
0.0436204
0.0440324
0.0446267
0.0452042
0.0455872
0.0457355
0.0457462
0.045696
0.0455997
0.0454062
0.0450239
0.0443508
0.0420797
0.0421343
0.0435771
0.0444648
0.0447826
0.0448494
0.0448713
0.0449116
0.0449603
0.0449728
0.0448643
0.0445281
0.0439354
0.0432525
0.0427739
0.0426285
0.0433902
0.0432828
0.0431639
0.0431928
0.0434975
0.0440804
0.0447913
0.0454018
0.0457587
0.0458755
0.0458644
0.0458255
0.0457874
0.0457316
0.0455946
0.0452095
0.0435982
0.0430687
0.0445093
0.044915
0.0448591
0.0447165
0.0446581
0.0446884
0.0447452
0.0447703
0.0446655
0.0443054
0.0436524
0.0429035
0.0423966
0.042249
0.0426768
0.0425924
0.0425408
0.0426975
0.0431841
0.0439511
0.0447811
0.0454205
0.0457549
0.0458507
0.0458386
0.045822
0.0458557
0.0459549
0.0461081
0.0463058
0.0463315
0.0455397
0.045809
0.0453755
0.044813
0.0443978
0.0442462
0.0442566
0.0443332
0.0443839
0.0442853
0.0438983
0.0431974
0.042424
0.04193
0.0417926
0.0418163
0.0417376
0.0417163
0.0419524
0.0425866
0.0435317
0.0444928
0.0451805
0.0455131
0.0456028
0.0456036
0.0456213
0.0457269
0.045958
0.0462991
0.0467315
0.0471365
0.046882
0.0463141
0.0453945
0.0444465
0.043768
0.0435364
0.0435608
0.0437144
0.0438272
0.0437351
0.0433022
0.0425613
0.0418546
0.0414333
0.0413117
0.0409646
0.040853
0.0407805
0.0409548
0.0415886
0.042634
0.0437473
0.0445544
0.0449416
0.0450572
0.0450923
0.0451721
0.0453678
0.0457483
0.0462476
0.0467351
0.0470709
0.0469177
0.0462003
0.0451006
0.0438904
0.0429506
0.0426086
0.0428029
0.0430972
0.0432212
0.0430639
0.0426035
0.0419567
0.0413752
0.0410324
0.0409197
0.0405167
0.0403102
0.0400946
0.0400689
0.0404194
0.0411951
0.0422355
0.0432749
0.0438579
0.0440551
0.0441579
0.0443631
0.0447119
0.0453236
0.0460684
0.0466488
0.0469379
0.0467753
0.0460599
0.0449127
0.0435836
0.0425218
0.0421328
0.0423265
0.0425735
0.0426421
0.042461
0.0420583
0.0415513
0.0411092
0.0408379
0.0407296
0.0412054
0.0408242
0.0403334
0.0399663
0.0398844
0.0401609
0.040737
0.0414583
0.0420818
0.0424656
0.0426229
0.0428773
0.0436846
0.0446595
0.0458354
0.0466294
0.0469579
0.0468532
0.0462828
0.0453079
0.0441141
0.0430042
0.0422942
0.042153
0.0422403
0.042248
0.0420954
0.0418105
0.0414856
0.0412288
0.0410937
0.0410533
0.0436173
0.0431142
0.0423283
0.0415206
0.0408774
0.0405022
0.0404164
0.0405712
0.0408438
0.0410825
0.0411515
0.0411138
0.0416745
0.0438165
0.0456112
0.0467583
0.0472054
0.047264
0.0470268
0.0465434
0.0458802
0.0451088
0.0443049
0.0435664
0.0430954
0.0429382
0.04284
0.0427787
0.0428169
0.0429992
0.0432625
0.0434491
0.046304
0.0460251
0.0454044
0.0444672
0.0433967
0.0423679
0.0415264
0.0409617
0.040682
0.0405991
0.0405496
0.040448
0.0407167
0.0423884
0.0453612
0.0469839
0.0475695
0.0477625
0.0478371
0.0478712
0.0479032
0.0479398
0.0479604
0.0479221
0.0477659
0.0474265
0.0471563
0.0470423
0.0471219
0.0473474
0.0475772
0.047695
0.0470909
0.0470184
0.0468032
0.0463182
0.0453709
0.0440629
0.0426873
0.0415143
0.0407189
0.0403112
0.040144
0.0401139
0.0406479
0.0424779
0.0451107
0.0470875
0.0478665
0.0480557
0.048146
0.0482304
0.0483361
0.0484676
0.0486169
0.0487682
0.0489034
0.0490021
0.0490586
0.0490767
0.049071
0.0490566
0.0490427
0.0490335
0.0473101
0.0472364
0.0470246
0.0465918
0.0458334
0.0446206
0.0431009
0.04165
0.0405777
0.039991
0.0397961
0.0399578
0.0409336
0.0431082
0.0455689
0.0473106
0.0480522
0.0482534
0.0483112
0.0483596
0.0484268
0.0485144
0.0486195
0.0487342
0.0488462
0.0489402
0.0490083
0.0490469
0.049061
0.0490595
0.0490506
0.0490418
0.0477096
0.0476255
0.0473902
0.0469132
0.046099
0.0448698
0.0432639
0.0416616
0.0404696
0.039834
0.039715
0.0401782
0.0416477
0.044068
0.0462982
0.0476816
0.0482406
0.0483917
0.0484293
0.0484547
0.0484899
0.0485396
0.0486042
0.0486808
0.0487646
0.0488451
0.0489119
0.0489569
0.0489788
0.0489826
0.0489756
0.0489664
0.0482476
0.0481592
0.0479164
0.0474312
0.0466078
0.0453889
0.0438262
0.0420847
0.0406759
0.0400342
0.0400756
0.0409133
0.0427902
0.0452106
0.0470744
0.0480661
0.0484188
0.0485029
0.0485196
0.0485314
0.0485534
0.0485865
0.0486265
0.0486771
0.0487393
0.0488075
0.0488713
0.0489196
0.0489468
0.0489544
0.0489483
0.048938
0.0487988
0.04872
0.0485091
0.0480914
0.0473667
0.0462606
0.0447613
0.0430263
0.0414195
0.0407084
0.0409677
0.0421669
0.0442294
0.0463795
0.0477736
0.04839
0.0485626
0.0485883
0.0485874
0.0485925
0.0486101
0.0486371
0.0486709
0.0487104
0.0487589
0.0488211
0.0488867
0.0489416
0.0489762
0.0489886
0.0489837
0.0489721
0.0492595
0.0491989
0.0490413
0.0487254
0.0481671
0.0472812
0.0459683
0.0443408
0.0427023
0.0418903
0.0423758
0.0437972
0.045748
0.0474203
0.048325
0.0486267
0.0486665
0.04865
0.0486367
0.0486371
0.0486535
0.0486818
0.0487186
0.0487605
0.0488107
0.048874
0.048949
0.0490191
0.0490684
0.0490903
0.0490884
0.0490755
0.0495934
0.0495489
0.0494406
0.0492222
0.0488361
0.0481861
0.0471799
0.0458312
0.0443369
0.0435115
0.0441429
0.045549
0.0471243
0.048236
0.0487125
0.048783
0.0487362
0.0486928
0.0486711
0.0486688
0.0486854
0.048717
0.0487619
0.0488171
0.0488832
0.0489629
0.0490548
0.0491503
0.049226
0.0492665
0.049272
0.0492601
0.0498161
0.0497827
0.0497089
0.049568
0.0493163
0.048885
0.0482083
0.0472419
0.0460622
0.0453437
0.0459896
0.047146
0.0482112
0.0488066
0.0489549
0.0488797
0.0487809
0.0487213
0.0486945
0.0486908
0.0487088
0.0487451
0.0488006
0.0488745
0.0489691
0.0490831
0.0492098
0.0493404
0.0494553
0.0495286
0.04955
0.0495439
0.0499519
0.0499255
0.0498731
0.0497811
0.0496255
0.0493732
0.0489797
0.0483927
0.0476064
0.0470897
0.0476224
0.048401
0.0489712
0.0491702
0.0491007
0.0489376
0.0488091
0.04874
0.0487101
0.0487059
0.0487262
0.0487684
0.0488367
0.0489334
0.0490636
0.0492255
0.0494082
0.0495926
0.0497614
0.0498873
0.0499405
0.0499494
0.0500167
0.0499937
0.0499553
0.0498991
0.0498169
0.0496961
0.0495132
0.0492284
0.0487996
0.0485082
0.0488619
0.0492664
0.0494518
0.0493867
0.0491858
0.0489723
0.0488268
0.0487519
0.04872
0.0487163
0.0487397
0.0487887
0.048871
0.0489931
0.0491625
0.0493796
0.0496319
0.0498955
0.0501403
0.0503458
0.0504564
0.0504962
0.0500079
0.0499898
0.0499667
0.0499465
0.0499259
0.0499013
0.049862
0.0497822
0.0496133
0.0495067
0.0496847
0.0498019
0.0497335
0.049511
0.0492357
0.0489939
0.0488383
0.0487595
0.0487265
0.0487235
0.0487501
0.0488062
0.0489025
0.0490493
0.0492577
0.0495309
0.0498591
0.0502184
0.0505739
0.0508835
0.0510941
0.0511943
0.049922
0.0499208
0.0499282
0.0499508
0.0499826
0.0500254
0.0500781
0.0501221
0.0501142
0.0501244
0.0501738
0.0501085
0.0498922
0.0495826
0.0492664
0.0490081
0.0488461
0.0487646
0.0487308
0.0487286
0.048758
0.0488204
0.0489289
0.0490969
0.0493384
0.0496609
0.0500606
0.0505209
0.0510108
0.0514797
0.0518428
0.0520726
0.0497186
0.0497818
0.0498615
0.0499415
0.0500182
0.0501025
0.0502057
0.0503157
0.050405
0.0504647
0.0504416
0.0502771
0.0499819
0.0496255
0.0492862
0.0490177
0.0488514
0.0487679
0.0487336
0.0487321
0.0487634
0.0488306
0.0489477
0.0491306
0.0493951
0.0497529
0.0502078
0.0507568
0.0513886
0.0520693
0.0527076
0.0532594
0.0492146
0.0495986
0.0498253
0.0499595
0.0500601
0.0501632
0.0502869
0.0504255
0.0505556
0.0506333
0.0505803
0.0503683
0.0500336
0.0496521
0.0492993
0.0490241
0.0488547
0.0487698
0.0487352
0.0487341
0.0487663
0.0488358
0.0489574
0.0491475
0.0494234
0.0497989
0.0502843
0.0508913
0.0516388
0.052556
0.0536682
0.0549268
0.0481937
0.0494239
0.0498753
0.0500121
0.0501107
0.050215
0.0503394
0.0504821
0.0506217
0.0507049
0.0506427
0.0504128
0.0500607
0.0496667
0.0493067
0.0490275
0.0488563
0.0487707
0.0487359
0.0487349
0.048767
0.0488373
0.0489597
0.0491513
0.0494293
0.0498085
0.0503033
0.0509364
0.0517557
0.0528637
0.054475
0.0567375
)
;

boundaryField
{
    movingWall
    {
        type            fixedFluxPressure;
        gradient        uniform 0;
        value           nonuniform List<scalar> 
32
(
0.0481937
0.0494239
0.0498753
0.0500121
0.0501107
0.050215
0.0503394
0.0504821
0.0506217
0.0507049
0.0506427
0.0504128
0.0500607
0.0496667
0.0493067
0.0490275
0.0488563
0.0487707
0.0487359
0.0487349
0.048767
0.0488373
0.0489597
0.0491513
0.0494293
0.0498085
0.0503033
0.0509364
0.0517557
0.0528637
0.054475
0.0567375
)
;
    }
    fixedWalls
    {
        type            fixedFluxPressure;
        gradient        uniform 0;
        value           nonuniform List<scalar> 
64
(
0.0432124
0.0432856
0.0434547
0.0436986
0.0439565
0.0441595
0.044246
0.0441728
0.0438957
0.0433902
0.0426768
0.0418163
0.0409646
0.0405167
0.0412054
0.0436173
0.046304
0.0470909
0.0473101
0.0477096
0.0482476
0.0487988
0.0492595
0.0495934
0.0498161
0.0499519
0.0500167
0.0500079
0.049922
0.0497186
0.0492146
0.0481937
0.0433547
0.0434155
0.0434955
0.0435447
0.0435198
0.043403
0.0432043
0.0429433
0.0426285
0.042249
0.0417926
0.0413117
0.0409197
0.0407296
0.0410533
0.0434491
0.047695
0.0490335
0.0490418
0.0489664
0.048938
0.0489721
0.0490755
0.0492601
0.0495439
0.0499494
0.0504962
0.0511943
0.0520726
0.0532594
0.0549268
0.0567375
)
;
    }
    floor
    {
        type            fixedFluxPressure;
        gradient        uniform 0;
        value           nonuniform List<scalar> 
32
(
0.0432124
0.043212
0.0431924
0.0431522
0.0431123
0.0431029
0.0431442
0.0432406
0.0433824
0.0435421
0.0436708
0.0437169
0.0436272
0.0433325
0.0426693
0.0418732
0.0414311
0.0416802
0.0424717
0.0434846
0.0440113
0.0441077
0.0440343
0.0438966
0.0437564
0.043631
0.0435265
0.043444
0.0433849
0.0433513
0.0433445
0.0433547
)
;
    }
    frontAndBack
    {
        type            empty;
    }
}


// ************************************************************************* //
