/*--------------------------------*- C++ -*----------------------------------*\
| =========                 |                                                 |
| \\      /  F ield         | OpenFOAM: The Open Source CFD Toolbox           |
|  \\    /   O peration     | Version:  2212                                  |
|   \\  /    A nd           | Website:  www.openfoam.com                      |
|    \\/     M anipulation  |                                                 |
\*---------------------------------------------------------------------------*/
FoamFile
{
    version     2.0;
    format      ascii;
    arch        "LSB;label=64;scalar=64";
    class       surfaceScalarField;
    location    "50";
    object      phi;
}
// * * * * * * * * * * * * * * * * * * * * * * * * * * * * * * * * * * * * * //

dimensions      [0 3 -1 0 0 0 0];

oriented        oriented;

internalField   nonuniform List<scalar> 
1984
(
2.4643e-08
-2.46421e-08
8.42135e-08
-5.95702e-08
1.32186e-07
-4.79728e-08
1.08098e-07
2.40879e-08
-2.8792e-08
1.3689e-07
-2.46079e-07
2.17287e-07
-4.52576e-07
2.06496e-07
-5.83277e-07
1.30699e-07
-6.13038e-07
2.97595e-08
-5.39483e-07
-7.35546e-08
-3.76151e-07
-1.63332e-07
-1.41854e-07
-2.34297e-07
1.69517e-07
-3.11372e-07
5.40516e-07
-3.70999e-07
6.9445e-07
-1.53934e-07
2.98365e-07
3.96086e-07
-5.58091e-07
8.56456e-07
-1.17144e-06
6.13354e-07
-1.29135e-06
1.1991e-07
-8.29823e-07
-4.61531e-07
-2.27729e-07
-6.02094e-07
1.79994e-07
-4.07722e-07
3.99375e-07
-2.19381e-07
5.03466e-07
-1.0409e-07
5.448e-07
-4.13353e-08
5.43695e-07
1.10548e-09
5.06031e-07
3.76642e-08
4.27656e-07
7.83762e-08
3.09103e-07
1.18553e-07
1.66371e-07
1.42733e-07
4.4847e-08
1.21525e-07
4.48473e-08
5.77872e-08
-8.24288e-08
1.72614e-07
-1.74398e-07
2.45574e-07
-1.20932e-07
1.4095e-07
1.28712e-07
-2.43751e-07
5.21591e-07
-8.09595e-07
7.83129e-07
-1.33616e-06
7.33061e-07
-1.66728e-06
4.61823e-07
-1.74203e-06
1.04499e-07
-1.56299e-06
-2.52595e-07
-1.16705e-06
-5.59264e-07
-5.94815e-07
-8.06536e-07
1.87463e-07
-1.09365e-06
1.12768e-06
-1.31121e-06
1.62436e-06
-6.50613e-07
6.19194e-07
1.40125e-06
-1.64643e-06
3.12208e-06
-3.059e-06
2.02592e-06
-3.06159e-06
1.225e-07
-1.88033e-06
-1.64279e-06
-4.79332e-07
-2.00309e-06
4.96535e-07
-1.38359e-06
1.04392e-06
-7.66761e-07
1.33346e-06
-3.93632e-07
1.4683e-06
-1.76178e-07
1.48818e-06
-1.87776e-08
1.39999e-06
1.25854e-07
1.19815e-06
2.80221e-07
8.88104e-07
4.28594e-07
5.11213e-07
5.19625e-07
1.66378e-07
4.6636e-07
2.11226e-07
6.64773e-08
-1.48907e-07
1.69024e-07
-2.76944e-07
1.67004e-07
-1.18911e-07
-1.30833e-07
4.26549e-07
-7.71554e-07
1.16231e-06
-1.57027e-06
1.58185e-06
-2.28387e-06
1.44666e-06
-2.72355e-06
9.01499e-07
-2.80448e-06
1.85425e-07
-2.53682e-06
-5.20254e-07
-1.98813e-06
-1.10796e-06
-1.20728e-06
-1.58738e-06
-1.47253e-07
-2.15367e-06
1.17915e-06
-2.63762e-06
2.08299e-06
-1.55445e-06
7.14551e-07
2.76969e-06
-2.58796e-06
6.4246e-06
-4.39257e-06
3.83052e-06
-3.98116e-06
-2.88904e-07
-2.18285e-06
-3.4411e-06
-3.81741e-07
-3.8042e-06
8.4843e-07
-2.61376e-06
1.57091e-06
-1.48924e-06
1.98836e-06
-8.11088e-07
2.20449e-06
-3.92299e-07
2.25582e-06
-7.01125e-08
2.13846e-06
2.43213e-07
1.84342e-06
5.7526e-07
1.38235e-06
8.89666e-07
8.15682e-07
1.08629e-06
2.79501e-07
1.00254e-06
4.90727e-07
3.83747e-08
-1.87281e-07
3.2259e-08
-2.70829e-07
-2.05068e-07
1.18416e-07
-7.88873e-07
1.01036e-06
-1.61241e-06
1.98585e-06
-2.49487e-06
2.46431e-06
-3.24493e-06
2.19672e-06
-3.68739e-06
1.34396e-06
-3.73474e-06
2.32777e-07
-3.41312e-06
-8.4188e-07
-2.81035e-06
-1.71073e-06
-1.95887e-06
-2.43885e-06
-8.28677e-07
-3.28387e-06
6.21159e-07
-4.08745e-06
1.96586e-06
-2.89915e-06
6.84921e-07
4.05062e-06
-3.12793e-06
1.02375e-05
-4.94025e-06
5.64284e-06
-3.9521e-06
-1.27705e-06
-1.71746e-06
-5.67574e-06
1.04346e-07
-5.62601e-06
1.31272e-06
-3.82214e-06
2.046e-06
-2.22252e-06
2.48242e-06
-1.2475e-06
2.71037e-06
-6.2025e-07
2.76152e-06
-1.21267e-07
2.61676e-06
3.87977e-07
2.25445e-06
9.37569e-07
1.6865e-06
1.45762e-06
9.90009e-07
1.78278e-06
3.36607e-07
1.65594e-06
8.27333e-07
-5.33384e-08
-1.33943e-07
-3.19617e-07
-4.55199e-09
-9.07124e-07
7.05924e-07
-1.73588e-06
1.83911e-06
-2.63593e-06
2.8859e-06
-3.48736e-06
3.31574e-06
-4.16472e-06
2.87409e-06
-4.53751e-06
1.71675e-06
-4.54603e-06
2.41289e-07
-4.23928e-06
-1.14863e-06
-3.69275e-06
-2.25725e-06
-2.89868e-06
-3.23292e-06
-1.82443e-06
-4.35812e-06
-4.57507e-07
-5.45438e-06
1.21093e-06
-4.56759e-06
6.37864e-07
4.62369e-06
-3.10889e-06
1.39842e-05
-4.64959e-06
7.18355e-06
-3.04246e-06
-2.88418e-06
-6.45897e-07
-8.0723e-06
9.49743e-07
-7.22165e-06
1.96912e-06
-4.84151e-06
2.60699e-06
-2.8604e-06
2.94781e-06
-1.58832e-06
3.08414e-06
-7.56578e-07
3.05703e-06
-9.41632e-08
2.84623e-06
5.9878e-07
2.41755e-06
1.36625e-06
1.77573e-06
2.09944e-06
1.01161e-06
2.5469e-06
3.26906e-07
2.34065e-06
1.15424e-06
-2.34039e-07
1.00096e-07
-8.56115e-07
6.17523e-07
-1.75829e-06
1.6081e-06
-2.73865e-06
2.81947e-06
-3.65749e-06
3.80474e-06
-4.43576e-06
4.09401e-06
-5.00525e-06
3.44358e-06
-5.30167e-06
2.01317e-06
-5.31923e-06
2.58853e-07
-5.12133e-06
-1.34653e-06
-4.73386e-06
-2.64472e-06
-4.09731e-06
-3.86947e-06
-3.1612e-06
-5.29423e-06
-1.9198e-06
-6.69579e-06
-6.17028e-08
-6.42568e-06
5.3315e-07
4.02884e-06
-2.48202e-06
1.69994e-05
-3.51637e-06
8.21789e-06
-1.32542e-06
-5.07513e-06
8.11556e-07
-1.02093e-05
2.11153e-06
-8.52162e-06
2.93459e-06
-5.66458e-06
3.38898e-06
-3.31478e-06
3.54093e-06
-1.74026e-06
3.48747e-06
-7.03119e-07
3.28321e-06
1.10094e-07
2.93524e-06
9.46758e-07
2.4107e-06
1.89078e-06
1.70679e-06
2.80335e-06
9.21924e-07
3.33177e-06
2.72328e-07
2.99024e-06
1.42657e-06
-4.11651e-07
5.11746e-07
-1.33123e-06
1.53711e-06
-2.45201e-06
2.72888e-06
-3.55284e-06
3.9203e-06
-4.50338e-06
4.75527e-06
-5.24193e-06
4.83256e-06
-5.74917e-06
3.95083e-06
-6.03615e-06
2.30015e-06
-6.15646e-06
3.79158e-07
-6.1618e-06
-1.34119e-06
-6.01265e-06
-2.79388e-06
-5.60524e-06
-4.27688e-06
-4.86671e-06
-6.03276e-06
-3.7347e-06
-7.8278e-06
-2.13927e-06
-8.02111e-06
3.54992e-08
1.85407e-06
-1.32558e-06
1.83605e-05
-1.49095e-06
8.38327e-06
1.00292e-06
-7.569e-06
2.57351e-06
-1.17799e-05
3.62588e-06
-9.57399e-06
4.23432e-06
-6.27302e-06
4.4516e-06
-3.53206e-06
4.3561e-06
-1.64477e-06
4.04379e-06
-3.90811e-07
3.58286e-06
5.71026e-07
3.02063e-06
1.50899e-06
2.35118e-06
2.56023e-06
1.5746e-06
3.57992e-06
7.90318e-07
4.11605e-06
2.0704e-07
3.57352e-06
1.63361e-06
-5.01303e-07
1.01305e-06
-1.5629e-06
2.5987e-06
-2.82485e-06
3.99083e-06
-4.04172e-06
5.13717e-06
-5.06978e-06
5.78333e-06
-5.85062e-06
5.61341e-06
-6.40216e-06
4.50237e-06
-6.80024e-06
2.69822e-06
-7.13576e-06
7.14683e-07
-7.41931e-06
-1.05764e-06
-7.55825e-06
-2.65494e-06
-7.42414e-06
-4.41099e-06
-6.92775e-06
-6.52915e-06
-6.01994e-06
-8.73561e-06
-4.76556e-06
-9.27549e-06
-1.08274e-06
-1.82875e-06
2.34538e-07
1.70432e-05
1.19244e-06
7.42537e-06
3.50306e-06
-9.87962e-06
4.67684e-06
-1.29536e-05
5.46925e-06
-1.03664e-05
5.81446e-06
-6.61822e-06
5.75681e-06
-3.47442e-06
5.38663e-06
-1.27458e-06
4.77419e-06
2.21623e-07
4.01453e-06
1.33069e-06
3.18838e-06
2.33514e-06
2.32915e-06
3.41945e-06
1.45712e-06
4.45196e-06
6.71991e-07
4.90118e-06
1.54957e-07
4.09056e-06
1.78856e-06
-4.8224e-07
1.49529e-06
-1.55577e-06
3.67223e-06
-2.88326e-06
5.31832e-06
-4.20295e-06
6.45687e-06
-5.35281e-06
6.93319e-06
-6.26996e-06
6.53055e-06
-6.99402e-06
5.22642e-06
-7.63624e-06
3.34044e-06
-8.28507e-06
1.36352e-06
-8.89952e-06
-4.43182e-07
-9.3448e-06
-2.20967e-06
-9.49685e-06
-4.25895e-06
-9.25601e-06
-6.76999e-06
-8.58024e-06
-9.41138e-06
-7.267e-06
-1.05887e-05
-2.79596e-06
-6.29979e-06
2.18671e-06
1.20605e-05
4.25406e-06
5.35802e-06
5.98101e-06
-1.16066e-05
6.93609e-06
-1.39087e-05
7.42961e-06
-1.08599e-05
7.47643e-06
-6.66505e-06
7.12564e-06
-3.12363e-06
6.46503e-06
-6.13975e-07
5.54699e-06
1.13967e-06
4.49398e-06
2.3837e-06
3.40363e-06
3.42549e-06
2.34125e-06
4.48184e-06
1.35984e-06
5.43337e-06
5.69771e-07
5.69124e-06
1.14766e-07
4.54556e-06
1.90333e-06
-3.92231e-07
1.88752e-06
-1.37303e-06
4.65302e-06
-2.69283e-06
6.63812e-06
-4.09736e-06
7.8614e-06
-5.40833e-06
8.24417e-06
-6.55062e-06
7.67284e-06
-7.5646e-06
6.2404e-06
-8.55849e-06
4.33433e-06
-9.58469e-06
2.38972e-06
-1.05552e-05
5.27294e-07
-1.1304e-05
-1.46084e-06
-1.1724e-05
-3.83893e-06
-1.17063e-05
-6.78771e-06
-1.11821e-05
-9.93556e-06
-9.81889e-06
-1.19519e-05
-5.98299e-06
-1.01357e-05
2.4157e-06
3.66181e-06
6.77747e-06
9.96252e-07
8.09675e-06
-1.29258e-05
8.74545e-06
-1.45574e-05
8.97885e-06
-1.10933e-05
8.75995e-06
-6.44615e-06
8.15118e-06
-2.51485e-06
7.20816e-06
3.29045e-07
6.02391e-06
2.32392e-06
4.73998e-06
3.66762e-06
3.44849e-06
4.71699e-06
2.22491e-06
5.70541e-06
1.16363e-06
6.49464e-06
4.08818e-07
6.44606e-06
5.97918e-08
4.89459e-06
1.96312e-06
-2.55229e-07
2.14275e-06
-1.03406e-06
5.43185e-06
-2.24974e-06
7.8538e-06
-3.70803e-06
9.31968e-06
-5.22316e-06
9.7593e-06
-6.68599e-06
9.13567e-06
-8.09807e-06
7.65248e-06
-9.5215e-06
5.75775e-06
-1.09565e-05
3.82473e-06
-1.22884e-05
1.8592e-06
-1.33384e-05
-4.1088e-07
-1.39697e-05
-3.20758e-06
-1.408e-05
-6.67741e-06
-1.35733e-05
-1.04423e-05
-1.23317e-05
-1.31936e-05
-9.78786e-06
-1.26795e-05
-2.58544e-07
-5.8675e-06
6.73701e-06
-5.9993e-06
8.39749e-06
-1.45863e-05
9.04357e-06
-1.52035e-05
9.21287e-06
-1.12626e-05
8.84644e-06
-6.07972e-06
8.05034e-06
-1.71875e-06
6.90198e-06
1.4774e-06
5.5909e-06
3.63501e-06
4.22561e-06
5.03291e-06
2.87125e-06
6.07135e-06
1.60679e-06
6.96987e-06
6.02362e-07
7.49907e-06
6.53877e-08
6.98303e-06
-4.78394e-08
5.00781e-06
1.91528e-06
-7.2949e-08
2.2157e-06
-4.82756e-07
5.84166e-06
-1.37034e-06
8.74139e-06
-2.73425e-06
1.06836e-05
-4.45233e-06
1.14774e-05
-6.35617e-06
1.10395e-05
-8.32565e-06
9.62197e-06
-1.02986e-05
7.73071e-06
-1.22144e-05
5.7405e-06
-1.39443e-05
3.5891e-06
-1.53047e-05
9.49516e-07
-1.6094e-05
-2.41825e-06
-1.62261e-05
-6.54529e-06
-1.55349e-05
-1.11334e-05
-1.39265e-05
-1.4802e-05
-1.07744e-05
-1.58316e-05
-3.5807e-06
-1.30612e-05
3.19851e-06
-1.27785e-05
5.87026e-06
-1.72581e-05
6.84915e-06
-1.61824e-05
7.12153e-06
-1.1535e-05
6.77115e-06
-5.72933e-06
5.86029e-06
-8.07895e-07
4.58235e-06
2.75533e-06
3.34896e-06
4.8684e-06
2.13811e-06
6.24377e-06
9.67712e-07
7.24174e-06
-2.36493e-10
7.93782e-06
-5.32094e-07
8.03093e-06
-5.24801e-07
6.97574e-06
-2.22136e-07
4.70515e-06
1.69315e-06
1.72197e-07
2.0435e-06
3.48072e-07
5.66579e-06
1.90763e-07
8.89869e-06
-5.55443e-07
1.14298e-05
-2.02772e-06
1.29497e-05
-4.23692e-06
1.32487e-05
-7.02026e-06
1.24053e-05
-9.92928e-06
1.06397e-05
-1.26745e-05
8.48574e-06
-1.50604e-05
5.97494e-06
-1.68604e-05
2.74955e-06
-1.78777e-05
-1.40096e-06
-1.80901e-05
-6.3329e-06
-1.72541e-05
-1.19694e-05
-1.52877e-05
-1.67684e-05
-1.19505e-05
-1.91688e-05
-6.68726e-06
-1.83245e-05
-1.5114e-06
-1.79544e-05
6.68493e-07
-1.9438e-05
1.4481e-06
-1.6962e-05
1.59285e-06
-1.16797e-05
1.29413e-06
-5.43062e-06
3.41877e-07
1.44361e-07
-5.32491e-07
3.6297e-06
-1.22835e-06
5.56426e-06
-1.86217e-06
6.87758e-06
-2.35758e-06
7.73715e-06
-2.48054e-06
8.06078e-06
-2.05994e-06
7.61034e-06
-1.25143e-06
6.16723e-06
-4.17229e-07
3.87094e-06
1.27592e-06
4.72981e-07
1.57052e-06
1.42514e-06
4.71363e-06
2.40298e-06
7.92086e-06
2.99517e-06
1.08376e-05
2.80467e-06
1.31402e-05
1.50153e-06
1.45518e-05
-1.04926e-06
1.49561e-05
-4.62568e-06
1.42161e-05
-8.80137e-06
1.26614e-05
-1.31184e-05
1.0292e-05
-1.66753e-05
6.30641e-06
-1.86506e-05
5.74346e-07
-1.91123e-05
-5.87118e-06
-1.84178e-05
-1.2664e-05
-1.64763e-05
-1.87098e-05
-1.37051e-05
-2.194e-05
-1.04388e-05
-2.15908e-05
-7.69166e-06
-2.07015e-05
-7.00742e-06
-2.01222e-05
-7.14506e-06
-1.68244e-05
-7.48617e-06
-1.13386e-05
-7.75627e-06
-5.16053e-06
-7.81337e-06
2.01467e-07
-7.50347e-06
3.31979e-06
-7.21079e-06
5.27158e-06
-6.80452e-06
6.47131e-06
-6.10669e-06
7.03933e-06
-4.98263e-06
6.93671e-06
-3.46339e-06
6.0911e-06
-1.83175e-06
4.53559e-06
-5.33619e-07
2.57281e-06
7.42298e-07
6.84941e-07
8.85577e-07
2.37123e-06
3.02733e-06
4.61653e-06
5.67556e-06
6.91383e-06
8.54031e-06
8.74942e-06
1.13046e-05
9.63527e-06
1.3666e-05
9.20183e-06
1.53895e-05
7.14054e-06
1.62774e-05
3.51748e-06
1.62845e-05
-1.54026e-06
1.53498e-05
-7.64605e-06
1.24122e-05
-1.39844e-05
6.91266e-06
-1.78897e-05
-1.9658e-06
-1.77938e-05
-1.27599e-05
-1.66254e-05
-1.98782e-05
-1.52773e-05
-2.32881e-05
-1.46405e-05
-2.22276e-05
-1.49443e-05
-2.03977e-05
-1.62582e-05
-1.88083e-05
-1.75537e-05
-1.55288e-05
-1.8046e-05
-1.08463e-05
-1.73823e-05
-5.82419e-06
-1.57646e-05
-1.41627e-06
-1.42064e-05
1.76158e-06
-1.26494e-05
3.71462e-06
-1.0883e-05
4.70491e-06
-8.83106e-06
4.98734e-06
-6.51963e-06
4.62528e-06
-4.12025e-06
3.69173e-06
-1.97752e-06
2.39285e-06
-5.14605e-07
1.10989e-06
2.27693e-07
6.3962e-07
2.45957e-07
2.59665e-06
1.0703e-06
5.74504e-06
2.52717e-06
9.58838e-06
4.69697e-06
1.34961e-05
7.39682e-06
1.68025e-05
1.03596e-05
1.89009e-05
1.32911e-05
1.93057e-05
1.58727e-05
1.78271e-05
1.77631e-05
1.45976e-05
1.85792e-05
9.32685e-06
1.7683e-05
1.63213e-06
1.46074e-05
-7.10844e-06
6.77477e-06
-1.28299e-05
-7.03846e-06
-1.40181e-05
-1.86901e-05
-1.48834e-05
-2.24227e-05
-1.71763e-05
-1.99347e-05
-2.04562e-05
-1.71178e-05
-2.38278e-05
-1.54368e-05
-2.62119e-05
-1.31447e-05
-2.68765e-05
-1.01817e-05
-2.56416e-05
-7.05912e-06
-2.2851e-05
-4.20679e-06
-1.92689e-05
-1.82054e-06
-1.55003e-05
-5.39816e-08
-1.18585e-05
1.06309e-06
-8.46154e-06
1.59037e-06
-5.43121e-06
1.59495e-06
-2.93741e-06
1.19793e-06
-1.17382e-06
6.29261e-07
-2.39301e-07
1.75378e-07
-1.16083e-08
3.57476e-07
-1.11518e-07
1.73247e-06
-3.04698e-07
4.41849e-06
-1.58843e-07
8.35707e-06
7.5838e-07
1.28975e-05
2.8564e-06
1.72278e-05
6.02936e-06
2.06272e-05
9.89164e-06
2.25353e-05
1.39646e-05
2.2649e-05
1.76495e-05
2.09625e-05
2.02657e-05
1.76062e-05
2.10392e-05
1.31497e-05
1.90639e-05
7.3628e-06
1.25616e-05
1.29592e-07
1.94746e-07
-5.23708e-06
-1.33234e-05
-8.71634e-06
-1.89435e-05
-1.27302e-05
-1.59208e-05
-1.73663e-05
-1.24817e-05
-2.15614e-05
-1.12417e-05
-2.44421e-05
-1.0264e-05
-2.55571e-05
-9.06676e-06
-2.48431e-05
-7.77303e-06
-2.25135e-05
-6.53646e-06
-1.89359e-05
-5.39814e-06
-1.46691e-05
-4.32077e-06
-1.03666e-05
-3.23943e-06
-6.4921e-06
-2.28409e-06
-3.41805e-06
-1.47911e-06
-1.37165e-06
-8.48471e-07
-3.33422e-07
-4.08964e-07
-1.08996e-08
-1.47145e-07
-2.25082e-08
2.40006e-07
-3.51524e-07
1.02494e-06
-1.08963e-06
2.50588e-06
-1.63978e-06
4.8675e-06
-1.60323e-06
8.13106e-06
-4.07166e-07
1.16844e-05
2.47597e-06
1.47489e-05
6.82718e-06
1.68034e-05
1.19101e-05
1.76181e-05
1.68348e-05
1.72227e-05
2.06611e-05
1.58335e-05
2.24284e-05
1.38684e-05
2.10291e-05
1.16006e-05
1.48294e-05
8.24731e-06
3.54806e-06
3.69801e-06
-8.7741e-06
-5.60793e-07
-1.46847e-05
-4.40138e-06
-1.20802e-05
-8.3209e-06
-8.56221e-06
-1.19751e-05
-7.5875e-06
-1.47005e-05
-7.53859e-06
-1.62536e-05
-7.5137e-06
-1.66291e-05
-7.39752e-06
-1.59191e-05
-7.24652e-06
-1.42854e-05
-7.03176e-06
-1.1939e-05
-6.66724e-06
-9.11543e-06
-6.06297e-06
-6.2216e-06
-5.17792e-06
-3.6656e-06
-4.0351e-06
-1.7593e-06
-2.75477e-06
-6.14583e-07
-1.55368e-06
-1.08265e-07
-6.53463e-07
-1.30773e-07
2.33307e-07
-5.84831e-07
7.46531e-07
-1.60286e-06
1.44639e-06
-2.33964e-06
2.383e-06
-2.53984e-06
3.85713e-06
-1.88131e-06
6.00928e-06
3.2382e-07
8.2541e-06
4.58236e-06
1.0026e-05
1.01382e-05
1.11629e-05
1.56979e-05
1.17077e-05
2.01163e-05
1.18442e-05
2.22918e-05
1.18798e-05
2.09934e-05
1.18904e-05
1.48188e-05
1.09255e-05
4.51301e-06
7.99367e-06
-5.84231e-06
4.42116e-06
-1.11122e-05
1.52004e-06
-9.17908e-06
-1.31139e-06
-5.73079e-06
-4.17856e-06
-4.72032e-06
-6.64021e-06
-5.07694e-06
-8.43515e-06
-5.71876e-06
-9.5478e-06
-6.28487e-06
-9.95923e-06
-6.8351e-06
-9.68842e-06
-7.30257e-06
-8.78535e-06
-7.5703e-06
-7.36928e-06
-7.47904e-06
-5.63112e-06
-6.91608e-06
-3.80687e-06
-5.85935e-06
-2.15507e-06
-4.40657e-06
-9.13964e-07
-2.79479e-06
-2.09779e-07
-1.35765e-06
-3.40552e-07
1.17355e-07
-7.02187e-07
2.8767e-07
-1.77317e-06
4.20751e-07
-2.47272e-06
5.31161e-07
-2.65026e-06
7.67383e-07
-2.11753e-06
1.54025e-06
-4.49048e-07
3.04897e-06
3.07365e-06
4.67244e-06
8.51474e-06
5.98293e-06
1.43874e-05
7.19165e-06
1.89076e-05
8.46404e-06
2.10195e-05
9.95653e-06
1.95009e-05
1.13503e-05
1.3425e-05
1.14967e-05
4.36664e-06
9.57291e-06
-3.91851e-06
6.59122e-06
-8.13047e-06
4.2442e-06
-6.83206e-06
2.63997e-06
-4.12656e-06
9.22381e-07
-3.00273e-06
-9.60695e-07
-3.19386e-06
-2.71641e-06
-3.96305e-06
-4.18298e-06
-4.8183e-06
-5.27739e-06
-5.74068e-06
-5.91892e-06
-6.66104e-06
-6.02512e-06
-7.46409e-06
-5.5873e-06
-7.91686e-06
-4.6767e-06
-7.82668e-06
-3.4423e-06
-7.09375e-06
-2.10947e-06
-5.73941e-06
-9.5828e-07
-3.94598e-06
-2.32272e-07
-2.08366e-06
-5.72824e-07
-1.28002e-08
-6.89388e-07
-1.51359e-07
-1.63461e-06
-4.40524e-07
-2.18355e-06
-8.1821e-07
-2.27257e-06
-1.14474e-06
-1.791e-06
-1.16224e-06
-4.3155e-07
-3.783e-07
2.2897e-06
1.13852e-06
6.99792e-06
2.67215e-06
1.28538e-05
4.31185e-06
1.72679e-05
6.3461e-06
1.89852e-05
8.70555e-06
1.71415e-05
1.06837e-05
1.14469e-05
1.11392e-05
3.91114e-06
9.66805e-06
-2.4474e-06
7.17586e-06
-5.63828e-06
5.17826e-06
-4.83446e-06
3.97896e-06
-2.92726e-06
3.05522e-06
-2.07899e-06
2.02639e-06
-2.16503e-06
7.81541e-07
-2.7182e-06
-5.62643e-07
-3.47411e-06
-1.88617e-06
-4.41716e-06
-2.9845e-06
-5.5627e-06
-3.7086e-06
-6.73999e-06
-3.9484e-06
-7.67705e-06
-3.6807e-06
-8.09438e-06
-2.96937e-06
-7.80508e-06
-1.97632e-06
-6.73246e-06
-9.65232e-07
-4.95706e-06
-2.46699e-07
-2.80219e-06
-8.19523e-07
-1.09115e-07
-5.80275e-07
-4.40774e-07
-1.30295e-06
-9.5723e-07
-1.6671e-06
-1.56476e-06
-1.66503e-06
-2.12282e-06
-1.23294e-06
-2.42278e-06
-1.31591e-07
-2.13256e-06
1.99948e-06
-9.25087e-07
5.79045e-06
8.19182e-07
1.11095e-05
2.75949e-06
1.53276e-05
5.23637e-06
1.65083e-05
7.92122e-06
1.44566e-05
9.89973e-06
9.46837e-06
1.0282e-05
3.52886e-06
9.02781e-06
-1.1932e-06
6.97082e-06
-3.58129e-06
5.32705e-06
-3.19069e-06
4.36434e-06
-1.96455e-06
3.69403e-06
-1.40868e-06
3.0227e-06
-1.4937e-06
2.24295e-06
-1.93846e-06
1.33415e-06
-2.56532e-06
2.67107e-07
-3.35011e-06
-8.62117e-07
-4.43348e-06
-1.86494e-06
-5.73717e-06
-2.53053e-06
-7.01146e-06
-2.74497e-06
-7.87994e-06
-2.48228e-06
-8.06777e-06
-1.82099e-06
-7.39375e-06
-9.70672e-07
-5.80738e-06
-2.65696e-07
-3.50716e-06
-1.08522e-06
-1.5105e-07
-4.29226e-07
-5.50169e-07
-9.03833e-07
-1.13479e-06
-1.08248e-06
-1.81138e-06
-9.88439e-07
-2.45431e-06
-5.90017e-07
-2.85328e-06
2.6738e-07
-2.77677e-06
1.92297e-06
-1.87457e-06
4.88825e-06
-1.03079e-07
9.33802e-06
2.04271e-06
1.31818e-05
4.67539e-06
1.38756e-05
7.27617e-06
1.18559e-05
8.95777e-06
7.78677e-06
9.17282e-06
3.31382e-06
8.10556e-06
-1.25939e-07
6.46299e-06
-1.93873e-06
5.15957e-06
-1.88727e-06
4.39564e-06
-1.20062e-06
3.87699e-06
-8.90036e-07
3.37409e-06
-9.9079e-07
2.79325e-06
-1.35762e-06
2.12775e-06
-1.89981e-06
1.39908e-06
-2.62144e-06
5.45472e-07
-3.57988e-06
-4.00424e-07
-4.79127e-06
-1.28242e-06
-6.12947e-06
-1.84805e-06
-7.3143e-06
-1.97289e-06
-7.94293e-06
-1.63853e-06
-7.7281e-06
-9.73805e-07
-6.47211e-06
-2.94351e-07
-4.18662e-06
-1.37957e-06
-1.5762e-07
-2.71606e-07
-5.566e-07
-5.04854e-07
-1.1301e-06
-5.08979e-07
-1.78664e-06
-3.31901e-07
-2.40467e-06
2.80165e-08
-2.82741e-06
6.90119e-07
-2.84081e-06
1.93637e-06
-2.13258e-06
4.18003e-06
-4.86674e-07
7.69212e-06
1.73973e-06
1.09554e-05
4.29807e-06
1.13173e-05
6.58818e-06
9.56574e-06
7.91696e-06
6.458e-06
8.0285e-06
3.20227e-06
7.19146e-06
7.11107e-07
5.94655e-06
-6.93824e-07
4.9585e-06
-8.99216e-07
4.37286e-06
-6.14982e-07
3.97615e-06
-4.93326e-07
3.59737e-06
-6.12016e-07
3.16099e-06
-9.2124e-07
2.65775e-06
-1.39656e-06
2.09958e-06
-2.06328e-06
1.47352e-06
-2.95381e-06
7.32836e-07
-4.05059e-06
-1.23131e-07
-5.2735e-06
-9.30013e-07
-6.50742e-06
-1.39708e-06
-7.47587e-06
-1.39735e-06
-7.72783e-06
-9.56636e-07
-6.91282e-06
-3.3251e-07
-4.81074e-06
-1.71208e-06
-1.57882e-07
-1.13724e-07
-5.5042e-07
-1.12315e-07
-1.09256e-06
3.31569e-08
-1.68547e-06
2.61018e-07
-2.22815e-06
5.70693e-07
-2.60366e-06
1.06563e-06
-2.63229e-06
1.965e-06
-2.04206e-06
3.5898e-06
-5.61663e-07
6.21171e-06
1.59947e-06
8.79426e-06
3.92428e-06
8.99249e-06
5.84571e-06
7.64432e-06
6.90356e-06
5.40015e-06
7.02209e-06
3.08374e-06
6.45988e-06
1.27331e-06
5.59923e-06
1.66824e-07
4.90444e-06
-2.04425e-07
4.48579e-06
-1.9633e-07
4.20114e-06
-2.08676e-07
3.93298e-06
-3.43858e-07
3.62349e-06
-6.11751e-07
3.25536e-06
-1.02843e-06
2.82119e-06
-1.6291e-06
2.30223e-06
-2.43485e-06
1.67281e-06
-3.42116e-06
9.189e-07
-4.5196e-06
5.61417e-08
-5.64466e-06
-7.11038e-07
-6.70868e-06
-1.06228e-06
-7.37659e-06
-8.95278e-07
-7.07982e-06
-3.74717e-07
-5.33131e-06
-2.0868e-06
-1.72621e-07
5.88966e-08
-5.71462e-07
2.86526e-07
-1.08284e-06
5.44537e-07
-1.60303e-06
7.81212e-07
-2.05257e-06
1.02023e-06
-2.34113e-06
1.35419e-06
-2.32868e-06
1.95255e-06
-1.79885e-06
3.05997e-06
-4.86778e-07
4.89965e-06
1.5055e-06
6.80198e-06
3.53366e-06
6.96433e-06
5.14072e-06
6.03725e-06
6.05166e-06
4.48921e-06
6.27154e-06
2.86386e-06
6.00472e-06
1.54014e-06
5.51459e-06
6.56951e-07
5.09853e-06
2.11631e-07
4.84118e-06
6.1027e-08
4.66323e-06
-3.07256e-08
4.49409e-06
-1.74726e-07
4.2917e-06
-4.09353e-07
4.03086e-06
-7.67599e-07
3.68661e-06
-1.28485e-06
3.22846e-06
-1.9767e-06
2.63075e-06
-2.82345e-06
1.88824e-06
-3.77709e-06
1.02669e-06
-4.78311e-06
1.06514e-07
-5.78851e-06
-6.02253e-07
-6.66782e-06
-7.62249e-07
-6.91983e-06
-4.08034e-07
-5.68552e-06
-2.49483e-06
-2.08379e-07
2.67277e-07
-6.31563e-07
7.09712e-07
-1.11407e-06
1.02705e-06
-1.55555e-06
1.22269e-06
-1.89481e-06
1.35949e-06
-2.06943e-06
1.52881e-06
-1.98211e-06
1.86522e-06
-1.4737e-06
2.55157e-06
-3.06569e-07
3.73251e-06
1.46499e-06
5.03043e-06
3.21211e-06
5.21722e-06
4.60514e-06
4.64422e-06
5.47947e-06
3.61487e-06
5.8578e-06
2.48553e-06
5.88138e-06
1.51656e-06
5.72156e-06
8.1677e-07
5.55629e-06
3.76902e-07
5.45012e-06
1.67199e-07
5.37156e-06
4.78314e-08
5.28504e-06
-8.82063e-08
5.16191e-06
-2.86219e-07
4.97297e-06
-5.78661e-07
4.68393e-06
-9.95806e-07
4.2574e-06
-1.55018e-06
3.66474e-06
-2.23079e-06
2.8995e-06
-3.01185e-06
1.98505e-06
-3.86866e-06
9.81899e-07
-4.78536e-06
2.94303e-08
-5.71536e-06
-5.22364e-07
-6.36803e-06
-4.11542e-07
-5.79634e-06
-2.90637e-06
-2.72287e-07
5.39564e-07
-7.23671e-07
1.1611e-06
-1.14971e-06
1.45309e-06
-1.47145e-06
1.54442e-06
-1.665e-06
1.55304e-06
-1.70036e-06
1.56416e-06
-1.51612e-06
1.68099e-06
-9.97864e-07
2.03331e-06
4.65387e-08
2.68811e-06
1.58816e-06
3.4888e-06
3.1118e-06
3.69357e-06
4.38489e-06
3.37114e-06
5.29113e-06
2.70863e-06
5.83862e-06
1.93804e-06
6.11121e-06
1.24397e-06
6.21249e-06
7.15488e-07
6.23983e-06
3.49561e-07
6.24892e-06
1.58108e-07
6.2456e-06
5.11475e-08
6.21613e-06
-5.87363e-08
6.13977e-06
-2.09862e-07
5.98874e-06
-4.27631e-07
5.72775e-06
-7.34807e-07
5.3184e-06
-1.14083e-06
4.72931e-06
-1.64169e-06
3.94702e-06
-2.22956e-06
2.98397e-06
-2.90562e-06
1.88576e-06
-3.68715e-06
7.56631e-07
-4.58623e-06
-1.39625e-07
-5.47177e-06
-3.58684e-07
-5.57728e-06
-3.26506e-06
-3.58775e-07
8.9834e-07
-7.98798e-07
1.60112e-06
-1.07832e-06
1.73261e-06
-1.1922e-06
1.6583e-06
-1.17533e-06
1.53616e-06
-1.02999e-06
1.41882e-06
-7.22362e-07
1.37337e-06
-1.5056e-07
1.46151e-06
7.8034e-07
1.75721e-06
2.08203e-06
2.18711e-06
3.43048e-06
2.34513e-06
4.62711e-06
2.17451e-06
5.56687e-06
1.76887e-06
6.23146e-06
1.27345e-06
6.65995e-06
8.15486e-07
6.91312e-06
4.62314e-07
7.04539e-06
2.17293e-07
7.11323e-06
9.02649e-08
7.14519e-06
1.91949e-08
7.13899e-06
-5.25409e-08
7.0793e-06
-1.50173e-07
6.94282e-06
-2.91149e-07
6.69779e-06
-4.89783e-07
6.30882e-06
-7.51855e-07
5.74393e-06
-1.07681e-06
4.98133e-06
-1.46696e-06
4.01556e-06
-1.93986e-06
2.86703e-06
-2.53861e-06
1.6063e-06
-3.3255e-06
4.23544e-07
-4.28902e-06
-2.09869e-07
-4.94387e-06
-3.47493e-06
-4.49828e-07
1.34817e-06
-7.17383e-07
1.86868e-06
-6.59745e-07
1.67497e-06
-4.29654e-07
1.42821e-06
-1.11852e-07
1.21836e-06
2.72248e-07
1.03472e-06
7.33279e-07
9.12335e-07
1.32458e-06
8.70213e-07
2.13668e-06
9.45103e-07
3.20479e-06
1.119e-06
4.35649e-06
1.19343e-06
5.4268e-06
1.10421e-06
6.30919e-06
8.86475e-07
6.96373e-06
6.18916e-07
7.4039e-06
3.7531e-07
7.67195e-06
1.94261e-07
7.8103e-06
7.89412e-08
7.87642e-06
2.41484e-08
7.90315e-06
-7.53527e-09
7.89223e-06
-4.16196e-08
7.83224e-06
-9.01838e-08
7.704e-06
-1.62909e-07
7.48083e-06
-2.66614e-07
7.13276e-06
-4.03785e-07
6.63062e-06
-5.7467e-07
5.94794e-06
-7.8428e-07
5.0612e-06
-1.05311e-06
3.95291e-06
-1.43032e-06
2.63134e-06
-2.00394e-06
1.21314e-06
-2.87082e-06
1.2526e-07
-3.85599e-06
-3.34967e-06
-3.68052e-07
1.71622e-06
2.42898e-08
1.47633e-06
7.08756e-07
9.90508e-07
1.3649e-06
7.72069e-07
1.97556e-06
6.07701e-07
2.5433e-06
4.6698e-07
3.08795e-06
3.67687e-07
3.64687e-06
3.1129e-07
4.28771e-06
3.04272e-07
5.06647e-06
3.40233e-07
5.90768e-06
3.52225e-07
6.69717e-06
3.14714e-07
7.34513e-06
2.38515e-07
7.81269e-06
1.51351e-07
8.10978e-06
7.8217e-08
8.27443e-06
2.96101e-08
8.34822e-06
5.15366e-09
8.3762e-06
-3.8346e-09
8.37857e-06
-9.90284e-09
8.35545e-06
-1.84971e-08
8.29812e-06
-3.28572e-08
8.19096e-06
-5.57514e-08
8.01351e-06
-8.91585e-08
7.74336e-06
-1.3364e-07
7.35803e-06
-1.8934e-07
6.83312e-06
-2.59366e-07
6.136e-06
-3.56e-07
5.21668e-06
-5.10995e-07
4.00293e-06
-7.90181e-07
2.43849e-06
-1.30638e-06
7.54652e-07
-2.17216e-06
-2.59501e-06
1.71622e-06
3.19255e-06
4.18306e-06
4.95513e-06
5.56283e-06
6.02981e-06
6.3975e-06
6.70879e-06
7.01306e-06
7.35329e-06
7.70552e-06
8.02023e-06
8.25875e-06
8.4101e-06
8.48832e-06
8.51793e-06
8.52308e-06
8.51924e-06
8.50934e-06
8.49084e-06
8.45799e-06
8.40223e-06
8.31307e-06
8.17944e-06
7.9901e-06
7.73073e-06
7.37473e-06
6.86373e-06
6.07355e-06
4.76717e-06
2.59501e-06
)
;

boundaryField
{
    movingWall
    {
        type            calculated;
        value           uniform 0;
    }
    fixedWalls
    {
        type            calculated;
        value           uniform 0;
    }
    floor
    {
        type            calculated;
        value           uniform 0;
    }
    frontAndBack
    {
        type            empty;
        value           nonuniform List<scalar> 0();
    }
}


// ************************************************************************* //
