/*--------------------------------*- C++ -*----------------------------------*\
| =========                 |                                                 |
| \\      /  F ield         | OpenFOAM: The Open Source CFD Toolbox           |
|  \\    /   O peration     | Version:  2212                                  |
|   \\  /    A nd           | Website:  www.openfoam.com                      |
|    \\/     M anipulation  |                                                 |
\*---------------------------------------------------------------------------*/
FoamFile
{
    version     2.0;
    format      ascii;
    arch        "LSB;label=64;scalar=64";
    class       volScalarField;
    location    "50";
    object      Sco2;
}
// * * * * * * * * * * * * * * * * * * * * * * * * * * * * * * * * * * * * * //

dimensions      [1 -3 0 0 0 0 0];

internalField   nonuniform List<scalar> 
1024
(
0.00841157
0.00841158
0.00841154
0.00841142
0.00841126
0.00841106
0.00841083
0.0084106
0.00841044
0.00841025
0.0084102
0.00841024
0.00841027
0.00841031
0.00841034
0.00841037
0.00841145
0.00841446
0.00841815
0.00842131
0.00842275
0.00842273
0.00842202
0.00842104
0.00841992
0.00841877
0.00841771
0.00841682
0.00841615
0.0084157
0.00841544
0.00841534
0.00841157
0.00841157
0.0084115
0.00841139
0.00841123
0.00841103
0.00841081
0.00841057
0.00841041
0.00841025
0.00841021
0.00841025
0.0084103
0.00841034
0.00841037
0.00841038
0.0084115
0.00841462
0.00841846
0.00842183
0.00842337
0.00842333
0.00842255
0.00842148
0.00842029
0.00841907
0.00841794
0.008417
0.00841627
0.00841577
0.00841549
0.00841535
0.00841152
0.00841149
0.00841143
0.00841132
0.00841116
0.00841097
0.00841075
0.00841051
0.00841038
0.00841025
0.00841024
0.00841028
0.00841035
0.00841041
0.00841044
0.00841042
0.00841157
0.00841485
0.00841899
0.00842295
0.00842486
0.00842478
0.0084238
0.00842251
0.0084211
0.0084197
0.00841841
0.00841732
0.00841647
0.00841589
0.00841555
0.0084154
0.00841139
0.00841137
0.0084113
0.0084112
0.00841107
0.00841088
0.00841068
0.00841045
0.00841036
0.00841027
0.00841029
0.00841036
0.00841046
0.00841055
0.00841059
0.00841051
0.00841163
0.00841504
0.00841967
0.00842476
0.00842738
0.00842734
0.008426
0.00842429
0.00842248
0.00842072
0.00841913
0.00841779
0.00841677
0.00841607
0.00841565
0.00841548
0.00841123
0.00841121
0.00841116
0.00841108
0.00841095
0.00841079
0.00841061
0.0084104
0.00841035
0.00841031
0.00841037
0.00841048
0.00841064
0.0084108
0.00841085
0.00841066
0.00841165
0.00841512
0.00842044
0.00842735
0.00843112
0.0084312
0.00842939
0.00842702
0.00842454
0.00842223
0.00842016
0.00841845
0.00841716
0.0084163
0.0084158
0.0084156
0.00841107
0.00841106
0.00841102
0.00841095
0.00841084
0.00841069
0.00841054
0.00841036
0.00841038
0.00841038
0.00841051
0.00841069
0.00841093
0.00841119
0.0084113
0.00841095
0.00841164
0.00841501
0.00842137
0.00843091
0.00843629
0.00843656
0.00843412
0.00843082
0.0084274
0.00842426
0.00842152
0.00841931
0.00841768
0.00841661
0.00841602
0.00841579
0.00841094
0.00841092
0.00841089
0.00841082
0.00841073
0.0084106
0.00841048
0.00841035
0.00841043
0.0084105
0.00841071
0.00841098
0.00841137
0.00841181
0.00841206
0.00841155
0.00841164
0.00841473
0.00842296
0.008436
0.00844329
0.00844366
0.00844032
0.00843579
0.00843112
0.00842688
0.00842325
0.00842039
0.00841833
0.00841702
0.00841633
0.00841606
0.00841082
0.0084108
0.00841077
0.00841072
0.00841063
0.00841053
0.00841044
0.00841038
0.00841052
0.00841067
0.00841097
0.00841141
0.00841202
0.00841278
0.00841334
0.00841282
0.00841184
0.00841449
0.00842646
0.00844392
0.00845292
0.0084528
0.00844803
0.00844185
0.00843562
0.00843003
0.00842533
0.0084217
0.00841915
0.00841757
0.00841675
0.00841644
0.00841071
0.00841071
0.00841069
0.00841064
0.00841056
0.00841048
0.00841044
0.00841044
0.00841064
0.00841088
0.00841132
0.00841197
0.00841295
0.00841425
0.00841552
0.0084155
0.00841315
0.00841523
0.00843423
0.00845675
0.00846621
0.00846417
0.00845701
0.00844865
0.00844059
0.00843349
0.00842765
0.0084232
0.00842013
0.00841825
0.00841729
0.00841695
0.00841063
0.00841063
0.00841061
0.00841057
0.00841051
0.00841046
0.00841046
0.00841052
0.00841079
0.00841113
0.00841172
0.00841267
0.00841418
0.00841635
0.00841902
0.00842075
0.00841853
0.00842085
0.0084504
0.00847685
0.0084836
0.00847701
0.00846612
0.0084551
0.00844513
0.00843666
0.00842982
0.00842468
0.00842116
0.00841904
0.00841796
0.00841758
0.00841057
0.00841057
0.00841056
0.00841052
0.00841049
0.00841047
0.00841051
0.00841062
0.00841095
0.00841137
0.00841215
0.00841343
0.00841559
0.00841902
0.00842408
0.00842995
0.00843328
0.00844113
0.00848079
0.00850526
0.00850312
0.00848833
0.00847244
0.0084588
0.00844748
0.00843829
0.00843104
0.00842566
0.008422
0.00841979
0.00841866
0.00841826
0.0084105
0.0084105
0.0084105
0.00841049
0.00841047
0.00841049
0.00841055
0.0084107
0.00841106
0.00841155
0.00841247
0.00841405
0.00841685
0.00842174
0.00843006
0.00844288
0.00845928
0.00848257
0.00852516
0.00853721
0.00851854
0.00849226
0.00847129
0.0084563
0.00844517
0.00843662
0.00843009
0.0084253
0.00842205
0.00842008
0.00841905
0.00841865
0.00841045
0.00841045
0.00841046
0.00841046
0.00841047
0.00841049
0.00841057
0.00841073
0.00841109
0.00841158
0.00841251
0.00841421
0.00841737
0.00842351
0.0084353
0.00845683
0.00849084
0.00853421
0.00857187
0.00856389
0.0085238
0.00848463
0.00845995
0.00844598
0.00843726
0.00843112
0.00842659
0.00842331
0.00842107
0.00841964
0.00841883
0.00841848
0.00841039
0.0084104
0.00841041
0.00841042
0.00841044
0.00841047
0.00841054
0.00841067
0.0084109
0.0084113
0.00841209
0.00841357
0.00841659
0.00842311
0.00843746
0.00846756
0.00852016
0.00858253
0.00861504
0.00858823
0.00852775
0.00847515
0.00844603
0.00843334
0.00842773
0.00842462
0.00842238
0.00842052
0.008419
0.00841793
0.00841732
0.00841709
0.00841035
0.00841035
0.00841036
0.00841037
0.00841039
0.00841043
0.0084105
0.00841063
0.00841077
0.00841092
0.00841127
0.00841218
0.00841439
0.00841988
0.00843441
0.00847015
0.00853969
0.00862222
0.00866211
0.00863347
0.0085645
0.00849795
0.00845395
0.00843028
0.00841883
0.00841385
0.00841225
0.00841258
0.00841417
0.00841644
0.00841863
0.00841993
0.00841033
0.00841032
0.00841032
0.00841032
0.00841033
0.00841034
0.00841039
0.00841043
0.00841025
0.00841039
0.00841061
0.00841096
0.00841186
0.00841508
0.00842646
0.00846072
0.00853926
0.00864421
0.00871508
0.00872186
0.00867974
0.0086205
0.008567
0.00852708
0.00850054
0.00848509
0.00847852
0.00847863
0.00848304
0.00848909
0.00849423
0.00849692
0.00841063
0.00841061
0.00841058
0.00841051
0.00841042
0.00841032
0.00841025
0.00841026
0.00841038
0.00841028
0.00841026
0.00841036
0.00841067
0.00841215
0.00841871
0.00844263
0.0085104
0.00862046
0.00872407
0.00879065
0.0088185
0.00881801
0.00880202
0.00878046
0.00875896
0.0087402
0.00872577
0.00871605
0.00871055
0.00870808
0.0087072
0.00870692
0.00841177
0.00841177
0.00841172
0.00841158
0.00841133
0.00841102
0.00841071
0.00841054
0.00841042
0.00841032
0.00841027
0.00841028
0.00841043
0.00841157
0.00841664
0.0084314
0.00847552
0.00856093
0.0086579
0.00874336
0.00881396
0.00887004
0.00891064
0.00893631
0.00894898
0.00895119
0.00894604
0.00893647
0.0089254
0.00891544
0.00890844
0.00890507
0.00841414
0.00841414
0.00841403
0.0084137
0.0084131
0.0084123
0.00841153
0.00841099
0.00841063
0.00841044
0.00841036
0.00841032
0.00841044
0.00841219
0.00841891
0.00843173
0.0084594
0.0085172
0.00859241
0.00866854
0.00874272
0.00881567
0.00888374
0.0089418
0.00898632
0.00901615
0.00903213
0.00903681
0.0090339
0.00902759
0.0090216
0.00901823
0.00841849
0.00841848
0.00841818
0.00841741
0.00841608
0.00841437
0.00841272
0.00841156
0.00841092
0.00841056
0.00841042
0.00841034
0.00841077
0.00841453
0.00842538
0.00844078
0.00846123
0.00849927
0.00855304
0.00861412
0.0086814
0.00875674
0.00883685
0.00891418
0.00898095
0.0090323
0.00906673
0.00908565
0.0090925
0.00909191
0.0090885
0.00908587
0.00842598
0.00842589
0.00842524
0.0084237
0.00842119
0.00841802
0.00841488
0.00841252
0.0084112
0.0084106
0.00841037
0.00841049
0.00841239
0.00842065
0.00843823
0.008459
0.00847787
0.00850464
0.00854335
0.0085913
0.00864903
0.00871962
0.00880196
0.00888885
0.00897032
0.00903821
0.00908808
0.00911947
0.00913509
0.00913962
0.00913848
0.00913642
0.00843818
0.00843793
0.00843675
0.00843414
0.00843005
0.00842487
0.00841947
0.00841494
0.0084121
0.00841086
0.00841072
0.00841208
0.00841806
0.00843414
0.00846076
0.00848859
0.00850919
0.00853034
0.00855964
0.00859847
0.00864822
0.00871179
0.0087896
0.0088768
0.00896419
0.0090421
0.00910354
0.00914563
0.00916947
0.00917911
0.00918028
0.00917877
0.00845707
0.00845656
0.00845466
0.00845083
0.008445
0.00843759
0.00842941
0.00842172
0.00841602
0.00841347
0.00841416
0.00841918
0.00843295
0.00845975
0.00849645
0.00853179
0.00855592
0.00857508
0.00859868
0.00863084
0.0086737
0.00872985
0.00880012
0.0088815
0.0089671
0.00904818
0.00911654
0.00916691
0.00919812
0.00921286
0.00921655
0.00921567
0.00848493
0.00848402
0.00848126
0.00847625
0.00846902
0.00845989
0.00844933
0.00843829
0.00842881
0.00842438
0.00842741
0.00843925
0.00846377
0.00850216
0.00854806
0.00858994
0.00861802
0.00863721
0.00865736
0.0086841
0.00872019
0.00876814
0.00882916
0.00890154
0.00898038
0.00905882
0.00912928
0.00918502
0.00922239
0.00924206
0.00924847
0.00924834
0.00852399
0.0085225
0.00851889
0.00851315
0.00850557
0.00849628
0.00848508
0.00847216
0.00845966
0.0084537
0.00846071
0.00848122
0.00851667
0.00856461
0.00861688
0.00866303
0.00869424
0.00871412
0.008732
0.00875404
0.00878339
0.00882257
0.00887319
0.00893469
0.0090039
0.00907574
0.00914391
0.00920162
0.00924341
0.0092675
0.00927675
0.00927754
0.00857624
0.00857404
0.00856986
0.00856449
0.0085585
0.00855162
0.00854275
0.00853104
0.00851823
0.00851234
0.0085238
0.00855184
0.00859492
0.00864794
0.00870245
0.00874975
0.00878228
0.00880249
0.00881853
0.00883643
0.00885942
0.00889
0.00892996
0.00897967
0.00903748
0.00910002
0.00916242
0.00921859
0.00926237
0.00928991
0.0093019
0.00930376
0.00864345
0.00864049
0.00863656
0.00863345
0.00863168
0.00863022
0.00862692
0.00861989
0.00861029
0.00860647
0.00862096
0.00865254
0.00869771
0.00875028
0.00880253
0.00884758
0.00887913
0.00889863
0.0089128
0.00892707
0.00894445
0.00896727
0.00899727
0.00903535
0.009081
0.00913241
0.00918629
0.00923771
0.00928064
0.00930999
0.00932431
0.00932734
0.00872756
0.00872409
0.00872199
0.0087236
0.00872856
0.00873464
0.00873877
0.0087385
0.00873446
0.00873382
0.00874869
0.00877883
0.00882038
0.00886737
0.00891336
0.00895306
0.00898132
0.00899884
0.00901086
0.00902191
0.00903459
0.00905086
0.00907225
0.00909979
0.00913366
0.00917317
0.00921655
0.00926041
0.0092996
0.00932862
0.00934435
0.0093485
0.00883123
0.00882817
0.00883029
0.00883872
0.0088511
0.00886425
0.00887493
0.00888088
0.00888226
0.00888437
0.00889717
0.00892191
0.00895559
0.00899336
0.0090302
0.00906216
0.00908523
0.00909961
0.00910913
0.00911729
0.00912611
0.00913712
0.00915149
0.00917015
0.00919351
0.00922154
0.00925356
0.00928775
0.00932044
0.00934666
0.0093624
0.00936739
0.00895877
0.00895824
0.00896675
0.00898132
0.00899813
0.00901443
0.00902782
0.00903682
0.00904132
0.00904466
0.00905399
0.00907135
0.00909506
0.00912176
0.00914792
0.00917076
0.00918741
0.00919786
0.00920463
0.00921015
0.00921582
0.0092227
0.0092316
0.00924316
0.0092578
0.00927569
0.00929673
0.00932025
0.00934424
0.00936512
0.009379
0.00938415
0.00911678
0.00912135
0.00913406
0.0091487
0.00916327
0.00917661
0.00918747
0.00919516
0.00919957
0.00920241
0.00920784
0.00921766
0.00923121
0.00924661
0.00926181
0.00927515
0.00928496
0.00929113
0.00929509
0.00929822
0.00930132
0.00930499
0.00930969
0.00931578
0.00932352
0.00933306
0.00934447
0.00935761
0.00937173
0.009385
0.0093948
0.00939905
0.00931272
0.00931593
0.00932217
0.00932833
0.00933408
0.00933922
0.00934339
0.00934638
0.00934817
0.00934926
0.009351
0.00935409
0.00935841
0.00936335
0.00936825
0.00937257
0.00937575
0.00937776
0.00937904
0.00938003
0.009381
0.00938214
0.00938358
0.00938544
0.0093878
0.00939071
0.00939421
0.00939829
0.00940278
0.00940721
0.00941077
0.00941255
)
;

boundaryField
{
    movingWall
    {
        type            fixedValue;
        value           uniform 0.00942;
    }
    fixedWalls
    {
        type            zeroGradient;
    }
    floor
    {
        type            zeroGradient;
    }
    frontAndBack
    {
        type            empty;
    }
}


// ************************************************************************* //
