/*--------------------------------*- C++ -*----------------------------------*\
| =========                 |                                                 |
| \\      /  F ield         | OpenFOAM: The Open Source CFD Toolbox           |
|  \\    /   O peration     | Version:  2212                                  |
|   \\  /    A nd           | Website:  www.openfoam.com                      |
|    \\/     M anipulation  |                                                 |
\*---------------------------------------------------------------------------*/
FoamFile
{
    version     2.0;
    format      ascii;
    arch        "LSB;label=64;scalar=64";
    class       volScalarField;
    location    "50";
    object      T;
}
// * * * * * * * * * * * * * * * * * * * * * * * * * * * * * * * * * * * * * //

dimensions      [0 0 0 1 0 0 0];

internalField   nonuniform List<scalar> 
1024
(
309.864
309.864
309.871
309.888
309.908
309.925
309.926
309.913
309.895
309.874
309.855
309.843
309.838
309.842
309.873
309.922
309.932
309.877
309.82
309.755
309.723
309.735
309.761
309.785
309.805
309.825
309.842
309.86
309.88
309.898
309.911
309.917
309.584
309.586
309.609
309.659
309.724
309.774
309.771
309.725
309.665
309.601
309.547
309.514
309.5
309.513
309.604
309.757
309.789
309.617
309.441
309.261
309.181
309.208
309.277
309.339
309.396
309.453
309.507
309.564
309.626
309.684
309.728
309.747
309.31
309.319
309.362
309.446
309.558
309.624
309.598
309.511
309.404
309.299
309.218
309.172
309.155
309.176
309.316
309.583
309.642
309.356
309.069
308.826
308.726
308.751
308.828
308.905
308.983
309.066
309.154
309.251
309.359
309.463
309.541
309.574
309.084
309.106
309.173
309.292
309.421
309.472
309.411
309.278
309.128
308.994
308.902
308.855
308.843
308.874
309.037
309.416
309.509
309.135
308.779
308.538
308.437
308.443
308.495
308.558
308.631
308.719
308.826
308.956
309.105
309.254
309.365
309.41
308.938
308.975
309.063
309.194
309.302
309.314
309.212
309.041
308.863
308.72
308.634
308.597
308.596
308.639
308.798
309.261
309.405
308.988
308.622
308.397
308.299
308.282
308.3
308.336
308.388
308.46
308.566
308.712
308.89
309.072
309.208
309.262
308.87
308.917
309.011
309.119
309.182
309.148
309.009
308.816
308.632
308.5
308.43
308.406
308.417
308.471
308.617
309.096
309.334
308.92
308.57
308.342
308.246
308.214
308.209
308.221
308.249
308.298
308.39
308.534
308.725
308.925
309.073
309.129
308.848
308.893
308.971
309.042
309.056
308.979
308.816
308.617
308.445
308.336
308.285
308.272
308.289
308.346
308.489
308.879
309.283
308.915
308.547
308.32
308.225
308.186
308.171
308.17
308.181
308.212
308.285
308.417
308.605
308.808
308.957
309.01
308.835
308.87
308.923
308.956
308.928
308.817
308.642
308.453
308.304
308.22
308.184
308.177
308.193
308.243
308.363
308.635
309.21
308.936
308.517
308.299
308.204
308.167
308.152
308.147
308.151
308.171
308.228
308.343
308.52
308.715
308.856
308.903
308.814
308.839
308.87
308.87
308.807
308.675
308.497
308.326
308.203
308.141
308.115
308.11
308.12
308.154
308.24
308.438
309.046
308.905
308.462
308.249
308.171
308.147
308.138
308.135
308.137
308.153
308.198
308.299
308.46
308.641
308.767
308.807
308.788
308.804
308.816
308.791
308.704
308.558
308.387
308.236
308.138
308.09
308.071
308.065
308.067
308.083
308.13
308.261
308.702
308.726
308.322
308.171
308.135
308.133
308.135
308.135
308.138
308.15
308.189
308.277
308.422
308.583
308.692
308.725
308.757
308.768
308.768
308.727
308.626
308.474
308.312
308.182
308.103
308.066
308.05
308.043
308.038
308.036
308.046
308.081
308.182
308.273
308.127
308.098
308.118
308.144
308.155
308.158
308.159
308.166
308.198
308.276
308.406
308.546
308.634
308.659
308.722
308.732
308.729
308.685
308.58
308.428
308.275
308.16
308.095
308.065
308.051
308.043
308.033
308.023
308.015
308.017
308.029
308.048
308.05
308.088
308.145
308.193
308.21
308.211
308.202
308.2
308.227
308.302
308.419
308.528
308.591
308.609
308.678
308.691
308.696
308.667
308.577
308.435
308.285
308.174
308.113
308.086
308.073
308.061
308.047
308.029
308.012
308.007
308.011
308.023
308.054
308.115
308.196
308.268
308.297
308.28
308.255
308.254
308.286
308.355
308.443
308.52
308.563
308.576
308.606
308.627
308.647
308.642
308.592
308.495
308.37
308.247
308.171
308.138
308.119
308.1
308.078
308.047
308.017
308.006
308.01
308.028
308.069
308.142
308.237
308.321
308.354
308.34
308.325
308.331
308.362
308.414
308.474
308.523
308.551
308.561
308.473
308.507
308.548
308.574
308.57
308.527
308.454
308.367
308.292
308.243
308.217
308.189
308.131
308.081
308.029
308.007
308.009
308.028
308.067
308.135
308.223
308.313
308.377
308.396
308.398
308.408
308.431
308.462
308.495
308.518
308.53
308.532
308.266
308.304
308.362
308.419
308.458
308.473
308.46
308.426
308.382
308.342
308.318
308.311
308.274
308.138
308.049
308.008
308.005
308.015
308.038
308.076
308.13
308.195
308.266
308.332
308.378
308.397
308.409
308.416
308.413
308.399
308.379
308.365
308.091
308.109
308.149
308.208
308.273
308.33
308.371
308.392
308.393
308.383
308.373
308.367
308.342
308.24
308.084
308.014
308.002
308.002
308.006
308.011
308.019
308.029
308.042
308.058
308.079
308.107
308.128
308.137
308.131
308.116
308.101
308.093
308.041
308.046
308.058
308.085
308.136
308.205
308.276
308.334
308.373
308.391
308.397
308.393
308.357
308.255
308.117
308.029
308.002
308
308
308.001
308.001
308.002
308.003
308.004
308.004
308.006
308.006
308.007
308.007
308.008
308.008
308.008
308.028
308.032
308.043
308.064
308.1
308.159
308.233
308.305
308.361
308.394
308.407
308.4
308.347
308.233
308.11
308.032
308.005
308
308
308
308
308
308
308
308
308
308
308
308
308
308.001
308.001
308.02
308.024
308.035
308.056
308.092
308.147
308.221
308.298
308.358
308.395
308.407
308.388
308.316
308.196
308.089
308.027
308.005
308.001
308
308
308
308
308
308
308
308
308
308
308
308
308
308
308.014
308.018
308.028
308.048
308.083
308.135
308.204
308.283
308.351
308.387
308.391
308.356
308.268
308.153
308.065
308.019
308.004
308.001
308
308
308
308
308
308
308
308
308
308
308
308
308
308
308.009
308.012
308.02
308.037
308.067
308.113
308.176
308.252
308.326
308.362
308.356
308.305
308.211
308.111
308.043
308.012
308.002
308
308
308
308
308
308
308
308
308
308
308
308
308
308
308
308.005
308.008
308.014
308.026
308.048
308.084
308.139
308.208
308.28
308.318
308.302
308.242
308.153
308.074
308.026
308.007
308.001
308
308
308
308
308
308
308
308
308
308
308
308
308
308
308
308.003
308.005
308.009
308.017
308.032
308.058
308.1
308.157
308.22
308.257
308.235
308.175
308.102
308.046
308.015
308.004
308.001
308
308
308
308
308
308
308
308
308
308
308
308
308
308
308
308.002
308.003
308.005
308.011
308.021
308.039
308.067
308.108
308.158
308.19
308.166
308.116
308.063
308.027
308.008
308.002
308
308
308
308
308
308
308
308
308
308
308
308
308
308
308
308
308.001
308.002
308.004
308.007
308.014
308.025
308.042
308.069
308.103
308.127
308.107
308.07
308.037
308.015
308.005
308.001
308
308
308
308
308
308
308
308
308
308
308
308
308
308
308
308
308.001
308.001
308.002
308.005
308.009
308.015
308.025
308.041
308.061
308.076
308.062
308.04
308.02
308.008
308.003
308.001
308
308
308
308
308
308
308
308
308
308
308
308
308
308
308
308
308.001
308.001
308.002
308.003
308.006
308.009
308.014
308.022
308.034
308.041
308.034
308.021
308.011
308.005
308.002
308.001
308
308
308
308
308
308
308
308
308
308
308
308
308
308
308
308
308
308.001
308.001
308.002
308.003
308.005
308.008
308.011
308.017
308.021
308.017
308.011
308.006
308.003
308.001
308
308
308
308
308
308
308
308
308
308
308
308
308
308
308
308
308
308
308.001
308.001
308.001
308.002
308.003
308.004
308.005
308.008
308.009
308.008
308.006
308.003
308.002
308.001
308
308
308
308
308
308
308
308
308
308
308
308
308
308
308
308
308
308
308
308.001
308.001
308.001
308.001
308.002
308.002
308.003
308.004
308.004
308.003
308.002
308.001
308.001
308
308
308
308
308
308
308
308
308
308
308
308
308
308
308
308
308
308
308
308
308
308.001
308.001
308.001
308.001
308.002
308.002
308.002
308.002
308.001
308.001
308.001
308
308
308
308
308
308
308
308
308
308
308
308
308
308
308
308
308
)
;

boundaryField
{
    movingWall
    {
        type            zeroGradient;
    }
    fixedWalls
    {
        type            zeroGradient;
    }
    floor
    {
        type            fixedValue;
        value           uniform 310;
    }
    frontAndBack
    {
        type            empty;
    }
}


// ************************************************************************* //
