/*--------------------------------*- C++ -*----------------------------------*\
| =========                 |                                                 |
| \\      /  F ield         | OpenFOAM: The Open Source CFD Toolbox           |
|  \\    /   O peration     | Version:  2212                                  |
|   \\  /    A nd           | Website:  www.openfoam.com                      |
|    \\/     M anipulation  |                                                 |
\*---------------------------------------------------------------------------*/
FoamFile
{
    version     2.0;
    format      ascii;
    arch        "LSB;label=64;scalar=64";
    class       volScalarField;
    location    "1620";
    object      Gco2;
}
// * * * * * * * * * * * * * * * * * * * * * * * * * * * * * * * * * * * * * //

dimensions      [1 -3 0 0 0 0 0];

internalField   nonuniform List<scalar> 
1024
(
0.0592151
0.0591993
0.0591604
0.0590892
0.0589745
0.0588041
0.0585665
0.0582529
0.0578592
0.0573844
0.0568255
0.0561686
0.0553857
0.0544537
0.0534057
0.0523817
0.0516834
0.0514897
0.0516941
0.0521764
0.0528467
0.0536287
0.0544463
0.0552273
0.0559152
0.0564788
0.056911
0.0572222
0.057432
0.0575623
0.0576335
0.0576625
0.0592056
0.0591897
0.0591504
0.0590784
0.0589623
0.0587898
0.0585495
0.0582329
0.0578362
0.0573589
0.0567981
0.0561397
0.0553545
0.0544185
0.0533652
0.0523364
0.0516359
0.0514427
0.0516487
0.0521327
0.0528045
0.0535884
0.0544094
0.0551953
0.0558891
0.0564587
0.056896
0.0572111
0.0574235
0.0575553
0.0576273
0.0576565
0.0591824
0.0591661
0.059126
0.0590523
0.0589333
0.0587563
0.05851
0.0581861
0.0577817
0.0572974
0.0567312
0.0560685
0.0552778
0.0543326
0.0532662
0.0522244
0.0515177
0.0513274
0.0515415
0.0520344
0.0527136
0.053504
0.0543327
0.0551287
0.0558344
0.0564158
0.0568633
0.0571863
0.0574039
0.0575388
0.0576123
0.0576421
0.0591399
0.0591232
0.0590818
0.0590054
0.0588816
0.0586972
0.0584405
0.0581036
0.0576847
0.0571863
0.0566086
0.055937
0.0551364
0.0541749
0.0530843
0.0520169
0.0512984
0.0511167
0.0513521
0.0518693
0.0525686
0.0533745
0.0542174
0.055029
0.0557517
0.0563499
0.056812
0.057146
0.057371
0.0575104
0.0575861
0.0576168
0.059071
0.0590538
0.0590106
0.0589304
0.0587998
0.0586044
0.0583317
0.0579741
0.057531
0.0570081
0.0564096
0.0557218
0.0549044
0.0539168
0.052787
0.0516773
0.0509402
0.0507773
0.0510563
0.0516237
0.0523652
0.0532022
0.0540692
0.0549025
0.0556464
0.0562646
0.0567437
0.0570904
0.0573239
0.0574682
0.0575464
0.0575779
0.0589663
0.0589484
0.0589031
0.058818
0.0586779
0.0584671
0.0581715
0.057783
0.0573031
0.0567417
0.0561086
0.0553928
0.0545477
0.0535203
0.0523323
0.0511615
0.0504007
0.0502731
0.0506278
0.0512829
0.0521001
0.0529925
0.0538983
0.0547608
0.0555289
0.0561676
0.0566629
0.0570214
0.0572624
0.0574108
0.0574907
0.0575228
0.0588135
0.0587948
0.0587469
0.0586554
0.0585031
0.0582715
0.0579443
0.0575127
0.0569797
0.0563614
0.0556751
0.0549132
0.0540228
0.0529363
0.0516691
0.0504209
0.0496377
0.0495693
0.0500408
0.050832
0.0517697
0.0527515
0.0537168
0.0546182
0.0554124
0.0560688
0.056576
0.0569415
0.0571859
0.0573353
0.0574151
0.0574467
0.0585962
0.0585767
0.0585255
0.058426
0.0582581
0.0579995
0.0576307
0.0571411
0.056536
0.0558383
0.0550737
0.0542394
0.053277
0.0521063
0.0507404
0.0494091
0.0486157
0.0486367
0.0492701
0.0502517
0.0513639
0.0524785
0.0535308
0.0544836
0.0553051
0.0559738
0.0564842
0.0568478
0.057088
0.0572327
0.0573086
0.0573382
0.0582938
0.0582732
0.0582177
0.0581082
0.0579205
0.0576279
0.0572061
0.056642
0.0559432
0.0551393
0.0542653
0.0533228
0.0522518
0.0509676
0.0494916
0.0480886
0.0473087
0.0474467
0.0482785
0.0494991
0.0508422
0.052142
0.0533173
0.0543397
0.055192
0.0558666
0.0563691
0.0567186
0.0569435
0.0570748
0.0571412
0.0571659
0.0578811
0.0578588
0.0577979
0.0576757
0.0574633
0.0571282
0.0566408
0.0559845
0.0551682
0.0542283
0.0532077
0.0521142
0.0508924
0.049468
0.0478848
0.0464376
0.0456931
0.0459478
0.046976
0.0484551
0.0500754
0.0516203
0.0529699
0.0540944
0.0549913
0.0556715
0.0561571
0.0564798
0.0566763
0.0567831
0.0568319
0.0568475
0.0573316
0.0573071
0.057239
0.0571005
0.0568571
0.0564698
0.0559024
0.0551345
0.0541756
0.053068
0.0518625
0.0505756
0.0491669
0.0475889
0.0459178
0.0444545
0.0437315
0.0440311
0.0451666
0.0468412
0.0487371
0.0505788
0.0521774
0.053469
0.0544549
0.0551638
0.055639
0.0559304
0.0560885
0.0561596
0.0561818
0.0561837
0.0566257
0.0565983
0.0565209
0.0563618
0.0560803
0.0556297
0.0549672
0.0540687
0.0529445
0.0516418
0.0502206
0.048712
0.0471014
0.0453788
0.0436443
0.0421621
0.0413712
0.0415285
0.0425393
0.0441894
0.0462048
0.0482898
0.0501936
0.0517645
0.0529532
0.0537779
0.0542993
0.0545897
0.0547217
0.0547596
0.054754
0.0547405
0.0557635
0.0557326
0.0556444
0.0554615
0.0551359
0.0546137
0.0538457
0.0528048
0.0515026
0.0499925
0.0483469
0.0466192
0.0448273
0.0429927
0.0412094
0.0396562
0.0386347
0.0383679
0.0388811
0.0400845
0.0418126
0.0438275
0.0458727
0.0477282
0.0492468
0.0503606
0.0510935
0.0515106
0.0517037
0.0517622
0.0517579
0.0517408
0.0547775
0.0547433
0.0546447
0.0544385
0.0540702
0.0534785
0.0526092
0.0514331
0.0499644
0.0482649
0.0464238
0.0445209
0.0426053
0.0407142
0.0389069
0.0372523
0.0358971
0.0350028
0.0346737
0.0349418
0.0357876
0.0371113
0.0387494
0.0405064
0.0421851
0.0436235
0.0447298
0.0454811
0.0459245
0.0461428
0.0462231
0.046238
0.0537364
0.0537001
0.0535946
0.0533734
0.052977
0.0523394
0.0514019
0.0501336
0.0485509
0.0467243
0.0447617
0.0427716
0.0408329
0.0389928
0.0372769
0.0356651
0.0341547
0.0327737
0.0316124
0.0307784
0.0303773
0.0304594
0.031008
0.031944
0.0331371
0.0344225
0.0356279
0.0366232
0.0373433
0.0377916
0.0380213
0.0381033
0.0527381
0.0527014
0.0525961
0.0523762
0.0519824
0.0513477
0.0504111
0.0491382
0.0475432
0.0457002
0.0437323
0.0417789
0.0399562
0.0383384
0.0369492
0.0357286
0.0345399
0.0331753
0.0316265
0.0300353
0.0285911
0.0274484
0.0267027
0.0263882
0.0264808
0.0269014
0.0275265
0.0282111
0.0288227
0.0292774
0.029552
0.0296679
0.0519531
0.0519181
0.05182
0.0516186
0.0512603
0.0506829
0.0498266
0.0486533
0.0471695
0.0454423
0.0435982
0.0417987
0.0402001
0.0389192
0.0380096
0.0374151
0.0368953
0.0359908
0.0345319
0.0326519
0.0306027
0.028633
0.02693
0.0256059
0.0247012
0.0241976
0.0240299
0.0240994
0.024292
0.0245037
0.024664
0.0247432
0.0514699
0.051437
0.0513482
0.0511704
0.050859
0.0503598
0.049618
0.0485938
0.0472847
0.0457437
0.0440868
0.0424771
0.0410903
0.0400749
0.0395153
0.0393769
0.0393838
0.0389551
0.0377741
0.0358794
0.0335032
0.0309578
0.0285404
0.0264731
0.0248712
0.0237548
0.0230738
0.0227362
0.0226311
0.0226501
0.0227062
0.0227455
0.0512247
0.0511938
0.0511134
0.0509571
0.0506889
0.0502637
0.0496337
0.0487606
0.0476348
0.0462946
0.0448371
0.0434108
0.0421884
0.0413277
0.0409288
0.0409741
0.0411881
0.0409931
0.0400471
0.038298
0.0358759
0.0330441
0.0301317
0.0274594
0.0252495
0.0236007
0.0225017
0.021866
0.0215691
0.0214799
0.0214861
0.0215096
0.0511253
0.0510971
0.0510254
0.0508888
0.0506582
0.0502971
0.0497653
0.0490288
0.0480749
0.0469297
0.0456699
0.0444202
0.0433333
0.0425557
0.042184
0.042206
0.0423624
0.0421503
0.0412815
0.0396678
0.0373527
0.034503
0.0313927
0.0283592
0.0256974
0.0235925
0.0221004
0.02117
0.020682
0.0204901
0.0204545
0.0204683
0.0510784
0.0510556
0.050997
0.0508841
0.050692
0.0503899
0.0499448
0.0493281
0.0485276
0.0475614
0.0464872
0.0454019
0.0444273
0.0436823
0.0432438
0.0430902
0.0429972
0.0425856
0.0416473
0.0400889
0.0379035
0.0351764
0.0320982
0.0289498
0.0260367
0.0236065
0.0217881
0.0205856
0.0199071
0.0196067
0.0195259
0.0195297
0.0509624
0.050951
0.0509168
0.0508415
0.0507007
0.0504653
0.0501058
0.049598
0.048932
0.0481199
0.0472023
0.0462476
0.0453418
0.0445682
0.0439758
0.0435298
0.0430651
0.0423551
0.0412716
0.0397225
0.0376628
0.0351182
0.0322108
0.0291469
0.0261837
0.02358
0.0215247
0.0200891
0.0192281
0.0188145
0.0186833
0.0186755
0.0506219
0.0506312
0.0506391
0.0506253
0.0505608
0.0504122
0.0501473
0.0497423
0.0491869
0.0484875
0.0476694
0.0467756
0.0458603
0.0449758
0.044148
0.0433376
0.0424589
0.0414372
0.0402068
0.0386722
0.0367605
0.0344467
0.03179
0.028936
0.0260845
0.0234604
0.0212743
0.0196597
0.0186338
0.018106
0.0179189
0.0178973
0.0498877
0.0499288
0.049999
0.050072
0.050109
0.0500651
0.0498987
0.0495792
0.0490917
0.0484372
0.0476307
0.0467003
0.045682
0.0446111
0.0435045
0.04233
0.0410842
0.0398149
0.0384926
0.0370131
0.0352845
0.0332458
0.0309032
0.0283429
0.0257137
0.0231993
0.0209961
0.0192732
0.0181118
0.0174745
0.0172273
0.0171891
0.0486101
0.0486933
0.04884
0.04901
0.0491488
0.0491973
0.0491005
0.048817
0.0483266
0.0476299
0.0467423
0.045691
0.04451
0.0432318
0.041875
0.0404205
0.0389295
0.0375269
0.0361974
0.034827
0.0333142
0.0315794
0.0295921
0.0273878
0.0250624
0.0227577
0.0206443
0.0188974
0.0176456
0.0169126
0.016604
0.0165461
0.0466838
0.0468158
0.0470348
0.0472751
0.047465
0.0475371
0.0474318
0.0471013
0.0465275
0.0457193
0.0447016
0.0435093
0.042182
0.0407552
0.0392517
0.0376633
0.0360871
0.0346801
0.033429
0.0322164
0.0309405
0.0295182
0.0278998
0.0260845
0.0241217
0.0221066
0.020176
0.0184943
0.0172136
0.0164112
0.0160451
0.0159647
0.0440497
0.0442286
0.0444839
0.0447149
0.0448453
0.0448225
0.0446025
0.0441451
0.0434439
0.0425183
0.0414003
0.0401306
0.0387508
0.0372968
0.0357924
0.0342345
0.0327295
0.0314327
0.0303288
0.0293072
0.0282739
0.0271531
0.0258908
0.0244659
0.0228935
0.0212256
0.0195571
0.0180263
0.0167888
0.0159583
0.0155466
0.0154424
0.0406721
0.0408796
0.0410907
0.0411848
0.0411196
0.0408891
0.0404822
0.0398775
0.0390804
0.0381086
0.0369912
0.0357647
0.0344656
0.0331246
0.0317625
0.0303779
0.0290671
0.0279639
0.027052
0.0262363
0.0254379
0.0245937
0.0236553
0.0225946
0.021407
0.0201124
0.018764
0.0174609
0.0163418
0.0155373
0.0151032
0.0149776
0.0364983
0.0366857
0.0367301
0.0365615
0.0362222
0.0357607
0.0351929
0.0345114
0.0337186
0.0328191
0.0318297
0.0307749
0.0296812
0.0285709
0.0274598
0.0263466
0.0253078
0.0244466
0.0237483
0.0231389
0.0225579
0.0219577
0.0213001
0.0205593
0.0197231
0.0187934
0.0177916
0.0167748
0.015846
0.015129
0.0147077
0.0145685
0.0314142
0.0314861
0.0312515
0.0308078
0.0302699
0.0296958
0.0291008
0.0284762
0.0278133
0.027103
0.0263486
0.0255619
0.0247584
0.0239521
0.0231535
0.0223616
0.0216297
0.0210283
0.0205465
0.0201332
0.0197471
0.0193559
0.0189334
0.0184605
0.0179257
0.0173242
0.0166603
0.0159582
0.0152777
0.0147122
0.0143491
0.0142128
0.0252055
0.025056
0.0246159
0.0241178
0.0236225
0.0231507
0.0227057
0.0222749
0.0218447
0.0214023
0.0209437
0.0204723
0.0199952
0.0195198
0.0190517
0.0185906
0.0181668
0.0178203
0.0175445
0.0173105
0.017095
0.0168798
0.0166502
0.016395
0.0161071
0.0157822
0.015419
0.0150243
0.0146233
0.0142656
0.0140135
0.0139056
0.0176124
0.0174952
0.017269
0.0170519
0.0168518
0.01667
0.0165058
0.0163534
0.0162062
0.0160582
0.0159069
0.0157525
0.015597
0.0154426
0.015291
0.0151421
0.0150057
0.0148943
0.014806
0.0147314
0.0146633
0.0145958
0.0145242
0.0144452
0.0143564
0.0142562
0.0141441
0.0140211
0.0138931
0.0137737
0.0136825
0.0136383
)
;

boundaryField
{
    movingWall
    {
        type            fixedValue;
        value           uniform 0.0135;
    }
    fixedWalls
    {
        type            zeroGradient;
    }
    floor
    {
        type            zeroGradient;
    }
    frontAndBack
    {
        type            empty;
    }
}


// ************************************************************************* //
