/*--------------------------------*- C++ -*----------------------------------*\
| =========                 |                                                 |
| \\      /  F ield         | OpenFOAM: The Open Source CFD Toolbox           |
|  \\    /   O peration     | Version:  2212                                  |
|   \\  /    A nd           | Website:  www.openfoam.com                      |
|    \\/     M anipulation  |                                                 |
\*---------------------------------------------------------------------------*/
FoamFile
{
    version     2.0;
    format      ascii;
    arch        "LSB;label=64;scalar=64";
    class       volScalarField;
    location    "1620";
    object      Gh2;
}
// * * * * * * * * * * * * * * * * * * * * * * * * * * * * * * * * * * * * * //

dimensions      [1 -3 0 0 0 0 0];

internalField   nonuniform List<scalar> 
1024
(
1.28303e-05
1.28296e-05
1.28278e-05
1.28245e-05
1.28193e-05
1.28114e-05
1.28005e-05
1.27861e-05
1.27681e-05
1.27465e-05
1.27211e-05
1.26915e-05
1.26566e-05
1.26154e-05
1.25697e-05
1.25258e-05
1.24968e-05
1.249e-05
1.25003e-05
1.25226e-05
1.25531e-05
1.25886e-05
1.26258e-05
1.26614e-05
1.26929e-05
1.27187e-05
1.27386e-05
1.27529e-05
1.27625e-05
1.27685e-05
1.27718e-05
1.27732e-05
1.28299e-05
1.28292e-05
1.28274e-05
1.2824e-05
1.28187e-05
1.28108e-05
1.27997e-05
1.27852e-05
1.27671e-05
1.27453e-05
1.27199e-05
1.26902e-05
1.26552e-05
1.26139e-05
1.2568e-05
1.25238e-05
1.24948e-05
1.2488e-05
1.24984e-05
1.25207e-05
1.25513e-05
1.25869e-05
1.26242e-05
1.266e-05
1.26917e-05
1.27178e-05
1.27379e-05
1.27524e-05
1.27622e-05
1.27682e-05
1.27716e-05
1.27729e-05
1.28288e-05
1.28281e-05
1.28262e-05
1.28228e-05
1.28174e-05
1.28092e-05
1.27979e-05
1.27831e-05
1.27646e-05
1.27425e-05
1.27169e-05
1.26871e-05
1.26518e-05
1.26101e-05
1.25637e-05
1.2519e-05
1.24897e-05
1.24831e-05
1.24939e-05
1.25166e-05
1.25474e-05
1.25832e-05
1.26208e-05
1.26571e-05
1.26893e-05
1.27159e-05
1.27365e-05
1.27513e-05
1.27613e-05
1.27675e-05
1.27709e-05
1.27723e-05
1.28269e-05
1.28261e-05
1.28242e-05
1.28207e-05
1.2815e-05
1.28065e-05
1.27947e-05
1.27793e-05
1.27602e-05
1.27375e-05
1.27114e-05
1.26812e-05
1.26455e-05
1.26032e-05
1.25558e-05
1.25101e-05
1.24804e-05
1.24742e-05
1.24859e-05
1.25097e-05
1.25413e-05
1.25777e-05
1.26158e-05
1.26527e-05
1.26857e-05
1.2713e-05
1.27342e-05
1.27495e-05
1.27599e-05
1.27663e-05
1.27698e-05
1.27712e-05
1.28237e-05
1.28229e-05
1.28209e-05
1.28172e-05
1.28112e-05
1.28023e-05
1.27898e-05
1.27734e-05
1.27532e-05
1.27295e-05
1.27024e-05
1.26716e-05
1.26353e-05
1.25919e-05
1.25428e-05
1.24955e-05
1.24652e-05
1.246e-05
1.24736e-05
1.24995e-05
1.25328e-05
1.25704e-05
1.26095e-05
1.26473e-05
1.26811e-05
1.27093e-05
1.27312e-05
1.27471e-05
1.27578e-05
1.27645e-05
1.27681e-05
1.27695e-05
1.28188e-05
1.2818e-05
1.28159e-05
1.2812e-05
1.28056e-05
1.2796e-05
1.27824e-05
1.27647e-05
1.27429e-05
1.27174e-05
1.26889e-05
1.26569e-05
1.26195e-05
1.25745e-05
1.25231e-05
1.24734e-05
1.24424e-05
1.24389e-05
1.24559e-05
1.24854e-05
1.25219e-05
1.25617e-05
1.26024e-05
1.26413e-05
1.26761e-05
1.27052e-05
1.27278e-05
1.27442e-05
1.27552e-05
1.2762e-05
1.27657e-05
1.27672e-05
1.28118e-05
1.28109e-05
1.28087e-05
1.28045e-05
1.27976e-05
1.2787e-05
1.27721e-05
1.27524e-05
1.27282e-05
1.27003e-05
1.26695e-05
1.26355e-05
1.25963e-05
1.25489e-05
1.24944e-05
1.24418e-05
1.24102e-05
1.24096e-05
1.24317e-05
1.24671e-05
1.25086e-05
1.25521e-05
1.25951e-05
1.26355e-05
1.26713e-05
1.27011e-05
1.27242e-05
1.27408e-05
1.2752e-05
1.27589e-05
1.27625e-05
1.2764e-05
1.28017e-05
1.28008e-05
1.27985e-05
1.2794e-05
1.27863e-05
1.27745e-05
1.27577e-05
1.27355e-05
1.27081e-05
1.26767e-05
1.26425e-05
1.26056e-05
1.25634e-05
1.25127e-05
1.24543e-05
1.23986e-05
1.23672e-05
1.23709e-05
1.24002e-05
1.24437e-05
1.24925e-05
1.25415e-05
1.2588e-05
1.26304e-05
1.26672e-05
1.26974e-05
1.27205e-05
1.2737e-05
1.2748e-05
1.27546e-05
1.27581e-05
1.27595e-05
1.27878e-05
1.27868e-05
1.27843e-05
1.27793e-05
1.27708e-05
1.27575e-05
1.27384e-05
1.27128e-05
1.26813e-05
1.26453e-05
1.26064e-05
1.25649e-05
1.25183e-05
1.24631e-05
1.24005e-05
1.23424e-05
1.23124e-05
1.23216e-05
1.23597e-05
1.24135e-05
1.2472e-05
1.25286e-05
1.25801e-05
1.26253e-05
1.26632e-05
1.26934e-05
1.27161e-05
1.27319e-05
1.27421e-05
1.27482e-05
1.27512e-05
1.27524e-05
1.27687e-05
1.27677e-05
1.2765e-05
1.27594e-05
1.27498e-05
1.27346e-05
1.27126e-05
1.2683e-05
1.26464e-05
1.26045e-05
1.25594e-05
1.25115e-05
1.24588e-05
1.2398e-05
1.23315e-05
1.22724e-05
1.22447e-05
1.22596e-05
1.23063e-05
1.23713e-05
1.24416e-05
1.25084e-05
1.25671e-05
1.26163e-05
1.26558e-05
1.2686e-05
1.27077e-05
1.27223e-05
1.27312e-05
1.27361e-05
1.27384e-05
1.27391e-05
1.27434e-05
1.27423e-05
1.27393e-05
1.2733e-05
1.2722e-05
1.27046e-05
1.2679e-05
1.26446e-05
1.26018e-05
1.25526e-05
1.24997e-05
1.24438e-05
1.23834e-05
1.23167e-05
1.22474e-05
1.21885e-05
1.21626e-05
1.21799e-05
1.22317e-05
1.23051e-05
1.23872e-05
1.24665e-05
1.25354e-05
1.25914e-05
1.26344e-05
1.26655e-05
1.26865e-05
1.26995e-05
1.27067e-05
1.271e-05
1.27111e-05
1.27112e-05
1.27109e-05
1.27097e-05
1.27063e-05
1.26991e-05
1.26865e-05
1.26663e-05
1.26366e-05
1.25965e-05
1.25466e-05
1.24891e-05
1.2427e-05
1.2362e-05
1.22935e-05
1.22214e-05
1.21503e-05
1.20915e-05
1.20634e-05
1.20752e-05
1.21221e-05
1.21948e-05
1.2282e-05
1.23715e-05
1.24532e-05
1.25206e-05
1.25719e-05
1.26076e-05
1.26303e-05
1.2643e-05
1.26489e-05
1.26507e-05
1.26506e-05
1.265e-05
1.26713e-05
1.267e-05
1.2666e-05
1.26579e-05
1.26434e-05
1.26201e-05
1.25858e-05
1.25396e-05
1.24821e-05
1.24158e-05
1.23444e-05
1.22704e-05
1.21947e-05
1.21185e-05
1.2046e-05
1.19849e-05
1.19475e-05
1.19419e-05
1.19682e-05
1.20225e-05
1.20978e-05
1.21844e-05
1.22718e-05
1.23509e-05
1.24156e-05
1.24632e-05
1.24945e-05
1.25124e-05
1.25207e-05
1.25233e-05
1.25232e-05
1.25224e-05
1.2626e-05
1.26245e-05
1.26202e-05
1.26111e-05
1.25947e-05
1.25685e-05
1.25299e-05
1.24779e-05
1.24133e-05
1.2339e-05
1.22594e-05
1.21782e-05
1.20977e-05
1.20195e-05
1.19463e-05
1.18812e-05
1.18301e-05
1.17987e-05
1.17905e-05
1.18062e-05
1.1845e-05
1.19028e-05
1.19729e-05
1.20474e-05
1.21183e-05
1.21789e-05
1.22255e-05
1.22572e-05
1.22758e-05
1.2285e-05
1.22884e-05
1.2289e-05
1.25782e-05
1.25766e-05
1.2572e-05
1.25622e-05
1.25447e-05
1.25165e-05
1.24751e-05
1.24192e-05
1.23497e-05
1.227e-05
1.21852e-05
1.21003e-05
1.20187e-05
1.19426e-05
1.18731e-05
1.18095e-05
1.17521e-05
1.17013e-05
1.16597e-05
1.16311e-05
1.16194e-05
1.16264e-05
1.16514e-05
1.16916e-05
1.17416e-05
1.17951e-05
1.18451e-05
1.18862e-05
1.19159e-05
1.19344e-05
1.19439e-05
1.19472e-05
1.25319e-05
1.25304e-05
1.25258e-05
1.25162e-05
1.24989e-05
1.24709e-05
1.24295e-05
1.23734e-05
1.23033e-05
1.22228e-05
1.21374e-05
1.20535e-05
1.19762e-05
1.19087e-05
1.18521e-05
1.18041e-05
1.17597e-05
1.17103e-05
1.16545e-05
1.15971e-05
1.15451e-05
1.15042e-05
1.14779e-05
1.14677e-05
1.14728e-05
1.14903e-05
1.15155e-05
1.15429e-05
1.15673e-05
1.15853e-05
1.15963e-05
1.16008e-05
1.24949e-05
1.24935e-05
1.24892e-05
1.24805e-05
1.24647e-05
1.24393e-05
1.24015e-05
1.23496e-05
1.22841e-05
1.22082e-05
1.21274e-05
1.20492e-05
1.19802e-05
1.19256e-05
1.18875e-05
1.18641e-05
1.1846e-05
1.1815e-05
1.17636e-05
1.16964e-05
1.16228e-05
1.15519e-05
1.14904e-05
1.14423e-05
1.14093e-05
1.13906e-05
1.13842e-05
1.13865e-05
1.13933e-05
1.1401e-05
1.14068e-05
1.14097e-05
1.24713e-05
1.24699e-05
1.24661e-05
1.24584e-05
1.24448e-05
1.24228e-05
1.23899e-05
1.23445e-05
1.22864e-05
1.22181e-05
1.21448e-05
1.20738e-05
1.20127e-05
1.19679e-05
1.1943e-05
1.19368e-05
1.19388e-05
1.19257e-05
1.18847e-05
1.18171e-05
1.17315e-05
1.16398e-05
1.15527e-05
1.14782e-05
1.14205e-05
1.13799e-05
1.13549e-05
1.1342e-05
1.13375e-05
1.13375e-05
1.13391e-05
1.13403e-05
1.24583e-05
1.2457e-05
1.24536e-05
1.24468e-05
1.24351e-05
1.24164e-05
1.23885e-05
1.23497e-05
1.22995e-05
1.22396e-05
1.21745e-05
1.21106e-05
1.20557e-05
1.20165e-05
1.19973e-05
1.19978e-05
1.20073e-05
1.20027e-05
1.19702e-05
1.19077e-05
1.18202e-05
1.17177e-05
1.16125e-05
1.15161e-05
1.14366e-05
1.13772e-05
1.13375e-05
1.13143e-05
1.1303e-05
1.12992e-05
1.1299e-05
1.12996e-05
1.2452e-05
1.24508e-05
1.24478e-05
1.24419e-05
1.24319e-05
1.2416e-05
1.23924e-05
1.23596e-05
1.23168e-05
1.22654e-05
1.22086e-05
1.2152e-05
1.21024e-05
1.20662e-05
1.20477e-05
1.20468e-05
1.20536e-05
1.20479e-05
1.20179e-05
1.19601e-05
1.18761e-05
1.17727e-05
1.166e-05
1.15505e-05
1.14547e-05
1.13791e-05
1.13255e-05
1.12919e-05
1.1274e-05
1.12666e-05
1.12649e-05
1.12652e-05
1.24485e-05
1.24476e-05
1.24451e-05
1.24402e-05
1.24318e-05
1.24185e-05
1.23987e-05
1.23711e-05
1.23351e-05
1.22915e-05
1.22427e-05
1.21932e-05
1.21484e-05
1.21135e-05
1.20923e-05
1.20843e-05
1.20811e-05
1.20673e-05
1.20341e-05
1.19778e-05
1.18983e-05
1.17989e-05
1.16871e-05
1.15733e-05
1.14684e-05
1.13812e-05
1.1316e-05
1.12729e-05
1.12484e-05
1.12373e-05
1.1234e-05
1.12339e-05
1.2443e-05
1.24424e-05
1.24409e-05
1.24375e-05
1.24312e-05
1.24207e-05
1.24046e-05
1.23818e-05
1.23518e-05
1.23149e-05
1.22732e-05
1.22296e-05
1.21881e-05
1.21526e-05
1.21256e-05
1.21062e-05
1.20883e-05
1.20626e-05
1.20233e-05
1.19669e-05
1.18915e-05
1.17985e-05
1.16927e-05
1.15817e-05
1.14749e-05
1.13815e-05
1.1308e-05
1.12567e-05
1.12258e-05
1.12108e-05
1.12058e-05
1.12053e-05
1.24292e-05
1.24295e-05
1.24295e-05
1.24286e-05
1.24253e-05
1.24183e-05
1.24062e-05
1.23878e-05
1.23627e-05
1.23311e-05
1.22942e-05
1.2254e-05
1.22131e-05
1.21739e-05
1.21382e-05
1.21048e-05
1.20707e-05
1.20326e-05
1.19873e-05
1.19308e-05
1.18606e-05
1.17758e-05
1.16788e-05
1.15753e-05
1.14724e-05
1.13783e-05
1.13002e-05
1.12426e-05
1.1206e-05
1.11871e-05
1.11801e-05
1.11791e-05
1.24007e-05
1.24022e-05
1.24047e-05
1.2407e-05
1.24077e-05
1.24049e-05
1.23968e-05
1.23821e-05
1.23603e-05
1.23313e-05
1.22958e-05
1.22553e-05
1.22114e-05
1.21659e-05
1.212e-05
1.20728e-05
1.20245e-05
1.19765e-05
1.19272e-05
1.18724e-05
1.18086e-05
1.17337e-05
1.16481e-05
1.15551e-05
1.14601e-05
1.13699e-05
1.12912e-05
1.12299e-05
1.11886e-05
1.11658e-05
1.11569e-05
1.11553e-05
1.23518e-05
1.23549e-05
1.23603e-05
1.23663e-05
1.2371e-05
1.23718e-05
1.23666e-05
1.23538e-05
1.23324e-05
1.23026e-05
1.22651e-05
1.2221e-05
1.21719e-05
1.21193e-05
1.20644e-05
1.20068e-05
1.1949e-05
1.18957e-05
1.18457e-05
1.17947e-05
1.17386e-05
1.16747e-05
1.1602e-05
1.15218e-05
1.14377e-05
1.1355e-05
1.12795e-05
1.12174e-05
1.1173e-05
1.1147e-05
1.11359e-05
1.11337e-05
1.22786e-05
1.22835e-05
1.22916e-05
1.23004e-05
1.2307e-05
1.23089e-05
1.23036e-05
1.22894e-05
1.22655e-05
1.22322e-05
1.21906e-05
1.21421e-05
1.20884e-05
1.2031e-05
1.19711e-05
1.19087e-05
1.18477e-05
1.1794e-05
1.17468e-05
1.17014e-05
1.16539e-05
1.16014e-05
1.15421e-05
1.1476e-05
1.1405e-05
1.13325e-05
1.12636e-05
1.12038e-05
1.11585e-05
1.11301e-05
1.11171e-05
1.11141e-05
1.21788e-05
1.21855e-05
1.2195e-05
1.22035e-05
1.22079e-05
1.22064e-05
1.2197e-05
1.21784e-05
1.21502e-05
1.21132e-05
1.20685e-05
1.20179e-05
1.1963e-05
1.19054e-05
1.1846e-05
1.17851e-05
1.1727e-05
1.16774e-05
1.16356e-05
1.15972e-05
1.15586e-05
1.15172e-05
1.14708e-05
1.14188e-05
1.13619e-05
1.13019e-05
1.12422e-05
1.11878e-05
1.11441e-05
1.11148e-05
1.11003e-05
1.10965e-05
1.20513e-05
1.20591e-05
1.20669e-05
1.20703e-05
1.20674e-05
1.20582e-05
1.20421e-05
1.20183e-05
1.19869e-05
1.19487e-05
1.19048e-05
1.18565e-05
1.18054e-05
1.17527e-05
1.16993e-05
1.16454e-05
1.15947e-05
1.15525e-05
1.15178e-05
1.14871e-05
1.14572e-05
1.14259e-05
1.13914e-05
1.13527e-05
1.13096e-05
1.1263e-05
1.12148e-05
1.11685e-05
1.11289e-05
1.11006e-05
1.10854e-05
1.10809e-05
1.18941e-05
1.19012e-05
1.19027e-05
1.18963e-05
1.18832e-05
1.18655e-05
1.18435e-05
1.18172e-05
1.17864e-05
1.17514e-05
1.17129e-05
1.16717e-05
1.1629e-05
1.15856e-05
1.15422e-05
1.14988e-05
1.14587e-05
1.14257e-05
1.13991e-05
1.13761e-05
1.13543e-05
1.1332e-05
1.13078e-05
1.12807e-05
1.12503e-05
1.12168e-05
1.1181e-05
1.11448e-05
1.1112e-05
1.10869e-05
1.10721e-05
1.10672e-05
1.17031e-05
1.17058e-05
1.16969e-05
1.16802e-05
1.16598e-05
1.16379e-05
1.16152e-05
1.15913e-05
1.15657e-05
1.15383e-05
1.15091e-05
1.14785e-05
1.14472e-05
1.14158e-05
1.13847e-05
1.13539e-05
1.13256e-05
1.13025e-05
1.12841e-05
1.12685e-05
1.1254e-05
1.12394e-05
1.12238e-05
1.12065e-05
1.11871e-05
1.11654e-05
1.11416e-05
1.11166e-05
1.10926e-05
1.10728e-05
1.10601e-05
1.10554e-05
1.14702e-05
1.14646e-05
1.14481e-05
1.14293e-05
1.14106e-05
1.13928e-05
1.13759e-05
1.13594e-05
1.13429e-05
1.13259e-05
1.13082e-05
1.12899e-05
1.12714e-05
1.12529e-05
1.12347e-05
1.12167e-05
1.12004e-05
1.1187e-05
1.11765e-05
1.11676e-05
1.11595e-05
1.11515e-05
1.1143e-05
1.11337e-05
1.11232e-05
1.11115e-05
1.10984e-05
1.10844e-05
1.10702e-05
1.10577e-05
1.10489e-05
1.10452e-05
1.11858e-05
1.11814e-05
1.11729e-05
1.11648e-05
1.11573e-05
1.11504e-05
1.11442e-05
1.11384e-05
1.11327e-05
1.1127e-05
1.11212e-05
1.11152e-05
1.11092e-05
1.11032e-05
1.10973e-05
1.10915e-05
1.10862e-05
1.10819e-05
1.10786e-05
1.10757e-05
1.10732e-05
1.10706e-05
1.1068e-05
1.10651e-05
1.10619e-05
1.10582e-05
1.10542e-05
1.10498e-05
1.10453e-05
1.10411e-05
1.1038e-05
1.10365e-05
)
;

boundaryField
{
    movingWall
    {
        type            fixedValue;
        value           uniform 1.1032e-05;
    }
    fixedWalls
    {
        type            zeroGradient;
    }
    floor
    {
        type            zeroGradient;
    }
    frontAndBack
    {
        type            empty;
    }
}


// ************************************************************************* //
