/*--------------------------------*- C++ -*----------------------------------*\
| =========                 |                                                 |
| \\      /  F ield         | OpenFOAM: The Open Source CFD Toolbox           |
|  \\    /   O peration     | Version:  2212                                  |
|   \\  /    A nd           | Website:  www.openfoam.com                      |
|    \\/     M anipulation  |                                                 |
\*---------------------------------------------------------------------------*/
FoamFile
{
    version     2.0;
    format      ascii;
    arch        "LSB;label=64;scalar=64";
    class       volScalarField;
    location    "1620";
    object      p;
}
// * * * * * * * * * * * * * * * * * * * * * * * * * * * * * * * * * * * * * //

dimensions      [0 2 -2 0 0 0 0];

internalField   nonuniform List<scalar> 
1024
(
0
-6.99478e-07
-1.39727e-06
-1.36774e-06
5.29375e-08
3.35108e-06
8.68772e-06
1.56116e-05
2.26476e-05
2.70716e-05
2.66906e-05
2.28976e-05
2.11756e-05
2.65228e-05
4.01838e-05
5.54547e-05
5.21545e-05
1.88151e-05
-3.50189e-05
-9.19439e-05
-0.000136508
-0.000164864
-0.000180773
-0.000189097
-0.000193252
-0.000195199
-0.00019587
-0.000195612
-0.000194598
-0.000193125
-0.00019168
-0.000190844
-0.0928115
-0.0928123
-0.0928129
-0.0928128
-0.0928115
-0.0928086
-0.0928038
-0.0927976
-0.0927911
-0.092787
-0.0927871
-0.0927902
-0.0927914
-0.0927861
-0.0927732
-0.0927591
-0.0927632
-0.0927966
-0.0928499
-0.0929059
-0.0929495
-0.092977
-0.0929923
-0.0930002
-0.0930041
-0.0930058
-0.0930064
-0.0930061
-0.0930052
-0.093004
-0.0930028
-0.0930019
-0.199425
-0.199426
-0.199427
-0.199427
-0.199426
-0.199424
-0.19942
-0.199414
-0.199408
-0.199405
-0.199405
-0.199407
-0.199407
-0.199402
-0.19939
-0.199378
-0.199383
-0.199417
-0.19947
-0.199525
-0.199567
-0.199593
-0.199607
-0.199614
-0.199618
-0.199619
-0.199619
-0.199618
-0.199618
-0.199617
-0.199615
-0.199614
-0.321895
-0.321896
-0.321897
-0.321897
-0.321897
-0.321895
-0.321892
-0.321887
-0.321882
-0.321879
-0.321879
-0.32188
-0.32188
-0.321875
-0.321864
-0.321854
-0.321861
-0.321895
-0.321948
-0.322002
-0.322043
-0.322068
-0.32208
-0.322085
-0.322087
-0.322087
-0.322087
-0.322086
-0.322085
-0.322084
-0.322082
-0.322081
-0.46258
-0.462581
-0.462582
-0.462583
-0.462583
-0.462581
-0.462579
-0.462575
-0.462571
-0.462569
-0.462569
-0.462569
-0.462568
-0.462562
-0.462553
-0.462547
-0.462557
-0.462592
-0.462644
-0.462697
-0.462737
-0.46276
-0.46277
-0.462773
-0.462773
-0.462771
-0.462769
-0.462768
-0.462766
-0.462765
-0.462763
-0.46276
-0.624189
-0.62419
-0.624191
-0.624192
-0.624193
-0.624192
-0.62419
-0.624188
-0.624185
-0.624183
-0.624183
-0.624183
-0.62418
-0.624175
-0.624167
-0.624165
-0.624179
-0.624215
-0.624267
-0.624321
-0.624359
-0.62438
-0.624386
-0.624386
-0.624383
-0.62438
-0.624376
-0.624373
-0.624371
-0.624369
-0.624366
-0.624364
-0.809835
-0.809836
-0.809837
-0.809838
-0.809839
-0.809839
-0.809838
-0.809837
-0.809835
-0.809834
-0.809834
-0.809834
-0.80983
-0.809825
-0.809819
-0.809822
-0.80984
-0.809878
-0.80993
-0.809984
-0.810022
-0.81004
-0.810043
-0.810039
-0.810033
-0.810026
-0.81002
-0.810016
-0.810013
-0.81001
-0.810007
-0.810005
-1.02309
-1.02309
-1.02309
-1.0231
-1.0231
-1.0231
-1.0231
-1.0231
-1.0231
-1.0231
-1.0231
-1.0231
-1.02309
-1.02309
-1.02309
-1.02309
-1.02311
-1.02315
-1.02321
-1.02326
-1.0233
-1.02331
-1.02331
-1.0233
-1.02329
-1.02328
-1.02328
-1.02327
-1.02327
-1.02326
-1.02326
-1.02326
-1.26807
-1.26807
-1.26807
-1.26807
-1.26807
-1.26807
-1.26807
-1.26807
-1.26807
-1.26808
-1.26808
-1.26808
-1.26807
-1.26807
-1.26807
-1.26808
-1.26811
-1.26815
-1.2682
-1.26825
-1.26829
-1.2683
-1.2683
-1.26829
-1.26827
-1.26826
-1.26825
-1.26824
-1.26824
-1.26823
-1.26823
-1.26823
-1.54948
-1.54948
-1.54948
-1.54948
-1.54948
-1.54948
-1.54948
-1.54948
-1.54949
-1.54949
-1.54949
-1.54949
-1.54949
-1.54949
-1.5495
-1.54951
-1.54953
-1.54957
-1.54962
-1.54967
-1.5497
-1.54971
-1.54971
-1.54969
-1.54968
-1.54966
-1.54965
-1.54964
-1.54964
-1.54964
-1.54964
-1.54963
-1.87274
-1.87274
-1.87274
-1.87274
-1.87274
-1.87274
-1.87274
-1.87275
-1.87275
-1.87276
-1.87276
-1.87277
-1.87277
-1.87277
-1.87278
-1.8728
-1.87282
-1.87285
-1.87289
-1.87293
-1.87295
-1.87296
-1.87295
-1.87293
-1.87292
-1.8729
-1.87289
-1.87289
-1.87288
-1.87288
-1.87288
-1.87288
-2.24408
-2.24408
-2.24408
-2.24408
-2.24408
-2.24408
-2.24408
-2.24409
-2.24409
-2.2441
-2.24411
-2.24412
-2.24413
-2.24414
-2.24415
-2.24417
-2.24419
-2.24421
-2.24423
-2.24425
-2.24426
-2.24426
-2.24424
-2.24422
-2.24421
-2.2442
-2.24419
-2.24418
-2.24418
-2.24418
-2.24418
-2.24418
-2.67065
-2.67065
-2.67065
-2.67065
-2.67065
-2.67065
-2.67066
-2.67066
-2.67067
-2.67068
-2.67069
-2.67071
-2.67072
-2.67074
-2.67076
-2.67078
-2.6708
-2.67081
-2.67082
-2.67081
-2.67079
-2.67077
-2.67074
-2.67072
-2.6707
-2.67069
-2.67069
-2.67069
-2.67069
-2.67069
-2.67069
-2.67069
-3.16067
-3.16067
-3.16067
-3.16067
-3.16067
-3.16067
-3.16068
-3.16068
-3.16069
-3.16071
-3.16072
-3.16074
-3.16077
-3.16079
-3.16082
-3.16085
-3.16087
-3.16088
-3.16087
-3.16084
-3.1608
-3.16075
-3.1607
-3.16066
-3.16064
-3.16063
-3.16062
-3.16063
-3.16063
-3.16063
-3.16064
-3.16064
-3.72358
-3.72358
-3.72358
-3.72358
-3.72358
-3.72359
-3.72359
-3.7236
-3.72361
-3.72363
-3.72365
-3.72368
-3.72371
-3.72374
-3.72378
-3.72382
-3.72384
-3.72385
-3.72383
-3.72379
-3.72373
-3.72367
-3.72361
-3.72356
-3.72352
-3.7235
-3.72349
-3.72349
-3.72349
-3.72349
-3.7235
-3.7235
-4.37022
-4.37022
-4.37022
-4.37022
-4.37023
-4.37023
-4.37024
-4.37025
-4.37027
-4.37028
-4.37031
-4.37034
-4.37038
-4.37042
-4.37047
-4.37051
-4.37054
-4.37055
-4.37053
-4.37049
-4.37043
-4.37037
-4.3703
-4.37024
-4.37019
-4.37016
-4.37014
-4.37014
-4.37014
-4.37014
-4.37015
-4.37015
-5.06163
-5.06163
-5.06163
-5.06163
-5.06164
-5.06164
-5.06165
-5.06166
-5.06168
-5.0617
-5.06173
-5.06177
-5.06181
-5.06186
-5.06191
-5.06196
-5.06199
-5.062
-5.06199
-5.06195
-5.06191
-5.06185
-5.06179
-5.06173
-5.06167
-5.06163
-5.06161
-5.0616
-5.06159
-5.0616
-5.0616
-5.06161
-5.70828
-5.70828
-5.70828
-5.70828
-5.70829
-5.70829
-5.7083
-5.70832
-5.70833
-5.70836
-5.70839
-5.70842
-5.70847
-5.70852
-5.70858
-5.70863
-5.70867
-5.70867
-5.70866
-5.70864
-5.7086
-5.70856
-5.70851
-5.70845
-5.7084
-5.70835
-5.70832
-5.70831
-5.7083
-5.7083
-5.70831
-5.70831
-6.27121
-6.27121
-6.27121
-6.27121
-6.27121
-6.27122
-6.27123
-6.27124
-6.27126
-6.27129
-6.27132
-6.27135
-6.2714
-6.27145
-6.27151
-6.27157
-6.2716
-6.27161
-6.2716
-6.27158
-6.27155
-6.27152
-6.27148
-6.27143
-6.27138
-6.27134
-6.2713
-6.27128
-6.27127
-6.27127
-6.27128
-6.27129
-6.76125
-6.76125
-6.76125
-6.76125
-6.76126
-6.76126
-6.76127
-6.76128
-6.7613
-6.76132
-6.76135
-6.76139
-6.76144
-6.7615
-6.76156
-6.76162
-6.76165
-6.76166
-6.76165
-6.76162
-6.7616
-6.76157
-6.76154
-6.7615
-6.76145
-6.76141
-6.76137
-6.76134
-6.76133
-6.76133
-6.76134
-6.76134
-7.18785
-7.18785
-7.18785
-7.18785
-7.18785
-7.18785
-7.18786
-7.18787
-7.18789
-7.18791
-7.18794
-7.18798
-7.18803
-7.18809
-7.18815
-7.18822
-7.18825
-7.18826
-7.18825
-7.18822
-7.18819
-7.18816
-7.18813
-7.18809
-7.18805
-7.188
-7.18796
-7.18792
-7.18791
-7.1879
-7.18791
-7.18792
-7.55922
-7.55922
-7.55921
-7.55921
-7.55921
-7.55922
-7.55922
-7.55923
-7.55924
-7.55926
-7.55929
-7.55933
-7.55939
-7.55945
-7.55952
-7.55959
-7.55963
-7.55963
-7.55962
-7.55959
-7.55955
-7.55951
-7.55947
-7.55943
-7.55938
-7.55933
-7.55928
-7.55923
-7.55921
-7.5592
-7.5592
-7.55921
-7.88251
-7.88251
-7.88251
-7.8825
-7.8825
-7.8825
-7.8825
-7.8825
-7.88251
-7.88253
-7.88256
-7.88261
-7.88267
-7.88273
-7.88281
-7.88288
-7.88292
-7.88293
-7.88292
-7.88288
-7.88284
-7.88279
-7.88274
-7.88268
-7.88262
-7.88255
-7.88248
-7.88242
-7.88238
-7.88236
-7.88236
-7.88237
-8.16395
-8.16395
-8.16395
-8.16394
-8.16394
-8.16393
-8.16393
-8.16392
-8.16393
-8.16395
-8.16398
-8.16403
-8.16409
-8.16417
-8.16425
-8.16432
-8.16437
-8.16438
-8.16436
-8.16433
-8.16428
-8.16422
-8.16415
-8.16407
-8.16399
-8.16389
-8.1638
-8.16371
-8.16364
-8.1636
-8.1636
-8.16361
-8.40896
-8.40896
-8.40896
-8.40895
-8.40894
-8.40893
-8.40892
-8.40891
-8.40891
-8.40892
-8.40896
-8.40901
-8.40908
-8.40916
-8.40925
-8.40933
-8.40938
-8.40939
-8.40937
-8.40934
-8.40928
-8.40922
-8.40913
-8.40903
-8.40891
-8.40877
-8.40864
-8.40851
-8.4084
-8.40833
-8.40831
-8.40832
-8.62225
-8.62226
-8.62226
-8.62225
-8.62223
-8.62221
-8.62219
-8.62217
-8.62217
-8.62219
-8.62223
-8.62228
-8.62236
-8.62245
-8.62254
-8.62262
-8.62267
-8.62269
-8.62267
-8.62263
-8.62257
-8.6225
-8.62239
-8.62226
-8.6221
-8.62192
-8.62173
-8.62154
-8.62138
-8.62126
-8.62121
-8.6212
-8.80795
-8.80796
-8.80795
-8.80794
-8.80791
-8.80788
-8.80785
-8.80783
-8.80782
-8.80784
-8.80788
-8.80795
-8.80803
-8.80812
-8.80821
-8.8083
-8.80835
-8.80837
-8.80836
-8.80832
-8.80825
-8.80816
-8.80804
-8.80789
-8.80769
-8.80745
-8.80719
-8.80692
-8.80668
-8.80649
-8.80638
-8.80634
-8.96964
-8.96964
-8.96963
-8.9696
-8.96956
-8.96951
-8.96947
-8.96945
-8.96944
-8.96946
-8.96951
-8.96958
-8.96966
-8.96976
-8.96985
-8.96994
-8.97
-8.97002
-8.97
-8.96996
-8.96989
-8.9698
-8.96966
-8.96948
-8.96924
-8.96895
-8.96861
-8.96825
-8.9679
-8.9676
-8.9674
-8.9673
-9.11044
-9.11043
-9.1104
-9.11034
-9.11028
-9.11022
-9.11017
-9.11015
-9.11014
-9.11016
-9.11021
-9.11028
-9.11037
-9.11047
-9.11057
-9.11066
-9.11072
-9.11074
-9.11072
-9.11068
-9.11061
-9.11051
-9.11036
-9.11016
-9.10989
-9.10955
-9.10914
-9.10869
-9.1082
-9.10774
-9.10739
-9.10716
-9.23314
-9.23306
-9.23296
-9.23286
-9.23278
-9.23271
-9.23266
-9.23263
-9.23262
-9.23265
-9.2327
-9.23278
-9.23287
-9.23297
-9.23307
-9.23316
-9.23322
-9.23324
-9.23323
-9.23319
-9.23311
-9.233
-9.23285
-9.23263
-9.23234
-9.23197
-9.23151
-9.23097
-9.23034
-9.22967
-9.22904
-9.22849
-9.34028
-9.33989
-9.33965
-9.3395
-9.3394
-9.33932
-9.33927
-9.33924
-9.33925
-9.33928
-9.33933
-9.33941
-9.33951
-9.33961
-9.33971
-9.33981
-9.33987
-9.33989
-9.33988
-9.33983
-9.33976
-9.33965
-9.33949
-9.33927
-9.33897
-9.33858
-9.33809
-9.33749
-9.33675
-9.33584
-9.33473
-9.33348
-9.43414
-9.4329
-9.43244
-9.43229
-9.4322
-9.43213
-9.43208
-9.43206
-9.43207
-9.4321
-9.43216
-9.43224
-9.43234
-9.43244
-9.43255
-9.43265
-9.43271
-9.43273
-9.43272
-9.43267
-9.4326
-9.43249
-9.43233
-9.43211
-9.4318
-9.43141
-9.43091
-9.43029
-9.42948
-9.42838
-9.42677
-9.42451
)
;

boundaryField
{
    movingWall
    {
        type            calculated;
        value           nonuniform List<scalar> 
32
(
-9.47735
-9.47611
-9.47565
-9.4755
-9.4754
-9.47533
-9.47529
-9.47527
-9.47527
-9.47531
-9.47537
-9.47545
-9.47555
-9.47565
-9.47576
-9.47585
-9.47592
-9.47594
-9.47593
-9.47588
-9.47581
-9.4757
-9.47554
-9.47531
-9.47501
-9.47462
-9.47412
-9.4735
-9.47269
-9.47159
-9.46998
-9.46772
)
;
    }
    fixedWalls
    {
        type            calculated;
        value           nonuniform List<scalar> 
64
(
6.93889e-18
-0.0928115
-0.199425
-0.321895
-0.46258
-0.624189
-0.809835
-1.02309
-1.26807
-1.54948
-1.87274
-2.24408
-2.67065
-3.16067
-3.72358
-4.37022
-5.06163
-5.70828
-6.27121
-6.76125
-7.18785
-7.55922
-7.88251
-8.16395
-8.40896
-8.62225
-8.80795
-8.96964
-9.11044
-9.23314
-9.34028
-9.43414
-0.000190844
-0.0930019
-0.199614
-0.322081
-0.46276
-0.624364
-0.810005
-1.02326
-1.26823
-1.54963
-1.87288
-2.24418
-2.67069
-3.16064
-3.7235
-4.37015
-5.06161
-5.70831
-6.27129
-6.76134
-7.18792
-7.55921
-7.88237
-8.16361
-8.40832
-8.6212
-8.80634
-8.9673
-9.10716
-9.22849
-9.33348
-9.42451
)
;
    }
    floor
    {
        type            calculated;
        value           nonuniform List<scalar> 
32
(
0.0431943
0.0431937
0.043193
0.043193
0.0431945
0.0431978
0.0432032
0.0432101
0.0432172
0.0432217
0.0432213
0.0432175
0.0432157
0.043221
0.0432347
0.0432501
0.0432469
0.0432136
0.0431597
0.0431027
0.0430581
0.0430297
0.0430137
0.0430054
0.0430012
0.0429992
0.0429985
0.0429987
0.0429997
0.0430012
0.0430026
0.0430035
)
;
    }
    frontAndBack
    {
        type            empty;
    }
}


// ************************************************************************* //
