/*--------------------------------*- C++ -*----------------------------------*\
| =========                 |                                                 |
| \\      /  F ield         | OpenFOAM: The Open Source CFD Toolbox           |
|  \\    /   O peration     | Version:  2212                                  |
|   \\  /    A nd           | Website:  www.openfoam.com                      |
|    \\/     M anipulation  |                                                 |
\*---------------------------------------------------------------------------*/
FoamFile
{
    version     2.0;
    format      ascii;
    arch        "LSB;label=64;scalar=64";
    class       volScalarField;
    location    "1620";
    object      SIC;
}
// * * * * * * * * * * * * * * * * * * * * * * * * * * * * * * * * * * * * * //

dimensions      [1 -3 0 0 0 0 0];

internalField   nonuniform List<scalar> 
1024
(
0.0911627
0.091164
0.0911673
0.0911734
0.0911832
0.0911979
0.0912182
0.0912451
0.0912789
0.0913196
0.0913676
0.091424
0.0914912
0.0915712
0.0916612
0.0917492
0.0918093
0.091826
0.0918085
0.0917672
0.0917097
0.0916426
0.0915724
0.0915054
0.0914464
0.091398
0.091361
0.0913343
0.0913163
0.0913051
0.091299
0.0912965
0.0911635
0.0911648
0.0911682
0.0911743
0.0911843
0.0911991
0.0912197
0.0912468
0.0912809
0.0913218
0.0913699
0.0914264
0.0914938
0.0915742
0.0916647
0.0917531
0.0918134
0.0918301
0.0918124
0.0917709
0.0917133
0.091646
0.0915756
0.0915081
0.0914486
0.0913998
0.0913622
0.0913352
0.091317
0.0913057
0.0912995
0.091297
0.0911654
0.0911668
0.0911703
0.0911766
0.0911868
0.091202
0.0912231
0.0912509
0.0912855
0.0913271
0.0913757
0.0914325
0.0915004
0.0915816
0.0916732
0.0917627
0.0918235
0.09184
0.0918216
0.0917794
0.0917211
0.0916533
0.0915822
0.0915139
0.0914533
0.0914034
0.091365
0.0913373
0.0913187
0.0913071
0.0913008
0.0912983
0.0911691
0.0911705
0.091174
0.0911806
0.0911912
0.091207
0.091229
0.0912579
0.0912939
0.0913366
0.0913862
0.0914438
0.0915126
0.0915951
0.0916888
0.0917806
0.0918424
0.0918581
0.0918379
0.0917936
0.0917336
0.0916644
0.0915921
0.0915224
0.0914604
0.0914091
0.0913695
0.0913408
0.0913215
0.0913096
0.0913031
0.0913004
0.091175
0.0911764
0.0911801
0.091187
0.0911982
0.091215
0.0912384
0.0912691
0.0913071
0.0913519
0.0914033
0.0914623
0.0915325
0.0916173
0.0917144
0.0918097
0.0918732
0.0918873
0.0918634
0.0918147
0.091751
0.0916792
0.0916048
0.0915333
0.0914695
0.0914164
0.0913753
0.0913456
0.0913256
0.0913132
0.0913065
0.0913038
0.0911839
0.0911855
0.0911894
0.0911967
0.0912087
0.0912268
0.0912521
0.0912854
0.0913266
0.0913748
0.0914291
0.0914906
0.0915631
0.0916514
0.0917534
0.0918541
0.0919196
0.0919306
0.0919002
0.091844
0.0917739
0.0916972
0.0916195
0.0915455
0.0914796
0.0914248
0.0913823
0.0913515
0.0913308
0.0913181
0.0913113
0.0913085
0.091197
0.0911986
0.0912028
0.0912106
0.0912237
0.0912435
0.0912716
0.0913086
0.0913544
0.0914074
0.0914663
0.0915317
0.0916082
0.0917015
0.0918104
0.0919177
0.0919852
0.0919911
0.0919507
0.0918828
0.0918023
0.091718
0.0916351
0.0915577
0.0914896
0.0914333
0.0913897
0.0913584
0.0913374
0.0913246
0.0913178
0.091315
0.0912157
0.0912173
0.0912217
0.0912303
0.0912447
0.0912669
0.0912985
0.0913405
0.0913924
0.0914523
0.0915179
0.0915896
0.0916722
0.0917728
0.0918902
0.0920047
0.092073
0.0920714
0.092017
0.0919328
0.0918372
0.0917415
0.0916512
0.0915694
0.0914988
0.0914414
0.0913977
0.0913665
0.0913458
0.0913334
0.0913269
0.0913244
0.0912416
0.0912434
0.0912481
0.0912575
0.0912736
0.0912987
0.0913349
0.0913833
0.0914433
0.0915123
0.0915873
0.0916683
0.0917603
0.0918706
0.0919975
0.0921182
0.0921854
0.0921737
0.0921024
0.0919976
0.0918822
0.0917705
0.0916696
0.0915818
0.0915086
0.0914507
0.0914076
0.0913776
0.0913583
0.091347
0.0913413
0.0913392
0.091277
0.0912789
0.0912841
0.0912946
0.0913129
0.0913416
0.0913834
0.0914398
0.0915098
0.0915905
0.0916781
0.0917721
0.091877
0.0919995
0.0921356
0.0922601
0.0923243
0.0923027
0.0922144
0.0920874
0.0919482
0.0918155
0.0916995
0.0916029
0.0915259
0.0914675
0.0914258
0.0913981
0.0913813
0.0913721
0.0913679
0.0913666
0.0913241
0.0913262
0.0913321
0.091344
0.0913648
0.0913981
0.0914468
0.0915127
0.091595
0.0916901
0.0917936
0.0919042
0.0920253
0.0921609
0.0923047
0.0924306
0.092493
0.0924675
0.0923701
0.0922263
0.0920634
0.0919051
0.0917678
0.0916568
0.0915721
0.0915112
0.0914704
0.0914454
0.0914318
0.0914257
0.0914238
0.0914237
0.0913847
0.091387
0.0913937
0.0914073
0.0914315
0.0914702
0.091527
0.0916042
0.0917007
0.0918125
0.0919346
0.0920643
0.0922027
0.0923508
0.0925001
0.0926277
0.092696
0.0926827
0.0925961
0.0924543
0.0922812
0.092102
0.0919384
0.0918034
0.0917013
0.0916304
0.0915856
0.0915607
0.0915493
0.0915461
0.0915466
0.0915477
0.0914586
0.0914613
0.0914689
0.0914846
0.0915125
0.0915573
0.0916233
0.0917126
0.0918245
0.0919541
0.0920955
0.092244
0.0923981
0.0925559
0.0927093
0.0928431
0.0929312
0.0929545
0.0929106
0.0928073
0.0926589
0.0924857
0.0923099
0.0921505
0.0920199
0.0919242
0.0918612
0.0918254
0.0918088
0.0918037
0.0918041
0.0918056
0.0915432
0.0915461
0.0915546
0.0915723
0.0916039
0.0916547
0.0917294
0.0918304
0.0919565
0.0921025
0.0922607
0.0924242
0.0925889
0.0927516
0.0929072
0.0930497
0.0931665
0.0932437
0.0932723
0.0932495
0.093177
0.0930633
0.0929225
0.0927714
0.0926271
0.0925034
0.0924083
0.0923437
0.0923056
0.0922868
0.0922799
0.0922786
0.0916325
0.0916356
0.0916447
0.0916637
0.0916977
0.0917525
0.091833
0.0919419
0.0920778
0.0922347
0.0924033
0.0925744
0.0927411
0.0928994
0.0930471
0.0931859
0.0933161
0.0934352
0.0935355
0.0936075
0.0936423
0.0936354
0.0935883
0.0935079
0.0934053
0.0932947
0.0931911
0.0931054
0.0930435
0.0930049
0.0929852
0.0929781
0.0917181
0.0917213
0.0917303
0.0917492
0.091783
0.0918375
0.0919179
0.0920273
0.0921642
0.0923225
0.0924916
0.0926595
0.0928162
0.0929553
0.0930749
0.09318
0.0932825
0.0934003
0.0935339
0.0936713
0.0937959
0.0938945
0.0939589
0.0939861
0.0939782
0.0939421
0.0938882
0.0938293
0.0937767
0.0937375
0.0937139
0.0937039
0.0917854
0.0917884
0.0917968
0.0918141
0.0918449
0.0918945
0.091968
0.0920688
0.0921962
0.0923445
0.0925029
0.0926575
0.0927949
0.092905
0.0929832
0.0930344
0.0930793
0.0931574
0.0932834
0.0934457
0.0936226
0.0937926
0.0939395
0.0940538
0.0941319
0.0941753
0.0941897
0.0941837
0.0941671
0.0941488
0.094135
0.0941282
0.0918268
0.0918296
0.0918372
0.0918525
0.0918792
0.0919221
0.0919858
0.0920737
0.0921862
0.0923185
0.0924607
0.092599
0.0927181
0.0928053
0.0928533
0.0928652
0.0928647
0.0929018
0.0930038
0.0931674
0.0933725
0.0935921
0.0938008
0.0939792
0.0941175
0.0942138
0.0942725
0.0943016
0.0943107
0.094309
0.0943041
0.0943007
0.0918477
0.0918504
0.0918573
0.0918707
0.0918937
0.0919303
0.0919843
0.0920593
0.092156
0.092271
0.0923961
0.0925186
0.0926235
0.0926973
0.0927315
0.0927275
0.0927091
0.0927261
0.0928078
0.0929588
0.0931679
0.0934122
0.0936636
0.0938942
0.0940849
0.0942272
0.0943221
0.0943769
0.0944025
0.0944102
0.0944096
0.0944076
0.0918561
0.0918586
0.0918647
0.0918765
0.0918963
0.0919273
0.0919729
0.0920362
0.0921181
0.0922163
0.0923245
0.0924317
0.0925249
0.0925916
0.0926234
0.0926214
0.092608
0.0926264
0.0927015
0.0928408
0.0930405
0.0932864
0.0935549
0.0938166
0.0940464
0.0942281
0.0943568
0.0944371
0.0944792
0.0944958
0.0944988
0.0944976
0.0918601
0.091862
0.0918671
0.0918768
0.0918933
0.0919192
0.0919574
0.0920104
0.0920791
0.092162
0.0922542
0.0923473
0.0924309
0.0924948
0.0925323
0.0925454
0.0925535
0.092589
0.0926701
0.0928046
0.0929931
0.0932284
0.0934941
0.0937658
0.0940172
0.0942269
0.0943839
0.0944877
0.0945462
0.0945722
0.0945791
0.0945788
0.09187
0.091871
0.0918739
0.0918804
0.0918925
0.0919127
0.0919436
0.0919871
0.0920443
0.092114
0.0921927
0.0922746
0.0923523
0.0924187
0.0924695
0.0925078
0.0925479
0.0926091
0.0927026
0.0928363
0.093014
0.0932335
0.0934844
0.0937488
0.0940046
0.0942293
0.0944067
0.0945306
0.094605
0.0946406
0.094652
0.0946526
0.0918993
0.0918985
0.0918978
0.091899
0.0919045
0.0919172
0.09194
0.0919747
0.0920224
0.0920824
0.0921526
0.0922293
0.0923079
0.0923839
0.092455
0.0925247
0.0926004
0.0926885
0.0927947
0.092927
0.093092
0.0932916
0.0935208
0.0937671
0.0940132
0.0942397
0.0944284
0.0945678
0.0946563
0.0947019
0.094718
0.0947199
0.0919626
0.091959
0.091953
0.0919467
0.0919434
0.0919472
0.0919614
0.0919888
0.0920307
0.0920869
0.0921561
0.0922361
0.0923235
0.0924156
0.0925108
0.0926119
0.0927192
0.0928287
0.0929427
0.0930703
0.0932194
0.0933953
0.0935974
0.0938183
0.0940452
0.0942623
0.0944525
0.0946012
0.0947015
0.0947565
0.0947778
0.0947811
0.0920727
0.0920655
0.0920529
0.0920382
0.0920262
0.092022
0.0920302
0.0920545
0.0920967
0.0921566
0.0922329
0.0923233
0.0924248
0.0925348
0.0926516
0.0927768
0.0929053
0.0930262
0.0931409
0.093259
0.0933895
0.0935392
0.0937106
0.0939008
0.0941015
0.0943004
0.0944829
0.0946337
0.0947418
0.094805
0.0948317
0.0948367
0.0922387
0.0922274
0.0922085
0.0921877
0.0921713
0.0921651
0.0921741
0.0922025
0.0922518
0.0923214
0.0924089
0.0925115
0.0926258
0.0927486
0.0928781
0.0930149
0.0931507
0.093272
0.0933798
0.0934844
0.0935944
0.0937171
0.0938567
0.0940134
0.0941828
0.0943567
0.0945233
0.0946685
0.0947791
0.0948484
0.09488
0.0948869
0.0924658
0.0924504
0.0924284
0.0924085
0.0923972
0.0923991
0.092418
0.0924574
0.0925177
0.0925974
0.0926937
0.092803
0.0929218
0.093047
0.0931766
0.0933108
0.0934405
0.0935523
0.0936474
0.0937355
0.0938246
0.0939213
0.0940302
0.0941531
0.0942888
0.0944328
0.0945768
0.094709
0.0948158
0.0948875
0.0949231
0.0949321
0.092757
0.0927391
0.0927209
0.0927128
0.0927184
0.0927382
0.0927733
0.0928254
0.092894
0.0929777
0.093074
0.0931796
0.0932915
0.093407
0.0935243
0.0936436
0.0937566
0.0938516
0.0939302
0.0940006
0.0940694
0.0941422
0.0942232
0.0943147
0.0944172
0.0945289
0.0946453
0.0947578
0.0948544
0.0949239
0.0949614
0.0949722
0.0931169
0.0931007
0.0930969
0.0931114
0.0931407
0.0931804
0.0932294
0.0932881
0.0933564
0.0934339
0.0935191
0.09361
0.0937042
0.0937998
0.0938956
0.0939915
0.094081
0.0941552
0.0942154
0.0942679
0.094318
0.0943698
0.0944265
0.0944904
0.0945626
0.0946428
0.0947293
0.0948171
0.0948973
0.0949592
0.0949956
0.0950076
0.0935553
0.0935491
0.0935693
0.0936075
0.0936539
0.0937034
0.0937547
0.0938085
0.0938656
0.0939268
0.0939918
0.0940596
0.0941288
0.0941983
0.0942671
0.0943353
0.0943984
0.0944502
0.0944917
0.0945274
0.0945607
0.0945944
0.0946308
0.0946717
0.0947178
0.0947697
0.094827
0.0948876
0.0949464
0.0949952
0.0950266
0.0950384
0.0940906
0.0941035
0.0941415
0.0941844
0.0942271
0.0942678
0.0943061
0.0943433
0.0943803
0.0944185
0.094458
0.0944986
0.0945397
0.0945807
0.094621
0.0946607
0.0946972
0.0947271
0.0947509
0.094771
0.0947896
0.0948082
0.094828
0.09485
0.0948748
0.0949029
0.0949342
0.0949683
0.0950029
0.0950338
0.0950556
0.0950649
0.0947454
0.0947555
0.094775
0.0947937
0.094811
0.0948266
0.0948408
0.0948539
0.0948666
0.0948794
0.0948924
0.0949057
0.0949191
0.0949324
0.0949455
0.0949583
0.09497
0.0949796
0.0949873
0.0949937
0.0949996
0.0950054
0.0950116
0.0950184
0.095026
0.0950347
0.0950444
0.095055
0.095066
0.0950763
0.0950842
0.095088
)
;

boundaryField
{
    movingWall
    {
        type            fixedValue;
        value           uniform 0.0951;
    }
    fixedWalls
    {
        type            zeroGradient;
    }
    floor
    {
        type            zeroGradient;
    }
    frontAndBack
    {
        type            empty;
    }
}


// ************************************************************************* //
