/*--------------------------------*- C++ -*----------------------------------*\
| =========                 |                                                 |
| \\      /  F ield         | OpenFOAM: The Open Source CFD Toolbox           |
|  \\    /   O peration     | Version:  2212                                  |
|   \\  /    A nd           | Website:  www.openfoam.com                      |
|    \\/     M anipulation  |                                                 |
\*---------------------------------------------------------------------------*/
FoamFile
{
    version     2.0;
    format      ascii;
    arch        "LSB;label=64;scalar=64";
    class       volScalarField;
    location    "1620";
    object      Xch;
}
// * * * * * * * * * * * * * * * * * * * * * * * * * * * * * * * * * * * * * //

dimensions      [1 -3 0 0 0 0 0];

internalField   nonuniform List<scalar> 
1024
(
0.0198995
0.0198997
0.0199003
0.0199014
0.0199032
0.0199057
0.0199094
0.0199141
0.0199201
0.0199273
0.0199357
0.0199455
0.0199571
0.0199707
0.0199859
0.0200005
0.0200102
0.0200125
0.0200091
0.0200017
0.0199916
0.0199798
0.0199675
0.0199557
0.0199453
0.0199367
0.0199301
0.0199254
0.0199222
0.0199202
0.0199191
0.0199187
0.0198996
0.0198999
0.0199005
0.0199016
0.0199033
0.019906
0.0199096
0.0199144
0.0199204
0.0199276
0.0199361
0.0199459
0.0199575
0.0199712
0.0199865
0.0200012
0.0200109
0.0200131
0.0200097
0.0200023
0.0199922
0.0199804
0.019968
0.0199562
0.0199457
0.019937
0.0199304
0.0199256
0.0199223
0.0199203
0.0199192
0.0199188
0.0199
0.0199002
0.0199008
0.019902
0.0199038
0.0199065
0.0199102
0.0199151
0.0199213
0.0199286
0.0199371
0.019947
0.0199587
0.0199725
0.0199879
0.0200028
0.0200125
0.0200148
0.0200112
0.0200037
0.0199935
0.0199816
0.0199692
0.0199571
0.0199465
0.0199376
0.0199308
0.0199259
0.0199226
0.0199206
0.0199194
0.019919
0.0199006
0.0199009
0.0199015
0.0199027
0.0199046
0.0199074
0.0199113
0.0199164
0.0199227
0.0199302
0.0199389
0.0199489
0.0199607
0.0199748
0.0199906
0.0200057
0.0200156
0.0200177
0.0200139
0.020006
0.0199955
0.0199835
0.0199708
0.0199586
0.0199477
0.0199386
0.0199316
0.0199265
0.0199231
0.019921
0.0199198
0.0199193
0.0199017
0.019902
0.0199026
0.0199038
0.0199058
0.0199088
0.0199129
0.0199183
0.019925
0.0199329
0.0199419
0.0199521
0.0199641
0.0199786
0.0199948
0.0200106
0.0200207
0.0200225
0.020018
0.0200094
0.0199983
0.0199859
0.0199729
0.0199604
0.0199492
0.0199398
0.0199326
0.0199273
0.0199238
0.0199216
0.0199204
0.0199199
0.0199033
0.0199036
0.0199043
0.0199055
0.0199077
0.0199109
0.0199153
0.0199212
0.0199285
0.0199369
0.0199463
0.019957
0.0199694
0.0199843
0.0200014
0.0200179
0.0200283
0.0200295
0.0200239
0.0200141
0.020002
0.0199888
0.0199753
0.0199624
0.0199508
0.0199412
0.0199337
0.0199283
0.0199246
0.0199224
0.0199212
0.0199207
0.0199056
0.0199059
0.0199066
0.019908
0.0199103
0.0199138
0.0199188
0.0199253
0.0199333
0.0199426
0.0199528
0.0199641
0.0199771
0.0199928
0.0200109
0.0200285
0.020039
0.0200392
0.0200319
0.0200202
0.0200064
0.019992
0.0199777
0.0199643
0.0199524
0.0199426
0.0199349
0.0199294
0.0199257
0.0199234
0.0199222
0.0199217
0.019909
0.0199092
0.01991
0.0199115
0.0199141
0.019918
0.0199235
0.0199309
0.01994
0.0199504
0.0199617
0.019974
0.019988
0.0200049
0.0200243
0.0200428
0.0200533
0.0200521
0.0200424
0.020028
0.0200118
0.0199955
0.0199801
0.019966
0.0199538
0.0199438
0.0199362
0.0199307
0.019927
0.0199248
0.0199237
0.0199232
0.0199136
0.0199139
0.0199147
0.0199164
0.0199192
0.0199236
0.01993
0.0199384
0.0199489
0.0199608
0.0199737
0.0199875
0.020003
0.0200213
0.0200421
0.0200615
0.0200716
0.0200685
0.0200559
0.0200381
0.0200186
0.0199998
0.0199827
0.0199677
0.0199552
0.0199451
0.0199376
0.0199324
0.019929
0.019927
0.019926
0.0199256
0.0199199
0.0199202
0.0199211
0.019923
0.0199262
0.0199312
0.0199385
0.0199483
0.0199604
0.0199743
0.0199893
0.0200052
0.0200227
0.020043
0.0200651
0.0200848
0.0200941
0.0200892
0.0200737
0.0200521
0.0200288
0.0200066
0.0199871
0.0199708
0.0199576
0.0199476
0.0199404
0.0199356
0.0199326
0.019931
0.0199303
0.01993
0.0199283
0.0199286
0.0199296
0.0199317
0.0199354
0.0199411
0.0199496
0.019961
0.0199752
0.0199915
0.0200091
0.0200277
0.0200478
0.02007
0.0200931
0.0201127
0.0201214
0.0201157
0.0200986
0.0200742
0.0200469
0.0200206
0.0199977
0.0199791
0.0199648
0.0199545
0.0199475
0.0199432
0.0199408
0.0199397
0.0199393
0.0199393
0.019939
0.0199394
0.0199406
0.0199429
0.0199471
0.0199538
0.0199637
0.019977
0.0199936
0.0200126
0.0200332
0.0200549
0.0200776
0.0201016
0.0201253
0.020145
0.0201544
0.0201506
0.0201351
0.0201109
0.020082
0.0200522
0.0200251
0.0200026
0.0199856
0.0199738
0.0199662
0.019962
0.01996
0.0199594
0.0199595
0.0199597
0.0199521
0.0199526
0.0199539
0.0199566
0.0199614
0.0199692
0.0199805
0.0199958
0.0200149
0.0200369
0.0200607
0.0200853
0.0201105
0.0201358
0.02016
0.0201804
0.0201929
0.0201949
0.0201862
0.0201683
0.0201432
0.0201145
0.0200854
0.0200591
0.0200376
0.0200218
0.0200114
0.0200054
0.0200027
0.0200018
0.0200018
0.0200021
0.0199671
0.0199676
0.0199691
0.0199721
0.0199775
0.0199863
0.019999
0.0200163
0.0200378
0.0200624
0.0200889
0.0201159
0.0201427
0.0201687
0.0201931
0.0202149
0.020232
0.0202425
0.0202454
0.0202402
0.0202274
0.0202082
0.0201849
0.0201601
0.0201365
0.0201163
0.0201008
0.0200903
0.0200841
0.0200811
0.0200799
0.0200797
0.019983
0.0199835
0.0199851
0.0199883
0.0199941
0.0200035
0.0200172
0.0200358
0.0200588
0.0200853
0.0201135
0.0201417
0.0201689
0.0201942
0.0202174
0.0202386
0.0202578
0.0202749
0.0202888
0.0202985
0.0203025
0.0203002
0.0202919
0.0202786
0.0202619
0.0202441
0.0202275
0.0202138
0.0202039
0.0201977
0.0201946
0.0201934
0.0199983
0.0199988
0.0200003
0.0200035
0.0200093
0.0200186
0.0200323
0.0200509
0.0200742
0.020101
0.0201293
0.0201572
0.0201829
0.0202054
0.0202243
0.0202403
0.0202551
0.0202717
0.0202905
0.0203097
0.0203272
0.0203409
0.0203498
0.0203532
0.0203515
0.0203457
0.0203373
0.0203282
0.02032
0.020314
0.0203104
0.0203088
0.0200105
0.020011
0.0200124
0.0200154
0.0200206
0.020029
0.0200416
0.0200588
0.0200805
0.0201057
0.0201325
0.0201585
0.0201814
0.0201996
0.0202123
0.0202201
0.0202262
0.0202366
0.0202539
0.0202765
0.0203012
0.020325
0.0203457
0.0203618
0.0203729
0.0203791
0.0203813
0.0203805
0.0203782
0.0203756
0.0203737
0.0203727
0.0200184
0.0200188
0.0200201
0.0200226
0.0200272
0.0200345
0.0200454
0.0200604
0.0200797
0.0201024
0.0201267
0.0201503
0.0201706
0.0201854
0.0201937
0.0201957
0.0201951
0.0201995
0.0202133
0.020236
0.0202648
0.0202956
0.0203248
0.0203498
0.0203692
0.0203828
0.0203912
0.0203955
0.020397
0.020397
0.0203965
0.0203961
0.0200226
0.0200231
0.0200242
0.0200264
0.0200303
0.0200365
0.0200458
0.0200587
0.0200753
0.0200952
0.0201168
0.020138
0.0201562
0.0201692
0.0201755
0.0201753
0.0201721
0.0201737
0.0201847
0.0202057
0.0202351
0.0202695
0.0203048
0.0203371
0.0203638
0.0203838
0.0203971
0.0204049
0.0204087
0.0204099
0.02041
0.0204098
0.0200247
0.0200251
0.0200261
0.020028
0.0200314
0.0200366
0.0200445
0.0200554
0.0200695
0.0200866
0.0201054
0.0201242
0.0201406
0.0201526
0.0201587
0.0201589
0.0201567
0.0201586
0.0201687
0.0201882
0.0202163
0.020251
0.0202889
0.0203256
0.0203578
0.0203832
0.0204012
0.0204125
0.0204185
0.0204209
0.0204215
0.0204214
0.0200258
0.0200261
0.020027
0.0200286
0.0200314
0.0200358
0.0200423
0.0200515
0.0200634
0.0200779
0.0200941
0.0201105
0.0201253
0.0201368
0.0201438
0.0201465
0.0201475
0.0201522
0.0201633
0.0201822
0.0202089
0.0202423
0.0202798
0.020318
0.0203532
0.0203825
0.0204044
0.0204189
0.0204271
0.0204308
0.0204319
0.020432
0.0200276
0.0200278
0.0200283
0.0200294
0.0200315
0.020035
0.0200404
0.0200479
0.0200579
0.0200701
0.0200839
0.0200984
0.0201121
0.0201239
0.0201328
0.0201392
0.0201452
0.0201539
0.020167
0.020186
0.0202112
0.0202424
0.020278
0.0203152
0.0203511
0.0203824
0.0204071
0.0204243
0.0204347
0.0204398
0.0204414
0.0204416
0.0200322
0.0200321
0.0200321
0.0200324
0.0200335
0.0200358
0.0200398
0.0200459
0.0200542
0.0200647
0.0200769
0.0200903
0.0201039
0.0201168
0.0201287
0.0201398
0.0201512
0.020164
0.0201792
0.0201981
0.0202217
0.0202501
0.0202826
0.0203174
0.0203519
0.0203835
0.0204098
0.0204291
0.0204414
0.0204478
0.0204501
0.0204504
0.0200417
0.0200412
0.0200404
0.0200396
0.0200394
0.0200403
0.020043
0.0200478
0.0200551
0.0200647
0.0200765
0.0200899
0.0201045
0.0201196
0.0201349
0.0201507
0.0201668
0.0201829
0.0201994
0.0202177
0.0202391
0.0202643
0.020293
0.0203242
0.0203561
0.0203864
0.0204128
0.0204334
0.0204473
0.0204549
0.0204579
0.0204584
0.0200581
0.0200571
0.0200553
0.0200532
0.0200517
0.0200514
0.0200531
0.0200573
0.0200644
0.0200743
0.0200868
0.0201015
0.0201178
0.0201353
0.0201536
0.0201729
0.0201922
0.02021
0.0202268
0.0202439
0.0202627
0.0202841
0.0203085
0.0203354
0.0203636
0.0203914
0.0204167
0.0204376
0.0204525
0.0204613
0.020465
0.0204657
0.0200826
0.020081
0.0200782
0.0200753
0.0200731
0.0200724
0.0200742
0.0200789
0.0200868
0.0200979
0.0201118
0.020128
0.0201459
0.020165
0.020185
0.0202058
0.0202262
0.0202442
0.02026
0.0202752
0.0202911
0.0203087
0.0203286
0.0203508
0.0203746
0.0203989
0.0204221
0.0204422
0.0204574
0.020467
0.0204713
0.0204723
0.020116
0.0201137
0.0201106
0.0201077
0.0201062
0.0201067
0.0201098
0.0201161
0.0201255
0.0201378
0.0201527
0.0201696
0.0201879
0.0202072
0.020227
0.0202473
0.0202668
0.0202833
0.0202973
0.0203102
0.0203231
0.020337
0.0203526
0.02037
0.0203891
0.0204092
0.0204293
0.0204476
0.0204623
0.0204721
0.020477
0.0204782
0.0201587
0.0201561
0.0201534
0.0201523
0.0201533
0.0201563
0.0201617
0.0201697
0.0201801
0.0201929
0.0202076
0.0202237
0.0202408
0.0202584
0.0202762
0.0202942
0.0203111
0.0203253
0.0203369
0.0203472
0.0203572
0.0203677
0.0203792
0.0203922
0.0204067
0.0204223
0.0204385
0.0204541
0.0204674
0.0204769
0.020482
0.0204835
0.0202113
0.0202089
0.0202084
0.0202106
0.0202149
0.0202209
0.0202282
0.020237
0.0202473
0.020259
0.0202719
0.0202856
0.0202999
0.0203144
0.0203289
0.0203434
0.0203568
0.0203678
0.0203767
0.0203844
0.0203917
0.0203992
0.0204073
0.0204164
0.0204266
0.0204378
0.0204499
0.020462
0.0204731
0.0204815
0.0204865
0.0204881
0.0202753
0.0202744
0.0202773
0.0202829
0.0202898
0.0202971
0.0203047
0.0203127
0.0203212
0.0203304
0.0203402
0.0203504
0.0203608
0.0203713
0.0203817
0.020392
0.0204015
0.0204092
0.0204153
0.0204206
0.0204254
0.0204303
0.0204355
0.0204413
0.0204479
0.0204551
0.0204631
0.0204715
0.0204796
0.0204863
0.0204905
0.0204921
0.0203532
0.0203551
0.0203607
0.0203669
0.0203732
0.0203792
0.0203848
0.0203903
0.0203958
0.0204015
0.0204075
0.0204136
0.0204198
0.0204259
0.020432
0.020438
0.0204435
0.0204479
0.0204515
0.0204544
0.0204572
0.0204598
0.0204627
0.0204658
0.0204693
0.0204733
0.0204777
0.0204824
0.0204871
0.0204913
0.0204943
0.0204955
0.0204485
0.02045
0.0204528
0.0204555
0.020458
0.0204603
0.0204624
0.0204644
0.0204663
0.0204682
0.0204701
0.0204721
0.0204741
0.0204761
0.0204781
0.02048
0.0204818
0.0204832
0.0204844
0.0204853
0.0204862
0.020487
0.0204879
0.0204889
0.02049
0.0204912
0.0204925
0.020494
0.0204955
0.0204969
0.020498
0.0204985
)
;

boundaryField
{
    movingWall
    {
        type            fixedValue;
        value           uniform 0.0205;
    }
    fixedWalls
    {
        type            zeroGradient;
    }
    floor
    {
        type            zeroGradient;
    }
    frontAndBack
    {
        type            empty;
    }
}


// ************************************************************************* //
