/*--------------------------------*- C++ -*----------------------------------*\
| =========                 |                                                 |
| \\      /  F ield         | OpenFOAM: The Open Source CFD Toolbox           |
|  \\    /   O peration     | Version:  2206                                  |
|   \\  /    A nd           | Website:  www.openfoam.com                      |
|    \\/     M anipulation  |                                                 |
\*---------------------------------------------------------------------------*/
FoamFile
{
    version     2.0;
    format      ascii;
    arch        "LSB;label=64;scalar=64";
    class       surfaceScalarField;
    location    "763200";
    object      phi;
}
// * * * * * * * * * * * * * * * * * * * * * * * * * * * * * * * * * * * * * //

dimensions      [0 3 -1 0 0 0 0];

oriented        oriented;

internalField   nonuniform List<scalar> 
24
(
-1.10681e-10
1.10681e-10
8.46779e-11
-1.95359e-10
1.57672e-10
-7.29944e-11
1.57672e-10
-6.7422e-11
1.78103e-10
-8.8831e-11
-1.7395e-10
-5.50728e-11
-1.06753e-10
1.026e-10
7.29811e-11
1.05122e-10
-6.82592e-11
-3.27098e-11
-1.24284e-10
-5.0728e-11
-2.16842e-11
1.05122e-10
7.24122e-11
2.16842e-11
)
;

boundaryField
{
    movingWall
    {
        type            calculated;
        value           nonuniform List<scalar> 4(2.01948e-28 0 0 0);
    }
    fixedWalls
    {
        type            calculated;
        value           uniform 0;
    }
    frontAndBack
    {
        type            empty;
        value           nonuniform List<scalar> 0();
    }
}


// ************************************************************************* //
