/*--------------------------------*- C++ -*----------------------------------*\
| =========                 |                                                 |
| \\      /  F ield         | OpenFOAM: The Open Source CFD Toolbox           |
|  \\    /   O peration     | Version:  2212                                  |
|   \\  /    A nd           | Website:  www.openfoam.com                      |
|    \\/     M anipulation  |                                                 |
\*---------------------------------------------------------------------------*/
FoamFile
{
    version     2.0;
    format      ascii;
    arch        "LSB;label=64;scalar=64";
    class       volScalarField::Internal;
    location    "890";
    object      dGch4;
}
// * * * * * * * * * * * * * * * * * * * * * * * * * * * * * * * * * * * * * //

dimensions      [1 -3 -1 0 0 0 0];

value           nonuniform List<scalar> 
1024
(
0.000972439
0.000972616
0.000973041
0.000973797
0.000974956
0.000976552
0.000978551
0.000980851
0.000983305
0.000985763
0.000988127
0.000990285
0.000992056
0.000993206
0.000993492
0.000992668
0.000990634
0.000987794
0.000984534
0.000980895
0.000976818
0.000972264
0.000967338
0.000962309
0.000957534
0.000953339
0.000949927
0.000947357
0.000945568
0.000944434
0.000943807
0.00094355
0.000972443
0.000972623
0.000973057
0.00097383
0.000975011
0.00097663
0.000978648
0.000980955
0.000983406
0.000985859
0.000988221
0.000990383
0.000992155
0.000993296
0.000993567
0.000992731
0.000990695
0.000987867
0.00098463
0.000981024
0.000976986
0.000972472
0.000967573
0.000962553
0.000957762
0.000953535
0.000950084
0.000947477
0.00094566
0.000944507
0.000943871
0.00094361
0.000972445
0.000972631
0.000973081
0.00097388
0.000975097
0.000976751
0.000978793
0.000981109
0.000983557
0.000986012
0.000988398
0.000990602
0.0009924
0.000993523
0.000993745
0.000992856
0.000990797
0.000987985
0.000984794
0.000981258
0.000977309
0.000972885
0.000968056
0.000963061
0.000958247
0.000953958
0.000950428
0.000947745
0.000945869
0.000944677
0.00094402
0.000943751
0.000972431
0.000972624
0.000973092
0.000973918
0.000975167
0.00097685
0.00097891
0.000981229
0.000983684
0.000986174
0.000988644
0.000990969
0.000992848
0.000993944
0.000994055
0.000993035
0.000990899
0.000988088
0.00098496
0.000981534
0.000977728
0.000973458
0.000968753
0.000963818
0.000958986
0.000954615
0.000950973
0.000948179
0.000946214
0.000944964
0.000944275
0.000943994
0.000972377
0.000972576
0.000973054
0.000973894
0.000975156
0.000976846
0.000978903
0.000981221
0.000983702
0.000986286
0.000988941
0.000991511
0.000993553
0.000994613
0.000994516
0.000993237
0.000990923
0.000988073
0.000985012
0.00098173
0.000978125
0.000974077
0.000969566
0.000964747
0.000959925
0.000955475
0.000951703
0.000948774
0.000946698
0.000945374
0.000944645
0.000944349
0.000972243
0.000972444
0.00097292
0.000973751
0.000974992
0.00097665
0.000978676
0.000980989
0.000983532
0.000986297
0.000989278
0.000992248
0.000994553
0.000995557
0.000995115
0.000993388
0.000990748
0.000987784
0.000984776
0.000981666
0.000978314
0.00097456
0.000970322
0.000965692
0.000960938
0.000956442
0.000952553
0.000949488
0.000947296
0.000945892
0.00094512
0.000944808
0.000971979
0.000972176
0.000972635
0.000973427
0.000974606
0.00097619
0.000978153
0.00098046
0.000983117
0.000986177
0.000989657
0.000993201
0.000995861
0.000996755
0.000995776
0.000993351
0.00099018
0.000986997
0.000984015
0.000981096
0.000978047
0.000974656
0.000970775
0.000966423
0.000961822
0.000957351
0.000953398
0.000950231
0.000947943
0.000946471
0.000945661
0.000945335
0.000971528
0.000971716
0.000972144
0.000972872
0.000973953
0.000975423
0.000977299
0.000979612
0.000982452
0.000985954
0.000990133
0.00099442
0.000997472
0.000998123
0.000996332
0.000992889
0.000988943
0.000985417
0.00098243
0.000979727
0.000977034
0.000974075
0.000970633
0.000966657
0.000962316
0.000957979
0.000954057
0.000950865
0.000948534
0.000947026
0.000946195
0.000945861
0.000970854
0.000971027
0.000971414
0.000972063
0.000973027
0.000974368
0.000976158
0.000978521
0.000981657
0.000985792
0.000990888
0.000996034
0.000999398
0.000999522
0.000996518
0.000991663
0.000986668
0.000982681
0.000979677
0.000977231
0.000974964
0.000972517
0.000969603
0.000966106
0.000962148
0.000958079
0.000954322
0.000951219
0.000948931
0.000947442
0.000946616
0.000946282
0.000970026
0.000970174
0.000970507
0.000971072
0.00097193
0.000973171
0.000974939
0.000977471
0.000981099
0.000986121
0.000992327
0.000998314
0.0010017
0.00100079
0.000996008
0.000989272
0.000982958
0.000978424
0.000975421
0.000973306
0.000971558
0.00096972
0.000967432
0.000964524
0.00096108
0.000957432
0.000953997
0.000951123
0.000948983
0.000947575
0.000946785
0.000946459
0.000969442
0.000969549
0.000969812
0.000970294
0.000971087
0.00097233
0.00097425
0.000977199
0.000981624
0.000987791
0.000995149
0.00100168
0.00100445
0.00100174
0.000994495
0.000985402
0.000977556
0.000972442
0.000969489
0.000967789
0.000966656
0.000965523
0.000963959
0.000961751
0.000958957
0.000955885
0.000952931
0.000950423
0.00094853
0.000947263
0.000946533
0.000946223
0.000970274
0.000970335
0.000970526
0.000970954
0.00097177
0.000973197
0.000975557
0.000979284
0.000984814
0.000992185
0.00100033
0.00100658
0.00100768
0.0010022
0.000991859
0.000980133
0.000970708
0.000965039
0.000962148
0.00096087
0.000960368
0.000959972
0.000959183
0.000957756
0.000955723
0.000953359
0.000951013
0.000948976
0.0009474
0.000946307
0.000945649
0.000945355
0.000974815
0.000974868
0.000975067
0.000975563
0.000976584
0.000978441
0.000981525
0.000986247
0.000992827
0.00100085
0.00100865
0.00101313
0.00101118
0.00100214
0.000988604
0.000974567
0.000963845
0.000957632
0.000954612
0.000953476
0.000953334
0.000953473
0.000953351
0.000952674
0.000951431
0.000949828
0.000948144
0.000946609
0.000945357
0.000944436
0.000943848
0.00094357
0.000985725
0.000985855
0.000986228
0.000987018
0.000988479
0.000990937
0.000994737
0.00100011
0.00100689
0.00101416
0.00101979
0.00102075
0.00101481
0.00100245
0.000986947
0.000972007
0.000960749
0.000953869
0.00095002
0.000948059
0.000947279
0.000947113
0.000947071
0.000946808
0.00094618
0.000945234
0.000944123
0.000943019
0.000942062
0.000941335
0.000940867
0.000940648
0.00100352
0.00100378
0.00100441
0.00100559
0.0010075
0.00101039
0.00101442
0.00101954
0.00102521
0.00103012
0.00103215
0.0010291
0.00102026
0.00100724
0.000992989
0.000979912
0.000969631
0.000962131
0.000956374
0.000951714
0.000947937
0.000944981
0.000942762
0.000941136
0.000939955
0.000939122
0.000938601
0.000938388
0.000938445
0.000938675
0.000938938
0.000939105
0.00102445
0.00102479
0.00102559
0.00102697
0.0010291
0.00103207
0.00103587
0.00104021
0.00104427
0.00104677
0.00104634
0.00104229
0.00103533
0.00102717
0.00101952
0.00101328
0.00100854
0.00100412
0.000998914
0.00099273
0.000985843
0.00097875
0.000972062
0.000966355
0.000962093
0.000959539
0.000958709
0.000959344
0.000960919
0.000962769
0.000964294
0.000965118
0.00104156
0.00104193
0.00104281
0.00104439
0.00104683
0.00105024
0.00105452
0.00105925
0.00106374
0.00106726
0.00106959
0.00107123
0.00107328
0.00107689
0.00108294
0.0010921
0.00110372
0.00111493
0.00112336
0.00112865
0.00113081
0.00112993
0.00112641
0.00112081
0.00111381
0.00110627
0.00109906
0.00109305
0.00108879
0.00108637
0.00108537
0.00108516
0.00105143
0.0010518
0.00105275
0.00105452
0.00105739
0.00106156
0.00106705
0.00107364
0.0010809
0.00108849
0.0010965
0.0011056
0.00111682
0.00113117
0.00114957
0.00117289
0.00119995
0.00122637
0.00124904
0.00126786
0.00128281
0.00129361
0.00130008
0.00130212
0.00129985
0.00129378
0.00128487
0.0012746
0.00126475
0.00125693
0.001252
0.0012499
0.00105631
0.00105668
0.00105762
0.00105941
0.00106237
0.00106676
0.00107277
0.00108036
0.00108931
0.00109937
0.00111059
0.00112347
0.00113883
0.00115748
0.00118006
0.001207
0.0012362
0.00126291
0.00128526
0.00130446
0.00132138
0.00133624
0.00134886
0.00135876
0.00136538
0.00136836
0.00136775
0.00136417
0.00135884
0.00135338
0.00134923
0.00134718
0.00105847
0.00105882
0.00105972
0.00106143
0.00106424
0.00106846
0.00107433
0.00108192
0.00109113
0.00110177
0.00111377
0.00112739
0.00114319
0.00116176
0.00118351
0.00120846
0.00123402
0.00125589
0.00127364
0.00128955
0.00130516
0.001321
0.00133685
0.00135179
0.00136475
0.00137482
0.00138153
0.00138495
0.00138566
0.00138467
0.00138318
0.0013822
0.00105922
0.00105955
0.00106036
0.0010619
0.00106444
0.00106826
0.00107363
0.00108066
0.00108932
0.00109945
0.00111092
0.00112382
0.00113847
0.00115536
0.0011748
0.00119674
0.00121874
0.00123726
0.00125255
0.00126707
0.00128267
0.0013001
0.00131915
0.00133859
0.00135669
0.00137192
0.0013833
0.00139067
0.00139454
0.00139587
0.00139582
0.00139545
0.00105987
0.00106011
0.00106074
0.001062
0.00106413
0.00106743
0.00107213
0.00107839
0.00108621
0.00109547
0.00110603
0.00111792
0.00113133
0.00114663
0.00116415
0.00118393
0.00120401
0.00122144
0.00123641
0.00125098
0.00126688
0.00128504
0.00130559
0.00132755
0.00134914
0.00136839
0.00138373
0.00139444
0.00140075
0.0014036
0.00140432
0.0014042
0.00106201
0.00106207
0.00106235
0.0010631
0.00106464
0.00106727
0.00107127
0.00107678
0.00108387
0.00109245
0.00110244
0.00111381
0.00112668
0.00114132
0.001158
0.00117689
0.00119647
0.00121413
0.00122972
0.0012448
0.00126084
0.00127886
0.00129928
0.00132158
0.00134441
0.00136586
0.00138397
0.00139744
0.00140599
0.0014103
0.00141171
0.00141178
0.0010676
0.00106734
0.00106702
0.00106701
0.00106772
0.00106958
0.00107294
0.001078
0.00108484
0.00109341
0.0011036
0.00111534
0.00112864
0.00114361
0.00116044
0.00117935
0.00119907
0.00121717
0.00123322
0.00124846
0.00126414
0.00128131
0.00130054
0.00132166
0.00134384
0.00136557
0.00138496
0.00140028
0.00141065
0.00141632
0.00141844
0.00141871
0.00107866
0.00107792
0.00107679
0.0010758
0.0010756
0.00107681
0.00107989
0.00108511
0.00109249
0.00110192
0.00111318
0.00112607
0.00114044
0.00115627
0.0011736
0.00119267
0.00121235
0.00123034
0.00124612
0.00126077
0.00127541
0.00129103
0.00130827
0.00132727
0.00134756
0.00136808
0.00138726
0.00140334
0.00141495
0.00142176
0.00142458
0.00142507
0.00109687
0.00109554
0.00109352
0.00109167
0.00109091
0.00109203
0.00109558
0.00110178
0.0011105
0.00112142
0.00113416
0.00114836
0.00116375
0.00118019
0.00119763
0.00121629
0.00123516
0.00125214
0.00126679
0.0012801
0.00129308
0.0013066
0.00132132
0.00133754
0.00135512
0.00137341
0.00139122
0.00140695
0.00141906
0.00142669
0.00143015
0.00143087
0.00112337
0.00112143
0.00111879
0.00111677
0.00111641
0.00111847
0.00112341
0.00113123
0.00114155
0.00115387
0.00116769
0.00118256
0.00119815
0.00121429
0.0012309
0.0012482
0.00126528
0.00128037
0.00129318
0.0013046
0.0013155
0.00132664
0.00133859
0.00135171
0.00136609
0.00138143
0.00139697
0.00141141
0.00142322
0.0014312
0.00143515
0.00143612
0.00115881
0.00115644
0.00115403
0.00115312
0.00115452
0.00115854
0.00116535
0.00117466
0.00118598
0.00119875
0.00121248
0.00122677
0.00124132
0.00125597
0.00127067
0.00128562
0.00130006
0.00131262
0.00132312
0.00133234
0.001341
0.00134967
0.00135885
0.00136888
0.00137993
0.00139196
0.00140459
0.00141694
0.00142766
0.00143543
0.00143963
0.00144083
0.00120374
0.00120151
0.00120073
0.00120241
0.00120644
0.00121257
0.00122068
0.00123041
0.00124134
0.00125308
0.00126525
0.00127757
0.00128982
0.00130191
0.0013138
0.00132565
0.00133692
0.00134658
0.00135458
0.00136152
0.00136793
0.00137425
0.00138085
0.00138801
0.00139591
0.00140462
0.00141404
0.0014237
0.00143261
0.00143955
0.00144365
0.00144499
0.00125922
0.00125825
0.0012605
0.00126508
0.00127105
0.00127799
0.00128579
0.00129425
0.0013032
0.00131244
0.00132177
0.00133102
0.00134007
0.00134886
0.00135739
0.00136578
0.00137365
0.00138034
0.00138583
0.00139055
0.00139486
0.00139905
0.00140338
0.00140802
0.00141313
0.00141881
0.00142507
0.00143174
0.00143828
0.00144376
0.0014473
0.00144863
0.00132734
0.00132887
0.00133348
0.00133873
0.00134414
0.00134961
0.00135517
0.00136081
0.00136653
0.00137228
0.00137799
0.00138357
0.00138897
0.00139418
0.00139918
0.00140406
0.0014086
0.00141243
0.00141556
0.00141824
0.00142066
0.00142299
0.00142537
0.00142791
0.00143068
0.00143376
0.0014372
0.00144095
0.0014448
0.00144826
0.00145073
0.00145179
0.0014108
0.00141206
0.00141447
0.00141678
0.00141895
0.00142101
0.00142301
0.00142498
0.00142692
0.00142884
0.00143073
0.00143257
0.00143434
0.00143603
0.00143765
0.00143923
0.00144069
0.00144192
0.00144292
0.00144377
0.00144454
0.00144528
0.00144602
0.00144681
0.00144767
0.00144862
0.00144968
0.00145085
0.00145208
0.00145324
0.00145413
0.00145457
)
;


// ************************************************************************* //
