/*--------------------------------*- C++ -*----------------------------------*\
| =========                 |                                                 |
| \\      /  F ield         | OpenFOAM: The Open Source CFD Toolbox           |
|  \\    /   O peration     | Version:  2212                                  |
|   \\  /    A nd           | Website:  www.openfoam.com                      |
|    \\/     M anipulation  |                                                 |
\*---------------------------------------------------------------------------*/
FoamFile
{
    version     2.0;
    format      ascii;
    arch        "LSB;label=64;scalar=64";
    class       volScalarField;
    location    "890";
    object      Gch4;
}
// * * * * * * * * * * * * * * * * * * * * * * * * * * * * * * * * * * * * * //

dimensions      [1 -3 0 0 0 0 0];

internalField   nonuniform List<scalar> 
1024
(
1.90138
1.9013
1.90108
1.90069
1.90009
1.89926
1.89823
1.89704
1.89577
1.8945
1.89329
1.89218
1.89127
1.89069
1.89056
1.891
1.89206
1.89354
1.89523
1.89713
1.89925
1.90163
1.90421
1.90685
1.90935
1.91156
1.91335
1.9147
1.91564
1.91624
1.91657
1.9167
1.90139
1.90129
1.90107
1.90067
1.90006
1.89922
1.89818
1.89698
1.89572
1.89446
1.89324
1.89213
1.89122
1.89065
1.89052
1.89097
1.89203
1.8935
1.89519
1.89706
1.89917
1.90152
1.90409
1.90672
1.90923
1.91145
1.91327
1.91464
1.91559
1.9162
1.91654
1.91667
1.90139
1.90129
1.90106
1.90064
1.90001
1.89916
1.8981
1.89691
1.89564
1.89438
1.89315
1.89202
1.8911
1.89053
1.89043
1.89091
1.89198
1.89345
1.8951
1.89694
1.899
1.90131
1.90384
1.90645
1.90898
1.91123
1.91309
1.9145
1.91549
1.91611
1.91646
1.9166
1.90139
1.90129
1.90105
1.90062
1.89998
1.89911
1.89804
1.89685
1.89558
1.8943
1.89303
1.89184
1.89088
1.89032
1.89028
1.89082
1.89194
1.8934
1.89503
1.89681
1.89879
1.90101
1.90347
1.90606
1.90859
1.91089
1.9128
1.91427
1.9153
1.91596
1.91632
1.91647
1.90142
1.90132
1.90107
1.90064
1.89998
1.89911
1.89805
1.89685
1.89557
1.89424
1.89288
1.89157
1.89053
1.88999
1.89006
1.89074
1.89194
1.89342
1.89501
1.89671
1.89859
1.9007
1.90305
1.90558
1.90811
1.91044
1.91242
1.91396
1.91505
1.91575
1.91613
1.91629
1.90149
1.90139
1.90114
1.90071
1.90007
1.89921
1.89817
1.89698
1.89567
1.89424
1.89272
1.8912
1.89003
1.88953
1.88978
1.89069
1.89206
1.8936
1.89516
1.89677
1.8985
1.90046
1.90267
1.90509
1.90758
1.90994
1.91198
1.91359
1.91474
1.91548
1.91588
1.91605
1.90163
1.90153
1.90129
1.90088
1.90027
1.89946
1.89844
1.89725
1.89589
1.89431
1.89253
1.89072
1.88937
1.88894
1.88947
1.89074
1.89239
1.89404
1.89558
1.89709
1.89866
1.90042
1.90244
1.90471
1.90712
1.90946
1.91154
1.9132
1.9144
1.91517
1.9156
1.91577
1.90187
1.90177
1.90155
1.90117
1.90061
1.89985
1.89889
1.8977
1.89623
1.89444
1.89229
1.8901
1.88856
1.88827
1.88923
1.89104
1.89309
1.89491
1.89644
1.89783
1.89922
1.90075
1.90253
1.9046
1.90687
1.90914
1.9112
1.91287
1.91409
1.91489
1.91532
1.9155
1.90222
1.90213
1.90193
1.90159
1.9011
1.9004
1.89948
1.89826
1.89665
1.89453
1.89191
1.88929
1.8876
1.88759
1.88919
1.89174
1.89433
1.89639
1.89793
1.89917
1.90033
1.90159
1.90309
1.90491
1.90697
1.9091
1.91106
1.91269
1.91389
1.91467
1.9151
1.91528
1.90265
1.90258
1.9024
1.90211
1.90167
1.90103
1.90011
1.89881
1.89694
1.89436
1.89118
1.88812
1.88644
1.88698
1.88952
1.89305
1.89633
1.89867
1.9002
1.90127
1.90215
1.90308
1.90425
1.90575
1.90754
1.90945
1.91124
1.91275
1.91387
1.91461
1.91502
1.91519
1.90296
1.9029
1.90276
1.90252
1.90211
1.90146
1.90047
1.89895
1.89667
1.8935
1.88972
1.8864
1.88505
1.88654
1.89038
1.89514
1.89922
1.90185
1.90335
1.90419
1.90474
1.9053
1.90609
1.90722
1.90867
1.91027
1.91181
1.91312
1.91411
1.91477
1.91516
1.91532
1.90252
1.90249
1.90239
1.90217
1.90175
1.90101
1.89979
1.89787
1.89502
1.89122
1.88705
1.88389
1.88342
1.88637
1.89183
1.89796
1.90285
1.90577
1.90723
1.90785
1.90806
1.90823
1.90861
1.90933
1.91038
1.9116
1.91282
1.91389
1.91471
1.91528
1.91563
1.91578
1.90014
1.90011
1.90001
1.89976
1.89923
1.89827
1.89668
1.89424
1.89085
1.88674
1.88276
1.88054
1.88167
1.88648
1.89359
1.90092
1.90648
1.90967
1.91119
1.91173
1.91176
1.91165
1.91168
1.91201
1.91264
1.91347
1.91434
1.91514
1.91579
1.91628
1.91658
1.91673
1.89443
1.89436
1.89417
1.89377
1.89301
1.89175
1.88979
1.88703
1.88356
1.87986
1.87703
1.87666
1.87987
1.88639
1.89451
1.90229
1.90811
1.91164
1.9136
1.91457
1.91493
1.91498
1.91497
1.91509
1.9154
1.91589
1.91646
1.91704
1.91754
1.91792
1.91816
1.91828
1.88513
1.885
1.88467
1.88407
1.88309
1.88161
1.87955
1.87695
1.87408
1.87164
1.8707
1.87242
1.87713
1.88397
1.8914
1.89817
1.90347
1.90732
1.91027
1.91265
1.91459
1.9161
1.91723
1.91807
1.91867
1.9191
1.91937
1.91949
1.91946
1.91935
1.91921
1.91913
1.87422
1.87405
1.87364
1.87294
1.87186
1.87036
1.86844
1.86627
1.86427
1.86309
1.86344
1.86565
1.86934
1.87361
1.87757
1.88077
1.88318
1.88543
1.8881
1.89129
1.89486
1.89853
1.902
1.90496
1.90718
1.90851
1.90895
1.90863
1.90783
1.90687
1.90609
1.90566
1.86533
1.86514
1.8647
1.8639
1.86267
1.86096
1.85882
1.85647
1.85425
1.85253
1.8514
1.8506
1.84956
1.84768
1.84452
1.83973
1.83367
1.82784
1.82347
1.82074
1.81964
1.82011
1.82195
1.82487
1.82851
1.83243
1.83618
1.83931
1.84152
1.84279
1.84331
1.84342
1.86017
1.85998
1.85951
1.85862
1.85717
1.85506
1.85229
1.84895
1.84527
1.84141
1.83731
1.83262
1.82681
1.81936
1.8098
1.79771
1.78369
1.77005
1.75837
1.7487
1.74104
1.73553
1.73224
1.73123
1.73243
1.73558
1.74019
1.7455
1.75058
1.75462
1.75716
1.75824
1.85758
1.8574
1.85692
1.85601
1.85452
1.85228
1.84923
1.84536
1.84079
1.83563
1.82984
1.82317
1.81521
1.80553
1.79381
1.77986
1.76477
1.75102
1.73957
1.72977
1.72116
1.71361
1.70721
1.7022
1.69885
1.69736
1.69768
1.69952
1.70225
1.70505
1.70717
1.70822
1.8564
1.85622
1.85576
1.8549
1.85347
1.85132
1.84832
1.84443
1.83971
1.83423
1.82803
1.82097
1.81277
1.80313
1.79185
1.77893
1.76573
1.75448
1.74541
1.73732
1.72941
1.72139
1.71339
1.70583
1.69928
1.69419
1.69078
1.68904
1.68868
1.68917
1.68992
1.69041
1.85594
1.85577
1.85536
1.85458
1.85329
1.85134
1.84859
1.84498
1.84053
1.8353
1.82937
1.82269
1.81507
1.8063
1.79622
1.78486
1.77349
1.76397
1.75616
1.74877
1.74086
1.73203
1.72239
1.71257
1.70341
1.69572
1.68996
1.68623
1.68426
1.68358
1.68359
1.68377
1.85555
1.85543
1.85511
1.85447
1.85339
1.8517
1.84929
1.84607
1.84205
1.83727
1.8318
1.82564
1.81867
1.81073
1.80165
1.79141
1.78105
1.77209
1.76443
1.757
1.74892
1.73971
1.7293
1.71819
1.70727
1.69754
1.68978
1.68437
1.68118
1.67972
1.67935
1.6794
1.8544
1.85438
1.85424
1.85385
1.85307
1.85173
1.84968
1.84684
1.84319
1.83876
1.83359
1.82771
1.82104
1.81346
1.80483
1.79507
1.78497
1.7759
1.76791
1.76021
1.75204
1.74289
1.73254
1.72124
1.70969
1.69885
1.68969
1.68289
1.67857
1.67638
1.67566
1.67562
1.85151
1.85164
1.85181
1.85182
1.85146
1.8505
1.84878
1.84618
1.84266
1.83824
1.83298
1.82692
1.82006
1.81233
1.80364
1.79389
1.78374
1.77444
1.76621
1.75842
1.75043
1.74169
1.73194
1.72123
1.71
1.69901
1.68922
1.68148
1.67624
1.67337
1.67229
1.67216
1.84583
1.84621
1.84679
1.8473
1.8474
1.84678
1.8452
1.84252
1.83873
1.83389
1.8281
1.82146
1.81406
1.80592
1.79699
1.78718
1.77706
1.76782
1.75973
1.75224
1.74477
1.73682
1.72806
1.71843
1.70815
1.69777
1.68807
1.67995
1.67409
1.67065
1.66922
1.66898
1.83651
1.83719
1.83823
1.83917
1.83956
1.83899
1.83717
1.834
1.82953
1.82393
1.8174
1.81011
1.8022
1.79376
1.7848
1.77521
1.76552
1.75681
1.7493
1.74248
1.73586
1.72897
1.72149
1.71326
1.70435
1.6951
1.68609
1.67815
1.67203
1.66819
1.66644
1.66607
1.82298
1.82397
1.82531
1.82635
1.82653
1.82548
1.82296
1.81896
1.81369
1.80738
1.80031
1.79269
1.7847
1.77642
1.7679
1.75902
1.75025
1.74251
1.73595
1.7301
1.72453
1.71886
1.71278
1.70611
1.69883
1.69106
1.68321
1.67591
1.66995
1.66593
1.66393
1.66344
1.8049
1.8061
1.80734
1.8078
1.80709
1.80504
1.80156
1.79681
1.79103
1.78451
1.77749
1.77018
1.76273
1.75522
1.74768
1.74002
1.73261
1.72617
1.72079
1.71607
1.71164
1.70722
1.70255
1.69746
1.69185
1.68576
1.67937
1.67314
1.66773
1.66381
1.66169
1.66109
1.78199
1.78312
1.78352
1.78267
1.78062
1.77749
1.77335
1.7684
1.76282
1.75683
1.75061
1.74431
1.73804
1.73186
1.72576
1.71969
1.71391
1.70895
1.70486
1.7013
1.69803
1.6948
1.69144
1.6878
1.6838
1.67938
1.67462
1.66974
1.66525
1.66175
1.65968
1.659
1.75372
1.75421
1.75307
1.75073
1.74769
1.74415
1.74018
1.73587
1.7313
1.72659
1.72183
1.7171
1.71248
1.70798
1.70361
1.69931
1.69527
1.69184
1.68903
1.68661
1.68441
1.68227
1.68007
1.67771
1.67511
1.67224
1.66907
1.6657
1.6624
1.65964
1.65785
1.65719
1.71902
1.71824
1.71589
1.71322
1.71046
1.70768
1.70485
1.70197
1.69905
1.69612
1.69321
1.69036
1.68759
1.68493
1.68237
1.67987
1.67755
1.67558
1.67397
1.6726
1.67137
1.67018
1.66896
1.66767
1.66627
1.6647
1.66297
1.66107
1.65913
1.65738
1.65614
1.65561
1.67652
1.67588
1.67466
1.67348
1.67237
1.67132
1.6703
1.6693
1.66831
1.66733
1.66637
1.66543
1.66452
1.66366
1.66283
1.66202
1.66127
1.66064
1.66013
1.65969
1.6593
1.65892
1.65854
1.65814
1.65771
1.65722
1.65669
1.6561
1.65548
1.65489
1.65444
1.65422
)
;

boundaryField
{
    movingWall
    {
        type            fixedValue;
        value           uniform 1.6535;
    }
    fixedWalls
    {
        type            zeroGradient;
    }
    floor
    {
        type            zeroGradient;
    }
    frontAndBack
    {
        type            empty;
    }
}


// ************************************************************************* //
