/*--------------------------------*- C++ -*----------------------------------*\
| =========                 |                                                 |
| \\      /  F ield         | OpenFOAM: The Open Source CFD Toolbox           |
|  \\    /   O peration     | Version:  2212                                  |
|   \\  /    A nd           | Website:  www.openfoam.com                      |
|    \\/     M anipulation  |                                                 |
\*---------------------------------------------------------------------------*/
FoamFile
{
    version     2.0;
    format      ascii;
    arch        "LSB;label=64;scalar=64";
    class       volScalarField;
    location    "890";
    object      p;
}
// * * * * * * * * * * * * * * * * * * * * * * * * * * * * * * * * * * * * * //

dimensions      [0 2 -2 0 0 0 0];

internalField   nonuniform List<scalar> 
1024
(
0
-3.95573e-06
-7.88566e-06
-8.83858e-06
-5.17724e-06
4.57427e-06
2.31946e-05
5.54316e-05
0.000107589
0.000184203
0.00027771
0.000356373
0.000382659
0.000352221
0.000261619
0.000147744
4.57502e-05
-2.43376e-05
-6.74891e-05
-9.30464e-05
-0.000107225
-0.000114233
-0.000117048
-0.000117812
-0.000117968
-0.000118306
-0.000118861
-0.000119131
-0.000118555
-0.000117052
-0.000115187
-0.000113906
-0.0928118
-0.092816
-0.0928198
-0.092821
-0.0928185
-0.0928107
-0.0927945
-0.092765
-0.0927159
-0.0926425
-0.0925523
-0.0924765
-0.0924493
-0.0924765
-0.092564
-0.0926752
-0.0927751
-0.0928438
-0.0928859
-0.0929106
-0.0929241
-0.0929305
-0.0929327
-0.092933
-0.0929326
-0.0929324
-0.0929323
-0.0929322
-0.0929315
-0.0929301
-0.0929283
-0.092927
-0.199431
-0.199437
-0.199441
-0.199444
-0.199444
-0.19944
-0.199428
-0.199403
-0.199359
-0.199291
-0.199205
-0.199133
-0.199104
-0.199126
-0.199209
-0.199315
-0.199411
-0.199477
-0.199517
-0.199539
-0.199551
-0.199556
-0.199557
-0.199556
-0.199555
-0.199553
-0.199552
-0.199551
-0.19955
-0.199548
-0.199546
-0.199544
-0.321919
-0.321926
-0.321932
-0.321938
-0.321942
-0.321943
-0.321937
-0.321919
-0.321881
-0.321819
-0.321738
-0.32167
-0.321639
-0.321656
-0.321731
-0.32183
-0.32192
-0.321981
-0.322017
-0.322037
-0.322046
-0.322048
-0.322047
-0.322043
-0.322039
-0.322036
-0.322033
-0.322031
-0.322029
-0.322027
-0.322024
-0.322021
-0.462643
-0.462651
-0.462659
-0.462668
-0.462678
-0.462686
-0.462687
-0.462677
-0.462646
-0.462589
-0.462514
-0.46245
-0.462416
-0.462427
-0.462495
-0.462584
-0.462665
-0.462719
-0.46275
-0.462765
-0.46277
-0.462769
-0.462763
-0.462757
-0.462749
-0.462743
-0.462737
-0.462733
-0.462729
-0.462726
-0.462722
-0.462718
-0.624322
-0.624329
-0.624339
-0.624351
-0.624366
-0.624381
-0.62439
-0.624387
-0.624363
-0.624312
-0.624243
-0.624181
-0.624144
-0.624151
-0.624211
-0.62429
-0.62436
-0.624406
-0.62443
-0.624439
-0.624438
-0.624432
-0.624422
-0.62441
-0.624398
-0.624387
-0.624378
-0.62437
-0.624365
-0.62436
-0.624355
-0.62435
-0.810072
-0.810078
-0.810087
-0.810102
-0.810121
-0.810141
-0.810157
-0.81016
-0.810141
-0.810095
-0.81003
-0.809971
-0.809933
-0.809938
-0.809991
-0.810061
-0.810121
-0.810156
-0.810172
-0.810175
-0.810168
-0.810156
-0.81014
-0.810122
-0.810104
-0.810088
-0.810074
-0.810063
-0.810054
-0.810048
-0.810042
-0.810036
-1.02346
-1.02347
-1.02347
-1.02349
-1.02351
-1.02353
-1.02355
-1.02356
-1.02355
-1.02351
-1.02345
-1.02339
-1.02335
-1.02336
-1.02341
-1.02347
-1.02352
-1.02355
-1.02356
-1.02355
-1.02354
-1.02352
-1.0235
-1.02347
-1.02345
-1.02343
-1.02341
-1.02339
-1.02338
-1.02337
-1.02337
-1.02336
-1.26859
-1.26859
-1.26859
-1.2686
-1.26863
-1.26865
-1.26868
-1.26869
-1.26868
-1.26864
-1.26859
-1.26854
-1.26851
-1.26852
-1.26856
-1.26862
-1.26866
-1.26868
-1.26868
-1.26867
-1.26866
-1.26863
-1.26861
-1.26858
-1.26855
-1.26852
-1.2685
-1.26848
-1.26846
-1.26845
-1.26845
-1.26844
-1.55014
-1.55014
-1.55015
-1.55015
-1.55017
-1.5502
-1.55022
-1.55024
-1.55023
-1.55021
-1.55017
-1.55013
-1.55011
-1.55012
-1.55017
-1.55022
-1.55026
-1.55027
-1.55027
-1.55026
-1.55024
-1.55021
-1.55018
-1.55015
-1.55012
-1.55009
-1.55006
-1.55004
-1.55002
-1.55001
-1.55001
-1.55
-1.87355
-1.87354
-1.87354
-1.87355
-1.87356
-1.87358
-1.8736
-1.87362
-1.87362
-1.87361
-1.87359
-1.87357
-1.87357
-1.8736
-1.87364
-1.87369
-1.87373
-1.87374
-1.87374
-1.87372
-1.8737
-1.87368
-1.87365
-1.87361
-1.87358
-1.87355
-1.87352
-1.87349
-1.87348
-1.87347
-1.87346
-1.87346
-2.24501
-2.24501
-2.24501
-2.24501
-2.24501
-2.24502
-2.24504
-2.24505
-2.24507
-2.24508
-2.24508
-2.24509
-2.24511
-2.24515
-2.24521
-2.24525
-2.24529
-2.2453
-2.2453
-2.24529
-2.24527
-2.24524
-2.24521
-2.24518
-2.24514
-2.24511
-2.24508
-2.24505
-2.24504
-2.24503
-2.24502
-2.24502
-2.67171
-2.67171
-2.6717
-2.6717
-2.6717
-2.67171
-2.67172
-2.67173
-2.67175
-2.67178
-2.67181
-2.67184
-2.67189
-2.67194
-2.672
-2.67205
-2.67209
-2.67211
-2.67211
-2.67209
-2.67208
-2.67205
-2.67202
-2.67198
-2.67194
-2.67191
-2.67187
-2.67185
-2.67183
-2.67182
-2.67182
-2.67182
-3.16187
-3.16187
-3.16187
-3.16187
-3.16187
-3.16187
-3.16188
-3.1619
-3.16193
-3.16196
-3.162
-3.16206
-3.16212
-3.16218
-3.16224
-3.1623
-3.16234
-3.16236
-3.16236
-3.16235
-3.16233
-3.16229
-3.16225
-3.16221
-3.16216
-3.16211
-3.16208
-3.16205
-3.16204
-3.16203
-3.16203
-3.16203
-3.72498
-3.72498
-3.72498
-3.72497
-3.72498
-3.72498
-3.72499
-3.72501
-3.72504
-3.72507
-3.72512
-3.72517
-3.72524
-3.72531
-3.72537
-3.72543
-3.72548
-3.7255
-3.72549
-3.72547
-3.72543
-3.72537
-3.72531
-3.72524
-3.72519
-3.72514
-3.7251
-3.72508
-3.72507
-3.72507
-3.72507
-3.72508
-4.37186
-4.37186
-4.37186
-4.37186
-4.37186
-4.37187
-4.37188
-4.37189
-4.37192
-4.37195
-4.37199
-4.37204
-4.3721
-4.37217
-4.37223
-4.37229
-4.37233
-4.37233
-4.37231
-4.37225
-4.37217
-4.37208
-4.37198
-4.3719
-4.37183
-4.37179
-4.37177
-4.37177
-4.37177
-4.37177
-4.37178
-4.37178
-5.06349
-5.06349
-5.06349
-5.06349
-5.0635
-5.06351
-5.06352
-5.06353
-5.06356
-5.0636
-5.06365
-5.0637
-5.06376
-5.06383
-5.0639
-5.06397
-5.064
-5.064
-5.06395
-5.06386
-5.06375
-5.06362
-5.06349
-5.06339
-5.06331
-5.06327
-5.06325
-5.06325
-5.06325
-5.06326
-5.06326
-5.06327
-5.71044
-5.71044
-5.71045
-5.71045
-5.71046
-5.71047
-5.71048
-5.7105
-5.71053
-5.71056
-5.71061
-5.71066
-5.71073
-5.71081
-5.71089
-5.71097
-5.71103
-5.71105
-5.71103
-5.71096
-5.71086
-5.71073
-5.71059
-5.71046
-5.71036
-5.71029
-5.71026
-5.71025
-5.71026
-5.71026
-5.71027
-5.71028
-6.27371
-6.27371
-6.27371
-6.27371
-6.27372
-6.27373
-6.27375
-6.27377
-6.2738
-6.27384
-6.27389
-6.27395
-6.27402
-6.2741
-6.2742
-6.27429
-6.27438
-6.27443
-6.27444
-6.27441
-6.27433
-6.27423
-6.27411
-6.27399
-6.27388
-6.27379
-6.27372
-6.27369
-6.27368
-6.27368
-6.27369
-6.2737
-6.76409
-6.7641
-6.7641
-6.7641
-6.76411
-6.76412
-6.76413
-6.76416
-6.76419
-6.76423
-6.76428
-6.76434
-6.76441
-6.7645
-6.7646
-6.76471
-6.76481
-6.76488
-6.76491
-6.7649
-6.76485
-6.76478
-6.76468
-6.76458
-6.76446
-6.76436
-6.76428
-6.76423
-6.7642
-6.7642
-6.76421
-6.76422
-7.191
-7.19101
-7.19101
-7.19101
-7.19102
-7.19103
-7.19104
-7.19106
-7.19109
-7.19113
-7.19118
-7.19124
-7.19132
-7.19141
-7.19151
-7.19163
-7.19174
-7.19182
-7.19185
-7.19185
-7.19182
-7.19177
-7.1917
-7.19161
-7.19151
-7.1914
-7.19131
-7.19124
-7.19121
-7.19119
-7.1912
-7.19121
-7.56264
-7.56264
-7.56264
-7.56265
-7.56265
-7.56266
-7.56267
-7.56269
-7.56272
-7.56276
-7.56281
-7.56287
-7.56295
-7.56304
-7.56314
-7.56326
-7.56338
-7.56346
-7.5635
-7.56349
-7.56347
-7.56343
-7.56337
-7.56329
-7.5632
-7.5631
-7.563
-7.56292
-7.56287
-7.56285
-7.56285
-7.56286
-7.88617
-7.88617
-7.88617
-7.88617
-7.88617
-7.88618
-7.88619
-7.8862
-7.88623
-7.88626
-7.88631
-7.88638
-7.88645
-7.88655
-7.88666
-7.88678
-7.8869
-7.88699
-7.88702
-7.88701
-7.88699
-7.88694
-7.88688
-7.8868
-7.88671
-7.88661
-7.8865
-7.88641
-7.88634
-7.88631
-7.8863
-7.88632
-8.16781
-8.16781
-8.16781
-8.1678
-8.1678
-8.16781
-8.16781
-8.16782
-8.16784
-8.16788
-8.16793
-8.16799
-8.16808
-8.16818
-8.16829
-8.16842
-8.16854
-8.16862
-8.16866
-8.16865
-8.16862
-8.16856
-8.16849
-8.16839
-8.16828
-8.16816
-8.16804
-8.16793
-8.16783
-8.16778
-8.16777
-8.16778
-8.41299
-8.41299
-8.41299
-8.41298
-8.41298
-8.41297
-8.41297
-8.41298
-8.413
-8.41303
-8.41308
-8.41315
-8.41324
-8.41334
-8.41346
-8.41359
-8.41372
-8.4138
-8.41383
-8.41383
-8.41379
-8.41372
-8.41363
-8.41351
-8.41337
-8.41321
-8.41306
-8.41291
-8.41278
-8.4127
-8.41268
-8.41268
-8.62643
-8.62643
-8.62643
-8.62642
-8.62641
-8.6264
-8.62639
-8.62639
-8.62641
-8.62644
-8.6265
-8.62657
-8.62666
-8.62677
-8.6269
-8.62703
-8.62716
-8.62724
-8.62727
-8.62727
-8.62722
-8.62714
-8.62703
-8.62688
-8.6267
-8.62649
-8.62628
-8.62608
-8.62591
-8.62578
-8.62573
-8.62572
-8.81225
-8.81225
-8.81225
-8.81223
-8.81221
-8.81219
-8.81217
-8.81217
-8.81218
-8.81222
-8.81228
-8.81236
-8.81246
-8.81257
-8.8127
-8.81284
-8.81296
-8.81305
-8.81309
-8.81308
-8.81303
-8.81294
-8.8128
-8.81262
-8.8124
-8.81214
-8.81186
-8.81158
-8.81133
-8.81113
-8.81102
-8.81098
-8.97404
-8.97404
-8.97403
-8.974
-8.97396
-8.97392
-8.9739
-8.97389
-8.97391
-8.97395
-8.97401
-8.9741
-8.9742
-8.97432
-8.97445
-8.97459
-8.97472
-8.97481
-8.97484
-8.97483
-8.97478
-8.97468
-8.97453
-8.97432
-8.97406
-8.97374
-8.97339
-8.97301
-8.97266
-8.97235
-8.97215
-8.97205
-9.11494
-9.11492
-9.11488
-9.11482
-9.11476
-9.11472
-9.11469
-9.11468
-9.1147
-9.11474
-9.11481
-9.1149
-9.115
-9.11513
-9.11526
-9.1154
-9.11553
-9.11562
-9.11566
-9.11565
-9.11559
-9.11548
-9.11532
-9.11509
-9.1148
-9.11443
-9.11401
-9.11354
-9.11305
-9.11259
-9.11223
-9.11201
-9.2377
-9.23763
-9.23752
-9.23742
-9.23734
-9.23728
-9.23724
-9.23724
-9.23726
-9.23731
-9.23738
-9.23747
-9.23758
-9.23771
-9.23784
-9.23799
-9.23812
-9.23821
-9.23825
-9.23823
-9.23817
-9.23806
-9.23789
-9.23765
-9.23734
-9.23694
-9.23646
-9.23591
-9.23528
-9.23461
-9.23397
-9.23342
-9.34491
-9.34451
-9.34427
-9.34411
-9.34402
-9.34395
-9.34392
-9.34392
-9.34395
-9.34401
-9.34408
-9.34418
-9.34429
-9.34442
-9.34456
-9.3447
-9.34484
-9.34493
-9.34497
-9.34495
-9.34489
-9.34478
-9.3446
-9.34436
-9.34403
-9.34362
-9.34312
-9.3425
-9.34176
-9.34085
-9.33975
-9.33849
-9.43883
-9.43759
-9.43712
-9.43696
-9.43687
-9.43681
-9.43679
-9.4368
-9.43683
-9.43689
-9.43697
-9.43707
-9.43719
-9.43731
-9.43746
-9.43761
-9.43774
-9.43783
-9.43787
-9.43786
-9.4378
-9.43768
-9.43751
-9.43726
-9.43694
-9.43652
-9.43601
-9.43537
-9.43455
-9.43345
-9.43185
-9.42959
)
;

boundaryField
{
    movingWall
    {
        type            calculated;
        value           nonuniform List<scalar> 
32
(
-9.48206
-9.48082
-9.48035
-9.4802
-9.48011
-9.48005
-9.48003
-9.48004
-9.48007
-9.48013
-9.48021
-9.48031
-9.48042
-9.48055
-9.48069
-9.48084
-9.48098
-9.48107
-9.48111
-9.4811
-9.48103
-9.48092
-9.48075
-9.4805
-9.48018
-9.47976
-9.47925
-9.47861
-9.47779
-9.47669
-9.47509
-9.47283
)
;
    }
    fixedWalls
    {
        type            calculated;
        value           nonuniform List<scalar> 
64
(
6.93889e-18
-0.0928118
-0.199431
-0.321919
-0.462643
-0.624322
-0.810072
-1.02346
-1.26859
-1.55014
-1.87355
-2.24501
-2.67171
-3.16187
-3.72498
-4.37186
-5.06349
-5.71044
-6.27371
-6.76409
-7.191
-7.56264
-7.88617
-8.16781
-8.41299
-8.62643
-8.81225
-8.97404
-9.11494
-9.2377
-9.34491
-9.43883
-0.000113906
-0.092927
-0.199544
-0.322021
-0.462718
-0.62435
-0.810036
-1.02336
-1.26844
-1.55
-1.87346
-2.24502
-2.67182
-3.16203
-3.72508
-4.37178
-5.06327
-5.71028
-6.2737
-6.76422
-7.19121
-7.56286
-7.88632
-8.16778
-8.41268
-8.62572
-8.81098
-8.97205
-9.11201
-9.23342
-9.33849
-9.42959
)
;
    }
    floor
    {
        type            calculated;
        value           nonuniform List<scalar> 
32
(
0.0431952
0.0431913
0.0431874
0.0431866
0.0431905
0.0432005
0.0432194
0.0432519
0.0433043
0.0433813
0.0434751
0.043554
0.0435802
0.0435495
0.0434585
0.0433443
0.043242
0.0431717
0.0431284
0.0431027
0.0430884
0.0430813
0.0430784
0.0430775
0.0430773
0.0430768
0.0430762
0.0430758
0.0430763
0.0430778
0.0430796
0.0430809
)
;
    }
    frontAndBack
    {
        type            empty;
    }
}


// ************************************************************************* //
