/*--------------------------------*- C++ -*----------------------------------*\
| =========                 |                                                 |
| \\      /  F ield         | OpenFOAM: The Open Source CFD Toolbox           |
|  \\    /   O peration     | Version:  2212                                  |
|   \\  /    A nd           | Website:  www.openfoam.com                      |
|    \\/     M anipulation  |                                                 |
\*---------------------------------------------------------------------------*/
FoamFile
{
    version     2.0;
    format      ascii;
    arch        "LSB;label=64;scalar=64";
    class       volScalarField;
    location    "890";
    object      Sco2;
}
// * * * * * * * * * * * * * * * * * * * * * * * * * * * * * * * * * * * * * //

dimensions      [1 -3 0 0 0 0 0];

internalField   nonuniform List<scalar> 
1024
(
0.00594903
0.00595029
0.00595334
0.00595878
0.0059671
0.00597856
0.00599292
0.00600943
0.00602704
0.00604469
0.00606165
0.00607714
0.00608985
0.00609811
0.00610016
0.00609425
0.00607965
0.00605926
0.00603586
0.00600974
0.00598047
0.00594779
0.00591243
0.00587633
0.00584205
0.00581195
0.00578746
0.00576901
0.00575617
0.00574802
0.00574352
0.00574168
0.00594905
0.00595034
0.00595346
0.00595901
0.0059675
0.00597913
0.00599362
0.00601018
0.00602777
0.00604537
0.00606232
0.00607784
0.00609056
0.00609875
0.0061007
0.0060947
0.00608008
0.00605979
0.00603655
0.00601067
0.00598168
0.00594928
0.00591412
0.00587808
0.00584369
0.00581335
0.00578859
0.00576987
0.00575682
0.00574855
0.00574398
0.00574211
0.00594906
0.0059504
0.00595363
0.00595937
0.00596811
0.00597999
0.00599466
0.00601128
0.00602886
0.00604648
0.0060636
0.00607942
0.00609232
0.00610038
0.00610198
0.0060956
0.00608082
0.00606064
0.00603773
0.00601235
0.005984
0.00595225
0.00591758
0.00588173
0.00584717
0.00581639
0.00579105
0.0057718
0.00575833
0.00574977
0.00574505
0.00574312
0.00594897
0.00595035
0.00595371
0.00595965
0.00596862
0.0059807
0.00599549
0.00601215
0.00602977
0.00604763
0.00606536
0.00608205
0.00609553
0.00610341
0.0061042
0.00609689
0.00608155
0.00606138
0.00603892
0.00601433
0.00598701
0.00595636
0.00592258
0.00588717
0.00585248
0.00582111
0.00579496
0.00577491
0.0057608
0.00575183
0.00574689
0.00574487
0.00594858
0.00595001
0.00595344
0.00595948
0.00596854
0.00598068
0.00599545
0.00601209
0.0060299
0.00604844
0.00606749
0.00608594
0.00610059
0.00610821
0.00610751
0.00609833
0.00608173
0.00606127
0.00603929
0.00601574
0.00598986
0.0059608
0.00592843
0.00589383
0.00585922
0.00582728
0.00580021
0.00577918
0.00576428
0.00575478
0.00574955
0.00574742
0.00594763
0.00594907
0.00595249
0.00595845
0.00596736
0.00597927
0.00599382
0.00601042
0.00602868
0.00604852
0.00606991
0.00609123
0.00610777
0.00611498
0.00611181
0.00609942
0.00608046
0.00605919
0.0060376
0.00601528
0.00599122
0.00596427
0.00593385
0.00590062
0.00586649
0.00583422
0.00580631
0.00578431
0.00576858
0.00575851
0.00575296
0.00575072
0.00594573
0.00594715
0.00595045
0.00595613
0.0059646
0.00597597
0.00599007
0.00600662
0.0060257
0.00604766
0.00607263
0.00609807
0.00611716
0.00612358
0.00611655
0.00609915
0.00607639
0.00605355
0.00603214
0.00601119
0.0059893
0.00596496
0.0059371
0.00590587
0.00587284
0.00584075
0.00581238
0.00578965
0.00577323
0.00576266
0.00575685
0.00575451
0.0059425
0.00594385
0.00594692
0.00595215
0.00595991
0.00597046
0.00598394
0.00600054
0.00602093
0.00604606
0.00607605
0.00610682
0.00612872
0.00613339
0.00612054
0.00609584
0.00606751
0.00604221
0.00602077
0.00600136
0.00598203
0.00596079
0.00593609
0.00590755
0.00587639
0.00584526
0.00581711
0.0057942
0.00577747
0.00576666
0.00576069
0.0057583
0.00593766
0.00593891
0.00594169
0.00594634
0.00595327
0.00596289
0.00597575
0.00599271
0.00601522
0.00604489
0.00608146
0.0061184
0.00614255
0.00614343
0.00612188
0.00608703
0.00605118
0.00602257
0.006001
0.00598345
0.00596717
0.00594961
0.00592869
0.0059036
0.00587518
0.00584598
0.00581901
0.00579675
0.00578033
0.00576964
0.00576371
0.00576132
0.00593172
0.00593278
0.00593518
0.00593923
0.00594539
0.0059543
0.00596699
0.00598517
0.00601121
0.00604725
0.00609179
0.00613476
0.00615904
0.00615252
0.00611822
0.00606987
0.00602456
0.00599201
0.00597045
0.00595528
0.00594273
0.00592954
0.00591311
0.00589224
0.00586752
0.00584134
0.00581669
0.00579606
0.0057807
0.0057706
0.00576493
0.00576259
0.00592754
0.00592831
0.00593019
0.00593365
0.00593934
0.00594827
0.00596204
0.00598321
0.00601497
0.00605924
0.00611205
0.0061589
0.00617884
0.00615938
0.00610736
0.00604209
0.00598578
0.00594908
0.00592788
0.00591567
0.00590754
0.00589942
0.00588819
0.00587234
0.00585229
0.00583024
0.00580904
0.00579104
0.00577745
0.00576836
0.00576312
0.0057609
0.00593351
0.00593394
0.00593532
0.00593839
0.00594424
0.00595449
0.00597142
0.00599817
0.00603786
0.00609077
0.00614921
0.00619406
0.00620202
0.00616269
0.00608844
0.00600428
0.00593663
0.00589593
0.00587519
0.00586602
0.00586241
0.00585957
0.00585391
0.00584366
0.00582908
0.00581211
0.00579528
0.00578066
0.00576934
0.0057615
0.00575678
0.00575467
0.0059661
0.00596648
0.00596791
0.00597147
0.0059788
0.00599212
0.00601426
0.00604815
0.00609537
0.00615299
0.00620897
0.00624108
0.00622714
0.00616223
0.00606507
0.00596433
0.00588736
0.00584278
0.00582109
0.00581295
0.00581193
0.00581292
0.00581205
0.00580719
0.00579827
0.00578677
0.00577468
0.00576366
0.00575468
0.00574807
0.00574385
0.00574185
0.00604441
0.00604534
0.00604802
0.00605369
0.00606417
0.00608181
0.00610909
0.00614762
0.00619632
0.00624849
0.00628893
0.00629582
0.00625314
0.00616448
0.00605318
0.00594595
0.00586514
0.00581577
0.00578814
0.00577406
0.00576847
0.00576727
0.00576698
0.00576509
0.00576058
0.00575379
0.00574582
0.0057379
0.00573103
0.00572582
0.00572246
0.00572088
0.00617211
0.00617398
0.00617855
0.00618697
0.00620072
0.00622144
0.00625038
0.00628715
0.00632783
0.00636304
0.00637765
0.00635576
0.00629226
0.0061988
0.00609655
0.00600269
0.00592889
0.00587507
0.00583374
0.00580029
0.00577318
0.00575197
0.00573604
0.00572437
0.0057159
0.00570992
0.00570619
0.00570465
0.00570506
0.00570671
0.0057086
0.0057098
0.00632235
0.00632481
0.00633053
0.00634048
0.0063557
0.00637703
0.00640435
0.00643545
0.00646464
0.0064826
0.00647946
0.0064504
0.00640046
0.00634186
0.00628694
0.00624219
0.00620814
0.00617642
0.00613907
0.00609469
0.00604526
0.00599435
0.00594635
0.00590539
0.00587479
0.00585646
0.00585051
0.00585507
0.00586637
0.00587965
0.0058906
0.00589651
0.00644517
0.0064478
0.00645414
0.00646546
0.00648302
0.0065075
0.00653819
0.00657216
0.00660436
0.00662963
0.00664632
0.00665814
0.00667286
0.00669872
0.0067422
0.0068079
0.00689129
0.0069718
0.0070323
0.00707029
0.00708577
0.00707947
0.00705421
0.00701396
0.00696375
0.00690961
0.0068579
0.00681473
0.00678417
0.00676677
0.00675958
0.00675813
0.00651604
0.0065187
0.00652547
0.0065382
0.00655879
0.00658871
0.00662814
0.00667543
0.00672757
0.00678204
0.00683952
0.00690481
0.00698532
0.00708837
0.00722041
0.00738777
0.00758205
0.00777162
0.00793434
0.00806948
0.00817676
0.00825425
0.00830068
0.00831534
0.00829906
0.00825549
0.00819153
0.0081178
0.00804711
0.00799096
0.00795561
0.00794055
0.00655107
0.00655369
0.00656045
0.00657332
0.00659451
0.00662607
0.00666922
0.00672368
0.00678787
0.00686007
0.00694064
0.00703312
0.00714335
0.00727721
0.00743927
0.0076326
0.00784223
0.00803395
0.00819432
0.00833215
0.00845356
0.00856025
0.00865087
0.00872191
0.00876941
0.0087908
0.00878641
0.00876069
0.00872246
0.00868324
0.00865352
0.00863878
0.00656651
0.00656906
0.00657555
0.00658779
0.00660796
0.00663827
0.00668039
0.00673488
0.006801
0.00687734
0.00696348
0.00706125
0.0071746
0.00730789
0.00746404
0.0076431
0.00782658
0.00798357
0.00811095
0.00822514
0.00833715
0.0084509
0.0085646
0.00867187
0.00876488
0.00883717
0.00888535
0.00890988
0.00891495
0.00890783
0.00889719
0.00889016
0.00657195
0.00657427
0.00658014
0.00659118
0.00660938
0.00663684
0.00667536
0.00672584
0.00678801
0.00686071
0.00694304
0.00703557
0.00714078
0.00726197
0.00740153
0.00755898
0.00771692
0.00784985
0.00795954
0.0080638
0.00817578
0.00830087
0.00843762
0.00857713
0.00870707
0.00881632
0.00889801
0.00895091
0.00897868
0.00898821
0.00898786
0.00898524
0.00657659
0.0065783
0.00658286
0.00659185
0.00660716
0.00663082
0.0066646
0.00670953
0.00676564
0.00683208
0.00690794
0.00699324
0.00708952
0.00719935
0.00732508
0.00746708
0.0076112
0.00773625
0.00784369
0.00794829
0.0080624
0.00819277
0.00834026
0.00849788
0.00865281
0.00879101
0.0089011
0.00897795
0.00902324
0.00904375
0.00904889
0.00904806
0.00659196
0.00659236
0.00659437
0.0065998
0.00661084
0.00662974
0.00665839
0.00669799
0.00674883
0.00681044
0.00688214
0.00696374
0.00705615
0.00716118
0.0072809
0.00741654
0.00755707
0.00768379
0.00779569
0.00790396
0.00801904
0.00814842
0.00829497
0.00845504
0.0086189
0.00877284
0.00890285
0.00899953
0.00906085
0.0090918
0.00910197
0.00910246
0.00663208
0.00663019
0.00662793
0.00662783
0.00663294
0.00664632
0.00667041
0.00670674
0.00675582
0.00681731
0.00689048
0.00697476
0.0070702
0.00717764
0.00729841
0.00743413
0.00757571
0.00770564
0.00782085
0.0079302
0.00804276
0.00816603
0.008304
0.00845562
0.00861483
0.0087708
0.00890992
0.00901991
0.00909436
0.009135
0.00915027
0.00915217
0.00671145
0.00670616
0.00669801
0.00669092
0.00668951
0.00669817
0.0067203
0.00675774
0.00681073
0.00687837
0.0069592
0.00705171
0.0071549
0.00726848
0.00739288
0.00752977
0.00767102
0.00780014
0.00791341
0.00801855
0.00812363
0.00823573
0.00835948
0.00849584
0.00864152
0.0087888
0.00892645
0.00904185
0.00912519
0.00917404
0.00919433
0.0091978
0.00684217
0.00683263
0.00681808
0.00680482
0.00679939
0.00680742
0.00683293
0.00687742
0.00693999
0.00701835
0.00710978
0.00721173
0.00732222
0.00744017
0.00756535
0.00769932
0.00783472
0.0079566
0.00806176
0.0081573
0.00825046
0.00834753
0.0084532
0.00856962
0.0086958
0.00882704
0.00895484
0.00906781
0.00915472
0.00920943
0.00923426
0.00923945
0.00703237
0.00701842
0.0069995
0.00698496
0.00698241
0.00699721
0.00703267
0.00708878
0.00716287
0.0072513
0.00735046
0.00745718
0.00756914
0.00768495
0.0078042
0.00792834
0.00805092
0.00815925
0.00825116
0.00833314
0.00841142
0.00849133
0.00857709
0.00867132
0.00877453
0.00888463
0.00899614
0.00909981
0.00918455
0.00924181
0.00927018
0.00927717
0.00728671
0.00726971
0.00725239
0.00724592
0.00725591
0.0072848
0.00733366
0.00740053
0.00748174
0.00757342
0.00767198
0.00777453
0.00787896
0.00798411
0.00808963
0.00819689
0.00830059
0.0083907
0.00846608
0.00853228
0.0085944
0.00865666
0.00872254
0.00879452
0.00887385
0.00896022
0.00905087
0.00913948
0.00921642
0.00927218
0.00930234
0.00931094
0.00760923
0.00759324
0.00758764
0.00759965
0.00762857
0.00767262
0.00773084
0.00780063
0.00787909
0.00796333
0.00805072
0.00813913
0.00822709
0.00831381
0.00839915
0.00848425
0.00856513
0.00863449
0.00869188
0.00874167
0.00878769
0.00883308
0.00888045
0.00893182
0.00898851
0.00905107
0.0091187
0.00918798
0.00925194
0.00930175
0.00933118
0.00934082
0.00800741
0.00800048
0.00801659
0.00804951
0.00809236
0.00814217
0.00819816
0.00825888
0.00832312
0.00838944
0.0084564
0.00852278
0.00858771
0.0086508
0.00871203
0.00877225
0.00882875
0.00887676
0.00891618
0.00895007
0.008981
0.0090111
0.00904212
0.00907546
0.00911216
0.00915291
0.00919786
0.00924574
0.00929262
0.00933196
0.0093574
0.00936694
0.00849637
0.00850736
0.00854045
0.00857815
0.00861696
0.00865619
0.0086961
0.00873661
0.00877768
0.00881896
0.0088599
0.00889997
0.00893875
0.00897608
0.009012
0.009047
0.00907959
0.00910711
0.0091296
0.00914881
0.00916619
0.00918292
0.00919999
0.00921819
0.0092381
0.00926023
0.00928487
0.00931179
0.00933941
0.00936431
0.00938203
0.00938963
0.0090954
0.00910442
0.00912174
0.0091383
0.00915388
0.00916871
0.00918307
0.00919716
0.00921111
0.00922492
0.00923849
0.00925167
0.00926436
0.00927651
0.00928816
0.00929946
0.00930993
0.00931875
0.00932595
0.00933207
0.00933758
0.00934286
0.0093482
0.00935387
0.00936004
0.00936687
0.00937449
0.00938288
0.00939169
0.0094
0.00940641
0.00940954
)
;

boundaryField
{
    movingWall
    {
        type            fixedValue;
        value           uniform 0.00942;
    }
    fixedWalls
    {
        type            zeroGradient;
    }
    floor
    {
        type            zeroGradient;
    }
    frontAndBack
    {
        type            empty;
    }
}


// ************************************************************************* //
