/*--------------------------------*- C++ -*----------------------------------*\
| =========                 |                                                 |
| \\      /  F ield         | OpenFOAM: The Open Source CFD Toolbox           |
|  \\    /   O peration     | Version:  2212                                  |
|   \\  /    A nd           | Website:  www.openfoam.com                      |
|    \\/     M anipulation  |                                                 |
\*---------------------------------------------------------------------------*/
FoamFile
{
    version     2.0;
    format      ascii;
    arch        "LSB;label=64;scalar=64";
    class       volVectorField;
    location    "890";
    object      U;
}
// * * * * * * * * * * * * * * * * * * * * * * * * * * * * * * * * * * * * * //

dimensions      [0 1 -1 0 0 0 0];

internalField   nonuniform List<vector> 
1024
(
(1.31987e-05 -1.41328e-05 0)
(-8.54858e-05 2.18055e-05 0)
(-0.000380303 5.33693e-05 0)
(-0.000829132 6.25792e-05 0)
(-0.00135054 6.04128e-05 0)
(-0.00189106 5.63706e-05 0)
(-0.00242112 5.19353e-05 0)
(-0.00289818 4.41984e-05 0)
(-0.00322558 2.8498e-05 0)
(-0.00322528 -1.64478e-06 0)
(-0.00261961 -4.4986e-05 0)
(-0.00128672 -7.5462e-05 0)
(0.000651797 -6.31833e-05 0)
(0.00208682 -4.01045e-05 0)
(0.00303379 -1.2626e-05 0)
(0.00334595 2.78922e-06 0)
(0.00322649 8.81863e-06 0)
(0.00292419 1.10535e-05 0)
(0.0025755 1.21138e-05 0)
(0.0022256 1.27144e-05 0)
(0.00189184 1.29933e-05 0)
(0.00158464 1.27999e-05 0)
(0.00131242 1.19994e-05 0)
(0.00107968 1.07543e-05 0)
(0.000883526 9.64348e-06 0)
(0.000710698 1.00182e-05 0)
(0.000542731 1.25969e-05 0)
(0.000370057 1.62245e-05 0)
(0.000203821 1.73397e-05 0)
(7.25867e-05 1.21593e-05 0)
(2.1282e-06 6.8124e-07 0)
(-8.20256e-06 -8.23496e-06 0)
(-2.94124e-05 8.95817e-05 0)
(-0.000435199 0.000389216 0)
(-0.00128332 0.000622541 0)
(-0.00248227 0.000699804 0)
(-0.00384544 0.000666579 0)
(-0.00522715 0.000585426 0)
(-0.00651507 0.000478824 0)
(-0.00756813 0.000335817 0)
(-0.00814516 0.000132049 0)
(-0.00786872 -0.000160526 0)
(-0.00619871 -0.000506207 0)
(-0.00294861 -0.000770842 0)
(0.00194801 -0.00068978 0)
(0.00553218 -0.000432409 0)
(0.00807188 -0.000192202 0)
(0.0091352 -2.4347e-05 0)
(0.00904441 6.15563e-05 0)
(0.00839498 0.000102603 0)
(0.00754117 0.000126711 0)
(0.00662941 0.000143094 0)
(0.00572453 0.000154664 0)
(0.00486487 0.000161011 0)
(0.00407871 0.000161498 0)
(0.00338219 0.000157952 0)
(0.00277231 0.000156188 0)
(0.00222279 0.000165657 0)
(0.00169763 0.000189543 0)
(0.00118137 0.000215455 0)
(0.000701585 0.000216062 0)
(0.00031899 0.000168287 0)
(8.63674e-05 7.93608e-05 0)
(6.76584e-07 1.21825e-06 0)
(-8.36682e-05 0.000464413 0)
(-0.000831037 0.00130945 0)
(-0.00219068 0.00185911 0)
(-0.00400463 0.00201233 0)
(-0.00600249 0.00187861 0)
(-0.0079641 0.00159721 0)
(-0.00969705 0.00123073 0)
(-0.0109762 0.000771319 0)
(-0.0114735 0.000179399 0)
(-0.0107086 -0.000590017 0)
(-0.00814085 -0.00143638 0)
(-0.00365561 -0.00211072 0)
(0.00311741 -0.00191638 0)
(0.00814677 -0.00122482 0)
(0.0120066 -0.000604136 0)
(0.0139752 -0.000138247 0)
(0.014218 0.000124747 0)
(0.0135159 0.000261535 0)
(0.0123887 0.000348272 0)
(0.0110847 0.00041058 0)
(0.00972647 0.000457704 0)
(0.00838764 0.000489845 0)
(0.00712043 0.000506075 0)
(0.00595693 0.000511334 0)
(0.00490227 0.000520267 0)
(0.00393239 0.000554256 0)
(0.00301168 0.000618734 0)
(0.00212751 0.000681791 0)
(0.00131613 0.000678319 0)
(0.000654551 0.000554986 0)
(0.000218537 0.000324639 0)
(1.60934e-05 8.13587e-05 0)
(-0.000121148 0.00115347 0)
(-0.00111317 0.00286263 0)
(-0.00283029 0.00382339 0)
(-0.00504507 0.00401629 0)
(-0.00741491 0.00366962 0)
(-0.00966211 0.00302747 0)
(-0.0115366 0.00221335 0)
(-0.0127637 0.001239 0)
(-0.0129794 5.91517e-05 0)
(-0.011672 -0.00136911 0)
(-0.00848419 -0.00284862 0)
(-0.00336722 -0.00402028 0)
(0.00396938 -0.00367977 0)
(0.00974346 -0.00243589 0)
(0.0145323 -0.00130952 0)
(0.0174245 -0.000408341 0)
(0.0182725 0.00014453 0)
(0.0178233 0.000452279 0)
(0.0167049 0.000657845 0)
(0.0152455 0.000812576 0)
(0.0136214 0.000935822 0)
(0.0119419 0.00102992 0)
(0.0102841 0.00109427 0)
(0.00869934 0.00113773 0)
(0.00720898 0.00118515 0)
(0.00580541 0.00127054 0)
(0.0044685 0.00140108 0)
(0.00319528 0.00152103 0)
(0.00202658 0.0015167 0)
(0.00105107 0.00128724 0)
(0.000375651 0.000832559 0)
(3.33996e-05 0.000275051 0)
(-0.000126313 0.00208928 0)
(-0.00117099 0.00492565 0)
(-0.00298343 0.00637946 0)
(-0.00531341 0.00657055 0)
(-0.00777589 0.00589331 0)
(-0.0100487 0.00472899 0)
(-0.0118437 0.00328806 0)
(-0.0128653 0.00162319 0)
(-0.0127419 -0.000301377 0)
(-0.0110388 -0.00248934 0)
(-0.00756462 -0.00465027 0)
(-0.00228024 -0.00626588 0)
(0.0045109 -0.00575628 0)
(0.0104345 -0.00398503 0)
(0.0156538 -0.00230731 0)
(0.0192591 -0.000889998 0)
(0.0208302 5.03487e-05 0)
(0.020857 0.000608107 0)
(0.0200073 0.000996744 0)
(0.0186473 0.00130239 0)
(0.0169868 0.00155775 0)
(0.0151598 0.00176891 0)
(0.013263 0.00193635 0)
(0.0113656 0.00207255 0)
(0.00950908 0.00221078 0)
(0.00771039 0.00239452 0)
(0.00597446 0.00263136 0)
(0.00431509 0.00284097 0)
(0.00278098 0.00285223 0)
(0.00147555 0.00249063 0)
(0.000544001 0.00170651 0)
(5.1822e-05 0.000627535 0)
(-9.60715e-05 0.00309251 0)
(-0.000976058 0.00718739 0)
(-0.00258555 0.00923351 0)
(-0.00472741 0.00944548 0)
(-0.00702691 0.00837689 0)
(-0.00913431 0.00657164 0)
(-0.0107343 0.00436261 0)
(-0.0115265 0.00187484 0)
(-0.0111405 -0.000891292 0)
(-0.00927099 -0.00388571 0)
(-0.00580933 -0.00673123 0)
(-0.000761421 -0.00863806 0)
(0.00498185 -0.00794289 0)
(0.0105626 -0.00575528 0)
(0.0156965 -0.00354124 0)
(0.019605 -0.00159209 0)
(0.0217548 -0.000214994 0)
(0.0223263 0.00066009 0)
(0.0219021 0.00129239 0)
(0.0208415 0.00180988 0)
(0.0193568 0.0022619 0)
(0.017587 0.00265983 0)
(0.0156359 0.00300573 0)
(0.0135841 0.00331449 0)
(0.0114904 0.00362389 0)
(0.00939617 0.00398115 0)
(0.00733345 0.00439045 0)
(0.00533843 0.00474466 0)
(0.0034754 0.00480381 0)
(0.00186799 0.00428685 0)
(0.000700326 0.00304638 0)
(6.92638e-05 0.00118397 0)
(-4.35243e-05 0.00391939 0)
(-0.000593936 0.00920132 0)
(-0.0017449 0.01195 0)
(-0.00342365 0.0123172 0)
(-0.00533909 0.0109173 0)
(-0.00714618 0.00844662 0)
(-0.00851066 0.00539773 0)
(-0.00912703 0.00200998 0)
(-0.00861414 -0.00164757 0)
(-0.00676047 -0.00547664 0)
(-0.00351881 -0.00897424 0)
(0.000935483 -0.0109861 0)
(0.00557117 -0.0101151 0)
(0.0104718 -0.00761824 0)
(0.015104 -0.00491135 0)
(0.0188599 -0.00246017 0)
(0.0212226 -0.000652988 0)
(0.0222282 0.000566553 0)
(0.0222364 0.00148328 0)
(0.0215618 0.00226241 0)
(0.020388 0.00297203 0)
(0.0188357 0.00363013 0)
(0.0169999 0.00424043 0)
(0.0149615 0.00481834 0)
(0.0127895 0.00540145 0)
(0.0105431 0.00603407 0)
(0.00827728 0.00670967 0)
(0.00605249 0.00728555 0)
(0.00395566 0.00743574 0)
(0.00213468 0.00673814 0)
(0.000804454 0.00490077 0)
(8.06656e-05 0.00196632 0)
(1.01037e-05 0.00434495 0)
(-0.000151406 0.0104878 0)
(-0.000689271 0.0139931 0)
(-0.00168329 0.0147523 0)
(-0.00300842 0.0132467 0)
(-0.00438568 0.0102348 0)
(-0.00548159 0.00637901 0)
(-0.00597581 0.00207318 0)
(-0.00543606 -0.00250659 0)
(-0.00370528 -0.00719223 0)
(-0.000829511 -0.0112443 0)
(0.00268889 -0.0131722 0)
(0.0063322 -0.012186 0)
(0.0103401 -0.00944558 0)
(0.0141923 -0.00629865 0)
(0.0174403 -0.0033965 0)
(0.0196461 -0.00120621 0)
(0.0208302 0.000335694 0)
(0.0211382 0.00154412 0)
(0.0208112 0.00260996 0)
(0.0199797 0.00362094 0)
(0.0187256 0.00460271 0)
(0.0171196 0.00556006 0)
(0.0152315 0.00650648 0)
(0.01313 0.00747452 0)
(0.0108836 0.00849844 0)
(0.00856369 0.00954954 0)
(0.00625396 0.0104316 0)
(0.00406826 0.0107078 0)
(0.00217874 0.00978565 0)
(0.000813005 0.00720425 0)
(8.00253e-05 0.00293868 0)
(4.51551e-05 0.00427171 0)
(0.000214231 0.0106978 0)
(0.000289443 0.0148123 0)
(0.000104073 0.0162158 0)
(-0.000426869 0.0149961 0)
(-0.00118656 0.0117733 0)
(-0.00190133 0.00730476 0)
(-0.00224871 0.00214387 0)
(-0.00170475 -0.00339167 0)
(-0.000190095 -0.00895243 0)
(0.0020596 -0.0132825 0)
(0.00451853 -0.0150738 0)
(0.00720917 -0.0140435 0)
(0.0101686 -0.0110974 0)
(0.0130561 -0.00757693 0)
(0.0155726 -0.00429382 0)
(0.0173724 -0.00178813 0)
(0.0184699 2.35381e-05 0)
(0.0188976 0.00149578 0)
(0.0188044 0.00284124 0)
(0.0182666 0.00416998 0)
(0.0173169 0.00551684 0)
(0.0159915 0.00688699 0)
(0.0143395 0.00828918 0)
(0.012421 0.00974606 0)
(0.0103051 0.0112729 0)
(0.00807456 0.0128014 0)
(0.00583546 0.0140533 0)
(0.00373043 0.0144489 0)
(0.00194968 0.0132125 0)
(0.000705028 0.00974025 0)
(6.48147e-05 0.00398703 0)
(6.05008e-05 0.00372695 0)
(0.000441911 0.00976701 0)
(0.0009809 0.0140814 0)
(0.00149917 0.0160343 0)
(0.00181861 0.0154204 0)
(0.00188663 0.0125468 0)
(0.00181075 0.00797117 0)
(0.00184184 0.00220466 0)
(0.00241556 -0.00427182 0)
(0.00350322 -0.0103284 0)
(0.00491372 -0.0147519 0)
(0.00642752 -0.0165651 0)
(0.00805638 -0.015504 0)
(0.00982932 -0.0123957 0)
(0.0116114 -0.00860252 0)
(0.0132626 -0.00504692 0)
(0.0145396 -0.0023107 0)
(0.0153636 -0.0003025 0)
(0.0157879 0.00138094 0)
(0.0158227 0.00297278 0)
(0.0155076 0.00460806 0)
(0.0148301 0.00633402 0)
(0.0137909 0.00815701 0)
(0.0124152 0.0100788 0)
(0.0107488 0.0121071 0)
(0.00885785 0.0142249 0)
(0.00683509 0.0162977 0)
(0.00481139 0.0179243 0)
(0.00295765 0.0183505 0)
(0.00146615 0.016642 0)
(0.000494522 0.0121531 0)
(3.80972e-05 0.00493283 0)
(5.7084e-05 0.00284449 0)
(0.000512633 0.00785494 0)
(0.00129835 0.0118592 0)
(0.0022783 0.0140907 0)
(0.00325268 0.0140691 0)
(0.00408463 0.0117768 0)
(0.00475341 0.00754161 0)
(0.00539372 0.00180959 0)
(0.0061036 -0.00488622 0)
(0.00684684 -0.0111675 0)
(0.0075643 -0.0156691 0)
(0.00812974 -0.0174314 0)
(0.00859213 -0.0163161 0)
(0.00907401 -0.0131168 0)
(0.00965596 -0.00920471 0)
(0.0103705 -0.00554752 0)
(0.0110946 -0.00270453 0)
(0.0116423 -0.000582832 0)
(0.0119976 0.0012396 0)
(0.0121003 0.00302446 0)
(0.0119579 0.00493264 0)
(0.0115178 0.00702677 0)
(0.0107498 0.00931597 0)
(0.00965788 0.011794 0)
(0.00827524 0.0144458 0)
(0.00666735 0.0172016 0)
(0.00494456 0.0198165 0)
(0.00326986 0.0217147 0)
(0.00183466 0.0219595 0)
(0.000799242 0.0195549 0)
(0.000221517 0.0139979 0)
(6.71871e-06 0.00557376 0)
(4.12681e-05 0.00185569 0)
(0.000444089 0.00542421 0)
(0.00123636 0.00861233 0)
(0.00236273 0.0107049 0)
(0.0036636 0.0110592 0)
(0.00498289 0.00937199 0)
(0.0062332 0.00570709 0)
(0.00747543 0.000347561 0)
(0.00851065 -0.00595459 0)
(0.00918581 -0.0118202 0)
(0.00938052 -0.0159517 0)
(0.00904382 -0.0174452 0)
(0.00833404 -0.0162171 0)
(0.00751293 -0.0130216 0)
(0.00689707 -0.0092049 0)
(0.0066848 -0.00568949 0)
(0.00688337 -0.00292283 0)
(0.00722114 -0.000795342 0)
(0.00755748 0.00107927 0)
(0.00773094 0.00298978 0)
(0.00774463 0.00512478 0)
(0.00751476 0.00756093 0)
(0.0069913 0.0103102 0)
(0.00616752 0.0133546 0)
(0.00507589 0.0166419 0)
(0.00379447 0.0200128 0)
(0.0024703 0.0230466 0)
(0.00131006 0.0249426 0)
(0.00048904 0.0246437 0)
(6.45461e-05 0.0213019 0)
(-5.20372e-05 0.0147841 0)
(-2.05095e-05 0.00572388 0)
(2.25031e-05 0.00100791 0)
(0.000303016 0.00310108 0)
(0.000927161 0.00514722 0)
(0.0019257 0.00663726 0)
(0.00323065 0.00695524 0)
(0.00473994 0.00563438 0)
(0.00637059 0.00251637 0)
(0.00796961 -0.00230573 0)
(0.0092142 -0.00760195 0)
(0.00979578 -0.0123583 0)
(0.00953385 -0.0155575 0)
(0.00838345 -0.0164374 0)
(0.00661469 -0.0149888 0)
(0.00461923 -0.0119053 0)
(0.00297659 -0.00846665 0)
(0.00197441 -0.00540897 0)
(0.00169693 -0.00295809 0)
(0.00188281 -0.000978845 0)
(0.00229116 0.000844399 0)
(0.00252204 0.00280632 0)
(0.00266274 0.00511337 0)
(0.00260034 0.00786067 0)
(0.00228055 0.011067 0)
(0.00171051 0.0146892 0)
(0.000959826 0.0185893 0)
(0.000154743 0.0224412 0)
(-0.000507615 0.0254976 0)
(-0.000860464 0.0267518 0)
(-0.000874551 0.0254499 0)
(-0.000627575 0.0211912 0)
(-0.000295596 0.0142193 0)
(-4.25608e-05 0.00530856 0)
(1.13883e-05 0.000425681 0)
(0.000198007 0.00131168 0)
(0.000654069 0.00215997 0)
(0.00145856 0.00267811 0)
(0.00262749 0.0024163 0)
(0.00409213 0.00087539 0)
(0.00567565 -0.00206024 0)
(0.00712134 -0.00566274 0)
(0.00806377 -0.00935152 0)
(0.00818762 -0.012441 0)
(0.00731985 -0.0142434 0)
(0.005353 -0.0141892 0)
(0.00270887 -0.0124525 0)
(-0.00019201 -0.00962245 0)
(-0.00248543 -0.00691499 0)
(-0.00399707 -0.00470648 0)
(-0.00476758 -0.0028625 0)
(-0.00488607 -0.00123068 0)
(-0.00464839 0.00049412 0)
(-0.00448027 0.00252704 0)
(-0.00426269 0.00501381 0)
(-0.00410902 0.00808788 0)
(-0.00405325 0.0117276 0)
(-0.00406892 0.015754 0)
(-0.00406748 0.0198154 0)
(-0.00392528 0.0233581 0)
(-0.00353894 0.0256233 0)
(-0.00288855 0.0258351 0)
(-0.00205152 0.0235364 0)
(-0.00118029 0.0187422 0)
(-0.000471083 0.0120214 0)
(-5.42969e-05 0.00426597 0)
(1.42694e-05 -9.93692e-05 0)
(0.000181684 -0.000318293 0)
(0.000553032 -0.000650113 0)
(0.00117036 -0.00123675 0)
(0.00201824 -0.00225737 0)
(0.00300597 -0.00377853 0)
(0.00394753 -0.00573267 0)
(0.00458803 -0.00789899 0)
(0.00465955 -0.00985091 0)
(0.00389435 -0.0111328 0)
(0.00217194 -0.011391 0)
(-0.000791596 -0.0102623 0)
(-0.00405283 -0.00843037 0)
(-0.00710546 -0.00659818 0)
(-0.00973235 -0.00495886 0)
(-0.0118805 -0.00352589 0)
(-0.0134621 -0.00224607 0)
(-0.0143373 -0.000956182 0)
(-0.0146349 0.000540827 0)
(-0.0143756 0.00237796 0)
(-0.0137536 0.00471353 0)
(-0.0128537 0.00764996 0)
(-0.0117479 0.0111005 0)
(-0.0104827 0.0147864 0)
(-0.00908019 0.0182494 0)
(-0.00755381 0.0208878 0)
(-0.00593462 0.0220512 0)
(-0.00429422 0.0212384 0)
(-0.0027469 0.0183383 0)
(-0.00144025 0.0137384 0)
(-0.000524363 0.00823833 0)
(-5.22514e-05 0.00269737 0)
(1.47172e-05 -0.000750978 0)
(8.82078e-05 -0.00197234 0)
(0.000214426 -0.00302856 0)
(0.000372112 -0.00398444 0)
(0.000510229 -0.00492117 0)
(0.000537589 -0.00588716 0)
(0.000319719 -0.00684222 0)
(-0.000363523 -0.00761287 0)
(-0.00168679 -0.00780827 0)
(-0.00377182 -0.00731731 0)
(-0.00654729 -0.00633457 0)
(-0.00974292 -0.00518365 0)
(-0.0130835 -0.00406896 0)
(-0.0164367 -0.00299295 0)
(-0.0197167 -0.00199113 0)
(-0.0227991 -0.00113298 0)
(-0.0253284 -0.000471631 0)
(-0.0267275 6.3954e-05 0)
(-0.0268771 0.000719979 0)
(-0.0260193 0.00174652 0)
(-0.0243382 0.00326122 0)
(-0.0219389 0.00526708 0)
(-0.0190022 0.00764702 0)
(-0.0157457 0.0101504 0)
(-0.0124056 0.0123934 0)
(-0.00921289 0.0138964 0)
(-0.00636539 0.0141855 0)
(-0.00400668 0.0129815 0)
(-0.002214 0.0104134 0)
(-0.000996542 0.0070712 0)
(-0.00030487 0.00375105 0)
(-2.16664e-05 0.00103764 0)
(-2.91656e-05 -0.000470584 0)
(-0.000290591 -0.00114937 0)
(-0.000836044 -0.0016386 0)
(-0.00171088 -0.00196704 0)
(-0.00292914 -0.00213525 0)
(-0.00451601 -0.00208972 0)
(-0.00651624 -0.00177483 0)
(-0.00896184 -0.001226 0)
(-0.0118078 -0.000571759 0)
(-0.014929 5.77123e-05 0)
(-0.0181873 0.000601733 0)
(-0.0214849 0.00105982 0)
(-0.0247656 0.00144172 0)
(-0.0279838 0.00174139 0)
(-0.0310658 0.00190948 0)
(-0.0338408 0.00183316 0)
(-0.0360745 0.0013769 0)
(-0.0372206 0.000525398 0)
(-0.0370673 -0.000516605 0)
(-0.0357237 -0.00157044 0)
(-0.0332824 -0.00243267 0)
(-0.0298532 -0.00293351 0)
(-0.0256212 -0.0029419 0)
(-0.0208568 -0.002377 0)
(-0.0159099 -0.00124153 0)
(-0.0111737 0.000329733 0)
(-0.00702658 0.00202065 0)
(-0.00377707 0.00334023 0)
(-0.00159995 0.00380339 0)
(-0.000445577 0.00329189 0)
(-2.46586e-05 0.00217054 0)
(2.54938e-05 0.000795347 0)
(-3.74379e-05 0.00111689 0)
(-0.000408959 0.00307365 0)
(-0.00116828 0.004724 0)
(-0.00235092 0.00592181 0)
(-0.00392138 0.00663376 0)
(-0.00582452 0.00695259 0)
(-0.00799603 0.00701787 0)
(-0.0103741 0.00693225 0)
(-0.0129126 0.00674679 0)
(-0.0155821 0.00648956 0)
(-0.0183596 0.00618476 0)
(-0.0212163 0.00585335 0)
(-0.0241176 0.00550329 0)
(-0.0270266 0.00511649 0)
(-0.029893 0.00463142 0)
(-0.0325918 0.00391076 0)
(-0.0348574 0.0026791 0)
(-0.03616 0.000779193 0)
(-0.0362874 -0.00159871 0)
(-0.0354423 -0.00434393 0)
(-0.0338046 -0.00733444 0)
(-0.0313601 -0.0103966 0)
(-0.0281431 -0.0132859 0)
(-0.0242471 -0.015653 0)
(-0.0198531 -0.0170529 0)
(-0.0152323 -0.017011 0)
(-0.0107207 -0.0151662 0)
(-0.00668564 -0.0115118 0)
(-0.00348844 -0.00673837 0)
(-0.00138332 -0.00231739 0)
(-0.000336951 0.000276926 0)
(-6.71652e-06 0.000684844 0)
(-2.70836e-05 0.00219193 0)
(-0.000289255 0.0058291 0)
(-0.000829795 0.00873704 0)
(-0.00168457 0.0107592 0)
(-0.0028396 0.0119074 0)
(-0.0042642 0.0123533 0)
(-0.0059182 0.0123316 0)
(-0.0077591 0.0120297 0)
(-0.00974731 0.0115515 0)
(-0.0118462 0.010951 0)
(-0.0140201 0.0102665 0)
(-0.0162325 0.00953287 0)
(-0.0184486 0.0087716 0)
(-0.0206389 0.00797458 0)
(-0.0227755 0.0070861 0)
(-0.024791 0.00595869 0)
(-0.0265234 0.00424333 0)
(-0.027649 0.00169026 0)
(-0.02812 -0.00144871 0)
(-0.0279896 -0.00499809 0)
(-0.027522 -0.00896133 0)
(-0.0266134 -0.013338 0)
(-0.0251638 -0.0179645 0)
(-0.0230814 -0.0224739 0)
(-0.0203358 -0.0262715 0)
(-0.0169962 -0.028585 0)
(-0.0132374 -0.0286137 0)
(-0.0093385 -0.0257445 0)
(-0.00568077 -0.0199857 0)
(-0.00271976 -0.012502 0)
(-0.000844265 -0.00556953 0)
(-5.38659e-05 -0.00103985 0)
(-4.94169e-06 0.00273876 0)
(-0.00011259 0.00733137 0)
(-0.000380675 0.0110878 0)
(-0.000866697 0.0137931 0)
(-0.00159179 0.0153988 0)
(-0.0025439 0.0160517 0)
(-0.00368265 0.0160168 0)
(-0.00495622 0.0155466 0)
(-0.00631634 0.014807 0)
(-0.00772079 0.0138931 0)
(-0.00912962 0.0128687 0)
(-0.0105041 0.0117878 0)
(-0.0118099 0.0106882 0)
(-0.0130216 0.00957261 0)
(-0.0141265 0.00839226 0)
(-0.0151095 0.00700273 0)
(-0.0159115 0.00504719 0)
(-0.0164517 0.00225647 0)
(-0.016982 -0.00110672 0)
(-0.0174213 -0.00478508 0)
(-0.0179727 -0.00891957 0)
(-0.0184836 -0.0137456 0)
(-0.0187706 -0.0192678 0)
(-0.0185889 -0.0252552 0)
(-0.017708 -0.031134 0)
(-0.016002 -0.0359769 0)
(-0.0134776 -0.0386726 0)
(-0.0103008 -0.038011 0)
(-0.00682196 -0.033111 0)
(-0.00357603 -0.0241592 0)
(-0.00121874 -0.0132666 0)
(-9.25143e-05 -0.00364889 0)
(7.00928e-06 0.00282071 0)
(1.33312e-05 0.00772499 0)
(-3.82729e-05 0.0119382 0)
(-0.000212064 0.0151497 0)
(-0.000560245 0.0171847 0)
(-0.00109354 0.0180899 0)
(-0.00177323 0.0181042 0)
(-0.00253119 0.0175245 0)
(-0.00330071 0.0165827 0)
(-0.00402929 0.0154234 0)
(-0.00467693 0.0141401 0)
(-0.00521191 0.0128051 0)
(-0.0056106 0.0114717 0)
(-0.00585473 0.0101526 0)
(-0.00594211 0.0088012 0)
(-0.00588247 0.00728678 0)
(-0.00567906 0.00531445 0)
(-0.00540628 0.00270345 0)
(-0.00557915 -0.000443829 0)
(-0.0064526 -0.00381303 0)
(-0.0076452 -0.00755455 0)
(-0.00912096 -0.012148 0)
(-0.0107167 -0.0177655 0)
(-0.0121391 -0.0244275 0)
(-0.0130222 -0.0317478 0)
(-0.0130701 -0.0387654 0)
(-0.0121013 -0.0442545 0)
(-0.0100999 -0.0465223 0)
(-0.00729284 -0.0438337 0)
(-0.00417838 -0.0351136 0)
(-0.00155943 -0.0214239 0)
(-0.00013837 -0.00667328 0)
(1.20052e-05 0.00270512 0)
(7.74348e-05 0.00758171 0)
(0.000152984 0.0119516 0)
(0.00018581 0.0154565 0)
(0.000119567 0.0178202 0)
(-6.98276e-05 0.0189664 0)
(-0.000348727 0.0190428 0)
(-0.000641029 0.0183716 0)
(-0.000865284 0.0172527 0)
(-0.000961619 0.0158911 0)
(-0.00089664 0.0144137 0)
(-0.000655005 0.0129063 0)
(-0.000231093 0.011428 0)
(0.000382256 0.00997166 0)
(0.00115232 0.00853643 0)
(0.00206372 0.00695128 0)
(0.00300767 0.00496685 0)
(0.00366908 0.00257269 0)
(0.00385653 -5.35895e-05 0)
(0.00282289 -0.00276453 0)
(0.00142894 -0.00582095 0)
(-0.000488598 -0.00992589 0)
(-0.00273489 -0.015078 0)
(-0.00510213 -0.0216066 0)
(-0.00731257 -0.0295767 0)
(-0.00892723 -0.0380303 0)
(-0.00958032 -0.0459146 0)
(-0.00900347 -0.0512298 0)
(-0.00721307 -0.0515585 0)
(-0.0045615 -0.0445193 0)
(-0.00187849 -0.029478 0)
(-0.000187953 -0.00997718 0)
(1.09538e-05 0.00254041 0)
(8.49918e-05 0.00726205 0)
(0.00019853 0.0116386 0)
(0.00032307 0.0152728 0)
(0.000424674 0.0178098 0)
(0.000494165 0.0190812 0)
(0.000566367 0.0191759 0)
(0.00071572 0.0184007 0)
(0.00102357 0.0171078 0)
(0.0015421 0.0155673 0)
(0.00228588 0.0139451 0)
(0.00324481 0.0123365 0)
(0.00439792 0.0107961 0)
(0.00572175 0.00931809 0)
(0.0071656 0.00788153 0)
(0.00869227 0.0063134 0)
(0.0100525 0.00444323 0)
(0.010789 0.0023504 0)
(0.0108161 0.000212837 0)
(0.00978732 -0.00202793 0)
(0.00830839 -0.00462648 0)
(0.00641692 -0.00793174 0)
(0.00413175 -0.012244 0)
(0.00161387 -0.0179488 0)
(-0.00132479 -0.025954 0)
(-0.00406592 -0.0349285 0)
(-0.00620012 -0.0444742 0)
(-0.00715899 -0.0524859 0)
(-0.00665121 -0.0561445 0)
(-0.00476102 -0.0518826 0)
(-0.00221422 -0.0369993 0)
(-0.000251642 -0.0134591 0)
(2.71813e-06 0.00242602 0)
(2.53574e-05 0.00701439 0)
(7.71016e-05 0.0113342 0)
(0.000179838 0.0149603 0)
(0.000353101 0.0174988 0)
(0.000618212 0.0187395 0)
(0.00101769 0.0187429 0)
(0.00161783 0.0178182 0)
(0.00247513 0.0163613 0)
(0.00360687 0.0146892 0)
(0.00499447 0.01299 0)
(0.00660058 0.0113576 0)
(0.00838204 0.00983372 0)
(0.0102942 0.0084074 0)
(0.0122726 0.00704545 0)
(0.0142538 0.00558742 0)
(0.0158762 0.00393803 0)
(0.0166654 0.00222068 0)
(0.0166028 0.000549695 0)
(0.0156083 -0.001258 0)
(0.0141044 -0.00344482 0)
(0.0121754 -0.00631782 0)
(0.009891 -0.0101491 0)
(0.00735687 -0.0152278 0)
(0.00447946 -0.0219107 0)
(0.00126363 -0.0304046 0)
(-0.00203424 -0.0407804 0)
(-0.00453797 -0.0508101 0)
(-0.0055579 -0.057703 0)
(-0.00475568 -0.0569652 0)
(-0.00260205 -0.0437113 0)
(-0.000348074 -0.0171338 0)
(-1.61376e-05 0.00245606 0)
(-0.000131273 0.0070619 0)
(-0.000266381 0.0112994 0)
(-0.000302431 0.0147438 0)
(-0.000128466 0.0170656 0)
(0.000320004 0.0180996 0)
(0.00107515 0.0178839 0)
(0.00217049 0.0167607 0)
(0.00361472 0.0151624 0)
(0.00536756 0.01342 0)
(0.00737146 0.0117168 0)
(0.00956867 0.0101326 0)
(0.0119057 0.00869094 0)
(0.0143308 0.00737335 0)
(0.016774 0.00613847 0)
(0.0191565 0.00484592 0)
(0.0210456 0.00345241 0)
(0.0219979 0.00208592 0)
(0.0220529 0.000789649 0)
(0.021246 -0.000627823 0)
(0.0199013 -0.00241195 0)
(0.0180802 -0.00482664 0)
(0.0158225 -0.00814625 0)
(0.0131697 -0.0126583 0)
(0.010117 -0.0186344 0)
(0.00667367 -0.026197 0)
(0.00290492 -0.0355135 0)
(-0.000986036 -0.0466539 0)
(-0.00374485 -0.056363 0)
(-0.00442678 -0.059573 0)
(-0.00303815 -0.0493273 0)
(-0.000506069 -0.0210682 0)
(-6.10127e-05 0.00274444 0)
(-0.000461706 0.00761443 0)
(-0.000933018 0.0117302 0)
(-0.00119816 0.0147563 0)
(-0.00103096 0.0165755 0)
(-0.000359496 0.0171911 0)
(0.000850827 0.0166479 0)
(0.00252862 0.0153055 0)
(0.0046177 0.0136143 0)
(0.00701322 0.0118774 0)
(0.0096279 0.0102439 0)
(0.0123984 0.00876809 0)
(0.015275 0.00745552 0)
(0.0182122 0.0062802 0)
(0.0211433 0.00519834 0)
(0.0239867 0.00409157 0)
(0.0262589 0.00294757 0)
(0.0275419 0.00188239 0)
(0.0279118 0.000895644 0)
(0.0274651 -0.000197411 0)
(0.0264418 -0.00162335 0)
(0.0248643 -0.00359954 0)
(0.0227187 -0.00637491 0)
(0.0199851 -0.0102133 0)
(0.0166476 -0.0153643 0)
(0.0127331 -0.0220287 0)
(0.0083423 -0.0304148 0)
(0.00363863 -0.0406647 0)
(-0.000903832 -0.0521993 0)
(-0.0035264 -0.0594699 0)
(-0.0034323 -0.0534721 0)
(-0.000755373 -0.0252955 0)
(-0.000169069 0.00349151 0)
(-0.00111026 0.00889865 0)
(-0.00205667 0.0127037 0)
(-0.00254878 0.0149636 0)
(-0.00228521 0.0159785 0)
(-0.00124549 0.0159812 0)
(0.00058955 0.0150356 0)
(0.00299506 0.0134963 0)
(0.00581705 0.0117901 0)
(0.00891508 0.0101386 0)
(0.0121922 0.00863799 0)
(0.0155938 0.00731422 0)
(0.0190824 0.00615836 0)
(0.0226216 0.00514085 0)
(0.0261496 0.00422057 0)
(0.0295847 0.00330205 0)
(0.0323862 0.00238935 0)
(0.0341386 0.00157755 0)
(0.0349478 0.000841045 0)
(0.0349755 1.48324e-05 0)
(0.0343345 -0.00109025 0)
(0.0330435 -0.002645 0)
(0.0310398 -0.00485471 0)
(0.0282492 -0.00794681 0)
(0.0246167 -0.0121569 0)
(0.0201482 -0.017731 0)
(0.0149442 -0.0249704 0)
(0.00920693 -0.0342426 0)
(0.00331217 -0.0455716 0)
(-0.00161784 -0.0563641 0)
(-0.0035426 -0.0556629 0)
(-0.00109453 -0.0297321 0)
(-0.000410393 0.00503898 0)
(-0.00225871 0.011104 0)
(-0.00368224 0.0141027 0)
(-0.00418282 0.0151385 0)
(-0.00352161 0.0150898 0)
(-0.00180658 0.014361 0)
(0.000959568 0.0129921 0)
(0.00428645 0.0113472 0)
(0.00799217 0.00972335 0)
(0.011931 0.00823028 0)
(0.0160122 0.00691176 0)
(0.0201898 0.00577118 0)
(0.0244309 0.00479134 0)
(0.0286984 0.0039435 0)
(0.0329254 0.00319217 0)
(0.0370232 0.00246508 0)
(0.0403878 0.00177177 0)
(0.0426079 0.00117919 0)
(0.0438331 0.000649559 0)
(0.0442599 4.87334e-05 0)
(0.0439503 -0.00076263 0)
(0.0428861 -0.00191233 0)
(0.0409828 -0.00355579 0)
(0.038132 -0.00587298 0)
(0.0342368 -0.00907071 0)
(0.029253 -0.0134087 0)
(0.0232299 -0.0192594 0)
(0.016341 -0.0271727 0)
(0.00896523 -0.0377283 0)
(0.00196535 -0.0500058 0)
(-0.00289168 -0.0553199 0)
(-0.00143319 -0.0341864 0)
(-0.00085967 0.00791891 0)
(-0.0039304 0.0141492 0)
(-0.0053944 0.0154107 0)
(-0.00522667 0.014779 0)
(-0.00349954 0.0135684 0)
(-0.000500494 0.0121 0)
(0.00359357 0.0104281 0)
(0.00808238 0.00884281 0)
(0.0128907 0.00740283 0)
(0.0178612 0.00613558 0)
(0.0229041 0.00504708 0)
(0.0279653 0.00412595 0)
(0.0329998 0.00335149 0)
(0.0379577 0.00269767 0)
(0.0427624 0.00213478 0)
(0.047318 0.00161195 0)
(0.0509987 0.00113551 0)
(0.0534459 0.000741267 0)
(0.0548659 0.000390825 0)
(0.0554848 -1.00501e-05 0)
(0.0553091 -0.000551636 0)
(0.0543255 -0.00132244 0)
(0.0524445 -0.00242912 0)
(0.0495411 -0.00399818 0)
(0.0454861 -0.00618862 0)
(0.0401725 -0.00923292 0)
(0.033548 -0.0135178 0)
(0.0256632 -0.0197016 0)
(0.0167896 -0.0287525 0)
(0.00766131 -0.0410941 0)
(-0.000638097 -0.0516146 0)
(-0.00148138 -0.0381514 0)
(-0.00161635 0.0129789 0)
(-0.00545479 0.0172531 0)
(-0.00530718 0.0155306 0)
(-0.00288162 0.0130999 0)
(0.00125289 0.0108634 0)
(0.00626938 0.00897905 0)
(0.0118959 0.00734692 0)
(0.0177626 0.00598532 0)
(0.023745 0.00483691 0)
(0.0297006 0.00387663 0)
(0.0355333 0.00308477 0)
(0.0411782 0.00243938 0)
(0.0465848 0.00191711 0)
(0.0517066 0.00149386 0)
(0.056483 0.00114467 0)
(0.0608383 0.000836565 0)
(0.0642344 0.000568512 0)
(0.0664326 0.000351062 0)
(0.0676746 0.000155353 0)
(0.0681711 -6.90547e-05 0)
(0.0679122 -0.000373641 0)
(0.0668934 -0.000812424 0)
(0.0650231 -0.00144763 0)
(0.0621733 -0.00235357 0)
(0.0582 -0.00363123 0)
(0.0529481 -0.00544958 0)
(0.0462477 -0.00813373 0)
(0.0379302 -0.0123225 0)
(0.0279412 -0.0191664 0)
(0.016582 -0.0300909 0)
(0.00443234 -0.0434655 0)
(-0.000163518 -0.0396035 0)
(-0.00124327 0.0182446 0)
(-0.00301449 0.0181484 0)
(0.00340469 0.0126717 0)
(0.0106436 0.00938457 0)
(0.0178784 0.00706287 0)
(0.0249584 0.00531916 0)
(0.0319069 0.00400632 0)
(0.0385817 0.0030311 0)
(0.0449146 0.00228961 0)
(0.0508381 0.00172291 0)
(0.0563091 0.00129235 0)
(0.0613115 0.000967578 0)
(0.0658474 0.000723516 0)
(0.0699264 0.000539038 0)
(0.073548 0.000395833 0)
(0.0766937 0.00027642 0)
(0.0790301 0.000176009 0)
(0.0804573 9.36844e-05 0)
(0.0811771 1.55318e-05 0)
(0.0813243 -7.33197e-05 0)
(0.0809122 -0.000197719 0)
(0.0799141 -0.000382489 0)
(0.0782379 -0.000654133 0)
(0.0757664 -0.00104439 0)
(0.0723668 -0.00160004 0)
(0.0678743 -0.00241121 0)
(0.0620463 -0.00367995 0)
(0.0544904 -0.0058662 0)
(0.0446004 -0.00994591 0)
(0.0316095 -0.0176221 0)
(0.0154949 -0.0297635 0)
(0.00631325 -0.0334412 0)
(0.020782 0.0113351 0)
(0.0271421 0.00926305 0)
(0.0401991 0.00541026 0)
(0.0508616 0.00328866 0)
(0.0589288 0.00205798 0)
(0.0653666 0.00127837 0)
(0.0706852 0.000786955 0)
(0.0751139 0.000487081 0)
(0.0788252 0.000303476 0)
(0.081944 0.000190702 0)
(0.0845685 0.000121545 0)
(0.0867829 7.90352e-05 0)
(0.0886582 5.25832e-05 0)
(0.0902497 3.55876e-05 0)
(0.0915923 2.37221e-05 0)
(0.0926989 1.42887e-05 0)
(0.0934675 6.00343e-06 0)
(0.0938785 -1.87149e-06 0)
(0.0940075 -1.09382e-05 0)
(0.0938942 -2.07384e-05 0)
(0.0935464 -3.6659e-05 0)
(0.092926 -6.24953e-05 0)
(0.0919678 -0.000101774 0)
(0.0905997 -0.000158899 0)
(0.0887421 -0.000241123 0)
(0.0862844 -0.000365008 0)
(0.0830213 -0.000574117 0)
(0.0785131 -0.000981527 0)
(0.0717952 -0.00186813 0)
(0.0608472 -0.00398097 0)
(0.0432675 -0.009188 0)
(0.0285894 -0.0145261 0)
)
;

boundaryField
{
    movingWall
    {
        type            fixedValue;
        value           uniform (0.1 0 0);
    }
    fixedWalls
    {
        type            noSlip;
    }
    floor
    {
        type            noSlip;
    }
    frontAndBack
    {
        type            empty;
    }
}


// ************************************************************************* //
