/*--------------------------------*- C++ -*----------------------------------*\
| =========                 |                                                 |
| \\      /  F ield         | OpenFOAM: The Open Source CFD Toolbox           |
|  \\    /   O peration     | Version:  2212                                  |
|   \\  /    A nd           | Website:  www.openfoam.com                      |
|    \\/     M anipulation  |                                                 |
\*---------------------------------------------------------------------------*/
FoamFile
{
    version     2.0;
    format      ascii;
    arch        "LSB;label=64;scalar=64";
    class       volScalarField;
    location    "890";
    object      Xpr;
}
// * * * * * * * * * * * * * * * * * * * * * * * * * * * * * * * * * * * * * //

dimensions      [1 -3 0 0 0 0 0];

internalField   nonuniform List<scalar> 
1024
(
0.0819769
0.0819779
0.0819801
0.0819839
0.0819897
0.0819977
0.0820076
0.082019
0.0820311
0.0820431
0.0820545
0.0820647
0.082073
0.0820781
0.0820789
0.0820741
0.0820635
0.0820488
0.0820321
0.0820134
0.0819922
0.0819683
0.0819422
0.0819153
0.0818897
0.0818671
0.0818486
0.0818347
0.081825
0.0818189
0.0818155
0.0818141
0.0819771
0.081978
0.0819802
0.0819841
0.08199
0.0819981
0.0820081
0.0820195
0.0820316
0.0820435
0.0820549
0.0820651
0.0820734
0.0820784
0.0820791
0.0820743
0.0820637
0.0820491
0.0820325
0.082014
0.081993
0.0819693
0.0819434
0.0819166
0.0818909
0.0818681
0.0818495
0.0818354
0.0818255
0.0818193
0.0818158
0.0818144
0.0819771
0.0819781
0.0819803
0.0819843
0.0819904
0.0819987
0.0820088
0.0820202
0.0820323
0.0820442
0.0820556
0.0820661
0.0820744
0.0820793
0.0820797
0.0820747
0.0820639
0.0820495
0.0820332
0.082015
0.0819946
0.0819714
0.0819459
0.0819193
0.0818934
0.0818704
0.0818513
0.0818368
0.0818266
0.0818202
0.0818166
0.0818152
0.081977
0.081978
0.0819803
0.0819845
0.0819907
0.0819991
0.0820093
0.0820208
0.0820328
0.0820448
0.0820566
0.0820676
0.0820762
0.0820809
0.0820807
0.082075
0.0820639
0.0820496
0.0820336
0.0820161
0.0819965
0.0819742
0.0819494
0.0819232
0.0818973
0.0818738
0.0818542
0.0818391
0.0818285
0.0818217
0.081818
0.0818165
0.0819767
0.0819777
0.0819801
0.0819843
0.0819906
0.081999
0.0820092
0.0820206
0.0820327
0.0820451
0.0820578
0.0820698
0.0820791
0.0820835
0.0820822
0.0820751
0.0820632
0.0820487
0.0820333
0.0820166
0.0819982
0.0819772
0.0819535
0.081928
0.0819022
0.0818784
0.0818581
0.0818423
0.0818311
0.0818239
0.08182
0.0818184
0.081976
0.081977
0.0819794
0.0819836
0.0819897
0.081998
0.082008
0.0820193
0.0820316
0.0820449
0.082059
0.0820728
0.0820831
0.082087
0.0820838
0.0820745
0.082061
0.0820461
0.0820311
0.0820155
0.0819985
0.0819793
0.0819572
0.0819327
0.0819075
0.0818834
0.0818625
0.0818461
0.0818342
0.0818267
0.0818225
0.0818208
0.0819746
0.0819756
0.0819779
0.0819819
0.0819877
0.0819955
0.0820052
0.0820165
0.0820293
0.0820439
0.0820604
0.0820768
0.0820885
0.0820914
0.0820852
0.0820723
0.0820562
0.0820404
0.0820258
0.0820114
0.0819962
0.0819791
0.081959
0.0819363
0.0819119
0.0818881
0.081867
0.08185
0.0818377
0.0818297
0.0818254
0.0818236
0.0819723
0.0819732
0.0819753
0.081979
0.0819843
0.0819916
0.0820008
0.082012
0.0820257
0.0820425
0.0820622
0.082082
0.0820951
0.0820962
0.0820854
0.0820672
0.0820473
0.0820301
0.0820157
0.0820028
0.0819897
0.0819751
0.0819576
0.081937
0.0819142
0.0818912
0.0818703
0.0818532
0.0818407
0.0818326
0.0818282
0.0818264
0.0819687
0.0819696
0.0819715
0.0819748
0.0819795
0.0819861
0.0819949
0.0820064
0.0820215
0.0820414
0.0820655
0.082089
0.082103
0.0821007
0.0820832
0.0820576
0.0820325
0.0820132
0.0819991
0.0819879
0.0819774
0.0819657
0.0819513
0.0819334
0.0819128
0.0818914
0.0818715
0.0818549
0.0818427
0.0818347
0.0818303
0.0818285
0.0819644
0.0819651
0.0819668
0.0819696
0.0819739
0.08198
0.0819886
0.082001
0.0820186
0.0820427
0.0820721
0.0820993
0.0821126
0.0821041
0.0820769
0.0820414
0.0820097
0.0819879
0.0819743
0.0819652
0.0819577
0.0819496
0.0819387
0.0819242
0.0819066
0.0818875
0.0818694
0.0818542
0.0818428
0.0818353
0.081831
0.0818293
0.0819613
0.0819618
0.0819631
0.0819655
0.0819695
0.0819756
0.081985
0.0819995
0.0820211
0.0820508
0.0820856
0.0821148
0.082124
0.0821054
0.082065
0.0820173
0.0819778
0.0819535
0.0819405
0.081934
0.0819302
0.081926
0.0819192
0.0819087
0.0818946
0.0818788
0.0818634
0.0818501
0.0818401
0.0818334
0.0818295
0.0818278
0.0819655
0.0819658
0.0819667
0.0819688
0.0819729
0.0819799
0.0819916
0.0820099
0.0820369
0.0820724
0.0821104
0.0821373
0.0821371
0.0821037
0.0820471
0.0819858
0.0819386
0.0819118
0.0818996
0.0818957
0.0818955
0.0818954
0.081893
0.0818867
0.0818768
0.0818648
0.0818527
0.0818421
0.0818337
0.0818279
0.0818244
0.0818229
0.0819888
0.0819891
0.08199
0.0819925
0.0819975
0.0820066
0.0820218
0.0820449
0.0820768
0.0821149
0.0821502
0.0821671
0.0821505
0.0820986
0.0820259
0.0819532
0.0818998
0.0818707
0.0818582
0.0818553
0.0818573
0.0818602
0.0818613
0.0818591
0.0818534
0.0818455
0.0818369
0.081829
0.0818224
0.0818175
0.0818143
0.0818128
0.082045
0.0820457
0.0820475
0.0820513
0.0820584
0.0820703
0.0820887
0.0821145
0.0821465
0.0821795
0.0822026
0.0822007
0.0821635
0.0820952
0.0820132
0.0819367
0.0818813
0.0818492
0.0818328
0.0818258
0.0818246
0.0818261
0.0818276
0.0818275
0.081825
0.0818205
0.0818149
0.0818092
0.0818041
0.0818002
0.0817976
0.0817964
0.0821363
0.0821375
0.0821406
0.0821461
0.0821552
0.0821687
0.0821875
0.0822108
0.0822357
0.0822552
0.082259
0.0822364
0.0821852
0.0821148
0.0820407
0.0819746
0.0819246
0.0818894
0.0818632
0.0818424
0.0818258
0.081813
0.0818034
0.0817963
0.081791
0.081787
0.0817843
0.0817829
0.0817828
0.0817836
0.0817846
0.0817853
0.0822426
0.0822441
0.0822477
0.082254
0.0822634
0.0822764
0.0822928
0.0823106
0.0823258
0.0823321
0.0823232
0.0822967
0.0822569
0.0822129
0.0821731
0.0821419
0.082119
0.0820981
0.0820733
0.0820436
0.0820104
0.0819761
0.0819437
0.081916
0.0818952
0.0818826
0.0818783
0.0818811
0.0818885
0.0818973
0.0819046
0.0819085
0.0823283
0.0823299
0.0823336
0.0823403
0.0823505
0.0823647
0.082382
0.0824007
0.0824174
0.0824292
0.0824358
0.08244
0.0824473
0.0824633
0.0824921
0.0825365
0.0825929
0.0826469
0.0826869
0.0827114
0.0827206
0.0827152
0.0826971
0.0826691
0.0826346
0.0825976
0.0825623
0.0825329
0.0825122
0.0825003
0.0824954
0.0824944
0.082379
0.0823806
0.0823845
0.082392
0.0824043
0.0824221
0.0824456
0.0824739
0.0825052
0.0825383
0.0825743
0.0826166
0.0826703
0.0827399
0.0828294
0.0829426
0.0830733
0.0831995
0.0833064
0.0833941
0.0834626
0.0835113
0.0835394
0.0835468
0.0835343
0.0835041
0.0834608
0.0834114
0.0833642
0.0833268
0.0833032
0.0832932
0.0824061
0.0824076
0.0824116
0.0824193
0.0824321
0.0824515
0.0824782
0.0825121
0.0825526
0.0825989
0.0826517
0.0827135
0.0827882
0.0828794
0.0829898
0.0831208
0.0832615
0.0833881
0.0834918
0.0835787
0.0836536
0.0837182
0.0837724
0.0838144
0.083842
0.0838537
0.0838496
0.0838325
0.0838076
0.0837823
0.0837632
0.0837537
0.08242
0.0824215
0.0824253
0.0824327
0.0824452
0.082464
0.0824906
0.0825253
0.082568
0.0826179
0.0826752
0.0827412
0.0828185
0.0829098
0.0830166
0.0831383
0.0832618
0.0833653
0.0834468
0.0835173
0.0835846
0.0836517
0.0837183
0.0837809
0.0838353
0.0838777
0.0839062
0.0839209
0.0839242
0.0839202
0.083914
0.0839098
0.082427
0.0824283
0.0824318
0.0824385
0.0824498
0.0824671
0.0824917
0.0825243
0.0825649
0.0826129
0.0826681
0.0827309
0.0828028
0.082886
0.0829817
0.0830889
0.0831954
0.0832832
0.0833535
0.083418
0.0834854
0.0835596
0.0836402
0.0837221
0.0837982
0.0838621
0.08391
0.0839413
0.0839581
0.0839642
0.0839645
0.0839633
0.0824328
0.0824338
0.0824365
0.0824419
0.0824514
0.0824664
0.0824882
0.0825174
0.0825544
0.0825986
0.0826496
0.0827075
0.0827733
0.0828485
0.0829343
0.0830307
0.0831276
0.0832101
0.0832791
0.0833444
0.083414
0.0834922
0.0835799
0.083673
0.0837641
0.0838451
0.0839096
0.0839547
0.0839814
0.0839939
0.0839974
0.0839972
0.0824448
0.082445
0.0824461
0.0824493
0.0824562
0.0824683
0.0824868
0.0825127
0.0825464
0.0825874
0.0826356
0.0826906
0.0827532
0.0828244
0.0829053
0.0829965
0.0830902
0.0831733
0.0832453
0.0833134
0.0833843
0.0834627
0.0835505
0.0836456
0.0837423
0.0838328
0.0839089
0.0839654
0.0840014
0.0840198
0.0840261
0.0840267
0.0824718
0.0824705
0.082469
0.0824688
0.082472
0.0824806
0.0824963
0.0825201
0.0825525
0.0825932
0.0826419
0.082698
0.0827618
0.0828335
0.082914
0.0830041
0.0830974
0.0831821
0.0832561
0.0833252
0.083395
0.0834702
0.0835534
0.0836439
0.0837383
0.0838301
0.0839117
0.0839759
0.0840194
0.0840433
0.0840525
0.0840539
0.0825228
0.0825194
0.0825143
0.0825098
0.0825089
0.0825146
0.082529
0.0825534
0.0825879
0.0826322
0.0826851
0.0827458
0.0828136
0.0828883
0.0829701
0.0830598
0.0831521
0.0832357
0.0833083
0.0833748
0.0834403
0.0835091
0.0835841
0.0836659
0.0837525
0.0838394
0.0839202
0.0839876
0.0840361
0.0840646
0.0840766
0.0840789
0.0826054
0.0825994
0.0825902
0.0825819
0.0825786
0.0825839
0.0826003
0.0826289
0.0826692
0.0827197
0.0827787
0.0828447
0.0829163
0.0829929
0.0830742
0.0831613
0.083249
0.0833276
0.0833949
0.0834554
0.0835136
0.0835734
0.0836377
0.0837078
0.083783
0.0838607
0.0839357
0.0840017
0.0840523
0.084084
0.0840986
0.0841018
0.0827244
0.0827157
0.0827039
0.0826949
0.0826933
0.0827028
0.0827253
0.0827609
0.082808
0.0828644
0.0829277
0.0829961
0.0830679
0.0831424
0.0832193
0.0832994
0.0833784
0.0834479
0.0835067
0.0835586
0.0836077
0.0836571
0.0837094
0.0837663
0.083828
0.0838933
0.0839589
0.0840195
0.0840687
0.0841018
0.0841183
0.0841225
0.0828828
0.0828722
0.0828614
0.0828574
0.0828637
0.0828818
0.0829125
0.0829546
0.0830058
0.0830638
0.0831263
0.0831915
0.0832581
0.0833253
0.0833929
0.0834617
0.0835283
0.083586
0.0836341
0.0836761
0.0837151
0.0837537
0.0837941
0.0838377
0.0838852
0.0839365
0.0839899
0.0840417
0.0840864
0.0841186
0.084136
0.084141
0.0830828
0.0830729
0.0830694
0.0830769
0.0830948
0.0831223
0.0831586
0.0832023
0.0832515
0.0833045
0.0833597
0.0834156
0.0834714
0.0835266
0.0835811
0.0836356
0.0836874
0.0837317
0.0837683
0.0837999
0.0838288
0.0838571
0.0838862
0.0839174
0.0839514
0.0839887
0.0840286
0.0840691
0.0841062
0.0841349
0.0841518
0.0841574
0.0833292
0.0833249
0.0833348
0.0833552
0.0833817
0.0834126
0.0834475
0.0834853
0.0835255
0.0835671
0.0836092
0.0836511
0.0836922
0.0837322
0.0837712
0.0838097
0.0838458
0.0838765
0.0839016
0.0839231
0.0839426
0.0839614
0.0839805
0.0840008
0.0840229
0.0840472
0.0840737
0.0841018
0.084129
0.0841516
0.0841661
0.0841716
0.083631
0.0836378
0.0836582
0.0836815
0.0837055
0.0837298
0.0837546
0.0837798
0.0838054
0.0838312
0.0838569
0.0838822
0.0839067
0.0839303
0.0839532
0.0839755
0.0839964
0.0840139
0.0840283
0.0840405
0.0840514
0.0840619
0.0840724
0.0840835
0.0840955
0.0841087
0.0841233
0.0841391
0.0841551
0.0841694
0.0841795
0.0841838
0.0840002
0.0840058
0.0840164
0.0840267
0.0840363
0.0840455
0.0840544
0.0840631
0.0840718
0.0840805
0.084089
0.0840973
0.0841053
0.084113
0.0841204
0.0841276
0.0841343
0.0841399
0.0841445
0.0841484
0.0841519
0.0841552
0.0841585
0.0841619
0.0841657
0.0841698
0.0841743
0.0841792
0.0841843
0.0841891
0.0841927
0.0841945
)
;

boundaryField
{
    movingWall
    {
        type            fixedValue;
        value           uniform 0.0842;
    }
    fixedWalls
    {
        type            zeroGradient;
    }
    floor
    {
        type            zeroGradient;
    }
    frontAndBack
    {
        type            empty;
    }
}


// ************************************************************************* //
