/*--------------------------------*- C++ -*----------------------------------*\
| =========                 |                                                 |
| \\      /  F ield         | OpenFOAM: The Open Source CFD Toolbox           |
|  \\    /   O peration     | Version:  2212                                  |
|   \\  /    A nd           | Website:  www.openfoam.com                      |
|    \\/     M anipulation  |                                                 |
\*---------------------------------------------------------------------------*/
FoamFile
{
    version     2.0;
    format      ascii;
    arch        "LSB;label=64;scalar=64";
    class       volScalarField::Internal;
    location    "1330";
    object      dGco2;
}
// * * * * * * * * * * * * * * * * * * * * * * * * * * * * * * * * * * * * * //

dimensions      [1 -3 -1 0 0 0 0];

value           nonuniform List<scalar> 
1024
(
0.000141889
0.000141932
0.000142037
0.000142228
0.00014253
0.000142969
0.000143557
0.000144292
0.000145146
0.000146067
0.000146984
0.000147808
0.000148435
0.000148788
0.000148844
0.000148586
0.000148001
0.000147145
0.000146109
0.00014494
0.000143692
0.000142428
0.000141219
0.000140128
0.0001392
0.000138456
0.000137892
0.000137489
0.000137218
0.000137051
0.000136959
0.000136922
0.000141898
0.000141941
0.000142048
0.000142243
0.000142551
0.000142998
0.000143596
0.000144341
0.000145204
0.000146134
0.000147059
0.000147889
0.000148518
0.000148868
0.00014892
0.000148659
0.000148072
0.000147214
0.000146176
0.000145005
0.000143754
0.000142486
0.000141271
0.000140172
0.000139236
0.000138483
0.000137912
0.000137504
0.00013723
0.00013706
0.000136967
0.00013693
0.000141918
0.000141963
0.000142073
0.000142275
0.000142595
0.000143058
0.000143676
0.000144443
0.000145329
0.000146284
0.000147234
0.000148086
0.000148723
0.000149066
0.000149107
0.000148834
0.000148237
0.000147371
0.000146325
0.000145146
0.000143888
0.000142611
0.000141382
0.000140267
0.000139313
0.000138543
0.000137958
0.000137538
0.000137256
0.000137082
0.000136986
0.000136948
0.000141952
0.000141999
0.000142115
0.000142326
0.000142663
0.000143148
0.000143796
0.000144599
0.000145528
0.000146532
0.000147539
0.000148441
0.0001491
0.000149433
0.000149448
0.000149148
0.000148529
0.00014764
0.000146572
0.000145375
0.0001441
0.000142806
0.000141557
0.000140416
0.000139435
0.000138639
0.000138031
0.000137594
0.0001373
0.000137119
0.00013702
0.00013698
0.000142002
0.000142052
0.000142173
0.000142397
0.000142752
0.000143267
0.000143954
0.00014481
0.000145807
0.000146898
0.000148005
0.000149002
0.000149707
0.000150027
0.000150001
0.000149652
0.000148984
0.000148047
0.000146934
0.000145698
0.000144392
0.000143069
0.00014179
0.000140616
0.000139599
0.000138769
0.000138132
0.000137673
0.000137365
0.000137174
0.00013707
0.000137028
0.000142071
0.000142122
0.000142249
0.000142484
0.00014286
0.000143408
0.000144146
0.000145075
0.000146175
0.000147402
0.000148669
0.000149816
0.000150602
0.000150914
0.000150829
0.000150402
0.000149652
0.000148628
0.000147429
0.000146121
0.000144759
0.00014339
0.000142069
0.000140854
0.000139795
0.000138927
0.000138257
0.000137774
0.000137448
0.000137247
0.000137139
0.000137095
0.000142158
0.00014221
0.000142342
0.000142587
0.000142984
0.000143569
0.000144368
0.000145394
0.000146638
0.000148061
0.000149561
0.000150922
0.000151834
0.000152154
0.000151998
0.000151463
0.000150588
0.000149422
0.00014808
0.000146648
0.000145191
0.00014375
0.000142372
0.000141106
0.000140003
0.000139096
0.000138395
0.000137888
0.000137548
0.000137338
0.000137226
0.000137181
0.00014227
0.000142322
0.000142456
0.000142709
0.000143125
0.000143749
0.000144621
0.000145771
0.000147207
0.000148895
0.000150705
0.000152348
0.000153437
0.000153796
0.000153569
0.000152905
0.00015186
0.000150483
0.000148918
0.000147288
0.000145677
0.000144125
0.000142666
0.000141342
0.000140195
0.000139254
0.000138529
0.000138007
0.000137658
0.000137445
0.000137331
0.000137285
0.000142419
0.00014247
0.000142604
0.000142862
0.000143294
0.000143959
0.000144917
0.00014622
0.000147899
0.000149926
0.000152126
0.000154119
0.000155437
0.000155872
0.000155595
0.0001548
0.000153547
0.000151882
0.000149993
0.000148065
0.000146219
0.000144499
0.000142928
0.000141533
0.000140344
0.000139381
0.000138648
0.000138126
0.00013778
0.000137571
0.000137462
0.000137419
0.000142637
0.000142686
0.000142817
0.000143077
0.000143524
0.000144234
0.00014529
0.000146778
0.000148758
0.000151199
0.000153868
0.00015627
0.000157864
0.000158424
0.000158142
0.000157248
0.000155775
0.000153746
0.000151419
0.000149064
0.000146873
0.000144902
0.000143168
0.000141682
0.000140453
0.000139484
0.000138764
0.000138263
0.000137941
0.000137753
0.000137658
0.000137623
0.000142995
0.00014304
0.000143166
0.000143425
0.000143889
0.00014465
0.000145824
0.000147536
0.000149879
0.000152814
0.000156019
0.000158878
0.000160786
0.000161529
0.000161332
0.000160431
0.000158784
0.000156361
0.0001535
0.000150571
0.000147878
0.000145528
0.000143542
0.000141914
0.000140629
0.000139663
0.000138979
0.00013853
0.000138261
0.00013812
0.000138059
0.000138041
0.000143632
0.000143672
0.000143792
0.000144052
0.000144539
0.00014537
0.000146695
0.000148684
0.000151459
0.000154956
0.000158739
0.000162078
0.000164337
0.000165357
0.000165411
0.000164711
0.000163083
0.000160392
0.000157009
0.000153405
0.00015002
0.000147077
0.000144656
0.000142749
0.000141328
0.000140335
0.000139695
0.000139329
0.000139157
0.000139106
0.000139112
0.00013913
0.000144785
0.000144819
0.000144935
0.000145207
0.00014574
0.000146681
0.000148217
0.000150554
0.000153826
0.000157914
0.000162266
0.000166073
0.000168735
0.000170206
0.000170814
0.000170718
0.00016959
0.000167129
0.000163625
0.000159562
0.000155448
0.000151663
0.000148477
0.000145956
0.000144132
0.000142936
0.000142256
0.000141959
0.00014191
0.000141989
0.000142097
0.000142169
0.000146761
0.000146793
0.000146918
0.000147226
0.000147852
0.000148975
0.000150815
0.000153593
0.000157411
0.000162057
0.000166889
0.000171108
0.000174258
0.000176455
0.000178063
0.000179189
0.000179408
0.000178224
0.000175695
0.000172164
0.000168055
0.0001638
0.000159796
0.000156299
0.000153549
0.000151596
0.000150408
0.00014985
0.000149719
0.00014981
0.000149962
0.000150067
0.000149784
0.000149826
0.000149987
0.000150386
0.000151188
0.000152608
0.000154882
0.000158201
0.00016256
0.000167614
0.000172703
0.000177199
0.000180907
0.000184069
0.000187012
0.000189831
0.000192141
0.00019336
0.000193296
0.000192045
0.000189768
0.000186699
0.000183131
0.000179407
0.000175864
0.000172775
0.000170359
0.000168705
0.000167744
0.0001673
0.000167167
0.000167165
0.000153534
0.000153586
0.00015378
0.000154247
0.000155169
0.000156764
0.000159246
0.00016275
0.000167214
0.000172324
0.000177571
0.000182491
0.000186918
0.000191006
0.000194986
0.000198983
0.000202786
0.000206048
0.000208621
0.000210435
0.000211378
0.000211372
0.000210416
0.000208607
0.000206148
0.000203348
0.000200556
0.000198097
0.000196203
0.000194955
0.000194286
0.000194038
0.000157011
0.000157064
0.000157255
0.00015771
0.000158599
0.000160124
0.000162478
0.000165782
0.000169999
0.00017489
0.000180051
0.000185058
0.000189655
0.000193801
0.000197555
0.000200988
0.000204108
0.000207147
0.000210353
0.000213673
0.000216855
0.00021961
0.000221698
0.000222967
0.000223364
0.000222958
0.000221935
0.000220579
0.000219213
0.000218105
0.000217392
0.000217075
0.000159523
0.000159574
0.000159745
0.000160144
0.000160919
0.000162246
0.000164304
0.000167217
0.000170984
0.000175436
0.000180238
0.000184977
0.000189302
0.000192993
0.00019594
0.000198118
0.000199675
0.000201373
0.00020389
0.000207287
0.000211261
0.000215376
0.000219217
0.000222467
0.000224935
0.000226562
0.000227406
0.00022762
0.000227425
0.000227064
0.000226738
0.000226561
0.000161157
0.000161204
0.000161355
0.000161694
0.000162345
0.000163457
0.000165192
0.000167673
0.000170931
0.000174854
0.00017917
0.0001835
0.000187453
0.000190716
0.00019308
0.000194467
0.000195093
0.000195931
0.000197843
0.000201061
0.000205392
0.000210377
0.000215448
0.000220085
0.000223913
0.000226762
0.000228641
0.000229692
0.000230133
0.000230205
0.000230125
0.000230047
0.000162206
0.000162249
0.000162379
0.000162664
0.000163204
0.000164123
0.00016556
0.000167633
0.000170391
0.000173765
0.000177546
0.000181406
0.000184975
0.00018792
0.00019
0.000191126
0.000191543
0.000192184
0.000193836
0.000196814
0.000201089
0.000206356
0.000212104
0.000217735
0.000222695
0.000226626
0.000229411
0.000231135
0.00023202
0.000232345
0.000232382
0.00023234
0.000162932
0.000162965
0.000163068
0.000163296
0.000163732
0.00016448
0.000165658
0.00016737
0.00016967
0.000172519
0.000175762
0.000179139
0.000182337
0.000185059
0.000187086
0.000188354
0.000189096
0.000190059
0.000191839
0.000194741
0.000198839
0.000203999
0.000209874
0.000215941
0.000221598
0.000226351
0.000229923
0.000232286
0.000233613
0.00023419
0.000234333
0.000234316
0.000163637
0.000163648
0.0001637
0.000163846
0.00016416
0.000164736
0.000165676
0.00016707
0.000168968
0.00017135
0.000174108
0.000177053
0.00017995
0.000182569
0.000184744
0.00018645
0.000187862
0.000189444
0.000191585
0.000194559
0.000198498
0.000203388
0.00020904
0.000215074
0.000220972
0.000226201
0.000230354
0.000233266
0.000235012
0.000235846
0.000236104
0.000236113
0.000164689
0.000164657
0.00016462
0.000164633
0.000164778
0.00016515
0.00016585
0.000166961
0.000168528
0.000170544
0.000172944
0.0001756
0.000178352
0.00018104
0.000183551
0.000185889
0.000188119
0.000190398
0.000192942
0.000196004
0.000199759
0.000204291
0.000209527
0.000215216
0.000220967
0.000226312
0.000230797
0.000234126
0.000236246
0.000237334
0.000237716
0.000237756
0.000166494
0.000166392
0.000166219
0.000166042
0.000165962
0.000166095
0.000166558
0.000167438
0.000168784
0.0001706
0.000172843
0.000175429
0.000178245
0.000181175
0.000184139
0.000187148
0.000190135
0.000192993
0.000195827
0.000198889
0.000202383
0.000206457
0.000211137
0.000216288
0.000221629
0.000226786
0.00023134
0.00023492
0.00023734
0.000238668
0.000239181
0.000239257
0.000169416
0.00016922
0.000168876
0.000168481
0.000168168
0.000168086
0.000168376
0.000169141
0.000170436
0.000172259
0.00017457
0.000177291
0.000180324
0.00018357
0.000186957
0.000190491
0.000193992
0.000197177
0.000200102
0.000203025
0.000206165
0.000209702
0.000213725
0.000218196
0.000222943
0.000227687
0.000232068
0.000235709
0.000238326
0.000239861
0.000240505
0.000240623
0.000173724
0.000173419
0.000172909
0.000172347
0.000171905
0.000171751
0.000172036
0.000172874
0.000174306
0.000176309
0.000178821
0.000181751
0.000184996
0.000188463
0.00019208
0.000195844
0.000199515
0.000202732
0.000205533
0.00020818
0.00021089
0.000213845
0.000217163
0.000220873
0.000224897
0.000229053
0.000233059
0.000236566
0.000239246
0.000240929
0.000241695
0.000241861
0.000179574
0.000179163
0.000178566
0.000178011
0.000177681
0.000177713
0.000178227
0.000179318
0.000180993
0.000183207
0.000185876
0.000188904
0.000192185
0.000195633
0.000199184
0.000202831
0.000206324
0.000209302
0.000211802
0.000214071
0.000216308
0.000218675
0.000221295
0.000224229
0.000227465
0.000230909
0.000234372
0.000237564
0.000240154
0.000241895
0.000242758
0.000242974
0.000187059
0.000186585
0.000186081
0.000185819
0.000185907
0.000186381
0.000187288
0.000188679
0.000190536
0.000192813
0.000195434
0.000198311
0.000201356
0.000204494
0.000207676
0.000210899
0.000213935
0.000216476
0.000218556
0.00022039
0.000222144
0.000223952
0.000225922
0.000228122
0.000230575
0.000233252
0.00023605
0.000238766
0.000241107
0.000242794
0.000243704
0.000243966
0.000196299
0.000195871
0.000195737
0.000196058
0.00019675
0.000197729
0.000198979
0.000200517
0.000202338
0.00020442
0.000206719
0.000209172
0.000211715
0.000214296
0.000216878
0.00021946
0.000221864
0.000223851
0.000225451
0.000226832
0.000228122
0.000229422
0.000230816
0.000232363
0.000234097
0.000236022
0.000238101
0.000240219
0.000242161
0.000243664
0.000244548
0.00024484
0.000207544
0.000207375
0.000207867
0.000208807
0.00020995
0.000211184
0.000212488
0.000213883
0.000215391
0.000217023
0.000218766
0.000220587
0.000222448
0.000224316
0.000226167
0.000228
0.000229693
0.000231082
0.000232189
0.00023313
0.000233993
0.000234848
0.00023575
0.000236744
0.000237856
0.000239103
0.000240481
0.000241943
0.000243365
0.000244551
0.000245314
0.0002456
0.000221267
0.000221592
0.00022255
0.000223627
0.000224695
0.000225714
0.000226687
0.000227644
0.000228616
0.000229628
0.000230684
0.000231773
0.000232876
0.000233975
0.000235058
0.000236125
0.000237105
0.000237906
0.00023854
0.000239074
0.000239558
0.000240031
0.000240524
0.000241062
0.000241663
0.000242337
0.000243091
0.000243913
0.000244751
0.0002455
0.000246031
0.000246258
0.000238044
0.000238302
0.000238797
0.00023927
0.000239703
0.000240097
0.000240456
0.000240793
0.000241124
0.000241462
0.00024181
0.000242166
0.000242525
0.000242882
0.000243233
0.000243577
0.000243893
0.00024415
0.000244353
0.000244524
0.000244677
0.000244826
0.00024498
0.000245147
0.000245332
0.00024554
0.000245773
0.000246029
0.000246296
0.000246547
0.000246739
0.000246832
)
;


// ************************************************************************* //
