/*--------------------------------*- C++ -*----------------------------------*\
| =========                 |                                                 |
| \\      /  F ield         | OpenFOAM: The Open Source CFD Toolbox           |
|  \\    /   O peration     | Version:  2212                                  |
|   \\  /    A nd           | Website:  www.openfoam.com                      |
|    \\/     M anipulation  |                                                 |
\*---------------------------------------------------------------------------*/
FoamFile
{
    version     2.0;
    format      ascii;
    arch        "LSB;label=64;scalar=64";
    class       volScalarField;
    location    "1330";
    object      p_rgh;
}
// * * * * * * * * * * * * * * * * * * * * * * * * * * * * * * * * * * * * * //

dimensions      [0 2 -2 0 0 0 0];

internalField   nonuniform List<scalar> 
1024
(
0.0431945
0.0431925
0.0431903
0.0431893
0.0431909
0.0431959
0.0432055
0.0432216
0.043246
0.0432789
0.0433145
0.0433353
0.0433262
0.0432914
0.0432344
0.0431687
0.0431004
0.0430381
0.0429903
0.0429585
0.0429392
0.042928
0.0429217
0.0429182
0.0429161
0.0429149
0.0429142
0.0429143
0.0429151
0.0429163
0.0429176
0.0429184
0.0431979
0.0431959
0.0431941
0.0431936
0.0431955
0.0432005
0.0432099
0.0432256
0.0432495
0.043282
0.043317
0.0433374
0.0433286
0.0432945
0.0432377
0.043172
0.0431036
0.0430413
0.0429936
0.0429618
0.0429424
0.0429311
0.0429247
0.0429211
0.0429189
0.0429176
0.0429168
0.0429167
0.0429173
0.0429182
0.0429193
0.0429201
0.0432035
0.0432012
0.0431995
0.0431997
0.0432022
0.0432076
0.0432173
0.0432332
0.0432573
0.0432902
0.0433255
0.0433458
0.0433373
0.0433035
0.0432465
0.0431805
0.0431117
0.0430489
0.0430007
0.0429686
0.0429489
0.0429374
0.0429306
0.0429267
0.0429242
0.0429225
0.0429214
0.0429209
0.042921
0.0429217
0.0429227
0.0429238
0.0432095
0.0432067
0.0432051
0.043206
0.0432095
0.0432162
0.0432271
0.0432443
0.0432698
0.0433043
0.043341
0.0433617
0.0433535
0.0433195
0.0432622
0.0431956
0.043126
0.043062
0.0430128
0.0429798
0.0429594
0.0429473
0.04294
0.0429354
0.0429322
0.0429298
0.0429279
0.0429267
0.0429262
0.0429266
0.0429278
0.0429293
0.043213
0.04321
0.0432087
0.0432107
0.043216
0.0432248
0.0432381
0.0432579
0.0432862
0.0433231
0.0433613
0.0433825
0.0433751
0.0433413
0.0432845
0.0432177
0.0431473
0.0430819
0.0430307
0.0429962
0.0429748
0.0429616
0.0429533
0.0429478
0.0429435
0.0429398
0.0429367
0.0429342
0.0429329
0.0429329
0.0429342
0.042936
0.0432103
0.0432077
0.0432073
0.043211
0.0432189
0.043231
0.0432481
0.0432718
0.0433037
0.0433429
0.0433822
0.0434036
0.0433974
0.0433651
0.0433105
0.0432451
0.0431749
0.0431082
0.0430545
0.043018
0.042995
0.0429804
0.0429708
0.0429637
0.0429576
0.0429521
0.0429469
0.0429427
0.04294
0.0429393
0.0429406
0.0429427
0.043198
0.0431962
0.0431973
0.0432033
0.0432147
0.0432314
0.0432536
0.0432822
0.0433179
0.0433593
0.0433992
0.0434209
0.0434161
0.0433861
0.0433355
0.0432735
0.0432051
0.0431383
0.0430823
0.0430437
0.0430191
0.0430028
0.0429911
0.0429818
0.0429733
0.0429649
0.0429569
0.0429501
0.0429456
0.0429439
0.0429448
0.042947
0.0431747
0.043174
0.0431768
0.0431854
0.0432009
0.043223
0.0432512
0.0432854
0.0433252
0.0433693
0.0434108
0.0434332
0.0434291
0.0434013
0.0433553
0.0432979
0.0432329
0.0431671
0.04311
0.0430698
0.0430439
0.0430259
0.0430119
0.0429995
0.0429875
0.0429753
0.0429635
0.0429536
0.0429467
0.0429436
0.0429438
0.0429457
0.0431417
0.0431421
0.0431464
0.0431574
0.0431767
0.0432043
0.0432389
0.0432793
0.0433248
0.0433742
0.0434196
0.043443
0.0434381
0.0434111
0.0433685
0.0433152
0.0432534
0.043189
0.0431321
0.0430907
0.0430646
0.0430454
0.0430287
0.0430127
0.0429963
0.0429793
0.0429629
0.0429493
0.0429401
0.0429355
0.0429348
0.042936
0.0431033
0.0431047
0.04311
0.0431224
0.0431445
0.0431766
0.0432175
0.0432652
0.0433196
0.0433795
0.043432
0.0434558
0.0434476
0.0434187
0.0433772
0.043326
0.0432655
0.043201
0.043143
0.0431008
0.0430758
0.043056
0.0430369
0.0430168
0.0429953
0.0429731
0.0429524
0.0429356
0.0429244
0.0429188
0.0429172
0.0429177
0.0430667
0.0430682
0.0430736
0.0430861
0.0431091
0.0431444
0.0431911
0.0432483
0.0433169
0.0433945
0.043456
0.0434777
0.0434631
0.043429
0.0433853
0.0433341
0.0432732
0.0432061
0.0431428
0.0430985
0.0430742
0.043054
0.0430328
0.043009
0.0429831
0.0429568
0.0429332
0.042915
0.0429034
0.0428976
0.0428956
0.0428953
0.0430399
0.0430408
0.043045
0.0430564
0.0430791
0.0431161
0.0431688
0.0432392
0.0433292
0.0434299
0.0434982
0.0435132
0.0434896
0.0434484
0.0434005
0.0433473
0.0432852
0.0432152
0.0431471
0.0430944
0.0430623
0.0430404
0.0430183
0.0429927
0.0429652
0.0429382
0.0429152
0.0428983
0.042888
0.0428829
0.0428809
0.0428802
0.0430342
0.0430333
0.0430348
0.0430436
0.0430656
0.0431059
0.043169
0.0432596
0.0433764
0.0434943
0.0435591
0.0435625
0.0435298
0.0434834
0.0434336
0.0433817
0.0433247
0.0432614
0.0431963
0.0431351
0.0430817
0.0430411
0.0430166
0.0429902
0.0429637
0.0429386
0.0429174
0.0429025
0.0428941
0.0428907
0.0428897
0.0428893
0.0430638
0.0430601
0.0430574
0.0430629
0.0430857
0.0431353
0.0432196
0.0433419
0.043484
0.0435889
0.0436323
0.0436243
0.0435898
0.0435464
0.0435027
0.0434622
0.0434247
0.0433886
0.0433531
0.0433174
0.043277
0.0432242
0.043155
0.0430911
0.0430484
0.0430131
0.0429837
0.0429645
0.0429558
0.0429541
0.0429555
0.0429568
0.0431465
0.0431395
0.0431332
0.0431386
0.04317
0.0432416
0.043361
0.0435153
0.0436581
0.0437395
0.0437586
0.0437431
0.0437132
0.0436769
0.0436378
0.0436028
0.0435869
0.0435863
0.0435977
0.0436187
0.0436418
0.0436557
0.0436463
0.043599
0.0435055
0.0433926
0.0432882
0.0432172
0.0431851
0.0431739
0.0431731
0.0431751
0.0432357
0.0432265
0.0432176
0.0432223
0.0432573
0.0433363
0.0434596
0.0436033
0.0437256
0.0437993
0.043828
0.0438289
0.0438146
0.043791
0.0437612
0.0437303
0.0437094
0.043715
0.0437435
0.0437912
0.043852
0.0439171
0.0439755
0.0440162
0.0440303
0.044012
0.0439602
0.0438792
0.0437889
0.0437211
0.0436847
0.0436732
0.0432774
0.0432673
0.0432557
0.0432562
0.0432851
0.0433556
0.0434665
0.0435946
0.043706
0.0437805
0.0438196
0.0438344
0.0438329
0.0438183
0.0437925
0.0437603
0.0437342
0.0437255
0.0437403
0.043775
0.0438257
0.0438877
0.0439543
0.0440169
0.0440673
0.0441003
0.0441146
0.0441122
0.0440979
0.044078
0.0440592
0.044047
0.0432921
0.0432819
0.0432683
0.043263
0.0432816
0.0433378
0.0434327
0.0435483
0.0436549
0.0437335
0.0437814
0.0438062
0.0438139
0.0438069
0.0437867
0.0437584
0.0437365
0.043724
0.0437239
0.0437354
0.0437576
0.0437916
0.0438365
0.0438875
0.0439376
0.0439793
0.0440078
0.0440224
0.0440259
0.0440225
0.0440159
0.0440099
0.0433133
0.0433037
0.0432893
0.0432795
0.0432878
0.0433275
0.0434036
0.0435064
0.0436097
0.0436922
0.0437477
0.0437806
0.0437956
0.0437954
0.0437824
0.0437628
0.0437529
0.0437493
0.0437451
0.0437428
0.0437418
0.043746
0.0437605
0.0437868
0.0438216
0.0438576
0.0438874
0.0439065
0.0439147
0.0439148
0.0439101
0.0439045
0.0433475
0.0433388
0.0433244
0.0433118
0.0433127
0.0433394
0.0433987
0.0434857
0.0435809
0.0436647
0.0437262
0.0437653
0.0437854
0.0437891
0.0437798
0.0437646
0.0437599
0.0437682
0.0437726
0.0437712
0.0437652
0.0437551
0.0437468
0.043749
0.0437647
0.0437898
0.0438161
0.0438362
0.0438467
0.0438483
0.0438436
0.0438372
0.0433903
0.0433825
0.0433685
0.0433546
0.0433506
0.0433677
0.0434139
0.0434871
0.0435732
0.0436542
0.0437175
0.0437593
0.0437809
0.0437846
0.0437743
0.0437578
0.0437495
0.0437585
0.0437728
0.0437854
0.0437924
0.0437904
0.0437743
0.0437632
0.0437647
0.0437805
0.0438037
0.043825
0.0438379
0.0438411
0.0438365
0.043829
0.0434357
0.0434285
0.0434154
0.0434011
0.0433942
0.0434054
0.0434425
0.0435051
0.0435824
0.043658
0.0437189
0.0437592
0.0437782
0.0437779
0.0437628
0.0437409
0.0437265
0.0437329
0.0437541
0.0437787
0.0438001
0.0438134
0.0438154
0.0438122
0.0438085
0.0438214
0.0438468
0.0438736
0.0438922
0.0438987
0.0438947
0.043886
0.0434786
0.0434719
0.0434595
0.0434456
0.0434382
0.0434471
0.0434795
0.0435354
0.043605
0.0436736
0.0437283
0.0437624
0.0437747
0.043767
0.043744
0.0437147
0.0436941
0.0436979
0.0437226
0.0437556
0.0437901
0.0438212
0.0438459
0.0438655
0.043883
0.0439046
0.0439395
0.0439798
0.0440109
0.0440251
0.0440232
0.0440137
0.0435154
0.0435088
0.0434972
0.0434849
0.0434794
0.0434894
0.0435213
0.0435741
0.0436376
0.0436979
0.0437431
0.0437672
0.043769
0.043751
0.0437182
0.0436801
0.0436532
0.0436543
0.0436801
0.0437193
0.0437654
0.0438144
0.0438638
0.0439141
0.0439663
0.0440206
0.0440792
0.0441421
0.0441963
0.0442262
0.04423
0.044221
0.0435436
0.0435364
0.0435258
0.0435166
0.0435161
0.0435311
0.0435662
0.0436187
0.043677
0.0437277
0.0437607
0.0437715
0.0437601
0.0437295
0.0436854
0.0436377
0.0436045
0.0436023
0.0436276
0.0436719
0.0437283
0.0437947
0.0438702
0.0439557
0.0440515
0.0441548
0.04426
0.0443609
0.0444509
0.0445097
0.0445266
0.044522
0.0435612
0.0435528
0.0435436
0.0435402
0.0435485
0.0435717
0.0436128
0.0436663
0.0437194
0.0437589
0.0437775
0.043773
0.0437466
0.0437021
0.0436457
0.0435881
0.0435487
0.0435432
0.043568
0.0436162
0.0436818
0.0437647
0.0438663
0.0439894
0.0441344
0.0442973
0.0444677
0.0446312
0.0447741
0.0448818
0.044927
0.0449352
0.0435635
0.0435543
0.0435488
0.0435551
0.0435764
0.0436115
0.0436589
0.0437134
0.04376
0.0437869
0.0437898
0.0437689
0.0437267
0.0436679
0.0435992
0.0435323
0.0434874
0.0434793
0.0435045
0.043556
0.0436301
0.0437282
0.0438546
0.0440144
0.04421
0.0444378
0.0446857
0.0449338
0.0451584
0.0453407
0.0454418
0.0454794
0.0435384
0.0435323
0.0435365
0.0435599
0.0435994
0.0436486
0.0437029
0.0437563
0.0437941
0.0438071
0.043794
0.0437567
0.0436993
0.0436271
0.0435475
0.0434729
0.0434241
0.0434148
0.0434409
0.0434961
0.0435781
0.0436898
0.0438378
0.0440302
0.0442724
0.0445635
0.0448935
0.0452419
0.0455796
0.0458708
0.0460699
0.046167
0.0434619
0.0434709
0.0435013
0.0435544
0.043618
0.0436818
0.043742
0.0437914
0.0438183
0.0438171
0.0437888
0.0437368
0.0436663
0.0435831
0.0434951
0.0434152
0.0433646
0.0433554
0.0433832
0.0434423
0.0435312
0.0436537
0.0438189
0.044037
0.0443167
0.0446615
0.0450673
0.0455206
0.0459959
0.0464495
0.0468026
0.0470296
0.0432798
0.0433513
0.0434494
0.0435494
0.0436377
0.0437145
0.0437766
0.0438184
0.0438336
0.0438193
0.0437779
0.043714
0.0436334
0.0435424
0.043449
0.0433663
0.0433154
0.0433072
0.0433369
0.0433995
0.0434934
0.0436235
0.0438002
0.0440355
0.0443404
0.0447228
0.0451865
0.0457316
0.046352
0.0470204
0.0476511
0.048202
0.0427917
0.0431815
0.0434229
0.0435726
0.0436758
0.0437552
0.0438119
0.0438436
0.0438469
0.0438211
0.0437693
0.0436967
0.0436091
0.0435131
0.0434166
0.0433326
0.043282
0.0432747
0.043306
0.0433707
0.0434673
0.0436013
0.0437837
0.0440273
0.0443444
0.0447459
0.0452421
0.0458476
0.0465867
0.0474947
0.0486017
0.0498599
0.0417746
0.0430105
0.0434759
0.0436264
0.0437237
0.0437978
0.0438455
0.0438671
0.0438612
0.0438272
0.0437686
0.0436905
0.0435989
0.0434999
0.0434017
0.043317
0.0432664
0.0432595
0.0432914
0.0433568
0.0434542
0.0435892
0.0437728
0.0440182
0.044338
0.0447441
0.0452508
0.0458839
0.0466968
0.0477978
0.0494056
0.0516679
)
;

boundaryField
{
    movingWall
    {
        type            fixedFluxPressure;
        gradient        uniform 0;
        value           nonuniform List<scalar> 
32
(
0.0417746
0.0430105
0.0434759
0.0436264
0.0437237
0.0437978
0.0438455
0.0438671
0.0438612
0.0438272
0.0437686
0.0436905
0.0435989
0.0434999
0.0434017
0.043317
0.0432664
0.0432595
0.0432914
0.0433568
0.0434542
0.0435892
0.0437728
0.0440182
0.044338
0.0447441
0.0452508
0.0458839
0.0466968
0.0477978
0.0494056
0.0516679
)
;
    }
    fixedWalls
    {
        type            fixedFluxPressure;
        gradient        uniform 0;
        value           nonuniform List<scalar> 
64
(
0.0431945
0.0431979
0.0432035
0.0432095
0.043213
0.0432103
0.043198
0.0431747
0.0431417
0.0431033
0.0430667
0.0430399
0.0430342
0.0430638
0.0431465
0.0432357
0.0432774
0.0432921
0.0433133
0.0433475
0.0433903
0.0434357
0.0434786
0.0435154
0.0435436
0.0435612
0.0435635
0.0435384
0.0434619
0.0432798
0.0427917
0.0417746
0.0429184
0.0429201
0.0429238
0.0429293
0.042936
0.0429427
0.042947
0.0429457
0.042936
0.0429177
0.0428953
0.0428802
0.0428893
0.0429568
0.0431751
0.0436732
0.044047
0.0440099
0.0439045
0.0438372
0.043829
0.043886
0.0440137
0.044221
0.044522
0.0449352
0.0454794
0.046167
0.0470296
0.048202
0.0498599
0.0516679
)
;
    }
    floor
    {
        type            fixedFluxPressure;
        gradient        uniform 0;
        value           nonuniform List<scalar> 
32
(
0.0431945
0.0431925
0.0431903
0.0431893
0.0431909
0.0431959
0.0432055
0.0432216
0.043246
0.0432789
0.0433145
0.0433353
0.0433262
0.0432914
0.0432344
0.0431687
0.0431004
0.0430381
0.0429903
0.0429585
0.0429392
0.042928
0.0429217
0.0429182
0.0429161
0.0429149
0.0429142
0.0429143
0.0429151
0.0429163
0.0429176
0.0429184
)
;
    }
    frontAndBack
    {
        type            empty;
    }
}


// ************************************************************************* //
