/*--------------------------------*- C++ -*----------------------------------*\
| =========                 |                                                 |
| \\      /  F ield         | OpenFOAM: The Open Source CFD Toolbox           |
|  \\    /   O peration     | Version:  2212                                  |
|   \\  /    A nd           | Website:  www.openfoam.com                      |
|    \\/     M anipulation  |                                                 |
\*---------------------------------------------------------------------------*/
FoamFile
{
    version     2.0;
    format      ascii;
    arch        "LSB;label=64;scalar=64";
    class       volScalarField;
    location    "1330";
    object      SIC;
}
// * * * * * * * * * * * * * * * * * * * * * * * * * * * * * * * * * * * * * //

dimensions      [1 -3 0 0 0 0 0];

internalField   nonuniform List<scalar> 
1024
(
0.0910883
0.0910899
0.091094
0.0911012
0.0911128
0.0911296
0.091152
0.0911801
0.0912127
0.0912479
0.0912829
0.0913143
0.0913383
0.0913517
0.0913539
0.0913441
0.0913217
0.0912891
0.0912495
0.0912049
0.0911573
0.091109
0.0910629
0.0910212
0.0909858
0.0909574
0.0909359
0.0909205
0.0909102
0.0909038
0.0909003
0.0908988
0.0910886
0.0910903
0.0910944
0.0911018
0.0911136
0.0911307
0.0911535
0.091182
0.0912149
0.0912505
0.0912858
0.0913175
0.0913414
0.0913548
0.0913568
0.0913468
0.0913244
0.0912917
0.0912521
0.0912074
0.0911596
0.0911112
0.0910649
0.0910229
0.0909872
0.0909584
0.0909366
0.0909211
0.0909106
0.0909041
0.0909006
0.0908991
0.0910894
0.0910911
0.0910954
0.0911031
0.0911153
0.091133
0.0911566
0.0911859
0.0912197
0.0912562
0.0912925
0.091325
0.0913493
0.0913624
0.0913639
0.0913535
0.0913308
0.0912977
0.0912578
0.0912128
0.0911648
0.091116
0.0910691
0.0910265
0.0909901
0.0909607
0.0909384
0.0909224
0.0909116
0.0909049
0.0909013
0.0908998
0.0910907
0.0910925
0.0910969
0.091105
0.0911179
0.0911364
0.0911612
0.0911918
0.0912273
0.0912657
0.0913041
0.0913386
0.0913637
0.0913764
0.091377
0.0913655
0.0913419
0.091308
0.0912672
0.0912215
0.0911729
0.0911235
0.0910758
0.0910322
0.0909948
0.0909644
0.0909412
0.0909245
0.0909133
0.0909063
0.0909026
0.090901
0.0910926
0.0910945
0.0910992
0.0911077
0.0911213
0.091141
0.0911672
0.0911999
0.091238
0.0912797
0.0913219
0.09136
0.0913869
0.0913991
0.0913981
0.0913847
0.0913593
0.0913235
0.091281
0.0912339
0.091184
0.0911335
0.0910847
0.0910399
0.091001
0.0909694
0.090945
0.0909275
0.0909157
0.0909085
0.0909045
0.0909029
0.0910953
0.0910972
0.0911021
0.091111
0.0911254
0.0911464
0.0911746
0.0912101
0.0912521
0.0912989
0.0913473
0.091391
0.091421
0.0914329
0.0914297
0.0914134
0.0913848
0.0913457
0.0912999
0.09125
0.091198
0.0911458
0.0910953
0.0910489
0.0910085
0.0909754
0.0909498
0.0909313
0.0909189
0.0909113
0.0909071
0.0909055
0.0910986
0.0911006
0.0911056
0.091115
0.0911302
0.0911525
0.0911831
0.0912223
0.0912698
0.0913242
0.0913814
0.0914333
0.0914681
0.0914803
0.0914743
0.0914539
0.0914205
0.091376
0.0913248
0.0912701
0.0912145
0.0911595
0.0911069
0.0910586
0.0910164
0.0909818
0.0909551
0.0909357
0.0909227
0.0909147
0.0909104
0.0909087
0.0911029
0.0911049
0.09111
0.0911197
0.0911356
0.0911594
0.0911928
0.0912367
0.0912916
0.0913561
0.0914251
0.0914878
0.0915293
0.0915429
0.0915342
0.0915089
0.091469
0.0914165
0.0913568
0.0912945
0.091233
0.0911738
0.0911181
0.0910676
0.0910238
0.0909878
0.0909602
0.0909403
0.0909269
0.0909188
0.0909144
0.0909127
0.0911086
0.0911105
0.0911157
0.0911255
0.0911421
0.0911675
0.0912041
0.0912539
0.0913181
0.0913955
0.0914795
0.0915554
0.0916057
0.0916222
0.0916116
0.0915812
0.0915334
0.0914699
0.0913978
0.0913242
0.0912537
0.091188
0.0911281
0.0910748
0.0910294
0.0909927
0.0909647
0.0909448
0.0909316
0.0909236
0.0909194
0.0909178
0.0911169
0.0911188
0.0911238
0.0911337
0.0911508
0.091178
0.0912184
0.0912753
0.091351
0.0914442
0.091546
0.0916376
0.0916983
0.0917196
0.0917088
0.0916747
0.0916184
0.091541
0.0914522
0.0913623
0.0912786
0.0912034
0.0911372
0.0910805
0.0910336
0.0909966
0.0909691
0.09095
0.0909377
0.0909306
0.0909269
0.0909256
0.0911305
0.0911322
0.0911371
0.091147
0.0911647
0.0911939
0.0912388
0.0913043
0.0913939
0.091506
0.0916282
0.0917372
0.0918098
0.0918381
0.0918305
0.0917961
0.0917333
0.0916408
0.0915315
0.0914198
0.091317
0.0912273
0.0911515
0.0910893
0.0910403
0.0910035
0.0909774
0.0909602
0.09095
0.0909446
0.0909422
0.0909416
0.0911547
0.0911562
0.0911608
0.0911708
0.0911895
0.0912213
0.091272
0.0913481
0.0914542
0.0915877
0.0917321
0.0918594
0.0919453
0.0919841
0.0919861
0.0919594
0.0918973
0.0917946
0.0916655
0.0915279
0.0913987
0.0912864
0.091194
0.0911212
0.091067
0.0910291
0.0910047
0.0909907
0.0909842
0.0909822
0.0909825
0.0909832
0.0911984
0.0911998
0.0912042
0.0912146
0.0912351
0.0912711
0.0913299
0.0914194
0.0915445
0.0917006
0.0918666
0.0920117
0.0921131
0.0921691
0.0921922
0.0921885
0.0921455
0.0920516
0.0919179
0.0917629
0.0916058
0.0914614
0.0913399
0.0912437
0.0911741
0.0911284
0.0911025
0.0910911
0.0910893
0.0910923
0.0910964
0.0910991
0.0912734
0.0912747
0.0912794
0.0912913
0.0913153
0.0913583
0.0914287
0.091535
0.0916809
0.0918584
0.0920428
0.0922036
0.0923237
0.0924074
0.0924686
0.0925115
0.0925199
0.0924747
0.0923783
0.0922436
0.0920869
0.0919246
0.0917718
0.0916384
0.0915335
0.091459
0.0914136
0.0913923
0.0913873
0.0913907
0.0913965
0.0914005
0.0913882
0.0913899
0.091396
0.0914113
0.091442
0.0914963
0.0915833
0.0917102
0.0918768
0.0920698
0.0922641
0.0924356
0.0925769
0.0926974
0.0928096
0.092917
0.0930051
0.0930515
0.0930491
0.0930015
0.0929147
0.0927977
0.0926617
0.0925197
0.0923846
0.0922668
0.0921746
0.0921115
0.0920748
0.0920578
0.0920527
0.0920526
0.0915309
0.0915329
0.0915403
0.0915582
0.0915934
0.0916544
0.0917493
0.0918832
0.0920537
0.0922489
0.0924492
0.0926369
0.0928056
0.0929614
0.093113
0.0932652
0.0934101
0.0935344
0.0936325
0.0937017
0.0937378
0.0937376
0.0937013
0.0936324
0.0935387
0.093432
0.0933256
0.0932318
0.0931596
0.093112
0.0930865
0.093077
0.0916634
0.0916654
0.0916727
0.09169
0.091724
0.0917823
0.0918722
0.0919984
0.0921595
0.0923463
0.0925432
0.0927342
0.0929095
0.0930674
0.0932103
0.093341
0.0934597
0.0935755
0.0936977
0.0938243
0.0939457
0.0940508
0.0941305
0.0941789
0.0941942
0.0941788
0.0941398
0.0940882
0.0940362
0.093994
0.0939668
0.0939547
0.0917592
0.0917611
0.0917676
0.0917829
0.0918124
0.0918631
0.0919417
0.0920529
0.0921968
0.0923667
0.09255
0.0927308
0.0928956
0.0930363
0.0931484
0.0932313
0.0932905
0.0933552
0.0934511
0.0935806
0.0937322
0.0938892
0.0940357
0.0941596
0.0942538
0.0943159
0.0943481
0.0943563
0.0943489
0.0943351
0.0943227
0.094316
0.0918216
0.0918234
0.0918291
0.091842
0.0918668
0.0919093
0.0919755
0.0920702
0.0921946
0.0923443
0.092509
0.0926742
0.0928249
0.0929493
0.0930393
0.093092
0.0931158
0.0931477
0.0932206
0.0933433
0.0935085
0.0936986
0.093892
0.0940688
0.0942148
0.0943234
0.0943951
0.0944352
0.094452
0.0944548
0.0944517
0.0944488
0.0918617
0.0918633
0.0918682
0.0918791
0.0918997
0.0919347
0.0919896
0.0920687
0.0921739
0.0923027
0.0924469
0.0925942
0.0927303
0.0928426
0.0929218
0.0929647
0.0929805
0.0930049
0.093068
0.0931815
0.0933445
0.0935454
0.0937645
0.0939792
0.0941684
0.0943183
0.0944245
0.0944902
0.0945239
0.0945364
0.0945378
0.0945362
0.0918895
0.0918907
0.0918946
0.0919033
0.0919199
0.0919484
0.0919933
0.0920587
0.0921464
0.0922551
0.0923788
0.0925076
0.0926296
0.0927334
0.0928107
0.092859
0.0928873
0.092924
0.0929919
0.0931026
0.0932588
0.0934556
0.0936795
0.0939109
0.0941266
0.0943078
0.094444
0.0945341
0.0945847
0.0946067
0.0946121
0.0946115
0.0919164
0.0919168
0.0919188
0.0919244
0.0919363
0.0919582
0.0919941
0.0920473
0.0921197
0.0922105
0.0923157
0.0924281
0.0925386
0.0926384
0.0927214
0.0927865
0.0928403
0.0929006
0.0929823
0.0930957
0.0932459
0.0934323
0.0936478
0.0938779
0.0941027
0.0943021
0.0944604
0.0945715
0.094638
0.0946698
0.0946796
0.09468
0.0919566
0.0919554
0.091954
0.0919544
0.0919599
0.0919741
0.0920008
0.0920431
0.0921029
0.0921798
0.0922713
0.0923726
0.0924776
0.0925802
0.0926759
0.0927651
0.0928501
0.092937
0.0930341
0.0931508
0.093294
0.0934668
0.0936664
0.0938833
0.0941025
0.0943063
0.0944773
0.0946042
0.0946851
0.0947266
0.0947411
0.0947426
0.0920255
0.0920216
0.092015
0.0920082
0.0920051
0.0920102
0.0920278
0.0920613
0.0921127
0.0921819
0.0922675
0.0923661
0.0924735
0.0925853
0.0926984
0.0928131
0.092927
0.093036
0.0931441
0.0932608
0.093394
0.0935494
0.0937278
0.0939242
0.0941278
0.0943244
0.094498
0.0946345
0.0947268
0.0947774
0.0947969
0.0947998
0.0921369
0.0921295
0.0921163
0.0921012
0.0920893
0.0920861
0.0920971
0.0921263
0.0921756
0.0922452
0.0923333
0.0924371
0.0925528
0.0926766
0.0928058
0.0929406
0.0930741
0.0931956
0.0933071
0.0934185
0.0935383
0.0936731
0.0938265
0.0939969
0.0941779
0.0943588
0.0945258
0.0946646
0.0947644
0.0948229
0.0948474
0.0948519
0.0923012
0.0922896
0.0922701
0.0922487
0.0922318
0.0922258
0.0922367
0.0922686
0.0923232
0.0923996
0.0924954
0.0926071
0.0927309
0.0928632
0.0930011
0.0931447
0.0932847
0.0934073
0.0935142
0.0936151
0.0937184
0.0938311
0.0939576
0.094099
0.0942524
0.0944108
0.0945636
0.0946973
0.0947994
0.0948636
0.0948928
0.0948991
0.0925243
0.0925086
0.0924858
0.0924646
0.092452
0.0924532
0.0924727
0.0925143
0.0925781
0.0926625
0.0927644
0.0928798
0.093005
0.0931365
0.093272
0.0934111
0.0935443
0.0936578
0.0937532
0.0938397
0.093925
0.0940152
0.0941151
0.094227
0.0943503
0.0944816
0.0946136
0.0947353
0.094834
0.0949004
0.0949333
0.0949416
0.0928097
0.0927916
0.0927723
0.0927623
0.0927657
0.0927836
0.0928182
0.0928712
0.092942
0.0930288
0.0931288
0.0932385
0.0933547
0.0934744
0.0935958
0.0937187
0.0938345
0.0939313
0.0940107
0.0940806
0.0941474
0.0942164
0.0942915
0.0943754
0.0944689
0.0945709
0.0946776
0.0947811
0.0948704
0.0949347
0.0949694
0.0949794
0.093162
0.0931456
0.0931405
0.0931527
0.0931791
0.0932163
0.093264
0.0933226
0.093392
0.0934714
0.0935591
0.0936526
0.0937497
0.0938481
0.0939466
0.0940451
0.0941367
0.0942125
0.0942735
0.0943262
0.0943753
0.0944249
0.0944781
0.094537
0.0946031
0.0946765
0.0947558
0.0948365
0.0949106
0.0949678
0.0950016
0.0950127
0.0935907
0.0935843
0.093603
0.0936388
0.0936824
0.0937294
0.0937791
0.0938322
0.0938897
0.093952
0.0940184
0.0940879
0.0941589
0.0942301
0.0943007
0.0943707
0.0944352
0.0944882
0.0945304
0.0945663
0.0945992
0.0946318
0.0946662
0.094704
0.0947464
0.094794
0.0948465
0.0949023
0.0949565
0.0950017
0.0950308
0.0950417
0.0941139
0.0941263
0.0941628
0.0942039
0.0942446
0.0942834
0.0943205
0.094357
0.094394
0.0944326
0.0944729
0.0945144
0.0945565
0.0945984
0.0946397
0.0946804
0.0947178
0.0947483
0.0947725
0.0947929
0.0948113
0.0948294
0.0948482
0.0948687
0.0948916
0.0949173
0.094946
0.0949773
0.0950093
0.0950379
0.0950581
0.0950667
0.0947536
0.0947634
0.0947823
0.0948003
0.0948168
0.0948318
0.0948455
0.0948583
0.094871
0.0948839
0.0948971
0.0949107
0.0949244
0.094938
0.0949514
0.0949645
0.0949766
0.0949864
0.0949941
0.0950006
0.0950065
0.0950121
0.095018
0.0950244
0.0950315
0.0950394
0.0950483
0.095058
0.0950682
0.0950777
0.0950851
0.0950886
)
;

boundaryField
{
    movingWall
    {
        type            fixedValue;
        value           uniform 0.0951;
    }
    fixedWalls
    {
        type            zeroGradient;
    }
    floor
    {
        type            zeroGradient;
    }
    frontAndBack
    {
        type            empty;
    }
}


// ************************************************************************* //
