/*--------------------------------*- C++ -*----------------------------------*\
| =========                 |                                                 |
| \\      /  F ield         | OpenFOAM: The Open Source CFD Toolbox           |
|  \\    /   O peration     | Version:  2212                                  |
|   \\  /    A nd           | Website:  www.openfoam.com                      |
|    \\/     M anipulation  |                                                 |
\*---------------------------------------------------------------------------*/
FoamFile
{
    version     2.0;
    format      ascii;
    arch        "LSB;label=64;scalar=64";
    class       volScalarField::Internal;
    location    "1130";
    object      dGch4;
}
// * * * * * * * * * * * * * * * * * * * * * * * * * * * * * * * * * * * * * //

dimensions      [1 -3 -1 0 0 0 0];

value           nonuniform List<scalar> 
1024
(
0.000898806
0.000898953
0.00089931
0.000899958
0.000900986
0.000902476
0.000904478
0.000906982
0.00090991
0.000913119
0.000916429
0.000919607
0.00092232
0.000924064
0.000924373
0.00092306
0.000920189
0.000916406
0.000912306
0.000908088
0.000903872
0.00089976
0.000895874
0.000892348
0.000889302
0.000886813
0.000884894
0.000883504
0.000882562
0.000881976
0.000881655
0.000881524
0.000898828
0.000898976
0.00089934
0.000900001
0.000901051
0.00090257
0.000904606
0.000907145
0.000910106
0.000913345
0.000916686
0.000919899
0.000922648
0.000924408
0.000924708
0.000923375
0.000920483
0.000916681
0.000912564
0.000908331
0.0009041
0.000899973
0.000896066
0.000892516
0.00088944
0.000886921
0.000884974
0.000883562
0.000882605
0.000882008
0.000881682
0.000881549
0.000898874
0.000899028
0.000899405
0.000900093
0.000901183
0.000902758
0.000904858
0.000907466
0.000910496
0.00091381
0.000917241
0.000920567
0.000923433
0.000925253
0.000925527
0.00092413
0.000921166
0.000917301
0.000913132
0.000908856
0.00090459
0.000900426
0.000896477
0.000892873
0.000889737
0.000887154
0.00088515
0.000883691
0.0008827
0.000882083
0.000881745
0.000881608
0.000898949
0.00089911
0.000899506
0.000900228
0.000901373
0.00090302
0.00090521
0.000907918
0.000911061
0.000914516
0.000918137
0.00092171
0.000924836
0.000926794
0.000927024
0.000925485
0.000922358
0.000918349
0.000914064
0.000909697
0.000905358
0.00090113
0.000897112
0.000893428
0.000890199
0.000887521
0.00088543
0.0008839
0.000882859
0.000882209
0.000881854
0.00088171
0.000899051
0.000899219
0.000899634
0.000900392
0.000901594
0.000903322
0.000905614
0.000908451
0.000911763
0.000915455
0.000919416
0.000923438
0.000927035
0.000929257
0.000929428
0.000927636
0.000924203
0.00091992
0.000915413
0.000910873
0.000906403
0.000902071
0.000897953
0.000894161
0.000890813
0.000888012
0.000885809
0.000884188
0.000883081
0.000882391
0.000882014
0.000881861
0.000899171
0.000899344
0.000899773
0.00090056
0.000901809
0.000903609
0.000906008
0.000909001
0.00091255
0.000916608
0.000921112
0.000925851
0.000930198
0.000932864
0.000932986
0.000930809
0.000926874
0.000922124
0.000917232
0.000912393
0.000907702
0.000903202
0.000898945
0.000895018
0.00089153
0.000888591
0.000886262
0.000884539
0.000883359
0.000882622
0.00088222
0.000882059
0.000899299
0.000899473
0.000899905
0.000900702
0.000901975
0.000903826
0.000906324
0.000909497
0.000913361
0.000917941
0.000923238
0.000929025
0.000934455
0.000937797
0.000937927
0.000935233
0.00093056
0.000925086
0.000919577
0.000914253
0.000909202
0.000904444
0.000899993
0.000895903
0.000892267
0.000889188
0.000886736
0.000884915
0.000883664
0.000882882
0.000882458
0.000882287
0.000899437
0.000899604
0.000900023
0.000900803
0.000902066
0.000903933
0.000906508
0.000909879
0.000914141
0.000919419
0.000925797
0.000933012
0.000939898
0.000944186
0.000944428
0.000941112
0.000935448
0.000928935
0.000922504
0.000916434
0.00091083
0.000905683
0.000900964
0.000896682
0.000892898
0.000889699
0.000887149
0.000885253
0.00088395
0.000883136
0.000882695
0.000882518
0.000899633
0.000899783
0.000900166
0.000900895
0.000902105
0.000903943
0.000906566
0.000910144
0.000914887
0.000921057
0.000928841
0.000937904
0.000946634
0.000952145
0.00095262
0.000948618
0.000941724
0.000933813
0.00092607
0.000918912
0.00091249
0.000906777
0.000901694
0.000897189
0.000893271
0.000889992
0.000887396
0.000885472
0.000884154
0.000883332
0.000882886
0.000882707
0.00090007
0.000900186
0.000900504
0.000901142
0.00090225
0.000904013
0.000906654
0.000910455
0.000915779
0.000923069
0.000932627
0.000943978
0.000954923
0.000961867
0.000962662
0.000957955
0.00094964
0.000939941
0.000930411
0.00092171
0.000914113
0.000907595
0.000902019
0.000897254
0.000893231
0.000889937
0.00088737
0.000885489
0.00088421
0.000883415
0.000882984
0.000882811
0.000901265
0.000901325
0.000901536
0.000902033
0.000902993
0.00090465
0.000907312
0.000911396
0.000917459
0.000926166
0.000937917
0.000951955
0.000965343
0.000973775
0.000974919
0.00096957
0.000959748
0.000947877
0.000935982
0.000925125
0.000915838
0.000908153
0.00090188
0.000896786
0.000892683
0.000889452
0.000887009
0.000885262
0.000884095
0.000883382
0.000883002
0.000882852
0.000904424
0.000904407
0.000904474
0.000904786
0.000905569
0.000907136
0.000909902
0.000914443
0.00092152
0.000932
0.000946281
0.000963179
0.000978941
0.000988706
0.000990271
0.000984598
0.000973482
0.000959214
0.000944345
0.000930496
0.000918688
0.000909168
0.00090175
0.000896091
0.000891839
0.000888709
0.000886485
0.000884988
0.000884057
0.000883542
0.000883304
0.000883227
0.000911765
0.00091168
0.00091162
0.000911774
0.000912437
0.000914022
0.000917095
0.000922402
0.000930869
0.000943425
0.00096029
0.000979751
0.000997355
0.00100821
0.00101063
0.00100568
0.000994375
0.000978293
0.00096026
0.000942539
0.000926911
0.000914186
0.00090444
0.000897345
0.000892429
0.000889197
0.000887228
0.000886189
0.000885798
0.000885798
0.000885959
0.000886098
0.000926007
0.000925921
0.000925867
0.000926063
0.000926862
0.000928782
0.000932537
0.000939033
0.00094927
0.000964029
0.000983127
0.00100432
0.00102297
0.00103504
0.0010398
0.00103819
0.00102987
0.00101502
0.000996013
0.000975289
0.000955127
0.000937258
0.000922717
0.000911735
0.000904262
0.000899813
0.000897722
0.000897314
0.000897933
0.000898974
0.000899945
0.000900511
0.000948057
0.000948069
0.000948246
0.000948849
0.000950294
0.000953196
0.000958395
0.000966906
0.000979682
0.000997081
0.00101812
0.00104006
0.00105928
0.00107382
0.00108402
0.00109043
0.00109139
0.00108526
0.00107285
0.00105589
0.00103635
0.00101619
0.000997105
0.000980361
0.000967073
0.000957684
0.000952033
0.000949594
0.00094944
0.000950469
0.000951703
0.000952485
0.000974344
0.000974528
0.000975139
0.000976555
0.000979318
0.000984154
0.000991933
0.0010035
0.00101932
0.00103899
0.00106112
0.00108376
0.00110534
0.00112541
0.00114447
0.00116282
0.0011786
0.00118897
0.00119327
0.001192
0.00118576
0.00117537
0.00116188
0.00114653
0.00113066
0.00111557
0.00110246
0.00109233
0.00108556
0.00108182
0.00108025
0.00107988
0.000995941
0.000996226
0.00099711
0.00099905
0.00100266
0.00100868
0.0010179
0.00103097
0.00104812
0.00106894
0.00109235
0.00111697
0.00114169
0.00116613
0.00119036
0.00121451
0.00123726
0.00125695
0.00127381
0.00128795
0.00129885
0.00130586
0.00130849
0.00130657
0.00130042
0.00129092
0.00127953
0.00126794
0.00125783
0.00125038
0.00124595
0.00124413
0.00100964
0.00100996
0.00101093
0.00101299
0.00101676
0.00102297
0.00103235
0.0010455
0.00106261
0.00108329
0.00110656
0.00113108
0.00115558
0.0011791
0.00120089
0.00122042
0.0012368
0.00125122
0.00126632
0.00128284
0.00130001
0.00131655
0.00133113
0.0013426
0.00135022
0.00135375
0.00135352
0.00135046
0.00134594
0.00134148
0.00133821
0.00133663
0.00101772
0.00101806
0.001019
0.00102098
0.00102455
0.00103037
0.00103915
0.00105145
0.00106749
0.00108694
0.00110889
0.00113196
0.00115467
0.00117563
0.0011936
0.00120758
0.00121708
0.00122515
0.00123614
0.00125146
0.00127039
0.00129129
0.00131216
0.00133107
0.0013466
0.00135802
0.00136528
0.0013689
0.0013698
0.00136914
0.00136807
0.00136736
0.00102245
0.00102277
0.00102366
0.00102546
0.00102866
0.00103385
0.00104169
0.00105269
0.00106711
0.00108469
0.00110463
0.00112562
0.00114614
0.00116469
0.00117988
0.00119066
0.00119685
0.00120211
0.00121091
0.0012251
0.00124455
0.00126802
0.00129342
0.00131813
0.00133984
0.00135699
0.00136907
0.00137645
0.00138009
0.00138126
0.00138119
0.00138087
0.00102542
0.0010257
0.00102645
0.001028
0.00103075
0.00103523
0.001042
0.00105156
0.00106413
0.00107956
0.00109716
0.00111582
0.00113417
0.00115082
0.00116455
0.0011745
0.00118073
0.0011865
0.00119538
0.00120913
0.00122815
0.00125191
0.00127894
0.00130681
0.00133285
0.00135475
0.00137121
0.00138207
0.00138809
0.00139063
0.00139119
0.00139104
0.00102824
0.0010284
0.00102891
0.00103005
0.00103221
0.00103587
0.00104152
0.00104961
0.00106034
0.00107361
0.00108889
0.00110533
0.00112183
0.0011373
0.00115079
0.00116178
0.00117039
0.00117877
0.00118929
0.00120348
0.00122201
0.00124496
0.00127154
0.00130003
0.00132802
0.00135292
0.00137275
0.00138666
0.00139499
0.00139892
0.00140009
0.00140009
0.0010328
0.00103274
0.00103279
0.00103327
0.00103459
0.00103724
0.00104171
0.00104838
0.00105746
0.00106889
0.00108232
0.00109711
0.00111251
0.00112772
0.00114211
0.00115546
0.00116763
0.00117939
0.00119204
0.00120692
0.00122494
0.00124655
0.00127154
0.00129883
0.0013266
0.00135256
0.00137444
0.00139071
0.00140107
0.00140637
0.0014082
0.00140837
0.00104121
0.00104079
0.00104015
0.00103967
0.00103988
0.00104134
0.00104463
0.00105013
0.00105805
0.00106836
0.00108081
0.00109496
0.00111026
0.00112616
0.00114223
0.00115841
0.00117416
0.0011889
0.00120324
0.00121845
0.00123556
0.00125533
0.00127797
0.00130294
0.001329
0.00135431
0.00137678
0.0013945
0.0014065
0.00141308
0.0014156
0.00141595
0.00105543
0.00105452
0.001053
0.0010514
0.00105044
0.00105086
0.0010533
0.00105822
0.00106581
0.001076
0.00108854
0.00110305
0.00111905
0.00113611
0.00115389
0.00117241
0.00119069
0.00120722
0.00122223
0.00123704
0.00125272
0.00127016
0.00128987
0.00131175
0.00133507
0.00135849
0.00138024
0.00139837
0.00141143
0.0014191
0.0014223
0.00142288
0.00107693
0.00107544
0.00107304
0.00107057
0.00106894
0.00106902
0.00107148
0.00107678
0.001085
0.00109594
0.00110925
0.00112452
0.00114129
0.00115916
0.00117785
0.00119737
0.00121649
0.00123328
0.00124782
0.00126144
0.00127519
0.00128998
0.00130642
0.00132473
0.0013446
0.00136519
0.00138513
0.00140265
0.00141607
0.00142451
0.00142834
0.00142916
0.0011066
0.00110454
0.00110164
0.00109914
0.00109804
0.00109905
0.00110269
0.00110926
0.00111865
0.00113052
0.00114446
0.00116003
0.00117679
0.00119439
0.0012126
0.00123143
0.00124963
0.00126523
0.00127831
0.00129011
0.0013016
0.0013136
0.00132672
0.0013413
0.00135735
0.00137446
0.00139172
0.00140769
0.00142067
0.00142942
0.00143375
0.00143483
0.00114495
0.00114253
0.00114004
0.00113897
0.00113992
0.0011431
0.00114869
0.00115673
0.00116697
0.00117907
0.00119267
0.00120738
0.00122285
0.00123881
0.00125506
0.00127167
0.00128749
0.00130082
0.00131176
0.00132137
0.00133046
0.00133972
0.00134967
0.00136067
0.00137289
0.00138622
0.00140018
0.00141377
0.00142551
0.00143398
0.00143856
0.00143987
0.0011926
0.00119038
0.00118974
0.00119157
0.00119552
0.00120115
0.00120835
0.00121701
0.00122694
0.00123799
0.00124991
0.00126244
0.00127535
0.00128845
0.00130162
0.0013149
0.00132743
0.00133786
0.00134629
0.00135356
0.00136029
0.00136699
0.00137408
0.00138187
0.00139053
0.00140013
0.00141051
0.00142111
0.00143085
0.00143841
0.00144286
0.00144432
0.00125078
0.00124989
0.00125245
0.0012574
0.00126355
0.00127031
0.00127757
0.00128529
0.0012935
0.00130216
0.00131122
0.00132054
0.00132999
0.00133946
0.00134889
0.00135832
0.00136713
0.00137442
0.00138026
0.00138523
0.00138975
0.00139418
0.0013988
0.00140381
0.00140939
0.00141562
0.0014225
0.00142982
0.00143696
0.00144292
0.00144676
0.0014482
0.0013219
0.00132357
0.00132853
0.00133415
0.00133978
0.00134526
0.00135058
0.00135583
0.00136111
0.0013665
0.001372
0.00137759
0.00138319
0.00138877
0.00139429
0.00139977
0.00140487
0.00140907
0.00141242
0.00141524
0.00141778
0.00142024
0.00142277
0.00142549
0.00142851
0.00143188
0.00143565
0.00143976
0.00144397
0.00144774
0.00145041
0.00145156
0.0014089
0.00141023
0.00141279
0.00141525
0.00141752
0.00141962
0.00142157
0.00142341
0.00142521
0.00142701
0.00142883
0.00143066
0.00143249
0.0014343
0.00143608
0.00143785
0.00143949
0.00144084
0.00144192
0.00144282
0.00144362
0.0014444
0.00144519
0.00144603
0.00144697
0.00144801
0.00144917
0.00145045
0.00145179
0.00145305
0.00145402
0.00145449
)
;


// ************************************************************************* //
