/*--------------------------------*- C++ -*----------------------------------*\
| =========                 |                                                 |
| \\      /  F ield         | OpenFOAM: The Open Source CFD Toolbox           |
|  \\    /   O peration     | Version:  2212                                  |
|   \\  /    A nd           | Website:  www.openfoam.com                      |
|    \\/     M anipulation  |                                                 |
\*---------------------------------------------------------------------------*/
FoamFile
{
    version     2.0;
    format      ascii;
    arch        "LSB;label=64;scalar=64";
    class       surfaceScalarField;
    location    "1130";
    object      phi;
}
// * * * * * * * * * * * * * * * * * * * * * * * * * * * * * * * * * * * * * //

dimensions      [0 3 -1 0 0 0 0];

oriented        oriented;

internalField   nonuniform List<scalar> 
1984
(
-9.51038e-11
9.48509e-11
-7.93049e-09
7.83542e-09
-2.61127e-08
1.81823e-08
-5.22417e-08
2.6129e-08
-8.29945e-08
3.07527e-08
-1.16227e-07
3.32321e-08
-1.50709e-07
3.44819e-08
-1.84482e-07
3.37737e-08
-2.12929e-07
2.84464e-08
-2.26922e-07
1.39938e-08
-2.1039e-07
-1.65328e-08
-1.45871e-07
-6.4519e-08
-3.62192e-08
-1.09651e-07
7.67109e-08
-1.1293e-07
1.56229e-07
-7.95185e-08
1.98238e-07
-4.20085e-08
2.11248e-07
-1.30095e-08
2.05707e-07
5.54091e-09
1.89313e-07
1.63941e-08
1.68072e-07
2.12409e-08
1.45584e-07
2.24875e-08
1.23716e-07
2.18684e-08
1.03462e-07
2.02542e-08
8.51186e-08
1.83431e-08
6.83416e-08
1.67771e-08
5.23581e-08
1.59833e-08
3.67077e-08
1.56505e-08
2.19457e-08
1.4762e-08
9.74734e-09
1.21985e-08
2.01997e-09
7.72735e-09
-6.10754e-10
2.63065e-09
-6.10746e-10
-8.83231e-09
8.92718e-09
-4.18456e-08
4.08488e-08
-1.01709e-07
7.80455e-08
-1.83618e-07
1.08038e-07
-2.7942e-07
1.26555e-07
-3.81797e-07
1.35609e-07
-4.84464e-07
1.37149e-07
-5.78944e-07
1.28253e-07
-6.50337e-07
9.98402e-08
-6.73668e-07
3.73251e-08
-6.09689e-07
-8.05121e-08
-4.19367e-07
-2.54841e-07
-1.02531e-07
-4.26487e-07
2.31771e-07
-4.47233e-07
4.73514e-07
-3.21261e-07
6.13822e-07
-1.82316e-07
6.66304e-07
-6.54916e-08
6.59855e-07
1.19904e-08
6.18134e-07
5.81152e-08
5.58155e-07
8.12203e-08
4.91036e-07
8.96066e-08
4.23091e-07
8.98129e-08
3.57857e-07
8.54878e-08
2.96764e-07
7.94363e-08
2.39447e-07
7.40943e-08
1.84604e-07
7.0826e-08
1.3184e-07
6.84149e-08
8.32585e-08
6.33434e-08
4.325e-08
5.2207e-08
1.60742e-08
3.4903e-08
2.82585e-09
1.5879e-08
2.21504e-09
-2.38339e-08
3.27612e-08
-9.33713e-08
1.10386e-07
-2.06381e-07
1.91056e-07
-3.53772e-07
2.55428e-07
-5.22404e-07
2.95187e-07
-6.98767e-07
3.11973e-07
-8.69222e-07
3.07604e-07
-1.01649e-06
2.7552e-07
-1.11476e-06
1.98109e-07
-1.1252e-06
4.77683e-08
-9.93461e-07
-2.12251e-07
-6.71516e-07
-5.76786e-07
-1.53525e-07
-9.44477e-07
3.99067e-07
-9.99825e-07
8.11992e-07
-7.34186e-07
1.0732e-06
-4.43528e-07
1.18759e-06
-1.79881e-07
1.1962e-06
3.38021e-09
1.13935e-06
1.14971e-07
1.04534e-06
1.75232e-07
9.33257e-07
2.01685e-07
8.14745e-07
2.08325e-07
6.96691e-07
2.03541e-07
5.8253e-07
1.93597e-07
4.72941e-07
1.83684e-07
3.67329e-07
1.76438e-07
2.66333e-07
1.69411e-07
1.7387e-07
1.55806e-07
9.66803e-08
1.29397e-07
4.11242e-08
9.04591e-08
9.66301e-09
4.73402e-08
1.1878e-08
-4.1272e-08
7.40333e-08
-1.53582e-07
2.22696e-07
-3.26824e-07
3.64298e-07
-5.44676e-07
4.73279e-07
-7.87383e-07
5.37895e-07
-1.03422e-06
5.5881e-07
-1.26313e-06
5.36517e-07
-1.44751e-06
4.59896e-07
-1.55164e-06
3.02242e-07
-1.52568e-06
2.18096e-08
-1.30967e-06
-4.28267e-07
-8.58774e-07
-1.02768e-06
-1.68682e-07
-1.63457e-06
5.67128e-07
-1.73563e-06
1.14169e-06
-1.30875e-06
1.53866e-06
-8.40494e-07
1.74004e-06
-3.81264e-07
1.78609e-06
-4.26675e-08
1.73109e-06
1.69966e-07
1.61505e-06
2.91271e-07
1.46449e-06
3.52251e-07
1.29652e-06
3.76291e-07
1.12194e-06
3.78122e-07
9.47073e-07
3.68466e-07
7.74918e-07
3.55839e-07
6.06965e-07
3.44391e-07
4.45859e-07
3.30518e-07
2.97603e-07
3.04062e-07
1.71406e-07
2.55593e-07
7.67018e-08
1.85164e-07
1.93726e-08
1.04669e-07
3.12506e-08
-5.66334e-08
1.30667e-07
-2.07692e-07
3.73754e-07
-4.3635e-07
5.92957e-07
-7.18674e-07
7.55603e-07
-1.02709e-06
8.46306e-07
-1.33261e-06
8.64334e-07
-1.60445e-06
8.08356e-07
-1.80728e-06
6.62724e-07
-1.89736e-06
3.92326e-07
-1.81788e-06
-5.76696e-08
-1.51145e-06
-7.34695e-07
-9.45233e-07
-1.5939e-06
-1.32858e-07
-2.44694e-06
7.24121e-07
-2.59261e-06
1.43094e-06
-2.01557e-06
1.9635e-06
-1.37305e-06
2.27105e-06
-6.88819e-07
2.37903e-06
-1.50644e-07
2.3488e-06
2.00191e-07
2.22936e-06
4.10719e-07
2.054e-06
5.27608e-07
1.84482e-06
5.85472e-07
1.61647e-06
6.06471e-07
1.37871e-06
6.06229e-07
1.1379e-06
5.9665e-07
8.98832e-07
5.83456e-07
6.67214e-07
5.62136e-07
4.51881e-07
5.19395e-07
2.65346e-07
4.42128e-07
1.21557e-07
3.28952e-07
3.1574e-08
1.94652e-07
6.28246e-08
-6.39661e-08
1.94633e-07
-2.36291e-07
5.4608e-07
-4.99481e-07
8.56147e-07
-8.25912e-07
1.08203e-06
-1.18117e-06
1.20156e-06
-1.52754e-06
1.2107e-06
-1.82521e-06
1.10603e-06
-2.03076e-06
8.68276e-07
-2.09413e-06
4.55699e-07
-1.95793e-06
-1.93866e-07
-1.57057e-06
-1.12206e-06
-9.13145e-07
-2.25133e-06
-4.11064e-08
-3.31898e-06
8.63789e-07
-3.49751e-06
1.65729e-06
-2.80907e-06
2.30397e-06
-2.01973e-06
2.72145e-06
-1.1063e-06
2.90999e-06
-3.39187e-07
2.92773e-06
1.82453e-07
2.82633e-06
5.12118e-07
2.64486e-06
7.09084e-07
2.4091e-06
8.21225e-07
2.13685e-06
8.78726e-07
1.84119e-06
9.01881e-07
1.5323e-06
9.05541e-07
1.21913e-06
8.96629e-07
9.11525e-07
8.69742e-07
6.22447e-07
8.08473e-07
3.69074e-07
6.95501e-07
1.70965e-07
5.27061e-07
4.49897e-08
3.20628e-07
1.07814e-07
-5.82473e-08
2.5288e-07
-2.22262e-07
7.10094e-07
-4.8345e-07
1.11734e-06
-8.18832e-07
1.41742e-06
-1.19179e-06
1.57452e-06
-1.5571e-06
1.57601e-06
-1.86585e-06
1.41477e-06
-2.06668e-06
1.06911e-06
-2.10449e-06
4.93504e-07
-1.9233e-06
-3.75061e-07
-1.47644e-06
-1.56891e-06
-7.60167e-07
-2.9676e-06
1.07945e-07
-4.18709e-06
9.84288e-07
-4.37385e-06
1.80841e-06
-3.6332e-06
2.52624e-06
-2.73756e-06
3.037e-06
-1.61706e-06
3.31102e-06
-6.13205e-07
3.39227e-06
1.01201e-07
3.32697e-06
5.77413e-07
3.15847e-06
8.77589e-07
2.91412e-06
1.06557e-06
2.61328e-06
1.17957e-06
2.27158e-06
1.24358e-06
1.90278e-06
1.27434e-06
1.52044e-06
1.27897e-06
1.13967e-06
1.25051e-06
7.79234e-07
1.16891e-06
4.62417e-07
1.01232e-06
2.14453e-07
7.75025e-07
5.65672e-08
4.78513e-07
1.64382e-07
-3.84305e-08
2.91311e-07
-1.59144e-07
8.30807e-07
-3.70849e-07
1.32904e-06
-6.66157e-07
1.71272e-06
-1.01586e-06
1.92422e-06
-1.37233e-06
1.93249e-06
-1.67888e-06
1.72132e-06
-1.87579e-06
1.26602e-06
-1.9013e-06
5.19015e-07
-1.69734e-06
-5.79022e-07
-1.22194e-06
-2.04431e-06
-4.97678e-07
-3.69187e-06
3.00112e-07
-4.98488e-06
1.08519e-06
-5.15893e-06
1.86799e-06
-4.416e-06
2.59613e-06
-3.46569e-06
3.16631e-06
-2.18725e-06
3.51525e-06
-9.62146e-07
3.66266e-06
-4.62094e-08
3.64363e-06
5.96447e-07
3.50342e-06
1.01779e-06
3.26819e-06
1.30081e-06
2.95673e-06
1.49103e-06
2.5858e-06
1.61452e-06
2.17219e-06
1.68795e-06
1.73431e-06
1.71685e-06
1.29392e-06
1.6909e-06
8.77475e-07
1.58535e-06
5.15219e-07
1.37457e-06
2.3625e-07
1.05399e-06
6.16362e-08
6.53127e-07
2.26018e-07
-9.14612e-09
3.00457e-07
-5.71894e-08
8.78851e-07
-1.70475e-07
1.44233e-06
-3.65556e-07
1.9078e-06
-6.34925e-07
2.19359e-06
-9.40246e-07
2.23781e-06
-1.22316e-06
2.00423e-06
-1.41646e-06
1.45933e-06
-1.44759e-06
5.50142e-07
-1.24712e-06
-7.79487e-07
-7.87678e-07
-2.50375e-06
-1.35094e-07
-4.34445e-06
5.13548e-07
-5.63353e-06
1.13944e-06
-5.78482e-06
1.78947e-06
-5.06603e-06
2.45041e-06
-4.12663e-06
3.03514e-06
-2.77197e-06
3.43989e-06
-1.36689e-06
3.64655e-06
-2.52875e-07
3.67957e-06
5.63431e-07
3.57923e-06
1.11813e-06
3.36933e-06
1.51071e-06
3.06626e-06
1.7941e-06
2.68644e-06
1.99433e-06
2.24916e-06
2.12523e-06
1.77854e-06
2.18748e-06
1.30497e-06
2.16447e-06
8.64446e-07
2.02587e-06
4.9326e-07
1.74576e-06
2.19284e-07
1.32797e-06
5.53748e-08
8.17036e-07
2.81392e-07
2.10936e-08
2.79363e-07
5.66426e-08
8.43302e-07
7.24413e-08
1.42653e-06
3.26385e-08
1.94761e-06
-8.38162e-08
2.31004e-06
-2.66903e-07
2.42089e-06
-4.75976e-07
2.2133e-06
-6.45309e-07
1.62866e-06
-6.90014e-07
5.94847e-07
-5.19443e-07
-9.50058e-07
-1.3996e-07
-2.88324e-06
3.05856e-07
-4.79027e-06
7.04262e-07
-6.03193e-06
1.06918e-06
-6.14974e-06
1.46809e-06
-5.46494e-06
1.96203e-06
-4.62057e-06
2.50448e-06
-3.31443e-06
2.95345e-06
-1.81586e-06
3.22515e-06
-5.24576e-07
3.31532e-06
4.73262e-07
3.26633e-06
1.16712e-06
3.09905e-06
1.67799e-06
2.82597e-06
2.06718e-06
2.46215e-06
2.35816e-06
2.02996e-06
2.55741e-06
1.56163e-06
2.65581e-06
1.09922e-06
2.62688e-06
6.88831e-07
2.43626e-06
3.67374e-07
2.06722e-06
1.51318e-07
1.54403e-06
3.4992e-08
9.33362e-07
3.16384e-07
4.43824e-08
2.34981e-07
1.5331e-07
7.34374e-07
2.96038e-07
1.2838e-06
4.31186e-07
1.81246e-06
5.18641e-07
2.22259e-06
5.33452e-07
2.40608e-06
4.84174e-07
2.26258e-06
4.13634e-07
1.6992e-06
3.86008e-07
6.22473e-07
4.70577e-07
-1.03463e-06
6.3005e-07
-3.04271e-06
7.60249e-07
-4.92047e-06
7.81989e-07
-6.05367e-06
7.18872e-07
-6.08663e-06
7.14511e-07
-5.46057e-06
9.12801e-07
-4.81886e-06
1.32604e-06
-3.72767e-06
1.80074e-06
-2.29056e-06
2.17799e-06
-9.01827e-07
2.35948e-06
2.91775e-07
2.3881e-06
1.1385e-06
2.29223e-06
1.77386e-06
2.08166e-06
2.27774e-06
1.77124e-06
2.66858e-06
1.39041e-06
2.93825e-06
9.84058e-07
3.06215e-06
6.0924e-07
3.0017e-06
3.17039e-07
2.72846e-06
1.28908e-07
2.25535e-06
3.41688e-08
1.63877e-06
2.37414e-09
9.65156e-07
3.18759e-07
5.5288e-08
1.79693e-07
2.09452e-07
5.8021e-07
4.44807e-07
1.04844e-06
7.24498e-07
1.53277e-06
1.00137e-06
1.94572e-06
1.23264e-06
2.17481e-06
1.39605e-06
2.09917e-06
1.49583e-06
1.59942e-06
1.54592e-06
5.72379e-07
1.53116e-06
-1.01986e-06
1.39759e-06
-2.90914e-06
1.07271e-06
-4.59559e-06
5.04042e-07
-5.485e-06
-2.11151e-07
-5.37143e-06
-7.67048e-07
-4.90468e-06
-1.00977e-06
-4.57614e-06
-8.69795e-07
-3.86765e-06
-4.6679e-07
-2.69357e-06
7.79675e-08
-1.44658e-06
4.74531e-07
-1.04788e-07
6.48738e-07
9.64293e-07
6.87405e-07
1.73519e-06
6.06138e-07
2.35901e-06
4.27263e-07
2.84745e-06
1.99046e-07
3.16647e-06
-1.66966e-08
3.2779e-06
-1.67257e-07
3.15226e-06
-2.20275e-07
2.78148e-06
-1.88116e-07
2.22319e-06
-1.10798e-07
1.56145e-06
-3.53364e-08
8.89694e-07
2.83422e-07
5.18685e-08
1.27824e-07
2.09639e-07
4.22439e-07
4.74381e-07
7.83703e-07
8.2602e-07
1.18113e-06
1.22424e-06
1.5475e-06
1.61983e-06
1.77921e-06
1.96923e-06
1.74978e-06
2.23885e-06
1.32979e-06
2.38198e-06
4.2925e-07
2.2704e-06
-9.08274e-07
1.75723e-06
-2.39597e-06
7.74641e-07
-3.613e-06
-6.65169e-07
-4.04519e-06
-2.1691e-06
-3.8675e-06
-3.39427e-06
-3.6795e-06
-4.21554e-06
-3.75487e-06
-4.48862e-06
-3.59457e-06
-4.26684e-06
-2.91535e-06
-3.72787e-06
-1.98556e-06
-3.02596e-06
-8.06699e-07
-2.45184e-06
3.90177e-07
-2.08352e-06
1.36688e-06
-1.8309e-06
2.10639e-06
-1.66261e-06
2.67916e-06
-1.51966e-06
3.02352e-06
-1.34484e-06
3.10308e-06
-1.10737e-06
2.91479e-06
-8.19991e-07
2.4941e-06
-5.18004e-07
1.9212e-06
-2.51911e-07
1.29536e-06
-6.91041e-08
7.06887e-07
2.14318e-07
3.6294e-08
9.15302e-08
1.59973e-07
2.98759e-07
3.87134e-07
5.56542e-07
7.16462e-07
8.518e-07
1.12439e-06
1.13958e-06
1.56765e-06
1.33595e-06
1.98993e-06
1.3275e-06
2.31512e-06
1.00461e-06
2.41073e-06
3.33644e-07
1.99625e-06
-4.93797e-07
8.08433e-07
-1.20815e-06
-1.17148e-06
-1.63309e-06
-3.54593e-06
-1.67074e-06
-5.78512e-06
-1.62831e-06
-7.69709e-06
-1.76753e-06
-9.18168e-06
-2.27028e-06
-9.97544e-06
-2.80081e-06
-1.00248e-05
-2.86594e-06
-9.47139e-06
-2.53902e-06
-8.44988e-06
-1.8282e-06
-7.22102e-06
-8.38691e-07
-6.08203e-06
2.27891e-07
-5.07642e-06
1.10077e-06
-4.1981e-06
1.80085e-06
-3.39499e-06
2.2204e-06
-2.63016e-06
2.33825e-06
-1.91557e-06
2.2002e-06
-1.27395e-06
1.85247e-06
-7.35018e-07
1.38227e-06
-3.31184e-07
8.91523e-07
-8.47712e-08
4.60475e-07
1.29547e-07
1.30587e-08
7.84714e-08
5.56536e-08
2.56164e-07
1.38318e-07
4.73878e-07
2.67845e-07
7.22273e-07
4.3237e-07
9.75054e-07
5.86062e-07
1.18225e-06
6.31401e-07
1.28216e-06
3.97993e-07
1.23802e-06
-3.56696e-07
1.08833e-06
-1.82561e-06
9.75116e-07
-4.0054e-06
9.71641e-07
-6.64755e-06
1.00906e-06
-9.30424e-06
9.85952e-07
-1.17521e-05
8.19541e-07
-1.39265e-05
4.06846e-07
-1.5767e-05
-4.29794e-07
-1.69238e-05
-1.64396e-06
-1.72214e-05
-2.56837e-06
-1.67465e-05
-3.01387e-06
-1.55684e-05
-3.0063e-06
-1.37639e-05
-2.64318e-06
-1.15102e-05
-2.02586e-06
-9.15708e-06
-1.25233e-06
-6.89836e-06
-4.57873e-07
-4.89148e-06
2.13525e-07
-3.23009e-06
6.76857e-07
-1.9659e-06
9.36011e-07
-1.08383e-06
9.70398e-07
-5.19619e-07
8.18065e-07
-1.93121e-07
5.65024e-07
-3.90961e-08
3.0645e-07
9.04508e-08
-6.11011e-08
1.39572e-07
-2.38597e-07
4.3366e-07
-5.33415e-07
7.68696e-07
-9.41511e-07
1.13037e-06
-1.46551e-06
1.49906e-06
-2.13665e-06
1.85339e-06
-3.03144e-06
2.17695e-06
-4.26079e-06
2.46737e-06
-5.90879e-06
2.73633e-06
-7.9238e-06
2.99013e-06
-1.01646e-05
3.21239e-06
-1.25216e-05
3.36609e-06
-1.49264e-05
3.3908e-06
-1.73018e-05
3.19495e-06
-1.9533e-05
2.638e-06
-2.14678e-05
1.50499e-06
-2.26667e-05
-4.4506e-07
-2.30664e-05
-2.1686e-06
-2.2732e-05
-3.34831e-06
-2.16732e-05
-4.06511e-06
-1.99114e-05
-4.40499e-06
-1.75049e-05
-4.4323e-06
-1.45713e-05
-4.18598e-06
-1.13321e-05
-3.69711e-06
-8.12234e-06
-2.99619e-06
-5.28552e-06
-2.15997e-06
-3.03046e-06
-1.31905e-06
-1.46398e-06
-5.96076e-07
-5.49557e-07
-9.63633e-08
-1.32989e-07
1.48457e-07
-6.36767e-09
1.79829e-07
8.4083e-08
-7.40216e-08
2.13594e-07
-3.00891e-07
6.60529e-07
-6.91589e-07
1.15939e-06
-1.24431e-06
1.68309e-06
-1.94951e-06
2.20426e-06
-2.8013e-06
2.70518e-06
-3.80644e-06
3.18209e-06
-4.98068e-06
3.64161e-06
-6.33467e-06
4.09032e-06
-7.86579e-06
4.52124e-06
-9.55942e-06
4.90602e-06
-1.13907e-05
5.1974e-06
-1.3328e-05
5.32803e-06
-1.53286e-05
5.1956e-06
-1.73295e-05
4.63885e-06
-1.92217e-05
3.39725e-06
-2.05662e-05
8.99394e-07
-2.11647e-05
-1.57008e-06
-2.12099e-05
-3.30306e-06
-2.07397e-05
-4.53532e-06
-1.9735e-05
-5.40975e-06
-1.81801e-05
-5.98723e-06
-1.61041e-05
-6.26197e-06
-1.35981e-05
-6.20304e-06
-1.08066e-05
-5.78772e-06
-7.93517e-06
-5.03141e-06
-5.25381e-06
-4.00041e-06
-3.02837e-06
-2.82151e-06
-1.4438e-06
-1.68093e-06
-5.15594e-07
-7.79749e-07
-9.82989e-08
-2.37466e-07
-1.42159e-08
-3.83748e-08
2.51969e-07
-1.6479e-07
7.86944e-07
-3.98303e-07
1.39291e-06
-7.5199e-07
2.03677e-06
-1.22901e-06
2.68128e-06
-1.82304e-06
3.29922e-06
-2.52286e-06
3.8819e-06
-3.3169e-06
4.43565e-06
-4.19451e-06
4.96794e-06
-5.14667e-06
5.4734e-06
-6.1664e-06
5.92575e-06
-7.24707e-06
6.27807e-06
-8.37903e-06
6.45998e-06
-9.54823e-06
6.36479e-06
-1.07358e-05
5.82647e-06
-1.19213e-05
4.58266e-06
-1.29293e-05
1.90741e-06
-1.35597e-05
-9.39616e-07
-1.39387e-05
-2.92412e-06
-1.41247e-05
-4.34932e-06
-1.40587e-05
-5.47568e-06
-1.36479e-05
-6.3981e-06
-1.28178e-05
-7.09201e-06
-1.15375e-05
-7.48339e-06
-9.84269e-06
-7.48248e-06
-7.84204e-06
-7.03207e-06
-5.71211e-06
-6.13034e-06
-3.6781e-06
-4.85552e-06
-1.97989e-06
-3.37914e-06
-7.98606e-07
-1.96103e-06
-1.73842e-07
-8.6223e-07
-1.88058e-07
-4.23207e-09
2.56201e-07
-3.38882e-08
8.166e-07
-1.12082e-07
1.4711e-06
-2.619e-07
2.18659e-06
-4.99425e-07
2.9188e-06
-8.27396e-07
3.62719e-06
-1.23167e-06
4.28618e-06
-1.69109e-06
4.89508e-06
-2.18409e-06
5.46094e-06
-2.69249e-06
5.9818e-06
-3.20304e-06
6.43631e-06
-3.70795e-06
6.78298e-06
-4.20421e-06
6.95624e-06
-4.69273e-06
6.85331e-06
-5.17597e-06
6.30971e-06
-5.66295e-06
5.06963e-06
-6.16513e-06
2.40959e-06
-6.63659e-06
-4.68156e-07
-7.12428e-06
-2.43642e-06
-7.67219e-06
-3.80142e-06
-8.21228e-06
-4.93559e-06
-8.62098e-06
-5.9894e-06
-8.77338e-06
-6.93962e-06
-8.54373e-06
-7.71304e-06
-7.86663e-06
-8.15958e-06
-6.75132e-06
-8.14738e-06
-5.29359e-06
-7.58806e-06
-3.66942e-06
-6.47969e-06
-2.12287e-06
-4.92569e-06
-9.1516e-07
-3.16875e-06
-2.12144e-07
-1.56525e-06
-4.00202e-07
1.54227e-08
2.40778e-07
4.60738e-08
7.85949e-07
7.17507e-08
1.44542e-06
6.77693e-08
2.19057e-06
1.20988e-08
2.97447e-06
-1.05251e-07
3.74454e-06
-2.76334e-07
4.45726e-06
-4.7801e-07
5.09675e-06
-6.81211e-07
5.66414e-06
-8.60076e-07
6.16066e-06
-9.96913e-07
6.57315e-06
-1.08395e-06
6.87002e-06
-1.12356e-06
6.99585e-06
-1.12857e-06
6.85832e-06
-1.12012e-06
6.30126e-06
-1.10888e-06
5.05839e-06
-1.19524e-06
2.49595e-06
-1.53425e-06
-1.29147e-07
-2.03163e-06
-1.93904e-06
-2.66929e-06
-3.16376e-06
-3.42762e-06
-4.17726e-06
-4.22255e-06
-5.19447e-06
-4.95813e-06
-6.20404e-06
-5.45511e-06
-7.21606e-06
-5.57755e-06
-8.03715e-06
-5.24434e-06
-8.48059e-06
-4.46717e-06
-8.36524e-06
-3.348e-06
-7.59886e-06
-2.08748e-06
-6.18621e-06
-9.63272e-07
-4.29295e-06
-2.3653e-07
-2.29199e-06
-6.36732e-07
2.26409e-08
2.18137e-07
7.97058e-08
7.28884e-07
1.57146e-07
1.36798e-06
2.34761e-07
2.11296e-06
2.92518e-07
2.91671e-06
3.19272e-07
3.71778e-06
3.17848e-07
4.45868e-06
3.08828e-07
5.10577e-06
3.22548e-07
5.65042e-06
3.87729e-07
6.09548e-06
5.22795e-07
6.43808e-06
7.32631e-07
6.66019e-06
1.00809e-06
6.72038e-06
1.32627e-06
6.54015e-06
1.65096e-06
5.97656e-06
1.93875e-06
4.77061e-06
2.0283e-06
2.4064e-06
1.75483e-06
1.44326e-07
1.25027e-06
-1.43448e-06
6.24526e-07
-2.53801e-06
-1.20045e-07
-3.43269e-06
-9.77304e-07
-4.33721e-06
-1.90742e-06
-5.27392e-06
-2.77278e-06
-6.3507e-06
-3.41883e-06
-7.39109e-06
-3.68082e-06
-8.21859e-06
-3.49319e-06
-8.55287e-06
-2.87176e-06
-8.22029e-06
-1.94683e-06
-7.11113e-06
-9.68545e-07
-5.27124e-06
-2.52402e-07
-3.00813e-06
-8.89135e-07
2.14744e-08
1.96663e-07
8.05789e-08
6.6978e-07
1.70535e-07
1.27803e-06
2.78898e-07
2.0046e-06
3.92318e-07
2.80329e-06
5.03692e-07
3.60641e-06
6.17524e-07
4.34485e-06
7.52017e-07
4.97128e-06
9.33159e-07
5.46928e-06
1.18464e-06
5.844e-06
1.51926e-06
6.10346e-06
1.93552e-06
6.24393e-06
2.41706e-06
6.23884e-06
2.93259e-06
6.02462e-06
3.4323e-06
5.47686e-06
3.83483e-06
4.36808e-06
3.9392e-06
2.30203e-06
3.69311e-06
3.90413e-07
3.20195e-06
-9.43317e-07
2.592e-06
-1.92807e-06
1.9149e-06
-2.75559e-06
1.14098e-06
-3.56329e-06
2.7892e-07
-4.41186e-06
-6.57295e-07
-5.41448e-06
-1.56517e-06
-6.48322e-06
-2.22439e-06
-7.55938e-06
-2.5057e-06
-8.27156e-06
-2.33305e-06
-8.39294e-06
-1.75182e-06
-7.69236e-06
-9.53542e-07
-6.06952e-06
-2.67267e-07
-3.6944e-06
-1.1564e-06
1.45182e-08
1.82145e-07
5.74509e-08
6.26847e-07
1.29643e-07
1.20584e-06
2.3e-07
1.90424e-06
3.56883e-07
2.67641e-06
5.11443e-07
3.45185e-06
7.02195e-07
4.1541e-06
9.44826e-07
4.72865e-06
1.25702e-06
5.15708e-06
1.65133e-06
5.44969e-06
2.13024e-06
5.62455e-06
2.68438e-06
5.6898e-06
3.29179e-06
5.63143e-06
3.91607e-06
5.40034e-06
4.49909e-06
4.89383e-06
4.94031e-06
3.92686e-06
5.05521e-06
2.18713e-06
4.84231e-06
6.03304e-07
4.4004e-06
-5.01404e-07
3.82407e-06
-1.35174e-06
3.16646e-06
-2.09798e-06
2.45156e-06
-2.84839e-06
1.70383e-06
-3.66413e-06
8.73295e-07
-4.58395e-06
-2.69217e-08
-5.58301e-06
-9.10688e-07
-6.67561e-06
-1.54192e-06
-7.64033e-06
-1.76171e-06
-8.17315e-06
-1.51977e-06
-7.93431e-06
-9.26713e-07
-6.66257e-06
-2.86958e-07
-4.33416e-06
-1.44336e-06
1.75676e-09
1.80388e-07
1.12333e-08
6.1737e-07
4.03794e-08
1.17669e-06
1.05812e-07
1.83881e-06
2.21393e-07
2.56083e-06
3.96433e-07
3.27681e-06
6.42378e-07
3.90815e-06
9.70649e-07
4.40038e-06
1.38697e-06
4.74076e-06
1.88928e-06
4.94739e-06
2.46842e-06
5.04541e-06
3.10829e-06
5.04993e-06
3.78418e-06
4.95553e-06
4.45881e-06
4.72571e-06
5.07287e-06
4.27977e-06
5.52586e-06
3.47387e-06
5.66405e-06
2.04894e-06
5.50977e-06
7.57587e-07
5.15132e-06
-1.42952e-07
4.65948e-06
-8.59896e-07
4.07503e-06
-1.51353e-06
3.42374e-06
-2.1971e-06
2.72203e-06
-2.96243e-06
1.96707e-06
-3.82899e-06
1.16247e-06
-4.77841e-06
2.66427e-07
-5.77956e-06
-5.84681e-07
-6.78922e-06
-1.14758e-06
-7.61025e-06
-1.24323e-06
-7.83866e-06
-8.83741e-07
-7.02206e-06
-3.14645e-07
-4.90326e-06
-1.75801e-06
-1.87056e-08
1.99094e-07
-6.07202e-08
6.59385e-07
-9.51632e-08
1.21113e-06
-8.07083e-08
1.82435e-06
1.57061e-08
2.46441e-06
2.06621e-07
3.08589e-06
5.00275e-07
3.6145e-06
9.00984e-07
3.99967e-06
1.39994e-06
4.2418e-06
1.98031e-06
4.36702e-06
2.62373e-06
4.40199e-06
3.31055e-06
4.36311e-06
4.01669e-06
4.2494e-06
4.70796e-06
4.03443e-06
5.33023e-06
3.6575e-06
5.79486e-06
3.00923e-06
5.97687e-06
1.86693e-06
5.90842e-06
8.26036e-07
5.6609e-06
1.04573e-07
5.2848e-06
-4.838e-07
4.81238e-06
-1.04111e-06
4.25764e-06
-1.64236e-06
3.62565e-06
-2.33044e-06
2.91587e-06
-3.11921e-06
2.13117e-06
-3.9937e-06
1.27512e-06
-4.92352e-06
3.58191e-07
-5.87229e-06
-4.64731e-07
-6.78733e-06
-9.02524e-07
-7.40086e-06
-8.118e-07
-7.11279e-06
-3.49319e-07
-5.36574e-06
-2.10732e-06
-5.28762e-08
2.5197e-07
-1.66766e-07
7.73274e-07
-2.7566e-07
1.32003e-06
-3.1169e-07
1.86038e-06
-2.29865e-07
2.38259e-06
-1.21768e-08
2.86821e-06
3.32745e-07
3.26958e-06
7.98871e-07
3.53354e-06
1.36262e-06
3.67805e-06
1.99633e-06
3.73331e-06
2.67759e-06
3.72073e-06
3.38713e-06
3.65357e-06
4.10432e-06
3.53221e-06
4.80085e-06
3.3379e-06
5.43166e-06
3.0267e-06
5.92406e-06
2.51683e-06
6.17142e-06
1.61958e-06
6.20204e-06
7.95411e-07
6.0757e-06
2.30917e-07
5.8289e-06
-2.36996e-07
5.4839e-06
-6.96114e-07
5.04176e-06
-1.20022e-06
4.49549e-06
-1.78417e-06
3.8373e-06
-2.46102e-06
3.06691e-06
-3.22331e-06
2.19571e-06
-4.05232e-06
1.25108e-06
-4.92766e-06
2.88995e-07
-5.82525e-06
-4.67461e-07
-6.64441e-06
-6.88258e-07
-6.89199e-06
-3.8221e-07
-5.67179e-06
-2.48953e-06
-1.11164e-07
3.63134e-07
-3.16239e-07
9.78349e-07
-4.92472e-07
1.49626e-06
-5.5369e-07
1.9216e-06
-4.59395e-07
2.28829e-06
-2.03578e-07
2.61239e-06
2.03271e-07
2.86273e-06
7.34609e-07
3.00221e-06
1.35075e-06
3.06191e-06
2.02239e-06
3.06166e-06
2.72873e-06
3.01439e-06
3.45356e-06
2.92874e-06
4.18072e-06
2.80505e-06
4.88811e-06
2.63052e-06
5.53994e-06
2.37487e-06
6.07719e-06
1.97957e-06
6.40011e-06
1.29666e-06
6.52498e-06
6.70539e-07
6.50959e-06
2.46301e-07
6.38217e-06
-1.09567e-07
6.15272e-06
-4.66668e-07
5.81417e-06
-8.61665e-07
5.35193e-06
-1.32194e-06
4.75118e-06
-1.86026e-06
4.00511e-06
-2.47724e-06
3.12166e-06
-3.16886e-06
2.12822e-06
-3.93422e-06
1.08008e-06
-4.7771e-06
9.98208e-08
-5.66415e-06
-4.77703e-07
-6.31446e-06
-3.93587e-07
-5.7559e-06
-2.88312e-06
-2.0309e-07
5.66224e-07
-5.02226e-07
1.27749e-06
-7.06915e-07
1.70095e-06
-7.40527e-07
1.95521e-06
-5.88138e-07
2.13591e-06
-2.61305e-07
2.28556e-06
2.23776e-07
2.37765e-06
8.20856e-07
2.40513e-06
1.48456e-06
2.39821e-06
2.19105e-06
2.35517e-06
2.92307e-06
2.28237e-06
3.66716e-06
2.18465e-06
4.41005e-06
2.06216e-06
5.13353e-06
1.90703e-06
5.80834e-06
1.70006e-06
6.38448e-06
1.40344e-06
6.76463e-06
9.1651e-07
6.95724e-06
4.77928e-07
7.02043e-06
1.83113e-07
6.97675e-06
-6.58885e-08
6.82877e-06
-3.18684e-07
6.56714e-06
-6.00036e-07
6.17499e-06
-9.29789e-07
5.63347e-06
-1.31875e-06
4.92863e-06
-1.7724e-06
4.05822e-06
-2.29845e-06
3.03839e-06
-2.9144e-06
1.91193e-06
-3.65064e-06
7.75211e-07
-4.52743e-06
-1.26141e-07
-5.41311e-06
-3.51929e-07
-5.53011e-06
-3.23505e-06
-3.22482e-07
8.88705e-07
-6.7428e-07
1.62928e-06
-8.10958e-07
1.83763e-06
-7.23571e-07
1.86783e-06
-4.44008e-07
1.85634e-06
7.05369e-09
1.8345e-06
5.91618e-07
1.79308e-06
1.25114e-06
1.7456e-06
1.96135e-06
1.688e-06
2.70138e-06
1.61514e-06
3.45529e-06
1.52847e-06
4.21016e-06
1.42977e-06
4.9532e-06
1.31912e-06
5.66785e-06
1.19237e-06
6.32921e-06
1.0387e-06
6.8951e-06
8.37549e-07
7.27782e-06
5.33792e-07
7.48655e-06
2.69198e-07
7.57799e-06
9.16677e-08
7.57079e-06
-5.86895e-08
7.46484e-06
-2.12729e-07
7.2519e-06
-3.87095e-07
6.91603e-06
-5.93921e-07
6.43764e-06
-8.40356e-07
5.79784e-06
-1.1326e-06
4.98265e-06
-1.48326e-06
3.98851e-06
-1.92026e-06
2.83258e-06
-2.49471e-06
1.5784e-06
-3.27325e-06
4.07723e-07
-4.24244e-06
-2.15317e-07
-4.90707e-06
-3.45037e-06
-4.42911e-07
1.33162e-06
-6.77018e-07
1.86339e-06
-5.44788e-07
1.7054e-06
-1.86043e-07
1.50908e-06
3.15944e-07
1.35436e-06
9.20587e-07
1.22985e-06
1.58988e-06
1.12379e-06
2.30021e-06
1.03527e-06
3.03259e-06
9.55617e-07
3.76973e-06
8.78003e-07
4.4974e-06
8.00802e-07
5.20361e-06
7.23563e-07
5.87703e-06
6.45703e-07
6.5045e-06
5.64908e-07
7.06757e-06
4.7563e-07
7.53604e-06
3.69078e-07
7.8459e-06
2.23931e-07
8.01216e-06
1.02938e-07
8.08272e-06
2.11085e-08
8.07268e-06
-4.86471e-08
7.98171e-06
-1.21763e-07
7.80239e-06
-2.07778e-07
7.5206e-06
-3.1213e-07
7.11841e-06
-4.38168e-07
6.57591e-06
-5.90095e-07
5.87135e-06
-7.78703e-07
4.9812e-06
-1.03011e-06
3.884e-06
-1.39751e-06
2.5814e-06
-1.97065e-06
1.18343e-06
-2.84447e-06
1.13984e-07
-3.83762e-06
-3.33638e-06
-3.76967e-07
1.70858e-06
1.72784e-08
1.46915e-06
7.28586e-07
9.94089e-07
1.44621e-06
7.91454e-07
2.15519e-06
6.45378e-07
2.85963e-06
5.25414e-07
3.54956e-06
4.3385e-07
4.21937e-06
3.65469e-07
4.86305e-06
3.11931e-07
5.47338e-06
2.67681e-07
6.04415e-06
2.30025e-07
6.57049e-06
1.97224e-07
7.04827e-06
1.67921e-07
7.47264e-06
1.40539e-07
7.83552e-06
1.12749e-07
8.12246e-06
8.2145e-08
8.30141e-06
4.49782e-08
8.38893e-06
1.54201e-08
8.41504e-06
-5.00154e-09
8.38929e-06
-2.28979e-08
8.31071e-06
-4.31848e-08
8.17172e-06
-6.87905e-08
7.96059e-06
-1.01002e-07
7.66309e-06
-1.40669e-07
7.26243e-06
-1.89431e-07
6.73626e-06
-2.52531e-07
6.0504e-06
-3.4425e-07
5.15053e-06
-4.97637e-07
3.95863e-06
-7.78752e-07
2.4132e-06
-1.29904e-06
7.44128e-07
-2.16855e-06
-2.59226e-06
1.70858e-06
3.17773e-06
4.17182e-06
4.96327e-06
5.60865e-06
6.13406e-06
6.56791e-06
6.93338e-06
7.24531e-06
7.51299e-06
7.74302e-06
7.94024e-06
8.10816e-06
8.2487e-06
8.36145e-06
8.4436e-06
8.48858e-06
8.504e-06
8.499e-06
8.4761e-06
8.43291e-06
8.36412e-06
8.26312e-06
8.12245e-06
7.93302e-06
7.68049e-06
7.33624e-06
6.8386e-06
6.05985e-06
4.76081e-06
2.59226e-06
)
;

boundaryField
{
    movingWall
    {
        type            calculated;
        value           uniform 0;
    }
    fixedWalls
    {
        type            calculated;
        value           uniform 0;
    }
    floor
    {
        type            calculated;
        value           uniform 0;
    }
    frontAndBack
    {
        type            empty;
        value           nonuniform List<scalar> 0();
    }
}


// ************************************************************************* //
