/*--------------------------------*- C++ -*----------------------------------*\
| =========                 |                                                 |
| \\      /  F ield         | OpenFOAM: The Open Source CFD Toolbox           |
|  \\    /   O peration     | Version:  2212                                  |
|   \\  /    A nd           | Website:  www.openfoam.com                      |
|    \\/     M anipulation  |                                                 |
\*---------------------------------------------------------------------------*/
FoamFile
{
    version     2.0;
    format      ascii;
    arch        "LSB;label=64;scalar=64";
    class       volVectorField;
    location    "1130";
    object      U;
}
// * * * * * * * * * * * * * * * * * * * * * * * * * * * * * * * * * * * * * //

dimensions      [0 1 -1 0 0 0 0];

internalField   nonuniform List<vector> 
1024
(
(1.15848e-05 -1.19887e-05 0)
(-2.45225e-05 5.8189e-06 0)
(-0.000171791 2.60254e-05 0)
(-0.000424627 3.51323e-05 0)
(-0.000746793 3.61698e-05 0)
(-0.00110553 3.4787e-05 0)
(-0.00148386 3.3467e-05 0)
(-0.00186763 3.1536e-05 0)
(-0.00222354 2.68184e-05 0)
(-0.00247523 1.66206e-05 0)
(-0.00248616 -2.47371e-06 0)
(-0.00204085 -3.03606e-05 0)
(-0.00106312 -4.74968e-05 0)
(0.000327408 -4.04621e-05 0)
(0.00138453 -2.38868e-05 0)
(0.00203983 -8.6882e-06 0)
(0.00230746 -1.4636e-06 0)
(0.00232999 3.53898e-06 0)
(0.0022004 7.62132e-06 0)
(0.00198372 9.91428e-06 0)
(0.00173719 1.11261e-05 0)
(0.00148936 1.16701e-05 0)
(0.0012552 1.1655e-05 0)
(0.00104185 1.13405e-05 0)
(0.00084894 1.12213e-05 0)
(0.000669217 1.20729e-05 0)
(0.000494119 1.40454e-05 0)
(0.000323133 1.60107e-05 0)
(0.000169573 1.54225e-05 0)
(5.58623e-05 9.79016e-06 0)
(-1.31703e-06 -2.9094e-07 0)
(-7.46167e-06 -7.51779e-06 0)
(-8.32638e-06 2.50799e-05 0)
(-0.000197835 0.00017972 0)
(-0.000648519 0.000333327 0)
(-0.00135204 0.000414738 0)
(-0.00222899 0.000427767 0)
(-0.00319852 0.000403956 0)
(-0.00419915 0.000363935 0)
(-0.00516759 0.000307704 0)
(-0.00599736 0.000222488 0)
(-0.00649369 9.22882e-05 0)
(-0.00635155 -9.91114e-05 0)
(-0.00512369 -0.000327929 0)
(-0.0026806 -0.000487767 0)
(0.000906613 -0.000441432 0)
(0.00364298 -0.000271119 0)
(0.00544872 -0.000126536 0)
(0.00628564 -3.95984e-05 0)
(0.00645376 1.82414e-05 0)
(0.00619994 6.43338e-05 0)
(0.00568766 9.68727e-05 0)
(0.00506218 0.000118624 0)
(0.00440431 0.000133168 0)
(0.00375931 0.000142344 0)
(0.00315084 0.000148774 0)
(0.00258352 0.000156881 0)
(0.00204654 0.000171491 0)
(0.00152739 0.000191505 0)
(0.00103182 0.000205271 0)
(0.000593572 0.000193354 0)
(0.000261177 0.000142284 0)
(6.76917e-05 6.26549e-05 0)
(-2.12197e-07 -1.92188e-06 0)
(-3.78372e-05 0.000202161 0)
(-0.000425327 0.000660391 0)
(-0.00119654 0.00104249 0)
(-0.00232064 0.00123915 0)
(-0.00367869 0.00126051 0)
(-0.00515088 0.00117279 0)
(-0.00662821 0.00102459 0)
(-0.00798971 0.000822079 0)
(-0.00906114 0.000543273 0)
(-0.00956807 0.000159146 0)
(-0.00911041 -0.000356975 0)
(-0.00718382 -0.000935022 0)
(-0.00371366 -0.00135817 0)
(0.00144517 -0.00124706 0)
(0.00540216 -0.000782848 0)
(0.00820679 -0.000394232 0)
(0.00966301 -0.000146094 0)
(0.0100995 2.30099e-05 0)
(0.00986454 0.000158951 0)
(0.00920031 0.000260846 0)
(0.00831587 0.000334691 0)
(0.00733742 0.000388902 0)
(0.00633964 0.000428757 0)
(0.00536504 0.000461125 0)
(0.00442981 0.00049676 0)
(0.00353049 0.000545714 0)
(0.0026617 0.000602859 0)
(0.00183938 0.000637734 0)
(0.00111103 0.000603963 0)
(0.000540659 0.000472216 0)
(0.000177237 0.000265174 0)
(1.26693e-05 6.23508e-05 0)
(-6.34047e-05 0.000565325 0)
(-0.000629847 0.00154327 0)
(-0.00168343 0.0022527 0)
(-0.00315496 0.00258522 0)
(-0.00487965 0.00258308 0)
(-0.00670136 0.00236078 0)
(-0.00846891 0.00200415 0)
(-0.0100123 0.00153388 0)
(-0.0111099 0.00092579 0)
(-0.0114465 0.000142716 0)
(-0.0105792 -0.000841294 0)
(-0.00809582 -0.00188172 0)
(-0.00403252 -0.0026559 0)
(0.00192646 -0.00245474 0)
(0.00655262 -0.00158113 0)
(0.0101184 -0.000851245 0)
(0.0121858 -0.0003598 0)
(0.0130046 -1.28817e-05 0)
(0.0129303 0.000269197 0)
(0.0122714 0.000489243 0)
(0.0112741 0.000658528 0)
(0.0100972 0.000791403 0)
(0.00883944 0.000897991 0)
(0.00756176 0.000990489 0)
(0.00629659 0.00108673 0)
(0.00505635 0.00120144 0)
(0.00385061 0.00132263 0)
(0.00270731 0.00139498 0)
(0.00168366 0.00133621 0)
(0.000857522 0.0010909 0)
(0.000302306 0.000683591 0)
(2.66067e-05 0.000219468 0)
(-7.76807e-05 0.00111867 0)
(-0.000748588 0.00283814 0)
(-0.00197141 0.00396746 0)
(-0.0036492 0.00443732 0)
(-0.00557903 0.00435632 0)
(-0.0075717 0.00390676 0)
(-0.0094419 0.003224 0)
(-0.0109862 0.00235471 0)
(-0.0119587 0.00128299 0)
(-0.0120326 -2.81895e-05 0)
(-0.0107737 -0.00157983 0)
(-0.00793588 -0.00313391 0)
(-0.0036617 -0.00427537 0)
(0.00232851 -0.00395325 0)
(0.00709086 -0.0026255 0)
(0.0110988 -0.00150646 0)
(0.0136751 -0.000713892 0)
(0.0149203 -0.000130578 0)
(0.0151294 0.000354216 0)
(0.0146193 0.000744954 0)
(0.0136575 0.00106056 0)
(0.012421 0.00132256 0)
(0.0110231 0.00154679 0)
(0.00953911 0.00175055 0)
(0.00801815 0.00195727 0)
(0.00649208 0.00218388 0)
(0.00498939 0.00240873 0)
(0.00355219 0.0025477 0)
(0.00224811 0.00247327 0)
(0.00117148 0.00208568 0)
(0.000425652 0.00138888 0)
(4.01192e-05 0.00049965 0)
(-7.49559e-05 0.00180536 0)
(-0.000736188 0.00443893 0)
(-0.00195742 0.00607608 0)
(-0.00364745 0.00669566 0)
(-0.00559273 0.00648864 0)
(-0.00758113 0.00572251 0)
(-0.00940096 0.00459928 0)
(-0.0108282 0.00320738 0)
(-0.0116097 0.00155284 0)
(-0.0114187 -0.000388065 0)
(-0.00990714 -0.00256165 0)
(-0.00694469 -0.00463562 0)
(-0.00276403 -0.00608193 0)
(0.00263604 -0.00559743 0)
(0.00712274 -0.00384674 0)
(0.0112077 -0.00234157 0)
(0.014091 -0.00122521 0)
(0.015707 -0.000368288 0)
(0.0162615 0.000368278 0)
(0.0159981 0.000981721 0)
(0.0151919 0.00149736 0)
(0.0140247 0.00194629 0)
(0.0126133 0.00235089 0)
(0.0110397 0.00273246 0)
(0.00936598 0.00311702 0)
(0.00764173 0.00351953 0)
(0.00591482 0.0039047 0)
(0.00424386 0.00415441 0)
(0.00271057 0.00408376 0)
(0.0014277 0.00352523 0)
(0.000525745 0.00243457 0)
(5.11321e-05 0.000925599 0)
(-5.4964e-05 0.00250431 0)
(-0.000586418 0.00611218 0)
(-0.00162035 0.00833548 0)
(-0.00311222 0.00916038 0)
(-0.00488039 0.00883231 0)
(-0.00671077 0.00770246 0)
(-0.00837499 0.0060566 0)
(-0.00963672 0.00404619 0)
(-0.0102443 0.00171811 0)
(-0.00987463 -0.000917291 0)
(-0.00828584 -0.00374106 0)
(-0.00541496 -0.00631907 0)
(-0.00155333 -0.00793742 0)
(0.00283698 -0.0072471 0)
(0.00679415 -0.00515997 0)
(0.0106044 -0.00330888 0)
(0.0135337 -0.00188321 0)
(0.0153774 -0.00074488 0)
(0.016253 0.000275414 0)
(0.0162648 0.00115591 0)
(0.0156809 0.001921 0)
(0.0146768 0.00261479 0)
(0.0133607 0.00326745 0)
(0.0118123 0.00390266 0)
(0.0100995 0.00454522 0)
(0.00828536 0.00520231 0)
(0.00643502 0.00581805 0)
(0.00462558 0.00623081 0)
(0.00295654 0.00618303 0)
(0.00155758 0.00541807 0)
(0.000574089 0.00382212 0)
(5.62065e-05 0.00149626 0)
(-2.46872e-05 0.0030582 0)
(-0.000340424 0.00753506 0)
(-0.00103544 0.0103881 0)
(-0.00213922 0.0115291 0)
(-0.0035494 0.0111754 0)
(-0.0050855 0.00972052 0)
(-0.00652041 0.00753736 0)
(-0.00761195 0.00486312 0)
(-0.00810852 0.00180868 0)
(-0.00768174 -0.00155888 0)
(-0.00617205 -0.00504893 0)
(-0.00358679 -0.00809131 0)
(-0.000294366 -0.00971144 0)
(0.00297323 -0.00878413 0)
(0.00619327 -0.00646512 0)
(0.00943324 -0.00433566 0)
(0.0121501 -0.00265042 0)
(0.0140483 -0.00125296 0)
(0.0151435 6.17378e-05 0)
(0.0153994 0.00123859 0)
(0.0150472 0.00229 0)
(0.0142535 0.00327804 0)
(0.0131082 0.0042424 0)
(0.0116791 0.0052073 0)
(0.010033 0.00619156 0)
(0.00824085 0.00718657 0)
(0.00638327 0.00810395 0)
(0.00455761 0.00872274 0)
(0.00288294 0.00869641 0)
(0.00149906 0.00766991 0)
(0.000544503 0.00546107 0)
(5.19933e-05 0.00216632 0)
(5.18392e-06 0.00332562 0)
(-7.26216e-05 0.00837546 0)
(-0.000353705 0.0118135 0)
(-0.000934002 0.0134039 0)
(-0.00182432 0.0132197 0)
(-0.00292633 0.0116027 0)
(-0.00404884 0.00897659 0)
(-0.00495833 0.0056725 0)
(-0.00539869 0.00188505 0)
(-0.0050179 -0.00223488 0)
(-0.00372034 -0.00638655 0)
(-0.00161202 -0.0097974 0)
(0.000828274 -0.0112583 0)
(0.00300062 -0.0100997 0)
(0.00528593 -0.00763577 0)
(0.00771952 -0.00532651 0)
(0.0100029 -0.0034714 0)
(0.0118105 -0.00186542 0)
(0.0129937 -0.000271704 0)
(0.0134552 0.00121566 0)
(0.0133105 0.0025738 0)
(0.0127391 0.00389049 0)
(0.011808 0.00521788 0)
(0.0105662 0.00657913 0)
(0.00907385 0.00798078 0)
(0.00740722 0.00938632 0)
(0.00566261 0.0106555 0)
(0.00395977 0.0114856 0)
(0.00243514 0.0114304 0)
(0.00122359 0.0100529 0)
(0.000427059 0.00714451 0)
(3.75277e-05 0.00283533 0)
(2.44692e-05 0.00325323 0)
(0.000139628 0.00842669 0)
(0.000239733 0.0122353 0)
(0.000210157 0.0143284 0)
(-5.0125e-05 0.0145728 0)
(-0.00056595 0.0130929 0)
(-0.00124005 0.0102716 0)
(-0.00188706 0.00649874 0)
(-0.00225767 0.00205034 0)
(-0.00198258 -0.00281887 0)
(-0.00104104 -0.0075793 0)
(0.000375659 -0.0111907 0)
(0.0016915 -0.0123755 0)
(0.00275749 -0.0110379 0)
(0.00391253 -0.00850255 0)
(0.00534086 -0.00615172 0)
(0.0069972 -0.00427152 0)
(0.00860235 -0.00255471 0)
(0.00983623 -0.000712212 0)
(0.0104883 0.00108256 0)
(0.01052 0.00274863 0)
(0.0101686 0.00440891 0)
(0.00947816 0.00613201 0)
(0.0084733 0.00793823 0)
(0.00720658 0.00981212 0)
(0.00576151 0.0116694 0)
(0.00425459 0.0132879 0)
(0.00282938 0.0142588 0)
(0.00162824 0.014046 0)
(0.000753147 0.0121933 0)
(0.0002364 0.00855562 0)
(1.55045e-05 0.00335792 0)
(3.23831e-05 0.00287104 0)
(0.000262283 0.00768873 0)
(0.000626289 0.0115269 0)
(0.00102864 0.0139524 0)
(0.00133984 0.0146744 0)
(0.00146449 0.0136432 0)
(0.00138509 0.0110547 0)
(0.00118248 0.00720198 0)
(0.00104598 0.00233953 0)
(0.00119919 -0.00318572 0)
(0.00161817 -0.00832519 0)
(0.0020683 -0.0118329 0)
(0.00219165 -0.012829 0)
(0.00197469 -0.0113384 0)
(0.00180633 -0.00882881 0)
(0.00206722 -0.00662808 0)
(0.00290549 -0.0049361 0)
(0.00417464 -0.00329372 0)
(0.00544236 -0.00128282 0)
(0.00641681 0.000813005 0)
(0.00663703 0.00277362 0)
(0.00652644 0.00477187 0)
(0.00611428 0.00690088 0)
(0.00540143 0.00917511 0)
(0.00443944 0.0115386 0)
(0.00332848 0.0138261 0)
(0.00221296 0.0156935 0)
(0.00125373 0.0166185 0)
(0.000565175 0.0160335 0)
(0.000172265 0.013586 0)
(1.6297e-05 0.00931086 0)
(-7.49189e-06 0.003574 0)
(2.96793e-05 0.00228924 0)
(0.000289087 0.00634206 0)
(0.000767362 0.00983675 0)
(0.00140906 0.0123352 0)
(0.0020952 0.0134344 0)
(0.00270712 0.0129087 0)
(0.00316588 0.0107629 0)
(0.00346407 0.00716709 0)
(0.00369873 0.0023735 0)
(0.00382785 -0.00316056 0)
(0.00369601 -0.00823722 0)
(0.00315246 -0.011554 0)
(0.00193776 -0.0122512 0)
(0.000206356 -0.0106129 0)
(-0.00140648 -0.00830575 0)
(-0.00236018 -0.00655141 0)
(-0.00250899 -0.0053136 0)
(-0.00181012 -0.00402912 0)
(-0.000672905 -0.00217419 0)
(0.000886766 0.000290993 0)
(0.00144216 0.00258304 0)
(0.00166163 0.00488773 0)
(0.00162101 0.00740819 0)
(0.00131178 0.0101473 0)
(0.000805439 0.0129574 0)
(0.000227464 0.0155355 0)
(-0.000248465 0.017388 0)
(-0.00050125 0.0178973 0)
(-0.000528398 0.0167044 0)
(-0.000383312 0.0137029 0)
(-0.000181039 0.00911651 0)
(-2.64008e-05 0.00339507 0)
(2.1657e-05 0.00165553 0)
(0.00023836 0.00472347 0)
(0.000681958 0.00756728 0)
(0.00134537 0.00983364 0)
(0.00215201 0.0110971 0)
(0.0029966 0.0110053 0)
(0.00377821 0.00938867 0)
(0.00443175 0.00628231 0)
(0.00495252 0.00193389 0)
(0.00508009 -0.00302611 0)
(0.00447627 -0.00738352 0)
(0.00288648 -0.0100017 0)
(9.19793e-05 -0.0101339 0)
(-0.0032632 -0.00844112 0)
(-0.00609568 -0.00682923 0)
(-0.00820319 -0.00578073 0)
(-0.00938858 -0.00517099 0)
(-0.00945484 -0.00443675 0)
(-0.00863414 -0.00306754 0)
(-0.00721808 -0.000841063 0)
(-0.00552466 0.00185685 0)
(-0.0046801 0.00453133 0)
(-0.00404117 0.00741391 0)
(-0.00360498 0.0104978 0)
(-0.00329761 0.0134702 0)
(-0.00299182 0.0159047 0)
(-0.00258122 0.0173121 0)
(-0.00203877 0.0172437 0)
(-0.0014126 0.0155204 0)
(-0.00079725 0.0122599 0)
(-0.00031357 0.00785149 0)
(-3.53265e-05 0.00280337 0)
(9.47672e-06 0.00117699 0)
(0.000148989 0.00337188 0)
(0.000463593 0.00547358 0)
(0.000979908 0.00726549 0)
(0.00167054 0.00840843 0)
(0.00246714 0.00852836 0)
(0.00327616 0.00735196 0)
(0.00399504 0.00482501 0)
(0.00449896 0.00124811 0)
(0.00428397 -0.00250789 0)
(0.00291028 -0.00540428 0)
(-0.00012616 -0.00673228 0)
(-0.00459721 -0.00611657 0)
(-0.0087925 -0.00502595 0)
(-0.0125615 -0.004315 0)
(-0.0156272 -0.0041509 0)
(-0.0177458 -0.00439121 0)
(-0.0185291 -0.00451428 0)
(-0.0180561 -0.00397332 0)
(-0.0165933 -0.00249703 0)
(-0.0143496 -8.92083e-05 0)
(-0.0119712 0.0028732 0)
(-0.0101092 0.00587403 0)
(-0.00840096 0.00890558 0)
(-0.00688235 0.0116545 0)
(-0.00547229 0.0137013 0)
(-0.0041367 0.0146231 0)
(-0.00289995 0.0141226 0)
(-0.00180971 0.0122036 0)
(-0.00093246 0.009183 0)
(-0.000336728 0.00557211 0)
(-3.45217e-05 0.00186654 0)
(5.05024e-06 0.000784313 0)
(4.32126e-05 0.00222298 0)
(0.000138009 0.00361167 0)
(0.00030902 0.0048386 0)
(0.000556984 0.00567883 0)
(0.000840707 0.0058313 0)
(0.00105196 0.00505491 0)
(0.000990273 0.00337273 0)
(0.000285166 0.00126191 0)
(-0.0014947 -0.00026534 0)
(-0.00454051 -0.000688177 0)
(-0.0085965 -0.000567395 0)
(-0.0128974 -0.000452559 0)
(-0.0169344 -0.000565895 0)
(-0.0205787 -0.000983418 0)
(-0.0237452 -0.0017815 0)
(-0.0262008 -0.00298109 0)
(-0.0273713 -0.00419631 0)
(-0.0272177 -0.00487347 0)
(-0.0258836 -0.00475116 0)
(-0.0234847 -0.00367786 0)
(-0.0201979 -0.00160515 0)
(-0.0163844 0.00131192 0)
(-0.0126347 0.00448316 0)
(-0.0092441 0.00719028 0)
(-0.00637547 0.00894296 0)
(-0.00406332 0.00971569 0)
(-0.00235676 0.00933199 0)
(-0.00120527 0.0078708 0)
(-0.000503522 0.00570309 0)
(-0.000140697 0.00330918 0)
(-6.91022e-06 0.00105093 0)
(-1.90538e-05 0.00105875 0)
(-0.0001818 0.00290656 0)
(-0.000505475 0.00457361 0)
(-0.000993827 0.00598219 0)
(-0.00163133 0.00702936 0)
(-0.00243053 0.00761718 0)
(-0.00347418 0.00772821 0)
(-0.00492901 0.00749182 0)
(-0.00695984 0.00712085 0)
(-0.00954818 0.00672929 0)
(-0.0125248 0.00625695 0)
(-0.0157288 0.0056172 0)
(-0.0190431 0.00479211 0)
(-0.0223785 0.00375129 0)
(-0.0256194 0.0024173 0)
(-0.0285172 0.000661062 0)
(-0.0307038 -0.00159147 0)
(-0.0317939 -0.00399168 0)
(-0.031838 -0.0061403 0)
(-0.0308762 -0.00788204 0)
(-0.0289121 -0.0091049 0)
(-0.0259938 -0.0096901 0)
(-0.0222538 -0.00947885 0)
(-0.0179518 -0.00830079 0)
(-0.0134508 -0.00602915 0)
(-0.00920873 -0.00289751 0)
(-0.00564106 0.000329362 0)
(-0.00296546 0.00288428 0)
(-0.00125011 0.00412411 0)
(-0.000370054 0.00392922 0)
(-3.90464e-05 0.00279772 0)
(1.48616e-05 0.00109278 0)
(-1.94552e-05 0.00199469 0)
(-0.000221663 0.00537367 0)
(-0.000641391 0.00821698 0)
(-0.00129946 0.010394 0)
(-0.00217734 0.0118667 0)
(-0.00325522 0.0126933 0)
(-0.0045333 0.0129984 0)
(-0.00603646 0.012927 0)
(-0.00779291 0.0126 0)
(-0.00980407 0.0120804 0)
(-0.0120485 0.0113664 0)
(-0.0144964 0.0104242 0)
(-0.0171128 0.00921409 0)
(-0.0198587 0.00768293 0)
(-0.0226701 0.0057526 0)
(-0.0253893 0.00331202 0)
(-0.0277089 0.000212519 0)
(-0.0290003 -0.00320526 0)
(-0.0293827 -0.00645625 0)
(-0.0291005 -0.00956827 0)
(-0.0280886 -0.0125301 0)
(-0.0263163 -0.015253 0)
(-0.0237954 -0.0175179 0)
(-0.0206103 -0.0189877 0)
(-0.0169239 -0.019255 0)
(-0.0129806 -0.0179605 0)
(-0.00910352 -0.0149618 0)
(-0.00565475 -0.0105509 0)
(-0.00296287 -0.005648 0)
(-0.00120538 -0.00160218 0)
(-0.000317344 0.000501872 0)
(-1.22794e-05 0.000670033 0)
(-9.81693e-06 0.00263156 0)
(-0.000131708 0.00711245 0)
(-0.000407448 0.0108839 0)
(-0.000874815 0.0137552 0)
(-0.00154269 0.0156693 0)
(-0.00240296 0.0167199 0)
(-0.0034379 0.0171001 0)
(-0.00462937 0.017016 0)
(-0.00596203 0.0166151 0)
(-0.00742103 0.0159642 0)
(-0.00899327 0.0150676 0)
(-0.0106676 0.0139031 0)
(-0.0124324 0.0124377 0)
(-0.0142771 0.0106189 0)
(-0.0161849 0.00836077 0)
(-0.018083 0.0055257 0)
(-0.0197962 0.00190893 0)
(-0.0211403 -0.00214078 0)
(-0.0218211 -0.00598797 0)
(-0.0223005 -0.00980198 0)
(-0.0224282 -0.0137896 0)
(-0.0220733 -0.0179835 0)
(-0.0211044 -0.0221841 0)
(-0.0194367 -0.0259735 0)
(-0.017074 -0.0287376 0)
(-0.0141285 -0.029772 0)
(-0.0108208 -0.0284331 0)
(-0.00746099 -0.0244097 0)
(-0.00441882 -0.0181078 0)
(-0.00206621 -0.0109403 0)
(-0.000635117 -0.00483495 0)
(-4.05539e-05 -0.000939151 0)
(2.73676e-06 0.00285741 0)
(-1.80095e-05 0.00784629 0)
(-0.000105645 0.012182 0)
(-0.000308278 0.0156028 0)
(-0.000664478 0.0179623 0)
(-0.00119028 0.0192902 0)
(-0.00187106 0.0197708 0)
(-0.00267058 0.0196476 0)
(-0.00354841 0.0191182 0)
(-0.00446858 0.0182901 0)
(-0.00540337 0.0171947 0)
(-0.00633465 0.0158276 0)
(-0.00725374 0.0141653 0)
(-0.00816355 0.0121613 0)
(-0.00907878 0.00973565 0)
(-0.00999142 0.0067652 0)
(-0.0107916 0.00306236 0)
(-0.0116331 -0.00106471 0)
(-0.0124369 -0.00492652 0)
(-0.0134337 -0.00870259 0)
(-0.0144707 -0.0128643 0)
(-0.0153769 -0.0176457 0)
(-0.0159306 -0.0229884 0)
(-0.0158928 -0.0285571 0)
(-0.0150894 -0.0336611 0)
(-0.0134642 -0.0373633 0)
(-0.0111068 -0.0385836 0)
(-0.00825413 -0.0363705 0)
(-0.00527769 -0.0303195 0)
(-0.00266199 -0.0212329 0)
(-0.000880776 -0.011374 0)
(-6.53448e-05 -0.00312328 0)
(1.0402e-05 0.00277274 0)
(6.80831e-05 0.00778432 0)
(0.000136996 0.0123278 0)
(0.000169856 0.0160957 0)
(0.000111676 0.0188509 0)
(-7.65876e-05 0.020512 0)
(-0.000393705 0.0211559 0)
(-0.00080066 0.0210303 0)
(-0.00123879 0.0203815 0)
(-0.00164914 0.019375 0)
(-0.00198648 0.018088 0)
(-0.00222533 0.016546 0)
(-0.00236095 0.0147426 0)
(-0.00241047 0.0126393 0)
(-0.00241487 0.0101543 0)
(-0.00242479 0.00715686 0)
(-0.00239431 0.00352766 0)
(-0.00263303 -0.000453216 0)
(-0.00358503 -0.00396307 0)
(-0.00481957 -0.0072731 0)
(-0.00630437 -0.0110073 0)
(-0.00797573 -0.0156138 0)
(-0.00963542 -0.0212236 0)
(-0.0109769 -0.0277595 0)
(-0.0116737 -0.0345955 0)
(-0.0114896 -0.0407262 0)
(-0.0103423 -0.044755 0)
(-0.00833729 -0.0451795 0)
(-0.00576849 -0.0407191 0)
(-0.00314171 -0.0311482 0)
(-0.00111603 -0.0183205 0)
(-9.36717e-05 -0.00561828 0)
(1.38791e-05 0.0025444 0)
(0.000116788 0.00731652 0)
(0.000286382 0.011834 0)
(0.00048483 0.0157612 0)
(0.000655143 0.0187829 0)
(0.000753902 0.0207103 0)
(0.000771539 0.021541 0)
(0.0007406 0.0214596 0)
(0.000728183 0.0207224 0)
(0.000809827 0.0195505 0)
(0.0010438 0.0180815 0)
(0.00145713 0.0163842 0)
(0.00204297 0.014476 0)
(0.00276113 0.0123283 0)
(0.00353516 0.0098561 0)
(0.00426816 0.00689563 0)
(0.00480043 0.00347493 0)
(0.00487881 6.0353e-05 0)
(0.00375642 -0.00297968 0)
(0.00236161 -0.00583858 0)
(0.000747956 -0.0089831 0)
(-0.00124161 -0.0131185 0)
(-0.00341789 -0.0183042 0)
(-0.00563797 -0.0249913 0)
(-0.00752149 -0.0327542 0)
(-0.00867938 -0.0407279 0)
(-0.0088213 -0.0473437 0)
(-0.00786779 -0.0507219 0)
(-0.00595765 -0.048776 0)
(-0.0035303 -0.0400534 0)
(-0.0013525 -0.0253012 0)
(-0.000124485 -0.00832354 0)
(1.34419e-05 0.00228507 0)
(0.000128091 0.00671524 0)
(0.00033843 0.0110724 0)
(0.000623443 0.0150165 0)
(0.000938612 0.0181776 0)
(0.00124895 0.0202788 0)
(0.0015491 0.0212349 0)
(0.00187354 0.0211738 0)
(0.00229035 0.020352 0)
(0.0028746 0.0190347 0)
(0.00367935 0.0174169 0)
(0.00471933 0.0156107 0)
(0.00596789 0.0136571 0)
(0.00735786 0.0115357 0)
(0.0087738 0.00916201 0)
(0.0100613 0.0063704 0)
(0.0108423 0.00329529 0)
(0.0108342 0.000440271 0)
(0.00967275 -0.0021339 0)
(0.00809982 -0.00464761 0)
(0.00630776 -0.00739548 0)
(0.0043015 -0.0107623 0)
(0.0020919 -0.0151451 0)
(-0.00046401 -0.0214179 0)
(-0.00306254 -0.0293075 0)
(-0.0053129 -0.0383623 0)
(-0.00670612 -0.0470055 0)
(-0.006931 -0.0532391 0)
(-0.00588923 -0.0543313 0)
(-0.00386067 -0.0475792 0)
(-0.00162139 -0.032079 0)
(-0.000163435 -0.0111862 0)
(9.29139e-06 0.00207205 0)
(9.90732e-05 0.00618524 0)
(0.000280754 0.0103376 0)
(0.000560849 0.0141961 0)
(0.000928509 0.017363 0)
(0.00137583 0.0195053 0)
(0.00191457 0.0204778 0)
(0.00258559 0.0203712 0)
(0.00344948 0.0194462 0)
(0.0045612 0.0180041 0)
(0.00594705 0.0162838 0)
(0.0075948 0.0144293 0)
(0.00945277 0.0124975 0)
(0.0114284 0.0104734 0)
(0.0133717 0.00827762 0)
(0.0150716 0.00576495 0)
(0.016012 0.00312982 0)
(0.0159448 0.000819155 0)
(0.0148042 -0.00128185 0)
(0.0131417 -0.00340178 0)
(0.0111622 -0.00581142 0)
(0.00897674 -0.00883395 0)
(0.00666687 -0.0127842 0)
(0.00418561 -0.0180829 0)
(0.00149366 -0.0251032 0)
(-0.00148159 -0.0345213 0)
(-0.00398904 -0.0444304 0)
(-0.00547891 -0.0531033 0)
(-0.00552238 -0.0574078 0)
(-0.00412543 -0.0535099 0)
(-0.00195651 -0.038513 0)
(-0.000221019 -0.0142342 0)
(-6.26452e-07 0.00196073 0)
(1.10647e-05 0.00588113 0)
(7.10955e-05 0.00985444 0)
(0.000239232 0.0135479 0)
(0.000571357 0.0165681 0)
(0.00110303 0.0185781 0)
(0.00186465 0.0194203 0)
(0.00289947 0.0191751 0)
(0.00424708 0.018119 0)
(0.00592018 0.0165794 0)
(0.00789888 0.0148155 0)
(0.0101351 0.0129819 0)
(0.0125529 0.0111392 0)
(0.0150413 0.00927356 0)
(0.0174274 0.00731307 0)
(0.0194605 0.00513783 0)
(0.0205657 0.00295161 0)
(0.02056 0.00111177 0)
(0.0195494 -0.000550729 0)
(0.0179605 -0.00227473 0)
(0.0159788 -0.00430389 0)
(0.0137197 -0.00693772 0)
(0.0112648 -0.0104974 0)
(0.00864095 -0.0153312 0)
(0.00584259 -0.0216953 0)
(0.00278422 -0.0298678 0)
(-0.000555242 -0.0401697 0)
(-0.00332977 -0.0506476 0)
(-0.00470591 -0.0580369 0)
(-0.00425047 -0.0576323 0)
(-0.00237857 -0.0444241 0)
(-0.000315789 -0.0175441 0)
(-2.09492e-05 0.00202788 0)
(-0.000173027 0.00598476 0)
(-0.00035966 0.00982611 0)
(-0.000422986 0.0132227 0)
(-0.000202659 0.0158845 0)
(0.000406928 0.0175817 0)
(0.00142999 0.0181346 0)
(0.00288121 0.0176585 0)
(0.00476583 0.0164547 0)
(0.007035 0.0148593 0)
(0.00961236 0.0131197 0)
(0.0124158 0.0113766 0)
(0.0153535 0.00968174 0)
(0.0183077 0.00801922 0)
(0.0210979 0.00632564 0)
(0.0234612 0.00450234 0)
(0.0248142 0.00273185 0)
(0.0250218 0.00129068 0)
(0.0243272 9.1549e-06 0)
(0.0229698 -0.001357 0)
(0.0211811 -0.00302123 0)
(0.0190339 -0.00525683 0)
(0.0165704 -0.00836575 0)
(0.0138017 -0.0126581 0)
(0.0107255 -0.0183967 0)
(0.00733591 -0.0258058 0)
(0.00362945 -0.0350334 0)
(-0.000243011 -0.0461192 0)
(-0.00318931 -0.0562001 0)
(-0.00408042 -0.0596771 0)
(-0.00287161 -0.0495262 0)
(-0.000476507 -0.0212092 0)
(-6.84062e-05 0.002381 0)
(-0.000537932 0.00668083 0)
(-0.00112368 0.0104108 0)
(-0.00150766 0.0133191 0)
(-0.00140303 0.0153448 0)
(-0.000689299 0.0164726 0)
(0.000697254 0.0166218 0)
(0.00266419 0.0158595 0)
(0.00515314 0.014523 0)
(0.00805274 0.0129307 0)
(0.0112356 0.0112844 0)
(0.0145995 0.00969174 0)
(0.0180504 0.00818742 0)
(0.0214763 0.00675256 0)
(0.0247054 0.00533263 0)
(0.0274883 0.00384536 0)
(0.0292444 0.00243987 0)
(0.0298468 0.00132382 0)
(0.0296092 0.000351652 0)
(0.0286548 -0.000702324 0)
(0.027229 -0.00203429 0)
(0.025352 -0.00387355 0)
(0.0230097 -0.00648512 0)
(0.0201664 -0.0101473 0)
(0.0167942 -0.0151212 0)
(0.0129032 -0.0216494 0)
(0.00856008 -0.0299641 0)
(0.00391121 -0.0402207 0)
(-0.000621729 -0.0518337 0)
(-0.00334169 -0.0593067 0)
(-0.00333508 -0.0533986 0)
(-0.000733395 -0.0252695 0)
(-0.000181569 0.00322735 0)
(-0.00123014 0.00818411 0)
(-0.00235147 0.0116401 0)
(-0.0030435 0.0137369 0)
(-0.00294359 0.0148448 0)
(-0.00196942 0.0152096 0)
(-0.00010501 0.0148496 0)
(0.00255147 0.0137894 0)
(0.00573161 0.0123784 0)
(0.00931513 0.0108601 0)
(0.0131439 0.00936763 0)
(0.0171145 0.00796805 0)
(0.0211415 0.00667821 0)
(0.0251259 0.00547727 0)
(0.028912 0.00431993 0)
(0.0322745 0.00313876 0)
(0.0346111 0.00204852 0)
(0.0357638 0.00119999 0)
(0.03605 0.000475864 0)
(0.0356175 -0.000316563 0)
(0.0346362 -0.00134931 0)
(0.0330931 -0.0027991 0)
(0.0309272 -0.00488278 0)
(0.0280555 -0.0078396 0)
(0.0244101 -0.0119186 0)
(0.0199798 -0.0173892 0)
(0.0148413 -0.0245724 0)
(0.00917651 -0.0338479 0)
(0.00334279 -0.0452458 0)
(-0.00157277 -0.0561346 0)
(-0.00351348 -0.0554966 0)
(-0.00108396 -0.0296343 0)
(-0.000428623 0.00490394 0)
(-0.0024123 0.0106524 0)
(-0.00405186 0.0133467 0)
(-0.00481181 0.0141925 0)
(-0.00440018 0.0141496 0)
(-0.00286985 0.0136609 0)
(-0.000234263 0.0127508 0)
(0.00330612 0.0114412 0)
(0.00730998 0.0100515 0)
(0.0116861 0.00867732 0)
(0.0162721 0.0073847 0)
(0.0209703 0.00620532 0)
(0.0257012 0.00514188 0)
(0.030372 0.00417396 0)
(0.0348354 0.00326566 0)
(0.0388817 0.00236534 0)
(0.0418605 0.0015558 0)
(0.0435761 0.000938267 0)
(0.0443577 0.000419707 0)
(0.0444056 -0.000152242 0)
(0.0438049 -0.000909863 0)
(0.0425366 -0.00198168 0)
(0.0405152 -0.00353205 0)
(0.0376244 -0.00575069 0)
(0.0337538 -0.00885586 0)
(0.0288415 -0.0131227 0)
(0.0229154 -0.0189376 0)
(0.0161288 -0.0268606 0)
(0.0088432 -0.0374722 0)
(0.00190245 -0.0498278 0)
(-0.0029137 -0.0551735 0)
(-0.00143331 -0.0340895 0)
(-0.000876064 0.00790688 0)
(-0.00407042 0.0139406 0)
(-0.0057491 0.0149551 0)
(-0.00586113 0.0141364 0)
(-0.0044496 0.0128871 0)
(-0.00180637 0.0115885 0)
(0.00216485 0.0101718 0)
(0.00672336 0.00880594 0)
(0.0117359 0.00754095 0)
(0.017051 0.00637398 0)
(0.0225158 0.00532145 0)
(0.0280273 0.00438879 0)
(0.0334966 0.00356898 0)
(0.0388231 0.00284316 0)
(0.0438591 0.00218365 0)
(0.0484025 0.00155444 0)
(0.0517841 0.00100774 0)
(0.0538224 0.000599577 0)
(0.0548775 0.000258929 0)
(0.0551874 -0.00011856 0)
(0.0547823 -0.000621486 0)
(0.0536534 -0.00133849 0)
(0.0517085 -0.00238208 0)
(0.0488146 -0.00388588 0)
(0.0448276 -0.00601741 0)
(0.0396221 -0.00901934 0)
(0.0331252 -0.0132876 0)
(0.0253676 -0.019487 0)
(0.0166043 -0.0285849 0)
(0.00755643 -0.0409867 0)
(-0.000688594 -0.0515377 0)
(-0.00148817 -0.0380952 0)
(-0.00161533 0.013031 0)
(-0.00551642 0.0172057 0)
(-0.0055226 0.0153195 0)
(-0.00333161 0.0127491 0)
(0.000417804 0.0104875 0)
(0.00513033 0.00865027 0)
(0.0105428 0.0071403 0)
(0.0163453 0.00590337 0)
(0.0224056 0.0048664 0)
(0.0285788 0.00397779 0)
(0.0347239 0.00321871 0)
(0.040732 0.00257497 0)
(0.0465088 0.00203154 0)
(0.0519574 0.00157004 0)
(0.0569495 0.00116859 0)
(0.0613158 0.000804072 0)
(0.0644813 0.000500624 0)
(0.0663559 0.000278803 0)
(0.067312 9.21175e-05 0)
(0.06757 -0.000116069 0)
(0.0671558 -0.000396357 0)
(0.0660579 -0.000803096 0)
(0.0641811 -0.00140171 0)
(0.0613879 -0.00227104 0)
(0.0575188 -0.00351752 0)
(0.0523997 -0.00531623 0)
(0.0458409 -0.00799747 0)
(0.0376557 -0.012203 0)
(0.0277755 -0.0190815 0)
(0.0164929 -0.0300471 0)
(0.00438855 -0.0434469 0)
(-0.000172293 -0.0395885 0)
(-0.0012245 0.0182965 0)
(-0.00298591 0.0181771 0)
(0.00336736 0.012623 0)
(0.0104587 0.00926981 0)
(0.0174439 0.00692049 0)
(0.0242611 0.00517839 0)
(0.0309707 0.00390292 0)
(0.0374992 0.0029774 0)
(0.0438037 0.00228609 0)
(0.0498249 0.00175445 0)
(0.055493 0.00134119 0)
(0.060753 0.00101857 0)
(0.0655634 0.000765747 0)
(0.0698855 0.000565102 0)
(0.073661 0.000400635 0)
(0.0768011 0.000259652 0)
(0.0789567 0.000147498 0)
(0.0801471 6.63374e-05 0)
(0.0806738 -4.06091e-06 0)
(0.080674 -8.5008e-05 0)
(0.0801841 -0.000198329 0)
(0.0791686 -0.000368996 0)
(0.0775305 -0.000625007 0)
(0.075143 -0.00100041 0)
(0.0718583 -0.00154468 0)
(0.067494 -0.00235082 0)
(0.0617901 -0.00362297 0)
(0.0543393 -0.00582152 0)
(0.0445256 -0.00992016 0)
(0.0315797 -0.0176159 0)
(0.0154834 -0.0297692 0)
(0.0063112 -0.0334473 0)
(0.0207975 0.0113602 0)
(0.0271887 0.00928804 0)
(0.0402485 0.00542122 0)
(0.0508644 0.00328666 0)
(0.0588275 0.00204868 0)
(0.0651313 0.00126531 0)
(0.0703133 0.000776711 0)
(0.0746457 0.000482313 0)
(0.0783245 0.000304788 0)
(0.0814802 0.000195745 0)
(0.0841946 0.000127732 0)
(0.0865262 8.44552e-05 0)
(0.0885199 5.61502e-05 0)
(0.090206 3.67839e-05 0)
(0.0915933 2.23226e-05 0)
(0.0926681 1.06698e-05 0)
(0.0933347 1.86492e-06 0)
(0.0936358 -4.73308e-06 0)
(0.0936867 -1.12462e-05 0)
(0.0935327 -2.00901e-05 0)
(0.0931761 -3.44799e-05 0)
(0.0925743 -5.82558e-05 0)
(0.0916598 -9.53448e-05 0)
(0.0903547 -0.000150635 0)
(0.08857 -0.000231874 0)
(0.0861846 -0.000356102 0)
(0.0829829 -0.000567106 0)
(0.0785175 -0.000977769 0)
(0.0718209 -0.00186831 0)
(0.060875 -0.00398472 0)
(0.0432856 -0.00919393 0)
(0.0285955 -0.0145319 0)
)
;

boundaryField
{
    movingWall
    {
        type            fixedValue;
        value           uniform (0.1 0 0);
    }
    fixedWalls
    {
        type            noSlip;
    }
    floor
    {
        type            noSlip;
    }
    frontAndBack
    {
        type            empty;
    }
}


// ************************************************************************* //
