/*--------------------------------*- C++ -*----------------------------------*\
| =========                 |                                                 |
| \\      /  F ield         | OpenFOAM: The Open Source CFD Toolbox           |
|  \\    /   O peration     | Version:  2212                                  |
|   \\  /    A nd           | Website:  www.openfoam.com                      |
|    \\/     M anipulation  |                                                 |
\*---------------------------------------------------------------------------*/
FoamFile
{
    version     2.0;
    format      ascii;
    arch        "LSB;label=64;scalar=64";
    class       volScalarField;
    location    "1130";
    object      Xli;
}
// * * * * * * * * * * * * * * * * * * * * * * * * * * * * * * * * * * * * * //

dimensions      [1 -3 0 0 0 0 0];

internalField   nonuniform List<scalar> 
1024
(
0.042265
0.0422654
0.0422664
0.0422681
0.0422708
0.0422748
0.0422801
0.0422868
0.0422945
0.042303
0.0423117
0.04232
0.042327
0.0423313
0.0423317
0.0423277
0.0423195
0.0423089
0.0422975
0.0422859
0.0422743
0.042263
0.0422524
0.0422427
0.0422343
0.0422274
0.0422221
0.0422183
0.0422157
0.0422141
0.0422132
0.0422129
0.0422651
0.0422655
0.0422664
0.0422682
0.042271
0.042275
0.0422805
0.0422872
0.042295
0.0423036
0.0423124
0.0423208
0.0423279
0.0423322
0.0423326
0.0423286
0.0423203
0.0423096
0.0422982
0.0422865
0.0422749
0.0422636
0.0422529
0.0422431
0.0422347
0.0422277
0.0422224
0.0422185
0.0422158
0.0422142
0.0422133
0.0422129
0.0422652
0.0422656
0.0422666
0.0422685
0.0422714
0.0422755
0.0422811
0.0422881
0.0422961
0.0423048
0.0423139
0.0423226
0.04233
0.0423345
0.0423348
0.0423305
0.0423221
0.0423113
0.0422997
0.0422879
0.0422762
0.0422648
0.042254
0.0422441
0.0422355
0.0422284
0.0422228
0.0422188
0.0422161
0.0422144
0.0422135
0.0422131
0.0422654
0.0422658
0.0422669
0.0422688
0.0422719
0.0422762
0.0422821
0.0422893
0.0422976
0.0423067
0.0423163
0.0423256
0.0423337
0.0423385
0.0423387
0.0423341
0.0423252
0.042314
0.0423022
0.0422902
0.0422783
0.0422667
0.0422557
0.0422456
0.0422367
0.0422293
0.0422236
0.0422194
0.0422165
0.0422147
0.0422137
0.0422133
0.0422657
0.0422661
0.0422672
0.0422693
0.0422725
0.0422771
0.0422832
0.0422907
0.0422995
0.0423093
0.0423197
0.0423302
0.0423395
0.042345
0.042345
0.0423397
0.04233
0.0423181
0.0423057
0.0422932
0.042281
0.0422692
0.0422579
0.0422475
0.0422384
0.0422307
0.0422246
0.0422202
0.0422171
0.0422152
0.0422142
0.0422138
0.042266
0.0422665
0.0422676
0.0422697
0.042273
0.0422778
0.0422842
0.0422922
0.0423016
0.0423124
0.0423242
0.0423367
0.0423479
0.0423546
0.0423544
0.042348
0.0423369
0.0423238
0.0423104
0.0422972
0.0422844
0.0422721
0.0422605
0.0422498
0.0422403
0.0422322
0.0422258
0.0422211
0.0422179
0.0422158
0.0422147
0.0422143
0.0422664
0.0422668
0.042268
0.0422701
0.0422735
0.0422785
0.0422851
0.0422936
0.0423038
0.042316
0.04233
0.0423451
0.0423592
0.0423675
0.0423673
0.0423594
0.0423464
0.0423313
0.0423163
0.0423019
0.0422882
0.0422753
0.0422632
0.0422521
0.0422422
0.0422338
0.0422271
0.0422221
0.0422187
0.0422165
0.0422153
0.0422149
0.0422668
0.0422672
0.0422683
0.0422704
0.0422738
0.0422788
0.0422856
0.0422946
0.042306
0.04232
0.0423368
0.0423558
0.0423736
0.0423843
0.0423842
0.0423746
0.0423589
0.0423411
0.0423237
0.0423073
0.0422923
0.0422784
0.0422657
0.0422541
0.0422438
0.0422351
0.0422281
0.042223
0.0422194
0.0422172
0.042216
0.0422155
0.0422673
0.0422677
0.0422688
0.0422707
0.0422739
0.0422788
0.0422859
0.0422954
0.042308
0.0423244
0.042345
0.0423688
0.0423914
0.0424051
0.0424054
0.0423939
0.0423748
0.0423534
0.0423325
0.0423134
0.0422963
0.042281
0.0422674
0.0422553
0.0422447
0.0422358
0.0422287
0.0422235
0.0422199
0.0422176
0.0422164
0.0422159
0.0422686
0.0422689
0.0422697
0.0422714
0.0422744
0.0422791
0.0422862
0.0422963
0.0423105
0.0423299
0.0423551
0.0423848
0.0424131
0.0424305
0.0424314
0.0424178
0.0423948
0.0423686
0.0423432
0.0423201
0.0423
0.0422827
0.0422679
0.0422551
0.0422444
0.0422355
0.0422285
0.0422234
0.04222
0.0422178
0.0422166
0.0422161
0.0422718
0.042272
0.0422726
0.0422739
0.0422764
0.0422809
0.042288
0.0422989
0.0423151
0.0423382
0.0423692
0.0424059
0.0424404
0.0424613
0.0424629
0.0424473
0.0424202
0.0423883
0.0423568
0.0423282
0.0423037
0.0422835
0.042267
0.0422535
0.0422426
0.042234
0.0422274
0.0422227
0.0422195
0.0422176
0.0422165
0.0422161
0.0422804
0.0422804
0.0422805
0.0422814
0.0422834
0.0422876
0.042295
0.0423071
0.0423259
0.0423537
0.0423913
0.0424353
0.0424758
0.0424999
0.0425021
0.0424854
0.0424548
0.0424166
0.0423773
0.042341
0.0423102
0.0422854
0.042266
0.0422511
0.0422399
0.0422316
0.0422257
0.0422217
0.0422191
0.0422177
0.042217
0.0422168
0.0423002
0.0423
0.0422998
0.0423002
0.0423019
0.0423061
0.0423143
0.0423284
0.0423508
0.0423839
0.0424281
0.0424786
0.0425234
0.04255
0.0425541
0.0425389
0.0425076
0.0424646
0.0424171
0.0423709
0.0423303
0.0422974
0.0422721
0.0422537
0.0422409
0.0422324
0.0422272
0.0422244
0.0422233
0.0422232
0.0422235
0.0422239
0.0423385
0.0423382
0.042338
0.0423385
0.0423406
0.0423456
0.0423555
0.0423726
0.0423995
0.0424382
0.0424878
0.0425424
0.0425895
0.0426188
0.0426287
0.0426219
0.042598
0.042558
0.0425079
0.0424539
0.0424017
0.0423556
0.0423181
0.0422899
0.0422706
0.0422591
0.0422536
0.0422525
0.042254
0.0422566
0.0422591
0.0422605
0.0423975
0.0423975
0.0423979
0.0423994
0.0424031
0.0424106
0.0424241
0.0424463
0.0424796
0.0425247
0.0425789
0.0426348
0.0426829
0.0427184
0.0427422
0.042756
0.0427557
0.0427376
0.042704
0.0426593
0.0426086
0.0425566
0.0425076
0.0424647
0.0424307
0.0424068
0.0423923
0.0423861
0.0423857
0.0423883
0.0423915
0.0423935
0.0424675
0.042468
0.0424695
0.0424731
0.0424801
0.0424925
0.0425126
0.0425424
0.0425833
0.0426339
0.0426906
0.0427481
0.0428023
0.0428522
0.0428989
0.0429432
0.0429804
0.0430035
0.0430115
0.0430058
0.0429881
0.0429604
0.0429253
0.042886
0.0428457
0.0428075
0.0427744
0.042749
0.042732
0.0427227
0.0427188
0.0427179
0.0425252
0.0425259
0.0425281
0.042533
0.0425422
0.0425577
0.0425814
0.0426151
0.0426593
0.0427129
0.0427731
0.042836
0.0428988
0.0429604
0.0430208
0.0430801
0.0431347
0.0431805
0.0432187
0.04325
0.0432736
0.043288
0.0432921
0.0432857
0.0432694
0.0432454
0.043217
0.0431884
0.0431635
0.0431452
0.0431344
0.0431299
0.0425622
0.042563
0.0425654
0.0425706
0.0425803
0.0425962
0.0426204
0.0426544
0.0426987
0.0427522
0.0428123
0.0428756
0.0429386
0.0429987
0.0430539
0.0431025
0.0431417
0.0431743
0.0432073
0.0432428
0.0432797
0.0433152
0.0433465
0.0433712
0.0433875
0.0433948
0.0433937
0.0433864
0.0433758
0.0433653
0.0433577
0.043354
0.0425845
0.0425853
0.0425877
0.0425927
0.0426018
0.0426168
0.0426395
0.0426714
0.0427131
0.0427637
0.0428208
0.0428809
0.04294
0.0429944
0.0430408
0.0430765
0.0430995
0.0431172
0.0431404
0.0431728
0.0432131
0.0432576
0.0433022
0.0433427
0.0433761
0.0434008
0.0434167
0.0434249
0.0434271
0.043426
0.0434239
0.0434224
0.0425979
0.0425987
0.0426009
0.0426055
0.0426137
0.0426271
0.0426473
0.042676
0.0427136
0.0427596
0.0428118
0.0428669
0.0429208
0.0429697
0.0430097
0.0430379
0.0430534
0.0430648
0.0430833
0.0431134
0.0431551
0.0432056
0.0432602
0.0433133
0.0433599
0.0433968
0.0434228
0.0434389
0.0434471
0.0434499
0.0434501
0.0434496
0.0426066
0.0426072
0.0426091
0.0426131
0.0426201
0.0426317
0.0426493
0.0426742
0.0427071
0.0427476
0.042794
0.0428432
0.0428918
0.042936
0.0429725
0.0429989
0.0430146
0.0430276
0.0430467
0.0430763
0.0431175
0.043169
0.0432274
0.0432876
0.0433436
0.0433907
0.043426
0.0434494
0.0434626
0.0434683
0.0434698
0.0434697
0.0426144
0.0426148
0.0426161
0.042619
0.0426246
0.0426341
0.0426489
0.04267
0.0426982
0.0427331
0.0427735
0.042817
0.0428607
0.0429018
0.0429375
0.0429662
0.0429877
0.043007
0.0430304
0.0430615
0.0431021
0.0431522
0.04321
0.0432717
0.0433321
0.0433857
0.0434283
0.0434582
0.0434761
0.0434848
0.0434875
0.0434877
0.0426259
0.0426258
0.0426261
0.0426274
0.042631
0.042638
0.0426497
0.0426673
0.0426911
0.0427212
0.0427566
0.0427955
0.0428361
0.042876
0.0429134
0.0429474
0.0429772
0.0430047
0.0430334
0.0430666
0.0431065
0.043154
0.0432087
0.0432681
0.0433282
0.0433841
0.0434311
0.0434659
0.0434882
0.0434997
0.0435038
0.0435043
0.0426462
0.0426452
0.0426439
0.042643
0.0426439
0.042648
0.0426568
0.0426713
0.042692
0.0427189
0.0427513
0.042788
0.0428276
0.0428684
0.0429093
0.0429496
0.0429877
0.0430224
0.0430553
0.0430896
0.0431279
0.0431717
0.0432214
0.043276
0.0433325
0.0433871
0.0434354
0.0434733
0.043499
0.0435132
0.0435187
0.0435196
0.0426797
0.0426776
0.0426742
0.0426707
0.0426688
0.0426704
0.0426771
0.0426899
0.0427095
0.0427355
0.0427674
0.0428042
0.0428446
0.0428875
0.0429318
0.0429772
0.0430211
0.04306
0.0430947
0.0431285
0.0431638
0.0432026
0.0432462
0.0432941
0.0433448
0.0433955
0.0434422
0.043481
0.0435089
0.0435253
0.0435322
0.0435336
0.0427298
0.0427264
0.0427209
0.0427154
0.042712
0.0427127
0.0427192
0.0427327
0.0427532
0.0427804
0.0428135
0.0428514
0.0428929
0.0429369
0.0429827
0.0430301
0.0430758
0.0431153
0.0431491
0.0431804
0.0432115
0.0432446
0.0432811
0.0433213
0.0433647
0.0434093
0.0434522
0.0434897
0.0435183
0.0435362
0.0435444
0.0435463
0.0427986
0.0427939
0.0427872
0.0427816
0.0427794
0.0427821
0.0427912
0.0428073
0.0428302
0.0428591
0.042893
0.042931
0.0429718
0.0430146
0.0430588
0.0431041
0.0431475
0.0431842
0.0432147
0.0432419
0.043268
0.043295
0.0433242
0.0433564
0.0433915
0.0434286
0.0434658
0.0434999
0.0435276
0.0435461
0.0435554
0.0435577
0.0428871
0.0428816
0.0428759
0.0428735
0.042876
0.0428837
0.042897
0.0429163
0.0429407
0.0429697
0.0430024
0.0430378
0.0430751
0.0431135
0.0431527
0.0431925
0.0432301
0.0432615
0.0432871
0.0433093
0.0433301
0.043351
0.0433732
0.0433975
0.0434243
0.0434533
0.0434834
0.0435125
0.0435375
0.0435554
0.0435651
0.0435679
0.0429968
0.0429917
0.0429903
0.0429946
0.0430038
0.043017
0.0430339
0.0430543
0.0430778
0.043104
0.0431324
0.0431623
0.0431932
0.0432246
0.0432562
0.0432879
0.0433177
0.0433423
0.043362
0.0433789
0.0433943
0.0434095
0.0434254
0.0434426
0.0434617
0.0434826
0.043505
0.0435277
0.0435484
0.0435644
0.0435737
0.0435768
0.0431304
0.0431283
0.0431342
0.0431457
0.0431599
0.0431755
0.0431925
0.0432105
0.0432298
0.0432502
0.0432716
0.0432938
0.0433163
0.0433389
0.0433615
0.043384
0.0434049
0.0434221
0.0434358
0.0434474
0.0434578
0.0434678
0.0434782
0.0434893
0.0435016
0.0435152
0.0435301
0.0435458
0.0435609
0.0435735
0.0435816
0.0435846
0.0432933
0.0432972
0.0433085
0.0433214
0.0433344
0.0433471
0.0433594
0.0433716
0.043384
0.0433966
0.0434096
0.0434228
0.0434362
0.0434495
0.0434627
0.0434757
0.0434878
0.0434978
0.0435056
0.0435122
0.043518
0.0435236
0.0435293
0.0435354
0.0435421
0.0435494
0.0435576
0.0435664
0.0435754
0.0435833
0.0435889
0.0435913
0.0434923
0.0434954
0.0435013
0.0435069
0.0435121
0.043517
0.0435215
0.0435257
0.04353
0.0435342
0.0435385
0.0435428
0.0435471
0.0435514
0.0435557
0.0435599
0.0435638
0.043567
0.0435695
0.0435716
0.0435735
0.0435753
0.043577
0.0435789
0.043581
0.0435833
0.0435858
0.0435885
0.0435914
0.043594
0.0435961
0.043597
)
;

boundaryField
{
    movingWall
    {
        type            fixedValue;
        value           uniform 0.0436;
    }
    fixedWalls
    {
        type            zeroGradient;
    }
    floor
    {
        type            zeroGradient;
    }
    frontAndBack
    {
        type            empty;
    }
}


// ************************************************************************* //
