/*--------------------------------*- C++ -*----------------------------------*\
| =========                 |                                                 |
| \\      /  F ield         | OpenFOAM: The Open Source CFD Toolbox           |
|  \\    /   O peration     | Version:  2212                                  |
|   \\  /    A nd           | Website:  www.openfoam.com                      |
|    \\/     M anipulation  |                                                 |
\*---------------------------------------------------------------------------*/
FoamFile
{
    version     2.0;
    format      ascii;
    arch        "LSB;label=64;scalar=64";
    class       volScalarField;
    location    "1830";
    object      Gch4;
}
// * * * * * * * * * * * * * * * * * * * * * * * * * * * * * * * * * * * * * //

dimensions      [1 -3 0 0 0 0 0];

internalField   nonuniform List<scalar> 
1024
(
1.88097
1.88081
1.88042
1.8797
1.87855
1.87682
1.87437
1.8711
1.86692
1.86188
1.85615
1.84999
1.84378
1.83786
1.83253
1.82805
1.82503
1.8239
1.82445
1.82638
1.82936
1.83306
1.83711
1.84113
1.84478
1.84784
1.85022
1.85196
1.85313
1.85386
1.85425
1.85442
1.88091
1.88076
1.88036
1.87964
1.87848
1.87673
1.87426
1.87095
1.86675
1.86168
1.85592
1.84975
1.84354
1.83762
1.8323
1.82782
1.82478
1.82364
1.82419
1.82611
1.82909
1.83281
1.83688
1.84092
1.84461
1.8477
1.85011
1.85186
1.85305
1.85378
1.85419
1.85435
1.88079
1.88063
1.88023
1.87949
1.8783
1.87652
1.874
1.87063
1.86635
1.86122
1.85541
1.84922
1.84299
1.83708
1.83175
1.82726
1.82419
1.82301
1.82353
1.82545
1.82848
1.83224
1.83637
1.84048
1.84423
1.84739
1.84986
1.85165
1.85286
1.85362
1.85402
1.85419
1.88057
1.8804
1.87999
1.87923
1.878
1.87615
1.87354
1.87007
1.86568
1.86045
1.85456
1.84832
1.84207
1.83616
1.83083
1.82629
1.82314
1.82185
1.82232
1.82428
1.82741
1.83131
1.83557
1.8398
1.84366
1.84691
1.84945
1.8513
1.85255
1.85332
1.85373
1.8539
1.88023
1.88005
1.87962
1.87882
1.87753
1.87559
1.87286
1.86924
1.86469
1.85931
1.85331
1.847
1.84073
1.8348
1.82943
1.82479
1.82146
1.82
1.82038
1.82241
1.82574
1.82991
1.83441
1.83884
1.84286
1.84624
1.84887
1.85077
1.85205
1.85284
1.85326
1.85342
1.87972
1.87954
1.87909
1.87824
1.87687
1.87481
1.87192
1.8681
1.86335
1.85778
1.85163
1.84523
1.83891
1.83293
1.82746
1.82263
1.819
1.81724
1.8175
1.81964
1.82331
1.8279
1.83281
1.83756
1.84181
1.84534
1.84806
1.85002
1.85132
1.85211
1.85252
1.85268
1.87904
1.87885
1.87836
1.87747
1.876
1.87379
1.8707
1.86665
1.86164
1.85583
1.8495
1.84298
1.83658
1.8305
1.82484
1.81969
1.8156
1.81341
1.81348
1.81576
1.81987
1.82507
1.83058
1.8358
1.84038
1.8441
1.84693
1.84893
1.85023
1.851
1.85139
1.85153
1.87816
1.87796
1.87744
1.87648
1.8749
1.87253
1.86921
1.86488
1.85958
1.8535
1.84694
1.84026
1.83371
1.82746
1.82151
1.81589
1.81117
1.80841
1.80819
1.81057
1.81514
1.82106
1.82735
1.83323
1.83827
1.84226
1.84521
1.84723
1.84851
1.84923
1.84958
1.84971
1.87708
1.87687
1.87632
1.87529
1.87359
1.87104
1.86747
1.86284
1.85721
1.85082
1.844
1.8371
1.83035
1.82383
1.81749
1.81127
1.80579
1.80229
1.80159
1.80384
1.80871
1.81529
1.82244
1.82916
1.83483
1.8392
1.84233
1.8444
1.84565
1.84631
1.84661
1.8467
1.87581
1.87559
1.87501
1.87392
1.8721
1.86937
1.86555
1.86061
1.85463
1.8479
1.84078
1.83361
1.82659
1.81974
1.81295
1.8061
1.79977
1.79535
1.79382
1.79547
1.80011
1.80693
1.81474
1.82232
1.82879
1.83374
1.8372
1.8394
1.84067
1.8413
1.84155
1.84161
1.87438
1.87415
1.87355
1.8724
1.87048
1.86758
1.86353
1.85828
1.85197
1.84489
1.83744
1.82997
1.82267
1.81552
1.80835
1.80096
1.79385
1.78832
1.78543
1.78566
1.78909
1.7952
1.80293
1.81097
1.8182
1.82393
1.82799
1.83056
1.83202
1.83272
1.83298
1.83303
1.87284
1.8726
1.87198
1.87079
1.8688
1.86577
1.86152
1.85602
1.84941
1.842
1.83425
1.82654
1.81906
1.81179
1.80451
1.79692
1.78927
1.78251
1.77768
1.7755
1.77641
1.78033
1.78655
1.79394
1.8013
1.80768
1.81253
1.81579
1.81773
1.81874
1.81915
1.81926
1.87126
1.87102
1.8704
1.86919
1.86715
1.86405
1.85969
1.85403
1.84721
1.8396
1.83168
1.82389
1.81648
1.80947
1.80261
1.79546
1.78778
1.77993
1.77284
1.76747
1.7647
1.7649
1.76784
1.77282
1.77886
1.78492
1.79016
1.79412
1.79675
1.79827
1.79901
1.79925
1.86975
1.86952
1.8689
1.8677
1.86569
1.8626
1.85826
1.85259
1.84576
1.83814
1.83029
1.82273
1.81582
1.80964
1.80397
1.79816
1.79132
1.78294
1.77378
1.76511
1.75818
1.75379
1.7522
1.75317
1.75611
1.76017
1.76448
1.7683
1.77121
1.77312
1.77415
1.77455
1.86848
1.86825
1.86765
1.8665
1.86458
1.86165
1.85749
1.85206
1.84548
1.83818
1.83073
1.8238
1.81787
1.81315
1.80946
1.80597
1.80104
1.79306
1.78252
1.77097
1.7601
1.75115
1.74479
1.74115
1.73998
1.74073
1.74267
1.74505
1.74727
1.74894
1.74996
1.7504
1.86769
1.86747
1.8669
1.86585
1.8641
1.86145
1.8577
1.85278
1.84681
1.84018
1.83351
1.82754
1.82292
1.82002
1.81877
1.81826
1.81618
1.80971
1.79878
1.78503
1.77057
1.75722
1.7462
1.73805
1.73275
1.72996
1.72906
1.72939
1.73027
1.73121
1.7319
1.73223
1.8677
1.86748
1.86696
1.86601
1.86448
1.86219
1.85898
1.85477
1.84966
1.84396
1.83828
1.83335
1.82994
1.82858
1.82936
1.83147
1.83239
1.82837
1.81845
1.80381
1.78657
1.76911
1.75341
1.74066
1.73131
1.72517
1.72169
1.72016
1.71982
1.72005
1.7204
1.72062
1.8685
1.86829
1.8678
1.86694
1.8656
1.86364
1.86093
1.85742
1.85314
1.84838
1.84363
1.83958
1.83698
1.83643
1.83816
1.84155
1.84418
1.84222
1.83414
1.82029
1.80217
1.78207
1.76252
1.74552
1.73215
1.72267
1.71667
1.71341
1.71203
1.71171
1.71182
1.71197
1.86981
1.86961
1.86915
1.86835
1.86715
1.86544
1.86313
1.86018
1.85662
1.85266
1.84871
1.84534
1.84324
1.84297
1.8448
1.84825
1.8511
1.84987
1.84306
1.83047
1.81291
1.79211
1.77051
1.75052
1.73386
1.72134
1.71289
1.70789
1.70543
1.70456
1.70446
1.70457
1.87138
1.87119
1.87076
1.87003
1.86893
1.86742
1.86542
1.86291
1.85993
1.85664
1.85336
1.85056
1.84878
1.84849
1.84989
1.85254
1.85445
1.85279
1.84631
1.83466
1.81816
1.79794
1.77592
1.75442
1.73553
1.72057
1.70993
1.70324
1.69967
1.6982
1.69786
1.69792
1.8728
1.87264
1.87228
1.87165
1.8707
1.86937
1.86764
1.86549
1.86298
1.86025
1.85753
1.85518
1.85356
1.85299
1.85353
1.85467
1.85478
1.85184
1.84501
1.83389
1.81848
1.79947
1.77821
1.75657
1.73662
1.71999
1.70755
1.6993
1.69461
1.69249
1.69189
1.69188
1.87343
1.87334
1.87312
1.87271
1.87201
1.87098
1.86956
1.86777
1.86567
1.86337
1.86105
1.85892
1.85718
1.85593
1.8551
1.85413
1.85185
1.84718
1.83968
1.82892
1.81466
1.79716
1.77734
1.75663
1.73672
1.7193
1.70556
1.69596
1.69019
1.68739
1.68648
1.6864
1.87237
1.87241
1.87246
1.87242
1.87219
1.87163
1.87067
1.86929
1.86755
1.86552
1.86331
1.86098
1.85859
1.85611
1.85337
1.84988
1.84502
1.83861
1.83048
1.82016
1.8072
1.79152
1.7736
1.75449
1.73552
1.71817
1.70375
1.6931
1.68634
1.68284
1.68158
1.68142
1.86865
1.86889
1.86934
1.86986
1.87027
1.87037
1.87
1.86905
1.86753
1.86546
1.86287
1.85977
1.85612
1.85189
1.84695
1.84094
1.83382
1.82605
1.81761
1.80793
1.79645
1.78283
1.76719
1.75018
1.7328
1.71627
1.70183
1.69057
1.68297
1.6788
1.67717
1.6769
1.86143
1.86194
1.86286
1.86401
1.86512
1.86587
1.86599
1.86528
1.86365
1.86109
1.85761
1.85322
1.84795
1.84184
1.83488
1.82688
1.81822
1.80974
1.80145
1.79268
1.78282
1.77139
1.75825
1.74369
1.72839
1.71329
1.6995
1.68812
1.67998
1.67521
1.67319
1.6728
1.85017
1.85097
1.85235
1.85396
1.85545
1.85645
1.85663
1.85571
1.85353
1.85008
1.84543
1.83967
1.83294
1.82538
1.8171
1.80804
1.79879
1.79034
1.78265
1.77502
1.76683
1.75758
1.74697
1.73505
1.72219
1.70902
1.69645
1.68552
1.67721
1.67201
1.66963
1.6691
1.8346
1.83568
1.83727
1.83884
1.84001
1.8405
1.84007
1.83841
1.83539
1.83102
1.82543
1.81877
1.81126
1.80312
1.7945
1.78543
1.77654
1.76878
1.76206
1.75572
1.74917
1.74195
1.73374
1.72443
1.71416
1.70329
1.69244
1.68251
1.6745
1.66913
1.66646
1.66578
1.81458
1.81581
1.81712
1.81786
1.81783
1.81706
1.81547
1.81286
1.80913
1.80427
1.7984
1.79168
1.78435
1.77662
1.76866
1.7605
1.75272
1.74613
1.74061
1.73559
1.73058
1.72519
1.71913
1.71224
1.70451
1.69608
1.68732
1.67888
1.67164
1.66645
1.66365
1.66283
1.78983
1.79094
1.79123
1.79035
1.78861
1.78636
1.78367
1.78042
1.77651
1.77188
1.76655
1.76066
1.75439
1.74789
1.74132
1.73472
1.72855
1.7234
1.7192
1.71547
1.71185
1.70805
1.70383
1.69903
1.6936
1.68756
1.68106
1.67448
1.66847
1.66385
1.66114
1.66024
1.7597
1.76011
1.75872
1.75615
1.75314
1.75006
1.74699
1.74385
1.74049
1.73677
1.73268
1.72826
1.72362
1.71887
1.71413
1.70942
1.70506
1.70147
1.69858
1.69606
1.69367
1.69121
1.68851
1.68546
1.68199
1.67809
1.67378
1.66924
1.66484
1.6612
1.65886
1.65799
1.7229
1.722
1.71938
1.71645
1.7136
1.71097
1.70859
1.70635
1.70414
1.70181
1.69932
1.69667
1.69391
1.69111
1.68833
1.68558
1.68306
1.68099
1.67934
1.67791
1.67658
1.67523
1.67377
1.67213
1.67027
1.66816
1.66581
1.66325
1.66066
1.65836
1.65674
1.65605
1.67788
1.67718
1.67584
1.67456
1.67339
1.67236
1.67147
1.67066
1.6699
1.66912
1.6683
1.66743
1.66654
1.66563
1.66473
1.66384
1.66303
1.66236
1.66183
1.66138
1.66096
1.66054
1.66008
1.65958
1.659
1.65835
1.65763
1.65683
1.656
1.65523
1.65465
1.65437
)
;

boundaryField
{
    movingWall
    {
        type            fixedValue;
        value           uniform 1.6535;
    }
    fixedWalls
    {
        type            zeroGradient;
    }
    floor
    {
        type            zeroGradient;
    }
    frontAndBack
    {
        type            empty;
    }
}


// ************************************************************************* //
