/*--------------------------------*- C++ -*----------------------------------*\
| =========                 |                                                 |
| \\      /  F ield         | OpenFOAM: The Open Source CFD Toolbox           |
|  \\    /   O peration     | Version:  2212                                  |
|   \\  /    A nd           | Website:  www.openfoam.com                      |
|    \\/     M anipulation  |                                                 |
\*---------------------------------------------------------------------------*/
FoamFile
{
    version     2.0;
    format      ascii;
    arch        "LSB;label=64;scalar=64";
    class       volScalarField;
    location    "1830";
    object      p;
}
// * * * * * * * * * * * * * * * * * * * * * * * * * * * * * * * * * * * * * //

dimensions      [0 2 -2 0 0 0 0];

internalField   nonuniform List<scalar> 
1024
(
0
-3.31844e-07
-9.81729e-07
-1.70035e-06
-2.21912e-06
-2.3442e-06
-2.05749e-06
-1.5208e-06
-9.65867e-07
-5.19343e-07
-2.93987e-08
1.04751e-06
3.83438e-06
1.0254e-05
2.35711e-05
4.82478e-05
8.37506e-05
0.00011467
0.000120676
9.92314e-05
5.63572e-05
6.39865e-06
-3.48297e-05
-6.21958e-05
-7.85695e-05
-8.78027e-05
-9.26122e-05
-9.45772e-05
-9.4597e-05
-9.33757e-05
-9.17254e-05
-9.05315e-05
-0.0928115
-0.0928118
-0.0928124
-0.092813
-0.0928135
-0.0928137
-0.0928135
-0.0928131
-0.0928127
-0.0928124
-0.092812
-0.0928111
-0.0928084
-0.0928022
-0.0927893
-0.0927652
-0.0927305
-0.0927007
-0.0926958
-0.0927174
-0.0927595
-0.0928081
-0.092848
-0.0928742
-0.0928897
-0.0928983
-0.0929028
-0.0929046
-0.0929048
-0.0929038
-0.0929024
-0.0929012
-0.199424
-0.199425
-0.199426
-0.199426
-0.199427
-0.199427
-0.199427
-0.199427
-0.199427
-0.199427
-0.199427
-0.199426
-0.199424
-0.199418
-0.199406
-0.199383
-0.199349
-0.199321
-0.199318
-0.19934
-0.199381
-0.199428
-0.199466
-0.19949
-0.199504
-0.199512
-0.199515
-0.199517
-0.199517
-0.199516
-0.199515
-0.199513
-0.321892
-0.321892
-0.321893
-0.321894
-0.321895
-0.321895
-0.321895
-0.321896
-0.321896
-0.321896
-0.321897
-0.321897
-0.321896
-0.321891
-0.32188
-0.321858
-0.321826
-0.3218
-0.321798
-0.321821
-0.32186
-0.321906
-0.321942
-0.321965
-0.321977
-0.321982
-0.321985
-0.321985
-0.321985
-0.321984
-0.321982
-0.32198
-0.462571
-0.462572
-0.462574
-0.462575
-0.462575
-0.462576
-0.462577
-0.462578
-0.462579
-0.46258
-0.462582
-0.462583
-0.462582
-0.462579
-0.46257
-0.46255
-0.462521
-0.462497
-0.462496
-0.46252
-0.462558
-0.462602
-0.462637
-0.462657
-0.462666
-0.46267
-0.46267
-0.462669
-0.462668
-0.462667
-0.462664
-0.462662
-0.624173
-0.624174
-0.624176
-0.624177
-0.624178
-0.624179
-0.62418
-0.624182
-0.624184
-0.624187
-0.62419
-0.624192
-0.624194
-0.624193
-0.624186
-0.624169
-0.624143
-0.624122
-0.624122
-0.624146
-0.624184
-0.624226
-0.624259
-0.624276
-0.624282
-0.624282
-0.62428
-0.624278
-0.624276
-0.624274
-0.624271
-0.624269
-0.809808
-0.80981
-0.809811
-0.809813
-0.809814
-0.809816
-0.809818
-0.809821
-0.809825
-0.809829
-0.809834
-0.809839
-0.809843
-0.809845
-0.809842
-0.809828
-0.809806
-0.809787
-0.809788
-0.809811
-0.809847
-0.809886
-0.809917
-0.809933
-0.809936
-0.809933
-0.809928
-0.809924
-0.80992
-0.809918
-0.809915
-0.809914
-1.02305
-1.02305
-1.02306
-1.02306
-1.02306
-1.02306
-1.02307
-1.02307
-1.02308
-1.02308
-1.02309
-1.0231
-1.02311
-1.02311
-1.02311
-1.0231
-1.02308
-1.02307
-1.02307
-1.02309
-1.02312
-1.02316
-1.02318
-1.0232
-1.0232
-1.02319
-1.02318
-1.02318
-1.02317
-1.02317
-1.02317
-1.02317
-1.26802
-1.26802
-1.26802
-1.26802
-1.26802
-1.26803
-1.26803
-1.26804
-1.26805
-1.26806
-1.26807
-1.26808
-1.26809
-1.2681
-1.2681
-1.2681
-1.26808
-1.26807
-1.26807
-1.26808
-1.26811
-1.26814
-1.26816
-1.26817
-1.26817
-1.26816
-1.26815
-1.26815
-1.26814
-1.26814
-1.26814
-1.26814
-1.54941
-1.54942
-1.54942
-1.54942
-1.54943
-1.54943
-1.54944
-1.54944
-1.54945
-1.54947
-1.54948
-1.54949
-1.54951
-1.54952
-1.54953
-1.54954
-1.54952
-1.54951
-1.54951
-1.54951
-1.54953
-1.54954
-1.54956
-1.54956
-1.54956
-1.54955
-1.54954
-1.54954
-1.54954
-1.54953
-1.54953
-1.54954
-1.87267
-1.87267
-1.87268
-1.87268
-1.87268
-1.87269
-1.8727
-1.87271
-1.87272
-1.87273
-1.87275
-1.87277
-1.87279
-1.87281
-1.87282
-1.87283
-1.87282
-1.87281
-1.8728
-1.8728
-1.8728
-1.8728
-1.87279
-1.87279
-1.87278
-1.87278
-1.87277
-1.87277
-1.87277
-1.87277
-1.87277
-1.87277
-2.24402
-2.24402
-2.24402
-2.24402
-2.24403
-2.24403
-2.24404
-2.24405
-2.24407
-2.24408
-2.2441
-2.24412
-2.24415
-2.24417
-2.24419
-2.24421
-2.24421
-2.24419
-2.24418
-2.24416
-2.24414
-2.24413
-2.24411
-2.24409
-2.24408
-2.24407
-2.24407
-2.24407
-2.24407
-2.24407
-2.24407
-2.24408
-2.67059
-2.6706
-2.6706
-2.6706
-2.67061
-2.67061
-2.67062
-2.67063
-2.67065
-2.67067
-2.67069
-2.67071
-2.67074
-2.67077
-2.6708
-2.67082
-2.67082
-2.67081
-2.67079
-2.67076
-2.67073
-2.6707
-2.67066
-2.67064
-2.67062
-2.6706
-2.6706
-2.6706
-2.6706
-2.67061
-2.67061
-2.67061
-3.16062
-3.16062
-3.16063
-3.16063
-3.16063
-3.16064
-3.16065
-3.16066
-3.16068
-3.1607
-3.16072
-3.16075
-3.16078
-3.16081
-3.16084
-3.16087
-3.16088
-3.16087
-3.16085
-3.16081
-3.16077
-3.16073
-3.16068
-3.16065
-3.16062
-3.1606
-3.1606
-3.1606
-3.1606
-3.1606
-3.1606
-3.16061
-3.72353
-3.72353
-3.72353
-3.72354
-3.72354
-3.72355
-3.72356
-3.72357
-3.72359
-3.72361
-3.72363
-3.72366
-3.72369
-3.72373
-3.72376
-3.72379
-3.7238
-3.7238
-3.72378
-3.72374
-3.7237
-3.72365
-3.72361
-3.72356
-3.72353
-3.72351
-3.7235
-3.72349
-3.7235
-3.7235
-3.7235
-3.7235
-4.37015
-4.37015
-4.37015
-4.37015
-4.37016
-4.37016
-4.37017
-4.37019
-4.3702
-4.37022
-4.37025
-4.37028
-4.37031
-4.37035
-4.37039
-4.37042
-4.37043
-4.37043
-4.37041
-4.37038
-4.37034
-4.3703
-4.37025
-4.37021
-4.37017
-4.37014
-4.37013
-4.37012
-4.37012
-4.37013
-4.37013
-4.37013
-5.0615
-5.0615
-5.0615
-5.0615
-5.0615
-5.06151
-5.06152
-5.06153
-5.06155
-5.06157
-5.0616
-5.06163
-5.06166
-5.0617
-5.06174
-5.06177
-5.06179
-5.06179
-5.06177
-5.06175
-5.06172
-5.06168
-5.06164
-5.0616
-5.06156
-5.06153
-5.06151
-5.0615
-5.0615
-5.0615
-5.06151
-5.06151
-5.70808
-5.70808
-5.70808
-5.70808
-5.70808
-5.70809
-5.7081
-5.70811
-5.70813
-5.70815
-5.70818
-5.70821
-5.70825
-5.70829
-5.70833
-5.70836
-5.70838
-5.70837
-5.70836
-5.70834
-5.70832
-5.70829
-5.70825
-5.70822
-5.70818
-5.70815
-5.70812
-5.70811
-5.70811
-5.70811
-5.70812
-5.70812
-6.27094
-6.27093
-6.27093
-6.27093
-6.27094
-6.27094
-6.27095
-6.27097
-6.27099
-6.27101
-6.27104
-6.27107
-6.27111
-6.27115
-6.2712
-6.27123
-6.27125
-6.27125
-6.27123
-6.27121
-6.27119
-6.27116
-6.27113
-6.2711
-6.27107
-6.27103
-6.27101
-6.27099
-6.27099
-6.27099
-6.271
-6.271
-6.76091
-6.76091
-6.76091
-6.76091
-6.76091
-6.76092
-6.76093
-6.76094
-6.76096
-6.76099
-6.76102
-6.76105
-6.7611
-6.76114
-6.76119
-6.76123
-6.76125
-6.76124
-6.76122
-6.7612
-6.76117
-6.76115
-6.76112
-6.76109
-6.76106
-6.76102
-6.761
-6.76098
-6.76097
-6.76097
-6.76098
-6.76098
-7.18746
-7.18745
-7.18745
-7.18745
-7.18745
-7.18746
-7.18746
-7.18748
-7.18749
-7.18752
-7.18755
-7.18759
-7.18764
-7.18769
-7.18774
-7.18778
-7.18781
-7.1878
-7.18778
-7.18775
-7.18772
-7.18769
-7.18766
-7.18763
-7.18759
-7.18755
-7.18752
-7.18749
-7.18748
-7.18748
-7.18748
-7.18749
-7.55877
-7.55877
-7.55877
-7.55877
-7.55877
-7.55877
-7.55878
-7.55878
-7.5588
-7.55882
-7.55886
-7.5589
-7.55895
-7.55901
-7.55907
-7.55912
-7.55914
-7.55914
-7.55912
-7.55909
-7.55905
-7.55901
-7.55897
-7.55893
-7.55889
-7.55884
-7.55879
-7.55875
-7.55873
-7.55872
-7.55873
-7.55874
-7.88202
-7.88202
-7.88202
-7.88202
-7.88202
-7.88202
-7.88201
-7.88202
-7.88203
-7.88205
-7.88209
-7.88214
-7.8822
-7.88226
-7.88233
-7.88238
-7.88241
-7.88241
-7.88239
-7.88235
-7.88231
-7.88226
-7.88221
-7.88215
-7.88209
-7.88203
-7.88196
-7.8819
-7.88186
-7.88184
-7.88184
-7.88186
-8.16343
-8.16343
-8.16343
-8.16343
-8.16342
-8.16341
-8.16341
-8.1634
-8.16341
-8.16343
-8.16346
-8.16352
-8.16359
-8.16366
-8.16373
-8.16379
-8.16383
-8.16383
-8.1638
-8.16377
-8.16372
-8.16366
-8.16359
-8.16351
-8.16343
-8.16334
-8.16324
-8.16316
-8.16309
-8.16305
-8.16305
-8.16306
-8.40841
-8.40841
-8.40841
-8.40841
-8.4084
-8.40838
-8.40837
-8.40835
-8.40835
-8.40837
-8.40841
-8.40848
-8.40855
-8.40863
-8.40871
-8.40878
-8.40881
-8.40882
-8.40879
-8.40875
-8.4087
-8.40863
-8.40855
-8.40844
-8.40832
-8.40819
-8.40806
-8.40793
-8.40782
-8.40775
-8.40774
-8.40774
-8.62168
-8.62168
-8.62168
-8.62168
-8.62166
-8.62164
-8.62161
-8.62159
-8.62159
-8.62161
-8.62165
-8.62172
-8.6218
-8.62189
-8.62198
-8.62205
-8.62209
-8.62209
-8.62207
-8.62203
-8.62197
-8.62189
-8.62179
-8.62166
-8.6215
-8.62132
-8.62112
-8.62094
-8.62078
-8.62066
-8.62061
-8.6206
-8.80736
-8.80736
-8.80736
-8.80734
-8.80732
-8.80728
-8.80725
-8.80722
-8.80722
-8.80724
-8.80729
-8.80736
-8.80745
-8.80755
-8.80764
-8.80771
-8.80775
-8.80776
-8.80774
-8.80769
-8.80763
-8.80754
-8.80742
-8.80726
-8.80706
-8.80683
-8.80656
-8.8063
-8.80606
-8.80587
-8.80576
-8.80572
-8.96902
-8.96902
-8.96901
-8.96899
-8.96894
-8.9689
-8.96885
-8.96882
-8.96881
-8.96884
-8.96889
-8.96897
-8.96907
-8.96917
-8.96926
-8.96934
-8.96938
-8.96939
-8.96937
-8.96932
-8.96925
-8.96916
-8.96902
-8.96884
-8.9686
-8.96831
-8.96798
-8.96762
-8.96727
-8.96697
-8.96676
-8.96666
-9.10981
-9.1098
-9.10977
-9.10971
-9.10965
-9.10959
-9.10954
-9.1095
-9.10949
-9.10952
-9.10958
-9.10966
-9.10976
-9.10987
-9.10996
-9.11004
-9.11009
-9.1101
-9.11008
-9.11003
-9.10996
-9.10985
-9.10971
-9.1095
-9.10924
-9.1089
-9.10849
-9.10803
-9.10755
-9.10709
-9.10673
-9.10651
-9.2325
-9.23243
-9.23233
-9.23223
-9.23214
-9.23206
-9.232
-9.23197
-9.23196
-9.23199
-9.23205
-9.23214
-9.23224
-9.23235
-9.23245
-9.23253
-9.23258
-9.23259
-9.23257
-9.23252
-9.23245
-9.23234
-9.23218
-9.23197
-9.23168
-9.23131
-9.23085
-9.2303
-9.22968
-9.22901
-9.22838
-9.22782
-9.33963
-9.33924
-9.339
-9.33885
-9.33875
-9.33867
-9.33861
-9.33857
-9.33857
-9.33861
-9.33867
-9.33876
-9.33887
-9.33898
-9.33908
-9.33917
-9.33921
-9.33922
-9.3392
-9.33916
-9.33908
-9.33897
-9.33881
-9.33859
-9.33829
-9.3379
-9.33741
-9.33681
-9.33607
-9.33517
-9.33406
-9.3328
-9.43348
-9.43225
-9.43178
-9.43164
-9.43154
-9.43146
-9.43141
-9.43138
-9.43138
-9.43142
-9.43149
-9.43159
-9.43169
-9.43181
-9.43191
-9.432
-9.43204
-9.43206
-9.43204
-9.43199
-9.43191
-9.4318
-9.43164
-9.43142
-9.43112
-9.43073
-9.43023
-9.4296
-9.42879
-9.42769
-9.42609
-9.42382
)
;

boundaryField
{
    movingWall
    {
        type            calculated;
        value           nonuniform List<scalar> 
32
(
-9.47668
-9.47545
-9.47499
-9.47484
-9.47474
-9.47466
-9.47461
-9.47458
-9.47459
-9.47462
-9.47469
-9.47479
-9.4749
-9.47501
-9.47511
-9.4752
-9.47525
-9.47526
-9.47524
-9.47519
-9.47512
-9.47501
-9.47485
-9.47462
-9.47432
-9.47393
-9.47343
-9.47281
-9.472
-9.4709
-9.46929
-9.46703
)
;
    }
    fixedWalls
    {
        type            calculated;
        value           nonuniform List<scalar> 
64
(
6.93889e-18
-0.0928115
-0.199424
-0.321892
-0.462571
-0.624173
-0.809808
-1.02305
-1.26802
-1.54941
-1.87267
-2.24402
-2.67059
-3.16062
-3.72353
-4.37015
-5.0615
-5.70808
-6.27094
-6.76091
-7.18746
-7.55877
-7.88202
-8.16343
-8.40841
-8.62168
-8.80736
-8.96902
-9.10981
-9.2325
-9.33963
-9.43348
-9.05315e-05
-0.0929012
-0.199513
-0.32198
-0.462662
-0.624269
-0.809914
-1.02317
-1.26814
-1.54954
-1.87277
-2.24408
-2.67061
-3.16061
-3.7235
-4.37013
-5.06151
-5.70812
-6.271
-6.76098
-7.18749
-7.55874
-7.88186
-8.16306
-8.40774
-8.6206
-8.80572
-8.96666
-9.10651
-9.22782
-9.3328
-9.42382
)
;
    }
    floor
    {
        type            calculated;
        value           nonuniform List<scalar> 
32
(
0.0431942
0.0431939
0.0431933
0.0431926
0.0431921
0.043192
0.0431923
0.0431928
0.0431934
0.0431939
0.0431944
0.0431955
0.0431983
0.0432048
0.0432181
0.0432429
0.0432784
0.0433094
0.0433155
0.043294
0.0432511
0.0432011
0.0431598
0.0431323
0.0431159
0.0431066
0.0431018
0.0430998
0.0430997
0.0431009
0.0431026
0.0431038
)
;
    }
    frontAndBack
    {
        type            empty;
    }
}


// ************************************************************************* //
