/*--------------------------------*- C++ -*----------------------------------*\
| =========                 |                                                 |
| \\      /  F ield         | OpenFOAM: The Open Source CFD Toolbox           |
|  \\    /   O peration     | Version:  2212                                  |
|   \\  /    A nd           | Website:  www.openfoam.com                      |
|    \\/     M anipulation  |                                                 |
\*---------------------------------------------------------------------------*/
FoamFile
{
    version     2.0;
    format      ascii;
    arch        "LSB;label=64;scalar=64";
    class       surfaceScalarField;
    location    "1830";
    object      phi;
}
// * * * * * * * * * * * * * * * * * * * * * * * * * * * * * * * * * * * * * //

dimensions      [0 3 -1 0 0 0 0];

oriented        oriented;

internalField   nonuniform List<scalar> 
1984
(
2.96871e-10
-2.96858e-10
-2.75777e-10
5.72604e-10
-2.64789e-09
2.3721e-09
-7.05449e-09
4.40656e-09
-1.30393e-08
5.9848e-09
-1.97748e-08
6.73546e-09
-2.65208e-08
6.74605e-09
-3.30482e-08
6.52732e-09
-3.97649e-08
6.71669e-09
-4.74977e-08
7.7328e-09
-5.70946e-08
9.59694e-09
-6.91548e-08
1.20602e-08
-8.37407e-08
1.45859e-08
-9.99814e-08
1.62406e-08
-1.14522e-07
1.45401e-08
-1.19026e-07
4.50416e-09
-9.81289e-08
-2.08969e-08
-4.59826e-08
-5.21463e-08
2.8374e-08
-7.43566e-08
1.01216e-07
-7.28419e-08
1.47253e-07
-4.60375e-08
1.58999e-07
-1.17457e-08
1.45843e-07
1.3156e-08
1.21886e-07
2.39568e-08
9.54584e-08
2.64277e-08
7.01811e-08
2.52774e-08
4.74033e-08
2.27778e-08
2.79399e-08
1.94634e-08
1.28729e-08
1.5067e-08
3.37928e-09
9.49361e-09
-2.38689e-10
3.61798e-09
-2.38681e-10
-5.71549e-10
2.74644e-10
-4.35657e-09
4.35761e-09
-1.33313e-08
1.13467e-08
-2.81281e-08
1.92034e-08
-4.78426e-08
2.56993e-08
-7.04515e-08
2.93444e-08
-9.39368e-08
3.02313e-08
-1.17507e-07
3.00973e-08
-1.4211e-07
3.13201e-08
-1.69935e-07
3.55576e-08
-2.03298e-07
4.29602e-08
-2.43663e-07
5.24253e-08
-2.90623e-07
6.15457e-08
-3.4036e-07
6.59776e-08
-3.81401e-07
5.55808e-08
-3.88394e-07
1.1497e-08
-3.18587e-07
-9.07034e-08
-1.60852e-07
-2.09881e-07
6.18491e-08
-2.97058e-07
2.79598e-07
-2.90591e-07
4.21201e-07
-1.8764e-07
4.68649e-07
-5.91931e-08
4.43558e-07
3.82468e-08
3.8134e-07
8.61744e-08
3.05874e-07
1.01894e-07
2.29859e-07
1.01292e-07
1.59604e-07
9.30322e-08
9.90766e-08
7.99913e-08
5.17154e-08
6.24282e-08
2.00081e-08
4.1201e-08
3.92354e-09
1.97026e-08
3.68489e-09
-2.63647e-09
2.9111e-09
-1.24119e-08
1.41329e-08
-3.15224e-08
3.04572e-08
-6.07414e-08
4.84224e-08
-9.87394e-08
6.36973e-08
-1.42503e-07
7.3108e-08
-1.8891e-07
7.66381e-08
-2.36597e-07
7.77848e-08
-2.86855e-07
8.15781e-08
-3.42914e-07
9.16164e-08
-4.0817e-07
1.08217e-07
-4.84354e-07
1.28609e-07
-5.69583e-07
1.46775e-07
-6.55434e-07
1.51829e-07
-7.20561e-07
1.20708e-07
-7.21688e-07
1.26243e-08
-5.92457e-07
-2.19934e-07
-3.24601e-07
-4.77738e-07
4.80732e-08
-6.69732e-07
4.16557e-07
-6.59074e-07
6.68311e-07
-4.39395e-07
7.72508e-07
-1.6339e-07
7.54482e-07
5.62726e-08
6.66004e-07
1.74653e-07
5.46281e-07
2.21617e-07
4.18914e-07
2.28659e-07
2.97551e-07
2.14395e-07
1.91024e-07
1.86518e-07
1.05749e-07
1.47703e-07
4.56203e-08
1.0133e-07
1.11612e-08
5.41616e-08
1.48462e-08
-5.78768e-09
8.69874e-09
-2.45525e-08
3.28977e-08
-5.84207e-08
6.43254e-08
-1.07736e-07
9.77378e-08
-1.70355e-07
1.26316e-07
-2.42217e-07
1.44969e-07
-3.19266e-07
1.53687e-07
-3.99675e-07
1.58194e-07
-4.84856e-07
1.66759e-07
-5.78501e-07
1.85261e-07
-6.84258e-07
2.13973e-07
-8.03088e-07
2.47439e-07
-9.30376e-07
2.74063e-07
-1.05174e-06
2.73195e-07
-1.13548e-06
2.04451e-07
-1.12148e-06
-1.37848e-09
-9.27377e-07
-4.14039e-07
-5.56725e-07
-8.4839e-07
-5.61738e-08
-1.17028e-06
4.52188e-07
-1.16744e-06
8.28684e-07
-8.15892e-07
1.01613e-06
-3.50835e-07
1.03139e-06
4.10099e-08
9.36324e-07
2.69721e-07
7.85565e-07
3.72376e-07
6.14271e-07
3.99954e-07
4.44815e-07
3.83851e-07
2.92202e-07
3.39131e-07
1.66786e-07
2.73118e-07
7.49569e-08
1.9316e-07
1.93744e-08
1.09744e-07
3.42207e-08
-1.00463e-08
1.87451e-08
-4.11862e-08
6.40376e-08
-9.53307e-08
1.1847e-07
-1.71826e-07
1.74233e-07
-2.67082e-07
2.21572e-07
-3.75656e-07
2.53544e-07
-4.92573e-07
2.70604e-07
-6.15569e-07
2.8119e-07
-7.45832e-07
2.97022e-07
-8.86666e-07
3.26096e-07
-1.04081e-06
3.68114e-07
-1.20723e-06
4.13858e-07
-1.37755e-06
4.44382e-07
-1.53106e-06
4.26709e-07
-1.62712e-06
3.0051e-07
-1.59176e-06
-3.67432e-08
-1.33651e-06
-6.69281e-07
-8.81638e-07
-1.30327e-06
-2.97933e-07
-1.75399e-06
3.17948e-07
-1.78332e-06
8.28426e-07
-1.32637e-06
1.12804e-06
-6.5045e-07
1.20903e-06
-3.99802e-08
1.13365e-06
3.451e-07
9.72966e-07
5.33063e-07
7.73994e-07
5.98926e-07
5.68481e-07
5.89364e-07
3.78402e-07
5.2921e-07
2.18923e-07
4.32597e-07
9.97587e-08
3.12324e-07
2.61519e-08
1.83351e-07
6.03726e-08
-1.55362e-08
3.42813e-08
-6.27464e-08
1.11248e-07
-1.43236e-07
1.98959e-07
-2.54836e-07
2.85834e-07
-3.91825e-07
3.58561e-07
-5.46858e-07
4.08576e-07
-7.13781e-07
4.37527e-07
-8.89669e-07
4.57078e-07
-1.07493e-06
4.82286e-07
-1.27154e-06
5.22701e-07
-1.48018e-06
5.76754e-07
-1.69694e-06
6.30625e-07
-1.90948e-06
6.56913e-07
-2.09176e-06
6.08996e-07
-2.19695e-06
4.05694e-07
-2.14355e-06
-9.01404e-08
-1.84478e-06
-9.68048e-07
-1.33673e-06
-1.81132e-06
-7.14115e-07
-2.3766e-06
-3.97801e-08
-2.45765e-06
5.90968e-07
-1.95712e-06
1.02696e-06
-1.08644e-06
1.21015e-06
-2.23177e-07
1.18816e-06
3.67091e-07
1.04537e-06
6.75853e-07
8.43196e-07
8.01102e-07
6.2369e-07
8.08871e-07
4.16131e-07
7.36769e-07
2.40503e-07
6.08224e-07
1.09182e-07
4.43645e-07
2.84322e-08
2.64101e-07
8.88048e-08
-2.22495e-08
5.65308e-08
-8.91094e-08
1.78108e-07
-2.01792e-07
3.11641e-07
-3.56216e-07
4.40258e-07
-5.4394e-07
5.46285e-07
-7.55132e-07
6.19768e-07
-9.81948e-07
6.64344e-07
-1.22028e-06
6.95407e-07
-1.46912e-06
7.31131e-07
-1.7284e-06
7.81974e-07
-1.99619e-06
8.44549e-07
-2.26566e-06
9.00099e-07
-2.52134e-06
9.12587e-07
-2.73414e-06
8.21795e-07
-2.85481e-06
5.26368e-07
-2.80098e-06
-1.43971e-07
-2.48984e-06
-1.27919e-06
-1.96494e-06
-2.33622e-06
-1.32595e-06
-3.01559e-06
-6.4525e-07
-3.13835e-06
4.3288e-08
-2.64566e-06
6.33285e-07
-1.67644e-06
9.6322e-07
-5.53112e-07
1.03545e-06
2.94864e-07
9.43167e-07
7.68133e-07
7.6942e-07
9.74848e-07
5.67822e-07
1.01047e-06
3.74371e-07
9.3022e-07
2.12304e-07
7.70291e-07
9.40648e-08
5.61884e-07
2.3755e-08
3.3441e-07
1.1256e-07
-2.98281e-08
8.63588e-08
-1.18909e-07
2.67189e-07
-2.68112e-07
4.60844e-07
-4.71329e-07
6.43475e-07
-7.1709e-07
7.92047e-07
-9.92583e-07
8.9526e-07
-1.28765e-06
9.59411e-07
-1.59638e-06
1.00414e-06
-1.91594e-06
1.05069e-06
-2.24409e-06
1.11013e-06
-2.57665e-06
1.17711e-06
-2.9047e-06
1.22815e-06
-3.21128e-06
1.21916e-06
-3.46673e-06
1.07725e-06
-3.62259e-06
6.82228e-07
-3.5993e-06
-1.67257e-07
-3.31404e-06
-1.56445e-06
-2.80803e-06
-2.84223e-06
-2.17821e-06
-3.64541e-06
-1.49706e-06
-3.8195e-06
-8.01942e-07
-3.34078e-06
-1.31852e-07
-2.34653e-06
3.9341e-07
-1.07837e-06
6.28881e-07
5.93929e-08
6.27213e-07
7.698e-07
5.23392e-07
1.07867e-06
3.81275e-07
1.15259e-06
2.4232e-07
1.06918e-06
1.30091e-07
8.82521e-07
5.37215e-08
6.38253e-07
1.2341e-08
3.75791e-07
1.24901e-07
-3.7463e-08
1.23822e-07
-1.49218e-07
3.78944e-07
-3.36235e-07
6.47861e-07
-5.90832e-07
8.98073e-07
-8.98718e-07
1.09993e-06
-1.24389e-06
1.24044e-06
-1.6134e-06
1.32892e-06
-1.99912e-06
1.38985e-06
-2.3964e-06
1.44797e-06
-2.80146e-06
1.51519e-06
-3.20879e-06
1.58444e-06
-3.60871e-06
1.62807e-06
-3.98416e-06
1.59461e-06
-4.30617e-06
1.39926e-06
-4.52758e-06
9.03642e-07
-4.57089e-06
-1.23949e-07
-4.34778e-06
-1.78755e-06
-3.8931e-06
-3.29691e-06
-3.29921e-06
-4.2393e-06
-2.6321e-06
-4.48661e-06
-1.92888e-06
-4.04399e-06
-1.22698e-06
-3.04843e-06
-5.77736e-07
-1.72761e-06
-1.1224e-07
-4.06103e-07
8.4346e-08
5.73214e-07
1.17456e-07
1.04556e-06
8.73863e-08
1.18266e-06
4.53813e-08
1.11118e-06
1.4602e-08
9.133e-07
2.95348e-10
6.5256e-07
-1.83794e-09
3.77924e-07
1.23063e-07
-4.40373e-08
1.67859e-07
-1.76018e-07
5.10924e-07
-3.98048e-07
8.69892e-07
-7.02136e-07
1.20216e-06
-1.07211e-06
1.46991e-06
-1.48909e-06
1.65742e-06
-1.93717e-06
1.777e-06
-2.40594e-06
1.85862e-06
-2.88936e-06
1.93139e-06
-3.38292e-06
2.00875e-06
-3.88086e-06
2.08238e-06
-4.37346e-06
2.12066e-06
-4.84369e-06
2.06484e-06
-5.26223e-06
1.8178e-06
-5.58103e-06
1.22244e-06
-5.72126e-06
1.62847e-08
-5.58855e-06
-1.92027e-06
-5.2146e-06
-3.67086e-06
-4.68562e-06
-4.76828e-06
-4.05479e-06
-5.11744e-06
-3.34906e-06
-4.74973e-06
-2.59513e-06
-3.80236e-06
-1.8293e-06
-2.49344e-06
-1.13383e-06
-1.10158e-06
-6.50116e-07
8.94989e-08
-3.91202e-07
7.86645e-07
-2.51123e-07
1.04258e-06
-1.6305e-07
1.02311e-06
-9.7747e-08
8.47997e-07
-4.72626e-08
6.02075e-07
-1.33247e-08
3.43986e-07
1.09738e-07
-4.84165e-08
2.16276e-07
-1.95124e-07
6.57632e-07
-4.44929e-07
1.1197e-06
-7.9165e-07
1.54888e-06
-1.21907e-06
1.89733e-06
-1.70634e-06
2.14469e-06
-2.23479e-06
2.30544e-06
-2.79176e-06
2.41559e-06
-3.37014e-06
2.50977e-06
-3.96522e-06
2.60384e-06
-4.57125e-06
2.6884e-06
-5.17806e-06
2.72748e-06
-5.76734e-06
2.65411e-06
-6.30738e-06
2.35784e-06
-6.74602e-06
1.66109e-06
-7.00336e-06
2.73625e-07
-6.97846e-06
-1.94517e-06
-6.71191e-06
-3.93741e-06
-6.27684e-06
-5.20335e-06
-5.70564e-06
-5.68864e-06
-5.0057e-06
-5.44967e-06
-4.18625e-06
-4.62182e-06
-3.27752e-06
-3.40217e-06
-2.34985e-06
-2.02925e-06
-1.50769e-06
-7.52653e-07
-9.19199e-07
1.98149e-07
-5.58627e-07
6.82005e-07
-3.25802e-07
7.90283e-07
-1.72047e-07
6.94241e-07
-7.32882e-08
5.03317e-07
-1.80878e-08
2.88785e-07
9.16504e-08
-4.95413e-08
2.65817e-07
-2.02406e-07
8.10497e-07
-4.67938e-07
1.38523e-06
-8.44628e-07
1.92557e-06
-1.31896e-06
2.37166e-06
-1.86968e-06
2.69541e-06
-2.47555e-06
2.91131e-06
-3.12127e-06
3.06131e-06
-3.79824e-06
3.18674e-06
-4.50117e-06
3.30677e-06
-5.22362e-06
3.41086e-06
-5.95374e-06
3.4576e-06
-6.67013e-06
3.37051e-06
-7.33707e-06
3.02478e-06
-7.89931e-06
2.22333e-06
-8.28121e-06
6.55521e-07
-8.38303e-06
-1.84335e-06
-8.24762e-06
-4.07282e-06
-7.93311e-06
-5.51786e-06
-7.44447e-06
-6.17728e-06
-6.76375e-06
-6.13039e-06
-5.88276e-06
-5.50281e-06
-4.82593e-06
-4.459e-06
-3.66369e-06
-3.19149e-06
-2.51194e-06
-1.9044e-06
-1.52544e-06
-7.88351e-07
-8.44226e-07
7.86724e-10
-4.29516e-07
3.75573e-07
-1.94742e-07
4.59467e-07
-6.97773e-08
3.78352e-07
-1.37526e-08
2.32761e-07
7.78978e-08
-4.61625e-08
3.11979e-07
-1.92783e-07
9.57118e-07
-4.55559e-07
1.648e-06
-8.41121e-07
2.31113e-06
-1.34246e-06
2.873e-06
-1.94019e-06
3.29314e-06
-2.61055e-06
3.58167e-06
-3.33413e-06
3.7849e-06
-4.09916e-06
3.95176e-06
-4.89854e-06
4.10615e-06
-5.72433e-06
4.23665e-06
-6.56253e-06
4.2958e-06
-7.38893e-06
4.19691e-06
-8.16562e-06
3.80147e-06
-8.83868e-06
2.89639e-06
-9.34283e-06
1.15967e-06
-9.58112e-06
-1.60506e-06
-9.59697e-06
-4.05697e-06
-9.43146e-06
-5.68338e-06
-9.05893e-06
-6.5498e-06
-8.43459e-06
-6.75473e-06
-7.53463e-06
-6.40276e-06
-6.38126e-06
-5.61237e-06
-5.05224e-06
-4.52051e-06
-3.6737e-06
-3.28294e-06
-2.39377e-06
-2.06828e-06
-1.35342e-06
-1.03956e-06
-6.65933e-07
-3.11918e-07
-2.75893e-07
6.94265e-08
-8.69518e-08
1.89411e-07
-1.38968e-08
1.59706e-07
6.40011e-08
-3.65998e-08
3.48579e-07
-1.59244e-07
1.07976e-06
-3.91336e-07
1.8801e-06
-7.51442e-07
2.67124e-06
-1.24422e-06
3.36578e-06
-1.856e-06
3.90492e-06
-2.56077e-06
4.28643e-06
-3.33235e-06
4.55647e-06
-4.15253e-06
4.77194e-06
-5.01048e-06
4.9641e-06
-5.89668e-06
5.12286e-06
-6.79659e-06
5.1957e-06
-7.68627e-06
5.08659e-06
-8.53036e-06
4.64556e-06
-9.28218e-06
3.64821e-06
-9.89131e-06
1.7688e-06
-1.0265e-05
-1.23134e-06
-1.04494e-05
-3.87255e-06
-1.04717e-05
-5.66117e-06
-1.02754e-05
-6.74609e-06
-9.78698e-06
-7.24312e-06
-8.96279e-06
-7.22696e-06
-7.81424e-06
-6.76091e-06
-6.41538e-06
-5.91937e-06
-4.89402e-06
-4.80429e-06
-3.41095e-06
-3.55134e-06
-2.12582e-06
-2.32469e-06
-1.14775e-06
-1.28999e-06
-5.18182e-07
-5.60146e-07
-1.78974e-07
-1.49797e-07
-3.31873e-08
1.39189e-08
3.08138e-08
-1.92006e-08
3.6778e-07
-9.42276e-08
1.15479e-06
-2.56087e-07
2.04196e-06
-5.38226e-07
2.95338e-06
-9.63317e-07
3.79087e-06
-1.5304e-06
4.472e-06
-2.21407e-06
4.97011e-06
-2.97854e-06
5.32094e-06
-3.79389e-06
5.58729e-06
-4.64205e-06
5.81226e-06
-5.51208e-06
5.99289e-06
-6.39242e-06
6.07604e-06
-7.26536e-06
5.95953e-06
-8.10536e-06
5.48556e-06
-8.88077e-06
4.42361e-06
-9.55932e-06
2.44735e-06
-1.00516e-05
-7.39089e-07
-1.0418e-05
-3.50614e-06
-1.06816e-05
-5.39755e-06
-1.07581e-05
-6.66963e-06
-1.05397e-05
-7.46151e-06
-9.94994e-06
-7.81668e-06
-8.9704e-06
-7.74046e-06
-7.65111e-06
-7.23866e-06
-6.10394e-06
-6.35146e-06
-4.48686e-06
-5.16843e-06
-2.97822e-06
-3.83333e-06
-1.73713e-06
-2.53108e-06
-8.528e-07
-1.44447e-06
-3.19854e-07
-6.82743e-07
-6.57721e-08
-2.40163e-07
-3.49583e-08
5.28718e-09
3.62493e-07
6.217e-10
1.15945e-06
-4.73737e-08
2.08995e-06
-1.83176e-07
3.08918e-06
-4.51341e-07
4.05903e-06
-8.76364e-07
4.89703e-06
-1.44498e-06
5.53872e-06
-2.11246e-06
5.98842e-06
-2.83211e-06
6.30695e-06
-3.57152e-06
6.55168e-06
-4.3144e-06
6.73576e-06
-5.05418e-06
6.81582e-06
-5.78681e-06
6.69216e-06
-6.50809e-06
6.20684e-06
-7.21746e-06
5.13299e-06
-7.91717e-06
3.14706e-06
-8.51284e-06
-1.43418e-07
-9.05895e-06
-2.96002e-06
-9.62312e-06
-4.83339e-06
-1.00994e-05
-6.19334e-06
-1.03372e-05
-7.22372e-06
-1.02061e-05
-7.94782e-06
-9.6268e-06
-8.31972e-06
-8.59871e-06
-8.26675e-06
-7.19851e-06
-7.75166e-06
-5.57024e-06
-6.7967e-06
-3.90544e-06
-5.49813e-06
-2.41e-06
-4.02652e-06
-1.25043e-06
-2.60404e-06
-4.95561e-07
-1.43761e-06
-1.0839e-07
-6.27333e-07
-1.43348e-07
2.87417e-08
3.33751e-07
9.62262e-08
1.09197e-06
1.75749e-07
2.01043e-06
2.24442e-07
3.04049e-06
1.89832e-07
4.09364e-06
2.69649e-08
5.05989e-06
-2.77364e-07
5.84305e-06
-6.95447e-07
6.40651e-06
-1.17302e-06
6.78452e-06
-1.65678e-06
7.03544e-06
-2.11101e-06
7.18999e-06
-2.52838e-06
7.23319e-06
-2.9156e-06
7.07938e-06
-3.28395e-06
6.57519e-06
-3.64956e-06
5.4986e-06
-4.06609e-06
3.56358e-06
-4.57267e-06
3.63161e-07
-5.19219e-06
-2.3405e-06
-5.96194e-06
-4.06364e-06
-6.80975e-06
-5.34553e-06
-7.57831e-06
-6.45517e-06
-8.10273e-06
-7.42339e-06
-8.21814e-06
-8.20431e-06
-7.84056e-06
-8.64433e-06
-6.9756e-06
-8.61663e-06
-5.71841e-06
-8.05389e-06
-4.23932e-06
-6.97722e-06
-2.75866e-06
-5.50719e-06
-1.50021e-06
-3.86249e-06
-6.17649e-07
-2.32017e-06
-1.39825e-07
-1.10516e-06
-2.83173e-07
4.05266e-08
2.93224e-07
1.49418e-07
9.83079e-07
3.08606e-07
1.85124e-06
4.83698e-07
2.86539e-06
6.28262e-07
3.94908e-06
6.95583e-07
4.99257e-06
6.54165e-07
5.88447e-06
5.06477e-07
6.5542e-06
2.9372e-07
6.99728e-06
7.40837e-08
7.25507e-06
-1.03102e-07
7.36718e-06
-2.16307e-07
7.3464e-06
-2.70841e-07
7.13391e-06
-2.88238e-07
6.59259e-06
-3.0099e-07
5.51136e-06
-3.21384e-07
3.58397e-06
-5.89299e-07
6.31076e-07
-1.139e-06
-1.7908e-06
-1.85311e-06
-3.34953e-06
-2.7406e-06
-4.45803e-06
-3.71849e-06
-5.47729e-06
-4.67532e-06
-6.46656e-06
-5.38405e-06
-7.49558e-06
-5.68796e-06
-8.34042e-06
-5.50606e-06
-8.79853e-06
-4.85519e-06
-8.70475e-06
-3.84309e-06
-7.98933e-06
-2.65383e-06
-6.69645e-06
-1.51831e-06
-4.998e-06
-6.49123e-07
-3.18936e-06
-1.51047e-07
-1.60323e-06
-4.3422e-07
4.36059e-08
2.49618e-07
1.6856e-07
8.58125e-07
3.66055e-07
1.65375e-06
6.10559e-07
2.62089e-06
8.62111e-07
3.69753e-06
1.07565e-06
4.77904e-06
1.21532e-06
5.74479e-06
1.27067e-06
6.49885e-06
1.26608e-06
7.00186e-06
1.25115e-06
7.27001e-06
1.27579e-06
7.34254e-06
1.37355e-06
7.24863e-06
1.54643e-06
6.96103e-06
1.76423e-06
6.37479e-06
1.97091e-06
5.30468e-06
2.07483e-06
3.48005e-06
1.86925e-06
8.36655e-07
1.38647e-06
-1.30801e-06
7.60795e-07
-2.72386e-06
-3.80972e-09
-3.69343e-06
-9.30977e-07
-4.55012e-06
-1.9877e-06
-5.40984e-06
-2.98938e-06
-6.49391e-06
-3.73884e-06
-7.59095e-06
-4.07831e-06
-8.45906e-06
-3.94657e-06
-8.83648e-06
-3.37841e-06
-8.5575e-06
-2.50047e-06
-7.57438e-06
-1.51983e-06
-5.97864e-06
-6.80721e-07
-4.02847e-06
-1.63571e-07
-2.12038e-06
-5.97791e-07
4.06001e-08
2.09018e-07
1.62488e-07
7.36237e-07
3.6528e-07
1.45095e-06
6.33326e-07
2.35284e-06
9.35631e-07
3.39522e-06
1.23304e-06
4.48163e-06
1.49088e-06
5.48695e-06
1.69319e-06
6.29654e-06
1.85196e-06
6.84309e-06
2.00332e-06
7.11864e-06
2.19007e-06
7.15579e-06
2.44382e-06
6.99488e-06
2.76684e-06
6.63801e-06
3.1238e-06
6.01783e-06
3.43968e-06
4.98881e-06
3.58039e-06
3.33933e-06
3.37766e-06
1.03939e-06
2.90774e-06
-8.38089e-07
2.29852e-06
-2.11464e-06
1.62737e-06
-3.02229e-06
8.39759e-07
-3.7625e-06
-8.34325e-08
-4.48665e-06
-1.13183e-06
-5.44551e-06
-2.10329e-06
-6.61949e-06
-2.79221e-06
-7.77015e-06
-3.06742e-06
-8.56127e-06
-2.88993e-06
-8.73498e-06
-2.31801e-06
-8.14631e-06
-1.51176e-06
-6.78489e-06
-7.16771e-07
-4.82346e-06
-1.78738e-07
-2.65842e-06
-7.76529e-07
3.38616e-08
1.75157e-07
1.39705e-07
6.30394e-07
3.23622e-07
1.26704e-06
5.79758e-07
2.09671e-06
8.88139e-07
3.08684e-06
1.21945e-06
4.15032e-06
1.54543e-06
5.16097e-06
1.85035e-06
5.99162e-06
2.13822e-06
6.55522e-06
2.43089e-06
6.82597e-06
2.75644e-06
6.83023e-06
3.13504e-06
6.61628e-06
3.56307e-06
6.20998e-06
4.00178e-06
5.57911e-06
4.36989e-06
4.62071e-06
4.5281e-06
3.18112e-06
4.3419e-06
1.22559e-06
3.8915e-06
-3.87692e-07
3.28956e-06
-1.5127e-06
2.60944e-06
-2.34216e-06
1.88623e-06
-3.0393e-06
1.13113e-06
-3.73155e-06
2.36452e-07
-4.55083e-06
-7.54375e-07
-5.62866e-06
-1.64271e-06
-6.88181e-06
-2.22109e-06
-7.98289e-06
-2.38022e-06
-8.57586e-06
-2.10494e-06
-8.42159e-06
-1.49205e-06
-7.39778e-06
-7.59908e-07
-5.5556e-06
-1.99188e-07
-3.21914e-06
-9.75718e-07
2.47913e-08
1.50365e-07
1.05678e-07
5.49507e-07
2.5311e-07
1.1196e-06
4.70625e-07
1.87919e-06
7.51182e-07
2.80628e-06
1.07884e-06
3.82266e-06
1.4359e-06
4.8039e-06
1.81072e-06
5.61681e-06
2.20169e-06
6.16426e-06
2.61564e-06
6.41202e-06
3.06159e-06
6.38428e-06
3.54298e-06
6.1349e-06
4.0469e-06
5.70606e-06
4.53295e-06
5.09306e-06
4.92331e-06
4.23035e-06
5.09305e-06
3.01138e-06
4.93938e-06
1.37925e-06
4.53439e-06
1.73051e-08
3.97464e-06
-9.52945e-07
3.3211e-06
-1.68863e-06
2.62312e-06
-2.34132e-06
1.9113e-06
-3.01973e-06
1.17436e-06
-3.81389e-06
3.30387e-07
-4.78469e-06
-5.89525e-07
-5.96189e-06
-1.37635e-06
-7.19606e-06
-1.82363e-06
-8.12858e-06
-1.83863e-06
-8.40658e-06
-1.44309e-06
-7.79332e-06
-8.03389e-07
-6.1953e-06
-2.25958e-07
-3.79657e-06
-1.20168e-06
1.35282e-08
1.36837e-07
6.15894e-08
5.01446e-07
1.57893e-07
1.0233e-06
3.16769e-07
1.72032e-06
5.46954e-07
2.5761e-06
8.47802e-07
3.52181e-06
1.21386e-06
4.43785e-06
1.63814e-06
5.19253e-06
2.11317e-06
5.68923e-06
2.62955e-06
5.89564e-06
3.17601e-06
5.83783e-06
3.73874e-06
5.57216e-06
4.2958e-06
5.149e-06
4.80732e-06
4.58154e-06
5.20496e-06
3.83271e-06
5.38699e-06
2.82935e-06
5.28583e-06
1.48041e-06
4.95526e-06
3.47874e-07
4.46201e-06
-4.59694e-07
3.87584e-06
-1.10246e-06
3.23689e-06
-1.70237e-06
2.57394e-06
-2.35678e-06
1.8953e-06
-3.13525e-06
1.18024e-06
-4.06962e-06
3.66023e-07
-5.14768e-06
-4.9935e-07
-6.33069e-06
-1.18759e-06
-7.44034e-06
-1.48946e-06
-8.10471e-06
-1.34058e-06
-7.94221e-06
-8.34612e-07
-6.70127e-06
-2.59579e-07
-4.3716e-06
-1.46125e-06
-1.75894e-09
1.38596e-07
1.60165e-09
4.98085e-07
3.1244e-08
9.93658e-07
1.18048e-07
1.63351e-06
2.89703e-07
2.40444e-06
5.58199e-07
3.25332e-06
9.26655e-07
4.06939e-06
1.39095e-06
4.72823e-06
1.93585e-06
5.14432e-06
2.53488e-06
5.29661e-06
3.15852e-06
5.21419e-06
3.77939e-06
4.95129e-06
4.36977e-06
4.55862e-06
4.8931e-06
4.05821e-06
5.29381e-06
3.432e-06
5.4946e-06
2.62856e-06
5.44695e-06
1.52806e-06
5.20267e-06
5.92151e-07
4.81733e-06
-7.43493e-08
4.34245e-06
-6.27583e-07
3.80494e-06
-1.16486e-06
3.22414e-06
-1.77598e-06
2.60587e-06
-2.51697e-06
1.94184e-06
-3.4056e-06
1.21294e-06
-4.41878e-06
3.87203e-07
-5.50495e-06
-4.47688e-07
-6.60545e-06
-1.03099e-06
-7.52141e-06
-1.1607e-06
-7.8125e-06
-8.38688e-07
-7.02328e-06
-3.00115e-07
-4.91017e-06
-1.76137e-06
-2.3895e-08
1.62491e-07
-7.97392e-08
5.53929e-07
-1.30809e-07
1.04473e-06
-1.22785e-07
1.62549e-06
-5.70672e-09
2.28736e-06
2.40681e-07
3.00693e-06
6.17953e-07
3.69212e-06
1.12034e-06
4.22585e-06
1.72317e-06
4.54149e-06
2.38376e-06
4.63602e-06
3.05979e-06
4.53816e-06
3.71665e-06
4.29443e-06
4.32559e-06
3.94968e-06
4.8564e-06
3.52741e-06
5.26795e-06
3.02044e-06
5.50623e-06
2.39028e-06
5.53452e-06
1.49977e-06
5.40201e-06
7.24652e-07
5.14584e-06
1.81819e-07
4.79945e-06
-2.81193e-07
4.38624e-06
-7.51642e-07
3.91114e-06
-1.30088e-06
3.36863e-06
-1.97447e-06
2.74791e-06
-2.78488e-06
2.03997e-06
-3.71084e-06
1.24401e-06
-4.70899e-06
3.68678e-07
-5.73011e-06
-4.41713e-07
-6.71102e-06
-8.8134e-07
-7.37287e-06
-7.98843e-07
-7.10578e-06
-3.44766e-07
-5.36425e-06
-2.10614e-06
-6.04747e-08
2.22966e-07
-1.9486e-07
6.88315e-07
-3.31975e-07
1.18184e-06
-3.93389e-07
1.6869e-06
-3.19172e-07
2.21315e-06
-7.43783e-08
2.76214e-06
3.28254e-07
3.28949e-06
8.7228e-07
3.68182e-06
1.52238e-06
3.89139e-06
2.22471e-06
3.93369e-06
2.93244e-06
3.83043e-06
3.61064e-06
3.61623e-06
4.23412e-06
3.32619e-06
4.78086e-06
2.98067e-06
5.22351e-06
2.57779e-06
5.52627e-06
2.08752e-06
5.65264e-06
1.37341e-06
5.63752e-06
7.39772e-07
5.51362e-06
3.05718e-07
5.30333e-06
-7.09028e-08
5.02e-06
-4.68311e-07
4.65625e-06
-9.37137e-07
4.19593e-06
-1.51414e-06
3.62183e-06
-2.21078e-06
2.92494e-06
-3.01394e-06
2.1116e-06
-3.89566e-06
1.20748e-06
-4.82599e-06
2.68659e-07
-5.7722e-06
-4.77553e-07
-6.62666e-06
-6.92587e-07
-6.89075e-06
-3.83778e-07
-5.67306e-06
-2.48991e-06
-1.21655e-07
3.44621e-07
-3.52548e-07
9.19208e-07
-5.63996e-07
1.39329e-06
-6.61253e-07
1.78416e-06
-5.91122e-07
2.14302e-06
-3.31275e-07
2.50229e-06
1.10888e-07
2.84733e-06
7.03973e-07
3.08874e-06
1.39293e-06
3.20244e-06
2.12385e-06
3.20277e-06
2.85382e-06
3.10046e-06
3.55246e-06
2.91759e-06
4.20007e-06
2.67858e-06
4.78164e-06
2.3991e-06
5.27938e-06
2.08005e-06
5.66727e-06
1.69963e-06
5.89899e-06
1.14169e-06
5.99355e-06
6.45207e-07
5.98793e-06
3.11338e-07
5.89727e-06
1.97628e-08
5.72426e-06
-2.95303e-07
5.456e-06
-6.68881e-07
5.07005e-06
-1.12819e-06
4.5436e-06
-1.68434e-06
3.86299e-06
-2.33332e-06
3.03177e-06
-3.06445e-06
2.07573e-06
-3.86994e-06
1.05104e-06
-4.74751e-06
8.34267e-08
-5.65905e-06
-4.868e-07
-6.32052e-06
-3.97253e-07
-5.76261e-06
-2.88717e-06
-2.14927e-07
5.59548e-07
-5.40941e-07
1.24522e-06
-7.82447e-07
1.6348e-06
-8.565e-07
1.85821e-06
-7.39106e-07
2.02562e-06
-4.27568e-07
2.19075e-06
7.38246e-08
2.34593e-06
7.2007e-07
2.44249e-06
1.44335e-06
2.47916e-06
2.20028e-06
2.44583e-06
2.9553e-06
2.34544e-06
3.68312e-06
2.18977e-06
4.36742e-06
1.99428e-06
4.99582e-06
1.7707e-06
5.55395e-06
1.52193e-06
6.01837e-06
1.23521e-06
6.33185e-06
8.28211e-07
6.50479e-06
4.72273e-07
6.58032e-06
2.35811e-07
6.57105e-06
2.90287e-08
6.47335e-06
-1.97605e-07
6.2726e-06
-4.68128e-07
5.94523e-06
-8.00822e-07
5.46594e-06
-1.20505e-06
4.81547e-06
-1.68286e-06
3.98825e-06
-2.23722e-06
2.99912e-06
-2.88082e-06
1.89154e-06
-3.63992e-06
7.6425e-07
-4.53176e-06
-1.32407e-07
-5.42386e-06
-3.54632e-07
-5.54038e-06
-3.2418e-06
-3.31498e-07
8.91046e-07
-7.04806e-07
1.61853e-06
-8.73636e-07
1.80363e-06
-8.24733e-07
1.80931e-06
-5.84862e-07
1.78575e-06
-1.63699e-07
1.76959e-06
4.20824e-07
1.76141e-06
1.11367e-06
1.74964e-06
1.8678e-06
1.72503e-06
2.64837e-06
1.66526e-06
3.42523e-06
1.56857e-06
4.17534e-06
1.43967e-06
4.88208e-06
1.28755e-06
5.53205e-06
1.12073e-06
6.1111e-06
9.4288e-07
6.59755e-06
7.4876e-07
6.93384e-06
4.91913e-07
7.13138e-06
2.74735e-07
7.23566e-06
1.3153e-07
7.26013e-06
4.56389e-09
7.1993e-06
-1.36779e-07
7.03804e-06
-3.06869e-07
6.75514e-06
-5.17919e-07
6.32605e-06
-7.75958e-07
5.72801e-06
-1.08481e-06
4.94474e-06
-1.45395e-06
3.97208e-06
-1.90816e-06
2.82812e-06
-2.49596e-06
1.57861e-06
-3.28225e-06
4.08235e-07
-4.25349e-06
-2.15368e-07
-4.91678e-06
-3.45717e-06
-4.45656e-07
1.3367e-06
-6.90652e-07
1.86353e-06
-5.80434e-07
1.69341e-06
-2.54931e-07
1.48381e-06
2.09943e-07
1.32088e-06
7.85267e-07
1.19426e-06
1.44527e-06
1.10141e-06
2.16612e-06
1.02879e-06
2.92357e-06
9.67585e-07
3.68915e-06
8.99685e-07
4.43737e-06
8.2035e-07
5.14701e-06
7.30029e-07
5.80177e-06
6.32783e-07
6.38922e-06
5.33272e-07
6.89843e-06
4.33672e-07
7.31483e-06
3.32362e-07
7.59633e-06
2.10407e-07
7.75962e-06
1.11452e-07
7.84581e-06
4.53335e-08
7.86495e-06
-1.45681e-08
7.81129e-06
-8.31216e-08
7.67288e-06
-1.68458e-07
7.43128e-06
-2.76318e-07
7.06479e-06
-4.09474e-07
6.55076e-06
-5.70787e-07
5.8661e-06
-7.69294e-07
4.98734e-06
-1.02939e-06
3.89429e-06
-1.40291e-06
2.59083e-06
-1.97879e-06
1.18958e-06
-2.85225e-06
1.1651e-07
-3.8437e-06
-3.34066e-06
-3.74519e-07
1.71122e-06
1.77681e-08
1.47124e-06
7.19131e-07
9.92045e-07
1.41792e-06
7.85017e-07
2.10308e-06
6.35723e-07
2.78319e-06
5.14151e-07
3.45865e-06
4.25943e-07
4.12534e-06
3.62102e-07
4.77839e-06
3.14539e-07
5.40446e-06
2.73608e-07
5.98939e-06
2.35428e-07
6.52072e-06
1.98699e-07
6.98971e-06
1.6379e-07
7.3915e-06
1.31478e-07
7.72345e-06
1.01728e-07
7.982e-06
7.38127e-08
8.1486e-06
4.38083e-08
8.23969e-06
2.03632e-08
8.28122e-06
3.79724e-09
8.27871e-06
-1.20575e-08
8.22708e-06
-3.14902e-08
8.11602e-06
-5.73949e-08
7.93089e-06
-9.11876e-08
7.65494e-06
-1.33527e-07
7.26972e-06
-1.85567e-07
6.75234e-06
-2.5191e-07
6.06916e-06
-3.4622e-07
5.16734e-06
-5.01083e-07
3.97092e-06
-7.82371e-07
2.42051e-06
-1.30183e-06
7.4711e-07
-2.1703e-06
-2.59355e-06
1.71122e-06
3.18246e-06
4.1745e-06
4.95952e-06
5.59524e-06
6.1094e-06
6.53534e-06
6.89744e-06
7.21198e-06
7.48559e-06
7.72102e-06
7.91972e-06
8.08351e-06
8.21498e-06
8.31671e-06
8.39052e-06
8.43433e-06
8.4547e-06
8.45849e-06
8.44644e-06
8.41494e-06
8.35755e-06
8.26636e-06
8.13283e-06
7.94727e-06
7.69536e-06
7.34914e-06
6.84806e-06
6.06568e-06
4.76385e-06
2.59355e-06
)
;

boundaryField
{
    movingWall
    {
        type            calculated;
        value           uniform 0;
    }
    fixedWalls
    {
        type            calculated;
        value           uniform 0;
    }
    floor
    {
        type            calculated;
        value           uniform 0;
    }
    frontAndBack
    {
        type            empty;
        value           nonuniform List<scalar> 0();
    }
}


// ************************************************************************* //
