/*--------------------------------*- C++ -*----------------------------------*\
| =========                 |                                                 |
| \\      /  F ield         | OpenFOAM: The Open Source CFD Toolbox           |
|  \\    /   O peration     | Version:  2212                                  |
|   \\  /    A nd           | Website:  www.openfoam.com                      |
|    \\/     M anipulation  |                                                 |
\*---------------------------------------------------------------------------*/
FoamFile
{
    version     2.0;
    format      ascii;
    arch        "LSB;label=64;scalar=64";
    class       volScalarField;
    location    "1830";
    object      Xch;
}
// * * * * * * * * * * * * * * * * * * * * * * * * * * * * * * * * * * * * * //

dimensions      [1 -3 0 0 0 0 0];

internalField   nonuniform List<scalar> 
1024
(
0.0200449
0.0200452
0.0200461
0.0200477
0.0200503
0.0200542
0.0200597
0.0200671
0.0200764
0.0200876
0.0201004
0.0201139
0.0201274
0.0201401
0.0201513
0.0201605
0.0201665
0.0201685
0.020167
0.0201627
0.0201562
0.0201482
0.0201394
0.0201307
0.0201228
0.0201161
0.0201109
0.0201072
0.0201046
0.020103
0.0201021
0.0201018
0.020045
0.0200453
0.0200462
0.0200478
0.0200505
0.0200544
0.0200599
0.0200674
0.0200768
0.0200881
0.0201008
0.0201144
0.0201279
0.0201406
0.0201518
0.020161
0.020167
0.020169
0.0201676
0.0201633
0.0201568
0.0201487
0.0201399
0.0201311
0.0201231
0.0201164
0.0201112
0.0201074
0.0201048
0.0201032
0.0201023
0.0201019
0.0200453
0.0200456
0.0200465
0.0200482
0.0200508
0.0200549
0.0200605
0.0200681
0.0200777
0.0200891
0.020102
0.0201156
0.0201291
0.0201417
0.0201529
0.0201621
0.0201682
0.0201703
0.0201689
0.0201646
0.020158
0.0201499
0.0201409
0.0201321
0.0201239
0.0201171
0.0201117
0.0201078
0.0201052
0.0201035
0.0201026
0.0201023
0.0200457
0.0200461
0.020047
0.0200488
0.0200515
0.0200557
0.0200615
0.0200693
0.0200791
0.0200908
0.0201038
0.0201175
0.020131
0.0201437
0.0201548
0.0201641
0.0201704
0.0201727
0.0201714
0.020167
0.0201602
0.0201518
0.0201426
0.0201335
0.0201251
0.0201181
0.0201126
0.0201085
0.0201058
0.0201042
0.0201033
0.0201029
0.0200465
0.0200469
0.0200479
0.0200497
0.0200526
0.0200569
0.0200631
0.0200712
0.0200813
0.0200933
0.0201065
0.0201203
0.0201339
0.0201465
0.0201577
0.0201672
0.0201738
0.0201765
0.0201754
0.0201709
0.0201636
0.0201547
0.020145
0.0201355
0.0201268
0.0201195
0.0201138
0.0201097
0.0201069
0.0201052
0.0201043
0.0201039
0.0200476
0.020048
0.0200491
0.020051
0.0200541
0.0200587
0.0200652
0.0200737
0.0200843
0.0200967
0.0201102
0.0201242
0.0201378
0.0201504
0.0201618
0.0201717
0.0201789
0.0201822
0.0201813
0.0201765
0.0201686
0.0201588
0.0201483
0.0201381
0.020129
0.0201214
0.0201155
0.0201112
0.0201084
0.0201067
0.0201058
0.0201055
0.0200492
0.0200496
0.0200507
0.0200527
0.020056
0.020061
0.0200679
0.0200769
0.0200881
0.0201009
0.0201148
0.020129
0.0201427
0.0201556
0.0201673
0.0201778
0.0201859
0.0201901
0.0201895
0.0201845
0.0201757
0.0201646
0.0201529
0.0201417
0.0201319
0.0201239
0.0201178
0.0201135
0.0201107
0.0201091
0.0201082
0.0201079
0.0200511
0.0200516
0.0200528
0.0200549
0.0200585
0.0200638
0.0200712
0.0200809
0.0200926
0.020106
0.0201204
0.0201349
0.0201488
0.020162
0.0201742
0.0201856
0.020195
0.0202003
0.0202004
0.0201951
0.0201854
0.0201728
0.0201595
0.020147
0.0201363
0.0201277
0.0201214
0.0201171
0.0201143
0.0201128
0.020112
0.0201117
0.0200536
0.0200541
0.0200553
0.0200576
0.0200614
0.0200671
0.020075
0.0200854
0.0200978
0.0201119
0.0201267
0.0201416
0.0201559
0.0201696
0.0201826
0.0201952
0.0202061
0.0202129
0.0202139
0.0202089
0.0201986
0.0201847
0.0201696
0.0201554
0.0201434
0.0201341
0.0201274
0.020123
0.0201203
0.0201189
0.0201183
0.0201181
0.0200564
0.0200569
0.0200582
0.0200607
0.0200647
0.0200708
0.0200793
0.0200903
0.0201035
0.0201182
0.0201337
0.0201491
0.0201639
0.0201781
0.020192
0.0202058
0.0202184
0.0202271
0.0202298
0.0202261
0.0202162
0.0202019
0.0201855
0.0201696
0.0201559
0.0201455
0.0201382
0.0201335
0.0201308
0.0201294
0.0201289
0.0201288
0.0200596
0.0200602
0.0200615
0.0200641
0.0200683
0.0200748
0.0200838
0.0200954
0.0201093
0.0201248
0.0201409
0.0201568
0.0201721
0.0201869
0.0202015
0.0202164
0.0202305
0.0202414
0.020247
0.0202462
0.0202388
0.020226
0.0202099
0.0201931
0.020178
0.020166
0.0201574
0.020152
0.020149
0.0201475
0.0201469
0.0201468
0.0200631
0.0200636
0.020065
0.0200676
0.0200721
0.0200788
0.0200882
0.0201003
0.0201149
0.020131
0.0201477
0.0201641
0.0201797
0.0201947
0.0202094
0.0202246
0.0202398
0.0202531
0.0202626
0.0202668
0.0202647
0.0202565
0.0202436
0.0202283
0.020213
0.0201998
0.0201897
0.0201829
0.0201789
0.0201768
0.0201759
0.0201757
0.0200666
0.0200672
0.0200685
0.0200712
0.0200757
0.0200826
0.0200922
0.0201047
0.0201197
0.0201362
0.0201532
0.0201697
0.0201851
0.0201995
0.0202132
0.0202273
0.0202425
0.020258
0.0202721
0.0202828
0.0202883
0.0202879
0.0202818
0.0202716
0.0202593
0.0202468
0.0202361
0.0202279
0.0202225
0.0202194
0.0202179
0.0202174
0.02007
0.0200705
0.0200719
0.0200746
0.020079
0.0200858
0.0200954
0.0201079
0.0201228
0.0201394
0.0201562
0.0201722
0.0201865
0.020199
0.0202102
0.0202215
0.0202347
0.0202513
0.0202696
0.020287
0.0203009
0.0203098
0.0203131
0.0203113
0.0203054
0.0202973
0.0202886
0.0202809
0.020275
0.0202712
0.0202691
0.0202683
0.0200729
0.0200734
0.0200747
0.0200773
0.0200815
0.020088
0.0200971
0.0201091
0.0201235
0.0201393
0.0201553
0.02017
0.0201823
0.0201917
0.0201986
0.020205
0.0202143
0.0202299
0.0202509
0.0202741
0.020296
0.0203141
0.020327
0.0203345
0.0203371
0.0203358
0.0203322
0.0203275
0.0203232
0.02032
0.020318
0.0203171
0.0200747
0.0200752
0.0200764
0.0200788
0.0200826
0.0200885
0.0200968
0.0201076
0.0201207
0.0201351
0.0201495
0.0201622
0.0201717
0.0201773
0.0201792
0.0201794
0.0201827
0.0201952
0.020217
0.0202447
0.0202738
0.0203006
0.0203228
0.0203393
0.0203501
0.020356
0.0203581
0.0203577
0.0203562
0.0203545
0.0203532
0.0203526
0.0200748
0.0200753
0.0200764
0.0200785
0.0200819
0.020087
0.020094
0.0201033
0.0201146
0.020127
0.0201394
0.02015
0.0201571
0.0201596
0.0201573
0.0201521
0.0201492
0.0201567
0.0201764
0.0202059
0.0202406
0.0202758
0.0203073
0.0203329
0.0203517
0.0203642
0.0203713
0.0203746
0.0203755
0.0203753
0.0203747
0.0203743
0.0200731
0.0200736
0.0200746
0.0200765
0.0200795
0.0200839
0.0200898
0.0200976
0.0201071
0.0201176
0.020128
0.0201368
0.0201423
0.0201432
0.0201392
0.0201313
0.020125
0.0201282
0.0201441
0.020172
0.0202086
0.0202491
0.0202884
0.0203225
0.0203492
0.0203682
0.0203803
0.0203869
0.0203899
0.0203907
0.0203906
0.0203904
0.0200703
0.0200707
0.0200717
0.0200735
0.0200762
0.02008
0.0200851
0.0200916
0.0200995
0.0201083
0.0201171
0.0201245
0.020129
0.0201295
0.0201254
0.0201175
0.0201108
0.0201124
0.0201258
0.0201511
0.0201865
0.0202285
0.0202719
0.020312
0.0203452
0.0203702
0.0203871
0.0203971
0.0204021
0.020404
0.0204043
0.0204042
0.0200668
0.0200673
0.0200682
0.0200698
0.0200723
0.0200756
0.0200801
0.0200857
0.0200923
0.0200997
0.020107
0.0201132
0.0201172
0.0201178
0.0201146
0.0201085
0.0201038
0.0201064
0.020119
0.0201424
0.0201757
0.0202165
0.0202607
0.0203038
0.0203415
0.0203712
0.0203924
0.0204057
0.0204129
0.0204159
0.0204167
0.0204166
0.0200636
0.020064
0.0200648
0.0200662
0.0200684
0.0200713
0.0200752
0.02008
0.0200856
0.0200918
0.0200979
0.0201032
0.0201068
0.020108
0.0201067
0.0201038
0.0201028
0.0201081
0.0201215
0.0201437
0.0201748
0.0202131
0.0202559
0.0202992
0.020339
0.020372
0.0203967
0.020413
0.0204223
0.0204266
0.0204279
0.020428
0.020062
0.0200622
0.0200628
0.0200637
0.0200654
0.0200677
0.0200709
0.020075
0.0200797
0.0200849
0.0200901
0.0200948
0.0200987
0.0201013
0.0201029
0.0201044
0.0201084
0.0201173
0.020132
0.0201536
0.0201823
0.0202176
0.0202574
0.0202989
0.0203385
0.0203731
0.0204002
0.0204192
0.0204306
0.0204362
0.0204381
0.0204383
0.0200638
0.0200638
0.0200638
0.020064
0.0200647
0.020066
0.0200683
0.0200715
0.0200754
0.0200799
0.0200849
0.02009
0.0200951
0.0201002
0.0201057
0.0201124
0.0201217
0.0201342
0.0201503
0.020171
0.0201971
0.0202287
0.0202647
0.0203029
0.0203407
0.0203751
0.0204035
0.0204245
0.0204378
0.0204448
0.0204473
0.0204477
0.0200711
0.0200706
0.0200698
0.0200689
0.0200682
0.0200682
0.0200693
0.0200715
0.020075
0.0200795
0.0200851
0.0200917
0.0200993
0.0201079
0.0201179
0.0201298
0.0201438
0.0201592
0.020176
0.0201954
0.0202184
0.0202458
0.0202772
0.0203113
0.0203459
0.0203786
0.0204071
0.0204292
0.0204442
0.0204524
0.0204556
0.0204562
0.0200854
0.0200844
0.0200826
0.0200804
0.0200783
0.020077
0.020077
0.0200787
0.0200823
0.0200878
0.0200951
0.0201042
0.020115
0.0201274
0.0201415
0.0201575
0.0201747
0.0201916
0.0202081
0.0202257
0.0202455
0.0202685
0.0202948
0.0203239
0.0203544
0.0203843
0.0204115
0.0204338
0.0204498
0.0204591
0.0204631
0.0204639
0.0201078
0.0201063
0.0201036
0.0201004
0.0200975
0.0200957
0.0200955
0.0200976
0.0201023
0.0201094
0.020119
0.0201308
0.0201445
0.0201598
0.0201765
0.0201947
0.0202132
0.0202301
0.0202455
0.0202607
0.0202772
0.0202958
0.020317
0.0203408
0.0203664
0.0203925
0.0204173
0.0204387
0.020455
0.0204652
0.0204698
0.0204709
0.020139
0.0201368
0.0201337
0.0201306
0.0201284
0.0201275
0.0201285
0.020132
0.0201383
0.0201472
0.0201587
0.0201722
0.0201874
0.0202039
0.0202213
0.0202395
0.0202573
0.0202728
0.0202863
0.020299
0.0203121
0.0203266
0.0203431
0.0203616
0.0203821
0.0204036
0.020425
0.0204445
0.0204601
0.0204706
0.0204758
0.0204771
0.020179
0.0201765
0.0201739
0.0201725
0.0201726
0.0201743
0.0201776
0.0201829
0.0201906
0.0202004
0.0202124
0.020226
0.0202408
0.0202564
0.0202724
0.0202889
0.0203045
0.0203177
0.0203287
0.0203388
0.0203488
0.0203596
0.0203718
0.0203855
0.0204009
0.0204176
0.0204348
0.0204514
0.0204655
0.0204756
0.0204811
0.0204827
0.0202284
0.0202262
0.0202256
0.0202274
0.0202309
0.0202355
0.020241
0.0202476
0.0202555
0.0202649
0.0202756
0.0202875
0.0203002
0.0203133
0.0203266
0.0203399
0.0203523
0.0203626
0.020371
0.0203785
0.0203857
0.0203933
0.0204018
0.0204113
0.0204221
0.0204341
0.0204469
0.0204598
0.0204716
0.0204805
0.0204858
0.0204875
0.0202885
0.0202877
0.0202905
0.0202956
0.0203017
0.0203079
0.020314
0.0203204
0.0203272
0.0203347
0.020343
0.0203519
0.0203612
0.0203708
0.0203804
0.0203898
0.0203986
0.0204058
0.0204116
0.0204166
0.0204214
0.0204264
0.0204318
0.0204379
0.0204447
0.0204525
0.020461
0.0204699
0.0204785
0.0204855
0.02049
0.0204917
0.0203619
0.0203637
0.0203689
0.0203747
0.0203804
0.0203857
0.0203905
0.020395
0.0203995
0.0204042
0.0204092
0.0204145
0.0204201
0.0204257
0.0204313
0.0204369
0.0204419
0.0204461
0.0204494
0.0204523
0.0204549
0.0204576
0.0204606
0.0204638
0.0204675
0.0204717
0.0204764
0.0204814
0.0204864
0.0204909
0.020494
0.0204953
0.0204515
0.0204529
0.0204556
0.0204581
0.0204605
0.0204625
0.0204643
0.0204659
0.0204675
0.020469
0.0204707
0.0204724
0.0204743
0.0204761
0.0204779
0.0204797
0.0204813
0.0204826
0.0204837
0.0204846
0.0204855
0.0204863
0.0204872
0.0204882
0.0204894
0.0204907
0.0204921
0.0204937
0.0204953
0.0204968
0.0204979
0.0204984
)
;

boundaryField
{
    movingWall
    {
        type            fixedValue;
        value           uniform 0.0205;
    }
    fixedWalls
    {
        type            zeroGradient;
    }
    floor
    {
        type            zeroGradient;
    }
    frontAndBack
    {
        type            empty;
    }
}


// ************************************************************************* //
