/*--------------------------------*- C++ -*----------------------------------*\
| =========                 |                                                 |
| \\      /  F ield         | OpenFOAM: The Open Source CFD Toolbox           |
|  \\    /   O peration     | Version:  2212                                  |
|   \\  /    A nd           | Website:  www.openfoam.com                      |
|    \\/     M anipulation  |                                                 |
\*---------------------------------------------------------------------------*/
FoamFile
{
    version     2.0;
    format      ascii;
    arch        "LSB;label=64;scalar=64";
    class       volScalarField::Internal;
    location    "960";
    object      dGco2;
}
// * * * * * * * * * * * * * * * * * * * * * * * * * * * * * * * * * * * * * //

dimensions      [1 -3 -1 0 0 0 0];

value           nonuniform List<scalar> 
1024
(
0.000142997
0.00014304
0.000143144
0.000143332
0.000143627
0.000144049
0.000144605
0.000145285
0.000146063
0.000146901
0.000147758
0.000148589
0.000149324
0.000149838
0.000149951
0.000149589
0.000148794
0.000147779
0.000146728
0.000145692
0.000144697
0.000143754
0.000142878
0.000142086
0.0001414
0.000140834
0.000140394
0.000140071
0.000139851
0.000139713
0.000139638
0.000139607
0.000143004
0.000143047
0.000143154
0.000143346
0.000143649
0.00014408
0.000144646
0.000145335
0.00014612
0.000146963
0.000147826
0.000148664
0.000149408
0.000149927
0.000150037
0.000149666
0.000148864
0.000147844
0.000146788
0.000145749
0.000144751
0.000143806
0.000142925
0.000142129
0.000141436
0.000140863
0.000140415
0.000140087
0.000139862
0.000139722
0.000139645
0.000139613
0.000143018
0.000143063
0.000143175
0.000143376
0.000143692
0.00014414
0.000144724
0.00014543
0.00014623
0.000147087
0.000147967
0.00014883
0.000149605
0.000150145
0.000150246
0.00014985
0.000149022
0.000147984
0.000146916
0.000145869
0.000144865
0.000143913
0.000143025
0.000142217
0.000141511
0.000140924
0.000140462
0.000140121
0.000139888
0.000139742
0.000139662
0.000139629
0.00014304
0.000143088
0.000143206
0.00014342
0.000143753
0.000144223
0.000144831
0.00014556
0.000146381
0.000147264
0.000148183
0.000149103
0.000149947
0.000150535
0.000150622
0.000150173
0.00014929
0.000148211
0.000147117
0.000146052
0.000145036
0.000144074
0.000143175
0.000142353
0.000141627
0.000141018
0.000140535
0.000140177
0.00013993
0.000139775
0.000139691
0.000139656
0.000143068
0.000143118
0.000143244
0.00014347
0.000143822
0.000144315
0.000144948
0.000145703
0.000146556
0.000147483
0.000148472
0.000149496
0.000150466
0.000151142
0.000151212
0.000150673
0.000149688
0.000148534
0.000147389
0.000146294
0.000145257
0.00014428
0.000143367
0.000142526
0.000141778
0.000141142
0.000140633
0.000140252
0.000139988
0.000139823
0.000139732
0.000139696
0.000143096
0.000143149
0.00014328
0.000143516
0.000143883
0.000144395
0.000145051
0.000145835
0.00014673
0.000147726
0.000148826
0.000150016
0.000151184
0.000151998
0.000152055
0.000151381
0.000150236
0.000148956
0.000147728
0.000146579
0.000145509
0.000144512
0.000143581
0.000142721
0.000141948
0.000141285
0.000140747
0.000140342
0.00014006
0.000139882
0.000139786
0.000139747
0.000143115
0.00014317
0.000143303
0.000143544
0.000143918
0.000144441
0.000145113
0.000145926
0.000146873
0.000147965
0.000149226
0.000150654
0.000152102
0.00015311
0.000153163
0.000152315
0.000150938
0.000149471
0.000148116
0.000146885
0.000145766
0.000144738
0.000143787
0.000142908
0.000142114
0.000141426
0.000140864
0.000140436
0.000140137
0.000139949
0.000139846
0.000139805
0.000143114
0.000143168
0.000143301
0.000143539
0.000143909
0.000144429
0.000145108
0.000145945
0.000146953
0.000148168
0.000149642
0.000151386
0.000153201
0.000154458
0.000154521
0.000153458
0.000151779
0.000150057
0.000148524
0.000147177
0.000145987
0.000144918
0.000143944
0.000143051
0.000142243
0.000141539
0.000140961
0.000140519
0.000140209
0.000140013
0.000139906
0.000139864
0.000143077
0.00014313
0.000143257
0.000143485
0.000143838
0.000144342
0.000145011
0.000145865
0.000146939
0.000148301
0.000150044
0.000152192
0.000154461
0.000156013
0.000156083
0.000154759
0.000152707
0.000150664
0.000148902
0.000147404
0.000146121
0.000145003
0.000144007
0.000143106
0.000142296
0.000141592
0.000141013
0.000140569
0.000140258
0.000140061
0.000139954
0.00013991
0.00014299
0.000143041
0.00014316
0.000143369
0.000143695
0.000144166
0.000144811
0.00014567
0.000146811
0.000148351
0.000150431
0.000153087
0.000155898
0.000157764
0.000157799
0.000156146
0.000153649
0.000151223
0.000149185
0.000147502
0.000146109
0.000144936
0.000143923
0.000143028
0.000142236
0.000141553
0.000140994
0.000140567
0.000140268
0.000140077
0.000139973
0.00013993
0.000142847
0.000142893
0.000142999
0.000143185
0.000143476
0.000143904
0.000144512
0.00014537
0.000146592
0.000148358
0.000150877
0.000154174
0.000157604
0.000159751
0.000159651
0.000157568
0.000154554
0.000151686
0.000149325
0.000147423
0.000145898
0.000144665
0.000143644
0.000142775
0.000142027
0.000141393
0.00014088
0.00014049
0.000140217
0.000140042
0.000139943
0.000139903
0.000142679
0.000142716
0.000142803
0.00014296
0.000143211
0.000143595
0.000144173
0.000145047
0.000146397
0.000148489
0.000151608
0.000155698
0.000159768
0.000162079
0.000161694
0.00015909
0.000155513
0.000152147
0.000149393
0.000147205
0.000145499
0.00014418
0.00014315
0.000142324
0.000141646
0.00014109
0.00014065
0.000140318
0.000140084
0.000139932
0.000139845
0.000139808
0.000142657
0.000142675
0.000142729
0.000142842
0.000143051
0.000143406
0.000143994
0.000144966
0.000146572
0.000149176
0.000153094
0.000158064
0.000162658
0.000164924
0.000164135
0.000161049
0.000156986
0.000153105
0.000149844
0.000147207
0.000145162
0.000143637
0.000142525
0.000141713
0.000141107
0.000140646
0.000140296
0.00014004
0.000139863
0.000139752
0.000139692
0.000139668
0.000143288
0.000143277
0.000143279
0.000143331
0.000143492
0.00014385
0.000144539
0.000145774
0.000147878
0.000151251
0.000156104
0.000161827
0.000166605
0.00016859
0.000167501
0.00016433
0.0001602
0.000155987
0.000152137
0.000148776
0.000146019
0.000143904
0.000142387
0.000141347
0.000140664
0.00014023
0.000139969
0.000139836
0.000139797
0.000139816
0.000139856
0.000139887
0.000145526
0.000145489
0.000145444
0.00014545
0.000145604
0.000146048
0.000146995
0.000148734
0.000151613
0.000155921
0.00016157
0.000167556
0.000172014
0.000173705
0.000172973
0.000170779
0.000167672
0.000163995
0.000160078
0.000156136
0.000152415
0.000149136
0.000146514
0.000144515
0.000143159
0.000142394
0.000142116
0.000142189
0.000142459
0.000142788
0.000143064
0.000143215
0.000150165
0.000150127
0.000150099
0.000150166
0.00015047
0.000151221
0.000152707
0.000155263
0.000159158
0.000164354
0.000170257
0.000175667
0.000179449
0.000181497
0.0001825
0.000182953
0.000182792
0.000181775
0.000179937
0.000177432
0.000174475
0.000171315
0.000168225
0.000165308
0.000162781
0.000160797
0.000159435
0.000158681
0.00015841
0.000158446
0.0001586
0.000158721
0.00015604
0.000156028
0.000156072
0.000156283
0.000156832
0.000157952
0.000159925
0.000163013
0.000167312
0.000172562
0.000178112
0.000183186
0.000187373
0.000190896
0.000194259
0.000197747
0.000201172
0.000204024
0.000206089
0.000207365
0.000207854
0.000207577
0.000206581
0.000204955
0.000202838
0.000200422
0.000197944
0.000195677
0.000193859
0.000192623
0.000191949
0.000191698
0.000160649
0.000160658
0.000160747
0.00016103
0.000161669
0.000162875
0.000164881
0.000167871
0.000171878
0.00017668
0.00018181
0.000186746
0.000191216
0.000195334
0.00019938
0.000203541
0.000207652
0.000211425
0.00021488
0.000218075
0.000220936
0.000223333
0.000225124
0.000226186
0.000226449
0.000225928
0.000224753
0.000223176
0.000221535
0.000220151
0.000219232
0.000218816
0.000163677
0.000163699
0.000163806
0.000164098
0.000164718
0.000165848
0.000167681
0.00017037
0.000173945
0.000178246
0.000182921
0.00018755
0.000191851
0.000195784
0.000199436
0.000202874
0.000205965
0.00020874
0.00021155
0.000214581
0.00021779
0.000221034
0.000224112
0.000226812
0.000228953
0.000230419
0.000231188
0.000231337
0.000231043
0.000230551
0.000230102
0.000229855
0.000165612
0.00016564
0.00016575
0.000166026
0.000166586
0.000167583
0.000169182
0.00017152
0.000174634
0.000178413
0.000182586
0.000186795
0.000190743
0.000194291
0.000197418
0.000200132
0.000202364
0.000204344
0.000206587
0.000209381
0.000212743
0.000216536
0.000220494
0.000224282
0.000227586
0.000230186
0.000232001
0.000233077
0.000233558
0.000233643
0.000233549
0.000233453
0.000166877
0.000166905
0.000167005
0.000167246
0.00016773
0.000168583
0.000169946
0.000171937
0.0001746
0.000177862
0.000181512
0.000185256
0.000188814
0.000192012
0.000194786
0.000197142
0.000199069
0.00020084
0.000202916
0.000205594
0.000208959
0.000212966
0.00021741
0.000221947
0.000226164
0.0002297
0.000232348
0.000234082
0.00023503
0.000235409
0.00023547
0.00023543
0.000167861
0.000167875
0.000167941
0.000168122
0.000168505
0.000169204
0.000170336
0.000172005
0.000174252
0.00017703
0.000180184
0.000183485
0.000186702
0.000189674
0.000192335
0.000194711
0.00019681
0.000198821
0.000201048
0.000203748
0.000207056
0.000211008
0.000215509
0.000220305
0.000225007
0.000229188
0.000232518
0.000234851
0.000236239
0.000236886
0.000237068
0.000237061
0.00016898
0.000168959
0.000168953
0.000169024
0.000169264
0.000169779
0.000170679
0.000172054
0.000173944
0.000176319
0.000179072
0.000182039
0.000185047
0.000187968
0.000190751
0.000193433
0.000195994
0.000198447
0.000200952
0.000203739
0.000206968
0.000210735
0.000215032
0.000219712
0.00022448
0.000228945
0.000232713
0.000235516
0.0002373
0.000238208
0.000238516
0.000238539
0.000170675
0.000170592
0.000170465
0.000170369
0.000170411
0.000170712
0.000171387
0.000172521
0.000174155
0.000176271
0.000178796
0.000181613
0.000184595
0.000187641
0.000190708
0.00019383
0.000196915
0.000199794
0.000202531
0.000205352
0.000208434
0.000211916
0.000215855
0.000220185
0.00022471
0.000229121
0.000233047
0.000236149
0.00023825
0.0002394
0.000239837
0.000239896
0.000173353
0.000173181
0.000172894
0.000172596
0.000172425
0.000172529
0.000173038
0.000174045
0.000175583
0.000177635
0.000180135
0.000182988
0.000186088
0.000189347
0.000192718
0.000196222
0.000199689
0.000202819
0.000205634
0.000208365
0.000211202
0.000214303
0.000217765
0.000221592
0.000225672
0.000229781
0.000233609
0.00023681
0.00023912
0.000240475
0.000241039
0.000241139
0.000177327
0.000177047
0.000176596
0.000176132
0.000175832
0.000175862
0.000176359
0.000177413
0.000179037
0.000181191
0.000183801
0.000186771
0.000190002
0.000193408
0.000196939
0.000200603
0.00020418
0.000207314
0.000210016
0.000212521
0.00021502
0.000217669
0.000220583
0.000223807
0.000227301
0.00023093
0.000234454
0.00023756
0.000239945
0.000241444
0.000242126
0.00024227
0.000182786
0.0001824
0.000181853
0.000181376
0.00018116
0.000181345
0.000182042
0.000183307
0.000185122
0.000187421
0.00019012
0.000193124
0.000196339
0.000199691
0.000203128
0.000206653
0.000210037
0.000212931
0.000215351
0.000217521
0.000219616
0.000221779
0.000224119
0.000226702
0.000229538
0.000232562
0.00023562
0.000238456
0.000240768
0.000242327
0.000243099
0.00024329
0.000189844
0.00018939
0.000188915
0.000188693
0.000188844
0.000189418
0.000190457
0.000191973
0.000193922
0.000196241
0.000198852
0.000201676
0.000204637
0.000207673
0.000210744
0.00021385
0.000216787
0.000219254
0.000221274
0.000223041
0.000224703
0.00022638
0.000228165
0.000230124
0.00023229
0.000234651
0.000237128
0.000239544
0.000241637
0.000243151
0.000243969
0.000244202
0.000198615
0.000198201
0.000198066
0.000198376
0.000199076
0.000200095
0.000201419
0.000203034
0.00020491
0.000207012
0.000209289
0.000211686
0.000214152
0.000216644
0.000219133
0.000221621
0.000223945
0.000225874
0.00022743
0.000228767
0.00023
0.000231219
0.000232497
0.000233888
0.000235429
0.000237133
0.000238976
0.000240862
0.000242599
0.000243949
0.000244746
0.000245007
0.000209331
0.000209162
0.00020962
0.000210511
0.000211619
0.000212847
0.000214179
0.000215612
0.00021715
0.000218792
0.000220516
0.000222295
0.000224098
0.000225901
0.000227685
0.000229451
0.000231088
0.000232435
0.000233513
0.000234427
0.000235257
0.000236064
0.000236898
0.000237798
0.000238792
0.0002399
0.000241123
0.000242425
0.000243697
0.000244763
0.000245451
0.000245709
0.000222428
0.000222734
0.00022364
0.000224662
0.000225685
0.000226682
0.000227658
0.000228628
0.000229615
0.000230631
0.000231677
0.000232741
0.000233811
0.000234872
0.000235916
0.000236944
0.000237891
0.000238668
0.000239286
0.000239805
0.000240272
0.000240721
0.000241179
0.000241669
0.000242208
0.000242808
0.000243478
0.000244209
0.000244959
0.000245633
0.000246112
0.000246317
0.00023845
0.000238695
0.000239166
0.000239614
0.000240028
0.000240411
0.000240767
0.000241107
0.000241443
0.000241782
0.000242127
0.000242475
0.000242824
0.000243169
0.000243507
0.000243838
0.000244143
0.000244393
0.000244591
0.000244756
0.000244905
0.000245046
0.000245189
0.000245342
0.000245509
0.000245694
0.000245901
0.000246129
0.000246368
0.000246593
0.000246766
0.000246851
)
;


// ************************************************************************* //
