/*--------------------------------*- C++ -*----------------------------------*\
| =========                 |                                                 |
| \\      /  F ield         | OpenFOAM: The Open Source CFD Toolbox           |
|  \\    /   O peration     | Version:  2212                                  |
|   \\  /    A nd           | Website:  www.openfoam.com                      |
|    \\/     M anipulation  |                                                 |
\*---------------------------------------------------------------------------*/
FoamFile
{
    version     2.0;
    format      ascii;
    arch        "LSB;label=64;scalar=64";
    class       volScalarField;
    location    "960";
    object      Gch4;
}
// * * * * * * * * * * * * * * * * * * * * * * * * * * * * * * * * * * * * * //

dimensions      [1 -3 0 0 0 0 0];

internalField   nonuniform List<scalar> 
1024
(
1.938
1.93788
1.93759
1.93706
1.93624
1.93506
1.9335
1.9316
1.92943
1.92709
1.9247
1.92238
1.92034
1.91891
1.91861
1.91964
1.92188
1.92472
1.92768
1.93058
1.93338
1.93602
1.93849
1.94071
1.94264
1.94423
1.94547
1.94638
1.947
1.94739
1.9476
1.94768
1.93798
1.93786
1.93756
1.93702
1.93618
1.93497
1.93339
1.93146
1.92927
1.92691
1.92451
1.92217
1.9201
1.91866
1.91837
1.91942
1.92168
1.92454
1.92751
1.93042
1.93322
1.93588
1.93835
1.94059
1.94254
1.94415
1.94541
1.94633
1.94697
1.94736
1.94758
1.94767
1.93794
1.93782
1.9375
1.93694
1.93606
1.9348
1.93317
1.93119
1.92896
1.92657
1.92411
1.92171
1.91955
1.91806
1.91779
1.91891
1.92124
1.92415
1.92715
1.93009
1.93291
1.93558
1.93808
1.94035
1.94233
1.94398
1.94528
1.94624
1.94689
1.9473
1.94753
1.94762
1.93788
1.93775
1.93742
1.93682
1.93588
1.93457
1.93287
1.93083
1.92854
1.92607
1.92351
1.92095
1.9186
1.91697
1.91675
1.91802
1.9205
1.92352
1.92659
1.92958
1.93243
1.93513
1.93766
1.93997
1.942
1.94372
1.94508
1.94608
1.94678
1.94721
1.94745
1.94755
1.9378
1.93766
1.93731
1.93668
1.93569
1.93431
1.93254
1.93043
1.92805
1.92546
1.9227
1.91985
1.91715
1.91528
1.91511
1.91663
1.91939
1.92263
1.92584
1.92891
1.93181
1.93455
1.93712
1.93948
1.94158
1.94337
1.9448
1.94587
1.94661
1.94708
1.94733
1.94744
1.93772
1.93757
1.93721
1.93655
1.93552
1.93409
1.93225
1.93006
1.92756
1.92478
1.92171
1.9184
1.91515
1.9129
1.91277
1.91467
1.91788
1.92146
1.9249
1.92812
1.93111
1.93391
1.93652
1.93894
1.94111
1.94297
1.94448
1.94562
1.94641
1.94691
1.94718
1.94729
1.93767
1.93752
1.93714
1.93647
1.93542
1.93396
1.93208
1.9298
1.92716
1.92411
1.92059
1.91662
1.9126
1.90981
1.9097
1.91208
1.91594
1.92004
1.92383
1.92727
1.93041
1.93328
1.93595
1.93842
1.94064
1.94258
1.94416
1.94536
1.9462
1.94673
1.94701
1.94713
1.93767
1.93752
1.93715
1.93648
1.93545
1.93399
1.93209
1.92975
1.92693
1.92354
1.91943
1.91457
1.90954
1.90607
1.90594
1.90893
1.91362
1.91843
1.92271
1.92647
1.9298
1.93279
1.93552
1.93802
1.94029
1.94226
1.94389
1.94513
1.946
1.94655
1.94685
1.94697
1.93777
1.93762
1.93727
1.93663
1.93564
1.93423
1.93236
1.92997
1.92697
1.92316
1.9183
1.91233
1.90603
1.90176
1.90162
1.90534
1.91107
1.91677
1.92169
1.92587
1.92944
1.93257
1.93535
1.93788
1.94014
1.94212
1.94374
1.94499
1.94586
1.94641
1.94672
1.94684
1.93801
1.93787
1.93754
1.93695
1.93604
1.93472
1.93291
1.93051
1.92732
1.92302
1.91722
1.90983
1.90204
1.89691
1.89688
1.90153
1.9085
1.91526
1.92094
1.92562
1.9295
1.93278
1.9356
1.93811
1.94032
1.94223
1.9438
1.945
1.94584
1.94637
1.94666
1.94678
1.93842
1.93829
1.93799
1.93746
1.93665
1.93545
1.93375
1.93134
1.92793
1.923
1.91598
1.90681
1.89731
1.89141
1.89178
1.89763
1.90604
1.91403
1.9206
1.92588
1.93013
1.93356
1.9364
1.93882
1.94092
1.94269
1.94412
1.94522
1.94598
1.94647
1.94675
1.94686
1.93889
1.93878
1.93854
1.9381
1.93739
1.93631
1.9347
1.93225
1.92848
1.92264
1.91395
1.90258
1.89132
1.88499
1.88616
1.89347
1.90345
1.91281
1.92046
1.92654
1.93128
1.93494
1.9378
1.9401
1.94199
1.94354
1.94478
1.94571
1.94636
1.94679
1.94703
1.94713
1.93896
1.93891
1.93876
1.93844
1.93785
1.93685
1.93521
1.93249
1.928
1.92074
1.90983
1.89602
1.88332
1.87715
1.87945
1.88811
1.89944
1.91023
1.91928
1.92659
1.93226
1.93649
1.93957
1.94183
1.94351
1.9448
1.94577
1.94649
1.94699
1.9473
1.94747
1.94753
1.93724
1.93727
1.93726
1.93711
1.93666
1.93565
1.93372
1.93028
1.9244
1.915
1.90149
1.88561
1.87242
1.86704
1.87019
1.87908
1.89059
1.90229
1.91297
1.92229
1.92993
1.93579
1.93999
1.94287
1.94477
1.94598
1.9467
1.94707
1.94719
1.94714
1.94703
1.94694
1.93107
1.93117
1.9313
1.93128
1.93085
1.9296
1.92696
1.92211
1.91408
1.90208
1.88637
1.86977
1.85749
1.85293
1.85508
1.86126
1.86993
1.88015
1.89102
1.90194
1.91225
1.92132
1.92858
1.93411
1.93786
1.93999
1.94076
1.94057
1.93982
1.93892
1.93816
1.93774
1.91821
1.91832
1.9184
1.91822
1.91738
1.91529
1.91115
1.90404
1.8932
1.87874
1.86235
1.84738
1.83697
1.8314
1.82873
1.82758
1.82811
1.83099
1.83612
1.84308
1.85128
1.86002
1.86857
1.87663
1.88361
1.8891
1.89287
1.89496
1.89571
1.89562
1.8952
1.89487
1.90187
1.90191
1.90179
1.90122
1.8997
1.8966
1.89113
1.88255
1.8706
1.85601
1.84062
1.82658
1.81505
1.80538
1.79617
1.78664
1.77729
1.76954
1.76396
1.76054
1.75927
1.76009
1.76288
1.76738
1.77323
1.77989
1.78672
1.79296
1.79797
1.80137
1.80323
1.80392
1.88899
1.88898
1.88874
1.88797
1.88621
1.88287
1.87732
1.86902
1.8579
1.84456
1.83034
1.81668
1.80434
1.793
1.78188
1.77048
1.75925
1.74901
1.73965
1.73103
1.72331
1.71686
1.71205
1.70921
1.70854
1.70999
1.71322
1.71754
1.72203
1.72582
1.72833
1.72947
1.8805
1.88045
1.88016
1.87936
1.87766
1.87454
1.86947
1.86202
1.8521
1.84016
1.8272
1.81437
1.80247
1.79161
1.78154
1.7721
1.76365
1.75613
1.74857
1.74043
1.73181
1.72311
1.71485
1.7076
1.70185
1.69791
1.69584
1.69543
1.69622
1.69755
1.69877
1.69943
1.87505
1.87498
1.87468
1.87393
1.8724
1.86965
1.86522
1.85875
1.85011
1.83963
1.82805
1.81637
1.80543
1.7956
1.78695
1.77947
1.77336
1.768
1.76197
1.75447
1.74544
1.73526
1.72464
1.71448
1.70561
1.69863
1.69375
1.69085
1.68955
1.68931
1.68955
1.6898
1.87147
1.8714
1.87113
1.87048
1.86915
1.8668
1.86303
1.85752
1.85014
1.84109
1.83095
1.82055
1.81068
1.8018
1.79412
1.7876
1.78232
1.77751
1.77192
1.76472
1.75567
1.74491
1.73297
1.72079
1.70947
1.69998
1.69287
1.68821
1.68566
1.68463
1.68446
1.68456
1.8687
1.86866
1.86848
1.86799
1.86694
1.86502
1.86189
1.85727
1.85104
1.84333
1.83457
1.8254
1.81647
1.80822
1.80084
1.79428
1.78852
1.78305
1.77704
1.76976
1.76085
1.75022
1.73812
1.72523
1.71261
1.70139
1.69245
1.68619
1.68246
1.68072
1.68022
1.68024
1.86558
1.86564
1.86566
1.86546
1.86481
1.86339
1.8609
1.85709
1.85185
1.84526
1.83762
1.82939
1.82104
1.81295
1.80525
1.79786
1.79085
1.78417
1.77739
1.76986
1.76115
1.751
1.73944
1.72686
1.71405
1.70207
1.69196
1.68444
1.67966
1.67721
1.67638
1.67631
1.86092
1.86115
1.8615
1.86176
1.86163
1.8608
1.85893
1.85579
1.85126
1.8454
1.83841
1.83061
1.82237
1.81395
1.8055
1.79692
1.78849
1.78065
1.77322
1.76559
1.75726
1.74787
1.73727
1.72562
1.71346
1.70162
1.69109
1.68277
1.67714
1.67405
1.67287
1.67271
1.85361
1.85408
1.85486
1.85567
1.85612
1.85583
1.85441
1.85163
1.84738
1.84172
1.83482
1.82695
1.81841
1.80944
1.80018
1.79058
1.78111
1.77258
1.76494
1.75754
1.74987
1.7415
1.73217
1.72187
1.71091
1.69987
1.6896
1.68102
1.67483
1.67119
1.66968
1.66941
1.84279
1.84355
1.84478
1.84604
1.84684
1.84675
1.84538
1.84248
1.83801
1.83209
1.82492
1.81676
1.80789
1.79854
1.78886
1.77884
1.76908
1.76054
1.7532
1.74641
1.73964
1.73249
1.72463
1.71595
1.70655
1.69681
1.68735
1.67902
1.67263
1.66862
1.66679
1.6664
1.82796
1.82901
1.83049
1.83178
1.83236
1.83185
1.82994
1.82648
1.82151
1.81522
1.80782
1.7996
1.79079
1.78161
1.77221
1.76257
1.75334
1.74546
1.73888
1.73299
1.72732
1.72148
1.71516
1.7082
1.70058
1.69245
1.68424
1.67664
1.67044
1.66627
1.6642
1.66369
1.8088
1.81003
1.81132
1.81192
1.8115
1.80994
1.80711
1.80297
1.79765
1.79132
1.78419
1.77647
1.76837
1.76007
1.75168
1.74319
1.73518
1.72847
1.72297
1.71818
1.71367
1.70914
1.70432
1.69904
1.69321
1.68687
1.68022
1.67374
1.66813
1.66408
1.66189
1.66126
1.785
1.78612
1.78649
1.78564
1.78375
1.78098
1.77738
1.77298
1.76787
1.76214
1.75593
1.74939
1.74265
1.73584
1.72904
1.72225
1.71592
1.71066
1.70643
1.7028
1.69946
1.69616
1.69271
1.68896
1.68481
1.68023
1.67528
1.67022
1.66557
1.66196
1.65983
1.65913
1.75594
1.7564
1.75516
1.75274
1.74973
1.7464
1.74278
1.73889
1.7347
1.73023
1.72553
1.72068
1.71576
1.71084
1.70597
1.70115
1.69669
1.69302
1.69008
1.6876
1.68535
1.68316
1.68091
1.67848
1.67581
1.67283
1.66954
1.66605
1.66264
1.65979
1.65795
1.65726
1.72044
1.71961
1.71715
1.71438
1.71161
1.7089
1.70625
1.70362
1.70094
1.69817
1.69532
1.69242
1.6895
1.6866
1.68375
1.68095
1.67837
1.67625
1.67457
1.67316
1.67189
1.67068
1.66944
1.66812
1.66667
1.66505
1.66325
1.66129
1.65928
1.65748
1.6562
1.65565
1.67702
1.67635
1.67508
1.67386
1.67274
1.6717
1.67074
1.66981
1.6689
1.66798
1.66704
1.66609
1.66514
1.6642
1.66327
1.66237
1.66154
1.66086
1.66032
1.65987
1.65947
1.65908
1.6587
1.65828
1.65783
1.65734
1.65678
1.65617
1.65553
1.65493
1.65446
1.65424
)
;

boundaryField
{
    movingWall
    {
        type            fixedValue;
        value           uniform 1.6535;
    }
    fixedWalls
    {
        type            zeroGradient;
    }
    floor
    {
        type            zeroGradient;
    }
    frontAndBack
    {
        type            empty;
    }
}


// ************************************************************************* //
