/*--------------------------------*- C++ -*----------------------------------*\
| =========                 |                                                 |
| \\      /  F ield         | OpenFOAM: The Open Source CFD Toolbox           |
|  \\    /   O peration     | Version:  2212                                  |
|   \\  /    A nd           | Website:  www.openfoam.com                      |
|    \\/     M anipulation  |                                                 |
\*---------------------------------------------------------------------------*/
FoamFile
{
    version     2.0;
    format      ascii;
    arch        "LSB;label=64;scalar=64";
    class       volScalarField;
    location    "960";
    object      Xch;
}
// * * * * * * * * * * * * * * * * * * * * * * * * * * * * * * * * * * * * * //

dimensions      [1 -3 0 0 0 0 0];

internalField   nonuniform List<scalar> 
1024
(
0.0198927
0.019893
0.0198937
0.0198949
0.0198968
0.0198996
0.0199032
0.0199077
0.0199128
0.0199182
0.0199238
0.0199291
0.0199338
0.019937
0.0199376
0.0199351
0.0199297
0.0199229
0.0199158
0.0199089
0.0199022
0.0198958
0.0198899
0.0198846
0.0198799
0.0198761
0.0198732
0.019871
0.0198695
0.0198686
0.019868
0.0198678
0.0198927
0.019893
0.0198937
0.019895
0.019897
0.0198998
0.0199035
0.019908
0.0199131
0.0199186
0.0199242
0.0199296
0.0199344
0.0199376
0.0199382
0.0199356
0.0199302
0.0199233
0.0199162
0.0199092
0.0199025
0.0198962
0.0198902
0.0198849
0.0198802
0.0198763
0.0198733
0.0198711
0.0198696
0.0198686
0.0198681
0.0198679
0.0198928
0.0198931
0.0198939
0.0198952
0.0198973
0.0199002
0.019904
0.0199086
0.0199138
0.0199194
0.0199251
0.0199307
0.0199356
0.019939
0.0199395
0.0199368
0.0199312
0.0199242
0.0199171
0.01991
0.0199033
0.0198969
0.0198909
0.0198855
0.0198807
0.0198767
0.0198736
0.0198713
0.0198697
0.0198687
0.0198682
0.019868
0.019893
0.0198933
0.0198941
0.0198955
0.0198977
0.0199007
0.0199047
0.0199095
0.0199148
0.0199206
0.0199265
0.0199324
0.0199378
0.0199415
0.0199419
0.0199388
0.0199329
0.0199257
0.0199183
0.0199112
0.0199044
0.0198979
0.0198919
0.0198864
0.0198815
0.0198774
0.0198741
0.0198717
0.01987
0.019869
0.0198684
0.0198682
0.0198932
0.0198935
0.0198943
0.0198958
0.0198981
0.0199013
0.0199055
0.0199104
0.019916
0.019922
0.0199284
0.019935
0.0199412
0.0199454
0.0199457
0.019942
0.0199354
0.0199277
0.0199201
0.0199128
0.0199058
0.0198993
0.0198932
0.0198875
0.0198825
0.0198782
0.0198747
0.0198722
0.0198704
0.0198693
0.0198687
0.0198684
0.0198933
0.0198937
0.0198946
0.0198961
0.0198985
0.0199019
0.0199062
0.0199113
0.0199171
0.0199236
0.0199307
0.0199383
0.0199458
0.0199509
0.019951
0.0199465
0.0199388
0.0199304
0.0199222
0.0199146
0.0199074
0.0199008
0.0198945
0.0198888
0.0198836
0.0198791
0.0198755
0.0198728
0.0198709
0.0198697
0.019869
0.0198688
0.0198935
0.0198938
0.0198947
0.0198963
0.0198987
0.0199022
0.0199066
0.0199119
0.0199181
0.0199251
0.0199333
0.0199424
0.0199517
0.019958
0.019958
0.0199523
0.0199432
0.0199335
0.0199246
0.0199165
0.019909
0.0199022
0.0198959
0.01989
0.0198847
0.0198801
0.0198763
0.0198734
0.0198714
0.0198701
0.0198694
0.0198691
0.0198935
0.0198938
0.0198947
0.0198963
0.0198987
0.0199021
0.0199065
0.019912
0.0199186
0.0199265
0.019936
0.0199472
0.0199587
0.0199665
0.0199666
0.0199595
0.0199484
0.0199371
0.0199271
0.0199182
0.0199104
0.0199033
0.0198968
0.0198909
0.0198855
0.0198808
0.0198769
0.0198739
0.0198719
0.0198705
0.0198698
0.0198695
0.0198932
0.0198936
0.0198944
0.0198959
0.0198982
0.0199015
0.0199059
0.0199115
0.0199185
0.0199273
0.0199386
0.0199523
0.0199667
0.0199763
0.0199764
0.0199675
0.019954
0.0199407
0.0199292
0.0199194
0.019911
0.0199037
0.0198971
0.0198912
0.0198858
0.0198811
0.0198772
0.0198742
0.0198722
0.0198708
0.0198701
0.0198698
0.0198927
0.019893
0.0198938
0.0198952
0.0198973
0.0199004
0.0199046
0.0199102
0.0199177
0.0199277
0.0199411
0.019958
0.0199758
0.0199873
0.019987
0.0199759
0.0199596
0.0199438
0.0199306
0.0199197
0.0199107
0.0199031
0.0198964
0.0198905
0.0198853
0.0198808
0.019877
0.0198742
0.0198722
0.0198709
0.0198702
0.0198699
0.0198917
0.019892
0.0198927
0.019894
0.0198959
0.0198987
0.0199027
0.0199083
0.0199162
0.0199277
0.0199439
0.019965
0.0199866
0.0199997
0.0199983
0.0199844
0.0199647
0.0199462
0.019931
0.0199188
0.019909
0.019901
0.0198944
0.0198887
0.0198838
0.0198796
0.0198762
0.0198736
0.0198718
0.0198707
0.01987
0.0198697
0.0198907
0.0198909
0.0198915
0.0198925
0.0198942
0.0198967
0.0199005
0.0199062
0.019915
0.0199285
0.0199485
0.0199746
0.0200002
0.0200141
0.0200107
0.0199933
0.01997
0.0199484
0.0199308
0.0199168
0.0199059
0.0198975
0.0198909
0.0198856
0.0198812
0.0198775
0.0198746
0.0198724
0.0198709
0.0198699
0.0198693
0.019869
0.0198905
0.0198906
0.019891
0.0198917
0.0198931
0.0198954
0.0198993
0.0199056
0.0199161
0.0199329
0.019958
0.0199896
0.0200182
0.0200316
0.0200255
0.0200049
0.0199784
0.0199536
0.0199328
0.0199161
0.0199032
0.0198936
0.0198865
0.0198814
0.0198775
0.0198745
0.0198722
0.0198705
0.0198693
0.0198686
0.0198682
0.019868
0.0198946
0.0198946
0.0198946
0.0198949
0.019896
0.0198983
0.0199028
0.0199108
0.0199244
0.0199461
0.0199771
0.0200133
0.0200428
0.0200541
0.0200459
0.0200246
0.0199977
0.0199708
0.0199464
0.0199252
0.0199079
0.0198946
0.0198851
0.0198786
0.0198743
0.0198715
0.0198699
0.019869
0.0198687
0.0198688
0.019869
0.0198692
0.0199093
0.019909
0.0199087
0.0199087
0.0199097
0.0199126
0.0199187
0.0199299
0.0199484
0.019976
0.0200118
0.0200493
0.0200764
0.0200856
0.0200795
0.0200644
0.0200439
0.0200202
0.0199953
0.0199705
0.0199472
0.0199267
0.0199104
0.0198979
0.0198895
0.0198847
0.0198829
0.0198834
0.019885
0.019887
0.0198887
0.0198897
0.0199395
0.0199392
0.019939
0.0199394
0.0199413
0.019946
0.0199555
0.0199718
0.0199966
0.0200295
0.0200665
0.0200999
0.0201225
0.020134
0.0201389
0.0201403
0.020138
0.0201306
0.0201184
0.0201022
0.0200835
0.0200637
0.0200445
0.0200264
0.0200108
0.0199985
0.0199901
0.0199855
0.0199838
0.019984
0.019985
0.0199857
0.0199777
0.0199776
0.0199779
0.0199791
0.0199825
0.0199895
0.020002
0.0200215
0.0200486
0.0200816
0.0201161
0.0201473
0.0201726
0.0201935
0.0202133
0.0202336
0.0202532
0.0202692
0.0202805
0.020287
0.0202889
0.0202863
0.0202796
0.0202693
0.0202561
0.0202413
0.0202262
0.0202124
0.0202014
0.020194
0.0201899
0.0201884
0.0200079
0.0200079
0.0200084
0.0200101
0.020014
0.0200216
0.0200341
0.020053
0.0200782
0.0201083
0.0201403
0.0201708
0.0201982
0.0202232
0.0202476
0.0202723
0.0202962
0.0203176
0.0203366
0.020354
0.0203693
0.020382
0.0203914
0.0203966
0.0203975
0.020394
0.0203868
0.0203774
0.0203677
0.0203595
0.0203541
0.0203516
0.0200279
0.020028
0.0200286
0.0200303
0.0200341
0.0200412
0.0200526
0.0200695
0.020092
0.020119
0.0201483
0.0201772
0.0202039
0.0202282
0.0202506
0.0202714
0.0202895
0.020305
0.02032
0.020336
0.0203527
0.0203696
0.0203855
0.0203996
0.0204108
0.0204184
0.0204225
0.0204232
0.0204216
0.0204189
0.0204164
0.0204151
0.0200408
0.020041
0.0200416
0.0200433
0.0200467
0.0200529
0.0200629
0.0200775
0.0200972
0.020121
0.0201473
0.0201737
0.0201985
0.0202208
0.0202403
0.020257
0.0202702
0.0202812
0.0202932
0.0203078
0.0203253
0.0203451
0.0203657
0.0203853
0.0204025
0.0204161
0.0204256
0.0204313
0.020434
0.0204345
0.0204342
0.0204337
0.0200494
0.0200496
0.0200501
0.0200516
0.0200545
0.0200598
0.0200683
0.0200808
0.0200977
0.0201183
0.0201414
0.0201651
0.0201876
0.0202079
0.0202254
0.02024
0.0202516
0.0202615
0.0202727
0.0202868
0.0203046
0.0203256
0.0203489
0.0203726
0.0203945
0.0204129
0.0204267
0.0204358
0.0204408
0.0204429
0.0204434
0.0204433
0.020056
0.0200561
0.0200565
0.0200575
0.0200599
0.0200642
0.0200713
0.0200818
0.020096
0.0201137
0.0201337
0.0201547
0.0201751
0.0201939
0.0202107
0.0202254
0.020238
0.0202493
0.0202615
0.020276
0.0202936
0.0203146
0.0203383
0.0203634
0.020388
0.0204098
0.0204271
0.0204393
0.0204465
0.02045
0.0204511
0.0204511
0.020063
0.0200629
0.0200629
0.0200634
0.0200649
0.0200681
0.0200738
0.0200825
0.0200945
0.0201095
0.020127
0.0201457
0.0201648
0.0201831
0.0202004
0.0202168
0.0202319
0.0202459
0.0202598
0.0202749
0.0202923
0.0203124
0.0203352
0.0203599
0.0203849
0.0204082
0.0204278
0.0204423
0.0204516
0.0204564
0.0204581
0.0204583
0.0200731
0.0200727
0.020072
0.0200715
0.0200719
0.0200739
0.0200782
0.0200854
0.0200957
0.020109
0.0201248
0.0201424
0.020161
0.0201798
0.0201986
0.0202173
0.0202353
0.0202517
0.020267
0.0202825
0.0202993
0.020318
0.020339
0.0203619
0.0203857
0.0204088
0.0204292
0.0204453
0.0204562
0.0204622
0.0204645
0.0204649
0.0200886
0.0200876
0.020086
0.0200844
0.0200836
0.0200844
0.0200877
0.0200941
0.0201036
0.0201163
0.0201317
0.0201492
0.0201681
0.0201879
0.0202081
0.0202288
0.0202489
0.0202668
0.0202826
0.0202977
0.0203132
0.02033
0.0203486
0.0203689
0.0203904
0.0204119
0.0204318
0.0204484
0.0204604
0.0204674
0.0204704
0.0204709
0.0201111
0.0201096
0.0201071
0.0201045
0.020103
0.0201034
0.0201065
0.020113
0.0201228
0.0201358
0.0201516
0.0201694
0.0201887
0.020209
0.0202299
0.0202514
0.0202721
0.02029
0.0203052
0.0203191
0.0203329
0.0203473
0.0203629
0.0203801
0.0203986
0.0204176
0.020436
0.0204521
0.0204644
0.0204721
0.0204757
0.0204765
0.0201419
0.0201397
0.0201367
0.0201341
0.020133
0.0201342
0.0201384
0.0201459
0.0201567
0.0201703
0.0201862
0.0202039
0.0202229
0.0202426
0.0202628
0.0202833
0.0203028
0.0203193
0.020333
0.0203451
0.0203567
0.0203685
0.0203811
0.0203949
0.02041
0.0204259
0.0204418
0.0204565
0.0204685
0.0204765
0.0204804
0.0204815
0.0201815
0.0201789
0.0201763
0.0201751
0.020176
0.0201794
0.0201854
0.0201942
0.0202056
0.020219
0.0202343
0.0202508
0.020268
0.0202858
0.0203037
0.0203217
0.0203386
0.0203526
0.0203641
0.020374
0.0203832
0.0203924
0.020402
0.0204125
0.020424
0.0204365
0.0204494
0.020462
0.0204727
0.0204805
0.0204847
0.0204859
0.0202305
0.0202282
0.0202274
0.0202292
0.0202332
0.0202389
0.0202465
0.0202557
0.0202665
0.0202786
0.0202918
0.0203057
0.02032
0.0203344
0.0203489
0.0203633
0.0203766
0.0203876
0.0203965
0.020404
0.0204108
0.0204175
0.0204245
0.0204319
0.0204401
0.0204491
0.0204588
0.0204686
0.0204775
0.0204844
0.0204885
0.0204898
0.0202902
0.0202892
0.0202918
0.0202968
0.020303
0.0203099
0.0203174
0.0203255
0.0203343
0.0203437
0.0203536
0.0203639
0.0203743
0.0203847
0.0203951
0.0204053
0.0204147
0.0204224
0.0204285
0.0204336
0.0204383
0.0204427
0.0204472
0.0204521
0.0204574
0.0204633
0.0204697
0.0204764
0.020483
0.0204884
0.0204919
0.0204932
0.020363
0.0203647
0.0203697
0.0203754
0.0203811
0.0203867
0.0203922
0.0203977
0.0204033
0.0204091
0.0204151
0.0204212
0.0204273
0.0204335
0.0204395
0.0204455
0.0204509
0.0204553
0.0204589
0.0204618
0.0204644
0.0204669
0.0204694
0.020472
0.0204749
0.0204781
0.0204816
0.0204854
0.0204893
0.0204927
0.0204951
0.0204962
0.0204519
0.0204533
0.0204559
0.0204584
0.0204607
0.0204628
0.0204648
0.0204667
0.0204686
0.0204706
0.0204725
0.0204745
0.0204765
0.0204785
0.0204805
0.0204824
0.0204842
0.0204856
0.0204867
0.0204876
0.0204885
0.0204893
0.02049
0.0204909
0.0204918
0.0204927
0.0204938
0.020495
0.0204962
0.0204974
0.0204983
0.0204987
)
;

boundaryField
{
    movingWall
    {
        type            fixedValue;
        value           uniform 0.0205;
    }
    fixedWalls
    {
        type            zeroGradient;
    }
    floor
    {
        type            zeroGradient;
    }
    frontAndBack
    {
        type            empty;
    }
}


// ************************************************************************* //
