/*--------------------------------*- C++ -*----------------------------------*\
| =========                 |                                                 |
| \\      /  F ield         | OpenFOAM: The Open Source CFD Toolbox           |
|  \\    /   O peration     | Version:  2212                                  |
|   \\  /    A nd           | Website:  www.openfoam.com                      |
|    \\/     M anipulation  |                                                 |
\*---------------------------------------------------------------------------*/
FoamFile
{
    version     2.0;
    format      ascii;
    arch        "LSB;label=64;scalar=64";
    class       volScalarField;
    location    "960";
    object      Xpr;
}
// * * * * * * * * * * * * * * * * * * * * * * * * * * * * * * * * * * * * * //

dimensions      [1 -3 0 0 0 0 0];

internalField   nonuniform List<scalar> 
1024
(
0.0816007
0.0816019
0.0816049
0.0816101
0.0816184
0.0816303
0.0816459
0.0816649
0.0816866
0.08171
0.0817337
0.0817566
0.0817767
0.0817905
0.0817931
0.0817822
0.0817592
0.08173
0.0816998
0.08167
0.0816413
0.0816142
0.0815889
0.081566
0.0815462
0.0815298
0.0815171
0.0815078
0.0815014
0.0814974
0.0814952
0.0814943
0.0816009
0.0816021
0.0816051
0.0816106
0.081619
0.0816311
0.081647
0.0816663
0.0816882
0.0817117
0.0817356
0.0817587
0.0817791
0.081793
0.0817954
0.0817843
0.0817611
0.0817318
0.0817015
0.0816716
0.0816429
0.0816156
0.0815902
0.0815672
0.0815472
0.0815307
0.0815177
0.0815082
0.0815017
0.0814977
0.0814954
0.0814945
0.0816013
0.0816026
0.0816057
0.0816114
0.0816203
0.0816328
0.0816492
0.081669
0.0816913
0.0817151
0.0817395
0.0817633
0.0817845
0.0817989
0.0818011
0.0817894
0.0817655
0.0817357
0.081705
0.0816749
0.0816461
0.0816187
0.0815931
0.0815698
0.0815494
0.0815324
0.081519
0.0815092
0.0815025
0.0814982
0.0814959
0.081495
0.0816019
0.0816033
0.0816066
0.0816126
0.081622
0.0816352
0.0816522
0.0816726
0.0816955
0.0817201
0.0817455
0.0817708
0.0817939
0.0818097
0.0818114
0.0817982
0.0817728
0.0817419
0.0817105
0.08168
0.0816509
0.0816232
0.0815973
0.0815736
0.0815527
0.0815351
0.0815211
0.0815108
0.0815037
0.0814992
0.0814967
0.0814957
0.0816027
0.0816042
0.0816077
0.081614
0.0816239
0.0816377
0.0816555
0.0816766
0.0817004
0.0817262
0.0817535
0.0817817
0.0818082
0.0818263
0.0818275
0.0818117
0.0817835
0.0817506
0.081718
0.0816867
0.081657
0.081629
0.0816027
0.0815785
0.081557
0.0815386
0.0815239
0.0815129
0.0815053
0.0815005
0.0814979
0.0814969
0.0816035
0.081605
0.0816087
0.0816153
0.0816256
0.08164
0.0816584
0.0816803
0.0817053
0.0817329
0.0817634
0.0817961
0.0818279
0.0818497
0.0818504
0.0818309
0.0817983
0.0817619
0.0817271
0.0816944
0.0816639
0.0816354
0.0816087
0.081584
0.0815618
0.0815427
0.0815272
0.0815155
0.0815074
0.0815022
0.0814994
0.0814983
0.0816041
0.0816056
0.0816094
0.0816161
0.0816266
0.0816413
0.0816602
0.0816829
0.0817093
0.0817396
0.0817745
0.0818137
0.0818531
0.08188
0.0818804
0.081856
0.081817
0.0817756
0.0817373
0.0817025
0.0816707
0.0816415
0.0816143
0.0815892
0.0815664
0.0815466
0.0815305
0.0815181
0.0815095
0.0815041
0.0815012
0.0815
0.0816041
0.0816056
0.0816093
0.081616
0.0816264
0.081641
0.08166
0.0816835
0.0817116
0.0817453
0.081786
0.0818339
0.0818832
0.0819167
0.081917
0.0818865
0.0818392
0.0817908
0.0817478
0.0817099
0.0816764
0.0816461
0.0816185
0.081593
0.0815699
0.0815497
0.0815331
0.0815204
0.0815115
0.0815059
0.0815028
0.0815016
0.0816031
0.0816046
0.0816081
0.0816145
0.0816245
0.0816386
0.0816574
0.0816813
0.0817112
0.081749
0.0817971
0.081856
0.0819176
0.0819587
0.0819588
0.0819209
0.0818632
0.0818062
0.081757
0.0817152
0.0816793
0.0816479
0.0816197
0.0815942
0.0815712
0.0815511
0.0815345
0.0815218
0.0815129
0.0815072
0.0815041
0.0815029
0.0816007
0.0816021
0.0816054
0.0816113
0.0816205
0.0816337
0.0816518
0.0816759
0.0817077
0.0817504
0.0818077
0.0818804
0.0819565
0.0820057
0.0820044
0.0819569
0.081887
0.0818196
0.0817631
0.0817165
0.0816778
0.0816451
0.0816167
0.0815915
0.0815691
0.0815497
0.0815338
0.0815216
0.081513
0.0815076
0.0815046
0.0815033
0.0815967
0.081598
0.081601
0.0816062
0.0816144
0.0816264
0.0816435
0.0816675
0.0817015
0.0817505
0.0818199
0.08191
0.0820026
0.0820587
0.0820529
0.0819933
0.0819091
0.0818297
0.0817647
0.0817124
0.0816704
0.0816363
0.081608
0.0815837
0.0815627
0.0815448
0.0815303
0.0815192
0.0815114
0.0815064
0.0815036
0.0815024
0.081592
0.0815931
0.0815955
0.0815999
0.081607
0.0816178
0.081634
0.0816585
0.081696
0.081754
0.0818398
0.0819513
0.0820607
0.0821204
0.0821059
0.0820315
0.0819318
0.0818391
0.0817637
0.0817039
0.0816574
0.0816213
0.0815931
0.0815703
0.0815514
0.0815359
0.0815234
0.081514
0.0815074
0.0815031
0.0815006
0.0814995
0.0815914
0.0815919
0.0815935
0.0815966
0.0816025
0.0816125
0.081629
0.0816561
0.0817007
0.0817727
0.0818802
0.0820153
0.082138
0.0821954
0.0821689
0.0820808
0.0819678
0.0818612
0.0817724
0.081701
0.0816457
0.0816044
0.0815743
0.0815522
0.0815356
0.0815228
0.081513
0.0815058
0.0815008
0.0814976
0.0814958
0.0814951
0.0816091
0.0816088
0.0816088
0.0816103
0.0816148
0.0816248
0.081644
0.0816783
0.0817366
0.0818295
0.0819622
0.0821169
0.0822433
0.0822917
0.0822563
0.0821654
0.0820504
0.081935
0.0818305
0.0817399
0.0816658
0.0816091
0.0815684
0.0815405
0.0815221
0.0815102
0.081503
0.0814992
0.0814979
0.0814983
0.0814993
0.0815
0.0816716
0.0816705
0.0816692
0.0816693
0.0816735
0.0816858
0.0817119
0.0817599
0.0818392
0.0819571
0.0821105
0.0822708
0.082387
0.0824264
0.0824002
0.0823355
0.0822477
0.0821463
0.0820398
0.0819336
0.0818339
0.0817464
0.0816765
0.0816232
0.081587
0.0815666
0.081559
0.0815608
0.0815679
0.0815765
0.0815838
0.0815877
0.0818011
0.0817999
0.081799
0.0818006
0.0818087
0.0818291
0.0818697
0.0819395
0.0820456
0.0821863
0.0823448
0.0824876
0.0825845
0.0826335
0.0826543
0.0826605
0.0826507
0.082619
0.0825667
0.0824976
0.0824175
0.0823328
0.0822504
0.082173
0.0821061
0.0820537
0.0820177
0.0819979
0.0819907
0.0819917
0.0819958
0.081999
0.0819648
0.0819643
0.0819652
0.0819706
0.0819852
0.0820152
0.0820685
0.0821521
0.0822681
0.0824092
0.0825571
0.0826905
0.0827987
0.0828882
0.0829727
0.0830597
0.0831438
0.0832123
0.0832604
0.0832882
0.0832964
0.0832854
0.0832567
0.0832124
0.0831562
0.0830927
0.0830281
0.0829693
0.0829222
0.0828902
0.0828728
0.0828664
0.0820938
0.0820939
0.082096
0.0821033
0.0821201
0.0821523
0.0822061
0.0822867
0.0823945
0.0825234
0.0826604
0.082791
0.0829083
0.0830154
0.0831197
0.0832255
0.0833278
0.0834191
0.0835008
0.0835751
0.0836407
0.0836951
0.083735
0.0837576
0.0837612
0.0837462
0.0837154
0.0836752
0.0836336
0.0835987
0.0835755
0.083565
0.0821794
0.0821798
0.0821824
0.0821899
0.0822061
0.0822362
0.0822853
0.0823576
0.0824538
0.0825695
0.0826949
0.0828185
0.0829329
0.0830368
0.0831327
0.0832215
0.0832989
0.0833652
0.0834298
0.083498
0.0835696
0.0836417
0.0837101
0.0837702
0.083818
0.0838509
0.0838682
0.0838714
0.0838644
0.0838528
0.0838423
0.0838364
0.0822348
0.0822354
0.0822381
0.0822451
0.0822598
0.0822862
0.082329
0.0823919
0.0824758
0.0825778
0.0826903
0.0828036
0.0829098
0.083005
0.0830884
0.0831599
0.0832165
0.0832637
0.0833147
0.0833774
0.0834524
0.083537
0.083625
0.0837093
0.0837828
0.0838408
0.0838815
0.083906
0.0839173
0.0839199
0.0839182
0.0839163
0.0822715
0.0822722
0.0822746
0.0822808
0.0822934
0.082316
0.0823525
0.082406
0.082478
0.0825663
0.0826652
0.0827666
0.0828631
0.0829497
0.0830246
0.0830873
0.0831367
0.0831792
0.083227
0.0832876
0.0833635
0.0834535
0.0835532
0.0836546
0.0837486
0.0838274
0.0838864
0.0839253
0.0839468
0.0839558
0.0839577
0.0839571
0.0822997
0.0823
0.0823016
0.0823063
0.0823164
0.0823349
0.0823653
0.0824103
0.0824711
0.0825464
0.0826321
0.0827219
0.0828094
0.08289
0.0829618
0.0830249
0.0830784
0.0831272
0.0831793
0.0832413
0.0833167
0.0834063
0.0835079
0.0836156
0.0837207
0.083814
0.0838881
0.0839401
0.0839712
0.083986
0.0839905
0.0839907
0.0823298
0.0823293
0.0823292
0.0823313
0.0823378
0.0823516
0.0823759
0.0824131
0.0824643
0.0825287
0.0826034
0.0826838
0.0827652
0.0828438
0.0829179
0.0829879
0.0830526
0.0831124
0.0831718
0.0832367
0.0833111
0.0833972
0.0834947
0.0836002
0.0837072
0.083807
0.0838908
0.0839531
0.0839929
0.0840133
0.0840205
0.0840213
0.082373
0.082371
0.082368
0.082366
0.0823677
0.0823762
0.0823947
0.0824254
0.0824695
0.0825264
0.0825942
0.0826697
0.0827491
0.0828297
0.0829098
0.08299
0.0830672
0.0831375
0.0832029
0.0832693
0.0833409
0.083421
0.0835109
0.083609
0.0837108
0.0838095
0.083897
0.0839658
0.0840124
0.0840381
0.0840481
0.0840496
0.0824391
0.082435
0.0824282
0.0824213
0.0824178
0.0824214
0.0824355
0.0824626
0.0825035
0.0825578
0.0826236
0.0826985
0.0827795
0.082864
0.0829506
0.0830393
0.0831255
0.0832019
0.0832696
0.0833343
0.0834007
0.0834725
0.0835518
0.0836388
0.0837308
0.083823
0.0839083
0.0839794
0.0840305
0.0840605
0.0840732
0.0840756
0.0825357
0.082529
0.0825183
0.0825074
0.0825008
0.0825025
0.082516
0.0825436
0.0825857
0.0826414
0.0827087
0.082785
0.0828678
0.0829547
0.0830441
0.083136
0.0832245
0.083301
0.0833662
0.0834259
0.0834847
0.0835463
0.0836133
0.0836869
0.0837659
0.0838474
0.0839261
0.083995
0.0840477
0.0840808
0.0840959
0.0840993
0.0826673
0.0826581
0.0826451
0.0826339
0.0826292
0.0826345
0.0826525
0.0826846
0.0827306
0.0827887
0.082857
0.0829329
0.0830141
0.0830985
0.0831848
0.0832726
0.0833561
0.0834268
0.0834853
0.0835372
0.0835867
0.0836372
0.0836912
0.0837503
0.0838146
0.0838827
0.083951
0.084014
0.084065
0.0840993
0.0841163
0.0841207
0.0828367
0.0828258
0.0828146
0.0828095
0.0828135
0.0828278
0.0828537
0.0828913
0.0829398
0.0829975
0.0830627
0.0831332
0.0832072
0.0832831
0.0833597
0.0834368
0.0835091
0.0835693
0.0836182
0.0836606
0.0837001
0.0837394
0.0837807
0.0838257
0.0838749
0.0839281
0.0839835
0.0840372
0.0840834
0.0841166
0.0841345
0.0841397
0.0830464
0.0830365
0.0830333
0.0830409
0.0830579
0.0830827
0.083115
0.0831546
0.0832007
0.0832525
0.0833088
0.0833682
0.0834294
0.0834914
0.0835532
0.0836148
0.083672
0.0837191
0.0837569
0.083789
0.0838183
0.083847
0.0838767
0.0839087
0.0839438
0.0839823
0.0840236
0.0840655
0.0841038
0.0841333
0.0841507
0.0841564
0.0833019
0.0832979
0.0833088
0.0833301
0.0833567
0.0833863
0.0834185
0.0834533
0.0834909
0.0835311
0.0835735
0.0836174
0.083662
0.0837066
0.0837509
0.0837945
0.0838348
0.0838677
0.0838939
0.0839159
0.0839357
0.0839548
0.0839742
0.083995
0.0840177
0.0840427
0.0840702
0.0840991
0.0841272
0.0841504
0.0841654
0.084171
0.0836135
0.0836208
0.0836423
0.0836667
0.0836912
0.0837151
0.0837386
0.083762
0.083786
0.0838108
0.0838365
0.0838627
0.0838891
0.0839153
0.0839412
0.0839666
0.0839899
0.0840089
0.0840239
0.0840364
0.0840476
0.0840582
0.0840689
0.0840802
0.0840925
0.0841061
0.0841212
0.0841375
0.084154
0.0841687
0.0841791
0.0841835
0.0839941
0.0839999
0.0840111
0.0840218
0.0840317
0.0840408
0.0840494
0.0840576
0.0840657
0.084074
0.0840824
0.084091
0.0840996
0.0841081
0.0841165
0.0841247
0.0841322
0.0841383
0.0841431
0.0841471
0.0841507
0.084154
0.0841574
0.0841609
0.0841647
0.0841689
0.0841736
0.0841786
0.0841839
0.0841888
0.0841926
0.0841944
)
;

boundaryField
{
    movingWall
    {
        type            fixedValue;
        value           uniform 0.0842;
    }
    fixedWalls
    {
        type            zeroGradient;
    }
    floor
    {
        type            zeroGradient;
    }
    frontAndBack
    {
        type            empty;
    }
}


// ************************************************************************* //
