/*--------------------------------*- C++ -*----------------------------------*\
| =========                 |                                                 |
| \\      /  F ield         | OpenFOAM: The Open Source CFD Toolbox           |
|  \\    /   O peration     | Version:  2206                                  |
|   \\  /    A nd           | Website:  www.openfoam.com                      |
|    \\/     M anipulation  |                                                 |
\*---------------------------------------------------------------------------*/
FoamFile
{
    version     2.0;
    format      ascii;
    arch        "LSB;label=64;scalar=64";
    class       volScalarField;
    location    "3/water";
    object      alpha.gas_0;
}
// * * * * * * * * * * * * * * * * * * * * * * * * * * * * * * * * * * * * * //

dimensions      [0 0 0 0 0 0 0];

internalField   nonuniform List<scalar> 
23300
(
1e-15
1e-15
1e-15
1e-15
1e-15
1e-15
1e-15
1e-15
1e-15
1e-15
1e-15
1e-15
1e-15
1e-15
1e-15
1e-15
1e-15
1e-15
1e-15
1e-15
1e-15
1e-15
1e-15
1e-15
1e-15
1e-15
1e-15
1e-15
1e-15
1e-15
1e-15
1e-15
1e-15
1e-15
1e-15
1e-15
1e-15
1e-15
1e-15
1e-15
1e-15
1e-15
1e-15
1e-15
1e-15
1e-15
1e-15
1e-15
1e-15
1e-15
1e-15
1e-15
1e-15
1e-15
1e-15
1e-15
1e-15
1e-15
1e-15
1e-15
1e-15
1e-15
1e-15
1e-15
1e-15
1e-15
1e-15
1e-15
1e-15
1e-15
1e-15
1e-15
1e-15
1e-15
1e-15
1e-15
1e-15
1e-15
1e-15
1e-15
1e-15
1e-15
1e-15
1e-15
1e-15
1e-15
1e-15
1e-15
1e-15
1e-15
1e-15
1e-15
1e-15
1e-15
1e-15
1e-15
1e-15
1e-15
1e-15
1e-15
1e-15
1e-15
1e-15
1e-15
1e-15
1e-15
1e-15
1e-15
1e-15
1e-15
1e-15
1e-15
1e-15
1e-15
1e-15
1e-15
1e-15
1e-15
1e-15
1e-15
1e-15
1e-15
1e-15
1e-15
1e-15
1e-15
1e-15
1e-15
1e-15
1e-15
1e-15
1e-15
1e-15
1e-15
1e-15
1e-15
1e-15
1e-15
1e-15
1e-15
1e-15
1e-15
1e-15
1e-15
1e-15
1e-15
1e-15
1e-15
1e-15
1e-15
1e-15
1e-15
1e-15
1e-15
1e-15
1e-15
1e-15
1e-15
1e-15
1e-15
1e-15
1e-15
1e-15
1e-15
1e-15
1e-15
1e-15
1e-15
1e-15
1e-15
1e-15
1e-15
1e-15
1e-15
1e-15
1e-15
1e-15
1e-15
1e-15
1e-15
1e-15
1e-15
1e-15
1e-15
1e-15
1e-15
1e-15
1e-15
1e-15
1e-15
1e-15
1e-15
1e-15
1e-15
1e-15
1e-15
1e-15
1e-15
1e-15
1e-15
1e-15
1e-15
1e-15
1e-15
1e-15
1e-15
1e-15
1e-15
1e-15
1e-15
1e-15
1e-15
1e-15
1e-15
1e-15
1e-15
1e-15
1e-15
1e-15
1e-15
1e-15
1e-15
1e-15
1e-15
1e-15
1e-15
1e-15
1e-15
1e-15
1e-15
1e-15
1e-15
1e-15
1e-15
1e-15
1e-15
1e-15
1e-15
1e-15
1e-15
1e-15
1e-15
1e-15
1e-15
1e-15
1e-15
1e-15
1e-15
1e-15
1e-15
1e-15
1e-15
1e-15
1e-15
1e-15
1e-15
1e-15
1e-15
1e-15
1e-15
1e-15
1e-15
1e-15
1e-15
1e-15
1e-15
1e-15
1e-15
1e-15
1e-15
1e-15
1e-15
1e-15
1e-15
1e-15
1e-15
1e-15
1e-15
1e-15
1e-15
1e-15
1e-15
1e-15
1e-15
1e-15
1e-15
1e-15
1e-15
1e-15
1e-15
1e-15
1e-15
1e-15
1e-15
1e-15
1e-15
1e-15
1e-15
1e-15
1e-15
1e-15
1e-15
1e-15
1e-15
1e-15
1e-15
1e-15
1e-15
1e-15
1e-15
1e-15
1e-15
1e-15
1e-15
1e-15
1e-15
1e-15
1e-15
1e-15
1e-15
1e-15
1e-15
1e-15
1e-15
1e-15
1e-15
1e-15
1e-15
1e-15
1e-15
1e-15
1e-15
1e-15
1e-15
1e-15
1e-15
1e-15
1e-15
1e-15
1e-15
1e-15
1e-15
1e-15
1e-15
1e-15
1e-15
1e-15
1e-15
1e-15
1e-15
1e-15
1e-15
1e-15
1e-15
1e-15
1e-15
1e-15
1e-15
1e-15
1e-15
1e-15
1e-15
1e-15
1e-15
1e-15
1e-15
1e-15
1e-15
1e-15
1e-15
1e-15
1e-15
1e-15
1e-15
1e-15
1e-15
1e-15
1e-15
1e-15
1e-15
1e-15
1e-15
1e-15
1e-15
1e-15
1e-15
1e-15
1e-15
1e-15
1e-15
1e-15
1e-15
1e-15
1e-15
1e-15
1e-15
1e-15
1e-15
1e-15
1e-15
1e-15
1e-15
1e-15
1e-15
1e-15
1e-15
1e-15
1e-15
1e-15
1e-15
1e-15
1e-15
1e-15
1e-15
1e-15
1e-15
1e-15
1e-15
1e-15
1e-15
1e-15
1e-15
1e-15
1e-15
1e-15
1e-15
1e-15
1e-15
1e-15
1e-15
1e-15
1e-15
1e-15
1e-15
1e-15
1e-15
1e-15
1e-15
1e-15
1e-15
1e-15
1e-15
1e-15
1e-15
1e-15
1e-15
1e-15
1e-15
1e-15
1e-15
1e-15
1e-15
1e-15
1e-15
1e-15
1e-15
1e-15
1e-15
1e-15
1e-15
1e-15
1e-15
1e-15
1e-15
1e-15
1e-15
1e-15
1e-15
1e-15
1e-15
1e-15
1e-15
1e-15
1e-15
1e-15
1e-15
1e-15
1e-15
1e-15
1e-15
1e-15
1e-15
1e-15
1e-15
1e-15
1e-15
1e-15
1e-15
1e-15
1e-15
1e-15
1e-15
1e-15
1e-15
1e-15
1e-15
1e-15
1e-15
1e-15
1e-15
1e-15
1e-15
1e-15
1e-15
1e-15
1e-15
1e-15
1e-15
1e-15
1e-15
1e-15
1e-15
1e-15
1e-15
1e-15
1e-15
1e-15
1e-15
1e-15
1e-15
1e-15
1e-15
1e-15
1e-15
1e-15
1e-15
1e-15
1e-15
1e-15
1e-15
1e-15
1e-15
1e-15
1e-15
1e-15
1e-15
1e-15
1e-15
1e-15
1e-15
1e-15
1e-15
1e-15
1e-15
1e-15
1e-15
1e-15
1e-15
1e-15
1e-15
1e-15
1e-15
1e-15
1e-15
1e-15
1e-15
1e-15
1e-15
1e-15
1e-15
1.00884614388e-15
1e-15
1e-15
1e-15
1e-15
1e-15
1e-15
1e-15
1e-15
1e-15
1e-15
1e-15
1e-15
1e-15
1e-15
1e-15
1e-15
1e-15
1e-15
1e-15
1e-15
1e-15
1e-15
1e-15
1e-15
1e-15
1e-15
1e-15
1e-15
1e-15
1e-15
1e-15
1e-15
1e-15
1e-15
1e-15
1e-15
1e-15
1e-15
1e-15
1e-15
1e-15
1e-15
1e-15
1e-15
1e-15
1e-15
1e-15
1e-15
1e-15
1e-15
1e-15
1e-15
1e-15
1e-15
1e-15
1e-15
1e-15
1e-15
1e-15
1e-15
1e-15
1e-15
1e-15
1e-15
1e-15
1e-15
1e-15
1e-15
1e-15
1e-15
1e-15
1e-15
1e-15
1e-15
1e-15
1e-15
1e-15
1e-15
1e-15
1e-15
1e-15
1e-15
1e-15
1e-15
1e-15
1e-15
1e-15
1e-15
1e-15
1e-15
1e-15
1e-15
1e-15
1e-15
1e-15
1e-15
1e-15
1e-15
1e-15
1e-15
1e-15
1e-15
1e-15
1e-15
1e-15
1e-15
1e-15
1e-15
1e-15
1e-15
1e-15
1e-15
1e-15
1e-15
1e-15
1e-15
1e-15
1e-15
1e-15
1e-15
1e-15
1e-15
1e-15
1e-15
1e-15
1e-15
1e-15
1e-15
1e-15
1e-15
1e-15
1e-15
1.01626904026e-15
1.02857799776e-15
1e-15
1e-15
1e-15
1.00231325203e-15
1e-15
1.01414622032e-15
1e-15
1e-15
1e-15
1e-15
1e-15
1e-15
1e-15
1e-15
1e-15
1e-15
1e-15
1e-15
1e-15
1e-15
1e-15
1e-15
1e-15
1e-15
1e-15
1e-15
1e-15
1e-15
1e-15
1e-15
1e-15
1e-15
1e-15
1e-15
1e-15
1e-15
1e-15
1e-15
1e-15
1e-15
1e-15
1e-15
1e-15
1e-15
1e-15
1e-15
1e-15
1e-15
1e-15
1e-15
1e-15
1e-15
1e-15
1e-15
1e-15
1e-15
1e-15
1e-15
1e-15
1e-15
1e-15
1e-15
1e-15
1e-15
1e-15
1e-15
1e-15
1e-15
1e-15
1e-15
1e-15
1e-15
1e-15
1e-15
1e-15
1e-15
1e-15
1e-15
1e-15
1e-15
1e-15
1e-15
1e-15
1e-15
1e-15
1e-15
1e-15
1e-15
1e-15
1e-15
1e-15
1e-15
1e-15
1e-15
1e-15
1e-15
1e-15
1e-15
1e-15
1e-15
1e-15
1e-15
1e-15
1e-15
1e-15
1e-15
1e-15
1e-15
1e-15
1e-15
1e-15
1e-15
1e-15
1e-15
1e-15
1e-15
1e-15
1e-15
1e-15
1e-15
1e-15
1e-15
1e-15
1e-15
1e-15
1e-15
1e-15
1e-15
1e-15
1e-15
1e-15
1e-15
1e-15
1e-15
1e-15
1e-15
1e-15
1e-15
1.02889378527e-15
1.02783828198e-15
1.01825165344e-15
1e-15
1e-15
1.00289599678e-15
1e-15
1.00884614388e-15
1e-15
1e-15
1e-15
1e-15
1e-15
1e-15
1e-15
1e-15
1e-15
1e-15
1e-15
1e-15
1e-15
1e-15
1e-15
1e-15
1e-15
1e-15
1e-15
1e-15
1e-15
1e-15
1e-15
1e-15
1e-15
1e-15
1e-15
1e-15
1e-15
1e-15
1e-15
1e-15
1e-15
1.00000109157e-15
1.0001371536e-15
1.00147138936e-15
1.00151851195e-15
1.00147138936e-15
1.00152705187e-15
1.00147138936e-15
1.00153400488e-15
1.00147138936e-15
1.00153698356e-15
1.00147138936e-15
1.00153811406e-15
1.00147138936e-15
1.00152131653e-15
1.00147138936e-15
1.00151126307e-15
1.00147138936e-15
1.00150247911e-15
1.0012313063e-15
1.0003932135e-15
1.00038334941e-15
1.00036505331e-15
1.00034497817e-15
1.00032230741e-15
1.00029575986e-15
1.00026601184e-15
1.0002386367e-15
1.00022086597e-15
1.00017688955e-15
1.00012015498e-15
1.0000474953e-15
1e-15
1e-15
1e-15
1e-15
1e-15
1e-15
1e-15
1e-15
1e-15
1e-15
1e-15
1e-15
1e-15
1e-15
1e-15
1e-15
1e-15
1e-15
1e-15
1e-15
1e-15
1e-15
1e-15
1e-15
1e-15
1e-15
1e-15
1e-15
1e-15
1e-15
1e-15
1e-15
1e-15
1e-15
1.00004842628e-15
1.000134162e-15
1.0002064223e-15
1.00025841622e-15
1.0002962091e-15
1.00032529197e-15
1.00034900048e-15
1.00036685412e-15
1.00038002882e-15
1.00038812332e-15
1.00039226516e-15
1.00039195461e-15
1.00038857459e-15
1.00038150249e-15
1.00036963062e-15
1.00035096197e-15
1.00033196742e-15
1.00030874208e-15
1.00028011494e-15
1.0002435834e-15
1.0002022287e-15
1.00015764929e-15
1.0001125011e-15
1.00006892249e-15
1.00002803698e-15
1.00000263741e-15
1.00000193955e-15
1.00000159804e-15
1.00000179549e-15
1.00000273496e-15
1.0000488548e-15
1.00017195069e-15
1.00035189955e-15
1.00048846396e-15
1.02783828198e-15
1.02902188098e-15
1.02783828198e-15
1.00141077505e-15
1.00034224214e-15
1.00231287733e-15
1e-15
1.01372077748e-15
1e-15
1e-15
1e-15
1e-15
1e-15
1e-15
1e-15
1e-15
1e-15
1e-15
1e-15
1e-15
1e-15
1e-15
1e-15
1e-15
1e-15
1e-15
1e-15
1e-15
1e-15
1e-15
1e-15
1e-15
1e-15
1e-15
1e-15
1e-15
1e-15
1e-15
1e-15
1e-15
1.00002772458e-15
1.0001944863e-15
1.00113244157e-15
1.00152352135e-15
1.00147138936e-15
1.00153065224e-15
1.00147138936e-15
1.00153738121e-15
1.00147138936e-15
1.0015401915e-15
1.00147138936e-15
1.00154149587e-15
1.00147138936e-15
1.00153810553e-15
1.00147138936e-15
1.00151799275e-15
1.00147138936e-15
1.00151050094e-15
1.00147138936e-15
1.00150052914e-15
1.00100788859e-15
1.00084572004e-15
1.00079500381e-15
1.00073548687e-15
1.00066306907e-15
1.00058917688e-15
1.00053365899e-15
1.0004486436e-15
1.00034744061e-15
1.00026081005e-15
1.00017028332e-15
1.00006952696e-15
1e-15
1e-15
1e-15
1e-15
1e-15
1e-15
1e-15
1e-15
1e-15
1e-15
1e-15
1e-15
1e-15
1e-15
1e-15
1e-15
1e-15
1e-15
1e-15
1e-15
1e-15
1e-15
1e-15
1e-15
1e-15
1e-15
1e-15
1e-15
1e-15
1e-15
1e-15
1e-15
1e-15
1.00006840549e-15
1.00027071322e-15
1.00040555103e-15
1.00053971744e-15
1.00065611873e-15
1.00075104876e-15
1.00082789543e-15
1.00089009246e-15
1.00093856741e-15
1.00097491791e-15
1.00099950188e-15
1.00101388001e-15
1.00101795531e-15
1.00101376858e-15
1.00100105861e-15
1.0009763208e-15
1.00093350864e-15
1.00088928464e-15
1.00084296703e-15
1.00078858708e-15
1.00072394077e-15
1.00065094797e-15
1.00057097699e-15
1.00048838549e-15
1.00041172764e-15
1.00033843131e-15
1.00026076922e-15
1.00018502319e-15
1.00014870114e-15
1.00015999836e-15
1.00024036574e-15
1.00040113436e-15
1.00063469606e-15
1.00097312164e-15
1.00751410959e-15
1.02894929336e-15
1.02783828198e-15
1.0287530244e-15
1.00344954682e-15
1.00113708796e-15
1.00272234868e-15
1e-15
1.00884614388e-15
1e-15
1e-15
1e-15
1e-15
1e-15
1e-15
1e-15
1e-15
1e-15
1e-15
1e-15
1e-15
1e-15
1e-15
1e-15
1e-15
1e-15
1e-15
1e-15
1e-15
1e-15
1e-15
1e-15
1e-15
1e-15
1e-15
1e-15
1e-15
1e-15
1e-15
1.00001849302e-15
1.00009993436e-15
1.00023596952e-15
1.0005207912e-15
1.00150888834e-15
1.00147138936e-15
1.00151972527e-15
1.00147138936e-15
1.00152386984e-15
1.00147138936e-15
1.001526989e-15
1.00147138936e-15
1.00152696843e-15
1.00147138936e-15
1.00152834676e-15
1.00147138936e-15
1.00151229877e-15
1.00147138936e-15
1.00150279202e-15
1.00147138936e-15
1.00149554484e-15
1.00147138936e-15
1.00148203194e-15
1.0010868701e-15
1.00100430487e-15
1.00090885409e-15
1.0008183773e-15
1.0007063355e-15
1.00053549368e-15
1.00039719261e-15
1.00026530394e-15
1.00016793494e-15
1.00006488476e-15
1e-15
1e-15
1e-15
1e-15
1e-15
1e-15
1e-15
1e-15
1e-15
1e-15
1e-15
1e-15
1e-15
1e-15
1e-15
1e-15
1e-15
1e-15
1e-15
1e-15
1e-15
1e-15
1e-15
1e-15
1e-15
1e-15
1e-15
1e-15
1e-15
1e-15
1e-15
1e-15
1e-15
1e-15
1.00019706669e-15
1.00038094228e-15
1.00058667565e-15
1.00081124494e-15
1.00100818137e-15
1.00117057783e-15
1.00130361214e-15
1.00141181416e-15
1.00149830397e-15
1.00156464581e-15
1.00161223885e-15
1.00164273835e-15
1.00165703296e-15
1.00165620046e-15
1.00164298938e-15
1.00161048672e-15
1.00154583556e-15
1.00147524985e-15
1.00140549529e-15
1.00132486529e-15
1.00123199361e-15
1.00112737432e-15
1.00101373799e-15
1.00089600423e-15
1.00078604531e-15
1.00068617937e-15
1.00060187238e-15
1.00053764932e-15
1.00050255712e-15
1.00052314591e-15
1.00061714796e-15
1.00080556171e-15
1.00114482137e-15
1.00169403203e-15
1.02841787799e-15
1.02783828198e-15
1.02894959714e-15
1.02783828198e-15
1.00549554914e-15
1.00180616621e-15
1.00230092364e-15
1e-15
1.01288128409e-15
1e-15
1e-15
1e-15
1e-15
1e-15
1e-15
1e-15
1e-15
1e-15
1e-15
1e-15
1e-15
1e-15
1e-15
1e-15
1e-15
1e-15
1e-15
1e-15
1e-15
1e-15
1e-15
1e-15
1e-15
1e-15
1e-15
1e-15
1e-15
1e-15
1.00000298287e-15
1.00013326458e-15
1.00025233687e-15
1.00037791328e-15
1.0009227262e-15
1.00147138936e-15
1.00150790935e-15
1.00147138936e-15
1.00151172799e-15
1.00147138936e-15
1.00151456993e-15
1.00147138936e-15
1.00151500835e-15
1.00147138936e-15
1.00151429881e-15
1.00147138936e-15
1.00151377916e-15
1.00147138936e-15
1.00149461661e-15
1.00147138936e-15
1.00148897776e-15
1.00147138936e-15
1.00148325065e-15
1.00147138936e-15
1.00123328826e-15
1.00113819294e-15
1.00099668962e-15
1.0008230251e-15
1.0006585338e-15
1.00045873173e-15
1.00023770661e-15
1.00005119928e-15
1e-15
1e-15
1e-15
1e-15
1e-15
1e-15
1e-15
1e-15
1e-15
1e-15
1e-15
1e-15
1e-15
1e-15
1e-15
1e-15
1e-15
1e-15
1e-15
1e-15
1e-15
1e-15
1e-15
1e-15
1e-15
1e-15
1e-15
1e-15
1e-15
1e-15
1e-15
1e-15
1e-15
1e-15
1e-15
1.00002134674e-15
1.00019836082e-15
1.00040420782e-15
1.00071622041e-15
1.00104044572e-15
1.00131449211e-15
1.00154112398e-15
1.00172933066e-15
1.00188484401e-15
1.00201144454e-15
1.00211063279e-15
1.00218426225e-15
1.00223414468e-15
1.00226182996e-15
1.00226793329e-15
1.00225744688e-15
1.00222342328e-15
1.00214146343e-15
1.00204549382e-15
1.00195630759e-15
1.0018528698e-15
1.00173245726e-15
1.00159502094e-15
1.00144522973e-15
1.001288631e-15
1.00113106584e-15
1.000986178e-15
1.00086856796e-15
1.00080049698e-15
1.0007717747e-15
1.00080269686e-15
1.00090977303e-15
1.00116663292e-15
1.00164269634e-15
1.00240163179e-15
1.02783828198e-15
1.02890093418e-15
1.02783828198e-15
1.02867932943e-15
1.00734664112e-15
1.00218861577e-15
1.00248400917e-15
1e-15
1.00884614388e-15
1e-15
1e-15
1e-15
1e-15
1e-15
1e-15
1e-15
1e-15
1e-15
1e-15
1e-15
1e-15
1e-15
1e-15
1e-15
1e-15
1e-15
1e-15
1e-15
1e-15
1e-15
1e-15
1e-15
1e-15
1e-15
1e-15
1e-15
1e-15
1e-15
1.00011478249e-15
1.00023164641e-15
1.00033343222e-15
1.0005463645e-15
1.00147138936e-15
1.00149801163e-15
1.00147138936e-15
1.00150309157e-15
1.00147138936e-15
1.00150414222e-15
1.00147138936e-15
1.00150503958e-15
1.00147138936e-15
1.00150383607e-15
1.00147138936e-15
1.00150483754e-15
1.00147138936e-15
1.00149219599e-15
1.00147138936e-15
1.00148435616e-15
1.00147138936e-15
1.0014796149e-15
1.00147138936e-15
1.00147453033e-15
1.00135407827e-15
1.00114797769e-15
1.00096223189e-15
1.00075779732e-15
1.0005251223e-15
1.00026097025e-15
1.00000288438e-15
1e-15
1e-15
1e-15
1e-15
1e-15
1e-15
1e-15
1e-15
1e-15
1e-15
1e-15
1e-15
1e-15
1e-15
1e-15
1e-15
1e-15
1e-15
1e-15
1e-15
1e-15
1e-15
1e-15
1e-15
1e-15
1e-15
1e-15
1e-15
1e-15
1e-15
1e-15
1e-15
1e-15
1e-15
1e-15
1e-15
1.00001459883e-15
1.0001808288e-15
1.00043887166e-15
1.00085682825e-15
1.00126756771e-15
1.00161328711e-15
1.00190217884e-15
1.00214564539e-15
1.00234959312e-15
1.00251750065e-15
1.00265105065e-15
1.00275240455e-15
1.00282351793e-15
1.00286644351e-15
1.00288192239e-15
1.00287562098e-15
1.00284545123e-15
1.00275103782e-15
1.00262854782e-15
1.00252311555e-15
1.00240173066e-15
1.00225812755e-15
1.00209264743e-15
1.00191146484e-15
1.00172114153e-15
1.00152218555e-15
1.00133215392e-15
1.00117346835e-15
1.00107732125e-15
1.00103758962e-15
1.00108101867e-15
1.00122703853e-15
1.0015735265e-15
1.00217842076e-15
1.0031222514e-15
1.02862595436e-15
1.02783828198e-15
1.02887810409e-15
1.02783828198e-15
1.00899664398e-15
1.00231784772e-15
1.00231328074e-15
1e-15
1.01201337236e-15
1e-15
1e-15
1e-15
1e-15
1e-15
1e-15
1e-15
1e-15
1e-15
1e-15
1e-15
1e-15
1e-15
1e-15
1e-15
1e-15
1e-15
1e-15
1e-15
1e-15
1e-15
1e-15
1e-15
1e-15
1e-15
1e-15
1e-15
1e-15
1.00006151056e-15
1.0001989227e-15
1.00028413289e-15
1.00038488807e-15
1.00074338068e-15
1.00148935003e-15
1.00147138936e-15
1.00149415765e-15
1.00147138936e-15
1.00149637663e-15
1.00147138936e-15
1.00149578249e-15
1.00147138936e-15
1.00149515989e-15
1.00147138936e-15
1.00149306937e-15
1.00147138936e-15
1.00149606237e-15
1.00147138936e-15
1.00147982834e-15
1.00147138936e-15
1.00147602458e-15
1.00147138936e-15
1.00147345044e-15
1.00147138936e-15
1.00132644153e-15
1.00108703928e-15
1.00085194377e-15
1.00058182981e-15
1.00025976532e-15
1e-15
1e-15
1e-15
1e-15
1e-15
1e-15
1e-15
1e-15
1e-15
1e-15
1e-15
1e-15
1e-15
1e-15
1e-15
1e-15
1e-15
1e-15
1e-15
1e-15
1e-15
1e-15
1e-15
1e-15
1e-15
1e-15
1e-15
1e-15
1e-15
1e-15
1e-15
1e-15
1e-15
1e-15
1e-15
1e-15
1e-15
1e-15
1.00002545601e-15
1.0001812454e-15
1.00049656356e-15
1.00100337582e-15
1.00148841198e-15
1.0019067849e-15
1.00226246768e-15
1.00256543608e-15
1.00282042127e-15
1.0030314862e-15
1.00320086687e-15
1.00333146643e-15
1.00342516634e-15
1.00348481519e-15
1.00351117923e-15
1.00350936608e-15
1.00348869643e-15
1.00338528658e-15
1.00322861367e-15
1.00310702551e-15
1.00296918808e-15
1.00280505703e-15
1.0026165303e-15
1.00241081284e-15
1.00219498405e-15
1.00197311839e-15
1.00175799287e-15
1.00157079471e-15
1.00144189409e-15
1.0013860267e-15
1.0014424823e-15
1.00163610151e-15
1.00205855005e-15
1.00275217522e-15
1.00386429487e-15
1.02783828198e-15
1.02884063688e-15
1.02783828198e-15
1.02861156284e-15
1.01040258633e-15
1.00223685193e-15
1.00236763924e-15
1e-15
1.00884614388e-15
1e-15
1e-15
1e-15
1e-15
1e-15
1e-15
1e-15
1e-15
1e-15
1e-15
1e-15
1e-15
1e-15
1e-15
1e-15
1e-15
1e-15
1e-15
1e-15
1e-15
1e-15
1e-15
1e-15
1e-15
1e-15
1e-15
1e-15
1.00000709709e-15
1.00016162038e-15
1.00024490856e-15
1.00031654969e-15
1.00045606066e-15
1.00098478088e-15
1.00147138936e-15
1.0014867207e-15
1.00147138936e-15
1.0014890301e-15
1.00147138936e-15
1.00148819692e-15
1.00147138936e-15
1.00148804515e-15
1.00147138936e-15
1.00148673944e-15
1.00147138936e-15
1.00148632751e-15
1.00147138936e-15
1.00148026384e-15
1.00147138936e-15
1.00147417586e-15
1.00147138936e-15
1.00147227318e-15
1.00147138936e-15
1.00143027296e-15
1.00120888265e-15
1.00092095886e-15
1.00060356553e-15
1.00023782417e-15
1e-15
1e-15
1e-15
1e-15
1e-15
1e-15
1e-15
1e-15
1e-15
1e-15
1e-15
1e-15
1e-15
1e-15
1e-15
1e-15
1e-15
1e-15
1e-15
1e-15
1e-15
1e-15
1e-15
1e-15
1e-15
1e-15
1e-15
1e-15
1e-15
1e-15
1e-15
1e-15
1e-15
1e-15
1e-15
1e-15
1e-15
1e-15
1e-15
1.00004253207e-15
1.00017237235e-15
1.00058406532e-15
1.00114484073e-15
1.00170401642e-15
1.00220484974e-15
1.0026307434e-15
1.00299540768e-15
1.00330337477e-15
1.00355920513e-15
1.00376545894e-15
1.0039262125e-15
1.00404319189e-15
1.00412030443e-15
1.00415797928e-15
1.00416086411e-15
1.00414883824e-15
1.00404336936e-15
1.00385009521e-15
1.00370486434e-15
1.00354930656e-15
1.00336541608e-15
1.00315606014e-15
1.00292874543e-15
1.00269043592e-15
1.00245175907e-15
1.0022225215e-15
1.00201829886e-15
1.00186661019e-15
1.00180350169e-15
1.00187106403e-15
1.00209976663e-15
1.00257376276e-15
1.00333629654e-15
1.00460749051e-15
1.02862810159e-15
1.02783828198e-15
1.02881167662e-15
1.02783828198e-15
1.01155597796e-15
1.00203533373e-15
1.00230930811e-15
1e-15
1.01115175039e-15
1e-15
1e-15
1e-15
1e-15
1e-15
1e-15
1e-15
1e-15
1e-15
1e-15
1e-15
1e-15
1e-15
1e-15
1e-15
1e-15
1e-15
1e-15
1e-15
1e-15
1e-15
1e-15
1e-15
1e-15
1e-15
1e-15
1e-15
1.0001302997e-15
1.00021133705e-15
1.0002757023e-15
1.00034589791e-15
1.00059698471e-15
1.00126938777e-15
1.00148115639e-15
1.00147138936e-15
1.00148306718e-15
1.00147138936e-15
1.00148355991e-15
1.00147138936e-15
1.00148201738e-15
1.00147138936e-15
1.00148127194e-15
1.00147138936e-15
1.00147978071e-15
1.00147138936e-15
1.00148279843e-15
1.00147138936e-15
1.00147235897e-15
1.00147138936e-15
1.00146484342e-15
1.00142690111e-15
1.00136497896e-15
1.00123778705e-15
1.000965454e-15
1.00058264352e-15
1.00018357919e-15
1e-15
1e-15
1e-15
1e-15
1e-15
1e-15
1e-15
1e-15
1e-15
1e-15
1e-15
1e-15
1e-15
1e-15
1e-15
1e-15
1e-15
1e-15
1e-15
1e-15
1e-15
1e-15
1e-15
1e-15
1e-15
1e-15
1e-15
1e-15
1e-15
1e-15
1e-15
1e-15
1e-15
1e-15
1e-15
1e-15
1e-15
1e-15
1e-15
1e-15
1.00005705267e-15
1.00020487124e-15
1.00064536478e-15
1.00132688599e-15
1.00197813954e-15
1.00253520795e-15
1.00303299072e-15
1.0034652215e-15
1.00382551108e-15
1.00412569859e-15
1.0043697024e-15
1.00456148743e-15
1.0047021982e-15
1.004796959e-15
1.00484602406e-15
1.00485381047e-15
1.00484247135e-15
1.00474856928e-15
1.00452817751e-15
1.00434471353e-15
1.00417089794e-15
1.00396899792e-15
1.0037402775e-15
1.00349172027e-15
1.00323038342e-15
1.0029688527e-15
1.00271827166e-15
1.00249233371e-15
1.00232264799e-15
1.00225846208e-15
1.00233468095e-15
1.00258451807e-15
1.00310530927e-15
1.00394526861e-15
1.00536867203e-15
1.02783828198e-15
1.02878312693e-15
1.02783828198e-15
1.02855215942e-15
1.01246421595e-15
1.00173710048e-15
1.00231668777e-15
1e-15
1.00884614388e-15
1e-15
1e-15
1e-15
1e-15
1e-15
1e-15
1e-15
1e-15
1e-15
1e-15
1e-15
1e-15
1e-15
1e-15
1e-15
1e-15
1e-15
1e-15
1e-15
1e-15
1e-15
1e-15
1e-15
1e-15
1e-15
1e-15
1.00007849777e-15
1.00019194369e-15
1.00024562754e-15
1.00029908789e-15
1.00039173202e-15
1.0008300193e-15
1.00147354436e-15
1.00147138936e-15
1.00147800895e-15
1.00147138936e-15
1.00147864654e-15
1.00147138936e-15
1.00147673395e-15
1.00147138936e-15
1.00147641486e-15
1.00147138936e-15
1.00147569647e-15
1.00147138936e-15
1.00147461985e-15
1.00147138936e-15
1.0014729346e-15
1.00141476795e-15
1.00137169281e-15
1.00130588076e-15
1.00121326435e-15
1.00109293101e-15
1.00089417283e-15
1.00052923638e-15
1.000104386e-15
1e-15
1e-15
1e-15
1e-15
1e-15
1e-15
1e-15
1e-15
1e-15
1e-15
1e-15
1e-15
1e-15
1e-15
1e-15
1e-15
1e-15
1e-15
1e-15
1e-15
1e-15
1e-15
1e-15
1e-15
1e-15
1e-15
1e-15
1e-15
1e-15
1e-15
1e-15
1e-15
1e-15
1e-15
1e-15
1e-15
1e-15
1e-15
1e-15
1e-15
1e-15
1.00009549694e-15
1.00020237948e-15
1.00076438697e-15
1.00156518379e-15
1.0022580657e-15
1.00296104793e-15
1.00352142872e-15
1.0039886308e-15
1.00440438727e-15
1.00475684769e-15
1.00503889764e-15
1.00526126776e-15
1.00542669475e-15
1.00554008161e-15
1.00560144603e-15
1.00561441299e-15
1.00560215766e-15
1.00552898317e-15
1.0052905489e-15
1.00506025248e-15
1.00487039076e-15
1.00465346491e-15
1.00440648607e-15
1.00413719545e-15
1.00385289145e-15
1.00356391638e-15
1.00328381082e-15
1.0030295417e-15
1.00284004798e-15
1.00277168744e-15
1.00285460201e-15
1.00312210184e-15
1.00369349928e-15
1.00461651527e-15
1.00616129629e-15
1.02862302294e-15
1.02783828198e-15
1.02875050589e-15
1.02783828198e-15
1.0131886646e-15
1.00136813037e-15
1.00230864302e-15
1e-15
1.01033535555e-15
1e-15
1e-15
1e-15
1e-15
1e-15
1e-15
1e-15
1e-15
1e-15
1e-15
1e-15
1e-15
1e-15
1e-15
1e-15
1e-15
1e-15
1e-15
1e-15
1e-15
1e-15
1e-15
1e-15
1e-15
1e-15
1.0000467891e-15
1.00016943052e-15
1.00022881014e-15
1.00026975441e-15
1.0003159704e-15
1.00046759015e-15
1.00107012385e-15
1.00147138936e-15
1.00147456317e-15
1.00147138936e-15
1.00147497923e-15
1.00147138936e-15
1.00147485011e-15
1.00147138936e-15
1.00147304306e-15
1.00147138936e-15
1.0014728332e-15
1.00147138936e-15
1.00147250062e-15
1.00147138936e-15
1.00147327726e-15
1.00136847684e-15
1.00116270538e-15
1.00109378518e-15
1.001000425e-15
1.00089127838e-15
1.00071197522e-15
1.0003736511e-15
1.00002297173e-15
1e-15
1e-15
1e-15
1e-15
1e-15
1e-15
1e-15
1e-15
1e-15
1e-15
1e-15
1e-15
1e-15
1e-15
1e-15
1e-15
1e-15
1e-15
1e-15
1e-15
1e-15
1e-15
1e-15
1e-15
1e-15
1e-15
1e-15
1e-15
1e-15
1e-15
1e-15
1e-15
1e-15
1e-15
1e-15
1e-15
1e-15
1e-15
1e-15
1e-15
1e-15
1e-15
1.00010503987e-15
1.00023881378e-15
1.00097220828e-15
1.00181293344e-15
1.00261845954e-15
1.00341085225e-15
1.00399550935e-15
1.0045954843e-15
1.00505758526e-15
1.00543160081e-15
1.00575614102e-15
1.0060187615e-15
1.00620989294e-15
1.00634165015e-15
1.00641661646e-15
1.0064363909e-15
1.00642428458e-15
1.00637858672e-15
1.00613659191e-15
1.00585175155e-15
1.00564574557e-15
1.00541684787e-15
1.005153044e-15
1.00486374297e-15
1.0045577091e-15
1.00424355574e-15
1.00393609374e-15
1.00365764098e-15
1.00345044697e-15
1.00337292668e-15
1.00346093789e-15
1.00374807414e-15
1.00436391559e-15
1.00535450667e-15
1.00707871772e-15
1.02783828198e-15
1.02872941305e-15
1.02783828198e-15
1.02850176737e-15
1.01374925601e-15
1.0009802158e-15
1.00226254227e-15
1e-15
1.00884614388e-15
1e-15
1e-15
1e-15
1e-15
1e-15
1e-15
1e-15
1e-15
1e-15
1e-15
1e-15
1e-15
1e-15
1e-15
1e-15
1e-15
1e-15
1e-15
1e-15
1e-15
1e-15
1e-15
1e-15
1e-15
1.00001558478e-15
1.00016084592e-15
1.00021092493e-15
1.00025452785e-15
1.00028423661e-15
1.00031956032e-15
1.00050318203e-15
1.00111019886e-15
1.00146121806e-15
1.00147138936e-15
1.00147242076e-15
1.00147138936e-15
1.00147244022e-15
1.00147138936e-15
1.00146233866e-15
1.00144746404e-15
1.0014263047e-15
1.00140176121e-15
1.0013740022e-15
1.00135899548e-15
1.00136003351e-15
1.0013571243e-15
1.00111821673e-15
1.00089138552e-15
1.00075933666e-15
1.00066153632e-15
1.00047718029e-15
1.00018817102e-15
1e-15
1e-15
1e-15
1e-15
1e-15
1e-15
1e-15
1e-15
1e-15
1e-15
1e-15
1e-15
1e-15
1e-15
1e-15
1e-15
1e-15
1e-15
1e-15
1e-15
1e-15
1e-15
1e-15
1e-15
1e-15
1e-15
1e-15
1e-15
1e-15
1e-15
1e-15
1e-15
1e-15
1e-15
1e-15
1e-15
1e-15
1e-15
1e-15
1e-15
1e-15
1e-15
1e-15
1e-15
1.00011315601e-15
1.0002933373e-15
1.00119660477e-15
1.00213108119e-15
1.00302715312e-15
1.00381494714e-15
1.00448260016e-15
1.00516545676e-15
1.00565885684e-15
1.0061508551e-15
1.00651026877e-15
1.00678056075e-15
1.00700067774e-15
1.00716076355e-15
1.00725117357e-15
1.00727876056e-15
1.00726759549e-15
1.00725401062e-15
1.00701971528e-15
1.00666397293e-15
1.0064386201e-15
1.00619771592e-15
1.00592704246e-15
1.00562021172e-15
1.00529368304e-15
1.00495960074e-15
1.0046338246e-15
1.00434280353e-15
1.00412622526e-15
1.00403911617e-15
1.00413093968e-15
1.00443743717e-15
1.00508070161e-15
1.00611354332e-15
1.00770929237e-15
1.02861183631e-15
1.02783828198e-15
1.02869703107e-15
1.02783828198e-15
1.01416267495e-15
1.00045378274e-15
1.00214529713e-15
1e-15
1.0096285257e-15
1e-15
1e-15
1e-15
1e-15
1e-15
1e-15
1e-15
1e-15
1e-15
1e-15
1e-15
1e-15
1e-15
1e-15
1e-15
1e-15
1e-15
1e-15
1e-15
1e-15
1e-15
1e-15
1e-15
1.00003372366e-15
1.0001644273e-15
1.00021616518e-15
1.00024364871e-15
1.00027220086e-15
1.00028981866e-15
1.00031638578e-15
1.00049841633e-15
1.00106292925e-15
1.00132888828e-15
1.001376752e-15
1.00136457106e-15
1.00135256568e-15
1.0013267545e-15
1.00130019548e-15
1.00126021025e-15
1.00122192179e-15
1.00117303595e-15
1.00112331568e-15
1.00107290576e-15
1.00104932858e-15
1.00105555235e-15
1.00105516832e-15
1.00086902255e-15
1.00057878669e-15
1.00030467231e-15
1.00014913181e-15
1.00000678772e-15
1e-15
1e-15
1e-15
1e-15
1e-15
1e-15
1e-15
1e-15
1e-15
1e-15
1e-15
1e-15
1e-15
1e-15
1e-15
1e-15
1e-15
1e-15
1e-15
1e-15
1e-15
1e-15
1e-15
1e-15
1e-15
1e-15
1e-15
1e-15
1e-15
1e-15
1e-15
1e-15
1e-15
1e-15
1e-15
1e-15
1e-15
1e-15
1e-15
1e-15
1e-15
1e-15
1e-15
1e-15
1e-15
1.00011780107e-15
1.00037675465e-15
1.00141577589e-15
1.0024220919e-15
1.00339360207e-15
1.0042474315e-15
1.00497679645e-15
1.00565919544e-15
1.0062220094e-15
1.00678903444e-15
1.00717108664e-15
1.00754759022e-15
1.0077910848e-15
1.00794580684e-15
1.00805148505e-15
1.00809419714e-15
1.00808777792e-15
1.00807918074e-15
1.00787639529e-15
1.00750303712e-15
1.00727133701e-15
1.0070015481e-15
1.00667190416e-15
1.00634703114e-15
1.0060017755e-15
1.00565037821e-15
1.00531179853e-15
1.00501448404e-15
1.0047936658e-15
1.00469874446e-15
1.00479274473e-15
1.00511333331e-15
1.00576930665e-15
1.0068282684e-15
1.01930912018e-15
1.02783828198e-15
1.02868126586e-15
1.02783828198e-15
1.02846085657e-15
1.01441888161e-15
1e-15
1.00195179747e-15
1e-15
1.00884571862e-15
1e-15
1e-15
1e-15
1e-15
1e-15
1e-15
1e-15
1e-15
1e-15
1e-15
1e-15
1e-15
1e-15
1e-15
1e-15
1e-15
1e-15
1e-15
1e-15
1e-15
1e-15
1e-15
1.00007709696e-15
1.00020671688e-15
1.00024317134e-15
1.00026515514e-15
1.00027549977e-15
1.00028630505e-15
1.00028910967e-15
1.00030494689e-15
1.00046428314e-15
1.0009197681e-15
1.00106447587e-15
1.00108525634e-15
1.00105201773e-15
1.00102372112e-15
1.0009787781e-15
1.00093741782e-15
1.00088720732e-15
1.000842187e-15
1.0007896087e-15
1.00073980177e-15
1.00069248694e-15
1.00067193696e-15
1.00068409569e-15
1.00068684965e-15
1.00058760117e-15
1.00020516725e-15
1e-15
1e-15
1e-15
1e-15
1e-15
1e-15
1e-15
1e-15
1e-15
1e-15
1e-15
1e-15
1e-15
1e-15
1e-15
1e-15
1e-15
1e-15
1e-15
1e-15
1e-15
1e-15
1e-15
1e-15
1e-15
1e-15
1e-15
1e-15
1e-15
1e-15
1e-15
1e-15
1e-15
1e-15
1e-15
1e-15
1e-15
1e-15
1e-15
1e-15
1e-15
1e-15
1e-15
1e-15
1e-15
1e-15
1e-15
1e-15
1.00011484839e-15
1.00049541443e-15
1.00160668683e-15
1.0026752986e-15
1.003718041e-15
1.0046359929e-15
1.00544082279e-15
1.00618006466e-15
1.00678698248e-15
1.00734042124e-15
1.00777780174e-15
1.00821743046e-15
1.00846678827e-15
1.00871805859e-15
1.00883677609e-15
1.00886852983e-15
1.00885926783e-15
1.00884829408e-15
1.00871846383e-15
1.008344077e-15
1.00785669291e-15
1.00764188227e-15
1.00739488842e-15
1.00702991628e-15
1.00666023488e-15
1.0062912743e-15
1.0059390318e-15
1.00563214472e-15
1.00540342093e-15
1.0052993589e-15
1.00539269847e-15
1.00572008349e-15
1.00638514591e-15
1.00748354352e-15
1.02783818376e-15
1.02858362975e-15
1.02783828198e-15
1.02865285761e-15
1.02783828198e-15
1.01454824363e-15
1e-15
1.00171214113e-15
1.00661292245e-15
1.00911354983e-15
1e-15
1e-15
1e-15
1e-15
1e-15
1e-15
1e-15
1e-15
1e-15
1e-15
1e-15
1e-15
1e-15
1e-15
1e-15
1e-15
1e-15
1e-15
1e-15
1e-15
1.00004586206e-15
1.0001992905e-15
1.00027753239e-15
1.0003086038e-15
1.0003123793e-15
1.00031725405e-15
1.00030818209e-15
1.00029986598e-15
1.00028474687e-15
1.00028269661e-15
1.00037424592e-15
1.00064628424e-15
1.00069441917e-15
1.00066322659e-15
1.00060934181e-15
1.00055835982e-15
1.00049543754e-15
1.00043881224e-15
1.00037656028e-15
1.00032081169e-15
1.00025866679e-15
1.00020002215e-15
1.00014420271e-15
1.00011845984e-15
1.00011693673e-15
1.00011918414e-15
1.00008866178e-15
1e-15
1e-15
1e-15
1e-15
1e-15
1e-15
1e-15
1e-15
1e-15
1e-15
1e-15
1e-15
1e-15
1e-15
1e-15
1e-15
1e-15
1e-15
1e-15
1e-15
1e-15
1e-15
1e-15
1e-15
1e-15
1e-15
1e-15
1e-15
1e-15
1e-15
1e-15
1e-15
1e-15
1e-15
1e-15
1e-15
1e-15
1e-15
1e-15
1e-15
1e-15
1e-15
1e-15
1e-15
1e-15
1e-15
1e-15
1e-15
1e-15
1.00010349528e-15
1.00061731788e-15
1.001768486e-15
1.00289878127e-15
1.00400827771e-15
1.00499665376e-15
1.00587726894e-15
1.00666741655e-15
1.00733343645e-15
1.00792771927e-15
1.00839895455e-15
1.00880541977e-15
1.00909822093e-15
1.00939753662e-15
1.00951543448e-15
1.00961265016e-15
1.00962040742e-15
1.00959537932e-15
1.00952107413e-15
1.0089172047e-15
1.00939262481e-15
1.00838003852e-15
1.00801164921e-15
1.00767276741e-15
1.00728370584e-15
1.00689558272e-15
1.00652658897e-15
1.00620368726e-15
1.00596014542e-15
1.00584377032e-15
1.00593304212e-15
1.00626110353e-15
1.00693545891e-15
1.00807203018e-15
1.02830471721e-15
1.02783828198e-15
1.02864051137e-15
1.02783828198e-15
1.02842907033e-15
1.01454995704e-15
1e-15
1.00141318528e-15
1.01375701213e-15
1.00884372335e-15
1e-15
1e-15
1e-15
1e-15
1e-15
1e-15
1e-15
1e-15
1e-15
1e-15
1e-15
1e-15
1e-15
1e-15
1e-15
1e-15
1e-15
1e-15
1.00007410566e-15