/*--------------------------------*- C++ -*----------------------------------*\
| =========                 |                                                 |
| \\      /  F ield         | OpenFOAM: The Open Source CFD Toolbox           |
|  \\    /   O peration     | Version:  2206                                  |
|   \\  /    A nd           | Website:  www.openfoam.com                      |
|    \\/     M anipulation  |                                                 |
\*---------------------------------------------------------------------------*/
FoamFile
{
    version     2.0;
    format      ascii;
    arch        "LSB;label=64;scalar=64";
    class       volScalarField;
    location    "3/water";
    object      p_rgh;
}
// * * * * * * * * * * * * * * * * * * * * * * * * * * * * * * * * * * * * * //

dimensions      [1 -1 -2 0 0 0 0];

internalField   nonuniform List<scalar> 
23300
(
100735.588661
100735.642298
100735.633172
100735.620971
100735.605709
100735.587878
100735.567985
100735.546546
100735.523919
100735.500427
100735.476233
100735.451478
100735.426177
100735.400353
100735.373951
100735.346958
100735.319317
100735.291038
100735.262109
100735.23259
100735.202528
100735.17204
100735.141227
100735.110256
100735.079272
100735.048479
100735.018058
100734.988238
100734.959217
100734.931238
100734.904501
100734.879244
100734.855651
100734.833939
100734.814258
100734.796788
100734.781633
100734.768925
100734.758717
100734.751085
100734.746025
100734.743562
100734.743638
100734.746223
100734.75119
100734.758436
100734.767798
100734.779156
100734.792311
100734.807102
100734.823293
100734.840691
100734.859032
100734.878102
100734.897617
100734.917349
100734.937008
100734.956357
100734.97511
100734.993033
100735.009849
100735.025339
100735.039243
100735.051363
100735.061465
100735.069377
100735.0749
100735.077894
100735.078196
100735.075706
100735.070303
100735.061931
100735.050522
100735.036072
100735.018579
100734.998114
100734.974764
100734.948705
100734.920154
100734.889438
100734.856946
100734.823196
100734.788758
100734.754243
100734.720035
100734.686067
100734.652349
100734.619432
100734.587875
100734.55778
100734.528712
100734.500148
100734.47161
100734.442741
100734.413287
100734.383108
100734.352141
100734.320409
100734.287986
100734.254999
100734.221606
100734.187993
100734.154361
100734.120921
100734.087886
100734.05547
100734.023878
100733.993309
100733.963947
100733.935966
100733.909521
100733.88475
100733.861772
100733.840685
100733.821564
100733.804463
100733.789415
100733.776433
100733.765511
100733.75662
100733.74971
100733.744711
100733.74153
100733.740058
100733.74017
100733.741728
100733.744593
100733.748634
100733.753744
100733.759868
100733.767024
100733.775329
100733.784995
100733.796286
100733.809395
100733.824234
100733.840139
100733.85551
100733.867565
100733.927348
100735.667275
100735.7235
100735.720856
100735.715805
100735.70851
100735.699098
100735.687714
100735.674546
100735.659726
100735.643382
100735.625565
100735.606323
100735.585644
100735.563524
100735.539931
100735.514861
100735.4883
100735.460275
100735.430815
100735.399995
100735.367894
100735.334635
100735.300346
100735.265199
100735.229368
100735.193068
100735.156512
100735.119951
100735.083623
100735.047798
100735.01272
100734.978655
100734.945832
100734.914492
100734.884826
100734.857032
100734.831252
100734.807628
100734.786245
100734.767184
100734.75047
100734.736128
100734.724123
100734.714428
100734.706949
100734.701598
100734.69824
100734.696758
100734.696984
100734.698771
100734.701925
100734.706275
100734.711609
100734.717743
100734.724456
100734.731557
100734.738826
100734.746077
100734.753099
100734.759718
100734.765743
100734.771021
100734.775386
100734.778716
100734.780879
100734.781785
100734.781342
100734.779499
100734.776203
100734.771445
100734.765211
100734.757529
100734.748424
100734.737954
100734.726176
100734.713173
100734.69902
100734.683813
100734.667629
100734.650548
100734.6326
100734.613759
100734.593862
100734.572527
100734.549036
100734.522422
100734.492377
100734.459458
100734.424724
100734.389369
100734.354142
100734.31945
100734.285493
100734.252365
100734.220096
100734.188698
100734.15817
100734.128512
100734.099732
100734.071842
100734.044865
100734.018832
100733.993781
100733.969758
100733.946816
100733.925013
100733.90441
100733.885073
100733.867067
100733.850456
100733.835302
100733.821663
100733.809588
100733.799118
100733.79028
100733.783083
100733.77753
100733.773607
100733.771286
100733.770518
100733.771235
100733.773348
100733.776743
100733.781287
100733.78682
100733.793162
100733.800116
100733.807475
100733.81504
100733.822642
100733.830185
100733.837679
100733.845283
100733.853301
100733.862123
100733.872073
100733.883149
100733.89466
100733.904603
100733.96499
100735.656422
100735.711424
100735.709311
100735.705051
100735.698804
100735.690738
100735.680978
100735.669672
100735.656919
100735.642811
100735.627374
100735.610621
100735.592512
100735.573006
100735.552036
100735.529554
100735.505507
100735.479883
100735.452672
100735.423912
100735.393653
100735.36199
100735.329029
100735.294924
100735.259836
100735.223967
100735.187525
100735.150755
100735.113896
100735.077216
100735.040966
100735.005417
100734.970807
100734.937387
100734.905366
100734.874954
100734.846314
100734.819606
100734.794939
100734.772417
100734.752092
100734.734014
100734.718181
100734.704592
100734.693183
100734.683888
100734.676602
100734.671242
100734.66768
100734.665802
100734.665457
100734.666509
100734.668791
100734.672153
100734.676418
100734.681433
100734.68702
100734.693027
100734.699283
100734.705647
100734.711959
100734.718095
100734.723916
100734.729315
100734.73418
100734.738426
100734.741964
100734.744735
100734.746673
100734.747738
100734.747884
100734.747085
100734.745302
100734.742514
100734.738679
100734.733763
100734.727707
100734.720442
100734.711866
100734.701848
100734.690196
100734.676654
100734.660855
100734.642308
100734.620396
100734.594504
100734.564562
100734.531128
100734.494917
100734.456792
100734.417605
100734.378004
100734.338471
100734.299365
100734.260954
100734.223444
100734.186993
100734.151727
100734.117743
100734.085121
100734.053923
100734.024202
100733.996001
100733.969357
100733.9443
100733.920857
100733.899053
100733.87891
100733.860445
100733.843674
100733.828608
100733.815254
100733.803611
100733.793673
100733.78542
100733.778815
100733.773818
100733.770377
100733.768423
100733.767873
100733.768624
100733.770556
100733.773527
100733.77738
100733.781935
100733.787002
100733.792386
100733.797897
100733.803381
100733.808741
100733.813986
100733.819268
100733.824912
100733.831414
100733.839361
100733.849273
100733.861332
100733.875015
100733.888601
100733.952191
100735.668546
100735.723254
100735.720773
100735.716345
100735.710093
100735.702184
100735.692748
100735.681922
100735.669788
100735.656419
100735.641826
100735.626003
100735.60889
100735.590425
100735.570516
100735.549091
100735.526071
100735.501413
100735.475083
100735.447095
100735.417474
100735.386298
100735.353656
100735.319689
100735.284547
100735.248427
100735.21153
100735.174098
100735.136367
100735.098606
100735.061066
100735.024021
100734.987714
100734.952403
100734.918302
100734.885636
100734.854577
100734.825303
100734.797936
100734.772603
100734.749373
100734.728322
100734.709469
100734.692842
100734.678401
100734.666102
100734.655859
100734.647617
100734.641278
100734.636758
100734.633935
100734.632703
100734.632922
100734.634471
100734.6372
100734.640981
100734.645657
100734.6511
100734.657155
100734.663698
100734.670582
100734.677691
100734.68489
100734.692073
100734.69912
100734.705939
100734.712423
100734.718491
100734.724045
100734.729012
100734.7333
100734.736831
100734.73951
100734.741248
100734.741931
100734.741445
100734.739646
100734.736379
100734.731453
100734.724654
100734.715718
100734.704347
100734.690176
100734.672801
100734.651799
100734.626842
100734.597869
100734.565447
100734.530153
100734.492449
100734.453039
100734.412552
100734.371522
100734.330403
100734.289574
100734.249352
100734.210002
100734.171746
100734.134766
100734.099212
100734.065207
100734.032848
100734.002212
100733.973359
100733.946332
100733.921163
100733.897872
100733.87647
100733.85696
100733.839337
100733.823589
100733.809696
100733.797631
100733.787359
100733.77883
100733.771976
100733.766731
100733.763014
100733.760734
100733.759784
100733.760045
100733.761378
100733.763632
100733.766641
100733.770227
100733.774208
100733.778407
100733.782667
100733.786878
100733.791005
100733.795128
100733.799481
100733.804479
100733.810707
100733.818852
100733.829554
100733.84315
100733.859352
100733.876853
100733.940731
100735.694675
100735.74978
100735.746759
100735.741831
100735.735116
100735.726781
100735.716961
100735.705794
100735.693363
100735.67974
100735.664931
100735.648925
100735.631657
100735.613057
100735.593023
100735.57147
100735.548304
100735.523469
100735.496916
100735.468643
100735.438663
100735.407045
100735.373868
100735.339268
100735.303388
100735.266426
100735.228577
100735.190085
100735.151184
100735.112143
100735.073214
100735.034672
100734.996762
100734.959745
100734.92384
100734.889277
100734.856236
100734.824904
100734.795416
100734.76791
100734.742472
100734.719192
100734.698108
100734.679266
100734.662654
100734.648239
100734.635942
100734.625729
100734.617525
100734.611267
100734.606853
100734.604197
100734.603179
100734.603695
100734.605611
100734.608812
100734.613157
100734.618526
100734.624772
100734.631774
100734.639388
100734.647494
100734.655955
100734.664654
100734.673459
100734.68226
100734.690929
100734.69936
100734.707428
100734.715023
100734.722019
100734.728298
100734.733722
100734.738156
100734.741444
100734.743424
100734.743911
100734.742709
100734.739596
100734.734335
100734.726657
100734.716278
100734.702888
100734.686177
100734.665863
100734.641762
100734.613847
100734.58249
100734.548314
100734.511728
100734.473123
100734.433061
100734.39205
100734.350553
100734.308982
100734.267701
100734.227028
100734.187239
100734.148573
100734.111231
100734.075383
100734.04117
100734.008702
100733.97807
100733.94934
100733.922562
100733.897766
100733.874971
100733.854179
100733.835383
100733.818564
100733.803692
100733.790731
100733.77963
100733.770325
100733.76273
100733.756761
100733.752325
100733.749318
100733.747623
100733.74711
100733.747637
100733.749048
100733.751182
100733.753868
100733.756937
100733.760235
100733.763635
100733.767064
100733.770533
100733.774174
100733.778275
100733.783309
100733.78992
100733.798871
100733.810897
100733.82647
100733.845473
100733.866791
100733.928487
100735.730936
100735.786749
100735.783098
100735.777488
100735.770036
100735.760905
100735.750234
100735.738166
100735.724791
100735.710185
100735.694363
100735.677321
100735.658997
100735.639327
100735.618208
100735.595558
100735.571279
100735.545313
100735.517605
100735.488152
100735.456964
100735.424106
100735.389658
100735.353756
100735.316545
100735.278223
100735.238989
100735.199087
100735.158752
100735.118255
100735.077847
100735.037804
100734.99837
100734.959806
100734.922334
100734.886185
100734.851542
100734.818597
100734.787489
100734.758366
100734.731319
100734.70645
100734.683808
100734.663449
100734.64539
100734.629603
100734.616001
100734.604568
100734.59524
100734.587969
100734.582666
100734.579259
100734.577637
100734.577709
100734.579349
100734.58245
100734.586874
100734.592504
100734.599196
100734.606826
100734.615247
100734.624332
100734.633933
100734.643923
100734.654155
100734.664501
100734.674814
100734.684964
100734.694803
100734.704196
100734.712988
100734.721034
100734.728168
100734.734229
100734.739033
100734.742398
100734.744118
100734.743985
100734.741769
100734.737237
100734.730135
100734.72021
100734.707204
100734.690883
100734.671051
100734.647608
100734.620581
100734.590144
100734.556827
100734.5212
100734.483546
100734.444228
100734.403715
100734.362451
100734.320843
100734.279266
100734.238058
100734.197522
100734.157923
100734.119497
100734.082443
100734.046933
100734.013106
100733.981079
100733.950941
100733.922761
100733.896585
100733.872443
100733.850348
100733.830299
100733.812277
100733.796257
100733.782197
100733.770047
100733.759735
100733.751168
100733.744251
100733.73889
100733.734973
100733.732383
100733.730987
100733.730644
100733.731203
100733.732509
100733.734403
100733.736732
100733.739364
100733.742199
100733.745196
100733.748404
100733.751995
100733.756297
100733.761822
100733.769259
100733.779416
100733.79309
100733.810812
100733.832494
100733.856934
100733.9148
100735.775333
100735.831936
100735.827583
100735.821145
100735.812733
100735.80251
100735.790616
100735.777198
100735.762356
100735.74618
100735.728694
100735.70991
100735.689781
100735.668255
100735.645242
100735.620669
100735.59445
100735.566531
100735.536866
100735.505458
100735.472322
100735.437531
100735.40117
100735.363381
100735.324318
100735.284182
100735.243178
100735.201553
100735.159546
100735.117427
100735.075447
100735.033882
100734.992972
100734.952978
100734.914117
100734.876621
100734.84067
100734.806456
100734.77412
100734.743809
100734.715621
100734.689659
100734.665976
100734.644633
100734.625678
100734.609081
100734.594746
100734.582659
100734.572762
100734.565017
100734.559341
100734.555672
100734.553904
100734.553951
100734.555689
100734.559016
100734.563793
100734.569904
100734.577199
100734.585553
100734.594808
100734.604832
100734.615465
100734.626567
100734.637977
100734.649551
100734.661126
100734.672553
100734.683665
100734.694307
100734.704304
100734.713494
100734.721691
100734.72872
100734.734383
100734.738488
100734.740822
100734.74118
100734.739334
100734.735065
100734.728142
100734.718348
100734.705467
100734.689325
100734.669786
100734.646801
100734.620416
100734.5908
100734.558216
100734.523247
100734.486385
100734.447841
100734.407961
100734.367154
100734.325815
100734.284312
100734.242983
100734.202141
100734.162065
100734.123005
100734.085181
100734.048783
100734.013972
100733.980884
100733.949627
100733.920287
100733.892927
100733.86759
100733.844301
100733.823066
100733.803877
100733.786713
100733.771536
100733.7583
100733.746936
100733.737344
100733.729429
100733.723097
100733.718239
100733.714737
100733.712465
100733.711285
100733.711055
100733.71163
100733.712863
100733.714621
100733.71679
100733.719298
100733.722132
100733.725372
100733.729219
100733.734034
100733.740351
100733.74888
100733.760448
100733.775857
100733.795622
100733.819553
100733.846167
100733.899419
100735.826575
100735.883886
100735.878772
100735.871378
100735.861817
100735.850247
100735.836809
100735.821659
100735.804907
100735.786654
100735.766947
100735.745814
100735.72323
100735.699166
100735.673553
100735.646338
100735.617451
100735.58686
100735.554532
100735.520486
100735.484751
100735.447413
100735.40857
100735.368378
100735.326996
100735.284639
100735.241516
100735.197881
100735.153972
100735.110064
100735.066403
100735.023264
100734.980882
100734.939515
100734.899372
100734.860682
100734.823618
100734.788371
100734.755074
100734.723877
100734.694872
100734.668164
100734.643806
100734.621862
100734.602364
100734.585328
100734.57067
100734.558326
100734.548247
100734.5404
100734.534707
100734.531108
100734.529501
100734.529801
100734.531885
100734.53565
100734.540955
100734.547681
100734.555673
100734.564799
100734.574895
100734.585817
100734.597397
100734.609482
100734.621898
100734.634489
100734.647074
100734.659492
100734.671559
100734.683107
100734.693946
100734.703901
100734.712777
100734.720387
100734.726529
100734.731007
100734.733611
100734.734138
100734.732375
100734.728119
100734.721162
100734.711319
100734.698416
100734.682319
100734.662937
100734.640255
100734.614332
100734.585325
100734.553471
100734.519079
100734.482714
100734.444811
100734.405553
100734.365268
100734.324319
100734.283065
100734.241836
100734.200943
100734.160669
100734.121273
100734.082983
100734.046003
100734.010507
100733.976644
100733.944538
100733.914287
100733.885968
100733.859636
100733.835328
100733.813061
100733.792836
100733.774637
100733.758437
100733.744194
100733.731846
100733.721294
100733.712442
100733.705198
100733.699461
100733.695117
100733.692046
100733.69012
100733.689206
100733.689169
100733.68988
100733.691221
100733.693099
100733.695464
100733.69833
100733.701799
100733.706098
100733.711602
100733.718857
100733.728572
100733.741556
100733.758579
100733.780071
100733.80566
100733.833495
100733.881938
100735.883809
100735.94161
100735.93568
100735.927217
100735.916333
100735.903185
100735.887916
100735.870688
100735.851623
100735.830841
100735.808409
100735.784381
100735.758759
100735.731543
100735.702694
100735.672188
100735.639982
100735.60607
100735.570444
100735.533145
100735.494224
100735.453786
100735.411947
100735.368879
100735.324754
100735.279797
100735.234226
100735.1883
100735.14226
100735.09638
100735.050903
100735.0061
100734.962199
100734.919451
100734.878058
100734.83824
100734.800162
100734.764008
100734.729905
100734.697995
100734.668367
100734.641122
100734.616309
100734.593991
100734.574185
100734.556955
100734.54222
100734.529868
100734.51985
100734.512135
100734.506648
100734.503327
100734.502072
100734.502798
100734.50538
100734.509713
100734.515651
100734.523072
100734.531814
100734.541739
100734.552674
100734.564468
100734.576939
100734.589927
100734.603245
100734.616723
100734.63017
100734.643412
100734.656254
100734.668515
100734.679996
100734.690512
100734.699861
100734.707853
100734.714281
100734.718953
100734.721661
100734.722213
100734.720407
100734.716058
100734.708983
100734.699023
100734.686038
100734.669928
100734.650634
100734.628165
100734.60259
100734.574059
100734.542786
100734.50905
100734.473175
100734.435665
100734.396927
100734.357156
100734.316653
100734.27574
100734.23474
100734.193958
100734.153677
100734.114156
100734.07563
100734.038308
100734.002372
100733.967982
100733.93527
100733.904347
100733.8753
100733.848194
100733.823074
100733.799969
100733.778887
100733.759822
100733.742753
100733.727646
100733.714449
100733.703067
100733.693401
100733.685366
100733.678867
100733.673797
100733.670046
100733.667493
100733.666016
100733.665494
100733.66581
100733.666866
100733.668585
100733.670939
100733.673959
100733.677768
100733.682606
100733.688856
100733.697057
100733.707899
100733.722151
100733.740512
100733.763295
100733.789907
100733.818127
100733.861885
100735.94649
100736.004449
100735.997646
100735.988002
100735.975629
100735.960681
100735.943303
100735.923668
100735.901911
100735.87817
100735.852538
100735.825101
100735.795893
100735.764951
100735.732272
100735.69787
100735.661737
100735.623902
100735.584388
100735.543266
100735.500614
100735.456561
100735.411245
100735.364857
100735.317583
100735.269663
100735.221319
100735.172819
100735.124402
100735.076344
100735.028882
100734.98228
100734.93676
100734.892562
100734.849879
100734.808919
100734.769838
100734.73281
100734.697952
100734.665399
100734.635231
100734.607544
100734.58238
100734.559798
100734.539804
100734.522514
100734.507829
100734.495604
100734.485784
100734.478335
100734.473179
100734.470257
100734.469464
100734.470716
100734.473884
100734.47886
100734.485495
100734.493658
100734.503185
100734.513928
100734.525708
100734.538363
100734.551704
100734.565559
100734.57973
100734.594039
100734.608282
100734.622275
100734.635813
100734.648706
100734.660748
100734.671746
100734.681493
100734.689798
100734.696453
100734.701269
100734.704044
100734.704595
100734.702734
100734.698293
100734.69111
100734.681051
100734.668002
100734.651891
100734.632684
100734.610405
100734.585135
100734.557017
100734.526252
100734.493095
100734.457837
100734.420817
100734.382432
100734.343101
100734.303062
100734.262568
100734.221897
100734.18135
100734.14121
100734.101735
100734.063159
100734.025697
100733.989534
100733.954837
100733.921745
100733.890376
100733.860824
100733.833164
100733.807449
100733.783714
100733.761976
100733.742236
100733.724481
100733.708682
100733.694804
100733.682754
100733.67243
100733.663754
100733.656635
100733.650978
100733.646678
100733.643626
100733.64171
100733.640821
100733.640856
100733.64173
100733.643385
100733.645806
100733.649043
100733.653229
100733.658611
100733.665567
100733.674621
100733.686425
100733.701694
100733.721036
100733.744628
100733.771659
100733.799585
100733.838918
100736.014324
100736.071999
100736.064265
100736.053326
100736.039291
100736.022318
100736.002556
100735.980183
100735.955352
100735.928225
100735.898924
100735.867569
100735.834236
100735.799005
100735.761917
100735.723031
100735.682383
100735.640043
100735.596071
100735.550577
100735.503667
100735.455502
100735.406241
100735.356097
100735.305274
100735.254022
100735.202573
100735.151198
100735.100137
100735.049663
100735.000008
100734.95143
100734.904137
100734.858361
100734.814281
100734.772096
100734.731949
100734.694001
100734.65836
100734.62515
100734.594441
100734.566323
100734.540829
100734.518014
100734.497873
100734.480521
100734.465908
100734.453885
100734.444331
100734.437213
100734.432454
100734.429992
100734.429722
100734.431555
100734.435361
100734.441026
100734.448399
100734.457342
100734.467685
100734.479272
100734.491917
100734.50545
100734.519672
100734.534402
100734.549432
100734.564574
100734.579615
100734.594362
100734.608599
100734.622131
100734.634743
100734.646239
100734.656407
100734.665053
100734.671974
100734.67698
100734.679878
100734.680494
100734.678652
100734.6742
100734.666995
100734.656924
100734.643894
100734.627857
100734.608797
100734.586754
100734.561812
100734.534115
100734.503853
100734.471263
100734.436618
100734.400219
100734.362403
100734.323449
100734.283843
100734.243842
100734.203572
100734.163381
100734.123518
100734.084243
100734.045789
100734.008369
100733.972174
100733.937373
100733.904109
100733.872505
100733.842663
100733.814663
100733.788563
100733.764406
100733.742216
100733.721998
100733.703746
100733.687438
100733.673053
100733.660509
100733.649693
100733.640532
100733.632945
100733.626843
100733.62213
100733.618704
100733.616464
100733.615313
100733.615159
100733.615931
100733.617583
100733.620113
100733.623582
100733.628129
100733.633999
100733.641561
100733.651311
100733.663855
100733.679839
100733.699776
100733.723704
100733.750617
100733.777719
100733.812931
100736.087236
100736.144091
100736.135354
100736.122994
100736.107119
100736.087885
100736.065445
100736.039989
100736.011688
100735.980729
100735.947269
100735.911471
100735.873458
100735.83336
100735.791271
100735.747304
100735.701545
100735.654113
100735.605112
100735.554692
100735.502995
100735.450215
100735.396536
100735.342193
100735.287405
100735.232438
100735.177528
100735.122952
100735.068948
100735.015786
100734.96369
100734.912909
100734.86364
100734.816105
100734.770468
100734.726915
100734.685575
100734.646599
100734.610081
100734.576136
100734.544822
100734.516221
100734.490359
100734.467282
100734.446989
100734.429507
100734.414914
100734.403111
100734.393842
100734.38708
100734.382744
100734.380771
100734.381055
100734.383503
100734.387982
100734.394375
100734.402524
100734.412287
100734.423488
100734.435963
100734.449518
100734.463976
100734.479128
100734.494784
100734.510728
100734.526762
100734.542664
100734.558231
100734.57324
100734.587489
100734.600756
100734.612841
100734.623529
100734.632625
100734.639925
100734.645245
100734.648397
100734.649215
100734.647535
100734.643219
100734.63614
100734.626203
100734.613335
100734.597504
100734.57871
100734.557004
100734.532477
100734.505272
100734.475569
100734.443596
100734.409608
100734.373888
100734.336727
100734.298447
100734.25935
100734.219814
100734.180102
100734.14036
100734.100932
100734.062019
100734.023853
100733.986655
100733.950614
100733.915901
100733.882663
100733.851027
100733.821098
100733.792961
100733.76668
100733.742302
100733.719855
100733.699351
100733.680788
100733.664148
100733.649426
100733.636555
100733.625407
100733.615918
100733.60801
100733.6016
100733.5966
100733.592917
100733.590458
100733.589135
100733.588868
100733.589595
100733.591282
100733.593935
100733.59762
100733.60248
100733.608751
100733.616784
100733.627042
100733.64008
100733.656469
100733.676622
100733.700452
100733.726788
100733.752669
100733.784061
100736.165362
100736.22076
100736.210943
100736.197025
100736.179111
100736.157359
100736.131925
100736.103011
100736.070807
100736.035536
100735.99739
100735.956583
100735.913292
100735.86771
100735.819991
100735.770309
100735.71881
100735.665668
100735.611038
100735.555114
100735.498077
100735.440154
100735.381558
100735.322545
100735.263352
100735.204255
100735.145497
100735.087358
100735.030074
100734.973911
100734.919083
100734.86583
100734.814338
100734.764814
100734.717409
100734.672295
100734.629589
100734.589426
100734.551888
100734.517079
100734.485046
100734.45586
100734.429538
100734.406119
100734.385592
100734.367961
100734.353369
100734.341724
100734.33272
100734.326306
100734.322397
100734.320927
100734.321785
100734.324877
100734.330066
100734.33723
100734.346205
100734.356846
100734.368967
100734.3824
100734.396943
100734.412408
100734.428581
100734.445261
100734.462223
100734.47926
100734.496141
100734.512654
100734.52857
100734.543678
100734.55775
100734.570582
100734.581955
100734.591673
100734.599534
100734.605355
100734.608955
100734.610174
100734.608858
100734.604882
100734.598133
100734.588532
100734.576019
100734.560579
100734.542224
100734.521015
100734.497046
100734.47046
100734.441435
100734.410187
100734.376958
100734.342018
100734.305649
100734.268145
100734.229801
100734.19096
100734.151809
100734.11272
100734.073888
100734.035465
100733.997766
100733.960968
100733.925265
100733.89083
100733.85781
100733.826336
100733.796515
100733.768435
100733.742165
100733.717756
100733.695239
100733.674632
100733.655935
100733.639135
100733.624227
100733.611173
100733.599851
100733.590179
100733.582087
100733.575497
100733.570327
100733.566492
100733.563906
100733.562489
100733.56217
100733.562895
100733.564637
100733.56741
100733.57128
100733.576386
100733.582956
100733.591314
100733.601888
100733.615174
100733.631669
100733.651692
100733.675041
100733.700421
100733.724793
100733.752648
100736.249037
100736.302253
100736.291262
100736.27563
100736.255461
100736.230905
100736.202125
100736.169337
100736.132753
100736.09263
100736.04921
100736.002763
100735.953533
100735.901782
100735.847739
100735.791648
100735.733722
100735.674199
100735.613287
100735.551232
100735.488255
100735.42462
100735.360565
100735.296371
100735.232288
100735.168606
100735.105571
100735.043466
100734.982522
100734.923001
100734.865107
100734.80907
100734.755062
100734.703279
100734.653854
100734.606949
100734.562662
100734.521118
100734.482384
100734.446551
100734.413657
100734.383761
100734.356871
100734.33302
100734.312185
100734.294369
100734.279641
100734.268036
100734.259307
100734.253247
100734.249776
100734.248828
100734.250292
100734.254069
100734.260019
100734.268014
100734.277889
100734.28949
100734.302625
100734.31712
100734.332763
100734.349361
100734.366689
100734.384537
100734.402672
100734.420876
100734.43891
100734.456553
100734.473568
100734.489735
100734.504823
100734.51862
100734.530904
100734.541479
100734.55014
100734.556708
100734.561006
100734.56288
100734.562185
100734.558807
100734.552643
100734.543627
100734.531714
100734.516899
100734.499206
100734.478702
100734.455486
100734.429703
100734.401525
100734.371162
100734.338847
100734.304838
100734.269404
100734.23283
100734.195402
100734.157398
100734.119115
100734.080806
100734.042705
100734.005051
100733.967966
100733.931757
100733.896589
100733.86262
100733.830009
100733.798886
100733.769361
100733.741524
100733.715449
100733.691188
100733.668777
100733.648235
100733.629569
100733.612768
100733.597813
100733.58471
100733.573357
100733.563636
100733.555484
100733.548829
100733.543593
100733.539698
100733.537066
100733.535621
100733.535299
100733.536054
100733.537862
100733.540741
100733.544756
100733.550039
100733.556801
100733.565342
100733.576045
100733.589352
100733.605683
100733.625268
100733.647811
100733.671932
100733.694593
100733.719178
100736.338788
100736.389003
100736.376735
100736.359219
100736.336547
100736.308871
100736.276353
100736.23922
100736.197713
100736.15213
100736.102765
100736.049961
100735.994037
100735.935341
100735.874187
100735.810903
100735.745779
100735.679122
100735.611203
100735.54232
100735.472738
100735.402757
100735.332643
100735.262698
100735.193188
100735.124412
100735.05662
100734.990095
100734.925065
100734.861784
100734.800447
100734.741273
100734.68442
100734.630069
100734.57834
100734.529379
100734.48327
100734.440125
100734.399995
100734.36296
100734.329045
100734.298299
100734.270721
100734.246333
100734.225107
100734.207042
100734.192101
100734.180482
100734.171991
100734.166277
100734.163259
100734.162865
100734.164978
100734.1695
100734.176284
100734.185201
100734.196076
100734.208753
100734.223032
100734.238731
100734.255632
100734.273531
100734.292195
100734.311405
100734.330917
100734.350505
100734.36992
100734.388932
100734.407295
100734.42478
100734.44115
100734.456188
100734.469667
100734.481388
100734.491145
100734.498762
100734.504062
100734.506899
100734.507133
100734.504659
100734.499383
100734.491252
100734.480229
100734.466321
100734.44956
100734.430019
100734.407801
100734.383051
100734.355939
100734.326669
100734.295467
100734.262582
100734.228273
100734.192815
100734.156481
100734.119548
100734.082283
100734.04495
100734.007848
100733.971068
100733.934911
100733.899556
100733.865044
100733.831744
100733.799738
100733.769152
100733.740107
100733.712696
100733.68699
100733.663048
100733.640907
100733.62059
100733.602104
100733.585442
100733.570584
100733.557565
100733.546303
100733.536649
100733.528546
100733.521925
100733.516715
100733.512842
100733.510231
100733.508813
100733.50853
100733.509337
100733.511217
100733.514185
100733.518303
100733.523694
100733.530549
100733.539139
100733.549804
100733.562927