/*--------------------------------*- C++ -*----------------------------------*\
| =========                 |                                                 |
| \\      /  F ield         | OpenFOAM: The Open Source CFD Toolbox           |
|  \\    /   O peration     | Version:  2206                                  |
|   \\  /    A nd           | Website:  www.openfoam.com                      |
|    \\/     M anipulation  |                                                 |
\*---------------------------------------------------------------------------*/
FoamFile
{
    version     2.0;
    format      ascii;
    arch        "LSB;label=64;scalar=64";
    class       volScalarField;
    location    "3/water";
    object      reactingEulerHtcModel(T.liquid);
}
// * * * * * * * * * * * * * * * * * * * * * * * * * * * * * * * * * * * * * //

dimensions      [1 0 -3 -1 0 0 0];

internalField   uniform 0;

boundaryField
{
    maxY
    {
        type            calculated;
        value           uniform 0;
    }
    symmetric
    {
        type            symmetry;
    }
    maxX
    {
        type            calculated;
        value           uniform 0;
    }
    minY
    {
        type            calculated;
        value           uniform 0;
    }
    emptyPatch
    {
        type            empty;
    }
    water_to_solid
    {
        type            calculated;
        value           nonuniform List<scalar> 
70
(
-95.6774007815
-95.9713176847
-96.2384349459
-96.4824916526
-96.9157036805
-98.6802680822
-102.324692362
-112.3522888
-162.721463854
-222.304002735
-243.884454902
-242.823942269
-241.491477982
-239.983010236
-239.276932578
-240.478324667
-245.57480615
-229.672561992
-200.279386683
-193.23879783
-198.668102783
-188.06137864
-198.265676161
-187.839831594
-197.744921521
-188.140306872
-196.282923513
-187.568748312
-196.305513034
-189.156691122
-196.787615745
-191.504976619
-197.899029429
-195.644239646
-198.43237383
-207.200369312
-234.796110561
-247.363964075
-246.376638964
-242.843975487
-241.912901315
-243.860290039
-246.648979537
-120.737094509
-112.383094596
-103.163492379
-109.376794151
-101.124559381
-108.251581734
-101.391025217
-107.747715623
-102.403878605
-107.420470766
-103.661258254
-107.13310841
-105.053894193
-106.852298432
-106.292882092
-106.61808598
-230.487756094
-231.437467238
-231.901894869
-232.369499564
-232.800089645
-233.241310913
-233.84132059
-234.770720513
-234.563923255
-138.517564073
-220.209521666
)
;
    }
}


// ************************************************************************* //
