/*--------------------------------*- C++ -*----------------------------------*\
| =========                 |                                                 |
| \\      /  F ield         | OpenFOAM: The Open Source CFD Toolbox           |
|  \\    /   O peration     | Version:  2206                                  |
|   \\  /    A nd           | Website:  www.openfoam.com                      |
|    \\/     M anipulation  |                                                 |
\*---------------------------------------------------------------------------*/
FoamFile
{
    version     2.0;
    format      ascii;
    arch        "LSB;label=64;scalar=64";
    class       volScalarField;
    location    "4.4/water";
    object      alpha.gas;
}
// * * * * * * * * * * * * * * * * * * * * * * * * * * * * * * * * * * * * * //

dimensions      [0 0 0 0 0 0 0];

internalField   nonuniform List<scalar> 
23300
(
1e-15
1e-15
1e-15
1e-15
1e-15
1e-15
1e-15
1e-15
1e-15
1e-15
1e-15
1e-15
1e-15
1e-15
1e-15
1e-15
1e-15
1e-15
1e-15
1e-15
1e-15
1e-15
1e-15
1e-15
1e-15
1e-15
1e-15
1e-15
1e-15
1e-15
1e-15
1e-15
1e-15
1e-15
1e-15
1e-15
1e-15
1e-15
1e-15
1e-15
1e-15
1e-15
1e-15
1e-15
1e-15
1e-15
1e-15
1e-15
1e-15
1e-15
1e-15
1e-15
1e-15
1e-15
1e-15
1e-15
1e-15
1e-15
1e-15
1e-15
1e-15
1e-15
1e-15
1e-15
1e-15
1e-15
1e-15
1e-15
1e-15
1e-15
1e-15
1e-15
1e-15
1e-15
1e-15
1e-15
1e-15
1e-15
1e-15
1e-15
1e-15
1e-15
1e-15
1e-15
1e-15
1e-15
1e-15
1e-15
1e-15
1e-15
1e-15
1e-15
1e-15
1e-15
1e-15
1e-15
1e-15
1e-15
1e-15
1e-15
1e-15
1e-15
1e-15
1e-15
1e-15
1e-15
1e-15
1e-15
1e-15
1e-15
1e-15
1e-15
1e-15
1e-15
1e-15
1e-15
1e-15
1e-15
1e-15
1e-15
1e-15
1e-15
1e-15
1e-15
1e-15
1e-15
1e-15
1e-15
1e-15
1e-15
1e-15
1e-15
1e-15
1e-15
1e-15
1e-15
1e-15
1e-15
1e-15
1e-15
1e-15
1e-15
1e-15
1e-15
1e-15
1e-15
1e-15
1e-15
1e-15
1e-15
1e-15
1e-15
1e-15
1e-15
1e-15
1e-15
1e-15
1e-15
1e-15
1e-15
1e-15
1e-15
1e-15
1e-15
1e-15
1e-15
1e-15
1e-15
1e-15
1e-15
1e-15
1e-15
1e-15
1e-15
1e-15
1e-15
1e-15
1e-15
1e-15
1e-15
1e-15
1e-15
1e-15
1e-15
1e-15
1e-15
1e-15
1e-15
1e-15
1e-15
1e-15
1e-15
1e-15
1e-15
1e-15
1e-15
1e-15
1e-15
1e-15
1e-15
1e-15
1e-15
1e-15
1e-15
1e-15
1e-15
1e-15
1e-15
1e-15
1e-15
1e-15
1e-15
1e-15
1e-15
1e-15
1e-15
1e-15
1e-15
1e-15
1e-15
1e-15
1e-15
1e-15
1e-15
1e-15
1e-15
1e-15
1e-15
1e-15
1e-15
1e-15
1e-15
1e-15
1e-15
1e-15
1e-15
1e-15
1e-15
1e-15
1e-15
1e-15
1e-15
1e-15
1e-15
1e-15
1e-15
1e-15
1e-15
1e-15
1e-15
1e-15
1e-15
1e-15
1e-15
1e-15
1e-15
1e-15
1e-15
1e-15
1e-15
1e-15
1e-15
1e-15
1e-15
1e-15
1e-15
1e-15
1e-15
1e-15
1e-15
1e-15
1e-15
1e-15
1e-15
1e-15
1e-15
1e-15
1e-15
1e-15
1e-15
1e-15
1e-15
1e-15
1e-15
1e-15
1e-15
1e-15
1e-15
1e-15
1e-15
1e-15
1e-15
1e-15
1e-15
1e-15
1e-15
1e-15
1e-15
1e-15
1e-15
1e-15
1e-15
1e-15
1e-15
1e-15
1e-15
1e-15
1e-15
1e-15
1e-15
1e-15
1e-15
1e-15
1e-15
1e-15
1e-15
1e-15
1e-15
1e-15
1e-15
1e-15
1e-15
1e-15
1e-15
1e-15
1e-15
1e-15
1e-15
1e-15
1e-15
1e-15
1e-15
1e-15
1e-15
1e-15
1e-15
1e-15
1e-15
1e-15
1e-15
1e-15
1e-15
1e-15
1e-15
1e-15
1e-15
1e-15
1e-15
1e-15
1e-15
1e-15
1e-15
1e-15
1e-15
1e-15
1e-15
1e-15
1e-15
1e-15
1e-15
1e-15
1e-15
1e-15
1e-15
1e-15
1e-15
1e-15
1e-15
1e-15
1e-15
1e-15
1e-15
1e-15
1e-15
1e-15
1e-15
1e-15
1e-15
1e-15
1e-15
1e-15
1e-15
1e-15
1e-15
1e-15
1e-15
1e-15
1e-15
1e-15
1e-15
1e-15
1e-15
1e-15
1e-15
1e-15
1e-15
1e-15
1e-15
1e-15
1e-15
1e-15
1e-15
1e-15
1e-15
1e-15
1e-15
1e-15
1e-15
1e-15
1e-15
1e-15
1e-15
1e-15
1e-15
1e-15
1e-15
1e-15
1e-15
1e-15
1e-15
1e-15
1e-15
1e-15
1e-15
1e-15
1e-15
1e-15
1e-15
1e-15
1e-15
1e-15
1e-15
1e-15
1e-15
1e-15
1e-15
1e-15
1e-15
1e-15
1e-15
1e-15
1e-15
1e-15
1e-15
1e-15
1e-15
1e-15
1e-15
1e-15
1e-15
1e-15
1e-15
1e-15
1e-15
1e-15
1e-15
1e-15
1e-15
1e-15
1e-15
1e-15
1e-15
1e-15
1e-15
1e-15
1e-15
1e-15
1e-15
1e-15
1e-15
1e-15
1e-15
1e-15
1e-15
1e-15
1e-15
1e-15
1e-15
1e-15
1e-15
1e-15
1e-15
1e-15
1e-15
1e-15
1e-15
1e-15
1e-15
1e-15
1e-15
1e-15
1e-15
1e-15
1e-15
1e-15
1e-15
1e-15
1e-15
1e-15
1e-15
1e-15
1e-15
1e-15
1e-15
1e-15
1e-15
1e-15
1e-15
1e-15
1e-15
1e-15
1e-15
1e-15
1e-15
1e-15
1e-15
1e-15
1e-15
1e-15
1e-15
1e-15
1e-15
1e-15
1e-15
1e-15
1e-15
1e-15
1e-15
1e-15
1e-15
1e-15
1e-15
1e-15
1e-15
1e-15
1e-15
1e-15
1e-15
1e-15
1e-15
1e-15
1e-15
1e-15
1e-15
1e-15
1e-15
1e-15
1e-15
1e-15
1e-15
1e-15
1e-15
1e-15
1e-15
1e-15
1e-15
1e-15
1e-15
1e-15
1e-15
1.01704502299e-15
1e-15
1e-15
1e-15
1e-15
1e-15
1e-15
1e-15
1e-15
1e-15
1e-15
1e-15
1e-15
1e-15
1e-15
1e-15
1e-15
1e-15
1e-15
1e-15
1e-15
1e-15
1e-15
1e-15
1e-15
1e-15
1e-15
1e-15
1e-15
1e-15
1e-15
1e-15
1e-15
1e-15
1e-15
1e-15
1e-15
1e-15
1e-15
1e-15
1e-15
1e-15
1e-15
1e-15
1e-15
1e-15
1e-15
1e-15
1e-15
1e-15
1e-15
1e-15
1e-15
1e-15
1e-15
1e-15
1e-15
1e-15
1e-15
1e-15
1e-15
1e-15
1e-15
1e-15
1e-15
1e-15
1e-15
1e-15
1e-15
1e-15
1e-15
1e-15
1e-15
1e-15
1e-15
1e-15
1e-15
1e-15
1e-15
1e-15
1e-15
1e-15
1e-15
1e-15
1e-15
1e-15
1e-15
1e-15
1e-15
1e-15
1e-15
1e-15
1e-15
1e-15
1e-15
1e-15
1e-15
1e-15
1e-15
1e-15
1e-15
1e-15
1e-15
1e-15
1e-15
1e-15
1e-15
1e-15
1e-15
1e-15
1e-15
1e-15
1e-15
1e-15
1e-15
1e-15
1e-15
1e-15
1e-15
1e-15
1e-15
1e-15
1e-15
1e-15
1e-15
1e-15
1e-15
1e-15
1e-15
1e-15
1e-15
1e-15
1.02783828274e-15
1.028828444e-15
1.02783828274e-15
1e-15
1e-15
1e-15
1.01298708452e-15
1e-15
1.01220663212e-15
1e-15
1e-15
1e-15
1e-15
1e-15
1e-15
1e-15
1e-15
1e-15
1e-15
1e-15
1e-15
1e-15
1e-15
1e-15
1e-15
1e-15
1e-15
1e-15
1e-15
1e-15
1e-15
1e-15
1e-15
1e-15
1e-15
1e-15
1e-15
1e-15
1e-15
1e-15
1e-15
1e-15
1e-15
1e-15
1e-15
1e-15
1e-15
1e-15
1e-15
1e-15
1e-15
1e-15
1e-15
1e-15
1e-15
1e-15
1e-15
1e-15
1e-15
1e-15
1e-15
1e-15
1e-15
1e-15
1e-15
1e-15
1e-15
1e-15
1e-15
1e-15
1e-15
1e-15
1e-15
1e-15
1e-15
1e-15
1e-15
1e-15
1e-15
1e-15
1e-15
1e-15
1e-15
1e-15
1e-15
1e-15
1e-15
1e-15
1e-15
1e-15
1e-15
1e-15
1e-15
1e-15
1e-15
1e-15
1e-15
1e-15
1e-15
1e-15
1e-15
1e-15
1e-15
1e-15
1e-15
1e-15
1e-15
1e-15
1e-15
1e-15
1e-15
1e-15
1e-15
1e-15
1e-15
1e-15
1e-15
1e-15
1e-15
1e-15
1e-15
1e-15
1e-15
1e-15
1e-15
1e-15
1e-15
1e-15
1e-15
1e-15
1e-15
1e-15
1e-15
1e-15
1e-15
1e-15
1e-15
1e-15
1e-15
1.00177203793e-15
1.0292499739e-15
1.02783828274e-15
1.0292740027e-15
1.01015819791e-15
1e-15
1e-15
1.01485858262e-15
1e-15
1.01701458345e-15
1e-15
1.00025418222e-15
1.00027751473e-15
1.00031028196e-15
1.00036407196e-15
1.00041715571e-15
1.00048276366e-15
1.00053649812e-15
1.00058032376e-15
1.00061238258e-15
1.00063904191e-15
1.00064237543e-15
1.00063447088e-15
1.00060192415e-15
1.00055739379e-15
1.00049443785e-15
1.00043177252e-15
1.00034384709e-15
1.00026661683e-15
1.00018818427e-15
1.0001006096e-15
1.00002090277e-15
1.00000244212e-15
1e-15
1e-15
1e-15
1e-15
1e-15
1e-15
1e-15
1e-15
1e-15
1.0000004462e-15
1.00000253635e-15
1.00000897583e-15
1.00002871566e-15
1.00006924977e-15
1.00010415565e-15
1.00013729431e-15
1.00021415293e-15
1.00048177832e-15
1.00081582113e-15
1.00094884553e-15
1.00077385887e-15
1.00058378761e-15
1.00025567438e-15
1.00025662834e-15
1.00025950965e-15
1.00025678023e-15
1.00024779039e-15
1.00023866309e-15
1.00022342204e-15
1.00020735681e-15
1.0001832811e-15
1.00015699011e-15
1.00011846143e-15
1.00007869579e-15
1.00003339872e-15
1.00000126212e-15
1e-15
1e-15
1e-15
1e-15
1e-15
1e-15
1e-15
1e-15
1e-15
1e-15
1e-15
1e-15
1e-15
1e-15
1e-15
1e-15
1e-15
1e-15
1e-15
1e-15
1e-15
1e-15
1e-15
1e-15
1e-15
1e-15
1e-15
1e-15
1e-15
1e-15
1e-15
1e-15
1.00002458567e-15
1.00010055552e-15
1.00016938485e-15
1.00022196653e-15
1.0002577439e-15
1.00028522744e-15
1.00030555949e-15
1.00032190938e-15
1.00033290325e-15
1.00034047453e-15
1.00034335567e-15
1.0003432061e-15
1.000339244e-15
1.00033259793e-15
1.00032253882e-15
1.00030900147e-15
1.00028770429e-15
1.00026133403e-15
1.00022876514e-15
1.00019055652e-15
1.00014782636e-15
1.00010363641e-15
1.00005986523e-15
1.00002067404e-15
1.00000206959e-15
1.00000109561e-15
1.00000014411e-15
1e-15
1e-15
1e-15
1e-15
1e-15
1e-15
1.00000084684e-15
1.00000280613e-15
1.00007844213e-15
1.00021219367e-15
1.00035236206e-15
1.00046702831e-15
1.02851936535e-15
1.02783828274e-15
1.02928679767e-15
1.02783828274e-15
1.02881049129e-15
1.0009886247e-15
1.00042487657e-15
1.01298708452e-15
1e-15
1.01220663212e-15
1e-15
1.00033618253e-15
1.00037469856e-15
1.0004313991e-15
1.00051527648e-15
1.00061767466e-15
1.00073637723e-15
1.00084567294e-15
1.00096226057e-15
1.00106510713e-15
1.00115193807e-15
1.00118427456e-15
1.00117608977e-15
1.00111163762e-15
1.0010013039e-15
1.00084961397e-15
1.00071052757e-15
1.00056904876e-15
1.00042178067e-15
1.00030072642e-15
1.00019696956e-15
1.00009518133e-15
1.00001903385e-15
1e-15
1e-15
1e-15
1e-15
1e-15
1e-15
1e-15
1e-15
1e-15
1e-15
1.00001317156e-15
1.00005710233e-15
1.00011061025e-15
1.00015181199e-15
1.00019122478e-15
1.00039158976e-15
1.00122942993e-15
1.00148501402e-15
1.00150506723e-15
1.00148501402e-15
1.00150517667e-15
1.00148501402e-15
1.00110007454e-15
1.00055777577e-15
1.00056404529e-15
1.00055536121e-15
1.00053565393e-15
1.00051133825e-15
1.00047422113e-15
1.00043191286e-15
1.00038125235e-15
1.00032593568e-15
1.00025452614e-15
1.00017745272e-15
1.00009101816e-15
1.00001623818e-15
1e-15
1e-15
1e-15
1e-15
1e-15
1e-15
1e-15
1e-15
1e-15
1e-15
1e-15
1e-15
1e-15
1e-15
1e-15
1e-15
1e-15
1e-15
1e-15
1e-15
1e-15
1e-15
1e-15
1e-15
1e-15
1e-15
1e-15
1e-15
1e-15
1e-15
1e-15
1e-15
1.00013768737e-15
1.00027579448e-15
1.00041294804e-15
1.00052760633e-15
1.0006147362e-15
1.00068407163e-15
1.00073654335e-15
1.00077878942e-15
1.00080867877e-15
1.00083010865e-15
1.00084061954e-15
1.00084351753e-15
1.00083750966e-15
1.00082474532e-15
1.00080332087e-15
1.0007739686e-15
1.00072758028e-15
1.00067127902e-15
1.00060863215e-15
1.00053735813e-15
1.00045815219e-15
1.00037549598e-15
1.00029337698e-15
1.00022395822e-15
1.00014261338e-15
1.00007174184e-15
1.00001407535e-15
1e-15
1e-15
1e-15
1e-15
1e-15
1e-15
1.00004584427e-15
1.00017935391e-15
1.00036105265e-15
1.00062099558e-15
1.0009134133e-15
1.00119290791e-15
1.02783828274e-15
1.02921349793e-15
1.02783828274e-15
1.02921475586e-15
1.02783828274e-15
1.00249628466e-15
1.00117554755e-15
1.01453239594e-15
1e-15
1.01632519422e-15
1e-15
1.00032411298e-15
1.00036416798e-15
1.00041944541e-15
1.00050426396e-15
1.00061110688e-15
1.00073348118e-15
1.00084980584e-15
1.00102532592e-15
1.001244719e-15
1.00140692165e-15
1.00148957042e-15
1.00149355554e-15
1.00141709443e-15
1.00125314614e-15
1.00102346413e-15
1.00079255139e-15
1.00063173032e-15
1.00047890973e-15
1.00034548824e-15
1.00024256604e-15
1.00014998885e-15
1.00007496699e-15
1.00002949808e-15
1.0000106982e-15
1.00000021318e-15
1e-15
1e-15
1e-15
1e-15
1.00000471764e-15
1.00001133955e-15
1.00002856624e-15
1.00005135776e-15
1.00008828885e-15
1.00012353709e-15
1.00016447731e-15
1.0003203501e-15
1.00098584428e-15
1.00148501402e-15
1.00150475369e-15
1.00148501402e-15
1.00150500008e-15
1.00148501402e-15
1.00150080329e-15
1.00148501402e-15
1.00109617243e-15
1.00083767296e-15
1.00083159762e-15
1.00079949272e-15
1.00075965656e-15
1.0007140896e-15
1.00067127644e-15
1.00060610138e-15
1.00051591136e-15
1.00038225346e-15
1.00022392018e-15
1.0000593385e-15
1e-15
1e-15
1e-15
1e-15
1e-15
1e-15
1e-15
1e-15
1e-15
1e-15
1e-15
1e-15
1e-15
1e-15
1e-15
1e-15
1e-15
1e-15
1e-15
1e-15
1e-15
1e-15
1e-15
1e-15
1e-15
1e-15
1e-15
1e-15
1e-15
1e-15
1e-15
1e-15
1.0000436617e-15
1.00018679561e-15
1.00040232094e-15
1.0006134442e-15
1.00079476228e-15
1.0009379827e-15
1.00105331891e-15
1.0011442098e-15
1.00121741489e-15
1.00127182342e-15
1.00131141152e-15
1.00133449097e-15
1.00134402774e-15
1.00133976909e-15
1.00132380846e-15
1.00129376734e-15
1.0012520224e-15
1.00118310848e-15
1.00109469733e-15
1.00100419729e-15
1.00090440899e-15
1.00079411407e-15
1.00067752804e-15
1.00055939611e-15
1.00045304487e-15
1.000347941e-15
1.00025929985e-15
1.00018781713e-15
1.00013806423e-15
1.00012143638e-15
1.00011488902e-15
1.00011639526e-15
1.00012814429e-15
1.00015503338e-15
1.00025341173e-15
1.00043310187e-15
1.00069788312e-15
1.00108013856e-15
1.00152809511e-15
1.00199324413e-15
1.02883227866e-15
1.02783828274e-15
1.02923202726e-15
1.02783828274e-15
1.02889175495e-15
1.00408024404e-15
1.00190032843e-15
1.01298708452e-15
1e-15
1.01220663212e-15
1e-15
1.00030570894e-15
1.00034415071e-15
1.00039761296e-15
1.00047976081e-15
1.000581799e-15
1.00070464984e-15
1.00082349393e-15
1.00105076277e-15
1.00137765634e-15
1.00161011922e-15
1.00174802518e-15
1.00177096972e-15
1.00169849544e-15
1.00149910651e-15
1.00120893467e-15
1.00087491146e-15
1.00067077729e-15
1.00052069458e-15
1.00038057073e-15
1.00027332272e-15
1.00018081609e-15
1.00011407632e-15
1.0000559058e-15
1.00002097396e-15
1.00000440235e-15
1e-15
1e-15
1e-15
1e-15
1.0000077292e-15
1.0000126206e-15
1.00003136622e-15
1.00005312172e-15
1.00008159521e-15
1.00010895564e-15
1.00021337438e-15
1.00065743567e-15
1.00148501402e-15
1.00149690287e-15
1.00148501402e-15
1.00149779241e-15
1.00148501402e-15
1.00149578029e-15
1.00148501402e-15
1.00149177039e-15
1.00148501402e-15
1.00113437032e-15
1.00110286701e-15
1.00106199965e-15
1.001021918e-15
1.00092874126e-15
1.00081109705e-15
1.0006705866e-15
1.0005156491e-15
1.0003603445e-15
1.00017067297e-15
1e-15
1e-15
1e-15
1e-15
1e-15
1e-15
1e-15
1e-15
1e-15
1e-15
1e-15
1e-15
1e-15
1e-15
1e-15
1e-15
1e-15
1e-15
1e-15
1e-15
1e-15
1e-15
1e-15
1e-15
1e-15
1e-15
1e-15
1e-15
1e-15
1e-15
1e-15
1e-15
1e-15
1.0000378636e-15
1.00022641656e-15
1.00053182659e-15
1.00081670546e-15
1.00103843205e-15
1.00122590021e-15
1.00138696234e-15
1.00152089122e-15
1.00162931124e-15
1.00171297529e-15
1.00177448273e-15
1.00181447247e-15
1.00183432985e-15
1.00183464078e-15
1.00181923944e-15
1.0017842582e-15
1.00173578497e-15
1.00165195586e-15
1.00153700628e-15
1.00142678431e-15
1.0013067346e-15
1.00117413345e-15
1.00102916021e-15
1.00087545128e-15
1.00072083538e-15
1.00056759278e-15
1.00046140355e-15
1.0003944719e-15
1.00034721299e-15
1.00031735136e-15
1.00030283347e-15
1.00030739107e-15
1.00033568218e-15
1.00039246131e-15
1.00049799165e-15
1.00070946745e-15
1.00109307243e-15
1.001596805e-15
1.00217958521e-15
1.00281478255e-15
1.02783828274e-15
1.0291539274e-15
1.02783828274e-15
1.0291456514e-15
1.02783828274e-15
1.00563869728e-15
1.00252281434e-15
1.01400094981e-15
1e-15
1.01559953152e-15
1e-15
1.00029274605e-15
1.00032626775e-15
1.00037566207e-15
1.00045363608e-15
1.00054752547e-15
1.0006662349e-15
1.00078595241e-15
1.0011175406e-15
1.00156289015e-15
1.00186620752e-15
1.00206187971e-15
1.0021085917e-15
1.00204892334e-15
1.0018260889e-15
1.00149046605e-15
1.0010424619e-15
1.00073367892e-15
1.00055276353e-15
1.00041183082e-15
1.0002988396e-15
1.00020408087e-15
1.00013722616e-15
1.00007667753e-15
1.00003171294e-15
1.00001259316e-15
1.00000599817e-15
1e-15
1.00000137058e-15
1.00000281871e-15
1.00000670362e-15
1.00000981606e-15
1.00002185448e-15
1.00003908907e-15
1.00006061245e-15
1.00010555504e-15
1.00041810769e-15
1.0010934747e-15
1.00149050512e-15
1.00148501402e-15
1.00149100868e-15
1.00148501402e-15
1.00149286588e-15
1.00148501402e-15
1.00148811682e-15
1.00148501402e-15
1.00148646997e-15
1.00140702582e-15
1.00124695267e-15
1.00116312245e-15
1.00103504123e-15
1.00091549202e-15
1.00077029375e-15
1.00061217948e-15
1.00044077136e-15
1.00023743949e-15
1.0000073812e-15
1e-15
1e-15
1e-15
1e-15
1e-15
1e-15
1e-15
1e-15
1e-15
1e-15
1e-15
1e-15
1e-15
1e-15
1e-15
1e-15
1e-15
1e-15
1e-15
1e-15
1e-15
1e-15
1e-15
1e-15
1e-15
1e-15
1e-15
1e-15
1e-15
1e-15
1e-15
1e-15
1e-15
1.00002231951e-15
1.00024584672e-15
1.00060967119e-15
1.00095639997e-15
1.00121850149e-15
1.00145626143e-15
1.00166985142e-15
1.00185281149e-15
1.00200155374e-15
1.00211935142e-15
1.00220717008e-15
1.00226835445e-15
1.00230241717e-15
1.00231124986e-15
1.00229959496e-15
1.00226398828e-15
1.00221017256e-15
1.00212063512e-15
1.00198691486e-15
1.00186153002e-15
1.00172797978e-15
1.00157826571e-15
1.00141651362e-15
1.00124456226e-15
1.00105520617e-15
1.00086014643e-15
1.00072353783e-15
1.00064180535e-15
1.00058259858e-15
1.0005372975e-15
1.00051320403e-15
1.00052130891e-15
1.00056709974e-15
1.00065773316e-15
1.0007954419e-15
1.00106032571e-15
1.0015492089e-15
1.00215583887e-15
1.00284891403e-15
1.00362611414e-15
1.02883186491e-15
1.02783828274e-15
1.029165317e-15
1.02783828274e-15
1.02882872406e-15
1.00709582602e-15
1.00300880114e-15
1.01298708452e-15
1e-15
1.01220663212e-15
1e-15
1.00028116046e-15
1.00030917496e-15
1.00035630941e-15
1.00043120766e-15
1.00051578606e-15
1.00063147013e-15
1.00081163828e-15
1.00130805171e-15
1.0018573391e-15
1.00223406049e-15
1.00248744463e-15
1.00256090603e-15
1.00251567822e-15
1.00227470213e-15
1.00190595388e-15
1.00136179122e-15
1.00087411797e-15
1.00058154721e-15
1.00044126897e-15
1.00032376935e-15
1.00022621498e-15
1.00015574427e-15
1.00009364392e-15
1.00004937397e-15
1.00001933523e-15
1.00001048718e-15
1.00000407051e-15
1.00000306317e-15
1.00000167842e-15
1.00000392423e-15
1.00000506626e-15
1.00000951941e-15
1.00001406491e-15
1.00003202961e-15
1.00017124904e-15
1.00074777903e-15
1.00138220563e-15
1.00148501402e-15
1.00148667996e-15
1.00148501402e-15
1.00148661347e-15
1.00148501402e-15
1.00148650058e-15
1.00148501402e-15
1.00148533869e-15
1.00148227756e-15
1.00140564956e-15
1.00121961883e-15
1.00111911182e-15
1.00097665491e-15
1.00082193079e-15
1.00063963599e-15
1.0004445964e-15
1.00020715475e-15
1e-15
1e-15
1e-15
1e-15
1e-15
1e-15
1e-15
1e-15
1e-15
1e-15
1e-15
1e-15
1e-15
1e-15
1e-15
1e-15
1e-15
1e-15
1e-15
1e-15
1e-15
1e-15
1e-15
1e-15
1e-15
1e-15
1e-15
1e-15
1e-15
1e-15
1e-15
1e-15
1e-15
1e-15
1e-15
1.00001368409e-15
1.00024476349e-15
1.00061388746e-15
1.00098142891e-15
1.00131283272e-15
1.00161957869e-15
1.00189377836e-15
1.00212934259e-15
1.00232142508e-15
1.0024763293e-15
1.00259369628e-15
1.00267920083e-15
1.00273078793e-15
1.00275195347e-15
1.00274641374e-15
1.00271355595e-15
1.00265593352e-15
1.00256589723e-15
1.00241822431e-15
1.00226485397e-15
1.00213502604e-15
1.00198615461e-15
1.00182046046e-15
1.00162761002e-15
1.00142234313e-15
1.00121655863e-15
1.00105364108e-15
1.0009426301e-15
1.00085771752e-15
1.00079296079e-15
1.00075758124e-15
1.00076903916e-15
1.00083155457e-15
1.00095986144e-15
1.00115321148e-15
1.00148051037e-15
1.00203039364e-15
1.00270626175e-15
1.00349765303e-15
1.00440410507e-15
1.02783828274e-15
1.02909248015e-15
1.02783828274e-15
1.02907736824e-15
1.02783828274e-15
1.00842582701e-15
1.00335035887e-15
1.01363133932e-15
1e-15
1.01486711742e-15
1e-15
1.00027212451e-15
1.00029976682e-15
1.00033836029e-15
1.00041047156e-15
1.00049035825e-15
1.00060031798e-15
1.0009671188e-15
1.00170060423e-15
1.00227190008e-15
1.00272176122e-15
1.0030318598e-15
1.00313407292e-15
1.00310171984e-15
1.00284237456e-15
1.00244259553e-15
1.00183770536e-15
1.00115541077e-15
1.00064117911e-15
1.00046921665e-15
1.00034766172e-15
1.00024695445e-15
1.00017140396e-15
1.00010680272e-15
1.00006066965e-15
1.00002236273e-15
1.0000120106e-15
1.0000043134e-15
1.00000175899e-15
1e-15
1e-15
1e-15
1.00000093202e-15
1.00000109645e-15
1.00000845279e-15
1.00030638487e-15
1.00094104469e-15
1.0013670241e-15
1.00144616358e-15
1.00145765443e-15
1.0014677499e-15
1.00147235975e-15
1.00148577093e-15
1.00146925524e-15
1.00142061395e-15
1.00141677464e-15
1.00140570094e-15
1.00133606034e-15
1.00114118441e-15
1.00100708574e-15
1.00084308001e-15
1.00064852257e-15
1.00041680298e-15
1.00014671203e-15
1e-15
1e-15
1e-15
1e-15
1e-15
1e-15
1e-15
1e-15
1e-15
1e-15
1e-15
1e-15
1e-15
1e-15
1e-15
1e-15
1e-15
1e-15
1e-15
1e-15
1e-15
1e-15
1e-15
1e-15
1e-15
1e-15
1e-15
1e-15
1e-15
1e-15
1e-15
1e-15
1e-15
1e-15
1e-15
1e-15
1.00001554464e-15
1.00022834116e-15
1.00060038406e-15
1.00098805685e-15
1.00137745358e-15
1.00175496351e-15
1.00208921893e-15
1.0023751271e-15
1.00260935599e-15
1.00280072832e-15
1.00294806827e-15
1.00305854154e-15
1.00312914708e-15
1.00316487738e-15
1.00316611392e-15
1.00313794178e-15
1.00307791919e-15
1.00299157888e-15
1.00282523907e-15
1.00266751428e-15
1.00241796146e-15
1.00224182904e-15
1.00206973103e-15
1.00190368668e-15
1.00177567534e-15
1.00157573022e-15
1.00140562027e-15
1.00127348775e-15
1.00116799446e-15
1.0010886002e-15
1.00104510946e-15
1.00106005294e-15
1.00113715011e-15
1.00129744507e-15
1.00154188448e-15
1.00191856371e-15
1.00248375419e-15
1.00320792261e-15
1.00410363023e-15
1.00514449028e-15
1.02882890224e-15
1.02783828274e-15
1.02909970605e-15
1.02783828274e-15
1.02876948147e-15
1.0095944721e-15
1.00350485395e-15
1.01298708452e-15
1e-15
1.01220663212e-15
1e-15
1.00026456941e-15
1.00028971895e-15
1.00032395766e-15
1.00039077236e-15
1.00046607036e-15
1.00057188875e-15
1.00104742285e-15
1.00200601573e-15
1.0027515303e-15
1.00324283838e-15
1.00361575381e-15
1.00375511474e-15
1.00373951154e-15
1.00346262826e-15
1.00302348833e-15
1.00237592819e-15
1.00157834213e-15
1.00080198677e-15
1.00049324952e-15
1.00036907882e-15
1.00026385578e-15
1.00018319032e-15
1.00011450356e-15
1.00006360284e-15
1.00002205534e-15
1.00001033958e-15
1.00000149493e-15
1e-15
1e-15
1e-15
1e-15
1e-15
1e-15
1e-15
1.00038944227e-15
1.00098606516e-15
1.00127344429e-15
1.00131411389e-15
1.00133799841e-15
1.00135876079e-15
1.00137583835e-15
1.00141829164e-15
1.00139138872e-15
1.00130679369e-15
1.00127015662e-15
1.00126042409e-15
1.00119952523e-15
1.00101579026e-15
1.00084471795e-15
1.00065433303e-15
1.00041215954e-15
1.00011227446e-15
1e-15
1e-15
1e-15
1e-15
1e-15
1e-15
1e-15
1e-15
1e-15
1e-15
1e-15
1e-15
1e-15
1e-15
1e-15
1e-15
1e-15
1e-15
1e-15
1e-15
1e-15
1e-15
1e-15
1e-15
1e-15
1e-15
1e-15
1e-15
1e-15
1e-15
1e-15
1e-15
1e-15
1e-15
1e-15
1e-15
1e-15
1.0000169712e-15
1.00022651772e-15
1.00058345231e-15
1.00100798641e-15
1.00146714509e-15
1.00191405893e-15
1.00230271809e-15
1.00263452178e-15
1.00290823188e-15
1.0031338901e-15
1.00331012452e-15
1.00344475395e-15
1.00353452794e-15
1.00358531038e-15
1.00359428548e-15
1.00357116585e-15
1.00351046149e-15
1.00342464454e-15
1.00323265033e-15
1.00323092715e-15
1.00781289878e-15
1.01010283329e-15
1.00953918652e-15
1.0055409369e-15
1.00204495496e-15
1.00189483978e-15
1.00173036867e-15
1.00158815555e-15
1.00147506645e-15
1.00139294656e-15
1.00135106704e-15
1.00137088089e-15
1.00145834237e-15
1.00163606614e-15
1.00191332837e-15
1.00232227928e-15
1.00288919811e-15
1.00367407209e-15
1.00468624767e-15
1.00586967329e-15
1.02783828274e-15
1.0290323079e-15
1.02783828274e-15
1.02901267673e-15
1.02783828274e-15
1.01063594045e-15
1.00357104388e-15
1.01337845922e-15
1e-15
1.01416558414e-15
1e-15
1.00025851786e-15
1.00028134303e-15
1.00031034368e-15
1.00037185246e-15
1.00044533521e-15
1.00054400115e-15
1.00095878921e-15
1.00201786731e-15
1.0029780687e-15
1.00364045732e-15
1.00410374254e-15
1.00430465148e-15
1.00432015628e-15
1.00403597024e-15
1.00355296507e-15
1.00285529069e-15
1.00202965149e-15
1.00109758142e-15
1.00053193172e-15
1.00038818615e-15
1.0002759199e-15
1.00018974915e-15
1.00011455732e-15
1.00006048725e-15
1.00001887868e-15
1.00000663606e-15
1e-15
1e-15
1e-15
1e-15
1e-15
1e-15
1e-15
1e-15
1.00044006403e-15
1.00093773734e-15
1.00112158833e-15
1.00114790175e-15
1.00117165691e-15
1.00119299153e-15
1.00121070071e-15
1.00125293924e-15
1.0012737076e-15
1.00118319642e-15
1.0010932931e-15
1.0010844616e-15
1.00101993418e-15
1.00083938894e-15
1.00063710536e-15
1.00039653509e-15
1.00008709207e-15
1e-15
1e-15
1e-15
1e-15
1e-15
1e-15
1e-15
1e-15
1e-15
1e-15
1e-15
1e-15
1e-15
1e-15
1e-15
1e-15
1e-15
1e-15
1e-15
1e-15
1e-15
1e-15
1e-15
1e-15
1e-15
1e-15
1e-15
1e-15
1e-15
1e-15
1e-15
1e-15
1e-15
1e-15
1e-15
1e-15
1e-15
1e-15
1.00004062116e-15
1.00020093391e-15
1.00060667206e-15
1.0010896957e-15
1.00161983955e-15
1.002131276e-15
1.00256994772e-15
1.00294284731e-15
1.0032538189e-15
1.00351263626e-15
1.00371716856e-15
1.00387530774e-15
1.00398413132e-15
1.00405003924e-15
1.00406809001e-15
1.00405070725e-15
1.00398994625e-15
1.00393169923e-15
1.00556811191e-15
1.01185764625e-15
1.01167121506e-15
1.01196746769e-15
1.01167121506e-15
1.01192348788e-15
1.00646912816e-15
1.00219636794e-15
1.00201942492e-15
1.00187149932e-15
1.00175290519e-15
1.0016717615e-15
1.00163595218e-15
1.00166146844e-15
1.00175615754e-15
1.00194340446e-15
1.00224682146e-15
1.00268621081e-15
1.00328094276e-15
1.00415763247e-15
1.00528840464e-15
1.00660860083e-15
1.02882270951e-15
1.02783828274e-15
1.02903751278e-15
1.02783828274e-15
1.02871593822e-15
1.01156104247e-15
1.00355233177e-15
1.01298670756e-15
1e-15
1.01220663212e-15
1e-15
1.00025486601e-15
1.00027252255e-15
1.00029980898e-15
1.00035521912e-15
1.00042230004e-15
1.00051789365e-15
1.00073976718e-15
1.00193072641e-15
1.00298339273e-15
1.00384049084e-15
1.00443734771e-15
1.00472848478e-15
1.00479405774e-15
1.00451953565e-15
1.00400169083e-15
1.00324596987e-15
1.00240682536e-15
1.00145961663e-15
1.00064575008e-15
1.00040287439e-15
1.0002810669e-15
1.00018916447e-15
1.00010837804e-15
1.00004986586e-15
1.00001190478e-15
1.00000030551e-15
1e-15
1e-15
1e-15
1e-15
1e-15
1e-15
1e-15
1e-15
1.00043615528e-15
1.00083292804e-15
1.00094236002e-15
1.00096944462e-15
1.00099133819e-15
1.00101152411e-15
1.00102671598e-15
1.00106925971e-15
1.00114885405e-15
1.00103191361e-15
1.00088220826e-15
1.00086899411e-15
1.0007892188e-15
1.00059107483e-15
1.00030811539e-15
1e-15
1e-15
1e-15
1e-15
1e-15
1e-15
1e-15
1e-15
1e-15
1e-15
1e-15
1e-15
1e-15
1e-15
1e-15
1e-15
1e-15
1e-15
1e-15
1e-15
1e-15
1e-15
1e-15
1e-15
1e-15
1e-15
1e-15
1e-15
1e-15
1e-15
1e-15
1e-15
1e-15
1e-15
1e-15
1e-15
1e-15
1e-15
1e-15
1e-15
1.00002299294e-15
1.00022537349e-15
1.00065732767e-15
1.00121018111e-15
1.00187269958e-15
1.00241794377e-15
1.00288333603e-15
1.00330320743e-15
1.00365490125e-15
1.00394678734e-15
1.00418016458e-15
1.00436266104e-15
1.00449098815e-15
1.00457222217e-15
1.00460086657e-15
1.00459047304e-15
1.00455016382e-15
1.00497816915e-15
1.01187958003e-15
1.01167121506e-15
1.01195355394e-15
1.01167121506e-15
1.011961109e-15
1.01167121506e-15
1.01192626169e-15
1.00276471479e-15
1.0023139192e-15
1.00215603665e-15
1.00202324521e-15
1.00193358109e-15
1.00189598131e-15
1.00192564646e-15
1.00202833749e-15
1.0022320782e-15
1.00257046972e-15
1.00305171543e-15
1.00371619667e-15
1.0047077877e-15
1.00594085573e-15
1.00737603657e-15
1.02783828274e-15
1.02897460286e-15
1.02783828274e-15
1.02895290077e-15
1.02783828274e-15
1.01240443508e-15
1.00349393923e-15
1.0132126079e-15
1e-15
1.01351670834e-15
1e-15
1.0002547851e-15
1.00026876713e-15
1.00029000804e-15
1.00033920362e-15
1.00040130619e-15
1.00049299193e-15
1.00061523578e-15
1.00170815577e-15
1.00293513214e-15
1.00392856639e-15
1.00467656449e-15
1.00507512127e-15
1.00520432264e-15
1.00495412858e-15
1.00441592178e-15
1.00360326578e-15
1.00272442265e-15
1.00180639066e-15
1.00088004619e-15
1.00040909486e-15
1.00028014623e-15
1.0001813649e-15
1.00009271343e-15
1.00003148131e-15
1.00000422871e-15
1e-15
1e-15
1e-15
1e-15
1e-15
1e-15
1e-15
1e-15
1e-15
1.00036412748e-15
1.0006684962e-15
1.00073748923e-15
1.00076780661e-15
1.00078953414e-15
1.00080965345e-15
1.00082473789e-15
1.00086673207e-15
1.00094110388e-15
1.00085238699e-15
1.00067587578e-15
1.00058093387e-15
1.00044029837e-15
1.00012763301e-15
1e-15
1e-15
1e-15
1e-15
1e-15
1e-15
1e-15
1e-15
1e-15
1e-15
1e-15
1e-15
1e-15
1e-15
1e-15
1e-15
1e-15
1e-15
1e-15
1e-15
1e-15
1e-15
1e-15
1e-15
1e-15
1e-15
1e-15
1e-15
1e-15
1e-15
1e-15
1e-15
1e-15
1e-15
1e-15
1e-15
1e-15
1e-15
1e-15
1e-15
1e-15
1.00004796183e-15
1.00027457991e-15
1.00070249398e-15
1.00138732907e-15
1.00210557847e-15
1.00270078884e-15
1.0032445747e-15
1.00368945113e-15
1.00407772781e-15
1.00441322494e-15
1.00467882623e-15
1.00488659086e-15
1.00503575058e-15
1.00513356185e-15
1.00517484743e-15
1.00516852631e-15
1.00502650721e-15
1.01183646428e-15
1.01167121506e-15
1.01193183697e-15
1.01167121506e-15
1.01194241524e-15
1.01167121506e-15
1.01195015205e-15
1.01167121506e-15
1.01108566647e-15
1.00283595079e-15
1.00249167273e-15
1.0023345468e-15
1.00222331443e-15
1.00217136303e-15
1.00220244283e-15
1.00231588461e-15
1.00254862286e-15
1.00293305873e-15
1.00346966105e-15
1.00423479216e-15
1.00533397015e-15
1.00663770308e-15
1.00816671012e-15
1.02881281219e-15
1.02783828274e-15
1.02897882889e-15
1.02783828274e-15
1.02866792978e-15
1.01315024201e-15
1.00337184217e-15
1.01298416007e-15
1e-15
1.01220663212e-15
1e-15
1.00025726412e-15
1.00026506423e-15
1.00028123365e-15
1.00032309213e-15
1.00037798288e-15
1.00046684635e-15
1.00057296171e-15
1.00137988902e-15
1.00283633185e-15
1.0039969321e-15
1.00490479595e-15
1.00542485156e-15
1.00562738427e-15
1.0054123115e-15
1.00486502022e-15
1.00399847191e-15
1.00304904822e-15
1.00212054391e-15
1.00118201194e-15
1.00043939248e-15
1.0002713397e-15
1.00016443036e-15
1.00006927218e-15
1.00001717125e-15
1e-15
1e-15
1e-15
1e-15
1e-15
1e-15
1e-15
1e-15
1e-15
1e-15
1.00018270328e-15
1.00043139533e-15
1.0004863135e-15
1.00051982502e-15
1.00054320732e-15
1.00056504739e-15
1.00058259405e-15
1.00061708648e-15
1.00065636297e-15
1.00059349126e-15
1.00027913494e-15
1e-15
1e-15
1e-15
1e-15
1e-15
1e-15
1e-15
1e-15
1e-15
1e-15
1e-15
1e-15
1e-15
1e-15
1e-15
1e-15
1e-15
1e-15
1e-15
1e-15
1e-15
1e-15
1e-15
1e-15
1e-15
1e-15
1e-15
1e-15
1e-15
1e-15
1e-15
1e-15
1e-15
1e-15
1e-15
1e-15
1e-15
1e-15
1e-15
1e-15
1e-15
1e-15
1e-15
1e-15
1.00006222186e-15
1.00031800735e-15
1.00077691668e-15
1.00152577803e-15
1.00228062728e-15
1.00293163021e-15
1.00352253281e-15
1.00408202056e-15
1.00452089432e-15
1.00486859648e-15
1.00516915501e-15
1.00541221139e-15
1.00558360229e-15
1.00569811369e-15
1.00575251088e-15
1.0057680554e-15
1.00981708044e-15
1.01167121506e-15
1.01190708167e-15
1.01167121506e-15
1.01192329507e-15
1.01167121506e-15
1.01193180509e-15
1.01167121506e-15
1.01194021953e-15
1.01167121506e-15
1.00361213566e-15
1.00291711687e-15
1.00272626392e-15
1.00258820636e-15
1.00251445365e-15
1.00254471917e-15
1.00267048369e-15
1.00293827169e-15
1.00336893622e-15
1.00396571211e-15
1.00482816981e-15
1.00599346792e-15
1.00733834461e-15
1.0089436005e-15
1.02783828274e-15
1.02891856821e-15
1.02783828274e-15
1.02889841048e-15
1.02783828274e-15
1.01380281506e-15
1.0031814328e-15
1.01310698787e-15
1e-15
1.01295776344e-15
1e-15
1.00026592533e-15
1.00026138888e-15
1.00026957164e-15
1.00030704349e-15
1.00035568196e-15
1.00043809086e-15
1.000541533e-15
1.00096132326e-15
1.00272323841e-15
1.00411106536e-15
1.00517914019e-15
1.0058402252e-15
1.00612689969e-15
1.00595577144e-15