/*--------------------------------*- C++ -*----------------------------------*\
| =========                 |                                                 |
| \\      /  F ield         | OpenFOAM: The Open Source CFD Toolbox           |
|  \\    /   O peration     | Version:  2206                                  |
|   \\  /    A nd           | Website:  www.openfoam.com                      |
|    \\/     M anipulation  |                                                 |
\*---------------------------------------------------------------------------*/
FoamFile
{
    version     2.0;
    format      ascii;
    arch        "LSB;label=64;scalar=64";
    class       volScalarField;
    location    "4.4/water";
    object      d.gas;
}
// * * * * * * * * * * * * * * * * * * * * * * * * * * * * * * * * * * * * * //

dimensions      [0 1 0 0 0 0 0];

internalField   nonuniform List<scalar> 
23300
(
0.00498800960525
0.00498800869827
0.00498800871229
0.00498800870541
0.00498800867556
0.00498800862033
0.00498800853268
0.00498800840643
0.00498800823276
0.00498800800501
0.00498800771464
0.00498800735591
0.00498800692201
0.0049880064093
0.00498800581377
0.00498800513472
0.00498800437144
0.00498800352632
0.00498800260176
0.00498800160277
0.00498800053404
0.00498799940215
0.00498799821291
0.00498799697326
0.00498799568887
0.00498799436593
0.00498799300899
0.00498799162277
0.00498799021019
0.00498798877433
0.00498798731653
0.00498798583848
0.0049879843404
0.0049879828232
0.00498798128661
0.00498797973139
0.00498797815738
0.00498797656566
0.00498797495656
0.0049879733318
0.00498797169236
0.00498797004067
0.00498796837853
0.00498796670925
0.00498796503519
0.00498796336002
0.00498796168656
0.0049879600189
0.00498795836019
0.00498795671481
0.00498795508608
0.00498795347848
0.00498795189533
0.00498795034109
0.00498794881894
0.00498794733318
0.00498794588673
0.00498794448363
0.00498794312643
0.00498794181881
0.00498794056286
0.0049879393618
0.00498793821714
0.00498793713152
0.00498793610569
0.00498793514155
0.00498793423888
0.0049879333985
0.00498793261887
0.00498793189936
0.00498793123655
0.00498793062781
0.00498793006732
0.00498792954994
0.00498792906735
0.004987928613
0.00498792818059
0.00498792777241
0.0049879273872
0.00498792701822
0.00498792665562
0.00498792629799
0.00498792594999
0.00498792561988
0.00498792531358
0.00498792503713
0.00498792479348
0.00498792458542
0.00498792441314
0.00498792427686
0.00498792417478
0.00498792410541
0.00498792406573
0.00498792405329
0.00498792406448
0.00498792409642
0.00498792414536
0.00498792420834
0.00498792428176
0.00498792436281
0.00498792444821
0.00498792453546
0.00498792462167
0.00498792470476
0.00498792478233
0.00498792485276
0.0049879249142
0.00498792496558
0.00498792500564
0.00498792503386
0.00498792504956
0.00498792505277
0.00498792504333
0.00498792502178
0.00498792498846
0.00498792494435
0.00498792489023
0.00498792482738
0.00498792475682
0.0049879246799
0.00498792459757
0.00498792451081
0.00498792441999
0.00498792432519
0.00498792422556
0.00498792411967
0.00498792400499
0.00498792387836
0.00498792373576
0.00498792357309
0.00498792338643
0.00498792317314
0.00498792293251
0.00498792266705
0.00498792238333
0.00498792209323
0.00498792181516
0.00498792157579
0.00498792140971
0.00498792028726
0.00498814191846
0.00498814098919
0.0049881409201
0.00498814081695
0.00498814067544
0.00498814049305
0.00498814026522
0.00498813998805
0.00498813965625
0.0049881392661
0.0049881388132
0.0049881382952
0.00498813770956
0.00498813705602
0.00498813633444
0.00498813554686
0.00498813469552
0.00498813378453
0.004988132818
0.00498813180143
0.00498813073994
0.00498812963951
0.00498812850527
0.00498812734267
0.00498812615596
0.00498812494928
0.00498812372536
0.00498812248666
0.00498812123422
0.00498811996891
0.0049881186904
0.00498811739847
0.00498811609205
0.00498811477056
0.00498811343289
0.00498811207873
0.00498811070748
0.00498810931951
0.004988107915
0.00498810649516
0.00498810506101
0.00498810361455
0.00498810215759
0.00498810069292
0.00498809922292
0.00498809775074
0.00498809627906
0.00498809481132
0.00498809335037
0.00498809189972
0.00498809046223
0.00498808904134
0.00498808763971
0.00498808626057
0.00498808490629
0.00498808357975
0.00498808228288
0.00498808101812
0.0049880797869
0.00498807859113
0.00498807743165
0.0049880763098
0.00498807522582
0.00498807418048
0.00498807317337
0.00498807220473
0.0049880712736
0.00498807037969
0.0049880695216
0.00498806869873
0.00498806790945
0.00498806715335
0.00498806642938
0.00498806573865
0.00498806508311
0.00498806446915
0.00498806390697
0.00498806341184
0.00498806298971
0.00498806263483
0.00498806233236
0.00498806206645
0.00498806182585
0.00498806160488
0.00498806139972
0.00498806120891
0.00498806103092
0.00498806086534
0.00498806071118
0.00498806056809
0.00498806043514
0.00498806031186
0.00498806019723
0.00498806009066
0.00498805999101
0.00498805989754
0.00498805980905
0.00498805972465
0.00498805964304
0.00498805956324
0.0049880594839
0.00498805940399
0.00498805932217
0.00498805923745
0.00498805914857
0.00498805905465
0.00498805895464
0.00498805884786
0.00498805873357
0.00498805861149
0.00498805848125
0.00498805834287
0.00498805819636
0.00498805804217
0.00498805788076
0.00498805771307
0.00498805754003
0.00498805736303
0.00498805718347
0.00498805700308
0.00498805682353
0.00498805664666
0.0049880564741
0.00498805630731
0.00498805614726
0.00498805599439
0.00498805584828
0.00498805570765
0.00498805557019
0.00498805543278
0.00498805529162
0.00498805514286
0.00498805498319
0.00498805481077
0.0049880546262
0.00498805443373
0.00498805424258
0.00498805406921
0.0049880539432
0.00498805279967
0.00498827596405
0.00498827505913
0.00498827498003
0.00498827486455
0.00498827470835
0.0049882745082
0.00498827425942
0.00498827395781
0.00498827359815
0.00498827317648
0.00498827268844
0.00498827213158
0.00498827150357
0.00498827080425
0.00498827003389
0.00498826919492
0.00498826829023
0.00498826732455
0.00498826630283
0.00498826523134
0.00498826411616
0.00498826296406
0.00498826178109
0.00498826057346
0.00498825934616
0.00498825810395
0.00498825685009
0.0049882555874
0.00498825431723
0.00498825304053
0.00498825175703
0.00498825046636
0.00498824916728
0.00498824785885
0.00498824653962
0.00498824520877
0.00498824386522
0.00498824250874
0.00498824113898
0.00498823975648
0.00498823836167
0.00498823695586
0.00498823554029
0.00498823411719
0.0049882326884
0.00498823125634
0.00498822982306
0.00498822839125
0.00498822696311
0.00498822554145
0.00498822412847
0.00498822272691
0.00498822133887
0.0049882199669
0.00498821861285
0.00498821727904
0.00498821596701
0.00498821467874
0.00498821341542
0.00498821217872
0.00498821096946
0.004988209789
0.00498820863786
0.00498820751716
0.00498820642722
0.00498820536905
0.00498820434291
0.00498820334992
0.00498820239054
0.00498820146627
0.00498820057816
0.0049881997287
0.00498819892027
0.00498819815736
0.00498819744518
0.00498819679191
0.0049881962068
0.00498819570028
0.00498819527508
0.00498819492529
0.00498819464095
0.00498819441116
0.00498819422375
0.00498819406988
0.00498819394214
0.00498819383537
0.0049881937449
0.00498819366746
0.00498819359983
0.00498819353979
0.00498819348496
0.00498819343376
0.00498819338441
0.00498819333575
0.00498819328643
0.00498819323558
0.00498819318214
0.00498819312544
0.00498819306457
0.00498819299901
0.00498819292796
0.00498819285096
0.00498819276733
0.00498819267668
0.00498819257844
0.00498819247234
0.00498819235797
0.00498819223526
0.00498819210405
0.00498819196459
0.00498819181707
0.00498819166199
0.00498819149987
0.00498819133161
0.00498819115815
0.00498819098083
0.00498819080104
0.00498819062054
0.00498819044112
0.00498819026483
0.00498819009365
0.00498818992958
0.00498818977435
0.00498818962936
0.00498818949534
0.00498818937232
0.00498818925921
0.00498818915387
0.00498818905288
0.00498818895181
0.00498818884536
0.00498818872803
0.00498818859474
0.00498818844183
0.00498818826811
0.00498818807608
0.00498818787339
0.00498818767539
0.00498818750908
0.00498818629407
0.00498840986919
0.00498840897823
0.00498840890272
0.00498840878582
0.00498840862504
0.00498840841727
0.0049884081578
0.00498840784245
0.004988407466
0.00498840702451
0.00498840651376
0.00498840593135
0.00498840527509
0.00498840454498
0.00498840374155
0.00498840286747
0.00498840192599
0.00498840092225
0.00498839986165
0.00498839875098
0.00498839759683
0.00498839640656
0.00498839518676
0.0049883939442
0.00498839268439
0.00498839141255
0.00498839013237
0.00498838884699
0.00498838755803
0.00498838626664
0.00498838497263
0.00498838367566
0.00498838237443
0.00498838106787
0.00498837975434
0.00498837843274
0.00498837710171
0.00498837576065
0.00498837440879
0.00498837304627
0.00498837167304
0.00498837028994
0.0049883688977
0.00498836749813
0.00498836609272
0.00498836468339
0.00498836327165
0.0049883618597
0.00498836044924
0.00498835904261
0.00498835764156
0.00498835624841
0.00498835486487
0.00498835349317
0.00498835213487
0.00498835079206
0.0049883494661
0.00498834815891
0.00498834687168
0.00498834560614
0.00498834436333
0.00498834314489
0.00498834195177
0.00498834078562
0.00498833964744
0.00498833853904
0.00498833746162
0.00498833641734
0.00498833540786
0.00498833443593
0.00498833350393
0.00498833261559
0.00498833177448
0.00498833098581
0.00498833025492
0.00498832958888
0.00498832899433
0.00498832847767
0.00498832804113
0.00498832767868
0.00498832738257
0.00498832714745
0.00498832696353
0.00498832682253
0.00498832671648
0.00498832663905
0.00498832658415
0.00498832654698
0.00498832652286
0.00498832650816
0.0049883264993
0.00498832649358
0.00498832648829
0.00498832648153
0.00498832647131
0.00498832645631
0.00498832643513
0.00498832640692
0.00498832637069
0.00498832632592
0.00498832627195
0.00498832620848
0.00498832613509
0.00498832605168
0.00498832595804
0.00498832585425
0.00498832574029
0.00498832561648
0.00498832548306
0.0049883253407
0.00498832518997
0.00498832503176
0.00498832486696
0.00498832469679
0.00498832452255
0.00498832434585
0.00498832416836
0.00498832399206
0.00498832381893
0.00498832365112
0.00498832349064
0.0049883233395
0.00498832319925
0.0049883230711
0.00498832295543
0.00498832285183
0.00498832275871
0.00498832267333
0.00498832259164
0.00498832250852
0.00498832241795
0.00498832231365
0.00498832218971
0.00498832204151
0.00498832186678
0.00498832166665
0.00498832144682
0.00498832121943
0.00498832100502
0.00498831975117
0.00498854381846
0.00498854292797
0.00498854285524
0.00498854273825
0.00498854257481
0.00498854236203
0.00498854209523
0.00498854177011
0.00498854138155
0.00498854092563
0.00498854039818
0.00498853979687
0.00498853911963
0.00498853836655
0.0049885375383
0.00498853663771
0.00498853566822
0.00498853463518
0.00498853354426
0.00498853240254
0.00498853121695
0.00498852999518
0.00498852874419
0.00498852747112
0.00498852618184
0.00498852488189
0.00498852357528
0.00498852226545
0.00498852095421
0.00498851964294
0.00498851833157
0.00498851701987
0.00498851570657
0.00498851439061
0.00498851307026
0.00498851174436
0.00498851041136
0.00498850907049
0.00498850772074
0.00498850636198
0.00498850499386
0.00498850361691
0.0049885022314
0.00498850083894
0.00498849944084
0.00498849803866
0.00498849663355
0.00498849522738
0.00498849382151
0.00498849241796
0.00498849101819
0.00498848962428
0.00498848823772
0.00498848686055
0.00498848549421
0.00498848414072
0.00498848280142
0.00498848147827
0.00498848017256
0.00498847888621
0.00498847762049
0.00498847637736
0.00498847515816
0.00498847396498
0.00498847279932
0.00498847166355
0.00498847055949
0.0049884694899
0.00498846845707
0.00498846746434
0.00498846651462
0.00498846561201
0.00498846476025
0.00498846396437
0.00498846322902
0.00498846255995
0.00498846196181
0.0049884614389
0.00498846099256
0.0049884606195
0.00498846031161
0.00498846006418
0.00498845987196
0.00498845972772
0.00498845962405
0.00498845955459
0.00498845951289
0.00498845949359
0.00498845949129
0.00498845950162
0.0049884595202
0.0049884595436
0.0049884595684
0.00498845959204
0.00498845961196
0.00498845962635
0.00498845963337
0.00498845963185
0.00498845962054
0.00498845959876
0.00498845956573
0.00498845952113
0.00498845946458
0.00498845939606
0.00498845931547
0.00498845922308
0.00498845911908
0.00498845900397
0.00498845887824
0.00498845874284
0.0049884585986
0.00498845844666
0.00498845828813
0.00498845812448
0.00498845795717
0.00498845778802
0.00498845761883
0.00498845745169
0.00498845728861
0.00498845713177
0.00498845698311
0.00498845684452
0.00498845671737
0.00498845660262
0.00498845650036
0.00498845640986
0.00498845632917
0.00498845625519
0.00498845618351
0.00498845610863
0.00498845602416
0.00498845592333
0.00498845579964
0.00498845564769
0.00498845546411
0.00498845524859
0.00498845500476
0.0049884547414
0.00498845447347
0.00498845321967
0.0049886778803
0.0049886769861
0.00498867691496
0.00498867679746
0.0049886766315
0.00498867641423
0.00498867614102
0.00498867580762
0.00498867540888
0.00498867494089
0.00498867439954
0.00498867378252
0.0049886730878
0.00498867231551
0.00498867146638
0.00498867054332
0.00498866954984
0.00498866849142
0.00498866737387
0.00498866620444
0.00498866499025
0.00498866373922
0.00498866245853
0.00498866115558
0.00498865983646
0.00498865850698
0.00498865717137
0.00498865583329
0.00498865449476
0.00498865315735
0.00498865182116
0.00498865048612
0.00498864915106
0.00498864781502
0.00498864647631
0.0049886451338
0.00498864378589
0.00498864243179
0.00498864107036
0.00498863970135
0.00498863832427
0.00498863693948
0.00498863554683
0.00498863414785
0.0049886327438
0.00498863133607
0.00498862992558
0.00498862851396
0.00498862710235
0.00498862569259
0.00498862428593
0.00498862288433
0.00498862148912
0.00498862010228
0.00498861872519
0.00498861735986
0.00498861600767
0.00498861467066
0.00498861335023
0.00498861204849
0.0049886107669
0.00498860950768
0.00498860827244
0.00498860706359
0.00498860588297
0.00498860473328
0.00498860361668
0.00498860253624
0.00498860149453
0.00498860049511
0.00498859954101
0.00498859863633
0.00498859778462
0.00498859699049
0.00498859625786
0.00498859559138
0.00498859499441
0.00498859446999
0.00498859401858
0.00498859363942
0.00498859332577
0.0049885930707
0.00498859287051
0.00498859272086
0.00498859261492
0.00498859254671
0.00498859250991
0.00498859249907
0.00498859250858
0.00498859253374
0.0049885925698
0.00498859261289
0.00498859265918
0.00498859270562
0.00498859274926
0.00498859278786
0.00498859281923
0.00498859284186
0.00498859285424
0.00498859285543
0.0049885928445
0.00498859282099
0.00498859278443
0.00498859273478
0.00498859267194
0.00498859259621
0.00498859250783
0.00498859240741
0.00498859229554
0.00498859217333
0.00498859204176
0.00498859190211
0.00498859175562
0.00498859160385
0.0049885914484
0.00498859129114
0.00498859113392
0.00498859097886
0.00498859082794
0.00498859068328
0.00498859054673
0.00498859041999
0.00498859030428
0.00498859020032
0.00498859010798
0.00498859002626
0.00498858995298
0.00498858988483
0.00498858981718
0.00498858974433
0.00498858965962
0.00498858955597
0.00498858942636
0.0049885892647
0.00498858906664
0.00498858883062
0.00498858855872
0.00498858825747
0.00498858793887
0.00498858672087
0.00498881208286
0.00498881118419
0.00498881111418
0.00498881099599
0.00498881082753
0.00498881060607
0.00498881032702
0.00498880998608
0.00498880957818
0.00498880909938
0.00498880854555
0.00498880791435
0.00498880720377
0.0049888064139
0.00498880554549
0.00498880460143
0.00498880358529
0.00498880250259
0.0049888013592
0.0049888001625
0.0049887989197
0.00498879763889
0.0049887963274
0.00498879499278
0.00498879364131
0.00498879227899
0.00498879091021
0.00498878953884
0.0049887881671
0.00498878679676
0.0049887854281
0.00498878406127
0.00498878269526
0.00498878132931
0.00498877996184
0.00498877859187
0.00498877721786
0.00498877583906
0.00498877445436
0.0049887730635
0.00498877166592
0.00498877026192
0.00498876885127
0.00498876743517
0.00498876601476
0.00498876459167
0.00498876316663
0.00498876174115
0.0049887603162
0.00498875889349
0.00498875747415
0.00498875606005
0.00498875465243
0.00498875325324
0.00498875186383
0.00498875048622
0.00498874912183
0.00498874777277
0.00498874644056
0.00498874512741
0.00498874383496
0.0049887425656
0.00498874132112
0.00498874010413
0.00498873891666
0.00498873776161
0.00498873664128
0.00498873555889
0.0049887345171
0.00498873351946
0.00498873256896
0.00498873166952
0.00498873082439
0.00498873003767
0.00498872931265
0.00498872865309
0.00498872806147
0.00498872753999
0.00498872708877
0.00498872670695
0.00498872639158
0.00498872613528
0.00498872593136
0.00498872577787
0.00498872566978
0.0049887256015
0.004988725567
0.00498872556098
0.00498872557786
0.00498872561287
0.00498872566112
0.00498872571856
0.00498872578108
0.0049887258454
0.00498872590827
0.00498872596717
0.00498872601962
0.00498872606384
0.00498872609807
0.00498872612117
0.00498872613198
0.00498872612992
0.00498872611435
0.00498872608517
0.00498872604218
0.00498872598566
0.00498872591582
0.00498872583329
0.00498872573865
0.00498872563308
0.00498872551766
0.00498872539371
0.00498872526251
0.00498872512567
0.00498872498479
0.00498872484176
0.00498872469841
0.00498872455681
0.00498872441888
0.00498872428663
0.00498872416176
0.00498872404583
0.00498872393986
0.00498872384438
0.00498872375906
0.00498872368272
0.004988723613
0.00498872354646
0.00498872347834
0.00498872340282
0.00498872331311
0.00498872320188
0.00498872306177
0.00498872288613
0.00498872266993
0.00498872241079
0.00498872210996
0.0049887217732
0.00498872141193
0.00498872025557
0.00498894644807
0.00498894554633
0.00498894547694
0.00498894535772
0.00498894518661
0.00498894496083
0.00498894467587
0.00498894432749
0.00498894391055
0.00498894342109
0.00498894285497
0.00498894220977
0.00498894148341
0.00498894067595
0.00498893978805
0.0049889388226
0.00498893778314
0.00498893667522
0.00498893550473
0.00498893427912
0.00498893300567
0.00498893169258
0.00498893034729
0.00498892897748
0.00498892758956
0.00498892618969
0.00498892478242
0.00498892337184
0.00498892196033
0.00498892054992
0.00498891914112
0.00498891773432
0.00498891632876
0.00498891492393
0.00498891351846
0.00498891211156
0.00498891070188
0.00498890928879
0.00498890787128
0.00498890644917
0.00498890502189
0.00498890358976
0.00498890215268
0.00498890071134
0.00498889926675
0.00498889782104
0.00498889637481
0.00498889492946
0.00498889348584
0.00498889204558
0.00498889060972
0.00498888918004
0.00498888775774
0.00498888634473
0.00498888494233
0.00498888355258
0.00498888217691
0.0049888808175
0.0049888794759
0.00498887815444
0.00498887685485
0.0049888755796
0.00498887433062
0.00498887311061
0.00498887192172
0.0049888707669
0.00498886964852
0.00498886856983
0.00498886753344
0.00498886654284
0.00498886560086
0.00498886471115
0.00498886387666
0.00498886310098
0.00498886238687
0.00498886173739
0.00498886115437
0.00498886063944
0.00498886019242
0.00498885981254
0.00498885949706
0.00498885924287
0.00498885904149
0.00498885888759
0.00498885877919
0.00498885871172
0.00498885867953
0.0049888586775
0.00498885870022
0.00498885874296
0.00498885880085
0.00498885886975
0.00498885894548
0.00498885902459
0.00498885910366
0.00498885917999
0.0049888592509
0.0049888593144
0.00498885936854
0.00498885941198
0.0049888594434
0.00498885946204
0.00498885946715
0.00498885945848
0.00498885943575
0.00498885939916
0.00498885934886
0.00498885928542
0.00498885920936
0.00498885912185
0.00498885902406
0.00498885891728
0.00498885880276
0.0049888586821
0.00498885855687
0.0049888584289
0.00498885829996
0.00498885817203
0.00498885804693
0.00498885792653
0.00498885781239
0.00498885770589
0.00498885760786
0.00498885751868
0.00498885743781
0.00498885736395
0.00498885729463
0.0049888572263
0.00498885715416
0.00498885707236
0.00498885697403
0.00498885685174
0.00498885669794
0.0049888565057
0.00498885626962
0.00498885598698
0.004988855659
0.00498885529182
0.00498885489813
0.00498885381871
0.00498908099443
0.00498908009246
0.0049890800232
0.00498907990246
0.0049890797281
0.00498907949746
0.00498907920606
0.00498907884958
0.00498907842296
0.00498907792215
0.00498907734293
0.00498907668279
0.00498907593955
0.00498907511315
0.00498907420419
0.00498907321549
0.00498907215053
0.00498907101485
0.00498906981437
0.00498906855659
0.00498906724883
0.00498906589939
0.00498906451578
0.00498906310584
0.00498906167609
0.00498906023286
0.00498905878087
0.00498905732442
0.00498905586613
0.00498905440829
0.00498905295168
0.00498905149703
0.00498905004386
0.00498904859196
0.00498904714025
0.00498904568822
0.00498904423473
0.00498904277937
0.00498904132127
0.00498903986039
0.00498903839623
0.00498903692919
0.00498903545918
0.00498903398641
0.00498903251203
0.00498903103853
0.00498902956644
0.0049890280971
0.00498902663128
0.00498902517051
0.00498902371576
0.00498902226875
0.0049890208306
0.00498901940318
0.0049890179878
0.00498901658645
0.0049890152006
0.00498901383241
0.00498901248349
0.00498901115618
0.00498900985226
0.00498900857428
0.00498900732419
0.00498900610474
0.00498900491811
0.00498900376726
0.00498900265457
0.00498900158321
0.00498900055572
0.00498899957544
0.00498899864502
0.00498899776783
0.0049889969465
0.00498899618419
0.00498899548316
0.00498899484598
0.00498899427393
0.00498899376823
0.0049889933285
0.00498899295393
0.00498899264206
0.00498899239002
0.00498899219361
0.00498899204513
0.00498899193916
0.00498899187425
0.00498899184533
0.0049889918477
0.00498899187607
0.00498899192588
0.00498899199229
0.0049889920712
0.00498899215838
0.00498899225034
0.00498899234354
0.00498899243518
0.00498899252244
0.00498899260319
0.00498899267532
0.00498899273735
0.00498899278782
0.00498899282582
0.00498899285048
0.00498899286142
0.00498899285827
0.00498899284113
0.00498899281005
0.00498899276555
0.00498899270804
0.00498899263861
0.00498899255851
0.00498899246897
0.00498899237119
0.0049889922667
0.004988992157
0.00498899204383
0.00498899192889
0.00498899181402
0.00498899170091
0.00498899159128
0.00498899148653
0.00498899138787
0.00498899129597
0.00498899121102
0.00498899113236
0.00498899105856
0.00498899098706
0.0049889909143
0.00498899083547
0.00498899074475
0.00498899063532
0.00498899049978
0.00498899033055
0.00498899012069
0.00498898986474
0.00498898956015
0.00498898920863
0.00498898881756
0.00498898840209
0.00498898740617
0.00498921573903
0.00498921484078
0.00498921477104
0.00498921464801
0.00498921446963
0.00498921423319
0.00498921393425
0.00498921356857
0.004989213131
0.00498921261739
0.00498921202346
0.00498921134655
0.00498921058435
0.00498920973665
0.00498920880391
0.00498920778887
0.00498920669496
0.00498920552768
0.00498920429296
0.00498920299834
0.00498920165121
0.00498920025998
0.00498919883226
0.00498919737604
0.00498919589797
0.00498919440461
0.00498919290086
0.00498919139129
0.0049891898788
0.00498918836599
0.00498918685398
0.00498918534384
0.00498918383546
0.00498918232899
0.00498918082369
0.00498917931935
0.00498917781511
0.00498917631082
0.00498917480578
0.00498917330012
0.00498917179347
0.00498917028631
0.00498916877865
0.00498916727014
0.004989165762
0.00498916425707
0.00498916275595
0.00498916125992
0.00498915976967
0.00498915828664
0.00498915681173
0.00498915534655
0.00498915389217
0.0049891524504
0.00498915102247
0.00498914961037
0.0049891482155
0.00498914684002
0.00498914548554
0.00498914415439
0.00498914284837
0.00498914157001
0.00498914032128
0.00498913910493
0.00498913792312
0.00498913677877
0.00498913567421
0.00498913461252
0.00498913359613
0.0049891326282
0.0049891317112
0.00498913084821
0.00498913004155
0.00498912929403
0.00498912860749
0.00498912798404
0.00498912742462
0.00498912693007
0.00498912649985
0.0049891261331
0.00498912582749
0.00498912558043
0.00498912538803
0.00498912524627
0.00498912514778
0.00498912508768
0.00498912506349
0.00498912507096
0.00498912510534
0.00498912516213
0.00498912523664
0.00498912532478
0.00498912542235
0.00498912552584
0.00498912563167
0.00498912573695
0.0049891258388
0.00498912593499
0.00498912602329
0.00498912610211
0.00498912616988
0.00498912622557
0.0049891262682
0.00498912629729
0.00498912631237
0.00498912631344
0.00498912630047
0.00498912627389
0.00498912623399
0.00498912618176
0.00498912611849
0.00498912604534
0.00498912596345
0.00498912587427
0.0049891257792
0.00498912567988
0.00498912557788
0.00498912547491
0.00498912537253
0.00498912527229
0.00498912517543
0.004989125083
0.00498912499549
0.00498912491296
0.00498912483462
0.00498912475895
0.00498912468336
0.00498912460429
0.004989124517
0.00498912441577
0.0049891242939
0.00498912414417
0.00498912395917
0.00498912373211
0.00498912345782
0.00498912313419
0.00498912276385
0.00498912235591
0.00498912192848
0.00498912101658
0.00498935069866
0.00498934980893
0.00498934973805
0.00498934961189
0.00498934942833
0.00498934918482
0.00498934887695
0.00498934850042
0.00498934805007
0.00498934752169
0.0049893469108
0.00498934621457
0.00498934543051
0.00498934455824
0.00498934359805
0.00498934255256
0.0049893414251
0.00498934022119
0.00498933894675
0.00498933760938
0.00498933621658
0.00498933477689
0.00498933329807
0.00498933178831
0.00498933025445
0.00498932870332
0.00498932714007
0.0049893255696
0.00498932399512
0.00498932241964
0.00498932084462
0.0049893192716
0.0049893177008
0.00498931613283
0.00498931456727
0.00498931300431
0.00498931144334
0.0049893098845
0.0049893083273
0.00498930677205
0.00498930521847
0.00498930366716
0.00498930211811
0.00498930057146
0.0049892990274
0.00498929748835
0.00498929595606
0.00498929443166
0.0049892929157
0.00498929140955
0.00498928991396
0.00498928843047
0.00498928696003
0.00498928550437
0.00498928406464
0.00498928264275
0.00498928124006
0.00498927985869
0.00498927850018
0.00498927716686
0.00498927586047
0.00498927458353
0.00498927333798
0.00498927212653
0.00498927095129
0.00498926981512
0.00498926872027
0.0049892676697
0.00498926666573
0.00498926571134
0.00498926480878
0.00498926396091
0.00498926316974
0.00498926243776
0.00498926176647
0.00498926115762
0.00498926061182
0.00498926012967
0.00498925971044
0.00498925935322
0.00498925905576
0.00498925881564
0.0049892586292
0.00498925849281
0.00498925840168
0.00498925835033
0.00498925833293
0.00498925834658
0.00498925838724
0.00498925845109
0.00498925853349
0.00498925863036
0.00498925873755
0.00498925885156
0.00498925896879
0.00498925908633
0.00498925920123
0.00498925931119
0.00498925941393
0.00498925950775
0.004989259591
0.00498925966258
0.00498925972139
0.00498925976688
0.00498925979847
0.0049892598161
0.00498925981965
0.00498925980945
0.00498925978578
0.00498925974937
0.00498925970145
0.00498925964327
0.00498925957589
0.00498925950064
0.00498925941881
0.00498925933195
0.00498925924149
0.004989259149
0.00498925905588
0.00498925896354
0.00498925887306
0.00498925878533
0.0049892587007
0.00498925861908
0.00498925853961
0.0049892584607
0.00498925837976
0.00498925829328
0.00498925819662
0.00498925808424
0.00498925794968
0.00498925778597
0.004989257586
0.00498925734336
0.00498925705333
0.00498925671445
0.00498925633049
0.00498925591244
0.00498925548149
0.00498925465057
0.0049894858907
0.00498948501504
0.00498948494226
0.00498948481184
0.00498948462185
0.00498948436969
0.00498948405107
0.00498948366172
0.00498948319639
0.0049894826507
0.00498948202004
0.00498948130133
0.00498948049184
0.00498947959094
0.00498947859874
0.00498947751772
0.00498947635112
0.00498947510444
0.00498947378362
0.00498947239643
0.00498947095046
0.00498946945447
0.00498946791645
0.00498946634485
0.00498946474679
0.00498946312944
0.00498946149827
0.00498945985859
0.004989458214
0.00498945656795
0.00498945492234
0.00498945327915
0.00498945163906
0.00498945000309
0.00498944837121
0.00498944674398
0.0049894451211
0.004989443503
0.00498944188936
0.00498944028069
0.00498943867682
0.00498943707841
0.00498943548544
0.00498943389865
0.00498943231693
0.00498943074236
0.00498942917779
0.00498942762421
0.00498942608208
0.00498942455261
0.00498942303643
0.00498942153496
0.00498942004902
0.00498941858022
0.00498941712961
0.00498941569901
0.00498941428969
0.00498941290369
0.00498941154249
0.00498941020835
0.00498940890296
0.0049894076288
0.00498940638773
0.00498940518242
0.0049894040149
0.00498940288796
0.00498940180375
0.00498940076512
0.00498939977424
0.00498939883392
0.00498939794623
0.00498939711379
0.00498939633836
0.00498939562213
0.00498939496632
0.00498939437239
0.00498939384068
0.00498939337155
0.00498939296413
0.00498939261747
0.00498939232933
0.0049893920974
0.00498939191821
0.00498939178833
0.00498939170343
0.00498939165906
0.00498939165096
0.00498939167255
0.0049893917199
0.0049893917911
0.00498939188111
0.00498939198628
0.00498939210238
0.004989392226
0.00498939235353
0.00498939248204
0.00498939260856
0.00498939273075
0.00498939284626
0.00498939295335
0.00498939305029
0.00498939313591
0.00498939320905
0.00498939326907
0.00498939331534
0.0049893933477
0.00498939336597
0.00498939337042
0.00498939336126
0.00498939333896
0.00498939330466
0.00498939325977
0.00498939320523
0.00498939314228
0.00498939307211
0.00498939299613
0.00498939291564
0.00498939283211
0.00498939274677
0.00498939266089
0.00498939257539
0.00498939249103
0.00498939240802
0.00498939232618
0.00498939224456
0.00498939216157
0.00498939207462
0.00498939198031
0.00498939187415
0.00498939175084
0.00498939160419
0.0049893914276
0.00498939121437
0.00498939095857
0.00498939065605
0.00498939030614
0.00498938991374
0.00498938949174
0.00498938906415
0.0049893883094
0.00498962133361
0.00498962047817
0.00498962040265
0.00498962026679
0.00498962006874
0.00498961980611
0.0049896194747
0.00498961907015
0.00498961858722
0.00498961802134
0.00498961736762
0.00498961662272
0.00498961578358
0.0049896148493
0.00498961381973
0.00498961269719
0.00498961148482
0.00498961018816
0.00498960881321
0.00498960736793
0.00498960586012
0.00498960429887
0.00498960269243
0.00498960104967
0.00498959937807
0.00498959768523
0.00498959597706
0.00498959425934
0.00498959253613
0.00498959081141
0.00498958908753
0.00498958736699
0.00498958565091
0.00498958394079
0.00498958223697
0.00498958054039
0.00498957885104
0.00498957716963
0.00498957549603
0.00498957383092
0.00498957217421