/*--------------------------------*- C++ -*----------------------------------*\
| =========                 |                                                 |
| \\      /  F ield         | OpenFOAM: The Open Source CFD Toolbox           |
|  \\    /   O peration     | Version:  2206                                  |
|   \\  /    A nd           | Website:  www.openfoam.com                      |
|    \\/     M anipulation  |                                                 |
\*---------------------------------------------------------------------------*/
FoamFile
{
    version     2.0;
    format      ascii;
    arch        "LSB;label=64;scalar=64";
    class       volScalarField;
    location    "4.4/water";
    object      epsilonm;
}
// * * * * * * * * * * * * * * * * * * * * * * * * * * * * * * * * * * * * * //

dimensions      [0 2 -3 0 0 0 0];

internalField   nonuniform List<scalar> 
23300
(
0.00067799372815
0.000690003777435
0.000704775906175
0.000723714660219
0.000746833581008
0.000774231452968
0.000806120610883
0.000842800726885
0.000884632277076
0.000932016383006
0.000985372701685
0.00104512143291
0.00111165827156
0.0011853354134
0.00126642966341
0.00135512409027
0.00145147075587
0.0015553770017
0.00166657085736
0.0017845988689
0.00190880522357
0.00203834901468
0.002172205815
0.0023092076201
0.00244806674915
0.00258743183031
0.00272592230924
0.00286218491276
0.00299492122248
0.00312292930188
0.00324511231678
0.00336050026121
0.00346823989963
0.00356760292063
0.00365796566826
0.00373881366402
0.00380971874952
0.00387034612381
0.0039204311159
0.00395978909693
0.00398828905464
0.00400586101019
0.00401245576144
0.00400822395206
0.0039934153842
0.00396830572031
0.00393319085974
0.00388842171798
0.00383438052106
0.00377150942782
0.00370028109333
0.00362122667813
0.00353490415588
0.00344192651956
0.00334292886449
0.00323859619711
0.00312962967807
0.00301677308055
0.0029007784486
0.00278243022868
0.00266251067422
0.00254182096707
0.00242114691686
0.00230127690604
0.00218296911114
0.00206696703562
0.00195397056007
0.0018446515739
0.00173963301158
0.00163951004522
0.00154484481813
0.00145620446776
0.00137418785698
0.00129950547023
0.00123307552169
0.0011762023669
0.00113081779274
0.00109977627988
0.00108626599363
0.00108867629855
0.00110253614637
0.00112483905078
0.0011537584798
0.00118812230575
0.00122709824982
0.00127003210128
0.0013163511927
0.00136551750464
0.00141699407155
0.001470233882
0.00152466891588
0.00157971322504
0.00163476185775
0.001689200053
0.00174240638976
0.00179376413082
0.00184266551084
0.00188852305297
0.00193077320127
0.00196888640719
0.00200236915168
0.00203077226089
0.00205369097283
0.00207077136262
0.00208170848438
0.00208625062527
0.00208419482816
0.00207538676977
0.0020597085811
0.00203712728404
0.00200769892957
0.00197153024269
0.00192878079405
0.00187966921725
0.00182447376566
0.00176353853055
0.00169727532178
0.00162617093825
0.00155079034348
0.00147178383774
0.00138988878707
0.00130593200282
0.00122082314236
0.00113554365633
0.00105112266907
0.000968605066905
0.000889007157191
0.000813268841578
0.000742203162627
0.000676454773961
0.00061646968175
0.000562484300135
0.00051453166175
0.000472465883097
0.000435999344995
0.000404753180011
0.000378324510782
0.000356391461971
0.000338907896436
0.000326505024905
0.000782211406745
0.000789025808953
0.000800887947037
0.000817429656733
0.000838492637229
0.000864066750579
0.000894248865819
0.000929211823328
0.000969178367987
0.00101439875001
0.00106512893625
0.00112160966792
0.00118404405771
0.00125257535671
0.00132726291557
0.00140805981231
0.00149479015693
0.00158713158436
0.00168460094043
0.00178654985668
0.00189216784811
0.00200049910332
0.00211046900313
0.00222092395006
0.00233067763668
0.0024385638242
0.00254348623317
0.00264446394967
0.00274066347595
0.00283141811543
0.00291622986867
0.00299475924177
0.00306680241641
0.00313226418871
0.00319112705242
0.00324342423793
0.00328921485275
0.00332856668998
0.00336154211622
0.00338819120759
0.00340854600648
0.00342262028919
0.00343040913735
0.00343193070588
0.00342722963856
0.00341633818853
0.00339928458406
0.0033761043154
0.00334684598853
0.00331157986833
0.00327040125108
0.00322343744296
0.00317084969641
0.00311283918497
0.00304964772428
0.00298156262217
0.00290891593341
0.00283208774512
0.00275150353609
0.0026676353776
0.00258099701014
0.00249214259625
0.00240165941011
0.00231016422547
0.00221829418376
0.00212670181005
0.00203604585911
0.00194698755642
0.00186018521457
0.00177629675408
0.00169598475186
0.0016199335934
0.00154887474734
0.00148362797375
0.00142514992854
0.00137458039707
0.00133323603535
0.00130244738972
0.00128302950982
0.00127440508899
0.00127499793487
0.00128319676932
0.00129763861578
0.0013172156492
0.00134101584871
0.00136826424564
0.00139827664571
0.00143042830247
0.00146413281539
0.0014988303804
0.00153398120437
0.00156906396011
0.0016035761702
0.00163703702553
0.00166899027137
0.00169900807416
0.00172669395848
0.00175168597836
0.00177365846738
0.00179232370802
0.00180743201482
0.00181877171339
0.00182616759403
0.00182947940622
0.0018285989892
0.00182344757494
0.00181397183609
0.00180014023179
0.00178193890028
0.00175937870099
0.00173251024515
0.00170140205883
0.0016661402874
0.00162683046451
0.00158360023779
0.00153660435042
0.00148603086443
0.00143210967385
0.00137512203119
0.00131541136391
0.00125339328999
0.00118956385877
0.0011245029562
0.00105887108541
0.000993396762614
0.000928854068124
0.000866030519968
0.000805688481417
0.000748524180062
0.000695130075212
0.000645965166937
0.000601336760099
0.00056139410448
0.000526131929953
0.000495398481856
0.000468898900898
0.000446175797947
0.000426525663119
0.000408747645339
0.000390574474273
0.000884876082015
0.000889552411267
0.000899180188786
0.000913498089225
0.000932376036611
0.000955785745924
0.000983772509225
0.00101643234939
0.00105389111265
0.00109628521148
0.00114374205641
0.00119636109535
0.00125419391517
0.00131722514414
0.00138535303767
0.00145837238275
0.00153595909594
0.00161766006706
0.00170288792838
0.00179092472788
0.00188093371503
0.00197198245729
0.00206307464682
0.00215319157701
0.00224133769873
0.00232658858391
0.00240813352976
0.00248531050424
0.00255762665695
0.00262476503302
0.00268657481616
0.00274305030791
0.00279429975495
0.00284051156849
0.00288191944448
0.00291877273797
0.00295131127902
0.00297974842242
0.00300425916675
0.00302497555955
0.00304198533783
0.00305533598985
0.0030650404925
0.00307104463266
0.00307328001311
0.00307166126761
0.00306609176138
0.00305647141684
0.00304270275228
0.00302469816888
0.00300238519904
0.00297571300188
0.00294465688636
0.00290922409307
0.00286945759397
0.00282544102122
0.0027773014904
0.00272521329789
0.00266939931889
0.00261013296115
0.00254773763106
0.00248258646475
0.0024150994939
0.0023457409489
0.0022750141973
0.00220345706203
0.00213163549349
0.00206013848818
0.00198957281075
0.00192056055081
0.00185373850364
0.00178976207135
0.00172931204188
0.00167310441098
0.00162189675206
0.00157648156145
0.00153764509966
0.0015060628649
0.00148210371321
0.00146564293091
0.00145610143898
0.001452674126
0.00145450782266
0.00146077760737
0.00147071462457
0.00148361096844
0.00149881501452
0.00151572484364
0.00153378213552
0.00155246813966
0.00157130115262
0.00158983569789
0.00160766237184
0.00162440844648
0.00163973833864
0.00165335418461
0.00166499582281
0.00167444054869
0.00168150208228
0.0016860291996
0.00168790357194
0.00168703732932
0.00168336996587
0.00167686513747
0.00166750701009
0.00165529672333
0.00164024869128
0.00162238742982
0.00160174493508
0.00157835417979
0.00155225688958
0.00152349852447
0.00149212745843
0.00145819596622
0.00142176271784
0.00138289725362
0.00134168618582
0.00129824144677
0.00125271003077
0.00120528495809
0.00115621615376
0.00110582000945
0.00105448548248
0.00100267493644
0.000950917778099
0.000899796175987
0.000849923054833
0.000801914362591
0.000756358550791
0.000713787066754
0.000674649132933
0.000639293131131
0.000607954996955
0.000580752170159
0.000557679468693
0.000538600993344
0.000523228202585
0.000511060860101
0.000501139262899
0.000493042884892
0.000963354747385
0.000967875456365
0.000976955809005
0.000990547554057
0.00100860566009
0.00103111204433
0.00105807727586
0.001089533629
0.00112552327806
0.001166084974
0.00121123877121
0.00126097080585
0.00131521707775
0.00137384842365
0.00143665569507
0.00150333791899
0.00157349269505
0.00164661215463
0.001722083773
0.00179919943013
0.00187717133014
0.00195515726224
0.00203229205081
0.00210772572331
0.00218066286876
0.00225040180793
0.00231636674147
0.00237813159448
0.00243543018617
0.00248815434725
0.00253633825119
0.00258013426627
0.00261978141366
0.00265557318576
0.00268782569457
0.00271685153702
0.00274293823567
0.00276633441861
0.00278724069127
0.00280580708803
0.00282213340869
0.00283627426446
0.00284824530306
0.00285797035806
0.00286532948737
0.00287018565083
0.00287238933464
0.00287178471028
0.00286821440882
0.00286152559037
0.00285157450524
0.0028382322724
0.00282138913918
0.00280095991728
0.00277688788221
0.00274914973935
0.00271775896251
0.00268276999309
0.00264428065048
0.00260243512707
0.00255742500634
0.00250949057869
0.00245892003819
0.00240604877167
0.00235125654533
0.002294964798
0.0022376321613
0.00217975047258
0.00212183975397
0.0020644444092
0.0020081292476
0.0019534770853
0.00190108580856
0.00185156476351
0.00180552568192
0.00176356393872
0.0017262217041
0.00169392882159
0.00166692636682
0.0016452089685
0.0016285627294
0.00161655061862
0.00160863388806
0.00160422768233
0.00160273872878
0.00160358886651
0.00160622822252
0.00161014247177
0.00161485620158
0.00161993460491
0.0016249838443
0.00162965108676
0.00163362389711
0.00163662956488
0.00163843390579
0.00163883998928
0.00163768633803
0.00163484501272
0.00163021917451
0.00162374053548
0.0016153663523
0.0016050763833
0.00159286952161
0.00157876052838
0.00156277662383
0.00154495436813
0.00152533665323
0.00150397028875
0.00148090407041
0.00145617822417
0.00142982578168
0.00140187737462
0.00137236088253
0.00134130252364
0.00130872921809
0.00127467260149
0.00123917454439
0.00120229440189
0.00116411757581
0.00112476514168
0.00108440353919
0.00104325338031
0.00100159578751
0.000959774966811
0.000918195630863
0.000877314798397
0.000837628108397
0.000799652053452
0.000763904139644
0.000730883604063
0.000701054983365
0.000674836348426
0.000652593018911
0.000634637075983
0.000621233170996
0.0006126133614
0.000609008467474
0.000610695717677
0.000617645334762
0.000631008895377
0.0010381308264
0.00104250889566
0.00105126244879
0.0010643746651
0.00108182448748
0.00110359449026
0.00112967224209
0.00116004716125
0.0011947030093
0.00123360863986
0.00127670645215
0.00132390092458
0.00137504618166
0.00142993515118
0.00148828923034
0.00154975134419
0.00161388135665
0.00168015697655
0.00174797891172
0.00181668323541
0.00188555892109
0.00195387258106
0.00202089684189
0.0020859428532
0.00214839167218
0.00220772386253
0.00226354151823
0.00231558264063
0.00236372368778
0.00240797274216
0.00244845198797
0.0024853745873
0.00251901649698
0.00254968903224
0.00257771231999
0.00260339416759
0.00262701278624
0.00264880616408
0.0026689651153
0.00268763185785
0.00270490071034
0.00272082274687
0.00273541115891
0.00274859936387
0.00276024656146
0.00277019608352
0.00277827923706
0.00278432045776
0.00278814108913
0.00278956439198
0.00278841919927
0.00278454480723
0.00277779452334
0.00276804042768
0.002755176775
0.00273912453463
0.00271983450174
0.0026972913986
0.00267151641857
0.00264257054778
0.00261055616287
0.0025756191615
0.00253794920645
0.00249778027742
0.00245538924202
0.00241109460489
0.00236525333215
0.00231825789596
0.00227053164071
0.002222524538
0.00217470749951
0.00212756694438
0.00208159742639
0.00203729306656
0.00199513468551
0.001955572259
0.00191899965847
0.00188572346633
0.00185592962336
0.00182966069388
0.00180683858842
0.00178726351469
0.00177060971484
0.00175649411418
0.00174450393527
0.00173421927705
0.00172522947338
0.00171714477288
0.00170960368558
0.00170227768624
0.00169487345193
0.00168713386424
0.00167883765171
0.00166979853677
0.00165986359036
0.00164891142846
0.00163684988303
0.00162361365026
0.00160916154814
0.00159347382269
0.00157654917183
0.00155840189575
0.00153905888735
0.00151855685166
0.00149693951071
0.00147425517646
0.00145055450142
0.00142588879011
0.00140030863923
0.00137385239388
0.00134654405734
0.00131840332904
0.00128944578657
0.00125968423945
0.00122913107257
0.00119780190139
0.00116572041085
0.00113292456813
0.00109947385772
0.00106545736813
0.00103100196235
0.000996279890262
0.00096151471875
0.000926984772426
0.000893023198423
0.000860014507449
0.000828387835102
0.000798608131822
0.000771166892821
0.000746574615595
0.000725357056163
0.000708057370427
0.000695246023342
0.000687541061282
0.000685643493165
0.000690398346207
0.000702903798382
0.000724702310274
0.000757837455965
0.00080618991514
0.00111027437307
0.00111455526322
0.00112310701708
0.00113591390496
0.0011529540661
0.00117420009658
0.00119961753837
0.00122916177266
0.00126277194756
0.00130036410675
0.00134182238729
0.00138699075215
0.00143566408583
0.00148758131489
0.0015424192581
0.00159979010657
0.00165924107889
0.00172025919828
0.00178227936522
0.00184469835153
0.0019068921028
0.00196823816684
0.0020281394624
0.00208605015447
0.00214149881745
0.00219410912965
0.0022436132903
0.00228985920897
0.00233280812546
0.00237252565609
0.00240916496695
0.0024429467744
0.00247413595393
0.00250301969712
0.00252988652481
0.00255501004834
0.00257863553861
0.00260097194864
0.00262218647359
0.00264240363107
0.00266170566258
0.00268013625383
0.0026977045808
0.00271437119666
0.00272999009611
0.00274439981493
0.00275742732991
0.00276889290479
0.00277861326212
0.00278640579715
0.00279209141631
0.00279549861578
0.00279646627517
0.0027948477046
0.00279051339799
0.00278335498896
0.00277328785942
0.00276025484747
0.00274422851007
0.0027252143297
0.00270325234113
0.00267841950794
0.0026508303678
0.002620638219
0.00258803443763
0.00255324814692
0.00251654393049
0.00247821976159
0.0024386029605
0.0023980462692
0.00235692193376
0.00231561568519
0.0022745184648
0.00223401744374
0.00219448413061
0.0021562610081
0.00211964516067
0.00208487152945
0.00205209673277
0.00202138866226
0.00199272462648
0.00196604821505
0.00194121262824
0.00191799775222
0.0018961538187
0.00187541710334
0.00185552284427
0.00183621581055
0.00181725766382
0.00179843223672
0.00177954841808
0.00176044177859
0.00174097468322
0.00172103582612
0.00170053887064
0.00167942091414
0.00165764040869
0.00163517510343
0.00161201963789
0.00158818325985
0.0015636873272
0.00153856301052
0.00151284889545
0.00148658886369
0.00145982999466
0.00143262084771
0.00140500991641
0.00137704458949
0.00134877032568
0.00132021953444
0.00129140722071
0.00126234421349
0.00123303777049
0.00120349316751
0.0011737160531
0.00114371583624
0.00111350997178
0.00108312931199
0.0010526242226
0.00102207137113
0.000991580612165
0.000961301587852
0.000931429295088
0.000902208221779
0.000873934593836
0.000846956926614
0.000821675361288
0.000798541106812
0.000778057694497
0.000760786479054
0.000747359118358
0.000738500509087
0.00073506658022
0.000738103821108
0.000748942613675
0.000769348532704
0.000801782724191
0.000849876769434
0.000919172609165
0.00101913442723
0.00118040838051
0.00118465150559
0.00119312276533
0.00120580013633
0.00122265181717
0.00124363441744
0.00126868991401
0.00129774233984
0.00133069247391
0.00136741255596
0.00140773967169
0.00145147035782
0.0014983549045
0.00154809416188
0.00160033718559
0.00165468255927
0.00171068146738
0.00176784525527
0.00182565509739
0.00188357617614
0.00194107332175
0.00199762994291
0.00205276642086
0.00210605922573
0.00215715643716
0.00220579085672
0.00225178669199
0.00229506179024
0.00233562254838
0.00237355480927
0.00240900916717
0.00244218496089
0.00247331192495
0.00250263376157
0.00253039219089
0.00255681497767
0.00258210566318
0.0026064376689
0.00262994987729
0.00265274590882
0.00267489401138
0.00269642973196
0.00271735831268
0.00273766204886
0.00275721502425
0.00277585530633
0.00279341027786
0.00280970150894
0.0028245473486
0.00283776642059
0.00284917970493
0.00285861390668
0.00286590354212
0.00287089433305
0.00287344530453
0.00287343214852
0.00287074924493
0.0028653128742
0.00285706301311
0.00284596621169
0.00283201695096
0.00281523993707
0.00279569075234
0.00277345727165
0.00274865930182
0.00272144880055
0.0026920081902
0.00266054906545
0.00262730889005
0.00259254791299
0.0025565439963
0.00251958749817
0.00248197402631
0.0024439971377
0.00240593903878
0.00236806146079
0.00233059528268
0.00229373143887
0.00225761238611
0.00222232697296
0.00218790812924
0.00215433669592
0.00212163108049
0.00208972181181
0.0020584986924
0.00202783882476
0.00199761408417
0.0019676981377
0.00193797178961
0.00190832735484
0.001878671269
0.00184892587876
0.00181902989859
0.00178893844415
0.00175862220263
0.00172806648625
0.00169726973794
0.00166624209426
0.00163500360017
0.00160358258071
0.0015720138032
0.00154033686353
0.00150859447345
0.00147683103211
0.00144509120576
0.00141341887104
0.00138185619784
0.00135044319083
0.00131921736699
0.0012882042289
0.00125740993275
0.00122683742496
0.00119648735303
0.00116635983139
0.00113645680717
0.0011067852488
0.00107736100777
0.00104821351067
0.00101939102229
0.000990966461993
0.000963043355099
0.000935761750622
0.000909303653742
0.000883897906575
0.000859824418873
0.00083741827624
0.000817074525272
0.000799255286403
0.000784501375257
0.000773451696536
0.000766874676816
0.000765717959962
0.000771185509303
0.000784857082485
0.000808876243867
0.0008462572804
0.000901416490721
0.000981163877442
0.00109660208334
0.00126730845091
0.00124915757734
0.0012534264107
0.00126194289853
0.00127467528983
0.00129157738019
0.00131258588071
0.00133761699307
0.00136656332529
0.00139928931427
0.00143562751562
0.0014753740417
0.00151828582538
0.00156407797918
0.00161242399829
0.00166295675395
0.00171527302568
0.00176893911568
0.0018235001349
0.00187849006644
0.00193344494438
0.00198791578815
0.00204148334554
0.00209377089384
0.00214445699032
0.00219328432095
0.00224006673001
0.00228469095575
0.00232711577589
0.00236736584007
0.00240552366198
0.00244171773995
0.00247611072229
0.00250888580119
0.00254023513592
0.00257034820285
0.00259940338489
0.00262756022038
0.00265495512204
0.00268169763318
0.00270786975441
0.00273352532837
0.00275869205315
0.00278337335186
0.0028075529433
0.00283115849782
0.00285402503787
0.00287598031097
0.00289684802477
0.0029164494268
0.00293460609893
0.00295114135969
0.00296588303965
0.00297866493124
0.00298932961984
0.00299772996971
0.00300373195174
0.00300721608284
0.00300808014955
0.00300624048619
0.00300163445981
0.0029942214359
0.00298398484982
0.002970932669
0.00295509883534
0.00293654299551
0.00291535106374
0.00289163396358
0.00286552704033
0.00283718755425
0.00280679269134
0.00277453560589
0.00274062189088
0.0027052641635
0.00266867716676
0.00263107134794
0.00259264736863
0.00255358981729
0.00251406252225
0.00247420385271
0.0024341240734
0.0023939032403
0.00235359137887
0.00231321165501
0.00227288520698
0.00223263215692
0.00219245056342
0.00215233330475
0.00211227073105
0.0020722529752
0.00203227265745
0.0019923266731
0.0019524177467
0.00191255495797
0.00187275411921
0.00183303741237
0.00179343303874
0.0017539743521
0.00171469910706
0.00167564835636
0.00163686553123
0.0015983952963
0.00156028263536
0.00152257181306
0.00148530561083
0.0014485245361
0.00141226636874
0.00137656580306
0.00134145451145
0.00130696129916
0.001273105564
0.00123988471885
0.0012072941645
0.00117532839053
0.00114398286241
0.00111325639864
0.00108315421723
0.00105369148329
0.0010248975143
0.00099682042155
0.000969532239762
0.000943134253144
0.000917762521102
0.000893593383321
0.000870849141907
0.000849804120503
0.000830791939905
0.000814215165799
0.000800559439462
0.000790414993884
0.00078451007182
0.00078376276323
0.000789361523805
0.000802890725184
0.000826529159083
0.000863371501272
0.000917969139161
0.000997292154685
0.00111257629663
0.00128314668
0.00154503166949
0.00131715811903
0.00132151916786
0.00133021245917
0.0013431940923
0.00136040022999
0.00138174444161
0.00140711442305
0.00143636960858
0.00146933773404
0.0015058127746
0.00154555251549
0.00158827855608
0.00163367656534
0.00168139964289
0.00173107222255
0.00178229716982
0.00183466310206
0.00188775443025
0.00194116079566
0.0019944883244
0.00204736914678
0.0020994716276
0.00215050769292
0.00220023985288
0.00224848444005
0.0022951139598
0.00234005537658
0.00238328760434
0.00242483537639
0.0024647630606
0.00250316582922
0.0025401618447
0.00257588290063
0.00261046705969
0.00264405059031
0.0026767624997
0.00270871876773
0.002740019327
0.00277074473725
0.00280095543282
0.00283069046617
0.00285996867629
0.00288878950773
0.00291713680122
0.00294500095637
0.00297221479063
0.00299860637161
0.00302400072194
0.00304822084785
0.00307109023441
0.00309243377957
0.00311208011584
0.00312986249298
0.0031456211304
0.00315920414608
0.00317046992599
0.00317928802994
0.00318554148852
0.00318912759137
0.00318996001143
0.00318796937172
0.00318310508197
0.00317533556256
0.00316464965695
0.00315105636953
0.00313458569362
0.00311528770026
0.00309323260645
0.00306850905164
0.00304122325228
0.0030114963635
0.00297946268077
0.00294526617547
0.00290905798349
0.00287099256406
0.00283122510807
0.0027899080852
0.00274718928286
0.00270320919661
0.00265809971562
0.00261198196133
0.00256496525162
0.00251714536041
0.00246860700378
0.00241957476108
0.00237016497304
0.00232047365249
0.00227059366521
0.00222061303591
0.00217061541686
0.00212068072965
0.00207088621902
0.00202130673227
0.00197201518471
0.00192308246022
0.0018745775091
0.00182656699578
0.00177911515244
0.00173228329221
0.00168612954574
0.00164070835649
0.00159607021812
0.00155226125783
0.00150932308522
0.00146729257368
0.00142620195155
0.00138607893487
0.00134694724323
0.0013088271832
0.00127173391617
0.00123565626937
0.00120058214488
0.00116649968515
0.00113339926047
0.00110127588549
0.00107013218235
0.00103998170442
0.00101085278938
0.000982792756729
0.000955872566073
0.000930191745403
0.000905883730058
0.000883121569894
0.000862124411173
0.000843165196119
0.000826580699311
0.000812785413155
0.0008022919074
0.000795741411478
0.000793950629259
0.00079798401994
0.00080926681131
0.000829764425747
0.000862273979065
0.000910912597069
0.000981969996033
0.00108548206652
0.00123836234749
0.0014712259496
0.00184465613488
0.0013850690859
0.00138959239301
0.00139860107056
0.00141203687115
0.00142981533826
0.00145182340355
0.00147791683534
0.00150791895474
0.00154161855441
0.00157876989877
0.00161909263974
0.00166227458319
0.00170797486936
0.00175583028135
0.00180546164733
0.00185648291776
0.00190850941518
0.00196116778579
0.00201410395
0.00206699172565
0.00211953845734
0.00217149063226
0.00222263601291
0.00227280563074
0.00232187240517
0.00236975001301
0.00241638890859
0.00246177321384
0.00250591536011
0.00254885212757
0.00259063886743
0.00263134543631
0.00267105057105
0.00270983816479
0.00274779218383
0.00278499364848
0.00282151643951
0.00285742528951
0.00289277270634
0.00292759808348
0.00296192570872
0.00299576485589
0.00302910880418
0.00306193629463
0.00309430045029
0.0031260424835
0.00315699178473
0.00318697247321
0.00321580638544
0.00324331611977
0.00326932569125
0.00329366245716
0.00331615744736
0.00333664729186
0.00335497463671
0.00337099013374
0.00338455287556
0.00339553235318
0.00340380882128
0.00340927514394
0.00341183701996
0.00341141464876
0.00340794275216
0.00340137199191
0.00339166872154
0.00337881608021
0.00336281340307
0.00334367691186
0.00332143871785
0.00329614704856
0.00326786482257
0.00323666942976
0.0032026509794
0.00316591181378
0.00312656471394
0.00308473247575
0.00304054638546
0.00299414599307
0.00294567769436
0.00289529414864
0.00284315213876
0.00278941075198
0.00273422815737
0.00267775888489
0.00262015387393
0.00256171727525
0.00250267047069
0.00244319339712
0.00238346049955
0.00232363696784
0.00226387855539
0.00220433179695
0.00214513369397
0.00208641197116
0.00202828500438
0.0019708621667
0.00191424381347
0.00185852159164
0.0018037784353
0.00175008884546
0.00169751892266
0.00164612666824
0.00159596210797
0.00154706768513
0.00149947855012
0.00145322314062
0.00140832374107
0.00136479736048
0.00132265663095
0.00128191405925
0.00124255132962
0.00120454880474
0.00116788776801
0.00113255257297
0.0010985331644
0.00106582801297
0.00103444728315
0.00100441643391
0.000975780102162
0.000948606442803
0.000922991813637
0.000899066054337
0.000876998452162
0.000857004964233
0.000839357333723
0.000824395460459
0.000812544869603
0.000804342415191
0.0008004748393
0.000801837767558
0.000809627292431
0.000825484948271
0.00085173251384
0.000891763828609
0.000950723054412
0.00103673400394
0.0011632616049
0.00135400583443
0.00165406770995
0.00215812323762
0.00145357974941
0.00145833951701
0.00146781035332
0.00148191730386
0.00150055190167
0.00152357045713
0.00155079244159
0.00158200071009
0.00161694131965
0.00165532579814
0.00169683368696
0.00174111836566
0.00178781312332
0.00183654029106
0.00188691979462
0.00193857966517
0.0019911645241
0.00204434468663
0.00209782189457
0.00215133474218
0.00220466008137
0.00225761403228
0.00231004924937
0.00236185254874
0.00241293976448
0.00246325212089
0.00251275089687
0.00256141448952
0.00260923431079
0.0026562132723
0.00270236296693
0.00274770307166
0.00279225900095
0.00283606134722
0.00287914328734
0.00292153962762
0.00296328386243
0.00300440700333
0.00304493466136
0.0030848861096
0.00312427182313
0.00316309310565
0.00320134016784
0.0032389918887
0.0032760694562
0.00331253198616
0.00334819597296
0.00338287617948
0.0034163879111
0.0034485489188
0.0034791790123
0.00350810135287
0.00353514216766
0.00356013228331
0.00358290706582
0.00360330810482
0.00362118324349
0.00363638828979
0.00364878703989
0.00365825294608
0.00366466908611
0.00366792975381
0.0036679403541
0.00366461889999
0.00365789582613
0.00364771538216
0.00363403536278
0.00361682838894
0.00359608155714
0.00357179760751
0.00354399451302
0.0035127065613
0.00347798394548
0.00343989383006
0.00339852003073
0.00335396410203
0.00330634505034
0.00325580018283
0.00320248434418
0.00314656975022
0.00308824383414
0.00302770721706
0.00296516959748
0.00290084599627
0.00283495160513
0.00276770136398
0.00269943263385
0.0026304920731
0.00256112776977
0.00249157588224
0.00242206053311
0.00235279279475
0.00228396877448
0.00221576935221
0.00214835994862
0.00208189091416
0.00201649766438
0.00195230127189
0.00188940878097
0.00182791388728
0.0017678973758
0.00170942787189
0.00165256240155
0.00159734724258
0.0015438186498
0.00149200388116
0.00144192219076
0.00139358618943
0.00134700334761
0.00130217797783
0.00125909423404
0.00121772382822
0.00117804014884
0.00114002034122
0.00110364780089
0.00106891504864
0.00103582677432
0.00100440325813
0.000974684036915
0.000946732035493
0.000920638110362
0.000896526340344
0.000874560258243
0.00085495071989
0.000837966200502
0.000823947080693
0.000813326057745
0.000806658293132
0.000804666747484
0.000808311813004
0.000818900296373
0.000838260222286
0.000869029306755
0.000915148165428
0.000982739925784
0.00108176121703
0.00122930058867
0.00145670691291
0.00182660128274
0.00247812610667
0.00152341521895
0.00152849044872
0.00153857949209
0.00155358796261
0.0015733794689
0.0015977746941
0.00162655127138
0.0016594459084
0.00169615634432
0.00173634648692
0.00177965196192
0.0018256891557
0.00187406437497
0.00192438570969
0.00197627341809
0.00202937138335
0.00208335516515
0.00213793956226
0.00219288145514
0.00224798154647
0.00230308126934
0.00235805923872
0.00241282396199
0.00246730768746
0.00252145821605
0.00257523357669
0.00262859604126
0.00268150994607
0.00273393917833
0.00278584824363
0.00283720229607
0.00288796977298
0.00293812295441
0.00298764019755
0.00303650544177
0.00308470901576
0.00313224567632
0.00317911410506
0.00322531398718
0.0032708449107
0.00331570326722
0.00335988134563
0.00340336502079
0.00344613486433
0.00348816895092
0.00352956152697
0.0035701121151
0.00360962531206
0.0036479080807
0.00368477053371
0.00372002510589
0.00375348762603
0.0037849765904
0.00381431440355
0.00384132689249
0.00386584475613
0.00388770324873
0.00390674373148
0.00392281343119
0.0039357670291
0.00394546646012
0.00395178252664
0.00395459474653
0.0039537930097
0.00394927750606
0.00394096045593
0.00392876615737
0.00391263282148
0.0038925127752
0.00386837442237
0.00384020262541
0.00380800079281
0.0037717914351
0.00373161833199
0.00368754717628
0.00363966763431
0.00358809377159
0.00353296551288
0.00347444817845
0.00341273251816
0.00334803251754
0.00328058330088
0.00321063682695
0.00313845765704
0.00306431719093
0.00298848876432
0.00291124570139
0.00283289673581
0.00275395446651
0.00267470200464
0.00259542478356
0.00251639447166
0.00243786338016
0.00236006406933
0.0022832088181
0.00220748983188
0.00213307934888
0.00206013033577
0.00198877695211
0.00191913547796
0.00185130501506
0.00178536856101
0.00172139388772
0.00165943474689
0.001599531935
0.00154171468049
0.00148600198422
0.00143240434518
0.00138092557203
0.00133156487101
0.00128431131095
0.00123912821242
0.00119598065927
0.00115483769113
0.00111567481213
0.00107847684709
0.00104324091991
0.00100997977077
0.000978725288107
0.000949532515364
0.000922484123863
0.000897695754764
0.000875322499204
0.000855567310896
0.000838692258492
0.000825034344996
0.000815028277169
0.00080924021495
0.000808418703236
0.00081357330878
0.000826098753178
0.000847976498442
0.000882113042919
0.000932930809153
0.00100745009899
0.00111738501087
0.0012834873644
0.00154532657061
0.00198567740967
0.00279861795407
0.00159534744733
0.00160082257127
0.00161169640071
0.00162785185985
0.00164911976899
0.00167527918268
0.00170605891317
0.00174114202906
0.00178017066769
0.00182275435949
0.00186847905187
0.00191691989164
0.00196765357313
0.0020202729373
0.00207439891781
0.00212969244855
0.00218586142796
0.00224266603953
0.00229991804358
0.00235747835483
0.00241524918684
0.00247316597974
0.00253118582012
0.0025892780194
0.00264741348003
0.00270555834126
0.00276366791205
0.00282168572462
0.00287954286997