/*--------------------------------*- C++ -*----------------------------------*\
| =========                 |                                                 |
| \\      /  F ield         | OpenFOAM: The Open Source CFD Toolbox           |
|  \\    /   O peration     | Version:  2206                                  |
|   \\  /    A nd           | Website:  www.openfoam.com                      |
|    \\/     M anipulation  |                                                 |
\*---------------------------------------------------------------------------*/
FoamFile
{
    version     2.0;
    format      ascii;
    arch        "LSB;label=64;scalar=64";
    class       volScalarField;
    location    "4.4/water";
    object      k.gas;
}
// * * * * * * * * * * * * * * * * * * * * * * * * * * * * * * * * * * * * * //

dimensions      [0 2 -2 0 0 0 0];

internalField   nonuniform List<scalar> 
23300
(
0.0138148274389
0.0138169758782
0.01382098269
0.0138267012467
0.0138339688808
0.013842612625
0.0138524348625
0.0138632077463
0.0138746630638
0.0138864933396
0.0138983463173
0.0139098324275
0.0139205257058
0.0139299802772
0.013937741396
0.013943374423
0.0139464888674
0.0139467808139
0.0139440681754
0.0139383406557
0.0139297955558
0.0139188792887
0.0139063032919
0.0138930537171
0.0138803646685
0.0138696779636
0.0138625654391
0.0138606442363
0.0138654695339
0.0138784409822
0.0139007106422
0.0139331262897
0.0139761922522
0.0140300720714
0.0140946060394
0.0141693596781
0.0142536718844
0.0143467175473
0.0144475553382
0.0145551789929
0.014668546658
0.0147866098495
0.0149083178876
0.0150326904164
0.0151587929796
0.0152857185913
0.0154125916378
0.0155385765404
0.0156628710903
0.0157847100335
0.0159033566522
0.0160181065454
0.0161282807049
0.0162332312877
0.0163323371993
0.0164250121735
0.0165107028709
0.016588898851
0.0166591326199
0.0167209906009
0.0167741141503
0.0168182102893
0.0168530524414
0.0168784895591
0.0168944453621
0.0169009247327
0.0168980106723
0.0168858674833
0.0168647354098
0.0168349309029
0.0167968395017
0.0167509136678
0.0166976638025
0.016637652068
0.0165714770559
0.0164997544898
0.0164230791177
0.01634195895
0.0162566311667
0.016166556473
0.0160707590677
0.0159685555753
0.0158594977438
0.0157432882964
0.0156197350221
0.0154887316723
0.0153502477286
0.0152043256064
0.0150510768548
0.0148906808096
0.014723379807
0.0145494756777
0.0143693225716
0.014183321195
0.0139919099902
0.0137955582748
0.0135947571104
0.01339001263
0.0131818377507
0.012970746656
0.0127572481296
0.0125418417868
0.0123250134306
0.0121072332545
0.0118889532184
0.0116706069867
0.011452608758
0.0112353539561
0.0110192180964
0.0108045863889
0.0105918595288
0.0103814348049
0.0101737122258
0.00996910097623
0.0097680237311
0.0095709213561
0.00937825502041
0.00919050781001
0.00900818297505
0.00883180070978
0.00866189096324
0.00849898425544
0.00834359872766
0.00819622584011
0.0080573140325
0.00792725338146
0.00780636156491
0.00769487426678
0.00759294032373
0.00750062346282
0.00741790938015
0.00734471745595
0.00728091367018
0.00722632182149
0.00718072877867
0.00714388094434
0.00711546985611
0.00709510851118
0.00708230462932
0.00707645821698
0.0138145945449
0.013816571546
0.013820424318
0.0138260367279
0.0138332641145
0.013841929822
0.0138518172326
0.013862666202
0.0138741655705
0.0138859523797
0.0138976076914
0.0139086612503
0.0139185943589
0.0139268543388
0.0139328693298
0.0139360771439
0.0139359557781
0.0139320682748
0.0139241073396
0.0139119500064
0.013895704714
0.0138757582202
0.013852802442
0.0138278476368
0.0138022033383
0.0137774370218
0.0137552985573
0.0137376283197
0.0137262459289
0.0137228439933
0.0137288875268
0.0137455416506
0.0137736226994
0.0138135860724
0.0138655365267
0.0139292658541
0.0140042987269
0.0140899499518
0.0141853754326
0.01428962339
0.0144016722685
0.01452046597
0.0146449364741
0.0147739763804
0.0149064704737
0.0150413379841
0.0151775320809
0.0153140434416
0.0154498968446
0.0155841529445
0.0157159044286
0.0158442784236
0.0159684340808
0.0160875668246
0.0162009080939
0.0163077316967
0.0164073556745
0.0164991503965
0.0165825419697
0.016657021222
0.0167221476459
0.0167775580451
0.0168229697076
0.0168581873151
0.0168831040268
0.0168977054386
0.0169020676519
0.0168963576554
0.0168808281475
0.0168558143743
0.0168217258386
0.0167790393219
0.0167282860115
0.0166700366488
0.0166048754558
0.0165333620196
0.0164559690984
0.016372995742
0.0162844595283
0.0161901327936
0.0160895367615
0.0159822025702
0.0158677414905
0.0157458532407
0.0156163223966
0.0154790158425
0.0153338802397
0.0151809415885
0.0150203034905
0.0148521459365
0.014676721716
0.0144943527026
0.0143054236626
0.0141103761043
0.0139097001559
0.0137039269952
0.0134936199683
0.0132793667702
0.0130617708948
0.0128414445338
0.0126190011858
0.0123950499597
0.0121701898703
0.0119450059212
0.0117200653013
0.0114959153422
0.0112730816466
0.0110520680708
0.0108333574658
0.0106174154908
0.0104046971962
0.0101956405622
0.00999066820902
0.00979018978011
0.00959460329795
0.00940429646876
0.00921964640641
0.00904101879775
0.00886876524674
0.00870322000334
0.00854469525688
0.00839347649797
0.00824981759957
0.00811393726283
0.00798601662844
0.00786619935839
0.00775459364088
0.00765127668681
0.0075563006657
0.00746969999155
0.00739149859981
0.00732171658235
0.00726037438864
0.00720749308639
0.00716308811129
0.00712715405453
0.00709963736397
0.00708039300231
0.00706911575855
0.00706521472891
0.0138324675545
0.0138345199421
0.0138385885709
0.0138445810286
0.0138523620336
0.0138617511077
0.0138725162449
0.01388437136
0.0138969702032
0.0139099061458
0.013922709472
0.0139348533097
0.0139457590004
0.0139548130048
0.0139613855424
0.01396486285
0.0139646819868
0.0139603786861
0.013951634898
0.0139383340131
0.0139206076333
0.0138988792976
0.0138738874313
0.0138466925149
0.0138186528037
0.0137913775667
0.0137666489459
0.0137463288885
0.0137322503071
0.0137261142974
0.0137293951288
0.0137432723787
0.0137685862257
0.0138058265454
0.0138551433255
0.0139163817075
0.0139891250906
0.0140727483406
0.0141664661131
0.0142693813757
0.014380522925
0.0144988805819
0.0146234296803
0.0147530721631
0.0148866543659
0.0150230596426
0.0151612072307
0.0153000542628
0.0154385923638
0.0155758487153
0.0157108827952
0.0158427883773
0.0159706917699
0.0160937556283
0.0162111792137
0.0163222042034
0.0164261169061
0.0165222557392
0.0166100148717
0.0166888526047
0.0167582955102
0.0168179465886
0.0168674886669
0.0169066909907
0.0169354105536
0.0169535958403
0.016961284979
0.0169586057108
0.0169457696781
0.0169230680313
0.0168908611846
0.0168495688665
0.0167996530736
0.0167415984803
0.0166758822789
0.016602937138
0.0165231024444
0.0164365756683
0.0163433766676
0.0162434357424
0.0161365829907
0.0160225527462
0.0159010950486
0.0157720023317
0.0156351242713
0.0154903780337
0.0153377531056
0.0151773148562
0.0150092045655
0.0148336388718
0.0146509062359
0.0144613630674
0.0142654273976
0.0140635726148
0.0138563194143
0.0136442282917
0.0134278909017
0.0132079223782
0.0129849530638
0.0127596215168
0.0125325673455
0.012304425527
0.0120758208338
0.0118473638345
0.0116196471562
0.0113932433331
0.0111687030276
0.0109465548932
0.0107273059949
0.0105114376189
0.0102994068318
0.0100916496687
0.00988858141764
0.0096905974627
0.00949807331793
0.00931136451843
0.00913080522941
0.00895670637861
0.00878935246931
0.00862899814014
0.00847586405987
0.00833013354958
0.00819194990705
0.00806141592629
0.00793859558908
0.00782351900472
0.00771619007195
0.00761659714469
0.00752472555616
0.00744057162824
0.00736415670784
0.00729554045111
0.00723483157172
0.00718219443474
0.0071378485534
0.00710205735999
0.00707510059687
0.00705722180405
0.00704853301373
0.00704885321964
0.0138597642267
0.0138621890098
0.0138669959745
0.0138740951891
0.0138833442582
0.013894545662
0.013907441106
0.0139217100562
0.0139369646285
0.0139527511713
0.0139685497133
0.0139837827305
0.0139978240976
0.0140100200618
0.0140197120912
0.0140262730522
0.0140291449734
0.0140278882223
0.014022228167
0.014012106784
0.0139977231217
0.0139795681911
0.0139584376261
0.013935428191
0.0139119043885
0.0138894455242
0.0138697659942
0.0138546255826
0.0138457289716
0.0138446347253
0.0138526738624
0.0138708948648
0.013900029567
0.0139404890006
0.01399237668
0.0140555226928
0.0141295233185
0.0142137889823
0.0143075869945
0.014410084576
0.0145203818598
0.0146375432676
0.0147606190795
0.014888605743
0.0150203878326
0.015154885078
0.0152910513749
0.0154278766817
0.0155643838223
0.0156996295116
0.0158327012967
0.0159627194419
0.016088835217
0.0162102344049
0.0163261373691
0.0164358043237
0.0165385371055
0.0166336859208
0.0167206523663
0.0167988970097
0.0168679428695
0.0169273828724
0.0169768827233
0.0170161870557
0.0170451204763
0.0170635911714
0.0170715889587
0.0170691852458
0.0170565270899
0.0170338325072
0.0170013794604
0.0169594951223
0.0169085379637
0.016848878699
0.0167808734329
0.0167048362039
0.0166210084962
0.0165295383711
0.0164304728885
0.01632377695
0.016209526895
0.016087631266
0.0159579965844
0.015820550517
0.0156752582952
0.0155221362601
0.0153612595985
0.0151927681539
0.0150168676898
0.0148338300981
0.014643990177
0.01444774206
0.0142455331593
0.0140378583482
0.0138252524531
0.0136082834419
0.0133875445514
0.0131636474371
0.0129372147526
0.0127088739791
0.0124792510568
0.0122489654082
0.0120186250179
0.0117888229558
0.011560134104
0.0113331133113
0.0111082938246
0.0108861870736
0.0106672826314
0.0104520421253
0.0102408977707
0.0100342606299
0.00983252072663
0.00963604758347
0.00944518999741
0.00926027565715
0.00908160960175
0.00890947222676
0.00874411607962
0.00858576237317
0.00843459683486
0.00829076614101
0.00815437495459
0.00802548503532
0.00790411661346
0.00779025335185
0.00768385083687
0.00758484935555
0.00749319034892
0.00740883659845
0.00733179505823
0.00726214184785
0.00720004791126
0.00714580397736
0.00709984186456
0.00706274784078
0.00703526073206
0.00701824446715
0.0070126174309
0.00701920049696
0.0139013427708
0.0139043687595
0.0139103627906
0.0139192200648
0.0139307767861
0.0139448054868
0.0139610089892
0.0139790201801
0.0139983985655
0.0140186341947
0.0140391500312
0.0140593147978
0.0140784561335
0.0140958863574
0.0141109296191
0.0141229616526
0.0141314492989
0.0141359992561
0.0141364012681
0.0141326732675
0.0141250923028
0.0141142177935
0.0141008914848
0.0140862220826
0.0140715425327
0.01405835223
0.0140482379797
0.0140427909791
0.0140435181557
0.0140517665613
0.0140686584981
0.0140950519406
0.0141315186017
0.0141783476428
0.0142355621484
0.014302952338
0.0143801111815
0.0144664764916
0.0145613669942
0.0146640187477
0.0147736121201
0.0148892980295
0.0150102155915
0.0151355017523
0.0152641156196
0.0153950480656
0.015527320087
0.0156599851328
0.0157921265313
0.0159228589107
0.0160513254201
0.0161766996616
0.0162981839489
0.0164150125599
0.0165264514548
0.0166318029729
0.0167304069316
0.0168216465178
0.0169049503834
0.0169797992103
0.0170457281668
0.0171023333818
0.0171492739024
0.0171862771131
0.0172131391778
0.0172297283294
0.0172359827282
0.0172319105413
0.0172175841764
0.0171931360945
0.0171587483784
0.0171146432218
0.017061066945
0.0169982747708
0.0169265102957
0.0168459882358
0.0167568772739
0.0166592931808
0.0165532990686
0.0164389179674
0.0163162470382
0.016185453062
0.0160465897528
0.0158997317861
0.0157449834792
0.0155824884384
0.0154124351752
0.0152350621174
0.0150506586064
0.0148595653554
0.0146621716355
0.0144589124235
0.014250263164
0.0140367349932
0.0138188683346
0.0135972273168
0.0133723931348
0.0131449584656
0.0129155212624
0.0126846797539
0.012453027152
0.0122211476484
0.0119896123477
0.0117589765064
0.0115297768455
0.0113025301274
0.0110777318549
0.0108558560946
0.0106373552284
0.0104226537691
0.0102121454652
0.0100062044951
0.00980518582021
0.00960942590887
0.00941924273413
0.00923493561706
0.00905678396893
0.00888504554948
0.00871995346485
0.00856171268423
0.00841049561779
0.00826643785052
0.00812963402055
0.0080001353061
0.00787794890856
0.00776304117253
0.00765534481031
0.00755477162259
0.00746123085504
0.00737465404648
0.00729502617623
0.00722242372846
0.00715705969061
0.00709933631394
0.00704990581315
0.00700973904777
0.00698020097133
0.00696313249531
0.00696094194106
0.00697669585752
0.0139588233915
0.0139626747169
0.0139702993134
0.0139815657388
0.013996274555
0.0140141525013
0.0140348469206
0.0140579272561
0.014082883564
0.0141091339569
0.0141360307678
0.0141628780452
0.0141889496995
0.0142135203831
0.0142358968142
0.0142554605837
0.014271708305
0.0142842984589
0.0142930892556
0.0142981754897
0.0142999082527
0.0142989054742
0.0142960387468
0.0142924066136
0.014289283752
0.0142880602477
0.0142901652813
0.0142969927903
0.0143098260212
0.0143297781496
0.0143577439957
0.0143943755153
0.0144400713612
0.0144949879183
0.0145590585099
0.0146320256328
0.0147134725695
0.0148028598351
0.0148995546808
0.0150028609924
0.0151120399454
0.0152263304036
0.0153449609889
0.0154672256473
0.0155921823631
0.0157189097258
0.0158465094761
0.0159741112512
0.0161008712
0.0162259739536
0.0163486300454
0.0164680778897
0.0165835819244
0.0166944356244
0.016799960801
0.0168995117402
0.0169924755544
0.0170782772105
0.0171563806044
0.0172262940602
0.0172875716328
0.0173398185
0.0173826918487
0.0174159054367
0.0174392292928
0.0174524926179
0.017455581454
0.0174484390479
0.0174310606354
0.0174034904229
0.0173658127621
0.0173181452095
0.0172606260434
0.0171934042108
0.0171166255492
0.0170304241199
0.0169349140209
0.0168301901218
0.0167163316084
0.016593412339
0.0164615113926
0.0163209209314
0.0161719213299
0.0160147270239
0.0158495836626
0.0156767706314
0.0154966012872
0.0153094247658
0.0151156250872
0.0149156209864
0.0147098631582
0.0144988320993
0.0142830338397
0.014062996443
0.0138392649533
0.0136123972911
0.0133829590623
0.0131515194349
0.0129186463044
0.0126849026036
0.0124508421929
0.0122170069305
0.0119839235319
0.0117521016009
0.0115220315849
0.0112941838491
0.0110690077276
0.0108469315423
0.010628362397
0.0104136806166
0.0102032351517
0.00999735762436
0.00979636301176
0.00960055069404
0.00941020480342
0.00922559442089
0.00904697268201
0.00887457533656
0.0087086179392
0.00854929232634
0.00839676183439
0.00825115622675
0.00811256627
0.00798103941001
0.00785657706373
0.00773913540408
0.00762863051813
0.0075249498846
0.00742797104809
0.00733758929406
0.00725375543184
0.00717652623365
0.0071061306267
0.0070430576075
0.00698817461293
0.00694289052817
0.00690938514233
0.00689094319118
0.00689246844073
0.00692131861241
0.0140334904676
0.0140383914838
0.0140480899828
0.0140624174542
0.014081123997
0.014103872932
0.0141302362389
0.0141596986824
0.0141916596778
0.0142254447914
0.0142603166105
0.0142954980328
0.0143301957855
0.0143636367436
0.0143951032887
0.0144239785688
0.0144497862797
0.0144722343323
0.0144912460089
0.0145069873506
0.0145198748397
0.0145305730869
0.0145399690359
0.0145491351443
0.0145592720869
0.0145716468971
0.0145875208162
0.0146080845319
0.0146343959488
0.0146673363348
0.0147075772719
0.0147555697183
0.0148115436081
0.0148755252382
0.0149473586718
0.0150267370641
0.0151132306523
0.0152063182754
0.0153054110743
0.0154098768113
0.01551905517
0.0156322733892
0.0157488532146
0.0158681724371
0.0159894842623
0.016111949597
0.0162347502824
0.0163570943417
0.0164782141998
0.0165973683777
0.016713838654
0.0168269319275
0.0169359781056
0.0170403328612
0.0171393764625
0.0172325173884
0.0173191919307
0.0173988684246
0.0174710473277
0.0175352657285
0.0175910975292
0.0176381578195
0.0176761027187
0.0177046331282
0.0177234937217
0.0177324755282
0.0177314135159
0.0177201874282
0.0176987174242
0.0176669626684
0.0176249147003
0.0175725937097
0.0175100401211
0.0174373098492
0.0173544666185
0.0172615800254
0.017158723382
0.017045978841
0.0169234422055
0.0167912318521
0.0166494927457
0.0164984054122
0.0163384935284
0.0161701625656
0.0159937881306
0.0158097799914
0.0156185760304
0.0154206389942
0.0152164524546
0.0150065190756
0.0147913572984
0.0145714994779
0.0143474883087
0.0141198744308
0.013889212618
0.0136560590947
0.0134209677544
0.0131844874919
0.0129471587291
0.0127095110498
0.0124720602779
0.0122353066478
0.0119997326121
0.0117658017091
0.0115339572057
0.0113046217472
0.0110781968542
0.0108550632929
0.0106355811201
0.0104200854957
0.0102088783179
0.0100022464813
0.00980046285478
0.00960378763549
0.00941246901649
0.0092267436919
0.00904683624351
0.00887295790407
0.00870530382809
0.00854404944295
0.00838934526506
0.00824131105864
0.00810002922691
0.00796553885651
0.00783783098187
0.00771684707126
0.00760248186928
0.00749459293966
0.00739301840506
0.0072976056336
0.00720825348878
0.00712497323579
0.00704797569606
0.00697779880632
0.00691549943387
0.00686295142218
0.00682332244698
0.006801861258
0.00680725307782
0.00685408144002
0.0141259401031
0.0141321186057
0.0141443403215
0.0141623886998
0.0141859476054
0.0142145967707
0.0142478099607
0.0142849628005
0.0143253385886
0.0143681455123
0.01441253335
0.0144576231296
0.0145025369203
0.0145464398362
0.0145885792388
0.0146283319058
0.0146652424622
0.0146990627784
0.0147297752867
0.0147576101073
0.0147830403301
0.0148067671569
0.0148296823471
0.0148528226918
0.0148773077556
0.0149042783063
0.0149348291585
0.0149699541402
0.0150104963381
0.0150571184271
0.0151102830429
0.0151702536596
0.0152371026926
0.0153107343053
0.0153909075927
0.0154772671989
0.015569368194
0.0156667034652
0.0157687223662
0.0158748502298
0.0159844990512
0.0160970798747
0.0162120085282
0.016328716687
0.0164466925269
0.0165651718974
0.0166834156088
0.0168007102716
0.0169163647612
0.0170297114227
0.0171401029057
0.0172469139078
0.0173495387382
0.0174473938132
0.0175399159835
0.017626565678
0.0177068257934
0.0177802052409
0.0178462381291
0.017904487443
0.0179545442486
0.0179960312342
0.0180286016689
0.0180519425325
0.0180657729618
0.0180698466935
0.0180639497403
0.0180479018898
0.0180215534094
0.0179847854557
0.017937505837
0.0178796485961
0.0178111695497
0.017732046335
0.0176422757834
0.0175418770665
0.0174308936241
0.0173094009554
0.0171775120293
0.0170353850012
0.0168832251278
0.0167212856083
0.0165498694559
0.0163697308064
0.0161814049031
0.0159854173722
0.0157823217226
0.015572690578
0.0153571071213
0.0151361608682
0.0149104431731
0.0146805450878
0.014447053971
0.014210551754
0.0139716119966
0.0137307983313
0.0134886618521
0.0132457397218
0.0130025529185
0.0127596050967
0.01251738078
0.0122763445966
0.0120369400152
0.0117995890651
0.0115646916939
0.0113326260543
0.0111037485244
0.0108783945514
0.0106568791122
0.0104394952764
0.0102264981014
0.0100181296913
0.00981462035333
0.00961619018568
0.00942304998713
0.0092354019822
0.00905343936749
0.00887734514999
0.00870728937237
0.00854342525706
0.00838588360386
0.0082347662633
0.00809013852446
0.00795202179361
0.00782038711545
0.00769515156502
0.00757617875485
0.0074632860398
0.00735626037884
0.00725488644346
0.00715899111807
0.00706851231929
0.00698360514019
0.0069048101348
0.00683332890902
0.0067714921405
0.00672358010813
0.00669730536771
0.00670658759196
0.00677699644483
0.0142362016684
0.0142438918658
0.0142590980508
0.0142815435377
0.0143108281508
0.0143464259799
0.0143876867736
0.0144338487982
0.0144840506063
0.0145373547132
0.0145927713578
0.0146492960131
0.0147059458893
0.0147618080042
0.0148160820822
0.0148681290227
0.0149175070633
0.014964005856
0.0150076609668
0.0150487601251
0.0150878259378
0.0151255889488
0.0151629392349
0.0152008734673
0.0152404289416
0.0152826233232
0.0153283928638
0.0153785468325
0.0154337291922
0.01549440163
0.0155608355608
0.015633123201
0.0157111928287
0.0157948362562
0.0158837335054
0.0159774829784
0.0160756237397
0.0161776595369
0.0162830730865
0.0163913413663
0.0165019418019
0.0166143607268
0.0167280950779
0.0168426591782
0.0169577483632
0.0170726805494
0.0171867976971
0.0172994644076
0.0174100639391
0.0175179996944
0.0176226920134
0.0177235798863
0.0178201181423
0.017911779675
0.0179980532431
0.0180784462022
0.0181524827443
0.0182197069026
0.0182796809847
0.0183319886322
0.0183762332585
0.0184120410106
0.0184390590928
0.0184569585381
0.0184654323577
0.018464198083
0.0184529957397
0.0184315901784
0.0183997689573
0.018357344596
0.0183041526443
0.0182400542926
0.0181649353554
0.0180787102653
0.0179813233472
0.0178727556342
0.0177530294901
0.017622218013
0.0174804506554
0.0173279203452
0.0171648835879
0.0169916598576
0.0168086234807
0.0166162047678
0.016415341608
0.0162067133522
0.015990973373
0.0157687950581
0.0155408570486
0.0153078355544
0.015070397975
0.0148292000339
0.0145848819358
0.0143380667285
0.0140893577169
0.0138393375926
0.0135885666154
0.0133375821862
0.013086897554
0.0128370017042
0.0125883585068
0.0123414069085
0.0120965605209
0.0118542081587
0.011614713904
0.0113784180484
0.0111456376667
0.0109166679841
0.0106917833354
0.0104712409339
0.0102552511147
0.0100440126693
0.0098377140479
0.00963653514129
0.00944064840033
0.0092502197209
0.00906540805471
0.00888636422171
0.00871322799863
0.00854612400827
0.00838515571187
0.00823039829661
0.00808189024592
0.00793962491525
0.00780354260322
0.00767352510135
0.00754939396759
0.00743091521038
0.00731781264882
0.0072097942189
0.00710659676513
0.00700806005469
0.00691424877782
0.00682565943094
0.00674358333255
0.00667076826513
0.00661266678646
0.00657986816069
0.00659299454811
0.0066929578863
0.0143637969605
0.0143732433294
0.0143919145091
0.0144194602876
0.01445537706
0.0144990081314
0.0145495504292
0.0146060738055
0.0146675395452
0.0147328327623
0.0148007946899
0.0148702687812
0.0149401450638
0.0150094145717
0.0150772157286
0.0151428835437
0.0152059825145
0.0152663343731
0.0153240228101
0.0153793882999
0.0154329981181
0.0154856077704
0.0155381025425
0.0155914382411
0.0156465724782
0.0157044064417
0.0157657285867
0.0158311780935
0.0159012169032
0.0159761240821
0.016055997893
0.0161407757144
0.0162302553641
0.0163241266622
0.0164219973954
0.0165234232983
0.0166279281955
0.0167350253303
0.0168442279239
0.0169550608717
0.017067062729
0.0171797900367
0.0172928137003
0.0174057194066
0.0175183933817
0.0176302611431
0.0177407499752
0.0178492994004
0.0179553620157
0.0180584069562
0.0181579168774
0.0182533895588
0.0183443345756
0.0184302752065
0.0185107456828
0.0185852935737
0.01865347746
0.0187148695553
0.0187690535629
0.01881562735
0.01885420086
0.0188843987791
0.0189058585015
0.018918232837
0.0189211881318
0.0189144071557
0.0188975875678
0.0188704452014
0.0188327131514
0.0187841457658
0.0187245187539
0.0186536343468
0.0185713230259
0.0184774505145
0.0183719218306
0.0182546905647
0.0181257651336
0.017985219042
0.0178331964594
0.0176699188897
0.0174956845922
0.0173108665983
0.0171159037968
0.0169112911906
0.0166975756529
0.0164757943595
0.0162468015742
0.0160113553298
0.0157702218314
0.0155241594762
0.0152739118525
0.0150202032097
0.0147637334893
0.0145051761325
0.0142451753006
0.0139843451972
0.0137232685912
0.0134624969618
0.0132025498175
0.0129439153194
0.0126870501388
0.0124323804144
0.0121803020439
0.0119311819399
0.0116853587334
0.0114431443444
0.0112048250855
0.0109706635174
0.0107408998705
0.0105157625449
0.0102954232909
0.0100800402859
0.00986976171527
0.00966472781812
0.00946507225242
0.00927092311381
0.00908240255316
0.00889962550884
0.00872269661975
0.0085517058605
0.00838672217852
0.00822778591262
0.00807489973033
0.00792801934847
0.00778704443789
0.00765181160625
0.00752209063207
0.00739758664119
0.00727795066184
0.00716280333095
0.00705177846254
0.00694459976657
0.00684121505356
0.00674203729788
0.0066483925524
0.00656338553519
0.00649363705263
0.00645289915661
0.00646983526147
0.00660531935868
0.0145078156697
0.0145192775151
0.0145419228808
0.0145753130343
0.0146188188246
0.0146716253249
0.0147327443886
0.0148010421117
0.0148752667233
0.0149540906911
0.0150361531664
0.0151201165914
0.0152047194581
0.0152888375785
0.0153715337855
0.0154521071618
0.0155301216808
0.0156054265204
0.0156781500242
0.0157486825054
0.015817633379
0.0158857813059
0.0159540063394
0.0160232252251
0.0160943206634
0.0161680856077
0.0162451723943
0.016326064776
0.0164110593554
0.0165002701435
0.0165936394142
0.0166909654053
0.0167919288356
0.0168961281209
0.0170031064543
0.0171123817996
0.0172234652288
0.0173358801124
0.0174491695321
0.0175629051842
0.0176766862132
0.0177901411407
0.0179029215167
0.0180146995889
0.0181253120736
0.0182345512965
0.018341897609
0.0184468478903
0.0185489136221
0.0186476220565
0.0187425113834
0.0188331314664
0.0189190397111
0.0189998026037
0.019074992415
0.0191441893285
0.019206978655
0.0192629532412
0.0193117109352
0.0193528571085
0.0193860022881
0.0194107647983
0.0194267686399
0.0194336464021
0.0194310375998
0.0194185921134
0.0193959692922
0.0193628422531
0.019318898125
0.0192638435832
0.0191974066452
0.0191193438314
0.0190294439091
0.018927536973
0.0188135002808
0.018687268994
0.0185488432313
0.0183982986141
0.0182357915643
0.0180615656117
0.0178759504344
0.0176793599142
0.0174722824214
0.017255271204
0.0170289291984
0.0167939058089
0.0165512170009
0.0163019520926
0.0160469488858
0.0157870371178
0.0155230317631
0.0152557265635
0.0149858857573
0.0147142406113
0.0144414860023
0.0141682794241
0.0138952394124
0.0136229458394
0.0133519394413
0.0130827228201
0.0128157606897
0.0125514813297
0.0122902773494
0.0120325074849
0.0117784978099
0.0115285438749
0.011282912385
0.0110418437791
0.0108055545634
0.0105742405391
0.0103480570168
0.0101271236249
0.00991155009517
0.00970143816467
0.00949688291387
0.00929797379282
0.00910479419311
0.0089174200922
0.0087359168111
0.00856033444948
0.00839070125903
0.00822701573347
0.00806923710383
0.00791727544624
0.00777098170139
0.00763013938863
0.007494459073
0.00736357821361
0.00723706889198
0.00711445852889
0.0069952712104
0.0068791050715
0.00676577511039
0.00665558276253
0.00654984167109
0.00645194547443
0.00636962907597
0.00631995840971
0.00634074822082
0.00651737162607
0.0146669812221
0.0146807383618
0.0147079065752
0.0147479418752
0.0148000652886
0.0148632720557
0.0149363527064
0.0150179304879
0.015106499706
0.0152004805213
0.015298273509
0.0153983277794
0.0154992036294
0.0155996410361
0.015698612416
0.0157953711869
0.0158894749537
0.0159807971969
0.0160695093252
0.0161560507496
0.0162410727984
0.0163253777803
0.0164098421908
0.0164953472688
0.0165827067913
0.0166726142858
0.0167655975309
0.0168619987924
0.0169619648699
0.0170654609581
0.0171722892735
0.0172821237199
0.0173945409102
0.0175090586831
0.0176251641196
0.0177423436507
0.0178600997545
0.0179779683
0.0180955230069
0.0182123816947
0.0183282018687
0.0184426802283
0.0185555445346
0.0186665533705
0.018775496128
0.0188825286864
0.0189871813724
0.019089009555
0.0191875820103
0.01928247969
0.0193732901922
0.0194596084724
0.0195410323062
0.0196171636745
0.0196876050338
0.019751961317
0.0198098368132
0.0198608375353
0.019904568471
0.01994063617
0.01996864631
0.0199882065531
0.0199989245601
0.0200004113264
0.0199922799184
0.0199741496082
0.0199456456911
0.0199064047918
0.0198560761534
0.0197943284763
0.0197208530224
0.0196353722461
0.0195376448877
0.0194274763666
0.0193047255862
0.0191693163607
0.01902124464
0.018860588907
0.0186875150018
0.0185022820348
0.0183052412272
0.0180968342327
0.0178775841267
0.017648085885
0.017408991888
0.0171609994556
0.0169048443921
0.0166413817645
0.0163720385258
0.0160976664866
0.0158191455697
0.0155373380071
0.0152530735406
0.0149671458757
0.0146803081064
0.0143932709215
0.014106700553
0.0138212187998
0.0135374023511
0.013255783776
0.0129768517972
0.0127010529156
0.0124287923499
0.0121604361154
0.0118963125096
0.0116367146198
0.0113819023737
0.0111321055685
0.0108875265433
0.0106483434033
0.0104147043633
0.0101866964321
0.00996439502281
0.00974786608435
0.0095371675188
0.00933235027216
0.00913345792161
0.00894052530691
0.00875357521894
0.00857261374212
0.00839762349595
0.00822855556278
0.00806531974418
0.00790777430139
0.00775571537418
0.00760886774439
0.00746687786601
0.00732931168651
0.00719565973998
0.00706535481098
0.00693781044583
0.00681249747759
0.00668909223799
0.00656776869158
0.00644979242589
0.00633877995198
0.00624349423976
0.00618434775969
0.00620914493222
0.00643191752103
0.0148396982177
0.0148560572118
0.0148883491259
0.0149359058086
0.0149977703635
0.0150727131673
0.0151592621212
0.0152557523178
0.0153603783099
0.0154712630331
0.0155865267247
0.0157043691522
0.0158231429629
0.0159414300565
0.0160580971691
0.0161723428465
0.0162837138412
0.0163921067115
0.0164977366194
0.0166010937511
0.0167028735028
0.0168039044954
0.0169050631442
0.0170072000373
0.0171110667107
0.0172172661294
0.0173262125298
0.017438119615
0.0175529986232
0.0176706808412
0.0177908432264
0.017913049423
0.0180367847276
0.0181614976151
0.0182866284858
0.0184116399167
0.0185360317675
0.0186593568676
0.018781222641
0.0189012948312
0.0190192896799
0.019134970257
0.0192481336838
0.0193586042829
0.0194662196602
0.0195713578443
0.0196736553219
0.0197727400965
0.0198682369964
0.0199597743686
0.0200469815422
0.0201294905959
0.020206931668
0.0202789342806
0.0203451232297
0.0204051205587
0.0204585422115
0.0205050005077
0.0205441013325
0.0205754469649
0.0205986337503
0.0206132553464
0.0206189010342
0.02061515962
0.0206016186793
0.0205778694505
0.0205435073725
0.0204981383279
0.0204413808233
0.0203728738742
0.0202922810629
0.02019930017
0.0200936690729
0.0199751768385
0.019843670893
0.019699068575
0.0195413640992
0.0193706385137
0.0191870639144
0.0189909089195
0.018782537311
0.0185624066963
0.0183310602108
0.018089118262
0.0178372644833
0.0175762334198
0.0173067951149
0.0170297433904
0.0167458557884
0.0164566155467
0.016163029214
0.0158660240959
0.0155664893352
0.0152652805602
0.0149632135126
0.0146610592203
0.0143595412429
0.0140593350504
0.0137610666929
0.0134653134007
0.0131726035245
0.0128834179904
0.012598191083
0.0123173124954
0.0120411287921
0.0117699460023
0.0115040317666
0.0112436185826
0.0109889067694
0.0107400682625
0.0104972626354
0.0102605509167
0.0100299799428
0.00980558419541
0.00958738720967
0.00937540282522
0.00916963492389
0.0089700761871
0.00877670485308
0.00858948011542
0.00840833539656
0.00823317030176
0.00806384085196
0.00790014910708
0.00774183227167
0.00758855283597
0.00743989053003
0.00729533848989
0.00715430604023