/*--------------------------------*- C++ -*----------------------------------*\
| =========                 |                                                 |
| \\      /  F ield         | OpenFOAM: The Open Source CFD Toolbox           |
|  \\    /   O peration     | Version:  2212                                  |
|   \\  /    A nd           | Website:  www.openfoam.com                      |
|    \\/     M anipulation  |                                                 |
\*---------------------------------------------------------------------------*/
FoamFile
{
    version     2.0;
    format      ascii;
    arch        "LSB;label=64;scalar=64";
    class       volScalarField;
    location    "1120";
    object      Saa;
}
// * * * * * * * * * * * * * * * * * * * * * * * * * * * * * * * * * * * * * //

dimensions      [1 -3 0 0 0 0 0];

internalField   nonuniform List<scalar> 
1024
(
0.00546313
0.00546315
0.00546317
0.00546322
0.0054633
0.00546341
0.00546356
0.00546374
0.00546395
0.00546418
0.00546441
0.00546461
0.00546477
0.00546484
0.00546479
0.0054646
0.00546429
0.00546392
0.00546354
0.00546317
0.00546279
0.00546243
0.00546208
0.00546175
0.00546147
0.00546123
0.00546105
0.00546091
0.00546082
0.00546076
0.00546073
0.00546072
0.00546314
0.00546315
0.00546317
0.00546322
0.0054633
0.00546341
0.00546357
0.00546375
0.00546397
0.0054642
0.00546442
0.00546463
0.00546479
0.00546486
0.00546481
0.00546462
0.00546431
0.00546394
0.00546356
0.00546318
0.00546281
0.00546245
0.00546209
0.00546177
0.00546148
0.00546124
0.00546105
0.00546092
0.00546082
0.00546076
0.00546073
0.00546072
0.00546314
0.00546315
0.00546318
0.00546323
0.00546331
0.00546343
0.00546358
0.00546378
0.00546399
0.00546423
0.00546446
0.00546468
0.00546485
0.00546492
0.00546487
0.00546467
0.00546435
0.00546398
0.0054636
0.00546322
0.00546285
0.00546248
0.00546213
0.0054618
0.00546151
0.00546126
0.00546107
0.00546093
0.00546083
0.00546077
0.00546074
0.00546072
0.00546314
0.00546316
0.00546319
0.00546324
0.00546333
0.00546345
0.00546361
0.00546381
0.00546404
0.00546428
0.00546453
0.00546476
0.00546494
0.00546503
0.00546497
0.00546476
0.00546443
0.00546404
0.00546366
0.00546327
0.0054629
0.00546253
0.00546217
0.00546184
0.00546154
0.00546129
0.00546109
0.00546094
0.00546084
0.00546078
0.00546075
0.00546073
0.00546315
0.00546317
0.0054632
0.00546325
0.00546334
0.00546347
0.00546364
0.00546385
0.00546409
0.00546435
0.00546462
0.00546488
0.0054651
0.00546519
0.00546513
0.0054649
0.00546454
0.00546414
0.00546374
0.00546335
0.00546297
0.00546259
0.00546223
0.0054619
0.00546159
0.00546133
0.00546112
0.00546097
0.00546086
0.00546079
0.00546076
0.00546074
0.00546316
0.00546318
0.00546321
0.00546327
0.00546336
0.00546349
0.00546367
0.00546389
0.00546415
0.00546443
0.00546475
0.00546506
0.00546532
0.00546544
0.00546536
0.0054651
0.0054647
0.00546427
0.00546384
0.00546344
0.00546304
0.00546267
0.0054623
0.00546196
0.00546164
0.00546137
0.00546116
0.00546099
0.00546088
0.00546081
0.00546077
0.00546076
0.00546318
0.00546319
0.00546322
0.00546328
0.00546337
0.00546351
0.00546369
0.00546393
0.00546421
0.00546454
0.00546491
0.00546529
0.00546562
0.00546577
0.00546568
0.00546537
0.00546492
0.00546444
0.00546397
0.00546354
0.00546313
0.00546274
0.00546236
0.00546201
0.00546169
0.00546142
0.00546119
0.00546102
0.0054609
0.00546083
0.00546079
0.00546077
0.0054632
0.00546321
0.00546324
0.0054633
0.00546339
0.00546352
0.00546371
0.00546396
0.00546428
0.00546466
0.0054651
0.00546559
0.005466
0.00546621
0.00546611
0.00546574
0.00546521
0.00546465
0.00546413
0.00546364
0.0054632
0.00546279
0.00546241
0.00546205
0.00546173
0.00546144
0.00546122
0.00546104
0.00546092
0.00546084
0.0054608
0.00546079
0.00546324
0.00546325
0.00546327
0.00546332
0.00546341
0.00546354
0.00546374
0.005464
0.00546435
0.0054648
0.00546535
0.00546596
0.00546649
0.00546676
0.00546664
0.0054662
0.00546558
0.00546492
0.00546431
0.00546375
0.00546326
0.00546282
0.00546242
0.00546206
0.00546173
0.00546145
0.00546122
0.00546105
0.00546093
0.00546085
0.00546081
0.00546079
0.00546333
0.00546333
0.00546335
0.00546339
0.00546347
0.00546359
0.00546379
0.00546408
0.00546448
0.00546501
0.00546568
0.00546643
0.00546709
0.00546743
0.00546731
0.00546679
0.00546605
0.00546527
0.00546453
0.00546387
0.0054633
0.00546281
0.00546239
0.00546201
0.00546169
0.00546141
0.00546119
0.00546103
0.00546091
0.00546084
0.0054608
0.00546078
0.00546354
0.00546354
0.00546354
0.00546357
0.00546363
0.00546375
0.00546395
0.00546426
0.00546472
0.00546536
0.00546617
0.00546708
0.00546787
0.00546827
0.00546814
0.00546755
0.0054667
0.00546576
0.00546485
0.00546404
0.00546335
0.00546278
0.00546231
0.00546192
0.0054616
0.00546133
0.00546113
0.00546098
0.00546087
0.00546081
0.00546077
0.00546075
0.00546401
0.00546401
0.005464
0.00546402
0.00546407
0.00546418
0.00546439
0.00546473
0.00546526
0.005466
0.00546695
0.005468
0.00546889
0.00546933
0.0054692
0.00546858
0.00546764
0.00546653
0.0054654
0.00546436
0.00546348
0.00546277
0.00546222
0.00546179
0.00546146
0.00546122
0.00546103
0.00546091
0.00546082
0.00546077
0.00546074
0.00546073
0.00546498
0.00546497
0.00546496
0.00546497
0.00546502
0.00546513
0.00546536
0.00546575
0.00546635
0.00546718
0.00546823
0.00546935
0.00547029
0.00547076
0.00547068
0.00547013
0.00546919
0.00546794
0.00546655
0.0054652
0.00546401
0.00546305
0.00546232
0.00546179
0.00546141
0.00546116
0.005461
0.00546091
0.00546087
0.00546086
0.00546086
0.00546087
0.0054666
0.00546659
0.0054666
0.00546663
0.0054667
0.00546684
0.00546711
0.00546755
0.0054682
0.00546908
0.00547016
0.00547131
0.00547227
0.00547283
0.00547295
0.00547269
0.00547198
0.00547078
0.00546927
0.00546764
0.00546606
0.00546468
0.00546356
0.00546273
0.00546216
0.00546182
0.00546166
0.00546163
0.00546167
0.00546174
0.00546182
0.00546186
0.00546877
0.00546878
0.00546881
0.00546888
0.005469
0.00546921
0.00546956
0.00547008
0.00547082
0.00547179
0.00547293
0.00547413
0.00547521
0.00547607
0.00547671
0.00547711
0.00547709
0.00547648
0.00547539
0.00547395
0.00547234
0.0054707
0.00546918
0.00546786
0.00546684
0.00546613
0.00546571
0.00546554
0.00546555
0.00546565
0.00546576
0.00546583
0.00547103
0.00547105
0.00547111
0.00547124
0.00547146
0.00547181
0.00547234
0.00547308
0.00547406
0.00547524
0.00547657
0.005478
0.00547947
0.00548094
0.0054824
0.0054838
0.00548493
0.00548555
0.00548565
0.00548531
0.0054846
0.00548361
0.00548243
0.00548114
0.00547987
0.00547868
0.00547767
0.0054769
0.00547641
0.00547614
0.00547604
0.00547602
0.00547273
0.00547276
0.00547284
0.00547301
0.0054733
0.00547376
0.00547445
0.0054754
0.00547661
0.00547808
0.00547975
0.00548158
0.00548351
0.00548551
0.00548753
0.00548951
0.00549125
0.00549256
0.00549351
0.00549419
0.00549463
0.0054948
0.00549469
0.00549431
0.00549368
0.00549287
0.00549195
0.00549106
0.0054903
0.00548974
0.00548942
0.00548929
0.00547383
0.00547386
0.00547394
0.00547412
0.00547443
0.00547494
0.00547569
0.00547673
0.00547808
0.0054797
0.00548155
0.00548355
0.00548563
0.0054877
0.00548966
0.00549138
0.00549269
0.00549357
0.00549428
0.00549495
0.00549561
0.00549624
0.00549678
0.0054972
0.00549745
0.00549752
0.00549741
0.00549716
0.00549684
0.00549654
0.00549633
0.00549623
0.00547452
0.00547455
0.00547463
0.0054748
0.0054751
0.00547559
0.00547633
0.00547736
0.00547869
0.00548032
0.00548218
0.00548418
0.00548622
0.00548817
0.00548991
0.00549128
0.00549211
0.00549256
0.00549297
0.0054935
0.00549416
0.00549491
0.00549567
0.00549637
0.00549696
0.00549741
0.00549772
0.00549789
0.00549795
0.00549794
0.00549791
0.00549789
0.00547497
0.005475
0.00547507
0.00547522
0.0054755
0.00547594
0.00547661
0.00547756
0.00547881
0.00548034
0.0054821
0.00548399
0.00548591
0.00548772
0.00548927
0.00549042
0.00549103
0.00549132
0.00549163
0.00549213
0.00549285
0.00549374
0.00549472
0.00549566
0.00549649
0.00549715
0.00549763
0.00549794
0.00549812
0.0054982
0.00549823
0.00549824
0.00547528
0.00547531
0.00547537
0.0054755
0.00547573
0.00547612
0.00547671
0.00547755
0.00547866
0.00548004
0.00548163
0.00548336
0.00548512
0.00548677
0.0054882
0.00548927
0.00548989
0.00549023
0.00549059
0.00549114
0.0054919
0.00549286
0.00549394
0.00549504
0.00549606
0.00549692
0.00549756
0.00549799
0.00549825
0.00549838
0.00549843
0.00549845
0.00547556
0.00547558
0.00547562
0.00547572
0.00547591
0.00547623
0.00547673
0.00547745
0.00547841
0.00547961
0.00548102
0.00548256
0.00548414
0.00548566
0.00548703
0.00548813
0.00548888
0.00548941
0.00548993
0.00549056
0.00549137
0.00549234
0.00549345
0.00549462
0.00549574
0.00549672
0.0054975
0.00549804
0.00549838
0.00549856
0.00549863
0.00549865
0.00547592
0.00547592
0.00547594
0.00547599
0.00547612
0.00547637
0.00547677
0.00547737
0.00547819
0.00547923
0.00548046
0.00548182
0.00548326
0.0054847
0.00548605
0.00548725
0.00548821
0.00548897
0.00548966
0.00549039
0.00549123
0.0054922
0.00549328
0.00549443
0.00549557
0.00549661
0.00549747
0.0054981
0.00549851
0.00549873
0.00549882
0.00549884
0.00547649
0.00547647
0.00547644
0.00547644
0.00547649
0.00547665
0.00547697
0.00547747
0.00547817
0.00547908
0.00548018
0.00548143
0.00548278
0.00548418
0.00548556
0.00548687
0.00548803
0.00548898
0.00548981
0.00549061
0.00549146
0.00549239
0.0054934
0.00549448
0.00549557
0.00549659
0.00549748
0.00549817
0.00549863
0.00549889
0.005499
0.00549903
0.00547739
0.00547733
0.00547725
0.00547718
0.00547716
0.00547725
0.00547749
0.00547793
0.00547857
0.00547942
0.00548045
0.00548164
0.00548295
0.00548433
0.00548573
0.00548713
0.00548841
0.00548948
0.00549038
0.0054912
0.00549201
0.00549285
0.00549376
0.00549473
0.00549572
0.00549668
0.00549755
0.00549825
0.00549875
0.00549904
0.00549917
0.00549921
0.00547868
0.00547859
0.00547846
0.00547833
0.00547827
0.00547833
0.00547856
0.00547899
0.00547963
0.00548047
0.00548148
0.00548264
0.00548391
0.00548525
0.00548664
0.00548804
0.00548934
0.00549042
0.00549131
0.00549208
0.00549282
0.00549356
0.00549434
0.00549517
0.00549602
0.00549688
0.00549768
0.00549836
0.00549886
0.00549918
0.00549933
0.00549937
0.00548042
0.0054803
0.00548014
0.00548001
0.00547997
0.00548007
0.00548035
0.00548083
0.0054815
0.00548234
0.00548333
0.00548444
0.00548564
0.00548689
0.00548818
0.00548949
0.00549071
0.00549171
0.00549252
0.0054932
0.00549383
0.00549445
0.00549509
0.00549576
0.00549646
0.00549718
0.00549788
0.0054985
0.00549898
0.00549931
0.00549947
0.00549952
0.00548263
0.00548249
0.00548235
0.0054823
0.00548237
0.00548259
0.00548296
0.0054835
0.00548418
0.00548499
0.00548591
0.00548691
0.00548797
0.00548907
0.00549019
0.00549132
0.00549237
0.00549322
0.0054939
0.00549447
0.00549498
0.00549547
0.00549596
0.00549647
0.00549702
0.00549758
0.00549815
0.00549868
0.00549912
0.00549943
0.00549959
0.00549964
0.00548534
0.00548522
0.00548518
0.00548529
0.00548553
0.00548587
0.00548632
0.00548686
0.0054875
0.00548821
0.00548899
0.00548982
0.00549068
0.00549156
0.00549245
0.00549334
0.00549416
0.00549483
0.00549536
0.0054958
0.00549618
0.00549654
0.0054969
0.00549727
0.00549766
0.00549807
0.0054985
0.00549891
0.00549927
0.00549954
0.0054997
0.00549975
0.00548862
0.00548857
0.00548871
0.00548899
0.00548935
0.00548974
0.00549018
0.00549065
0.00549116
0.0054917
0.00549228
0.00549289
0.00549351
0.00549413
0.00549476
0.00549539
0.00549597
0.00549644
0.00549681
0.00549711
0.00549737
0.00549761
0.00549785
0.00549809
0.00549834
0.00549861
0.0054989
0.00549919
0.00549945
0.00549966
0.00549979
0.00549984
0.00549259
0.00549268
0.00549296
0.00549327
0.00549359
0.00549391
0.00549422
0.00549453
0.00549485
0.00549519
0.00549554
0.0054959
0.00549626
0.00549663
0.00549699
0.00549736
0.00549769
0.00549796
0.00549818
0.00549835
0.0054985
0.00549863
0.00549876
0.00549889
0.00549903
0.00549918
0.00549934
0.0054995
0.00549966
0.00549979
0.00549988
0.00549992
0.00549741
0.00549748
0.00549762
0.00549776
0.00549789
0.00549801
0.00549812
0.00549823
0.00549834
0.00549845
0.00549856
0.00549868
0.0054988
0.00549892
0.00549904
0.00549915
0.00549926
0.00549935
0.00549942
0.00549947
0.00549952
0.00549956
0.0054996
0.00549965
0.00549969
0.00549973
0.00549978
0.00549983
0.00549988
0.00549993
0.00549996
0.00549998
)
;

boundaryField
{
    movingWall
    {
        type            fixedValue;
        value           uniform 0.0055;
    }
    fixedWalls
    {
        type            zeroGradient;
    }
    floor
    {
        type            zeroGradient;
    }
    frontAndBack
    {
        type            empty;
    }
}


// ************************************************************************* //
