/*--------------------------------*- C++ -*----------------------------------*\
| =========                 |                                                 |
| \\      /  F ield         | OpenFOAM: The Open Source CFD Toolbox           |
|  \\    /   O peration     | Version:  2212                                  |
|   \\  /    A nd           | Website:  www.openfoam.com                      |
|    \\/     M anipulation  |                                                 |
\*---------------------------------------------------------------------------*/
FoamFile
{
    version     2.0;
    format      ascii;
    arch        "LSB;label=64;scalar=64";
    class       volScalarField;
    location    "1120";
    object      Sch4;
}
// * * * * * * * * * * * * * * * * * * * * * * * * * * * * * * * * * * * * * //

dimensions      [1 -3 0 0 0 0 0];

internalField   nonuniform List<scalar> 
1024
(
0.0345812
0.0345857
0.0345968
0.034617
0.0346489
0.0346951
0.034757
0.0348342
0.0349237
0.0350208
0.0351196
0.0352127
0.0352898
0.0353361
0.0353376
0.0352874
0.035188
0.0350622
0.034929
0.0347935
0.034658
0.0345249
0.0343974
0.0342803
0.0341779
0.0340933
0.0340277
0.0339799
0.0339475
0.0339272
0.0339161
0.0339116
0.0345818
0.0345864
0.0345977
0.0346182
0.0346508
0.0346979
0.0347608
0.034839
0.0349294
0.0350273
0.035127
0.035221
0.035299
0.0353458
0.0353471
0.0352963
0.0351964
0.0350701
0.0349365
0.0348006
0.0346648
0.0345313
0.0344034
0.0342856
0.0341823
0.0340968
0.0340303
0.0339818
0.0339488
0.0339282
0.033917
0.0339123
0.0345832
0.034588
0.0345997
0.0346209
0.0346547
0.0347034
0.0347682
0.0348483
0.0349407
0.0350406
0.0351428
0.03524
0.0353213
0.0353697
0.0353703
0.0353177
0.0352157
0.0350877
0.0349527
0.0348158
0.0346792
0.0345449
0.0344159
0.0342968
0.0341917
0.0341043
0.034036
0.033986
0.0339519
0.0339306
0.0339189
0.0339142
0.0345855
0.0345905
0.0346027
0.0346249
0.0346602
0.0347109
0.0347782
0.0348611
0.0349568
0.0350608
0.0351684
0.0352725
0.0353611
0.0354132
0.0354126
0.0353558
0.0352492
0.0351172
0.0349791
0.0348399
0.0347016
0.0345658
0.0344352
0.0343139
0.0342062
0.0341159
0.0340449
0.0339926
0.0339569
0.0339345
0.0339223
0.0339173
0.0345887
0.0345938
0.0346065
0.0346297
0.0346665
0.0347194
0.0347896
0.0348761
0.0349766
0.0350875
0.0352049
0.035322
0.0354237
0.0354831
0.0354805
0.0354162
0.0353006
0.035161
0.0350168
0.0348731
0.0347315
0.0345933
0.0344604
0.0343363
0.0342253
0.0341313
0.0340568
0.0340017
0.0339639
0.0339402
0.0339272
0.033922
0.0345926
0.0345979
0.0346108
0.0346347
0.0346726
0.0347273
0.0348004
0.0348913
0.0349986
0.0351203
0.0352537
0.0353914
0.0355142
0.0355858
0.0355814
0.0355053
0.0353749
0.035222
0.0350672
0.0349153
0.034768
0.0346257
0.0344894
0.0343619
0.0342471
0.0341492
0.0340709
0.0340126
0.0339724
0.0339472
0.0339335
0.0339279
0.0345976
0.0346027
0.0346156
0.0346393
0.0346776
0.0347334
0.0348089
0.0349049
0.0350216
0.0351588
0.0353156
0.0354837
0.0356371
0.0357273
0.0357222
0.0356299
0.0354775
0.0353038
0.0351317
0.0349663
0.0348093
0.0346602
0.034519
0.0343875
0.0342688
0.0341671
0.0340852
0.0340239
0.0339816
0.033955
0.0339405
0.0339347
0.0346046
0.0346094
0.0346214
0.0346442
0.0346815
0.0347372
0.0348146
0.0349164
0.035045
0.0352032
0.0353922
0.0356017
0.0357962
0.0359128
0.0359093
0.0357971
0.0356149
0.035411
0.0352124
0.0350258
0.034853
0.0346932
0.034545
0.0344086
0.0342862
0.0341814
0.0340969
0.0340335
0.0339897
0.0339622
0.0339471
0.0339411
0.0346178
0.0346217
0.0346321
0.0346527
0.0346876
0.0347418
0.0348202
0.0349282
0.0350717
0.0352573
0.035488
0.0357507
0.0359971
0.0361474
0.0361485
0.0360139
0.0357948
0.03555
0.035313
0.0350941
0.034897
0.0347207
0.0345622
0.03442
0.0342944
0.0341879
0.0341025
0.0340386
0.0339945
0.0339668
0.0339516
0.0339455
0.0346485
0.0346509
0.0346586
0.0346754
0.0347064
0.0347578
0.0348367
0.034952
0.0351139
0.035334
0.0356169
0.0359439
0.0362509
0.0364399
0.0364476
0.0362905
0.0360297
0.0357323
0.0354414
0.035175
0.0349413
0.0347398
0.0345663
0.0344166
0.0342885
0.0341822
0.0340983
0.0340362
0.0339935
0.0339668
0.0339521
0.0339461
0.0347247
0.0347249
0.0347285
0.03474
0.0347658
0.0348138
0.034894
0.0350192
0.0352049
0.0354674
0.0358113
0.0362093
0.0365797
0.0368071
0.0368225
0.036647
0.0363442
0.0359829
0.0356185
0.0352828
0.0349934
0.0347531
0.0345565
0.034396
0.0342656
0.0341617
0.0340822
0.0340246
0.0339856
0.0339615
0.0339484
0.0339431
0.0349027
0.0349007
0.0349
0.0349061
0.0349269
0.034973
0.0350578
0.0351984
0.0354143
0.0357242
0.0361305
0.0365959
0.037022
0.0372812
0.0373081
0.037129
0.0367952
0.036363
0.0359024
0.0354661
0.03509
0.0347858
0.0345488
0.0343681
0.034232
0.034131
0.0340585
0.0340089
0.0339774
0.0339595
0.0339509
0.0339479
0.0352693
0.0352667
0.0352647
0.0352695
0.0352902
0.03534
0.0354356
0.0355974
0.0358469
0.0362014
0.0366589
0.0371737
0.0376361
0.0379217
0.0379804
0.0378391
0.0375127
0.0370247
0.0364549
0.0358818
0.0353702
0.0349524
0.0346325
0.0344007
0.0342407
0.0341352
0.0340704
0.0340354
0.0340215
0.0340205
0.0340251
0.0340294
0.0358993
0.0358993
0.0359029
0.035916
0.0359479
0.0360126
0.0361282
0.0363165
0.0365983
0.0369892
0.0374814
0.0380239
0.0385109
0.0388446
0.0389986
0.0389871
0.0387688
0.0383151
0.0376969
0.0370044
0.0363229
0.0357189
0.0352259
0.0348571
0.0346086
0.0344612
0.0343926
0.0343805
0.0344029
0.0344395
0.0344734
0.0344932
0.0367626
0.036768
0.0367831
0.0368142
0.0368711
0.0369679
0.0371237
0.0373607
0.037698
0.0381449
0.0386847
0.0392648
0.0398097
0.0402718
0.0406456
0.0409251
0.0410243
0.0408552
0.0404434
0.0398565
0.0391698
0.0384587
0.0377833
0.0371959
0.0367375
0.0364156
0.0362271
0.0361525
0.0361575
0.036202
0.036251
0.0362812
0.0376773
0.0376887
0.0377188
0.0377782
0.0378811
0.0380453
0.0382906
0.0386344
0.0390839
0.0396311
0.0402544
0.0409266
0.041625
0.0423388
0.0430658
0.0437951
0.0444358
0.0448566
0.0450337
0.0449914
0.0447576
0.0443677
0.0438644
0.0432963
0.0427151
0.0421642
0.0416907
0.04133
0.0410938
0.040967
0.0409168
0.0409067
0.0383613
0.0383751
0.0384132
0.0384904
0.0386252
0.0388388
0.0391516
0.0395789
0.0401256
0.0407839
0.0415352
0.0423581
0.0432358
0.0441583
0.0451167
0.0460999
0.0470339
0.0478235
0.0484748
0.0490043
0.049399
0.0496402
0.0497132
0.0496146
0.0493586
0.0489818
0.0485379
0.0480913
0.0477051
0.0474223
0.0472557
0.047188
0.0387779
0.0387922
0.0388322
0.0389136
0.0390567
0.0392846
0.0396196
0.0400781
0.0406651
0.0413709
0.0421731
0.0430428
0.0439501
0.0448649
0.0457527
0.0465785
0.0472815
0.0478735
0.0484565
0.0490725
0.0497024
0.0503041
0.0508301
0.0512386
0.0515018
0.0516109
0.0515792
0.0514428
0.0512552
0.0510743
0.0509439
0.0508814
0.0390213
0.0390355
0.0390741
0.039152
0.0392884
0.0395061
0.0398279
0.0402717
0.0408438
0.0415348
0.0423193
0.0431607
0.0440168
0.0448414
0.0455826
0.0461897
0.0466159
0.0469515
0.047367
0.0479277
0.048616
0.0493769
0.0501383
0.0508297
0.0513983
0.0518157
0.0520789
0.0522062
0.0522323
0.0522014
0.0521565
0.0521278
0.0391622
0.0391755
0.0392109
0.0392814
0.0394043
0.0396002
0.0398913
0.0402953
0.0408202
0.0414583
0.0421848
0.042961
0.0437399
0.04447
0.045096
0.0455665
0.04585
0.0460674
0.0463961
0.0469153
0.0476266
0.0484886
0.0494241
0.0503366
0.0511394
0.0517747
0.0522223
0.0524951
0.0526289
0.0526703
0.0526663
0.0526538
0.0392514
0.0392625
0.0392925
0.0393526
0.0394581
0.0396275
0.0398806
0.0402345
0.0406973
0.0412635
0.0419117
0.0426065
0.043304
0.0439567
0.0445159
0.0449404
0.045212
0.0454432
0.045775
0.0462814
0.0469819
0.0478605
0.0488631
0.0498996
0.0508699
0.0516871
0.0523017
0.052707
0.0529317
0.053026
0.053046
0.0530403
0.0393433
0.0393498
0.0393699
0.0394141
0.0394968
0.0396351
0.0398469
0.0401475
0.0405446
0.0410347
0.041601
0.0422153
0.0428421
0.0434437
0.0439836
0.044435
0.0447867
0.0451141
0.0455099
0.0460367
0.0467242
0.0475772
0.0485678
0.0496322
0.0506798
0.051613
0.0523571
0.0528793
0.0531916
0.053339
0.0533827
0.0533826
0.0395058
0.0395037
0.0395064
0.0395252
0.0395758
0.0396759
0.0398434
0.0400921
0.0404294
0.0408536
0.041353
0.0419074
0.0424911
0.0430773
0.0436417
0.0441709
0.0446505
0.045104
0.0455827
0.0461403
0.0468129
0.0476201
0.0485542
0.0495766
0.0506191
0.051595
0.0524182
0.0530308
0.053421
0.0536207
0.0536895
0.0536957
0.0398162
0.0398005
0.0397766
0.0397589
0.0397671
0.0398229
0.0399463
0.0401521
0.0404476
0.0408323
0.0412976
0.0418289
0.0424078
0.0430149
0.0436345
0.044262
0.0448712
0.0454366
0.0459809
0.0465545
0.0471973
0.0479387
0.0487876
0.0497254
0.050705
0.0516582
0.0525051
0.0531734
0.053626
0.0538742
0.0539692
0.0539826
0.0403478
0.0403133
0.0402556
0.0401954
0.0401594
0.0401756
0.0402681
0.0404538
0.040739
0.0411217
0.0415927
0.0421384
0.0427425
0.0433896
0.0440678
0.0447768
0.0454773
0.0461092
0.0466806
0.0472413
0.047833
0.0484897
0.0492307
0.0500538
0.0509317
0.0518144
0.0526346
0.0533191
0.0538125
0.0541019
0.0542229
0.0542446
0.0411564
0.0410995
0.0410081
0.0409141
0.0408527
0.0408559
0.04095
0.0411515
0.0414625
0.0418757
0.042378
0.0429536
0.0435861
0.0442614
0.0449695
0.0457119
0.0464413
0.0470817
0.0476359
0.0481529
0.0486736
0.049232
0.0498519
0.0505416
0.0512902
0.0520668
0.0528193
0.0534809
0.053988
0.0543066
0.0544516
0.0544826
0.0422756
0.0421968
0.0420859
0.0419903
0.0419479
0.0419861
0.0421253
0.042376
0.0427329
0.0431831
0.0437107
0.0442985
0.0449307
0.0455947
0.0462823
0.046996
0.0476881
0.0482825
0.0487812
0.0492301
0.0496663
0.0501204
0.0506159
0.0511661
0.0517713
0.0524168
0.0530684
0.0536714
0.054162
0.0544925
0.0546562
0.0546969
0.0437251
0.0436325
0.0435367
0.0434942
0.0435289
0.0436491
0.043862
0.0441686
0.0445584
0.0450185
0.0455341
0.0460905
0.0466744
0.0472759
0.0478892
0.0485171
0.0491178
0.0496255
0.0500425
0.0504082
0.050754
0.051105
0.0514815
0.0518972
0.0523582
0.0528611
0.0533882
0.0539015
0.0543451
0.0546655
0.0548385
0.0548881
0.0455276
0.0454429
0.0454171
0.0454842
0.0456319
0.0458446
0.046118
0.0464477
0.0468265
0.0472469
0.0476994
0.0481739
0.0486613
0.0491552
0.0496517
0.0501537
0.0506285
0.0510255
0.051347
0.0516238
0.05188
0.0521347
0.0524033
0.0526975
0.0530247
0.0533871
0.0537791
0.0541794
0.0545475
0.0548331
0.0550013
0.0550566
0.04773
0.0476957
0.0477911
0.0479768
0.0482078
0.0484632
0.0487385
0.0490325
0.049345
0.049675
0.0500191
0.0503723
0.0507294
0.0510867
0.0514422
0.0517981
0.0521321
0.0524093
0.0526319
0.0528211
0.0529934
0.0531617
0.0533367
0.0535266
0.0537373
0.0539726
0.0542325
0.0545089
0.0547784
0.0550038
0.055149
0.0552034
0.0504223
0.0504853
0.0506722
0.0508836
0.051096
0.0513028
0.0515046
0.0517041
0.0519052
0.0521103
0.0523196
0.0525313
0.0527432
0.0529537
0.0531617
0.0533685
0.0535616
0.0537213
0.0538489
0.0539564
0.0540532
0.0541467
0.0542427
0.0543459
0.0544599
0.0545874
0.0547296
0.0548849
0.0550437
0.0551863
0.0552873
0.0553306
0.0537158
0.0537662
0.0538631
0.0539557
0.0540414
0.0541206
0.0541943
0.0542643
0.0543329
0.0544015
0.0544706
0.05454
0.0546091
0.0546774
0.0547447
0.0548115
0.0548736
0.0549249
0.0549657
0.055
0.0550308
0.0550602
0.0550902
0.0551224
0.0551576
0.0551969
0.0552409
0.0552892
0.0553399
0.0553875
0.0554241
0.0554419
)
;

boundaryField
{
    movingWall
    {
        type            fixedValue;
        value           uniform 0.0555;
    }
    fixedWalls
    {
        type            zeroGradient;
    }
    floor
    {
        type            zeroGradient;
    }
    frontAndBack
    {
        type            empty;
    }
}


// ************************************************************************* //
