/*--------------------------------*- C++ -*----------------------------------*\
| =========                 |                                                 |
| \\      /  F ield         | OpenFOAM: The Open Source CFD Toolbox           |
|  \\    /   O peration     | Version:  2206                                  |
|   \\  /    A nd           | Website:  www.openfoam.com                      |
|    \\/     M anipulation  |                                                 |
\*---------------------------------------------------------------------------*/
FoamFile
{
    version     2.0;
    format      ascii;
    arch        "LSB;label=64;scalar=64";
    class       volScalarField;
    location    "4/water";
    object      alpha.gas;
}
// * * * * * * * * * * * * * * * * * * * * * * * * * * * * * * * * * * * * * //

dimensions      [0 0 0 0 0 0 0];

internalField   nonuniform List<scalar> 
23300
(
1e-15
1e-15
1e-15
1e-15
1e-15
1e-15
1e-15
1e-15
1e-15
1e-15
1e-15
1e-15
1e-15
1e-15
1e-15
1e-15
1e-15
1e-15
1e-15
1e-15
1e-15
1e-15
1e-15
1e-15
1e-15
1e-15
1e-15
1e-15
1e-15
1e-15
1e-15
1e-15
1e-15
1e-15
1e-15
1e-15
1e-15
1e-15
1e-15
1e-15
1e-15
1e-15
1e-15
1e-15
1e-15
1e-15
1e-15
1e-15
1e-15
1e-15
1e-15
1e-15
1e-15
1e-15
1e-15
1e-15
1e-15
1e-15
1e-15
1e-15
1e-15
1e-15
1e-15
1e-15
1e-15
1e-15
1e-15
1e-15
1e-15
1e-15
1e-15
1e-15
1e-15
1e-15
1e-15
1e-15
1e-15
1e-15
1e-15
1e-15
1e-15
1e-15
1e-15
1e-15
1e-15
1e-15
1e-15
1e-15
1e-15
1e-15
1e-15
1e-15
1e-15
1e-15
1e-15
1e-15
1e-15
1e-15
1e-15
1e-15
1e-15
1e-15
1e-15
1e-15
1e-15
1e-15
1e-15
1e-15
1e-15
1e-15
1e-15
1e-15
1e-15
1e-15
1e-15
1e-15
1e-15
1e-15
1e-15
1e-15
1e-15
1e-15
1e-15
1e-15
1e-15
1e-15
1e-15
1e-15
1e-15
1e-15
1e-15
1e-15
1e-15
1e-15
1e-15
1e-15
1e-15
1e-15
1e-15
1e-15
1e-15
1e-15
1e-15
1e-15
1e-15
1e-15
1e-15
1e-15
1e-15
1e-15
1e-15
1e-15
1e-15
1e-15
1e-15
1e-15
1e-15
1e-15
1e-15
1e-15
1e-15
1e-15
1e-15
1e-15
1e-15
1e-15
1e-15
1e-15
1e-15
1e-15
1e-15
1e-15
1e-15
1e-15
1e-15
1e-15
1e-15
1e-15
1e-15
1e-15
1e-15
1e-15
1e-15
1e-15
1e-15
1e-15
1e-15
1e-15
1e-15
1e-15
1e-15
1e-15
1e-15
1e-15
1e-15
1e-15
1e-15
1e-15
1e-15
1e-15
1e-15
1e-15
1e-15
1e-15
1e-15
1e-15
1e-15
1e-15
1e-15
1e-15
1e-15
1e-15
1e-15
1e-15
1e-15
1e-15
1e-15
1e-15
1e-15
1e-15
1e-15
1e-15
1e-15
1e-15
1e-15
1e-15
1e-15
1e-15
1e-15
1e-15
1e-15
1e-15
1e-15
1e-15
1e-15
1e-15
1e-15
1e-15
1e-15
1e-15
1e-15
1e-15
1e-15
1e-15
1e-15
1e-15
1e-15
1e-15
1e-15
1e-15
1e-15
1e-15
1e-15
1e-15
1e-15
1e-15
1e-15
1e-15
1e-15
1e-15
1e-15
1e-15
1e-15
1e-15
1e-15
1e-15
1e-15
1e-15
1e-15
1e-15
1e-15
1e-15
1e-15
1e-15
1e-15
1e-15
1e-15
1e-15
1e-15
1e-15
1e-15
1e-15
1e-15
1e-15
1e-15
1e-15
1e-15
1e-15
1e-15
1e-15
1e-15
1e-15
1e-15
1e-15
1e-15
1e-15
1e-15
1e-15
1e-15
1e-15
1e-15
1e-15
1e-15
1e-15
1e-15
1e-15
1e-15
1e-15
1e-15
1e-15
1e-15
1e-15
1e-15
1e-15
1e-15
1e-15
1e-15
1e-15
1e-15
1e-15
1e-15
1e-15
1e-15
1e-15
1e-15
1e-15
1e-15
1e-15
1e-15
1e-15
1e-15
1e-15
1e-15
1e-15
1e-15
1e-15
1e-15
1e-15
1e-15
1e-15
1e-15
1e-15
1e-15
1e-15
1e-15
1e-15
1e-15
1e-15
1e-15
1e-15
1e-15
1e-15
1e-15
1e-15
1e-15
1e-15
1e-15
1e-15
1e-15
1e-15
1e-15
1e-15
1e-15
1e-15
1e-15
1e-15
1e-15
1e-15
1e-15
1e-15
1e-15
1e-15
1e-15
1e-15
1e-15
1e-15
1e-15
1e-15
1e-15
1e-15
1e-15
1e-15
1e-15
1e-15
1e-15
1e-15
1e-15
1e-15
1e-15
1e-15
1e-15
1e-15
1e-15
1e-15
1e-15
1e-15
1e-15
1e-15
1e-15
1e-15
1e-15
1e-15
1e-15
1e-15
1e-15
1e-15
1e-15
1e-15
1e-15
1e-15
1e-15
1e-15
1e-15
1e-15
1e-15
1e-15
1e-15
1e-15
1e-15
1e-15
1e-15
1e-15
1e-15
1e-15
1e-15
1e-15
1e-15
1e-15
1e-15
1e-15
1e-15
1e-15
1e-15
1e-15
1e-15
1e-15
1e-15
1e-15
1e-15
1e-15
1e-15
1e-15
1e-15
1e-15
1e-15
1e-15
1e-15
1e-15
1e-15
1e-15
1e-15
1e-15
1e-15
1e-15
1e-15
1e-15
1e-15
1e-15
1e-15
1e-15
1e-15
1e-15
1e-15
1e-15
1e-15
1e-15
1e-15
1e-15
1e-15
1e-15
1e-15
1e-15
1e-15
1e-15
1e-15
1e-15
1e-15
1e-15
1e-15
1e-15
1e-15
1e-15
1e-15
1e-15
1e-15
1e-15
1e-15
1e-15
1e-15
1e-15
1e-15
1e-15
1e-15
1e-15
1e-15
1e-15
1e-15
1e-15
1e-15
1e-15
1e-15
1e-15
1e-15
1e-15
1e-15
1e-15
1e-15
1e-15
1e-15
1e-15
1e-15
1e-15
1e-15
1e-15
1e-15
1e-15
1e-15
1e-15
1e-15
1e-15
1e-15
1e-15
1e-15
1e-15
1e-15
1e-15
1e-15
1e-15
1e-15
1e-15
1e-15
1e-15
1e-15
1e-15
1e-15
1e-15
1e-15
1e-15
1e-15
1e-15
1e-15
1e-15
1e-15
1e-15
1e-15
1e-15
1e-15
1e-15
1e-15
1e-15
1e-15
1e-15
1e-15
1e-15
1e-15
1e-15
1e-15
1e-15
1e-15
1e-15
1.01220663212e-15
1e-15
1e-15
1e-15
1e-15
1e-15
1e-15
1e-15
1e-15
1e-15
1e-15
1e-15
1e-15
1e-15
1e-15
1e-15
1e-15
1e-15
1e-15
1e-15
1e-15
1e-15
1e-15
1e-15
1e-15
1e-15
1e-15
1e-15
1e-15
1e-15
1e-15
1e-15
1e-15
1e-15
1e-15
1e-15
1e-15
1e-15
1e-15
1e-15
1e-15
1e-15
1e-15
1e-15
1e-15
1e-15
1e-15
1e-15
1e-15
1e-15
1e-15
1e-15
1e-15
1e-15
1e-15
1e-15
1e-15
1e-15
1e-15
1e-15
1e-15
1e-15
1e-15
1e-15
1e-15
1e-15
1e-15
1e-15
1e-15
1e-15
1e-15
1e-15
1e-15
1e-15
1e-15
1e-15
1e-15
1e-15
1e-15
1e-15
1e-15
1e-15
1e-15
1e-15
1e-15
1e-15
1e-15
1e-15
1e-15
1e-15
1e-15
1e-15
1e-15
1e-15
1e-15
1e-15
1e-15
1e-15
1e-15
1e-15
1e-15
1e-15
1e-15
1e-15
1e-15
1e-15
1e-15
1e-15
1e-15
1e-15
1e-15
1e-15
1e-15
1e-15
1e-15
1e-15
1e-15
1e-15
1e-15
1e-15
1e-15
1e-15
1e-15
1e-15
1e-15
1e-15
1e-15
1e-15
1e-15
1e-15
1e-15
1e-15
1.02648254554e-15
1.02783828274e-15
1.02858338049e-15
1e-15
1e-15
1e-15
1.01484361986e-15
1e-15
1.01737199604e-15
1e-15
1e-15
1e-15
1e-15
1e-15
1e-15
1e-15
1e-15
1e-15
1e-15
1e-15
1e-15
1e-15
1e-15
1e-15
1e-15
1e-15
1e-15
1e-15
1e-15
1e-15
1e-15
1e-15
1e-15
1e-15
1e-15
1e-15
1e-15
1e-15
1e-15
1e-15
1e-15
1e-15
1e-15
1e-15
1e-15
1e-15
1e-15
1e-15
1e-15
1e-15
1e-15
1e-15
1e-15
1e-15
1e-15
1e-15
1e-15
1e-15
1e-15
1e-15
1e-15
1e-15
1e-15
1e-15
1e-15
1e-15
1e-15
1e-15
1e-15
1e-15
1e-15
1e-15
1e-15
1e-15
1e-15
1e-15
1e-15
1e-15
1e-15
1e-15
1e-15
1e-15
1e-15
1e-15
1e-15
1e-15
1e-15
1e-15
1e-15
1e-15
1e-15
1e-15
1e-15
1e-15
1e-15
1e-15
1e-15
1e-15
1e-15
1e-15
1e-15
1e-15
1e-15
1e-15
1e-15
1e-15
1e-15
1e-15
1e-15
1e-15
1e-15
1e-15
1e-15
1e-15
1e-15
1e-15
1e-15
1e-15
1e-15
1e-15
1e-15
1e-15
1e-15
1e-15
1e-15
1e-15
1e-15
1e-15
1e-15
1e-15
1e-15
1e-15
1e-15
1e-15
1e-15
1e-15
1e-15
1e-15
1e-15
1e-15
1.02783828274e-15
1.02898301916e-15
1.02783828274e-15
1.02803812579e-15
1e-15
1e-15
1.01298708452e-15
1e-15
1.01220663212e-15
1e-15
1e-15
1e-15
1e-15
1e-15
1.00000117179e-15
1.00007116799e-15
1.00015244541e-15
1.00020877482e-15
1.00026391328e-15
1.0002841559e-15
1.00029835682e-15
1.00027643681e-15
1.00024632918e-15
1.00018021817e-15
1.00010755308e-15
1.00000473946e-15
1e-15
1e-15
1e-15
1e-15
1e-15
1e-15
1e-15
1e-15
1e-15
1e-15
1e-15
1e-15
1e-15
1e-15
1e-15
1e-15
1e-15
1e-15
1e-15
1e-15
1e-15
1.00000148626e-15
1.00011188734e-15
1.00037156435e-15
1.00051988911e-15
1.00066531801e-15
1.00071526171e-15
1.00049386285e-15
1.00035812539e-15
1.00018526478e-15
1.00017518304e-15
1.0001838149e-15
1.00018280406e-15
1.0001713957e-15
1.00016362452e-15
1.00014393906e-15
1.00012762159e-15
1.00009924755e-15
1.00007341233e-15
1.00003755935e-15
1.0000159494e-15
1.00000637385e-15
1.0000028477e-15
1.00000078471e-15
1e-15
1e-15
1e-15
1e-15
1e-15
1e-15
1e-15
1e-15
1e-15
1e-15
1e-15
1e-15
1e-15
1e-15
1e-15
1e-15
1e-15
1e-15
1e-15
1e-15
1e-15
1e-15
1e-15
1e-15
1e-15
1e-15
1e-15
1e-15
1e-15
1e-15
1e-15
1e-15
1.00000057727e-15
1.00000351549e-15
1.00001605256e-15
1.00003992371e-15
1.00006822099e-15
1.00009101151e-15
1.00012535751e-15
1.00015200363e-15
1.00017357641e-15
1.00018603464e-15
1.00019450554e-15
1.00019542371e-15
1.00019310858e-15
1.00018381067e-15
1.00017126687e-15
1.00015282014e-15
1.00012844412e-15
1.00009772753e-15
1.00007973702e-15
1.00006166976e-15
1.00004395969e-15
1.00002731352e-15
1.00001506431e-15
1.00000752308e-15
1.00000513382e-15
1.00000431506e-15
1.00000183919e-15
1e-15
1e-15
1e-15
1.00000172997e-15
1.00000458455e-15
1.00000657949e-15
1.00002381757e-15
1.00007229664e-15
1.00017186447e-15
1.00029875684e-15
1.00242585328e-15
1.02892955629e-15
1.02783828274e-15
1.02896942569e-15
1.02783828274e-15
1.00090291857e-15
1.00012068644e-15
1.01480182758e-15
1e-15
1.01671234221e-15
1e-15
1e-15
1.00002875621e-15
1.00019351586e-15
1.00036134456e-15
1.00057488554e-15
1.00070781252e-15
1.00084613717e-15
1.00094729804e-15
1.00104338313e-15
1.00108143639e-15
1.00109852126e-15
1.00105402174e-15
1.00098448732e-15
1.00085573163e-15
1.00070358218e-15
1.00050096752e-15
1.00022353636e-15
1e-15
1e-15
1e-15
1e-15
1e-15
1e-15
1e-15
1e-15
1e-15
1e-15
1e-15
1e-15
1e-15
1e-15
1e-15
1e-15
1e-15
1e-15
1e-15
1e-15
1.00025766077e-15
1.00104024706e-15
1.00147565577e-15
1.0015658202e-15
1.00156065352e-15
1.00156990854e-15
1.00156065352e-15
1.00146004083e-15
1.00090213332e-15
1.00050848887e-15
1.00046159792e-15
1.00046729206e-15
1.00043799583e-15
1.00041253797e-15
1.00036882692e-15
1.00032576404e-15
1.00026553368e-15
1.00020859601e-15
1.00013558135e-15
1.00006439924e-15
1.00000807593e-15
1.00000096675e-15
1e-15
1e-15
1e-15
1e-15
1e-15
1e-15
1e-15
1e-15
1e-15
1e-15
1e-15
1e-15
1e-15
1e-15
1e-15
1e-15
1e-15
1e-15
1e-15
1e-15
1e-15
1e-15
1e-15
1e-15
1e-15
1e-15
1e-15
1e-15
1e-15
1e-15
1e-15
1e-15
1e-15
1e-15
1.00001044004e-15
1.0000391007e-15
1.00006915066e-15
1.00013045162e-15
1.00021778087e-15
1.00030326349e-15
1.00036684754e-15
1.00041763181e-15
1.00045009689e-15
1.00047264379e-15
1.00047931601e-15
1.00047754376e-15
1.00046203883e-15
1.00043816427e-15
1.00040162172e-15
1.0003522012e-15
1.0002883809e-15
1.00023202776e-15
1.00017599787e-15
1.00012665499e-15
1.00009379081e-15
1.00007161793e-15
1.00004753692e-15
1.00002594315e-15
1.00000895291e-15
1.00000258797e-15
1.00000106654e-15
1.00000038505e-15
1.00000066518e-15
1.00000261188e-15
1.00001353609e-15
1.0000499978e-15
1.00010758464e-15
1.00024060401e-15
1.00048860964e-15
1.00079345904e-15
1.02822618056e-15
1.02783828274e-15
1.02896940647e-15
1.02783828274e-15
1.02871970403e-15
1.00227300864e-15
1.00068026626e-15
1.01298708452e-15
1e-15
1.01220663212e-15
1e-15
1.00010604053e-15
1.00036357019e-15
1.00054506395e-15
1.00075435142e-15
1.00101539985e-15
1.00128963902e-15
1.00155746609e-15
1.00171898292e-15
1.00183982217e-15
1.00190724763e-15
1.00193357918e-15
1.00187235729e-15
1.00176056786e-15
1.00156661018e-15
1.00131983358e-15
1.00100775936e-15
1.00069689054e-15
1.00028865256e-15
1e-15
1e-15
1e-15
1e-15
1e-15
1e-15
1e-15
1e-15
1e-15
1e-15
1e-15
1e-15
1e-15
1e-15
1e-15
1e-15
1e-15
1.00006961351e-15
1.00025607793e-15
1.00077247157e-15
1.00156065352e-15
1.00156856166e-15
1.00156065352e-15
1.00156884977e-15
1.00156065352e-15
1.00156859024e-15
1.00156065352e-15
1.00156422144e-15
1.00113426127e-15
1.00080882551e-15
1.00076828227e-15
1.00072242424e-15
1.00067426555e-15
1.00061168343e-15
1.00055388975e-15
1.00048559629e-15
1.00041992691e-15
1.00033400767e-15
1.00021147647e-15
1.00004576578e-15
1e-15
1e-15
1e-15
1e-15
1e-15
1e-15
1e-15
1e-15
1e-15
1e-15
1e-15
1e-15
1e-15
1e-15
1e-15
1e-15
1e-15
1e-15
1e-15
1e-15
1e-15
1e-15
1e-15
1e-15
1e-15
1e-15
1e-15
1e-15
1e-15
1e-15
1e-15
1e-15
1e-15
1e-15
1.00000166801e-15
1.00001318074e-15
1.00003706628e-15
1.00012830571e-15
1.00029278796e-15
1.00046644602e-15
1.00059812163e-15
1.00069601537e-15
1.00077369856e-15
1.00082771539e-15
1.00086635798e-15
1.00088441071e-15
1.00088865792e-15
1.00087540641e-15
1.00084844237e-15
1.0008034589e-15
1.00073693406e-15
1.00064655624e-15
1.00054617635e-15
1.00043403736e-15
1.00032088447e-15
1.00023158338e-15
1.00017284061e-15
1.00013174294e-15
1.00010021858e-15
1.0000746367e-15
1.00006633023e-15
1.00006226565e-15
1.00006136049e-15
1.000064387e-15
1.00007322297e-15
1.00009998e-15
1.00015803473e-15
1.00026959057e-15
1.00058360032e-15
1.00100334475e-15
1.00149943674e-15
1.02783828274e-15
1.0289023028e-15
1.02783828274e-15
1.02893543686e-15
1.02783828274e-15
1.00384006659e-15
1.00149640365e-15
1.0142281716e-15
1e-15
1.01589721538e-15
1e-15
1.00013672657e-15
1.00033905522e-15
1.00051762631e-15
1.00073547511e-15
1.00101378966e-15
1.00133818186e-15
1.00171929243e-15
1.00206306165e-15
1.00227975812e-15
1.00241343146e-15
1.00247296107e-15
1.00241360673e-15
1.00226997998e-15
1.00201398156e-15
1.00168871901e-15
1.00128718956e-15
1.00091043365e-15
1.00055948577e-15
1.00013643697e-15
1e-15
1e-15
1e-15
1e-15
1e-15
1e-15
1e-15
1e-15
1e-15
1e-15
1e-15
1e-15
1e-15
1e-15
1e-15
1.00005227717e-15
1.00025178835e-15
1.00065160953e-15
1.00131869511e-15
1.00156408567e-15
1.00156065352e-15
1.00156597019e-15
1.00156065352e-15
1.00156859024e-15
1.00156065352e-15
1.00156496348e-15
1.00156065352e-15
1.00155016461e-15
1.00125415617e-15
1.001061667e-15
1.00101703746e-15
1.00097528111e-15
1.0009089385e-15
1.00082167906e-15
1.00069834818e-15
1.00055894829e-15
1.00039303152e-15
1.0002165983e-15
1.00002936597e-15
1e-15
1e-15
1e-15
1e-15
1e-15
1e-15
1e-15
1e-15
1e-15
1e-15
1e-15
1e-15
1e-15
1e-15
1e-15
1e-15
1e-15
1e-15
1e-15
1e-15
1e-15
1e-15
1e-15
1e-15
1e-15
1e-15
1e-15
1e-15
1e-15
1e-15
1e-15
1e-15
1e-15
1e-15
1.0000009413e-15
1.00000995279e-15
1.00008892461e-15
1.00033432162e-15
1.00060314959e-15
1.00081751218e-15
1.00098414543e-15
1.00111411346e-15
1.00121889996e-15
1.00129601423e-15
1.00135295358e-15
1.0013855955e-15
1.00139958355e-15
1.00139271628e-15
1.00136845435e-15
1.0013226907e-15
1.00124935435e-15
1.00114165981e-15
1.00102629731e-15
1.00089322923e-15
1.00074159148e-15
1.00058575832e-15
1.00044836728e-15
1.00034373554e-15
1.00025628274e-15
1.00018395464e-15
1.00014535477e-15
1.00012234918e-15
1.00011579357e-15
1.00012719956e-15
1.00016475183e-15
1.0002438348e-15
1.00039074858e-15
1.00065562772e-15
1.00113929221e-15
1.00167230362e-15
1.00231555851e-15
1.02853656071e-15
1.02783828274e-15
1.02893897049e-15
1.02783828274e-15
1.02867350818e-15
1.00544932661e-15
1.00238063905e-15
1.01298708452e-15
1e-15
1.01220663212e-15
1e-15
1.00000793841e-15
1.00022819808e-15
1.00041075444e-15
1.00063579448e-15
1.0009288455e-15
1.00127488874e-15
1.0016719574e-15
1.00205832442e-15
1.00242492325e-15
1.00264605203e-15
1.00275392082e-15
1.00271484702e-15
1.00255352356e-15
1.00224846169e-15
1.00187448259e-15
1.00143776851e-15
1.00102750471e-15
1.00067179522e-15
1.00036342536e-15
1e-15
1e-15
1e-15
1e-15
1e-15
1e-15
1e-15
1e-15
1e-15
1e-15
1e-15
1e-15
1e-15
1e-15
1e-15
1.00016951617e-15
1.00043954651e-15
1.00100700077e-15
1.00154646055e-15
1.00156065352e-15
1.00156195202e-15
1.00156065352e-15
1.00156240584e-15
1.00156065352e-15
1.00156240589e-15
1.00156065352e-15
1.00156170461e-15
1.0015573248e-15
1.00147989041e-15
1.00132198503e-15
1.00123048539e-15
1.00112088386e-15
1.00097943511e-15
1.00083458445e-15
1.00068158034e-15
1.00051578558e-15
1.00032527619e-15
1.00012165204e-15
1e-15
1e-15
1e-15
1e-15
1e-15
1e-15
1e-15
1e-15
1e-15
1e-15
1e-15
1e-15
1e-15
1e-15
1e-15
1e-15
1e-15
1e-15
1e-15
1e-15
1e-15
1e-15
1e-15
1e-15
1e-15
1e-15
1e-15
1e-15
1e-15
1e-15
1e-15
1e-15
1e-15
1e-15
1e-15
1.00000051137e-15
1.00000725759e-15
1.00028150668e-15
1.00065239309e-15
1.00094983973e-15
1.00118625233e-15
1.00138910076e-15
1.00155541587e-15
1.00169255485e-15
1.00179669502e-15
1.00187552934e-15
1.00192504678e-15
1.00195116246e-15
1.00195118065e-15
1.00193191768e-15
1.00188792315e-15
1.00181422674e-15
1.00169416788e-15
1.00157009751e-15
1.00143584918e-15
1.00128174189e-15
1.00110672863e-15
1.00092101025e-15
1.00074227748e-15
1.00057873617e-15
1.00044240997e-15
1.00035389025e-15
1.00029700754e-15
1.00027872629e-15
1.00030393237e-15
1.00038498692e-15
1.00053101327e-15
1.00079967328e-15
1.00123437401e-15
1.00179869833e-15
1.00241369186e-15
1.00317800689e-15
1.02783828274e-15
1.02885983505e-15
1.02783828274e-15
1.02888411216e-15
1.02783828274e-15
1.0070051723e-15
1.00318186044e-15
1.01380300655e-15
1e-15
1.01507883043e-15
1e-15
1e-15
1.00007630757e-15
1.00025883381e-15
1.00048044838e-15
1.00077691807e-15
1.00112484182e-15
1.00154832946e-15
1.0020214677e-15
1.00248897175e-15
1.00279129638e-15
1.00294830192e-15
1.00293848423e-15
1.00276989008e-15
1.00242609304e-15
1.00200981271e-15
1.00155373341e-15
1.00113221521e-15
1.00076551935e-15
1.00047378804e-15
1.00011232698e-15
1e-15
1e-15
1e-15
1e-15
1e-15
1e-15
1e-15
1e-15
1e-15
1e-15
1e-15
1e-15
1e-15
1e-15
1.00025241368e-15
1.00060970539e-15
1.00121600196e-15
1.00154168418e-15
1.00155490732e-15
1.00155628178e-15
1.0015614924e-15
1.00156021964e-15
1.00156203193e-15
1.00155490495e-15
1.00152228212e-15
1.00150717788e-15
1.00149663691e-15
1.00144731204e-15
1.001321803e-15
1.00120969425e-15
1.00107831386e-15
1.0009200677e-15
1.00075604267e-15
1.00056302237e-15
1.00034985574e-15
1.00009608468e-15
1e-15
1e-15
1e-15
1e-15
1e-15
1e-15
1e-15
1e-15
1e-15
1e-15
1e-15
1e-15
1e-15
1e-15
1e-15
1e-15
1e-15
1e-15
1e-15
1e-15
1e-15
1e-15
1e-15
1e-15
1e-15
1e-15
1e-15
1e-15
1e-15
1e-15
1e-15
1e-15
1e-15
1e-15
1e-15
1e-15
1.00000029663e-15
1.000006474e-15
1.00051031017e-15
1.00091532882e-15
1.00123026752e-15
1.00150645294e-15
1.00175754089e-15
1.0019689307e-15
1.00214571369e-15
1.00228209793e-15
1.00238747834e-15
1.00245688683e-15
1.0024979179e-15
1.00250635563e-15
1.0024925802e-15
1.00245041557e-15
1.00237947431e-15
1.00224933505e-15
1.00210864982e-15
1.00196949213e-15
1.00181686794e-15
1.00164631339e-15
1.00146061162e-15
1.0012584409e-15
1.00105721967e-15
1.00087608148e-15
1.00074480328e-15
1.0006579892e-15
1.00062775908e-15
1.00066370208e-15
1.0007766756e-15
1.00098589021e-15
1.00135182157e-15
1.00186936387e-15
1.0024746851e-15
1.00316899108e-15
1.00404809744e-15
1.02854699693e-15
1.02783828274e-15
1.02889154099e-15
1.02783828274e-15
1.02862937428e-15
1.00842978736e-15
1.00380738156e-15
1.01298708452e-15
1e-15
1.01220663212e-15
1e-15
1e-15
1e-15
1.00009443466e-15
1.00031036781e-15
1.00060001366e-15
1.00093282303e-15
1.00144401978e-15
1.00201972378e-15
1.00258197421e-15
1.00296633064e-15
1.00317716585e-15
1.00320089752e-15
1.0030325491e-15
1.00265410204e-15
1.00218095439e-15
1.0016825083e-15
1.0012437507e-15
1.00086664238e-15
1.00057271391e-15
1.00030107971e-15
1e-15
1e-15
1e-15
1e-15
1e-15
1e-15
1e-15
1e-15
1e-15
1e-15
1e-15
1e-15
1e-15
1.00000279688e-15
1.00031824382e-15
1.00073924983e-15
1.00130018523e-15
1.00150102147e-15
1.00151297571e-15
1.00151160967e-15
1.00151744553e-15
1.001512863e-15
1.00154343988e-15
1.00149655888e-15
1.0014186616e-15
1.00139068622e-15
1.00137116903e-15
1.00133152669e-15
1.00124198601e-15
1.00109632227e-15
1.00093738476e-15
1.00075185232e-15
1.0005493215e-15
1.00028147756e-15
1e-15
1e-15
1e-15
1e-15
1e-15
1e-15
1e-15
1e-15
1e-15
1e-15
1e-15
1e-15
1e-15
1e-15
1e-15
1e-15
1e-15
1e-15
1e-15
1e-15
1e-15
1e-15
1e-15
1e-15
1e-15
1e-15
1e-15
1e-15
1e-15
1e-15
1e-15
1e-15
1e-15
1e-15
1e-15
1e-15
1e-15
1e-15
1.00000083889e-15
1.0000781069e-15
1.00058767414e-15
1.00102731763e-15
1.00140239883e-15
1.00174343419e-15
1.00205670538e-15
1.00232032483e-15
1.00254191841e-15
1.00271465925e-15
1.00285033948e-15
1.00294252405e-15
1.00300125483e-15
1.00302011225e-15
1.003012387e-15
1.00297188612e-15
1.00290614711e-15
1.00276653588e-15
1.00260110932e-15
1.00245213984e-15
1.00229370211e-15
1.00212190164e-15
1.00194498628e-15
1.00175677661e-15
1.00156524108e-15
1.00138067136e-15
1.00123112288e-15
1.00112872794e-15
1.00109241006e-15
1.00113576708e-15
1.00127072657e-15
1.00152787675e-15
1.00193530044e-15
1.00246664702e-15
1.00311066749e-15
1.00388483079e-15
1.00488999372e-15
1.02783828274e-15
1.02881799594e-15
1.02783828274e-15
1.02883727858e-15
1.02783828274e-15
1.00969209698e-15
1.00419041869e-15
1.01350531497e-15
1e-15
1.01428150212e-15
1e-15
1e-15
1e-15
1e-15
1.0001360367e-15
1.00042029155e-15
1.00074195043e-15
1.00138572397e-15
1.00213411239e-15
1.00278942195e-15
1.00324407473e-15
1.00351566198e-15
1.00357487144e-15
1.00341436538e-15
1.00300717952e-15
1.00245829412e-15
1.00186538906e-15
1.00137066242e-15
1.00097667001e-15
1.00067750838e-15
1.00040787308e-15
1.00007114336e-15
1e-15
1e-15
1e-15
1e-15
1e-15
1e-15
1e-15
1e-15
1e-15
1e-15
1e-15
1e-15
1e-15
1.00033386937e-15
1.00081313656e-15
1.00128227688e-15
1.00141557333e-15
1.00142407385e-15
1.00141680157e-15
1.00141647396e-15
1.00140754503e-15
1.00143005524e-15
1.00139962749e-15
1.0013096244e-15
1.0012294855e-15
1.00120562801e-15
1.00115808019e-15
1.00106685852e-15
1.00088552363e-15
1.00070169356e-15
1.00047500534e-15
1.00019104087e-15
1e-15
1e-15
1e-15
1e-15
1e-15
1e-15
1e-15
1e-15
1e-15
1e-15
1e-15
1e-15
1e-15
1e-15
1e-15
1e-15
1e-15
1e-15
1e-15
1e-15
1e-15
1e-15
1e-15
1e-15
1e-15
1e-15
1e-15
1e-15
1e-15
1e-15
1e-15
1e-15
1e-15
1e-15
1e-15
1e-15
1e-15
1e-15
1e-15
1.00000151449e-15
1.00010683874e-15
1.00061558065e-15
1.00105767698e-15
1.00150159991e-15
1.00192160592e-15
1.00229853015e-15
1.00261461326e-15
1.00288133742e-15
1.00309094068e-15
1.00325762721e-15
1.0033735365e-15
1.00345101843e-15
1.00348159161e-15
1.00347995678e-15
1.00344152814e-15
1.00337813846e-15
1.00323585414e-15
1.00304345865e-15
1.0028733434e-15
1.00269979346e-15
1.00251591548e-15
1.00233890496e-15
1.00216499312e-15
1.0019959526e-15
1.00183307536e-15
1.00169413784e-15
1.00159762189e-15
1.00156877034e-15
1.00161970037e-15
1.00176915126e-15
1.00204442656e-15
1.00245192356e-15
1.00297851966e-15
1.00366778541e-15
1.00452875828e-15
1.00566840287e-15
1.02855316631e-15
1.02783828274e-15
1.02884910877e-15
1.02783828274e-15
1.02859012274e-15
1.01077182894e-15
1.00436549411e-15
1.01298708452e-15
1e-15
1.01220663212e-15
1e-15
1e-15
1e-15
1e-15
1e-15
1.000233663e-15
1.0005567345e-15
1.00131167625e-15
1.00229891216e-15
1.00311975278e-15
1.00363026075e-15
1.00396158919e-15
1.0040604489e-15
1.00391651e-15
1.00349249416e-15
1.00287369183e-15
1.00214392798e-15
1.00153235323e-15
1.00109532422e-15
1.00078890039e-15
1.00051259047e-15
1.00027929727e-15
1e-15
1e-15
1e-15
1e-15
1e-15
1e-15
1e-15
1e-15
1e-15
1e-15
1e-15
1e-15
1e-15
1.0003280164e-15
1.00086539637e-15
1.00121790276e-15
1.00128036593e-15
1.0012843464e-15
1.00127135317e-15
1.00126477979e-15
1.00125021686e-15
1.00125925741e-15
1.00127383822e-15
1.00116055146e-15
1.00103297446e-15
1.00100949636e-15
1.00094863656e-15
1.00082621141e-15
1.00061233723e-15
1.00038384874e-15
1.00007744512e-15
1e-15
1e-15
1e-15
1e-15
1e-15
1e-15
1e-15
1e-15
1e-15
1e-15
1e-15
1e-15
1e-15
1e-15
1e-15
1e-15
1e-15
1e-15
1e-15
1e-15
1e-15
1e-15
1e-15
1e-15
1e-15
1e-15
1e-15
1e-15
1e-15
1e-15
1e-15
1e-15
1e-15
1e-15
1e-15
1e-15
1e-15
1e-15
1e-15
1e-15
1.00000093159e-15
1.00014565476e-15
1.00059894135e-15
1.00108584307e-15
1.00160640252e-15
1.00208388113e-15
1.0025250953e-15
1.00289068071e-15
1.00319803244e-15
1.00344275916e-15
1.00363909391e-15
1.00377797944e-15
1.00387374389e-15
1.00391646038e-15
1.00392097955e-15
1.00388501575e-15
1.00382352857e-15
1.00368573042e-15
1.00346721825e-15
1.00326159191e-15
1.00306957337e-15
1.00286366623e-15
1.00267383849e-15
1.00249787927e-15
1.0023383707e-15
1.00219438562e-15
1.00207607415e-15
1.00199729699e-15
1.00198587625e-15
1.00204400367e-15
1.00220054098e-15
1.00247586298e-15
1.00287513559e-15
1.00340875973e-15
1.00415817461e-15
1.00511324529e-15
1.00638754066e-15
1.02783828274e-15
1.02877789522e-15
1.02783828274e-15
1.02879224922e-15
1.02783828274e-15
1.01169868978e-15
1.00434157653e-15
1.01330541006e-15
1e-15
1.0135429929e-15
1e-15
1e-15
1e-15
1e-15
1e-15
1.0000299312e-15
1.00036235585e-15
1.00115148832e-15
1.0022695776e-15
1.00328376035e-15
1.0039761014e-15
1.00440192996e-15
1.00455681792e-15
1.00444655836e-15
1.00401763881e-15
1.0033633394e-15
1.00252273047e-15
1.00175605545e-15
1.0012297777e-15
1.00090610401e-15
1.00061895595e-15
1.00038396434e-15
1.00003606395e-15
1e-15
1e-15
1e-15
1e-15
1e-15
1e-15
1e-15
1e-15
1e-15
1e-15
1e-15
1e-15
1.00030401381e-15
1.00083192463e-15
1.00108185945e-15
1.00109519085e-15
1.0010959292e-15
1.0010796775e-15
1.00107006601e-15
1.00105247313e-15
1.00106252219e-15
1.00111766398e-15
1.00097800734e-15
1.00080703474e-15
1.00076968372e-15
1.0006966395e-15
1.00053664941e-15
1.00024305196e-15
1e-15
1e-15
1e-15
1e-15
1e-15
1e-15
1e-15
1e-15
1e-15
1e-15
1e-15
1e-15
1e-15
1e-15
1e-15
1e-15
1e-15
1e-15
1e-15
1e-15
1e-15
1e-15
1e-15
1e-15
1e-15
1e-15
1e-15
1e-15
1e-15
1e-15
1e-15
1e-15
1e-15
1e-15
1e-15
1e-15
1e-15
1e-15
1e-15
1e-15
1e-15
1e-15
1.00000188696e-15
1.0001371192e-15
1.00060369084e-15
1.00114427401e-15
1.00170234951e-15
1.00229835128e-15
1.00277858829e-15
1.00317905013e-15
1.00353171558e-15
1.00380914106e-15
1.00403259179e-15
1.00419399419e-15
1.00430753358e-15
1.00436263119e-15
1.00437372843e-15
1.00434092566e-15
1.00428163366e-15
1.00415634251e-15
1.00391023755e-15
1.00367510541e-15
1.00345061437e-15
1.00322269147e-15
1.00300917065e-15
1.00281250179e-15
1.0026436756e-15
1.00250387763e-15
1.00239730042e-15
1.00233048447e-15
1.00233279976e-15
1.00239746839e-15
1.00256102093e-15
1.00283975257e-15
1.00324212845e-15
1.00380624548e-15
1.00463234204e-15
1.00567933172e-15
1.00707389876e-15
1.02855483181e-15
1.02783828274e-15
1.02880793508e-15
1.02783828274e-15
1.02855652957e-15
1.01249959552e-15
1.00427926547e-15
1.01298676651e-15
1e-15
1.01220663212e-15
1e-15
1e-15
1e-15
1e-15
1e-15
1e-15
1.00014429603e-15
1.00084879509e-15
1.00213573774e-15
1.00325331228e-15
1.00414202564e-15
1.00472707947e-15
1.00496527643e-15
1.00491866587e-15
1.00449300138e-15
1.0038273858e-15
1.00294789019e-15
1.00205788301e-15
1.00139747048e-15
1.00103182619e-15
1.00072924547e-15
1.0004781128e-15
1.00022755267e-15
1e-15
1e-15
1e-15
1e-15
1e-15
1e-15
1e-15
1e-15
1e-15
1e-15
1e-15
1e-15
1.00024488775e-15
1.00071335884e-15
1.00086608373e-15
1.00085715371e-15
1.00085607642e-15
1.00083834588e-15
1.00082736383e-15
1.0008087679e-15
1.00082335053e-15
1.00086098675e-15
1.000779384e-15
1.00059757285e-15
1.00047788423e-15
1.00035501427e-15
1.00008264664e-15
1e-15
1e-15
1e-15
1e-15
1e-15
1e-15
1e-15
1e-15
1e-15
1e-15
1e-15
1e-15
1e-15
1e-15
1e-15
1e-15
1e-15
1e-15
1e-15
1e-15
1e-15
1e-15
1e-15
1e-15
1e-15
1e-15
1e-15
1e-15
1e-15
1e-15
1e-15
1e-15
1e-15
1e-15
1e-15
1e-15
1e-15
1e-15
1e-15
1e-15
1e-15
1e-15
1e-15
1.00000152582e-15
1.00015171148e-15
1.00063737581e-15
1.00122557565e-15
1.00188248545e-15
1.0025293076e-15
1.00304526387e-15
1.00353068985e-15
1.0038995829e-15
1.00420759895e-15
1.00446431838e-15
1.00464666111e-15
1.00477738425e-15
1.00484571728e-15
1.00486455664e-15
1.00483622049e-15
1.00477847532e-15
1.00466547866e-15
1.00444231863e-15
1.00413941166e-15
1.00392159257e-15
1.00364445308e-15
1.00339618155e-15
1.00316500729e-15
1.00296998214e-15
1.00281883583e-15
1.00271071194e-15
1.00264428125e-15
1.00265152885e-15
1.00272156026e-15
1.00289578235e-15
1.0031876219e-15
1.00360853832e-15
1.00422742268e-15
1.00513842837e-15
1.0062640726e-15
1.00775859882e-15
1.02783828274e-15
1.02874034945e-15
1.02783828274e-15
1.02875545364e-15
1.02783828274e-15
1.01321551592e-15
1.00420643337e-15
1.01317400986e-15
1e-15
1.01291501403e-15
1e-15
1e-15
1e-15
1e-15
1e-15
1e-15
1e-15
1.00046785199e-15
1.00186384788e-15
1.00316172799e-15
1.0042083968e-15
1.00495647942e-15
1.00530403254e-15
1.00534732934e-15
1.00493386357e-15
1.00425520069e-15
1.00337181932e-15
1.00243046526e-15
1.00162304347e-15
1.00117263648e-15
1.00084303634e-15
1.00056567595e-15
1.00029887311e-15
1.00003211162e-15
1e-15
1e-15
1e-15
1e-15
1e-15
1e-15
1e-15
1e-15
1e-15
1e-15
1e-15
1.00010359448e-15
1.00049476445e-15
1.00058120948e-15
1.00056594128e-15
1.00056385308e-15
1.00054619921e-15
1.00053597625e-15
1.0005188946e-15
1.00053067794e-15
1.00055315386e-15
1.00055675672e-15
1.00024343523e-15
1e-15
1e-15
1e-15
1e-15
1e-15
1e-15
1e-15
1e-15
1e-15
1e-15
1e-15
1e-15
1e-15
1e-15
1e-15
1e-15
1e-15
1e-15
1e-15
1e-15
1e-15
1e-15
1e-15
1e-15
1e-15
1e-15
1e-15
1e-15
1e-15
1e-15
1e-15
1e-15
1e-15
1e-15
1e-15
1e-15
1e-15
1e-15
1e-15
1e-15
1e-15
1e-15
1e-15
1e-15
1e-15
1e-15
1.00000160266e-15
1.00017221931e-15
1.00069307139e-15
1.00139649679e-15
1.00212402429e-15
1.00277508873e-15
1.00337703992e-15
1.00386818201e-15
1.00431099369e-15
1.0046671478e-15
1.00492915415e-15
1.0051380384e-15
1.00529097541e-15
1.00537134939e-15
1.00539921102e-15
1.00537669694e-15
1.00532032418e-15
1.00524357287e-15
1.00492883591e-15
1.00456368451e-15
1.0043157002e-15
1.00414648874e-15
1.0038692558e-15
1.00359198535e-15
1.00335921737e-15
1.0031835565e-15
1.00306236136e-15
1.00298689895e-15
1.00299262466e-15
1.00306627229e-15
1.00325333588e-15
1.00356488013e-15
1.00401792808e-15
1.00470809006e-15
1.00569818629e-15
1.00688361575e-15
1.00845335579e-15
1.02855327911e-15
1.02783828274e-15
1.02877090178e-15
1.02783828274e-15
1.02852901739e-15
1.01385774669e-15
1.00414526114e-15
1.01298527751e-15
1e-15
1.01220587936e-15
1e-15
1e-15
1e-15
1e-15
1e-15
1e-15
1e-15
1.0001179627e-15
1.00141995805e-15
1.00301010417e-15
1.00426510323e-15
1.00517972101e-15
1.00566026259e-15
1.00580383788e-15
1.00541809889e-15
1.0047152975e-15
1.00381020108e-15
1.00285801246e-15
1.00192919116e-15
1.00134077772e-15
1.0009579799e-15
1.00064905084e-15
1.00035144814e-15
1.00012194393e-15
1e-15
1e-15
1e-15
1e-15
1e-15
1e-15
1e-15
1e-15
1e-15
1e-15
1e-15
1e-15
1.00013717263e-15
1.00020501303e-15
1.00019104603e-15
1.00018811858e-15
1.00016884277e-15
1.00015978897e-15
1.00014219145e-15
1.00014055267e-15
1.00011223672e-15
1.00007917815e-15
1e-15
1e-15
1e-15
1e-15
1e-15
1e-15
1e-15
1e-15
1e-15
1e-15
1e-15
1e-15
1e-15
1e-15
1e-15
1e-15
1e-15
1e-15
1e-15
1e-15
1e-15
1e-15
1e-15
1e-15
1e-15
1e-15
1e-15
1e-15
1e-15
1e-15
1e-15
1e-15
1e-15
1e-15
1e-15
1e-15
1e-15
1e-15
1e-15
1e-15
1e-15
1e-15
1e-15
1e-15
1e-15
1e-15
1e-15
1.00000141224e-15
1.00019754887e-15
1.00078931143e-15
1.00160359412e-15
1.00237658189e-15
1.00309403192e-15
1.00372017462e-15
1.00422857126e-15
1.00474765004e-15
1.00509466693e-15
1.00545253726e-15
1.00567668276e-15
1.0058309412e-15
1.00593226615e-15
1.00597319715e-15
1.00595560213e-15
1.00589541082e-15
1.00575543196e-15
1.00580872017e-15
1.00856109894e-15
1.00724647767e-15
1.00465215009e-15
1.00439426244e-15
1.00409927912e-15
1.00382797493e-15
1.0036194557e-15
1.00347683263e-15
1.00338693797e-15
1.00338738246e-15
1.00346321766e-15
1.00366217807e-15
1.00399569487e-15
1.00449052035e-15
1.00525362934e-15
1.00630558186e-15
1.00753507012e-15
1.00916206124e-15
1.02783828274e-15
1.02870670673e-15
1.02783828274e-15
1.02872292594e-15
1.02783828274e-15
1.01443937732e-15
1.00409830176e-15
1.01309040519e-15
1e-15
1.01245747751e-15
1e-15
1e-15
1e-15
1e-15
1e-15
1e-15
1e-15
1e-15
1.00084402537e-15
1.00280119802e-15
1.00433078486e-15
1.00547152124e-15
1.00610619701e-15
1.00635851859e-15
1.0060233318e-15
1.00528921448e-15
1.00431918612e-15
1.00333988895e-15
1.00232655315e-15
1.00155805925e-15
1.00107708225e-15