/*--------------------------------*- C++ -*----------------------------------*\
| =========                 |                                                 |
| \\      /  F ield         | OpenFOAM: The Open Source CFD Toolbox           |
|  \\    /   O peration     | Version:  2206                                  |
|   \\  /    A nd           | Website:  www.openfoam.com                      |
|    \\/     M anipulation  |                                                 |
\*---------------------------------------------------------------------------*/
FoamFile
{
    version     2.0;
    format      ascii;
    arch        "LSB;label=64;scalar=64";
    class       volScalarField;
    location    "4/water";
    object      nut.gas;
}
// * * * * * * * * * * * * * * * * * * * * * * * * * * * * * * * * * * * * * //

dimensions      [0 2 -1 0 0 0 0];

internalField   nonuniform List<scalar> 
23300
(
0.000140343333616
0.000137844007875
0.000134733268271
0.000130917842712
0.000126545768729
0.000121743238036
0.000116611502939
0.000111239708776
0.000105706093531
0.000100085696746
9.44467444984e-05
8.88549668751e-05
8.33685276588e-05
7.80408535212e-05
7.29161727573e-05
6.80320363887e-05
6.34162735041e-05
5.90896989085e-05
5.50643930932e-05
5.13465711737e-05
4.79356910395e-05
4.48272058091e-05
4.20120177241e-05
3.9478856886e-05
3.72137822264e-05
3.52020872236e-05
3.34277460211e-05
3.18748945913e-05
3.05272425188e-05
2.93692444786e-05
2.83855254816e-05
2.75618399986e-05
2.68845253492e-05
2.63412969076e-05
2.59207106919e-05
2.56128158286e-05
2.5408606508e-05
2.53005571655e-05
2.52820645533e-05
2.53479050829e-05
2.54936864684e-05
2.57162766931e-05
2.60133038414e-05
2.63836377178e-05
2.68264668269e-05
2.73410275947e-05
2.79273753022e-05
2.85865937164e-05
2.93202462523e-05
3.01307680736e-05
3.10209969149e-05
3.1994612228e-05
3.30556860433e-05
3.42091494138e-05
3.54603450802e-05
3.68155173118e-05
3.82813528136e-05
3.98654909832e-05
4.157603622e-05
4.3422081423e-05
4.541316665e-05
4.75597995738e-05
4.98728217621e-05
5.23638940777e-05
5.50447106041e-05
5.79273934075e-05
6.10234604584e-05
6.43440357686e-05
6.78984235946e-05
7.16939739762e-05
7.57340267691e-05
8.00171689235e-05
8.45341913514e-05
8.92663607029e-05
9.41809393211e-05
9.92280383233e-05
0.00010433418562
0.000109397052091
0.000114275526233
0.000118778612179
0.000122643339553
0.000125501249465
0.000126836290281
0.000126153745126
0.000123705814562
0.00012005978454
0.000115664429957
0.000110832771871
0.000105776736098
0.000100642319352
9.55312316514e-05
9.05169056159e-05
8.56518992567e-05
8.09745268166e-05
7.65110868232e-05
7.2279343915e-05
6.82893001959e-05
6.45456017268e-05
6.10478988788e-05
5.77927093479e-05
5.47735932639e-05
5.19825995256e-05
4.94102986433e-05
4.70468779249e-05
4.48820602828e-05
4.29059218651e-05
4.11087390959e-05
3.94816082126e-05
3.80162720307e-05
3.67056258612e-05
3.55435963507e-05
3.45253672225e-05
3.36468040109e-05
3.29054177032e-05
3.23002007768e-05
3.18319501675e-05
3.15032022688e-05
3.13185831852e-05
3.12847947616e-05
3.14109467309e-05
3.17085170124e-05
3.21915629234e-05
3.28764942638e-05
3.3781948184e-05
3.49280850545e-05
3.63357824832e-05
3.80250747881e-05
4.00133239475e-05
4.23125980814e-05
4.49268986219e-05
4.78490096647e-05
5.10579104391e-05
5.4516902531e-05
5.81735627746e-05
6.19615685153e-05
6.5804282803e-05
6.96167233794e-05
7.32966667098e-05
7.66809431143e-05
7.94199856755e-05
0.000121480636475
0.000120391692392
0.000118517428035
0.000115993990676
0.00011293671844
0.000109444022512
0.000105601454827
0.000101485815234
9.71676079004e-05
9.27129032433e-05
8.81836113204e-05
8.36376505295e-05
7.91281506859e-05
7.47030327605e-05
7.04041714405e-05
6.62671657202e-05
6.23209876122e-05
5.85882329611e-05
5.50853118692e-05
5.1823093398e-05
4.88074268246e-05
4.60399385701e-05
4.35186293328e-05
4.12386123629e-05
3.91926224858e-05
3.73716009948e-05
3.57650749282e-05
3.4361600055e-05
3.31490470458e-05
3.21149563141e-05
3.12467748174e-05
3.05321546977e-05
2.99591472318e-05
2.95164374686e-05
2.91934731522e-05
2.89806155531e-05
2.88691878821e-05
2.8851541979e-05
2.89210370252e-05
2.90720465105e-05
2.92998972448e-05
2.96008509071e-05
2.99720324378e-05
3.04114019386e-05
3.09174308272e-05
3.14885331569e-05
3.21239076023e-05
3.28234624893e-05
3.35877060178e-05
3.44177125101e-05
3.53150542575e-05
3.62818017304e-05
3.73204769377e-05
3.84340709764e-05
3.96260053536e-05
4.09001567438e-05
4.22608160765e-05
4.37127110963e-05
4.52609513458e-05
4.69110357418e-05
4.86687662702e-05
5.0540220932e-05
5.25316101899e-05
5.4649185025e-05
5.68989973639e-05
5.92866976556e-05
6.18171410655e-05
6.44940044554e-05
6.73191474254e-05
7.02919356163e-05
7.34082107635e-05
7.66591432315e-05
8.00296019689e-05
8.34963185531e-05
8.70254659572e-05
9.05700412799e-05
9.40667478031e-05
9.74329923918e-05
0.000100563894289
0.000103330373449
0.000105579093056
0.000107138175422
0.00010783794118
0.000107570178562
0.000106381132622
0.000104429812758
0.000101897759015
9.89466833076e-05
9.57075351048e-05
9.22831375491e-05
8.87538870585e-05
8.51832157451e-05
8.1621417396e-05
7.81084863504e-05
7.46759050968e-05
7.1348132341e-05
6.81436092036e-05
6.50757743238e-05
6.21538055616e-05
5.93834317009e-05
5.67675305312e-05
5.43067836546e-05
5.20001430823e-05
4.98453364091e-05
4.78392100125e-05
4.59781040797e-05
4.42580968131e-05
4.26752824923e-05
4.12259504096e-05
3.99068023217e-05
3.87150980754e-05
3.76487901678e-05
3.67062715533e-05
3.58868850361e-05
3.51910105951e-05
3.46201829884e-05
3.41771682296e-05
3.38660589431e-05
3.36923116591e-05
3.3662766951e-05
3.37855703219e-05
3.4070014371e-05
3.45262110973e-05
3.51645983254e-05
3.59951888925e-05
3.70265736036e-05
3.8264624067e-05
3.97109711973e-05
4.13613152013e-05
4.32037862619e-05
4.52175907919e-05
4.73723540457e-05
4.96286119969e-05
5.1940137678e-05
5.42590382797e-05
5.65452836893e-05
5.8783743188e-05
6.10151560677e-05
6.33956495649e-05
6.6309980532e-05
0.000107585683521
0.000106997896928
0.000105815630055
0.000104108629539
0.000101944396369
9.93872103374e-05
9.64984985522e-05
9.33374069594e-05
8.99611695593e-05
8.64251841677e-05
8.27827118815e-05
7.90843516678e-05
7.53773480529e-05
7.17049219225e-05
6.81056793003e-05
6.46132177894e-05
6.12559262834e-05
5.80570103825e-05
5.50346884982e-05
5.22025373819e-05
4.95699183216e-05
4.71424509703e-05
4.49224844068e-05
4.29095465258e-05
4.11007526253e-05
3.9491173395e-05
3.80741687224e-05
3.68416960392e-05
3.57846087499e-05
3.48929464847e-05
3.41562270682e-05
3.35637273092e-05
3.31047543792e-05
3.2768885876e-05
3.25461806588e-05
3.24273406071e-05
3.24038335885e-05
3.2467965281e-05
3.26129183997e-05
3.28327521936e-05
3.31223836538e-05
3.34775431616e-05
3.38947223566e-05
3.43711013167e-05
3.49046505901e-05
3.54933619722e-05
3.61358531245e-05
3.6831309558e-05
3.7579428985e-05
3.83803673451e-05
3.92346981058e-05
4.0143375116e-05
4.110770545e-05
4.21293229069e-05
4.32101668154e-05
4.43524583008e-05
4.55586767818e-05
4.68315301778e-05
4.81739191558e-05
4.9588889903e-05
5.10795726956e-05
5.26491014844e-05
5.43005081239e-05
5.60365870002e-05
5.78597194841e-05
5.97716542085e-05
6.17732274337e-05
6.38640188502e-05
6.60419199855e-05
6.83026085211e-05
7.06388976086e-05
7.30399546855e-05
7.54903607545e-05
7.79690293895e-05
8.04479997145e-05
8.28912124924e-05
8.52534139514e-05
8.74794892011e-05
8.95046024074e-05
9.12557216015e-05
9.26551822407e-05
9.36271459396e-05
9.41081009716e-05
9.40625940313e-05
9.34989745663e-05
9.24647771323e-05
9.10271864461e-05
8.92576763815e-05
8.72237891158e-05
8.49860876031e-05
8.25976837858e-05
8.01047397962e-05
7.754714467e-05
7.49591472535e-05
7.23698787493e-05
6.98038266436e-05
6.72812678063e-05
6.48187075929e-05
6.24293077236e-05
6.01233212218e-05
5.79085065789e-05
5.57905302992e-05
5.37733344065e-05
5.18594790338e-05
5.00504452196e-05
4.8346910418e-05
4.67489884386e-05
4.52564465215e-05
4.38688941719e-05
4.2585953462e-05
4.14074051442e-05
4.03333898456e-05
3.93643857473e-05
3.85013646354e-05
3.7745894125e-05
3.71002167686e-05
3.65672991218e-05
3.61508459426e-05
3.58552637475e-05
3.5685559327e-05
3.56471492617e-05
3.5745558277e-05
3.5985978551e-05
3.63726692891e-05
3.69081806896e-05
3.75924081143e-05
3.84215072972e-05
3.9386745859e-05
4.04734134657e-05
4.16599707067e-05
4.2917662788e-05
4.42108664891e-05
4.54984757476e-05
4.6736718866e-05
4.78840179387e-05
4.89089762615e-05
4.98033195945e-05
5.0602443176e-05
5.1424373057e-05
5.23543210828e-05
9.8949866045e-05
9.84861027481e-05
9.75691421345e-05
9.62299962631e-05
9.45090092271e-05
9.24511010028e-05
9.01032649927e-05
8.75131638829e-05
8.47282250873e-05
8.179492893e-05
7.87581630296e-05
7.56606029072e-05
7.25421402024e-05
6.94393878964e-05
6.63853043293e-05
6.34089512167e-05
6.0535399392e-05
5.77857622763e-05
5.51773423944e-05
5.2723849454e-05
5.04356681224e-05
4.83201352461e-05
4.63818176161e-05
4.46227656207e-05
4.30427543142e-05
4.16395029982e-05
4.04088988759e-05
3.93452204004e-05
3.84413858532e-05
3.76892137873e-05
3.70797101623e-05
3.66033550829e-05
3.6250394451e-05
3.60111030704e-05
3.58760250727e-05
3.58361628012e-05
3.5883128556e-05
3.60092395801e-05
3.62075791059e-05
3.64720102555e-05
3.67971687745e-05
3.71784226551e-05
3.76118229639e-05
3.80940324484e-05
3.86227565902e-05
3.91958374903e-05
3.9811614495e-05
4.04688841468e-05
4.11668635145e-05
4.19051450716e-05
4.26836610601e-05
4.35026443394e-05
4.43625994467e-05
4.52642699525e-05
4.62086135862e-05
4.71967715895e-05
4.82300422489e-05
4.93098456879e-05
5.04376884217e-05
5.16151152107e-05
5.28436551638e-05
5.41247498449e-05
5.54596687129e-05
5.68493997009e-05
5.82945186546e-05
5.97950253358e-05
6.13501479889e-05
6.29581036466e-05
6.46158139677e-05
6.63185628009e-05
6.80595936567e-05
6.98296354574e-05
7.1616361619e-05
7.34037902621e-05
7.51716670622e-05
7.68949018297e-05
7.8543192146e-05
8.00810242887e-05
8.14683092776e-05
8.26619358322e-05
8.3618486128e-05
8.42981949087e-05
8.46699151465e-05
8.47162556466e-05
8.44368668253e-05
8.38477939681e-05
8.29764638087e-05
8.18560958652e-05
8.05218857375e-05
7.90086792203e-05
7.73497091455e-05
7.55759517297e-05
7.37158105175e-05
7.179497506e-05
6.98363841834e-05
6.78602643315e-05
6.58842279242e-05
6.39234207926e-05
6.19907072462e-05
6.00968809966e-05
5.8250890469e-05
5.646006839e-05
5.47303578247e-05
5.30665288734e-05
5.14723828083e-05
4.99509416526e-05
4.8504623e-05
4.71353998005e-05
4.58449457089e-05
4.46347651214e-05
4.35063056046e-05
4.24611726285e-05
4.15012750018e-05
4.06287263837e-05
3.98459163308e-05
3.91555520344e-05
3.85606628486e-05
3.80645576744e-05
3.76707239593e-05
3.73826531036e-05
3.72035765725e-05
3.71360955786e-05
3.71816911542e-05
3.73401067789e-05
3.76086092043e-05
3.79811508695e-05
3.84474851959e-05
3.8992318214e-05
3.95946176555e-05
4.02272317977e-05
4.08569889762e-05
4.14454411416e-05
4.19503865101e-05
4.23282813173e-05
4.2537702154e-05
4.25442481963e-05
4.23277234848e-05
4.18934974079e-05
4.13141700793e-05
4.06186590432e-05
9.21949266077e-05
9.18208863358e-05
9.10825958431e-05
8.99998751058e-05
8.8600121032e-05
8.6916030191e-05
8.49836703167e-05
8.28409701039e-05
8.05265437341e-05
7.80787446024e-05
7.55348944796e-05
7.29306438088e-05
7.02994623491e-05
6.76722468428e-05
6.50770562261e-05
6.25389570771e-05
6.00799781259e-05
5.77191421118e-05
5.54725633969e-05
5.33535740148e-05
5.13728694705e-05
4.95386448253e-05
4.7856726732e-05
4.6330686606e-05
4.49619566469e-05
4.37499446203e-05
4.26921765949e-05
4.17844624671e-05
4.10211080206e-05
4.03951560848e-05
3.9898667642e-05
3.95230117098e-05
3.92591659796e-05
3.90979923924e-05
3.90304915564e-05
3.90480062491e-05
3.91423871633e-05
3.93061010739e-05
3.9532303249e-05
3.98148611472e-05
4.01483546974e-05
4.05280419881e-05
4.09498139015e-05
4.14101221532e-05
4.19064512212e-05
4.24368155086e-05
4.29994982795e-05
4.35931502438e-05
4.42167671037e-05
4.48696507755e-05
4.5551376765e-05
4.62617566081e-05
4.70008091644e-05
4.77687278775e-05
4.85658554645e-05
4.93926533676e-05
5.0249676009e-05
5.11375377601e-05
5.20568814946e-05
5.30083371883e-05
5.39924783301e-05
5.50097650445e-05
5.60604806704e-05
5.71446510783e-05
5.82619526271e-05
5.941159845e-05
6.05922083333e-05
6.18016522884e-05
6.30368726164e-05
6.42936751931e-05
6.55664953305e-05
6.68481320501e-05
6.81294622177e-05
6.93991416006e-05
7.06433265967e-05
7.18454591381e-05
7.29861956866e-05
7.40435770894e-05
7.49935642056e-05
7.58110434625e-05
7.64713585984e-05
7.69522938527e-05
7.72362616299e-05
7.73122339542e-05
7.71768292209e-05
7.68340995907e-05
7.62947448035e-05
7.55739113908e-05
7.4689430985e-05
7.36605336223e-05
7.25069119009e-05
7.1248052458e-05
6.99027624291e-05
6.84888380627e-05
6.70228442539e-05
6.55199811643e-05
6.3994022931e-05
6.24573129447e-05
6.09208044271e-05
5.93941334204e-05
5.78857152648e-05
5.6402854856e-05
5.49518650889e-05
5.35381874256e-05
5.21665120804e-05
5.08408944376e-05
4.95648669649e-05
4.83415444795e-05
4.71737225733e-05
4.60639668713e-05
4.50146894121e-05
4.40283398528e-05
4.31076653625e-05
4.22554385128e-05
4.14744891513e-05
4.07677068478e-05
4.0138003363e-05
3.95882246627e-05
3.9121002616e-05
3.87385337999e-05
3.84422743872e-05
3.82325404054e-05
3.81080089142e-05
3.80651223921e-05
3.80974130045e-05
3.81947797586e-05
3.83427759588e-05
3.85219894259e-05
3.8707626122e-05
3.8869426799e-05
3.89720519942e-05
3.8976047357e-05
3.88394509056e-05
3.8520043579e-05
3.79782569896e-05
3.71810056346e-05
3.61074645809e-05
3.47593488739e-05
3.31882714485e-05
3.14526798919e-05
8.68300071722e-05
8.65235698394e-05
8.5918212513e-05
8.50284072092e-05
8.38744468283e-05
8.24812371945e-05
8.08769911428e-05
7.9092011907e-05
7.71576346016e-05
7.51053257653e-05
7.2965948452e-05
7.0769171466e-05
6.85430250217e-05
6.6313579237e-05
6.41047438388e-05
6.19381582864e-05
5.98331635433e-05
5.78068188396e-05
5.58739535896e-05
5.40472209581e-05
5.23371525587e-05
5.07521928144e-05
4.92987280351e-05
4.79811026335e-05
4.68016505538e-05
4.57607411296e-05
4.48568700062e-05
4.40867888897e-05
4.34456953791e-05
4.29274621677e-05
4.25249129246e-05
4.22301110692e-05
4.20346611133e-05
4.19299859967e-05
4.19075834014e-05
4.19592317017e-05
4.20771582012e-05
4.22541504861e-05
4.24836320932e-05
4.27596902953e-05
4.30770808871e-05
4.34312003831e-05
4.38180507394e-05
4.42341889093e-05
4.46766902429e-05
4.5144175613e-05
4.56349826057e-05
4.61477865558e-05
4.66815555539e-05
4.72355071514e-05
4.78090761732e-05
4.84018794584e-05
4.90136894706e-05
4.96444042477e-05
5.02940246552e-05
5.09626270824e-05
5.16503414181e-05
5.23573230836e-05
5.30837279897e-05
5.38296798145e-05
5.45952376236e-05
5.53803537897e-05
5.6184829523e-05
5.70082585159e-05
5.78499655213e-05
5.87089309948e-05
5.95837084245e-05
6.04723262744e-05
6.13721813564e-05
6.22799167489e-05
6.31912921676e-05
6.41010426685e-05
6.50027376836e-05
6.58886439511e-05
6.67496157091e-05
6.75750324426e-05
6.83528274624e-05
6.90696476786e-05
6.97111983498e-05
7.02628026236e-05
7.07101823595e-05
7.10403991616e-05
7.12428342718e-05
7.13100200178e-05
7.12381428303e-05
7.10271282994e-05
7.06802764066e-05
7.02041398554e-05
6.96074087512e-05
6.89002461055e-05
6.80937409735e-05
6.71994603197e-05
6.62290876933e-05
6.5194136792e-05
6.4105734167e-05
6.29744610725e-05
6.18102481645e-05
6.0622313013e-05
5.94191339087e-05
5.82084507946e-05
5.69972879421e-05
5.57919912959e-05
5.45982770968e-05
5.34212869962e-05
5.22656479591e-05
5.11355336985e-05
5.00347267726e-05
4.8966678805e-05
4.79345683045e-05
4.69413534288e-05
4.59898150235e-05
4.50826954298e-05
4.42230602758e-05
4.3413895114e-05
4.26581012508e-05
4.19584630978e-05
4.13175755549e-05
4.07377214404e-05
4.02206906608e-05
3.97675312429e-05
3.93782250626e-05
3.90512826396e-05
3.8783258641e-05
3.85681970234e-05
3.83970287705e-05
3.82569598098e-05
3.81309078252e-05
3.79970669284e-05
3.78287021135e-05
3.75942904821e-05
3.72581320596e-05
3.67815350345e-05
3.61246380595e-05
3.52488730111e-05
3.4120063506e-05
3.27123660872e-05
3.10140282169e-05
2.9037622386e-05
2.68421679709e-05
2.45271545134e-05
8.25338031846e-05
8.22797322476e-05
8.17774420722e-05
8.10381345719e-05
8.00776145412e-05
7.8915518851e-05
7.75743801058e-05
7.6078677845e-05
7.44539645173e-05
7.27260949203e-05
7.0920590955e-05
6.90621336999e-05
6.71741918909e-05
6.52787614603e-05
6.33962118509e-05
6.15452033248e-05
5.97426644062e-05
5.80037913212e-05
5.63420621088e-05
5.47692351311e-05
5.32953376155e-05
5.19286283938e-05
5.06755565531e-05
4.95407131934e-05
4.85268084926e-05
4.76346748799e-05
4.68633271869e-05
4.62100718188e-05
4.56706836723e-05
4.5239627175e-05
4.49103260761e-05
4.46754465175e-05
4.45271919333e-05
4.44575733834e-05
4.44586584137e-05
4.45227701394e-05
4.46426493806e-05
4.4811561561e-05
4.50233692342e-05
4.5272558529e-05
4.55542435852e-05
4.58641393799e-05
4.61985261384e-05
4.65541949889e-05
4.69283940284e-05
4.73198851335e-05
4.77272675335e-05
4.81494021727e-05
4.85853793478e-05
4.90344819464e-05
4.94961579381e-05
4.99699896654e-05
5.04556716448e-05
5.09529848843e-05
5.14617783833e-05
5.19819465343e-05
5.25134121288e-05
5.30561043446e-05
5.36099405847e-05
5.41748021859e-05
5.47505121779e-05
5.53368057147e-05
5.5933300816e-05
5.65394606307e-05
5.71545545168e-05
5.77776098029e-05
5.8407361462e-05
5.90421923744e-05
5.96800717141e-05
6.03184852788e-05
6.09543662211e-05
6.15840219914e-05
6.22030683043e-05
6.28063699915e-05
6.33880046728e-05
6.39412561658e-05
6.44586607701e-05
6.49321195566e-05
6.53531002758e-05
6.57129331045e-05
6.60031998684e-05
6.62161823356e-05
6.63453204586e-05
6.63856046151e-05
6.63338411655e-05
6.61887638544e-05
6.59509678794e-05
6.56226875408e-05
6.52079218289e-05
6.47117863729e-05
6.41402159955e-05
6.3499709835e-05
6.27971119139e-05
6.20394239797e-05
6.12336518412e-05
6.03866820357e-05
5.95051887452e-05
5.85955659526e-05
5.76638829753e-05
5.67158578936e-05
5.57568468524e-05
5.47918446229e-05
5.38254951104e-05
5.28621083149e-05
5.19056830214e-05
5.09599323989e-05
5.00283119365e-05
4.91140472221e-05
4.82201611646e-05
4.73494981563e-05
4.6504740435e-05
4.56884663414e-05
4.49036322377e-05
4.41530586291e-05
4.34393960599e-05
4.2765063963e-05
4.21321512464e-05
4.15422693352e-05
4.09963509618e-05
4.04943873296e-05
4.00350997412e-05
3.96155440013e-05
3.92306536225e-05
3.8872735176e-05
3.85309425351e-05
3.81907698778e-05
3.78336220842e-05
3.74365384683e-05
3.69721663835e-05
3.64090963517e-05
3.57126815497e-05
3.48464590762e-05
3.37742664943e-05
3.24630998909e-05
3.08867295747e-05
2.90302064121e-05
2.68959969883e-05
2.45141192871e-05
2.19620391777e-05
1.93759624609e-05
7.90658083772e-05
7.88533869958e-05
7.84332375175e-05
7.7814343686e-05
7.7009416658e-05
7.60343363512e-05
7.49074288765e-05
7.36487081835e-05
7.2279162941e-05
7.08201179662e-05
6.92927085365e-05
6.77174631595e-05
6.61140065737e-05
6.45008574188e-05
6.28953160837e-05
6.1313404999e-05
5.97698509175e-05
5.82780711291e-05
5.68501593628e-05
5.54968440586e-05
5.42274298196e-05
5.30497104646e-05
5.19698804245e-05
5.099244479e-05
5.0120162821e-05
4.93540260262e-05
4.86933011039e-05
4.81356276367e-05
4.76771868857e-05
4.73129155693e-05
4.70367674093e-05
4.68419860748e-05
4.67213878907e-05
4.66676187237e-05
4.66733889374e-05
4.67316594381e-05
4.68357922221e-05
4.69796480121e-05
4.71576517067e-05
4.7364814218e-05
4.75967340593e-05
4.78495689926e-05
4.81199999219e-05
4.84051767386e-05
4.87026660568e-05
4.90112823899e-05
4.93299692769e-05
4.965786381e-05
4.99942723952e-05
5.03386402225e-05
5.06905290636e-05
5.10495918467e-05
5.14155554917e-05
5.17882003013e-05
5.21673463616e-05
5.25528360333e-05
5.29445221777e-05
5.33422518699e-05
5.37458545071e-05
5.41551247001e-05
5.45698082617e-05
5.49895822848e-05
5.54140371707e-05
5.58426521778e-05
5.62747720646e-05
5.67095769969e-05
5.71460532223e-05
5.75829573806e-05
5.80187821559e-05
5.84517170366e-05
5.88796124691e-05
5.92999424714e-05
5.97097752011e-05
6.01057486019e-05
6.04840627237e-05
6.08404886519e-05
6.11704078366e-05
6.14688832761e-05
6.17307748124e-05
6.19508948465e-05
6.21242056486e-05
6.2246039122e-05
6.23123216802e-05
6.23197704475e-05
6.22660382043e-05
6.21497876957e-05
6.19707160602e-05
6.17294429522e-05
6.14273692608e-05
6.10669259789e-05
6.06511434076e-05
6.01834982121e-05
5.96677937483e-05
5.91080555191e-05
5.8508441565e-05
5.78731644663e-05
5.72064276209e-05
5.65123733406e-05
5.57950438001e-05
5.5058351658e-05
5.43060606163e-05
5.35417729075e-05
5.27689238965e-05
5.19907811924e-05
5.1210448366e-05
5.04308708255e-05
4.96548436579e-05
4.88850190221e-05
4.81239128306e-05
4.73739084848e-05
4.66372557129e-05
4.59160586168e-05
4.52128066562e-05
4.45298649893e-05
4.38693808285e-05
4.32331993079e-05
4.26227460432e-05
4.20388652782e-05
4.14816083452e-05
4.09499674315e-05
4.04415535844e-05
3.99522203809e-05
3.94756425493e-05
3.90028659244e-05
3.85218579061e-05
3.80170994863e-05
3.74692770476e-05
3.68551475582e-05
3.61476702267e-05
3.53165136675e-05
3.43290640967e-05
3.31520664387e-05
3.17540244362e-05
3.01084545709e-05
2.81980464353e-05
2.60198092234e-05
2.35916785266e-05
2.09624755824e-05
1.82302429566e-05
1.55612167857e-05
7.62432383319e-05
7.60647382299e-05
7.57115929779e-05
7.51911834941e-05
7.45139614362e-05
7.36930065362e-05
7.27434335938e-05
7.16817639062e-05
7.05253355951e-05
6.92917779623e-05
6.79985862285e-05
6.66627904876e-05
6.53007311186e-05
6.39279130206e-05
6.25589341299e-05
6.12074492821e-05
5.98861600309e-05
5.86067931756e-05
5.73800670295e-05
5.62156209965e-05
5.51219238916e-05
5.41061528435e-05
5.31740734737e-05
5.23299235919e-05
5.15763367506e-05
5.09143061628e-05
5.0343218214e-05
4.98609431258e-05
4.94639970848e-05
4.91477477034e-05
4.89066645701e-05
4.87345782358e-05
4.86249465597e-05
4.85710939693e-05
4.85664287385e-05
4.86046126458e-05
4.86796971856e-05
4.87862096495e-05
4.89192097615e-05
4.907430555e-05
4.92476512645e-05
4.9435917473e-05
4.96362547208e-05
4.98462399252e-05
5.00638238828e-05
5.02878220259e-05
5.05175605494e-05
5.07524994777e-05
5.09922139588e-05
5.12363679114e-05
5.14846964077e-05
5.17369853877e-05
5.19930596934e-05
5.22527676497e-05
5.25159724284e-05
5.27825394518e-05
5.3052329476e-05
5.33251873253e-05
5.36009352557e-05
5.38793615376e-05
5.41602127013e-05
5.44431806206e-05
5.47278924752e-05
5.50138953168e-05
5.5300643004e-05
5.55874777681e-05
5.58736140579e-05
5.61581174949e-05
5.64398866541e-05
5.67176311597e-05
5.69898540952e-05
5.7254833038e-05
5.75106082631e-05
5.7754973485e-05
5.79854784513e-05
5.81994398811e-05
5.83939704967e-05
5.85660228285e-05
5.87124560473e-05
5.8830119816e-05
5.89159582332e-05
5.89671217143e-05
5.89810826081e-05
5.89557371204e-05
5.88894864134e-05
5.87812822175e-05
5.86306402603e-05
5.84376401315e-05
5.82028151905e-05
5.79269628356e-05
5.76115702557e-05
5.7258444019e-05
5.68696229147e-05
5.64473229029e-05
5.59938911557e-05
5.55117638448e-05
5.50034297778e-05
5.4471397898e-05
5.39181710321e-05
5.33462237043e-05
5.27579855789e-05
5.21558283052e-05
5.15420568616e-05
5.09189032276e-05
5.02885230304e-05
4.96529928893e-05
4.90143085549e-05
4.83743814046e-05
4.7735033105e-05
4.70979862522e-05
4.64648501666e-05
4.58370940616e-05
4.52164550834e-05
4.46046488271e-05
4.40031426993e-05
4.34130584389e-05
4.28350446287e-05
4.22691079807e-05
4.17143995966e-05
4.1168953293e-05
4.06293773473e-05
4.00905035817e-05
3.9545005536e-05
3.89830042308e-05
3.8391692212e-05
3.77550174427e-05
3.70534844762e-05
3.62641443431e-05
3.5360863056e-05
3.43149749602e-05
3.30964470193e-05
3.16756949632e-05
3.00262016424e-05
2.8128075407e-05
2.59726498839e-05
2.35682023449e-05
2.09470847604e-05
1.81756859165e-05
1.53716224355e-05
1.27258557655e-05
7.39238136326e-05
7.37735818918e-05
7.34763361774e-05
7.30382373536e-05
7.24680046745e-05
7.17765411282e-05
7.09764209698e-05
7.00813503414e-05
6.91056715404e-05
6.80639296088e-05
6.69705349552e-05
6.58395117439e-05
6.46843417641e-05
6.35178736452e-05
6.23522919929e-05
6.11991061657e-05
6.00691505891e-05
5.89725603417e-05
5.7918724475e-05
5.6916195393e-05
5.5972573987e-05
5.50943651334e-05
5.42868373969e-05
5.35538902119e-05
5.28979656651e-05
5.23200041831e-05
5.18194721165e-05
5.13944465102e-05
5.104176982e-05
5.07572449588e-05
5.05358721177e-05
5.0372090901e-05
5.02600277393e-05
5.01937153954e-05
5.01672910377e-05
5.01751484254e-05
5.02120591524e-05
5.02732467619e-05
5.0354434409e-05
5.04518546829e-05
5.05622439768e-05
5.0682811363e-05
5.0811203e-05
5.09454514131e-05
5.10839288644e-05
5.12254369738e-05
5.13696442977e-05
5.15163528213e-05
5.16654317256e-05
5.18167912994e-05
5.19703692618e-05
5.21261154212e-05
5.22839848474e-05
5.24439275196e-05
5.26058844889e-05
5.27697798397e-05
5.29355181314e-05
5.31029773971e-05
5.32720067857e-05
5.34424195297e-05
5.36139898236e-05
5.37864448602e-05
5.39594602316e-05
5.4132650458e-05
5.43055625819e-05
5.44776650657e-05
5.4648339771e-05
5.48168697252e-05
5.4982430409e-05
5.51440777594e-05
5.5300740696e-05
5.54512118998e-05
5.55941448302e-05
5.57280512905e-05
5.58513077214e-05
5.59621650123e-05
5.60587698804e-05
5.61391924992e-05
5.62014672802e-05
5.62436401055e-05
5.6263826287e-05
5.62602700647e-05
5.62314068862e-05
5.61759176253e-05
5.60927746567e-05
5.59812693589e-05
5.58410218244e-05
5.56719695745e-05
5.54743654579e-05
5.52487197233e-05
5.49954019123e-05
5.47153611638e-05
5.44097038714e-05
5.40796434278e-05
5.37264764486e-05
5.3351559956e-05
5.29562936181e-05
5.25421027548e-05
5.21104239982e-05
5.16626917097e-05
5.1200327382e-05
5.07247301348e-05
5.02372699492e-05
4.97392815991e-05
4.9232060266e-05
4.87168565647e-05
4.81948712805e-05
4.76672472983e-05
4.71350586801e-05
4.65992947927e-05
4.60608393822e-05
4.55204376672e-05
4.49789218483e-05
4.44372444631e-05
4.38960886503e-05
4.33557639384e-05
4.28160747953e-05
4.22761512865e-05
4.17342394019e-05
4.11874498315e-05
4.06314685004e-05
4.00602347173e-05
3.94656005146e-05
3.88369910905e-05
3.81610978483e-05
3.74216454526e-05
3.65992890684e-05
3.56717106474e-05
3.46140005038e-05
3.33994263989e-05
3.20007138592e-05
3.03919820006e-05
2.85515011744e-05
2.6465447403e-05
2.41328153376e-05
2.15716220419e-05
1.88266422758e-05
1.59797469898e-05
1.31665634001e-05
1.05995603115e-05
7.19936042018e-05
7.18674969334e-05
7.1617991002e-05
7.12502710797e-05
7.07716640088e-05
7.0191304068e-05
6.9519672671e-05
6.87681220391e-05
6.79484518425e-05
6.70725534068e-05
6.61521501456e-05
6.5198618775e-05
6.42228984497e-05
6.3235453445e-05
6.22462827415e-05
6.12649347595e-05
6.03005203304e-05
5.93616888062e-05
5.84565731666e-05
5.7592685113e-05
5.6776783739e-05
5.6014714615e-05
5.53112556322e-05
5.46699732486e-05
5.40931265556e-05
5.358161697e-05
5.31350103773e-05
5.27516150014e-05
5.24286267679e-05
5.21623115604e-05
5.19482260914e-05
5.17814414099e-05
5.16567703238e-05
5.15689667313e-05
5.15129046993e-05
5.14837137352e-05
5.14768858942e-05
5.14883387662e-05
5.15144549997e-05
5.15520867072e-05
5.15985467347e-05
5.16515762969e-05
5.17093094329e-05
5.17702230184e-05
5.1833090651e-05
5.18969309299e-05
5.1961447702e-05
5.20268217184e-05
5.20932299108e-05
5.21608377763e-05
5.22297940996e-05
5.23002212376e-05
5.23722133909e-05
5.24458311747e-05
5.25211024348e-05
5.25980184972e-05
5.2676535582e-05
5.27565714901e-05
5.28380067951e-05
5.29206812486e-05
5.30043941499e-05
5.30888999288e-05
5.31739073221e-05
5.32590738816e-05
5.33440039171e-05
5.34282420459e-05
5.35112702551e-05
5.35925010446e-05
5.36712744371e-05
5.37468518013e-05
5.38184142175e-05
5.38850587051e-05
5.39458000186e-05
5.39995716843e-05
5.40452339207e-05
5.4081582353e-05
5.41073648562e-05
5.4121300315e-05
5.41221057657e-05
5.41085249839e-05
5.40793634768e-05
5.40335219279e-05
5.39700316511e-05
5.38880838483e-05
5.37870558342e-05
5.36665265789e-05
5.35262842156e-05
5.33663187238e-05
5.31868080697e-05
5.2988109783e-05
5.2770791413e-05
5.25349404004e-05
5.22812199638e-05
5.20103421908e-05
5.17230672596e-05
5.14201713978e-05
5.11024361449e-05
5.07706406945e-05
5.04255561558e-05
5.00679384747e-05
4.96985226531e-05
4.93180166232e-05
4.89270968656e-05
4.85264037598e-05
4.81165379048e-05
4.76980550894e-05
4.72714603843e-05
4.68371987348e-05
4.63956421301e-05
4.5947071232e-05
4.54916517573e-05
4.50293990026e-05
4.45601802366e-05
4.40841486901e-05
4.36011661948e-05
4.31106979571e-05
4.26116823914e-05
4.2102366245e-05
4.15801037881e-05
4.10411202125e-05
4.04802441343e-05
3.9890616525e-05
3.92633909526e-05
3.85874458415e-05
3.78491404253e-05
3.70321550528e-05
3.61174701846e-05
3.50835498593e-05
3.3906811633e-05
3.25624802557e-05
3.10259446099e-05
2.92747621764e-05
2.72914885404e-05
2.50675410077e-05
2.26083283382e-05
1.99398824339e-05
1.71173005004e-05
1.42358926069e-05
1.14480344715e-05
8.9860953204e-06
7.0358699281e-05
7.02537207942e-05
7.00460442046e-05
6.97400317811e-05
6.93418340663e-05
6.88590790222e-05
6.83004450726e-05
6.76752315262e-05
6.69929951685e-05
6.62632618644e-05
6.54953383114e-05
6.46982026472e-05
6.38804764929e-05
6.30504401972e-05
6.22160827974e-05
6.13851432796e-05
6.05651375625e-05
5.9763337255e-05
5.89867095267e-05
5.82418015415e-05
5.75345966608e-05
5.68703409909e-05
5.62533786617e-05
5.56869993744e-05
5.51733357154e-05
5.47133064689e-05
5.43066318588e-05
5.39519023345e-05
5.36467122318e-05
5.33878271386e-05
5.31713873883e-05
5.29931122997e-05
5.28485078373e-05
5.27330466603e-05
5.26423296198e-05
5.25722057388e-05
5.25188668735e-05
5.24789010887e-05
5.24493253593e-05
5.24275855586e-05
5.24115454038e-05
5.23994534232e-05
5.23899080391e-05
5.23818088199e-05
5.23743105707e-05
5.23667662752e-05
5.23587577263e-05
5.23508089001e-05
5.23433876488e-05
5.23369066888e-05
5.23317203442e-05
5.23281178776e-05
5.23263262172e-05
5.23265094367e-05
5.23287743259e-05
5.23331709017e-05
5.23396976417e-05
5.23483015424e-05
5.23588824257e-05
5.23712922013e-05
5.23853380233e-05
5.24007805568e-05
5.24173359178e-05
5.24346729648e-05
5.24524142167e-05
5.2470132476e-05
5.24873512038e-05
5.25035410772e-05
5.25181205997e-05
5.25304535071e-05
5.25398507012e-05
5.25455697377e-05
5.25468194654e-05
5.25427630882e-05
5.253252706e-05
5.25152092296e-05
5.2489893283e-05
5.24556628272e-05
5.24116214654e-05
5.23569118371e-05
5.22907389857e-05
5.22123906276e-05
5.21212589171e-05
5.2016856518e-05
5.18988315511e-05
5.17669750987e-05
5.1621225758e-05