/*--------------------------------*- C++ -*----------------------------------*\
| =========                 |                                                 |
| \\      /  F ield         | OpenFOAM: The Open Source CFD Toolbox           |
|  \\    /   O peration     | Version:  2206                                  |
|   \\  /    A nd           | Website:  www.openfoam.com                      |
|    \\/     M anipulation  |                                                 |
\*---------------------------------------------------------------------------*/
FoamFile
{
    version     2.0;
    format      ascii;
    arch        "LSB;label=64;scalar=64";
    class       surfaceScalarField;
    location    "4/water";
    object      phi;
}
// * * * * * * * * * * * * * * * * * * * * * * * * * * * * * * * * * * * * * //

dimensions      [0 3 -1 0 0 0 0];

oriented        oriented;

internalField   nonuniform List<scalar> 
46280
(
-4.12145742956e-10
4.12103369627e-10
-8.37041448027e-10
4.24901410707e-10
-1.27759429454e-09
4.40475030443e-10
-1.73828630926e-09
4.60705743945e-10
-2.22422028848e-09
4.85847898166e-10
-2.74013743542e-09
5.15937457498e-10
-3.29121040121e-09
5.50965990662e-10
-3.88210409229e-09
5.90918604599e-10
-4.51788131956e-09
6.35664863183e-10
-5.20285435189e-09
6.85007992e-10
-5.94154490459e-09
7.38584070252e-10
-6.73742760536e-09
7.95928546085e-10
-7.5939056683e-09
8.56380931006e-10
-8.51301056948e-09
9.19158736562e-10
-9.49637491281e-09
9.83274693125e-10
-1.05439401845e-08
1.04762269565e-09
-1.16549419385e-08
1.11091656751e-09
-1.28266780608e-08
1.17179392477e-09
-1.40555418415e-08
1.22878117341e-09
-1.53358999799e-08
1.2804150327e-09
-1.6661209916e-08
1.32522942357e-09
-1.80230389219e-08
1.36188497674e-09
-1.94122803944e-08
1.38916343101e-09
-2.08183120886e-08
1.40608738791e-09
-2.22302890546e-08
1.41190209532e-09
-2.3636399214e-08
1.40616626383e-09
-2.50251746064e-08
1.38870436529e-09
-2.63847755373e-08
1.35965800292e-09
-2.77042473131e-08
1.31940509577e-09
-2.89727663639e-08
1.26857731903e-09
-3.01807873429e-08
1.20795893241e-09
-3.13192171502e-08
1.13848925681e-09
-3.23804365242e-08
1.06116205597e-09
-3.33574091144e-08
9.77032924462e-10
-3.42445962705e-08
8.87134507997e-10
-3.50370337191e-08
7.92498237518e-10
-3.57311705035e-08
6.9408864448e-10
-3.63239475099e-08
5.92837688681e-10
-3.68135846412e-08
4.8959327053e-10
-3.71986844551e-08
3.85159835714e-10
-3.74789791122e-08
2.80254810895e-10
-3.76544701696e-08
1.75549865887e-10
-3.77261380702e-08
7.16317888684e-11
-3.76951374346e-08
-3.09434995229e-11
-3.75634857869e-08
-1.31684313456e-10
-3.73333001784e-08
-2.30130540654e-10
-3.700742873e-08
-3.25900957641e-10
-3.65887546481e-08
-4.18621333612e-10
-3.6080822238e-08
-5.07959048078e-10
-3.54871801378e-08
-5.93591813188e-10
-3.48119664322e-08
-6.75237746316e-10
-3.40592946602e-08
-7.52623926119e-10
-3.32338024549e-08
-8.25513913552e-10
-3.23400784929e-08
-8.93678437168e-10
-3.13831760619e-08
-9.56922069998e-10
-3.03680761624e-08
-1.01505645119e-09
-2.93001673207e-08
-1.06792667806e-09
-2.81847388593e-08
-1.11538680017e-09
-2.70274290018e-08
-1.15732616843e-09
-2.58337420872e-08
-1.19364669021e-09
-2.46094679115e-08
-1.22428924826e-09
-2.33602166705e-08
-1.24921213115e-09
-2.20918132047e-08
-1.26841760868e-09
-2.08098440035e-08
-1.28193090495e-09
-1.95200305646e-08
-1.28982697861e-09
-1.8227783553e-08
-1.29220934103e-09
-1.69385597979e-08
-1.28923704441e-09
-1.56574200113e-08
-1.28110265881e-09
-1.43893739464e-08
-1.26805946351e-09
-1.31389392956e-08
-1.25039816163e-09
-1.19104785249e-08
-1.22847464077e-09
-1.07077572478e-08
-1.20268567274e-09
-9.53427374822e-09
-1.17349816618e-09
-8.39281476391e-09
-1.14142467952e-09
-7.28577548053e-09
-1.1070549994e-09
-6.21471108783e-09
-1.07103191742e-09
-5.18064252675e-09
-1.03408546085e-09
-4.18360121951e-09
-9.97011331061e-10
-3.22290301235e-09
-9.6071629275e-10
-2.29665238521e-09
-9.26223891374e-10
-1.40188998333e-09
-8.94781548277e-10
-5.33914082458e-10
-8.67952995261e-10
3.13652485329e-10
-8.47586551576e-10
1.14847154286e-09
-8.34800181485e-10
1.97704445774e-09
-8.28593404131e-10
2.80346163595e-09
-8.26402194067e-10
3.62931967895e-09
-8.25878587028e-10
4.45471605964e-09
-8.25384946738e-10
5.27856442318e-09
-8.23868457971e-10
6.09919235543e-09
-8.20619610496e-10
6.91430940958e-09
-8.15136235332e-10
7.7213304746e-09
-8.07015384488e-10
8.51723838725e-09
-7.95925808797e-10
9.29881603097e-09
-7.81574134774e-10
1.00625137733e-08
-7.63714078972e-10
1.08046506609e-08
-7.42135096082e-10
1.15213129999e-08
-7.16676938426e-10
1.22085363864e-08
-6.87222886286e-10
1.28622345129e-08
-6.53710896526e-10
1.34783610335e-08
-6.1612692619e-10
1.40528616314e-08
-5.74511526032e-10
1.45818136145e-08
-5.28952957599e-10
1.50613947121e-08
-4.79590236319e-10
1.54880001664e-08
-4.26606712827e-10
1.58582235346e-08
-3.70230823378e-10
1.61689528362e-08
-3.10730608405e-10
1.64173599274e-08
-2.48413006247e-10
1.66009780116e-08
-1.83619247424e-10
1.67176963374e-08
-1.16722869388e-10
1.67658208715e-08
-4.81254028794e-11
1.67440720968e-08
2.17454177811e-11
1.665162926e-08
9.24423745458e-11
1.64881385875e-08
1.63488308082e-10
1.62537657559e-08
2.34372848981e-10
1.59492159729e-08
3.04548212389e-10
1.55757893604e-08
3.73427147175e-10
1.5135407854e-08
4.40380532107e-10
1.46306751431e-08
5.04733760375e-10
1.40649104103e-08
5.65764159313e-10
1.34422120766e-08
6.22699853255e-10
1.27674888607e-08
6.74722854826e-10
1.20465120386e-08
7.2097871595e-10
1.12859162254e-08
7.60595488688e-10
1.04932028091e-08
7.92715541207e-10
9.6766621253e-09
8.16540244334e-10
8.84527542991e-09
8.31388847405e-10
8.0085104658e-09
8.36764278273e-10
7.17609095223e-09
8.32421461013e-10
6.35766701892e-09
8.18422916817e-10
5.56249302718e-09
7.95175504892e-10
4.79905691578e-09
7.63434790806e-10
4.07477580125e-09
7.24282019232e-10
3.39569853295e-09
6.79075753552e-10
2.76629494332e-09
6.294037851e-10
2.1892330028e-09
5.77060417439e-10
1.66512949839e-09
5.24102652609e-10
1.19207851813e-09
4.73049197857e-10
7.64762430668e-10
4.27314008416e-10
3.72844487626e-10
3.91915668194e-10
3.72843824242e-10
-4.48920058636e-10
8.60980654964e-10
-9.02740452814e-10
8.78700917237e-10
-1.37002366711e-09
9.0769758663e-10
-1.85671992265e-09
9.47388557076e-10
-2.36844574714e-09
9.97509589582e-10
-2.9104069337e-09
1.05789044703e-09
-3.48790465632e-09
1.12839413815e-09
-4.10582067466e-09
1.20883157656e-09
-4.76908643945e-09
1.29886310353e-09
-5.48203481975e-09
1.39796095641e-09
-6.24886468766e-09
1.50535276514e-09
-7.07293102921e-09
1.6200082456e-09
-7.9572034216e-09
1.74059959388e-09
-8.90353019868e-09
1.86550457446e-09
-9.91309234921e-09
1.99278806679e-09
-1.09856800535e-08
2.12023169932e-09
-1.21201611083e-08
2.24535120624e-09
-1.33138092117e-08
2.36546333946e-09
-1.45628190538e-08
2.47774559365e-09
-1.5861723003e-08
2.57933963237e-09
-1.72039825855e-08
2.66744453306e-09
-1.85815167792e-08
2.73943951535e-09
-1.9985381863e-08
2.79298558382e-09
-2.14054102853e-08
2.82613663693e-09
-2.28309637913e-08
2.83741507015e-09
-2.42506532053e-08
2.82587776756e-09
-2.56531228565e-08
2.79113658368e-09
-2.70268003839e-08
2.73335945458e-09
-2.83606568578e-08
2.65322776713e-09
-2.96439323601e-08
2.55187885884e-09
-3.08668226953e-08
2.43081931669e-09
-3.20201436241e-08
2.29183834145e-09
-3.30959189098e-08
2.13691129456e-09
-3.40869741819e-08
1.96811824564e-09
-3.49874285042e-08
1.78756651422e-09
-3.57922336092e-08
1.59733490474e-09
-3.6497589732e-08
1.39942594155e-09
-3.71004576167e-08
1.1957381767e-09
-3.75989239278e-08
9.88043890808e-10
-3.79917125965e-08
7.77981654075e-10
-3.82785206876e-08
5.67050007824e-10
-3.84595490716e-08
3.56611470709e-10
-3.85358237232e-08
1.47895967103e-10
-3.85087460384e-08
-5.79883152394e-11
-3.8380378933e-08
-2.60059796887e-10
-3.81530349928e-08
-4.57442320399e-10
-3.78295984953e-08
-6.49344071851e-10
-3.74131436805e-08
-8.35044956849e-10
-3.6907218878e-08
-1.0138889702e-09
-3.63155053177e-08
-1.18527531031e-09
-3.56420911386e-08
-1.34865579645e-09
-3.48911589642e-08
-1.50352721486e-09
-3.40672451121e-08
-1.64943056572e-09
-3.3174950627e-08
-1.78594517406e-09
-3.22191841425e-08
-1.91269045464e-09
-3.12048918009e-08
-2.02932206357e-09
-3.01372832753e-08
-2.13553632824e-09
-2.90215759444e-08
-2.23106825895e-09
-2.78632041754e-08
-2.31569842494e-09
-2.66675732606e-08
-2.38925239913e-09
-2.54402527637e-08
-2.45160971135e-09
-2.41867360113e-08
-2.50270416621e-09
-2.29126188478e-08
-2.54253437386e-09
-2.1623361101e-08
-2.57116427999e-09
-2.03244527906e-08
-2.58873468864e-09
-1.90211748021e-08
-2.59546323762e-09
-1.77187550192e-08
-2.59165625243e-09
-1.64221264226e-08
-2.57770747272e-09
-1.51360757136e-08
-2.55410986783e-09
-1.38649975576e-08
-2.52145299692e-09
-1.26130372024e-08
-2.48043527066e-09
-1.13838393375e-08
-2.43186095362e-09
-1.0180684284e-08
-2.37665437566e-09
-9.00622941935e-09
-2.31585808194e-09
-7.86263686977e-09
-2.25064989525e-09
-6.75130692207e-09
-2.18234200024e-09
-5.67299687992e-09
-2.112399281e-09
-4.62755291957e-09
-2.04243758792e-09
-3.61403143103e-09
-1.97424319248e-09
-2.63046772807e-09
-1.90977265595e-09
-1.67409223673e-09
-1.8511641688e-09
-7.41387462685e-10
-1.80064604525e-09
1.71175834414e-10
-1.76015862642e-09
1.06691273882e-09
-1.73052868148e-09
1.94884821142e-09
-1.71053901789e-09
2.81976996791e-09
-1.69731862092e-09
3.68156976015e-09
-1.68768946092e-09
4.53518499316e-09
-1.67899747676e-09
5.38055111422e-09
-1.66924611575e-09
6.21688247734e-09
-1.65695038901e-09
7.04271568553e-09
-1.64098099092e-09
7.8561343679e-09
-1.62043511386e-09
8.65476553244e-09
-1.59456815303e-09
9.43593832049e-09
-1.56274915771e-09
1.01966627036e-08
-1.52444897984e-09
1.09337551577e-08
-1.47923057999e-09
1.16438220006e-08
-1.42675341422e-09
1.23233673618e-08
-1.36677172871e-09
1.29687871732e-08
-1.29913930556e-09
1.35764636355e-08
-1.22380703192e-09
1.41427688018e-08
-1.14082416718e-09
1.4664146192e-08
-1.05033391689e-09
1.51371213609e-08
-9.52571727674e-10
1.55583712051e-08
-8.4785986738e-10
1.59247393882e-08
-7.36604193513e-10
1.62332947119e-08
-6.19288844067e-10
1.64813501435e-08
-4.96472543287e-10
1.66665123974e-08
-3.68783913722e-10
1.67867041557e-08
-2.36917731469e-10
1.68402078354e-08
-1.01630927836e-10
1.68256893042e-08
3.6261745932e-11
1.67422345239e-08
1.75895912496e-10
1.65893783069e-08
3.16343105507e-10
1.63671544065e-08
4.56596115374e-10
1.60761342799e-08
5.95567572785e-10
1.57174759178e-08
7.32085461484e-10
1.52929671193e-08
8.64889079279e-10
1.48050759557e-08
9.92625410428e-10
1.42569911312e-08
1.1138490998e-09
1.36526643117e-08
1.22702760915e-09
1.29968313686e-08
1.33055612718e-09
1.22950262147e-08
1.42278513506e-09
1.15535568444e-08
1.50206524519e-09
1.07794626647e-08
1.56681115771e-09
9.98041792587e-09
1.61558527235e-09
9.1646113953e-09
1.64719679393e-09
8.34056781515e-09
1.66080790788e-09
7.51695602048e-09
1.65603444229e-09
6.70235287436e-09
1.63302575922e-09
5.9050180014e-09
1.5925111436e-09
5.13264766427e-09
1.53580442213e-09
4.39215969247e-09
1.4647702554e-09
3.68946892517e-09
1.38176551128e-09
3.02928709424e-09
1.28958521074e-09
2.41489172436e-09
1.19145459427e-09
1.84786200055e-09
1.0911311663e-09
1.3277060841e-09
9.93203333174e-10
8.51336974825e-10
9.03680845862e-10
4.12554712353e-10
8.30695534963e-10
7.85397846148e-10
-4.89688791714e-10
1.35061382487e-09
-9.82076096636e-10
1.37105679519e-09
-1.48648702988e-09
1.41203968252e-09
-2.00983347702e-09
1.47071477239e-09
-2.55832082093e-09
1.54593072203e-09
-3.13757761022e-09
1.63713704667e-09
-3.753181205e-09
1.74393619226e-09
-4.41020128679e-09
1.8658515243e-09
-5.11358744411e-09
2.00219204567e-09
-5.86759498454e-09
2.15197798529e-09
-6.67617507779e-09
2.31388295351e-09
-7.54235423394e-09
2.48620329609e-09
-8.46862382545e-09
2.66682465531e-09
-9.45631391095e-09
2.85321384449e-09
-1.05059852889e-08
3.04241767227e-09
-1.1616827271e-08
3.23109324474e-09
-1.27870725425e-08
3.41555550151e-09
-1.401345024e-08
3.59185943666e-09
-1.52916478873e-08
3.75590240887e-09
-1.66158459835e-08
3.90355489119e-09
-1.79792456335e-08
4.03080387429e-09
-1.93736974709e-08
4.13390796944e-09
-2.07902991514e-08
4.20954836156e-09
-2.2219113108e-08
4.25496767551e-09
-2.36498187466e-08
4.26808415307e-09
-2.50714934035e-08
4.24757082277e-09
-2.64732853936e-08
4.19289513531e-09
-2.78442174609e-08
4.10431186953e-09
-2.91738362617e-08
3.98281674207e-09
-3.04519941856e-08
3.83005934394e-09
-3.166943475e-08
3.64823389498e-09
-3.2817520975e-08
3.43994936454e-09
-3.38887340108e-08
3.2081021728e-09
-3.48763384691e-08
2.95574948659e-09
-3.5774794493e-08
2.68600402953e-09
-3.65793720983e-08
2.40194091139e-09
-3.72864939044e-08
2.10653258694e-09
-3.78933221935e-08
1.80259599378e-09
-3.83980553827e-08
1.49276490743e-09
-3.87995123261e-08
1.17946877665e-09
-3.90974024334e-08
8.6493054641e-10
-3.92919254843e-08
5.51164868267e-10
-3.93840257181e-08
2.39988866773e-10
-3.93750108402e-08
-6.69730788188e-11
-3.92668072161e-08
-3.68268876224e-10
-3.90615864425e-08
-6.62633575868e-10
-3.87620162042e-08
-9.48918205658e-10
-3.8370949125e-08
-1.22608335581e-09
-3.78916560319e-08
-1.4931846788e-09
-3.73275398253e-08
-1.74936384196e-09
-3.66823615231e-08
-1.99383565929e-09
-3.59599796314e-08
-2.225882474e-09
-3.51645652496e-08
-2.44484563385e-09
-3.43003614705e-08
-2.6501233366e-09
-3.33718855585e-08
-2.84116631973e-09
-3.23837038762e-08
-3.0174790222e-09
-3.13406202993e-08
-3.17861924401e-09
-3.02474623433e-08
-3.32420224066e-09
-2.91092557209e-08
-3.45390387587e-09
-2.79310176319e-08
-3.56746707105e-09
-2.67179179773e-08
-3.6647077909e-09
-2.54750760083e-08
-3.74552311648e-09
-2.42077092438e-08
-3.80989928078e-09
-2.29209302687e-08
-3.85792048706e-09
-2.16198849323e-08
-3.88977803894e-09
-2.03095467297e-08
-3.9057788682e-09
-1.89948462939e-08
-3.90635476557e-09
-1.768046171e-08
-3.89206969469e-09
-1.63709414492e-08
-3.86362851021e-09
-1.50704895622e-08
-3.82188288313e-09
-1.3783083771e-08
-3.76784002801e-09
-1.25122549962e-08
-3.70266833934e-09
-1.12612016373e-08
-3.62770759288e-09
-1.00325639845e-08
-3.54447534007e-09
-8.82853677308e-09
-3.4546781539e-09
-7.65064445737e-09
-3.36021538725e-09
-6.4998625248e-09
-3.2631837152e-09
-5.376418178e-09
-3.1658650579e-09
-4.27996134903e-09
-3.07070418862e-09
-3.20947086846e-09
-2.98024891729e-09
-2.16360113088e-09
-2.89703985206e-09
-1.14086341544e-09
-2.82337266187e-09
-1.40163832774e-10
-2.76086585446e-09
8.39124880612e-10
-2.70980953614e-09
1.79770721514e-09
-2.66913040113e-09
2.7368108165e-09
-2.63641737597e-09
3.65759981669e-09
-2.60848846482e-09
4.56098496955e-09
-2.58238034317e-09
5.44729980887e-09
-2.55557143097e-09
6.31635359605e-09
-2.52600393503e-09
7.16736395106e-09
-2.49200185586e-09
7.99910527139e-09
-2.45217774211e-09
8.80989531816e-09
-2.40536838484e-09
9.59773601534e-09
-2.35059226988e-09
1.03603066791e-08
-2.28702922589e-09
1.10950821498e-08
-2.21400918679e-09
1.179932915e-08
-2.1310091905e-09
1.24702048599e-08
-2.03765096775e-09
1.31047578952e-08
-1.93370017362e-09
1.37000108876e-08
-1.81906367341e-09
1.42529663964e-08
-1.69378648751e-09
1.47606760196e-08
-1.55804709002e-09
1.52202507928e-08
-1.41215226432e-09
1.56289190454e-08
-1.25653140075e-09
1.59840407943e-08
-1.09173067297e-09
1.62831566678e-08
-9.18407602217e-10
1.65240060589e-08
-7.37325679145e-10
1.6704569654e-08
-5.49349904691e-10
1.68230913902e-08
-3.5544229702e-10
1.68781169187e-08
-1.56658303042e-10
1.68685188489e-08
4.58578121929e-11
1.67935345329e-08
2.50878961901e-10
1.66527931532e-08
4.57083201429e-10
1.64463566078e-08
6.63031975175e-10
1.61747564618e-08
8.67167035462e-10
1.58390359706e-08
1.06780582296e-09
1.54407866262e-08
1.26313821153e-09
1.49821869695e-08
1.45122543905e-09
1.44660307699e-08
1.63000542006e-09
1.38957525764e-08
1.79730659113e-09
1.32754334981e-08
1.95087551129e-09
1.26097986176e-08
2.0884210999e-09
1.19041844229e-08
2.20767977876e-09
1.11644948528e-08
2.30650195212e-09
1.03971216505e-08
2.38295869547e-09
9.6088577111e-09
2.43546191498e-09
8.80677780051e-09
2.46288778482e-09
7.99812409139e-09
2.46468908939e-09
7.19016776568e-09
2.44098167524e-09
6.39008617903e-09
2.3925932361e-09
5.60482004657e-09
2.3210697329e-09
4.84094413669e-09
2.22864610327e-09
4.10450878197e-09
2.11819970599e-09
3.40087414355e-09
1.99321922033e-09
2.73449108125e-09
1.85783621063e-09
2.10863014088e-09
1.71699066744e-09
1.52499136286e-09
1.57684017964e-09
9.83069154961e-10
1.44560061078e-09
4.78587558977e-10
1.33517458138e-09
1.26398467154e-09
-5.29828266733e-10
1.88037497478e-09
-1.06389795508e-09
1.9050864083e-09
-1.61024363967e-09
1.95830801429e-09
-2.17591377784e-09
2.03635784791e-09
-2.76743208098e-09
2.13737995671e-09
-3.39070879449e-09
2.26040469091e-09
-4.05152791692e-09
2.40469420009e-09
-4.75505763863e-09
2.56938592429e-09
-5.50622565107e-09
2.7533096243e-09
-6.30913192582e-09
2.95489845298e-09
-7.16742445221e-09
3.172131338e-09
-8.08369807026e-09
3.4024974216e-09
-9.05988599368e-09
3.64297247102e-09
-1.00966654263e-08
3.89001556818e-09
-1.11938706212e-08
4.1395840106e-09
-1.23499351364e-08
4.38717899372e-09
-1.35623380062e-08
4.62791917168e-09
-1.4827107311e-08
4.85664788553e-09
-1.61393140351e-08
5.06806938935e-09
-1.74926520721e-08
5.25691030655e-09
-1.887998729e-08
5.41809955381e-09
-2.02930165359e-08
5.54695383813e-09
-2.17228675449e-08
5.63936112643e-09
-2.31598256117e-08
5.69194274787e-09
-2.45939664933e-08
5.7021891463e-09
-2.60149259555e-08
5.66854862662e-09
-2.74125356772e-08
5.59047212368e-09
-2.87766017232e-08
5.46839821772e-09
-3.00975080611e-08
5.30369400843e-09
-3.1365970343e-08
5.09854417252e-09
-3.25735772293e-08
4.8558155698e-09
-3.37124975334e-08
4.57889443725e-09
-3.47759448315e-08
4.27152809226e-09
-3.57578339918e-08
3.93766538638e-09
-3.66531720176e-08
3.581324294e-09
-3.74576759523e-08
3.206473147e-09
-3.81681051067e-08
2.81694728142e-09
-3.87818604808e-08
2.41638074343e-09
-3.92972772143e-08
2.00817009592e-09
-3.97132255514e-08
1.59544706071e-09
-4.0029379377e-08
1.18107535363e-09
-4.02458332808e-08
7.6764882623e-10
-4.03633572981e-08
3.57506011146e-10
-4.03830347037e-08
-4.72659235926e-11
-4.0306520114e-08
-4.44788543974e-10
-4.01356721536e-08
-8.33452431364e-10
-3.9872807321e-08
-1.21178664496e-09
-3.95203990558e-08
-1.57846340793e-09
-3.90813075541e-08
-1.93227858542e-09
-3.85585067192e-08
-2.27213749723e-09
-3.79553059188e-08
-2.59703788791e-09
-3.72751004722e-08
-2.90606181509e-09
-3.65215819876e-08
-3.1983647385e-09
-3.56985078731e-08
-3.47317236969e-09
-3.48098988131e-08
-3.72977533069e-09
-3.38598231324e-08
-3.96753052895e-09
-3.28525808956e-08
-4.18586086931e-09
-3.17924991567e-08
-4.38426054983e-09
-3.06841028491e-08
-4.56229911089e-09
-2.95319171711e-08
-4.71962988177e-09
-2.83406260083e-08
-4.85599751424e-09
-2.71148779805e-08
-4.97124866386e-09
-2.58594335717e-08
-5.06534200081e-09
-2.45789718029e-08
-5.13836002596e-09
-2.32782276722e-08
-5.1905203696e-09
-2.19617970375e-08
-5.2221874501e-09
-2.06342663061e-08
-5.23388376928e-09
-1.93000139583e-08
-5.22630018588e-09
-1.79633347447e-08
-5.20030628668e-09
-1.66282373441e-08
-5.15695874999e-09
-1.52985656026e-08
-5.09751088793e-09
-1.3977793337e-08
-5.02341964178e-09
-1.26691459399e-08
-4.93635494343e-09
-1.13753962157e-08
-4.83820503118e-09
-1.00989925526e-08
-4.73108288645e-09
-8.84186671358e-09
-4.61732259068e-09
-7.60558412907e-09
-4.49946873053e-09
-6.39119176461e-09
-4.38024073783e-09
-5.1994288399e-09
-4.26247110575e-09
-4.03067348957e-09
-4.14899010055e-09
-2.88527194235e-09
-4.04244704952e-09
-1.763602228e-09
-3.94503114299e-09
-6.66377454603e-10
-3.85809785982e-09
4.05560278694e-10
-3.78173909702e-09
1.45135816678e-09
-3.71493682417e-09
2.4708236283e-09
-3.65587753977e-09
3.46422381987e-09
-3.60189807897e-09
4.43192317296e-09
-3.550076881e-09
5.37407603556e-09
-3.497734153e-09
6.29059241192e-09
-3.44251950679e-09
7.18098209797e-09
-3.38240142879e-09
8.04443868102e-09
-3.31563506597e-09
8.87978622353e-09
-3.24072550342e-09
9.68559219323e-09
-3.15640010216e-09
1.0460146629e-08
-3.06159266736e-09
1.12015678437e-08
-2.95543301577e-09
1.1907792405e-08
-2.83724199879e-09
1.25766652016e-08
-2.70652681439e-09
1.32059349596e-08
-2.56297729574e-09
1.37933288094e-08
-2.40646074712e-09
1.43365522756e-08
-2.23701636614e-09
1.48333505915e-08
-2.05484859241e-09
1.5281513021e-08
-1.86032013314e-09
1.56789235455e-08
-1.65394490938e-09
1.60235694754e-08
-1.43638108581e-09
1.63135840786e-08
-1.20842486169e-09
1.65472594136e-08
-9.71004586236e-10
1.67230833455e-08
-7.25176071624e-10
1.68397564495e-08
-4.72118128301e-10
1.68962255744e-08
-2.13129177394e-10
1.68917047485e-08
5.03766716379e-11
1.68257077289e-08
3.16874751476e-10
1.66980657897e-08
5.8472383498e-10
1.65089602526e-08
8.52136806676e-10
1.62589494739e-08
1.11717705538e-09
1.59490004027e-08
1.37775469099e-09
1.55805128806e-08
1.63162539837e-09
1.51553453608e-08
1.87639320799e-09
1.4675829167e-08
2.10952156867e-09
1.41447811558e-08
2.32835522192e-09
1.35654989248e-08
2.53015784604e-09
1.29417529218e-08
2.7121679766e-09
1.227775638e-08
2.87167642476e-09
1.15781349026e-08
3.00612440749e-09
1.08478737869e-08
3.11321977529e-09
1.00922731471e-08
3.19106346099e-09
9.3168851968e-09
3.23827542552e-09
8.52746868963e-09
3.25410622959e-09
7.72992859697e-09
3.23852107219e-09
6.93027491078e-09
3.19224710107e-09
6.13456081059e-09
3.11678269098e-09
5.34882740907e-09
3.01437915974e-09
4.57900785121e-09
2.88801777437e-09
3.83080584837e-09
2.74142018356e-09
3.10949426393e-09
2.57914608352e-09
2.41962114056e-09
2.40686199714e-09
1.76453435673e-09
2.23192472198e-09
1.1455786581e-09
2.06455369558e-09
5.60482709564e-10
1.92026780375e-09
1.82446659602e-09
-5.70482011256e-10
2.45078030384e-09
-1.146458781e-09
2.48101540139e-09
-1.73589571508e-09
2.5476594743e-09
-2.34577209831e-09
2.64620572745e-09
-2.98274805592e-09
2.77428181954e-09
-3.65288039518e-09
2.93052665727e-09
-4.3620556316e-09
3.11381085353e-09
-5.11545806482e-09
3.32279498458e-09
-5.91791740064e-09
3.55571969342e-09
-6.77330629135e-09
3.81030617571e-09
-7.68492097597e-09
4.08370524504e-09
-8.65487422521e-09
4.37247464724e-09
-9.68450700492e-09
4.67256797827e-09
-1.07738142568e-08
4.97934762501e-09
-1.19218885965e-08
5.28762134522e-09
-1.31263973685e-08
5.59171066759e-09
-1.43840690192e-08
5.8855526713e-09
-1.56902361168e-08
6.16283519824e-09
-1.70393699137e-08
6.41716401052e-09
-1.84246943267e-08
6.64225283985e-09
-1.98387658508e-08
6.83213187259e-09
-2.12731519206e-08
6.98135712152e-09
-2.27190437304e-08
7.08521495841e-09
-2.41669818775e-08
7.13989845167e-09
-2.56074806223e-08
7.14265227466e-09
-2.70307755282e-08
7.09186242111e-09
-2.84274316846e-08
6.98709585991e-09
-2.9788085277e-08
6.8290726656e-09
-3.11040090118e-08
6.61958901388e-09
-3.23668248736e-08
6.36138311641e-09
-3.35690086891e-08
6.05797453253e-09
-3.47035634508e-08
5.7134744642e-09
-3.57644579158e-08
5.33240152097e-09
-3.67462631988e-08
4.91949783322e-09
-3.76445317543e-08
4.47957539632e-09
-3.84554095157e-08
4.01737954308e-09
-3.91759680848e-08
3.53749163677e-09
-3.98038085135e-08
3.04425076849e-09
-4.03373606348e-08
2.54171084786e-09
-4.07754934388e-08
2.0336099167e-09
-4.11177927428e-08
1.52336573081e-09
-4.13641889282e-08
1.01407505325e-09
-4.15152200772e-08
5.08530299853e-10
-4.15716963591e-08
9.23999093723e-12
-4.15349327669e-08
-4.81557283107e-10
-4.14064178593e-08
-9.61938447571e-10
-4.11880717297e-08
-1.43013652046e-09
-4.08819403125e-08
-1.8845669045e-09
-4.04904315343e-08
-2.32378997606e-09
-4.00160487714e-08
-2.7464934413e-09
-3.94616151783e-08
-3.15147317371e-09
-3.8830028641e-08
-3.53762265854e-09
-3.8124473453e-08
-3.90392086518e-09
-3.73481934745e-08
-4.24942772089e-09
-3.65046905505e-08
-4.57327856776e-09
-3.55975122199e-08
-4.87468516949e-09
-3.46304368235e-08
-5.15293605789e-09
-3.3607272174e-08
-5.40740228093e-09
-3.25320279156e-08
-5.63754273288e-09
-3.14087217676e-08
-5.84291369512e-09
-3.0241540198e-08
-6.02317811247e-09
-2.90346491032e-08
-6.1781178356e-09
-2.7792344243e-08
-6.30764566171e-09
-2.65188636256e-08
-6.4118189917e-09
-2.52185294617e-08
-6.49085323983e-09
-2.38955600735e-08
-6.54513538698e-09
-2.2554205407e-08
-6.57523721345e-09
-2.11985571528e-08
-6.58192719897e-09
-1.98326802501e-08
-6.56618224288e-09
-1.84604212446e-08
-6.52919684367e-09
-1.70855390125e-08
-6.47239268508e-09
-1.57115136277e-08
-6.39742467035e-09
-1.43416811618e-08
-6.30618774154e-09
-1.29790489368e-08
-6.20081779284e-09
-1.16264423538e-08
-6.08369081527e-09
-1.02863381843e-08
-5.95740861995e-09
-8.96103677914e-09
-5.82477271401e-09
-7.65253327767e-09
-5.68872792312e-09
-6.36273429143e-09
-5.55227406807e-09
-5.0933876513e-09
-5.4183227418e-09
-3.84633978606e-09
-5.28950036032e-09
-2.6234729369e-09
-5.16788667051e-09
-1.42684925486e-09
-5.05472837768e-09
-2.58367037472e-10
-4.95021279137e-09
8.79953446397e-10
-4.85326528865e-09
1.98663431117e-09
-4.76255254561e-09
3.06099939658e-09
-4.67627192827e-09
4.10266652701e-09
-4.59174050213e-09
5.11134035838e-09
-4.50641713709e-09
6.08670215091e-09
-4.41787973966e-09
7.02824589753e-09
-4.32395435202e-09
7.93531762078e-09
-4.22270676653e-09
8.80702964275e-09
-4.11244642034e-09
9.64234521075e-09
-3.99171679722e-09
1.04400349151e-08
-3.85929074727e-09
1.11987646315e-08
-3.71416466289e-09
1.19170699248e-08
-3.55555497569e-09
1.25934338238e-08
-3.38289314887e-09
1.32262704672e-08
-3.19582081743e-09
1.38139902091e-08
-2.99418317867e-09
1.43549898098e-08
-2.77802197762e-09
1.48477060381e-08
-2.54756755987e-09
1.5290611619e-08
-2.30323083883e-09
1.56822594652e-08
-2.04559538216e-09
1.60212839622e-08
-1.77540983806e-09
1.63064379999e-08
-1.49358128705e-09
1.6536599137e-08
-1.20116915159e-09
1.67108014292e-08
-8.99380415444e-10
1.68282458865e-08
-5.89565247636e-10
1.68883288609e-08
-2.73213797802e-10
1.68906564549e-08
4.8047104258e-11
1.68350711705e-08
3.72458835419e-10
1.67216572114e-08
6.98136415266e-10
1.65507642582e-08
1.02302901496e-09
1.63230233926e-08
1.34491702892e-09
1.60393679038e-08
1.66140987333e-09
1.57010451936e-08
1.96994758539e-09
1.53096308457e-08
2.26780764227e-09
1.48670309143e-08
2.55212121856e-09
1.43754852692e-08
2.81990126947e-09
1.38375560489e-08
3.06808689122e-09
1.32561188375e-08
3.2936057945e-09
1.26343379701e-08
3.49345708358e-09
1.19756504768e-08
3.66481256932e-09
1.12837367679e-08
3.80513310825e-09
1.05625089764e-08
3.91229180813e-09
9.81608995337e-09
3.98469377667e-09
9.04881652053e-09
4.02137991656e-09
8.26523285934e-09
4.02210365826e-09
7.47010570605e-09
3.9873740313e-09
6.66842039884e-09
3.91846649304e-09
5.86538362017e-09
3.81741508865e-09
5.06638677093e-09
3.68701274561e-09
4.27694249704e-09
3.530863038e-09
3.50254154428e-09
3.35354485312e-09
2.74841890184e-09
3.16098247957e-09
2.01916263043e-09
2.96117849322e-09
1.31807735401e-09
2.76563611542e-09
6.46108657442e-10
2.59223357469e-09
2.47057441255e-09
-6.10072911479e-10
3.06077085984e-09
-1.22684922456e-09
3.09774122958e-09
-1.85842932492e-09
3.17914988501e-09
-2.51189142787e-09
3.29963447886e-09
-3.19400763818e-09
3.45632274794e-09
-3.91094582654e-09
3.64745591358e-09
-4.66865777525e-09
3.87146110768e-09
-5.4722939778e-09
4.12644039464e-09
-6.32655608175e-09
4.40993563336e-09
-7.23506792312e-09
4.71883836022e-09
-8.20075639698e-09
5.04935471435e-09
-9.22525287175e-09
5.39699745219e-09
-1.03093206393e-08
5.75659989193e-09
-1.14522982761e-08
6.12235198078e-09
-1.2652577257e-08
6.48786428802e-09
-1.39071072841e-08
6.84626497182e-09
-1.52119242008e-08
7.19033198892e-09
-1.65617255472e-08
7.51265776676e-09
-1.79504456481e-08
7.80584521485e-09
-1.93708967956e-08
8.06272291582e-09
-2.08153797056e-08
8.27657572605e-09
-2.22753750751e-08
8.44137044038e-09
-2.37421697125e-08
8.55197173232e-09
-2.52065758784e-08
8.60432289379e-09
-2.66595484583e-08
8.59558936741e-09
-2.80919066856e-08
8.52424026293e-09
-2.94949178136e-08
8.39007472316e-09
-3.08599994765e-08
8.19417589959e-09
-3.21792520028e-08
7.93881298299e-09
-3.3445129552e-08
7.62728443114e-09
-3.46509142021e-08
7.26373449638e-09
-3.57903556864e-08
6.85294182841e-09
-3.6858090379e-08
6.40011531517e-09
-3.78492578633e-08
5.9106930018e-09
-3.87598734852e-08
5.3901736511e-09
-3.95864336406e-08
4.84396873094e-09
-4.03262520647e-08
4.27729586586e-09
-4.09770659656e-08
3.69509452906e-09
-4.15373453226e-08
3.10197877533e-09
-4.2005910226e-08
2.50220499163e-09
-4.23822203075e-08
1.89966674426e-09
-4.26660107663e-08
1.29789553928e-09
-4.2857566977e-08
7.0007943064e-10
-4.29573773189e-08
1.09079826584e-10
-4.29664003697e-08
-4.72539667803e-10
-4.28857797085e-08
-1.04253046071e-09
-4.27170316328e-08
-1.59888869173e-09
-4.24617721579e-08
-2.13979879265e-09
-4.21219595895e-08
-2.66360555808e-09
-4.1699632089e-08
-3.16879452754e-09
-4.11971356157e-08
-3.65397178542e-09
-4.0616881637e-08
-4.11785140626e-09
-3.99615613493e-08
-4.55924257346e-09
-3.92339211357e-08
-4.97704381279e-09
-3.84369630324e-08
-5.37023749785e-09
-3.75737346333e-08
-5.73789042118e-09
-3.66475161857e-08
-6.07915483755e-09
-3.5661621706e-08
-6.39327441407e-09
-3.46195736381e-08
-6.67959072863e-09
-3.35249121238e-08
-6.93755347854e-09
-3.23813586174e-08
-7.16673123163e-09
-3.1192630527e-08
-7.36682463737e-09
-2.99625955069e-08
-7.53768008334e-09
-2.86950890636e-08
-7.6793044549e-09
-2.73940614815e-08
-7.79188013537e-09
-2.60633965173e-08
-7.87577960556e-09
-2.47070531009e-08
-7.93158000971e-09
-2.33288840539e-08
-7.96007574425e-09
-2.19327750828e-08
-7.9622908422e-09
-2.05224638714e-08
-7.93948790182e-09
-1.91016797886e-08
-7.89317685564e-09
-1.76739661027e-08
-7.82511876001e-09
-1.62428255989e-08
-7.73732901374e-09
-1.48115520801e-08
-7.63207257591e-09
-1.33833892951e-08
-7.5118552642e-09
-1.19613812069e-08
-7.3793992183e-09
-1.05485522498e-08
-7.23760441322e-09
-9.14778538082e-09
-7.08947898198e-09
-7.7620243702e-09
-6.93803903189e-09
-6.39417276074e-09
-6.78616063961e-09
-5.0472844094e-09
-6.63639392173e-09
-3.7244187401e-09
-6.49074103013e-09
-2.4287094558e-09
-6.35044405364e-09
-1.16309408787e-09
-6.21581936347e-09
6.99122692705e-11
-6.08627900885e-09
1.26763312165e-09
-5.96026702738e-09
2.42794202755e-09
-5.83658886841e-09
3.54989662894e-09
-5.71369091796e-09
4.63255323526e-09
-5.5890821155e-09
5.67521046952e-09
-5.46053464944e-09
6.67714535749e-09