/*--------------------------------*- C++ -*----------------------------------*\
| =========                 |                                                 |
| \\      /  F ield         | OpenFOAM: The Open Source CFD Toolbox           |
|  \\    /   O peration     | Version:  2206                                  |
|   \\  /    A nd           | Website:  www.openfoam.com                      |
|    \\/     M anipulation  |                                                 |
\*---------------------------------------------------------------------------*/
FoamFile
{
    version     2.0;
    format      ascii;
    arch        "LSB;label=64;scalar=64";
    class       volScalarField;
    location    "4/water";
    object      reactingEulerHtcModel(T.liquid);
}
// * * * * * * * * * * * * * * * * * * * * * * * * * * * * * * * * * * * * * //

dimensions      [1 0 -3 -1 0 0 0];

internalField   uniform 0;

boundaryField
{
    maxY
    {
        type            calculated;
        value           uniform 0;
    }
    symmetric
    {
        type            symmetry;
    }
    maxX
    {
        type            calculated;
        value           uniform 0;
    }
    minY
    {
        type            calculated;
        value           uniform 0;
    }
    emptyPatch
    {
        type            empty;
    }
    water_to_solid
    {
        type            calculated;
        value           nonuniform List<scalar> 
70
(
-90.4115027078
-90.5044148222
-90.8577738607
-92.5231117658
-97.3854586432
-108.098665
-130.078736147
-166.21068126
-202.773320653
-230.289386666
-240.783012918
-243.779063337
-238.025633724
-226.716815355
-227.402073894
-222.974036416
-227.551947146
-222.136565058
-227.461002744
-222.091959333
-227.647439936
-222.481809288
-227.816607147
-223.975831227
-227.982342479
-225.644300001
-228.184123393
-228.084250347
-238.006988713
-245.915543995
-244.967413936
-241.302223202
-238.93224727
-239.615755976
-245.331990695
-203.940827751
-114.590557892
-120.622799634
-109.274322137
-118.634189851
-108.117866644
-117.562649832
-107.970127962
-117.269236768
-109.033166169
-117.462057065
-109.701105474
-117.338506904
-111.00790704
-117.225258066
-112.381225392
-117.650053401
-114.018279064
-117.543632474
-115.769134929
-117.653301608
-132.003334606
-205.800054593
-240.543137543
-229.259444714
-230.202140617
-230.71004891
-231.171197559
-231.600156115
-231.982712452
-232.166392141
-232.803426703
-233.169816753
-242.99042724
-232.99119486
)
;
    }
}


// ************************************************************************* //
