/*--------------------------------*- C++ -*----------------------------------*\
| =========                 |                                                 |
| \\      /  F ield         | OpenFOAM: The Open Source CFD Toolbox           |
|  \\    /   O peration     | Version:  2206                                  |
|   \\  /    A nd           | Website:  www.openfoam.com                      |
|    \\/     M anipulation  |                                                 |
\*---------------------------------------------------------------------------*/
FoamFile
{
    version     2.0;
    format      ascii;
    arch        "LSB;label=64;scalar=64";
    class       volVectorField;
    location    "4/water";
    object      U.gas;
}
// * * * * * * * * * * * * * * * * * * * * * * * * * * * * * * * * * * * * * //

dimensions      [0 1 -1 0 0 0 0];

internalField   nonuniform List<vector> 
23300
(
(-0.00233590621997 0.135772559649 0)
(-0.00208653338868 0.135762687796 0)
(0.000579651434849 0.135716249493 0)
(0.000726332025397 0.135660335206 0)
(0.00083125853043 0.135596253637 0)
(0.0008828153782 0.135525448778 0)
(0.000870568806527 0.135449771622 0)
(0.000788768310107 0.135371725314 0)
(0.000633277903771 0.135293280391 0)
(0.000401530881418 0.135216997856 0)
(9.32460329079e-05 0.135144962622 0)
(-0.000290526626801 0.135079628027 0)
(-0.000746225777391 0.135022868347 0)
(-0.00126953660079 0.134976673607 0)
(-0.00185393145798 0.134942369927 0)
(-0.00249287462171 0.134921137846 0)
(-0.00317830181845 0.134913506483 0)
(-0.0039028714158 0.134919685491 0)
(-0.00465842860947 0.134939357662 0)
(-0.00543806933846 0.134971822348 0)
(-0.00623459169807 0.135016073 0)
(-0.00704227404361 0.135070741104 0)
(-0.00785532702141 0.135134425875 0)
(-0.00866938088499 0.135205423828 0)
(-0.0094799676102 0.13528227367 0)
(-0.0102837612494 0.135363259212 0)
(-0.0110771372007 0.135447139056 0)
(-0.011857235878 0.135532421274 0)
(-0.0126206575522 0.135618258824 0)
(-0.0133644282504 0.135703506125 0)
(-0.0140848889279 0.13578777102 0)
(-0.0147786187659 0.135870273015 0)
(-0.01544154057 0.135951045718 0)
(-0.0160698088811 0.136029620421 0)
(-0.0166591113516 0.136106371921 0)
(-0.0172054838532 0.136181053112 0)
(-0.0177047591127 0.136254272623 0)
(-0.0181532622976 0.13632590658 0)
(-0.0185473694893 0.136396692929 0)
(-0.018884052422 0.136466547017 0)
(-0.0191605249621 0.136536252371 0)
(-0.0193746110258 0.136605705266 0)
(-0.0195242451938 0.136675667499 0)
(-0.0196075074193 0.136745928713 0)
(-0.0196232251332 0.136817094697 0)
(-0.0195715759103 0.136888855157 0)
(-0.0194529662167 0.136961824684 0)
(-0.0192676965677 0.137035654133 0)
(-0.0190165061504 0.137110836746 0)
(-0.018700492898 0.137186901564 0)
(-0.0183212250847 0.13726421023 0)
(-0.0178805396427 0.137342186325 0)
(-0.0173807277217 0.137421064889 0)
(-0.0168242687569 0.137500172911 0)
(-0.0162140794815 0.137579618686 0)
(-0.0155531942224 0.137658635801 0)
(-0.014845061051 0.13773720231 0)
(-0.0140931787308 0.137814456813 0)
(-0.0133014280523 0.137890241494 0)
(-0.0124736731052 0.137963595651 0)
(-0.0116141190019 0.138034219386 0)
(-0.0107268847777 0.138101047738 0)
(-0.00981638527791 0.138163635181 0)
(-0.00888688124509 0.138220812366 0)
(-0.00794288813895 0.138271993653 0)
(-0.00698870942484 0.138315918616 0)
(-0.00602888061924 0.138351887116 0)
(-0.00506769141343 0.138378588965 0)
(-0.00410967593372 0.138395272441 0)
(-0.0031591342318 0.13840066824 0)
(-0.00222068424669 0.138394100513 0)
(-0.0012988041919 0.138374516886 0)
(-0.000398464925932 0.138341557165 0)
(0.000475276374276 0.138294710104 0)
(0.00131657718505 0.138234363749 0)
(0.00211919933966 0.138161115333 0)
(0.00287594911729 0.138076827436 0)
(0.00357942836841 0.137984102339 0)
(0.00422259844116 0.137887335348 0)
(0.00480202921593 0.137792261864 0)
(0.00532496077987 0.137706659676 0)
(0.00581585825577 0.13763858211 0)
(0.00629348638004 0.137594106398 0)
(0.00674491049028 0.137574752216 0)
(0.0071544233161 0.137580320774 0)
(0.00753731900083 0.137606391429 0)
(0.00792568219881 0.13764437895 0)
(0.00833837583522 0.137685608349 0)
(0.00877747771815 0.137724043874 0)
(0.00923789133001 0.137755369659 0)
(0.00971260888983 0.137777258558 0)
(0.0101938753517 0.137788117429 0)
(0.0106744760435 0.137787620711 0)
(0.0111474988391 0.137775623489 0)
(0.0116069139826 0.137752884185 0)
(0.012047172784 0.137720036013 0)
(0.0124635455107 0.137678393252 0)
(0.0128517605397 0.137628946321 0)
(0.0132082053015 0.137573210263 0)
(0.0135296579783 0.13751224605 0)
(0.0138133990955 0.13744753047 0)
(0.0140570473066 0.137380012225 0)
(0.0142586064027 0.137310986469 0)
(0.0144163978294 0.13724119139 0)
(0.0145290565564 0.13717167118 0)
(0.0145955437065 0.13710291615 0)
(0.014615097508 0.137035700255 0)
(0.0145873091619 0.136970266705 0)
(0.0145120321301 0.136907128893 0)
(0.0143894886553 0.136846305542 0)
(0.014220128129 0.136788087283 0)
(0.0140047040855 0.136732343004 0)
(0.0137441006173 0.136679203916 0)
(0.0134395487406 0.136628391647 0)
(0.0130924330522 0.136579894818 0)
(0.0127045120175 0.13653336992 0)
(0.0122776882633 0.136488745154 0)
(0.0118141932573 0.136445679763 0)
(0.0113163196213 0.136404115048 0)
(0.0107865990743 0.136363798675 0)
(0.0102275023203 0.13632478245 0)
(0.00964160944724 0.13628701229 0)
(0.00903129656367 0.136250769064 0)
(0.00839892966908 0.136216317839 0)
(0.0077466034878 0.136184278271 0)
(0.00707645350673 0.136155312784 0)
(0.00639058407856 0.136130397134 0)
(0.00569164310078 0.136110510117 0)
(0.00498307249507 0.136096766028 0)
(0.00426998228567 0.136090075777 0)
(0.00355965588747 0.136091136067 0)
(0.00286247219898 0.136100087256 0)
(0.002192355956 0.136116436566 0)
(0.00156750319306 0.136138809992 0)
(0.00101092819717 0.136164928719 0)
(0.000551624287598 0.13619156643 0)
(0.000225630945812 0.136214699541 0)
(7.06628754673e-05 0.136229994202 0)
(-0.00242715303898 0.136230519959 0)
(-0.00244734838303 0.136217817444 0)
(-0.00138256618734 0.247194898007 0)
(-0.00149945916155 0.247211349203 0)
(-0.000277419058331 0.247183763001 0)
(-0.000378278257323 0.247152270851 0)
(-0.000507959163648 0.247118211231 0)
(-0.000668286693268 0.247082393701 0)
(-0.000863987647271 0.247046313244 0)
(-0.00109922345257 0.247012097364 0)
(-0.00137719324482 0.246981321588 0)
(-0.00170005300568 0.246955916827 0)
(-0.00206889829211 0.246937246671 0)
(-0.00248410700724 0.246926850407 0)
(-0.00294500934224 0.246925668524 0)
(-0.00345048070478 0.246934572201 0)
(-0.00399849891288 0.246953826071 0)
(-0.0045868000143 0.24698338906 0)
(-0.00521239867992 0.247022689407 0)
(-0.00587224107055 0.247070705834 0)
(-0.00656270974764 0.247126080132 0)
(-0.00728022936334 0.24718698175 0)
(-0.00802077495257 0.247251544401 0)
(-0.00878041631035 0.247317501293 0)
(-0.00955484222372 0.247382907444 0)
(-0.0103398424605 0.247445521582 0)
(-0.0111308559688 0.247503765361 0)
(-0.0119233965955 0.247555827512 0)
(-0.0127126353364 0.247600817874 0)
(-0.0134937865285 0.24763758514 0)
(-0.0142617449187 0.247666042968 0)
(-0.0150114590642 0.247685716629 0)
(-0.0157376464741 0.247697240127 0)
(-0.0164351703649 0.247700668331 0)
(-0.0170988333113 0.247697153284 0)
(-0.0177237431696 0.247687064121 0)
(-0.0183051581625 0.247671844154 0)
(-0.0188388070368 0.247651975355 0)
(-0.0193207503486 0.247629002786 0)
(-0.0197476265327 0.247603372123 0)
(-0.0201165135558 0.247576596182 0)
(-0.0204250955607 0.247548991413 0)
(-0.0206715288078 0.247521955017 0)
(-0.0208545511113 0.247495625372 0)
(-0.0209733208445 0.247471229069 0)
(-0.0210273587377 0.24744867922 0)
(-0.0210166347146 0.247429018961 0)
(-0.0209417968718 0.247412018013 0)
(-0.0208038388849 0.247398527507 0)
(-0.0206039651446 0.247388118639 0)
(-0.0203437241276 0.247381464074 0)
(-0.0200249372982 0.247377975253 0)
(-0.0196497181428 0.247378148488 0)
(-0.0192204050401 0.247381261488 0)
(-0.0187396056828 0.247387652024 0)
(-0.0182101106311 0.247396488521 0)
(-0.0176349570521 0.247407964291 0)
(-0.0170173262966 0.247421156334 0)
(-0.0163606208572 0.247436123498 0)
(-0.0156683477273 0.247451863132 0)
(-0.0149442039989 0.24746830651 0)
(-0.0141919473582 0.247484379281 0)
(-0.013415485879 0.247499891514 0)
(-0.0126187360254 0.247513704734 0)
(-0.0118057145489 0.247525517568 0)
(-0.0109803844378 0.247534140673 0)
(-0.0101467480038 0.247539181457 0)
(-0.00930868134384 0.247539427691 0)
(-0.00847002955234 0.24753443691 0)
(-0.00763443032756 0.247523030513 0)
(-0.00680541118958 0.247504794525 0)
(-0.00598620158873 0.247478687898 0)
(-0.00517982884307 0.247444463024 0)
(-0.00438891635421 0.247401395858 0)
(-0.00361577000713 0.24734963799 0)
(-0.0028621591828 0.247289081898 0)
(-0.00212937390291 0.247220661881 0)
(-0.00141796426461 0.247145369558 0)
(-0.000727682484294 0.24706551527 0)
(-5.70303907164e-05 0.246983877964 0)
(0.000597248942502 0.246904866439 0)
(0.00124129004108 0.246833587439 0)
(0.00188506441031 0.246776311811 0)
(0.00253883982721 0.246737825191 0)
(0.0031973664566 0.246720094567 0)
(0.00383708125817 0.246721692262 0)
(0.00443527895119 0.246743799845 0)
(0.00498295233252 0.246787342636 0)
(0.00548864461239 0.246848453462 0)
(0.00596782640792 0.246920261624 0)
(0.00643114026756 0.246996844506 0)
(0.00688420002248 0.247073060685 0)
(0.00732935106712 0.247145603393 0)
(0.0077668310361 0.247211788105 0)
(0.00819578169712 0.247270442289 0)
(0.00861460543573 0.247320608894 0)
(0.00902138163788 0.247362506424 0)
(0.00941390941543 0.247396239909 0)
(0.00978990211248 0.24742282563 0)
(0.0101469572468 0.247442926979 0)
(0.0104826705841 0.247457920914 0)
(0.0107946112459 0.247468670877 0)
(0.011080399822 0.247476613002 0)
(0.0113377063195 0.247482575117 0)
(0.01156430272 0.247487862114 0)
(0.0117580820887 0.247493126917 0)
(0.0119170880892 0.247499436542 0)
(0.012039550374 0.247507198944 0)
(0.0121238924636 0.24751719453 0)
(0.0121687795955 0.24752956216 0)
(0.0121731109319 0.247544784531 0)
(0.0121360899704 0.247562737339 0)
(0.012057234706 0.247583624674 0)
(0.0119363460779 0.247607120326 0)
(0.0117734074067 0.247633206054 0)
(0.011568770797 0.247661338741 0)
(0.0113231419526 0.247691269616 0)
(0.0110376336341 0.247722295745 0)
(0.0107137049957 0.247753994451 0)
(0.0103532382395 0.247785547224 0)
(0.00995846340096 0.247816406001 0)
(0.00953201783165 0.247845695558 0)
(0.0090768373342 0.247872814969 0)
(0.00859618003318 0.247896925069 0)
(0.00809347093387 0.247917489375 0)
(0.00757228323714 0.24793384991 0)
(0.0070361491687 0.2479457043 0)
(0.00648853576315 0.247952757588 0)
(0.00593269309251 0.247955109342 0)
(0.00537172315558 0.247952939014 0)
(0.00480858731822 0.247946751395 0)
(0.00424637258096 0.247937043747 0)
(0.00368852624243 0.24792438045 0)
(0.0031393068232 0.24790904681 0)
(0.00260416003009 0.247891021078 0)
(0.0020902261519 0.24786973023 0)
(0.0016068678363 0.247844084969 0)
(0.00116649017842 0.24781251199 0)
(0.000786004943915 0.247773339304 0)
(0.000492064249118 0.247725915964 0)
(-0.00112372100852 0.247666810291 0)
(-0.00130918881699 0.247598310036 0)
(-0.00146885541933 0.226982860488 0)
(-0.00160671000078 0.227027046594 0)
(-0.000324854841009 0.227070955907 0)
(-0.000438025821059 0.227126459356 0)
(-0.000582720714906 0.227194789294 0)
(-0.000760413237673 0.227275169639 0)
(-0.000975029190221 0.227367080403 0)
(-0.00123075948438 0.227469988894 0)
(-0.00153097623433 0.227583216051 0)
(-0.00187792496838 0.227705716559 0)
(-0.00227248464631 0.227836216154 0)
(-0.00271452335151 0.227973008882 0)
(-0.00320272811817 0.228114204491 0)
(-0.00373512114696 0.228257487653 0)
(-0.00430879470355 0.228400440442 0)
(-0.00492053370212 0.228540252777 0)
(-0.00556649158052 0.228674133517 0)
(-0.00624280828686 0.22879898222 0)
(-0.00694524953076 0.22891189178 0)
(-0.00766976733268 0.229009787839 0)
(-0.00841211120676 0.229090012247 0)
(-0.00916831038796 0.229149920512 0)
(-0.00993426494876 0.229187520943 0)
(-0.0107061479093 0.229201005783 0)
(-0.0114799864304 0.229189410552 0)
(-0.0122519949303 0.22915204938 0)
(-0.0130181669238 0.229089162982 0)
(-0.0137745671267 0.229001241721 0)
(-0.0145169691466 0.228889651057 0)
(-0.0152411467133 0.228755852772 0)
(-0.0159425945313 0.228602025267 0)
(-0.0166168441711 0.228430220186 0)
(-0.0172592761536 0.22824301112 0)
(-0.0178654495031 0.228042628414 0)
(-0.0184309773475 0.227831662389 0)
(-0.0189518294492 0.227612204608 0)
(-0.0194242291077 0.227386609713 0)
(-0.0198448929125 0.227156650581 0)
(-0.020210925051 0.226924324853 0)
(-0.0205199816291 0.226691021481 0)
(-0.020770163697 0.226458351884 0)
(-0.0209601234993 0.226227324822 0)
(-0.0210888935489 0.225999188562 0)
(-0.0211556033748 0.225774597689 0)
(-0.0211598599893 0.22555463303 0)
(-0.0211024209659 0.225339819973 0)
(-0.0209843475926 0.225130834288 0)
(-0.0208066499426 0.224927869608 0)
(-0.0205706693383 0.224731436509 0)
(-0.020278020623 0.224541607834 0)
(-0.0199305937006 0.224358775785 0)
(-0.0195304955262 0.224182931619 0)
(-0.0190800807579 0.22401438555 0)
(-0.0185818794896 0.223853083065 0)
(-0.0180386447526 0.223699283036 0)
(-0.0174532664654 0.223552913456 0)
(-0.0168288299705 0.223414205402 0)
(-0.0161685176579 0.22328308971 0)
(-0.0154756739599 0.22315978617 0)
(-0.0147536949385 0.223044242208 0)
(-0.0140060957826 0.222936678003 0)
(-0.0132363890316 0.222837066843 0)
(-0.0124481524368 0.222745637562 0)
(-0.0116448961372 0.222662395884 0)
(-0.0108301300578 0.222587585922 0)
(-0.0100072212525 0.222521250831 0)
(-0.00917946133427 0.222463654975 0)
(-0.00834991492754 0.222414881988 0)
(-0.00752148668478 0.222375218267 0)
(-0.00669676145595 0.222344784809 0)
(-0.00587806836285 0.222323880351 0)
(-0.0050673131593 0.222312640782 0)
(-0.00426603486327 0.222311336633 0)
(-0.00347523334354 0.22232004986 0)
(-0.00269540941987 0.222338917561 0)
(-0.00192638279731 0.222367812469 0)
(-0.00116727635009 0.222406518666 0)
(-0.000416280956675 0.22245438067 0)
(0.000329483373996 0.222510345835 0)
(0.00107411822916 0.22257242576 0)
(0.00182225204961 0.222637342878 0)
(0.00257617558101 0.222699699983 0)
(0.00332499941268 0.222753259536 0)
(0.00404813696535 0.22279493398 0)
(0.00473249659963 0.222826520994 0)
(0.00537044457363 0.222855478348 0)
(0.00596033944788 0.222890455558 0)
(0.00650900163083 0.222935336097 0)
(0.00702446436776 0.222991646677 0)
(0.00751277918368 0.223059281754 0)
(0.00797800809603 0.223137580127 0)
(0.00842253322325 0.223225529384 0)
(0.00884761551645 0.223322246544 0)
(0.00925362700243 0.223426817899 0)
(0.00964039540537 0.223538593353 0)
(0.0100072777711 0.22365691832 0)
(0.0103533543315 0.223781385947 0)
(0.0106774398809 0.223911547105 0)
(0.0109782026632 0.224047158229 0)
(0.0112541677714 0.224187893885 0)
(0.0115037973793 0.224333594772 0)
(0.0117255054282 0.224483988913 0)
(0.0119177122579 0.22463893652 0)
(0.0120788742212 0.224798162162 0)
(0.0122075172514 0.224961492976 0)
(0.0123022789775 0.2251286036 0)
(0.012361923195 0.225299245288 0)
(0.0123853926156 0.22547300569 0)
(0.0123718078598 0.225649527377 0)
(0.012320532306 0.225828282698 0)
(0.0122312155752 0.226008776909 0)
(0.0121037552394 0.226190358646 0)
(0.0119381837619 0.226372389582 0)
(0.0117348703143 0.226554028652 0)
(0.0114945017999 0.226734411222 0)
(0.0112181199112 0.226912465071 0)
(0.010907061456 0.227087063902 0)
(0.0105630139979 0.227256861738 0)
(0.010187927661 0.22742043248 0)
(0.00978404311397 0.227576127567 0)
(0.009353761709 0.227722211939 0)
(0.00889963293836 0.227856759239 0)
(0.00842418130906 0.227977800876 0)
(0.007929864534 0.228083276302 0)
(0.0074188935666 0.228171209741 0)
(0.00689322463334 0.228239721162 0)
(0.0063544666506 0.228287222366 0)
(0.00580402120462 0.228312462322 0)
(0.00524320156673 0.228314699236 0)
(0.00467361123525 0.228293724916 0)
(0.00409751483087 0.228249959429 0)
(0.0035184033554 0.228184417814 0)
(0.0029415007771 0.228098728762 0)
(0.00237436146658 0.227995086119 0)
(0.0018274680416 0.227876285482 0)
(0.00131520874966 0.2277458075 0)
(0.000858312539353 0.227608087417 0)
(0.000487292431608 0.227469265002 0)
(-0.00134811120269 0.227333846776 0)
(-0.0015120000535 0.227229816921 0)
(-0.00143720356967 0.230570431445 0)
(-0.0015891276672 0.230602486912 0)
(-0.000371775941822 0.230659123871 0)
(-0.00052021145897 0.230733772455 0)
(-0.000697768064934 0.230827206454 0)
(-0.000908571011862 0.230938888318 0)
(-0.00115675915605 0.231068235757 0)
(-0.00144653460318 0.231214559934 0)
(-0.00178130502217 0.231376963042 0)
(-0.00216322847803 0.231554191591 0)
(-0.00259309477328 0.231744614463 0)
(-0.0030705650266 0.231946141443 0)
(-0.00359398755918 0.232156265645 0)
(-0.00416092695461 0.23237197471 0)
(-0.00476796840301 0.232589876252 0)
(-0.00541129991463 0.232806110688 0)
(-0.00608649502879 0.233016567886 0)
(-0.00678909743076 0.233216813821 0)
(-0.0075143622835 0.23340239796 0)
(-0.00825778988429 0.233568790425 0)
(-0.00901482104188 0.23371175906 0)
(-0.00978129026412 0.233827295247 0)
(-0.0105530753352 0.233912021051 0)
(-0.011326460696 0.233963067519 0)
(-0.0120977501328 0.233978462959 0)
(-0.0128635507939 0.233956924244 0)
(-0.0136203747487 0.233898184716 0)
(-0.0143648772269 0.233802675973 0)
(-0.0150934923421 0.233671780477 0)
(-0.0158026731424 0.23350741381 0)
(-0.0164886073311 0.233312223737 0)
(-0.0171474909948 0.233089116179 0)
(-0.0177753385934 0.232841445671 0)
(-0.0183682816135 0.232572537637 0)
(-0.0189224467907 0.232285911274 0)
(-0.0194342399812 0.231984835128 0)
(-0.0199002505933 0.231672598983 0)
(-0.0203174824303 0.231352113348 0)
(-0.020683257626 0.231026224244 0)
(-0.0209953796501 0.230697350849 0)
(-0.0212520333706 0.230367826151 0)
(-0.0214518869901 0.2300395634 0)
(-0.0215940407686 0.229714413177 0)
(-0.0216773664242 0.229393723884 0)
(-0.0217010420193 0.229079008053 0)
(-0.0216658532891 0.228771440198 0)
(-0.0215728859636 0.228472083065 0)
(-0.021422944418 0.228181718704 0)
(-0.0212171216996 0.227901161852 0)
(-0.0209567560675 0.2276310012 0)
(-0.0206434299172 0.227371888817 0)
(-0.0202789240772 0.227124291041 0)
(-0.0198652381671 0.226888749872 0)
(-0.019404531094 0.226665653312 0)
(-0.0188991566626 0.226455467891 0)
(-0.0183515919313 0.226258530243 0)
(-0.0177644827099 0.226075249698 0)
(-0.0171405606502 0.225905922168 0)
(-0.0164826942763 0.225750902843 0)
(-0.0157937956717 0.225610443431 0)
(-0.0150768736349 0.225484835238 0)
(-0.0143349307788 0.225374270044 0)
(-0.0135710169655 0.22527895443 0)
(-0.0127881180966 0.225198994615 0)
(-0.0119892093493 0.225134482853 0)
(-0.0111771375815 0.225085406009 0)
(-0.0103546750718 0.225051704984 0)
(-0.00952439787566 0.22503320674 0)
(-0.00868874043274 0.225029656727 0)
(-0.0078498722902 0.225040672565 0)
(-0.0070097528642 0.225065748017 0)
(-0.00617001004985 0.225104224994 0)
(-0.00533199449274 0.22515526622 0)
(-0.00449666786756 0.225217841427 0)
(-0.00366465697887 0.225290668079 0)
(-0.00283616272985 0.225372210584 0)
(-0.00201101165448 0.225460592367 0)
(-0.00118860794315 0.225553604491 0)
(-0.000368041150708 0.225648584305 0)
(0.00045165506092 0.225742413117 0)
(0.0012706765472 0.225831394942 0)
(0.00208679063908 0.225911520103 0)
(0.00289072244011 0.225979129367 0)
(0.0036661679296 0.226034647147 0)
(0.004404007584 0.226079172331 0)
(0.00510351699421 0.226115398568 0)
(0.00576115390005 0.226149889229 0)
(0.00637591506365 0.226187606558 0)
(0.00695186682493 0.226231669018 0)
(0.00749276047473 0.226284124633 0)
(0.00800175423449 0.226346238712 0)
(0.00848114666177 0.226418772509 0)
(0.00893257846643 0.22650215783 0)
(0.00935708086363 0.226596619705 0)
(0.00975527250059 0.226702250225 0)
(0.0101273801232 0.226819039078 0)
(0.010473370357 0.226946910488 0)
(0.0107929501265 0.227085712937 0)
(0.0110856552896 0.227235248711 0)
(0.0113508536672 0.227395246524 0)
(0.0115878077096 0.227565393134 0)
(0.0117956903869 0.227745297967 0)
(0.0119736290674 0.22793452775 0)
(0.0121207356841 0.228132566749 0)
(0.0122361341777 0.228338852752 0)
(0.0123190029182 0.228552734629 0)
(0.0123685865643 0.228773508144 0)
(0.0123842481044 0.229000372355 0)
(0.012365465968 0.229232464036 0)
(0.0123118990042 0.229468813887 0)
(0.0122234619919 0.229708381712 0)
(0.0121002640474 0.22995004052 0)
(0.0119424380028 0.230192581915 0)
(0.0117503869839 0.230434621671 0)
(0.0115247879245 0.230674648486 0)
(0.0112665887486 0.230910981151 0)
(0.0109769449268 0.231141790219 0)
(0.0106572634385 0.231365062699 0)
(0.0103091069049 0.231578631319 0)
(0.00993420866298 0.231780158887 0)
(0.00953433836343 0.231967189299 0)
(0.00911128365981 0.232137168343 0)
(0.00866668575991 0.232287533049 0)
(0.0082020101442 0.232415782667 0)
(0.00771839721799 0.232519611661 0)
(0.00721668881901 0.232597022559 0)
(0.00669738536843 0.232646476174 0)
(0.00616082983191 0.232667001763 0)
(0.00560737357857 0.232658303789 0)
(0.00503778206468 0.232620803226 0)
(0.00445362438639 0.232555646723 0)
(0.00385783952687 0.232464654663 0)
(0.0032552106139 0.232350252327 0)
(0.00265289419101 0.232215397897 0)
(0.00206089742956 0.232063557238 0)
(0.00149270814872 0.231898772787 0)
(0.000967119216294 0.2317259062 0)
(0.000509830381987 0.231551029455 0)
(-0.00135528806586 0.231378803191 0)
(-0.00150624453861 0.231286104622 0)
(-0.0014468798411 0.230334086068 0)
(-0.00160904015113 0.230363834109 0)
(-0.000405028441619 0.230433754242 0)
(-0.000579282183317 0.230531673607 0)
(-0.000783058226068 0.230656610938 0)
(-0.00102083999603 0.230807463134 0)
(-0.00129731445164 0.230983226652 0)
(-0.00161670855078 0.231182686434 0)
(-0.00198231171052 0.231404241181 0)
(-0.00239623751839 0.231645840006 0)
(-0.00285906377472 0.231904924141 0)
(-0.00337012400421 0.232178384575 0)
(-0.00392741259959 0.232462564651 0)
(-0.00452801814096 0.232753250697 0)
(-0.00516800419835 0.233045730998 0)
(-0.00584297680836 0.23333482338 0)
(-0.00654793083291 0.233615016153 0)
(-0.0072778336483 0.233880536319 0)
(-0.00802743232475 0.234125570835 0)
(-0.00879178890316 0.234344365191 0)
(-0.00956603119718 0.234531499721 0)
(-0.0103458015612 0.234681989153 0)
(-0.0111269415368 0.234791569981 0)
(-0.0119058384124 0.234856757078 0)
(-0.012679049271 0.234875088542 0)
(-0.0134435553692 0.234845092913 0)
(-0.0141963559961 0.234766446347 0)
(-0.0149346701542 0.234639823058 0)
(-0.015655554771 0.234466950267 0)
(-0.0163561093681 0.234250352495 0)
(-0.0170331731387 0.233993332039 0)
(-0.0176835702707 0.233699655835 0)
(-0.0183039053426 0.233373516797 0)
(-0.0188908433567 0.2330192235 0)
(-0.0194409794255 0.232641193368 0)
(-0.0199511139734 0.232243687018 0)
(-0.020418154505 0.23183085678 0)
(-0.0208393464282 0.231406537145 0)
(-0.0212121780391 0.230974344837 0)
(-0.0215345488446 0.230537516317 0)
(-0.0218046702023 0.230099042304 0)
(-0.0220211626566 0.229661536714 0)
(-0.0221831788513 0.229227386731 0)
(-0.0222893774204 0.228798653777 0)
(-0.022338406536 0.22837713661 0)
(-0.0223308496368 0.227964394651 0)
(-0.0222677734199 0.227562053423 0)
(-0.0221498258458 0.227171304782 0)
(-0.0219778119985 0.226793270535 0)
(-0.0217527506896 0.226428916552 0)
(-0.0214758786481 0.226079170607 0)
(-0.0211486162558 0.225744843543 0)
(-0.0207725795981 0.225426728561 0)
(-0.0203495327617 0.225125530452 0)
(-0.0198814144442 0.224841944519 0)
(-0.0193702787081 0.224576595293 0)
(-0.0188183310686 0.224330094393 0)
(-0.0182278588086 0.224102990074 0)
(-0.0176012725696 0.223895803905 0)
(-0.016941027394 0.223708992453 0)
(-0.0162496668626 0.22354296301 0)
(-0.0155297362645 0.223398048252 0)
(-0.0147838277419 0.223274501551 0)
(-0.0140144874619 0.223172485503 0)
(-0.0132242615549 0.223092047635 0)
(-0.0124155998679 0.223033123453 0)
(-0.0115909034997 0.222995493603 0)
(-0.0107524282725 0.222978802074 0)
(-0.00990233456451 0.222982495598 0)
(-0.00904259388467 0.223005856649 0)
(-0.00817504121395 0.223047925004 0)
(-0.00730128954481 0.223107544098 0)
(-0.00642278575423 0.223183264384 0)
(-0.00554074262796 0.223273402051 0)
(-0.00465620314483 0.22337592768 0)
(-0.00377000754748 0.223488542218 0)
(-0.00288287968762 0.223608564253 0)
(-0.00199547233605 0.223733037451 0)
(-0.00110855332844 0.223858642595 0)
(-0.000223319240957 0.223981872047 0)
(0.000658001752689 0.224099063892 0)
(0.00153122615458 0.224206856152 0)
(0.00238984318573 0.224302728769 0)
(0.00322073896121 0.224386779201 0)
(0.00401222950556 0.224462189854 0)
(0.00476553727867 0.224529457139 0)
(0.00548178866615 0.224591336381 0)
(0.00615679724203 0.22465405522 0)
(0.0067901092462 0.224720837864 0)
(0.00738387767236 0.224794529044 0)
(0.00794008343175 0.224877262105 0)
(0.00846041649152 0.224970696544 0)
(0.00894629892304 0.225076063796 0)
(0.00939883477177 0.225194297441 0)
(0.00981890867848 0.225326044499 0)
(0.0102071620291 0.225471746003 0)
(0.0105640699195 0.22563163088 0)
(0.0108899208221 0.225805767643 0)
(0.0111848720284 0.225994055765 0)
(0.0114489417436 0.226196261438 0)
(0.0116820496235 0.226412011258 0)
(0.0118840254661 0.226640817224 0)
(0.0120546376366 0.226882072465 0)
(0.0121936180866 0.227135067513 0)
(0.0123006790044 0.227398986776 0)
(0.0123755513597 0.227672917307 0)
(0.0124179892556 0.227955845018 0)
(0.0124278187661 0.228246657326 0)
(0.0124049291491 0.228544138809 0)
(0.0123493368508 0.22884696929 0)
(0.0122612978605 0.229153719017 0)
(0.0121412235925 0.229462874785 0)
(0.0119894008687 0.229772828709 0)
(0.0118063029119 0.230081781113 0)
(0.011592649977 0.230387770172 0)
(0.0113493488199 0.230688660956 0)
(0.0110774220141 0.230982141027 0)
(0.010778045406 0.231265716417 0)
(0.0104524455372 0.231536721994 0)
(0.010101910121 0.231792338111 0)
(0.00972765204748 0.232029630296 0)
(0.00933079470463 0.23224560264 0)
(0.00891221774436 0.232437280926 0)
(0.00847254459078 0.232601811961 0)
(0.0080120170995 0.232736588863 0)
(0.00753054945224 0.232839382234 0)
(0.00702771504625 0.23290847616 0)
(0.00650295307951 0.232942783532 0)
(0.00595574899758 0.232941932981 0)
(0.00538604131165 0.232906308581 0)
(0.00479460307258 0.232837043954 0)
(0.00418357920542 0.232735976722 0)
(0.00355694730075 0.232605591553 0)
(0.00292100410962 0.232448989481 0)
(0.00228474357212 0.232269945201 0)
(0.00166037114577 0.232073131426 0)
(0.00106444871036 0.231864630112 0)
(0.000519243348941 0.23165279411 0)
(-0.00134351995231 0.231447148603 0)
(-0.00147476503739 0.231360677126 0)
(-0.00145830657934 0.230848626641 0)
(-0.00162994214207 0.230882836465 0)
(-0.00043441956114 0.230967481458 0)
(-0.000630029813965 0.23108834557 0)
(-0.000856138285691 0.231243964257 0)
(-0.00111738340508 0.231432800418 0)
(-0.00141861233495 0.231653432291 0)
(-0.00176427459687 0.231904115488 0)
(-0.00215772882043 0.232182578887 0)
(-0.00260089758439 0.232485954156 0)
(-0.00309419949308 0.232810711344 0)
(-0.00363674645098 0.233152682898 0)
(-0.00422618391523 0.233507039847 0)
(-0.0048591943713 0.23386833947 0)
(-0.00553139085293 0.234230573626 0)
(-0.00623787383324 0.234587260402 0)
(-0.00697313738082 0.234931573529 0)
(-0.00773164622262 0.235256485092 0)
(-0.00850770374146 0.235554970246 0)
(-0.00929598596741 0.2358201852 0)
(-0.0100913415615 0.236045718471 0)
(-0.0108892354009 0.236225768977 0)
(-0.0116854628565 0.236355396143 0)
(-0.0124764807503 0.236430649186 0)
(-0.0132590399341 0.236448759146 0)
(-0.0140304140613 0.236408169272 0)
(-0.0147879862604 0.236308622109 0)
(-0.0155294212029 0.236151062823 0)
(-0.0162522689174 0.235937608812 0)
(-0.016954142328 0.235671339953 0)
(-0.0176323990381 0.23535618424 0)
(-0.0182843655814 0.234996649398 0)
(-0.0189071197461 0.234597686847 0)
(-0.019497756686 0.234164430373 0)
(-0.0200532490136 0.233702094974 0)
(-0.0205707157801 0.233215767401 0)
(-0.0210473187475 0.2327103664 0)
(-0.0214804941022 0.232190497038 0)
(-0.0218678551377 0.231660469377 0)
(-0.0222073669786 0.231124205768 0)
(-0.0224972473257 0.230585299831 0)
(-0.0227360891528 0.230046957526 0)
(-0.0229227741737 0.229512071198 0)
(-0.0230560896663 0.228983267232 0)
(-0.023134711537 0.228462637046 0)
(-0.0231582011424 0.227952130899 0)
(-0.0231274016648 0.227453846844 0)
(-0.0230432564338 0.226969328002 0)
(-0.0229062507544 0.226499996049 0)
(-0.0227170882469 0.226047129736 0)
(-0.0224766699807 0.225611922593 0)
(-0.0221860696263 0.225195464796 0)
(-0.0218465368123 0.224798786091 0)
(-0.0214594619703 0.224422840993 0)
(-0.0210263941918 0.224068533536 0)
(-0.0205489951837 0.223736707178 0)
(-0.0200290663852 0.223428150944 0)
(-0.0194684932746 0.223143595755 0)
(-0.0188692781506 0.222883701898 0)
(-0.0182334762399 0.222649063383 0)
(-0.0175632315392 0.222440177013 0)
(-0.016860706533 0.222257456057 0)
(-0.016128119719 0.222101181628 0)
(-0.015367671131 0.22197152697 0)
(-0.0145815813982 0.221868492278 0)
(-0.013772015979 0.221791940885 0)
(-0.0129411263756 0.221741519198 0)
(-0.0120909763168 0.221716706137 0)
(-0.011223585807 0.22171672 0)
(-0.0103408629569 0.221740581992 0)
(-0.00944465134385 0.221787011609 0)
(-0.00853667257761 0.221854504436 0)
(-0.00761857893042 0.221941218044 0)
(-0.00669191663147 0.222045065383 0)
(-0.00575819088722 0.222163597693 0)
(-0.00481886909859 0.222294121566 0)
(-0.00387547729599 0.222433596806 0)
(-0.0029296846785 0.222578798575 0)
(-0.00198348844491 0.222726267102 0)
(-0.0010394764949 0.222872561977 0)
(-0.000101192634841 0.223014346144 0)
(0.000826471556813 0.223148847296 0)
(0.0017370894061 0.223274208382 0)
(0.00262311218754 0.223389849641 0)
(0.00347204471897 0.223498577894 0)
(0.00427794915475 0.223603112488 0)
(0.00504739131739 0.223702981733 0)
(0.00577905980303 0.223801351897 0)
(0.00646790159337 0.223903072073 0)
(0.00711445822139 0.224010792199 0)
(0.0077196929649 0.224126943652 0)
(0.00828460952492 0.224253568448 0)
(0.00881022209472 0.224392306339 0)
(0.00929745755045 0.224544497617 0)
(0.00974719776329 0.224711154004 0)
(0.0101602297679 0.224893037487 0)
(0.010537280622 0.22509063552 0)
(0.0108789826884 0.225304223028 0)
(0.0111858996147 0.225533841624 0)
(0.0114585094736 0.225779350606 0)
(0.011697223148 0.226040411684 0)
(0.0119023858595 0.226316530136 0)
(0.0120742884789 0.22660704303 0)
(0.012213186463 0.226911150883 0)
(0.0123193033343 0.227227907276 0)
(0.0123928641339 0.227556241562 0)
(0.012434089644 0.227894948552 0)
(0.0124432408369 0.228242703306 0)
(0.0124206022561 0.228598050542 0)
(0.0123665378341 0.228959413529 0)