/*--------------------------------*- C++ -*----------------------------------*\
| =========                 |                                                 |
| \\      /  F ield         | OpenFOAM: The Open Source CFD Toolbox           |
|  \\    /   O peration     | Version:  2212                                  |
|   \\  /    A nd           | Website:  www.openfoam.com                      |
|    \\/     M anipulation  |                                                 |
\*---------------------------------------------------------------------------*/
FoamFile
{
    version     2.0;
    format      ascii;
    arch        "LSB;label=64;scalar=64";
    class       volScalarField::Internal;
    location    "120";
    object      dGco2;
}
// * * * * * * * * * * * * * * * * * * * * * * * * * * * * * * * * * * * * * //

dimensions      [1 -3 -1 0 0 0 0];

value           nonuniform List<scalar> 
1024
(
0.00020142
0.000201459
0.000201548
0.000201695
0.000201893
0.000202124
0.000202365
0.000202598
0.000202807
0.00020298
0.000203113
0.000203218
0.000203312
0.000203414
0.000203531
0.000203642
0.000203689
0.000203637
0.00020351
0.000203335
0.000203133
0.000202915
0.000202686
0.000202446
0.000202194
0.000201942
0.000201705
0.000201503
0.000201349
0.000201246
0.000201187
0.000201162
0.000201427
0.000201468
0.000201562
0.000201716
0.000201922
0.000202158
0.000202404
0.000202641
0.000202853
0.000203026
0.000203156
0.000203256
0.000203345
0.000203441
0.000203555
0.000203664
0.00020371
0.000203659
0.000203532
0.000203358
0.000203157
0.000202941
0.000202714
0.000202476
0.000202226
0.000201973
0.000201733
0.000201526
0.000201366
0.000201258
0.000201195
0.000201169
0.00020144
0.000201484
0.000201586
0.000201751
0.000201969
0.000202219
0.00020248
0.000202733
0.000202959
0.000203138
0.000203262
0.000203351
0.000203428
0.000203513
0.000203618
0.000203721
0.000203763
0.000203707
0.000203576
0.0002034
0.0002032
0.000202987
0.000202765
0.000202532
0.000202287
0.000202035
0.000201789
0.000201572
0.000201401
0.000201283
0.000201215
0.000201187
0.000201458
0.000201504
0.000201613
0.00020179
0.000202026
0.000202299
0.00020259
0.000202877
0.000203135
0.000203331
0.000203452
0.000203526
0.000203583
0.000203649
0.000203738
0.000203829
0.000203857
0.000203784
0.000203638
0.000203452
0.000203249
0.000203039
0.000202824
0.0002026
0.000202364
0.000202117
0.000201868
0.00020164
0.000201454
0.000201322
0.000201246
0.000201214
0.000201479
0.000201526
0.00020164
0.000201829
0.000202085
0.000202393
0.00020273
0.000203071
0.00020338
0.000203609
0.000203737
0.000203796
0.000203828
0.000203868
0.000203934
0.000204002
0.000204002
0.000203893
0.000203713
0.000203504
0.00020329
0.000203079
0.000202871
0.00020266
0.000202437
0.0002022
0.000201953
0.000201717
0.000201516
0.000201371
0.000201286
0.00020125
0.0002015
0.000201548
0.000201665
0.000201864
0.000202145
0.000202494
0.00020289
0.000203302
0.000203679
0.00020396
0.00020411
0.000204163
0.00020417
0.000204179
0.000204213
0.000204245
0.000204197
0.000204027
0.000203787
0.000203535
0.000203299
0.000203083
0.000202882
0.000202686
0.000202482
0.000202262
0.000202024
0.000201786
0.000201577
0.000201422
0.000201329
0.00020129
0.000201522
0.00020157
0.000201689
0.000201897
0.000202201
0.000202595
0.000203058
0.000203551
0.00020401
0.000204357
0.000204546
0.000204605
0.000204594
0.000204572
0.000204566
0.000204547
0.000204428
0.000204164
0.000203833
0.000203517
0.000203248
0.000203024
0.000202832
0.000202655
0.000202476
0.000202279
0.000202059
0.00020183
0.000201621
0.000201463
0.000201366
0.000201327
0.000201544
0.000201592
0.000201712
0.000201928
0.000202255
0.000202693
0.000203223
0.000203801
0.000204347
0.000204768
0.000205008
0.000205084
0.000205063
0.000205012
0.000204963
0.00020488
0.000204667
0.000204271
0.000203814
0.000203413
0.000203103
0.000202872
0.000202694
0.000202545
0.000202399
0.000202235
0.000202043
0.000201834
0.000201637
0.000201485
0.000201391
0.000201352
0.00020157
0.000201617
0.000201738
0.00020196
0.000202307
0.000202786
0.000203383
0.000204045
0.000204676
0.000205168
0.000205455
0.000205551
0.000205524
0.00020545
0.00020536
0.000205211
0.000204884
0.000204315
0.000203689
0.000203182
0.000202829
0.000202598
0.000202447
0.000202339
0.000202239
0.00020212
0.000201967
0.00020179
0.000201618
0.000201482
0.000201397
0.00020136
0.000201602
0.000201648
0.000201769
0.000201997
0.000202363
0.000202882
0.000203544
0.000204285
0.000204993
0.000205541
0.000205858
0.000205961
0.000205929
0.000205842
0.000205728
0.000205528
0.00020508
0.000204293
0.000203446
0.000202806
0.00020241
0.000202191
0.000202083
0.000202033
0.000201994
0.000201932
0.000201832
0.0002017
0.000201564
0.000201451
0.000201378
0.000201344
0.000201644
0.000201691
0.000201813
0.000202048
0.000202433
0.000202993
0.000203717
0.000204531
0.0002053
0.000205877
0.000206195
0.000206288
0.000206254
0.000206179
0.00020608
0.000205869
0.000205313
0.000204267
0.000203129
0.000202311
0.000201865
0.000201669
0.000201619
0.00020164
0.000201673
0.000201679
0.000201639
0.000201559
0.000201464
0.00020138
0.000201321
0.000201292
0.000201711
0.000201757
0.000201882
0.000202126
0.000202534
0.000203138
0.000203921
0.000204793
0.000205592
0.000206161
0.000206446
0.000206516
0.000206495
0.000206474
0.000206454
0.000206307
0.000205699
0.000204383
0.000202874
0.0002018
0.000201273
0.000201096
0.000201103
0.000201199
0.000201311
0.000201393
0.000201422
0.000201401
0.00020135
0.000201291
0.000201243
0.000201215
0.000201819
0.000201866
0.000201995
0.000202252
0.000202688
0.000203334
0.000204166
0.000205066
0.000205848
0.000206356
0.00020657
0.000206608
0.000206623
0.000206704
0.000206845
0.000206892
0.000206391
0.000204896
0.000202958
0.000201493
0.000200782
0.000200582
0.000200624
0.000200769
0.000200932
0.000201066
0.000201145
0.000201169
0.000201153
0.000201117
0.000201079
0.000201054
0.000201993
0.00020204
0.000202174
0.000202446
0.000202908
0.000203588
0.000204441
0.000205318
0.000206012
0.000206382
0.00020647
0.000206448
0.000206491
0.000206698
0.000207096
0.000207553
0.0002075
0.000206133
0.000203822
0.000201787
0.000200661
0.000200304
0.000200345
0.000200521
0.000200704
0.000200845
0.000200937
0.000200979
0.00020098
0.000200954
0.000200917
0.00020089
0.000202286
0.000202334
0.000202474
0.000202761
0.000203242
0.000203924
0.000204726
0.00020547
0.000205951
0.000206071
0.000205932
0.000205748
0.000205716
0.000205992
0.000206707
0.000207861
0.00020887
0.000208412
0.000206181
0.000203464
0.000201449
0.000200443
0.000200205
0.000200338
0.000200563
0.000200734
0.000200802
0.000200778
0.000200702
0.000200618
0.000200555
0.000200523
0.000202674
0.00020272
0.000202853
0.000203121
0.000203555
0.000204136
0.000204764
0.000205264
0.000205451
0.00020523
0.000204705
0.000204107
0.000203703
0.000203762
0.000204603
0.000206519
0.000209271
0.00021125
0.00021084
0.00020844
0.000205476
0.000202946
0.000201164
0.000200095
0.000199535
0.000199327
0.00019936
0.000199552
0.000199844
0.000200167
0.000200439
0.000200586
0.000202992
0.000203029
0.000203137
0.000203347
0.000203677
0.000204095
0.000204504
0.000204746
0.000204637
0.000204056
0.000203047
0.000201814
0.000200662
0.000199958
0.000200151
0.00020181
0.000205463
0.000210487
0.000214641
0.000216381
0.000215918
0.000214293
0.000212381
0.000210699
0.000209407
0.00020857
0.000208177
0.000208181
0.00020848
0.000208914
0.000209301
0.000209512
0.000203157
0.000203188
0.000203271
0.000203427
0.000203662
0.000203946
0.000204199
0.000204287
0.000204049
0.000203351
0.000202188
0.000200709
0.000199191
0.000197955
0.000197313
0.000197592
0.000199311
0.000203087
0.000208606
0.000214394
0.000218955
0.00022181
0.000223265
0.000223815
0.000223863
0.000223647
0.000223302
0.000222941
0.00022264
0.000222438
0.000222333
0.000222299
0.000203199
0.000203227
0.000203294
0.000203412
0.000203583
0.000203781
0.000203942
0.000203963
0.00020371
0.000203057
0.000201971
0.000200556
0.000199055
0.000197793
0.000197071
0.000197106
0.000198059
0.000200115
0.000203427
0.000207964
0.000213169
0.000218201
0.000222452
0.000225703
0.000227982
0.0002294
0.000230103
0.000230274
0.000230116
0.000229831
0.00022958
0.000229449
0.000203156
0.000203184
0.000203244
0.000203341
0.000203471
0.000203617
0.000203729
0.000203729
0.000203512
0.000202973
0.000202067
0.000200852
0.000199523
0.000198366
0.000197667
0.000197617
0.00019834
0.00019992
0.000202351
0.000205679
0.000209877
0.00021466
0.000219517
0.000223928
0.000227551
0.000230235
0.000231995
0.00023296
0.000233331
0.000233339
0.00023321
0.000233106
0.000203047
0.000203077
0.000203137
0.000203225
0.000203336
0.000203453
0.00020354
0.000203542
0.000203378
0.000202969
0.000202266
0.000201295
0.000200193
0.00019919
0.000198549
0.000198497
0.000199228
0.000200784
0.000202989
0.000205784
0.00020923
0.000213363
0.000217993
0.000222696
0.000226985
0.00023048
0.000233005
0.000234588
0.000235392
0.00023566
0.000235648
0.000235575
0.000202885
0.000202916
0.000202979
0.000203068
0.000203174
0.000203279
0.000203357
0.000203368
0.000203257
0.000202963
0.000202447
0.000201715
0.000200856
0.000200049
0.000199543
0.000199627
0.000200569
0.000202324
0.000204591
0.000207218
0.000210238
0.000213791
0.000217916
0.000222397
0.000226816
0.000230707
0.00023374
0.000235801
0.000236975
0.000237475
0.000237573
0.00023753
0.000202736
0.000202758
0.000202807
0.000202886
0.000202984
0.000203084
0.000203161
0.000203184
0.000203116
0.000202919
0.000202566
0.000202063
0.000201472
0.000200942
0.000200718
0.000201139
0.000202471
0.000204528
0.000206932
0.000209509
0.000212264
0.000215358
0.000218938
0.000222961
0.000227154
0.000231096
0.000234386
0.000236782
0.000238259
0.000238972
0.000239178
0.000239164
0.000202796
0.000202779
0.000202764
0.000202776
0.000202824
0.000202895
0.000202961
0.000202995
0.000202972
0.000202878
0.000202707
0.000202473
0.000202233
0.000202116
0.000202359
0.000203302
0.000205113
0.000207463
0.000209962
0.000212467
0.000214988
0.00021768
0.000220734
0.000224215
0.000227982
0.000231717
0.000235036
0.00023762
0.00023933
0.000240231
0.000240544
0.000240563
0.000203396
0.000203297
0.000203135
0.000202976
0.000202876
0.00020285
0.000202875
0.000202927
0.000202992
0.000203075
0.000203186
0.000203341
0.000203585
0.000204025
0.000204864
0.000206387
0.000208623
0.00021115
0.000213629
0.000215981
0.000218236
0.00022054
0.000223087
0.000226001
0.000229246
0.000232606
0.000235761
0.000238383
0.000240242
0.000241304
0.000241722
0.000241776
0.000204907
0.000204688
0.000204302
0.000203867
0.000203511
0.00020331
0.000203277
0.000203395
0.000203656
0.000204059
0.0002046
0.000205274
0.000206093
0.000207132
0.000208539
0.00021052
0.000212988
0.000215508
0.000217828
0.000219935
0.000221884
0.000223803
0.000225866
0.000228219
0.000230895
0.000233778
0.000236625
0.000239136
0.000241047
0.000242226
0.000242742
0.000242836
0.000207602
0.000207252
0.000206639
0.000205924
0.000205306
0.000204945
0.000204907
0.000205188
0.000205763
0.000206595
0.000207634
0.00020883
0.000210159
0.00021166
0.000213431
0.000215607
0.000218047
0.000220367
0.000222404
0.000224196
0.00022581
0.000227353
0.000228969
0.000230793
0.000232897
0.000235243
0.000237675
0.000239948
0.000241797
0.00024303
0.000243627
0.000243763
0.000211597
0.000211156
0.000210446
0.000209642
0.000208948
0.000208582
0.000208653
0.000209164
0.000210059
0.000211257
0.000212661
0.000214185
0.000215781
0.000217464
0.000219297
0.000221371
0.000223542
0.000225509
0.000227181
0.000228619
0.000229889
0.000231078
0.000232292
0.000233643
0.00023521
0.000237004
0.000238949
0.000240874
0.000242547
0.000243753
0.000244397
0.000244573
0.000216896
0.000216474
0.00021594
0.000215388
0.00021492
0.000214743
0.000214983
0.000215654
0.000216696
0.000218008
0.000219477
0.00022101
0.000222552
0.000224108
0.00022572
0.000227452
0.000229188
0.000230714
0.000231985
0.000233062
0.000234
0.000234863
0.000235727
0.00023667
0.000237762
0.000239035
0.000240467
0.000241963
0.000243353
0.000244436
0.000245073
0.000245278
0.000223532
0.000223305
0.000223233
0.000223175
0.000223099
0.000223161
0.000223493
0.000224138
0.000225059
0.000226177
0.000227396
0.000228638
0.000229857
0.000231054
0.000232257
0.000233509
0.000234734
0.000235792
0.000236662
0.000237393
0.000238024
0.000238598
0.000239161
0.000239766
0.000240459
0.000241274
0.000242215
0.000243244
0.000244264
0.000245123
0.000245681
0.000245888
0.000231694
0.000231825
0.000232192
0.000232472
0.000232639
0.000232805
0.000233079
0.000233516
0.000234111
0.000234821
0.000235588
0.000236359
0.000237108
0.000237832
0.000238547
0.000239279
0.000239986
0.000240592
0.000241087
0.000241501
0.000241857
0.000242177
0.000242487
0.000242815
0.000243187
0.000243623
0.000244134
0.00024471
0.000245311
0.000245857
0.000246249
0.000246417
0.000241699
0.000241839
0.000242076
0.000242248
0.000242355
0.000242439
0.000242541
0.00024269
0.000242889
0.000243126
0.000243381
0.000243636
0.000243883
0.00024412
0.000244352
0.000244588
0.000244815
0.000245009
0.000245167
0.000245299
0.000245412
0.000245513
0.000245611
0.000245713
0.000245827
0.000245961
0.000246118
0.000246297
0.000246488
0.000246671
0.000246813
0.000246883
)
;


// ************************************************************************* //
