/*--------------------------------*- C++ -*----------------------------------*\
| =========                 |                                                 |
| \\      /  F ield         | OpenFOAM: The Open Source CFD Toolbox           |
|  \\    /   O peration     | Version:  2212                                  |
|   \\  /    A nd           | Website:  www.openfoam.com                      |
|    \\/     M anipulation  |                                                 |
\*---------------------------------------------------------------------------*/
FoamFile
{
    version     2.0;
    format      ascii;
    arch        "LSB;label=64;scalar=64";
    class       volScalarField;
    location    "120";
    object      p_rgh;
}
// * * * * * * * * * * * * * * * * * * * * * * * * * * * * * * * * * * * * * //

dimensions      [0 2 -2 0 0 0 0];

internalField   nonuniform List<scalar> 
1024
(
0.0432035
0.0431924
0.0432029
0.04325
0.0433405
0.0434786
0.0436543
0.0438186
0.0438957
0.0438311
0.0436466
0.0433819
0.043092
0.042805
0.0425219
0.0422056
0.0418077
0.0413669
0.0409831
0.0407142
0.0405602
0.0404924
0.0404798
0.0404978
0.0405287
0.0405613
0.0405887
0.0406078
0.0406194
0.0406275
0.0406351
0.040641
0.0432584
0.043249
0.0432648
0.0433181
0.043415
0.0435608
0.0437454
0.0439161
0.0439944
0.0439267
0.043736
0.0434637
0.0431669
0.0428752
0.0425905
0.0422747
0.0418771
0.0414352
0.0410489
0.0407777
0.0406216
0.0405516
0.0405367
0.040552
0.0405802
0.0406097
0.0406337
0.0406492
0.0406569
0.0406611
0.0406662
0.0406718
0.0433125
0.043312
0.0433504
0.0434331
0.0435603
0.0437338
0.0439381
0.0441184
0.0441987
0.0441297
0.0439314
0.0436491
0.043341
0.043041
0.0427533
0.0424377
0.0420398
0.0415944
0.041201
0.0409222
0.0407587
0.0406818
0.0406602
0.0406692
0.0406913
0.0407148
0.0407323
0.0407399
0.040738
0.0407325
0.0407323
0.0407383
0.0433094
0.0433281
0.0434128
0.0435561
0.0437421
0.0439598
0.0441821
0.0443639
0.0444426
0.0443828
0.0441943
0.0439191
0.0436109
0.043308
0.0430178
0.0427
0.0422987
0.0418478
0.0414473
0.0411557
0.0409799
0.0408911
0.040858
0.0408563
0.0408686
0.0408827
0.0408901
0.0408847
0.0408656
0.0408421
0.0408308
0.040836
0.0432117
0.0432577
0.0434096
0.0436401
0.0439048
0.0441686
0.0443973
0.0445688
0.0446426
0.0446011
0.0444458
0.0442068
0.0439252
0.0436369
0.0433498
0.0430258
0.0426159
0.0421587
0.0417551
0.0414552
0.0412693
0.0411684
0.0411221
0.0411067
0.0411055
0.0411059
0.0410975
0.0410714
0.041025
0.0409713
0.0409385
0.0409389
0.0430182
0.0430925
0.0433199
0.0436513
0.0440013
0.0443055
0.0445336
0.0446915
0.0447604
0.0447365
0.0446226
0.0444361
0.0442029
0.0439474
0.0436708
0.0433372
0.042913
0.0424485
0.0420475
0.041755
0.0415728
0.0414703
0.0414167
0.0413894
0.0413727
0.0413541
0.0413213
0.0412625
0.0411736
0.0410728
0.0410042
0.0409927
0.0427571
0.0428539
0.0431498
0.0435802
0.0440137
0.0443567
0.0445892
0.0447402
0.0448063
0.0447921
0.0447088
0.0445675
0.0443826
0.0441628
0.0438976
0.0435519
0.0431085
0.0426333
0.0422366
0.0419681
0.0418101
0.0417258
0.0416803
0.0416499
0.0416197
0.0415772
0.0415087
0.0414
0.0412473
0.0410784
0.040958
0.0409276
0.0424671
0.042577
0.0429217
0.0434367
0.0439491
0.044338
0.0445904
0.0447469
0.0448115
0.0447968
0.0447253
0.0446074
0.0444518
0.0442538
0.0439924
0.0436317
0.0431656
0.0426733
0.0422743
0.0420321
0.0419125
0.0418669
0.0418489
0.0418293
0.0417912
0.0417212
0.0416041
0.0414249
0.0411837
0.0409243
0.0407391
0.0406858
0.0421824
0.0422948
0.0426625
0.0432399
0.0438267
0.0442753
0.0445689
0.0447445
0.0448067
0.044781
0.0447035
0.0445865
0.044437
0.0442415
0.0439729
0.0435956
0.0431045
0.0425867
0.0421727
0.0419402
0.0418594
0.0418631
0.041887
0.0418901
0.0418502
0.0417497
0.0415714
0.0413003
0.040946
0.0405783
0.0403231
0.0402478
0.0419267
0.0420343
0.0423969
0.043011
0.0436678
0.0441934
0.0445532
0.0447594
0.0448154
0.0447676
0.0446671
0.0445361
0.0443745
0.0441673
0.0438846
0.0434919
0.0429725
0.0424206
0.0419774
0.0417381
0.0416856
0.0417358
0.0418035
0.041833
0.0417922
0.0416564
0.0414037
0.0410209
0.040534
0.0400506
0.039732
0.0396402
0.0417149
0.041814
0.0421561
0.0427719
0.0434965
0.0441169
0.0445694
0.044812
0.0448535
0.0447724
0.0446375
0.0444762
0.0442896
0.0440641
0.043772
0.043367
0.0428143
0.042219
0.0417334
0.0414796
0.041449
0.0415395
0.0416443
0.0416929
0.0416434
0.0414614
0.0411182
0.0406048
0.0399752
0.0393856
0.0390244
0.0389248
0.0415571
0.0416461
0.0419633
0.0425657
0.0433472
0.0440833
0.0446406
0.0449129
0.0449267
0.0448017
0.0446249
0.0444267
0.0442093
0.0439613
0.0436552
0.0432384
0.0426657
0.0420177
0.0414761
0.0412032
0.0412163
0.0413495
0.0414777
0.0415241
0.0414435
0.0411913
0.0407317
0.040071
0.0393072
0.0386469
0.0382873
0.0381933
0.0414602
0.0415381
0.0418322
0.0424269
0.0432632
0.0441239
0.044775
0.0450531
0.0450229
0.0448485
0.0446296
0.0443961
0.04415
0.0438799
0.0435582
0.0431294
0.0425343
0.0418455
0.0412543
0.0409221
0.0409813
0.0412149
0.0413416
0.0413468
0.0411935
0.0408268
0.0401974
0.0394042
0.0386006
0.0379763
0.0376542
0.0375713
0.0414332
0.0414996
0.0417769
0.0423795
0.0432856
0.0442556
0.0449489
0.0451912
0.0451042
0.0448875
0.0446389
0.0443822
0.0441159
0.043829
0.0434953
0.0430627
0.0424657
0.0417514
0.0410946
0.0406744
0.040645
0.0409145
0.0410293
0.0409678
0.0407101
0.0402328
0.0395546
0.0387789
0.0380538
0.0375293
0.0372701
0.0372039
0.0415172
0.0415753
0.0418558
0.042502
0.0434968
0.0445388
0.0451857
0.0453187
0.0451673
0.0449208
0.044654
0.0443831
0.044108
0.0438145
0.0434815
0.0430717
0.0425247
0.0418444
0.0411366
0.0405332
0.0401976
0.0402198
0.0403328
0.0402813
0.0400388
0.0396073
0.0390293
0.0384008
0.0378464
0.0374711
0.0372998
0.0372615
0.0416483
0.0416986
0.0419797
0.0426502
0.0436762
0.0447059
0.0453196
0.0454526
0.0453073
0.0450582
0.0447772
0.0444797
0.0441667
0.0438495
0.0435355
0.0431974
0.0428009
0.0423161
0.0417481
0.0411224
0.0405198
0.0400547
0.0398288
0.0397811
0.0396366
0.0393478
0.0389553
0.0385467
0.0382267
0.0380662
0.0380528
0.0380925
0.0417022
0.0417414
0.0420013
0.0426484
0.0436519
0.044669
0.045311
0.0454977
0.0453903
0.0451588
0.0448846
0.0445904
0.0442804
0.0439589
0.0436477
0.043403
0.0432291
0.0431144
0.0430249
0.0429086
0.0427305
0.0424738
0.0421253
0.041659
0.0412223
0.0408397
0.0405742
0.0404383
0.0405056
0.0407967
0.0411763
0.0414228
0.0417306
0.0417585
0.0419808
0.0425637
0.0435247
0.0445495
0.0452605
0.0455333
0.0454852
0.0452833
0.0450223
0.044732
0.0444154
0.0440788
0.0437449
0.0435027
0.043357
0.0433316
0.0434575
0.0437013
0.0440155
0.0443643
0.0447214
0.0450542
0.0453148
0.045444
0.0453877
0.045294
0.0452633
0.0453287
0.0454409
0.0455214
0.04181
0.0418313
0.0420183
0.0425244
0.0433863
0.0443999
0.0452148
0.0456049
0.0456453
0.0454962
0.0452696
0.0450134
0.0447408
0.0444604
0.0441858
0.0439027
0.0436458
0.0434508
0.0434137
0.0435377
0.0437826
0.0440928
0.0444203
0.0447331
0.0450092
0.0452372
0.0454111
0.0455372
0.0456327
0.0457109
0.0457687
0.045795
0.0419357
0.0419562
0.0421155
0.0425496
0.0433108
0.0442629
0.0451257
0.0456596
0.0458316
0.0457633
0.0455859
0.0453726
0.0451535
0.0449484
0.0447824
0.0445618
0.0441899
0.04384
0.0436025
0.0435138
0.0435848
0.0437797
0.0440404
0.0443153
0.0445685
0.0447835
0.0449533
0.0450832
0.0451854
0.0452701
0.0453354
0.0453695
0.0420788
0.0421049
0.0422472
0.0426202
0.0432839
0.044154
0.0450159
0.0456494
0.0459605
0.0460058
0.0459021
0.0457386
0.0455625
0.0454014
0.0452703
0.045069
0.0447265
0.0443477
0.04399
0.0437203
0.043613
0.0436574
0.0438193
0.0440451
0.0442775
0.0444832
0.0446471
0.0447717
0.0448666
0.0449421
0.045001
0.0450339
0.0422121
0.042249
0.0423858
0.0427124
0.0432888
0.0440674
0.0448899
0.0455706
0.0459943
0.0461609
0.0461502
0.0460466
0.0459065
0.0457628
0.0456215
0.0454007
0.0450604
0.0446939
0.0443342
0.044026
0.043816
0.0437305
0.0437766
0.0439324
0.0441336
0.0443299
0.0444923
0.0446151
0.0447044
0.0447695
0.0448178
0.0448453
0.0423219
0.0423705
0.0425093
0.0428047
0.0433099
0.0440006
0.044761
0.0454399
0.0459263
0.0461894
0.0462693
0.0462296
0.0461224
0.0459814
0.0458106
0.0455533
0.0452087
0.0448688
0.0445398
0.0442468
0.0440223
0.0438918
0.0438705
0.0439535
0.0441075
0.0442887
0.044453
0.0445821
0.0446731
0.0447322
0.044769
0.0447879
0.0424193
0.0424727
0.042611
0.0428842
0.0433353
0.0439504
0.0446403
0.0452814
0.0457758
0.0460871
0.0462282
0.046238
0.0461565
0.0460107
0.0458063
0.0455144
0.0451805
0.0448845
0.0446111
0.0443671
0.0441729
0.0440482
0.0440096
0.0440596
0.0441784
0.044338
0.0445042
0.0446476
0.0447522
0.0448151
0.0448445
0.0448542
0.0425317
0.0425776
0.0427026
0.0429526
0.0433619
0.0439155
0.044535
0.0451144
0.0455716
0.0458742
0.0460286
0.0460573
0.0459858
0.0458315
0.0456023
0.0452982
0.0450001
0.04477
0.0445723
0.0443994
0.044262
0.0441739
0.04415
0.0441966
0.044308
0.044461
0.0446301
0.0447942
0.0449263
0.0450086
0.0450401
0.0450446
0.0426721
0.0427011
0.0428002
0.0430219
0.0433961
0.043899
0.0444493
0.0449496
0.0453341
0.0455825
0.0457035
0.0457151
0.0456325
0.0454666
0.0452292
0.0449451
0.0447126
0.0445681
0.0444597
0.0443698
0.0443018
0.0442659
0.0442757
0.0443398
0.0444611
0.0446268
0.0448177
0.0450092
0.0451843
0.0453079
0.0453603
0.0453705
0.0428233
0.042835
0.0429079
0.0431044
0.0434486
0.0439047
0.0443817
0.0447884
0.0450762
0.045239
0.0452942
0.045261
0.0451513
0.0449755
0.0447516
0.0445195
0.0443754
0.044328
0.0443131
0.0443071
0.0443097
0.0443298
0.0443808
0.0444741
0.0446179
0.0448098
0.0450379
0.0452813
0.0455121
0.0457061
0.0458109
0.0458464
0.0429509
0.0429555
0.0430191
0.0431963
0.0435199
0.0439273
0.0443216
0.0446228
0.0448002
0.0448628
0.0448386
0.04475
0.0446116
0.0444364
0.0442477
0.0440905
0.0440444
0.0440932
0.0441652
0.0442349
0.0443009
0.0443729
0.0444649
0.0445911
0.0447642
0.0449904
0.0452669
0.045579
0.0458995
0.0461902
0.0463905
0.0464836
0.0430126
0.0430284
0.0431117
0.0432937
0.0435919
0.0439454
0.0442468
0.0444357
0.0445019
0.0444701
0.0443731
0.0442378
0.0440832
0.0439244
0.0437869
0.0437133
0.0437606
0.043893
0.0440377
0.0441692
0.0442873
0.0444025
0.0445301
0.044687
0.0448896
0.0451515
0.04548
0.0458716
0.0463084
0.0467462
0.0470959
0.0473147
0.0429363
0.0430119
0.0431606
0.0433711
0.0436488
0.0439316
0.0441358
0.0442214
0.0441946
0.0440896
0.043942
0.0437823
0.0436304
0.0435015
0.0434199
0.0434232
0.0435465
0.0437433
0.0439422
0.0441198
0.0442765
0.044424
0.0445789
0.04476
0.0449871
0.045279
0.0456525
0.0461198
0.046685
0.0473229
0.0479395
0.0484805
0.0425018
0.0428915
0.0431879
0.043435
0.0436782
0.0438868
0.0440053
0.0440124
0.0439236
0.0437752
0.0436062
0.0434446
0.0433084
0.0432116
0.0431768
0.0432359
0.0434102
0.0436489
0.0438829
0.0440901
0.0442717
0.0444399
0.0446124
0.044809
0.0450517
0.0453623
0.0457647
0.0462861
0.0469606
0.0478263
0.0489079
0.0501521
0.0414945
0.0427344
0.043249
0.0434874
0.0436939
0.0438513
0.0439167
0.0438802
0.0437621
0.0435993
0.0434274
0.0432728
0.0431507
0.0430741
0.0430641
0.0431501
0.0433484
0.0436068
0.0438574
0.0440786
0.0442719
0.0444496
0.04463
0.0448335
0.0450822
0.0453999
0.0458142
0.0463634
0.0471094
0.0481631
0.0497389
0.0519799
)
;

boundaryField
{
    movingWall
    {
        type            fixedFluxPressure;
        gradient        uniform 0;
        value           nonuniform List<scalar> 
32
(
0.0414945
0.0427344
0.043249
0.0434874
0.0436939
0.0438513
0.0439167
0.0438802
0.0437621
0.0435993
0.0434274
0.0432728
0.0431507
0.0430741
0.0430641
0.0431501
0.0433484
0.0436068
0.0438574
0.0440786
0.0442719
0.0444496
0.04463
0.0448335
0.0450822
0.0453999
0.0458142
0.0463634
0.0471094
0.0481631
0.0497389
0.0519799
)
;
    }
    fixedWalls
    {
        type            fixedFluxPressure;
        gradient        uniform 0;
        value           nonuniform List<scalar> 
64
(
0.0432035
0.0432584
0.0433125
0.0433094
0.0432117
0.0430182
0.0427571
0.0424671
0.0421824
0.0419267
0.0417149
0.0415571
0.0414602
0.0414332
0.0415172
0.0416483
0.0417022
0.0417306
0.04181
0.0419357
0.0420788
0.0422121
0.0423219
0.0424193
0.0425317
0.0426721
0.0428233
0.0429509
0.0430126
0.0429363
0.0425018
0.0414945
0.040641
0.0406718
0.0407383
0.040836
0.0409389
0.0409927
0.0409276
0.0406858
0.0402478
0.0396402
0.0389248
0.0381933
0.0375713
0.0372039
0.0372615
0.0380925
0.0414228
0.0455214
0.045795
0.0453695
0.0450339
0.0448453
0.0447879
0.0448542
0.0450446
0.0453705
0.0458464
0.0464836
0.0473147
0.0484805
0.0501521
0.0519799
)
;
    }
    floor
    {
        type            fixedFluxPressure;
        gradient        uniform 0;
        value           nonuniform List<scalar> 
32
(
0.0432035
0.0431924
0.0432029
0.04325
0.0433405
0.0434786
0.0436543
0.0438186
0.0438957
0.0438311
0.0436466
0.0433819
0.043092
0.042805
0.0425219
0.0422056
0.0418077
0.0413669
0.0409831
0.0407142
0.0405602
0.0404924
0.0404798
0.0404978
0.0405287
0.0405613
0.0405887
0.0406078
0.0406194
0.0406275
0.0406351
0.040641
)
;
    }
    frontAndBack
    {
        type            empty;
    }
}


// ************************************************************************* //
