/*--------------------------------*- C++ -*----------------------------------*\
| =========                 |                                                 |
| \\      /  F ield         | OpenFOAM: The Open Source CFD Toolbox           |
|  \\    /   O peration     | Version:  2212                                  |
|   \\  /    A nd           | Website:  www.openfoam.com                      |
|    \\/     M anipulation  |                                                 |
\*---------------------------------------------------------------------------*/
FoamFile
{
    version     2.0;
    format      ascii;
    arch        "LSB;label=64;scalar=64";
    class       surfaceScalarField;
    location    "120";
    object      phi;
}
// * * * * * * * * * * * * * * * * * * * * * * * * * * * * * * * * * * * * * //

dimensions      [0 3 -1 0 0 0 0];

oriented        oriented;

internalField   nonuniform List<scalar> 
1984
(
-5.57279e-08
5.57272e-08
-2.01605e-07
1.45877e-07
-3.74801e-07
1.73196e-07
-5.22127e-07
1.47327e-07
-6.11486e-07
8.93585e-08
-6.16998e-07
5.51293e-09
-5.03082e-07
-1.13916e-07
-2.60443e-07
-2.42639e-07
6.34151e-08
-3.23858e-07
3.42755e-07
-2.7934e-07
5.04005e-07
-1.6125e-07
5.74066e-07
-7.00616e-08
5.9296e-07
-1.88939e-08
6.08384e-07
-1.54235e-08
6.66091e-07
-5.77068e-08
7.83391e-07
-1.173e-07
9.01085e-07
-1.17694e-07
9.46599e-07
-4.5514e-08
9.10334e-07
3.6265e-08
8.18232e-07
9.21021e-08
6.98303e-07
1.19929e-07
5.71582e-07
1.2672e-07
4.51047e-07
1.20536e-07
3.44352e-07
1.06695e-07
2.55732e-07
8.86198e-08
1.86394e-07
6.93377e-08
1.3371e-07
5.26837e-08
9.08266e-08
4.28836e-08
5.11322e-08
3.96946e-08
1.69459e-08
3.41866e-08
-4.32301e-10
1.73785e-08
-4.32189e-10
-1.95639e-07
2.51367e-07
-5.91676e-07
5.41915e-07
-1.02032e-06
6.01836e-07
-1.36182e-06
4.8883e-07
-1.54124e-06
2.68783e-07
-1.50483e-06
-3.08994e-08
-1.20996e-06
-4.08784e-07
-6.56464e-07
-7.96138e-07
9.29338e-08
-1.07326e-06
7.99294e-07
-9.857e-07
1.26026e-06
-6.22216e-07
1.52535e-06
-3.35156e-07
1.65993e-06
-1.53471e-07
1.77056e-06
-1.26051e-07
1.97459e-06
-2.61735e-07
2.32098e-06
-4.63688e-07
2.66567e-06
-4.62386e-07
2.83254e-06
-2.12384e-07
2.79757e-06
7.12315e-08
2.60817e-06
2.81503e-07
2.32219e-06
4.05908e-07
1.99042e-06
4.58493e-07
1.6499e-06
4.61054e-07
1.32623e-06
4.30369e-07
1.03619e-06
3.7865e-07
7.88199e-07
3.17333e-07
5.8083e-07
2.60053e-07
4.03334e-07
2.20381e-07
2.45037e-07
1.97992e-07
1.11339e-07
1.67885e-07
2.51917e-08
1.03525e-07
2.47595e-08
-3.07588e-07
5.58955e-07
-8.87968e-07
1.1223e-06
-1.49056e-06
1.20443e-06
-1.95009e-06
9.48359e-07
-2.16284e-06
4.81535e-07
-2.06474e-06
-1.28999e-07
-1.6381e-06
-8.35427e-07
-9.14285e-07
-1.51995e-06
4.25585e-08
-2.0301e-06
1.0139e-06
-1.95704e-06
1.74055e-06
-1.34887e-06
2.24706e-06
-8.41665e-07
2.58317e-06
-4.89581e-07
2.86893e-06
-4.11807e-07
3.26161e-06
-6.54413e-07
3.84081e-06
-1.04289e-06
4.41689e-06
-1.03846e-06
4.74775e-06
-5.43244e-07
4.78963e-06
2.93484e-08
4.58877e-06
4.82359e-07
4.21906e-06
7.75621e-07
3.74788e-06
9.29679e-07
3.22872e-06
9.80213e-07
2.70194e-06
9.5715e-07
2.19669e-06
8.839e-07
1.73109e-06
7.82927e-07
1.31148e-06
6.79663e-07
9.33759e-07
5.98103e-07
5.91947e-07
5.39803e-07
2.9551e-07
4.64321e-07
8.22302e-08
3.16806e-07
1.06989e-07
-3.39944e-07
8.98899e-07
-1.00131e-06
1.78366e-06
-1.69592e-06
1.89903e-06
-2.21726e-06
1.4697e-06
-2.43806e-06
7.02334e-07
-2.29938e-06
-2.67682e-07
-1.8123e-06
-1.3225e-06
-1.0316e-06
-2.30065e-06
-4.84664e-08
-3.01324e-06
9.93093e-07
-2.9986e-06
1.89803e-06
-2.25381e-06
2.62771e-06
-1.57134e-06
3.20416e-06
-1.06603e-06
3.72263e-06
-9.30277e-07
4.33537e-06
-1.26715e-06
5.1413e-06
-1.84882e-06
5.94141e-06
-1.83857e-06
6.4666e-06
-1.06844e-06
6.64699e-06
-1.5104e-07
6.51199e-06
6.17358e-07
6.14514e-06
1.14247e-06
5.61982e-06
1.455e-06
4.99636e-06
1.60367e-06
4.32221e-06
1.6313e-06
3.63347e-06
1.57264e-06
2.95545e-06
1.46095e-06
2.30324e-06
1.33187e-06
1.68389e-06
1.21746e-06
1.10231e-06
1.12138e-06
5.78189e-07
9.88447e-07
1.74539e-07
7.20455e-07
2.81528e-07
-2.93935e-07
1.19283e-06
-9.33933e-07
2.42366e-06
-1.6484e-06
2.6135e-06
-2.19857e-06
2.01987e-06
-2.43409e-06
9.37857e-07
-2.29923e-06
-4.02539e-07
-1.81869e-06
-1.80304e-06
-1.05953e-06
-3.05982e-06
-1.51309e-07
-3.92145e-06
8.30237e-07
-3.98014e-06
1.79739e-06
-3.22097e-06
2.67312e-06
-2.44707e-06
3.45967e-06
-1.85258e-06
4.21392e-06
-1.68453e-06
5.04961e-06
-2.10285e-06
6.06759e-06
-2.8668e-06
7.07713e-06
-2.84811e-06
7.79582e-06
-1.78713e-06
8.14255e-06
-4.97765e-07
8.1295e-06
6.30407e-07
7.83245e-06
1.43952e-06
7.32679e-06
1.96066e-06
6.67351e-06
2.25694e-06
5.92022e-06
2.3846e-06
5.1041e-06
2.38875e-06
4.25372e-06
2.31133e-06
3.39054e-06
2.19506e-06
2.53137e-06
2.07663e-06
1.69367e-06
1.95908e-06
9.13816e-07
1.7683e-06
2.88463e-07
1.34581e-06
5.69991e-07
-2.01654e-07
1.39449e-06
-7.43074e-07
2.96508e-06
-1.42091e-06
3.29134e-06
-1.98299e-06
2.58195e-06
-2.25409e-06
1.20896e-06
-2.16607e-06
-4.90558e-07
-1.73753e-06
-2.23158e-06
-1.04532e-06
-3.75203e-06
-2.47863e-07
-4.71892e-06
6.12961e-07
-4.84097e-06
1.54108e-06
-4.14908e-06
2.46556e-06
-3.37156e-06
3.38337e-06
-2.77039e-06
4.31973e-06
-2.62089e-06
5.34314e-06
-3.12625e-06
6.54798e-06
-4.07164e-06
7.75537e-06
-4.0555e-06
8.65935e-06
-2.6911e-06
9.16949e-06
-1.00791e-06
9.29114e-06
5.0876e-07
9.09034e-06
1.64031e-06
8.64411e-06
2.4069e-06
8.01076e-06
2.89029e-06
7.23286e-06
3.1625e-06
6.34387e-06
3.27775e-06
5.37193e-06
3.28326e-06
4.34217e-06
3.22482e-06
3.27909e-06
3.1397e-06
2.21326e-06
3.02491e-06
1.20358e-06
2.77798e-06
3.84799e-07
2.16459e-06
9.5479e-07
-1.00294e-07
1.49478e-06
-4.9791e-07
3.3627e-06
-1.09711e-06
3.89054e-06
-1.65907e-06
3.1439e-06
-1.98214e-06
1.53203e-06
-1.96713e-06
-5.05565e-07
-1.61369e-06
-2.58502e-06
-1.01393e-06
-4.35179e-06
-3.43812e-07
-5.38903e-06
3.65224e-07
-5.55e-06
1.1828e-06
-4.96666e-06
2.06631e-06
-4.25507e-06
3.0199e-06
-3.72397e-06
4.05127e-06
-3.65227e-06
5.19957e-06
-4.27455e-06
6.55964e-06
-5.43171e-06
7.96594e-06
-5.4618e-06
9.06458e-06
-3.78975e-06
9.73075e-06
-1.67408e-06
9.96518e-06
2.74326e-07
9.84406e-06
1.76144e-06
9.4556e-06
2.79536e-06
8.85696e-06
3.48893e-06
8.08351e-06
3.93594e-06
7.16161e-06
4.19965e-06
6.11579e-06
4.32908e-06
4.97197e-06
4.36865e-06
3.76057e-06
4.3511e-06
2.52636e-06
4.25911e-06
1.35621e-06
3.94813e-06
4.24249e-07
3.09655e-06
1.37904e-06
-1.67443e-08
1.51153e-06
-2.52883e-07
3.59884e-06
-7.41614e-07
4.37927e-06
-1.28727e-06
3.68956e-06
-1.66511e-06
1.90987e-06
-1.7317e-06
-4.38973e-07
-1.46538e-06
-2.85135e-06
-9.83734e-07
-4.83344e-06
-4.69671e-07
-5.9031e-06
4.92171e-08
-6.06889e-06
6.98501e-07
-5.61594e-06
1.45813e-06
-5.0147e-06
2.35003e-06
-4.61586e-06
3.37897e-06
-4.68122e-06
4.5812e-06
-5.47678e-06
6.0655e-06
-6.91601e-06
7.68588e-06
-7.08218e-06
9.01715e-06
-5.12102e-06
9.85354e-06
-2.51047e-06
1.01749e-05
-4.70403e-08
1.00987e-05
1.83767e-06
9.74018e-06
3.15385e-06
9.16414e-06
4.06497e-06
8.40185e-06
4.69823e-06
7.47217e-06
5.12933e-06
6.39351e-06
5.40774e-06
5.18949e-06
5.57267e-06
3.89442e-06
5.64617e-06
2.56853e-06
5.585e-06
1.33133e-06
5.18533e-06
3.92015e-07
4.03587e-06
1.77105e-06
4.1277e-08
1.47025e-06
-4.32279e-08
3.68334e-06
-3.94078e-07
4.73012e-06
-8.99314e-07
4.1948e-06
-1.32103e-06
2.33158e-06
-1.46885e-06
-2.91157e-07
-1.30546e-06
-3.01473e-06
-9.83968e-07
-5.15493e-06
-6.76594e-07
-6.21047e-06
-3.93239e-07
-6.35225e-06
-1.13378e-09
-6.00805e-06
5.54769e-07
-5.57061e-06
1.28567e-06
-5.34677e-06
2.21621e-06
-5.61175e-06
3.40612e-06
-6.66669e-06
4.98214e-06
-8.49203e-06
6.83001e-06
-8.93005e-06
8.44847e-06
-6.73947e-06
9.51036e-06
-3.57236e-06
9.93354e-06
-4.70219e-07
9.8842e-06
1.88701e-06
9.52788e-06
3.51017e-06
8.95526e-06
4.63759e-06
8.20225e-06
5.45123e-06
7.28251e-06
6.04908e-06
6.20676e-06
6.48348e-06
4.99317e-06
6.78626e-06
3.67828e-06
6.96106e-06
2.34078e-06
6.9225e-06
1.13739e-06
6.38872e-06
2.98742e-07
4.87452e-06
2.0698e-06
7.94729e-08
1.39078e-06
1.18609e-07
3.6442e-06
-7.88978e-08
4.92763e-06
-5.15176e-07
4.63108e-06
-9.58348e-07
2.77476e-06
-1.19098e-06
-5.85229e-08
-1.16171e-06
-3.04401e-06
-1.06938e-06
-5.24726e-06
-1.05012e-06
-6.22973e-06
-1.06383e-06
-6.33853e-06
-9.93019e-07
-6.07886e-06
-7.53889e-07
-5.80974e-06
-2.9218e-07
-5.80847e-06
4.56749e-07
-6.36068e-06
1.56075e-06
-7.7707e-06
3.17686e-06
-1.01081e-05
5.22899e-06
-1.09822e-05
7.16916e-06
-8.67964e-06
8.55228e-06
-4.95547e-06
9.15935e-06
-1.07729e-06
9.15738e-06
1.88898e-06
8.8108e-06
3.85675e-06
8.25129e-06
5.19711e-06
7.52452e-06
6.178e-06
6.64106e-06
6.93254e-06
5.60371e-06
7.52084e-06
4.42441e-06
7.96556e-06
3.14519e-06
8.24028e-06
1.87268e-06
8.19501e-06
8.05768e-07
7.45564e-06
1.67338e-07
5.51295e-06
2.23713e-06
9.82016e-08
1.29257e-06
2.22581e-07
3.51983e-06
1.7294e-07
4.97727e-06
-1.6122e-07
4.96524e-06
-6.02597e-07
3.21613e-06
-9.21296e-07
2.60176e-07
-1.09176e-06
-2.87354e-06
-1.32806e-06
-5.01096e-06
-1.70025e-06
-5.85754e-06
-2.11322e-06
-5.92556e-06
-2.44299e-06
-5.74909e-06
-2.59162e-06
-5.66111e-06
-2.47994e-06
-5.92015e-06
-2.0214e-06
-6.81922e-06
-1.10677e-06
-8.68533e-06
4.60914e-07
-1.16758e-05
2.61085e-06
-1.31321e-05
4.83295e-06
-1.09017e-05
6.61174e-06
-6.73427e-06
7.58407e-06
-2.04962e-06
7.74095e-06
1.7321e-06
7.4809e-06
4.1168e-06
7.00531e-06
5.6727e-06
6.3649e-06
6.81841e-06
5.56508e-06
7.73236e-06
4.60211e-06
8.48381e-06
3.48798e-06
9.07969e-06
2.28975e-06
9.43851e-06
1.16575e-06
9.31901e-06
3.62213e-07
8.25917e-06
2.2806e-08
5.85235e-06
2.25994e-06
9.4304e-08
1.19827e-06
2.52233e-07
3.3619e-06
2.93943e-07
4.93556e-06
7.63198e-08
5.18286e-06
-3.41051e-07
3.6335e-06
-7.66395e-07
6.8552e-07
-1.22116e-06
-2.41878e-06
-1.89928e-06
-4.33283e-06
-2.77471e-06
-4.98211e-06
-3.69693e-06
-5.00334e-06
-4.52647e-06
-4.91955e-06
-5.15149e-06
-5.0361e-06
-5.46792e-06
-5.60372e-06
-5.36423e-06
-6.9229e-06
-4.71407e-06
-9.33549e-06
-3.36613e-06
-1.30238e-05
-1.37142e-06
-1.51268e-05
8.68437e-07
-1.31416e-05
3.07041e-06
-8.93624e-06
4.72498e-06
-3.70419e-06
5.36872e-06
1.08837e-06
5.32973e-06
4.15578e-06
5.0738e-06
5.92864e-06
4.60773e-06
7.28447e-06
3.93719e-06
8.40289e-06
3.06039e-06
9.36062e-06
2.00171e-06
1.01384e-05
9.5335e-07
1.04869e-05
1.62484e-07
1.01099e-05
-1.82288e-07
8.60394e-06
-1.32641e-07
5.80271e-06
2.1273e-06
6.91794e-08
1.12909e-06
2.02465e-07
3.22861e-06
2.6107e-07
4.87695e-06
1.12441e-07
5.33149e-06
-2.80346e-07
4.02629e-06
-8.72122e-07
1.2773e-06
-1.7335e-06
-1.5574e-06
-2.98889e-06
-3.07744e-06
-4.48397e-06
-3.48703e-06
-6.0133e-06
-3.47401e-06
-7.42588e-06
-3.50697e-06
-8.60423e-06
-3.85775e-06
-9.44056e-06
-4.76739e-06
-9.82088e-06
-6.54258e-06
-9.61225e-06
-9.54411e-06
-8.64417e-06
-1.39918e-05
-6.92284e-06
-1.68482e-05
-4.8476e-06
-1.52168e-05
-2.64974e-06
-1.11341e-05
-5.33545e-07
-5.82038e-06
1.11021e-06
-5.55391e-07
1.80949e-06
3.45649e-06
1.93124e-06
5.80689e-06
1.66826e-06
7.54745e-06
1.08799e-06
8.98316e-06
2.98065e-07
1.01505e-05
-5.1593e-07
1.09524e-05
-1.08068e-06
1.10516e-05
-1.18821e-06
1.02174e-05
-8.43648e-07
8.25938e-06
-3.14225e-07
5.27328e-06
1.81307e-06
3.02259e-08
1.09887e-06
8.8448e-08
3.17039e-06
9.51912e-08
4.87021e-06
-4.53861e-08
5.47207e-06
-4.41564e-07
4.42247e-06
-1.29161e-06
2.12734e-06
-2.86829e-06
1.92839e-08
-4.91089e-06
-1.03485e-06
-7.13027e-06
-1.26765e-06
-9.30478e-06
-1.29951e-06
-1.13065e-05
-1.50521e-06
-1.3051e-05
-2.11327e-06
-1.44697e-05
-3.34871e-06
-1.54693e-05
-5.54301e-06
-1.59324e-05
-9.081e-06
-1.5688e-05
-1.42362e-05
-1.46232e-05
-1.79129e-05
-1.29557e-05
-1.68843e-05
-1.08414e-05
-1.32485e-05
-8.49832e-06
-8.16341e-06
-6.28927e-06
-2.76445e-06
-4.79516e-06
1.96238e-06
-4.12946e-06
5.1412e-06
-4.00735e-06
7.42534e-06
-4.18514e-06
9.16095e-06
-4.38591e-06
1.03513e-05
-4.30597e-06
1.08724e-05
-3.79046e-06
1.05361e-05
-2.81989e-06
9.24684e-06
-1.59022e-06
7.0297e-06
-4.98256e-07
4.18132e-06
1.31482e-06
-3.45124e-08
1.13338e-06
-1.2587e-07
3.26175e-06
-3.07398e-07
5.05174e-06
-6.71267e-07
5.83594e-06
-1.42934e-06
5.18054e-06
-2.9075e-06
3.60551e-06
-5.20639e-06
2.31817e-06
-7.95185e-06
1.71061e-06
-1.07594e-05
1.53992e-06
-1.34462e-05
1.38727e-06
-1.59331e-05
9.81648e-07
-1.81801e-05
1.33801e-07
-2.01553e-05
-1.3735e-06
-2.18441e-05
-3.85424e-06
-2.32061e-05
-7.71904e-06
-2.40998e-05
-1.33425e-05
-2.42736e-05
-1.77391e-05
-2.36613e-05
-1.74967e-05
-2.22784e-05
-1.46314e-05
-2.02364e-05
-1.02054e-05
-1.78364e-05
-5.16441e-06
-1.57486e-05
-1.25456e-07
-1.41482e-05
3.54082e-06
-1.2884e-05
6.16114e-06
-1.16971e-05
7.97411e-06
-1.03499e-05
9.00409e-06
-8.66552e-06
9.18802e-06
-6.62212e-06
8.49271e-06
-4.35808e-06
6.9828e-06
-2.20012e-06
4.87175e-06
-6.12276e-07
2.59348e-06
7.02541e-07
-5.03897e-08
1.18377e-06
-2.09429e-07
3.42079e-06
-5.31863e-07
5.37417e-06
-1.13611e-06
6.44018e-06
-2.22266e-06
6.26709e-06
-3.95327e-06
5.33611e-06
-6.21677e-06
4.58167e-06
-8.86521e-06
4.35905e-06
-1.17724e-05
4.44713e-06
-1.48792e-05
4.49408e-06
-1.81171e-05
4.21953e-06
-2.13571e-05
3.37378e-06
-2.43912e-05
1.66058e-06
-2.70483e-05
-1.19707e-06
-2.94399e-05
-5.3275e-06
-3.17592e-05
-1.10232e-05
-3.37163e-05
-1.5782e-05
-3.49006e-05
-1.63124e-05
-3.50578e-05
-1.44742e-05
-3.40114e-05
-1.12518e-05
-3.1757e-05
-7.41882e-06
-2.8341e-05
-3.54141e-06
-2.49939e-05
1.93681e-07
-2.15752e-05
2.74247e-06
-1.82101e-05
4.60897e-06
-1.48146e-05
5.60864e-06
-1.13438e-05
5.71717e-06
-7.90779e-06
5.05672e-06
-4.73412e-06
3.80912e-06
-2.15908e-06
2.29671e-06
-5.3528e-07
9.69679e-07
1.67262e-07
4.87489e-09
1.17889e-06
-4.56509e-08
3.47131e-06
-2.57174e-07
5.58569e-06
-7.82277e-07
6.96528e-06
-1.74833e-06
7.23314e-06
-3.13835e-06
6.72613e-06
-4.79168e-06
6.23499e-06
-6.61418e-06
6.18155e-06
-8.62935e-06
6.46229e-06
-1.08957e-05
6.76042e-06
-1.34546e-05
6.77848e-06
-1.63298e-05
6.24896e-06
-1.9523e-05
4.85372e-06
-2.28702e-05
2.15014e-06
-2.60053e-05
-2.19234e-06
-2.91169e-05
-7.91157e-06
-3.22674e-05
-1.26315e-05
-3.49782e-05
-1.36016e-05
-3.68047e-05
-1.26477e-05
-3.73417e-05
-1.07148e-05
-3.63479e-05
-8.41263e-06
-3.37825e-05
-6.10677e-06
-2.96056e-05
-3.98318e-06
-2.47261e-05
-2.13703e-06
-1.94064e-05
-7.10814e-07
-1.40593e-05
2.61554e-07
-9.22385e-06
8.81753e-07
-5.26247e-06
1.09533e-06
-2.42275e-06
9.69408e-07
-7.67436e-07
6.41393e-07
-9.86614e-08
3.00903e-07
6.86003e-08
6.49445e-08
1.11395e-06
1.67662e-07
3.36859e-06
1.84573e-07
5.56878e-06
-5.0364e-08
7.20022e-06
-6.62375e-07
7.84515e-06
-1.57941e-06
7.64317e-06
-2.57985e-06
7.23543e-06
-3.57219e-06
7.1739e-06
-4.58507e-06
7.47517e-06
-5.69274e-06
7.8681e-06
-6.95252e-06
8.03825e-06
-8.40125e-06
7.69769e-06
-1.00913e-05
6.54375e-06
-1.21605e-05
4.21937e-06
-1.46121e-05
2.59232e-07
-1.72072e-05
-5.31647e-06
-1.99633e-05
-9.87538e-06
-2.26015e-05
-1.09634e-05
-2.47673e-05
-1.04818e-05
-2.61253e-05
-9.35688e-06
-2.6425e-05
-8.11286e-06
-2.55197e-05
-7.0121e-06
-2.33735e-05
-6.12937e-06
-2.00849e-05
-5.42566e-06
-1.59919e-05
-4.80385e-06
-1.1603e-05
-4.12736e-06
-7.44036e-06
-3.28084e-06
-4.00884e-06
-2.33618e-06
-1.64749e-06
-1.39195e-06
-4.1137e-07
-5.94723e-07
-6.85005e-09
-1.03617e-07
6.17505e-08
1.09539e-07
1.00441e-06
3.39449e-07
3.13868e-06
5.62931e-07
5.3453e-06
6.16262e-07
7.14689e-06
3.48937e-07
8.11248e-06
-2.12329e-07
8.20443e-06
-8.43283e-07
7.86638e-06
-1.36085e-06
7.69147e-06
-1.75154e-06
7.86585e-06
-2.10101e-06
8.21757e-06
-2.48984e-06
8.42708e-06
-2.97782e-06
8.18568e-06
-3.61892e-06
7.18485e-06
-4.49269e-06
5.09313e-06
-5.83657e-06
1.60312e-06
-7.63864e-06
-3.5144e-06
-9.66345e-06
-7.85057e-06
-1.16249e-05
-9.00198e-06
-1.32998e-05
-8.80692e-06
-1.45494e-05
-8.10725e-06
-1.52644e-05
-7.39791e-06
-1.53542e-05
-6.92226e-06
-1.47701e-05
-6.71352e-06
-1.3524e-05
-6.67174e-06
-1.17103e-05
-6.6175e-06
-9.47654e-06
-6.36117e-06
-6.99608e-06
-5.7613e-06
-4.5577e-06
-4.77457e-06
-2.47706e-06
-3.47259e-06
-1.00268e-06
-2.06911e-06
-2.2121e-07
-8.85083e-07
-1.5946e-07
1.3486e-07
8.69549e-07
4.53518e-07
2.82003e-06
8.37456e-07
4.96136e-06
1.12631e-06
6.85804e-06
1.16859e-06
8.07019e-06
9.2669e-07
8.44633e-06
5.47073e-07
8.246e-06
2.72685e-07
7.96586e-06
2.05618e-07
7.93292e-06
3.01132e-07
8.12205e-06
4.61926e-07
8.26628e-06
5.96517e-07
8.05109e-06
6.138e-07
7.16756e-06
4.31136e-07
5.27579e-06
-4.97905e-08
2.08405e-06
-1.16047e-06
-2.40373e-06
-2.80832e-06
-6.20272e-06
-4.34256e-06
-7.46774e-06
-5.62798e-06
-7.52149e-06
-6.66902e-06
-7.06622e-06
-7.48917e-06
-6.57776e-06
-8.0756e-06
-6.33584e-06
-8.37687e-06
-6.41225e-06
-8.31557e-06
-6.73303e-06
-7.82889e-06
-7.10418e-06
-6.89555e-06
-7.29451e-06
-5.57283e-06
-7.08402e-06
-4.00699e-06
-6.34041e-06
-2.42341e-06
-5.05616e-06
-1.09765e-06
-3.39487e-06
-2.67423e-07
-1.71531e-06
-4.26883e-07
1.45293e-07
7.24256e-07
5.16881e-07
2.44844e-06
1.01412e-06
4.46412e-06
1.48575e-06
6.38641e-06
1.7786e-06
7.77735e-06
1.81941e-06
8.40551e-06
1.68383e-06
8.38158e-06
1.57542e-06
8.07427e-06
1.66714e-06
7.8412e-06
1.99186e-06
7.79733e-06
2.47178e-06
7.78637e-06
2.99291e-06
7.52996e-06
3.43523e-06
6.72525e-06
3.66394e-06
5.04709e-06
3.52083e-06
2.22716e-06
2.79471e-06
-1.67762e-06
1.59302e-06
-5.00102e-06
3.4283e-07
-6.21755e-06
-7.82175e-07
-6.39649e-06
-1.73008e-06
-6.11831e-06
-2.52057e-06
-5.78727e-06
-3.23077e-06
-5.62563e-06
-3.88328e-06
-5.75975e-06
-4.42405e-06
-6.19226e-06
-4.72808e-06
-6.80016e-06
-4.66034e-06
-7.36225e-06
-4.16124e-06
-7.58312e-06
-3.27278e-06
-7.22887e-06
-2.14797e-06
-6.18097e-06
-1.04673e-06
-4.49612e-06
-2.71456e-07
-2.49058e-06
-6.98338e-07
1.4261e-07
5.81646e-07
5.32182e-07
2.05887e-06
1.09319e-06
3.90312e-06
1.69112e-06
5.78847e-06
2.17893e-06
7.28954e-06
2.46446e-06
8.11998e-06
2.56974e-06
8.2763e-06
2.63694e-06
8.00707e-06
2.84102e-06
7.63712e-06
3.27393e-06
7.36441e-06
3.90473e-06
7.15557e-06
4.62627e-06
6.80842e-06
5.30247e-06
6.04905e-06
5.77689e-06
4.57266e-06
5.86362e-06
2.14043e-06
5.36583e-06
-1.17982e-06
4.39516e-06
-4.03035e-06
3.30391e-06
-5.1263e-06
2.2642e-06
-5.35677e-06
1.34796e-06
-5.20207e-06
5.43331e-07
-4.98264e-06
-2.01382e-07
-4.88092e-06
-9.38625e-07
-5.02251e-06
-1.69319e-06
-5.43769e-06
-2.38451e-06
-6.10884e-06
-2.85207e-06
-6.89468e-06
-2.93796e-06
-7.49724e-06
-2.5881e-06
-7.57873e-06
-1.86909e-06
-6.89997e-06
-9.89047e-07
-5.37617e-06
-2.72739e-07
-3.20688e-06
-9.71078e-07
1.28078e-07
4.53569e-07
5.01244e-07
1.6857e-06
1.07408e-06
3.33028e-06
1.73683e-06
5.12573e-06
2.35827e-06
6.6681e-06
2.84301e-06
7.63524e-06
3.17832e-06
7.94099e-06
3.44692e-06
7.73848e-06
3.78349e-06
7.30055e-06
4.29252e-06
6.85538e-06
4.98477e-06
6.46332e-06
5.78287e-06
6.01032e-06
6.55884e-06
5.27308e-06
7.15197e-06
3.97953e-06
7.37306e-06
1.91934e-06
7.03684e-06
-8.43597e-07
6.22037e-06
-3.21388e-06
5.23524e-06
-4.14117e-06
4.24161e-06
-4.36315e-06
3.3161e-06
-4.27655e-06
2.4747e-06
-4.14125e-06
1.70612e-06
-4.11234e-06
9.61387e-07
-4.27778e-06
1.87209e-07
-4.66351e-06
-6.24403e-07
-5.29723e-06
-1.39165e-06
-6.12743e-06
-1.88856e-06
-7.00033e-06
-1.97168e-06
-7.49562e-06
-1.61369e-06
-7.25796e-06
-9.48183e-07
-6.04167e-06
-2.84903e-07
-3.87016e-06
-1.25598e-06
1.04308e-07
3.49261e-07
4.30012e-07
1.36e-06
9.64003e-07
2.79629e-06
1.62958e-06
4.46016e-06
2.32195e-06
5.97573e-06
2.95553e-06
7.00165e-06
3.49729e-06
7.39923e-06
3.97862e-06
7.25715e-06
4.47811e-06
6.80106e-06
5.07595e-06
6.25754e-06
5.80052e-06
5.73876e-06
6.60799e-06
5.20284e-06
7.39628e-06
4.48479e-06
8.01903e-06
3.35677e-06
8.297e-06
1.64137e-06
8.05571e-06
-6.02314e-07
7.34992e-06
-2.50808e-06
6.45986e-06
-3.25112e-06
5.53085e-06
-3.43413e-06
4.635e-06
-3.3807e-06
3.79417e-06
-3.30042e-06
3.0028e-06
-3.32097e-06
2.23879e-06
-3.51377e-06
1.48176e-06
-3.90648e-06
6.87745e-07
-4.50322e-06
-1.56264e-07
-5.28342e-06
-9.3708e-07
-6.21951e-06
-1.38042e-06
-7.05228e-06
-1.36006e-06
-7.27832e-06
-9.17844e-07
-6.48389e-06
-3.13302e-07
-4.47471e-06
-1.56928e-06
7.27762e-08
2.76484e-07
3.23247e-07
1.10952e-06
7.72768e-07
2.34677e-06
1.38713e-06
3.8458e-06
2.09745e-06
5.2654e-06
2.83485e-06
6.26425e-06
3.5515e-06
6.68258e-06
4.23354e-06
6.57511e-06
4.90394e-06
6.13067e-06
5.60467e-06
5.55681e-06
6.36104e-06
4.98239e-06
7.15309e-06
4.41079e-06
7.90874e-06
3.72914e-06
8.50664e-06
2.75888e-06
8.7868e-06
1.36121e-06
8.59493e-06
-4.10441e-07
7.98e-06
-1.89316e-06
7.19164e-06
-2.46275e-06
6.35622e-06
-2.59871e-06
5.53568e-06
-2.56016e-06
4.74872e-06
-2.51345e-06
3.98933e-06
-2.56158e-06
3.23974e-06
-2.76418e-06
2.48153e-06
-3.14826e-06
1.69662e-06
-3.71831e-06
8.72976e-07
-4.45978e-06
-2.5122e-09
-5.34402e-06
-7.53163e-07
-6.30163e-06
-1.06628e-06
-6.9652e-06
-8.75874e-07
-6.6743e-06
-3.56972e-07
-4.99361e-06
-1.92626e-06
2.7654e-08
2.4883e-07
1.7128e-07
9.65898e-07
5.00303e-07
2.01774e-06
1.03076e-06
3.31534e-06
1.72926e-06
4.56691e-06
2.54103e-06
5.45248e-06
3.40014e-06
5.82348e-06
4.25146e-06
5.72378e-06
5.07173e-06
5.3104e-06
5.86851e-06
4.76003e-06
6.65636e-06
4.19454e-06
7.42821e-06
3.63894e-06
8.13686e-06
3.02049e-06
8.68788e-06
2.20786e-06
8.94818e-06
1.1009e-06
8.79306e-06
-2.55316e-07
8.27166e-06
-1.37177e-06
7.59931e-06
-1.7904e-06
6.88234e-06
-1.88174e-06
6.17119e-06
-1.84902e-06
5.47885e-06
-1.82111e-06
4.79598e-06
-1.8787e-06
4.10225e-06
-2.07046e-06
3.37597e-06
-2.42199e-06
2.59978e-06
-2.94211e-06
1.76564e-06
-3.62564e-06
8.79343e-07
-4.45773e-06
-2.10731e-08
-5.40121e-06
-6.80299e-07
-6.30597e-06
-7.879e-07
-6.5667e-06
-4.04716e-07
-5.37679e-06
-2.33097e-06
-4.54916e-08
2.94322e-07
-5.11527e-08
9.7156e-07
1.35317e-07
1.83127e-06
5.87543e-07
2.86311e-06
1.27661e-06
3.87783e-06
2.15167e-06
4.57743e-06
3.1225e-06
4.85264e-06
4.09994e-06
4.74635e-06
5.02998e-06
4.38036e-06
5.8979e-06
3.89211e-06
6.7094e-06
3.38304e-06
7.46387e-06
2.88447e-06
8.13191e-06
2.35245e-06
8.64313e-06
1.69664e-06
8.89394e-06
8.50097e-07
8.78933e-06
-1.50714e-07
8.37345e-06
-9.55881e-07
7.82685e-06
-1.2438e-06
7.23969e-06
-1.29459e-06
6.65329e-06
-1.26261e-06
6.07595e-06
-1.24377e-06
5.49516e-06
-1.29792e-06
4.88702e-06
-1.46231e-06
4.2244e-06
-1.75937e-06
3.48393e-06
-2.20164e-06
2.65266e-06
-2.79436e-06
1.73365e-06
-3.53872e-06
7.60609e-07
-4.42817e-06
-1.40976e-07
-5.40439e-06
-6.04823e-07
-6.10285e-06
-4.30998e-07
-5.55062e-06
-2.76197e-06
-1.64931e-07
4.59253e-07
-3.44158e-07
1.15079e-06
-2.91163e-07
1.77828e-06
1.11521e-07
2.46043e-06
8.23722e-07
3.16563e-06
1.76279e-06
3.63836e-06
2.81594e-06
3.7995e-06
3.87452e-06
3.68777e-06
4.87238e-06
3.3825e-06
5.78537e-06
2.97912e-06
6.61433e-06
2.55408e-06
7.36149e-06
2.13731e-06
8.0083e-06
1.70563e-06
8.50245e-06
1.20249e-06
8.76523e-06
5.87317e-07
8.72312e-06
-1.08601e-07
8.41121e-06
-6.43973e-07
7.98373e-06
-8.16319e-07
7.52055e-06
-8.31409e-07
7.05661e-06
-7.98674e-07
6.59684e-06
-7.84001e-07
6.12663e-06
-8.277e-07
5.61958e-06
-9.55266e-07
5.04409e-06
-1.18387e-06
4.3693e-06
-1.52685e-06
3.57227e-06
-1.99734e-06
2.64603e-06
-2.61249e-06
1.61223e-06
-3.39437e-06
5.51144e-07
-4.3433e-06
-2.61976e-07
-5.28973e-06
-3.9671e-07
-5.41588e-06
-3.15868e-06
-3.29285e-07
7.88538e-07
-6.49989e-07
1.47149e-06
-6.4507e-07
1.77336e-06
-2.41756e-07
2.05711e-06
5.25587e-07
2.39829e-06
1.53246e-06
2.63148e-06
2.63892e-06
2.69304e-06
3.74169e-06
2.585e-06
4.77722e-06
2.34697e-06
5.71846e-06
2.03788e-06
6.56168e-06
1.71087e-06
7.3072e-06
1.39179e-06
7.94052e-06
1.0723e-06
8.42106e-06
7.21956e-07
8.68896e-06
3.19414e-07
8.6886e-06
-1.0824e-07
8.45463e-06
-4.09997e-07
8.12498e-06
-4.86674e-07
7.77002e-06
-4.76445e-07
7.41778e-06
-4.4644e-07
7.06931e-06
-4.35532e-07
6.70831e-06
-4.66694e-07
6.30765e-06
-5.5461e-07
5.83404e-06
-7.10259e-07
5.25178e-06
-9.44592e-07
4.52746e-06
-1.27301e-06
3.63689e-06
-1.72192e-06
2.57814e-06
-2.33561e-06
1.40238e-06
-3.16755e-06
2.95395e-07
-4.18274e-06
-2.58355e-07
-4.86213e-06
-3.41703e-06
-4.871e-07
1.27564e-06
-7.69178e-07
1.75357e-06
-6.09146e-07
1.61333e-06
-8.04074e-08
1.52837e-06
7.61807e-07
1.55608e-06
1.79851e-06
1.59478e-06
2.91362e-06
1.57793e-06
4.01769e-06
1.48093e-06
5.05074e-06
1.31391e-06
5.98136e-06
1.10726e-06
6.79852e-06
8.93706e-07
7.49815e-06
6.9216e-07
8.06878e-06
5.01678e-07
8.48248e-06
3.08249e-07
8.69994e-06
1.01955e-07
8.69112e-06
-9.94118e-08
8.50261e-06
-2.21495e-07
8.25245e-06
-2.36512e-07
7.99411e-06
-2.18109e-07
7.74516e-06
-1.97487e-07
7.50142e-06
-1.9179e-07
7.24549e-06
-2.10764e-07
6.95174e-06
-2.60854e-07
6.58902e-06
-3.47545e-07
6.12211e-06
-4.77676e-07
5.51244e-06
-6.63352e-07
4.71977e-06
-9.29245e-07
3.708e-06
-1.32384e-06
2.46932e-06
-1.92887e-06
1.11512e-06
-2.82855e-06
8.53317e-08
-3.83234e-06
-3.3317e-06
-4.20903e-07
1.69654e-06
-9.36795e-08
1.42634e-06
5.63682e-07
9.55968e-07
1.31667e-06
7.75388e-07
2.18772e-06
6.85024e-07
3.158e-06
6.24505e-07
4.16416e-06
5.71764e-07
5.13883e-06
5.06255e-07
6.02897e-06
4.2377e-07
6.80263e-06
3.33602e-07
7.44807e-06
2.48271e-07
7.96533e-06
1.74893e-07
8.35462e-06
1.1239e-07
8.60804e-06
5.48308e-08
8.71154e-06
-1.54019e-09
8.66309e-06
-5.0964e-08
8.51452e-06
-7.29272e-08
8.34556e-06
-6.75494e-08
8.18456e-06
-5.71126e-08
8.03654e-06
-4.94615e-08
7.89318e-06
-4.84353e-08
7.73859e-06
-5.61764e-08
7.55207e-06
-7.4325e-08
7.30914e-06
-1.04615e-07
6.9812e-06
-1.49737e-07
6.53325e-06
-2.15404e-07
5.91921e-06
-3.15203e-07
5.07553e-06
-4.80162e-07
3.91977e-06
-7.73115e-07
2.39307e-06
-1.30184e-06
7.35345e-07
-2.17462e-06
-2.59636e-06
1.69654e-06
3.12289e-06
4.07885e-06
4.85424e-06
5.53927e-06
6.16377e-06
6.73554e-06
7.24179e-06
7.66556e-06
7.99916e-06
8.24743e-06
8.42233e-06
8.53472e-06
8.58955e-06
8.58801e-06
8.53704e-06
8.46412e-06
8.39657e-06
8.33945e-06
8.28999e-06
8.24156e-06
8.18538e-06
8.11106e-06
8.00644e-06
7.8567e-06
7.6413e-06
7.3261e-06
6.84593e-06
6.07282e-06
4.77098e-06
2.59636e-06
)
;

boundaryField
{
    movingWall
    {
        type            calculated;
        value           uniform 0;
    }
    fixedWalls
    {
        type            calculated;
        value           uniform 0;
    }
    floor
    {
        type            calculated;
        value           uniform 0;
    }
    frontAndBack
    {
        type            empty;
        value           nonuniform List<scalar> 0();
    }
}


// ************************************************************************* //
