/*--------------------------------*- C++ -*----------------------------------*\
| =========                 |                                                 |
| \\      /  F ield         | OpenFOAM: The Open Source CFD Toolbox           |
|  \\    /   O peration     | Version:  2212                                  |
|   \\  /    A nd           | Website:  www.openfoam.com                      |
|    \\/     M anipulation  |                                                 |
\*---------------------------------------------------------------------------*/
FoamFile
{
    version     2.0;
    format      ascii;
    arch        "LSB;label=64;scalar=64";
    class       volScalarField;
    location    "120";
    object      T;
}
// * * * * * * * * * * * * * * * * * * * * * * * * * * * * * * * * * * * * * //

dimensions      [0 0 0 1 0 0 0];

internalField   nonuniform List<scalar> 
1024
(
309.93
309.923
309.909
309.889
309.867
309.844
309.818
309.797
309.787
309.799
309.824
309.847
309.864
309.874
309.876
309.873
309.872
309.876
309.883
309.89
309.897
309.903
309.91
309.917
309.923
309.929
309.936
309.942
309.948
309.953
309.956
309.957
309.786
309.765
309.718
309.655
309.585
309.514
309.44
309.385
309.359
309.39
309.458
309.523
309.574
309.605
309.612
309.605
309.603
309.613
309.634
309.655
309.676
309.698
309.719
309.739
309.759
309.778
309.798
309.817
309.836
309.852
309.862
309.865
309.642
309.606
309.524
309.413
309.294
309.178
309.074
309.001
308.968
309.004
309.092
309.183
309.261
309.31
309.324
309.317
309.313
309.328
309.361
309.396
309.433
309.47
309.507
309.542
309.577
309.61
309.644
309.678
309.713
309.742
309.76
309.766
309.509
309.461
309.348
309.195
309.036
308.892
308.782
308.711
308.681
308.708
308.786
308.875
308.958
309.015
309.035
309.031
309.029
309.045
309.081
309.129
309.18
309.231
309.282
309.333
309.382
309.43
309.478
309.529
309.58
309.625
309.654
309.664
309.391
309.337
309.205
309.025
308.844
308.695
308.594
308.536
308.511
308.525
308.577
308.643
308.711
308.761
308.782
308.783
308.785
308.801
308.833
308.883
308.939
308.999
309.061
309.123
309.184
309.246
309.309
309.376
309.444
309.507
309.55
309.565
309.29
309.237
309.099
308.909
308.724
308.583
308.497
308.451
308.431
308.435
308.462
308.502
308.545
308.58
308.599
308.606
308.613
308.627
308.651
308.691
308.742
308.8
308.864
308.931
309.001
309.072
309.148
309.229
309.315
309.396
309.452
309.472
309.203
309.156
309.024
308.839
308.662
308.532
308.458
308.419
308.401
308.401
308.414
308.434
308.458
308.48
308.497
308.509
308.521
308.534
308.549
308.572
308.608
308.655
308.711
308.775
308.845
308.922
309.006
309.099
309.2
309.297
309.364
309.389
309.128
309.089
308.973
308.802
308.636
308.517
308.449
308.411
308.395
308.394
308.401
308.413
308.427
308.443
308.459
308.476
308.493
308.506
308.514
308.523
308.541
308.571
308.612
308.665
308.729
308.804
308.892
308.993
309.105
309.213
309.289
309.315
309.062
309.033
308.935
308.783
308.632
308.52
308.451
308.413
308.398
308.398
308.405
308.415
308.427
308.442
308.46
308.48
308.501
308.515
308.521
308.52
308.524
308.536
308.56
308.598
308.651
308.72
308.807
308.912
309.032
309.147
309.225
309.251
309.005
308.983
308.906
308.775
308.637
308.529
308.458
308.418
308.404
308.407
308.416
308.427
308.441
308.457
308.476
308.498
308.521
308.537
308.542
308.538
308.531
308.53
308.539
308.562
308.603
308.665
308.749
308.856
308.979
309.096
309.171
309.195
308.955
308.938
308.879
308.772
308.646
308.541
308.465
308.423
308.411
308.417
308.43
308.444
308.459
308.476
308.495
308.516
308.54
308.559
308.567
308.56
308.546
308.535
308.534
308.546
308.578
308.632
308.713
308.822
308.946
309.059
309.127
309.146
308.909
308.896
308.851
308.764
308.652
308.547
308.468
308.427
308.419
308.429
308.443
308.459
308.476
308.493
308.512
308.532
308.555
308.576
308.588
308.58
308.558
308.54
308.532
308.539
308.566
308.618
308.7
308.81
308.932
309.035
309.091
309.105
308.864
308.855
308.82
308.749
308.649
308.546
308.467
308.43
308.428
308.44
308.456
308.472
308.488
308.505
308.522
308.542
308.565
308.589
308.604
308.601
308.572
308.542
308.533
308.542
308.572
308.629
308.718
308.827
308.935
309.017
309.058
309.068
308.818
308.811
308.783
308.723
308.631
308.533
308.461
308.433
308.435
308.449
308.465
308.479
308.494
308.509
308.525
308.544
308.569
308.596
308.617
308.624
308.605
308.573
308.567
308.582
308.62
308.683
308.766
308.859
308.943
309.001
309.029
309.035
308.765
308.76
308.736
308.681
308.596
308.506
308.448
308.432
308.439
308.452
308.466
308.479
308.492
308.504
308.519
308.537
308.561
308.592
308.625
308.652
308.666
308.66
308.657
308.674
308.709
308.763
308.827
308.894
308.949
308.985
309
309.002
308.707
308.704
308.683
308.634
308.558
308.482
308.435
308.423
308.429
308.441
308.453
308.466
308.478
308.49
308.503
308.518
308.538
308.565
308.6
308.641
308.686
308.726
308.753
308.771
308.796
308.831
308.87
308.907
308.934
308.947
308.948
308.944
308.658
308.656
308.639
308.597
308.533
308.468
308.426
308.412
308.415
308.425
308.437
308.448
308.459
308.47
308.482
308.494
308.506
308.518
308.532
308.55
308.575
308.609
308.651
308.699
308.743
308.779
308.801
308.812
308.807
308.788
308.763
308.747
308.622
308.621
308.608
308.575
308.52
308.461
308.42
308.403
308.403
308.41
308.42
308.43
308.441
308.454
308.468
308.482
308.496
308.507
308.511
308.511
308.508
308.505
308.503
308.503
308.503
308.506
308.515
308.522
308.524
308.519
308.512
308.507
308.597
308.596
308.586
308.559
308.514
308.461
308.418
308.396
308.392
308.396
308.404
308.412
308.421
308.43
308.442
308.459
308.48
308.5
308.514
308.519
308.517
308.513
308.508
308.503
308.499
308.496
308.493
308.49
308.486
308.482
308.478
308.476
308.578
308.577
308.569
308.548
308.511
308.464
308.421
308.394
308.384
308.385
308.39
308.396
308.401
308.407
308.413
308.427
308.453
308.481
308.504
308.518
308.524
308.523
308.519
308.513
308.509
308.505
308.502
308.499
308.496
308.492
308.489
308.487
308.565
308.564
308.558
308.541
308.51
308.469
308.428
308.398
308.381
308.377
308.378
308.382
308.385
308.389
308.393
308.406
308.43
308.458
308.486
308.508
308.521
308.526
308.525
308.52
308.515
308.511
308.508
308.506
308.503
308.501
308.498
308.496
308.557
308.556
308.55
308.536
308.51
308.475
308.437
308.405
308.385
308.375
308.372
308.372
308.374
308.376
308.381
308.393
308.417
308.444
308.471
308.494
308.511
308.521
308.525
308.523
308.519
308.515
308.512
308.51
308.508
308.506
308.504
308.502
308.552
308.551
308.545
308.533
308.511
308.481
308.447
308.416
308.393
308.378
308.371
308.368
308.368
308.37
308.376
308.389
308.412
308.438
308.463
308.485
308.503
308.515
308.521
308.523
308.521
308.517
308.514
308.512
308.511
308.509
308.508
308.507
308.549
308.548
308.542
308.531
308.513
308.487
308.457
308.428
308.405
308.388
308.377
308.372
308.37
308.372
308.378
308.393
308.415
308.438
308.461
308.481
308.497
308.509
308.517
308.52
308.52
308.518
308.515
308.514
308.512
308.511
308.51
308.51
308.546
308.545
308.54
308.531
308.515
308.493
308.467
308.441
308.419
308.401
308.39
308.383
308.38
308.381
308.388
308.403
308.423
308.443
308.462
308.48
308.494
308.505
308.512
308.517
308.518
308.517
308.516
308.514
308.513
308.512
308.512
308.511
308.542
308.541
308.538
308.53
308.517
308.498
308.476
308.453
308.433
308.417
308.406
308.399
308.395
308.397
308.404
308.417
308.434
308.451
308.467
308.481
308.493
308.502
308.509
308.513
308.515
308.516
308.515
308.514
308.513
308.513
308.512
308.512
308.537
308.537
308.535
308.529
308.518
308.502
308.483
308.465
308.448
308.435
308.425
308.418
308.415
308.416
308.422
308.434
308.447
308.461
308.473
308.483
308.493
308.5
308.506
308.51
308.513
308.514
308.514
308.513
308.513
308.512
308.512
308.512
308.533
308.533
308.532
308.527
308.518
308.505
308.49
308.476
308.463
308.452
308.444
308.439
308.436
308.437
308.442
308.45
308.46
308.469
308.478
308.486
308.493
308.499
308.504
308.507
308.51
308.511
308.512
308.512
308.512
308.512
308.512
308.512
308.53
308.53
308.529
308.525
308.518
308.508
308.497
308.486
308.477
308.469
308.463
308.458
308.456
308.456
308.459
308.464
308.47
308.476
308.483
308.489
308.494
308.498
308.502
308.505
308.507
308.509
308.51
308.511
308.511
308.511
308.511
308.512
308.527
308.527
308.526
308.524
308.519
308.512
308.504
308.497
308.49
308.484
308.479
308.476
308.473
308.472
308.472
308.474
308.478
308.482
308.486
308.49
308.494
308.498
308.501
308.503
308.505
308.507
308.508
308.509
308.51
308.51
308.511
308.511
308.525
308.525
308.525
308.523
308.52
308.516
308.511
308.506
308.501
308.496
308.492
308.488
308.485
308.482
308.481
308.481
308.482
308.485
308.488
308.491
308.494
308.497
308.5
308.502
308.504
308.505
308.507
308.508
308.509
308.51
308.51
308.511
308.524
308.524
308.524
308.523
308.521
308.519
308.516
308.512
308.508
308.503
308.499
308.494
308.49
308.487
308.485
308.484
308.485
308.486
308.489
308.492
308.494
308.497
308.499
308.501
308.503
308.504
308.506
308.507
308.508
308.509
308.51
308.51
)
;

boundaryField
{
    movingWall
    {
        type            zeroGradient;
    }
    fixedWalls
    {
        type            zeroGradient;
    }
    floor
    {
        type            fixedValue;
        value           uniform 310;
    }
    frontAndBack
    {
        type            empty;
    }
}


// ************************************************************************* //
