/*--------------------------------*- C++ -*----------------------------------*\
| =========                 |                                                 |
| \\      /  F ield         | OpenFOAM: The Open Source CFD Toolbox           |
|  \\    /   O peration     | Version:  2212                                  |
|   \\  /    A nd           | Website:  www.openfoam.com                      |
|    \\/     M anipulation  |                                                 |
\*---------------------------------------------------------------------------*/
FoamFile
{
    version     2.0;
    format      ascii;
    arch        "LSB;label=64;scalar=64";
    class       volScalarField;
    location    "120";
    object      Xpr;
}
// * * * * * * * * * * * * * * * * * * * * * * * * * * * * * * * * * * * * * //

dimensions      [1 -3 0 0 0 0 0];

internalField   nonuniform List<scalar> 
1024
(
0.0833268
0.0833275
0.0833293
0.0833322
0.0833362
0.0833408
0.0833456
0.0833503
0.0833544
0.0833579
0.0833605
0.0833625
0.0833644
0.0833663
0.0833685
0.0833707
0.0833716
0.0833705
0.083368
0.0833645
0.0833605
0.0833562
0.0833516
0.0833469
0.0833419
0.0833369
0.0833322
0.0833282
0.0833251
0.0833231
0.0833219
0.0833214
0.0833269
0.0833277
0.0833296
0.0833327
0.0833368
0.0833415
0.0833464
0.0833511
0.0833553
0.0833588
0.0833613
0.0833633
0.083365
0.0833668
0.083369
0.0833711
0.083372
0.0833709
0.0833684
0.0833649
0.083361
0.0833567
0.0833522
0.0833475
0.0833425
0.0833375
0.0833327
0.0833286
0.0833254
0.0833233
0.0833221
0.0833215
0.0833272
0.083328
0.0833301
0.0833334
0.0833377
0.0833427
0.0833479
0.0833529
0.0833574
0.083361
0.0833634
0.0833652
0.0833666
0.0833682
0.0833702
0.0833722
0.083373
0.0833718
0.0833692
0.0833658
0.0833618
0.0833576
0.0833532
0.0833486
0.0833437
0.0833387
0.0833338
0.0833295
0.0833261
0.0833238
0.0833225
0.0833219
0.0833275
0.0833284
0.0833306
0.0833341
0.0833388
0.0833443
0.0833501
0.0833558
0.0833609
0.0833648
0.0833672
0.0833686
0.0833697
0.0833709
0.0833726
0.0833743
0.0833748
0.0833733
0.0833704
0.0833668
0.0833628
0.0833586
0.0833543
0.0833499
0.0833453
0.0833403
0.0833354
0.0833309
0.0833272
0.0833246
0.0833231
0.0833224
0.0833279
0.0833289
0.0833311
0.0833349
0.08334
0.0833461
0.0833528
0.0833596
0.0833658
0.0833703
0.0833728
0.0833739
0.0833745
0.0833752
0.0833764
0.0833777
0.0833776
0.0833754
0.0833719
0.0833677
0.0833635
0.0833594
0.0833553
0.0833511
0.0833467
0.083342
0.0833371
0.0833324
0.0833284
0.0833255
0.0833239
0.0833232
0.0833283
0.0833293
0.0833316
0.0833356
0.0833412
0.0833481
0.083356
0.0833642
0.0833717
0.0833772
0.0833802
0.0833811
0.0833812
0.0833813
0.0833818
0.0833824
0.0833813
0.0833779
0.0833732
0.0833683
0.0833636
0.0833594
0.0833554
0.0833516
0.0833476
0.0833432
0.0833385
0.0833338
0.0833296
0.0833265
0.0833247
0.0833239
0.0833288
0.0833297
0.0833321
0.0833362
0.0833423
0.0833501
0.0833593
0.0833691
0.0833781
0.083385
0.0833887
0.0833898
0.0833895
0.0833889
0.0833887
0.0833882
0.0833857
0.0833805
0.083374
0.0833678
0.0833626
0.0833582
0.0833544
0.0833509
0.0833474
0.0833435
0.0833392
0.0833346
0.0833305
0.0833274
0.0833254
0.0833247
0.0833292
0.0833301
0.0833325
0.0833368
0.0833433
0.083352
0.0833625
0.0833739
0.0833847
0.083393
0.0833977
0.0833991
0.0833986
0.0833974
0.0833963
0.0833945
0.0833902
0.0833824
0.0833734
0.0833656
0.0833596
0.0833551
0.0833516
0.0833487
0.0833459
0.0833426
0.0833388
0.0833347
0.0833308
0.0833278
0.0833259
0.0833252
0.0833297
0.0833306
0.083333
0.0833374
0.0833443
0.0833538
0.0833656
0.0833787
0.0833911
0.0834008
0.0834064
0.0834081
0.0834074
0.0834058
0.0834038
0.0834007
0.0833942
0.083383
0.0833708
0.0833609
0.083354
0.0833496
0.0833467
0.0833446
0.0833426
0.0833403
0.0833373
0.0833338
0.0833304
0.0833277
0.083326
0.0833253
0.0833303
0.0833312
0.0833336
0.0833381
0.0833454
0.0833556
0.0833687
0.0833833
0.0833972
0.0834079
0.083414
0.0834159
0.0834151
0.0834132
0.0834107
0.0834066
0.0833977
0.0833823
0.0833658
0.0833533
0.0833456
0.0833414
0.0833394
0.0833385
0.0833377
0.0833366
0.0833346
0.083332
0.0833293
0.0833271
0.0833256
0.083325
0.0833311
0.0833321
0.0833345
0.0833391
0.0833467
0.0833578
0.083372
0.083388
0.083403
0.0834142
0.0834203
0.0834219
0.083421
0.0834193
0.0834172
0.0834129
0.083402
0.0833815
0.0833593
0.0833434
0.0833347
0.083331
0.0833301
0.0833306
0.0833313
0.0833315
0.0833308
0.0833292
0.0833274
0.0833257
0.0833245
0.0833239
0.0833324
0.0833333
0.0833358
0.0833406
0.0833487
0.0833605
0.0833759
0.0833929
0.0834085
0.0834195
0.0834248
0.0834259
0.0834252
0.0834246
0.083424
0.0834211
0.0834092
0.0833834
0.083354
0.0833331
0.0833229
0.0833196
0.0833198
0.0833218
0.0833241
0.0833258
0.0833264
0.083326
0.083325
0.0833239
0.0833229
0.0833224
0.0833345
0.0833355
0.083338
0.0833431
0.0833516
0.0833643
0.0833806
0.0833981
0.0834132
0.0834229
0.0834267
0.0834271
0.0834271
0.0834285
0.0834312
0.0834321
0.0834224
0.0833931
0.0833553
0.0833268
0.0833131
0.0833093
0.0833103
0.0833132
0.0833166
0.0833193
0.083321
0.0833215
0.0833212
0.0833205
0.0833197
0.0833192
0.0833379
0.0833389
0.0833415
0.0833468
0.0833559
0.0833692
0.0833857
0.0834027
0.083416
0.0834228
0.0834241
0.0834233
0.0834238
0.0834277
0.0834356
0.0834446
0.0834437
0.0834169
0.0833717
0.0833322
0.0833105
0.0833037
0.0833047
0.0833082
0.0833119
0.0833148
0.0833166
0.0833175
0.0833176
0.0833171
0.0833164
0.0833159
0.0833437
0.0833446
0.0833473
0.083353
0.0833623
0.0833756
0.0833911
0.0834053
0.0834142
0.083416
0.0834128
0.0834087
0.0834079
0.0834132
0.0834274
0.0834503
0.0834702
0.0834611
0.0834172
0.0833642
0.0833253
0.0833062
0.0833021
0.083305
0.0833096
0.083313
0.0833144
0.0833139
0.0833124
0.0833107
0.0833094
0.0833088
0.0833513
0.0833521
0.0833547
0.0833599
0.0833683
0.0833796
0.0833916
0.0834009
0.083404
0.083399
0.083388
0.0833758
0.0833677
0.0833689
0.0833858
0.0834239
0.0834781
0.0835166
0.0835076
0.08346
0.0834019
0.0833529
0.0833187
0.0832985
0.0832881
0.0832844
0.0832852
0.083289
0.0832946
0.0833008
0.0833059
0.0833088
0.0833575
0.0833582
0.0833603
0.0833643
0.0833707
0.0833786
0.0833863
0.0833906
0.0833878
0.0833757
0.0833552
0.0833305
0.0833077
0.083294
0.0832983
0.0833318
0.0834044
0.0835032
0.0835835
0.0836157
0.0836049
0.0835721
0.0835343
0.0835015
0.0834766
0.0834605
0.0834532
0.0834536
0.0834598
0.0834685
0.0834762
0.0834804
0.0833607
0.0833613
0.0833629
0.0833659
0.0833704
0.0833757
0.0833804
0.0833817
0.0833764
0.0833621
0.0833386
0.083309
0.0832789
0.0832546
0.0832423
0.0832485
0.0832834
0.0833589
0.083468
0.083581
0.0836686
0.0837225
0.0837493
0.0837589
0.0837592
0.0837546
0.0837478
0.083741
0.0837355
0.0837319
0.08373
0.0837295
0.0833616
0.0833621
0.0833634
0.0833656
0.0833688
0.0833726
0.0833755
0.0833755
0.0833701
0.0833567
0.0833348
0.0833064
0.0832766
0.0832517
0.0832377
0.0832389
0.0832582
0.0832993
0.0833652
0.0834548
0.0835568
0.0836544
0.0837361
0.0837982
0.0838415
0.0838682
0.0838814
0.0838845
0.0838814
0.083876
0.0838712
0.0838687
0.0833607
0.0833613
0.0833624
0.0833642
0.0833667
0.0833694
0.0833714
0.0833711
0.0833665
0.0833554
0.0833371
0.0833128
0.0832863
0.0832634
0.0832498
0.0832491
0.0832637
0.0832951
0.0833432
0.0834088
0.0834913
0.0835846
0.0836787
0.0837636
0.083833
0.0838841
0.0839176
0.083936
0.083943
0.0839433
0.0839408
0.0839389
0.0833586
0.0833592
0.0833604
0.083362
0.0833641
0.0833663
0.0833679
0.0833677
0.0833642
0.0833558
0.0833415
0.0833221
0.0833001
0.0832802
0.0832676
0.0832667
0.0832813
0.0833119
0.0833552
0.08341
0.0834776
0.0835583
0.0836483
0.0837391
0.0838214
0.0838882
0.0839364
0.0839665
0.0839818
0.083987
0.0839869
0.0839856
0.0833555
0.0833561
0.0833573
0.083359
0.083361
0.083363
0.0833644
0.0833645
0.083362
0.083356
0.0833455
0.0833308
0.0833137
0.0832976
0.0832876
0.0832893
0.0833078
0.083342
0.0833862
0.0834374
0.0834963
0.0835656
0.0836458
0.0837325
0.0838175
0.083892
0.0839498
0.0839891
0.0840114
0.084021
0.084023
0.0840222
0.0833525
0.083353
0.0833539
0.0833555
0.0833574
0.0833593
0.0833607
0.083361
0.0833595
0.0833554
0.0833483
0.0833381
0.0833263
0.0833156
0.0833111
0.0833192
0.083345
0.0833848
0.0834314
0.0834814
0.083535
0.0835952
0.0836648
0.0837426
0.0838233
0.0838988
0.0839616
0.0840072
0.0840353
0.0840489
0.0840529
0.0840528
0.0833535
0.0833532
0.083353
0.0833532
0.0833542
0.0833556
0.0833568
0.0833574
0.0833569
0.0833549
0.0833513
0.0833465
0.0833416
0.083339
0.0833435
0.0833615
0.0833963
0.0834417
0.0834899
0.0835383
0.0835872
0.0836395
0.0836987
0.083766
0.0838386
0.0839102
0.0839735
0.0840227
0.0840552
0.0840724
0.0840784
0.0840788
0.0833647
0.0833629
0.0833598
0.0833569
0.0833551
0.0833546
0.0833551
0.0833561
0.0833573
0.0833588
0.0833608
0.0833636
0.0833681
0.0833763
0.0833922
0.0834213
0.0834642
0.0835128
0.0835605
0.0836058
0.0836495
0.0836941
0.0837435
0.0837998
0.0838623
0.0839267
0.0839869
0.0840368
0.0840721
0.0840923
0.0841003
0.0841014
0.0833934
0.0833892
0.0833819
0.0833737
0.083367
0.0833633
0.0833627
0.0833651
0.0833701
0.0833778
0.0833882
0.0834011
0.0834167
0.0834364
0.0834632
0.083501
0.0835482
0.0835966
0.0836411
0.0836817
0.0837193
0.0837565
0.0837964
0.0838419
0.0838934
0.0839487
0.084003
0.0840508
0.084087
0.0841094
0.0841192
0.084121
0.0834447
0.083438
0.0834264
0.0834128
0.0834012
0.0833944
0.0833938
0.0833994
0.0834105
0.0834265
0.0834465
0.0834694
0.0834948
0.0835235
0.0835572
0.0835988
0.0836454
0.0836898
0.0837289
0.0837633
0.0837944
0.0838243
0.0838555
0.0838908
0.0839313
0.0839762
0.0840227
0.0840659
0.0841009
0.0841242
0.0841356
0.0841382
0.083521
0.0835125
0.083499
0.0834838
0.0834707
0.0834639
0.0834654
0.0834754
0.0834927
0.0835158
0.0835428
0.083572
0.0836025
0.0836347
0.0836696
0.0837091
0.0837506
0.0837882
0.0838203
0.0838479
0.0838724
0.0838953
0.0839188
0.0839449
0.083975
0.0840094
0.0840466
0.0840832
0.0841148
0.0841376
0.0841498
0.0841531
0.0836223
0.0836142
0.083604
0.0835936
0.0835848
0.0835816
0.0835864
0.0835994
0.0836195
0.0836448
0.083673
0.0837024
0.0837319
0.0837616
0.0837924
0.0838254
0.0838585
0.0838877
0.083912
0.0839327
0.0839508
0.0839674
0.0839841
0.0840023
0.0840233
0.0840477
0.0840751
0.0841035
0.0841298
0.0841503
0.0841622
0.0841661
0.0837492
0.0837448
0.0837434
0.0837424
0.0837411
0.0837424
0.0837489
0.0837614
0.0837792
0.0838007
0.0838241
0.0838479
0.0838713
0.0838941
0.0839171
0.0839409
0.0839643
0.0839845
0.0840012
0.0840152
0.0840273
0.0840384
0.0840493
0.0840609
0.0840743
0.0840899
0.0841079
0.0841275
0.0841468
0.084163
0.0841734
0.0841773
0.0839052
0.0839077
0.0839147
0.0839201
0.0839233
0.0839266
0.083932
0.0839404
0.0839519
0.0839656
0.0839803
0.0839951
0.0840094
0.0840232
0.0840368
0.0840508
0.0840643
0.0840759
0.0840853
0.0840933
0.0841001
0.0841063
0.0841123
0.0841186
0.0841258
0.0841341
0.0841439
0.0841549
0.0841662
0.0841765
0.0841839
0.084187
0.0840963
0.084099
0.0841035
0.0841068
0.0841089
0.0841105
0.0841125
0.0841154
0.0841192
0.0841238
0.0841287
0.0841336
0.0841383
0.0841428
0.0841472
0.0841517
0.0841561
0.0841598
0.0841628
0.0841653
0.0841675
0.0841695
0.0841713
0.0841733
0.0841755
0.0841781
0.0841811
0.0841845
0.0841881
0.0841915
0.0841942
0.0841955
)
;

boundaryField
{
    movingWall
    {
        type            fixedValue;
        value           uniform 0.0842;
    }
    fixedWalls
    {
        type            zeroGradient;
    }
    floor
    {
        type            zeroGradient;
    }
    frontAndBack
    {
        type            empty;
    }
}


// ************************************************************************* //
