/*--------------------------------*- C++ -*----------------------------------*\
| =========                 |                                                 |
| \\      /  F ield         | OpenFOAM: The Open Source CFD Toolbox           |
|  \\    /   O peration     | Version:  2206                                  |
|   \\  /    A nd           | Website:  www.openfoam.com                      |
|    \\/     M anipulation  |                                                 |
\*---------------------------------------------------------------------------*/
FoamFile
{
    version     2.0;
    format      ascii;
    arch        "LSB;label=64;scalar=64";
    class       volScalarField;
    location    "1.6/solid";
    object      T;
}
// * * * * * * * * * * * * * * * * * * * * * * * * * * * * * * * * * * * * * //

dimensions      [0 0 0 1 0 0 0];

internalField   nonuniform List<scalar> 
500
(
1100.73849033
1100.60411835
1100.3194946
1099.87557648
1099.26118743
1098.46671829
1097.48260616
1096.30448079
1094.93625215
1093.45745978
1102.02136709
1101.87864981
1101.58756645
1101.14183031
1100.53585201
1099.76596446
1098.83101078
1097.73530191
1096.49406172
1095.13398208
1103.24334215
1103.09743073
1102.80352175
1102.35889677
1101.76142131
1101.01032959
1100.10681219
1099.05510522
1097.86409053
1096.54229588
1104.37334532
1104.22683792
1103.93314972
1103.49141318
1102.90110568
1102.16246031
1101.27674942
1100.24678912
1099.07812883
1097.77420065
1105.39202115
1105.24609168
1104.95408482
1104.5158725
1103.93155298
1103.20161965
1102.32705102
1101.30968571
1100.15399707
1098.8631042
1106.29555355
1106.15062944
1105.86081133
1105.42622502
1104.84716668
1104.12415877
1103.25794431
1102.24982716
1101.10433603
1099.82757891
1107.08866222
1106.94489014
1106.65743096
1106.2264865
1105.65240293
1104.93568277
1104.07692523
1103.07708886
1101.94100354
1100.68159277
1107.78055138
1107.63801174
1107.35303318
1106.92583829
1106.35678428
1105.64636103
1104.7950937
1103.8036564
1102.67683569
1101.44016735
1108.38255057
1108.24133006
1107.95899572
1107.53577891
1106.97204558
1106.26829237
1105.4250204
1104.44265559
1103.32523428
1102.10638163
1108.90657661
1108.76678322
1108.48730871
1108.06839497
1107.51042419
1106.81391746
1105.97938448
1105.00702403
1103.89971704
1102.68928481
1109.36414315
1109.2259018
1108.94953924
1108.5353133
1107.98363234
1107.29505975
1106.47014786
1105.50891033
1104.41293808
1103.21100034
1109.76578002
1109.62922263
1109.35623828
1108.94710565
1108.40226697
1107.72234071
1106.90795001
1105.95897478
1104.87570039
1103.68321274
1110.12074938
1109.98600445
1109.71665683
1109.31300897
1108.77554105
1108.10493358
1107.30190233
1106.36624395
1105.29688781
1104.11506547
1110.43696404
1110.30414795
1110.03867024
1109.6408579
1109.11122951
1108.45052863
1107.6595761
1106.73813277
1105.68375386
1104.51242475
1110.72103227
1110.59024329
1110.32883128
1109.93714585
1109.41573994
1108.76541319
1107.98709131
1107.08054246
1106.04201147
1104.88266308
1110.97837312
1110.84968893
1110.59249636
1110.20716418
1109.69427335
1109.05466908
1108.2893763
1107.39821525
1106.37620566
1105.22859017
1111.21336183
1111.08683969
1110.83397914
1110.45516413
1109.95099724
1109.32236026
1108.57037747
1107.6949833
1106.69010078
1105.55543981
1111.4294779
1111.30515649
1111.05670349
1110.68451439
1110.18920771
1109.57169312
1108.83319059
1107.97380738
1106.98653492
1105.86477617
1111.62943981
1111.50734149
1111.26333919
1110.89783698
1110.41146457
1109.80515138
1109.08020664
1108.23696593
1107.26768978
1106.15974755
1111.81531889
1111.69545136
1111.45591376
1111.09711589
1110.61969395
1110.02458831
1109.31318803
1108.48610831
1107.53510014
1106.44073183
1111.98863054
1111.8709881
1111.63590236
1111.28378606
1110.81527726
1110.23131793
1109.53336298
1108.72234826
1107.78973499
1106.70953525
1112.15040327
1112.03496769
1111.8042959
1111.45880053
1110.99911652
1110.42617793
1109.74149067
1108.94635932
1108.03228283
1106.96622001
1112.30122603
1112.18796735
1111.96164799
1111.62267732
1111.17168198
1110.60957792
1109.93790222
1109.15835692
1108.26278038
1107.21133867
1112.44127532
1112.3301525
1112.10810209
1111.77552743
1111.3330427
1110.78153695
1110.12255595
1109.35821363
1108.4809972
1107.44353753
1112.57032291
1112.46128422
1112.243398
1111.91705903
1111.48286523
1110.94167096
1110.29500668
1109.54540191
1108.68638899
1107.66318276
1112.68772532
1112.58070875
1112.36686156
1112.04656779
1111.62040621
1111.08919057
1110.45441372
1109.71902182
1108.87808509
1107.86863622
1112.7923951
1112.68732887
1112.47737626
1112.16290893
1111.74448447
1111.22287172
1110.59950148
1109.87770402
1109.05465149
1108.0584843
1112.88275389
1112.77955675
1112.57333565
1112.26444882
1111.85343149
1111.34100458
1110.72850971
1110.01958683
1109.21418027
1108.2337994
1112.95666856
1112.85524993
1112.65257896
1112.3490001
1111.94502649
1111.44133175
1110.83914994
1110.14234058
1109.35418507
1108.39933189
1113.01137314
1112.91163297
1112.71231208
1112.41374139
1112.01641313
1111.52095613
1110.92848032
1110.24293065
1109.4710356
1108.54789676
1113.04338113
1112.94520948
1112.74901891
1112.45512709
1112.06400652
1111.57624486
1110.99281688
1110.3176006
1109.56055105
1108.67088854
1113.04839426
1112.9516713
1112.75837133
1112.46879863
1112.08340651
1111.60274521
1111.02764965
1110.36178472
1109.61800668
1108.76348352
1113.02121368
1112.92581071
1112.73514352
1112.44950204
1112.06931954
1111.59511218
1111.0275788
1110.37003521
1109.63762596
1108.82069141
1112.95565865
1112.86144082
1112.67313606
1112.39101833
1112.01549832
1111.54705841
1110.98626587
1110.33596468
1109.61256231
1108.83649345
1112.84449762
1112.75132829
1112.56511224
1112.28610619
1111.91469618
1111.45133142
1110.89645857
1110.2523804
1109.53527245
1108.79930218
1112.67939712
1112.58714286
1112.40274873
1112.12645404
1111.75861934
1111.29966176
1110.74991902
1110.11114262
1109.39812672
1108.67015076
1112.45089695
1112.35943209
1112.17660931
1111.90265176
1111.53789604
1111.0827313
1110.53740279
1109.90313594
1109.19320616
1108.46650681
1112.14842269
1112.05763239
1111.87615262
1111.60419298
1111.24206958
1110.79015016
1110.24860705
1109.61816939
1108.91053133
1108.18396201
1111.76034849
1111.67012963
1111.48978854
1111.21952488
1110.85963921
1110.41048587
1109.87218513
1109.24499888
1108.53896091
1107.81102147
1111.27412236
1111.18438209
1111.00499638
1110.73615954
1110.3781629
1109.93135716
1109.39583462
1108.77142675
1108.06643441
1107.33653109
1110.67646336
1110.58711505
1110.4085143
1110.14085574
1109.7844294
1109.33959382
1108.80643973
1108.18440794
1107.47996511
1106.7468416
1109.95363619
1109.86459247
1109.68660536
1109.41987654
1109.06470431
1108.62146837
1108.09028701
1107.47025661
1106.76589705
1106.0289336
1109.0918043
1109.00296727
1108.82540195
1108.55932509
1108.2050551
1107.76300975
1107.23336964
1106.61494446
1105.91017933
1105.16807237
1108.07745773
1107.98870649
1107.81132528
1107.54555474
1107.19174736
1106.75038008
1106.22174014
1105.60443248
1104.89869387
1104.1503293
1106.89790648
1106.80908312
1106.63157364
1106.36565002
1106.01171197
1105.57031807
1105.04191644
1104.42502498
1103.71755483
1102.96107988
1105.5418242
1105.45272218
1105.27467266
1105.00798087
1104.65309682
1104.2106716
1103.68136752
1103.0637842
1102.35346921
1101.58673437
1103.99982524
1103.91018606
1103.73108194
1103.4628441
1103.10594802
1102.6610962
1102.12914954
1101.50892472
1100.79359777
1100.01257609
1102.26507649
1102.17459007
1101.99384673
1101.72320325
1101.36309253
1100.91411066
1100.37708073
1099.75086616
1099.02603472
1098.22337802
1100.33397563
1100.24220157
1100.05919401
1099.78540355
1099.42112834
1098.96655324
1098.42182193
1097.78479467
1097.04153697
1096.19817308
1098.20687931
1098.11258318
1097.92653006
1097.64925105
1097.28084064
1096.82082494
1096.26784814
1095.61685332
1094.84410284
1093.90854578
)
;

boundaryField
{
    symmetric
    {
        type            symmetry;
    }
    emptyPatch
    {
        type            empty;
    }
    solid_to_water
    {
        type            compressible::turbulentTemperatureTwoPhaseRadCoupledMixed;
        refValue        nonuniform List<scalar> 
70
(
359.674734627
358.899123673
358.371770934
357.54752361
357.048116688
356.422933821
355.979698289
355.386963917
347.2797484
338.750407961
337.717814069
337.402617594
336.851492202
336.310001431
335.965108916
336.034266142
337.171747343
341.032392047
352.347915667
355.078008493
359.286217172
358.391131479
362.698002414
359.859607135
364.496830033
360.995306864
365.023672234
361.654446351
365.796583567
362.360633082
365.830040466
362.691409992
364.703286299
362.621243141
363.498429169
361.832527084
359.601969462
349.196435122
341.939058119
338.702743233
336.95841057
336.266615569
336.533695133
339.353558642
367.029317171
421.494264893
430.726368326
447.329597422
443.813354932
454.8693349
448.052401364
455.856516375
449.566865271
454.745200725
450.132607191
452.887362214
450.145840447
450.57995769
448.31812738
334.181803152
334.29427892
334.35854279
334.422537899
334.489185205
334.561852909
334.660810293
334.868994442
335.572570036
407.009383514
338.167529082
)
;
        refGradient     uniform 0;
        valueFraction   nonuniform List<scalar> 
70
(
0.000875028528385
0.000877408748514
0.000874108739057
0.000878756846054
0.000877331821297
0.000880029528777
0.000879222282466
0.000881083181909
0.00108113849793
0.00144488520747
0.00097918214945
0.000975219642963
0.000970324241436
0.000964433465579
0.000960479148239
0.000963018176824
0.000979943480527
0.000965471216101
0.000779601444714
0.000784142645309
0.000750792000694
0.000780476682873
0.00073641980426
0.0007802699593
0.000729624446464
0.000776473547762
0.000732745424094
0.000776752038239
0.000732464136995
0.000775020696242
0.000737684918181
0.000775244199587
0.000752891290992
0.000777426097973
0.000766177370202
0.000780326129766
0.000784478365233
0.000892507135819
0.000981873723035
0.000990961751809
0.000976407173426
0.000968883545428
0.000973224169278
0.000993089893312
0.000686653545207
0.000469584226257
0.000487752887285
0.000464744841611
0.000487668430035
0.00046593099754
0.000487514110871
0.000469794067361
0.000487281606383
0.000474764226433
0.000486957683906
0.00047979313231
0.000486528600233
0.00048479862862
0.000489015851994
0.00151661187412
0.00152310737981
0.00152608383082
0.00152882411185
0.00153132745151
0.00153368029686
0.00153667128307
0.00154238811271
0.00153875122478
0.000604671238901
0.00140922633003
)
;
        source          uniform 0;
        value           nonuniform List<scalar> 
70
(
1100.09130082
1099.95478928
1099.67248943
1099.22492084
1098.61174166
1097.81543612
1096.83226698
1095.65297308
1094.12912807
1092.36868689
1092.71914596
1094.39698775
1095.80711717
1097.041787
1098.13235092
1099.09415834
1099.9358582
1100.70841885
1101.52169585
1102.10291147
1102.65186472
1103.10140074
1103.56837345
1103.93140108
1104.34182625
1104.65084994
1105.01242978
1105.28706817
1105.6172933
1105.86462864
1106.16315646
1106.39005935
1106.65295659
1106.86562649
1107.09412752
1107.28793782
1107.47299643
1107.5597738
1107.651799
1107.7905462
1107.92306875
1108.0209531
1108.07542917
1108.07930922
1108.292828
1108.34696472
1108.13560698
1107.87611843
1107.48682264
1107.0318075
1106.42532402
1105.72282236
1104.84819948
1103.84139485
1102.64270536
1101.2748539
1099.69576924
1097.90860755
1095.88033356
1097.04963672
1096.95069241
1096.76274548
1096.48389381
1096.1142378
1095.65324497
1095.09901682
1094.44518145
1093.67770877
1093.49171629
1092.84205551
)
;
        kappaMethod     solidThermo;
        Tnbr            T.liquid;
        region          solid;
        otherPhase      gas;
    }
}


// ************************************************************************* //
