/*--------------------------------*- C++ -*----------------------------------*\
| =========                 |                                                 |
| \\      /  F ield         | OpenFOAM: The Open Source CFD Toolbox           |
|  \\    /   O peration     | Version:  2212                                  |
|   \\  /    A nd           | Website:  www.openfoam.com                      |
|    \\/     M anipulation  |                                                 |
\*---------------------------------------------------------------------------*/
FoamFile
{
    version     2.0;
    format      ascii;
    arch        "LSB;label=64;scalar=64";
    class       volScalarField;
    location    "0.48";
    object      alpha.air;
}
// * * * * * * * * * * * * * * * * * * * * * * * * * * * * * * * * * * * * * //

dimensions      [0 0 0 0 0 0 0];

internalField   nonuniform List<scalar> 
32768
(
6.95221e-119
9.26822e-116
3.27202e-113
5.82919e-111
6.76613e-109
5.81988e-107
3.97807e-105
2.24657e-103
1.07175e-101
4.37639e-100
1.54228e-98
4.71551e-97
1.25501e-95
2.91239e-94
5.89475e-93
1.03949e-91
1.59306e-90
2.11335e-89
2.41302e-88
2.35311e-87
1.93986e-86
1.33393e-85
7.51795e-85
3.39142e-84
1.18491e-83
3.06344e-83
5.51176e-83
6.27041e-83
3.793e-83
8.74426e-84
6.89925e-85
3.94818e-86
3.40002e-86
2.80548e-85
1.9795e-84
8.28488e-85
1.65281e-85
2.56425e-86
3.54181e-87
4.53614e-88
5.48671e-89
6.34505e-90
7.12894e-91
7.90137e-92
8.82435e-93
1.01662e-93
1.25468e-94
1.80399e-95
3.75127e-96
1.82451e-96
2.61663e-96
8.11457e-96
4.24301e-95
3.07852e-94
2.5824e-93
2.14602e-92
1.68092e-91
4.79131e-90
7.42802e-88
9.81508e-86
7.24353e-84
7.36346e-83
4.19546e-82
8.65675e-82
1.2293e-81
8.0234e-82
2.08938e-82
5.05923e-83
1.56528e-84
2.01049e-86
2.22405e-88
2.62607e-89
1.27698e-89
4.99413e-90
1.85989e-90
7.11744e-91
3.01732e-91
1.48659e-91
8.92453e-92
6.76593e-92
6.98175e-92
1.15171e-91
3.53424e-91
1.77131e-90
1.15753e-89
8.70438e-89
7.12477e-88
6.20394e-87
5.71237e-86
5.57756e-85
5.67394e-84
5.4834e-83
4.19355e-82
1.90625e-81
2.36471e-81
7.84554e-83
5.83918e-84
5.68308e-83
3.22882e-82
7.06831e-82
7.87474e-82
5.30534e-82
2.40224e-82
7.87888e-83
1.97043e-83
3.89757e-84
6.26376e-85
8.34458e-86
9.35861e-87
8.94202e-88
7.34606e-89
5.22487e-90
3.2336e-91
1.74732e-92
8.26013e-94
3.41836e-95
1.23765e-96
3.91273e-98
1.07639e-99
2.56296e-101
5.23849e-103
9.07067e-105
1.30127e-106
1.48719e-108
1.26183e-110
6.97892e-113
1.9437e-115
1.4214e-118
7.26099e-115
7.55149e-112
2.28415e-109
3.6404e-107
3.90869e-105
3.20867e-103
2.15755e-101
1.23355e-99
6.11605e-98
2.65654e-96
1.01608e-94
3.43064e-93
1.02342e-91
2.69695e-90
6.27072e-89
1.2836e-87
2.30547e-86
3.61634e-85
4.92286e-84
5.76826e-83
5.75705e-82
4.82869e-81
3.34591e-80
1.87394e-79
8.23328e-79
2.71852e-78
6.36239e-78
9.74619e-78
8.71971e-78
3.93616e-78
7.57122e-79
6.709e-80
6.16775e-81
1.38875e-80
1.94908e-80
4.28494e-81
6.26733e-82
8.10157e-83
9.98216e-84
1.18884e-84
1.37642e-85
1.56012e-86
1.75447e-87
1.98391e-88
2.30149e-89
2.80654e-90
3.76334e-91
6.16429e-92
1.59333e-92
9.9906e-93
1.62498e-92
5.2172e-92
2.7309e-91
1.94706e-90
1.58751e-89
1.27443e-88
9.40373e-88
2.28503e-86
3.59602e-84
4.89797e-82
3.66167e-80
3.66237e-79
2.01089e-78
4.06521e-78
5.76134e-78
3.8099e-78
1.02979e-78
2.53442e-79
7.8253e-81
1.00148e-82
1.1164e-84
1.40607e-85
7.05481e-86
2.82397e-86
1.07474e-86
4.19048e-87
1.80219e-87
8.9695e-88
5.41077e-88
4.08481e-88
4.09591e-88
6.16379e-88
1.62051e-87
7.03656e-87
4.15352e-86
2.91376e-85
2.28041e-84
1.94348e-83
1.79799e-82
1.82474e-81
2.02566e-80
2.2883e-79
2.25878e-78
1.59522e-77
6.07016e-77
3.30841e-77
8.81955e-78
4.31703e-77
1.15286e-76
1.55701e-76
1.20585e-76
6.00088e-77
2.08315e-77
5.3538e-78
1.06466e-78
1.69374e-79
2.21125e-80
2.41622e-81
2.24373e-82
1.79181e-83
1.24191e-84
7.5237e-86
4.00549e-87
1.88146e-88
7.81929e-90
2.88031e-91
9.41154e-93
2.72756e-94
7.00248e-96
1.58818e-97
3.16492e-99
5.48409e-101
8.09802e-103
9.81013e-105
9.09047e-107
5.66796e-109
1.85524e-111
1.75346e-114
2.46304e-112
2.56636e-109
7.79938e-107
1.25139e-104
1.35825e-102
1.13589e-100
7.8732e-99
4.71069e-97
2.48564e-95
1.16832e-93
4.90951e-92
1.84519e-90
6.1954e-89
1.85487e-87
4.93995e-86
1.16662e-84
2.43275e-83
4.45538e-82
7.11952e-81
9.84553e-80
1.16604e-78
1.16701e-77
9.70228e-77
6.55452e-76
3.49443e-75
1.41354e-74
4.11276e-74
7.99682e-74
9.37615e-74
5.77035e-74
1.6253e-74
2.58113e-75
7.7004e-76
3.02202e-76
7.31564e-77
9.7304e-78
1.10055e-78
1.22201e-79
1.36967e-80
1.53687e-81
1.71982e-82
1.9253e-83
2.1791e-84
2.52176e-85
3.04277e-86
3.9313e-87
5.74618e-88
1.08044e-88
3.46258e-89
2.67003e-89
4.76019e-89
1.5679e-88
8.1901e-88
5.72991e-87
4.53872e-86
3.52028e-85
2.44152e-84
4.75901e-83
7.70468e-81
1.11206e-78
8.59266e-77
8.46138e-76
4.47665e-75
8.86269e-75
1.25322e-74
8.38985e-75
2.35562e-75
5.8954e-76
1.81877e-77
2.32608e-79
2.61019e-81
3.48383e-82
1.80085e-82
7.37002e-83
2.86295e-83
1.13603e-83
4.95037e-84
2.48577e-84
1.50518e-84
1.13194e-84
1.11063e-84
1.56139e-84
3.61842e-84
1.37517e-83
7.32977e-83
4.77805e-82
3.55063e-81
2.92857e-80
2.67462e-79
2.7483e-78
3.20927e-77
4.0315e-76
4.75452e-75
4.44739e-74
2.80913e-73
9.79269e-73
1.13678e-72
7.48942e-73
1.31276e-72
1.30582e-72
7.79272e-73
3.06264e-73
8.52381e-74
1.77673e-74
2.89462e-75
3.80387e-76
4.13168e-77
3.78253e-78
2.96229e-79
2.00814e-80
1.1891e-81
6.19382e-83
2.85377e-84
1.16816e-85
4.26252e-87
1.3903e-88
4.06266e-90
1.06523e-91
2.50777e-93
5.29699e-95
1.00028e-96
1.67239e-98
2.42311e-100
2.91932e-102
2.71488e-104
1.70719e-106
5.64707e-109
5.40262e-112
1.1298e-109
1.18775e-106
3.63196e-104
5.85827e-102
6.39034e-100
5.37158e-98
3.74671e-96
2.26336e-94
1.21299e-92
5.83571e-91
2.53033e-89
9.88612e-88
3.47267e-86
1.09338e-84
3.07658e-83
7.70858e-82
1.71233e-80
3.35574e-79
5.76418e-78
8.6095e-77
1.1073e-75
1.21136e-74
1.11029e-73
8.35933e-73
5.03412e-72
2.33932e-71
8.0086e-71
1.90043e-70
2.87837e-70
2.53762e-70
1.22352e-70
3.2159e-71
6.06084e-72
1.20019e-72
1.45759e-73
1.42679e-74
1.35893e-75
1.36316e-76
1.43698e-77
1.55527e-78
1.7131e-79
1.9216e-80
2.2127e-81
2.64099e-82
3.33516e-83
4.59519e-84
7.38883e-85
1.61393e-85
6.3774e-86
5.82692e-86
1.11712e-85
3.76363e-85
1.96203e-84
1.34651e-83
1.03502e-82
7.74636e-82
5.12391e-81
8.74209e-80
1.40427e-77
2.05915e-75
1.60014e-73
1.54721e-72
7.87238e-72
1.52494e-71
2.15057e-71
1.45627e-71
4.24849e-72
1.08211e-72
3.3814e-74
4.48934e-76
5.16115e-78
6.80482e-79
3.59765e-79
1.50332e-79
5.94945e-80
2.39711e-80
1.0555e-80
5.33031e-81
3.2286e-81
2.41165e-81
2.31738e-81
3.07941e-81
6.40436e-81
2.1422e-80
1.02554e-79
6.15055e-79
4.28137e-78
3.35714e-77
2.95393e-76
2.97136e-75
3.48668e-74
4.5915e-73
5.96975e-72
6.48986e-71
5.09469e-70
2.52591e-69
6.79138e-69
8.80086e-69
5.36064e-69
2.77784e-69
1.35442e-69
4.55015e-70
1.11039e-70
2.06105e-71
3.02192e-72
3.6047e-73
3.58167e-74
3.01859e-75
2.18895e-76
1.38093e-77
7.64184e-79
3.73466e-80
1.62111e-81
6.27864e-83
2.17828e-84
6.79364e-86
1.9099e-87
4.848e-89
1.11276e-90
2.30924e-92
4.31438e-94
7.17199e-96
1.03549e-97
1.24335e-99
1.15168e-101
7.20869e-104
2.37132e-106
2.24952e-109
6.15217e-107
6.34676e-104
1.9152e-101
3.05835e-99
3.3085e-97
2.75916e-95
1.90836e-93
1.14237e-91
6.06912e-90
2.90022e-88
1.25294e-86
4.89465e-85
1.72501e-83
5.46945e-82
1.55562e-80
3.95442e-79
8.9503e-78
1.79454e-76
3.16907e-75
4.89162e-74
6.54169e-73
7.48962e-72
7.23579e-71
5.79639e-70
3.76066e-69
1.91432e-68
7.33132e-68
2.00453e-67
3.62947e-67
3.91686e-67
2.25281e-67
6.98353e-68
1.47572e-68
1.89784e-69
1.80312e-70
1.52035e-71
1.33035e-72
1.27503e-73
1.31384e-74
1.41053e-75
1.56353e-76
1.78775e-77
2.12147e-78
2.6379e-79
3.51864e-80
5.2214e-81
9.35182e-82
2.40141e-82
1.15683e-82
1.21533e-82
2.47564e-82
8.51929e-82
4.43434e-81
2.98573e-80
2.22635e-79
1.60689e-78
1.02058e-77
1.63071e-76
2.54666e-74
3.67038e-72
2.80595e-70
2.65755e-69
1.29792e-68
2.45747e-68
3.4543e-68
2.36309e-68
7.16362e-69
1.85722e-69
5.86576e-71
8.09114e-73
9.60296e-75
1.23334e-75
6.64064e-76
2.82543e-76
1.13557e-76
4.6295e-77
2.05161e-77
1.03727e-77
6.2536e-78
4.61732e-78
4.33372e-78
5.46994e-78
1.03285e-77
3.05292e-77
1.30425e-76
7.11279e-76
4.56662e-75
3.33874e-74
2.76075e-73
2.63018e-72
2.96724e-71
3.87619e-70
5.19853e-69
6.01744e-68
5.12524e-67
2.79546e-66
8.39145e-66
1.27908e-65
1.0487e-65
5.12547e-66
1.63358e-66
3.79845e-67
7.7666e-68
1.31373e-68
1.78956e-69
2.01083e-70
1.90093e-71
1.53829e-72
1.07947e-73
6.62853e-75
3.58729e-76
1.72219e-77
7.36931e-79
2.82459e-80
9.73072e-82
3.02338e-83
8.49651e-85
2.1636e-86
4.99915e-88
1.04763e-89
1.98131e-91
3.33804e-93
4.88535e-95
5.94668e-97
5.58732e-99
3.5528e-101
1.19058e-103
1.15646e-106
2.71789e-104
2.74452e-101
8.13349e-99
1.27787e-96
1.361e-94
1.11723e-92
7.59967e-91
4.46972e-89
2.33199e-87
1.09505e-85
4.65691e-84
1.79534e-82
6.26215e-81
1.97097e-79
5.58203e-78
1.41775e-76
3.21766e-75
6.4938e-74
1.15911e-72
1.81834e-71
2.48617e-70
2.93057e-69
2.9387e-68
2.46507e-67
1.69112e-66
9.21376e-66
3.82787e-65
1.15147e-64
2.3382e-64
2.96491e-64
2.09585e-64
8.09587e-65
1.5611e-65
1.79807e-66
1.57187e-67
1.26004e-68
1.08403e-69
1.04145e-70
1.08576e-71
1.1879e-72
1.35389e-73
1.60427e-74
1.98725e-75
2.60284e-76
3.70739e-77
5.9963e-78
1.21286e-78
3.69356e-79
2.13432e-79
2.51803e-79
5.40743e-79
1.89912e-78
9.87396e-78
6.52549e-77
4.72194e-76
3.2875e-75
2.00986e-74
3.09e-73
4.6627e-71
6.51857e-69
4.85672e-67
4.49678e-66
2.10452e-65
3.89091e-65
5.44748e-65
3.75915e-65
1.18403e-65
3.12494e-66
9.95228e-68
1.42409e-69
1.74246e-71
2.16874e-72
1.18468e-72
5.11388e-73
2.07897e-73
8.53918e-74
3.79085e-74
1.90895e-74
1.13914e-74
8.26668e-75
7.54568e-75
9.0543e-75
1.563e-74
4.09349e-74
1.55026e-73
7.59721e-73
4.42969e-72
2.96248e-71
2.2482e-70
1.9676e-69
2.05118e-68
2.53968e-67
3.35521e-66
3.93592e-65
3.41234e-64
1.87071e-63
5.49544e-63
8.13974e-63
6.58045e-63
3.24258e-63
1.06819e-63
2.52377e-64
4.5097e-65
6.35164e-66
7.48476e-67
7.72888e-68
6.90575e-69
5.40567e-70
3.71425e-71
2.24819e-72
1.20558e-73
5.76053e-75
2.46365e-76
9.47008e-78
3.2818e-79
1.0284e-80
2.92182e-82
7.53729e-84
1.76779e-85
3.76631e-87
7.24586e-89
1.24182e-90
1.849e-92
2.29085e-94
2.19294e-96
1.42294e-98
4.87829e-101
4.86729e-104
9.06797e-102
8.93035e-99
2.58695e-96
3.97893e-94
4.15247e-92
3.34176e-90
2.22889e-88
1.28521e-86
6.57258e-85
3.02617e-83
1.26334e-81
4.79009e-80
1.64708e-78
5.12367e-77
1.43828e-75
3.63274e-74
8.22621e-73
1.66284e-71
2.98478e-70
4.72937e-69
6.56007e-68
7.88712e-67
8.11886e-66
7.04261e-65
5.04225e-64
2.90146e-63
1.29782e-62
4.30314e-62
9.89283e-62
1.47179e-61
1.2635e-61
5.28124e-62
1.05238e-62
1.20746e-63
1.0506e-64
8.51827e-66
7.55738e-67
7.54975e-68
8.18886e-69
9.34173e-70
1.11516e-70
1.38935e-71
1.81837e-72
2.53786e-73
3.90533e-74
6.97274e-75
1.61418e-75
5.85143e-76
3.98021e-76
5.17997e-76
1.1667e-75
4.17977e-75
2.17148e-74
1.40923e-73
9.90162e-73
6.6534e-72
3.91943e-71
5.84636e-70
8.51462e-68
1.15027e-65
8.32576e-64
7.52097e-63
3.36764e-62
6.07388e-62
8.46476e-62
5.88235e-62
1.92492e-62
5.17369e-63
1.6578e-64
2.4571e-66
3.09527e-68
3.71291e-69
2.04935e-69
8.94194e-70
3.66207e-70
1.50888e-70
6.6788e-71
3.33258e-71
1.95747e-71
1.38832e-71
1.22658e-71
1.39825e-71
2.21828e-71
5.17026e-71
1.73066e-70
7.56249e-70
3.96181e-69
2.391e-68
1.63847e-67
1.29108e-66
1.21029e-65
1.36979e-64
1.71517e-63
1.96588e-62
1.6678e-61
8.76822e-61
2.38864e-60
3.25739e-60
2.45559e-60
1.14779e-60
3.64612e-61
8.43409e-62
1.49572e-62
2.11464e-63
2.45535e-64
2.39604e-65
2.00251e-66
1.47311e-67
9.66966e-69
5.69958e-70
3.00427e-71
1.41999e-72
6.05352e-74
2.33556e-75
8.1617e-77
2.58777e-78
7.4588e-80
1.95646e-81
4.6743e-83
1.01554e-84
1.99307e-86
3.48406e-88
5.29151e-90
6.69119e-92
6.54437e-94
4.34563e-96
1.52804e-98
1.5686e-101
2.37049e-99
2.26564e-96
6.38282e-94
9.56392e-92
9.73652e-90
7.65192e-88
4.98816e-86
2.81239e-84
1.4066e-82
6.33642e-81
2.5907e-79
9.63612e-78
3.25783e-76
9.98836e-75
2.7706e-73
6.93393e-72
1.56078e-70
3.14774e-69
5.65973e-68
9.02223e-67
1.26605e-65
1.55022e-64
1.63756e-63
1.47114e-62
1.1025e-61
6.71929e-61
3.22223e-60
1.16483e-59
3.04421e-59
5.14275e-59
4.95919e-59
2.35522e-59
5.15584e-60
6.21363e-61
5.64236e-62
4.82998e-63
4.57676e-64
4.89127e-65
5.64401e-66
6.8433e-67
8.6881e-68
1.1525e-68
1.61232e-69
2.42619e-70
4.08151e-71
8.1475e-72
2.18371e-72
9.40371e-73
7.3879e-73
1.0467e-72
2.46408e-72
9.00163e-72
4.67391e-71
2.97937e-70
2.03361e-69
1.31945e-68
7.49285e-68
1.08735e-66
1.52857e-64
1.99316e-62
1.39963e-60
1.23059e-59
5.26363e-59
9.25288e-59
1.28297e-58
8.96227e-59
3.04692e-59
8.34682e-60
2.68584e-61
4.11812e-63
5.33545e-65
6.13341e-66
3.40693e-66
1.4974e-66
6.15417e-67
2.53344e-67
1.11328e-67
5.47848e-68
3.15137e-68
2.17304e-68
1.84977e-68
2.00016e-68
2.92683e-68
6.09969e-68
1.80351e-67
6.99278e-67
3.26804e-66
1.76307e-65
1.07863e-64
7.55016e-64
6.25438e-63
6.30347e-62
7.25034e-61
7.88643e-60
6.35886e-59
3.10338e-58
7.59875e-58
9.31575e-58
6.42112e-58
2.79601e-58
8.41464e-59
1.87035e-59
3.22734e-60
4.48882e-61
5.179e-62
5.06308e-63
4.26228e-64
3.12663e-65
2.01674e-66
1.15474e-67
5.95104e-69
2.77304e-70
1.17573e-71
4.53176e-73
1.58778e-74
5.06406e-76
1.47293e-77
3.91532e-79
9.51564e-81
2.10845e-82
4.22624e-84
7.55161e-86
1.17326e-87
1.51921e-89
1.5235e-91
1.03901e-93
3.7609e-96
3.98604e-99
5.05409e-97
4.66198e-94
1.27064e-91
1.84584e-89
1.82504e-87
1.39511e-85
8.8563e-84
4.86575e-82
2.37195e-80
1.04191e-78
4.15981e-77
1.51434e-75
5.02448e-74
1.51622e-72
4.15246e-71
1.02962e-69
2.30416e-68
4.63843e-67
8.36424e-66
1.34335e-64
1.90946e-63
2.38182e-62
2.57791e-61
2.38906e-60
1.86321e-59
1.19561e-58
6.18639e-58
2.44255e-57
6.91984e-57
1.29394e-56
1.41907e-56
7.82446e-57
1.94985e-57
2.55222e-58
2.50041e-59
2.33384e-60
2.429e-61
2.84044e-62
3.54988e-63
4.64732e-64
6.35537e-65
9.08061e-66
1.37358e-66
2.25472e-67
4.19432e-68
9.47616e-69
2.96549e-69
1.50643e-69
1.34317e-69
2.05167e-69
5.03617e-69
1.87523e-68
9.73035e-68
6.09223e-67
4.04048e-66
2.53177e-65
1.3861e-64
1.95995e-63
2.65978e-61
3.34494e-59
2.27644e-57
1.94224e-56
7.92319e-56
1.35643e-55
1.87061e-55
1.31104e-55
4.63087e-56
1.29482e-56
4.1782e-58
6.62167e-60
8.81797e-62
9.65856e-63
5.37847e-63
2.37384e-63
9.75805e-64
3.99916e-64
1.73814e-64
8.40071e-65
4.71135e-65
3.14407e-65
2.56782e-65
2.62865e-65
3.55628e-65
6.65706e-65
1.74015e-64
5.9693e-64
2.47722e-63
1.18709e-62
6.4317e-62
3.96076e-61
2.8659e-60
2.52616e-59
2.60359e-58
2.61806e-57
1.95635e-56
8.63861e-56
1.86388e-55
2.02952e-55
1.26833e-55
5.10956e-56
1.44745e-56
3.07315e-57
5.12816e-58
6.97141e-59
7.93046e-60
7.70258e-61
6.48363e-62
4.78349e-63
3.12001e-64
1.81084e-65
9.39749e-67
4.37879e-68
1.84589e-69
7.08897e-71
2.48668e-72
7.99679e-74
2.35729e-75
6.36228e-77
1.56968e-78
3.53254e-80
7.20814e-82
1.31518e-83
2.09261e-85
2.78195e-87
2.87062e-89
2.01903e-91
7.55709e-94
8.30895e-97
9.05353e-95
8.02013e-92
2.10488e-89
2.9511e-87
2.82145e-85
2.08896e-83
1.28626e-81
6.86267e-80
3.25241e-78
1.39128e-76
5.42239e-75
1.93215e-73
6.29344e-72
1.87047e-70
5.06096e-69
1.24344e-67
2.76652e-66
5.55474e-65
1.00213e-63
1.61708e-62
2.32025e-61
2.93753e-60
3.24965e-59
3.10957e-58
2.53717e-57
1.71499e-56
9.32351e-56
3.91746e-55
1.20324e-54
2.49702e-54
3.12664e-54
2.0234e-54
5.88398e-55
8.56496e-56
9.28996e-57
9.71243e-58
1.13615e-58
1.4794e-59
2.03214e-60
2.90927e-61
4.33459e-62
6.74586e-63
1.1158e-63
2.02037e-64
4.20204e-65
1.08644e-65
3.98779e-66
2.36426e-66
2.3565e-66
3.85352e-66
9.84466e-66
3.73386e-65
1.93528e-64
1.18963e-63
7.66526e-63
4.63775e-62
2.44728e-61
3.3765e-60
4.42257e-58
5.35896e-56
3.5307e-54
2.91228e-53
1.1312e-52
1.88469e-52
2.58468e-52
1.8138e-52
6.65692e-53
1.90378e-53
6.15592e-55
1.00808e-56
1.3797e-58
1.43157e-59
7.96196e-60
3.51981e-60
1.44303e-60
5.87024e-61
2.51559e-61
1.18999e-61
6.48226e-62
4.17022e-62
3.25569e-62
3.1489e-62
3.94471e-62
6.65985e-62
1.54202e-61
4.67294e-61
1.71718e-60
7.2812e-60
3.47551e-59
1.87041e-58
1.17135e-57
8.89773e-57
8.03393e-56
7.29546e-55
4.95014e-54
1.93803e-53
3.63648e-53
3.49514e-53
1.97345e-53
7.3374e-54
1.95266e-54
3.95286e-55
6.36723e-56
8.4397e-57
9.44132e-58
9.08314e-59
7.62045e-60
5.63446e-61
3.70082e-62
2.17219e-63
1.14464e-64
5.43718e-66
2.33505e-67
9.08899e-69
3.21731e-70
1.04371e-71
3.10417e-73
8.48596e-75
2.13111e-76
4.88958e-78
1.01784e-79
1.89845e-81
3.0976e-83
4.23694e-85
4.51203e-87
3.28461e-89
1.2764e-91
1.46225e-94
1.38755e-92
1.17552e-89
2.95918e-87
3.98937e-85
3.67518e-83
2.62705e-81
1.56474e-79
8.09275e-78
3.72714e-76
1.55355e-74
5.91353e-73
2.06228e-71
6.58898e-70
1.92548e-68
5.13558e-67
1.24745e-65
2.7521e-64
5.49903e-63
9.91268e-62
1.6053e-60
2.3272e-59
3.00235e-58
3.39862e-57
3.33537e-56
2.7942e-55
1.95785e-54
1.11656e-53
4.99217e-53
1.6616e-52
3.82481e-52
5.47174e-52
4.17703e-52
1.44374e-52
2.38195e-53
2.92477e-54
3.50724e-55
4.69992e-56
6.9043e-57
1.05529e-57
1.67015e-58
2.74006e-59
4.69577e-60
8.58451e-61
1.73243e-61
4.07079e-62
1.21588e-62
5.23499e-63
3.57694e-63
3.93606e-63
6.85439e-63
1.81946e-62
7.02252e-62
3.63229e-61
2.19015e-60
1.37023e-59
8.00008e-59
4.06649e-58
5.48174e-57
6.92603e-55
8.07561e-53
5.14418e-51
4.08323e-50
1.50759e-49
2.44309e-49
3.33204e-49
2.33601e-49
8.9095e-50
2.61363e-50
8.46961e-52
1.43363e-53
2.01777e-55
1.97147e-56
1.09121e-56
4.82229e-57
1.96734e-57
7.9254e-58
3.3406e-58
1.54242e-58
8.13611e-59
5.02962e-59
3.7418e-59
3.4129e-59
3.96268e-59
6.05629e-59
1.24529e-58
3.33245e-58
1.08243e-57
4.05054e-57
1.69688e-56
7.93679e-56
4.26545e-55
2.75783e-54
2.14105e-53
1.72057e-52
1.04275e-51
3.55945e-51
5.75839e-51
4.87091e-51
2.48262e-51
8.51768e-52
2.12992e-52
4.1111e-53
6.39015e-54
8.25609e-55
9.07807e-56
8.64448e-57
7.22177e-58
5.34476e-59
3.52977e-60
2.09176e-61
1.11711e-62
5.39684e-64
2.36512e-65
9.42575e-67
3.42206e-68
1.13263e-69
3.42413e-71
9.50589e-73
2.42461e-74
5.67353e-76
1.20778e-77
2.3091e-79
3.87395e-81
5.46737e-83
6.02755e-85
4.55683e-87
1.84514e-89
2.21094e-92
1.8463e-90
1.49024e-87
3.58555e-85
4.63251e-83
4.09972e-81
2.82207e-79
1.6232e-77
8.13269e-76
3.63951e-74
1.47748e-72
5.48395e-71
1.86757e-69
5.8402e-68
1.67525e-66
4.40029e-65
1.05597e-63
2.30993e-62
4.60381e-61
8.31449e-60
1.35195e-58
1.96981e-57
2.55444e-56
2.92385e-55
2.92157e-54
2.51199e-53
1.82356e-52
1.08961e-51
5.17716e-51
1.86423e-50
4.75071e-50
7.75239e-50
6.99395e-50
2.91215e-50
5.53954e-51
7.86554e-52
1.10472e-52
1.72215e-53
2.88212e-54
4.95292e-55
8.75384e-56
1.59795e-56
3.04676e-57
6.216e-58
1.41155e-58
3.78496e-59
1.31502e-59
6.61412e-60
5.14066e-60
6.18279e-60
1.14189e-59
3.14392e-59
1.23305e-58
6.355e-58
3.75316e-57
2.2774e-56
1.28164e-55
6.26875e-55
8.26648e-54
1.00645e-51
1.12723e-49
6.93228e-48
5.26545e-47
1.84458e-46
2.9063e-46
3.94303e-46
2.75506e-46
1.09209e-46
3.29851e-47
1.07258e-48
1.87877e-50
2.72299e-52
2.49005e-53
1.36685e-53
6.03029e-54
2.44433e-54
9.73536e-55
4.02948e-55
1.81234e-55
9.23611e-56
5.47303e-56
3.8703e-56
3.32354e-56
3.57878e-56
4.96692e-56
9.09464e-56
2.14931e-55
6.16203e-55
2.03143e-54
7.4524e-54
3.0195e-53
1.38334e-52
7.53082e-52
4.94619e-51
3.45415e-50
1.84342e-49
5.40758e-49
7.5006e-49
5.57944e-49
2.56908e-49
8.14388e-50
1.9157e-50
3.52928e-51
5.29867e-52
6.67763e-53
7.22057e-54
6.80762e-55
5.6637e-56
4.19514e-57
2.78501e-58
1.66549e-59
9.00882e-61
4.42291e-62
1.97606e-63
8.05345e-65
2.99919e-66
1.02149e-67
3.17691e-69
8.99969e-71
2.34061e-72
5.59481e-74
1.22052e-75
2.39943e-77
4.15333e-79
6.06735e-81
6.94487e-83
5.46791e-85
2.31365e-87
2.90871e-90
2.14977e-88
1.64847e-85
3.78084e-83
4.66988e-81
3.96135e-79
2.62101e-77
1.45374e-75
7.04768e-74
3.06122e-72
1.20851e-70
4.36821e-69
1.45201e-67
4.44366e-66
1.25195e-64
3.24932e-63
7.72047e-62
1.67337e-60
3.30037e-59
5.90495e-58
9.55162e-57
1.39067e-55
1.81146e-54
2.09488e-53
2.12908e-52
1.87653e-51
1.40922e-50
8.8083e-50
4.43831e-49
1.72458e-48
4.8516e-48
9.00526e-48
9.59394e-48
4.858e-48
1.08408e-48
1.81789e-49
3.04529e-50
5.58633e-51
1.07338e-51
2.09481e-52
4.17576e-53
8.56419e-54
1.83347e-54
4.21128e-55
1.08598e-55
3.35404e-56
1.36033e-56
7.93212e-57
6.92599e-57
9.0324e-57
1.76301e-56
5.02441e-56
1.99845e-55
1.02394e-54
5.91057e-54
3.47253e-53
1.88023e-52
8.83505e-52
1.14078e-50
1.33618e-48
1.43436e-46
8.50111e-45
6.137e-44
2.03584e-43
3.1182e-43
4.21028e-43
2.92409e-43
1.20489e-43
3.76463e-44
1.23166e-45
2.23761e-47
3.34733e-49
2.84717e-50
1.54448e-50
6.79866e-51
2.73589e-51
1.0764e-51
4.37109e-52
1.91293e-52
9.40445e-53
5.33231e-53
3.57746e-53
2.88855e-53
2.88573e-53
3.64685e-53
5.96428e-53
1.24568e-52
3.14943e-52
9.13565e-52
2.93094e-51
1.02716e-50
3.99495e-50
1.81505e-49
9.93584e-49
5.92414e-48
2.74805e-47
6.84101e-47
8.11055e-47
5.31001e-47
2.21303e-47
6.49468e-48
1.43998e-48
2.53664e-49
3.68432e-50
4.53506e-51
4.82777e-52
4.51059e-53
3.73964e-54
2.77369e-55
1.8516e-56
1.11767e-57
6.12336e-59
3.05477e-60
1.39113e-61
5.79605e-63
2.21318e-64
7.75204e-66
2.48751e-67
7.26931e-69
1.93428e-70
4.73645e-72
1.06201e-73
2.15389e-75
3.85828e-77
5.84944e-79
6.96818e-81
5.72681e-83
2.53824e-85
3.35679e-88
2.20244e-86
1.601e-83
3.49358e-81
4.11768e-79
3.34213e-77
2.12195e-75
1.1332e-73
5.30922e-72
2.23579e-70
8.57819e-69
3.02172e-67
9.82569e-66
2.95798e-64
8.1769e-63
2.07595e-61
4.83425e-60
1.03044e-58
2.00535e-57
3.55309e-56
5.71385e-55
8.30562e-54
1.08545e-52
1.26655e-51
1.30724e-50
1.17895e-49
9.14145e-49
5.9636e-48
3.17855e-47
1.32883e-46
4.11218e-46
8.64898e-46
1.08525e-45
6.72146e-46
1.79304e-46
3.6245e-47
7.35136e-48
1.6001e-48
3.55736e-49
7.96146e-50
1.80734e-50
4.20081e-51
1.01811e-51
2.65512e-52
7.84804e-53
2.81353e-53
1.3317e-53
8.91362e-54
8.64688e-54
1.21488e-53
2.49796e-53
7.34966e-53
2.95635e-52
1.50122e-51
8.44449e-51
4.79181e-50
2.49002e-49
1.12145e-48
1.41834e-47
1.59451e-45
1.63606e-43
9.32485e-42
6.347e-41
1.98912e-40
2.96199e-40
3.98287e-40
2.74158e-40
1.17458e-40
3.81813e-41
1.26265e-42
2.38778e-44
3.69949e-46
2.90841e-47
1.55347e-47
6.82466e-48
2.72678e-48
1.05973e-48
4.22196e-49
1.79726e-49
8.51763e-50
4.61676e-50
2.93512e-50
2.22627e-50
2.06422e-50
2.38128e-50
3.48934e-50
6.44897e-50
1.43715e-49
3.6644e-49
1.02717e-48
3.1116e-48
1.02578e-47
3.86387e-47
1.73888e-46
8.69495e-46
3.46179e-45
7.23749e-45
7.32614e-45
4.23045e-45
1.60014e-45
4.35944e-46
9.133e-47
1.54189e-47
2.17099e-48
2.61466e-49
2.74428e-50
2.54413e-51
2.10421e-52
1.56412e-53
1.05067e-54
6.40507e-56
3.5557e-57
1.80295e-58
8.37031e-60
3.5655e-61
1.39594e-62
5.02806e-64
1.66436e-65
5.0351e-67
1.378e-68
3.46952e-70
8.02121e-72
1.68274e-73
3.12682e-75
4.93068e-77
6.12583e-79
5.26583e-81
2.44962e-83
3.41495e-86
1.99623e-84
1.37259e-81
2.84416e-79
3.19338e-77
2.47617e-75
1.50658e-73
7.73761e-72
3.49966e-70
1.42778e-68
5.3262e-67
1.8341e-65
5.8431e-64
1.7063e-62
4.5902e-61
1.13806e-59
2.59668e-58
5.44103e-57
1.04423e-55
1.83081e-54
2.92415e-53
4.23849e-52
5.54935e-51
6.52211e-50
6.82337e-49
6.28382e-48
5.01894e-47
3.40843e-46
1.91588e-45
8.58766e-45
2.91147e-44
6.90669e-44
1.01663e-43
7.7199e-44
2.51213e-44
6.2373e-45
1.54848e-45
4.02596e-46
1.04518e-46
2.70968e-47
7.0683e-48
1.87663e-48
5.19109e-49
1.5511e-49
5.30417e-50
2.2188e-50
1.22059e-50
9.2768e-51
9.90187e-51
1.49077e-50
3.21797e-50
9.74264e-50
3.94841e-49
1.9788e-48
1.08053e-47
5.90218e-47
2.93315e-46
1.26214e-45
1.56296e-44
1.68115e-42
1.64295e-40
8.97985e-39
5.71043e-38
1.68578e-37
2.44164e-37
3.27217e-37
2.22535e-37
9.91769e-38
3.37625e-38
1.13673e-39
2.24934e-41
3.62736e-43
2.6193e-44
1.37189e-44
6.02197e-45
2.3912e-45
9.18748e-46
3.59436e-46
1.48933e-46
6.80592e-47
3.52576e-47
2.12307e-47
1.51213e-47
1.30191e-47
1.37406e-47
1.80963e-47
2.96475e-47
5.82256e-47
1.30368e-46
3.18928e-46
8.34535e-46
2.33212e-45
7.25548e-45
2.65259e-44
1.09243e-43
3.68568e-43
6.41847e-43
5.5517e-43
2.83633e-43
9.77027e-44
2.479e-44
4.92204e-45
7.98475e-46
1.09235e-46
1.28987e-47
1.33717e-48
1.23192e-49
1.01776e-50
7.59008e-52
5.13516e-53
3.16391e-54
1.78079e-55
9.18202e-57
4.34724e-58
1.89376e-59
7.60364e-61
2.81673e-62
9.61869e-64
3.01216e-65
8.52979e-67
2.21298e-68
5.28853e-70
1.15012e-71
2.22124e-73
3.64973e-75
4.73662e-77
4.26513e-79
2.08555e-81
3.06984e-84
1.60039e-82
1.03981e-79
2.04429e-77
2.18481e-75
1.61712e-73
9.41934e-72
4.64683e-70
2.02653e-68
8.00343e-67
2.90218e-65
9.78899e-64
3.01095e-62
8.52357e-61
2.23077e-59
5.39892e-58
1.20636e-56
2.48321e-55
4.69644e-54
8.14088e-53
1.28991e-51
1.86183e-50
2.43812e-49
2.88066e-48
3.04807e-47
2.85941e-46
2.34633e-45
1.65392e-44
9.7715e-44
4.6776e-43
1.72957e-42
4.60378e-42
7.90608e-42
7.35504e-42
2.97871e-42
9.21701e-43
2.82337e-43
8.83589e-44
2.70826e-44
8.21377e-45
2.48319e-45
7.59491e-46
2.41947e-46
8.37038e-47
3.33987e-47
1.63274e-47
1.03661e-47
8.8505e-48
1.03092e-47
1.65541e-47
3.73672e-47
1.15909e-46
4.70991e-46
2.31713e-45
1.22213e-44
6.3979e-44
3.02675e-43
1.23915e-42
1.50008e-41
1.53728e-39
1.42455e-37
7.43741e-36
4.37506e-35
1.21194e-34
1.70887e-34
2.28406e-34
1.52965e-34
7.09852e-35
2.54858e-35
8.83058e-37
1.8417e-38
3.09921e-40
2.04785e-41
1.04852e-41
4.60886e-42
1.82248e-42
6.9359e-43
2.66982e-43
1.07864e-43
4.75836e-44
2.35745e-44
1.34492e-44
8.99527e-45
7.19571e-45
6.96233e-45
8.26629e-45
1.20291e-44
2.08197e-44
4.08885e-44
8.71682e-44
1.96746e-43
4.66199e-43
1.19628e-42
3.52147e-42
1.17376e-41
3.31114e-41
4.77713e-41
3.53941e-41
1.60624e-41
5.05917e-42
1.19992e-42
2.26537e-43
3.54175e-44
4.72012e-45
5.47707e-46
5.61923e-47
5.15349e-48
4.25902e-49
3.19054e-50
2.17629e-51
1.35634e-52
7.74536e-54
4.06324e-55
1.96273e-56
8.74719e-58
3.6028e-59
1.37296e-60
4.83764e-62
1.56838e-63
4.61439e-65
1.23506e-66
3.05781e-68
6.90678e-70
1.38892e-71
2.38194e-73
3.23409e-75
3.05469e-77
1.57207e-79
2.44662e-82
1.13873e-80
6.98239e-78
1.30114e-75
1.32245e-73
9.33555e-72
5.20127e-70
2.4624e-68
1.03447e-66
3.95525e-65
1.39803e-63
4.5543e-62
1.35244e-60
3.7101e-59
9.44239e-58
2.22965e-56
4.87627e-55
9.85378e-54
1.83508e-52
3.14207e-51
4.93311e-50
7.08025e-49
9.25684e-48
1.09718e-46
1.17131e-45
1.11629e-44
9.38308e-44
6.84252e-43
4.23348e-42
2.15515e-41
8.64734e-41
2.5673e-40
5.11101e-40
5.80369e-40
2.97449e-40
1.15781e-40
4.41066e-41
1.67671e-41
6.14244e-42
2.20145e-42
7.78415e-43
2.7709e-43
1.02778e-43
4.16337e-44
1.95046e-44
1.11211e-44
8.07841e-45
7.67271e-45
9.68605e-45
1.65145e-44
3.87968e-44
1.2262e-43
4.96494e-43
2.38127e-42
1.20555e-41
6.01449e-41
2.69271e-40
1.04312e-39
1.23053e-38
1.19487e-36
1.04392e-34
5.17661e-33
2.78955e-32
7.21057e-32
9.91197e-32
1.32181e-31
8.68923e-32
4.20657e-32
1.60355e-32
5.79868e-34
1.27885e-35
2.25164e-37
1.36786e-38
6.83145e-39
3.01713e-39
1.19202e-39
4.50697e-40
1.7122e-40
6.7636e-41
2.88653e-41
1.3697e-41
7.41033e-42
4.65684e-42
3.46362e-42
3.07776e-42
3.30343e-42
4.27874e-42
6.52645e-42
1.12273e-41
2.08166e-41
4.04396e-41
8.11872e-41
1.71778e-40
4.0496e-40
1.07602e-39
2.50305e-39
2.98435e-39
1.90156e-39
7.7025e-40
2.22844e-40
4.96096e-41
8.93849e-42
1.35115e-42
1.75914e-43
2.01078e-44
2.04599e-45
1.87126e-46
1.5493e-47
1.16735e-48
8.03638e-50
5.0707e-51
2.93996e-52
1.57014e-53
7.74174e-55
3.531e-56
1.49238e-57
5.852e-59
2.12801e-60
7.14355e-62
2.18469e-63
6.05094e-65
1.555e-66
3.65309e-68
7.65875e-70
1.37242e-71
1.95124e-73
1.93457e-75
1.04847e-77
1.7262e-80
7.17809e-79
4.15164e-76
7.33021e-74
7.08324e-72
4.76749e-70
2.53968e-68
1.15318e-66
4.66215e-65
1.72229e-63
5.92741e-62
1.85576e-60
5.31894e-59
1.41348e-57
3.49665e-56
8.05145e-55
1.72244e-53
3.41466e-52
6.25693e-51
1.05719e-49
1.64271e-48
2.34108e-47
3.0503e-46
3.61895e-45
3.888e-44
3.75349e-43
3.22143e-42
2.42158e-41
1.56261e-40
8.42057e-40
3.64632e-39
1.1996e-38
2.74756e-38
3.7844e-38
2.48072e-38
1.22215e-38
5.83971e-39
2.72576e-39
1.20846e-39
5.17325e-40
2.16294e-40
9.07171e-41
3.96905e-41
1.90301e-41
1.05009e-41
6.94988e-42
5.72583e-42
6.00003e-42
8.16142e-42
1.4705e-41
3.57453e-41
1.14308e-40
4.57592e-40
2.12123e-39
1.02289e-38
4.82948e-38
2.03073e-37
7.39198e-37
8.45194e-36
7.72126e-34
6.31301e-32
2.94803e-30
1.44393e-29
3.45352e-29
4.63734e-29
6.16721e-29
3.97101e-29
2.01267e-29
8.17851e-30
3.13273e-31
7.3592e-33
1.36451e-34
7.67768e-36
3.73375e-36
1.66481e-36
6.60188e-37
2.49027e-37
9.37627e-38
3.63571e-38
1.50596e-38
6.85997e-39
3.52544e-39
2.08375e-39
1.44216e-39
1.1786e-39
1.14622e-39
1.32397e-39
1.77965e-39
2.67654e-39
4.30521e-39
7.1782e-39
1.21832e-38
2.12422e-38
4.00166e-38
8.3804e-38
1.58631e-37
1.56407e-37
8.61689e-38
3.13276e-38
8.36788e-39
1.75652e-39
3.03233e-40
4.44712e-41
5.67333e-42
6.40479e-43
6.47727e-44
5.91895e-45
4.91736e-46
3.73129e-47
2.59521e-48
1.65921e-49
9.77406e-51
5.31713e-52
2.67713e-53
1.25004e-54
5.42297e-56
2.18864e-57
8.21513e-59
2.85575e-60
9.07853e-62
2.60806e-63
6.96697e-65
1.70454e-66
3.72986e-68
6.99024e-70
1.04145e-71
1.08455e-73
6.19415e-76
1.07978e-78
4.01066e-77
2.18732e-74
3.65879e-72
3.36096e-70
2.15636e-68
1.09787e-66
4.77825e-65
1.85772e-63
6.61966e-62
2.20751e-60
6.64285e-59
1.83738e-57
4.72873e-56
1.13661e-54
2.55081e-53
5.33446e-52
1.03678e-50
1.86786e-49
3.1115e-48
4.77967e-47
6.75388e-46
8.75433e-45
1.03734e-43
1.11858e-42
1.09059e-41
9.52321e-41
7.35077e-40
4.92553e-39
2.79543e-38
1.29866e-37
4.70041e-37
1.22809e-36
2.03406e-36
1.71112e-36
1.07105e-36
6.47942e-37
3.75295e-37
2.03763e-37
1.05422e-37
5.2848e-38
2.64974e-38
1.38756e-38
7.94332e-39
5.16367e-39
3.94676e-39
3.66096e-39
4.2059e-39
6.13396e-39
1.16197e-38
2.90128e-38
9.306e-38
3.64722e-37
1.61674e-36
7.35763e-36
3.25877e-35
1.27504e-34
4.32271e-34
4.75217e-33
4.04773e-31
3.06687e-29
1.33106e-27
5.9097e-27
1.29064e-26
1.69708e-26
2.24627e-26
1.41815e-26
7.57251e-27
3.26865e-27
1.35628e-28
3.4308e-30
6.75694e-32
3.55678e-33
1.68226e-33
7.61977e-34
3.0514e-34
1.15468e-34
4.33228e-35
1.65752e-35
6.69259e-36
2.93576e-36
1.43635e-36
7.99594e-37
5.15363e-37
3.87745e-37
3.42226e-37
3.5303e-37
4.1802e-37
5.48184e-37
7.62524e-37
1.0877e-36
1.5561e-36
2.23329e-36
3.35996e-36
5.5093e-36
8.39278e-36
6.86922e-36
3.29399e-36
1.08178e-36
2.68287e-37
5.33602e-38
8.86369e-39
1.26584e-39
1.58736e-40
1.77458e-41
1.78776e-42
1.6353e-43
1.36535e-44
1.04469e-45
7.34855e-47
4.76428e-48
2.85327e-49
1.58181e-50
8.13554e-52
3.89006e-53
1.73261e-54
7.19815e-56
2.78915e-57
1.00406e-58
3.31791e-60
9.90319e-62
2.75252e-63
7.01897e-65
1.60411e-66
3.14567e-68
4.91255e-70
5.3743e-72
3.23482e-74
5.97167e-77
1.98142e-75
1.01895e-72
1.61502e-70
1.41065e-68
8.62899e-67
4.19919e-65
1.75186e-63
6.55062e-62
2.25085e-60