/*--------------------------------*- C++ -*----------------------------------*\
| =========                 |                                                 |
| \\      /  F ield         | OpenFOAM: The Open Source CFD Toolbox           |
|  \\    /   O peration     | Version:  2206                                  |
|   \\  /    A nd           | Website:  www.openfoam.com                      |
|    \\/     M anipulation  |                                                 |
\*---------------------------------------------------------------------------*/
FoamFile
{
    version     2.0;
    format      ascii;
    arch        "LSB;label=64;scalar=64";
    class       surfaceScalarField;
    location    "702000";
    object      phi;
}
// * * * * * * * * * * * * * * * * * * * * * * * * * * * * * * * * * * * * * //

dimensions      [0 3 -1 0 0 0 0];

oriented        oriented;

internalField   nonuniform List<scalar> 
24
(
7.68126e-11
-7.68126e-11
3.31612e-10
-2.548e-10
1.68299e-10
1.63313e-10
1.68299e-10
1.25492e-10
-2.02305e-10
1.56173e-10
-2.85481e-10
4.7393e-12
3.14747e-10
1.73039e-10
-5.64723e-11
-1.45832e-10
-2.07552e-10
-1.34402e-10
-1.30661e-10
2.37857e-10
4.23773e-11
-1.45832e-10
-2.80234e-10
-4.23773e-11
)
;

boundaryField
{
    movingWall
    {
        type            calculated;
        value           uniform 0;
    }
    fixedWalls
    {
        type            calculated;
        value           uniform 0;
    }
    frontAndBack
    {
        type            empty;
        value           nonuniform List<scalar> 0();
    }
}


// ************************************************************************* //
