/*--------------------------------*- C++ -*----------------------------------*\
| =========                 |                                                 |
| \\      /  F ield         | OpenFOAM: The Open Source CFD Toolbox           |
|  \\    /   O peration     | Version:  2206                                  |
|   \\  /    A nd           | Website:  www.openfoam.com                      |
|    \\/     M anipulation  |                                                 |
\*---------------------------------------------------------------------------*/
FoamFile
{
    version     2.0;
    format      ascii;
    arch        "LSB;label=64;scalar=64";
    class       volVectorField;
    location    "702000";
    object      U;
}
// * * * * * * * * * * * * * * * * * * * * * * * * * * * * * * * * * * * * * //

dimensions      [0 1 -1 0 0 0 0];

internalField   nonuniform List<vector> 
16
(
(-5.0164e-08 4.50223e-09 0)
(1.13815e-07 -6.22483e-08 0)
(1.47283e-07 2.1466e-08 0)
(-1.10458e-08 3.91357e-08 0)
(1.32233e-08 -6.73246e-08 0)
(8.85021e-08 -1.40038e-07 0)
(3.45767e-08 1.10643e-07 0)
(-3.05365e-08 9.45961e-08 0)
(2.14063e-08 -9.31623e-08 0)
(-6.77212e-08 -8.78172e-08 0)
(-9.64607e-08 1.40376e-07 0)
(-8.37358e-09 4.29558e-08 0)
(1.36064e-08 -2.42173e-08 0)
(-1.32922e-07 -1.89925e-08 0)
(-8.73325e-08 4.90789e-08 0)
(5.2327e-08 -8.63244e-09 0)
)
;

boundaryField
{
    movingWall
    {
        type            noSlip;
    }
    fixedWalls
    {
        type            noSlip;
    }
    frontAndBack
    {
        type            empty;
    }
}


// ************************************************************************* //
