/*--------------------------------*- C++ -*----------------------------------*\
| =========                 |                                                 |
| \\      /  F ield         | OpenFOAM: The Open Source CFD Toolbox           |
|  \\    /   O peration     | Version:  2206                                  |
|   \\  /    A nd           | Website:  www.openfoam.com                      |
|    \\/     M anipulation  |                                                 |
\*---------------------------------------------------------------------------*/
FoamFile
{
    version     2.0;
    format      ascii;
    arch        "LSB;label=64;scalar=64";
    class       volScalarField;
    location    "2.5/solid";
    object      T;
}
// * * * * * * * * * * * * * * * * * * * * * * * * * * * * * * * * * * * * * //

dimensions      [0 0 0 1 0 0 0];

internalField   nonuniform List<scalar> 
500
(
1091.36353191
1091.19282869
1090.85066511
1090.33469475
1089.640815
1088.76449659
1087.70248937
1086.45129104
1085.0102934
1083.498561
1092.3547334
1092.18955069
1091.85892543
1091.36241791
1090.69968144
1089.87157819
1088.88227162
1087.74216466
1086.47049049
1085.09728262
1093.3443352
1093.18555008
1092.86826489
1092.39319988
1091.76181188
1090.97688701
1090.04342399
1088.96951197
1087.76543267
1086.43743027
1094.32032441
1094.16727942
1093.86164503
1093.40441961
1092.79728959
1092.04284673
1091.14484111
1090.10823489
1088.93755265
1087.62995335
1095.27100392
1095.12255501
1094.82606773
1094.38239663
1093.79287239
1093.05933864
1092.18419541
1091.17033382
1090.0194868
1088.72437149
1096.18643512
1096.04153075
1095.75201835
1095.31849756
1094.74185399
1094.02323322
1093.16405109
1092.16603545
1091.02973691
1089.74510824
1097.05981715
1096.91768917
1096.63361738
1096.20796854
1095.64126045
1094.93412241
1094.08732379
1093.10198332
1091.97835022
1090.7044201
1097.88702703
1097.74719011
1097.46761322
1097.04848808
1096.49006929
1095.79263538
1094.95653917
1093.98260125
1092.87134086
1091.6095099
1098.66600486
1098.52819314
1098.25260604
1097.83931577
1097.28840196
1096.59991386
1095.77393072
1094.81114134
1093.71276539
1092.46557403
1099.39625199
1099.2603502
1098.98854404
1098.5808299
1098.03717825
1097.35749367
1096.54166747
1095.59033081
1094.50575392
1093.2762332
1100.07843684
1099.94442391
1099.67637262
1099.27423541
1098.73792072
1098.06724763
1097.26197119
1096.32267275
1095.25294014
1094.04408103
1100.71407871
1100.58198607
1100.31776383
1099.92134284
1099.39260286
1098.73132124
1097.93715546
1097.0106226
1095.95692362
1094.77244621
1101.30528752
1101.17517041
1100.91489527
1100.52438632
1100.00351688
1099.35205238
1098.56957323
1097.65643553
1096.6194187
1095.46304792
1101.85454429
1101.72646305
1101.47026062
1101.0858642
1100.57315524
1099.93190846
1099.16164412
1098.26242967
1097.24222388
1096.11875075
1102.36451308
1102.23852165
1101.98650278
1101.60839235
1101.10408864
1100.47339038
1099.7157794
1098.83094592
1097.82728682
1096.74451125
1102.83787985
1102.7140194
1102.46626803
1102.09457341
1101.59885553
1100.97894798
1100.23432012
1099.36423254
1098.37594564
1097.32916494
1103.27721578
1103.1555117
1102.91207942
1102.54687971
1102.05985627
1101.45088378
1100.71944431
1099.8644089
1098.89118542
1097.85687717
1103.68486387
1103.56532486
1103.32622935
1102.96755164
1102.48925961
1101.89127308
1101.1731111
1100.33332378
1099.37545354
1098.352761
1104.06284761
1103.94546595
1103.71069175
1103.35851257
1102.88891954
1102.30187798
1101.59695894
1100.77243449
1099.829911
1098.81732683
1104.4127997
1104.29755211
1104.06705245
1103.72130098
1103.26031052
1102.68409082
1101.99228066
1101.18295303
1100.25593532
1099.25453271
1104.73590814
1104.62275686
1104.39645599
1104.05701777
1103.6044752
1103.03888161
1102.35995817
1101.56564209
1100.65401187
1099.66259602
1105.03287679
1104.92177089
1104.69956645
1104.36628663
1103.92198222
1103.36674673
1102.70039248
1101.92078639
1101.0243856
1100.04366817
1105.30389707
1105.19477419
1104.97654092
1104.64923022
1104.21290863
1103.66770744
1103.01354108
1102.24827514
1101.36682137
1100.39561682
1105.54862614
1105.44141439
1105.22700787
1104.90544801
1104.47681428
1103.94127071
1103.29883681
1102.54743279
1101.68051818
1100.71870783
1105.76616872
1105.66078854
1105.45004907
1105.13399894
1104.71272806
1104.18642831
1103.5552277
1102.81717247
1101.96445297
1101.01131741
1105.9550604
1105.85142622
1105.6441822
1105.33338321
1104.9191274
1104.40162906
1103.78112304
1103.05583627
1102.21680747
1101.27204365
1106.11325162
1106.011273
1105.80734322
1105.50152282
1105.09391662
1104.5847565
1103.97438153
1103.26125404
1102.43541152
1101.49806232
1106.23809303
1106.13767541
1105.93687055
1105.63574444
1105.23440779
1104.73310643
1104.13228189
1103.43069747
1102.61759416
1101.68769181
1106.32632334
1106.2273685
1106.02949202
1105.73276505
1105.33730335
1104.84336204
1104.25147761
1103.56076395
1102.75980968
1101.83574459
1106.37406132
1106.2764678
1106.08131659
1105.78868372
1105.3986892
1104.91159259
1104.32801573
1103.64747918
1102.85816287
1101.93961827
1106.37680366
1106.28046711
1106.08783212
1105.79897917
1105.41403164
1104.93324908
1104.35732698
1103.68624573
1102.90803503
1101.99345323
1106.32943063
1106.23424449
1106.04391193
1105.75851672
1105.37818405
1104.90316781
1104.33421967
1103.67181998
1102.90416774
1101.99206257
1106.22622095
1106.13207811
1105.94383279
1105.66157033
1105.28541562
1104.81561171
1104.25294725
1103.59843593
1102.84089322
1101.92933379
1106.06087617
1105.96767146
1105.78130201
1105.50185285
1105.12944601
1104.66430745
1104.1072365
1103.45978507
1102.71196249
1101.79904921
1105.82655478
1105.73418762
1105.54949223
1105.2725521
1104.90348482
1104.44249443
1103.89036274
1103.24915797
1102.510878
1101.59444444
1105.51591779
1105.42429403
1105.24108445
1104.96637124
1104.60026861
1104.1429586
1103.59518294
1102.95947331
1102.23080874
1101.31599706
1105.12118952
1105.03022162
1104.84832346
1104.57557747
1104.21209723
1103.75804532
1103.21410107
1102.58314943
1101.86379778
1100.96453455
1104.63423892
1104.54384468
1104.36309479
1104.09207458
1103.73090162
1103.27972497
1102.73914642
1102.11226967
1101.40143297
1100.52567948
1104.0466856
1103.95678564
1103.77702703
1103.50750162
1103.14833704
1102.69967783
1102.16204059
1101.53860562
1100.83523908
1099.98511262
1103.35003345
1103.26054742
1103.0816216
1102.81335874
1102.4559036
1102.00940658
1101.4742957
1100.85367701
1100.15656223
1099.33288984
1102.5358334
1102.44667514
1102.26841252
1102.00116456
1101.64510186
1101.2003942
1100.66738765
1100.04897532
1099.35677502
1098.56128081
1101.59587601
1101.50694736
1101.32915498
1101.06264093
1100.70761222
1100.26427476
1099.73290828
1099.11607316
1098.42719194
1097.66254095
1100.52241335
1100.43359619
1100.25604184
1099.98992357
1099.6354978
1099.19302701
1098.66274963
1098.04680531
1097.35924702
1096.6273294
1099.30840989
1099.21955638
1099.04194861
1098.77579997
1098.42143129
1097.97918671
1097.44930122
1096.83346772
1096.14509815
1095.42900905
1097.94781995
1097.85874227
1097.68070846
1097.41397875
1097.05895134
1096.61607845
1096.08564148
1095.46892595
1094.77824561
1094.06138657
1096.43588576
1096.34634962
1096.16742056
1095.89940362
1095.54277314
1095.09810035
1094.56575795
1093.94668981
1093.25204201
1092.53077065
1094.76944338
1094.67917259
1094.49879253
1094.22863422
1093.86920794
1093.42115135
1092.88489728
1092.26106192
1091.55962384
1090.8308682
1092.94718691
1092.85587838
1092.67346233
1092.40026871
1092.03673763
1091.58337319
1091.04038789
1090.40776787
1089.69417041
1088.95233735
1090.96967335
1090.8769521
1090.69197244
1090.41508888
1090.04652087
1089.58625265
1089.03352778
1088.3865042
1087.65104752
1086.88140319
1088.83872837
1088.74356045
1088.55549173
1088.27491133
1087.90176685
1087.43527363
1086.87281411
1086.20942049
1085.4506414
1084.65964526
)
;

boundaryField
{
    symmetric
    {
        type            symmetry;
    }
    emptyPatch
    {
        type            empty;
    }
    solid_to_water
    {
        type            compressible::turbulentTemperatureTwoPhaseRadCoupledMixed;
        refValue        nonuniform List<scalar> 
70
(
391.835175894
390.090403592
388.685391032
387.488744849
386.409339472
385.064526944
381.76412287
370.108613822
346.881956963
338.584324209
340.111858648
340.845669911
340.896898212
340.843413308
340.705888574
340.625052992
340.446414279
339.828042876
338.69865012
337.536945566
336.503703758
335.75074334
335.567814023
336.270011814
339.941265039
367.36865373
376.221197862
389.238417756
385.293542614
395.507100473
388.878064224
397.865757808
391.245099952
399.015068088
392.170468722
399.006764796
392.190279009
397.755172979
391.959392625
395.886659497
392.248918788
394.912965684
391.432612326
390.800486615
381.087853355
356.379598483
344.078092677
339.68355272
337.58372402
336.726359537
336.830994056
338.77684046
348.489627351
391.749478122
417.160546558
426.804160497
431.864301623
434.255442668
429.419012501
334.389220823
334.502138893
334.574785062
334.645249987
334.712406976
334.767709312
334.842723381
335.087923264
336.264221913
401.199725447
346.555407731
)
;
        refGradient     uniform 0;
        valueFraction   nonuniform List<scalar> 
70
(
0.000627463079748
0.000627745907852
0.000627983874026
0.000628149798281
0.000628517657067
0.000631790230625
0.000650603132483
0.000749940719783
0.00117148803503
0.00146968959967
0.000971232632863
0.000971755690909
0.000973117088698
0.000973840716348
0.000975227559527
0.000975762132288
0.000976814194695
0.000980095574433
0.000982094543946
0.000975705492577
0.000963613385369
0.000951743354508
0.000949800617178
0.000961979547821
0.000982267085971
0.00062835693231
0.000627286971112
0.000578419618776
0.000627583615319
0.000580156535809
0.000627832824548
0.000582334391354
0.000624472022892
0.000584299690378
0.000624643483806
0.000587816565458
0.000626155994997
0.000595320392502
0.000628438638008
0.00060660135614
0.000628472570754
0.000613502337324
0.000632565059928
0.000627932765033
0.000656459784705
0.000831518156231
0.000965482119579
0.000987333731551
0.000974675751894
0.000966350456426
0.000968811843307
0.000984425408342
0.000890145357759
0.000558580167349
0.000507571297095
0.000504916927935
0.000504085271799
0.000504345577213
0.000520166513448
0.00151174895688
0.00151765808678
0.0015207927758
0.00152356234457
0.00152582642888
0.00152727947328
0.00152923791414
0.00153467749702
0.00150611072758
0.000613552181996
0.00108156915172
)
;
        source          uniform 0;
        value           nonuniform List<scalar> 
70
(
1090.92576552
1090.75387266
1090.41086315
1089.89432464
1089.19988473
1088.32085532
1087.24404083
1085.91506775
1084.14711581
1082.40511958
1082.77791154
1084.37557045
1085.71353025
1086.90435137
1087.99660408
1089.01594642
1089.97346528
1090.87476306
1091.72755656
1092.54120564
1093.31649812
1094.05252285
1094.74400155
1095.39094022
1096.00490424
1096.86951193
1097.40314802
1097.94087562
1098.36856754
1098.84468003
1099.21554045
1099.63339433
1099.95209735
1100.3075259
1100.56804137
1100.85828188
1101.05360359
1101.26793745
1101.38949067
1101.5109334
1101.54737916
1101.55807044
1101.48000841
1101.35265656
1101.12197222
1100.69973103
1100.23912968
1099.78045742
1099.24811934
1098.6021988
1097.8298597
1096.92249941
1095.96732535
1095.03714123
1093.71808488
1092.19475481
1090.49870583
1088.62204901
1086.53914226
1087.69954525
1087.60023395
1087.41019671
1087.12806146
1086.75388126
1086.28709543
1085.72415244
1085.05797611
1084.32276068
1084.23865991
1083.85968823
)
;
        kappaMethod     solidThermo;
        Tnbr            T.liquid;
        region          solid;
        otherPhase      gas;
    }
}


// ************************************************************************* //
