/*--------------------------------*- C++ -*----------------------------------*\
| =========                 |                                                 |
| \\      /  F ield         | OpenFOAM: The Open Source CFD Toolbox           |
|  \\    /   O peration     | Version:  2212                                  |
|   \\  /    A nd           | Website:  www.openfoam.com                      |
|    \\/     M anipulation  |                                                 |
\*---------------------------------------------------------------------------*/
FoamFile
{
    version     2.0;
    format      ascii;
    arch        "LSB;label=64;scalar=64";
    class       volScalarField;
    location    "1550";
    object      Gh2;
}
// * * * * * * * * * * * * * * * * * * * * * * * * * * * * * * * * * * * * * //

dimensions      [1 -3 0 0 0 0 0];

internalField   nonuniform List<scalar> 
1024
(
1.28336e-05
1.28328e-05
1.28308e-05
1.28271e-05
1.28213e-05
1.28128e-05
1.28013e-05
1.27868e-05
1.27697e-05
1.2751e-05
1.2732e-05
1.2714e-05
1.26978e-05
1.26833e-05
1.26699e-05
1.26572e-05
1.2649e-05
1.26516e-05
1.26655e-05
1.26888e-05
1.27188e-05
1.27526e-05
1.27869e-05
1.28189e-05
1.28465e-05
1.28687e-05
1.28856e-05
1.28977e-05
1.29058e-05
1.29108e-05
1.29135e-05
1.29146e-05
1.28332e-05
1.28324e-05
1.28304e-05
1.28267e-05
1.28208e-05
1.28122e-05
1.28005e-05
1.27858e-05
1.27685e-05
1.27497e-05
1.27306e-05
1.27126e-05
1.26964e-05
1.2682e-05
1.26685e-05
1.26557e-05
1.26474e-05
1.26499e-05
1.26637e-05
1.26871e-05
1.27171e-05
1.2751e-05
1.27854e-05
1.28176e-05
1.28455e-05
1.28679e-05
1.2885e-05
1.28972e-05
1.29054e-05
1.29105e-05
1.29132e-05
1.29144e-05
1.28324e-05
1.28315e-05
1.28295e-05
1.28256e-05
1.28196e-05
1.28107e-05
1.27987e-05
1.27835e-05
1.27658e-05
1.27466e-05
1.27271e-05
1.2709e-05
1.26929e-05
1.26785e-05
1.2665e-05
1.2652e-05
1.26434e-05
1.26457e-05
1.26597e-05
1.26832e-05
1.27134e-05
1.27475e-05
1.27823e-05
1.28149e-05
1.28433e-05
1.28662e-05
1.28837e-05
1.28962e-05
1.29046e-05
1.29097e-05
1.29126e-05
1.29137e-05
1.28309e-05
1.283e-05
1.28278e-05
1.28239e-05
1.28175e-05
1.28082e-05
1.27956e-05
1.27797e-05
1.27611e-05
1.2741e-05
1.27209e-05
1.27024e-05
1.26862e-05
1.2672e-05
1.26584e-05
1.26449e-05
1.26359e-05
1.26383e-05
1.26527e-05
1.26767e-05
1.27075e-05
1.27421e-05
1.27774e-05
1.28107e-05
1.28398e-05
1.28635e-05
1.28815e-05
1.28945e-05
1.29031e-05
1.29085e-05
1.29114e-05
1.29126e-05
1.28284e-05
1.28275e-05
1.28253e-05
1.28211e-05
1.28143e-05
1.28044e-05
1.27909e-05
1.27739e-05
1.27539e-05
1.27322e-05
1.27107e-05
1.26915e-05
1.26752e-05
1.2661e-05
1.26473e-05
1.26332e-05
1.26236e-05
1.26263e-05
1.26418e-05
1.26672e-05
1.26991e-05
1.27347e-05
1.27709e-05
1.28052e-05
1.28352e-05
1.28597e-05
1.28785e-05
1.2892e-05
1.2901e-05
1.29066e-05
1.29096e-05
1.29108e-05
1.28247e-05
1.28238e-05
1.28214e-05
1.2817e-05
1.28098e-05
1.27991e-05
1.27843e-05
1.27656e-05
1.27433e-05
1.27192e-05
1.26956e-05
1.26751e-05
1.26584e-05
1.26441e-05
1.263e-05
1.26151e-05
1.26048e-05
1.26083e-05
1.2626e-05
1.26541e-05
1.26883e-05
1.27255e-05
1.27632e-05
1.27986e-05
1.28297e-05
1.28552e-05
1.28748e-05
1.28888e-05
1.28981e-05
1.29039e-05
1.2907e-05
1.29082e-05
1.28194e-05
1.28184e-05
1.28159e-05
1.28112e-05
1.28034e-05
1.27916e-05
1.27752e-05
1.27541e-05
1.27287e-05
1.27012e-05
1.26744e-05
1.26517e-05
1.2634e-05
1.26193e-05
1.26044e-05
1.25882e-05
1.25773e-05
1.25827e-05
1.26043e-05
1.26368e-05
1.26748e-05
1.27149e-05
1.27545e-05
1.27915e-05
1.28238e-05
1.28502e-05
1.28704e-05
1.28849e-05
1.28945e-05
1.29003e-05
1.29034e-05
1.29047e-05
1.28117e-05
1.28107e-05
1.28081e-05
1.28031e-05
1.27945e-05
1.27814e-05
1.27629e-05
1.27385e-05
1.27091e-05
1.2677e-05
1.2646e-05
1.26201e-05
1.26005e-05
1.25846e-05
1.25682e-05
1.25502e-05
1.25391e-05
1.25478e-05
1.25754e-05
1.26147e-05
1.26586e-05
1.2703e-05
1.27456e-05
1.27844e-05
1.28179e-05
1.2845e-05
1.28656e-05
1.28802e-05
1.28897e-05
1.28955e-05
1.28985e-05
1.28997e-05
1.28007e-05
1.27997e-05
1.27969e-05
1.27915e-05
1.27821e-05
1.27674e-05
1.27461e-05
1.27178e-05
1.26833e-05
1.26455e-05
1.26092e-05
1.25791e-05
1.25564e-05
1.25379e-05
1.25189e-05
1.24986e-05
1.24879e-05
1.25015e-05
1.25374e-05
1.25862e-05
1.26385e-05
1.26892e-05
1.27359e-05
1.27772e-05
1.28118e-05
1.28393e-05
1.28598e-05
1.2874e-05
1.28832e-05
1.28885e-05
1.28912e-05
1.28922e-05
1.27851e-05
1.2784e-05
1.27811e-05
1.27751e-05
1.27646e-05
1.27479e-05
1.27234e-05
1.26904e-05
1.26499e-05
1.26055e-05
1.2563e-05
1.25274e-05
1.25001e-05
1.24773e-05
1.24542e-05
1.24309e-05
1.24211e-05
1.2441e-05
1.24871e-05
1.25476e-05
1.2611e-05
1.26704e-05
1.27229e-05
1.27674e-05
1.28035e-05
1.2831e-05
1.28508e-05
1.28641e-05
1.28722e-05
1.28766e-05
1.28787e-05
1.28794e-05
1.2763e-05
1.27619e-05
1.27587e-05
1.2752e-05
1.27401e-05
1.2721e-05
1.26926e-05
1.26542e-05
1.2607e-05
1.25553e-05
1.25057e-05
1.24637e-05
1.24301e-05
1.2401e-05
1.23717e-05
1.23445e-05
1.23352e-05
1.23604e-05
1.24158e-05
1.24883e-05
1.25649e-05
1.26359e-05
1.26969e-05
1.27466e-05
1.2785e-05
1.28129e-05
1.28318e-05
1.28436e-05
1.285e-05
1.28529e-05
1.28539e-05
1.2854e-05
1.27327e-05
1.27314e-05
1.27278e-05
1.27201e-05
1.27064e-05
1.26842e-05
1.26513e-05
1.26067e-05
1.25522e-05
1.24928e-05
1.24357e-05
1.23863e-05
1.23447e-05
1.2307e-05
1.22698e-05
1.22366e-05
1.22242e-05
1.22486e-05
1.23062e-05
1.23853e-05
1.24727e-05
1.25572e-05
1.26308e-05
1.26901e-05
1.27344e-05
1.27651e-05
1.27844e-05
1.2795e-05
1.27995e-05
1.28006e-05
1.28001e-05
1.27994e-05
1.26929e-05
1.26914e-05
1.26871e-05
1.26781e-05
1.26619e-05
1.26358e-05
1.25974e-05
1.25459e-05
1.24837e-05
1.24166e-05
1.23519e-05
1.22944e-05
1.22436e-05
1.21956e-05
1.21482e-05
1.21054e-05
1.2082e-05
1.20926e-05
1.21367e-05
1.22066e-05
1.22924e-05
1.23832e-05
1.2469e-05
1.25428e-05
1.26002e-05
1.26409e-05
1.26663e-05
1.26796e-05
1.26847e-05
1.26852e-05
1.26839e-05
1.26827e-05
1.26446e-05
1.26429e-05
1.26379e-05
1.26274e-05
1.26086e-05
1.25786e-05
1.2535e-05
1.24773e-05
1.24084e-05
1.23343e-05
1.22619e-05
1.21952e-05
1.21338e-05
1.20743e-05
1.20151e-05
1.19587e-05
1.19158e-05
1.18981e-05
1.19087e-05
1.19453e-05
1.20037e-05
1.20771e-05
1.21579e-05
1.22375e-05
1.23087e-05
1.23666e-05
1.24084e-05
1.24349e-05
1.24489e-05
1.24546e-05
1.24558e-05
1.24554e-05
1.25919e-05
1.25901e-05
1.25847e-05
1.25732e-05
1.25528e-05
1.25203e-05
1.24733e-05
1.24116e-05
1.23379e-05
1.22578e-05
1.2178e-05
1.21026e-05
1.20318e-05
1.19635e-05
1.18961e-05
1.183e-05
1.17705e-05
1.1724e-05
1.16938e-05
1.16815e-05
1.16886e-05
1.17148e-05
1.17579e-05
1.18134e-05
1.18754e-05
1.19366e-05
1.19907e-05
1.2033e-05
1.20621e-05
1.20792e-05
1.20873e-05
1.20899e-05
1.25407e-05
1.25388e-05
1.25334e-05
1.25221e-05
1.25017e-05
1.24693e-05
1.24223e-05
1.23602e-05
1.22851e-05
1.22022e-05
1.2118e-05
1.20378e-05
1.19636e-05
1.18954e-05
1.18325e-05
1.17741e-05
1.17198e-05
1.16668e-05
1.16141e-05
1.15648e-05
1.15239e-05
1.14959e-05
1.14834e-05
1.14872e-05
1.15058e-05
1.15357e-05
1.15714e-05
1.16066e-05
1.16362e-05
1.16573e-05
1.16695e-05
1.16745e-05
1.24996e-05
1.24978e-05
1.24929e-05
1.24826e-05
1.24642e-05
1.24348e-05
1.23916e-05
1.23338e-05
1.22626e-05
1.21825e-05
1.20997e-05
1.2021e-05
1.1951e-05
1.18923e-05
1.18461e-05
1.18117e-05
1.17838e-05
1.17486e-05
1.16988e-05
1.16375e-05
1.15722e-05
1.15102e-05
1.14573e-05
1.14173e-05
1.13916e-05
1.13797e-05
1.13795e-05
1.13873e-05
1.13987e-05
1.14095e-05
1.14173e-05
1.14209e-05
1.2473e-05
1.24714e-05
1.2467e-05
1.24581e-05
1.24423e-05
1.2417e-05
1.23795e-05
1.23286e-05
1.22647e-05
1.21913e-05
1.21142e-05
1.20405e-05
1.19767e-05
1.19274e-05
1.18955e-05
1.18807e-05
1.18757e-05
1.18599e-05
1.18206e-05
1.17583e-05
1.16807e-05
1.1598e-05
1.15198e-05
1.1453e-05
1.14012e-05
1.13651e-05
1.13431e-05
1.13324e-05
1.13295e-05
1.13307e-05
1.1333e-05
1.13345e-05
1.24579e-05
1.24564e-05
1.24526e-05
1.24449e-05
1.24316e-05
1.24102e-05
1.23785e-05
1.23348e-05
1.22793e-05
1.22142e-05
1.21446e-05
1.20771e-05
1.20186e-05
1.1975e-05
1.195e-05
1.19438e-05
1.19483e-05
1.19422e-05
1.19115e-05
1.18533e-05
1.17722e-05
1.16773e-05
1.15801e-05
1.14912e-05
1.14179e-05
1.13632e-05
1.13266e-05
1.13053e-05
1.12952e-05
1.1292e-05
1.1292e-05
1.12927e-05
1.245e-05
1.24487e-05
1.24454e-05
1.24388e-05
1.24275e-05
1.24096e-05
1.2383e-05
1.23463e-05
1.22989e-05
1.22426e-05
1.21813e-05
1.21206e-05
1.20671e-05
1.20267e-05
1.20031e-05
1.19969e-05
1.19999e-05
1.19935e-05
1.19653e-05
1.19113e-05
1.18328e-05
1.17359e-05
1.16302e-05
1.15273e-05
1.14372e-05
1.1366e-05
1.13155e-05
1.12839e-05
1.12671e-05
1.12603e-05
1.12588e-05
1.12591e-05
1.24456e-05
1.24445e-05
1.24418e-05
1.24364e-05
1.2427e-05
1.24121e-05
1.23901e-05
1.23594e-05
1.23196e-05
1.22717e-05
1.22188e-05
1.21653e-05
1.21166e-05
1.20777e-05
1.20519e-05
1.20394e-05
1.20332e-05
1.20189e-05
1.19874e-05
1.19345e-05
1.18597e-05
1.1766e-05
1.16602e-05
1.15522e-05
1.14524e-05
1.13693e-05
1.13071e-05
1.12659e-05
1.12425e-05
1.12319e-05
1.12288e-05
1.12288e-05
1.24397e-05
1.24391e-05
1.24374e-05
1.24336e-05
1.24265e-05
1.24147e-05
1.23968e-05
1.23716e-05
1.23385e-05
1.22982e-05
1.22528e-05
1.22056e-05
1.21605e-05
1.21212e-05
1.20901e-05
1.20669e-05
1.20465e-05
1.20202e-05
1.19823e-05
1.19286e-05
1.18572e-05
1.17691e-05
1.16684e-05
1.15625e-05
1.14602e-05
1.13706e-05
1.12999e-05
1.12505e-05
1.12207e-05
1.12063e-05
1.12015e-05
1.1201e-05
1.24264e-05
1.24266e-05
1.24266e-05
1.24252e-05
1.24213e-05
1.24132e-05
1.23996e-05
1.23793e-05
1.23517e-05
1.23173e-05
1.22774e-05
1.2234e-05
1.21898e-05
1.21472e-05
1.2108e-05
1.20713e-05
1.20351e-05
1.19964e-05
1.19518e-05
1.18974e-05
1.18303e-05
1.17494e-05
1.16568e-05
1.15577e-05
1.14589e-05
1.13681e-05
1.12927e-05
1.1237e-05
1.12016e-05
1.11832e-05
1.11765e-05
1.11756e-05
1.23989e-05
1.24004e-05
1.24028e-05
1.24049e-05
1.24051e-05
1.24015e-05
1.23922e-05
1.23759e-05
1.23521e-05
1.23207e-05
1.22827e-05
1.22394e-05
1.21926e-05
1.2144e-05
1.2095e-05
1.20451e-05
1.19949e-05
1.19462e-05
1.18972e-05
1.18438e-05
1.17822e-05
1.17103e-05
1.16282e-05
1.15389e-05
1.14475e-05
1.13603e-05
1.12842e-05
1.12247e-05
1.11847e-05
1.11626e-05
1.11539e-05
1.11524e-05
1.23512e-05
1.23544e-05
1.23598e-05
1.23659e-05
1.23704e-05
1.23708e-05
1.23648e-05
1.23506e-05
1.23276e-05
1.22958e-05
1.22559e-05
1.22092e-05
1.21574e-05
1.21021e-05
1.20444e-05
1.19844e-05
1.1925e-05
1.18708e-05
1.18209e-05
1.17706e-05
1.1716e-05
1.16543e-05
1.15842e-05
1.1507e-05
1.1426e-05
1.1346e-05
1.12728e-05
1.12126e-05
1.11695e-05
1.11442e-05
1.11334e-05
1.11313e-05
1.2279e-05
1.2284e-05
1.22925e-05
1.23016e-05
1.23086e-05
1.23106e-05
1.2305e-05
1.22898e-05
1.22644e-05
1.22292e-05
1.21853e-05
1.21343e-05
1.20779e-05
1.2018e-05
1.19557e-05
1.18912e-05
1.18287e-05
1.17741e-05
1.17267e-05
1.16816e-05
1.1635e-05
1.1584e-05
1.15266e-05
1.14628e-05
1.13942e-05
1.13242e-05
1.12573e-05
1.11993e-05
1.11553e-05
1.11277e-05
1.11151e-05
1.11122e-05
1.21798e-05
1.21867e-05
1.21967e-05
1.2206e-05
1.22113e-05
1.22104e-05
1.22012e-05
1.21819e-05
1.21524e-05
1.21135e-05
1.20666e-05
1.20135e-05
1.19561e-05
1.18961e-05
1.18346e-05
1.17718e-05
1.17123e-05
1.1662e-05
1.16198e-05
1.15814e-05
1.15434e-05
1.15028e-05
1.14578e-05
1.14075e-05
1.13524e-05
1.12944e-05
1.12366e-05
1.11838e-05
1.11413e-05
1.11128e-05
1.10987e-05
1.1095e-05
1.20525e-05
1.20605e-05
1.2069e-05
1.20733e-05
1.20717e-05
1.20635e-05
1.20478e-05
1.20236e-05
1.19912e-05
1.19512e-05
1.19051e-05
1.18546e-05
1.18012e-05
1.17464e-05
1.16911e-05
1.16357e-05
1.15839e-05
1.15409e-05
1.15059e-05
1.1475e-05
1.14454e-05
1.14146e-05
1.1381e-05
1.13434e-05
1.13017e-05
1.12565e-05
1.12098e-05
1.11649e-05
1.11265e-05
1.1099e-05
1.10841e-05
1.10798e-05
1.18952e-05
1.19024e-05
1.19046e-05
1.18991e-05
1.18873e-05
1.18706e-05
1.18492e-05
1.18227e-05
1.17911e-05
1.17547e-05
1.17144e-05
1.16713e-05
1.16266e-05
1.15815e-05
1.15366e-05
1.14921e-05
1.14511e-05
1.14175e-05
1.13905e-05
1.13674e-05
1.13457e-05
1.13236e-05
1.12999e-05
1.12736e-05
1.12441e-05
1.12117e-05
1.11769e-05
1.11418e-05
1.111e-05
1.10855e-05
1.10712e-05
1.10664e-05
1.17039e-05
1.17067e-05
1.16983e-05
1.16823e-05
1.16628e-05
1.16419e-05
1.16196e-05
1.15957e-05
1.15696e-05
1.15412e-05
1.15107e-05
1.14787e-05
1.14461e-05
1.14134e-05
1.13812e-05
1.13496e-05
1.13206e-05
1.12971e-05
1.12785e-05
1.12627e-05
1.12482e-05
1.12338e-05
1.12185e-05
1.12016e-05
1.11827e-05
1.11617e-05
1.11386e-05
1.11144e-05
1.1091e-05
1.10718e-05
1.10595e-05
1.10549e-05
1.14707e-05
1.14652e-05
1.14488e-05
1.14305e-05
1.14124e-05
1.1395e-05
1.13785e-05
1.13621e-05
1.13454e-05
1.13278e-05
1.13094e-05
1.12903e-05
1.12709e-05
1.12517e-05
1.12328e-05
1.12144e-05
1.11976e-05
1.1184e-05
1.11733e-05
1.11644e-05
1.11563e-05
1.11483e-05
1.114e-05
1.11308e-05
1.11206e-05
1.11093e-05
1.10966e-05
1.1083e-05
1.10692e-05
1.10571e-05
1.10486e-05
1.10449e-05
1.1186e-05
1.11816e-05
1.11732e-05
1.11651e-05
1.11578e-05
1.11511e-05
1.1145e-05
1.11392e-05
1.11335e-05
1.11277e-05
1.11216e-05
1.11154e-05
1.11091e-05
1.11028e-05
1.10967e-05
1.10907e-05
1.10853e-05
1.1081e-05
1.10776e-05
1.10747e-05
1.10721e-05
1.10696e-05
1.1067e-05
1.10642e-05
1.1061e-05
1.10575e-05
1.10536e-05
1.10494e-05
1.1045e-05
1.10409e-05
1.10378e-05
1.10364e-05
)
;

boundaryField
{
    movingWall
    {
        type            fixedValue;
        value           uniform 1.1032e-05;
    }
    fixedWalls
    {
        type            zeroGradient;
    }
    floor
    {
        type            zeroGradient;
    }
    frontAndBack
    {
        type            empty;
    }
}


// ************************************************************************* //
