/*--------------------------------*- C++ -*----------------------------------*\
| =========                 |                                                 |
| \\      /  F ield         | OpenFOAM: The Open Source CFD Toolbox           |
|  \\    /   O peration     | Version:  2212                                  |
|   \\  /    A nd           | Website:  www.openfoam.com                      |
|    \\/     M anipulation  |                                                 |
\*---------------------------------------------------------------------------*/
FoamFile
{
    version     2.0;
    format      ascii;
    arch        "LSB;label=64;scalar=64";
    class       volScalarField;
    location    "1550";
    object      Sch4;
}
// * * * * * * * * * * * * * * * * * * * * * * * * * * * * * * * * * * * * * //

dimensions      [1 -3 0 0 0 0 0];

internalField   nonuniform List<scalar> 
1024
(
0.0345803
0.0345884
0.0346083
0.0346447
0.0347026
0.0347873
0.0349021
0.0350473
0.0352186
0.0354067
0.0355987
0.0357819
0.0359491
0.0361019
0.036249
0.0363941
0.0364971
0.0364893
0.0363624
0.0361373
0.0358433
0.0355123
0.0351767
0.0348647
0.0345961
0.0343799
0.0342162
0.0340994
0.0340211
0.0339727
0.0339463
0.0339356
0.0345837
0.0345919
0.0346122
0.0346491
0.0347079
0.0347939
0.0349103
0.0350574
0.0352305
0.03542
0.0356131
0.0357965
0.0359635
0.0361161
0.0362635
0.0364097
0.0365143
0.0365074
0.0363808
0.0361554
0.0358609
0.0355289
0.0351916
0.0348774
0.0346064
0.0343878
0.0342222
0.034104
0.0340248
0.0339758
0.0339492
0.0339383
0.0345921
0.0346005
0.0346213
0.0346593
0.03472
0.0348087
0.0349288
0.0350801
0.0352578
0.0354518
0.0356482
0.0358331
0.0359999
0.0361521
0.0363001
0.036449
0.036557
0.0365514
0.0364237
0.0361963
0.0358994
0.0355646
0.0352236
0.0349047
0.0346286
0.0344052
0.0342356
0.0341145
0.0340334
0.0339833
0.033956
0.033945
0.0346073
0.034616
0.0346376
0.0346772
0.0347407
0.0348338
0.0349599
0.0351188
0.0353054
0.0355085
0.0357124
0.0359012
0.0360684
0.0362201
0.0363696
0.0365232
0.0366365
0.0366313
0.0364989
0.0362649
0.0359618
0.0356211
0.0352736
0.0349474
0.0346636
0.0344331
0.0342576
0.0341321
0.0340481
0.0339963
0.0339682
0.0339569
0.0346317
0.0346407
0.0346632
0.0347049
0.0347723
0.0348715
0.0350066
0.0351777
0.035379
0.0355981
0.035816
0.0360129
0.0361823
0.0363339
0.0364861
0.0366473
0.0367679
0.0367603
0.0366161
0.036367
0.0360505
0.0356987
0.035341
0.0350047
0.0347108
0.0344713
0.0342884
0.0341575
0.03407
0.0340162
0.0339871
0.0339754
0.0346684
0.0346777
0.0347013
0.0347455
0.0348178
0.0349253
0.0350731
0.0352619
0.0354859
0.03573
0.0359705
0.036182
0.036357
0.0365107
0.0366681
0.0368407
0.03697
0.0369544
0.0367869
0.0365093
0.0361678
0.0357966
0.0354234
0.0350737
0.034768
0.0345183
0.0343274
0.0341909
0.0340999
0.0340442
0.0340143
0.0340023
0.034722
0.0347315
0.0347562
0.0348034
0.0348818
0.035
0.0351648
0.0353784
0.0356343
0.0359143
0.036188
0.0364229
0.0366099
0.0367704
0.0369382
0.0371271
0.0372655
0.0372324
0.0370246
0.036699
0.0363157
0.0359129
0.0355167
0.0351499
0.034831
0.0345714
0.0343734
0.0342323
0.0341388
0.034082
0.0340518
0.0340399
0.0347987
0.0348085
0.0348345
0.0348853
0.034971
0.0351027
0.0352897
0.0355357
0.035834
0.0361616
0.03648
0.0367493
0.0369584
0.0371351
0.037322
0.0375335
0.0376787
0.0376144
0.0373442
0.0369455
0.0364978
0.036047
0.0356178
0.0352292
0.0348965
0.0346284
0.034426
0.0342831
0.0341896
0.0341336
0.0341044
0.0340931
0.0349084
0.0349185
0.034946
0.035001
0.0350958
0.0352442
0.0354588
0.0357455
0.0360967
0.0364836
0.0368582
0.0371743
0.0374195
0.0376269
0.0378464
0.038088
0.038235
0.0381221
0.037765
0.0372652
0.0367262
0.0362062
0.0357307
0.0353142
0.0349669
0.0346932
0.0344907
0.0343507
0.0342613
0.0342094
0.0341834
0.0341738
0.0350644
0.035075
0.0351047
0.035165
0.0352711
0.0354401
0.0356882
0.0360239
0.0364376
0.0368939
0.0373358
0.0377117
0.0380096
0.0382677
0.0385378
0.0388175
0.0389612
0.0387865
0.038324
0.0376999
0.037041
0.0364254
0.035885
0.0354306
0.0350661
0.0347891
0.0345914
0.0344605
0.034381
0.0343381
0.0343187
0.0343125
0.0352844
0.0352959
0.0353286
0.0353963
0.0355169
0.0357114
0.0359996
0.036392
0.0368767
0.0374106
0.0379291
0.0383775
0.0387469
0.0390787
0.0394198
0.0397491
0.039895
0.0396691
0.0391114
0.0383598
0.0375602
0.0368179
0.0361832
0.0356698
0.0352762
0.0349919
0.034801
0.0346842
0.0346213
0.0345936
0.0345853
0.034585
0.0355874
0.0356004
0.0356378
0.0357159
0.0358558
0.0360824
0.0364187
0.0368758
0.0374382
0.0380556
0.0386574
0.0391898
0.0396494
0.0400781
0.0405113
0.0409108
0.0410963
0.0408844
0.0403066
0.0394879
0.0385717
0.0376838
0.0369102
0.0362898
0.0358285
0.0355109
0.035313
0.0352062
0.0351612
0.0351523
0.0351589
0.0351665
0.035986
0.0360014
0.0360456
0.0361381
0.036304
0.0365718
0.0369665
0.0374975
0.0381431
0.038846
0.0395327
0.0401556
0.0407187
0.0412617
0.0418082
0.0423158
0.042624
0.0425654
0.042137
0.0414197
0.0405227
0.0395662
0.0386584
0.0378777
0.0372711
0.0368421
0.0365755
0.0364367
0.036384
0.0363797
0.0363943
0.0364073
0.03647
0.0364878
0.0365396
0.0366479
0.0368412
0.0371507
0.0376015
0.0381992
0.0389175
0.0396975
0.0404701
0.0411931
0.0418718
0.0425393
0.0432136
0.0438691
0.0443916
0.0446436
0.0445837
0.0442326
0.0436358
0.0428655
0.0420097
0.0411605
0.0403995
0.0397803
0.0393324
0.0390492
0.0388984
0.0388375
0.038825
0.038829
0.0369971
0.0370166
0.0370734
0.0371921
0.0374036
0.0377403
0.0382271
0.0388688
0.0396392
0.0404825
0.0413333
0.0421482
0.0429239
0.0436827
0.0444414
0.0452003
0.0459057
0.04648
0.0468774
0.0470726
0.0470449
0.046795
0.0463494
0.0457582
0.0450901
0.0444264
0.0438389
0.0433771
0.0430593
0.0428726
0.0427837
0.0427552
0.0375073
0.037527
0.0375838
0.0377024
0.0379134
0.0382497
0.0387372
0.0393833
0.040167
0.0410375
0.0419293
0.0427885
0.0435913
0.0443394
0.0450402
0.045709
0.0463568
0.047015
0.0476806
0.0483096
0.0488368
0.049208
0.0493904
0.0493764
0.0491845
0.0488585
0.0484621
0.0480672
0.0477346
0.0474974
0.0473593
0.0473031
0.0379097
0.0379283
0.0379806
0.0380884
0.0382797
0.0385854
0.0390321
0.0396317
0.0403707
0.0412062
0.042073
0.0429035
0.0436472
0.0442763
0.0447792
0.0451705
0.0455166
0.0459774
0.0466249
0.0474153
0.0482547
0.0490481
0.0497219
0.0502308
0.0505569
0.0507078
0.050713
0.0506192
0.0504816
0.0503499
0.0502564
0.0502119
0.0381614
0.0381785
0.038225
0.0383188
0.0384836
0.0387466
0.0391335
0.0396595
0.0403185
0.0410768
0.0418749
0.0426399
0.0433037
0.0438155
0.0441459
0.044302
0.0443761
0.0446033
0.0451255
0.0459325
0.0469294
0.0479897
0.0489921
0.0498473
0.0505083
0.0509658
0.0512392
0.0513663
0.0513947
0.0513723
0.0513383
0.0513167
0.0382953
0.038311
0.0383523
0.0384333
0.0385732
0.0387951
0.0391222
0.0395708
0.0401407
0.0408075
0.0415209
0.0422119
0.0428077
0.0432471
0.0434909
0.0435405
0.0434954
0.0436003
0.0440138
0.0447659
0.0458023
0.0470121
0.0482532
0.0493904
0.0503298
0.0510298
0.051495
0.0517621
0.0518842
0.0519178
0.0519116
0.0518998
0.0383561
0.0383703
0.0384065
0.0384762
0.0385947
0.0387808
0.0390546
0.0394316
0.0399149
0.0404881
0.0411111
0.0417246
0.0422615
0.042661
0.0428832
0.0429289
0.0428954
0.0429986
0.043374
0.0440684
0.0450663
0.0462979
0.0476427
0.0489559
0.0501093
0.0510221
0.0516691
0.0520718
0.0522818
0.052363
0.0523767
0.0523697
0.0383861
0.0383976
0.0384272
0.0384846
0.0385826
0.038737
0.0389643
0.0392782
0.0396828
0.040167
0.040701
0.0412382
0.0417235
0.0421059
0.0423523
0.0424684
0.0425402
0.0427306
0.0431384
0.0438113
0.0447573
0.0459423
0.0472836
0.0486595
0.0499353
0.0510017
0.0518007
0.0523292
0.052627
0.0527581
0.0527926
0.0527903
0.0384393
0.0384454
0.0384636
0.0385031
0.0385761
0.0386971
0.0388806
0.0391381
0.0394737
0.03988
0.0403363
0.0408098
0.0412611
0.0416533
0.0419646
0.0422066
0.0424424
0.0427686
0.0432464
0.0439218
0.0448184
0.0459282
0.0472005
0.0485463
0.049852
0.0510022
0.0519119
0.0525481
0.0529296
0.0531125
0.0531701
0.0531731
0.0385864
0.0385829
0.0385814
0.0385922
0.0386293
0.0387089
0.0388463
0.0390523
0.0393313
0.0396796
0.0400844
0.0405253
0.0409771
0.0414161
0.0418296
0.0422316
0.0426525
0.0431219
0.0436721
0.0443487
0.0451871
0.046201
0.0473674
0.0486245
0.0498849
0.0510482
0.0520196
0.0527381
0.053195
0.0534299
0.0535128
0.0535221
0.0389072
0.0388887
0.0388577
0.0388273
0.0388162
0.0388458
0.0389355
0.039099
0.0393426
0.0396657
0.0400607
0.0405146
0.0410102
0.0415307
0.0420669
0.0426301
0.043216
0.0438
0.0443973
0.0450565
0.0458206
0.0467186
0.0477506
0.0488808
0.0500449
0.0511615
0.0521421
0.0529103
0.0534287
0.0537132
0.0538233
0.0538401
0.0394745
0.0394359
0.0393681
0.0392903
0.0392287
0.0392118
0.0392658
0.0394094
0.0396513
0.0399911
0.0404213
0.0409289
0.0414971
0.0421098
0.0427567
0.0434442
0.0441403
0.0447867
0.0453916
0.0460076
0.0466813
0.0474496
0.048328
0.049303
0.0503338
0.051358
0.0522993
0.0530788
0.0536379
0.0539656
0.0541033
0.054129
0.0403406
0.0402788
0.0401753
0.0400609
0.03997
0.0399358
0.0399882
0.0401496
0.0404277
0.0408179
0.0413079
0.0418801
0.0425146
0.0431937
0.0439051
0.044651
0.0453848
0.046034
0.0466062
0.0471551
0.0477271
0.0483604
0.0490782
0.0498828
0.0507536
0.0516495
0.0525096
0.05326
0.0538323
0.054191
0.0543546
0.0543903
0.0415354
0.0414511
0.0413285
0.0412138
0.0411437
0.041146
0.0412454
0.0414614
0.0417962
0.0422402
0.0427765
0.0433844
0.0440423
0.0447321
0.0454417
0.0461714
0.0468713
0.0474705
0.047977
0.048442
0.0489081
0.0494096
0.0499714
0.0506042
0.0513026
0.0520443
0.0527875
0.0534706
0.0540234
0.0543948
0.0545788
0.0546252
0.0430752
0.0429774
0.0428733
0.0428183
0.0428336
0.0429264
0.0431073
0.0433876
0.0437645
0.0442284
0.0447633
0.0453499
0.0459688
0.0466044
0.0472462
0.0478942
0.0485038
0.0490141
0.0494336
0.0498064
0.0501683
0.0505477
0.0509668
0.0514388
0.0519668
0.0525427
0.0531433
0.0537246
0.0542245
0.0545842
0.0547783
0.0548343
0.0449825
0.0448941
0.0448665
0.0449316
0.0450721
0.0452699
0.0455228
0.0458355
0.0462075
0.046635
0.0471078
0.0476118
0.0481328
0.0486591
0.0491826
0.0497037
0.050187
0.0505858
0.0509076
0.0511869
0.0514512
0.051722
0.0520165
0.0523469
0.0527191
0.0531328
0.053579
0.0540325
0.0544473
0.0547678
0.0549562
0.0550184
0.0473076
0.0472728
0.0473746
0.0475683
0.0478028
0.0480547
0.0483205
0.0486052
0.0489143
0.0492504
0.04961
0.0499857
0.0503684
0.0507507
0.0511272
0.051498
0.0518388
0.0521175
0.0523398
0.0525296
0.0527057
0.0528827
0.0530724
0.0532837
0.0535219
0.0537897
0.0540854
0.0543985
0.0547023
0.0549551
0.0551176
0.0551786
0.0501471
0.0502145
0.0504128
0.0506354
0.0508552
0.0510643
0.0512634
0.051459
0.0516584
0.0518669
0.0520851
0.05231
0.0525373
0.0527628
0.0529836
0.0531996
0.053397
0.0535577
0.0536851
0.0537926
0.0538911
0.0539886
0.0540919
0.0542061
0.0543344
0.0544791
0.0546409
0.0548169
0.0549959
0.0551558
0.0552687
0.055317
0.0536194
0.0536728
0.0537754
0.0538732
0.0539625
0.0540434
0.0541169
0.0541859
0.054254
0.0543235
0.0543954
0.054469
0.0545431
0.0546164
0.0546879
0.0547577
0.0548213
0.0548729
0.0549137
0.054948
0.0549791
0.0550098
0.055042
0.0550774
0.055117
0.0551616
0.0552115
0.0552664
0.0553235
0.0553769
0.0554177
0.0554375
)
;

boundaryField
{
    movingWall
    {
        type            fixedValue;
        value           uniform 0.0555;
    }
    fixedWalls
    {
        type            zeroGradient;
    }
    floor
    {
        type            zeroGradient;
    }
    frontAndBack
    {
        type            empty;
    }
}


// ************************************************************************* //
