/*--------------------------------*- C++ -*----------------------------------*\
| =========                 |                                                 |
| \\      /  F ield         | OpenFOAM: The Open Source CFD Toolbox           |
|  \\    /   O peration     | Version:  2212                                  |
|   \\  /    A nd           | Website:  www.openfoam.com                      |
|    \\/     M anipulation  |                                                 |
\*---------------------------------------------------------------------------*/
FoamFile
{
    version     2.0;
    format      ascii;
    arch        "LSB;label=64;scalar=64";
    class       volScalarField;
    location    "1550";
    object      Xch;
}
// * * * * * * * * * * * * * * * * * * * * * * * * * * * * * * * * * * * * * //

dimensions      [1 -3 0 0 0 0 0];

internalField   nonuniform List<scalar> 
1024
(
0.0198985
0.0198987
0.0198994
0.0199006
0.0199025
0.0199053
0.0199091
0.019914
0.0199196
0.0199258
0.0199321
0.0199381
0.0199435
0.0199483
0.0199528
0.019957
0.0199597
0.0199589
0.0199543
0.0199466
0.0199367
0.0199255
0.0199142
0.0199036
0.0198944
0.0198871
0.0198815
0.0198775
0.0198748
0.0198732
0.0198723
0.0198719
0.0198986
0.0198988
0.0198995
0.0199007
0.0199027
0.0199056
0.0199094
0.0199143
0.01992
0.0199263
0.0199326
0.0199386
0.0199439
0.0199487
0.0199532
0.0199575
0.0199603
0.0199595
0.0199549
0.0199472
0.0199372
0.019926
0.0199146
0.019904
0.0198948
0.0198873
0.0198817
0.0198777
0.019875
0.0198733
0.0198724
0.019872
0.0198989
0.0198991
0.0198998
0.0199011
0.0199031
0.019906
0.01991
0.019915
0.0199209
0.0199273
0.0199337
0.0199398
0.0199451
0.0199499
0.0199544
0.0199587
0.0199616
0.0199609
0.0199563
0.0199485
0.0199385
0.0199272
0.0199157
0.0199049
0.0198955
0.0198879
0.0198821
0.019878
0.0198752
0.0198735
0.0198726
0.0198722
0.0198994
0.0198996
0.0199004
0.0199017
0.0199038
0.0199069
0.0199111
0.0199163
0.0199225
0.0199291
0.0199358
0.019942
0.0199473
0.0199521
0.0199566
0.0199611
0.0199641
0.0199634
0.0199586
0.0199506
0.0199405
0.019929
0.0199173
0.0199063
0.0198967
0.0198888
0.0198829
0.0198786
0.0198757
0.0198739
0.019873
0.0198726
0.0199002
0.0199005
0.0199012
0.0199026
0.0199048
0.0199081
0.0199126
0.0199182
0.0199249
0.0199321
0.0199392
0.0199456
0.019951
0.0199557
0.0199603
0.019965
0.0199682
0.0199673
0.0199622
0.0199538
0.0199432
0.0199315
0.0199195
0.0199081
0.0198982
0.0198901
0.0198838
0.0198794
0.0198764
0.0198746
0.0198736
0.0198732
0.0199014
0.0199017
0.0199025
0.0199039
0.0199063
0.0199099
0.0199148
0.019921
0.0199284
0.0199364
0.0199442
0.019951
0.0199566
0.0199613
0.019966
0.019971
0.0199745
0.0199733
0.0199675
0.0199582
0.0199468
0.0199345
0.019922
0.0199103
0.0199
0.0198916
0.0198851
0.0198805
0.0198774
0.0198755
0.0198744
0.019874
0.0199032
0.0199035
0.0199043
0.0199059
0.0199085
0.0199124
0.0199178
0.0199248
0.0199332
0.0199424
0.0199512
0.0199588
0.0199647
0.0199696
0.0199745
0.0199799
0.0199836
0.0199818
0.0199747
0.0199639
0.0199513
0.019938
0.0199249
0.0199127
0.019902
0.0198932
0.0198865
0.0198818
0.0198786
0.0198766
0.0198756
0.0198752
0.0199057
0.019906
0.0199069
0.0199086
0.0199114
0.0199157
0.0199219
0.01993
0.0199397
0.0199504
0.0199607
0.0199693
0.0199758
0.0199811
0.0199865
0.0199926
0.0199963
0.0199935
0.0199843
0.0199713
0.0199567
0.019942
0.0199279
0.019915
0.0199039
0.019895
0.0198882
0.0198833
0.0198802
0.0198782
0.0198773
0.0198769
0.0199094
0.0199097
0.0199106
0.0199124
0.0199155
0.0199204
0.0199274
0.0199368
0.0199483
0.0199608
0.0199729
0.0199829
0.0199904
0.0199966
0.0200029
0.0200097
0.0200134
0.0200089
0.019997
0.0199808
0.0199634
0.0199466
0.0199311
0.0199175
0.019906
0.0198969
0.0198901
0.0198854
0.0198823
0.0198806
0.0198797
0.0198794
0.0199145
0.0199149
0.0199159
0.0199178
0.0199213
0.0199269
0.019935
0.0199459
0.0199594
0.0199741
0.0199882
0.02
0.0200091
0.0200167
0.0200245
0.0200323
0.0200356
0.020029
0.0200137
0.0199937
0.0199726
0.0199529
0.0199355
0.0199207
0.0199088
0.0198996
0.0198931
0.0198887
0.019886
0.0198845
0.0198839
0.0198836
0.0199218
0.0199222
0.0199233
0.0199255
0.0199294
0.0199358
0.0199452
0.0199579
0.0199736
0.0199908
0.0200072
0.0200212
0.0200324
0.0200421
0.0200519
0.020061
0.0200642
0.0200559
0.0200375
0.0200134
0.019988
0.0199644
0.0199442
0.0199277
0.0199149
0.0199057
0.0198994
0.0198955
0.0198934
0.0198924
0.0198921
0.0198921
0.0199319
0.0199323
0.0199335
0.0199361
0.0199406
0.019948
0.0199589
0.0199737
0.0199918
0.0200115
0.0200305
0.0200469
0.0200608
0.0200733
0.0200858
0.0200969
0.0201011
0.0200931
0.020074
0.0200477
0.0200187
0.0199906
0.0199662
0.0199465
0.0199318
0.0199216
0.0199152
0.0199117
0.0199102
0.0199098
0.01991
0.0199102
0.0199451
0.0199456
0.019947
0.01995
0.0199554
0.019964
0.0199768
0.0199939
0.0200145
0.0200368
0.0200583
0.0200774
0.0200944
0.0201104
0.0201262
0.0201405
0.0201484
0.0201449
0.0201304
0.0201071
0.0200787
0.0200485
0.02002
0.0199955
0.0199764
0.0199629
0.0199544
0.01995
0.0199483
0.0199482
0.0199486
0.019949
0.0199611
0.0199616
0.0199633
0.0199668
0.019973
0.019983
0.0199975
0.0200166
0.0200395
0.0200641
0.0200882
0.0201104
0.0201308
0.0201507
0.0201704
0.0201892
0.0202036
0.0202096
0.0202062
0.020194
0.0201747
0.0201503
0.0201235
0.020097
0.0200733
0.0200541
0.0200402
0.0200314
0.0200267
0.0200248
0.0200244
0.0200246
0.0199785
0.0199791
0.019981
0.0199847
0.0199915
0.0200023
0.0200179
0.0200384
0.0200629
0.0200895
0.020116
0.0201411
0.0201647
0.0201874
0.0202099
0.0202319
0.0202519
0.0202674
0.0202776
0.0202818
0.0202795
0.0202709
0.0202566
0.0202381
0.0202175
0.0201971
0.0201791
0.020165
0.0201553
0.0201497
0.020147
0.0201461
0.0199955
0.0199961
0.0199979
0.0200017
0.0200084
0.0200192
0.0200348
0.0200554
0.0200804
0.0201079
0.0201359
0.0201626
0.0201872
0.02021
0.0202309
0.0202504
0.0202685
0.0202863
0.020304
0.0203206
0.0203343
0.0203437
0.020348
0.0203467
0.0203406
0.0203306
0.0203187
0.020307
0.0202971
0.0202901
0.020286
0.0202844
0.0200091
0.0200097
0.0200113
0.0200148
0.0200209
0.0200306
0.020045
0.0200642
0.0200878
0.0201144
0.0201419
0.020168
0.0201913
0.0202108
0.0202262
0.0202377
0.020247
0.0202589
0.0202756
0.0202962
0.0203181
0.020339
0.0203567
0.0203701
0.0203788
0.0203828
0.0203828
0.0203802
0.0203764
0.0203728
0.0203702
0.020369
0.0200179
0.0200184
0.0200199
0.0200229
0.0200281
0.0200365
0.0200489
0.0200659
0.020087
0.0201114
0.020137
0.0201615
0.0201827
0.020199
0.0202096
0.0202145
0.0202162
0.0202215
0.0202348
0.0202557
0.0202818
0.0203095
0.0203358
0.0203582
0.0203756
0.0203878
0.0203951
0.0203987
0.0203997
0.0203993
0.0203985
0.020398
0.0200229
0.0200234
0.0200246
0.0200272
0.0200316
0.0200387
0.0200493
0.0200637
0.0200822
0.0201037
0.0201268
0.0201492
0.0201686
0.0201831
0.0201914
0.0201934
0.0201919
0.020194
0.0202043
0.0202239
0.0202511
0.020283
0.0203156
0.0203455
0.0203701
0.0203885
0.0204007
0.0204079
0.0204113
0.0204123
0.0204123
0.0204121
0.0200255
0.0200259
0.020027
0.0200292
0.0200329
0.0200389
0.0200477
0.0200599
0.0200756
0.0200943
0.0201146
0.0201347
0.0201524
0.0201658
0.0201736
0.0201757
0.0201746
0.0201768
0.0201863
0.0202045
0.0202308
0.0202634
0.0202988
0.0203334
0.0203636
0.0203876
0.0204045
0.0204151
0.0204208
0.020423
0.0204235
0.0204234
0.0200269
0.0200273
0.0200282
0.02003
0.0200331
0.020038
0.0200453
0.0200555
0.0200687
0.0200846
0.0201021
0.0201199
0.020136
0.0201489
0.0201574
0.0201615
0.0201636
0.0201684
0.020179
0.0201967
0.0202218
0.0202533
0.0202888
0.0203251
0.0203586
0.0203865
0.0204074
0.0204212
0.0204291
0.0204326
0.0204336
0.0204337
0.0200288
0.020029
0.0200296
0.0200309
0.0200332
0.0200371
0.0200431
0.0200515
0.0200624
0.0200758
0.0200908
0.0201065
0.0201214
0.0201344
0.0201447
0.0201524
0.0201592
0.020168
0.0201807
0.0201988
0.0202227
0.0202523
0.0202861
0.0203216
0.020356
0.0203861
0.0204098
0.0204264
0.0204364
0.0204413
0.0204429
0.020443
0.0200333
0.0200332
0.0200332
0.0200337
0.0200349
0.0200376
0.0200421
0.0200489
0.020058
0.0200694
0.0200827
0.020097
0.0201117
0.0201258
0.0201389
0.0201511
0.0201632
0.0201761
0.020191
0.0202093
0.0202318
0.0202589
0.02029
0.0203233
0.0203564
0.0203869
0.0204123
0.020431
0.0204429
0.020449
0.0204513
0.0204516
0.0200424
0.0200419
0.0200411
0.0200404
0.0200403
0.0200415
0.0200446
0.02005
0.0200579
0.0200683
0.0200809
0.0200953
0.0201109
0.020127
0.0201433
0.02016
0.0201767
0.020193
0.0202094
0.0202273
0.020248
0.0202721
0.0202996
0.0203296
0.0203603
0.0203896
0.0204151
0.0204351
0.0204486
0.020456
0.0204589
0.0204594
0.0200584
0.0200573
0.0200555
0.0200535
0.0200519
0.0200518
0.0200538
0.0200585
0.0200661
0.0200767
0.02009
0.0201055
0.0201228
0.0201412
0.0201604
0.0201804
0.0202003
0.0202184
0.0202351
0.0202519
0.0202702
0.0202909
0.0203144
0.0203403
0.0203675
0.0203944
0.020419
0.0204392
0.0204537
0.0204622
0.0204658
0.0204665
0.0200826
0.0200809
0.020078
0.020075
0.0200726
0.0200719
0.0200738
0.0200788
0.0200873
0.020099
0.0201136
0.0201306
0.0201494
0.0201694
0.0201902
0.0202117
0.0202326
0.0202509
0.0202667
0.0202818
0.0202974
0.0203145
0.0203338
0.0203552
0.0203782
0.0204017
0.0204242
0.0204437
0.0204585
0.0204677
0.020472
0.020473
0.0201157
0.0201134
0.0201101
0.020107
0.0201052
0.0201055
0.0201085
0.020115
0.0201248
0.0201378
0.0201534
0.0201711
0.0201903
0.0202103
0.0202309
0.0202518
0.0202717
0.0202885
0.0203026
0.0203155
0.0203282
0.0203418
0.0203569
0.0203738
0.0203923
0.0204118
0.0204312
0.0204489
0.0204632
0.0204728
0.0204775
0.0204787
0.0201584
0.0201557
0.0201528
0.0201514
0.0201519
0.0201546
0.0201599
0.020168
0.0201788
0.0201921
0.0202075
0.0202244
0.0202422
0.0202605
0.020279
0.0202975
0.0203148
0.0203292
0.0203409
0.0203512
0.0203611
0.0203714
0.0203827
0.0203953
0.0204093
0.0204245
0.0204402
0.0204553
0.0204682
0.0204774
0.0204824
0.0204839
0.020211
0.0202086
0.0202078
0.0202097
0.0202136
0.0202192
0.0202264
0.0202352
0.0202458
0.0202579
0.0202714
0.0202858
0.0203007
0.0203158
0.0203308
0.0203457
0.0203594
0.0203706
0.0203796
0.0203874
0.0203946
0.020402
0.02041
0.0204188
0.0204287
0.0204396
0.0204513
0.020463
0.0204737
0.020482
0.0204868
0.0204884
0.020275
0.0202741
0.0202769
0.0202823
0.0202888
0.0202958
0.0203032
0.0203112
0.0203199
0.0203294
0.0203396
0.0203503
0.0203612
0.0203721
0.0203829
0.0203935
0.0204031
0.020411
0.0204172
0.0204225
0.0204274
0.0204322
0.0204373
0.020443
0.0204493
0.0204564
0.0204641
0.0204723
0.0204801
0.0204866
0.0204907
0.0204923
0.0203531
0.020355
0.0203604
0.0203666
0.0203726
0.0203784
0.020384
0.0203894
0.020395
0.0204009
0.0204071
0.0204135
0.0204199
0.0204264
0.0204327
0.0204388
0.0204444
0.020449
0.0204525
0.0204555
0.0204582
0.0204609
0.0204637
0.0204668
0.0204702
0.020474
0.0204783
0.0204828
0.0204875
0.0204915
0.0204944
0.0204956
0.0204484
0.0204499
0.0204527
0.0204554
0.0204579
0.0204601
0.0204622
0.0204641
0.020466
0.0204679
0.02047
0.0204721
0.0204742
0.0204763
0.0204783
0.0204803
0.0204821
0.0204836
0.0204847
0.0204857
0.0204865
0.0204874
0.0204882
0.0204892
0.0204902
0.0204914
0.0204927
0.0204942
0.0204956
0.020497
0.020498
0.0204985
)
;

boundaryField
{
    movingWall
    {
        type            fixedValue;
        value           uniform 0.0205;
    }
    fixedWalls
    {
        type            zeroGradient;
    }
    floor
    {
        type            zeroGradient;
    }
    frontAndBack
    {
        type            empty;
    }
}


// ************************************************************************* //
