/*--------------------------------*- C++ -*----------------------------------*\
| =========                 |                                                 |
| \\      /  F ield         | OpenFOAM: The Open Source CFD Toolbox           |
|  \\    /   O peration     | Version:  2212                                  |
|   \\  /    A nd           | Website:  www.openfoam.com                      |
|    \\/     M anipulation  |                                                 |
\*---------------------------------------------------------------------------*/
FoamFile
{
    version     2.0;
    format      ascii;
    arch        "LSB;label=64;scalar=64";
    class       volScalarField;
    location    "1550";
    object      Xli;
}
// * * * * * * * * * * * * * * * * * * * * * * * * * * * * * * * * * * * * * //

dimensions      [1 -3 0 0 0 0 0];

internalField   nonuniform List<scalar> 
1024
(
0.0422913
0.0422919
0.0422934
0.042296
0.0423002
0.0423063
0.0423146
0.042325
0.0423374
0.0423509
0.0423646
0.0423776
0.0423893
0.0423997
0.0424095
0.0424187
0.0424246
0.0424229
0.0424129
0.0423961
0.0423745
0.0423502
0.0423255
0.0423024
0.0422826
0.0422666
0.0422544
0.0422457
0.0422399
0.0422363
0.0422343
0.0422335
0.0422916
0.0422922
0.0422936
0.0422963
0.0423006
0.0423068
0.0423152
0.0423258
0.0423382
0.0423518
0.0423656
0.0423786
0.0423903
0.0424007
0.0424105
0.0424198
0.0424258
0.0424241
0.0424141
0.0423974
0.0423757
0.0423513
0.0423265
0.0423034
0.0422833
0.0422671
0.0422548
0.0422461
0.0422402
0.0422365
0.0422345
0.0422337
0.0422922
0.0422928
0.0422943
0.042297
0.0423014
0.0423078
0.0423165
0.0423274
0.0423402
0.0423541
0.0423681
0.0423811
0.0423928
0.0424032
0.042413
0.0424224
0.0424287
0.0424271
0.0424171
0.0424002
0.0423784
0.0423538
0.0423288
0.0423053
0.0422849
0.0422684
0.0422558
0.0422468
0.0422408
0.0422371
0.042235
0.0422342
0.0422933
0.0422939
0.0422955
0.0422983
0.0423029
0.0423096
0.0423187
0.0423302
0.0423435
0.0423581
0.0423726
0.0423859
0.0423976
0.0424079
0.0424178
0.0424275
0.0424341
0.0424325
0.0424222
0.0424048
0.0423827
0.0423578
0.0423323
0.0423083
0.0422874
0.0422704
0.0422574
0.0422481
0.0422418
0.042238
0.0422359
0.042235
0.042295
0.0422957
0.0422973
0.0423003
0.0423052
0.0423123
0.0423221
0.0423344
0.0423488
0.0423644
0.0423799
0.0423938
0.0424055
0.0424158
0.0424258
0.042436
0.042443
0.0424412
0.04243
0.0424117
0.0423887
0.0423631
0.042337
0.0423123
0.0422907
0.0422731
0.0422595
0.0422498
0.0422433
0.0422394
0.0422372
0.0422363
0.0422977
0.0422984
0.0423001
0.0423033
0.0423085
0.0423162
0.0423268
0.0423404
0.0423564
0.0423738
0.0423908
0.0424057
0.0424177
0.0424281
0.0424383
0.0424491
0.0424567
0.0424542
0.0424414
0.0424212
0.0423966
0.0423697
0.0423426
0.0423171
0.0422947
0.0422763
0.0422623
0.0422522
0.0422454
0.0422413
0.0422391
0.0422382
0.0423016
0.0423022
0.042304
0.0423074
0.0423131
0.0423216
0.0423334
0.0423487
0.0423669
0.0423868
0.0424061
0.0424225
0.0424353
0.042446
0.0424568
0.0424686
0.0424765
0.0424727
0.0424572
0.0424337
0.0424063
0.0423774
0.0423489
0.0423222
0.042299
0.0422799
0.0422654
0.042255
0.0422481
0.0422439
0.0422416
0.0422407
0.0423071
0.0423078
0.0423097
0.0423133
0.0423195
0.0423289
0.0423423
0.0423599
0.0423811
0.0424043
0.0424267
0.0424453
0.0424595
0.0424711
0.0424829
0.042496
0.0425042
0.042498
0.0424782
0.0424498
0.0424181
0.0423861
0.0423554
0.0423274
0.0423032
0.0422837
0.0422689
0.0422584
0.0422515
0.0422473
0.0422452
0.0422443
0.042315
0.0423158
0.0423177
0.0423217
0.0423284
0.0423391
0.0423544
0.0423748
0.0423997
0.042427
0.0424532
0.042475
0.0424914
0.0425048
0.0425186
0.0425334
0.0425413
0.0425315
0.0425056
0.0424704
0.0424327
0.0423961
0.0423624
0.0423326
0.0423076
0.0422878
0.0422731
0.0422628
0.0422563
0.0422524
0.0422505
0.0422497
0.0423263
0.0423271
0.0423292
0.0423335
0.042341
0.0423531
0.0423708
0.0423946
0.0424238
0.0424559
0.0424866
0.0425123
0.0425321
0.0425486
0.0425655
0.0425824
0.0425896
0.0425754
0.0425421
0.0424984
0.0424526
0.0424098
0.0423718
0.0423397
0.0423137
0.0422939
0.0422796
0.04227
0.0422642
0.042261
0.0422595
0.0422591
0.0423422
0.042343
0.0423453
0.0423501
0.0423587
0.0423725
0.042393
0.0424207
0.0424548
0.0424921
0.0425279
0.0425583
0.0425827
0.0426038
0.0426251
0.0426449
0.0426518
0.0426337
0.0425938
0.0425414
0.0424861
0.0424348
0.0423908
0.0423549
0.0423272
0.042307
0.0422933
0.0422849
0.0422803
0.0422782
0.0422775
0.0422774
0.042364
0.0423649
0.0423676
0.0423731
0.042383
0.042399
0.0424228
0.042455
0.0424943
0.0425372
0.0425785
0.0426143
0.0426444
0.0426718
0.0426988
0.042723
0.0427321
0.0427147
0.0426732
0.042616
0.0425529
0.0424918
0.0424386
0.0423958
0.0423638
0.0423416
0.0423277
0.0423201
0.0423168
0.042316
0.0423164
0.0423169
0.0423927
0.0423938
0.0423969
0.0424034
0.0424151
0.042434
0.0424617
0.0424989
0.0425438
0.0425923
0.0426391
0.0426807
0.0427175
0.0427523
0.0427868
0.0428179
0.042835
0.0428276
0.0427958
0.0427453
0.0426833
0.0426178
0.0425557
0.0425024
0.0424609
0.0424315
0.0424131
0.0424035
0.0423998
0.0423994
0.0424004
0.0424013
0.0424276
0.0424288
0.0424324
0.04244
0.0424535
0.0424752
0.0425067
0.0425484
0.0425981
0.0426517
0.0427041
0.0427523
0.0427969
0.04284
0.042883
0.0429239
0.0429552
0.0429682
0.0429607
0.0429344
0.0428923
0.0428392
0.0427808
0.0427232
0.0426717
0.0426299
0.0425996
0.0425805
0.0425703
0.0425662
0.0425654
0.0425657
0.0424655
0.0424669
0.0424708
0.042479
0.0424938
0.0425173
0.0425512
0.0425958
0.042649
0.0427069
0.0427646
0.0428192
0.0428705
0.04292
0.0429688
0.0430168
0.0430602
0.043094
0.0431161
0.0431253
0.0431203
0.0431015
0.0430704
0.0430302
0.0429853
0.042941
0.0429019
0.0428713
0.0428502
0.0428378
0.042832
0.0428301
0.0425025
0.0425038
0.0425077
0.0425159
0.0425306
0.042554
0.0425879
0.0426328
0.0426871
0.042747
0.0428079
0.0428659
0.0429196
0.042969
0.0430146
0.043057
0.0430965
0.0431351
0.0431736
0.0432096
0.0432395
0.04326
0.0432692
0.0432666
0.0432531
0.0432315
0.0432057
0.0431801
0.0431586
0.0431434
0.0431345
0.0431309
0.0425321
0.0425333
0.0425369
0.0425443
0.0425576
0.0425789
0.04261
0.0426518
0.0427032
0.0427611
0.0428209
0.0428778
0.0429284
0.0429709
0.0430043
0.0430293
0.0430496
0.0430754
0.0431118
0.0431566
0.0432043
0.0432496
0.0432882
0.0433175
0.0433363
0.0433449
0.0433451
0.0433394
0.0433312
0.0433232
0.0433176
0.0433149
0.0425512
0.0425523
0.0425555
0.0425619
0.0425733
0.0425917
0.0426187
0.0426555
0.0427016
0.0427546
0.0428103
0.0428635
0.0429096
0.0429452
0.0429682
0.0429789
0.0429826
0.0429942
0.043023
0.0430685
0.0431252
0.0431856
0.0432428
0.0432916
0.0433294
0.0433558
0.0433719
0.0433796
0.0433817
0.0433808
0.0433792
0.0433781
0.042562
0.0425631
0.0425658
0.0425714
0.042581
0.0425965
0.0426194
0.0426509
0.042691
0.0427379
0.0427882
0.0428369
0.0428791
0.0429105
0.0429285
0.0429329
0.0429297
0.0429342
0.0429567
0.0429993
0.0430585
0.0431278
0.0431988
0.0432638
0.0433174
0.0433574
0.043384
0.0433996
0.043407
0.0434093
0.0434093
0.0434088
0.0425676
0.0425685
0.042571
0.0425757
0.0425839
0.0425968
0.042616
0.0426425
0.0426767
0.0427173
0.0427616
0.0428053
0.0428439
0.042873
0.0428899
0.0428944
0.0428922
0.0428969
0.0429176
0.042957
0.0430143
0.0430852
0.0431624
0.0432375
0.0433034
0.0433554
0.0433923
0.0434154
0.0434276
0.0434326
0.0434337
0.0434334
0.0425708
0.0425715
0.0425735
0.0425774
0.0425842
0.0425949
0.0426109
0.042633
0.0426617
0.0426962
0.0427344
0.042773
0.0428081
0.0428361
0.0428546
0.0428636
0.0428681
0.0428786
0.0429016
0.0429402
0.0429948
0.0430633
0.0431405
0.0432194
0.0432923
0.043353
0.0433985
0.0434286
0.0434457
0.0434534
0.0434556
0.0434557
0.0425749
0.0425754
0.0425766
0.0425794
0.0425845
0.042593
0.0426059
0.0426242
0.042648
0.0426771
0.0427098
0.0427438
0.0427763
0.0428047
0.042827
0.0428438
0.0428586
0.0428778
0.0429054
0.0429446
0.0429967
0.0430611
0.0431346
0.043212
0.0432866
0.0433521
0.0434038
0.0434399
0.0434616
0.0434722
0.0434757
0.043476
0.0425846
0.0425844
0.0425845
0.0425854
0.0425883
0.0425941
0.0426039
0.0426186
0.0426384
0.0426632
0.042692
0.0427233
0.0427552
0.042786
0.0428143
0.0428409
0.0428672
0.0428954
0.0429278
0.0429675
0.0430165
0.0430755
0.0431431
0.0432155
0.0432877
0.043354
0.0434091
0.0434498
0.0434757
0.0434891
0.043494
0.0434947
0.0426045
0.0426035
0.0426017
0.0426002
0.0426
0.0426026
0.0426093
0.042621
0.0426382
0.0426608
0.0426883
0.0427196
0.0427534
0.0427885
0.042824
0.0428603
0.0428967
0.0429322
0.0429678
0.0430068
0.0430517
0.0431042
0.0431641
0.0432293
0.0432961
0.0433597
0.0434154
0.0434588
0.0434881
0.0435042
0.0435106
0.0435117
0.0426393
0.042637
0.042633
0.0426285
0.0426252
0.0426249
0.0426292
0.0426394
0.0426561
0.0426791
0.0427079
0.0427417
0.0427793
0.0428194
0.0428611
0.0429047
0.0429479
0.0429873
0.0430237
0.0430603
0.0431001
0.0431452
0.0431963
0.0432526
0.0433118
0.0433703
0.0434237
0.0434677
0.0434993
0.0435177
0.0435256
0.0435272
0.0426918
0.0426881
0.042682
0.0426753
0.0426702
0.0426687
0.0426728
0.0426837
0.0427021
0.0427276
0.0427594
0.0427964
0.0428373
0.0428808
0.042926
0.0429729
0.0430183
0.043058
0.0430925
0.0431254
0.0431593
0.0431965
0.0432384
0.043285
0.043335
0.0433862
0.0434351
0.0434775
0.0435097
0.0435298
0.0435391
0.0435412
0.042764
0.042759
0.0427517
0.0427449
0.042741
0.0427417
0.0427483
0.0427623
0.0427837
0.042812
0.042846
0.0428846
0.0429262
0.0429698
0.0430145
0.04306
0.0431033
0.0431399
0.0431706
0.0431986
0.0432263
0.0432559
0.0432887
0.0433254
0.0433656
0.043408
0.0434503
0.0434889
0.0435199
0.0435407
0.0435511
0.0435537
0.0428567
0.0428509
0.0428447
0.0428415
0.0428427
0.0428486
0.04286
0.0428776
0.0429012
0.0429302
0.0429637
0.0430004
0.0430392
0.043079
0.0431191
0.0431595
0.0431971
0.0432283
0.0432538
0.0432763
0.0432979
0.0433203
0.0433449
0.0433723
0.0434027
0.0434357
0.0434699
0.0435027
0.0435308
0.0435509
0.0435617
0.0435649
0.0429713
0.042966
0.0429644
0.0429684
0.042977
0.0429891
0.0430047
0.043024
0.0430469
0.0430734
0.0431027
0.043134
0.0431665
0.0431993
0.0432319
0.0432642
0.0432941
0.0433185
0.0433381
0.043355
0.0433708
0.0433868
0.0434041
0.0434233
0.0434448
0.0434686
0.043494
0.0435196
0.0435429
0.0435608
0.0435712
0.0435747
0.0431106
0.0431085
0.0431146
0.0431263
0.0431405
0.0431557
0.0431719
0.0431893
0.0432083
0.0432289
0.0432511
0.0432744
0.0432981
0.0433218
0.0433452
0.0433683
0.0433893
0.0434064
0.0434199
0.0434314
0.043442
0.0434525
0.0434637
0.043476
0.0434898
0.0435051
0.043522
0.0435397
0.0435567
0.0435708
0.0435798
0.0435832
0.0432804
0.0432845
0.0432963
0.0433097
0.0433229
0.0433355
0.0433476
0.0433595
0.0433717
0.0433844
0.0433979
0.0434117
0.0434258
0.0434398
0.0434535
0.0434669
0.0434791
0.043489
0.0434967
0.0435033
0.0435092
0.043515
0.0435211
0.0435277
0.0435352
0.0435435
0.0435527
0.0435627
0.0435727
0.0435816
0.0435878
0.0435905
0.0434878
0.043491
0.0434971
0.043503
0.0435084
0.0435132
0.0435177
0.0435219
0.043526
0.0435303
0.0435347
0.0435392
0.0435438
0.0435484
0.0435528
0.0435571
0.043561
0.0435642
0.0435667
0.0435688
0.0435707
0.0435725
0.0435744
0.0435765
0.0435788
0.0435813
0.0435842
0.0435873
0.0435905
0.0435935
0.0435957
0.0435968
)
;

boundaryField
{
    movingWall
    {
        type            fixedValue;
        value           uniform 0.0436;
    }
    fixedWalls
    {
        type            zeroGradient;
    }
    floor
    {
        type            zeroGradient;
    }
    frontAndBack
    {
        type            empty;
    }
}


// ************************************************************************* //
