/*--------------------------------*- C++ -*----------------------------------*\
| =========                 |                                                 |
| \\      /  F ield         | OpenFOAM: The Open Source CFD Toolbox           |
|  \\    /   O peration     | Version:  2212                                  |
|   \\  /    A nd           | Website:  www.openfoam.com                      |
|    \\/     M anipulation  |                                                 |
\*---------------------------------------------------------------------------*/
FoamFile
{
    version     2.0;
    format      ascii;
    arch        "LSB;label=64;scalar=64";
    class       volScalarField;
    location    "550";
    object      Gco2;
}
// * * * * * * * * * * * * * * * * * * * * * * * * * * * * * * * * * * * * * //

dimensions      [1 -3 0 0 0 0 0];

internalField   nonuniform List<scalar> 
1024
(
0.056152
0.0561415
0.0561156
0.0560694
0.0559983
0.0559004
0.0557776
0.0556365
0.0554862
0.0553353
0.055189
0.0550513
0.0549291
0.054837
0.0548018
0.0548606
0.0550403
0.0552821
0.0555331
0.0557758
0.0560016
0.0562076
0.0563942
0.0565626
0.0567134
0.0568448
0.056954
0.0570388
0.0570996
0.057139
0.057161
0.05717
0.0561501
0.0561391
0.0561124
0.0560647
0.0559915
0.0558911
0.0557662
0.0556237
0.0554729
0.0553221
0.0551758
0.0550379
0.054915
0.0548218
0.0547855
0.0548442
0.0550253
0.0552682
0.0555201
0.0557636
0.0559899
0.0561963
0.0563833
0.0565522
0.0567038
0.0568364
0.0569472
0.0570337
0.0570961
0.0571366
0.0571592
0.0571686
0.0561456
0.056134
0.0561055
0.0560549
0.0559777
0.0558729
0.0557443
0.0555996
0.0554482
0.0552975
0.055151
0.0550114
0.0548849
0.0547866
0.0547457
0.0548034
0.0549884
0.0552357
0.0554908
0.0557366
0.0559648
0.0561728
0.0563611
0.0565314
0.0566849
0.0568201
0.0569339
0.0570237
0.0570889
0.0571315
0.0571553
0.0571652
0.0561385
0.0561259
0.0560952
0.0560406
0.0559582
0.0558481
0.0557152
0.0555685
0.0554167
0.055266
0.0551178
0.0549732
0.0548373
0.0547262
0.0546742
0.0547287
0.0549216
0.0551786
0.055441
0.0556925
0.0559252
0.0561368
0.0563283
0.0565016
0.0566583
0.0567972
0.0569154
0.0570096
0.0570786
0.0571238
0.0571493
0.0571597
0.0561294
0.0561159
0.0560828
0.0560242
0.0559367
0.0558215
0.0556852
0.0555372
0.0553855
0.055234
0.0550814
0.0549262
0.054772
0.0546366
0.0545628
0.0546102
0.0548158
0.0550901
0.0553665
0.0556289
0.0558703
0.0560891
0.0562867
0.0564652
0.0566268
0.0567707
0.056894
0.0569931
0.0570661
0.0571142
0.0571412
0.0571523
0.0561202
0.0561059
0.0560709
0.0560094
0.0559184
0.0558002
0.0556625
0.0555149
0.0553637
0.0552102
0.0550495
0.0548765
0.0546923
0.0545173
0.0544072
0.054441
0.0546631
0.0549635
0.0552628
0.0555438
0.0558003
0.0560315
0.0562392
0.0564259
0.0565944
0.0567441
0.0568727
0.0569765
0.0570532
0.0571038
0.0571321
0.0571437
0.0561136
0.0560989
0.0560633
0.056001
0.0559096
0.055792
0.0556562
0.0555113
0.0553617
0.0552053
0.055033
0.0548347
0.0546071
0.0543739
0.0542094
0.0542198
0.0544592
0.054794
0.0551263
0.0554356
0.0557156
0.0559661
0.0561894
0.0563882
0.0565656
0.0567219
0.0568553
0.0569626
0.0570418
0.057094
0.0571232
0.057135
0.0561132
0.0560987
0.056064
0.056004
0.0559164
0.0558042
0.0556748
0.0555362
0.0553905
0.0552319
0.055046
0.0548157
0.054531
0.054219
0.053979
0.0539534
0.0542068
0.0545817
0.054957
0.0553048
0.0556179
0.0558959
0.0561411
0.0563562
0.0565446
0.0567077
0.0568448
0.056954
0.0570342
0.0570867
0.057116
0.057128
0.0561236
0.0561096
0.0560774
0.0560226
0.0559434
0.0558421
0.0557249
0.0555979
0.0554605
0.0553026
0.0551032
0.054835
0.0544781
0.0540645
0.0537281
0.0536547
0.0539176
0.0543353
0.0547611
0.0551567
0.0555117
0.055825
0.0560981
0.0563333
0.0565344
0.0567041
0.0568436
0.0569527
0.0570319
0.0570835
0.0571124
0.0571242
0.0561503
0.0561371
0.0561082
0.056061
0.0559941
0.0559091
0.0558104
0.0557012
0.0555779
0.0554247
0.0552112
0.0548959
0.054446
0.0539064
0.0534596
0.0533373
0.0536126
0.0540763
0.054557
0.0550054
0.0554077
0.0557611
0.0560655
0.0563229
0.0565371
0.0567124
0.0568525
0.0569597
0.0570363
0.0570861
0.057114
0.0571255
0.0561999
0.0561877
0.0561625
0.0561238
0.0560712
0.0560061
0.0559305
0.0558442
0.0557385
0.0555892
0.0553523
0.0549666
0.0543908
0.0537035
0.0531521
0.0530081
0.0533208
0.0538416
0.0543793
0.0548798
0.0553279
0.0557196
0.0560536
0.0563306
0.0565553
0.0567337
0.0568721
0.0569755
0.0570485
0.0570957
0.0571225
0.0571338
0.0562751
0.0562657
0.0562462
0.0562167
0.0561782
0.0561322
0.0560789
0.0560128
0.0559164
0.0557513
0.0554532
0.0549437
0.0541995
0.053365
0.0527599
0.0526702
0.0530818
0.0536871
0.0542851
0.05483
0.0553125
0.0557304
0.0560823
0.056369
0.0565959
0.0567714
0.0569043
0.0570018
0.05707
0.0571144
0.05714
0.0571511
0.0563155
0.0563185
0.0563205
0.0563161
0.0563013
0.0562736
0.0562288
0.0561538
0.0560183
0.0557661
0.0553166
0.0546069
0.0536771
0.0527635
0.0522392
0.0523499
0.0529627
0.0536959
0.0543584
0.0549322
0.0554251
0.055843
0.0561876
0.056462
0.0566742
0.0568351
0.0569553
0.0570432
0.0571051
0.0571461
0.0571704
0.0571813
0.0558896
0.0559174
0.0559667
0.0560226
0.0560649
0.0560712
0.0560178
0.055875
0.0556024
0.0551471
0.0544602
0.0535518
0.0525633
0.0518081
0.0516368
0.0521642
0.0530939
0.0539897
0.054708
0.0552815
0.055746
0.0561213
0.0564177
0.0566445
0.056814
0.0569398
0.0570339
0.0571047
0.0571569
0.0571938
0.0572171
0.0572282
0.0539509
0.0539804
0.0540363
0.0541038
0.0541549
0.0541534
0.0540601
0.0538375
0.0534576
0.0529012
0.0521921
0.0514339
0.0508447
0.0507228
0.0512674
0.0523913
0.0536679
0.054691
0.0554154
0.0559375
0.0563206
0.0566003
0.0568011
0.056944
0.0570473
0.0571241
0.0571831
0.0572295
0.0572664
0.0572948
0.0573144
0.0573242
0.0503408
0.0503335
0.0503189
0.0502945
0.0502527
0.05018
0.0500605
0.0498837
0.0496576
0.0494101
0.0492162
0.0492074
0.0495575
0.0504008
0.0517108
0.0532692
0.0546772
0.0556708
0.0563124
0.0567342
0.057007
0.0571655
0.0572372
0.0572554
0.0572555
0.0572637
0.0572898
0.0573289
0.0573691
0.0574003
0.0574186
0.057426
0.0474454
0.0474215
0.0473773
0.0473215
0.0472667
0.0472281
0.0472231
0.0472739
0.0474126
0.0476806
0.0481326
0.0488303
0.0498144
0.0510641
0.0524722
0.0538782
0.0550354
0.0558054
0.0563161
0.0567122
0.0570553
0.0573588
0.0576121
0.0577997
0.0579115
0.057944
0.0578995
0.0577882
0.0576323
0.0574672
0.0573332
0.0572608
0.0461813
0.0461672
0.0461458
0.0461283
0.0461305
0.0461716
0.0462734
0.0464593
0.046754
0.04718
0.0477526
0.0484734
0.0493228
0.0502535
0.0511806
0.0519773
0.0524692
0.0526016
0.052541
0.0524493
0.0524147
0.0524635
0.0525749
0.0527045
0.0527965
0.0527977
0.0526771
0.0524365
0.0521171
0.0517903
0.0515331
0.0513979
0.0454649
0.0454544
0.0454378
0.0454222
0.0454175
0.0454366
0.0454942
0.0456056
0.0457837
0.0460342
0.0463488
0.0467039
0.0470565
0.0473372
0.0474326
0.0471612
0.0463168
0.0449004
0.0431998
0.0414826
0.0399411
0.0386824
0.0377562
0.037151
0.0368428
0.0367854
0.0369223
0.0371809
0.0374757
0.0377237
0.0378747
0.037932
0.0448937
0.0448814
0.0448546
0.0448119
0.044753
0.04468
0.044599
0.0445197
0.044451
0.0443957
0.0443402
0.0442518
0.0440713
0.0437018
0.0429872
0.0416786
0.0395496
0.0367335
0.0337033
0.0308192
0.0283079
0.0262671
0.0247155
0.0236233
0.0229784
0.0227597
0.0229291
0.0234093
0.0240699
0.0247353
0.0252351
0.0254785
0.0443967
0.0443834
0.044348
0.0442793
0.0441658
0.0439987
0.0437755
0.0435022
0.04319
0.0428489
0.0424742
0.0420384
0.0414809
0.0406944
0.0395048
0.0376441
0.0349324
0.031672
0.0284637
0.0256652
0.0234212
0.021705
0.0204068
0.0194276
0.0187168
0.0182589
0.0180554
0.0180994
0.0183498
0.0187133
0.0190546
0.0192502
0.0439087
0.0438979
0.0438619
0.0437817
0.0436355
0.0434037
0.0430745
0.0426489
0.0421406
0.0415703
0.0409506
0.0402736
0.0394955
0.0385214
0.0371864
0.0352353
0.0325331
0.0294633
0.0266404
0.024353
0.0226357
0.0213474
0.0203144
0.0194243
0.018636
0.0179645
0.0174485
0.0171188
0.0169787
0.0169935
0.0170893
0.0171717
0.0433449
0.0433422
0.0433167
0.0432406
0.0430818
0.04281
0.0424045
0.0418612
0.0411958
0.0404395
0.0396245
0.038768
0.037855
0.0368201
0.0355278
0.0337536
0.0313759
0.0287424
0.0263873
0.0245229
0.0231205
0.0220084
0.0210209
0.0200632
0.0191158
0.0182264
0.0174715
0.0169122
0.0165688
0.0164165
0.0163937
0.0164184
0.0425987
0.0426127
0.0426118
0.0425557
0.042399
0.0420998
0.0416294
0.0409813
0.0401759
0.0392556
0.0382708
0.0372629
0.0362457
0.0351887
0.0339968
0.0324871
0.0305379
0.0283923
0.0264536
0.0248745
0.0236227
0.022562
0.0215641
0.0205502
0.0195022
0.0184673
0.0175349
0.0167941
0.0162951
0.0160311
0.0159437
0.0159441
0.041547
0.0415884
0.0416269
0.0416026
0.0414519
0.0411208
0.0405768
0.0398181
0.0388752
0.0378049
0.0366728
0.0355371
0.0344332
0.0333596
0.0322598
0.0309969
0.0294549
0.0277638
0.0261861
0.0248258
0.0236774
0.0226578
0.021678
0.0206729
0.01962
0.018549
0.0175357
0.0166792
0.0160594
0.0156994
0.0155564
0.0155388
0.0400673
0.0401469
0.0402332
0.0402373
0.0400756
0.039687
0.0390455
0.0381643
0.0370917
0.0358988
0.0346601
0.0334399
0.0322838
0.0312077
0.0301847
0.0291182
0.0279091
0.0266028
0.0253438
0.0241955
0.0231739
0.0222374
0.0213282
0.0203963
0.0194178
0.0184047
0.0174092
0.01652
0.0158314
0.0153981
0.0152049
0.0151691
0.038055
0.0381783
0.0383016
0.0383012
0.0380828
0.0375955
0.0368351
0.0358392
0.0346737
0.0334178
0.032143
0.0309093
0.0297614
0.0287212
0.0277802
0.0268738
0.0259259
0.0249329
0.0239564
0.0230268
0.022167
0.0213603
0.020572
0.0197662
0.0189199
0.0180316
0.0171311
0.016287
0.0155909
0.015118
0.0148849
0.0148306
0.0354289
0.0355872
0.0357005
0.035625
0.0352873
0.0346718
0.0338068
0.0327505
0.0315735
0.0303482
0.0291336
0.0279773
0.0269157
0.0259693
0.0251383
0.024382
0.023647
0.0229084
0.0221787
0.0214645
0.0207857
0.0201382
0.0195026
0.0188546
0.018175
0.0174543
0.0167036
0.0159668
0.0153215
0.0148499
0.0145945
0.0145237
0.0321176
0.032273
0.0322846
0.0320499
0.0315608
0.030847
0.0299565
0.0289467
0.0278743
0.0267923
0.0257419
0.024756
0.0238597
0.0230689
0.0223866
0.0217882
0.0212396
0.0207115
0.0201932
0.0196782
0.0191801
0.0186999
0.0182273
0.0177471
0.0172447
0.016709
0.0161386
0.0155547
0.0150117
0.0145847
0.014331
0.0142489
0.0280277
0.0280976
0.0279075
0.0274986
0.0269277
0.0262349
0.0254551
0.024625
0.0237774
0.022943
0.0221462
0.0214063
0.0207387
0.0201534
0.0196536
0.0192254
0.0188487
0.0184989
0.0181596
0.0178204
0.0174891
0.017168
0.0168518
0.0165318
0.0161984
0.0158425
0.0154584
0.0150512
0.0146504
0.0143106
0.0140888
0.014006
0.0230003
0.0228892
0.0225405
0.0221187
0.0216507
0.0211479
0.0206214
0.0200854
0.0195528
0.0190372
0.0185503
0.0181015
0.0176986
0.017347
0.0170484
0.0167961
0.0165797
0.0163838
0.0161957
0.0160076
0.0158231
0.0156439
0.0154678
0.0152902
0.0151063
0.0149105
0.014698
0.0144679
0.0142308
0.0140149
0.0138594
0.0137924
0.0168394
0.0167477
0.0165685
0.0163891
0.0162089
0.0160259
0.0158411
0.0156575
0.0154777
0.0153053
0.0151436
0.0149952
0.0148625
0.0147469
0.0146491
0.014567
0.0144974
0.0144352
0.0143758
0.0143164
0.0142582
0.0142016
0.0141461
0.0140904
0.014033
0.0139721
0.0139061
0.0138342
0.0137586
0.0136864
0.0136299
0.0136022
)
;

boundaryField
{
    movingWall
    {
        type            fixedValue;
        value           uniform 0.0135;
    }
    fixedWalls
    {
        type            zeroGradient;
    }
    floor
    {
        type            zeroGradient;
    }
    frontAndBack
    {
        type            empty;
    }
}


// ************************************************************************* //
