/*--------------------------------*- C++ -*----------------------------------*\
| =========                 |                                                 |
| \\      /  F ield         | OpenFOAM: The Open Source CFD Toolbox           |
|  \\    /   O peration     | Version:  2212                                  |
|   \\  /    A nd           | Website:  www.openfoam.com                      |
|    \\/     M anipulation  |                                                 |
\*---------------------------------------------------------------------------*/
FoamFile
{
    version     2.0;
    format      ascii;
    arch        "LSB;label=64;scalar=64";
    class       volScalarField;
    location    "550";
    object      Xli;
}
// * * * * * * * * * * * * * * * * * * * * * * * * * * * * * * * * * * * * * //

dimensions      [1 -3 0 0 0 0 0];

internalField   nonuniform List<scalar> 
1024
(
0.0424404
0.042441
0.0424419
0.0424434
0.0424456
0.0424486
0.0424523
0.0424565
0.042461
0.0424654
0.0424698
0.0424738
0.0424774
0.04248
0.0424808
0.0424788
0.0424731
0.0424655
0.0424576
0.04245
0.0424429
0.0424364
0.0424305
0.0424252
0.0424205
0.0424164
0.042413
0.0424104
0.0424085
0.0424073
0.0424066
0.0424063
0.0424407
0.0424411
0.042442
0.0424435
0.0424458
0.0424488
0.0424526
0.0424569
0.0424614
0.0424658
0.0424702
0.0424742
0.0424778
0.0424804
0.0424813
0.0424793
0.0424736
0.042466
0.042458
0.0424504
0.0424432
0.0424367
0.0424308
0.0424255
0.0424208
0.0424167
0.0424132
0.0424106
0.0424086
0.0424074
0.0424067
0.0424064
0.042441
0.0424414
0.0424423
0.0424439
0.0424462
0.0424494
0.0424533
0.0424576
0.0424621
0.0424666
0.0424709
0.042475
0.0424787
0.0424815
0.0424825
0.0424805
0.0424747
0.0424669
0.0424589
0.0424512
0.042444
0.0424374
0.0424315
0.0424262
0.0424214
0.0424172
0.0424136
0.0424109
0.0424088
0.0424075
0.0424068
0.0424065
0.0424413
0.0424417
0.0424426
0.0424443
0.0424468
0.0424501
0.0424541
0.0424585
0.042463
0.0424675
0.0424719
0.0424761
0.0424801
0.0424833
0.0424846
0.0424828
0.0424767
0.0424686
0.0424604
0.0424525
0.0424452
0.0424385
0.0424325
0.0424271
0.0424222
0.0424179
0.0424142
0.0424113
0.0424092
0.0424078
0.042407
0.0424066
0.0424416
0.042442
0.0424431
0.0424448
0.0424475
0.0424509
0.042455
0.0424595
0.042464
0.0424685
0.042473
0.0424775
0.0424821
0.042486
0.042488
0.0424863
0.0424798
0.0424713
0.0424626
0.0424544
0.0424468
0.04244
0.0424338
0.0424282
0.0424232
0.0424187
0.0424149
0.0424118
0.0424095
0.042408
0.0424072
0.0424069
0.0424419
0.0424424
0.0424434
0.0424453
0.042448
0.0424516
0.0424557
0.0424601
0.0424646
0.0424692
0.042474
0.042479
0.0424844
0.0424895
0.0424926
0.0424913
0.0424844
0.0424751
0.0424657
0.042457
0.0424489
0.0424417
0.0424352
0.0424294
0.0424241
0.0424195
0.0424155
0.0424123
0.0424099
0.0424084
0.0424075
0.0424071
0.0424422
0.0424426
0.0424437
0.0424456
0.0424483
0.0424519
0.0424559
0.0424603
0.0424647
0.0424694
0.0424745
0.0424803
0.042487
0.0424938
0.0424985
0.0424979
0.0424904
0.0424801
0.0424698
0.0424602
0.0424514
0.0424436
0.0424366
0.0424304
0.0424249
0.0424201
0.042416
0.0424127
0.0424102
0.0424086
0.0424077
0.0424074
0.0424422
0.0424426
0.0424437
0.0424455
0.0424481
0.0424515
0.0424554
0.0424595
0.0424639
0.0424686
0.0424741
0.0424809
0.0424893
0.0424984
0.0425053
0.0425058
0.0424979
0.0424864
0.0424748
0.042464
0.0424543
0.0424456
0.042438
0.0424313
0.0424255
0.0424205
0.0424163
0.0424129
0.0424105
0.0424088
0.0424079
0.0424076
0.0424419
0.0424423
0.0424433
0.0424449
0.0424473
0.0424504
0.0424539
0.0424577
0.0424618
0.0424665
0.0424724
0.0424804
0.0424909
0.042503
0.0425127
0.0425146
0.0425064
0.0424936
0.0424805
0.0424683
0.0424573
0.0424476
0.0424391
0.0424319
0.0424257
0.0424205
0.0424162
0.0424129
0.0424105
0.0424089
0.042408
0.0424077
0.0424411
0.0424415
0.0424424
0.0424438
0.0424458
0.0424484
0.0424514
0.0424546
0.0424583
0.0424629
0.0424692
0.0424785
0.0424918
0.0425076
0.0425205
0.0425238
0.0425152
0.0425011
0.0424864
0.0424726
0.0424602
0.0424493
0.0424399
0.042432
0.0424255
0.0424201
0.0424159
0.0424126
0.0424103
0.0424088
0.0424079
0.0424076
0.0424396
0.04244
0.0424408
0.0424419
0.0424435
0.0424455
0.0424478
0.0424504
0.0424535
0.042458
0.042465
0.0424764
0.0424933
0.0425134
0.0425294
0.0425332
0.0425235
0.0425077
0.0424913
0.0424761
0.0424623
0.0424503
0.04244
0.0424316
0.0424247
0.0424193
0.0424152
0.0424121
0.0424099
0.0424084
0.0424076
0.0424073
0.0424374
0.0424377
0.0424383
0.0424392
0.0424403
0.0424417
0.0424433
0.0424453
0.0424482
0.0424531
0.0424619
0.0424769
0.0424988
0.0425232
0.0425406
0.0425427
0.04253
0.0425117
0.0424936
0.0424771
0.0424624
0.0424496
0.0424388
0.0424301
0.0424233
0.042418
0.0424141
0.0424111
0.0424091
0.0424078
0.042407
0.0424066
0.0424362
0.0424361
0.042436
0.0424362
0.0424366
0.0424375
0.0424388
0.0424411
0.0424451
0.0424526
0.0424659
0.0424868
0.042514
0.0425406
0.0425554
0.0425514
0.0425327
0.0425106
0.0424907
0.0424734
0.0424584
0.0424457
0.0424353
0.042427
0.0424207
0.0424159
0.0424123
0.0424097
0.0424079
0.0424067
0.0424059
0.0424056
0.0424489
0.042448
0.0424466
0.0424449
0.0424436
0.0424435
0.0424451
0.0424493
0.0424574
0.0424708
0.042491
0.0425177
0.0425464
0.042568
0.0425721
0.0425556
0.0425275
0.0425007
0.0424792
0.042462
0.0424481
0.0424368
0.0424279
0.0424211
0.0424161
0.0424125
0.0424098
0.0424077
0.0424062
0.0424051
0.0424044
0.042404
0.0425064
0.0425055
0.0425039
0.0425018
0.0425003
0.0425003
0.042503
0.0425096
0.0425207
0.0425369
0.0425576
0.0425794
0.0425959
0.0425984
0.0425812
0.0425471
0.0425089
0.0424784
0.0424569
0.0424414
0.04243
0.0424217
0.0424158
0.0424117
0.0424088
0.0424067
0.0424051
0.0424037
0.0424027
0.0424018
0.0424012
0.0424009
0.0426128
0.042613
0.0426134
0.042614
0.0426152
0.0426172
0.0426205
0.0426254
0.0426317
0.0426385
0.0426434
0.0426427
0.0426311
0.042605
0.0425653
0.0425188
0.042477
0.0424478
0.0424289
0.0424166
0.0424087
0.0424042
0.0424023
0.042402
0.0424022
0.0424021
0.0424015
0.0424004
0.0423993
0.0423983
0.0423978
0.0423975
0.0426968
0.0426975
0.0426987
0.0427001
0.0427014
0.0427022
0.0427019
0.0426997
0.0426948
0.0426859
0.0426715
0.0426497
0.0426196
0.042582
0.04254
0.0424984
0.0424645
0.0424421
0.0424273
0.0424161
0.0424065
0.0423981
0.0423911
0.042386
0.042383
0.0423822
0.0423835
0.0423867
0.0423911
0.0423957
0.0423995
0.0424015
0.0427325
0.0427328
0.0427333
0.0427335
0.042733
0.0427311
0.0427273
0.0427209
0.042711
0.0426973
0.0426793
0.042657
0.0426311
0.042603
0.0425753
0.0425516
0.0425369
0.0425328
0.0425343
0.0425369
0.0425378
0.0425364
0.0425333
0.0425297
0.0425272
0.0425272
0.0425306
0.0425374
0.0425465
0.0425557
0.0425629
0.0425668
0.0427526
0.0427528
0.0427531
0.0427532
0.0427527
0.0427513
0.0427486
0.042744
0.0427375
0.0427288
0.0427183
0.0427067
0.0426953
0.042686
0.0426822
0.0426889
0.042712
0.0427515
0.042799
0.042847
0.0428899
0.0429248
0.0429504
0.0429671
0.0429755
0.0429771
0.0429732
0.0429661
0.0429579
0.0429511
0.0429469
0.0429454
0.042769
0.0427692
0.0427698
0.0427706
0.0427716
0.0427728
0.042774
0.042775
0.0427756
0.0427758
0.0427761
0.0427773
0.0427813
0.0427906
0.0428097
0.0428457
0.0429049
0.0429835
0.0430679
0.043148
0.0432174
0.0432734
0.0433156
0.0433451
0.0433622
0.0433677
0.0433627
0.0433493
0.043331
0.0433127
0.0432989
0.0432922
0.0427835
0.0427838
0.0427846
0.0427861
0.0427888
0.0427928
0.0427981
0.0428047
0.0428124
0.0428209
0.0428304
0.0428416
0.0428564
0.0428777
0.0429104
0.0429619
0.0430374
0.0431283
0.0432175
0.0432947
0.043356
0.0434021
0.0434362
0.0434613
0.0434792
0.0434904
0.0434951
0.0434934
0.0434865
0.0434767
0.0434675
0.0434622
0.0427977
0.0427979
0.0427987
0.0428007
0.0428044
0.0428103
0.0428187
0.0428298
0.0428431
0.0428582
0.0428747
0.0428929
0.0429141
0.0429408
0.0429777
0.043032
0.0431073
0.0431929
0.0432712
0.0433341
0.0433804
0.0434142
0.0434403
0.0434622
0.0434813
0.0434974
0.0435098
0.0435177
0.0435211
0.0435207
0.0435183
0.0435162
0.0428137
0.0428138
0.0428144
0.0428163
0.0428203
0.0428274
0.0428382
0.0428526
0.0428704
0.0428907
0.0429128
0.0429361
0.0429611
0.0429896
0.0430254
0.0430749
0.0431413
0.0432148
0.0432801
0.0433312
0.0433688
0.0433977
0.0434224
0.0434459
0.0434688
0.0434902
0.0435083
0.0435218
0.0435301
0.0435339
0.0435346
0.0435341
0.0428345
0.0428341
0.042834
0.0428354
0.0428395
0.0428475
0.04286
0.0428774
0.0428991
0.0429239
0.0429506
0.0429781
0.0430059
0.043035
0.0430681
0.0431103
0.0431649
0.0432248
0.0432785
0.0433218
0.0433553
0.0433828
0.043408
0.043433
0.0434585
0.0434836
0.0435061
0.043524
0.043536
0.0435425
0.0435447
0.0435448
0.0428631
0.042862
0.0428609
0.0428615
0.0428655
0.0428743
0.0428889
0.0429093
0.0429346
0.0429635
0.0429942
0.043025
0.0430551
0.0430845
0.043115
0.0431503
0.0431935
0.0432408
0.0432845
0.0433216
0.0433524
0.043379
0.0434039
0.043429
0.0434548
0.043481
0.0435055
0.0435262
0.0435411
0.0435499
0.0435534
0.0435539
0.0429028
0.0429007
0.0428984
0.0428982
0.0429025
0.0429129
0.0429301
0.0429537
0.0429825
0.0430146
0.043048
0.0430809
0.0431123
0.0431416
0.0431698
0.0431995
0.0432334
0.0432699
0.0433048
0.0433361
0.0433635
0.043388
0.0434113
0.0434348
0.043459
0.0434839
0.0435081
0.0435296
0.0435462
0.0435566
0.0435613
0.0435623
0.0429563
0.0429531
0.0429498
0.0429498
0.0429556
0.0429686
0.0429888
0.0430154
0.0430466
0.0430802
0.0431144
0.0431476
0.0431786
0.0432068
0.0432326
0.0432577
0.0432842
0.0433119
0.043339
0.0433643
0.0433874
0.0434086
0.0434289
0.0434494
0.0434705
0.0434924
0.0435144
0.0435349
0.0435516
0.043563
0.0435686
0.04357
0.0430258
0.0430216
0.0430186
0.0430206
0.0430295
0.0430458
0.0430688
0.0430969
0.0431282
0.0431609
0.0431934
0.0432244
0.0432529
0.0432785
0.0433011
0.0433219
0.0433424
0.043363
0.0433832
0.0434027
0.0434209
0.043438
0.0434545
0.043471
0.0434881
0.0435059
0.0435243
0.0435422
0.0435578
0.0435691
0.0435752
0.043577
0.0431129
0.0431088
0.0431085
0.0431147
0.0431276
0.0431464
0.04317
0.0431967
0.0432252
0.043254
0.043282
0.0433084
0.0433324
0.0433537
0.0433721
0.0433885
0.0434037
0.0434185
0.0434328
0.0434469
0.0434603
0.043473
0.0434853
0.0434976
0.0435103
0.0435236
0.0435376
0.0435519
0.043565
0.0435752
0.0435812
0.0435832
0.0432202
0.0432184
0.0432234
0.0432341
0.0432491
0.0432673
0.0432879
0.0433099
0.0433323
0.0433545
0.0433757
0.0433954
0.0434133
0.043429
0.0434425
0.0434541
0.0434646
0.0434743
0.0434837
0.043493
0.0435019
0.0435104
0.0435187
0.0435269
0.0435354
0.0435443
0.0435537
0.0435637
0.0435733
0.0435815
0.0435867
0.0435887
0.0433518
0.0433547
0.0433639
0.0433749
0.0433872
0.0434004
0.0434143
0.0434284
0.0434425
0.0434562
0.0434691
0.0434811
0.0434918
0.0435013
0.0435093
0.0435162
0.0435221
0.0435276
0.0435328
0.043538
0.0435429
0.0435477
0.0435523
0.0435569
0.0435616
0.0435665
0.0435717
0.0435774
0.0435831
0.0435882
0.0435919
0.0435935
0.0435128
0.0435152
0.0435199
0.0435246
0.0435294
0.0435342
0.043539
0.0435439
0.0435486
0.0435532
0.0435575
0.0435614
0.043565
0.0435681
0.0435707
0.0435729
0.0435748
0.0435766
0.0435782
0.0435799
0.0435814
0.0435829
0.0435844
0.0435858
0.0435873
0.0435888
0.0435905
0.0435922
0.043594
0.0435958
0.0435971
0.0435978
)
;

boundaryField
{
    movingWall
    {
        type            fixedValue;
        value           uniform 0.0436;
    }
    fixedWalls
    {
        type            zeroGradient;
    }
    floor
    {
        type            zeroGradient;
    }
    frontAndBack
    {
        type            empty;
    }
}


// ************************************************************************* //
