/*--------------------------------*- C++ -*----------------------------------*\
| =========                 |                                                 |
| \\      /  F ield         | OpenFOAM: The Open Source CFD Toolbox           |
|  \\    /   O peration     | Version:  2212                                  |
|   \\  /    A nd           | Website:  www.openfoam.com                      |
|    \\/     M anipulation  |                                                 |
\*---------------------------------------------------------------------------*/
FoamFile
{
    version     2.0;
    format      ascii;
    arch        "LSB;label=64;scalar=64";
    class       volScalarField::Internal;
    location    "1660";
    object      dGco2;
}
// * * * * * * * * * * * * * * * * * * * * * * * * * * * * * * * * * * * * * //

dimensions      [1 -3 -1 0 0 0 0];

value           nonuniform List<scalar> 
1024
(
0.000144484
0.000144534
0.000144656
0.000144882
0.000145249
0.000145805
0.000146604
0.0001477
0.000149138
0.000150948
0.000153121
0.000155604
0.00015828
0.000160975
0.000163463
0.000165487
0.000166641
0.000166755
0.00016608
0.000164845
0.000163221
0.000161366
0.000159441
0.000157607
0.000155993
0.00015467
0.000153655
0.000152925
0.000152432
0.000152127
0.00015196
0.000151892
0.000144504
0.000144554
0.000144678
0.000144905
0.000145276
0.000145838
0.000146645
0.000147751
0.000149201
0.000151024
0.00015321
0.000155703
0.000158387
0.000161086
0.000163575
0.000165599
0.000166753
0.000166866
0.000166188
0.000164949
0.000163321
0.000161461
0.000159529
0.000157683
0.000156055
0.000154718
0.000153691
0.000152952
0.000152453
0.000152144
0.000151975
0.000151907
0.000144553
0.000144604
0.000144729
0.000144961
0.00014534
0.000145915
0.000146739
0.000147867
0.000149344
0.000151195
0.000153409
0.000155927
0.000158631
0.000161344
0.000163841
0.000165871
0.000167028
0.000167136
0.000166442
0.000165183
0.000163536
0.000161659
0.000159708
0.000157839
0.000156184
0.00015482
0.000153769
0.000153012
0.000152501
0.000152185
0.000152013
0.000151943
0.000144641
0.000144694
0.000144823
0.000145062
0.000145453
0.000146047
0.000146899
0.000148063
0.000149583
0.000151482
0.000153744
0.000156308
0.000159051
0.000161795
0.000164316
0.000166365
0.000167533
0.000167626
0.000166891
0.000165577
0.000163879
0.000161962
0.000159975
0.00015807
0.000156375
0.000154973
0.00015389
0.000153108
0.000152582
0.000152256
0.000152079
0.000152008
0.000144783
0.000144837
0.000144971
0.00014522
0.000145629
0.00014625
0.000147141
0.000148357
0.000149941
0.00015191
0.000154245
0.00015688
0.000159691
0.000162494
0.000165067
0.000167159
0.000168349
0.000168413
0.000167594
0.000166168
0.000164365
0.000162366
0.000160317
0.000158359
0.000156617
0.000155171
0.000154051
0.000153242
0.000152698
0.000152362
0.000152181
0.000152107
0.000144994
0.00014505
0.00014519
0.000145452
0.000145883
0.00014654
0.000147483
0.000148769
0.000150438
0.000152505
0.000154946
0.000157689
0.000160605
0.000163508
0.000166171
0.000168338
0.000169564
0.000169578
0.000168616
0.000166998
0.00016501
0.000162867
0.000160717
0.000158685
0.000156886
0.000155396
0.000154243
0.000153411
0.000152853
0.000152511
0.000152327
0.000152253
0.000145294
0.000145352
0.000145498
0.000145775
0.000146233
0.000146935
0.000147945
0.000149321
0.000151104
0.000153303
0.000155891
0.000158789
0.000161862
0.000164917
0.000167716
0.000169994
0.000171268
0.000171204
0.000170031
0.000168123
0.000165846
0.000163472
0.000161162
0.000159029
0.000157165
0.000155635
0.00015446
0.000153617
0.000153057
0.000152716
0.000152535
0.000152464
0.000145704
0.000145765
0.000145918
0.000146212
0.000146703
0.00014746
0.000148553
0.000150044
0.000151973
0.000154349
0.000157136
0.000160248
0.000163539
0.000166802
0.000169787
0.000172208
0.000173538
0.000173373
0.000171924
0.000169627
0.000166941
0.000164227
0.000161679
0.000159401
0.000157461
0.000155899
0.000154718
0.000153885
0.00015334
0.000153015
0.000152846
0.000152782
0.000146254
0.000146316
0.000146478
0.000146791
0.000147321
0.000148144
0.000149339
0.000150975
0.000153093
0.0001557
0.000158751
0.000162146
0.000165719
0.000169242
0.000172448
0.000175037
0.000176436
0.000176172
0.000174428
0.000171676
0.000168472
0.000165288
0.000162396
0.000159907
0.000157864
0.000156272
0.000155103
0.000154302
0.000153796
0.000153506
0.000153363
0.000153312
0.000146976
0.00014704
0.000147211
0.000147546
0.000148122
0.000149026
0.000150349
0.000152166
0.000154526
0.000157429
0.000160817
0.000164563
0.000168471
0.000172284
0.000175727
0.000178501
0.000180012
0.00017973
0.000177777
0.000174616
0.000170853
0.000167083
0.000163703
0.000160889
0.000158675
0.000157024
0.000155866
0.000155113
0.000154667
0.000154433
0.000154332
0.000154303
0.00014791
0.000147976
0.000148157
0.000148519
0.000149151
0.000150154
0.000151633
0.000153677
0.000156337
0.000159606
0.000163398
0.000167549
0.000171814
0.000175913
0.00017958
0.000182561
0.000184295
0.000184218
0.000182343
0.000179043
0.000174887
0.000170531
0.000166523
0.000163199
0.000160655
0.000158837
0.000157632
0.000156904
0.000156517
0.000156348
0.0001563
0.000156299
0.000149094
0.000149163
0.000149356
0.000149751
0.00015045
0.000151572
0.000153239
0.000155553
0.000158566
0.000162253
0.000166488
0.000171047
0.000175642
0.00017998
0.000183844
0.000187074
0.000189218
0.000189732
0.000188479
0.000185649
0.000181651
0.000177078
0.000172556
0.000168584
0.000165449
0.0001632
0.000161745
0.000160907
0.0001605
0.000160354
0.000160338
0.000160359
0.000150554
0.000150626
0.000150833
0.000151266
0.00015204
0.000153294
0.000155168
0.000157774
0.000161158
0.000165265
0.000169912
0.000174814
0.000179642
0.000184125
0.000188126
0.000191624
0.000194353
0.000195875
0.000195924
0.000194466
0.000191637
0.000187803
0.000183482
0.000179219
0.000175471
0.000172519
0.000170449
0.000169163
0.000168477
0.000168183
0.000168103
0.000168105
0.000152278
0.000152353
0.000152574
0.00015304
0.000153884
0.00015526
0.000157322
0.000160187
0.000163888
0.000168329
0.00017327
0.000178369
0.00018327
0.000187733
0.000191701
0.000195298
0.000198504
0.000201117
0.000202863
0.000203518
0.000202928
0.000201128
0.000198347
0.000194958
0.000191399
0.000188101
0.000185383
0.000183395
0.000182118
0.000181414
0.000181099
0.000181005
0.000154188
0.000154265
0.000154492
0.000154976
0.000155857
0.000157298
0.000159463
0.000162469
0.000166333
0.000170925
0.000175958
0.000181038
0.000185783
0.000189949
0.000193514
0.000196695
0.000199749
0.000202886
0.000205974
0.000208683
0.000210635
0.000211582
0.000211446
0.000210311
0.000208404
0.000206059
0.000203655
0.000201538
0.00019992
0.000198857
0.000198281
0.00019806
0.000156125
0.0001562
0.000156421
0.00015689
0.000157743
0.000159144
0.000161254
0.000164192
0.000167969
0.000172444
0.000177305
0.000182119
0.000186453
0.000190006
0.000192709
0.000194791
0.000196779
0.000199462
0.00020298
0.000206952
0.000210833
0.000214161
0.00021664
0.000218143
0.000218686
0.000218412
0.000217568
0.000216455
0.000215363
0.000214502
0.00021396
0.000213721
0.000157743
0.000157814
0.000158016
0.000158437
0.000159198
0.000160448
0.00016234
0.000164989
0.00016842
0.000172506
0.000176949
0.00018131
0.000185107
0.000187953
0.000189679
0.000190448
0.000190959
0.000192523
0.000195667
0.000200102
0.000205178
0.000210202
0.00021464
0.000218175
0.000220694
0.000222239
0.000222964
0.000223093
0.00022288
0.000222556
0.000222282
0.000222139
0.000158806
0.000158872
0.000159052
0.000159418
0.00016007
0.000161135
0.000162747
0.000165022
0.000167995
0.000171575
0.000175506
0.00017938
0.000182715
0.000185076
0.000186212
0.000186195
0.000185737
0.000186316
0.000188751
0.000193049
0.000198706
0.000204936
0.00021095
0.000216149
0.000220209
0.000223065
0.000224841
0.000225764
0.000226108
0.000226131
0.000226041
0.000225966
0.000159395
0.000159456
0.000159617
0.000159935
0.00016049
0.000161386
0.000162739
0.000164652
0.000167174
0.000170246
0.000173663
0.000177075
0.000180041
0.000182132
0.00018306
0.000182838
0.000182122
0.000182311
0.000184243
0.000188133
0.000193743
0.000200457
0.000207461
0.000213954
0.000219361
0.000223418
0.00022614
0.000227731
0.000228492
0.00022874
0.000228746
0.000228698
0.00015969
0.000159744
0.000159885
0.000160158
0.000160629
0.000161382
0.000162511
0.000164109
0.000166223
0.00016882
0.000171744
0.000174712
0.000177353
0.000179285
0.000180237
0.000180203
0.000179772
0.000180123
0.000181965
0.000185571
0.000190887
0.000197539
0.000204877
0.000212091
0.000218455
0.000223505
0.000227096
0.000229345
0.000230535
0.000231012
0.00023111
0.000231083
0.000159894
0.000159936
0.000160045
0.000160263
0.000160646
0.000161265
0.000162199
0.000163524
0.000165282
0.000167454
0.000169925
0.000172481
0.000174834
0.000176686
0.000177824
0.000178266
0.000178502
0.000179405
0.000181488
0.000185017
0.000190043
0.000196376
0.000203567
0.000210959
0.000217823
0.000223563
0.000227866
0.000230717
0.000232332
0.000233052
0.000233251
0.000233246
0.000160288
0.000160302
0.000160354
0.000160482
0.000160744
0.000161207
0.000161945
0.00016302
0.000164469
0.000166278
0.00016837
0.000170595
0.000172758
0.000174655
0.00017615
0.000177299
0.000178447
0.000180101
0.00018258
0.000186128
0.000190877
0.000196778
0.000203545
0.000210693
0.000217616
0.000223707
0.00022852
0.000231886
0.000233908
0.000234883
0.000235195
0.000235216
0.000161225
0.000161191
0.000161144
0.000161127
0.000161206
0.000161463
0.000161977
0.000162812
0.000164001
0.000165542
0.000167387
0.000169448
0.000171606
0.000173736
0.000175768
0.000177771
0.000179904
0.000182318
0.000185176
0.000188721
0.000193139
0.000198501
0.000204672
0.000211311
0.000217946
0.00022405
0.000229137
0.000232896
0.000235287
0.000236519
0.000236958
0.00023701
0.000163083
0.000162976
0.000162784
0.000162565
0.000162406
0.000162412
0.000162688
0.000163314
0.000164334
0.000165757
0.000167559
0.000169686
0.000172063
0.00017461
0.000177279
0.000180126
0.000183121
0.000186128
0.000189222
0.000192658
0.000196661
0.000201385
0.000206818
0.000212762
0.000218865
0.000224698
0.000229807
0.000233802
0.000236497
0.000237977
0.000238552
0.000238642
0.000166184
0.000165982
0.000165618
0.000165178
0.000164784
0.000164572
0.000164675
0.000165201
0.000166208
0.00016771
0.000169684
0.000172077
0.000174821
0.00017784
0.000181082
0.000184573
0.000188135
0.000191457
0.000194579
0.000197773
0.000201282
0.000205302
0.000209906
0.000215016
0.000220405
0.000225744
0.000230636
0.000234679
0.000237575
0.000239272
0.000239988
0.000240123
0.000170751
0.000170441
0.000169917
0.000169324
0.000168821
0.000168558
0.000168673
0.000169291
0.000170474
0.000172216
0.000174478
0.00017719
0.000180266
0.000183623
0.000187196
0.000190986
0.000194737
0.000198066
0.000201008
0.00020384
0.000206805
0.000210102
0.00021385
0.000218054
0.000222598
0.000227261
0.000231726
0.000235614
0.000238574
0.000240428
0.000241275
0.000241461
0.000176906
0.000176493
0.000175896
0.000175339
0.000174989
0.000174956
0.000175339
0.000176244
0.000177711
0.000179717
0.000182204
0.00018509
0.000188282
0.000191692
0.000195253
0.000198956
0.000202528
0.000205594
0.000208191
0.000210581
0.000212986
0.000215585
0.000218508
0.000221806
0.000225444
0.000229302
0.000233159
0.000236696
0.000239554
0.000241471
0.000242422
0.000242663
0.000184728
0.000184253
0.000183769
0.000183543
0.000183662
0.000184126
0.000184953
0.000186207
0.000187902
0.000190018
0.000192504
0.000195288
0.000198286
0.000201422
0.000204636
0.000207918
0.000211024
0.00021363
0.000215776
0.000217686
0.000219547
0.000221506
0.000223679
0.000226134
0.000228881
0.000231874
0.00023499
0.000238
0.000240584
0.000242441
0.000243443
0.000243733
0.000194343
0.000193918
0.000193823
0.000194213
0.000194978
0.000195993
0.000197215
0.000198672
0.000200378
0.000202343
0.000204543
0.000206931
0.000209448
0.000212037
0.000214652
0.000217285
0.000219743
0.000221776
0.00022342
0.000224848
0.000226204
0.000227598
0.000229121
0.000230836
0.000232769
0.000234919
0.000237234
0.000239582
0.000241726
0.000243381
0.000244353
0.000244674
0.000206024
0.000205864
0.000206413
0.000207439
0.000208669
0.000209962
0.000211275
0.000212634
0.000214073
0.000215628
0.000217303
0.00021908
0.000220923
0.000222798
0.000224674
0.000226544
0.000228274
0.000229693
0.000230828
0.000231797
0.000232699
0.000233608
0.000234587
0.000235682
0.000236919
0.000238309
0.000239843
0.000241465
0.000243036
0.00024434
0.000245178
0.000245492
0.000220274
0.00022062
0.000221637
0.000222786
0.000223923
0.000224995
0.000225989
0.000226938
0.000227876
0.000228846
0.000229863
0.000230925
0.000232017
0.00023312
0.000234217
0.000235305
0.000236306
0.000237124
0.000237773
0.000238322
0.000238826
0.000239327
0.000239859
0.00024045
0.000241116
0.000241867
0.000242706
0.000243617
0.000244543
0.000245368
0.00024595
0.000246199
0.000237696
0.000237966
0.000238487
0.000238987
0.000239447
0.000239862
0.000240231
0.000240568
0.00024089
0.000241214
0.00024155
0.000241897
0.000242252
0.00024261
0.000242965
0.000243316
0.000243638
0.000243901
0.000244109
0.000244284
0.000244444
0.000244601
0.000244767
0.00024495
0.000245155
0.000245387
0.000245646
0.00024593
0.000246225
0.000246501
0.000246711
0.000246813
)
;


// ************************************************************************* //
