/*--------------------------------*- C++ -*----------------------------------*\
| =========                 |                                                 |
| \\      /  F ield         | OpenFOAM: The Open Source CFD Toolbox           |
|  \\    /   O peration     | Version:  2212                                  |
|   \\  /    A nd           | Website:  www.openfoam.com                      |
|    \\/     M anipulation  |                                                 |
\*---------------------------------------------------------------------------*/
FoamFile
{
    version     2.0;
    format      ascii;
    arch        "LSB;label=64;scalar=64";
    class       volScalarField;
    location    "1660";
    object      Gco2;
}
// * * * * * * * * * * * * * * * * * * * * * * * * * * * * * * * * * * * * * //

dimensions      [1 -3 0 0 0 0 0];

internalField   nonuniform List<scalar> 
1024
(
0.0589203
0.0588982
0.0588437
0.0587432
0.0585795
0.0583315
0.0579755
0.0574874
0.0568467
0.0560411
0.055074
0.0539704
0.0527816
0.0515861
0.0504833
0.049587
0.0490769
0.0490276
0.0493282
0.0498773
0.0505986
0.0514226
0.0522773
0.0530918
0.053809
0.0543967
0.0548474
0.0551721
0.0553908
0.0555266
0.0556008
0.055631
0.0589114
0.0588891
0.0588342
0.0587328
0.0585674
0.0583169
0.0579573
0.0574647
0.0568187
0.0560073
0.0550347
0.0539264
0.0527343
0.0515369
0.0504336
0.0495373
0.0490272
0.0489785
0.0492804
0.0498312
0.0505542
0.0513803
0.0522385
0.053058
0.0537814
0.0543753
0.0548314
0.0551601
0.0553815
0.0555189
0.0555938
0.0556243
0.0588898
0.0588671
0.0588111
0.0587077
0.0585389
0.0582829
0.0579157
0.0574131
0.0567553
0.0559312
0.0549461
0.0538267
0.0526257
0.0514223
0.0503154
0.0494167
0.0489052
0.048859
0.0491678
0.0497276
0.0504589
0.0512924
0.0521589
0.0529889
0.0537242
0.0543303
0.0547969
0.0551335
0.0553602
0.0555007
0.0555772
0.0556082
0.0588504
0.0588272
0.0587696
0.058663
0.0584886
0.058224
0.0578444
0.0573257
0.0566486
0.0558034
0.0547969
0.0536575
0.0524394
0.0512222
0.0501047
0.0491975
0.0486814
0.0486416
0.0489689
0.0495529
0.0503067
0.0511582
0.0520404
0.0528866
0.0536392
0.0542621
0.0547431
0.0550906
0.0553246
0.0554693
0.0555479
0.0555797
0.0587874
0.0587634
0.0587037
0.0585927
0.0584106
0.0581337
0.0577366
0.0571948
0.0564897
0.0556132
0.0545742
0.053403
0.0521553
0.0509119
0.0497719
0.0488458
0.04832
0.0482931
0.0486576
0.0492911
0.0500916
0.0509792
0.0518888
0.0527581
0.0535322
0.0541745
0.0546718
0.0550313
0.0552731
0.0554222
0.0555029
0.0555353
0.0586937
0.0586687
0.0586064
0.0584899
0.0582978
0.058005
0.0575846
0.0570118
0.0562685
0.0553484
0.0542626
0.0530435
0.051749
0.0504616
0.0492821
0.048323
0.0477813
0.0477769
0.0482046
0.0489231
0.0498057
0.0507572
0.0517118
0.0526137
0.0534126
0.0540746
0.0545867
0.0549563
0.0552042
0.0553563
0.055438
0.0554706
0.0585607
0.0585348
0.0584695
0.0583464
0.0581421
0.0578293
0.0573794
0.0567664
0.0559728
0.0549937
0.0538428
0.052555
0.051191
0.0498368
0.0485968
0.0475889
0.0470262
0.0470561
0.0475777
0.0484248
0.0494356
0.0504893
0.0515145
0.0524617
0.0532891
0.0539685
0.0544906
0.0548649
0.055114
0.0552653
0.0553456
0.0553773
0.0583784
0.0583516
0.058283
0.0581523
0.0579334
0.0575963
0.0571095
0.0564456
0.0555866
0.0545293
0.05329
0.0519073
0.0504467
0.0490004
0.0476788
0.0466077
0.0460203
0.0460953
0.0467388
0.0477585
0.0489501
0.0501548
0.0512856
0.0522971
0.0531584
0.0538518
0.0543761
0.0547463
0.0549885
0.0551328
0.0552076
0.0552363
0.0581345
0.0581068
0.0580347
0.0578953
0.0576593
0.0572926
0.0567604
0.0560321
0.0550892
0.0539294
0.052573
0.0510649
0.0494795
0.0479184
0.046499
0.0453538
0.044736
0.0448546
0.0456293
0.0468505
0.0482721
0.0496846
0.0509682
0.0520728
0.0529797
0.0536867
0.0542055
0.0545612
0.0547862
0.0549149
0.0549783
0.055001
0.057814
0.0577855
0.0577096
0.05756
0.0573035
0.0569011
0.0563125
0.0555034
0.0544534
0.0531621
0.0516564
0.0499924
0.0482588
0.0465694
0.0450457
0.043819
0.0431516
0.0432779
0.0441449
0.0455473
0.0472164
0.0488887
0.0503887
0.0516372
0.0526201
0.0533532
0.053867
0.0542013
0.0543996
0.0545035
0.0545484
0.0545614
0.0573998
0.0573703
0.0572899
0.0571283
0.0568471
0.0564008
0.0557427
0.0548332
0.0536499
0.0521965
0.0505112
0.0486685
0.0467767
0.0449611
0.043338
0.0420195
0.0412537
0.0412893
0.0421213
0.0435849
0.0454279
0.0473595
0.0491375
0.0506126
0.0517416
0.0525486
0.0530836
0.0534068
0.0535787
0.0536535
0.053675
0.0536754
0.0568744
0.0568437
0.0567578
0.0565819
0.0562709
0.0557719
0.0550305
0.0540013
0.0526614
0.0510225
0.0491413
0.0471174
0.0450803
0.0431587
0.0414488
0.0400203
0.0390726
0.0388461
0.0394025
0.040657
0.0424292
0.0444562
0.0464615
0.0482233
0.0496146
0.0506124
0.0512582
0.0516302
0.0518114
0.0518761
0.0518831
0.051874
0.0562265
0.0561945
0.0561023
0.0559101
0.0555657
0.055008
0.0541749
0.0530163
0.051512
0.0496874
0.0476236
0.0454485
0.0433079
0.0413223
0.0395518
0.0380047
0.0367983
0.0361258
0.0361051
0.0367514
0.0380046
0.0397032
0.0416181
0.043508
0.0451699
0.0464792
0.0473974
0.0479683
0.0482729
0.0484033
0.0484389
0.0484382
0.0554615
0.0554281
0.0553301
0.0551227
0.0547476
0.0541361
0.0532197
0.0519465
0.0503022
0.0483295
0.0461354
0.0438735
0.0417007
0.0397245
0.0379688
0.036378
0.034961
0.0338061
0.0330345
0.032745
0.0330065
0.0338034
0.0350345
0.0365355
0.0381121
0.0395735
0.0407782
0.0416597
0.0422256
0.0425381
0.0426779
0.0427195
0.0546139
0.0545798
0.0544789
0.0542639
0.0538726
0.0532321
0.0522701
0.0509347
0.0492184
0.047179
0.0449449
0.0426912
0.040588
0.0387429
0.0371657
0.0357598
0.0344107
0.0330252
0.0316606
0.0304633
0.0295999
0.0291808
0.0292408
0.0297425
0.030586
0.0316234
0.0326875
0.0336249
0.0343413
0.034812
0.0350673
0.0351652
0.0537539
0.0537205
0.0536224
0.0534144
0.0530354
0.0524132
0.0514757
0.0501708
0.0484932
0.0465061
0.0443487
0.0422127
0.0402912
0.0387173
0.0375215
0.0366021
0.0357252
0.0345415
0.0329881
0.0312332
0.0295176
0.0280463
0.0269498
0.0262848
0.0260441
0.0261641
0.0265367
0.0270285
0.0275107
0.0278912
0.0281312
0.0282365
0.0530348
0.0530035
0.0529141
0.0527271
0.052389
0.0518339
0.0509939
0.0498171
0.0482936
0.0464791
0.0445064
0.042571
0.0408867
0.0396247
0.0388606
0.0385218
0.0382983
0.0376096
0.0362219
0.034263
0.0320203
0.0298002
0.0278388
0.0262762
0.0251626
0.0244792
0.024158
0.0240999
0.0241932
0.0243362
0.0244566
0.0245196
0.0525621
0.052533
0.0524532
0.0522907
0.0520011
0.0515285
0.0508123
0.0498024
0.0484819
0.0468919
0.0451463
0.0434261
0.0419457
0.0408976
0.0403939
0.0404015
0.0406061
0.0403526
0.039278
0.0373798
0.0348806
0.0321279
0.0294706
0.0271737
0.0253797
0.0241172
0.0233323
0.0229236
0.0227713
0.0227606
0.0228001
0.0228328
0.0522994
0.0522724
0.0522011
0.0520601
0.0518137
0.051416
0.0508154
0.0499656
0.0488455
0.0474813
0.0459635
0.0444478
0.0431303
0.0422013
0.0417885
0.0418864
0.0422039
0.0421226
0.0412703
0.0395523
0.0370742
0.0341077
0.031013
0.0281445
0.0257556
0.023963
0.0227604
0.0220571
0.0217204
0.0216105
0.0216076
0.0216284
0.0521676
0.0521435
0.0520811
0.0519597
0.0517508
0.0514169
0.0509153
0.0502059
0.0492668
0.0481135
0.0468146
0.0454957
0.0443224
0.0434634
0.0430392
0.0430529
0.0432443
0.0430903
0.0422772
0.0406847
0.0383364
0.0353972
0.0321549
0.0289678
0.0261568
0.0239259
0.0223395
0.0213457
0.02082
0.0206087
0.0205653
0.0205771
0.0520758
0.0520576
0.052009
0.0519122
0.0517424
0.0514679
0.0510531
0.0504648
0.0496838
0.0487191
0.0476214
0.0464856
0.0454396
0.0446161
0.0441095
0.0439123
0.0438077
0.0434095
0.0424894
0.0409304
0.0387098
0.0359117
0.0327341
0.0294686
0.0264366
0.0239012
0.0220006
0.0207411
0.0200278
0.0197092
0.0196212
0.0196233
0.0519007
0.0518945
0.0518716
0.0518146
0.0516985
0.0514929
0.0511654
0.0506877
0.0500441
0.0492404
0.0483112
0.0473222
0.0463611
0.0455182
0.0448535
0.0443435
0.043835
0.0431037
0.0420085
0.0404405
0.0383421
0.0357345
0.0327447
0.0295868
0.0265283
0.0238381
0.0217122
0.0202257
0.0193327
0.018902
0.0187638
0.0187544
0.0514854
0.0515006
0.0515215
0.0515289
0.0514933
0.0513791
0.0511507
0.05078
0.0502517
0.0495674
0.0487477
0.0478322
0.0468742
0.0459281
0.0450264
0.0441385
0.0431939
0.0421263
0.0408628
0.0392963
0.0373437
0.0349741
0.0322473
0.029314
0.0263834
0.0236873
0.0214406
0.0197803
0.0187244
0.0181802
0.0179863
0.0179631
0.0506634
0.0507106
0.0507952
0.0508921
0.0509623
0.0509589
0.050836
0.0505581
0.0501052
0.0494735
0.0486738
0.0477299
0.0466752
0.0455455
0.044362
0.0431006
0.041775
0.0404447
0.0390766
0.0375578
0.0357883
0.0337009
0.0312999
0.028674
0.025978
0.0234017
0.0211454
0.0193808
0.018191
0.0175375
0.0172833
0.0172434
0.0492913
0.0493806
0.0495416
0.0497361
0.0499103
0.0500035
0.0499573
0.049724
0.049277
0.0486109
0.047736
0.0466748
0.0454585
0.0441205
0.0426841
0.0411382
0.0395614
0.0380916
0.0367111
0.0352991
0.0337476
0.0319712
0.0299364
0.0276788
0.0252981
0.0229402
0.0207795
0.0189944
0.0177153
0.016966
0.0166501
0.0165904
0.0472712
0.0474084
0.0476399
0.047902
0.0481246
0.0482408
0.0481893
0.0479154
0.0473915
0.0466194
0.0456174
0.0444161
0.0430532
0.0415663
0.039984
0.038306
0.0366458
0.0351727
0.0338716
0.0326193
0.0313085
0.0298515
0.0281952
0.0263378
0.0243303
0.0222706
0.0202986
0.0185819
0.0172751
0.0164563
0.0160824
0.016
0.044549
0.0447319
0.0449958
0.0452418
0.0453969
0.0454111
0.0452416
0.0448412
0.0441916
0.0433036
0.0422026
0.0409247
0.0395112
0.038001
0.0364242
0.034785
0.0332042
0.0318477
0.030699
0.029642
0.0285789
0.02743
0.0261383
0.0246811
0.0230738
0.0213699
0.0196664
0.0181047
0.0168428
0.0159961
0.0155762
0.0154698
0.0410902
0.0413
0.0415143
0.041614
0.0415617
0.0413564
0.0409904
0.0404357
0.0396858
0.0387495
0.0376491
0.0364168
0.0350895
0.0337011
0.0322781
0.0308254
0.0294512
0.0282981
0.0273488
0.0265039
0.0256813
0.0248153
0.0238548
0.0227703
0.0215566
0.0202344
0.0188581
0.017529
0.0163882
0.0155685
0.0151262
0.0149981
0.0368386
0.0370266
0.0370682
0.0368959
0.0365579
0.0361088
0.0355685
0.0349244
0.0341699
0.0333006
0.032327
0.0312699
0.0301559
0.0290099
0.0278522
0.0266869
0.0255992
0.0246995
0.0239724
0.0233406
0.0227413
0.022125
0.0214517
0.0206942
0.0198398
0.0188903
0.0178678
0.0168308
0.0158842
0.0151539
0.0147248
0.014583
0.0316737
0.0317443
0.031502
0.0310483
0.0305043
0.0299326
0.0293523
0.028751
0.0281147
0.027427
0.0266858
0.0258996
0.0250837
0.0242538
0.0234237
0.022596
0.0218303
0.0212022
0.0207004
0.0202716
0.0198729
0.0194709
0.0190381
0.0185545
0.018008
0.0173937
0.0167161
0.016
0.0153065
0.0147306
0.014361
0.0142222
0.0253733
0.0252203
0.0247708
0.0242627
0.0237599
0.023286
0.0228465
0.0224273
0.0220121
0.0215833
0.0211334
0.0206635
0.0201803
0.019692
0.0192063
0.0187249
0.0182818
0.0179198
0.0176326
0.0173897
0.0171671
0.0169457
0.0167104
0.0164494
0.0161552
0.0158233
0.0154526
0.0150501
0.0146414
0.0142772
0.0140205
0.0139108
0.0176711
0.0175518
0.0173214
0.0171001
0.0168968
0.0167135
0.0165504
0.0164012
0.0162587
0.0161153
0.015967
0.0158134
0.0156561
0.0154977
0.0153405
0.0151852
0.0150425
0.0149263
0.0148342
0.0147568
0.0146864
0.0146169
0.0145436
0.0144627
0.0143719
0.0142697
0.0141553
0.0140298
0.0138994
0.0137777
0.0136849
0.01364
)
;

boundaryField
{
    movingWall
    {
        type            fixedValue;
        value           uniform 0.0135;
    }
    fixedWalls
    {
        type            zeroGradient;
    }
    floor
    {
        type            zeroGradient;
    }
    frontAndBack
    {
        type            empty;
    }
}


// ************************************************************************* //
