/*--------------------------------*- C++ -*----------------------------------*\
| =========                 |                                                 |
| \\      /  F ield         | OpenFOAM: The Open Source CFD Toolbox           |
|  \\    /   O peration     | Version:  2206                                  |
|   \\  /    A nd           | Website:  www.openfoam.com                      |
|    \\/     M anipulation  |                                                 |
\*---------------------------------------------------------------------------*/
FoamFile
{
    version     2.0;
    format      ascii;
    arch        "LSB;label=64;scalar=64";
    class       volScalarField;
    location    "0.1/water";
    object      alpha.gas_0;
}
// * * * * * * * * * * * * * * * * * * * * * * * * * * * * * * * * * * * * * //

dimensions      [0 0 0 0 0 0 0];

internalField   nonuniform List<scalar> 
23300
(
1e-15
1e-15
1e-15
1e-15
1e-15
1e-15
1e-15
1e-15
1e-15
1e-15
1e-15
1e-15
1e-15
1e-15
1e-15
1e-15
1e-15
1e-15
1e-15
1e-15
1e-15
1e-15
1e-15
1e-15
1e-15
1e-15
1e-15
1e-15
1e-15
1e-15
1e-15
1e-15
1e-15
1e-15
1e-15
1e-15
1e-15
1e-15
1e-15
1e-15
1e-15
1e-15
1e-15
1e-15
1e-15
1e-15
1e-15
1e-15
1e-15
1e-15
1e-15
1e-15
1e-15
1e-15
1e-15
1e-15
1e-15
1e-15
1e-15
1e-15
1e-15
1e-15
1e-15
1e-15
1e-15
1e-15
1e-15
1e-15
1e-15
1e-15
1e-15
1e-15
1e-15
1e-15
1e-15
1e-15
1e-15
1e-15
1e-15
1e-15
1e-15
1e-15
1e-15
1e-15
1e-15
1e-15
1e-15
1e-15
1e-15
1e-15
1e-15
1e-15
1e-15
1e-15
1e-15
1e-15
1e-15
1e-15
1e-15
1e-15
1e-15
1e-15
1e-15
1e-15
1e-15
1e-15
1e-15
1e-15
1e-15
1e-15
1e-15
1e-15
1e-15
1e-15
1e-15
1e-15
1e-15
1e-15
1e-15
1e-15
1e-15
1e-15
1e-15
1e-15
1e-15
1e-15
1e-15
1e-15
1e-15
1e-15
1e-15
1e-15
1e-15
1e-15
1e-15
1e-15
1e-15
1e-15
1e-15
1e-15
1e-15
1e-15
1e-15
1e-15
1e-15
1e-15
1e-15
1e-15
1e-15
1e-15
1e-15
1e-15
1e-15
1e-15
1e-15
1e-15
1e-15
1e-15
1e-15
1e-15
1e-15
1e-15
1e-15
1e-15
1e-15
1e-15
1e-15
1e-15
1e-15
1e-15
1e-15
1e-15
1e-15
1e-15
1e-15
1e-15
1e-15
1e-15
1e-15
1e-15
1e-15
1e-15
1e-15
1e-15
1e-15
1e-15
1e-15
1e-15
1e-15
1e-15
1e-15
1e-15
1e-15
1e-15
1e-15
1e-15
1e-15
1e-15
1e-15
1e-15
1e-15
1e-15
1e-15
1e-15
1e-15
1e-15
1e-15
1e-15
1e-15
1e-15
1e-15
1e-15
1e-15
1e-15
1e-15
1e-15
1e-15
1e-15
1e-15
1e-15
1e-15
1e-15
1e-15
1e-15
1e-15
1e-15
1e-15
1e-15
1e-15
1e-15
1e-15
1e-15
1e-15
1e-15
1e-15
1e-15
1e-15
1e-15
1e-15
1e-15
1e-15
1e-15
1e-15
1e-15
1e-15
1e-15
1e-15
1e-15
1e-15
1e-15
1e-15
1e-15
1e-15
1e-15
1e-15
1e-15
1e-15
1e-15
1e-15
1e-15
1e-15
1e-15
1e-15
1e-15
1e-15
1e-15
1e-15
1e-15
1e-15
1e-15
1e-15
1e-15
1e-15
1e-15
1e-15
1e-15
1e-15
1e-15
1e-15
1e-15
1e-15
1e-15
1e-15
1e-15
1e-15
1e-15
1e-15
1e-15
1e-15
1e-15
1e-15
1e-15
1e-15
1e-15
1e-15
1e-15
1e-15
1e-15
1e-15
1e-15
1e-15
1e-15
1e-15
1e-15
1e-15
1e-15
1e-15
1e-15
1e-15
1e-15
1e-15
1e-15
1e-15
1e-15
1e-15
1e-15
1e-15
1e-15
1e-15
1e-15
1e-15
1e-15
1e-15
1e-15
1e-15
1e-15
1e-15
1e-15
1e-15
1e-15
1e-15
1e-15
1e-15
1e-15
1e-15
1e-15
1e-15
1e-15
1e-15
1e-15
1e-15
1e-15
1e-15
1e-15
1e-15
1e-15
1e-15
1e-15
1e-15
1e-15
1e-15
1e-15
1e-15
1e-15
1e-15
1e-15
1e-15
1e-15
1e-15
1e-15
1e-15
1e-15
1e-15
1e-15
1e-15
1e-15
1e-15
1e-15
1e-15
1e-15
1e-15
1e-15
1e-15
1e-15
1e-15
1e-15
1e-15
1e-15
1e-15
1e-15
1e-15
1e-15
1e-15
1e-15
1e-15
1e-15
1e-15
1e-15
1e-15
1e-15
1e-15
1e-15
1e-15
1e-15
1e-15
1e-15
1e-15
1e-15
1e-15
1e-15
1e-15
1e-15
1e-15
1e-15
1e-15
1e-15
1e-15
1e-15
1e-15
1e-15
1e-15
1e-15
1e-15
1e-15
1e-15
1e-15
1e-15
1e-15
1e-15
1e-15
1e-15
1e-15
1e-15
1e-15
1e-15
1e-15
1e-15
1e-15
1e-15
1e-15
1e-15
1e-15
1e-15
1e-15
1e-15
1e-15
1e-15
1e-15
1e-15
1e-15
1e-15
1e-15
1e-15
1e-15
1e-15
1e-15
1e-15
1e-15
1e-15
1e-15
1e-15
1e-15
1e-15
1e-15
1e-15
1e-15
1e-15
1e-15
1e-15
1e-15
1e-15
1e-15
1e-15
1e-15
1e-15
1e-15
1e-15
1e-15
1e-15
1e-15
1e-15
1e-15
1e-15
1e-15
1e-15
1e-15
1e-15
1e-15
1e-15
1e-15
1e-15
1e-15
1e-15
1e-15
1e-15
1e-15
1e-15
1e-15
1e-15
1e-15
1e-15
1e-15
1e-15
1e-15
1e-15
1e-15
1e-15
1e-15
1e-15
1e-15
1e-15
1e-15
1e-15
1e-15
1e-15
1e-15
1e-15
1e-15
1e-15
1e-15
1e-15
1e-15
1e-15
1e-15
1e-15
1e-15
1e-15
1e-15
1e-15
1e-15
1e-15
1e-15
1e-15
1e-15
1e-15
1e-15
1e-15
1e-15
1e-15
1e-15
1e-15
1e-15
1e-15
1e-15
1e-15
1e-15
1e-15
1e-15
1e-15
1e-15
1e-15
1e-15
1e-15
1e-15
1e-15
1e-15
1e-15
1e-15
1e-15
1e-15
1e-15
1e-15
1e-15
1e-15
1e-15
1e-15
1e-15
1e-15
1e-15
1e-15
1.00206495908e-15
1.00212113431e-15
1.00256040737e-15
1.00258392112e-15
1.00159036333e-15
1.00045752529e-15
1.00011263204e-15
1e-15
1e-15
1e-15
1e-15
1e-15
1e-15
1.00038970355e-15
1.0008464223e-15
1.00126605232e-15
1.00157576461e-15
1.00186521352e-15
1.00235083961e-15
1.00295717855e-15
1.003526893e-15
1.00421680718e-15
1.00495037566e-15
1.00571476512e-15
1.00657763978e-15
1.00731676114e-15
1.00810426165e-15
1.00894135087e-15
1.009630841e-15
1.01029179942e-15
1.01086012836e-15
1.01125209325e-15
1.0119833272e-15
1.01284541114e-15
1.0134854673e-15
1.01430365166e-15
1.0152183571e-15
1.01594707942e-15
1.01679018023e-15
1.01758535598e-15
1.01804943055e-15
1.01871726377e-15
1.01950422152e-15
1.02005915364e-15
1.02077017827e-15
1.02168876733e-15
1.02243967404e-15
1.02328759162e-15
1.02431563272e-15
1.02510485879e-15
1.02587645653e-15
1.02678071868e-15
1.02744930483e-15
1.02825335646e-15
1.02921526838e-15
1.02994581345e-15
1.03084582042e-15
1.03188768161e-15
1.03268169758e-15
1.03363522535e-15
1.0346796563e-15
1.03533738431e-15
1.03617813763e-15
1.03750951838e-15
1.03846936201e-15
1.03948800335e-15
1.04081638313e-15
1.04191779063e-15
1.04300525233e-15
1.04458006924e-15
1.0455466234e-15
1.04650710529e-15
1.04781623636e-15
1.04894812736e-15
1.04990075218e-15
1.05111008401e-15
1.05279441341e-15
1.05377849898e-15
1.05486477949e-15
1.05613877252e-15
1.05751761614e-15
1.05905458166e-15
1.06055228624e-15
1.06154208275e-15
1.06280355417e-15
1.06418507018e-15
1.06511227552e-15
1.06635402558e-15
1.06697799316e-15
1.06725244718e-15
1.0676261145e-15
1.06847984636e-15
1.06625075372e-15
1.06335076744e-15
1.05905670949e-15
1.05604142606e-15
1.05405805561e-15
1.05323978987e-15
1.05371119546e-15
1.05344789868e-15
1.05334700915e-15
1.05065878752e-15
1.04440742116e-15
1.04077857596e-15
1.03680879895e-15
1.03318369258e-15
1.03071616887e-15
1.02875991815e-15
1.0284618607e-15
1.02792105534e-15
1.02760100624e-15
1.02694718651e-15
1.02428306562e-15
1.02484316749e-15
1.02533132071e-15
1.02573036678e-15
1.02621801404e-15
1.02864099085e-15
1.02898909128e-15
1.03093626875e-15
1.03127945216e-15
1.03276939247e-15
1.03576460708e-15
1.03899235453e-15
1.04121397847e-15
1.04190827848e-15
1.04049974481e-15
1.04086314896e-15
1.04093689728e-15
1.04084629322e-15
1.04104385017e-15
1.04075774078e-15
1.03980075397e-15
1.03801580133e-15
1.03663458553e-15
1.03500882942e-15
1.03568473625e-15
1.03702130725e-15
1.03747903827e-15
1.03780271141e-15
1.06312048976e-15
1.06245647822e-15
1.0644450358e-15
1.06537050223e-15
1.06150796907e-15
1.05689953104e-15
1.05645599411e-15
1.05582773288e-15
1.05458906877e-15
1.05468577955e-15
1.05510378296e-15
1.0576012303e-15
1.06118841927e-15
1.0660105888e-15
1.06921665104e-15
1.07211556018e-15
1.07429661432e-15
1.07603721774e-15
1.07848071016e-15
1.08134865104e-15
1.08382243284e-15
1.08659626064e-15
1.08951419133e-15
1.09240808611e-15
1.09560774802e-15
1.0982502743e-15
1.10101433695e-15
1.10395689793e-15
1.10627565319e-15
1.10842055322e-15
1.11000732163e-15
1.11109750643e-15
1.11359760617e-15
1.11653085565e-15
1.11855196931e-15
1.12138058496e-15
1.12444536905e-15
1.12694411631e-15
1.12977429934e-15
1.13231193811e-15
1.13420428746e-15
1.13634988625e-15
1.13895569465e-15
1.14112400188e-15
1.14330450262e-15
1.14641339588e-15
1.14907919902e-15
1.15152213861e-15
1.15472204487e-15
1.15749937308e-15
1.15958414941e-15
1.16250274745e-15
1.16469330356e-15
1.1672299329e-15
1.17044505188e-15
1.17287680333e-15
1.17574006386e-15
1.17890996729e-15
1.18142544103e-15
1.18424643492e-15
1.18723831003e-15
1.1888253559e-15
1.19140240349e-15
1.1954771894e-15
1.19824287452e-15
1.20141234516e-15
1.20544186708e-15
1.20839283363e-15
1.21124974577e-15
1.21558965856e-15
1.21871097761e-15
1.22158107022e-15
1.22564901761e-15
1.22913031787e-15
1.23230791663e-15
1.23621309719e-15
1.24090594845e-15
1.24452458824e-15
1.24796616802e-15
1.25035593074e-15
1.25193421389e-15
1.25464037633e-15
1.25735831058e-15
1.25840581222e-15
1.25904477048e-15
1.25934696e-15
1.25822439209e-15
1.25699605338e-15
1.25399737335e-15
1.25062379246e-15
1.24774378149e-15
1.24665485066e-15
1.24395001338e-15
1.23982321412e-15
1.23284181812e-15
1.22627410371e-15
1.22164890108e-15
1.21814628045e-15
1.21804031643e-15
1.21757305266e-15
1.21926808072e-15
1.21749529777e-15
1.21067777758e-15
1.20624985545e-15
1.20077169685e-15
1.19475139902e-15
1.1892350058e-15
1.1840766983e-15
1.18084354842e-15
1.17723352895e-15
1.17422676075e-15
1.17040398403e-15
1.16451030694e-15
1.16320342046e-15
1.1619614615e-15
1.16209625867e-15
1.16210620274e-15
1.16540930164e-15
1.16773949325e-15
1.17081565625e-15
1.17056033852e-15
1.17239736488e-15
1.17680001371e-15
1.18411679903e-15
1.19119354539e-15
1.19700514477e-15
1.20017142143e-15
1.20510591419e-15
1.21017358638e-15
1.21432256846e-15
1.21747270057e-15
1.21750019458e-15
1.21605850035e-15
1.21317867225e-15
1.21010891571e-15
1.20693966305e-15
1.20876008008e-15
1.21231751609e-15
1.21528232646e-15
1.21766636379e-15
1.24446112099e-15
1.24242180963e-15
1.24572362114e-15
1.24681017568e-15
1.24048590727e-15
1.23329920477e-15
1.23415442303e-15
1.23442597221e-15
1.23324429512e-15
1.23237439743e-15
1.23300255084e-15
1.23867842881e-15
1.24506949336e-15
1.25298648544e-15
1.25780932127e-15
1.26179503694e-15
1.26445435713e-15
1.26652431753e-15
1.26951901288e-15
1.27319348087e-15
1.27635504806e-15
1.27935710513e-15
1.28254356283e-15
1.28534559583e-15
1.28842724818e-15
1.29103036961e-15
1.29377944401e-15
1.29651550815e-15
1.29860582436e-15
1.30108304553e-15
1.30219935055e-15
1.30339852064e-15
1.30663789317e-15
1.31008842275e-15
1.31221364387e-15
1.31597280182e-15
1.31988101992e-15
1.32315911525e-15
1.32686075521e-15
1.33016406389e-15
1.33385458139e-15
1.33688140249e-15
1.34039433979e-15
1.34440265749e-15
1.34721225933e-15
1.35139256576e-15
1.3554395225e-15
1.35820916996e-15
1.36192880618e-15
1.36622737981e-15
1.36895790889e-15
1.37305154252e-15
1.37664579438e-15
1.38051736065e-15
1.38556612103e-15
1.38975127975e-15
1.39423435432e-15
1.39861731902e-15
1.4029332213e-15
1.40745333748e-15
1.41170454517e-15
1.41420981463e-15
1.41841335794e-15
1.42453902042e-15
1.42921085712e-15
1.43424596263e-15
1.4407636981e-15
1.44556688408e-15
1.44987400722e-15
1.45645315285e-15
1.4624340563e-15
1.46760860674e-15
1.47477785547e-15
1.48093098268e-15
1.48618998471e-15
1.49138280759e-15
1.4962430855e-15
1.50109528144e-15
1.504965531e-15
1.50418941701e-15
1.50050436879e-15
1.49957801237e-15
1.500108326e-15
1.49894454353e-15
1.49766330455e-15
1.49430130365e-15
1.48989912187e-15
1.48489066299e-15
1.47896779575e-15
1.47317383159e-15
1.46844784024e-15
1.46664599934e-15
1.46819553161e-15
1.4680808395e-15
1.46520515191e-15
1.46111094874e-15
1.46033506112e-15
1.45867504029e-15
1.45874085442e-15
1.45976789562e-15
1.46535835454e-15
1.47038062259e-15
1.47317129774e-15
1.47509792995e-15
1.47496730885e-15
1.47346890522e-15
1.47170884924e-15
1.47037400697e-15
1.47046376016e-15
1.46990555155e-15
1.46703900067e-15
1.45926834647e-15
1.4509807335e-15
1.44397133485e-15
1.4364997802e-15
1.43280052772e-15
1.43150981995e-15
1.43366485339e-15
1.43745321548e-15
1.43574541002e-15
1.43097358771e-15
1.42944371004e-15
1.43161262879e-15
1.43981404619e-15
1.45024064655e-15
1.46177105046e-15
1.47287802477e-15
1.48480119554e-15
1.49708099686e-15
1.50801491235e-15
1.51554011237e-15
1.51783389978e-15
1.51890220104e-15
1.51892178554e-15
1.51801484077e-15
1.51701399086e-15
1.51897136538e-15
1.52162551446e-15
1.52534969274e-15
1.52916244242e-15
1.54887443886e-15
1.54592937662e-15
1.54854844815e-15
1.54909344904e-15
1.54542382991e-15
1.54164543541e-15
1.54530238451e-15
1.54778116268e-15
1.54809070492e-15
1.54608914082e-15
1.5450071714e-15
1.54948988751e-15
1.55309065701e-15
1.55680362761e-15
1.55778954942e-15
1.55792950788e-15
1.5574133181e-15
1.55703698261e-15
1.55731954606e-15
1.55816660552e-15
1.5589468589e-15
1.5587980823e-15
1.55906290277e-15
1.55878458996e-15
1.55880381772e-15
1.55940472157e-15
1.5603713021e-15
1.56074172602e-15
1.56144161636e-15
1.56390670767e-15
1.56493674246e-15
1.56691418631e-15
1.57028643101e-15
1.57322674015e-15
1.57529601412e-15
1.57906771911e-15
1.58318989275e-15
1.58670186163e-15
1.59054463326e-15
1.5945007902e-15
1.5997303504e-15
1.60357566037e-15
1.6075960718e-15
1.61315388886e-15
1.61662308365e-15
1.62084983083e-15
1.62560580824e-15
1.62880039971e-15
1.63229426751e-15
1.63741393249e-15
1.64149324931e-15
1.64625984296e-15
1.65133151714e-15
1.65625585576e-15
1.66250112571e-15
1.66830691575e-15
1.67418858686e-15
1.67932791313e-15
1.68524763334e-15
1.69159419024e-15
1.69711579243e-15
1.70145447194e-15
1.70706048069e-15
1.71374586485e-15
1.71993246043e-15
1.72581120688e-15
1.7333165945e-15
1.73943229814e-15
1.74486106072e-15
1.75213654838e-15
1.75956446685e-15
1.7662866406e-15
1.77492774375e-15
1.7823996955e-15
1.78767123909e-15
1.79082953328e-15
1.79163225809e-15
1.7932643374e-15
1.79442893433e-15
1.7907146875e-15
1.78325464552e-15
1.77843162196e-15
1.77670116609e-15
1.77486586981e-15
1.77474348766e-15
1.77226404997e-15
1.77063881371e-15
1.76818448592e-15
1.76682429466e-15
1.76572465004e-15
1.76610420503e-15
1.76887714081e-15
1.77559103427e-15
1.78132359751e-15
1.78488940185e-15
1.78753116133e-15
1.79482172697e-15
1.80051197681e-15
1.805800615e-15
1.81193155353e-15
1.82134746276e-15
1.83109670471e-15
1.84006879772e-15
1.84706330004e-15
1.85084274261e-15
1.85387142826e-15
1.85778294367e-15
1.86413827772e-15
1.87310849566e-15
1.88086417665e-15
1.88285275988e-15
1.87650703794e-15
1.86880370904e-15
1.85930839554e-15
1.84842373017e-15
1.84138851995e-15
1.84011965986e-15
1.84222897271e-15
1.84463102674e-15
1.83748813094e-15
1.82822387165e-15
1.82326927235e-15
1.82357923597e-15
1.83098407738e-15
1.84073188097e-15
1.85154305542e-15
1.86235530319e-15
1.87306893968e-15
1.88271571623e-15
1.89036070505e-15
1.89516763877e-15
1.8978780111e-15
1.90091242419e-15
1.9036377497e-15
1.90615617657e-15
1.90782720956e-15
1.90835249996e-15
1.90798593518e-15
1.90803791293e-15
1.91001381338e-15
1.94560605504e-15
1.94230594737e-15
1.94326835862e-15
1.94477581936e-15
1.94727228482e-15
1.94954009385e-15
1.95396704816e-15
1.95708855459e-15
1.95951291475e-15
1.95943041865e-15
1.95755193004e-15
1.95744563894e-15
1.95516467599e-15
1.95277720287e-15
1.94992363268e-15
1.94723403506e-15
1.94526851024e-15
1.94410098698e-15
1.94320616432e-15
1.94251053644e-15
1.94226324778e-15
1.94131061279e-15
1.94118574983e-15
1.94091487708e-15
1.94104325403e-15
1.94255211143e-15
1.94448479207e-15
1.94556232304e-15
1.94799973824e-15
1.95251243146e-15
1.95675684307e-15
1.96172782487e-15
1.96658241009e-15
1.97081463256e-15
1.9750548441e-15
1.97964620276e-15
1.9849761859e-15
1.98975635077e-15
1.99443722945e-15
2.00000542971e-15
2.006241794e-15
2.01157953034e-15
2.0167865016e-15
2.02325699516e-15
2.02825681723e-15
2.03298625605e-15
2.03840178512e-15
2.04341459307e-15
2.04794376262e-15
2.05385591488e-15
2.06011656229e-15
2.06588875565e-15
2.07236136438e-15
2.07813722822e-15
2.08491051385e-15
2.09161311309e-15
2.09852144961e-15
2.10449341539e-15
2.11094028879e-15
2.11835577283e-15
2.12512112387e-15
2.13152624316e-15
2.13779940726e-15
2.14364244496e-15
2.15004566033e-15
2.15574901681e-15
2.1622475496e-15
2.16807025661e-15
2.17344717557e-15
2.17897963244e-15
2.1849902249e-15
2.19132280082e-15
2.1984977899e-15
2.20492554476e-15
2.20866017307e-15
2.20929855876e-15
2.20650260599e-15
2.20454564589e-15
2.20395396124e-15
2.20411574274e-15
2.20215677899e-15
2.20046610358e-15
2.200861087e-15
2.20301526199e-15
2.20782645304e-15
2.21240885161e-15
2.21922511389e-15
2.22522677875e-15
2.23295166089e-15
2.24074014399e-15
2.25001768719e-15
2.2594348144e-15
2.27014283606e-15
2.28191598492e-15
2.29251315802e-15
2.30203094006e-15
2.31415311573e-15
2.3250992566e-15
2.33567592505e-15
2.34626487518e-15
2.35649878779e-15
2.36546569194e-15
2.37350007484e-15
2.38082876948e-15
2.38486984298e-15
2.38937212012e-15
2.39540669248e-15
2.40400979474e-15
2.41327875002e-15
2.41976288481e-15
2.4218799756e-15
2.41997957946e-15
2.4165567995e-15
2.41069951094e-15
2.40372385973e-15
2.39825402446e-15
2.39698268122e-15
2.3951812759e-15
2.39200741114e-15
2.38494176079e-15
2.3780135868e-15
2.37400910316e-15
2.3724584341e-15
2.37424171873e-15
2.37602659935e-15
2.37721382691e-15
2.37774628966e-15
2.37700748143e-15
2.37459107616e-15
2.37074291956e-15
2.36774349347e-15
2.36848846773e-15
2.3713610572e-15
2.37503462441e-15
2.37837035413e-15
2.37962639966e-15
2.37779716921e-15
2.37492083067e-15
2.371303699e-15
2.36978950846e-15
2.4426264707e-15
2.43779155406e-15
2.43682005322e-15
2.4386844214e-15
2.44546092538e-15
2.45159747382e-15
2.45485305143e-15
2.45732624735e-15
2.46108217464e-15
2.46524098225e-15
2.46701210573e-15
2.46655380196e-15
2.46456964301e-15
2.46339845979e-15
2.46401004796e-15
2.46591306883e-15
2.46900663243e-15
2.47276616191e-15
2.4763917929e-15
2.47993040541e-15
2.48414002432e-15
2.48900439976e-15
2.49486065394e-15
2.50119882195e-15
2.50796400295e-15
2.51553436997e-15
2.52309191362e-15
2.53055047107e-15
2.53928219009e-15
2.54863184304e-15
2.55902504464e-15
2.56919107583e-15
2.57806606901e-15
2.58688508855e-15
2.59585175171e-15
2.60258365297e-15
2.60948144222e-15
2.61635709344e-15
2.62300492753e-15
2.63081856109e-15
2.63816088319e-15
2.64576637773e-15
2.65315835295e-15
2.66057098335e-15
2.66819264931e-15
2.67538652089e-15
2.68269897883e-15
2.69101053079e-15
2.69887820753e-15
2.70702114945e-15
2.71602165679e-15
2.72414810771e-15
2.73257567462e-15
2.74009948271e-15
2.74800912164e-15
2.75597816159e-15
2.76435656043e-15
2.77215252847e-15
2.77934885373e-15
2.78747901288e-15
2.79585801137e-15
2.80452066234e-15
2.81179338301e-15
2.81791557949e-15
2.82486280063e-15
2.83142728884e-15
2.83771265812e-15
2.84339154778e-15
2.84840701828e-15
2.85197130266e-15
2.85625284517e-15
2.86190842089e-15
2.86714854662e-15
2.87238500636e-15
2.87644294798e-15
2.87926242997e-15
2.88068734156e-15
2.88229908086e-15
2.88676920291e-15
2.89791623029e-15
2.90999243883e-15
2.92041616282e-15
2.92930064866e-15
2.94061320129e-15
2.95349990934e-15
2.96823878251e-15
2.98391031902e-15
2.99893852792e-15
3.01399753062e-15
3.0287518765e-15
3.04440569527e-15
3.05807573771e-15
3.07107087718e-15
3.08683821587e-15
3.10179342862e-15
3.11324670001e-15
3.12146890512e-15
3.12864307613e-15
3.13654168398e-15
3.14377459062e-15
3.14749216175e-15
3.14884166285e-15
3.14885263265e-15
3.1497720997e-15
3.14883048039e-15
3.14923537894e-15
3.15063652848e-15
3.15071424497e-15
3.14596779435e-15
3.13708561288e-15
3.12927356292e-15
3.12602466505e-15
3.12318953002e-15
3.11947911104e-15
3.11613824756e-15
3.11178912061e-15
3.10626945693e-15
3.09445045452e-15
3.08270256853e-15
3.07724263313e-15
3.07523706435e-15
3.07318248235e-15
3.06703217671e-15
3.05709432106e-15
3.04501923835e-15
3.03204371872e-15
3.01885096956e-15
3.00479662606e-15
2.99098593641e-15
2.9788972737e-15
2.97037639161e-15
2.96880219108e-15
2.96994912552e-15
2.97321241137e-15
2.97556072333e-15
2.97508467616e-15
2.97233308838e-15
2.96875384455e-15
2.96550457413e-15
2.96214197973e-15
3.08511998521e-15
3.07558545586e-15
3.07144627105e-15
3.06948781789e-15
3.07613506195e-15
3.08461628177e-15
3.08967558828e-15
3.09479865522e-15
3.10165256401e-15
3.1111478723e-15
3.120853739e-15
3.12815687655e-15
3.13574374316e-15
3.14484189335e-15
3.15641041826e-15
3.16942035591e-15
3.18293777965e-15
3.19664201233e-15
3.20990609298e-15
3.22305092868e-15
3.23682653031e-15
3.25235436347e-15
3.26843271462e-15
3.2852781249e-15
3.30242086521e-15
3.31902816736e-15
3.33524254108e-15
3.35247449208e-15
3.37000643891e-15
3.38671343441e-15
3.40456547213e-15
3.42194447089e-15
3.43842609071e-15
3.45537088304e-15
3.47064442686e-15
3.48010592349e-15
3.48739265599e-15
3.49539951189e-15
3.50471963591e-15
3.51513892539e-15
3.52439929071e-15
3.53457025268e-15
3.54526924232e-15
3.55590868565e-15
3.56823974698e-15
3.58104768215e-15
3.59346426044e-15
3.60706956819e-15
3.62093717762e-15
3.63446546452e-15
3.64818226809e-15
3.66148179271e-15
3.67451644524e-15
3.68702942908e-15
3.69955346179e-15
3.71226833859e-15
3.72511982488e-15
3.73772692017e-15
3.74941566964e-15
3.76128132543e-15
3.77396854731e-15
3.78727951248e-15
3.7993083954e-15
3.81077451441e-15
3.82253998851e-15
3.83452122193e-15
3.84586714707e-15
3.85558207443e-15
3.86330169602e-15
3.86901638598e-15
3.87578947441e-15
3.88455479606e-15
3.89246657441e-15
3.90074343856e-15
3.90997906744e-15
3.92172794244e-15
3.93605054458e-15
3.95028655058e-15
3.96626480245e-15
3.98823256151e-15
4.01266488474e-15
4.03590064828e-15
4.05573245815e-15
4.07732199495e-15
4.09931511879e-15
4.12302857559e-15
4.14521628314e-15
4.1663841213e-15
4.18489506334e-15
4.20191546047e-15
4.21805216551e-15
4.23112771014e-15
4.2433792472e-15
4.25864314062e-15
4.27255484535e-15
4.28039065288e-15
4.27833080214e-15
4.27493193477e-15
4.27403032248e-15
4.27233999969e-15
4.26322889683e-15
4.24992946811e-15
4.23445173774e-15
4.2199955184e-15
4.20573663839e-15
4.19242992214e-15
4.17885817231e-15
4.16022961747e-15
4.13429280719e-15
4.10535849047e-15
4.08176642507e-15
4.06770543907e-15
4.05609717389e-15
4.04541419218e-15
4.0362715687e-15
4.025175829e-15
4.00960684073e-15
3.98619872397e-15
3.96518099948e-15
3.95483509853e-15
3.94901773336e-15
3.941063725e-15
3.92565999643e-15
3.90299508527e-15
3.87813169225e-15
3.85335126158e-15
3.8293015106e-15
3.80622339528e-15
3.78574124017e-15
3.77043413406e-15
3.75818809031e-15
3.7517459849e-15
3.74730322637e-15
3.74616541027e-15
3.74677973898e-15
3.74731892607e-15
3.74775358512e-15
3.74731180551e-15
3.74892376511e-15
3.74738649465e-15
3.92899979829e-15
3.91019000308e-15
3.90028379726e-15
3.89049347348e-15
3.89442938174e-15
3.90703336854e-15
3.92006089964e-15
3.93406416355e-15
3.94926363677e-15
3.96675036692e-15
3.98694580511e-15
4.00740347603e-15
4.02927596132e-15
4.05259572854e-15
4.07756980044e-15
4.10322636898e-15
4.12864960959e-15
4.15403056703e-15
4.17893097746e-15
4.20380723148e-15
4.22924330561e-15
4.25614246374e-15
4.2828463952e-15
4.31014678631e-15
4.33760787068e-15
4.36392812954e-15
4.39017392213e-15
4.41775541181e-15
4.44502250539e-15
4.47147403927e-15
4.49828583271e-15
4.5251763028e-15
4.55246032865e-15
4.57949629047e-15
4.60122607873e-15
4.61281427529e-15
4.61883794577e-15
4.62558401279e-15
4.63674252856e-15
4.64956319381e-15
4.66011427648e-15
4.67148933856e-15
4.68607313031e-15
4.70307509566e-15
4.72285740445e-15
4.74384183197e-15
4.76450513849e-15
4.78564970116e-15
4.80734555295e-15
4.8287828279e-15
4.84973961318e-15
4.87055640594e-15
4.89089442328e-15
4.91128794253e-15
4.93177628444e-15
4.95268340865e-15
4.97319924312e-15
4.99341021359e-15
5.01340366908e-15
5.03320197422e-15
5.05356184958e-15
5.074737061e-15
5.09592836239e-15
5.11738705287e-15
5.13855644655e-15
5.16023823447e-15
5.18142457835e-15
5.19976353234e-15
5.21465310703e-15
5.22761429156e-15
5.24189393552e-15
5.25878809057e-15
5.27543648537e-15
5.29229672323e-15
5.31080908787e-15
5.33342989121e-15
5.36059843329e-15
5.38794296885e-15
5.41444355636e-15
5.44198813964e-15
5.47115272846e-15
5.50040067145e-15
5.52833049959e-15
5.55727944207e-15
5.58684604161e-15
5.61734852728e-15
5.64598594603e-15
5.67264184149e-15
5.6943898291e-15
5.71157874476e-15
5.72347086253e-15
5.72867489271e-15
5.73324044028e-15
5.74241610742e-15
5.7525672238e-15
5.75668789777e-15
5.74634674034e-15
5.73418170007e-15
5.72697151654e-15
5.72034381843e-15
5.70110787765e-15
5.67230944025e-15
5.64034939962e-15
5.60913716127e-15
5.58023197218e-15
5.54954979057e-15
5.51508593981e-15
5.47586701421e-15
5.43295590662e-15
5.39037795448e-15
5.35365387583e-15
5.32521859474e-15
5.29980838773e-15
5.27489803524e-15
5.25091043583e-15
5.22564723152e-15
5.19698225103e-15
5.16382664297e-15
5.1333446659e-15
5.10969276873e-15
5.0883824273e-15
5.06498790891e-15
5.03656672455e-15
5.00368287572e-15
4.97020823264e-15
4.9375800051e-15
4.90593693584e-15
4.87655783202e-15
4.85008650623e-15
4.82921087127e-15
4.80935559756e-15
4.79176684808e-15
4.77507449061e-15
4.76266075314e-15
4.75907432343e-15
4.76387786909e-15
4.77185982995e-15
4.77925600054e-15
4.78656917137e-15
4.7887505439e-15
5.02832763946e-15
4.99612356843e-15
4.97776101859e-15
4.95982730523e-15
4.96286851884e-15
4.98334302858e-15
5.00880902431e-15
5.03596298461e-15
5.06415717078e-15
5.09325076355e-15
5.12501640266e-15
5.15884791742e-15
5.19377702138e-15
5.22979064269e-15
5.26648904134e-15
5.30316308706e-15
5.33957949654e-15
5.37601623301e-15
5.41214881243e-15
5.4483384566e-15
5.48518239178e-15
5.52235279569e-15
5.5588947774e-15
5.59577539406e-15
5.63274804283e-15
5.6689590427e-15
5.70572078803e-15
5.74322086568e-15
5.78050197989e-15
5.81771191154e-15
5.85449513508e-15
5.89132227852e-15
5.92831910196e-15
5.9624443185e-15
5.98786527408e-15
6.00065281895e-15
6.00564548898e-15
6.01042291197e-15
6.02152212265e-15
6.03532379196e-15
6.04499798545e-15
6.0555461627e-15
6.07410790322e-15
6.09875272131e-15
6.12718420837e-15
6.15651613493e-15
6.18572384205e-15
6.21479752887e-15
6.2438941326e-15
6.272653546e-15
6.30071265933e-15
6.32837984504e-15
6.3554728376e-15
6.38290066272e-15
6.4108119594e-15
6.43940304827e-15
6.46741555961e-15
6.49503196766e-15
6.52333737468e-15
6.55193851731e-15
6.58061281359e-15
6.61028586945e-15
6.64105976246e-15
6.67231453439e-15
6.7031559847e-15
6.73435765283e-15
6.76525581329e-15
6.79341041198e-15
6.81815819065e-15
6.841378846e-15
6.86586785228e-15
6.89311476249e-15
6.92101503709e-15
6.94907356684e-15
6.97805149706e-15
7.00955663029e-15
7.04446632215e-15
7.07971137525e-15
7.11314916252e-15
7.1451648133e-15
7.17752139448e-15
7.21025029129e-15
7.24437815845e-15
7.2787002109e-15
7.312927169e-15
7.34741189546e-15
7.38106935967e-15
7.4124395804e-15
7.43877967658e-15
7.45675154525e-15
7.46384493825e-15
7.45440687047e-15
7.44366094771e-15
7.44270544832e-15
7.44869763328e-15
7.45022495104e-15
7.43613351991e-15
7.41962152382e-15
7.40915321714e-15
7.4026200099e-15
7.38157890153e-15
7.3455531102e-15
7.30801794686e-15
7.27377155612e-15
7.24394895927e-15
7.20842251066e-15
7.16321311433e-15
7.11541610879e-15
7.06907972733e-15
7.02571489212e-15
6.98631727348e-15
6.95123812285e-15
6.91829465702e-15
6.88177351896e-15
6.84277122673e-15
6.80310586241e-15
6.76279351995e-15
6.72176322433e-15
6.68163282584e-15
6.64204705377e-15
6.60205967229e-15
6.56123500948e-15
6.51970952396e-15
6.47828974404e-15
6.43763011104e-15
6.3976479462e-15
6.35821770696e-15
6.32087462634e-15
6.28488703538e-15
6.25159086146e-15
6.21837458279e-15
6.18425436473e-15
6.15034933911e-15
6.12098465068e-15
6.1076418677e-15
6.11401792219e-15
6.13003858616e-15
6.14691527506e-15
6.15496884497e-15
6.15826876488e-15
6.43469568915e-15
6.38785952826e-15
6.36112080206e-15
6.34013622776e-15
6.34914819233e-15
6.3807506696e-15
6.41904763559e-15
6.45911067855e-15
6.50058644322e-15
6.54234706039e-15
6.58521630455e-15
6.62974797738e-15
6.67455700634e-15
6.72013863476e-15
6.76597115474e-15
6.81156558186e-15
6.85737385096e-15
6.90343072759e-15
6.94940035193e-15
6.99535642434e-15
7.0419973509e-15
7.0879733918e-15
7.13331751346e-15
7.17886030369e-15
7.22431958604e-15
7.26927171765e-15
7.3146851319e-15
7.35993495132e-15
7.40512379955e-15
7.45049152504e-15
7.49470281302e-15
7.5373495097e-15
7.57704494509e-15
7.61007691403e-15
7.63388920302e-15
7.64878356707e-15
7.65814885144e-15
7.66594336192e-15
7.67780539454e-15
7.69227296715e-15
7.70149603344e-15
7.7131349865e-15
7.73746872283e-15
7.76955184165e-15
7.80576000306e-15
7.84198786819e-15
7.87791964281e-15
7.91350590805e-15
7.94840695886e-15
7.98246269259e-15
8.01582476131e-15
8.04868152588e-15
8.08092793184e-15
8.11368360075e-15
8.14761978876e-15
8.18259792411e-15
8.21733859082e-15
8.25208197504e-15
8.2881492851e-15
8.32522603388e-15
8.36220092317e-15
8.40014130978e-15
8.43927292635e-15
8.4787102747e-15
8.51803915148e-15
8.55745383899e-15
8.59702551535e-15
8.63571066067e-15
8.67284534605e-15
8.70945124012e-15
8.74681168537e-15
8.78558242213e-15
8.82525221079e-15
8.8653679667e-15
8.90565555732e-15
8.94635380058e-15
8.98851651779e-15
9.03091561159e-15
9.07231385075e-15
9.11294273503e-15
9.15347406823e-15
9.19399925531e-15
9.2360812163e-15
9.27541724226e-15
9.3090494647e-15
9.33926911239e-15
9.36698338419e-15
9.39342454878e-15
9.41903086257e-15
9.43668515326e-15
9.44074431344e-15
9.41930537449e-15
9.39526645076e-15
9.38535745418e-15
9.38633374016e-15
9.37964251919e-15
9.35910673848e-15
9.3357618804e-15
9.31606027424e-15
9.30414860841e-15
9.28291109618e-15
9.24836257404e-15
9.21790427656e-15
9.19596865194e-15
9.17998821951e-15
9.15752207414e-15
9.12419321095e-15
9.09015681592e-15
9.05999207974e-15
9.03250977078e-15
9.00567058917e-15
8.97912844105e-15
8.95254557427e-15
8.91565035662e-15
8.86989057787e-15
8.82223923147e-15
8.77519375062e-15
8.72836035197e-15
8.68053147376e-15
8.63044443729e-15
8.57906854175e-15
8.52734812234e-15
8.47642409835e-15
8.42701902668e-15
8.37803295717e-15
8.32883033274e-15
8.27972742624e-15
8.23170368697e-15
8.18347054898e-15
8.13443033018e-15
8.08586983221e-15
8.03528727917e-15
7.98476110882e-15
7.93724893524e-15
7.90584735656e-15
7.90168300055e-15
7.91975620957e-15
7.94314223111e-15
7.94457311266e-15
7.94448388016e-15
8.20828646434e-15
8.14813607264e-15
8.11724014752e-15
8.10376192565e-15
8.12922591262e-15
8.1738506236e-15
8.2229117454e-15
8.27286991964e-15
8.32478848197e-15
8.37721837143e-15
8.42969842452e-15
8.48265039228e-15
8.53556312826e-15
8.58867464795e-15
8.64141679234e-15
8.69376677639e-15
8.74697008734e-15
8.80089926032e-15
8.85483844272e-15
8.9081804504e-15
8.96156813189e-15
9.01355657057e-15
9.06500841964e-15
9.1165661291e-15
9.16775238439e-15
9.21779946176e-15
9.26692741309e-15
9.31502107572e-15
9.36289213231e-15
9.41055610539e-15
9.45634210873e-15
9.49816745879e-15
9.53283918496e-15
9.55851290828e-15
9.57856956185e-15
9.60056886704e-15
9.62540390202e-15
9.64757730407e-15
9.66752935925e-15
9.68799069428e-15
9.70420568537e-15