/*--------------------------------*- C++ -*----------------------------------*\
| =========                 |                                                 |
| \\      /  F ield         | OpenFOAM: The Open Source CFD Toolbox           |
|  \\    /   O peration     | Version:  2206                                  |
|   \\  /    A nd           | Website:  www.openfoam.com                      |
|    \\/     M anipulation  |                                                 |
\*---------------------------------------------------------------------------*/
FoamFile
{
    version     2.0;
    format      ascii;
    arch        "LSB;label=64;scalar=64";
    class       volScalarField;
    location    "0.1/water";
    object      Ct2;
}
// * * * * * * * * * * * * * * * * * * * * * * * * * * * * * * * * * * * * * //

dimensions      [0 0 0 0 0 0 0];

internalField   nonuniform List<scalar> 
23300
(
8.97515852244
8.97518647954
8.97521910758
8.97525165795
8.97528313206
8.9753132267
8.97534184647
8.9753689722
8.97539462816
8.97541885323
8.9754417034
8.97546323359
8.97548350785
8.97550258394
8.97552052574
8.97553738836
8.97555323206
8.97556810733
8.97558206901
8.9755951616
8.97560743467
8.97561892752
8.97562968488
8.9756397412
8.97564913659
8.97565790035
8.97566606792
8.97567366473
8.97568072317
8.97568726523
8.9756933197
8.97569890467
8.97570404629
8.9757087605
8.975713071
8.97571699065
8.9757205409
8.97572373306
8.97572658683
8.97572911104
8.97573132373
8.97573323279
8.97573485503
8.97573619697
8.97573727523
8.97573809607
8.97573867259
8.97573900617
8.97573910935
8.97573898508
8.97573864512
8.97573809227
8.97573733966
8.9757363923
8.97573526433
8.97573395656
8.97573247441
8.97573081463
8.97572898473
8.97572698365
8.97572481948
8.97572249174
8.97572000829
8.97571736761
8.97571457747
8.97571163649
8.97570855136
8.97570532002
8.97570194962
8.97569843774
8.97569479027
8.97569100462
8.97568708734
8.97568303513
8.97567885329
8.97567453859
8.9756700971
8.97566552495
8.97566082682
8.97565599864
8.97565104604
8.9756459649
8.97564075957
8.97563542487
8.97562996569
8.97562437756
8.97561866525
8.9756128229
8.97560685425
8.97560075376
8.9755945258
8.97558816505
8.97558167539
8.97557505002
8.9755682921
8.9755613953
8.97555436293
8.9755471888
8.97553987626
8.97553241844
8.97552481729
8.97551706553
8.97550916542
8.97550110967
8.97549290026
8.97548452977
8.97547600003
8.97546730362
8.97545844143
8.9754494051
8.97544019517
8.97543080353
8.97542123046
8.97541146754
8.97540151464
8.97539136329
8.97538101277
8.9753704544
8.97535968706
8.97534870207
8.97533749777
8.9753260653
8.97531440263
8.975302501
8.97529035804
8.97527796526
8.97526531989
8.97525241389
8.97523924463
8.97522580514
8.97521209358
8.9751981053
8.97518384133
8.97516930353
8.97515450359
8.97513946798
8.97512433801
8.97511088986
8.97512225173
8.9752646488
8.97523260366
8.97523074756
8.97522884309
8.97522691302
8.97522502932
8.9752232261
8.97522152453
8.97521993584
8.97521847108
8.97521713452
8.97521593256
8.97521486531
8.97521393605
8.97521314125
8.97521248132
8.97521194984
8.97521154499
8.97521125783
8.97521108508
8.97521101618
8.9752110468
8.97521116537
8.97521136716
8.97521164015
8.97521197981
8.97521237437
8.97521282001
8.97521330538
8.97521382762
8.97521437613
8.97521494932
8.9752155376
8.97521614074
8.97521675005
8.97521736652
8.9752179825
8.97521860009
8.97521921227
8.97521982197
8.97522042261
8.97522101707
8.9752215952
8.97522214569
8.97522264248
8.97522306257
8.97522335505
8.97522352602
8.97522364956
8.97522373917
8.97522378359
8.97522380098
8.97522382171
8.97522384573
8.97522385501
8.97522384409
8.97522380658
8.97522375896
8.97522371021
8.97522367258
8.97522364495
8.97522363339
8.97522363428
8.97522365264
8.97522368426
8.97522373366
8.97522379649
8.97522387717
8.97522397127
8.97522408309
8.97522420825
8.97522435111
8.97522450718
8.97522468068
8.97522486713
8.97522507083
8.97522528723
8.97522552048
8.97522576603
8.97522602816
8.97522630228
8.97522659244
8.97522689407
8.97522721131
8.9752275396
8.97522788297
8.97522823675
8.97522860488
8.97522898286
8.97522937467
8.97522977573
8.97523018985
8.97523061245
8.97523104735
8.97523149018
8.97523194464
8.97523240637
8.975232879
8.97523335816
8.97523384734
8.97523434238
8.97523484669
8.97523535631
8.97523587447
8.97523639726
8.97523692779
8.97523746228
8.97523800368
8.97523854833
8.97523909916
8.97523965258
8.9752402115
8.97524077241
8.97524133797
8.97524190498
8.97524247591
8.97524304756
8.97524362239
8.9752441975
8.975244775
8.97524535211
8.97524593087
8.97524650881
8.97524708768
8.9752476652
8.97524824287
8.97524881863
8.97524939386
8.97524996676
8.97525053838
8.97525110718
8.97525167395
8.97525223739
8.97525279802
8.97525335478
8.9752539078
8.97525445613
8.9752549833
8.9752547793
8.97522871702
8.97476559322
8.97538207207
8.97538199026
8.97538190567
8.97538181609
8.97538172335
8.97538162915
8.97538153428
8.97538143989
8.97538134641
8.97538125473
8.97538116537
8.97538107906
8.97538099625
8.97538091749
8.97538084313
8.97538077354
8.97538070894
8.97538064951
8.97538059536
8.97538054653
8.97538050303
8.97538046478
8.97538043172
8.97538040366
8.97538038049
8.97538036198
8.975380348
8.97538033828
8.97538033266
8.97538033086
8.97538033274
8.97538033801
8.97538034657
8.97538035811
8.97538037255
8.97538038959
8.97538040918
8.97538043101
8.97538045505
8.97538048095
8.97538050856
8.97538053667
8.97538056308
8.97538058701
8.97538060692
8.97538062107
8.97538063213
8.97538064152
8.97538064885
8.97538065358
8.9753806587
8.97538066445
8.97538067047
8.9753806766
8.97538068487
8.97538069456
8.97538070611
8.97538071916
8.97538073414
8.97538075052
8.97538076864
8.97538078791
8.97538080869
8.97538083035
8.97538085329
8.97538087687
8.97538090151
8.97538092656
8.97538095246
8.97538097857
8.97538100537
8.9753810322
8.97538105956
8.97538108678
8.97538111442
8.97538114178
8.97538116944
8.9753811967
8.97538122418
8.97538125115
8.97538127827
8.9753813048
8.97538133142
8.97538135737
8.97538138336
8.97538140862
8.9753814339
8.97538145839
8.97538148287
8.97538150652
8.97538153015
8.97538155292
8.97538157566
8.97538159752
8.97538161935
8.97538164027
8.97538166117
8.97538168116
8.97538170112
8.97538172017
8.9753817392
8.97538175733
8.97538177544
8.97538179265
8.97538180986
8.97538182617
8.97538184249
8.97538185792
8.97538187337
8.97538188795
8.97538190254
8.97538191629
8.97538193006
8.97538194299
8.97538195595
8.97538196809
8.97538198026
8.97538199163
8.97538200303
8.97538201366
8.97538202429
8.9753820342
8.9753820441
8.9753820533
8.97538206247
8.97538207099
8.97538207945
8.9753820873
8.97538209505
8.97538210224
8.9753821093
8.97538211585
8.97538212221
8.97538212814
8.97538213383
8.97538213883
8.97538212604
8.97538137165
8.97535493032
8.97500344935
8.9753696439
8.9753696355
8.97536961626
8.97536958739
8.97536954951
8.97536950336
8.97536944876
8.97536938615
8.97536931558
8.97536923767
8.97536915253
8.97536906088
8.97536896302
8.97536885968
8.97536875124
8.97536863845
8.97536852172
8.97536840182
8.97536827918
8.97536815456
8.9753680284
8.97536790144
8.97536777411
8.97536764713
8.9753675209
8.97536739611
8.97536727309
8.97536715249
8.9753670346
8.97536691999
8.97536680888
8.97536670177
8.97536659881
8.97536650042
8.97536640668
8.97536631792
8.97536623417
8.97536615566
8.97536608236
8.97536601442
8.97536595177
8.97536589446
8.97536584235
8.97536579545
8.97536575362
8.97536571679
8.97536568487
8.97536565775
8.97536563527
8.97536561724
8.97536560356
8.97536559397
8.97536558833
8.97536558634
8.97536558795
8.97536559279
8.97536560083
8.97536561168
8.97536562534
8.9753656414
8.9753656599
8.9753656804
8.97536570298
8.9753657272
8.97536575316
8.9753657804
8.97536580907
8.9753658387
8.97536586948
8.97536590093
8.97536593325
8.97536596599
8.97536599938
8.97536603294
8.97536606694
8.97536610092
8.97536613516
8.97536616919
8.97536620334
8.97536623711
8.97536627088
8.97536630414
8.9753663373
8.97536636982
8.97536640216
8.97536643377
8.97536646514
8.9753664957
8.97536652597
8.97536655536
8.97536658443
8.97536661257
8.97536664036
8.97536666719
8.97536669366
8.97536671913
8.97536674424
8.97536676834
8.97536679208
8.9753668148
8.97536683716
8.9753668585
8.97536687949
8.97536689946
8.9753669191
8.97536693772
8.97536695604
8.97536697334
8.97536699035
8.97536700636
8.97536702209
8.97536703685
8.97536705134
8.97536706488
8.97536707817
8.97536709052
8.97536710263
8.97536711383
8.9753671248
8.97536713489
8.97536714476
8.97536715377
8.97536716255
8.97536717053
8.97536717827
8.97536718523
8.97536719195
8.97536719794
8.97536720366
8.9753672087
8.97536721346
8.97536721758
8.97536722139
8.97536722466
8.97536722753
8.97536722959
8.97536721174
8.97536637642
8.97533798368
8.97505417587
8.9753754085
8.97537540149
8.97537538044
8.97537534706
8.97537530227
8.97537524657
8.97537517991
8.97537510284
8.97537501536
8.97537491807
8.97537481132
8.97537469575
8.97537457186
8.97537444038
8.97537430194
8.97537415731
8.97537400719
8.97537385237
8.97537369363
8.97537353175
8.97537336752
8.97537320174
8.97537303517
8.97537286858
8.97537270271
8.97537253828
8.97537237597
8.97537221642
8.97537206024
8.97537190798
8.97537176017
8.97537161726
8.97537147968
8.97537134776
8.97537122186
8.97537110218
8.97537098899
8.97537088239
8.97537078257
8.97537068951
8.97537060336
8.97537052398
8.97537045147
8.9753703856
8.97537032643
8.97537027366
8.97537022731
8.97537018702
8.97537015281
8.97537012423
8.97537010131
8.97537008356
8.97537007099
8.97537006306
8.97537005984
8.97537006076
8.97537006589
8.97537007465
8.97537008713
8.97537010275
8.97537012161
8.97537014311
8.97537016741
8.97537019389
8.97537022273
8.97537025332
8.97537028586
8.97537031976
8.97537035524
8.9753703917
8.97537042941
8.97537046777
8.97537050708
8.97537054673
8.97537058708
8.97537062749
8.97537066837
8.97537070908
8.97537075006
8.97537079067
8.97537083137
8.97537087153
8.97537091165
8.97537095107
8.97537099033
8.97537102877
8.97537106696
8.97537110423
8.97537114117
8.97537117711
8.97537121267
8.97537124716
8.97537128123
8.97537131418
8.97537134668
8.97537137803
8.97537140892
8.97537143863
8.97537146787
8.97537149591
8.97537152349
8.97537154987
8.97537157579
8.97537160051
8.97537162478
8.97537164786
8.97537167051
8.97537169197
8.97537171302
8.9753717329
8.97537175238
8.97537177072
8.97537178868
8.97537180551
8.97537182197
8.97537183734
8.97537185235
8.9753718663
8.97537187989
8.97537189247
8.97537190468
8.97537191592
8.9753719268
8.97537193674
8.97537194632
8.97537195501
8.97537196333
8.97537197079
8.97537197787
8.97537198415
8.97537199003
8.97537199517
8.97537199988
8.97537200392
8.97537200749
8.97537201005
8.97537199092
8.97537109255
8.97534145613
8.97512408862
8.97537769543
8.97537768636
8.97537766083
8.9753776206
8.97537756653
8.97537749941
8.9753774192
8.97537732632
8.97537722105
8.97537710396
8.97537697546
8.97537683625
8.97537668695
8.97537652835
8.97537636122
8.97537618639
8.97537600476
8.9753758172
8.97537562467
8.97537542808
8.97537522841
8.97537502657
8.97537482355
8.97537462021
8.97537441752
8.97537421629
8.9753740174
8.97537382159
8.97537362967
8.97537344225
8.97537326004
8.97537308354
8.97537291334
8.97537274981
8.97537259344
8.97537244445
8.97537230323
8.97537216985
8.97537204462
8.97537192749
8.97537181868
8.97537171801
8.97537162565
8.97537154129
8.97537146507
8.97537139658
8.97537133591
8.97537128259
8.97537123667
8.97537119763
8.97537116549
8.97537113968
8.97537112022
8.97537110646
8.97537109847
8.9753710956
8.97537109792
8.97537110475
8.97537111618
8.97537113151
8.97537115086
8.97537117354
8.97537119969
8.9753712286
8.97537126045
8.97537129455
8.9753713311
8.9753713694
8.9753714097
8.97537145131
8.97537149451
8.9753715386
8.97537158392
8.97537162977
8.97537167651
8.97537172346
8.97537177101
8.97537181849
8.97537186632
8.97537191382
8.97537196147
8.97537200857
8.97537205564
8.97537210198
8.97537214814
8.97537219343
8.97537223841
8.97537228239
8.97537232597
8.97537236845
8.97537241045
8.97537245128
8.97537249157
8.97537253062
8.9753725691
8.97537260629
8.9753726429
8.97537267818
8.97537271286
8.9753727462
8.97537277893
8.97537281031
8.97537284109
8.97537287052
8.97537289936
8.97537292685
8.97537295377
8.97537297936
8.97537300439
8.97537302811
8.97537305128
8.97537307317
8.97537309452
8.97537311463
8.97537313421
8.97537315258
8.97537317044
8.97537318711
8.9753732033
8.97537321833
8.97537323288
8.97537324632
8.97537325928
8.97537327117
8.97537328259
8.97537329298
8.97537330289
8.97537331183
8.97537332027
8.97537332779
8.9753733348
8.97537334095
8.97537334656
8.9753733514
8.97537335563
8.97537335871
8.97537333825
8.97537237514
8.97534164673
8.975183304
8.97538060405
8.97538059267
8.97538056227
8.97538051465
8.9753804509
8.97538037164
8.97538027696
8.97538016748
8.97538004335
8.97537990526
8.97537975372
8.97537958949
8.97537941327
8.97537922596
8.97537902842
8.97537882163
8.97537860662
8.9753783844
8.97537815611
8.97537792279
8.97537768563
8.97537744569
8.97537720415
8.97537696204
8.97537672051
8.97537648052
8.97537624315
8.97537600927
8.97537577985
8.97537555563
8.97537533747
8.97537512597
8.97537492185
8.97537472554
8.97537453765
8.97537435844
8.97537418839
8.9753740276
8.97537387644
8.97537373485
8.97537360309
8.97537348099
8.97537336871
8.97537326595
8.9753731728
8.97537308885
8.97537301417
8.97537294823
8.97537289107
8.9753728421
8.97537280132
8.97537276807
8.97537274234
8.97537272343
8.97537271138
8.97537270546
8.97537270568
8.97537271133
8.97537272242
8.97537273822
8.97537275878
8.97537278336
8.97537281204
8.97537284408
8.97537287961
8.97537291787
8.97537295903
8.97537300236
8.97537304805
8.97537309537
8.97537314457
8.97537319492
8.9753732467
8.97537329921
8.97537335276
8.97537340665
8.97537346124
8.97537351583
8.97537357082
8.97537362553
8.97537368038
8.9753737347
8.97537378894
8.97537384244
8.97537389568
8.975373948
8.97537399992
8.97537405077
8.97537410111
8.97537415025
8.97537419879
8.97537424604
8.97537429262
8.97537433785
8.97537438235
8.97537442544
8.97537446779
8.97537450868
8.9753745488
8.97537458746
8.97537462533
8.97537466173
8.97537469735
8.9753747315
8.97537476488
8.97537479678
8.97537482794
8.97537485764
8.97537488661
8.97537491414
8.97537494097
8.97537496638
8.9753749911
8.97537501444
8.97537503712
8.97537505845
8.97537507912
8.97537509849
8.97537511723
8.97537513469
8.97537515153
8.97537516715
8.97537518215
8.97537519598
8.97537520919
8.97537522128
8.97537523275
8.97537524315
8.97537525292
8.97537526167
8.97537526978
8.97537527693
8.97537528342
8.97537528903
8.97537529393
8.97537529751
8.97537527571
8.97537425002
8.97534271833
8.97523769057
8.9753834558
8.97538344196
8.97538340653
8.9753833513
8.97538327721
8.97538318522
8.97538307538
8.97538294823
8.97538280413
8.97538264381
8.97538246778
8.97538227692
8.97538207202
8.97538185408
8.9753816241
8.97538138318
8.97538113249
8.97538087324
8.97538060671
8.97538033415
8.97538005693
8.97537977629
8.97537949363
8.97537921017
8.97537892725
8.97537864603
8.97537836777
8.97537809351
8.97537782438
8.97537756129
8.97537730524
8.97537705693
8.97537681723
8.97537658667
8.97537636592
8.97537615533
8.97537595544
8.9753757664
8.9753755886
8.97537542202
8.97537526693
8.97537512314
8.97537499083
8.97537486966
8.9753747597
8.97537466052
8.97537457213
8.97537449398
8.97537442605
8.97537436769
8.97537431887
8.97537427883
8.9753742475
8.97537422419
8.97537420881
8.9753742006
8.97537419951
8.97537420477
8.97537421631
8.97537423336
8.9753742559
8.97537428316
8.97537431513
8.97537435105
8.97537439095
8.97537443408
8.97537448052
8.97537452953
8.97537458121
8.97537463485
8.9753746906
8.97537474774
8.97537480649
8.97537486614
8.97537492694
8.9753749882
8.97537505022
8.9753751123
8.9753751748
8.97537523703
8.97537529938
8.97537536118
8.97537542285
8.97537548372
8.97537554425
8.97537560379
8.97537566282
8.97537572069
8.97537577791
8.97537583383
8.97537588901
8.97537594278
8.97537599573
8.97537604719
8.97537609777
8.97537614681
8.97537619492
8.97537624145
8.97537628704
8.97537633101
8.97537637404
8.97537641545
8.97537645591
8.97537649474
8.97537653265
8.97537656894
8.97537660431
8.97537663809
8.97537667098
8.97537670228
8.97537673273
8.97537676162
8.97537678968
8.97537681622
8.97537684194
8.97537686619
8.97537688965
8.97537691167
8.97537693292
8.97537695277
8.97537697188
8.97537698963
8.97537700665
8.97537702237
8.97537703736
8.9753770511
8.97537706411
8.97537707593
8.97537708701
8.97537709696
8.97537710616
8.97537711428
8.97537712165
8.97537712802
8.97537713355
8.97537713763
8.97537711454
8.9753760283
8.9753439888
8.97528710716
8.97538637656
8.97538636021
8.97538631944
8.97538625607
8.97538617122
8.97538606573
8.97538593971
8.97538579391
8.97538562854
8.97538544444
8.97538524222
8.97538502283
8.97538478716
8.97538453631
8.97538427142
8.97538399376
8.97538370464
8.97538340547
8.97538309771
8.97538278284
8.97538246242
8.97538213795
8.97538181101
8.97538148307
8.97538115567
8.97538083021
8.97538050814
8.9753801907
8.97537987922
8.97537957475
8.97537927847
8.97537899122
8.97537871398
8.9753784474
8.97537819223
8.97537794891
8.97537771803
8.97537749977
8.97537729457
8.97537710242
8.97537692359
8.97537675789
8.97537660545
8.97537646594
8.97537633938
8.97537622529
8.97537612363
8.97537603381
8.97537595572
8.97537588869
8.97537583257
8.97537578658
8.97537575053
8.97537572369
8.97537570591
8.97537569637
8.97537569493
8.97537570075
8.9753757137
8.97537573297
8.97537575844
8.9753757893
8.97537582546
8.97537586614
8.97537591129
8.97537596012
8.97537601264
8.97537606809
8.97537612651
8.97537618716
8.97537625013
8.97537631471
8.97537638103
8.97537644838
8.97537651697
8.9753765861
8.975376656
8.97537672602
8.97537679642
8.97537686655
8.97537693675
8.97537700635
8.97537707573
8.97537714424
8.97537721231
8.97537727928
8.97537734562
8.97537741068
8.97537747495
8.97537753779
8.97537759974
8.97537766013
8.97537771954
8.97537777731
8.97537783403
8.97537788905
8.97537794299
8.97537799517
8.97537804625
8.97537809556
8.97537814375
8.97537819015
8.97537823544
8.97537827895
8.97537832137
8.97537836201
8.97537840158
8.9753784394
8.97537847617
8.97537851121
8.97537854524
8.97537857757
8.97537860892
8.97537863861
8.97537866734
8.97537869447
8.97537872066
8.97537874528
8.975378769
8.97537879121
8.97537881253
8.97537883238
8.97537885137
8.97537886895
8.97537888567
8.97537890104
8.97537891556
8.97537892877
8.97537894114
8.97537895225
8.97537896252
8.97537897161
8.97537897981
8.97537898691
8.97537899309
8.97537899765
8.97537897326
8.97537782914
8.97534560323
8.97533228297
8.97538935402
8.97538933496
8.97538928862
8.97538921676
8.97538912038
8.97538900063
8.97538885753
8.97538869175
8.97538850368
8.97538829417
8.97538806384
8.97538781378
8.97538754492
8.97538725855
8.97538695591
8.97538663844
8.97538630766
8.97538596517
8.97538561266
8.97538525185
8.97538488453
8.97538451247
8.9753841375
8.97538376135
8.97538338582
8.97538301254
8.9753826432
8.97538227927
8.97538192228
8.9753815735
8.97538123424
8.97538090553
8.97538058847
8.97538028382
8.97537999244
8.97537971483
8.97537945164
8.9753792031
8.97537896965
8.97537875131
8.97537854832
8.97537836049
8.97537818791
8.9753780302
8.97537788733
8.97537775876
8.97537764441
8.97537754359
8.97537745612
8.97537738127
8.9753773188
8.97537726783
8.9753772281
8.97537719881
8.97537717973
8.97537716998
8.97537716931
8.97537717683
8.97537719233
8.97537721492
8.97537724442
8.97537727996
8.97537732138
8.97537736783
8.97537741922
8.9753774747
8.97537753423
8.975377597
8.975377663
8.97537773147
8.97537780244
8.97537787516
8.97537794973
8.97537802543
8.97537810242
8.97537817997
8.9753782583
8.97537833673
8.9753784155
8.97537849395
8.97537857238
8.97537865014
8.97537872756
8.97537880401
8.97537887989
8.97537895454
8.97537902841
8.97537910085
8.97537917235
8.97537924226
8.97537931111
8.97537937824
8.97537944421
8.97537950837
8.97537957131
8.97537963237
8.97537969217
8.97537975004
8.97537980664
8.97537986128
8.97537991463
8.97537996603
8.97538001615
8.97538006431
8.97538011122
8.97538015618
8.97538019991
8.97538024173
8.97538028234
8.97538032108
8.97538035864
8.97538039436
8.97538042895
8.97538046175
8.97538049344
8.97538052338
8.97538055226
8.97538057944
8.97538060559
8.97538063009
8.97538065358
8.97538067549
8.9753806964
8.97538071579
8.97538073421
8.97538075116
8.97538076715
8.97538078172
8.97538079533
8.9753808076
8.97538081889
8.9753808289
8.97538083794
8.97538084577
8.97538085255
8.9753808576
8.97538083195
8.97537963302
8.97534756084
8.97537370338
8.97539239999
8.97539237817
8.97539232595
8.97539224508
8.97539213671
8.97539200184
8.97539184052
8.9753916536
8.97539144127
8.97539120449
8.97539094394
8.97539066078
8.97539035605
8.97539003114
8.97538968747
8.97538932668
8.97538895046
8.97538856068
8.97538815928
8.97538774824
8.97538732965
8.97538690557
8.97538647813
8.97538604937
8.97538562136
8.97538519603
8.97538477533
8.97538436101
8.97538395482
8.97538355826
8.97538317282
8.97538279972
8.97538244019
8.97538209513
8.97538176548
8.97538145183
8.97538115486
8.97538087485
8.97538061226
8.97538036708
8.97538013955
8.97537992943
8.97537973675
8.97537956108
8.97537940233
8.97537925988
8.97537913356
8.9753790226
8.97537892675
8.97537884515
8.97537877742
8.97537872262
8.97537868045
8.97537865001
8.97537863094
8.97537862229
8.97537862373
8.97537863428
8.97537865364
8.97537868085
8.97537871565
8.9753787571
8.97537880499
8.97537885839
8.97537891715
8.97537898038
8.97537904796
8.97537911905
8.97537919359
8.97537927077
8.9753793506
8.97537943228
8.97537951588
8.97537960064
8.97537968669
8.97537977331
8.97537986065
8.97537994804
8.97538003569
8.97538012292
8.97538021002
8.97538029631
8.97538038215
8.97538046686
8.97538055084
8.97538063344
8.97538071508
8.97538079512
8.97538087404
8.97538095118
8.97538102707
8.97538110106
8.97538117371
8.97538124435
8.97538131358
8.97538138074
8.97538144644
8.97538151004
8.97538157217
8.97538163216
8.97538169068
8.97538174706
8.97538180198
8.97538185478
8.97538190614
8.97538195539
8.97538200324
8.97538204902
8.97538209343
8.9753821358
8.97538217685
8.97538221591
8.97538225369
8.97538228953
8.97538232412
8.97538235683
8.97538238834
8.97538241801
8.97538244653
8.97538247327
8.97538249888
8.97538252279
8.97538254558
8.97538256673
8.9753825868
8.97538260529
8.9753826227
8.97538263859
8.97538265342
8.97538266678
8.97538267908
8.97538269
8.97538269983
8.97538270835
8.97538271575
8.97538272124
8.97538269435
8.97538144418
8.97534988192
8.97541180597
8.97539552287
8.97539549816
8.97539543991
8.97539534975
8.97539522866
8.97539507793
8.97539489746
8.97539468799
8.97539444979
8.97539418384
8.97539389077
8.97539357186
8.9753932282
8.97539286138
8.97539247294
8.97539206474
8.97539163873
8.97539119704
8.97539074189
8.97539027561
8.97538980061
8.9753893193
8.97538883415
8.97538834756
8.97538786194
8.97538737957
8.9753869027
8.9753864334
8.97538597367
8.97538552528
8.97538508994
8.97538466905
8.97538426402
8.97538387585
8.97538350562
8.97538315396
8.97538282161
8.97538250887
8.97538221619
8.97538194354
8.97538169112
8.97538145862
8.97538124602
8.97538105278
8.97538087875
8.9753807232
8.97538058585
8.97538046583
8.97538036277
8.97538027573
8.97538020408
8.97538014684
8.97538010374
8.97538007365
8.97538005614
8.97538005014
8.97538005522
8.97538007032
8.97538009505
8.97538012837
8.97538016993
8.97538021872
8.97538027444
8.97538033612
8.97538040352
8.97538047572
8.97538055253
8.97538063306
8.97538071721
8.97538080412
8.97538089375
8.9753809853
8.97538107876
8.97538117339
8.97538126925
8.97538136562
8.97538146262
8.97538155956
8.97538165664
8.97538175316
8.97538184939
8.97538194466
8.97538203929
8.97538213262
8.97538222503
8.97538231585
8.97538240552
8.97538249338
8.97538257992
8.97538266447
8.97538274757
8.97538282854
8.97538290797
8.97538298518
8.97538306077
8.97538313408
8.97538320574
8.97538327509
8.97538334276
8.97538340811
8.97538347179
8.97538353314
8.97538359285
8.97538365025
8.97538370603
8.97538375953
8.97538381145
8.97538386113
8.97538390928
8.97538395524
8.97538399971
8.97538404205
8.97538408295
8.97538412176
8.97538415919
8.9753841946
8.97538422867
8.97538426078
8.9753842916
8.97538432052
8.97538434819
8.97538437403
8.97538439865
8.97538442151
8.97538444317
8.97538446314
8.97538448193
8.9753844991
8.97538451509
8.97538452953
8.9753845428
8.97538455457
8.97538456518
8.97538457438
8.97538458233
8.97538458828
8.97538456021
8.97538326276
8.97535257892
8.97544695937
8.97539873255
8.975398705
8.97539864047
8.97539854061
8.97539840647
8.97539823916
8.97539803851
8.97539780533
8.97539753966
8.9753972425
8.97539691449
8.97539655694
8.97539617103
8.97539575849
8.97539532104
8.97539486079
8.97539437993
8.97539388095
8.9753933664
8.97539283899
8.97539230153
8.97539175684
8.97539120781
8.97539065725
8.97539010798
8.97538956267
8.97538902397
8.97538849427
8.97538797593
8.97538747099
8.97538698142
8.97538650884
8.97538605482
8.97538562051
8.97538520709
8.97538481525
8.97538444578
8.97538409896
8.97538377523
8.97538347453
8.97538319697
8.97538294215
8.97538270994
8.97538249973
8.97538231124
8.97538214361
8.97538199641
8.97538186866
8.97538175984
8.97538166887
8.975381595
8.97538153708
8.97538149474
8.97538146677
8.97538145259
8.97538145103
8.97538146153
8.97538148295
8.97538151478
8.9753815559
8.97538160586
8.97538166359
8.97538172869
8.97538180015
8.97538187763
8.97538196016
8.9753820475
8.97538213872
8.97538223365
8.97538233141
8.9753824319
8.97538253428
8.97538263855
8.9753827439
8.97538285038
8.97538295724
8.97538306461
8.97538317174
8.97538327883
8.97538338519
8.97538349105
8.97538359575
8.97538369959
8.97538380191
8.97538390307
8.97538400242
8.97538410039
8.97538419631
8.97538429067
8.97538438281
8.97538447326
8.97538456136
8.97538464766
8.97538473153
8.97538481355
8.97538489308
8.97538497072
8.97538504584
8.97538511907
8.97538518977
8.9753852586
8.9753853249
8.97538538936
8.97538545131
8.97538551147
8.97538556916
8.9753856251
8.97538567863
8.97538573046
8.97538577993
8.97538582776
8.97538587329
8.97538591724
8.97538595896
8.97538599915
8.97538603719
8.97538607375
8.97538610822
8.97538614127
8.9753861723
8.97538620196
8.97538622967
8.97538625604
8.97538628054
8.97538630374
8.97538632514
8.97538634526
8.97538636365
8.97538638076
8.97538639622
8.97538641041
8.97538642304
8.97538643437
8.9753864442
8.97538645273
8.97538645908
8.97538642986
8.97538508956
8.97535566132
8.97547948232
8.97540203914
8.97540200872
8.97540193793
8.97540182833
8.97540168074
8.97540149646
8.975401275
8.97540101698
8.97540072238
8.97540039211
8.97540002667
8.97539962745
8.97539919566
8.97539873319
8.97539824195
8.97539772433
8.97539718283
8.97539662031
8.97539603975
8.97539544433
8.97539483729
8.97539422198
8.97539360177
8.97539297997
8.97539235989
8.9753917447
8.97539113746
8.97539054102
8.9753899581
8.9753893911
8.97538884227
8.97538831349
8.9753878065
8.97538732263
8.97538686311
8.97538642873
8.97538602026
8.97538563799
8.9753852823
8.97538495304
8.97538465021
8.97538437329
8.97538412205
8.97538389573
8.97538369388
8.97538351549
8.97538335995
8.97538322615
8.97538311339
8.9753830203
8.97538294606
8.97538288952
8.97538285001
8.97538282624
8.97538281747
8.97538282241
8.97538284038
8.97538287012
8.97538291101
8.97538296185
8.97538302208
8.97538309054
8.97538316676
8.97538324964
8.97538333879
8.97538343318
8.97538353249
8.97538363576
8.97538374275
8.97538385257
8.97538396506
8.97538407936
8.97538419542
8.97538431242
8.9753844304
8.97538454856
8.97538466702
8.97538478503
8.97538490277
8.97538501953
8.97538513555
8.97538525015
8.97538536363
8.97538547531
8.97538558558
8.97538569377
8.9753858003
8.97538590452
8.97538600691
8.97538610682
8.97538620477
8.97538630011
8.97538639341
8.97538648401
8.97538657253
8.9753866583
8.97538674196
8.97538682286
8.97538690165
8.97538697768
8.97538705163
8.97538712284
8.97538719201
8.97538725847
8.97538732295
8.97538738477
8.97538744466
8.97538750196
8.97538755739
8.97538761029
8.97538766139
8.97538771004
8.97538775696
8.9753878015
8.97538784437
8.97538788494
8.97538792391
8.97538796066
8.97538799586
8.97538802892
8.97538806049
8.97538808999
8.97538811805
8.97538814413
8.9753881688
8.97538819157
8.97538821295
8.9753882325
8.97538825069
8.97538826712
8.9753882822
8.97538829559
8.97538830764
8.9753883181
8.97538832711
8.97538833389
8.97538830357
8.9753869252
8.97535913468
8.97550964939
8.97540545363
8.97540542081
8.97540534399
8.97540522475
8.97540506392
8.97540486251
8.97540461979
8.97540433628
8.97540401152
8.9754036463
8.975403241
8.97540279695
8.97540231539
8.97540179837
8.97540124796
8.97540066692
8.97540005807
8.97539942476
8.97539877045
8.9753980989
8.97539741391
8.97539671943
8.9753960194
8.97539531776
8.97539461839
8.97539392504
8.97539324133
8.97539257063
8.97539191612
8.97539128061
8.97539066668
8.97539007651
8.97538951203
8.97538897473
8.97538846592
8.97538798642
8.975387537
8.97538711791
8.97538672941
8.97538637124
8.97538604322
8.97538574471
8.9753854753
8.97538523404
8.97538502027
8.9753848328
8.97538467082
8.97538453301
8.9753844185
8.97538432549
8.97538425312
8.97538420036
8.97538416611
8.97538414896
8.97538414799
8.97538416181
8.97538418958
8.97538422994
8.97538428212
8.97538434483
8.9753844174
8.97538449859
8.97538458784
8.97538468399
8.97538478655
8.97538489445
8.97538500731
8.97538512411
8.97538524458
8.97538536776
8.97538549348
8.97538562084
8.97538574977
8.97538587942
8.9753860098
8.97538614011
8.97538627044
8.97538640005
8.97538652909
8.97538665685
8.97538678357
8.97538690856
8.97538703211
8.97538715356
8.97538727328
8.97538739061
8.97538750598
8.97538761873
8.97538772936
8.9753878372
8.97538794279
8.97538804549
8.97538814587
8.97538824329
8.97538833834
8.97538843039
8.97538852008
8.97538860676
8.97538869109
8.97538877243
8.97538885146
8.97538892753
8.97538900135
8.97538907226
8.97538914097
8.97538920685
8.9753892706
8.97538933158
8.97538939052
8.97538944677
8.97538950105
8.97538955272
8.97538960251
8.97538964977
8.97538969522
8.97538973824
8.97538977952
8.97538981845
8.97538985571
8.97538989071
8.97538992411
8.97538995533
8.97538998499
8.97539001257
8.97539003863
8.97539006269
8.97539008527
8.97539010593
8.97539012512
8.97539014248
8.97539015838
8.97539017254
8.97539018523