/*--------------------------------*- C++ -*----------------------------------*\
| =========                 |                                                 |
| \\      /  F ield         | OpenFOAM: The Open Source CFD Toolbox           |
|  \\    /   O peration     | Version:  2206                                  |
|   \\  /    A nd           | Website:  www.openfoam.com                      |
|    \\/     M anipulation  |                                                 |
\*---------------------------------------------------------------------------*/
FoamFile
{
    version     2.0;
    format      ascii;
    arch        "LSB;label=64;scalar=64";
    class       surfaceScalarField;
    location    "0.1/water";
    object      phi;
}
// * * * * * * * * * * * * * * * * * * * * * * * * * * * * * * * * * * * * * //

dimensions      [0 3 -1 0 0 0 0];

oriented        oriented;

internalField   nonuniform List<scalar> 
46280
(
-5.47888391322e-10
5.47900807638e-10
-1.10160508929e-09
5.53740402088e-10
-1.65387591329e-09
5.52276387177e-10
-2.2040919885e-09
5.50240264475e-10
-2.75207187862e-09
5.47982069156e-10
-3.29747470263e-09
5.45426768505e-10
-3.83997410284e-09
5.42495023194e-10
-4.37909398956e-09
5.39142617035e-10
-4.91443570362e-09
5.35333469139e-10
-5.44546463558e-09
5.31051073315e-10
-5.97174859972e-09
5.26273622974e-10
-6.49272041413e-09
5.20993447754e-10
-7.00792622691e-09
5.15193969293e-10
-7.51677777911e-09
5.08872425037e-10
-8.01880792463e-09
5.0201665686e-10
-8.51341683503e-09
4.94628778572e-10
-9.00013353344e-09
4.8670133432e-10
-9.47835652627e-09
4.78241840876e-10
-9.94762202473e-09
4.69248179939e-10
-1.0407337785e-08
4.59733784635e-10
-1.08570590751e-08
4.49702075638e-10
-1.12962141687e-08
4.39172526143e-10
-1.17243892362e-08
4.28154072212e-10
-1.21410442059e-08
4.16672031692e-10
-1.25458073186e-08
4.04740471284e-10
-1.29381805496e-08
3.9239005624e-10
-1.33178438026e-08
3.79639103293e-10
-1.36843496323e-08
3.66522511945e-10
-1.4037437043e-08
3.53061908675e-10
-1.43767160917e-08
3.39295613865e-10
-1.47019903729e-08
3.25247603773e-10
-1.50129321949e-08
3.10958288829e-10
-1.53094124418e-08
2.96452604698e-10
-1.55911681169e-08
2.81772026849e-10
-1.58581382363e-08
2.66941754316e-10
-1.61101252395e-08
2.52003240465e-10
-1.63471347254e-08
2.3698067194e-10
-1.65690331489e-08
2.21914530153e-10
-1.67758897204e-08
2.06827598479e-10
-1.69676324344e-08
1.91758697777e-10
-1.71443897494e-08
1.76728476797e-10
-1.73061481266e-08
1.61774231774e-10
-1.74530898479e-08
1.46913296449e-10
-1.75852510256e-08
1.32176918125e-10
-1.77028593539e-08
1.17580565441e-10
-1.78060023594e-08
1.03158631509e-10
-1.78949583189e-08
8.89290591451e-11
-1.79698684449e-08
7.49256531569e-11
-1.80310530351e-08
6.11586947213e-11
-1.80786863904e-08
4.7648780558e-11
-1.81131093187e-08
3.43981148784e-11
-1.81345220036e-08
2.14280185935e-11
-1.81432887636e-08
8.74304259708e-12
-1.81396319664e-08
-3.64156365808e-12
-1.81239297643e-08
-1.57248699783e-11
-1.8096428268e-08
-2.74863583739e-11
-1.8057527659e-08
-3.89223228866e-11
-1.80074958256e-08
-5.00168041239e-11
-1.79467446954e-08
-6.07720215861e-11
-1.78755523076e-08
-7.11774643586e-11
-1.77943332609e-08
-8.1239265336e-11
-1.77033688012e-08
-9.09496545061e-11
-1.76030722188e-08
-1.00316285076e-10
-1.74937244037e-08
-1.09333124947e-10
-1.73757344406e-08
-1.18009298878e-10
-1.72493797662e-08
-1.26340112501e-10
-1.711506297e-08
-1.3433589804e-10
-1.69730549879e-08
-1.41993546768e-10
-1.68237494787e-08
-1.49324483114e-10
-1.66674086219e-08
-1.56326563709e-10
-1.65044152267e-08
-1.63012320517e-10
-1.63350202605e-08
-1.69380819017e-10
-1.61595939384e-08
-1.75445248447e-10
-1.59783746532e-08
-1.81205306894e-10
-1.57917185727e-08
-1.86675031491e-10
-1.5599849847e-08
-1.91854928055e-10
-1.54031095302e-08
-1.96759289064e-10
-1.5201707029e-08
-2.01388914067e-10
-1.49959673987e-08
-2.05758601577e-10
-1.47860843164e-08
-2.09869725144e-10
-1.45723660987e-08
-2.13737149496e-10
-1.43549907923e-08
-2.1736221545e-10
-1.4134249768e-08
-2.20759867903e-10
-1.39103051209e-08
-2.2393184686e-10
-1.36834306905e-08
-2.26893127879e-10
-1.34537728876e-08
-2.29645331107e-10
-1.32215882952e-08
-2.32203083406e-10
-1.29870081406e-08
-2.34568036758e-10
-1.27502715901e-08
-2.36754773237e-10
-1.25114948833e-08
-2.38764979839e-10
-1.22708999504e-08
-2.40612827692e-10
-1.20285888661e-08
-2.42299772392e-10
-1.17847668512e-08
-2.43839523628e-10
-1.15395224716e-08
-2.45233515006e-10
-1.12930443907e-08
-2.46495149714e-10
-1.10454082528e-08
-2.47625740953e-10
-1.07967866892e-08
-2.48638142452e-10
-1.05472432944e-08
-2.49533493278e-10
-1.02969352664e-08
-2.50324071861e-10
-1.0045915025e-08
-2.51010851692e-10
-9.7943248666e-09
-2.51605625232e-10
-9.54220670598e-09
-2.52109304606e-10
-9.28968847342e-09
-2.52533084206e-10
-9.03680245611e-09
-2.52877707142e-10
-8.78366289141e-09
-2.53153766882e-10
-8.53029327073e-09
-2.53361873063e-10
-8.27679477752e-09
-2.53512015754e-10
-8.02318292891e-09
-2.53604672616e-10
-7.76954653967e-09
-2.53649205746e-10
-7.5158939135e-09
-2.53646034314e-10
-7.26230207398e-09
-2.53603927384e-10
-7.00877287001e-09
-2.53523203604e-10
-6.75537222415e-09
-2.53411986808e-10
-6.50209630798e-09
-2.53270518196e-10
-6.24900057581e-09
-2.53106311195e-10
-5.99607623469e-09
-2.52919554019e-10
-5.74336891365e-09
-2.52717125796e-10
-5.49086556584e-09
-2.52499183238e-10
-5.23860258391e-09
-2.52272000737e-10
-4.98656334231e-09
-2.52035710247e-10
-4.73477559986e-09
-2.51795964112e-10
-4.4832198198e-09
-2.51552893786e-10
-4.23191568183e-09
-2.51311551773e-10
-3.98084136421e-09
-2.51072089975e-10
-3.73000900618e-09
-2.5083895725e-10
-3.4793951144e-09
-2.50612339405e-10
-3.22900479855e-09
-2.5039609604e-10
-2.97881346113e-09
-2.50190485257e-10
-2.72881962243e-09
-2.4999880665e-10
-2.47899808158e-09
-2.49821407334e-10
-2.22934128789e-09
-2.4966096491e-10
-1.9798242247e-09
-2.49517659891e-10
-1.73043488737e-09
-2.49392735133e-10
-1.48115205482e-09
-2.49284105058e-10
-1.23196654224e-09
-2.49188103608e-10
-9.82856900684e-10
-2.49111440441e-10
-7.33642731785e-10
-2.49216232637e-10
-4.83137517294e-10
-2.50507205283e-10
-2.28740456541e-10
-2.54398959503e-10
-2.28740960343e-10
-5.99090211215e-10
1.1470042485e-09
-1.19650049793e-09
1.15116958723e-09
-1.79449134371e-09
1.15027699989e-09
-2.39130484779e-09
1.14707294581e-09
-2.98606501089e-09
1.14274933308e-09
-3.57808722113e-09
1.13746718775e-09
-4.16680487121e-09
1.13121613764e-09
-4.75161338912e-09
1.12396789908e-09
-5.33197117372e-09
1.11569211331e-09
-5.90726792251e-09
1.10636333101e-09
-6.47695167835e-09
1.09595631493e-09
-7.04039466786e-09
1.08445082964e-09
-7.59703061506e-09
1.07182716995e-09
-8.14621763598e-09
1.05807242294e-09
-8.68738109529e-09
1.04317551547e-09
-9.21987401282e-09
1.02713311327e-09
-9.74312372879e-09
1.0099445151e-09
-1.0256489558e-08
9.91617614436e-10
-1.07594133181e-08
9.72163539106e-10
-1.12512733729e-08
9.51602548023e-10
-1.17315396406e-08
9.29958259788e-10
-1.21996228851e-08
9.07263501653e-10
-1.26550345498e-08
8.83554150838e-10
-1.30972304832e-08
8.58874939762e-10
-1.35257758328e-08
8.33272913909e-10
-1.39401826572e-08
8.06803254693e-10
-1.43400799656e-08
7.79522323458e-10
-1.47250452192e-08
7.51493649142e-10
-1.50947790946e-08
7.2278066932e-10
-1.54489308951e-08
6.9345288168e-10
-1.57872776231e-08
6.63578329513e-10
-1.61095442079e-08
6.33229987099e-10
-1.64155863655e-08
6.024780508e-10
-1.67052061003e-08
5.71396578275e-10
-1.69783372446e-08
5.40055655452e-10
-1.72348577669e-08
5.08528348546e-10
-1.74747773432e-08
4.76882693992e-10
-1.76980472478e-08
4.45188860663e-10
-1.79047484691e-08
4.1351116428e-10
-1.80949008965e-08
3.81915469758e-10
-1.82686508879e-08
3.50460943134e-10
-1.84260797873e-08
3.19207470764e-10
-1.8567392235e-08
2.88208546949e-10
-1.86927310206e-08
2.57520112683e-10
-1.88023574649e-08
2.27190332381e-10
-1.889646243e-08
1.97268136288e-10
-1.89753424984e-08
1.67793103555e-10
-1.90392171366e-08
1.38805009555e-10
-1.90884144341e-08
1.10340727679e-10
-1.91231986049e-08
8.24378747608e-11
-1.91439414456e-08
5.51264878548e-11
-1.91509434981e-08
2.8435209815e-11
-1.91446007127e-08
2.38659296357e-12
-1.91252429724e-08
-2.29939607898e-11
-1.90932920265e-08
-4.7688731752e-11
-1.9049090891e-08
-7.16819698803e-11
-1.89930605789e-08
-9.49648767864e-11
-1.8925544755e-08
-1.1752696103e-10
-1.88469651766e-08
-1.39363282003e-10
-1.87576695746e-08
-1.604672967e-10
-1.8658081766e-08
-1.80838305667e-10
-1.85485515116e-08
-2.00474081504e-10
-1.84295009776e-08
-2.19377727822e-10
-1.8301277504e-08
-2.37550754336e-10
-1.81642974955e-08
-2.54999996954e-10
-1.8018901521e-08
-2.71730266329e-10
-1.78654968083e-08
-2.87751185897e-10
-1.77044142025e-08
-3.03070386791e-10
-1.75360490685e-08
-3.17700146503e-10
-1.73607195967e-08
-3.31650353387e-10
-1.71788072875e-08
-3.4493517717e-10
-1.69906160876e-08
-3.57566441418e-10
-1.67965118522e-08
-3.69560076634e-10
-1.65967823356e-08
-3.80929370662e-10
-1.63917766424e-08
-3.91691386774e-10
-1.61817657349e-08
-4.01860520716e-10
-1.59670808408e-08
-4.11454905201e-10
-1.57479748091e-08
-4.20489782031e-10
-1.55247603773e-08
-4.28983808575e-10
-1.52976724278e-08
-4.36952671644e-10
-1.50670049292e-08
-4.44415444601e-10
-1.48329741378e-08
-4.51388175704e-10
-1.45958547282e-08
-4.57890071616e-10
-1.43558447237e-08
-4.63937200232e-10
-1.41131999953e-08
-4.69548604271e-10
-1.38681005815e-08
-4.74740282957e-10
-1.36207832317e-08
-4.79531104424e-10
-1.33714101907e-08
-4.83936812398e-10
-1.31201996211e-08
-4.87975892384e-10
-1.28672969079e-08
-4.91663633163e-10
-1.26129021504e-08
-4.95017983197e-10
-1.23571442447e-08
-4.9805383053e-10
-1.21002054417e-08
-5.00788531142e-10
-1.18421989216e-08
-5.03236407116e-10
-1.15832898882e-08
-5.05414167395e-10
-1.13235767473e-08
-5.07335479221e-10
-1.106320834e-08
-5.0901627793e-10
-1.08022690469e-08
-5.10469615254e-10
-1.05408918931e-08
-5.11710675702e-10
-1.02791480066e-08
-5.12751803316e-10
-1.00171553795e-08
-5.13607393394e-10
-9.75497287311e-09
-5.14289116153e-10
-9.49270424331e-09
-5.14810527581e-10
-9.23039695701e-09
-5.15182541436e-10
-8.96814128534e-09
-5.15417898655e-10
-8.70597410324e-09
-5.15526848456e-10
-8.4439729203e-09
-5.15521290973e-10
-8.18216487773e-09
-5.15410755669e-10
-7.92061547083e-09
-5.15206316582e-10
-7.65934296133e-09
-5.14916833051e-10
-7.3984016189e-09
-5.14552575449e-10
-7.13780164272e-09
-5.1412172026e-10
-6.87758679174e-09
-5.13633730982e-10
-6.61775997408e-09
-5.13096130518e-10
-6.3583551662e-09
-5.12517594993e-10
-6.09936874777e-09
-5.11905026395e-10
-5.84082557277e-09
-5.11266350755e-10
-5.58271622587e-09
-5.10607848991e-10
-5.3250571487e-09
-5.09936699425e-10
-5.06783384476e-09
-5.09258605407e-10
-4.81105496236e-09
-5.08580033294e-10
-4.55470160875e-09
-5.07906118039e-10
-4.29877528426e-09
-5.0724262701e-10
-4.0432533769e-09
-5.06594156943e-10
-3.78813084244e-09
-5.05965804277e-10
-3.53338199566e-09
-5.05361647774e-10
-3.27899584556e-09
-5.04786126435e-10
-3.02494431544e-09
-5.04242799798e-10
-2.77121113839e-09
-5.03735442669e-10
-2.51776660661e-09
-5.0326706173e-10
-2.26458995777e-09
-5.02840665717e-10
-2.01165059239e-09
-5.02458502451e-10
-1.75892344038e-09
-5.02122554319e-10
-1.50637483755e-09
-5.01834490717e-10
-1.25396356408e-09
-5.01601606089e-10
-1.00158790222e-09
-5.0148907956e-10
-7.4880329348e-10
-5.02002829901e-10
-4.93546322296e-10
-5.05766196689e-10
-2.32002422892e-10
-5.1594475775e-10
-4.60743878383e-10
-5.98885027472e-10
1.74590096909e-09
-1.19868019021e-09
1.75098243269e-09
-1.79815157812e-09
1.74975761576e-09
-2.39633125354e-09
1.74527082587e-09
-2.99251220706e-09
1.73893770983e-09
-3.58605256186e-09
1.73102531081e-09
-4.17638192428e-09
1.72155083661e-09
-4.76288929218e-09
1.71049218421e-09
-5.34501394798e-09
1.69781978323e-09
-5.92213698202e-09
1.68350219491e-09
-6.4936872957e-09
1.66750777152e-09
-7.05902884723e-09
1.64980663009e-09
-7.61757489381e-09
1.63037226742e-09
-8.1686740377e-09
1.60918397604e-09
-8.71172933728e-09
1.58622762852e-09
-9.24608261476e-09
1.5614969249e-09
-9.7711373343e-09
1.53499385608e-09
-1.02862406152e-08
1.50672974083e-09
-1.07908098073e-08
1.4767253621e-09
-1.12842113719e-08
1.44501159234e-09
-1.17658913523e-08
1.41162913412e-09
-1.22352501777e-08
1.37662873637e-09
-1.26917771601e-08
1.34007052839e-09
-1.31349205409e-08
1.3020239159e-09
-1.3564226117e-08
1.26256658291e-09
-1.3979202012e-08
1.22178409431e-09
-1.43794613835e-08
1.17976865232e-09
-1.47645818077e-08
1.13661850046e-09
-1.51342517602e-08
1.09243659512e-09
-1.54881249025e-08
1.04733001127e-09
-1.58259699275e-08
1.00140850028e-09
-1.61475202147e-08
9.54783908252e-10
-1.64526264941e-08
9.07568817255e-10
-1.67411027107e-08
8.59876137374e-10
-1.70128808519e-08
8.11817815681e-10
-1.72678538628e-08
7.63504500894e-10
-1.75060318431e-08
7.15044431096e-10
-1.77273833331e-08
6.66543365428e-10
-1.79319919656e-08
6.18103507956e-10
-1.8119897101e-08
5.69823591079e-10
-1.82912501774e-08
5.21797896041e-10
-1.84461562076e-08
4.74116532622e-10
-1.85848273074e-08
4.26863885926e-10
-1.87074238656e-08
3.801198343e-10
-1.8814207547e-08
3.33958782097e-10
-1.89053846632e-08
2.88448599495e-10
-1.89812591302e-08
2.43652996701e-10
-1.90420827763e-08
1.99632237092e-10
-1.90881976115e-08
1.5644172644e-10
-1.91198877839e-08
1.14131874174e-10
-1.91375229221e-08
7.27485600356e-11
-1.91414168298e-08
3.23331980157e-11
-1.91319643736e-08
-7.07817444989e-12
-1.91095011573e-08
-4.54528720494e-11
-1.9074437826e-08
-8.27636744656e-11
-1.90271266936e-08
-1.18988599714e-10
-1.89679909451e-08
-1.54111625468e-10
-1.88973926615e-08
-1.8812059828e-10
-1.88157592958e-08
-2.21007143354e-10
-1.87234561963e-08
-2.52765646342e-10
-1.86209105812e-08
-2.83394027744e-10
-1.85084870859e-08
-3.12892780336e-10
-1.83866089687e-08
-3.41265676521e-10
-1.82556360658e-08
-3.6851885043e-10
-1.81159843607e-08
-3.94661363165e-10
-1.79680057114e-08
-4.19704145897e-10
-1.78121057838e-08
-4.43660691217e-10
-1.76486253461e-08
-4.66546114539e-10
-1.74779574007e-08
-4.88377654659e-10
-1.73004294188e-08
-5.09173717757e-10
-1.71164196345e-08
-5.28954556102e-10
-1.69262401717e-08
-5.47741389331e-10
-1.67302529955e-08
-5.65556908175e-10
-1.65287536069e-08
-5.82424368838e-10
-1.63220864497e-08
-5.98368269368e-10
-1.61105291668e-08
-6.13413539673e-10
-1.58944078234e-08
-6.27586039518e-10
-1.5673981709e-08
-6.4091177391e-10
-1.54495579222e-08
-6.53417434293e-10
-1.52213769205e-08
-6.65129690942e-10
-1.49897264404e-08
-6.76075787597e-10
-1.47548280412e-08
-6.86282746146e-10
-1.45169500752e-08
-6.95777893009e-10
-1.42762953862e-08
-7.0458821231e-10
-1.40331129162e-08
-7.12740888619e-10
-1.37875870079e-08
-7.20262678374e-10
-1.35399474672e-08
-7.27180382253e-10
-1.32903606749e-08
-7.33520254817e-10
-1.30390377366e-08
-7.39308456828e-10
-1.27861276618e-08
-7.4457053349e-10
-1.25318232025e-08
-7.49331923383e-10
-1.2276256655e-08
-7.53617378436e-10
-1.20196030728e-08
-7.57451418002e-10
-1.17619788142e-08
-7.60857851879e-10
-1.1503541904e-08
-7.63860175979e-10
-1.12443936048e-08
-7.66481149883e-10
-1.09846755317e-08
-7.68743217129e-10
-1.07244746493e-08
-7.70668064368e-10
-1.04639169432e-08
-7.72276990248e-10
-1.02030759636e-08
-7.73590543912e-10
-9.94206282295e-09
-7.74628862767e-10
-9.68093857882e-09
-7.75411322911e-10
-9.41980027789e-09
-7.75956855752e-10
-9.1586973001e-09
-7.76283681507e-10
-8.89771335491e-09
-7.76409551212e-10
-8.63688706116e-09
-7.76351509361e-10
-8.37628960445e-09
-7.76126117611e-10
-8.1159496725e-09
-7.75749257636e-10
-7.85592668959e-09
-7.7523631776e-10
-7.59624025684e-09
-7.74602042895e-10
-7.33693881747e-09
-7.73860668852e-10
-7.07803370934e-09
-7.73025812025e-10
-6.81956312868e-09
-7.72110592713e-10
-6.56153091396e-09
-7.71127540959e-10
-6.30396573248e-09
-7.70088677856e-10
-6.04686469383e-09
-7.69005476188e-10
-5.79024766e-09
-7.67888902605e-10
-5.53410574363e-09
-7.66749400137e-10
-5.27845066661e-09
-7.65596908118e-10
-5.02326825806e-09
-7.64440879423e-10
-4.76856276747e-09
-7.63290267952e-10
-4.51431542549e-09
-7.62153565484e-10
-4.26052363993e-09
-7.6103876832e-10
-4.00716471546e-09
-7.59953436318e-10
-3.75422984734e-09
-7.58904642224e-10
-3.50169307717e-09
-7.57899038124e-10
-3.24954000793e-09
-7.56942787818e-10
-2.9977420735e-09
-7.56041639883e-10
-2.74627989539e-09
-7.55200845914e-10
-2.49512293086e-09
-7.54425232733e-10
-2.24424734113e-09
-7.53719129396e-10
-1.9936209075e-09
-7.53086455384e-10
-1.74321520438e-09
-7.52530799135e-10
-1.49299501127e-09
-7.52056485061e-10
-1.24292149711e-09
-7.51677269291e-10
-9.92915540342e-10
-7.51496994776e-10
-7.42616025363e-10
-7.52304298787e-10
-4.9017046353e-10
-7.58213734514e-10
-2.31837929048e-10
-7.74279155862e-10
-6.9258229105e-10
-6.02086761993e-10
2.34799839831e-09
-1.20564573862e-09
2.35455856928e-09
-1.80886426293e-09
2.35298477343e-09
-2.4107065425e-09
2.3471307607e-09
-3.01056015881e-09
2.33879875936e-09
-3.60783756031e-09
2.3283208521e-09
-4.20199569274e-09
2.31571463381e-09
-4.79243575784e-09
2.30094983192e-09
-5.37859892643e-09
2.28398714737e-09
-5.95986446171e-09
2.26478403169e-09
-6.53565182071e-09
2.24329716027e-09
-7.10531480688e-09
2.2194842421e-09
-7.66825065773e-09
2.1933077784e-09
-8.22379177197e-09
2.16473762633e-09
-8.77131995465e-09
2.13375296623e-09
-9.31015614051e-09
2.10034355614e-09
-9.83967868433e-09
2.06451117032e-09
-1.03592107826e-08
2.02627046976e-09
-1.0868142638e-08
1.98564987595e-09
-1.13658156892e-08
1.94269183064e-09
-1.185164874e-08
1.89745304328e-09
-1.23250180573e-08
1.85000414155e-09
-1.27853875286e-08
1.8004293268e-09
-1.32321838618e-08
1.74882550371e-09
-1.366493075e-08
1.69530148954e-09
-1.40831187881e-08
1.63997674321e-09
-1.44863434414e-08
1.58298019335e-09
-1.48741696007e-08
1.52444875826e-09
-1.52462730648e-08
1.46452598454e-09
-1.56022999165e-08
1.40336054869e-09
-1.594201122e-08
1.34110493031e-09
-1.62651378324e-08
1.27791387703e-09
-1.65715276296e-08
1.21394312569e-09
-1.68609965565e-08
1.14934817438e-09
-1.7133477863e-08
1.08428321331e-09
-1.73888703861e-08
1.01889997311e-09
-1.76271889172e-08
9.53346849446e-10
-1.78484107914e-08
8.8776811827e-10
-1.80526266792e-08
8.22303293471e-10
-1.82398865435e-08
7.57086351712e-10
-1.8410349779e-08
6.92245253258e-10
-1.85641314785e-08
6.27901229042e-10
-1.87014510855e-08
5.6416802552e-10
-1.88224801215e-08
5.01152037284e-10
-1.89274892021e-08
4.38952966339e-10
-1.90167020984e-08
3.77664885309e-10
-1.90904382644e-08
3.17374948507e-10
-1.91489652165e-08
2.58162830556e-10
-1.91926383487e-08
2.00101394779e-10
-1.92217599621e-08
1.43257388939e-10
-1.92367151054e-08
8.76910034578e-11
-1.92378334666e-08
3.34557064225e-11
-1.9225521931e-08
-1.94016728346e-11
-1.92001314355e-08
-7.08390058239e-11
-1.91620850604e-08
-1.20821345863e-10
-1.91117481305e-08
-1.69320998233e-10
-1.90495530669e-08
-2.16317413041e-10
-1.89758733113e-08
-2.61795703624e-10
-1.88911449511e-08
-3.05745769717e-10
-1.87957440092e-08
-3.48161871292e-10
-1.86901054551e-08
-3.89042504065e-10
-1.85746033331e-08
-4.28390166557e-10
-1.84496674739e-08
-4.66211227884e-10
-1.83156659541e-08
-5.02515658157e-10
-1.81730201456e-08
-5.37316730466e-10
-1.80220888798e-08
-5.70630756871e-10
-1.7863282195e-08
-6.02476884373e-10
-1.76969468561e-08
-6.32876881852e-10
-1.75234792448e-08
-6.61854781394e-10
-1.73432117765e-08
-6.89436715196e-10
-1.71565252187e-08
-7.15650678001e-10
-1.69637358261e-08
-7.40526424339e-10
-1.67652072891e-08
-7.64095076232e-10
-1.65612383713e-08
-7.86389049868e-10
-1.63521745182e-08
-8.07441825936e-10
-1.61382960147e-08
-8.27287932664e-10
-1.59199292677e-08
-8.45962549396e-10
-1.5697335576e-08
-8.63501484187e-10
-1.54708218302e-08
-8.79940983635e-10
-1.52406299148e-08
-8.95317758135e-10
-1.50070468832e-08
-9.09668633562e-10
-1.47702952923e-08
-9.23030625337e-10
-1.45306423783e-08
-9.35440601926e-10
-1.42882915449e-08
-9.46935475194e-10
-1.40434902664e-08
-9.57551905491e-10
-1.37964231318e-08
-9.67326388245e-10
-1.35473182016e-08
-9.76294961353e-10
-1.32963418461e-08
-9.84493337398e-10
-1.30437031618e-08
-9.91956664777e-10
-1.27895508572e-08
-9.987197231e-10
-1.25340755398e-08
-1.00481660873e-09
-1.22774090331e-08
-1.01028093462e-09
-1.20197240994e-08
-1.01514553194e-09
-1.17611365046e-08
-1.0194426664e-09
-1.15018018779e-08
-1.02320376915e-09
-1.12418207112e-08
-1.02645971299e-09
-1.09813321816e-08
-1.02924047259e-09
-1.07204224173e-08
-1.03157540676e-09
-1.04592149335e-08
-1.03349293787e-09
-1.01977823792e-08
-1.0350208632e-09
-9.93623341565e-09
-1.03618600501e-09
-9.67462813544e-09
-1.03701455807e-09
-9.41306110945e-09
-1.03753175682e-09
-9.15158073073e-09
-1.03776220827e-09
-8.89026830036e-09
-1.03772953361e-09
-8.62916141293e-09
-1.03745673959e-09
-8.36832889549e-09
-1.03696584904e-09
-8.10779840448e-09
-1.03627828822e-09
-7.84762707472e-09
-1.03541450839e-09
-7.58783347668e-09
-1.03439437871e-09
-7.32846384066e-09
-1.03323680215e-09
-7.06952845323e-09
-1.03196013845e-09
-6.81106337456e-09
-1.03058179594e-09
-6.55307140706e-09
-1.02911865256e-09
-6.2955791767e-09
-1.02758665569e-09
-6.03858276309e-09
-1.02600124559e-09
-5.78210007274e-09
-1.02437695992e-09
-5.5261211988e-09
-1.02272784964e-09
-5.27065600616e-09
-1.02106708704e-09
-5.0156893142e-09
-1.01940737675e-09
-4.76122361243e-09
-1.01776057536e-09
-4.50723913566e-09
-1.01613808742e-09
-4.25373163519e-09
-1.01455049549e-09
-4.0006774296e-09
-1.01300793901e-09
-3.74806616058e-09
-1.01151976456e-09
-3.49587088623e-09
-1.0100948783e-09
-3.24407574437e-09
-1.00874141839e-09
-2.99265116274e-09
-1.00746707599e-09
-2.74157634711e-09
-1.00627879854e-09
-2.49081965829e-09
-1.00518308257e-09
-2.2403558679e-09
-1.0041857187e-09
-1.99015173202e-09
-1.00329207655e-09
-1.74017798309e-09
-1.00250702965e-09
-1.49040010285e-09
-1.00183612108e-09
-1.2407830216e-09
-1.00129646467e-09
-9.91257624993e-10
-1.00102431542e-09
-7.41482883522e-10
-1.00208095075e-09
-4.89667007223e-10
-1.01003154883e-09
-2.32050832886e-10
-1.03189714959e-09
-9.24633594649e-10
-6.0732582225e-10
2.95533438238e-09
-1.21629495711e-09
2.9635446752e-09
-1.82496730852e-09
2.96166534551e-09
-2.43229768314e-09
2.95447924933e-09
-3.03770372385e-09
2.94421200579e-09
-3.6406263418e-09
2.93126167954e-09
-4.24054350749e-09
2.91563814672e-09
-4.83686966233e-09
2.89729384062e-09
-5.42905003593e-09
2.87617193058e-09
-6.01646092231e-09
2.85221169373e-09
-6.59851241847e-09
2.82535111786e-09
-7.17454327275e-09
2.79552990103e-09
-7.74393000812e-09
2.76269444449e-09
-8.30598060972e-09
2.72680075902e-09
-8.86004782568e-09
2.68781741958e-09
-9.40542101447e-09
2.64572706144e-09
-9.94144380213e-09
2.60052866934e-09
-1.04674034281e-08
2.55223852371e-09
-1.09826526416e-08
2.5008916037e-09
-1.1486495582e-08
2.44654172264e-09
-1.19783138876e-08
2.38926201362e-09
-1.24574481254e-08
2.32914422043e-09
-1.29233280407e-08
2.26629835465e-09
-1.33753488157e-08
2.20085129283e-09
-1.38130052944e-08
2.13294576598e-09
-1.42357625482e-08
2.0627383809e-09
-1.46431939109e-08
1.99039823464e-09
-1.50348458793e-08
1.91610462367e-09
-1.54103795681e-08
1.8400454108e-09
-1.57694301941e-08
1.7624146898e-09
-1.6111751479e-08
1.68341119133e-09
-1.64370705014e-08
1.60323612797e-09
-1.67452346548e-08
1.5220916862e-09
-1.70360625299e-08
1.4401790792e-09
-1.73094926884e-08
1.3576974187e-09
-1.75654319196e-08
1.27484212944e-09
-1.78039050859e-08
1.19180392191e-09
-1.80249017011e-08
1.10876764436e-09
-1.82285260357e-08
1.02591161395e-09
-1.84148432965e-08
9.43406599185e-10
-1.85840288149e-08
8.61415044757e-10
-1.87362144234e-08
7.80089975398e-10
-1.88716373784e-08
6.99575723248e-10
-1.89904878908e-08
6.20005901782e-10
-1.90930559836e-08
5.41506416002e-10
-1.91795862325e-08
4.64198738338e-10
-1.9250417026e-08
3.88191811449e-10
-1.93058350533e-08
3.1358473195e-10
-1.93462148216e-08
2.40467992406e-10
-1.93718784319e-08
1.68925134606e-10
-1.93832297293e-08
9.90298887056e-11
-1.9380617142e-08
3.08474897832e-11
-1.93644657183e-08
-3.55647963356e-11
-1.93351443317e-08
-1.00155831307e-10
-1.9293092787e-08
-1.62883959609e-10
-1.92386921936e-08
-2.23716891993e-10
-1.91723892283e-08
-2.82630922344e-10
-1.90945709075e-08
-3.39609244141e-10
-1.90056859082e-08
-3.94640905038e-10
-1.89061224227e-08
-4.4772054754e-10
-1.87963266581e-08
-4.98848113858e-10
-1.86766833673e-08
-5.48028667371e-10
-1.85476322183e-08
-5.9527203928e-10
-1.84095505465e-08
-6.40592595513e-10
-1.82628681275e-08
-6.8400872192e-10
-1.81079515905e-08
-7.25542644493e-10
-1.79452180263e-08
-7.65220003413e-10
-1.77750206425e-08
-8.03069718164e-10
-1.75977615987e-08
-8.39123413116e-10
-1.74137784904e-08
-8.734153902e-10
-1.72234566781e-08
-9.05982141616e-10
-1.70271164582e-08
-9.36862329108e-10
-1.68251250634e-08
-9.66096197318e-10
-1.66177842557e-08
-9.93725663962e-10
-1.64054420481e-08
-1.01979383049e-09
-1.6188380833e-08
-1.04434507415e-09
-1.59669287686e-08
-1.06742446473e-09
-1.57413484041e-08
-1.08907789644e-09
-1.55119476007e-08
-1.10935166618e-09
-1.52789688583e-08
-1.12829266912e-09
-1.50426995677e-08
-1.14594780069e-09
-1.48033623116e-08
-1.16236417453e-09
-1.45612240802e-08
-1.17758867282e-09
-1.43164877662e-08
-1.19166820915e-09
-1.40694001579e-08
-1.20464928064e-09
-1.38201449398e-08
-1.21657815953e-09
-1.35689491138e-08
-1.22750044646e-09
-1.33159777722e-08
-1.23746137066e-09
-1.30614386079e-08
-1.24650534744e-09
-1.28054787966e-08
-1.25467637294e-09
-1.25482872878e-08
-1.26201746392e-09
-1.22899941693e-08
-1.26857104505e-09
-1.20307703761e-08
-1.27437847083e-09
-1.17707297621e-08
-1.27948043424e-09
-1.15100259375e-08
-1.28391651256e-09
-1.12487573773e-08
-1.28772559512e-09
-1.09870611509e-08
-1.29094536747e-09
-1.07250212902e-08
-1.29361276503e-09
-1.04627591355e-08
-1.29576348887e-09
-1.02003452109e-08
-1.29743246587e-09
-9.93788596384e-09
-1.29865335613e-09
-9.6754393124e-09
-1.29945907333e-09
-9.41309760044e-09
-1.29988126152e-09
-9.15090706667e-09
-1.29995079429e-09
-8.8889467961e-09
-1.29969726849e-09
-8.62725224935e-09
-1.29914953037e-09
-8.36589006228e-09
-1.29833515631e-09
-8.10488579545e-09
-1.29728099243e-09
-7.84429444648e-09
-1.2960126201e-09
-7.58413253909e-09
-1.2945549197e-09
-7.32444419186e-09
-1.29293154391e-09
-7.06523770071e-09
-1.29116546235e-09
-6.80654708175e-09
-1.28927843388e-09
-6.54837320977e-09
-1.28729156203e-09
-6.29074073505e-09
-1.2852247696e-09
-6.03364387448e-09
-1.28309735564e-09
-5.7770986229e-09
-1.28092746978e-09
-5.52109328312e-09
-1.27873266101e-09
-5.26563588284e-09
-1.27652936545e-09
-5.01070952249e-09
-1.27433344192e-09
-4.75631492452e-09
-1.27215967344e-09
-4.50243068156e-09
-1.27002228034e-09
-4.24905085785e-09
-1.26793444487e-09
-3.9961502086e-09
-1.26590879725e-09
-3.74371676529e-09
-1.26395696655e-09
-3.49172209877e-09
-1.262090029e-09
-3.24014882442e-09
-1.26031809399e-09
-2.98896597184e-09
-1.25865071133e-09
-2.73815133333e-09
-1.25709649655e-09
-2.48767202925e-09
-1.25566348594e-09
-2.23750165619e-09
-1.254358827e-09
-1.98760609392e-09
-1.25318906166e-09
-1.73795561655e-09
-1.25215993495e-09
-1.48851569294e-09
-1.25127776938e-09
-1.23925141516e-09
-1.25056280178e-09
-9.90092945108e-10
-1.25018467553e-09
-7.40697597915e-10
-1.25147818106e-09
-4.89269080005e-10
-1.26146195347e-09
-2.31994384927e-10
-1.28917361649e-09
-1.15662843689e-09
-6.13971542931e-10
3.56931630788e-09
-1.22967658816e-09
3.57926730849e-09
-1.84515684843e-09
3.57715410851e-09
-2.45938273765e-09
3.5687232057e-09
-3.07179878304e-09
3.55663569835e-09
-3.68187250599e-09
3.54135420009e-09
-4.28910325539e-09
3.52287506918e-09
-4.89291767844e-09
3.50112652936e-09
-5.49276620987e-09
3.47602545735e-09
-6.08802209719e-09
3.44748436603e-09
-6.6780827692e-09
3.41541444209e-09
-7.26226753591e-09
3.37972946749e-09
-7.83992582849e-09
3.34035270114e-09
-8.41033277079e-09
3.29722010065e-09
-8.97280231468e-09
3.25028411433e-09
-9.52658097756e-09
3.19951581458e-09
-1.00709656366e-08
3.14490786734e-09
-1.06051947697e-08
3.08647581304e-09
-1.11285707305e-08
3.02425985255e-09
-1.1640347335e-08
2.95832499213e-09
-1.2139856468e-08
2.88876155697e-09
-1.26263909083e-08
2.81568422189e-09
-1.30993351421e-08
2.73923143589e-09
-1.35580425856e-08
2.65956348622e-09
-1.4001970304e-08
2.57686102147e-09
-1.44305502079e-08
2.49132243123e-09
-1.48433272945e-08
2.403161756e-09
-1.52398247486e-08
2.31260576944e-09
-1.56196855138e-08
2.21989170058e-09
-1.59825316823e-08
2.12526421106e-09
-1.63281088567e-08
2.02897317247e-09
-1.66561405194e-08
1.93127090533e-09
-1.69664748693e-08
1.83241033079e-09
-1.72589353044e-08
1.73264248865e-09
-1.75334688755e-08
1.63221499042e-09
-1.77899939655e-08
1.5313701498e-09
-1.80285499793e-08
1.43034386898e-09
-1.82491433362e-08
1.3293639816e-09
-1.84518972842e-08
1.22864964835e-09
-1.86368977183e-08
1.12841014849e-09
-1.88043420937e-08
1.02884386369e-09
-1.89543850222e-08
9.30136224369e-10
-1.9087287091e-08
8.32462764056e-10
-1.92032645178e-08
7.35986903975e-10
-1.93026334347e-08
6.4086096357e-10
-1.9385663107e-08
5.47232266844e-10
-1.94527170032e-08
4.55232076179e-10
-1.95041070841e-08
3.64978950362e-10
-1.95402326514e-08
2.76580694299e-10
-1.95614405107e-08
1.90137390369e-10
-1.95681582976e-08
1.05735554637e-10
-1.95607578714e-08
2.34516772546e-11
-1.95396872607e-08
-5.6646846537e-11
-1.95053372083e-08
-1.34501107787e-10
-1.94581682134e-08
-2.10063808343e-10
-1.93985808708e-08
-2.83299357702e-10
-1.9327040029e-08
-3.54182146507e-10
-1.92439498728e-08
-4.22694482708e-10
-1.91497752345e-08
-4.88825575613e-10
-1.90449194802e-08
-5.52571397054e-10
-1.89298430641e-08
-6.13934328072e-10
-1.8804943957e-08
-6.72922926041e-10
-1.86706742108e-08
-7.29551453467e-10
-1.85274224672e-08
-7.83839579335e-10
-1.83756290806e-08
-8.35811730692e-10
-1.82156701406e-08
-8.85496934183e-10
-1.80479715734e-08
-9.32928210269e-10
-1.78728943106e-08
-9.78142450824e-10
-1.76908477561e-08
-1.02117966489e-09
-1.75021756679e-08
-1.06208307152e-09
-1.73072691428e-08
-1.10089844197e-09
-1.71064531785e-08
-1.13767400842e-09
-1.69000994361e-08
-1.17245979496e-09
-1.66885131149e-08
-1.20530781791e-09
-1.64720454204e-08
-1.23627144837e-09
-1.62509810177e-08
-1.26540542277e-09
-1.60256502495e-08
-1.29276520088e-09
-1.5796316957e-08
-1.31840724465e-09
-1.5563290194e-08
-1.34238841192e-09
-1.53268128963e-08
-1.36476613112e-09