/*--------------------------------*- C++ -*----------------------------------*\
| =========                 |                                                 |
| \\      /  F ield         | OpenFOAM: The Open Source CFD Toolbox           |
|  \\    /   O peration     | Version:  2206                                  |
|   \\  /    A nd           | Website:  www.openfoam.com                      |
|    \\/     M anipulation  |                                                 |
\*---------------------------------------------------------------------------*/
FoamFile
{
    version     2.0;
    format      ascii;
    arch        "LSB;label=64;scalar=64";
    class       surfaceScalarField;
    location    "0.1/water";
    object      phi.gas;
}
// * * * * * * * * * * * * * * * * * * * * * * * * * * * * * * * * * * * * * //

dimensions      [0 3 -1 0 0 0 0];

oriented        oriented;

internalField   nonuniform List<scalar> 
46280
(
2.9521245093e-11
2.7340199738e-07
1.28342663491e-10
2.73407750589e-07
1.76380060084e-10
2.73405635789e-07
2.28492485485e-10
2.73403325955e-07
2.70964169463e-10
2.73400518509e-07
3.15804781325e-10
2.73397666958e-07
3.46817774173e-10
2.733941279e-07
3.79928838857e-10
2.73390579039e-07
3.96222623927e-10
2.73386255287e-07
4.14063998289e-10
2.73381989656e-07
4.12644076541e-10
2.73376893334e-07
4.11962229998e-10
2.73371895102e-07
3.8995665922e-10
2.73366045864e-07
3.67922219066e-10
2.73360340522e-07
3.22817635235e-10
2.73353771402e-07
2.77209882857e-10
2.73347402358e-07
2.07142866864e-10
2.73340170497e-07
1.3651177923e-10
2.73333206387e-07
4.04033705149e-11
2.73325390539e-07
-5.58893118297e-11
2.73317917618e-07
-1.78330943655e-10
2.73309607626e-07
-3.00183383469e-10
2.73301720486e-07
-4.48528790342e-10
2.73293011703e-07
-5.95161002369e-10
2.7328480615e-07
-7.68331762751e-10
2.73275791592e-07
-9.38383239142e-10
2.73267359665e-07
-1.13473460779e-09
2.73258128368e-07
-1.32632588099e-09
2.73249554251e-07
-1.54371948797e-09
2.73240185446e-07
-1.75454843172e-09
2.73231542939e-07
-1.99043953216e-09
2.73222107016e-07
-2.21784826092e-09
2.73213458031e-07
-2.46936553709e-09
2.73204012497e-07
-2.71043892645e-09
2.73195406068e-07
-2.97447332192e-09
2.73185998181e-07
-3.22610645298e-09
2.7317747117e-07
-3.49939262011e-09
2.73168135818e-07
-3.75838598759e-09
2.73159713544e-07
-4.03758824256e-09
2.73150477007e-07
-4.30070850371e-09
2.73142175167e-07
-4.58249529099e-09
2.73133053995e-07
-4.84656123049e-09
2.73124880554e-07
-5.12768719913e-09
2.73115885533e-07
-5.38962048832e-09
2.7310783866e-07
-5.66697638244e-09
2.73098971004e-07
-5.92386217451e-09
2.73091055991e-07
-6.19454145091e-09
2.73082341331e-07
-6.44367092191e-09
2.73074586069e-07
-6.70503190012e-09
2.73066049731e-07
-6.94397836317e-09
2.73058458139e-07
-7.19366707107e-09
2.73050096424e-07
-7.42026068952e-09
2.73042668349e-07
-7.65617751725e-09
2.73034509424e-07
-7.86828106752e-09
2.73027280508e-07
-8.08837700186e-09
2.73019300535e-07
-8.28444126493e-09
2.73012187901e-07
-8.48746801339e-09
2.73004365481e-07
-8.66616009858e-09
2.72997434334e-07
-8.85085771507e-09
2.72989832235e-07
-9.01106740614e-09
2.7298311401e-07
-9.17651525125e-09
2.72975747775e-07
-9.31742577296e-09
2.7296925477e-07
-9.46297416978e-09
2.72962134173e-07
-9.58401499121e-09
2.72955878173e-07
-9.70925572774e-09
2.72949012966e-07
-9.8100955487e-09
2.72943007131e-07
-9.91484277862e-09
2.72936409314e-07
-9.99536010708e-09
2.72930667184e-07
-1.00796247069e-08
2.72924347655e-07
-1.01398990823e-08
2.72918882332e-07
-1.02038704349e-08
2.72912852571e-07
-1.02441509633e-08
2.72907675389e-07
-1.02881709936e-08
2.72901944318e-07
-1.03088656014e-08
2.72897064901e-07
-1.03334108996e-08
2.72891640877e-07
-1.0335053664e-08
2.72887065983e-07
-1.03407100705e-08
2.72881954158e-07
-1.03239502746e-08
2.72877688379e-07
-1.03113978934e-08
2.72872892849e-07
-1.02769699298e-08
2.72868937512e-07
-1.02469605789e-08
2.72864458667e-07
-1.01956733412e-08
2.72860812703e-07
-1.01490169086e-08
2.72856649893e-07
-1.00817273937e-08
2.7285330934e-07
-1.00192727142e-08
2.72849458147e-07
-9.93687649746e-09
2.72846416521e-07
-9.85949906523e-09
2.72842871567e-07
-9.76290850751e-09
2.72840120382e-07
-9.67149725904e-09
2.72836873238e-07
-9.56163604052e-09
2.72834401664e-07
-9.45708198734e-09
2.72831442695e-07
-9.33486490133e-09
2.72829238366e-07
-9.21805024077e-09
2.7282655594e-07
-9.08438238486e-09
2.72824605251e-07
-8.95617443565e-09
2.72822186865e-07
-8.81193547456e-09
2.72820474694e-07
-8.67317729986e-09
2.72818306066e-07
-8.51922138253e-09
2.72816816723e-07
-8.37072787258e-09
2.72814883573e-07
-8.20787312582e-09
2.72813600782e-07
-8.05042575852e-09
2.72811887635e-07
-7.87945612377e-09
2.72810794714e-07
-7.71380038012e-09
2.72809286246e-07
-7.53545750272e-09
2.72808366383e-07
-7.36229994126e-09
2.72807046738e-07
-7.17728657626e-09
2.72806283364e-07
-6.99729464369e-09
2.72805137331e-07
-6.80626968391e-09
2.72804514098e-07
-6.62007041428e-09
2.72803526308e-07
-6.42365259303e-09
2.72803027401e-07
-6.23183327039e-09
2.72802183289e-07
-6.03059807077e-09
2.72801793355e-07
-5.83370586659e-09
2.72801078561e-07
-5.62818914994e-09
2.72800783085e-07
-5.42673234975e-09
2.72800184281e-07
-5.21742939655e-09
2.72799969393e-07
-5.01187781876e-09
2.72799473647e-07
-4.79924674398e-09
2.72799326356e-07
-4.59003320416e-09
2.72798921754e-07
-4.37449559792e-09
2.72798829748e-07
-4.16201794077e-09
2.72798504923e-07
-3.94396278925e-09
2.72798456771e-07
-3.72858815917e-09
2.72798201281e-07
-3.50837511012e-09
2.72798186258e-07
-3.29044394102e-09
2.72797990309e-07
-3.06840640598e-09
2.72797998749e-07
-2.84823328771e-09
2.72797853505e-07
-2.62468007166e-09
2.72797876501e-07
-2.40255552972e-09
2.7279777399e-07
-2.17777238353e-09
2.72797804349e-07
-1.95398179797e-09
2.72797738996e-07
-1.72826276017e-09
2.72797773816e-07
-1.50312552717e-09
2.7279774737e-07
-1.27680425353e-09
2.72797799923e-07
-1.05073709929e-09
2.72797845933e-07
-8.24438105896e-10
2.72797979065e-07
-5.98334594984e-10
2.72798058086e-07
-3.6863972476e-10
2.72797213036e-07
-1.47065124284e-10
2.7279375361e-07
2.72818364564e-07
-2.78676174718e-10
2.22271936477e-07
-5.15668806003e-10
2.22277071071e-07
-7.79477439601e-10
2.22277836932e-07
-1.04268260817e-09
2.22277041574e-07
-1.30916548661e-09
2.22275947106e-07
-1.57451520034e-09
2.22274706074e-07
-1.84404188357e-09
2.2227332119e-07
-2.11228333307e-09
2.22271793381e-07
-2.38538062658e-09
2.22270059217e-07
-2.65718109224e-09
2.22268077504e-07
-2.9343708932e-09
2.22265795334e-07
-3.21023881535e-09
2.22263161087e-07
-3.49189765671e-09
2.22260090925e-07
-3.77217224106e-09
2.22256548366e-07
-4.05845948796e-09
2.22252448479e-07
-4.34313347265e-09
2.22247767098e-07
-4.63384792383e-09
2.22242425329e-07
-4.92250879981e-09
2.22236412077e-07
-5.2170456553e-09
2.22229656677e-07
-5.50887758205e-09
2.22222162576e-07
-5.80624831515e-09
2.22213868078e-07
-6.10008933598e-09
2.22204790031e-07
-6.39898899893e-09
2.22194876064e-07
-6.6933935609e-09
2.2218415753e-07
-6.99225974923e-09
2.22172590862e-07
-7.28556906667e-09
2.22160220799e-07
-7.58265286123e-09
2.22147011503e-07
-7.87305226765e-09
2.22133022034e-07
-8.16647048489e-09
2.22118222451e-07
-8.45205238682e-09
2.22102684484e-07
-8.73985207326e-09
2.22086382261e-07
-9.01866505361e-09
2.22069400637e-07
-9.2988672123e-09
2.22051715555e-07
-9.56897056691e-09
2.22033422686e-07
-9.83962724069e-09
2.22014498088e-07
-1.00991313805e-08
2.21995048313e-07
-1.03583601106e-08
2.21975047677e-07
-1.06054710601e-08
2.21954610721e-07
-1.08515033334e-08
2.2193370888e-07
-1.1084553728e-08
2.21912464367e-07
-1.13157596383e-08
2.21890844567e-07
-1.15332385341e-08
2.21868976216e-07
-1.17481550857e-08
2.21846822935e-07
-1.19487244425e-08
2.21824517652e-07
-1.21460819997e-08
2.21802019654e-07
-1.23286077646e-08
2.2177946146e-07
-1.25073409102e-08
2.21756794839e-07
-1.26708702986e-08
2.21734151399e-07
-1.28300861177e-08
2.21711484579e-07
-1.29738468888e-08
2.21688929075e-07
-1.31128754316e-08
2.21666432426e-07
-1.32363154363e-08
2.21644121679e-07
-1.33547159581e-08
2.21621933087e-07
-1.34576068441e-08
2.21600002012e-07
-1.35552770785e-08
2.21578293298e-07
-1.36374552035e-08
2.21556929872e-07
-1.37142654836e-08
2.21535833658e-07
-1.37757787513e-08
2.2151511627e-07
-1.3831893692e-08
2.21494709562e-07
-1.38729425154e-08
2.21474725346e-07
-1.39086385581e-08
2.21455093981e-07
-1.39295598505e-08
2.21435922185e-07
-1.3945256707e-08
2.21417137762e-07
-1.39465195564e-08
2.21398843348e-07
-1.3942759093e-08
2.21380963441e-07
-1.39249501448e-08
2.21363596098e-07
-1.39023822503e-08
2.21346663033e-07
-1.38661840433e-08
2.21330259221e-07
-1.38255421314e-08
2.21314302941e-07
-1.37717189293e-08
2.21298885942e-07
-1.3713808399e-08
2.21283923411e-07
-1.36431875421e-08
2.21269505267e-07
-1.35688648784e-08
2.21255543074e-07
-1.34823242577e-08
2.21242124753e-07
-1.33924873146e-08
2.21229158619e-07
-1.32909387262e-08
2.21216731976e-07
-1.31865085037e-08
2.21204749503e-07
-1.30708868099e-08
2.21193297463e-07
-1.29527998466e-08
2.21182277431e-07
-1.2824048501e-08
2.21171775931e-07
-1.26932417141e-08
2.21161691317e-07
-1.25523048354e-08
2.21152109688e-07
-1.24097099633e-08
2.21142926733e-07
-1.22575189472e-08
2.21134229227e-07
-1.21040489429e-08
2.21125910441e-07
-1.19415177163e-08
2.21118057017e-07
-1.177806512e-08
2.21110560284e-07
-1.1606079531e-08
2.2110350759e-07
-1.14335038265e-08
2.21096788669e-07
-1.12529179564e-08
2.21090490772e-07
-1.1072046809e-08
2.21084502755e-07
-1.08836767645e-08
2.21078912242e-07
-1.06952958957e-08
2.21073607558e-07
-1.04999163361e-08
2.21068675874e-07
-1.03047710029e-08
2.21064005619e-07
-1.01031117444e-08
2.21059683949e-07
-9.90190076567e-09
2.21055599882e-07
-9.69464635235e-09
2.21051839568e-07
-9.48802453407e-09
2.21048293235e-07
-9.27581136554e-09
2.21045046394e-07
-9.06438421228e-09
2.21041990878e-07
-8.84780132114e-09
2.21039210566e-07
-8.63212938504e-09
2.21036599589e-07
-8.41171821549e-09
2.21034240448e-07
-8.19231416072e-09
2.21032029935e-07
-7.96857008726e-09
2.21030048188e-07
-7.7459028654e-09
2.21028195336e-07
-7.51927560604e-09
2.21026549271e-07
-7.29376862988e-09
2.2102501384e-07
-7.06466426652e-09
2.21023663783e-07
-6.83669999155e-09
2.21022407253e-07
-6.60548256727e-09
2.21021315816e-07
-6.37540176327e-09
2.21020302362e-07
-6.14239543942e-09
2.21019434443e-07
-5.91050134794e-09
2.21018630265e-07
-5.67599230327e-09
2.21017953222e-07
-5.44255042413e-09
2.21017327184e-07
-5.20678909711e-09
2.21016810669e-07
-4.97203115056e-09
2.21016333765e-07
-4.73523475932e-09
2.21015949893e-07
-4.49935979737e-09
2.21015595675e-07
-4.26171518397e-09
2.21015318818e-07
-4.02489447132e-09
2.21015062957e-07
-3.78656176625e-09
2.210148699e-07
-3.54894110768e-09
2.21014690575e-07
-3.3100564358e-09
2.2101456044e-07
-3.07175871975e-09
2.21014437994e-07
-2.83243576629e-09
2.21014352285e-07
-2.59356091992e-09
2.21014269739e-07
-2.35389133999e-09
2.21014213056e-07
-2.11452612888e-09
2.21014156847e-07
-1.87459358539e-09
2.21014118506e-07
-1.63481780421e-09
2.2101408027e-07
-1.39468174347e-09
2.21014054283e-07
-1.15451215782e-09
2.21014024217e-07
-9.1408576967e-10
2.21013927258e-07
-6.73000875516e-10
2.21013240571e-07
-4.29272591539e-10
2.21009288647e-07
-1.91132247855e-10
2.20998757733e-07
2.21053451395e-07
-2.42039081966e-10
2.31377178963e-07
-4.42595164917e-10
2.31383313081e-07
-6.70880502627e-10
2.31384276103e-07
-8.98680734596e-10
2.31383077744e-07
-1.1301101087e-09
2.31381148687e-07
-1.36110457317e-09
2.31378770716e-07
-1.59662869351e-09
2.31376017243e-07
-1.83192679835e-09
2.31372783888e-07
-2.07265317787e-09
2.31369113138e-07
-2.31328113488e-09
2.31364905768e-07
-2.5600246548e-09
2.31360123853e-07
-2.80687461266e-09
2.31354649396e-07
-3.06033938709e-09
2.31348461562e-07
-3.31398080072e-09
2.3134142432e-07
-3.57455519055e-09
2.3133352574e-07
-3.83517396144e-09
2.31324636194e-07
-4.10282310948e-09
2.31314757439e-07
-4.37014986992e-09
2.31303772229e-07
-4.64437830853e-09
2.31291701208e-07
-4.91768479544e-09
2.3127843968e-07
-5.19756510189e-09
2.31264029034e-07
-5.4757275695e-09
2.31248377942e-07
-5.759963087e-09
2.31231549685e-07
-6.04152235223e-09
2.31213464973e-07
-6.32851623587e-09
2.31194207797e-07
-6.61175823258e-09
2.311737111e-07
-6.8996828466e-09
2.3115207835e-07
-7.18269605934e-09
2.3112925267e-07
-7.46955773832e-09
2.31105353783e-07
-7.75030733532e-09
2.31080334724e-07
-8.03400962101e-09
2.31054328957e-07
-8.31038748703e-09
2.31027297029e-07
-8.58878851669e-09
2.309993822e-07
-8.85867874595e-09
2.30970552246e-07
-9.12964583004e-09
2.30940957546e-07
-9.390965597e-09
2.30910570902e-07
-9.65242367407e-09
2.30879546112e-07
-9.90317862955e-09
2.30847861029e-07
-1.01531558901e-08
2.30815670674e-07
-1.03914714375e-08
2.30782956093e-07
-1.06281373663e-08
2.30749870488e-07
-1.08523018692e-08
2.30716398002e-07
-1.10740005919e-08
2.30682687464e-07
-1.12824805327e-08
2.30648723776e-07
-1.14877458752e-08
2.30614650171e-07
-1.1679202607e-08
2.30580451543e-07
-1.18667689855e-08
2.30546264524e-07
-1.20400677401e-08
2.30512076698e-07
-1.22088967542e-08
2.30478018545e-07
-1.2363128625e-08
2.30444078147e-07
-1.25124023083e-08
2.304103789e-07
-1.26468592888e-08
2.30376908773e-07
-1.27759449661e-08
2.30343787478e-07
-1.28901168186e-08
2.30311002466e-07
-1.29986837359e-08
2.30278657034e-07
-1.30923589171e-08
2.30246735709e-07
-1.31802408835e-08
2.30215335179e-07
-1.32533310768e-08
2.30184433451e-07
-1.33205545325e-08
2.30154117786e-07
-1.33731637422e-08
2.30124363194e-07
-1.34199261043e-08
2.3009524996e-07
-1.34523194246e-08
2.30066750431e-07
-1.34789690439e-08
2.30038938307e-07
-1.34915494178e-08
2.30011782009e-07
-1.34985672321e-08
2.29985348397e-07
-1.34918661166e-08
2.29959602754e-07
-1.34798481155e-08
2.29934605969e-07
-1.3454500392e-08
2.29910319538e-07
-1.34241382318e-08
2.2988679828e-07
-1.33808722091e-08
2.29864001102e-07
-1.33329367703e-08
2.29841977489e-07
-1.32725503343e-08
2.29820683336e-07
-1.32078742118e-08
2.29800162611e-07
-1.31312257961e-08
2.29780369571e-07
-1.30506885527e-08
2.29761343325e-07
-1.29586750734e-08
2.29743036228e-07
-1.28631878822e-08
2.29725482286e-07
-1.27567372866e-08
2.29708633309e-07
-1.26472309323e-08
2.29692518814e-07
-1.25272831295e-08
2.29677090018e-07
-1.24046954863e-08
2.2966237166e-07
-1.22721966291e-08
2.29648315548e-07
-1.21374623742e-08
2.2963494228e-07
-1.19933484835e-08
2.29622204254e-07
-1.18473894001e-08
2.29610117732e-07
-1.16925828256e-08
2.29598636716e-07
-1.15362999779e-08
2.29587773641e-07
-1.13716960428e-08
2.29577484019e-07
-1.12059627149e-08
2.29567776441e-07
-1.10324286496e-08
2.29558608876e-07
-1.08580848994e-08
2.2954998652e-07
-1.06764490017e-08
2.29541869504e-07
-1.04942964e-08
2.29534259665e-07
-1.03053486611e-08
2.29527120046e-07
-1.01161473137e-08
2.29520449654e-07
-9.92063199089e-09
2.29514214152e-07
-9.72509772637e-09
2.29508409702e-07
-9.52371521941e-09
2.29503005092e-07
-9.32251790962e-09
2.29497994196e-07
-9.11591944678e-09
2.29493348555e-07
-8.90968177408e-09
2.29489059814e-07
-8.69847255756e-09
2.29485102652e-07
-8.48777030075e-09
2.29481466996e-07
-8.27250646513e-09
2.29478130203e-07
-8.05786860161e-09
2.29475080572e-07
-7.83906084631e-09
2.29472298396e-07
-7.62097072209e-09
2.2946977081e-07
-7.39908277585e-09
2.29467480575e-07
-7.1779791901e-09
2.29465413828e-07
-6.95343169506e-09
2.29463555879e-07
-6.72971068436e-09
2.29461892289e-07
-6.50288086322e-09
2.29460410452e-07
-6.27689736126e-09
2.29459095544e-07
-6.04812276287e-09
2.29457937007e-07
-5.82019245333e-09
2.29456920028e-07
-5.58977135271e-09
2.29456035624e-07
-5.36017252141e-09
2.29455269222e-07
-5.12836743339e-09
2.29454613314e-07
-4.89734311101e-09
2.2945405388e-07
-4.66438225616e-09
2.2945358445e-07
-4.43214303961e-09
2.2945319182e-07
-4.19822405969e-09
2.29452870414e-07
-3.96495164477e-09
2.29452608081e-07
-3.73024480278e-09
2.29452399821e-07
-3.49609569979e-09
2.29452234775e-07
-3.26074711629e-09
2.29452108348e-07
-3.02585385971e-09
2.2945201113e-07
-2.78998588909e-09
2.29451938802e-07
-2.55445631702e-09
2.29451883588e-07
-2.31816704473e-09
2.29451841512e-07
-2.08209163292e-09
2.29451806427e-07
-1.84546795056e-09
2.29451774589e-07
-1.60892598666e-09
2.29451741464e-07
-1.37202381583e-09
2.29451701387e-07
-1.13504407777e-09
2.29451638187e-07
-8.97852824708e-10
2.29451443956e-07
-6.60243189106e-10
2.2945032127e-07
-4.21124560265e-10
2.29444138107e-07
-1.89956321623e-10
2.29427787188e-07
2.29509195559e-07
-2.43511904615e-10
2.30307074981e-07
-4.46652062722e-10
2.3031519734e-07
-6.77239166542e-10
2.30316774816e-07
-9.0730682828e-10
2.30315641834e-07
-1.14087057987e-09
2.30313652192e-07
-1.37412891902e-09
2.30311084171e-07
-1.61205298464e-09
2.30307970721e-07
-1.84996248489e-09
2.30304295919e-07
-2.09336910401e-09
2.30299979969e-07
-2.33714313023e-09
2.30294914348e-07
-2.58712066375e-09
2.30289058618e-07
-2.83764225531e-09
2.30282273998e-07
-3.09490323652e-09
2.30274479157e-07
-3.35276518806e-09
2.3026554506e-07
-3.6176617631e-09
2.30255394496e-07
-3.88299822419e-09
2.30243906364e-07
-4.15542396246e-09
2.30231021299e-07
-4.42788061954e-09
2.30216632844e-07
-4.70724843205e-09
2.30200705752e-07
-4.98600074444e-09
2.30183153147e-07
-5.27127776049e-09
2.30163966804e-07
-5.55509100953e-09
2.30143081297e-07
-5.84486727702e-09
2.30120516229e-07
-6.13216882615e-09
2.30096228174e-07
-6.42472896031e-09
2.30070263555e-07
-6.71368450028e-09
2.30042599707e-07
-7.00708345875e-09
2.30013307474e-07
-7.29566805963e-09
2.29982383225e-07
-7.58779881799e-09
2.29949918642e-07
-7.87386641991e-09
2.29915926277e-07
-8.16252864287e-09
2.2988051475e-07
-8.44387441018e-09
2.29843710357e-07
-8.7268331035e-09
2.29805634249e-07
-9.00125249191e-09
2.29766323419e-07
-9.27629632663e-09
2.29725907643e-07
-9.5416363168e-09
2.2968443247e-07
-9.80662549394e-09
2.29642032322e-07
-1.00608319896e-08
2.29598758753e-07
-1.03137454887e-08
2.29554747711e-07
-1.05549022057e-08
2.29510055042e-07
-1.07938727415e-08
2.29464814943e-07
-1.10202337894e-08
2.29419085065e-07
-1.12435789799e-08
2.29372994545e-07
-1.1453589698e-08
2.29326600717e-07
-1.16598285452e-08
2.29280026739e-07
-1.18521457926e-08
2.2923333102e-07
-1.20400303675e-08
2.29186631077e-07
-1.22135476896e-08
2.29139983469e-07
-1.23820686909e-08
2.29093497342e-07
-1.25359096065e-08
2.29047227118e-07
-1.26842953719e-08
2.29001274033e-07
-1.28177843569e-08
2.28955688666e-07
-1.29454236735e-08
2.28910565833e-07
-1.30581074326e-08
2.28865954684e-07
-1.3164742266e-08
2.2882193695e-07
-1.32564706925e-08
2.28778551158e-07
-1.33420056834e-08
2.28735867261e-07
-1.34127543174e-08
2.28693914844e-07
-1.34772685681e-08
2.28652754707e-07
-1.35271957484e-08
2.28612410339e-07
-1.35709410902e-08
2.28572934502e-07
-1.36003663247e-08
2.28534344093e-07
-1.36237472054e-08
2.28496683979e-07
-1.36331306979e-08
2.28459964407e-07
-1.36366819096e-08
2.28424222623e-07
-1.36266068137e-08
2.2838946234e-07
-1.36109758974e-08
2.28355713673e-07
-1.35821290396e-08
2.28322974282e-07
-1.35480554438e-08
2.28291267529e-07
-1.35012103477e-08
2.28260585491e-07
-1.34495095327e-08
2.28230945266e-07
-1.33855084991e-08
2.28202334052e-07
-1.33170531301e-08
2.28174763027e-07
-1.32367917226e-08
2.28148215185e-07
-1.31524977527e-08
2.2812269623e-07
-1.30569086536e-08
2.28098185726e-07
-1.29577189224e-08
2.28074684206e-07
-1.2847758651e-08
2.2805216852e-07
-1.27346320611e-08
2.28030634513e-07
-1.26112676116e-08
2.28010057065e-07
-1.24851652625e-08
2.27990427626e-07
-1.23493629474e-08
2.27971719711e-07
-1.22112395759e-08
2.27953920907e-07
-1.20639543385e-08
2.27937004175e-07
-1.19147473489e-08
2.27920953443e-07
-1.17569141851e-08
2.27905741445e-07
-1.15975374802e-08
2.27891348994e-07
-1.14300635811e-08
2.27877749342e-07
-1.12613995638e-08
2.27864920538e-07
-1.10851584716e-08
2.27852836503e-07
-1.09080538642e-08
2.27841472914e-07
-1.07238797542e-08
2.27830804913e-07
-1.05391397939e-08
2.27820806171e-07
-1.03478240507e-08
2.27811453187e-07
-1.01562108109e-08
2.27802718055e-07
-9.95849893157e-09
2.2779457891e-07
-9.76072758191e-09
2.27787006548e-07
-9.55731744194e-09
2.27779980782e-07
-9.35405600578e-09
2.27773471525e-07
-9.14559656135e-09
2.27767460488e-07
-8.93746402602e-09
2.27761916984e-07
-8.72455530556e-09
2.27756824534e-07
-8.51212287485e-09
2.2775215217e-07
-8.2953161516e-09
2.27747885312e-07
-8.07910678022e-09
2.27743992987e-07
-7.85890566626e-09
2.27740462365e-07
-7.63939623348e-09
2.2773726278e-07
-7.41625786462e-09
2.27734383184e-07
-7.19387968347e-09
2.27731793424e-07
-6.96821648192e-09
2.27729484025e-07
-6.7433579271e-09
2.2772742563e-07
-6.51553943413e-09
2.27725610273e-07
-6.2885470347e-09
2.27724009582e-07
-6.05890189642e-09
2.2772261686e-07
-5.83008294116e-09
2.27721404978e-07
-5.59890104637e-09
2.27720368411e-07
-5.36852491427e-09
2.27719481443e-07
-5.13605963108e-09
2.2771873944e-07
-4.90436064993e-09
2.27718118339e-07
-4.67083139414e-09
2.2771761426e-07
-4.43801111146e-09
2.27717204974e-07
-4.20360633086e-09
2.27716887091e-07
-3.96983769391e-09
2.27716640395e-07
-3.73471877383e-09
2.27716461829e-07
-3.50014961491e-09
2.27716333375e-07
-3.26445363547e-09
2.27716252131e-07
-3.02920764889e-09
2.27716202372e-07
-2.79304792209e-09
2.27716181217e-07
-2.55722379686e-09
2.27716175399e-07
-2.32068898895e-09
2.27716181858e-07
-2.08436859572e-09
2.27716189811e-07
-1.84753615401e-09
2.27716196343e-07
-1.61079327431e-09
2.27716191727e-07
-1.37372690492e-09
2.27716171445e-07
-1.13661542419e-09
2.27716114981e-07
-8.99372004912e-10
2.27715883229e-07
-6.61866699631e-10
2.27714411703e-07
-4.23272426563e-10
2.27706128664e-07
-1.92300565714e-10
2.27683979706e-07
2.27791022255e-07
-2.37933495568e-10
2.30987452109e-07
-4.35292281172e-10
2.30997684797e-07
-6.60522818488e-10
2.30999911714e-07
-8.85184326446e-10
2.3099889092e-07
-1.11368167365e-09
2.30996794768e-07
-1.34208749219e-09
2.30994071955e-07
-1.57537331565e-09
2.3099071654e-07
-1.80913516252e-09
2.30986602352e-07
-2.04886366556e-09
2.30981683869e-07
-2.2894004919e-09
2.3097585887e-07
-2.53670661344e-09
2.30968972242e-07
-2.78515545939e-09
2.30960902072e-07
-3.04091166291e-09
2.30951515276e-07
-3.29789708189e-09
2.30940668002e-07
-3.5624950836e-09
2.3092823682e-07
-3.82814460116e-09
2.30914088914e-07
-4.10144688797e-09
2.30898119402e-07
-4.37535038747e-09
2.30880218089e-07
-4.65669121534e-09
2.30860307793e-07
-4.93792912241e-09
2.30838306886e-07
-5.22616414574e-09
2.30814171062e-07
-5.51337755454e-09
2.30787850285e-07
-5.80695945247e-09
2.30759334902e-07
-6.09843022843e-09
2.30728606643e-07
-6.39549060703e-09
2.30695689334e-07
-6.68922659801e-09
2.30660594856e-07
-6.98765751901e-09
2.30623377384e-07
-7.28147046132e-09
2.30584075574e-07
-7.57900145509e-09
2.30542769242e-07
-7.87058390463e-09
2.30499519848e-07
-8.1648543665e-09
2.3045442768e-07
-8.45184631568e-09
2.30407572557e-07
-8.74047082728e-09
2.30359069835e-07
-9.02052381319e-09
2.30309013616e-07
-9.30115189277e-09
2.30257529345e-07
-9.57198213501e-09
2.30204721582e-07
-9.84235094028e-09
2.30150721234e-07
-1.01017898514e-08
2.30095640072e-07
-1.03597708968e-08
2.30039610711e-07
-1.0605804499e-08
2.29982749023e-07
-1.08494419474e-08
2.29925185379e-07
-1.10802438683e-08
2.2986703608e-07
-1.13077827955e-08
2.29808426325e-07
-1.15217363316e-08
2.29749470246e-07
-1.17316452635e-08
2.29690286272e-07
-1.19273678436e-08
2.29630992279e-07
-1.21183687389e-08
2.29571700204e-07
-1.22947293635e-08
2.29512519567e-07
-1.24657969345e-08
2.29453552888e-07
-1.26219114939e-08
2.2939490627e-07
-1.27722748097e-08
2.29336673128e-07
-1.29074548427e-08
2.2927895139e-07
-1.30364865111e-08
2.2922182812e-07
-1.31503178183e-08
2.2916539785e-07
-1.32578276866e-08
2.29109730511e-07
-1.33501921413e-08
2.29054903787e-07
-1.34361124257e-08
2.29000976173e-07
-1.35070242508e-08
2.28948013698e-07
-1.35714721781e-08
2.28896064826e-07
-1.36211287934e-08
2.28845186031e-07
-1.3664398307e-08
2.28795416566e-07
-1.36931625922e-08
2.28746803138e-07
-1.37157026964e-08
2.28699375925e-07
-1.37240807404e-08
2.28653171738e-07
-1.37264732992e-08
2.28608212057e-07
-1.37150954057e-08
2.28564524484e-07
-1.3698034311e-08
2.28522122351e-07
-1.3667633914e-08
2.28481024442e-07
-1.36319048783e-08
2.28441236407e-07
-1.35833010712e-08
2.28402769222e-07
-1.35297631347e-08
2.28365621405e-07
-1.34638413564e-08
2.28329796802e-07
-1.33934090844e-08
2.28295287305e-07
-1.33111056113e-08
2.28262090769e-07
-1.32247330646e-08
2.2823019302e-07
-1.31270178366e-08
2.28199586633e-07
-1.30256836177e-08
2.28170251862e-07
-1.29135473378e-08
2.28142177187e-07
-1.27982416968e-08
2.28115337917e-07
-1.26726815577e-08
2.28089719007e-07
-1.2544394265e-08
2.28065291295e-07
-1.24064035271e-08
2.28042037329e-07
-1.22661136666e-08
2.28019924156e-07
-1.21166702808e-08
2.27998932445e-07
-1.19653368482e-08
2.2797902585e-07
-1.1805395691e-08
2.27960183933e-07
-1.16439502462e-08
2.2794236769e-07
-1.1474434857e-08
2.27925556079e-07
-1.13037749486e-08
2.2790970788e-07
-1.11255723245e-08
2.27894801948e-07
-1.09465562451e-08
2.27880795376e-07
-1.07605109891e-08
2.27867667311e-07
-1.05739536129e-08
2.27855373658e-07
-1.03808652954e-08
2.27843894256e-07
-1.01875352657e-08
2.27833184293e-07
-9.98815491808e-09
2.27823224411e-07
-9.78877237711e-09
2.27813969452e-07
-9.58380163008e-09
2.27805401195e-07
-9.37903711134e-09
2.27797474608e-07
-9.16912669168e-09
2.27790172649e-07
-8.95960059271e-09
2.27783450731e-07
-8.74535093758e-09
2.27777293133e-07
-8.5316338495e-09
2.27771656024e-07
-8.3135950759e-09
2.27766524997e-07
-8.09620859246e-09
2.27761857269e-07
-7.87488221174e-09
2.27757639821e-07
-7.65430031215e-09
2.27753831189e-07
-7.43014023847e-09
2.27750419662e-07
-7.20679090085e-09
2.27747365296e-07
-6.98020573715e-09
2.277446577e-07
-6.7544729001e-09
2.27742258643e-07
-6.52582750305e-09
2.27740158929e-07
-6.29805297508e-09
2.27738322197e-07
-6.06767094061e-09
2.27736740407e-07
-5.83815648937e-09
2.27735379251e-07
-5.60632209587e-09
2.27734231687e-07
-5.37533152601e-09
2.27733265577e-07
-5.14229229495e-09
2.27732474781e-07
-4.91005378776e-09
2.2773182949e-07
-4.67602290293e-09
2.27731324314e-07
-4.4427318757e-09
2.27730931871e-07
-4.2078915409e-09
2.27730647373e-07
-3.97371472545e-09
2.27730446e-07
-3.73821999436e-09
2.27730323423e-07
-3.50329913825e-09
2.27730257508e-07
-3.26728084872e-09
2.27730244296e-07
-3.0317336628e-09
2.27730264384e-07
-2.79529903681e-09
2.27730313989e-07
-2.55921876082e-09
2.27730376563e-07
-2.32245105796e-09
2.27730448548e-07
-2.08591417618e-09
2.2773051627e-07
-1.84888924591e-09
2.27730575898e-07
-1.61197129855e-09
2.27730617287e-07
-1.37475545324e-09
2.27730634688e-07
-1.13752452022e-09
2.27730604256e-07
-9.00195722159e-10
2.27730356761e-07
-6.62659358072e-10
2.27728554974e-07
-4.24216637612e-10
2.27718177009e-07
-1.93135622654e-10
2.27690151073e-07
2.27822453271e-07
-2.32286242378e-10
2.31368043157e-07
-4.23705985086e-10
2.31380525723e-07
-6.43445140386e-10
2.31383513952e-07
-8.62887153222e-10
2.3138271682e-07
-1.08631641992e-09
2.3138082513e-07
-1.30997802043e-09
2.3137822841e-07
-1.5391014874e-09
2.31374895138e-07
-1.76906486936e-09
2.31370781916e-07
-2.00552592471e-09
2.31365701578e-07
-2.24351154254e-09
2.31359495502e-07
-2.48887040916e-09
2.31352035212e-07
-2.7360776022e-09
2.31343128706e-07
-2.99129026028e-09
2.31332599005e-07
-3.24845699984e-09
2.31320271143e-07
-3.51394049192e-09
2.31305975088e-07
-3.78118500931e-09
2.312895511e-07
-4.05675543926e-09
2.31270855006e-07
-4.33358636577e-09
2.31249754559e-07
-4.61847137857e-09
2.31226142135e-07
-4.90383732499e-09
2.31199922437e-07
-5.19674054563e-09
2.31171030379e-07
-5.48911275304e-09
2.311394122e-07
-5.7883033229e-09
2.31105047244e-07
-6.08577006632e-09
2.31067923865e-07
-6.3891771199e-09
2.31028064174e-07
-6.68953916426e-09
2.30985495908e-07
-6.99484505798e-09
2.30940279438e-07
-7.29570564515e-09
2.30892477053e-07
-7.60043190174e-09
2.30842181268e-07
-7.89928003456e-09
2.30789482966e-07
-8.20086729966e-09
2.3073449981e-07
-8.49515242282e-09
2.30677345177e-07
-8.79103064458e-09
2.30618155144e-07
-9.07822904065e-09
2.305570599e-07
-9.36588138087e-09
2.30494207527e-07
-9.64355442754e-09
2.30429740026e-07
-9.92057217688e-09
2.30363812185e-07
-1.01864171056e-08
2.30296573367e-07
-1.0450548574e-08
2.30228180264e-07
-1.07024407024e-08
2.3015878599e-07
-1.09516302151e-08
2.30088544638e-07
-1.11876546015e-08
2.30017607164e-07
-1.14200693262e-08
2.29946121863e-07
-1.163854497e-08
2.2987423822e-07
-1.18526050248e-08
2.29802096821e-07
-1.20521113885e-08
2.29729849419e-07
-1.22465094239e-08
2.29657629531e-07
-1.24258958373e-08
2.29585576335e-07
-1.25995984184e-08
2.29513811955e-07
-1.27579811812e-08
2.29442470712e-07
-1.29102284751e-08
2.29371664216e-07
-1.30469145298e-08
2.29301511829e-07
-1.3177066729e-08
2.29232121111e-07
-1.32917025612e-08
2.29163608872e-07
-1.33996727685e-08
2.29096054744e-07
-1.34921848806e-08
2.29029553095e-07
-1.35779363612e-08
2.28964174295e-07
-1.36483911614e-08
2.28899997634e-07
-1.37120972566e-08
2.28837082123e-07
-1.37607501799e-08
2.28775494658e-07
-1.38027649552e-08
2.28715283354e-07
-1.38300399807e-08
2.28656502212e-07
-1.38508752637e-08
2.28599188545e-07
-1.38573422285e-08
2.28543383679e-07
-1.38576435493e-08
2.28489114726e-07
-1.38439962384e-08
2.28436411096e-07
-1.38245205375e-08
2.28385290261e-07
-1.37915552349e-08
2.28335770539e-07
-1.37531491933e-08
2.28287860478e-07
-1.37017448737e-08
2.28241568378e-07
-1.3645325553e-08
2.28196894353e-07
-1.35764247118e-08
2.28153837804e-07
-1.35029608098e-08
2.28112391322e-07
-1.34175521691e-08
2.28072546563e-07
-1.33280476702e-08
2.28034289044e-07
-1.32271496181e-08
2.27997603844e-07
-1.31226283222e-08
2.27962470337e-07
-1.30072747058e-08
2.27928868174e-07
-1.28887673012e-08
2.27896771098e-07
-1.27599939557e-08
2.27866154352e-07
-1.26285256938e-08
2.27836986872e-07
-1.24873591274e-08
2.27809240598e-07
-1.2343939905e-08
2.27782880363e-07
-1.21913870123e-08
2.27757875531e-07
-1.20370018822e-08
2.27734187462e-07
-1.1874041381e-08
2.27711783878e-07
-1.17096437377e-08
2.27690623424e-07
-1.15372192556e-08
2.27670672887e-07
-1.13637242976e-08
2.27651888681e-07
-1.11827383153e-08
2.27634237171e-07
-1.10010182529e-08
2.27617673261e-07
-1.08123277725e-08
2.2760216349e-07
-1.06232079803e-08
2.27587661807e-07