/*--------------------------------*- C++ -*----------------------------------*\
| =========                 |                                                 |
| \\      /  F ield         | OpenFOAM: The Open Source CFD Toolbox           |
|  \\    /   O peration     | Version:  2206                                  |
|   \\  /    A nd           | Website:  www.openfoam.com                      |
|    \\/     M anipulation  |                                                 |
\*---------------------------------------------------------------------------*/
FoamFile
{
    version     2.0;
    format      ascii;
    arch        "LSB;label=64;scalar=64";
    class       volVectorField;
    location    "0.1/water";
    object      U.gas;
}
// * * * * * * * * * * * * * * * * * * * * * * * * * * * * * * * * * * * * * //

dimensions      [0 1 -1 0 0 0 0];

internalField   nonuniform List<vector> 
23300
(
(8.9618065461e-06 0.13670099869 0)
(4.79229722487e-05 0.136703875294 0)
(9.2505112514e-05 0.136702817895 0)
(0.000122907737048 0.136701662978 0)
(0.000151620770252 0.136700259255 0)
(0.000178126288632 0.136698833479 0)
(0.000201153275776 0.13669706395 0)
(0.000220619507527 0.136695289519 0)
(0.000235617408345 0.136693127643 0)
(0.000245979867458 0.136690994828 0)
(0.000250964951288 0.136688446667 0)
(0.000250326914485 0.136685947551 0)
(0.000243439662798 0.136683022932 0)
(0.000230070373765 0.136680170261 0)
(0.000209688884341 0.136676885701 0)
(0.000182151210849 0.136673701179 0)
(0.000147035656165 0.136670085248 0)
(0.00010432373185 0.136666603194 0)
(5.37063847438e-05 0.136662695269 0)
(-4.70108932769e-06 0.136658958809 0)
(-7.11025775578e-05 0.136654803813 0)
(-0.000145263277877 0.136650860243 0)
(-0.000227287624193 0.136646505852 0)
(-0.000316834401359 0.136642403075 0)
(-0.000413917446554 0.136637895796 0)
(-0.000518109911289 0.136633679833 0)
(-0.00062933934639 0.136629064184 0)
(-0.000747107648379 0.136624777125 0)
(-0.00087126377272 0.136620092723 0)
(-0.00100125990419 0.136615771469 0)
(-0.00113687134618 0.136611053508 0)
(-0.00127751593719 0.136606729016 0)
(-0.00142290418868 0.136602006249 0)
(-0.00157244064072 0.136597703034 0)
(-0.00172577693254 0.13659299909 0)
(-0.00188231886024 0.136588735585 0)
(-0.00204166936147 0.136584067909 0)
(-0.00220325422019 0.136579856772 0)
(-0.00236663503415 0.136575238503 0)
(-0.00253126865512 0.136571087584 0)
(-0.00269668686625 0.136566526998 0)
(-0.0028623921583 0.136562440277 0)
(-0.00302789684471 0.136557942766 0)
(-0.0031927541194 0.13655391933 0)
(-0.00335646690719 0.136549485502 0)
(-0.00351864741907 0.136545527995 0)
(-0.00367880110057 0.136541170665 0)
(-0.0038366001846 0.136537293034 0)
(-0.00399157049954 0.136533024865 0)
(-0.00414344954421 0.136529229069 0)
(-0.00429178522111 0.136525048212 0)
(-0.00443637092732 0.136521334174 0)
(-0.0045767758842 0.136517254712 0)
(-0.00471278207037 0.136513640254 0)
(-0.00484398548534 0.136509650267 0)
(-0.00497031983099 0.13650609395 0)
(-0.00509147245949 0.136502182741 0)
(-0.00520735139113 0.136498717167 0)
(-0.005317666122 0.136494916117 0)
(-0.00542237012608 0.136491557005 0)
(-0.00552123044956 0.136487873888 0)
(-0.00561423209663 0.136484627385 0)
(-0.00570119283976 0.136481067087 0)
(-0.00578212170958 0.136477939087 0)
(-0.00585688575396 0.136474506483 0)
(-0.00592551735177 0.136471503566 0)
(-0.00598792770651 0.136468204657 0)
(-0.00604416873316 0.136465333592 0)
(-0.00609419181854 0.136462173827 0)
(-0.00613806972172 0.136459441166 0)
(-0.00617578717485 0.136456426286 0)
(-0.0062074350673 0.136453837695 0)
(-0.00623302630833 0.136450972159 0)
(-0.00625267182346 0.136448532451 0)
(-0.00626640536635 0.136445820439 0)
(-0.00627435531393 0.136443532991 0)
(-0.00627657113368 0.136440977079 0)
(-0.00627320046191 0.13643884419 0)
(-0.00626430212244 0.136436446425 0)
(-0.00625004023204 0.136434468756 0)
(-0.00623047890443 0.136432229334 0)
(-0.0062057995829 0.136430406352 0)
(-0.00617606668299 0.136428324946 0)
(-0.0061414759489 0.13642665467 0)
(-0.00610208931846 0.136424729074 0)
(-0.00605811672497 0.13642320826 0)
(-0.0060096140101 0.136421435784 0)
(-0.00595680229887 0.136420060191 0)
(-0.00589973032199 0.136418436619 0)
(-0.00583862975165 0.136417200832 0)
(-0.00577353940131 0.136415721348 0)
(-0.00570469816263 0.136414619183 0)
(-0.00563213495385 0.13641327797 0)
(-0.00555609561849 0.136412302625 0)
(-0.00547659760622 0.136411093432 0)
(-0.00539389050845 0.136410237347 0)
(-0.00530798066366 0.136409153033 0)
(-0.00521912102858 0.136408408361 0)
(-0.00512730602387 0.136407441787 0)
(-0.0050327895888 0.136406800391 0)
(-0.00493555501846 0.136405943817 0)
(-0.00483585699998 0.136405397357 0)
(-0.00473366715296 0.136404643123 0)
(-0.00462923900015 0.136404183192 0)
(-0.00452253350978 0.136403523369 0)
(-0.00441380304996 0.136403141682 0)
(-0.00430299787034 0.136402568666 0)
(-0.0041903677423 0.136402257049 0)
(-0.00407585324409 0.136401763154 0)
(-0.00395970162722 0.136401513701 0)
(-0.00384184392282 0.136401091645 0)
(-0.00372252379999 0.136400896678 0)
(-0.00360166369527 0.136400539281 0)
(-0.0034795038443 0.136400391543 0)
(-0.00335595831241 0.13640009214 0)
(-0.00323126338727 0.136399984697 0)
(-0.00310532540465 0.136399736824 0)
(-0.0029783770994 0.136399663178 0)
(-0.00285031712711 0.136399460877 0)
(-0.00272137481492 0.136399414874 0)
(-0.00259144160996 0.136399252461 0)
(-0.00246074415019 0.136399228385 0)
(-0.0023291672522 0.13639910064 0)
(-0.00219693527817 0.136399093129 0)
(-0.00206392721195 0.136398995155 0)
(-0.00193036528391 0.136398999374 0)
(-0.00179612276416 0.136398926752 0)
(-0.00166142012695 0.136398938251 0)
(-0.00152612509327 0.136398886995 0)
(-0.00139045668795 0.136398902174 0)
(-0.00125428251938 0.136398869498 0)
(-0.00111782424086 0.136398886908 0)
(-0.000980957158656 0.136398873685 0)
(-0.000843907254857 0.136398899962 0)
(-0.000706575053536 0.136398922966 0)
(-0.00056924961586 0.136398989532 0)
(-0.000431913141338 0.136399029043 0)
(-0.000293545775636 0.136398606518 0)
(-0.000156553257746 0.136396876805 0)
(-4.46447698719e-05 0.136409182282 0)
(-8.45981244678e-05 0.247836966929 0)
(-0.000241140440576 0.24784241083 0)
(-0.000393169395987 0.247841736361 0)
(-0.000553155728787 0.247840183765 0)
(-0.000713953885913 0.247838232808 0)
(-0.00087540306568 0.247836186516 0)
(-0.00103777625761 0.247833724545 0)
(-0.00120102729791 0.24783118621 0)
(-0.00136536227346 0.247828157252 0)
(-0.00153077766464 0.24782503358 0)
(-0.00169743542415 0.247821344334 0)
(-0.00186532794724 0.247817528094 0)
(-0.0020345771433 0.247813068395 0)
(-0.00220516407611 0.247808444444 0)
(-0.00237715606059 0.24780310994 0)
(-0.00255048357733 0.247797584728 0)
(-0.00272515506679 0.247791297913 0)
(-0.00290103686253 0.247784809232 0)
(-0.00307807903101 0.247777523608 0)
(-0.00325608383991 0.247770040097 0)
(-0.00343494893308 0.247761737852 0)
(-0.0036144239298 0.247753255258 0)
(-0.00379436306595 0.247743943884 0)
(-0.00397447327709 0.24773448184 0)
(-0.00415457332629 0.247724191227 0)
(-0.00433434089054 0.247713790232 0)
(-0.00451356737097 0.247702569935 0)
(-0.00469191048555 0.247691288143 0)
(-0.00486914083559 0.247679203948 0)
(-0.00504490872891 0.247667113712 0)
(-0.00521897099681 0.247654244638 0)
(-0.00539097841351 0.247641429334 0)
(-0.00556067943786 0.247627864026 0)
(-0.00572773646869 0.247614414377 0)
(-0.00589189576302 0.247600248134 0)
(-0.00605283743856 0.247586259742 0)
(-0.00621030991693 0.247571591747 0)
(-0.00636402017683 0.247557162132 0)
(-0.00651372436946 0.247542092943 0)
(-0.00665916017933 0.247527319767 0)
(-0.00680009512904 0.247511949281 0)
(-0.00693630301661 0.247496928385 0)
(-0.00706756592029 0.247481354234 0)
(-0.00719369557108 0.247466178156 0)
(-0.00731449481281 0.247450495329 0)
(-0.00742981653559 0.247435258725 0)
(-0.00753948441913 0.247419568085 0)
(-0.0076433855455 0.247404368734 0)
(-0.00774136176921 0.247388767155 0)
(-0.00783333680552 0.247373693607 0)
(-0.00791918356155 0.247358264425 0)
(-0.00799886151348 0.247343395014 0)
(-0.00807227738758 0.247328221256 0)
(-0.00813945513639 0.24731364126 0)
(-0.00820033976221 0.247298796916 0)
(-0.00825493658558 0.247284558886 0)
(-0.00830320092286 0.24727009957 0)
(-0.0083451919999 0.247256275302 0)
(-0.00838090056316 0.247242270898 0)
(-0.00841039670582 0.247228919678 0)
(-0.00843369425446 0.247215420878 0)
(-0.00845088165976 0.247202588478 0)
(-0.00846199788352 0.247189635967 0)
(-0.00846714636566 0.247177360761 0)
(-0.00846638816142 0.247164988203 0)
(-0.00845984030432 0.247153301615 0)
(-0.00844758304851 0.247141536174 0)
(-0.00842974333914 0.247130463203 0)
(-0.00840641687448 0.247119325298 0)
(-0.00837773996486 0.247108884137 0)
(-0.00834382079608 0.247098387991 0)
(-0.00830480233925 0.247088590328 0)
(-0.00826080162763 0.247078743696 0)
(-0.00821196813058 0.247069594827 0)
(-0.00815842494159 0.247060399748 0)
(-0.00810032576239 0.247051898979 0)
(-0.0080377964805 0.24704335183 0)
(-0.0079709950059 0.247035492921 0)
(-0.00790004773501 0.24702758514 0)
(-0.00782511467697 0.247020356721 0)
(-0.00774632024388 0.247013074992 0)
(-0.00766382663109 0.247006461196 0)
(-0.00757775449245 0.246999788313 0)
(-0.00748826591925 0.246993769283 0)
(-0.00739547596665 0.246987684294 0)
(-0.00729954702156 0.246982236769 0)
(-0.00720058764674 0.246976715926 0)
(-0.00709875819762 0.246971813986 0)
(-0.00699415923352 0.246966830954 0)
(-0.0068869494698 0.246962446218 0)
(-0.00677722144663 0.246957972725 0)
(-0.00666513037054 0.246954075304 0)
(-0.00655075955758 0.246950081749 0)
(-0.00643426085609 0.246946640562 0)
(-0.00631570865649 0.246943096242 0)
(-0.00619525011973 0.246940079322 0)
(-0.00607295022628 0.246936952974 0)
(-0.00594895180368 0.246934328145 0)
(-0.0058233108048 0.246931588404 0)
(-0.00569616446952 0.246929323588 0)
(-0.00556755937184 0.246926939257 0)
(-0.00543762775122 0.24692500264 0)
(-0.0053064075358 0.246922942917 0)
(-0.00517402516445 0.246921303415 0)
(-0.00504050982849 0.246919538337 0)
(-0.00490598271813 0.246918165776 0)
(-0.00477046500348 0.246916666334 0)
(-0.00463407203597 0.246915531684 0)
(-0.00449681700019 0.246914270074 0)
(-0.00435880998641 0.246913345592 0)
(-0.00422005700691 0.246912295271 0)
(-0.0040806625625 0.246911554586 0)
(-0.00394062560034 0.246910690462 0)
(-0.00380004557939 0.246910108764 0)
(-0.00365891509616 0.246909407273 0)
(-0.00351732842983 0.246908961307 0)
(-0.00337527189939 0.246908400415 0)
(-0.0032328352118 0.246908068513 0)
(-0.00308999900376 0.24690762776 0)
(-0.00294684857978 0.24690738982 0)
(-0.00280335906185 0.246907050299 0)
(-0.0026596120479 0.246906887794 0)
(-0.00251557793107 0.246906632119 0)
(-0.00237133492926 0.246906528079 0)
(-0.00222684908673 0.246906340442 0)
(-0.00208219568284 0.246906279594 0)
(-0.00193733674365 0.246906145749 0)
(-0.00179234475469 0.246906114393 0)
(-0.00164717756546 0.246906021864 0)
(-0.00150190515033 0.246906008702 0)
(-0.00135648387448 0.246905947921 0)
(-0.0012109827704 0.246905946161 0)
(-0.00106535702898 0.24690591382 0)
(-0.000919669505543 0.246905927103 0)
(-0.000773862434317 0.246905935075 0)
(-0.000627967227986 0.246905953161 0)
(-0.000481794160145 0.246905649328 0)
(-0.00033461873107 0.246903250841 0)
(-0.000188337183388 0.246896255672 0)
(-5.80222895275e-05 0.246935907979 0)
(-7.34761498828e-05 0.22682455772 0)
(-0.000207835396376 0.226830192076 0)
(-0.000338019399078 0.226831056518 0)
(-0.000476473947017 0.226830059659 0)
(-0.000615882934576 0.226828547897 0)
(-0.000756261599859 0.226826738395 0)
(-0.000897883313105 0.226824669216 0)
(-0.00104081148861 0.226822288635 0)
(-0.00118531892136 0.226819586177 0)
(-0.00133144434495 0.226816491636 0)
(-0.00147939640045 0.226812959593 0)
(-0.00162923727763 0.226808905241 0)
(-0.00178111853565 0.226804276243 0)
(-0.0019350614856 0.226798986343 0)
(-0.00209116271165 0.226792987109 0)
(-0.00224938206401 0.226786201646 0)
(-0.00240974911083 0.226778591384 0)
(-0.00257215251162 0.226770092153 0)
(-0.00273655319705 0.226760678943 0)
(-0.00290276915658 0.226750301128 0)
(-0.00307070086171 0.226738948556 0)
(-0.00324010670383 0.226726583987 0)
(-0.0034108346636 0.226713212875 0)
(-0.00358259379407 0.226698811251 0)
(-0.00375519028569 0.22668339933 0)
(-0.00392829760652 0.226666965949 0)
(-0.00410168747049 0.226649544927 0)
(-0.00427500788219 0.226631137352 0)
(-0.00444800561717 0.226611788117 0)
(-0.00462031618309 0.226591509604 0)
(-0.00479166764748 0.226570355609 0)
(-0.00496169197925 0.226548348833 0)
(-0.00513010700116 0.226525548877 0)
(-0.00529655256191 0.226501987466 0)
(-0.00546074138917 0.226477727817 0)
(-0.00562232846896 0.226452809608 0)
(-0.00578102888589 0.226427296894 0)
(-0.00593652212792 0.226401235875 0)
(-0.00608853012207 0.226374689777 0)
(-0.00623676186733 0.22634771023 0)
(-0.00638095267261 0.226320357527 0)
(-0.00652084762511 0.226292687109 0)
(-0.00665619896146 0.2262647552 0)
(-0.00678678891287 0.226236620714 0)
(-0.00691239015959 0.226208334912 0)
(-0.00703282364643 0.226179956502 0)
(-0.00714788423349 0.226151529681 0)
(-0.00725743257748 0.226123114049 0)
(-0.00736129279298 0.226094751562 0)
(-0.00745936484732 0.226066503611 0)
(-0.00755150046194 0.226038405663 0)
(-0.00763763298487 0.226010515226 0)
(-0.00771763700598 0.225982860283 0)
(-0.00779148304181 0.225955502239 0)
(-0.00785910016836 0.225928475166 0)
(-0.00792049509114 0.22590183279 0)
(-0.00797561065382 0.225875584419 0)
(-0.00802447720229 0.225849774861 0)
(-0.00806707241716 0.225824413674 0)
(-0.00810345019058 0.22579954427 0)
(-0.00813361656057 0.225775171971 0)
(-0.00815764596417 0.225751336308 0)
(-0.0081755697137 0.225728038035 0)
(-0.00818747881878 0.225705312679 0)
(-0.00819342826878 0.225683155919 0)
(-0.00819352440949 0.225661599426 0)
(-0.0081878418205 0.225640634501 0)
(-0.00817649865409 0.225620289379 0)
(-0.00815958672511 0.225600550611 0)
(-0.00813723531246 0.225581443522 0)
(-0.00810954915452 0.22556295045 0)
(-0.00807666572822 0.225545094301 0)
(-0.00803870030868 0.225527852843 0)
(-0.00799579821673 0.225511247162 0)
(-0.00794808114162 0.225495250972 0)
(-0.00789569967223 0.225479884102 0)
(-0.00783877982583 0.225465115895 0)
(-0.00777747728341 0.225450965386 0)
(-0.00771191892364 0.225437398122 0)
(-0.00764226319738 0.225424432975 0)
(-0.00756863636555 0.225412031489 0)
(-0.00749119939223 0.225400212618 0)
(-0.00741007505461 0.225388934506 0)
(-0.00732542472468 0.22537821674 0)
(-0.00723736685757 0.225368014086 0)
(-0.00714606299714 0.225358346867 0)
(-0.00705162513681 0.225349166963 0)
(-0.00695421307774 0.225340495804 0)
(-0.00685393212292 0.225332282555 0)
(-0.00675094023569 0.225324549824 0)
(-0.00664533447028 0.225317244637 0)
(-0.00653726922003 0.225310390873 0)
(-0.00642683342556 0.225303933611 0)
(-0.00631417796502 0.22529789796 0)
(-0.00619938270669 0.225292227637 0)
(-0.00608259371752 0.22528694905 0)
(-0.00596388223563 0.225282004792 0)
(-0.00584338964429 0.22527742233 0)
(-0.0057211779142 0.225273143715 0)
(-0.00559738276894 0.225269197475 0)
(-0.00547205751351 0.225265525346 0)
(-0.00534533256499 0.225262156609 0)
(-0.0052172522963 0.225259033292 0)
(-0.0050879411611 0.225256185325 0)
(-0.00495743528815 0.225253555254 0)
(-0.00482585358243 0.225251173292 0)
(-0.00469322386901 0.225248983073 0)
(-0.00455965909762 0.225247014923 0)
(-0.0044251795254 0.225245213834 0)
(-0.00428989259016 0.225243609831 0)
(-0.00415381107949 0.225242149771 0)
(-0.00401703671982 0.225240863134 0)
(-0.00387957553246 0.225239698953 0)
(-0.00374152396628 0.225238685725 0)
(-0.00360288140494 0.225237775146 0)
(-0.00346373901257 0.225236994423 0)
(-0.00332409010466 0.225236298203 0)
(-0.00318402105773 0.225235711992 0)
(-0.00304351927242 0.225235193823 0)
(-0.00290266662934 0.225234767172 0)
(-0.00276144517909 0.225234393747 0)
(-0.00261993286945 0.225234094616 0)
(-0.0024781069103 0.225233835519 0)
(-0.00233604177873 0.22523363486 0)
(-0.00219371050972 0.225233462675 0)
(-0.00205118442632 0.225233334394 0)
(-0.00190843243916 0.225233224562 0)
(-0.0017655227809 0.225233145543 0)
(-0.00162241995544 0.225233076663 0)
(-0.00147918923483 0.225233027284 0)
(-0.00133579281287 0.225232981637 0)
(-0.00119229487357 0.225232946548 0)
(-0.00104865530238 0.225232910867 0)
(-0.000904931190048 0.225232877835 0)
(-0.000761074181989 0.225232831202 0)
(-0.000617129416826 0.225232685607 0)
(-0.000472993432768 0.22523178092 0)
(-0.00032827235249 0.225226713377 0)
(-0.000185506696289 0.225213272461 0)
(-5.76653119217e-05 0.225281323477 0)
(-7.39232567575e-05 0.230842126972 0)
(-0.000209514061512 0.23084925521 0)
(-0.000341181266024 0.230850525459 0)
(-0.000481022891282 0.230849359789 0)
(-0.000621768141755 0.23084740044 0)
(-0.000763481990728 0.230844927443 0)
(-0.000906519506463 0.230841993982 0)
(-0.00105096898182 0.230838539903 0)
(-0.00119708280377 0.230834546553 0)
(-0.00134497692824 0.230829910058 0)
(-0.00149486579459 0.230824591236 0)
(-0.00164680302899 0.230818461697 0)
(-0.00180095131001 0.230811470359 0)
(-0.00195732791459 0.23080348469 0)
(-0.0021160224673 0.230794460118 0)
(-0.00227698606756 0.230784271279 0)
(-0.00244023530665 0.230772889369 0)
(-0.0026056460338 0.230760202537 0)
(-0.00277316417636 0.23074620348 0)
(-0.00294259349999 0.230730796413 0)
(-0.00311381668897 0.230713997919 0)
(-0.00328657623374 0.230695729619 0)
(-0.00346070162268 0.230676032957 0)
(-0.00363588595987 0.230654846573 0)
(-0.00381191539944 0.230632235676 0)
(-0.00398844694337 0.230608155403 0)
(-0.00416523313039 0.230582692912 0)
(-0.00434190671091 0.230555817948 0)
(-0.00451819530211 0.230527636212 0)
(-0.00469371980433 0.2304981305 0)
(-0.00486819135831 0.230467421854 0)
(-0.00504122949821 0.230435503693 0)
(-0.00521253620948 0.230402508225 0)
(-0.00538174027 0.230368437833 0)
(-0.00554854160559 0.230333432595 0)
(-0.00571258669529 0.230297501686 0)
(-0.00587357947822 0.230260789217 0)
(-0.00603119245031 0.230223309891 0)
(-0.00618513959158 0.230185209192 0)
(-0.00633512519291 0.230146505567 0)
(-0.00648087810894 0.230107342715 0)
(-0.00662213948257 0.230067741533 0)
(-0.0067586574478 0.230027841004 0)
(-0.00689021192004 0.229987662246 0)
(-0.00701657339521 0.229947338455 0)
(-0.00713756363823 0.229906891282 0)
(-0.00725298204856 0.2298664478 0)
(-0.00736269333872 0.229826030084 0)
(-0.00746652640117 0.229785757943 0)
(-0.00756438626878 0.229745652633 0)
(-0.00765613365409 0.229705826467 0)
(-0.00774170277477 0.229666298719 0)
(-0.00782097386633 0.229627176656 0)
(-0.00789392908573 0.229588478575 0)
(-0.00796050794418 0.229550296992 0)
(-0.00802072536237 0.229512643433 0)
(-0.00807453747121 0.22947560122 0)
(-0.00812198071446 0.229439174148 0)
(-0.00816304266162 0.229403436247 0)
(-0.00819778381031 0.229368386766 0)
(-0.00822622011165 0.229334092231 0)
(-0.00824843260802 0.229300547262 0)
(-0.00826446303586 0.229267811143 0)
(-0.00827440936344 0.229235873208 0)
(-0.00827833597006 0.22920478551 0)
(-0.00827635550522 0.229174532547 0)
(-0.00826855189438 0.229145159821 0)
(-0.00825504971296 0.22911664691 0)
(-0.00823594886099 0.229089032905 0)
(-0.00821138425807 0.229062293297 0)
(-0.00818146853506 0.229036461377 0)
(-0.00814634475958 0.229011508694 0)
(-0.00810613478025 0.228987462819 0)
(-0.00806098861596 0.228964292378 0)
(-0.00801103430495 0.228942019777 0)
(-0.00795642694472 0.228920610977 0)
(-0.00789729765694 0.228900083246 0)
(-0.00783380569186 0.228880400915 0)
(-0.00776608289469 0.228861576663 0)
(-0.00769429097201 0.228843573542 0)
(-0.00761855997959 0.228826399643 0)
(-0.00753905320653 0.228810017629 0)
(-0.00745589719453 0.228794431593 0)
(-0.0073692552954 0.228779604215 0)
(-0.00727924872647 0.228765535588 0)
(-0.00718604010849 0.22875218908 0)
(-0.0070897442555 0.228739561318 0)
(-0.00699052175071 0.228727616681 0)
(-0.00688847988322 0.228716348489 0)
(-0.00678377654641 0.228705722689 0)
(-0.00667651088762 0.228695729717 0)
(-0.00656683699127 0.228686337208 0)
(-0.00645484521991 0.228677532918 0)
(-0.00634068545278 0.228669286616 0)
(-0.00622443915439 0.228661583854 0)
(-0.00610625117178 0.228654396531 0)
(-0.00598619376298 0.228647708125 0)
(-0.00586440652506 0.228641492937 0)
(-0.00574095265373 0.228635732861 0)
(-0.00561596595784 0.228630404521 0)
(-0.00548950053542 0.228625488399 0)
(-0.00536168443991 0.228620963593 0)
(-0.00523256301902 0.228616809583 0)
(-0.00510225827585 0.228613007758 0)
(-0.00497080696141 0.22860953678 0)
(-0.00483832520694 0.228606380381 0)
(-0.0047048416481 0.228603516795 0)
(-0.00457046642261 0.228600931879 0)
(-0.00443522032707 0.228598603626 0)
(-0.00429920776447 0.228596519952 0)
(-0.00416244223128 0.228594658959 0)
(-0.0040250224132 0.228593010362 0)
(-0.00388695482087 0.228591552563 0)
(-0.00374833271121 0.228590276933 0)
(-0.00360915611139 0.228589162503 0)
(-0.00346951299619 0.228588202018 0)
(-0.0033293971666 0.228587375332 0)
(-0.00318889173696 0.228586676377 0)
(-0.00304798472814 0.22858608611 0)
(-0.00290675472764 0.228585599355 0)
(-0.00276518433204 0.228585198397 0)
(-0.00262334815212 0.228584878752 0)
(-0.00248122407893 0.228584624238 0)
(-0.0023388832134 0.228584430825 0)
(-0.00219629933228 0.228584284075 0)
(-0.00205354027242 0.22858418024 0)
(-0.00191057574703 0.228584106751 0)
(-0.00176747044118 0.228584060009 0)
(-0.00162418962896 0.228584029493 0)
(-0.00148079495283 0.228584011685 0)
(-0.00133724962391 0.228583998119 0)
(-0.00119361394187 0.228583985466 0)
(-0.00104985000502 0.228583966596 0)
(-0.000906015054405 0.228583936416 0)
(-0.000762068207048 0.228583876584 0)
(-0.000618067612402 0.228583663593 0)
(-0.000473947463876 0.228582366487 0)
(-0.000329417234735 0.228575133385 0)
(-0.000186870372655 0.228555883447 0)
(-5.83769574487e-05 0.228650108907 0)
(-7.22298111549e-05 0.230647263545 0)
(-0.000204372110797 0.230656441069 0)
(-0.000332658155256 0.230658343265 0)
(-0.000469232526143 0.230657266377 0)
(-0.000606798607176 0.23065522348 0)
(-0.000745501353919 0.230652578063 0)
(-0.00088565774524 0.23064934363 0)
(-0.00102744007373 0.230645449136 0)
(-0.00117117821567 0.230640831919 0)
(-0.00131697304781 0.230635386609 0)
(-0.00146506822842 0.23062901543 0)
(-0.00161556527212 0.230621588035 0)
(-0.00176862751928 0.230612997216 0)
(-0.00192428122611 0.230603106531 0)
(-0.00208261905025 0.230591815658 0)
(-0.00224358704717 0.230578997639 0)
(-0.00240719741636 0.230564570351 0)
(-0.00257331345863 0.230548425467 0)
(-0.0027418697723 0.230530506773 0)
(-0.00291265260255 0.230510730016 0)
(-0.00308552831357 0.230489068933 0)
(-0.00326021801618 0.230465465791 0)
(-0.00343653087715 0.230439925565 0)
(-0.00361413615315 0.230412417408 0)
(-0.0037927973965 0.230382976444 0)
(-0.00397214629441 0.230351597282 0)
(-0.00415191124983 0.230318342429 0)
(-0.00433169956548 0.230283229399 0)
(-0.00451121468894 0.230246343942 0)
(-0.00469005269851 0.230207723062 0)
(-0.00486790090376 0.230167471215 0)
(-0.00504435556426 0.230125641457 0)
(-0.00521909627557 0.230082352042 0)
(-0.00539173051589 0.230037668517 0)
(-0.00556193726791 0.229991718494 0)
(-0.00572934425847 0.229944577026 0)
(-0.00589363682646 0.229896376778 0)
(-0.00605447131179 0.229847199412 0)
(-0.00621154522716 0.229797179211 0)
(-0.00636454967376 0.229746402032 0)
(-0.00651319981413 0.229695000161 0)
(-0.00665722605124 0.229643060572 0)
(-0.00679636523727 0.229590710435 0)
(-0.00693038973505 0.229538035482 0)
(-0.00705906226998 0.229485156506 0)
(-0.00718220040757 0.229432161649 0)
(-0.00729959860546 0.22937916564 0)
(-0.00741111906684 0.229326251518 0)
(-0.0075165883405 0.229273525115 0)
(-0.00761591148724 0.229221066694 0)
(-0.00770894941363 0.229168973581 0)
(-0.00779563221593 0.229117320028 0)
(-0.00787583933957 0.229066196976 0)
(-0.00794956560002 0.229015676267 0)
(-0.00801675845688 0.22896583373 0)
(-0.00807743459067 0.228916727472 0)
(-0.00813155674362 0.228868421717 0)
(-0.00817916649114 0.228820964271 0)
(-0.00822025784454 0.228774409766 0)
(-0.00825489672355 0.228728798185 0)
(-0.00828310644124 0.228684175534 0)
(-0.00830497384443 0.228640573615 0)
(-0.00832054839121 0.228598029952 0)
(-0.00832993425765 0.228556568072 0)
(-0.00833320390492 0.22851621734 0)
(-0.00833047621401 0.228476993412 0)
(-0.00832184294975 0.228438918012 0)
(-0.00830743499691 0.228401999362 0)
(-0.00828735999056 0.228366251968 0)
(-0.00826175894901 0.228331677357 0)
(-0.00823075163399 0.228298283336 0)
(-0.00819448707772 0.228266065427 0)
(-0.00815309388388 0.228235025166 0)
(-0.00810672767555 0.228205152977 0)
(-0.00805552245526 0.228176444625 0)
(-0.0079996386665 0.22814888618 0)
(-0.00793921294152 0.228122468034 0)
(-0.00787440939723 0.228097172854 0)
(-0.0078053645284 0.228072986215 0)
(-0.00773224455946 0.228049888036 0)
(-0.00765518373195 0.228027859461 0)
(-0.00757434932978 0.22800687852 0)
(-0.00748987129097 0.227986922531 0)
(-0.00740191655549 0.22796796831 0)
(-0.00731060930706 0.227949989647 0)
(-0.00721611523518 0.227932962689 0)
(-0.00711855144527 0.227916858342 0)
(-0.00701808119208 0.22790165271 0)
(-0.00691481369102 0.227887314209 0)
(-0.00680890899366 0.227873819225 0)
(-0.00670046760153 0.227861134145 0)
(-0.00658964541043 0.227849236112 0)
(-0.00647653389709 0.227838089914 0)
(-0.00636128431148 0.227827673721 0)
(-0.00624397874178 0.227817951174 0)
(-0.00612476309154 0.22780890166 0)
(-0.00600371007179 0.227800488 0)
(-0.0058809599665 0.227792690988 0)
(-0.00575657604654 0.227785473067 0)
(-0.00563069258309 0.227778816568 0)
(-0.00550336363994 0.227772683858 0)
(-0.00537471742887 0.227767058834 0)
(-0.00524479895325 0.227761904097 0)
(-0.00511373020953 0.227757205155 0)
(-0.00498154754221 0.227752925128 0)
(-0.0048483668513 0.227749051093 0)
(-0.00471421612335 0.227745546985 0)
(-0.00457920516718 0.227742401423 0)
(-0.00444335409589 0.22773957936 0)
(-0.00430676683656 0.227737070863 0)
(-0.00416945601491 0.227734842136 0)
(-0.00403151976527 0.227732884601 0)
(-0.0038929637166 0.227731165889 0)
(-0.00375388047443 0.227729678634 0)
(-0.00361426904126 0.227728392114 0)
(-0.0034742167134 0.227727300049 0)
(-0.00333371627809 0.22772637351 0)
(-0.00319285008853 0.227725607111 0)
(-0.00305160506084 0.227724973915 0)
(-0.00291005899541 0.227724469287 0)
(-0.00276819341496 0.227724068423 0)
(-0.00262608210863 0.227723767232 0)
(-0.0024837019023 0.227723543197 0)
(-0.00234112303996 0.227723392626 0)
(-0.00219831830813 0.227723295442 0)
(-0.00205535463891 0.227723248213 0)
(-0.00191220083387 0.227723233378 0)
(-0.00176892064096 0.227723247603 0)
(-0.00162547861715 0.227723275981 0)
(-0.00148193548071 0.227723315203 0)
(-0.0013382537318 0.22772335304 0)
(-0.001194493896 0.227723386121 0)
(-0.00105061837957 0.227723404507 0)
(-0.000906684906799 0.227723403067 0)
(-0.00076265642052 0.227723359618 0)
(-0.000618593645012 0.227723119995 0)
(-0.000474438149358 0.227721483338 0)
(-0.000329944498692 0.227712152836 0)
(-0.000187410507582 0.227687065389 0)
(-5.86304568775e-05 0.227806737763 0)
(-7.05154664356e-05 0.231177747633 0)
(-0.000199140497622 0.23118910526 0)
(-0.000323956591659 0.231191712833 0)
(-0.000457279446271 0.23119080387 0)
(-0.00059172251327 0.231188809949 0)
(-0.00072744652653 0.231186150183 0)
(-0.000864899136301 0.231182805839 0)
(-0.00100426478687 0.231178692134 0)
(-0.00114585791962 0.231173692724 0)
(-0.00128988637398 0.231167677186 0)
(-0.00143661594961 0.231160503727 0)
(-0.00158614493201 0.231152015389 0)
(-0.00173866524396 0.231142057141 0)
(-0.00189420898967 0.231130469573 0)
(-0.00205287066713 0.231117105954 0)
(-0.00221459167 0.231101820007 0)
(-0.00237937477901 0.231084487204 0)
(-0.00254706804794 0.231064986324 0)
(-0.00271758895808 0.231043224964 0)
(-0.00289070085642 0.231019114662 0)
(-0.00306624685356 0.23099260072 0)
(-0.00324391975136 0.230963631243 0)
(-0.00342350130875 0.230932191073 0)
(-0.0036046294217 0.230898265254 0)
(-0.00378703753865 0.230861876754 0)
(-0.00397032458624 0.230823045382 0)
(-0.00415418806744 0.230781828411 0)
(-0.00433820289199 0.230738276313 0)
(-0.00452204175528 0.230692475255 0)
(-0.00470526969492 0.230644501407 0)
(-0.00488754472643 0.230594463745 0)
(-0.00506843455858 0.230542458867 0)
(-0.00524759128828 0.23048861249 0)
(-0.00542459669012 0.230433036758 0)
(-0.00559910494935 0.230375868436 0)
(-0.00577072158466 0.230317230804 0)
(-0.00593910986202 0.230257266709 0)
(-0.00610390746072 0.23019610672 0)
(-0.00626479315271 0.230133895488 0)
(-0.00642144317315 0.230070767507 0)
(-0.00657355724276 0.230006865009 0)
(-0.00672085431928 0.229942321622 0)
(-0.00686305904945 0.229877274094 0)
(-0.00699993648274 0.229811854233 0)
(-0.00713124196265 0.229746191546 0)
(-0.00725678891111 0.229680420849 0)
(-0.00737636703227 0.229614664867 0)
(-0.00748983731138 0.229549047951 0)
(-0.00759702504187 0.229483682421 0)
(-0.00769783666413 0.229418688491 0)
(-0.0077921350742 0.229354168672 0)
(-0.00787984698358 0.22929023161 0)
(-0.00796085145349 0.229226974615 0)
(-0.00803516210587 0.229164503361 0)
(-0.00810273893931 0.229102892627 0)
(-0.00816359964342 0.229042228441 0)
(-0.0082177153769 0.228982575234 0)
(-0.00826513514073 0.228924005666 0)
(-0.00830586255541 0.228866573475 0)
(-0.00833997154315 0.228810340345 0)
(-0.00836749566594 0.22875534996 0)
(-0.00838853006977 0.228701652675 0)
(-0.00840313498485 0.228649282235 0)
(-0.00841142316722 0.228598277708 0)
(-0.00841347782533 0.228548663392 0)
(-0.00840942636404 0.22850046779 0)
(-0.00839937116405 0.228453706306 0)
(-0.00838345157371 0.228408397491 0)
(-0.00836178527279 0.228364548442 0)
(-0.00833452141313 0.2283221688 0)
(-0.0083017892366 0.228281257879 0)
(-0.00826374561604 0.228241817303 0)
(-0.0082205277476 0.228203839313 0)
(-0.00817229858284 0.228167318666 0)
(-0.00811919995117 0.228132241032 0)
(-0.00806139917676 0.228098595239 0)
(-0.00799903973182 0.2280663611 0)
(-0.0079322919906 0.228035522681 0)
(-0.00786129846637 0.228006054508 0)
(-0.00778623109579 0.227977936679 0)
(-0.00770722917925 0.227951139083 0)
(-0.00762446503496 0.227925638963 0)
(-0.00753807292052 0.22790140226 0)
(-0.00744822424269 0.227878403988 0)
(-0.00735504662864 0.227856606656 0)
(-0.007258709562 0.227835983905 0)
(-0.0071593329824 0.227816495557 0)
(-0.00705708340863 0.227798114483 0)