/*--------------------------------*- C++ -*----------------------------------*\
| =========                 |                                                 |
| \\      /  F ield         | OpenFOAM: The Open Source CFD Toolbox           |
|  \\    /   O peration     | Version:  2206                                  |
|   \\  /    A nd           | Website:  www.openfoam.com                      |
|    \\/     M anipulation  |                                                 |
\*---------------------------------------------------------------------------*/
FoamFile
{
    version     2.0;
    format      ascii;
    arch        "LSB;label=64;scalar=64";
    class       volScalarField;
    location    "3.5/water";
    object      alpha.gas;
}
// * * * * * * * * * * * * * * * * * * * * * * * * * * * * * * * * * * * * * //

dimensions      [0 0 0 0 0 0 0];

internalField   nonuniform List<scalar> 
23300
(
1e-15
1e-15
1e-15
1e-15
1e-15
1e-15
1e-15
1e-15
1e-15
1e-15
1e-15
1e-15
1e-15
1e-15
1e-15
1e-15
1e-15
1e-15
1e-15
1e-15
1e-15
1e-15
1e-15
1e-15
1e-15
1e-15
1e-15
1e-15
1e-15
1e-15
1e-15
1e-15
1e-15
1e-15
1e-15
1e-15
1e-15
1e-15
1e-15
1e-15
1e-15
1e-15
1e-15
1e-15
1e-15
1e-15
1e-15
1e-15
1e-15
1e-15
1e-15
1e-15
1e-15
1e-15
1e-15
1e-15
1e-15
1e-15
1e-15
1e-15
1e-15
1e-15
1e-15
1e-15
1e-15
1e-15
1e-15
1e-15
1e-15
1e-15
1e-15
1e-15
1e-15
1e-15
1e-15
1e-15
1e-15
1e-15
1e-15
1e-15
1e-15
1e-15
1e-15
1e-15
1e-15
1e-15
1e-15
1e-15
1e-15
1e-15
1e-15
1e-15
1e-15
1e-15
1e-15
1e-15
1e-15
1e-15
1e-15
1e-15
1e-15
1e-15
1e-15
1e-15
1e-15
1e-15
1e-15
1e-15
1e-15
1e-15
1e-15
1e-15
1e-15
1e-15
1e-15
1e-15
1e-15
1e-15
1e-15
1e-15
1e-15
1e-15
1e-15
1e-15
1e-15
1e-15
1e-15
1e-15
1e-15
1e-15
1e-15
1e-15
1e-15
1e-15
1e-15
1e-15
1e-15
1e-15
1e-15
1e-15
1e-15
1e-15
1e-15
1e-15
1e-15
1e-15
1e-15
1e-15
1e-15
1e-15
1e-15
1e-15
1e-15
1e-15
1e-15
1e-15
1e-15
1e-15
1e-15
1e-15
1e-15
1e-15
1e-15
1e-15
1e-15
1e-15
1e-15
1e-15
1e-15
1e-15
1e-15
1e-15
1e-15
1e-15
1e-15
1e-15
1e-15
1e-15
1e-15
1e-15
1e-15
1e-15
1e-15
1e-15
1e-15
1e-15
1e-15
1e-15
1e-15
1e-15
1e-15
1e-15
1e-15
1e-15
1e-15
1e-15
1e-15
1e-15
1e-15
1e-15
1e-15
1e-15
1e-15
1e-15
1e-15
1e-15
1e-15
1e-15
1e-15
1e-15
1e-15
1e-15
1e-15
1e-15
1e-15
1e-15
1e-15
1e-15
1e-15
1e-15
1e-15
1e-15
1e-15
1e-15
1e-15
1e-15
1e-15
1e-15
1e-15
1e-15
1e-15
1e-15
1e-15
1e-15
1e-15
1e-15
1e-15
1e-15
1e-15
1e-15
1e-15
1e-15
1e-15
1e-15
1e-15
1e-15
1e-15
1e-15
1e-15
1e-15
1e-15
1e-15
1e-15
1e-15
1e-15
1e-15
1e-15
1e-15
1e-15
1e-15
1e-15
1e-15
1e-15
1e-15
1e-15
1e-15
1e-15
1e-15
1e-15
1e-15
1e-15
1e-15
1e-15
1e-15
1e-15
1e-15
1e-15
1e-15
1e-15
1e-15
1e-15
1e-15
1e-15
1e-15
1e-15
1e-15
1e-15
1e-15
1e-15
1e-15
1e-15
1e-15
1e-15
1e-15
1e-15
1e-15
1e-15
1e-15
1e-15
1e-15
1e-15
1e-15
1e-15
1e-15
1e-15
1e-15
1e-15
1e-15
1e-15
1e-15
1e-15
1e-15
1e-15
1e-15
1e-15
1e-15
1e-15
1e-15
1e-15
1e-15
1e-15
1e-15
1e-15
1e-15
1e-15
1e-15
1e-15
1e-15
1e-15
1e-15
1e-15
1e-15
1e-15
1e-15
1e-15
1e-15
1e-15
1e-15
1e-15
1e-15
1e-15
1e-15
1e-15
1e-15
1e-15
1e-15
1e-15
1e-15
1e-15
1e-15
1e-15
1e-15
1e-15
1e-15
1e-15
1e-15
1e-15
1e-15
1e-15
1e-15
1e-15
1e-15
1e-15
1e-15
1e-15
1e-15
1e-15
1e-15
1e-15
1e-15
1e-15
1e-15
1e-15
1e-15
1e-15
1e-15
1e-15
1e-15
1e-15
1e-15
1e-15
1e-15
1e-15
1e-15
1e-15
1e-15
1e-15
1e-15
1e-15
1e-15
1e-15
1e-15
1e-15
1e-15
1e-15
1e-15
1e-15
1e-15
1e-15
1e-15
1e-15
1e-15
1e-15
1e-15
1e-15
1e-15
1e-15
1e-15
1e-15
1e-15
1e-15
1e-15
1e-15
1e-15
1e-15
1e-15
1e-15
1e-15
1e-15
1e-15
1e-15
1e-15
1e-15
1e-15
1e-15
1e-15
1e-15
1e-15
1e-15
1e-15
1e-15
1e-15
1e-15
1e-15
1e-15
1e-15
1e-15
1e-15
1e-15
1e-15
1e-15
1e-15
1e-15
1e-15
1e-15
1e-15
1e-15
1e-15
1e-15
1e-15
1e-15
1e-15
1e-15
1e-15
1e-15
1e-15
1e-15
1e-15
1e-15
1e-15
1e-15
1e-15
1e-15
1e-15
1e-15
1e-15
1e-15
1e-15
1e-15
1e-15
1e-15
1e-15
1e-15
1e-15
1e-15
1e-15
1e-15
1e-15
1e-15
1e-15
1e-15
1e-15
1e-15
1e-15
1e-15
1e-15
1e-15
1e-15
1e-15
1e-15
1e-15
1e-15
1e-15
1e-15
1e-15
1e-15
1e-15
1e-15
1e-15
1e-15
1e-15
1e-15
1e-15
1e-15
1e-15
1e-15
1e-15
1e-15
1e-15
1e-15
1e-15
1e-15
1e-15
1e-15
1e-15
1e-15
1e-15
1e-15
1e-15
1e-15
1e-15
1e-15
1e-15
1e-15
1e-15
1e-15
1e-15
1e-15
1e-15
1e-15
1e-15
1e-15
1e-15
1e-15
1e-15
1e-15
1e-15
1e-15
1e-15
1e-15
1e-15
1e-15
1e-15
1e-15
1e-15
1e-15
1e-15
1e-15
1e-15
1e-15
1e-15
1e-15
1e-15
1e-15
1e-15
1e-15
1e-15
1e-15
1e-15
1e-15
1.01718897362e-15
1e-15
1e-15
1e-15
1e-15
1e-15
1e-15
1e-15
1e-15
1e-15
1e-15
1e-15
1e-15
1e-15
1e-15
1e-15
1e-15
1e-15
1e-15
1e-15
1e-15
1e-15
1e-15
1e-15
1e-15
1e-15
1e-15
1e-15
1e-15
1e-15
1e-15
1e-15
1e-15
1e-15
1e-15
1e-15
1e-15
1e-15
1e-15
1e-15
1e-15
1e-15
1e-15
1e-15
1e-15
1e-15
1e-15
1e-15
1e-15
1e-15
1e-15
1e-15
1e-15
1e-15
1e-15
1e-15
1e-15
1e-15
1e-15
1e-15
1e-15
1e-15
1e-15
1e-15
1e-15
1e-15
1e-15
1e-15
1e-15
1e-15
1e-15
1e-15
1e-15
1e-15
1e-15
1e-15
1e-15
1e-15
1e-15
1e-15
1e-15
1e-15
1e-15
1e-15
1e-15
1e-15
1e-15
1e-15
1e-15
1e-15
1e-15
1e-15
1e-15
1e-15
1e-15
1e-15
1e-15
1e-15
1e-15
1e-15
1e-15
1e-15
1e-15
1e-15
1e-15
1e-15
1e-15
1e-15
1e-15
1e-15
1e-15
1e-15
1e-15
1e-15
1e-15
1e-15
1e-15
1e-15
1e-15
1e-15
1e-15
1e-15
1e-15
1e-15
1e-15
1e-15
1e-15
1e-15
1e-15
1e-15
1e-15
1e-15
1.02783828274e-15
1.02865857813e-15
1.02783828274e-15
1.02854790681e-15
1e-15
1e-15
1.01298708452e-15
1e-15
1.01220663212e-15
1e-15
1e-15
1e-15
1e-15
1e-15
1e-15
1e-15
1e-15
1e-15
1e-15
1e-15
1e-15
1e-15
1e-15
1e-15
1e-15
1e-15
1e-15
1e-15
1e-15
1e-15
1e-15
1e-15
1e-15
1e-15
1e-15
1e-15
1e-15
1e-15
1e-15
1e-15
1e-15
1e-15
1e-15
1e-15
1e-15
1e-15
1e-15
1e-15
1e-15
1e-15
1e-15
1e-15
1e-15
1e-15
1e-15
1e-15
1e-15
1e-15
1e-15
1e-15
1e-15
1e-15
1e-15
1e-15
1e-15
1e-15
1e-15
1e-15
1e-15
1e-15
1e-15
1e-15
1e-15
1e-15
1e-15
1e-15
1e-15
1e-15
1e-15
1e-15
1e-15
1e-15
1e-15
1e-15
1e-15
1e-15
1e-15
1e-15
1e-15
1e-15
1e-15
1e-15
1e-15
1e-15
1e-15
1e-15
1e-15
1e-15
1e-15
1e-15
1e-15
1e-15
1e-15
1e-15
1e-15
1e-15
1e-15
1e-15
1e-15
1e-15
1e-15
1e-15
1e-15
1e-15
1e-15
1e-15
1e-15
1e-15
1e-15
1e-15
1e-15
1e-15
1e-15
1e-15
1e-15
1e-15
1e-15
1e-15
1e-15
1e-15
1e-15
1e-15
1e-15
1e-15
1e-15
1e-15
1e-15
1e-15
1e-15
1e-15
1.02888945495e-15
1.02783828274e-15
1.02911156264e-15
1.02783828274e-15
1e-15
1e-15
1.01447907677e-15
1e-15
1.01714961932e-15
1e-15
1.00009525125e-15
1.00011180821e-15
1.00014821431e-15
1.00018974954e-15
1.00023774473e-15
1.00029191175e-15
1.00034298835e-15
1.00037283168e-15
1.0003897953e-15
1.00038725674e-15
1.00037189665e-15
1.00033317073e-15
1.00027540981e-15
1.00019950164e-15
1.00013705639e-15
1.00007311483e-15
1.00002485304e-15
1.000003785e-15
1.00000040224e-15
1e-15
1e-15
1e-15
1e-15
1e-15
1e-15
1e-15
1e-15
1e-15
1e-15
1e-15
1e-15
1.00000077735e-15
1.00000346436e-15
1.00000738721e-15
1.00003024378e-15
1.00043596457e-15
1.00133638883e-15
1.00152360409e-15
1.00155002906e-15
1.00152360409e-15
1.00155169595e-15
1.00152360409e-15
1.00155366852e-15
1.00152360409e-15
1.00155265462e-15
1.00152360409e-15
1.00155219117e-15
1.00152360409e-15
1.00154900514e-15
1.00098955999e-15
1.00029856675e-15
1.00030655765e-15
1.00029575152e-15
1.00028101393e-15
1.00026612932e-15
1.00024708399e-15
1.00022631113e-15
1.00019888689e-15
1.00016756877e-15
1.00012440553e-15
1.00007563334e-15
1.00002271466e-15
1.0000016713e-15
1e-15
1e-15
1e-15
1e-15
1e-15
1e-15
1e-15
1e-15
1e-15
1e-15
1e-15
1e-15
1e-15
1e-15
1e-15
1e-15
1e-15
1e-15
1e-15
1e-15
1e-15
1e-15
1e-15
1e-15
1e-15
1e-15
1e-15
1e-15
1e-15
1e-15
1e-15
1e-15
1.00000170346e-15
1.00000433429e-15
1.00005970691e-15
1.00011986589e-15
1.0001702513e-15
1.00021107941e-15
1.00023830112e-15
1.00025605384e-15
1.00026722267e-15
1.00027400074e-15
1.00027578772e-15
1.00027391761e-15
1.00026714452e-15
1.00025507152e-15
1.00023366877e-15
1.00020321263e-15
1.00016945463e-15
1.00013556356e-15
1.00009897183e-15
1.00006166757e-15
1.00002413188e-15
1.00000449658e-15
1.00000360112e-15
1.00000277158e-15
1.00000101041e-15
1e-15
1e-15
1e-15
1e-15
1.0000012627e-15
1.00000402261e-15
1.00003082583e-15
1.00014769948e-15
1.00030289414e-15
1.0004627555e-15
1.02783828274e-15
1.02909899599e-15
1.02783828274e-15
1.02894478165e-15
1.00106386813e-15
1.00006557325e-15
1.01298708452e-15
1e-15
1.01220663212e-15
1e-15
1.00010496436e-15
1.00012901096e-15
1.0001758278e-15
1.00023279598e-15
1.00032916949e-15
1.00046974929e-15
1.00061432036e-15
1.00068222957e-15
1.00073300441e-15
1.00073911652e-15
1.00070801529e-15
1.00062303154e-15
1.00049923775e-15
1.00033857398e-15
1.00020759801e-15
1.0001174076e-15
1.00006011384e-15
1.00001648323e-15
1e-15
1e-15
1e-15
1e-15
1e-15
1e-15
1e-15
1e-15
1e-15
1e-15
1e-15
1e-15
1e-15
1e-15
1.00001020934e-15
1.00004205617e-15
1.00031619607e-15
1.00154526557e-15
1.00152360409e-15
1.00155891812e-15
1.00152360409e-15
1.00155901799e-15
1.00152360409e-15
1.00155919285e-15
1.00152360409e-15
1.00155930274e-15
1.00152360409e-15
1.00155926919e-15
1.00152360409e-15
1.00155781852e-15
1.00152360409e-15
1.00154995242e-15
1.00113496179e-15
1.00073117787e-15
1.00070765402e-15
1.0006725078e-15
1.00063228423e-15
1.00057945238e-15
1.00053421279e-15
1.00049117377e-15
1.00044134991e-15
1.0003598785e-15
1.00025361214e-15
1.0001099916e-15
1e-15
1e-15
1e-15
1e-15
1e-15
1e-15
1e-15
1e-15
1e-15
1e-15
1e-15
1e-15
1e-15
1e-15
1e-15
1e-15
1e-15
1e-15
1e-15
1e-15
1e-15
1e-15
1e-15
1e-15
1e-15
1e-15
1e-15
1e-15
1e-15
1e-15
1e-15
1e-15
1e-15
1e-15
1.00010233786e-15
1.00024091606e-15
1.00036643813e-15
1.00046704518e-15
1.00054719204e-15
1.00060547963e-15
1.00064839274e-15
1.000677578e-15
1.00069664035e-15
1.00070445261e-15
1.00070329036e-15
1.00069224113e-15
1.00067138994e-15
1.00063688037e-15
1.00058361805e-15
1.00052064014e-15
1.00045660199e-15
1.00038576511e-15
1.00031062759e-15
1.00023131563e-15
1.00015644815e-15
1.00008610609e-15
1.00002925396e-15
1e-15
1e-15
1e-15
1e-15
1e-15
1.00000108345e-15
1.00009875978e-15
1.00026841234e-15
1.00052119392e-15
1.00083001751e-15
1.00105201139e-15
1.02890213602e-15
1.02783828274e-15
1.02911003215e-15
1.02783828274e-15
1.00267190955e-15
1.00068102965e-15
1.01418976441e-15
1e-15
1.01643349367e-15
1e-15
1.00008723717e-15
1.0001085259e-15
1.00015204918e-15
1.00020545837e-15
1.00029948285e-15
1.00045175661e-15
1.00062233034e-15
1.00077978979e-15
1.00089152316e-15
1.00091633261e-15
1.00088683367e-15
1.00076651873e-15
1.0006051876e-15
1.00041224898e-15
1.00023870013e-15
1.00014125287e-15
1.00007903765e-15
1.00003501373e-15
1.0000125496e-15
1.00000128051e-15
1e-15
1e-15
1e-15
1e-15
1e-15
1e-15
1e-15
1e-15
1e-15
1.00000151865e-15
1.00000880547e-15
1.00002301739e-15
1.00005197025e-15
1.00012584456e-15
1.00064849882e-15
1.00152360409e-15
1.00155250095e-15
1.00152360409e-15
1.00155635124e-15
1.00152360409e-15
1.00155822593e-15
1.00152360409e-15
1.00155919006e-15
1.00152360409e-15
1.00155669973e-15
1.00152360409e-15
1.00154840329e-15
1.00152360409e-15
1.00154489946e-15
1.00152360409e-15
1.00153793748e-15
1.00120427857e-15
1.00109876214e-15
1.00102687524e-15
1.00096754655e-15
1.00091763964e-15
1.00083386244e-15
1.00071103714e-15
1.00057703837e-15
1.00041771487e-15
1.00025113738e-15
1.00008268022e-15
1e-15
1e-15
1e-15
1e-15
1e-15
1e-15
1e-15
1e-15
1e-15
1e-15
1e-15
1e-15
1e-15
1e-15
1e-15
1e-15
1e-15
1e-15
1e-15
1e-15
1e-15
1e-15
1e-15
1e-15
1e-15
1e-15
1e-15
1e-15
1e-15
1e-15
1e-15
1e-15
1e-15
1.00004375656e-15
1.0002673355e-15
1.0004876136e-15
1.00066807359e-15
1.00081120199e-15
1.00092888555e-15
1.0010190796e-15
1.00109008731e-15
1.00114110925e-15
1.00117711789e-15
1.00119567776e-15
1.00120042344e-15
1.00119092873e-15
1.00116845444e-15
1.00112907606e-15
1.00106210954e-15
1.00097607012e-15
1.000889942e-15
1.0007938167e-15
1.00069012415e-15
1.00057877543e-15
1.00045161831e-15
1.00032120841e-15
1.00020951134e-15
1.00014732907e-15
1.00012532447e-15
1.00011608111e-15
1.00011850708e-15
1.0001341288e-15
1.00017583311e-15
1.00035669659e-15
1.00066716503e-15
1.00104466389e-15
1.00147926915e-15
1.00347209315e-15
1.02783828274e-15
1.02904619974e-15
1.02783828274e-15
1.02888995168e-15
1.00443109848e-15
1.00148096198e-15
1.01298506562e-15
1e-15
1.01220663212e-15
1e-15
1.00006755577e-15
1.0000839721e-15
1.00011840142e-15
1.00016345353e-15
1.00023817464e-15
1.00036495856e-15
1.00059719441e-15
1.00081653258e-15
1.00098417564e-15
1.00102999289e-15
1.00101323966e-15
1.00086610484e-15
1.00066787383e-15
1.00044764329e-15
1.00026291261e-15
1.00015265378e-15
1.00009030592e-15
1.00004462809e-15
1.00001602165e-15
1.00000369203e-15
1e-15
1e-15
1e-15
1e-15
1e-15
1e-15
1e-15
1e-15
1e-15
1.00000345726e-15
1.00001333295e-15
1.00002795543e-15
1.00012573001e-15
1.00039175789e-15
1.00128224877e-15
1.00154051253e-15
1.00152360409e-15
1.0015448555e-15
1.00152360409e-15
1.00154672522e-15
1.00152360409e-15
1.00154717194e-15
1.00152360409e-15
1.00155014022e-15
1.00152360409e-15
1.00153981434e-15
1.00152360409e-15
1.00153714241e-15
1.00152360409e-15
1.00153382434e-15
1.00152360409e-15
1.00152795512e-15
1.00136155134e-15
1.00128298407e-15
1.00115184089e-15
1.00099192465e-15
1.00083804163e-15
1.00068342276e-15
1.00052348673e-15
1.00034305658e-15
1.00014952114e-15
1e-15
1e-15
1e-15
1e-15
1e-15
1e-15
1e-15
1e-15
1e-15
1e-15
1e-15
1e-15
1e-15
1e-15
1e-15
1e-15
1e-15
1e-15
1e-15
1e-15
1e-15
1e-15
1e-15
1e-15
1e-15
1e-15
1e-15
1e-15
1e-15
1e-15
1e-15
1e-15
1e-15
1e-15
1.00014951957e-15
1.00047927717e-15
1.00073277255e-15
1.00095021834e-15
1.00113477233e-15
1.0012967151e-15
1.00142650839e-15
1.0015324342e-15
1.00161086707e-15
1.00166909172e-15
1.00170288406e-15
1.00171808049e-15
1.00171310274e-15
1.00169197791e-15
1.00165271779e-15
1.00157565627e-15
1.00146803321e-15
1.00136802541e-15
1.00125701632e-15
1.00113694555e-15
1.00100695646e-15
1.00086339466e-15
1.00070693448e-15
1.00055785177e-15
1.00044270352e-15
1.00037249094e-15
1.0003385023e-15
1.00034328139e-15
1.00038966902e-15
1.0005118184e-15
1.00077876658e-15
1.00117364405e-15
1.00164718259e-15
1.00223028915e-15
1.02783738103e-15
1.0288916883e-15
1.02783828274e-15
1.02905118355e-15
1.02783828274e-15
1.00618830567e-15
1.0022454555e-15
1.01373381159e-15
1e-15
1.01566828681e-15
1e-15
1.00005136864e-15
1.00006447891e-15
1.00009154101e-15
1.00012659898e-15
1.00018330631e-15
1.00030807313e-15
1.00062634602e-15
1.00091170194e-15
1.00112887288e-15
1.00121484853e-15
1.00149282329e-15
1.00102243979e-15
1.00077304213e-15
1.00049419516e-15
1.0002817547e-15
1.0001560189e-15
1.00009727936e-15
1.00005123283e-15
1.00002438777e-15
1.00000843644e-15
1.00000044437e-15
1e-15
1e-15
1e-15
1e-15
1e-15
1e-15
1e-15
1.00000029666e-15
1.00000396546e-15
1.0000126483e-15
1.00005069243e-15
1.00026166016e-15
1.0007482771e-15
1.00153239224e-15
1.00152360409e-15
1.00153686504e-15
1.00152360409e-15
1.00153845e-15
1.00152360409e-15
1.00153896363e-15
1.00152360409e-15
1.00153917315e-15
1.00152360409e-15
1.00153881184e-15
1.00152360409e-15
1.00153166953e-15
1.00152360409e-15
1.00152956866e-15
1.00152360409e-15
1.00152731852e-15
1.00152360409e-15
1.00144135573e-15
1.00127523479e-15
1.00112269643e-15
1.00093461738e-15
1.00075438643e-15
1.00054701213e-15
1.00033083917e-15
1.00009924638e-15
1e-15
1e-15
1e-15
1e-15
1e-15
1e-15
1e-15
1e-15
1e-15
1e-15
1e-15
1e-15
1e-15
1e-15
1e-15
1e-15
1e-15
1e-15
1e-15
1e-15
1e-15
1e-15
1e-15
1e-15
1e-15
1e-15
1e-15
1e-15
1e-15
1e-15
1e-15
1e-15
1e-15
1e-15
1e-15
1.00026019764e-15
1.00060225409e-15
1.00087942601e-15
1.00114628565e-15
1.00138751016e-15
1.00160395633e-15
1.00178095955e-15
1.00192767686e-15
1.00203870019e-15
1.00212337721e-15
1.0021761937e-15
1.00220514834e-15
1.0022061673e-15
1.00218823514e-15
1.00214834271e-15
1.00206603646e-15
1.00193799557e-15
1.00182200117e-15
1.00169928024e-15
1.00156711486e-15
1.00142496692e-15
1.00128095938e-15
1.00113112585e-15
1.00097893374e-15
1.00083889265e-15
1.00073403564e-15
1.00067634451e-15
1.00068456199e-15
1.0007632406e-15
1.00095127497e-15
1.00126807386e-15
1.00169418678e-15
1.00224410401e-15
1.00297346238e-15
1.0284617715e-15
1.02783828274e-15
1.02899118365e-15
1.02783828274e-15
1.02883408783e-15
1.00781945618e-15
1.00286151914e-15
1.01298642411e-15
1e-15
1.01220663212e-15
1e-15
1.00003799954e-15
1.00005050498e-15
1.00007071908e-15
1.00009712071e-15
1.00014392358e-15
1.00034566083e-15
1.00084221245e-15
1.00120735198e-15
1.00146191534e-15
1.00219255022e-15
1.00226639826e-15
1.00132337784e-15
1.00103361578e-15
1.00063228161e-15
1.00032366635e-15
1.00015861659e-15
1.00010339713e-15
1.00005725721e-15
1.00003103266e-15
1.00001155159e-15
1.00000300796e-15
1e-15
1e-15
1e-15
1e-15
1e-15
1e-15
1e-15
1.00000038518e-15
1.00000257165e-15
1.00000984956e-15
1.00012986212e-15
1.0004358792e-15
1.00101269544e-15
1.00152360409e-15
1.00152883143e-15
1.00152360409e-15
1.00153091602e-15
1.00152360409e-15
1.00153145377e-15
1.00152360409e-15
1.00153136305e-15
1.00152360409e-15
1.00153385957e-15
1.00152360409e-15
1.00152713403e-15
1.00152360409e-15
1.00152595074e-15
1.00152360409e-15
1.00152474817e-15
1.00152360409e-15
1.00152390119e-15
1.00139878736e-15
1.00120559943e-15
1.00101571189e-15
1.00078779654e-15
1.0005440493e-15
1.00024531924e-15
1e-15
1e-15
1e-15
1e-15
1e-15
1e-15
1e-15
1e-15
1e-15
1e-15
1e-15
1e-15
1e-15
1e-15
1e-15
1e-15
1e-15
1e-15
1e-15
1e-15
1e-15
1e-15
1e-15
1e-15
1e-15
1e-15
1e-15
1e-15
1e-15
1e-15
1e-15
1e-15
1e-15
1e-15
1e-15
1e-15
1e-15
1.00027583603e-15
1.00062752236e-15
1.00095814659e-15
1.00129102987e-15
1.00159943711e-15
1.00187283576e-15
1.00209732759e-15
1.00228468411e-15
1.00242923505e-15
1.00254124021e-15
1.00261474594e-15
1.00265888633e-15
1.00266798695e-15
1.00265441215e-15
1.00261481242e-15
1.00253223433e-15
1.00238376074e-15
1.0022446278e-15
1.00210526093e-15
1.001954654e-15
1.00179352447e-15
1.00163931017e-15
1.00149259883e-15
1.00135252715e-15
1.00122386344e-15
1.00112279605e-15
1.00106618478e-15
1.00108238914e-15
1.00117820022e-15
1.00138486383e-15
1.00170866109e-15
1.00216196974e-15
1.00279954373e-15
1.00367054562e-15
1.02783828274e-15
1.0288454011e-15
1.02783828274e-15
1.02899212984e-15
1.02783828274e-15
1.00929432563e-15
1.00330867588e-15
1.01342907616e-15
1e-15
1.01489557833e-15
1e-15
1.00002901439e-15
1.00003661943e-15
1.0000549017e-15
1.00007517336e-15
1.00011193292e-15
1.00034059025e-15
1.0009711974e-15
1.00146060982e-15
1.00191555061e-15
1.00226639826e-15
1.00231874664e-15
1.00173714444e-15
1.00148738409e-15
1.00094639206e-15
1.00044395583e-15
1.00016143142e-15
1.00010947163e-15
1.00006287042e-15
1.00003625699e-15
1.0000140527e-15
1.00000634692e-15
1e-15
1e-15
1e-15
1e-15
1e-15
1e-15
1e-15
1e-15
1.00000002942e-15
1.00000545646e-15
1.00023425262e-15
1.00060629121e-15
1.00118728707e-15
1.00152504883e-15
1.00152360409e-15
1.00152653661e-15
1.00152360409e-15
1.00152694857e-15
1.00152360409e-15
1.00152699178e-15
1.00152360409e-15
1.00152667426e-15
1.00152360409e-15
1.00152768975e-15
1.00152360409e-15
1.00152429897e-15
1.00152360409e-15
1.00152386711e-15
1.00152280401e-15
1.00151364111e-15
1.00147972125e-15
1.00128931369e-15
1.00106451832e-15
1.00082704798e-15
1.00053677775e-15
1.00020250549e-15
1e-15
1e-15
1e-15
1e-15
1e-15
1e-15
1e-15
1e-15
1e-15
1e-15
1e-15
1e-15
1e-15
1e-15
1e-15
1e-15
1e-15
1e-15
1e-15
1e-15
1e-15
1e-15
1e-15
1e-15
1e-15
1e-15
1e-15
1e-15
1e-15
1e-15
1e-15
1e-15
1e-15
1e-15
1e-15
1e-15
1e-15
1e-15
1.00028894499e-15
1.00065625658e-15
1.00104387716e-15
1.0014586991e-15
1.00183845509e-15
1.00216398874e-15
1.00243204561e-15
1.0026570951e-15
1.00283356607e-15
1.00297166215e-15
1.00306587423e-15
1.00312551487e-15
1.00314451542e-15
1.00313618719e-15
1.00309801494e-15
1.00302086237e-15
1.00285722125e-15
1.00268703741e-15
1.00252601667e-15
1.00235012643e-15
1.00216001422e-15
1.00198028452e-15
1.00181586771e-15
1.00167370247e-15
1.00155312032e-15
1.00146302088e-15
1.00141746065e-15
1.00144307166e-15
1.00154706589e-15
1.0017586839e-15
1.00209096423e-15
1.00260040892e-15
1.00334937685e-15
1.00435123168e-15
1.02847032331e-15
1.02783828274e-15
1.02893737187e-15
1.02783828274e-15
1.0287827298e-15
1.01060590429e-15
1.00360071693e-15
1.01298596465e-15
1e-15
1.01220663212e-15
1e-15
1.00002276468e-15
1.00002726912e-15
1.00003962287e-15
1.00005757848e-15
1.00008576436e-15
1.00021844152e-15
1.00091541041e-15
1.00144004311e-15
1.00200009896e-15
1.00230933602e-15
1.00226639826e-15
1.00202731805e-15
1.00176832377e-15
1.00128240615e-15
1.00065622402e-15
1.00018154138e-15
1.00011553713e-15
1.00006846156e-15
1.00004075551e-15
1.00001675026e-15
1.00000878301e-15
1.00000133013e-15
1e-15
1e-15
1e-15
1e-15
1e-15
1e-15
1e-15
1e-15
1.00000097344e-15
1.00031830478e-15
1.00074698182e-15
1.00128767509e-15
1.00151819878e-15
1.00152334345e-15
1.00152360409e-15
1.00152423864e-15
1.00152360409e-15
1.00152430257e-15
1.00152360409e-15
1.00152426021e-15
1.00152360409e-15
1.00152489996e-15
1.00152360409e-15
1.00151778874e-15
1.00150418411e-15
1.00149780153e-15
1.00149282668e-15
1.00148104972e-15
1.00145505601e-15
1.00135343993e-15
1.00111025493e-15
1.00084336647e-15
1.00052384067e-15
1.00015766161e-15
1e-15
1e-15
1e-15
1e-15
1e-15
1e-15
1e-15
1e-15
1e-15
1e-15
1e-15
1e-15
1e-15
1e-15
1e-15
1e-15
1e-15
1e-15
1e-15
1e-15
1e-15
1e-15
1e-15
1e-15
1e-15
1e-15
1e-15
1e-15
1e-15
1e-15
1e-15
1e-15
1e-15
1e-15
1e-15
1e-15
1e-15
1e-15
1e-15
1.00030740657e-15
1.00069267139e-15
1.00122630227e-15
1.00171663172e-15
1.00214544654e-15
1.00252288163e-15
1.00283372994e-15
1.00309309283e-15
1.00329982747e-15
1.00346337407e-15
1.00357839387e-15
1.00365385921e-15
1.0036844546e-15
1.00368207459e-15
1.00364695878e-15
1.00358272538e-15
1.0034109431e-15
1.0032033277e-15
1.00302294007e-15
1.00282285473e-15
1.00260182909e-15
1.00238666662e-15
1.00218614967e-15
1.00201806612e-15
1.0018820219e-15
1.00178429787e-15
1.00173726853e-15
1.00176871497e-15
1.00188328905e-15
1.00211573199e-15
1.00248813173e-15
1.0030872903e-15
1.00395496306e-15
1.00507250964e-15
1.02783828274e-15
1.02879864318e-15
1.02783828274e-15
1.02893779449e-15
1.02783828274e-15
1.01180426666e-15
1.0038610999e-15
1.0132348523e-15
1e-15
1.0141521702e-15
1e-15
1.00001867312e-15
1.0000197781e-15
1.00002843142e-15
1.00004080242e-15
1.00006466961e-15
1.00010150474e-15
1.00056947348e-15
1.00127775025e-15
1.00194033451e-15
1.00226639826e-15
1.00231287566e-15
1.00216653123e-15
1.00177957292e-15
1.00137692571e-15
1.00085257275e-15
1.00026252195e-15
1.00012165177e-15
1.0000738486e-15
1.00004589117e-15
1.00002143664e-15
1.00000977479e-15
1.00000147941e-15
1e-15
1e-15
1e-15
1e-15
1e-15
1e-15
1e-15
1e-15
1.00002043363e-15
1.00036344312e-15
1.00084752492e-15
1.0013220776e-15
1.00146782715e-15
1.00147903017e-15
1.00149157357e-15
1.00149535665e-15
1.00150013044e-15
1.00150105453e-15
1.00150340504e-15
1.00150211645e-15
1.00150277494e-15
1.00150356742e-15
1.00152367219e-15
1.00150350953e-15
1.00144492426e-15
1.00143558037e-15
1.00142317924e-15
1.00139499457e-15
1.0013248715e-15
1.00112587755e-15
1.00082930703e-15
1.00046081792e-15
1.00007694418e-15
1e-15
1e-15
1e-15
1e-15
1e-15
1e-15
1e-15
1e-15
1e-15
1e-15
1e-15
1e-15
1e-15
1e-15
1e-15
1e-15
1e-15
1e-15
1e-15
1e-15
1e-15
1e-15
1e-15
1e-15
1e-15
1e-15
1e-15
1e-15
1e-15
1e-15
1e-15
1e-15
1e-15
1e-15
1e-15
1e-15
1e-15
1e-15
1e-15
1e-15
1.00032018141e-15
1.00084072439e-15
1.00149603977e-15
1.00202930016e-15
1.00254821804e-15
1.00295122662e-15
1.00329375154e-15
1.003595504e-15
1.00383556431e-15
1.00402418629e-15
1.00416041334e-15
1.00425288981e-15
1.00429643757e-15
1.00430093447e-15
1.00427035003e-15
1.00421785325e-15
1.00405252193e-15
1.00381263267e-15
1.0036122104e-15
1.00339851076e-15
1.00315797672e-15
1.00291225645e-15
1.00267181993e-15
1.00246159954e-15
1.00228846366e-15
1.00216297705e-15
1.00209878796e-15
1.00213184631e-15
1.00226100286e-15
1.00253263102e-15
1.00297755275e-15
1.00367993056e-15
1.00464171266e-15
1.00586058547e-15
1.0284704183e-15
1.02783828274e-15
1.02888689868e-15
1.02783828274e-15
1.02873691448e-15
1.01288803446e-15
1.00404892427e-15
1.01298349719e-15
1e-15
1.01220663212e-15
1e-15
1.00001529023e-15
1.00001461113e-15
1.00001990642e-15
1.00002754988e-15
1.000045592e-15
1.00006720897e-15
1.00016884556e-15
1.00092046373e-15
1.00174968142e-15
1.00227600845e-15
1.00226639826e-15
1.00217118781e-15
1.00174275265e-15
1.00137677142e-15
1.00095911552e-15
1.00039763797e-15
1.00012830582e-15
1.00007948523e-15
1.00004955148e-15
1.00002316973e-15
1.00000975177e-15
1.0000012212e-15
1e-15
1e-15
1e-15
1e-15
1e-15
1e-15
1e-15
1e-15
1.00001410676e-15
1.00039882964e-15
1.0009221081e-15
1.00130470464e-15
1.00138796694e-15
1.00140088567e-15
1.00141654782e-15
1.00142380255e-15
1.00143297492e-15
1.00143596694e-15
1.00144129423e-15
1.00144083015e-15
1.00144365984e-15
1.00144822767e-15
1.00150403215e-15
1.0014560465e-15
1.00134734255e-15
1.0013347722e-15
1.00130537692e-15
1.00123574875e-15
1.00107033705e-15
1.00073737764e-15
1.00032611898e-15
1e-15
1e-15
1e-15
1e-15
1e-15
1e-15
1e-15
1e-15
1e-15
1e-15
1e-15
1e-15
1e-15
1e-15
1e-15
1e-15
1e-15
1e-15
1e-15
1e-15
1e-15
1e-15
1e-15
1e-15
1e-15
1e-15
1e-15
1e-15
1e-15
1e-15
1e-15
1e-15
1e-15
1e-15
1e-15
1e-15
1e-15
1e-15
1e-15
1e-15
1e-15
1e-15
1.00040467744e-15
1.00107039171e-15
1.00175927126e-15
1.00236721419e-15
1.00291002948e-15
1.0033749925e-15
1.00380122105e-15
1.0041223457e-15
1.00438880918e-15
1.00461269081e-15
1.00477457427e-15
1.00488440594e-15
1.0049410527e-15
1.00495363348e-15
1.00492846227e-15
1.00488111472e-15
1.00473625681e-15
1.00447670573e-15
1.0042476956e-15
1.00403026072e-15
1.00378646472e-15
1.00352876641e-15
1.0032662598e-15
1.00302172275e-15
1.00280990909e-15
1.00265081654e-15
1.00256312406e-15
1.00259542389e-15
1.00273993443e-15
1.00305679661e-15
1.00358067893e-15
1.00436023163e-15
1.00537180963e-15
1.00668624324e-15
1.02783828274e-15
1.0287541943e-15
1.02783828274e-15
1.02888873918e-15
1.02783828274e-15
1.01386028127e-15
1.00403329566e-15
1.01311616339e-15
1e-15
1.01346538517e-15
1e-15
1.00001276856e-15
1.00001092678e-15
1.00001398443e-15
1.00001858313e-15
1.00002967412e-15
1.0000465064e-15
1.00007559301e-15
1.00033945845e-15
1.00142947514e-15
1.00203871208e-15
1.00227645839e-15
1.00215452458e-15
1.00167163513e-15
1.0013660348e-15
1.00102244438e-15
1.00053279242e-15
1.00013736316e-15
1.00008438637e-15
1.00005133353e-15
1.0000226117e-15
1.00000864127e-15
1.00000048524e-15
1e-15
1e-15
1e-15
1e-15
1e-15
1e-15
1e-15
1e-15
1e-15
1.0003854251e-15
1.00096296611e-15
1.00125020777e-15
1.00128914399e-15
1.00130221985e-15
1.00131807051e-15
1.00132668301e-15
1.0013380184e-15
1.0013429411e-15
1.00135023563e-15
1.00135112773e-15
1.00135473235e-15
1.00136167071e-15
1.00141600235e-15
1.00138871992e-15
1.00124041952e-15
1.00115603816e-15
1.00108811647e-15
1.00091163945e-15
1.0005551328e-15
1.00011709037e-15
1e-15
1e-15
1e-15
1e-15
1e-15
1e-15
1e-15
1e-15
1e-15
1e-15
1e-15
1e-15
1e-15
1e-15
1e-15
1e-15
1e-15
1e-15
1e-15
1e-15
1e-15
1e-15
1e-15
1e-15
1e-15
1e-15
1e-15
1e-15
1e-15
1e-15
1e-15
1e-15
1e-15
1e-15
1e-15
1e-15
1e-15
1e-15
1e-15
1e-15
1e-15
1e-15
1.00003348168e-15
1.0005312911e-15
1.00126861676e-15
1.0020032942e-15
1.00262596366e-15
1.00320170359e-15
1.0037625659e-15
1.00421495335e-15
1.00460953082e-15
1.00494639047e-15
1.00518061963e-15
1.0053594992e-15
1.00549515669e-15
1.00556901647e-15
1.00558939839e-15
1.0055688132e-15
1.00552154598e-15
1.00540560464e-15
1.00513579383e-15
1.00486115855e-15
1.00464221074e-15
1.00440008628e-15
1.0041430273e-15
1.00388088333e-15
1.00362940907e-15
1.00340284005e-15
1.00322685002e-15
1.00312598106e-15
1.00315859822e-15
1.00331504538e-15
1.00366364369e-15
1.00423490975e-15
1.00504270652e-15
1.0060750935e-15
1.0074840298e-15
1.02846512499e-15
1.02783828274e-15
1.02884065821e-15
1.02783828274e-15
1.02869703569e-15
1.01468675144e-15
1.00394921224e-15
1.01298326814e-15
1e-15
1.01220663212e-15
1e-15
1.00001041342e-15
1.00000774121e-15
1.00000950334e-15
1.00001188319e-15
1.00001908223e-15
1.00002818595e-15
1.00005295134e-15
1.00010077472e-15
1.00102268448e-15
1.00165178515e-15
1.0020922104e-15
1.00211501395e-15
1.00165433593e-15
1.00137434665e-15
1.00108884369e-15
1.00067819579e-15
1.00019945642e-15
1.00008788329e-15
1.00005116235e-15
1.00001984303e-15
1.00000638056e-15
1e-15
1e-15
1e-15
1e-15
1e-15
1e-15
1e-15
1e-15
1e-15
1e-15
1.00033125559e-15
1.00091657578e-15
1.00114598639e-15
1.00117016774e-15
1.00118364528e-15
1.00120030617e-15
1.00120998069e-15
1.00122241448e-15
1.00122822409e-15
1.00123602653e-15
1.00123738625e-15
1.00124072329e-15
1.00124330673e-15
1.00126639563e-15
1.00124898185e-15
1.00102910052e-15
1.00081944432e-15
1.00063494766e-15
1.0002614654e-15
1e-15
1e-15
1e-15
1e-15
1e-15
1e-15
1e-15
1e-15
1e-15
1e-15
1e-15
1e-15
1e-15
1e-15
1e-15
1e-15
1e-15
1e-15
1e-15
1e-15
1e-15
1e-15
1e-15
1e-15
1e-15
1e-15
1e-15
1e-15
1e-15
1e-15
1e-15
1e-15
1e-15
1e-15
1e-15
1e-15
1e-15
1e-15
1e-15
1e-15
1e-15
1e-15
1e-15
1e-15
1.00005435313e-15
1.00064280654e-15
1.00139277997e-15
1.00215611476e-15
1.00283423086e-15
1.00350099193e-15
1.00408192793e-15
1.00456365415e-15
1.00504150837e-15
1.00539266632e-15
1.00569081943e-15
1.00592803123e-15
1.00606571377e-15
1.00614458966e-15
1.00617908251e-15
1.00616648613e-15
1.00611640759e-15
1.00601878452e-15
1.00575801785e-15
1.00543561045e-15
1.00519657539e-15
1.00494892453e-15
1.00468808591e-15
1.0044308804e-15
1.00419061757e-15
1.00397470205e-15
1.00380633204e-15
1.00371189749e-15
1.00374835419e-15
1.00391203351e-15
1.00426923454e-15
1.00484431402e-15
1.00564967155e-15
1.00670397227e-15
1.00820211966e-15
1.02783828274e-15
1.028713022e-15
1.02783828274e-15
1.02884581994e-15
1.02783828274e-15
1.01537284281e-15
1.0037878883e-15
1.01304936694e-15
1e-15
1.01288837452e-15
1e-15
1.00000729686e-15
1.00000532009e-15
1.00000664007e-15
1.00000601638e-15
1.00001064983e-15
1.00001817617e-15
1.00003247294e-15
1.0000612248e-15
1.00037834169e-15
1.0012380738e-15
1.0018250242e-15
1.00205382101e-15
1.00167953662e-15
1.00141571217e-15
1.00118616427e-15
1.00085804437e-15
1.00038506534e-15
1.00008956987e-15
1.00004884716e-15
1.00001507877e-15
1.00000221179e-15
1e-15
1e-15
1e-15
1e-15
1e-15
1e-15
1e-15
1e-15
1e-15
1e-15
1.00021647495e-15
1.00079413119e-15
1.00098783599e-15
1.00101445667e-15
1.0010270583e-15
1.00104317416e-15
1.00105064485e-15
1.00106040433e-15
1.00106103843e-15
1.00106491211e-15
1.00106305024e-15
1.00106518531e-15
1.00105794105e-15
1.00103735862e-15
1.00095273359e-15
1.0005812351e-15
1.00014134358e-15
1e-15
1e-15
1e-15
1e-15
1e-15
1e-15
1e-15
1e-15
1e-15
1e-15
1e-15
1e-15
1e-15
1e-15
1e-15
1e-15
1e-15
1e-15