/*--------------------------------*- C++ -*----------------------------------*\
| =========                 |                                                 |
| \\      /  F ield         | OpenFOAM: The Open Source CFD Toolbox           |
|  \\    /   O peration     | Version:  2206                                  |
|   \\  /    A nd           | Website:  www.openfoam.com                      |
|    \\/     M anipulation  |                                                 |
\*---------------------------------------------------------------------------*/
FoamFile
{
    version     2.0;
    format      ascii;
    arch        "LSB;label=64;scalar=64";
    class       volScalarField;
    location    "3.5/water";
    object      alpha.gas_0;
}
// * * * * * * * * * * * * * * * * * * * * * * * * * * * * * * * * * * * * * //

dimensions      [0 0 0 0 0 0 0];

internalField   nonuniform List<scalar> 
23300
(
1e-15
1e-15
1e-15
1e-15
1e-15
1e-15
1e-15
1e-15
1e-15
1e-15
1e-15
1e-15
1e-15
1e-15
1e-15
1e-15
1e-15
1e-15
1e-15
1e-15
1e-15
1e-15
1e-15
1e-15
1e-15
1e-15
1e-15
1e-15
1e-15
1e-15
1e-15
1e-15
1e-15
1e-15
1e-15
1e-15
1e-15
1e-15
1e-15
1e-15
1e-15
1e-15
1e-15
1e-15
1e-15
1e-15
1e-15
1e-15
1e-15
1e-15
1e-15
1e-15
1e-15
1e-15
1e-15
1e-15
1e-15
1e-15
1e-15
1e-15
1e-15
1e-15
1e-15
1e-15
1e-15
1e-15
1e-15
1e-15
1e-15
1e-15
1e-15
1e-15
1e-15
1e-15
1e-15
1e-15
1e-15
1e-15
1e-15
1e-15
1e-15
1e-15
1e-15
1e-15
1e-15
1e-15
1e-15
1e-15
1e-15
1e-15
1e-15
1e-15
1e-15
1e-15
1e-15
1e-15
1e-15
1e-15
1e-15
1e-15
1e-15
1e-15
1e-15
1e-15
1e-15
1e-15
1e-15
1e-15
1e-15
1e-15
1e-15
1e-15
1e-15
1e-15
1e-15
1e-15
1e-15
1e-15
1e-15
1e-15
1e-15
1e-15
1e-15
1e-15
1e-15
1e-15
1e-15
1e-15
1e-15
1e-15
1e-15
1e-15
1e-15
1e-15
1e-15
1e-15
1e-15
1e-15
1e-15
1e-15
1e-15
1e-15
1e-15
1e-15
1e-15
1e-15
1e-15
1e-15
1e-15
1e-15
1e-15
1e-15
1e-15
1e-15
1e-15
1e-15
1e-15
1e-15
1e-15
1e-15
1e-15
1e-15
1e-15
1e-15
1e-15
1e-15
1e-15
1e-15
1e-15
1e-15
1e-15
1e-15
1e-15
1e-15
1e-15
1e-15
1e-15
1e-15
1e-15
1e-15
1e-15
1e-15
1e-15
1e-15
1e-15
1e-15
1e-15
1e-15
1e-15
1e-15
1e-15
1e-15
1e-15
1e-15
1e-15
1e-15
1e-15
1e-15
1e-15
1e-15
1e-15
1e-15
1e-15
1e-15
1e-15
1e-15
1e-15
1e-15
1e-15
1e-15
1e-15
1e-15
1e-15
1e-15
1e-15
1e-15
1e-15
1e-15
1e-15
1e-15
1e-15
1e-15
1e-15
1e-15
1e-15
1e-15
1e-15
1e-15
1e-15
1e-15
1e-15
1e-15
1e-15
1e-15
1e-15
1e-15
1e-15
1e-15
1e-15
1e-15
1e-15
1e-15
1e-15
1e-15
1e-15
1e-15
1e-15
1e-15
1e-15
1e-15
1e-15
1e-15
1e-15
1e-15
1e-15
1e-15
1e-15
1e-15
1e-15
1e-15
1e-15
1e-15
1e-15
1e-15
1e-15
1e-15
1e-15
1e-15
1e-15
1e-15
1e-15
1e-15
1e-15
1e-15
1e-15
1e-15
1e-15
1e-15
1e-15
1e-15
1e-15
1e-15
1e-15
1e-15
1e-15
1e-15
1e-15
1e-15
1e-15
1e-15
1e-15
1e-15
1e-15
1e-15
1e-15
1e-15
1e-15
1e-15
1e-15
1e-15
1e-15
1e-15
1e-15
1e-15
1e-15
1e-15
1e-15
1e-15
1e-15
1e-15
1e-15
1e-15
1e-15
1e-15
1e-15
1e-15
1e-15
1e-15
1e-15
1e-15
1e-15
1e-15
1e-15
1e-15
1e-15
1e-15
1e-15
1e-15
1e-15
1e-15
1e-15
1e-15
1e-15
1e-15
1e-15
1e-15
1e-15
1e-15
1e-15
1e-15
1e-15
1e-15
1e-15
1e-15
1e-15
1e-15
1e-15
1e-15
1e-15
1e-15
1e-15
1e-15
1e-15
1e-15
1e-15
1e-15
1e-15
1e-15
1e-15
1e-15
1e-15
1e-15
1e-15
1e-15
1e-15
1e-15
1e-15
1e-15
1e-15
1e-15
1e-15
1e-15
1e-15
1e-15
1e-15
1e-15
1e-15
1e-15
1e-15
1e-15
1e-15
1e-15
1e-15
1e-15
1e-15
1e-15
1e-15
1e-15
1e-15
1e-15
1e-15
1e-15
1e-15
1e-15
1e-15
1e-15
1e-15
1e-15
1e-15
1e-15
1e-15
1e-15
1e-15
1e-15
1e-15
1e-15
1e-15
1e-15
1e-15
1e-15
1e-15
1e-15
1e-15
1e-15
1e-15
1e-15
1e-15
1e-15
1e-15
1e-15
1e-15
1e-15
1e-15
1e-15
1e-15
1e-15
1e-15
1e-15
1e-15
1e-15
1e-15
1e-15
1e-15
1e-15
1e-15
1e-15
1e-15
1e-15
1e-15
1e-15
1e-15
1e-15
1e-15
1e-15
1e-15
1e-15
1e-15
1e-15
1e-15
1e-15
1e-15
1e-15
1e-15
1e-15
1e-15
1e-15
1e-15
1e-15
1e-15
1e-15
1e-15
1e-15
1e-15
1e-15
1e-15
1e-15
1e-15
1e-15
1e-15
1e-15
1e-15
1e-15
1e-15
1e-15
1e-15
1e-15
1e-15
1e-15
1e-15
1e-15
1e-15
1e-15
1e-15
1e-15
1e-15
1e-15
1e-15
1e-15
1e-15
1e-15
1e-15
1e-15
1e-15
1e-15
1e-15
1e-15
1e-15
1e-15
1e-15
1e-15
1e-15
1e-15
1e-15
1e-15
1e-15
1e-15
1e-15
1e-15
1e-15
1e-15
1e-15
1e-15
1e-15
1e-15
1e-15
1e-15
1e-15
1e-15
1e-15
1e-15
1e-15
1e-15
1e-15
1e-15
1e-15
1e-15
1e-15
1e-15
1e-15
1e-15
1e-15
1e-15
1e-15
1e-15
1e-15
1e-15
1e-15
1e-15
1e-15
1e-15
1e-15
1e-15
1e-15
1e-15
1e-15
1e-15
1e-15
1e-15
1e-15
1e-15
1e-15
1e-15
1e-15
1e-15
1e-15
1e-15
1e-15
1e-15
1e-15
1e-15
1.01220663212e-15
1e-15
1e-15
1e-15
1e-15
1e-15
1e-15
1e-15
1e-15
1e-15
1e-15
1e-15
1e-15
1e-15
1e-15
1e-15
1e-15
1e-15
1e-15
1e-15
1e-15
1e-15
1e-15
1e-15
1e-15
1e-15
1e-15
1e-15
1e-15
1e-15
1e-15
1e-15
1e-15
1e-15
1e-15
1e-15
1e-15
1e-15
1e-15
1e-15
1e-15
1e-15
1e-15
1e-15
1e-15
1e-15
1e-15
1e-15
1e-15
1e-15
1e-15
1e-15
1e-15
1e-15
1e-15
1e-15
1e-15
1e-15
1e-15
1e-15
1e-15
1e-15
1e-15
1e-15
1e-15
1e-15
1e-15
1e-15
1e-15
1e-15
1e-15
1e-15
1e-15
1e-15
1e-15
1e-15
1e-15
1e-15
1e-15
1e-15
1e-15
1e-15
1e-15
1e-15
1e-15
1e-15
1e-15
1e-15
1e-15
1e-15
1e-15
1e-15
1e-15
1e-15
1e-15
1e-15
1e-15
1e-15
1e-15
1e-15
1e-15
1e-15
1e-15
1e-15
1e-15
1e-15
1e-15
1e-15
1e-15
1e-15
1e-15
1e-15
1e-15
1e-15
1e-15
1e-15
1e-15
1e-15
1e-15
1e-15
1e-15
1e-15
1e-15
1e-15
1e-15
1e-15
1e-15
1e-15
1e-15
1e-15
1e-15
1e-15
1.02836860943e-15
1.02783828274e-15
1.0286819326e-15
1.02783828274e-15
1e-15
1e-15
1.01448668984e-15
1e-15
1.01712503613e-15
1e-15
1e-15
1e-15
1e-15
1e-15
1e-15
1e-15
1e-15
1e-15
1e-15
1e-15
1e-15
1e-15
1e-15
1e-15
1e-15
1e-15
1e-15
1e-15
1e-15
1e-15
1e-15
1e-15
1e-15
1e-15
1e-15
1e-15
1e-15
1e-15
1e-15
1e-15
1e-15
1e-15
1e-15
1e-15
1e-15
1e-15
1e-15
1e-15
1e-15
1e-15
1e-15
1e-15
1e-15
1e-15
1e-15
1e-15
1e-15
1e-15
1e-15
1e-15
1e-15
1e-15
1e-15
1e-15
1e-15
1e-15
1e-15
1e-15
1e-15
1e-15
1e-15
1e-15
1e-15
1e-15
1e-15
1e-15
1e-15
1e-15
1e-15
1e-15
1e-15
1e-15
1e-15
1e-15
1e-15
1e-15
1e-15
1e-15
1e-15
1e-15
1e-15
1e-15
1e-15
1e-15
1e-15
1e-15
1e-15
1e-15
1e-15
1e-15
1e-15
1e-15
1e-15
1e-15
1e-15
1e-15
1e-15
1e-15
1e-15
1e-15
1e-15
1e-15
1e-15
1e-15
1e-15
1e-15
1e-15
1e-15
1e-15
1e-15
1e-15
1e-15
1e-15
1e-15
1e-15
1e-15
1e-15
1e-15
1e-15
1e-15
1e-15
1e-15
1e-15
1e-15
1e-15
1e-15
1e-15
1e-15
1e-15
1e-15
1.02783828274e-15
1.02910825357e-15
1.02783828274e-15
1.02896251782e-15
1e-15
1e-15
1.01298708452e-15
1e-15
1.01220663212e-15
1e-15
1.00007875754e-15
1.00009482422e-15
1.00013005288e-15
1.00017098907e-15
1.00021865464e-15
1.0002742096e-15
1.00032628947e-15
1.00035684879e-15
1.00037404943e-15
1.00037217962e-15
1.00035696893e-15
1.00031863137e-15
1.00026035845e-15
1.00018418893e-15
1.00012220088e-15
1.00006034142e-15
1.00001647531e-15
1.00000337195e-15
1.00000011778e-15
1e-15
1e-15
1e-15
1e-15
1e-15
1e-15
1e-15
1e-15
1e-15
1e-15
1e-15
1e-15
1.00000076518e-15
1.00000292191e-15
1.00000594041e-15
1.00002495798e-15
1.00043261291e-15
1.00129793282e-15
1.00154492966e-15
1.00152360409e-15
1.00155084449e-15
1.00152360409e-15
1.00155249827e-15
1.00152360409e-15
1.00155540422e-15
1.00152360409e-15
1.00155241101e-15
1.00152360409e-15
1.00155195327e-15
1.00152360409e-15
1.00099899291e-15
1.00029826335e-15
1.00030620155e-15
1.00029538921e-15
1.00028084606e-15
1.00026593386e-15
1.00024705312e-15
1.00022624917e-15
1.00019888523e-15
1.00016727132e-15
1.00012457834e-15
1.00007580766e-15
1.00002292165e-15
1.00000194486e-15
1.00000017187e-15
1e-15
1e-15
1e-15
1e-15
1e-15
1e-15
1e-15
1e-15
1e-15
1e-15
1e-15
1e-15
1e-15
1e-15
1e-15
1e-15
1e-15
1e-15
1e-15
1e-15
1e-15
1e-15
1e-15
1e-15
1e-15
1e-15
1e-15
1e-15
1e-15
1e-15
1e-15
1.00000191976e-15
1.00000478693e-15
1.00005976998e-15
1.00011987803e-15
1.00017019408e-15
1.00021084911e-15
1.00023800705e-15
1.00025585186e-15
1.00026704728e-15
1.00027381143e-15
1.00027556894e-15
1.00027363475e-15
1.0002667432e-15
1.00025454838e-15
1.00023325297e-15
1.00020282727e-15
1.00016908761e-15
1.00013518744e-15
1.00009859054e-15
1.00006128486e-15
1.00002374848e-15
1.00000465183e-15
1.00000377853e-15
1.00000292638e-15
1.00000109934e-15
1e-15
1e-15
1e-15
1e-15
1.0000013325e-15
1.0000041733e-15
1.00003030023e-15
1.00014712249e-15
1.00030221726e-15
1.00046119712e-15
1.02889608408e-15
1.02783828274e-15
1.02910825357e-15
1.02783828274e-15
1.00106695156e-15
1.00006647463e-15
1.01444969386e-15
1e-15
1.01678615642e-15
1e-15
1.00008603355e-15
1.00010875305e-15
1.00015290882e-15
1.00020740493e-15
1.00030096023e-15
1.00044056215e-15
1.00058468963e-15
1.00065458942e-15
1.00070640239e-15
1.00071360903e-15
1.00068301784e-15
1.00059879013e-15
1.00047553853e-15
1.00031637385e-15
1.00018690972e-15
1.00010107069e-15
1.00004818288e-15
1.00000839515e-15
1e-15
1e-15
1e-15
1e-15
1e-15
1e-15
1e-15
1e-15
1e-15
1e-15
1e-15
1e-15
1e-15
1e-15
1.0000049516e-15
1.00003415732e-15
1.0003097329e-15
1.00152360409e-15
1.00155890528e-15
1.00152360409e-15
1.00155891065e-15
1.00152360409e-15
1.00155891589e-15
1.00152360409e-15
1.00155901084e-15
1.00152360409e-15
1.001559115e-15
1.00152360409e-15
1.00155895756e-15
1.00152360409e-15
1.00155689548e-15
1.00152360409e-15
1.00113893153e-15
1.00073286923e-15
1.00070896738e-15
1.0006740855e-15
1.00063392696e-15
1.00058129691e-15
1.00053610163e-15
1.00049366601e-15
1.0004441684e-15
1.00036255568e-15
1.00025561581e-15
1.00011208671e-15
1e-15
1e-15
1e-15
1e-15
1e-15
1e-15
1e-15
1e-15
1e-15
1e-15
1e-15
1e-15
1e-15
1e-15
1e-15
1e-15
1e-15
1e-15
1e-15
1e-15
1e-15
1e-15
1e-15
1e-15
1e-15
1e-15
1e-15
1e-15
1e-15
1e-15
1e-15
1e-15
1e-15
1e-15
1.00010286418e-15
1.00024224458e-15
1.00036780298e-15
1.0004682334e-15
1.0005481147e-15
1.00060624956e-15
1.00064909447e-15
1.00067824839e-15
1.00069727007e-15
1.00070505815e-15
1.0007038559e-15
1.00069279499e-15
1.00067195717e-15
1.00063755781e-15
1.000584411e-15
1.00052149117e-15
1.00045740671e-15
1.00038650841e-15
1.00031127207e-15
1.00023184303e-15
1.00015621279e-15
1.00008538883e-15
1.00002846915e-15
1e-15
1e-15
1e-15
1e-15
1e-15
1.00000138744e-15
1.00009780479e-15
1.00026853929e-15
1.00052170309e-15
1.00083034216e-15
1.00105007437e-15
1.02783828274e-15
1.02907088963e-15
1.02783828274e-15
1.02891457275e-15
1.00266807271e-15
1.00068208824e-15
1.01298708452e-15
1e-15
1.01220663212e-15
1e-15
1.00006945738e-15
1.00008922252e-15
1.00012974305e-15
1.00018032861e-15
1.00027065829e-15
1.00042086834e-15
1.0005899574e-15
1.0007478121e-15
1.0008605608e-15
1.00088643997e-15
1.00085789879e-15
1.00073872703e-15
1.00057861322e-15
1.00038861218e-15
1.0002174658e-15
1.00012427403e-15
1.00006601362e-15
1.00002690756e-15
1.00000763136e-15
1.00000037791e-15
1e-15
1e-15
1e-15
1e-15
1e-15
1e-15
1e-15
1e-15
1e-15
1.00000072672e-15
1.00000562209e-15
1.0000187775e-15
1.00004718488e-15
1.0001202878e-15
1.00064323211e-15
1.00154772069e-15
1.00152360409e-15
1.00155429127e-15
1.00152360409e-15
1.00155764678e-15
1.00152360409e-15
1.00155891401e-15
1.00152360409e-15
1.00155900678e-15
1.00152360409e-15
1.00155058754e-15
1.00152360409e-15
1.00154752557e-15
1.00152360409e-15
1.00154301764e-15
1.00152360409e-15
1.00120406225e-15
1.00110122633e-15
1.00102924486e-15
1.00096947726e-15
1.0009196124e-15
1.00083467682e-15
1.00071152863e-15
1.00057736539e-15
1.00041872934e-15
1.00025352392e-15
1.00008513243e-15
1e-15
1e-15
1e-15
1e-15
1e-15
1e-15
1e-15
1e-15
1e-15
1e-15
1e-15
1e-15
1e-15
1e-15
1e-15
1e-15
1e-15
1e-15
1e-15
1e-15
1e-15
1e-15
1e-15
1e-15
1e-15
1e-15
1e-15
1e-15
1e-15
1e-15
1e-15
1e-15
1e-15
1.00004524435e-15
1.00027097964e-15
1.00049121978e-15
1.000671132e-15
1.00081378679e-15
1.00093119294e-15
1.00102121806e-15
1.00109215361e-15
1.00114313918e-15
1.00117913958e-15
1.0011977006e-15
1.00120246951e-15
1.00119303148e-15
1.00117067108e-15
1.00113144279e-15
1.00106466967e-15
1.00097880116e-15
1.00089277804e-15
1.00079677663e-15
1.00069320637e-15
1.00058195466e-15
1.00045425421e-15
1.0003231728e-15
1.00021085437e-15
1.00014840029e-15
1.00012559768e-15
1.00011600311e-15
1.00011837558e-15
1.00013422991e-15
1.00017707508e-15
1.00035819236e-15
1.00067010346e-15
1.00104746875e-15
1.00148152314e-15
1.00351259773e-15
1.02890081509e-15
1.02783828274e-15
1.02907926542e-15
1.02783828274e-15
1.00443753296e-15
1.00148317431e-15
1.01392880382e-15
1e-15
1.01602135046e-15
1e-15
1.00005182083e-15
1.00006667494e-15
1.00009806506e-15
1.00014019717e-15
1.00021048369e-15
1.00033315402e-15
1.00056547419e-15
1.00078555532e-15
1.00095396699e-15
1.00100089014e-15
1.00098576615e-15
1.00083904779e-15
1.00064147369e-15
1.00042351049e-15
1.00024152917e-15
1.00013489612e-15
1.00007644579e-15
1.00003514916e-15
1.00000978492e-15
1.00000110476e-15
1e-15
1e-15
1e-15
1e-15
1e-15
1e-15
1e-15
1e-15
1e-15
1.00000186557e-15
1.0000097187e-15
1.00002292916e-15
1.00012154608e-15
1.00039012655e-15
1.00128202086e-15
1.00152360409e-15
1.00154425851e-15
1.00152360409e-15
1.00154706514e-15
1.00152360409e-15
1.00154837965e-15
1.00152360409e-15
1.00154973343e-15
1.00152360409e-15
1.00154757775e-15
1.00152360409e-15
1.00153942043e-15
1.00152360409e-15
1.00153664397e-15
1.00152360409e-15
1.00153307081e-15
1.00152360409e-15
1.00136102625e-15
1.00128212928e-15
1.00115097788e-15
1.00099068392e-15
1.00083765806e-15
1.00068283587e-15
1.00052296053e-15
1.00034346926e-15
1.00015082011e-15
1e-15
1e-15
1e-15
1e-15
1e-15
1e-15
1e-15
1e-15
1e-15
1e-15
1e-15
1e-15
1e-15
1e-15
1e-15
1e-15
1e-15
1e-15
1e-15
1e-15
1e-15
1e-15
1e-15
1e-15
1e-15
1e-15
1e-15
1e-15
1e-15
1e-15
1e-15
1e-15
1e-15
1e-15
1.00015378099e-15
1.00048344865e-15
1.00073498798e-15
1.00095162346e-15
1.00113594489e-15
1.00129795632e-15
1.00142787154e-15
1.00153393117e-15
1.00161245418e-15
1.00167076248e-15
1.00170460149e-15
1.00171984439e-15
1.0017148839e-15
1.00169379126e-15
1.00165459818e-15
1.001577635e-15
1.00147015575e-15
1.00137036474e-15
1.00125966755e-15
1.00113997823e-15
1.00101040381e-15
1.00086778047e-15
1.00071210859e-15
1.0005631789e-15
1.000446798e-15
1.00037505362e-15
1.00034013013e-15
1.00034476005e-15
1.00039184708e-15
1.00051616979e-15
1.00078394922e-15
1.00117749262e-15
1.00164997384e-15
1.0022315421e-15
1.02817700809e-15
1.02783828274e-15
1.02901587899e-15
1.02783828274e-15
1.02885886665e-15
1.00618672606e-15
1.00224814606e-15
1.01298708452e-15
1e-15
1.01220663212e-15
1e-15
1.00003743984e-15
1.00004919922e-15
1.00007336107e-15
1.00010559388e-15
1.00015836207e-15
1.00028128441e-15
1.00059964548e-15
1.00088659382e-15
1.00110414726e-15
1.00119281557e-15
1.00134132888e-15
1.00100031855e-15
1.00075056372e-15
1.00047162589e-15
1.00026034373e-15
1.00013772243e-15
1.00008271351e-15
1.00004090304e-15
1.00001747405e-15
1.0000049076e-15
1e-15
1e-15
1e-15
1e-15
1e-15
1e-15
1e-15
1e-15
1e-15
1.00000238704e-15
1.00000918837e-15
1.00004713627e-15
1.00025937582e-15
1.00074600953e-15
1.00152360409e-15
1.00153415467e-15
1.00152360409e-15
1.00153744105e-15
1.00152360409e-15
1.00153868748e-15
1.00152360409e-15
1.00153891808e-15
1.00152360409e-15
1.0015419702e-15
1.00152360409e-15
1.00153290402e-15
1.00152360409e-15
1.00153104053e-15
1.00152360409e-15
1.00152851244e-15
1.00152360409e-15
1.00152605824e-15
1.0014397047e-15
1.00127391428e-15
1.00112148695e-15
1.00093324073e-15
1.00075288833e-15
1.00054517724e-15
1.00032900871e-15
1.00009841779e-15
1e-15
1e-15
1e-15
1e-15
1e-15
1e-15
1e-15
1e-15
1e-15
1e-15
1e-15
1e-15
1e-15
1e-15
1e-15
1e-15
1e-15
1e-15
1e-15
1e-15
1e-15
1e-15
1e-15
1e-15
1e-15
1e-15
1e-15
1e-15
1e-15
1e-15
1e-15
1e-15
1e-15
1e-15
1e-15
1.0002626285e-15
1.00060188447e-15
1.00087807394e-15
1.00114485769e-15
1.0013864003e-15
1.00160315134e-15
1.00178039524e-15
1.00192731294e-15
1.00203848697e-15
1.00212327879e-15
1.00217616739e-15
1.00220516559e-15
1.00220617993e-15
1.0021882318e-15
1.00214834746e-15
1.00206601092e-15
1.00193796309e-15
1.00182209205e-15
1.0016995309e-15
1.00156758293e-15
1.0014257439e-15
1.00128257263e-15
1.00113409753e-15
1.00098312432e-15
1.00084362259e-15
1.00073858755e-15
1.00068050372e-15
1.0006886601e-15
1.00076777509e-15
1.00095627115e-15
1.00127190897e-15
1.00169558221e-15
1.00224454783e-15
1.00297255725e-15
1.02783828274e-15
1.02886708574e-15
1.02783828274e-15
1.02901926406e-15
1.02783828274e-15
1.00782553758e-15
1.00286286788e-15
1.01356317547e-15
1e-15
1.01524965567e-15
1e-15
1.00002574154e-15
1.00003693785e-15
1.00005448805e-15
1.00007824758e-15
1.00012127108e-15
1.00032283136e-15
1.00082537898e-15
1.00119245586e-15
1.00144675125e-15
1.00208554427e-15
1.00231287566e-15
1.00130742782e-15
1.00102041528e-15
1.0006159864e-15
1.00030397366e-15
1.00013988596e-15
1.00008818706e-15
1.00004611882e-15
1.00002302917e-15
1.00000691346e-15
1.00000055488e-15
1e-15
1e-15
1e-15
1e-15
1e-15
1e-15
1e-15
1e-15
1.00000145703e-15
1.00000684381e-15
1.00012931526e-15
1.00043408589e-15
1.00100888799e-15
1.00152816106e-15
1.00152360409e-15
1.00153062535e-15
1.00152360409e-15
1.00153168534e-15
1.00152360409e-15
1.00153202062e-15
1.00152360409e-15
1.00153176553e-15
1.00152360409e-15
1.00153312807e-15
1.00152360409e-15
1.00152695071e-15
1.00152360409e-15
1.00152575384e-15
1.00152360409e-15
1.00152461411e-15
1.00152360409e-15
1.00139772211e-15
1.00120470616e-15
1.00101469775e-15
1.00078684775e-15
1.00054231118e-15
1.00024382251e-15
1e-15
1e-15
1e-15
1e-15
1e-15
1e-15
1e-15
1e-15
1e-15
1e-15
1e-15
1e-15
1e-15
1e-15
1e-15
1e-15
1e-15
1e-15
1e-15
1e-15
1e-15
1e-15
1e-15
1e-15
1e-15
1e-15
1e-15
1e-15
1e-15
1e-15
1e-15
1e-15
1e-15
1e-15
1e-15
1e-15
1e-15
1.00027618825e-15
1.00062555309e-15
1.00095558496e-15
1.00128887731e-15
1.00159783476e-15
1.00187146829e-15
1.00209608007e-15
1.00228351667e-15
1.00242814625e-15
1.00254020103e-15
1.00261375134e-15
1.00265790801e-15
1.00266700969e-15
1.00265342229e-15
1.00261381557e-15
1.00253116469e-15
1.00238260632e-15
1.00224344294e-15
1.00210391683e-15
1.00195310529e-15
1.00179180124e-15
1.00163771398e-15
1.00149159735e-15
1.00135262703e-15
1.001225274e-15
1.00112525393e-15
1.0010692539e-15
1.00108558361e-15
1.0011811231e-15
1.00138655531e-15
1.00170821083e-15
1.002160101e-15
1.00279796119e-15
1.00366750278e-15
1.02846767388e-15
1.02783828274e-15
1.02896148935e-15
1.02783828274e-15
1.02880515674e-15
1.00929092563e-15
1.00330952029e-15
1.01298645411e-15
1e-15
1.01220663212e-15
1e-15
1.00001831338e-15
1.00002465618e-15
1.00004045069e-15
1.0000583251e-15
1.00009137759e-15
1.00031742657e-15
1.00094679731e-15
1.001436726e-15
1.00189734903e-15
1.00231092243e-15
1.00226639826e-15
1.00172317263e-15
1.0014784463e-15
1.00093797856e-15
1.00042914475e-15
1.00014223976e-15
1.00009358649e-15
1.00005093848e-15
1.0000273785e-15
1.00000852652e-15
1.00000312573e-15
1e-15
1e-15
1e-15
1e-15
1e-15
1e-15
1e-15
1e-15
1e-15
1.00000329367e-15
1.00023428747e-15
1.0006045082e-15
1.0011843745e-15
1.00152360409e-15
1.00152512916e-15
1.00152360409e-15
1.00152654735e-15
1.00152360409e-15
1.00152688362e-15
1.00152360409e-15
1.00152687244e-15
1.00152360409e-15
1.001528631e-15
1.00152360409e-15
1.00152458588e-15
1.00152360409e-15
1.00152417739e-15
1.00152360409e-15
1.00152315398e-15
1.00151404793e-15
1.00148048369e-15
1.00128937024e-15
1.00106481069e-15
1.00082690687e-15
1.0005368122e-15
1.0002023355e-15
1e-15
1e-15
1e-15
1e-15
1e-15
1e-15
1e-15
1e-15
1e-15
1e-15
1e-15
1e-15
1e-15
1e-15
1e-15
1e-15
1e-15
1e-15
1e-15
1e-15
1e-15
1e-15
1e-15
1e-15
1e-15
1e-15
1e-15
1e-15
1e-15
1e-15
1e-15
1e-15
1e-15
1e-15
1e-15
1e-15
1e-15
1e-15
1.00028889006e-15
1.00065437312e-15
1.00104258448e-15
1.00145836285e-15
1.00183863512e-15
1.00216419555e-15
1.00243220667e-15
1.00265719645e-15
1.00283365113e-15
1.00297171867e-15
1.0030659396e-15
1.00312557541e-15
1.00314460092e-15
1.00313628472e-15
1.00309812312e-15
1.00302094394e-15
1.00285725277e-15
1.00268700172e-15
1.00252566667e-15
1.00234931521e-15
1.00215863335e-15
1.00197841306e-15
1.00181366622e-15
1.0016717113e-15
1.00155168509e-15
1.00146220994e-15
1.00141711886e-15
1.00144281083e-15
1.00154641986e-15
1.00175708451e-15
1.00208817782e-15
1.00259790478e-15
1.00334836252e-15
1.00434879403e-15
1.02783828274e-15
1.0288198906e-15
1.02783828274e-15
1.02896205075e-15
1.02783828274e-15
1.01061114314e-15
1.00360245006e-15
1.01332114884e-15
1e-15
1.01448733907e-15
1e-15
1.00001342889e-15
1.00001689849e-15
1.00002686957e-15
1.00004266052e-15
1.00006728882e-15
1.00019044464e-15
1.00088666645e-15
1.00141125719e-15
1.00197132671e-15
1.00226639826e-15
1.00231092243e-15
1.00200532052e-15
1.00174502127e-15
1.00126786734e-15
1.00064477524e-15
1.00016317055e-15
1.00009893347e-15
1.00005576509e-15
1.0000311001e-15
1.00001053774e-15
1.00000485896e-15
1e-15
1e-15
1e-15
1e-15
1e-15
1e-15
1e-15
1e-15
1e-15
1.00000036169e-15
1.00031809894e-15
1.0007456553e-15
1.00128603033e-15
1.0015164849e-15
1.00152189855e-15
1.00152422342e-15
1.00152360409e-15
1.00152438335e-15
1.00152360409e-15
1.00152441971e-15
1.00152360409e-15
1.00152432411e-15
1.00152360409e-15
1.00152489102e-15
1.00151830932e-15
1.00150502943e-15
1.00149877117e-15
1.00149394764e-15
1.00148239736e-15
1.0014566718e-15
1.00135459318e-15
1.00111131401e-15
1.00084435244e-15
1.00052436825e-15
1.00015853891e-15
1e-15
1e-15
1e-15
1e-15
1e-15
1e-15
1e-15
1e-15
1e-15
1e-15
1e-15
1e-15
1e-15
1e-15
1e-15
1e-15
1e-15
1e-15
1e-15
1e-15
1e-15
1e-15
1e-15
1e-15
1e-15
1e-15
1e-15
1e-15
1e-15
1e-15
1e-15
1e-15
1e-15
1e-15
1e-15
1e-15
1e-15
1e-15
1e-15
1.00030716112e-15
1.00069287458e-15
1.00122864115e-15
1.00171969536e-15
1.00214846105e-15
1.00252570276e-15
1.00283642866e-15
1.00309567926e-15
1.00330235985e-15
1.00346585667e-15
1.00358088275e-15
1.00365635234e-15
1.003687008e-15
1.00368466841e-15
1.00364961247e-15
1.00358544532e-15
1.00341377858e-15
1.00320618587e-15
1.00302564573e-15
1.00282527742e-15
1.00260376117e-15
1.00238784539e-15
1.00218637115e-15
1.00201751659e-15
1.00188094543e-15
1.00178289258e-15
1.00173562743e-15
1.0017669919e-15
1.00188142775e-15
1.00211389629e-15
1.00248678392e-15
1.00308771377e-15
1.00395699041e-15
1.00507261488e-15
1.02847041982e-15
1.02783828274e-15
1.02890969553e-15
1.02783828274e-15
1.02875661102e-15
1.01180298658e-15
1.00386678423e-15
1.01298528774e-15
1e-15
1.01220663212e-15
1e-15
1.00000981355e-15
1.00001089375e-15
1.00001743469e-15
1.00002770315e-15
1.0000483469e-15
1.00008002098e-15
1.00052702016e-15
1.00124169385e-15
1.0019075869e-15
1.00227580379e-15
1.00226639826e-15
1.0021392537e-15
1.00175182329e-15
1.00135256395e-15
1.00083748322e-15
1.00024743743e-15
1.00010429163e-15
1.00006038618e-15
1.00003555801e-15
1.00001476693e-15
1.00000544697e-15
1e-15
1e-15
1e-15
1e-15
1e-15
1e-15
1e-15
1e-15
1e-15
1.00002296145e-15
1.00036392991e-15
1.00084761742e-15
1.00132271133e-15
1.0014668342e-15
1.0014784701e-15
1.00149109036e-15
1.0014955563e-15
1.00150012297e-15
1.00150163901e-15
1.00150375934e-15
1.00150303367e-15
1.00150344976e-15
1.00150467924e-15
1.00152360409e-15
1.00150512053e-15
1.00144748954e-15
1.00143866267e-15
1.00142624662e-15
1.00139835387e-15
1.00132757099e-15
1.00112689461e-15
1.00083017853e-15
1.00046149126e-15
1.00007796927e-15
1e-15
1e-15
1e-15
1e-15
1e-15
1e-15
1e-15
1e-15
1e-15
1e-15
1e-15
1e-15
1e-15
1e-15
1e-15
1e-15
1e-15
1e-15
1e-15
1e-15
1e-15
1e-15
1e-15
1e-15
1e-15
1e-15
1e-15
1e-15
1e-15
1e-15
1e-15
1e-15
1e-15
1e-15
1e-15
1e-15
1e-15
1e-15
1e-15
1e-15
1.00032093078e-15
1.00084462229e-15
1.00150124064e-15
1.00203463801e-15
1.0025526584e-15
1.00295537879e-15
1.00329795361e-15
1.00359971748e-15
1.00383979839e-15
1.00402844157e-15
1.00416471957e-15
1.00425724599e-15
1.00430088331e-15
1.00430545038e-15
1.00427496654e-15
1.00422272568e-15
1.00405748493e-15
1.00381759504e-15
1.00361749506e-15
1.00340401355e-15
1.00316361e-15
1.00291760587e-15
1.0026764104e-15
1.00246505748e-15
1.0022907164e-15
1.00216420837e-15
1.00209923738e-15
1.00213209675e-15
1.00226134881e-15
1.00253379769e-15
1.00298049271e-15
1.0036847992e-15
1.00464685766e-15
1.00586398447e-15
1.02783828274e-15
1.02877465764e-15
1.02783828274e-15
1.028910082e-15
1.02783828274e-15
1.01289556796e-15
1.00405207499e-15
1.013166866e-15
1e-15
1.01376885985e-15
1e-15
1.00000740427e-15
1.00000699266e-15
1.00001060614e-15
1.00001650851e-15
1.00003125933e-15
1.0000502715e-15
1.00013758613e-15
1.00087729138e-15
1.00171116081e-15
1.00226151819e-15
1.00227592747e-15
1.00214187977e-15
1.00171178638e-15
1.00135046747e-15
1.0009391509e-15
1.00038389065e-15
1.00011012461e-15
1.00006528658e-15
1.00003856276e-15
1.00001603645e-15
1.0000053463e-15
1e-15
1e-15
1e-15
1e-15
1e-15
1e-15
1e-15
1e-15
1e-15
1.00001824061e-15
1.00040085209e-15
1.00092515024e-15
1.00130862747e-15
1.00139009857e-15
1.00140330584e-15
1.00141858274e-15
1.00142620196e-15
1.00143524379e-15
1.00143859585e-15
1.00144385582e-15
1.00144378828e-15
1.00144650235e-15
1.00145098426e-15
1.00150561327e-15
1.00145979995e-15
1.00135249834e-15
1.00134001566e-15
1.00131013782e-15
1.0012397429e-15
1.00107206557e-15
1.00073704795e-15
1.00032607811e-15
1e-15
1e-15
1e-15
1e-15
1e-15
1e-15
1e-15
1e-15
1e-15
1e-15
1e-15
1e-15
1e-15
1e-15
1e-15
1e-15
1e-15
1e-15
1e-15
1e-15
1e-15
1e-15
1e-15
1e-15
1e-15
1e-15
1e-15
1e-15
1e-15
1e-15
1e-15
1e-15
1e-15
1e-15
1e-15
1e-15
1e-15
1e-15
1e-15
1e-15
1e-15
1e-15
1.00040716953e-15
1.0010746395e-15
1.00176318693e-15
1.00237059664e-15
1.00291270251e-15
1.00337858213e-15
1.00380464218e-15
1.00412588823e-15
1.0043926138e-15
1.00461663535e-15
1.00477863313e-15
1.00488858011e-15
1.00494533128e-15
1.00495799106e-15
1.00493293726e-15
1.00488574935e-15
1.00474095308e-15
1.00448146508e-15
1.00425289565e-15
1.00403594796e-15
1.00379279427e-15
1.00353558726e-15
1.00327329813e-15
1.0030284181e-15
1.00281584661e-15
1.00265591835e-15
1.00256750931e-15
1.00259962077e-15
1.00274428415e-15
1.00306202114e-15
1.00358740454e-15
1.00436727667e-15
1.00537758229e-15
1.00669049694e-15
1.02846813017e-15
1.02783828274e-15
1.02886150728e-15
1.02783828274e-15
1.02871440822e-15
1.01386064731e-15
1.00403518114e-15
1.01298264496e-15
1e-15
1.01220663212e-15
1e-15
1.0000055314e-15
1.00000406242e-15
1.00000625841e-15
1.00000954769e-15
1.00001767473e-15
1.00003180934e-15
1.00005647808e-15
1.00029608538e-15
1.00138767436e-15
1.00199373143e-15
1.00226615513e-15
1.00212421151e-15
1.00163993942e-15
1.0013381335e-15
1.00099994868e-15
1.00051803956e-15
1.0001184768e-15
1.00006941771e-15
1.00003984557e-15
1.00001534316e-15
1.0000044771e-15
1e-15
1e-15
1e-15
1e-15
1e-15
1e-15
1e-15
1e-15
1e-15
1e-15
1.00038859738e-15
1.0009689997e-15
1.00125709564e-15
1.00129490641e-15
1.00130833866e-15
1.00132385401e-15
1.00133279389e-15
1.00134386071e-15
1.00134912581e-15
1.00135621256e-15
1.00135747633e-15
1.00136080928e-15
1.00136743044e-15
1.00141995666e-15
1.0013941805e-15
1.00124631495e-15
1.00116137836e-15
1.00109196401e-15
1.00091319886e-15
1.00055410437e-15
1.00011693216e-15
1e-15
1e-15
1e-15
1e-15
1e-15
1e-15
1e-15
1e-15
1e-15
1e-15
1e-15
1e-15
1e-15
1e-15
1e-15
1e-15
1e-15
1e-15
1e-15
1e-15
1e-15
1e-15
1e-15
1e-15
1e-15
1e-15
1e-15
1e-15
1e-15
1e-15
1e-15
1e-15
1e-15
1e-15
1e-15
1e-15
1e-15
1e-15
1e-15
1e-15
1e-15
1e-15
1.00003783888e-15
1.0005341593e-15
1.00126995309e-15
1.00200347406e-15
1.00262544321e-15
1.00320219841e-15
1.00376370358e-15
1.00421595674e-15
1.00461152459e-15
1.00494819464e-15
1.00518257781e-15
1.00536173558e-15
1.00549752997e-15
1.00557148177e-15
1.0055919476e-15
1.00557145853e-15
1.00552418383e-15
1.00540824443e-15
1.00513857831e-15
1.00486412542e-15
1.00464545777e-15
1.00440386659e-15
1.00414745579e-15
1.0038861678e-15
1.00363546879e-15
1.00340936302e-15
1.00323355503e-15
1.00313271613e-15
1.00316531098e-15
1.00332180205e-15
1.00367052265e-15
1.00424160781e-15
1.00504795559e-15
1.00607879321e-15
1.00748692103e-15
1.02783828274e-15
1.02873197855e-15
1.02783828274e-15
1.02886419377e-15
1.02783828274e-15
1.01469253485e-15
1.00394922999e-15
1.0130770934e-15
1e-15
1.0131420428e-15
1e-15
1.00000281021e-15
1.00000217618e-15
1.00000323536e-15
1.00000491546e-15
1.00000947468e-15
1.00001601495e-15
1.00003680682e-15
1.00007706082e-15
1.00097807128e-15
1.00160593597e-15
1.00204865941e-15
1.00208271717e-15
1.00162360272e-15
1.00134580053e-15
1.00106513687e-15
1.00066311544e-15
1.0001839876e-15
1.000072178e-15
1.00003936975e-15
1.00001269639e-15
1.00000290934e-15
1e-15
1e-15
1e-15
1e-15
1e-15
1e-15
1e-15
1e-15
1e-15
1e-15
1.00033629265e-15
1.00092408183e-15
1.00115565948e-15
1.00117972876e-15
1.00119357533e-15
1.00120992531e-15
1.00121987211e-15
1.00123193641e-15
1.0012379158e-15
1.00124533247e-15
1.00124686553e-15
1.0012497808e-15
1.00125198583e-15
1.00127336624e-15
1.00125359124e-15
1.00103263987e-15
1.000821812e-15
1.00063526347e-15
1.00026138212e-15
1e-15
1e-15
1e-15
1e-15
1e-15
1e-15
1e-15
1e-15
1e-15
1e-15
1e-15
1e-15
1e-15
1e-15
1e-15
1e-15
1e-15
1e-15
1e-15
1e-15
1e-15
1e-15
1e-15
1e-15
1e-15
1e-15
1e-15
1e-15
1e-15
1e-15
1e-15
1e-15
1e-15
1e-15
1e-15
1e-15
1e-15
1e-15
1e-15
1e-15
1e-15
1e-15
1e-15
1e-15
1.00005593399e-15
1.00064399697e-15
1.0013914392e-15
1.00215371931e-15
1.00283197451e-15
1.0034998853e-15
1.00408061129e-15
1.00456316845e-15
1.00504145537e-15
1.00539233203e-15
1.00569130748e-15
1.00592823066e-15
1.00606600047e-15
1.00614509615e-15
1.0061796496e-15
1.00616707767e-15
1.0061169252e-15
1.00601946049e-15
1.00575864367e-15
1.00543593638e-15
1.0051970547e-15
1.00494949381e-15
1.00468886204e-15
1.00443229477e-15
1.00419307779e-15
1.00397829764e-15
1.00381093155e-15
1.00371728807e-15
1.00375391307e-15
1.0039175251e-15
1.00427404426e-15
1.00484756045e-15
1.00565110384e-15
1.00670469005e-15
1.00820195138e-15
1.02846088181e-15
1.02783828274e-15
1.02881791771e-15
1.02783828274e-15
1.02867798854e-15
1.01537082006e-15
1.00378644002e-15
1.01298436081e-15
1e-15
1.01220663212e-15
1e-15
1.0000020714e-15
1.00000109748e-15
1.00000080782e-15
1.00000116199e-15
1.00000371013e-15
1.00000895704e-15
1.0000187267e-15
1.00004330673e-15
1.0003306207e-15
1.00119206086e-15
1.00178187703e-15
1.00201902956e-15
1.00164885668e-15
1.0013870935e-15
1.00116200039e-15
1.00084250514e-15
1.00037628536e-15
1.00007322371e-15
1.00003689642e-15
1.00000851765e-15
1e-15
1e-15
1e-15
1e-15
1e-15
1e-15
1e-15
1e-15
1e-15
1e-15
1e-15
1.00022403238e-15
1.00080386044e-15
1.00100031809e-15
1.0010272658e-15
1.00104009422e-15
1.00105575872e-15
1.00106317715e-15
1.00107231268e-15
1.00107263505e-15
1.0010756878e-15
1.00107359351e-15
1.00107509595e-15
1.00106748073e-15
1.00104469408e-15
1.00095445949e-15
1.00058165927e-15
1.00014266925e-15
1e-15
1e-15
1e-15
1e-15
1e-15
1e-15
1e-15
1e-15
1e-15
1e-15
1e-15
1e-15
1e-15
1e-15
1e-15
1e-15
1e-15
1e-15
1e-15
1e-15
1e-15
1e-15
1e-15
1e-15
1e-15
1e-15
1e-15
1e-15
1e-15
1e-15
1e-15
1e-15
1e-15
1e-15
1e-15
1e-15