/*--------------------------------*- C++ -*----------------------------------*\
| =========                 |                                                 |
| \\      /  F ield         | OpenFOAM: The Open Source CFD Toolbox           |
|  \\    /   O peration     | Version:  2206                                  |
|   \\  /    A nd           | Website:  www.openfoam.com                      |
|    \\/     M anipulation  |                                                 |
\*---------------------------------------------------------------------------*/
FoamFile
{
    version     2.0;
    format      ascii;
    arch        "LSB;label=64;scalar=64";
    class       volScalarField;
    location    "3.5/water";
    object      epsilon.gas;
}
// * * * * * * * * * * * * * * * * * * * * * * * * * * * * * * * * * * * * * //

dimensions      [0 2 -3 0 0 0 0];

internalField   nonuniform List<scalar> 
23300
(
0.00599345657077
0.00610400448841
0.00626500112885
0.00648031826154
0.00674851538993
0.00707010578545
0.00744728375721
0.0078832569968
0.00838203697889
0.00894791542328
0.00958539626719
0.010298670489
0.0110915707405
0.0119670011695
0.0129268984736
0.0139716518314
0.0151001339159
0.0163091984116
0.0175938893617
0.0189471120408
0.0203601043699
0.0218223129506
0.0233221135103
0.0248468118197
0.0263834910793
0.027918979442
0.0294406691347
0.0309363157224
0.0323947411396
0.0338054285022
0.0351591211375
0.0364472620962
0.0376625528123
0.0387983067446
0.0398490209825
0.0408096883961
0.0416764020005
0.0424456408821
0.0431149025432
0.0436819625635
0.044145518004
0.0445044112181
0.0447582505124
0.0449065549887
0.0449492367068
0.0448888217012
0.0447280360959
0.0444691978324
0.0441151523266
0.043668683999
0.0431332224228
0.04251220175
0.0418096924139
0.0410297874303
0.0401771818556
0.0392566038432
0.038273339577
0.03723271449
0.0361405583693
0.0350027365924
0.0338255525005
0.0326153258842
0.0313787312643
0.0301224201977
0.0288532959873
0.0275781763437
0.026304007353
0.0250375638494
0.0237856080403
0.0225546271014
0.0213509461738
0.0201805079679
0.0190489583822
0.0179614834501
0.0169228995671
0.0159375783309
0.01500959153
0.0141427774108
0.0133410273321
0.0126086144307
0.0119508391231
0.0113749867481
0.0108919742574
0.0105188414057
0.0102811438495
0.010199909543
0.0102458321488
0.0103809469037
0.0105806653162
0.0108295558056
0.0111173208526
0.0114364360366
0.0117808360124
0.0121451670984
0.0125243719461
0.0129134555772
0.0133073731631
0.0137009803215
0.0140890377169
0.0144662346091
0.0148272421275
0.015166765936
0.0154796183204
0.0157607780154
0.0160054642638
0.0162091902689
0.0163678289782
0.0164776523077
0.0165353834509
0.0165382180982
0.0164838590199
0.0163705121774
0.0161968871513
0.0159625374082
0.0156677420369
0.0153134158784
0.0149011771355
0.0144333861125
0.0139132135081
0.0133446866921
0.0127327618022
0.0120833661236
0.0114034446889
0.0107009498719
0.00998478996198
0.00926467489062
0.00855086799836
0.00785380663694
0.00718362721942
0.00654961739648
0.00595967918227
0.00541987466869
0.00493413987014
0.00450421088699
0.00412978156752
0.0038088862302
0.00353853988971
0.00331581326001
0.00313988843427
0.00301635203447
0.0069980296293
0.00707157258488
0.00720664712103
0.00739945308196
0.0076481648922
0.00795255001303
0.00831359090089
0.00873310765917
0.00921344572257
0.00975715409938
0.0103667114202
0.0110442123564
0.0117910929251
0.0126078124082
0.013493593596
0.0144461485745
0.015461510583
0.0165339024443
0.0176557685372
0.0188178847756
0.0200096594876
0.0212195005255
0.0224353333709
0.0236451010378
0.0248373155555
0.0260014732379
0.0271284270785
0.0282105473802
0.029241817009
0.0302177228914
0.0311351356663
0.0319920475868
0.0327873754938
0.0335206804976
0.0341920043755
0.0348016477989
0.0353500811635
0.0358377945257
0.0362652745872
0.0366329075155
0.0369409974888
0.0371896996328
0.0373790611531
0.0375089769257
0.037579267441
0.0375903846593
0.037542714274
0.0374364874347
0.0372719206312
0.0370492457619
0.0367688099751
0.0364310779389
0.0360367103363
0.0355865580128
0.03508173083
0.034523590012
0.0339138094514
0.0332543663599
0.0325475934808
0.0317961656892
0.0310031401567
0.030171935548
0.0293063567603
0.0284105633098
0.0274890757137
0.0265467304411
0.025588666272
0.0246202647847
0.0236471171358
0.0226749518716
0.0217095866174
0.020756850903
0.0198225357377
0.0189123304946
0.018031797304
0.0171863563569
0.0163813270954
0.0156220091745
0.0149138416333
0.0142626290685
0.0136748541537
0.0131580251438
0.0127209287865
0.0123733438227
0.0121241210174
0.0119756800786
0.0119174833286
0.011933228633
0.0120077496055
0.0121286447187
0.0122860442268
0.0124719660271
0.0126797236606
0.0129034835346
0.0131379673936
0.0133782630319
0.0136197154237
0.0138578686179
0.0140884451849
0.014307345534
0.0145106639248
0.0146947091755
0.0148560316527
0.014991446492
0.0150980571966
0.0151732705499
0.0152148091535
0.0152207134764
0.0151893415528
0.0151193589072
0.0150097281615
0.0148596920492
0.0146687628631
0.0144368269285
0.0141641501421
0.0138513074079
0.0134992118234
0.0131091542147
0.0126828618151
0.0122225689964
0.0117311045712
0.0112119831018
0.0106694949628
0.0101087724244
0.00953581399839
0.00895743698385
0.00838113904097
0.00781485266422
0.00726660072212
0.00674407870057
0.00625421372834
0.00580275683449
0.0053939603369
0.00503036391209
0.00471266849117
0.0044396067516
0.00420760408755
0.00400979197317
0.0038334087375
0.00365416490773
0.00798250040621
0.00804012861221
0.00815641666976
0.00832943357291
0.00855817160542
0.00884247017218
0.00918284199844
0.00958025698773
0.0100359134575
0.0105509913586
0.0111264051548
0.0117625430354
0.0124590153776
0.0132144036642
0.0140260454403
0.0148898542682
0.0158002217398
0.0167500008395
0.0177306174802
0.0187322915944
0.0197443954283
0.0207558933372
0.0217558614744
0.0227339950675
0.0236810898768
0.0245893990031
0.0254528786316
0.0262672534606
0.0270299664787
0.0277399792931
0.0283975246244
0.0290037861794
0.029560611445
0.0300702146579
0.0305349596563
0.0309571560398
0.0313389432742
0.0316821819196
0.0319884203899
0.0322588534089
0.0324943407358
0.0326954062505
0.0328622885295
0.0329949707478
0.0330932626438
0.03315631674
0.0331833800832
0.0331735968889
0.033126057423
0.033039824755
0.032913989962
0.0327476991794
0.0325402042417
0.0322908882582
0.0319993126007
0.0316652420837
0.0312886887444
0.0308699361196
0.0304095786024
0.0299085427106
0.0293681194809
0.0287899795048
0.0281761950173
0.0275292449644
0.0268520232966
0.0261478305337
0.0254203653344
0.024673699927
0.0239122532953
0.0231407496467
0.0223641741973
0.0215877178664
0.0208167225638
0.0200566234503
0.019312900597
0.0185910405129
0.0178965190122
0.0172348052412
0.0166113903077
0.0160318278483
0.0155017643836
0.0150269058417
0.01461282975
0.0142644893486
0.0139851704992
0.0137748126908
0.0136290278057
0.0135401146684
0.013499399371
0.013498501059
0.0135298058293
0.0135865430069
0.013662698833
0.013752888301
0.0138522386188
0.0139562987232
0.0140609772001
0.0141625018014
0.0142573968667
0.0143424712371
0.0144148148399
0.0144717979594
0.0145110730757
0.0145305741571
0.014528514648
0.0145033799585
0.0144539171689
0.0143791188145
0.0142782047993
0.0141506002656
0.0139959146513
0.0138139210771
0.0136045424869
0.0133678264022
0.0131039992392
0.0128134399756
0.0124966983694
0.0121545282148
0.0117879395349
0.0113982670438
0.0109872555351
0.0105571547855
0.0101108168672
0.00965177976182
0.00918432047595
0.0087134553763
0.00824487035842
0.00778476879781
0.00733964054236
0.00691596945481
0.00651991182254
0.00615698218669
0.00583177696083
0.00554774497573
0.00530697945659
0.00510995304368
0.00495503892879
0.00483753144935
0.00474711389905
0.00467414219544
0.00880308020051
0.00885809814644
0.008968212147
0.00913300475993
0.00935213414458
0.00962550010998
0.00995324301779
0.0103356449328
0.0107729819698
0.0112653386592
0.011812409242
0.012413284282
0.0130662477687
0.0137685839902
0.0145164273797
0.0153046573538
0.0161268774398
0.0169754758654
0.017841802072
0.0187164360274
0.0195895653565
0.0204514140237
0.0212927144511
0.0221051400736
0.0228816870803
0.0236169247439
0.0243071329792
0.0249502768683
0.0255458815305
0.026094786351
0.026598869153
0.0270607229856
0.027483374279
0.0278700068881
0.0282237642744
0.0285475735719
0.0288440500368
0.0291154143326
0.0293634758513
0.0295896129797
0.029794803702
0.0299796411969
0.0301443893496
0.030289018361
0.0304132759205
0.0305158157842
0.0305953564924
0.0306505430563
0.0306799735605
0.0306822108868
0.0306558211865
0.0305993938528
0.0305115824056
0.0303911273377
0.0302368968592
0.0300479114797
0.0298233839561
0.0295627447818
0.0292656802459
0.0289321571572
0.0285624570034
0.028157197308
0.027717359091
0.0272443016309
0.0267397800502
0.0262059501295
0.0256453729837
0.0250610069678
0.0244561970389
0.0238346517098
0.0232004160356
0.0225578336344
0.0219115053506
0.0212662407721
0.0206270100937
0.0199988950501
0.0193870447914
0.0187966338253
0.0182328203741
0.0177006919395
0.0172051793656
0.0167509068854
0.0163419407022
0.0159814010217
0.0156709411906
0.0154102181639
0.0151968504523
0.0150267487581
0.0148945424353
0.0147945294632
0.0147210872223
0.0146688924882
0.0146330165527
0.0146089493739
0.0145925906563
0.0145802269169
0.0145685067462
0.0145544170621
0.0145352639059
0.0145086556914
0.0144724903281
0.0144249427043
0.0143644536573
0.0142897166941
0.0141996641636
0.0140934496684
0.0139704294133
0.0138301400661
0.0136722767542
0.0134966694846
0.0133032623438
0.0130920944658
0.0128632876504
0.0126169650551
0.0123533179198
0.0120726156223
0.0117752224977
0.0114616281981
0.0111324949064
0.0107887193711
0.0104315102931
0.0100624752495
0.00968371169862
0.00929788982181
0.00890831483645
0.00851895262363
0.00813440672652
0.00775983899212
0.00740083768481
0.00706324725126
0.00675298475617
0.006475871195
0.00623750251933
0.00604317313969
0.00589784795239
0.00580615673846
0.00577234808902
0.00579998605688
0.00588843335611
0.00604072793245
0.00958044647669
0.00963360884508
0.00973986224903
0.00989904621687
0.010110979902
0.010375499562
0.0106924431448
0.011061575719
0.0114824790458
0.0119544065331
0.0124761284466
0.0130457660764
0.0136606430462
0.0143171527398
0.0150106748129
0.0157355389097
0.016485069885
0.0172517040778
0.0180272033072
0.0188029360537
0.01957023573
0.0203207790877
0.0210469797484
0.0217423233164
0.0224016433479
0.0230212723249
0.0235990956278
0.0241344686972
0.024628060697
0.0250816055156
0.0254976415041
0.02587922006
0.0262296599637
0.0265523113206
0.0268503917522
0.0271268421068
0.0273842533317
0.0276248033776
0.0278502516296
0.0280619290312
0.028260771395
0.0284473373432
0.0286218592792
0.0287842736429
0.0289342796587
0.0290705077543
0.0291914403518
0.029295506653
0.0293811010358
0.0294465865682
0.0294903231625
0.0295106804286
0.0295060705747
0.0294749659843
0.0294159337602
0.029327656168
0.0292089656774
0.0290588672801
0.0288765730277
0.0286615248825
0.028413427203
0.0281322681258
0.0278183478218
0.0274722958425
0.0270950925462
0.026688079574
0.0262529717505
0.0257918579119
0.0253072007627
0.0248018255635
0.0242789058291
0.0237419380114
0.0231947119249
0.0226412710867
0.0220858687602
0.0215329156377
0.0209869233326
0.0204524391864
0.0199339721647
0.0194359010853
0.0189623580933
0.0185170749033
0.0181031863118
0.0177229947814
0.0173777279516
0.0170673559318
0.0167905672273
0.0165453311864
0.0163285759484
0.016136599088
0.0159655418086
0.0158115810059
0.0156710560326
0.015540543845
0.0154168989106
0.0152972686985
0.0151790959019
0.0150601115496
0.0149383250604
0.0148120111491
0.0146796969424
0.0145401470949
0.0143923492574
0.0142354970237
0.0140689727952
0.0138923278825
0.0137052628206
0.0135076056771
0.0132992918373
0.0130803434794
0.0128508525523
0.0126109657975
0.0123608755812
0.0121007202911
0.0118306483366
0.0115508554327
0.0112616027105
0.0109632462013
0.0106562805697
0.0103413952661
0.0100195437858
0.0096920214415
0.00936054800823
0.00902734638696
0.00869520930499
0.00836754356877
0.00804838569616
0.00774238649946
0.00745477214215
0.0071912982315
0.0069582243096
0.00676234242164
0.00661109734207
0.00651283644444
0.00647722926253
0.00651590057765
0.00664330759605
0.00687772655177
0.0072401354382
0.00775848688813
0.0103207639653
0.0103727753353
0.0104766775985
0.0106322933719
0.0108393748957
0.011097579765
0.0114064295258
0.0117652341838
0.0121729987406
0.0126283056223
0.0131291975134
0.0136730568929
0.0142565107008
0.0148753562469
0.0155245391415
0.0161981753534
0.0168896463508
0.0175917490883
0.0182969217218
0.0189975094013
0.0196860789587
0.0203557280959
0.0210003908781
0.0216150766212
0.0221960527433
0.0227409178489
0.0232486002415
0.0237192476298
0.0241540689868
0.0245551070366
0.0249250135594
0.0252668027817
0.0255836501884
0.0258786987362
0.026154928809
0.0264150414459
0.0266614030129
0.0268959948188
0.0271204126684
0.0273358595888
0.0275431764633
0.027742856611
0.027935089558
0.0281197845237
0.0282966201203
0.0284644721199
0.0286217173544
0.02876669666
0.0288977278118
0.0290131040403
0.0291111155478
0.0291900570649
0.0292482547092
0.0292840788436
0.0292959733029
0.0292824715237
0.0292422267952
0.0291740305847
0.0290768428664
0.0289498115185
0.0287923015189
0.0286039138739
0.0283845120288
0.0281342383515
0.027853535731
0.0275431593435
0.0272041912087
0.0268380448394
0.026446470444
0.0260315499937
0.0255956906644
0.0251416077437
0.0246723038192
0.0241910369796
0.0237012834623
0.0232066889364
0.0227110125376
0.0222180586437
0.0217315987423
0.0212552784106
0.020792510586
0.0203463523877
0.0199193714041
0.0195135099202
0.019129968617
0.0187691356275
0.0184305881469
0.0181131781104
0.0178158611415
0.0175365624012
0.0172729277975
0.0170225267247
0.0167829549624
0.0165519101803
0.0163272439188
0.0161069921494
0.0158893921592
0.0156728878569
0.0154561292956
0.0152379662411
0.0150174398089
0.0147937704155
0.0145663451839
0.0143347024366
0.0140985162905
0.0138575789887
0.0136117841628
0.0133611088749
0.0131055978108
0.0128453477165
0.01258049552
0.0123112083774
0.0120376787761
0.0117600269852
0.0114783497948
0.0111927824988
0.0109035188579
0.0106108405574
0.0103151586211
0.0100170650815
0.00971739579976
0.00941730093282
0.00911832108117
0.00882246323577
0.00853227243953
0.00825089376466
0.00798212399629
0.00773045651772
0.00750113291319
0.0073002250506
0.00713478589932
0.00701312225012
0.0069452622958
0.00694371787151
0.00702468585694
0.00720990746816
0.00752950980951
0.00802617557323
0.00875953687607
0.0098128214329
0.0110287560441
0.0110803226161
0.0111832658345
0.0113372996893
0.0115420079245
0.0117967964858
0.0121008406358
0.0124530098828
0.0128517880178
0.0132951797041
0.0137806283285
0.0143049383589
0.0148642303349
0.0154539196528
0.0160687467309
0.0167028439855
0.0173498634828
0.0180031405038
0.0186559103993
0.0193015406949
0.0199337892636
0.02054703888
0.0211365182777
0.0216984568156
0.0222301932753
0.0227301938381
0.0231980189648
0.0236342068643
0.0240401308352
0.0244178046953
0.0247697003095
0.0250985473208
0.0254071751934
0.0256983575829
0.0259747114668
0.0262386021427
0.0264921008142
0.0267369416324
0.0269745224722
0.0272058962248
0.0274317963361
0.0276526456479
0.0278685923052
0.0280795257321
0.0282851176162
0.0284846447049
0.0286764457132
0.0288588280777
0.0290300829918
0.0291884831977
0.029332301035
0.0294598122994
0.0295693186702
0.0296591566555
0.0297277225641
0.0297734847763
0.0297950098742
0.0297909770937
0.0297602046701
0.0297016654618
0.0296145125154
0.0294980946451
0.0293519799602
0.0291759698883
0.0289701191278
0.0287347463479
0.0284704488061
0.0281781077652
0.0278588958257
0.0275142748915
0.0271459939956
0.0267560773077
0.026346809827
0.0259207125153
0.0254805129119
0.0250291043772
0.0245694989423
0.0241047683838
0.0236379780061
0.0231721096112
0.0227099788289
0.0222541464955
0.0218068322445
0.0213698350216
0.0209444725882
0.0205315471721
0.0201313475233
0.0197436881705
0.0193680388537
0.0190043966168
0.0186516869232
0.0183087174565
0.0179742422899
0.0176470231149
0.0173258742434
0.0170096937318
0.0166974848379
0.0163883675248
0.0160815846255
0.0157765015057
0.0154726032397
0.0151694873968
0.0148668559509
0.0145645040793
0.0142623092026
0.0139602179919
0.0136582346543
0.0133564083165
0.0130548227938
0.0127535867198
0.0124528272479
0.0121526853942
0.0118533157933
0.0115548050681
0.0112571889781
0.0109605432687
0.0106650053937
0.0103708042239
0.0100782999002
0.00978803226685
0.00950077902224
0.00921762106765
0.00894001456326
0.00866986636006
0.00840961205727
0.00816229572912
0.00793165587675
0.00772222726885
0.00753947969843
0.00739002816434
0.00728197044455
0.00722543730275
0.00723348749575
0.00732355609549
0.00751979903326
0.00785691797561
0.00838647738046
0.00918736852053
0.0103818724052
0.0121581898588
0.0117099151162
0.0117617454643
0.011865123402
0.0120196077695
0.0122245581137
0.0124790804414
0.0127819739174
0.0131316625254
0.0135261319856
0.0139628613547
0.0144387756368
0.0149502095178
0.0154929086004
0.0160620542293
0.0166523357224
0.0172580487886
0.017873240053
0.018491867854
0.019107995608
0.0197159794437
0.0203106651369
0.0208875502595
0.0214429302155
0.0219739836763
0.0224788259837
0.0229564911644
0.0234068846789
0.0238306740032
0.0242291703043
0.0246041704566
0.0249578167594
0.0252924396098
0.0256104381549
0.0259141570539
0.0262058096616
0.0264873997007
0.0267606880109
0.0270271535156
0.0272879931015
0.0275441094952
0.0277961309878
0.0280444137818
0.0282890701087
0.028529975385
0.0287667958214
0.0289991782485
0.0292256102935
0.029444375224
0.0296537421409
0.0298519692022
0.0300373197367
0.0302080625944
0.0303624907516
0.0304989266967
0.0306157438999
0.0307113756665
0.0307843378486
0.0308332397938
0.0308568072413
0.030853894365
0.0308235059699
0.0307648096231
0.0306771561788
0.0305600908419
0.0304133708821
0.0302369742971
0.0300311133964
0.0297962395523
0.0295330511347
0.0292424926202
0.028925755094
0.0285842676793
0.0282196884757
0.0278338859405
0.0274289179052
0.0270070005663
0.0265704737056
0.0261217561373
0.025663297426
0.0251975220192
0.0247267725065
0.0242532506585
0.023778963941
0.0233056778194
0.0228348810672
0.0223677635431
0.0219052111235
0.0214478161467
0.020995905408
0.0205496491031
0.0201101187884
0.0196771914082
0.01925065439
0.0188302412648
0.0184156626112
0.0180066284608
0.0176028672032
0.0172041380328
0.0168102401062
0.016421016188
0.0160363545538
0.0156561867343
0.0152804846834
0.0149092549436
0.0145425332974
0.0141803775183
0.0138228615718
0.0134700689707
0.0131220885029
0.0127790101998
0.0124409246131
0.0121079233768
0.0117801036403
0.0114575151463
0.0111401232703
0.0108279388529
0.0105210413098
0.0102196085986
0.0099239559682
0.00963458205834
0.00935222374082
0.00907791804547
0.00881307194882
0.00855953882336
0.00831970358107
0.00809657933447
0.00789392476535
0.0077163978926
0.00756977547764
0.00746128540924
0.00740013027686
0.00739832877894
0.00747208651572
0.007644059046
0.00794715469089
0.00843107463886
0.00917387325327
0.0103028953139
0.0120323022406
0.014725006988
0.0123704620286
0.0124232848262
0.0125285362988
0.0126855890027
0.0128935393685
0.0131511544948
0.0134568264489
0.0138085167896
0.0142037143026
0.0146393947327
0.0151120093093
0.0156174884798
0.01615128601
0.016708443223
0.0172836938
0.0178715818127
0.0184666101656
0.0190633862191
0.0196567818146
0.0202420707983
0.020815064665
0.0213722079458
0.0219106601185
0.0224283260458
0.0229238697183
0.0233966748734
0.0238467955849
0.0242748616926
0.0246819885751
0.0250696554022
0.025439604178
0.0257937204065
0.0261339471136
0.0264621884929
0.0267802526973
0.0270897861963
0.0273922470681
0.0276888676819
0.0279806526695
0.0282683625778
0.0285525280665
0.0288334464201
0.0291112044956
0.0293856829815
0.0296565874225
0.0299234686436
0.0301855715976
0.0304410769716
0.0306881966694
0.0309251543745
0.0311501907884
0.0313615575451
0.0315575314707
0.0317364163091
0.031896561123
0.0320363660241
0.0321543020506
0.0322489189987
0.0323188654573
0.032362897648
0.0323798987686
0.0323688879659
0.0323290382246
0.0322596845925
0.0321603398002
0.0320307007769
0.0318706610818
0.0316803146269
0.0314599638502
0.0312101194013
0.0309315027955
0.0306250406225
0.0302918602332
0.029933276902
0.0295507810888
0.0291460172122
0.0287207616328
0.0282768928466
0.0278163611997
0.0273411529508
0.0268532560334
0.0263546239582
0.0258471448574
0.0253326124161
0.0248127040549
0.0242889621422
0.0237627822422
0.0232354044756
0.022707913453
0.0221812391844
0.0216561390733
0.0211348256765
0.020617975721
0.0201061984238
0.0196000255875
0.0190999212683
0.0186062937491
0.0181195056987
0.0176398833297
0.0171677215007
0.0167032888231
0.0162468295232
0.0157985655231
0.0153586959239
0.0149273973723
0.0145048226811
0.0140911010305
0.0136863372802
0.0132906135483
0.0129039907969
0.012526513394
0.0121582145422
0.0117991250844
0.0114492639305
0.0111085183437
0.0107768267812
0.010454202994
0.0101407662854
0.00983677952431
0.00954269356968
0.00925919974997
0.00898728949098
0.00872832293352
0.00848410708146
0.00825698778288
0.00804996150064
0.00786682007298
0.00771234972137
0.00759262171569
0.00751543556866
0.00749101730506
0.00753314608053
0.00766101334486
0.00790236704199
0.00829898787249
0.00891656618701
0.00986323411336
0.0113257341823
0.0136414255418
0.0174350164486
0.0130171310465
0.0130717056988
0.0131803328198
0.0133421723502
0.0135560226123
0.0138202736267
0.0141328740988
0.014491293984
0.0148925080673
0.0153329867116
0.0158087219756
0.01631527138
0.0168478417629
0.0174013873103
0.0179707388244
0.0185507313799
0.0191363463553
0.0197228325342
0.0203058262939
0.0208814364183
0.021446320656
0.0219977209475
0.0225334915169
0.0230520864274
0.0235525460651
0.024034446939
0.0244978580114
0.0249432651512
0.0253715100215
0.0257837025057
0.0261811553941
0.0265652980968
0.0269376192645
0.0272995926551
0.0276526359787
0.0279980549092
0.028337021081
0.0286705349835
0.0289994214047
0.029324308188
0.0296456346582
0.0299636413648
0.0302783861931
0.0305897408852
0.0308974131431
0.0312009540738
0.0315003458722
0.0317936997349
0.0320791723174
0.0323549396827
0.0326192012129
0.0328701715255
0.0331060924315
0.0333252316535
0.0335258986681
0.0337064475518
0.0338652944913
0.0340009228262
0.0341119007714
0.0341968874707
0.0342546500854
0.0342840700675
0.0342841590078
0.0342540644644
0.0341930840239
0.034100670034
0.0339764413063
0.0338201860552
0.0336318705865
0.0334116396522
0.0331598213617
0.0328769240708
0.0325636366853
0.0322208212157
0.0318495077658
0.0314508821824
0.0310262755617
0.0305771472672
0.0301050699685
0.0296117097681
0.0290988093371
0.0285681681025
0.0280216263364
0.0274610471433
0.0268883014847
0.0263052498925
0.0257137253436
0.0251155123621
0.024512327826
0.0239058009692
0.0232974534267
0.022688708701
0.0220823884101
0.0214801420131
0.0208832377056
0.0202928341985
0.0197099690082
0.0191355724841
0.0185704726036
0.0180153986067
0.01747098756
0.0169377889487
0.0164162706533
0.0159068229368
0.0154097638968
0.0149253434102
0.0144537488556
0.013995109918
0.0135495055819
0.0131169708881
0.0126975063144
0.0122910874543
0.011897677314
0.0115172688388
0.0111496754335
0.0107947556643
0.0104524474695
0.0101227992334
0.00980600752944
0.00950246037485
0.00921278798562
0.00893792079479
0.00867915745363
0.00843824475546
0.00821747559296
0.00801981343971
0.00784905991444
0.00771009158389
0.00760921101712
0.00755468609088
0.00755760446538
0.00763326445618
0.00780350495685
0.00810073714549
0.00857519341763
0.00930855446956
0.0104408844195
0.0122267166846
0.0151565259803
0.0202148035292
0.0136569661367
0.0137140874867
0.0138276624964
0.0139966119673
0.0142193997044
0.0144939955055
0.014817859901
0.0151879295592
0.0156006305427
0.0160519042495
0.0165372735885
0.0170519267222
0.0175908389929
0.0181489001012
0.0187210610335
0.0193024631297
0.0198885653271
0.0204752335996
0.0210588168373
0.021636177925
0.0222047141586
0.0227623385909
0.0233074631816
0.0238389532258
0.0243560960518
0.0248585475451
0.0253462994082
0.0258196247674
0.0262790459283
0.0267252784578
0.0271591979872
0.0275817826476
0.0279940803261
0.0283971529922
0.0287920488304
0.0291797535945
0.0295611719825
0.0299370896852
0.0303081659735
0.0306749072374
0.0310376697983
0.0313966427879
0.0317518572439
0.032103172807
0.0324502846145
0.0327927007192
0.0331310800593
0.0334636359876
0.0337884849391
0.0341037312366
0.034407502292
0.0346979464799
0.0349732439283
0.0352316018773
0.0354712678303
0.0356905294097
0.0358877297499
0.0360612699544
0.0362096249718
0.0363313472426
0.0364250821277
0.0364895719786
0.0365236706228
0.0365263473592
0.0364967001674
0.0364339592277
0.0363374985652
0.036206838708
0.0360416564508
0.0358417862286
0.0356072276267
0.0353381450159
0.0350348724224
0.0346979110228
0.0343279311183
0.0339257673196
0.0334924177075
0.0330290369784
0.0325369333662
0.0320175604565
0.0314725126428
0.0309035159923
0.0303124218759
0.0297011951715
0.0290719029048
0.0284266954343
0.0277677858285
0.0270974214308
0.0264178548497
0.025731310836
0.0250399594065
0.0243458904763
0.0236511208496
0.022958506471
0.0222709278096
0.0215901810115
0.0209178611144
0.0202554297466
0.01960419535
0.0189653089665
0.0183397713789
0.0177284390326
0.0171320324705
0.0165511434968
0.0159862445803
0.0154376971236
0.0149057618447
0.0143906083197
0.0138923267697
0.0134109395516
0.0129464152986
0.0124986836709
0.0120676537034
0.011653233846
0.0112552421839
0.0108734414699
0.0105076795686
0.0101579189232
0.00982427304957
0.00950704851482
0.00920679425304
0.00892435835948
0.00866095571912
0.0084182494887
0.00819845394955
0.00800446922719
0.00784006717399
0.00771015872733
0.00762119449434
0.00758178459832
0.0076036876736
0.00770343656023
0.00790510124236
0.00824516870745
0.00878156133392
0.00961120504454
0.0109063568228
0.012994643717
0.0165452567145
0.0230025752566
0.0142972265296
0.014357727957
0.0144778981372
0.0146563896487
0.0148912901711
0.0151800989389
0.015519732713
0.0159065385789
0.0163363422702
0.0168045128596
0.0173060719422
0.0178358191022
0.0183884905956
0.0189589122271
0.0195421584207
0.0201336756954
0.0207293881836
0.0213257494878
0.0219197708128
0.0225089977657
0.0230914773989
0.0236656910015
0.0242304995442
0.0247850726243
0.0253288465697
0.0258614731447
0.0263828012859
0.0268928449877
0.0273917793034
0.0278799137658
0.0283576883462
0.0288256410911
0.0292843968652
0.0297346271547
0.0301770333223
0.0306123034685
0.0310410961552
0.0314640007783
0.0318815271255
0.0322940736653
0.032701925538
0.0331052322368
0.0335040141514
0.0338981496685
0.034287391001
0.034671365845
0.0350497291812
0.0354226734043
0.0357880014815
0.0361436286681
0.0364875495637
0.0368178059074
0.0371324839424
0.0374297021083
0.0377076201253
0.0379644353244
0.0381983959618
0.0384078011797
0.038591015402
0.0387464698865
0.0388726770291
0.0389682326913
0.0390318299795
0.0390622619697
0.0390584347899
0.0390193705278
0.0389442195338
0.038832263351
0.0386829261571
0.0384957775434
0.0382705429726
0.0380071062058
0.0377055186301
0.0373660011501
0.0369889522849
0.0365749494266
0.0361247556962
0.0356393205261
0.0351197852071
0.0345674824738
0.0339839400441
0.0333708777618
0.0327302067479
0.0320640205231
0.0313745852395
0.0306643198157
0.0299357730784
0.0291915908604
0.0284344814772
0.0276671754135
0.0268923886125
0.0261127884306
0.025330970019
0.0245494563218
0.0237704851482
0.022998710829
0.0222359950039
0.0214843461922
0.0207455487427
0.0200211645992
0.0193125580129
0.0186208997911
0.0179471769667
0.0172922012697
0.0166566209207
0.0160409319057
0.0154454919025
0.0148705335775
0.0143161803123
0.0137824616402
0.0132693312952
0.0127766855961
0.0123043846723
0.0118522737323
0.0114201879391
0.0110077916132
0.010614833544
0.0102411770814
0.00988683634862
0.009552017481
0.00923716696417
0.00894302758921
0.00867070589565
0.0084217549605
0.00819828113956
0.00800308682392
0.00783987070099
0.00771351926933
0.0076305471318
0.00759978271213
0.00763347003319
0.00774909692029
0.00797254306521
0.00834374002928
0.00892738064714
0.00983442699056
0.0112683506172
0.0136321535366
0.0177931873849
0.025748910277
0.0149454362809
0.0150101942869
0.0151386901959
0.0153292751516
0.0155796126744
0.0158866707042
0.0162467536223
0.0166555472823
0.0171082067392
0.0175994652378
0.0181237906204
0.0186755542911
0.0192492272114
0.0198395559639
0.0204417293405
0.0210514901367
0.0216652125811
0.0222799111602
0.0228932176468
0.0235033028025
0.0241087920585
0.0247086538868
0.025302113245
0.0258885610014
0.0264675070485
0.0270385353634
0.0276013029332
0.0281555307328
0.0287010274905
0.0292376906451
0.0297655292012
0.0302846538304
0.0307952846577
0.0312977241547
0.0317923497579
0.0322795746709
0.0327598329817
0.0332335374922
0.0337010658037
0.0341627227339
0.03461873283
0.0350692111221
0.0355141633937
0.0359534646722
0.0363868642078
0.0368139668725
0.037234236484
0.0376489868494
0.0380559569409
0.0384529367311
0.0388377849502
0.0392084126556
0.0395627835384
0.0398988988721
0.040214803903
0.0405085808403
0.0407783602452
0.0410223185229
0.0412386911087
0.0414257721302
0.0415819280242
0.0417055984798
0.0417953100775
0.0418496782113
0.0418674206863
0.0418473605303
0.0417884395965
0.041689722236
0.0415504089499
0.0413698408706
0.0411475134431
0.0408830816004
0.0405763733717
0.040227395574
0.0398363471707
0.0394036252155
0.0389298376423
0.0384158089528
0.0378625916917
0.0372714706773
0.0366439713923
0.0359818601631
0.0352871460038
0.0345620723887
0.033809107711
0.0330309239272
0.0322303721014
0.0314104465827
0.0305742474291
0.0297249352131
0.0288656883816
0.0279996579968
0.0271299293455
0.0262594827272
0.0253911517304
0.02452762606
0.0236727572104
0.0228299641425
0.0220014570865
0.0211891673234
0.0203948248167
0.0196199229555
0.0188657338595
0.0181333128894
0.0174235111306
0.0167369881262
0.0160742280854
0.0154355558135
0.0148211553817
0.0142310885789
0.0136653159909
0.0131237182416
0.0126061198495
0.0121123132732
0.0116421853196
0.01119529747
0.01077129235
0.0103699230392
0.0099910893679
0.00963487906572
0.00930161573103
0.00899191442352
0.00870674916954
0.00844753690434
0.00821624730985
0.00801555183227
0.00784903510512
0.00772150531956
0.00763946589687
0.00761185421215
0.00765123620524
0.00777580559914
0.00801286632665