/*--------------------------------*- C++ -*----------------------------------*\
| =========                 |                                                 |
| \\      /  F ield         | OpenFOAM: The Open Source CFD Toolbox           |
|  \\    /   O peration     | Version:  2206                                  |
|   \\  /    A nd           | Website:  www.openfoam.com                      |
|    \\/     M anipulation  |                                                 |
\*---------------------------------------------------------------------------*/
FoamFile
{
    version     2.0;
    format      ascii;
    arch        "LSB;label=64;scalar=64";
    class       volScalarField;
    location    "3.5/water";
    object      k.gas;
}
// * * * * * * * * * * * * * * * * * * * * * * * * * * * * * * * * * * * * * //

dimensions      [0 2 -2 0 0 0 0];

internalField   nonuniform List<scalar> 
23300
(
0.0129224218556
0.0129266121795
0.0129347623225
0.0129467609757
0.0129625366141
0.0129820355393
0.0130052055687
0.0130319788676
0.0130622654682
0.0130959425598
0.013132854804
0.0131728091047
0.0132155828168
0.0132609267033
0.013308583988
0.013358303708
0.0134098709433
0.013463127659
0.0135180075131
0.0135745532058
0.0136329416694
0.0136934817547
0.0137566148657
0.0138228821541
0.0138928972466
0.0139672887639
0.0140466601651
0.0141315295829
0.0142223015028
0.0143192267752
0.0144224025157
0.0145317601056
0.0146470916957
0.0147680574332
0.0148942249236
0.0150250810417
0.0151600705981
0.015298602314
0.0154400794157
0.0155838962506
0.0157294594667
0.0158761759823
0.0160234656325
0.0161707411931
0.0163174104592
0.0164629779038
0.0166069405743
0.0167487794783
0.0168879808824
0.0170240276211
0.0171564111776
0.0172846205022
0.0174081521856
0.0175265006635
0.0176391683911
0.0177456584492
0.0178454851908
0.0179381694451
0.01802324969
0.018100279739
0.0181688403024
0.0182285388306
0.018279021152
0.0183199729228
0.0183511308014
0.0183722846762
0.0183832875481
0.0183840574035
0.018374584717
0.0183549326669
0.0183252411627
0.0182857243112
0.0182366703199
0.0181784357642
0.0181114414428
0.0180361636371
0.0179531263771
0.017862889893
0.0177660393515
0.0176631699467
0.0175548709795
0.017441704801
0.0173241796844
0.0172027052399
0.0170775034968
0.0169483853802
0.0168143453203
0.016674353808
0.0165277732956
0.0163742331837
0.0162135324578
0.0160455857099
0.0158703958254
0.0156880384294
0.0154986539491
0.0153024408816
0.015099651529
0.0148905860456
0.0146755880122
0.014455037681
0.0142293469445
0.0139989518695
0.0137643073489
0.0135258793625
0.0132841398397
0.013039559372
0.0127926031091
0.0125437248921
0.0122933651001
0.0120419470992
0.0117898777304
0.01153754667
0.0112853299753
0.0110336209013
0.0107828248156
0.0105333582188
0.0102856628943
0.0100402193866
0.00979756390468
0.00955830390895
0.00932313486297
0.00909285268082
0.00886836247547
0.00865067754541
0.0084409080783
0.00824023473194
0.00804986839255
0.00787099623557
0.00770472081248
0.00755199900256
0.00741359140484
0.00729002974725
0.00718160747483
0.00708839170343
0.00701024948747
0.0069468766183
0.00689781679263
0.00686246277551
0.00684004127506
0.0068296149942
0.0129243057791
0.0129283269523
0.0129363167039
0.0129482194457
0.0129639775296
0.0129835220857
0.0130067639953
0.013033581747
0.0130638140606
0.0130972501708
0.0131336272061
0.0131726264524
0.0132138797954
0.0132569770588
0.0133014864721
0.0133469768468
0.0133930532022
0.0134393908612
0.0134857783499
0.0135321500727
0.013578618689
0.0136254859923
0.0136732452724
0.0137225555911
0.0137742077944
0.0138290666682
0.0138880160521
0.0139518929836
0.014021440068
0.0140972585716
0.0141797887287
0.0142692933663
0.0143658676689
0.0144694465997
0.0145798317135
0.0146967079113
0.0148196732613
0.0149482536921
0.015081927567
0.0152201335642
0.01536228789
0.0155077855244
0.0156560116239
0.0158063391784
0.0159581393937
0.0161107114229
0.0162633621826
0.0164154044037
0.0165661595732
0.016714951629
0.0168611111805
0.0170039706469
0.0171428690468
0.0172771487648
0.0174061612065
0.017529265456
0.0176458349557
0.0177552581075
0.01785694596
0.0179503346195
0.0180348937624
0.018110130532
0.0181755985031
0.0182309025199
0.0182757075015
0.0183097434049
0.0183328129733
0.0183447957157
0.0183456534418
0.0183354319728
0.0183142632705
0.0182823637562
0.0182400322304
0.0181876442583
0.0181256457475
0.0180545434419
0.017974894289
0.0178872917857
0.0177923501857
0.0176906843541
0.017582884454
0.0174694817062
0.0173509016143
0.0172273995482
0.0170989804525
0.0169653552594
0.0168260444492
0.0166804328325
0.0165280317005
0.0163684986831
0.0162016199619
0.0160272891372
0.0158454916112
0.0156562935941
0.0154598350155
0.0152563235987
0.0150460302072
0.0148292835
0.014606465012
0.0143780030035
0.014144366684
0.0139060591105
0.0136636106448
0.0134175712
0.0131685034123
0.0129169749471
0.0126635522566
0.0124087939556
0.0121532461873
0.0118974380891
0.0116418797323
0.0113870607198
0.0111334519786
0.0108815171066
0.0106317150508
0.0103844987256
0.0101403238011
0.00989965836371
0.0096629948252
0.00943086190089
0.00920383719325
0.00898255761064
0.0087677270709
0.00856011822943
0.00836056716577
0.00816995852793
0.00798920148561
0.00781919708172
0.00766080085602
0.00751478529995
0.00738180837788
0.00726239295098
0.00715692008133
0.00706563505271
0.00698866097363
0.00692601100623
0.00687758795129
0.00684315787112
0.0068222777881
0.00681412641665
0.0129441934882
0.0129483692573
0.0129567234939
0.0129692268431
0.0129858270286
0.0130064426613
0.0130309565192
0.0130592048285
0.0130909705775
0.0131259750344
0.0131638763093
0.0132042682113
0.0132466896536
0.013290636693
0.0133355876735
0.0133810312911
0.0134265069294
0.0134716435471
0.013516204803
0.0135601231973
0.0136035306904
0.0136467674164
0.0136903792825
0.0137350886076
0.0137817552011
0.0138313162769
0.0138847286617
0.0139429031374
0.014006655697
0.0140766619977
0.0141534365795
0.0142373173161
0.014328472999
0.0144269106688
0.0145324995088
0.0146449873765
0.0147640279478
0.014889195913
0.0150200097868
0.0151559413686
0.0152964322682
0.0154408977853
0.0155887386252
0.0157393419374
0.0158920919095
0.016046234774
0.0162010143644
0.0163556891648
0.0165095313343
0.0166618195377
0.0168118407668
0.0169588859341
0.0171022533128
0.017241246212
0.0173751776648
0.0175033700052
0.017625160703
0.0177399037441
0.0178469765129
0.0179457828015
0.0180357605371
0.0181163861034
0.0181871825503
0.0182477247184
0.0182976473529
0.018336650277
0.0183645055707
0.0183810617651
0.0183862489912
0.0183800809638
0.0183626569
0.0183341601078
0.0182948556888
0.0182450849193
0.0181852582063
0.0181158448318
0.0180373607497
0.017950352909
0.017855380518
0.0177529916117
0.0176436946001
0.0175279235942
0.0174059986573
0.017278085023
0.0171441630857
0.0170040301669
0.0168575168947
0.0167043144018
0.0165441236732
0.0163767198211
0.0162019616989
0.0160197919795
0.0158302341274
0.015633388084
0.0154294261538
0.0152185883256
0.0150011778172
0.0147775557418
0.014548135899
0.0143133785269
0.0140737842324
0.0138298868601
0.0135822467124
0.0133314428594
0.0130780661529
0.012822711688
0.0125659724597
0.0123084329247
0.012050664241
0.0117932198458
0.0115366331199
0.0112814158077
0.0110280589204
0.0107770353703
0.0105288058302
0.0102838189215
0.0100425176898
0.00980534698524
0.00957276266874
0.00934524097678
0.00912328837403
0.00890744981904
0.00869831502247
0.00849652033797
0.00830274560604
0.00811770430426
0.0079421275431
0.00777674268833
0.00762224982838
0.00747929976652
0.00734847836548
0.00723030094093
0.00712521891977
0.00703363769759
0.00695594100821
0.00689251265705
0.00684374140686
0.00680998719969
0.00679147109698
0.00678802029472
0.0129763167337
0.0129810085853
0.0129903884489
0.0130044232823
0.0130230448463
0.0130461426137
0.0130735580259
0.0131050746928
0.0131404131878
0.0131792244497
0.0132210912408
0.0132655308755
0.0133120092812
0.0133599582185
0.0134088053827
0.0134580065821
0.0135070883177
0.0135556866444
0.0136035893109
0.0136507644834
0.0136973836928
0.0137438223023
0.0137906490681
0.0138385910542
0.0138884915763
0.0139412509133
0.0139977720488
0.0140589014759
0.0141253874721
0.0141978420419
0.0142767257329
0.014362336504
0.0144548189197
0.0145541719752
0.0146602712506
0.014772883605
0.0148916912467
0.0150163046962
0.0151462827745
0.0152811405243
0.0154203637864
0.0155634124027
0.0157097306558
0.0158587478548
0.0160098871483
0.0161624411812
0.016315656077
0.016468793934
0.0166211317095
0.0167719541425
0.0169205549471
0.0170662325091
0.0172082929108
0.0173460478058
0.0174788187801
0.0176059370568
0.0177267489528
0.0178406172123
0.0179469273908
0.0180450906087
0.0181345506481
0.018214787824
0.018285326463
0.0183457394425
0.0183956555499
0.0184347640409
0.01846282116
0.0184796538362
0.0184851644135
0.0184793323965
0.0184622162879
0.0184339522387
0.0183947519436
0.018344897217
0.0182847331424
0.0182146578336
0.0181351101689
0.0180465539553
0.0179494593962
0.0178442807991
0.017731431582
0.0176112571623
0.0174840092646
0.0173498266315
0.0172087302137
0.0170606395078
0.0169054952124
0.0167433066508
0.0165739588141
0.0163973750082
0.0162135311752
0.0160224631871
0.015824270296
0.0156191154146
0.0154072239449
0.0151888807794
0.0149644267959
0.0147342540377
0.0144988008323
0.0142585457852
0.0140140019497
0.0137657099836
0.0135142317221
0.0132601429542
0.0130040269751
0.0127464677011
0.012488043992
0.0122293239334
0.01197086071
0.0117131887764
0.0114568218943
0.0112022517246
0.0109499484378
0.0107003598844
0.0104539192249
0.0102110464791
0.00997215406766
0.00973765301497
0.00950796063918
0.00928350822058
0.00906474896939
0.0088521644908
0.00864626950225
0.00844761288694
0.00825677477014
0.00807435850711
0.00790097849748
0.00773724496577
0.00758374903151
0.0074410517744
0.00730968207319
0.00719014711935
0.00708295851715
0.006988674348
0.00690795456913
0.00684162247865
0.00679071818834
0.00675651918882
0.00674048405236
0.00674401387667
0.0130263009183
0.0130318050897
0.0130427888955
0.0130591943473
0.0130809184649
0.0131078036163
0.0131396321955
0.0131761180263
0.0132169034604
0.0132615557881
0.0133095729393
0.013360391088
0.0134134043951
0.0134679876661
0.0135235310672
0.0135794750107
0.0136353528057
0.0136908263785
0.0137457220554
0.0138000503015
0.0138540181639
0.0139080194027
0.0139626154722
0.0140184953009
0.014076432238
0.0141372283296
0.014201667169
0.0142704644359
0.0143442364728
0.014423472054
0.0145085248267
0.0145996075547
0.0146968036799
0.0148000754941
0.0149092844484
0.0150242032058
0.0151445360723
0.0152699286163
0.0153999840911
0.0155342686196
0.0156723230579
0.0158136643745
0.0159577941762
0.0161041980429
0.016252352747
0.0164016521668
0.0165513745877
0.0167008128555
0.0168492737155
0.0169960712682
0.0171405281828
0.0172819716979
0.0174197365919
0.0175531632642
0.0176816019642
0.0178044125395
0.0179209696072
0.0180306637015
0.0181329071703
0.018227136485
0.0183128186412
0.0183894543447
0.018456584622
0.0185137944971
0.0185607193966
0.0185970487857
0.0186225317895
0.0186369800755
0.0186402719232
0.0186323534623
0.018613240267
0.0185830159542
0.0185418303459
0.0184898944799
0.0184274745068
0.0183548823549
0.0182724647771
0.0181805892467
0.0180796281368
0.0179699405014
0.0178518534417
0.0177256440842
0.0175915258243
0.0174496418468
0.0173000696718
0.0171428362902
0.0169779412245
0.0168055830669
0.016625904879
0.0164389826851
0.0162449293732
0.0160438999664
0.0158360951751
0.015621762955
0.0154011987786
0.0151747439247
0.0149427831051
0.0147057405782
0.014464076109
0.0142182797107
0.013968866559
0.0137163709035
0.0134613404583
0.0132043300679
0.012945896216
0.0126865911555
0.0124269582478
0.0121675272527
0.0119088111122
0.0116513029355
0.0113954746493
0.011141776005
0.0108906352949
0.0106424568975
0.0103976304446
0.0101565334974
0.00991953670181
0.00968700935207
0.00945932611745
0.009236873507
0.00902005638065
0.00880930286249
0.00860506752606
0.00840783122867
0.00821809755386
0.00803638515244
0.00786321723815
0.00769910975693
0.0075445618673
0.00740005286093
0.00726605096181
0.00714303919682
0.00703156364194
0.00693230867389
0.0068462036079
0.00677456430373
0.00671927132954
0.00668298049889
0.00666934433398
0.00668313830485
0.0130965818017
0.0131031784412
0.0131163183009
0.0131359019315
0.0131617714953
0.0131937000335
0.013231387093
0.0132744521031
0.0133224350499
0.0133747970459
0.013430931554
0.0134901780803
0.0135518483154
0.0136152544251
0.0136797479492
0.0137447561742
0.0138098231123
0.0138746399136
0.0139390721804
0.014003168904
0.0140671633326
0.0141314524776
0.0141965701612
0.0142631429006
0.0143318475655
0.0144033608674
0.0144783208267
0.0145572880291
0.0146407251641
0.014728978776
0.0148222793808
0.0149207408748
0.0150243743829
0.0151330965636
0.0152467480529
0.015365102698
0.0154878843284
0.0156147727987
0.0157454167443
0.0158794357033
0.0160164290925
0.0161559754048
0.0162976386931
0.0164409664936
0.0165854957838
0.0167307526794
0.0168760609301
0.0170207567114
0.0171641881176
0.017305709242
0.0174446816972
0.0175804710277
0.0177124497941
0.0178399958742
0.0179624966465
0.0180793487568
0.0181899630504
0.0182937654907
0.018390202589
0.0184787432169
0.0185588843066
0.0186301532889
0.0186921138079
0.0187443684597
0.018786564192
0.0188183949254
0.0188396061987
0.0188499971299
0.0188494237321
0.0188377995376
0.0188150968851
0.0187813454386
0.0187366306981
0.0186810896614
0.0186149059074
0.0185383018488
0.0184515300833
0.0183548622537
0.0182485773042
0.0181329484714
0.0180082313754
0.0178746538098
0.0177324102303
0.0175816618754
0.0174225439251
0.0172551773461
0.0170796819495
0.0168961891128
0.0167051818189
0.0165069172192
0.0163016491513
0.0160896618618
0.0158712703904
0.0156468207095
0.0154166899739
0.0151812851857
0.0149410415672
0.0146964195375
0.014447901644
0.0141959882872
0.0139411936795
0.0136840408311
0.0134250570806
0.0131647689467
0.0129036978591
0.0126423555226
0.0123812404563
0.012120834429
0.011861600275
0.0116039797923
0.0113483931238
0.0110952383288
0.0108448924338
0.0105977078445
0.0103540226221
0.0101141645813
0.00987845623643
0.0096472199155
0.00942078373092
0.00919948703709
0.00898368566229
0.00877375538953
0.00857009363442
0.00837311792041
0.0081832613058
0.00800096435115
0.0078266651217
0.00766078903405
0.00750374247235
0.00735591482409
0.00721769537644
0.00708951233914
0.00697190333913
0.0068656296245
0.0067718523792
0.00669239992737
0.00663017132279
0.00658974498623
0.00657828130823
0.00660674220217
0.0131887990318
0.013196755685
0.0132125785118
0.0132361111791
0.0132671199141
0.0133052830639
0.0133501891345
0.013401333477
0.0134581237788
0.0135198864523
0.0135858848699
0.0136553402004
0.0137274648005
0.013801496276
0.0138767400674
0.0139526062177
0.0140286471889
0.0141045813493
0.0141803104423
0.0142559168172
0.0143316525172
0.0144079085821
0.0144851811251
0.0145640244507
0.0146450105034
0.0147286842349
0.0148155339323
0.0149059628954
0.015000279387
0.015098687598
0.0152012948166
0.0153081154731
0.0154190870914
0.0155340786759
0.0156529075206
0.0157753458438
0.0159011342567
0.0160299844412
0.0161615885026
0.0162956180989
0.016431730633
0.0165695661702
0.0167087517735
0.0168488975715
0.0169896006676
0.0171305346802
0.0172710808871
0.017410625974
0.0175485645901
0.0176842951924
0.0178172223496
0.0179467536361
0.0180723028721
0.0181932885801
0.0183091381331
0.0184192874842
0.0185231858782
0.0186202965096
0.0187101015143
0.0187921032754
0.0188658294673
0.0189308347578
0.0189867056858
0.0190330624931
0.0190695635892
0.0190959072013
0.0191118351177
0.0191171337732
0.0191116368797
0.0190952254836
0.0190678290174
0.0190294238131
0.018980032093
0.018919718464
0.018848586481
0.018766772873
0.0186744416977
0.0185717766645
0.0184589738483
0.0183362338431
0.018203755805
0.0180617331955
0.0179103535801
0.0177498018816
0.0175802676286
0.0174019532103
0.0172150818742
0.0170199030034
0.0168167176995
0.0166062358537
0.0163888489632
0.0161649716109
0.0159350361927
0.0156994925116
0.0154588064585
0.0152134581098
0.0149639401177
0.0147107551142
0.0144544133895
0.0141954295322
0.0139343194791
0.0136715966901
0.0134077689661
0.0131433346304
0.012878779613
0.0126145741511
0.0123511706065
0.0120890011034
0.0118284764224
0.0115699848578
0.0113138923914
0.0110605429152
0.0108102597453
0.010563341166
0.0103200704467
0.0100807224358
0.00984556831791
0.00961488031248
0.00938893694061
0.00916802753579
0.00895245626493
0.00874254423746
0.008538629709
0.00834106515981
0.00815021153572
0.00796642944526
0.00779006893507
0.0076214598146
0.00746090662871
0.00730869338512
0.00716510555634
0.00703047910343
0.00690529105947
0.00679031445032
0.00668687700733
0.00659729452422
0.00652560774698
0.00647885252207
0.00646924553121
0.00651775804428
0.0133035245752
0.0133130992248
0.0133321122301
0.0133603345067
0.0133974338327
0.0134429662978
0.013496378097
0.0135570071762
0.013624095491
0.0136968027779
0.0137742333479
0.0138554654744
0.0139395926695
0.0140257636183
0.0141132279302
0.014201372217
0.0142897534429
0.0143781141685
0.0144663892227
0.0145546907602
0.0146432857265
0.0147325555554
0.0148229561674
0.0149149691286
0.0150090634447
0.015105656842
0.0152050945575
0.0153076305996
0.0154134271447
0.0155225537134
0.0156350006541
0.0157506873202
0.0158694800168
0.0159912005638
0.016115641844
0.0162425722339
0.0163717462775
0.0165029043858
0.0166357791983
0.0167700919645
0.0169055562264
0.0170418725832
0.0171787310143
0.0173158048259
0.0174527511
0.0175893448532
0.0177250947933
0.017859437073
0.0179918118052
0.0181216615072
0.0182484339465
0.0183715791196
0.018490552427
0.0186048130981
0.0187138282341
0.0188170724166
0.0189140321926
0.0190042064407
0.0190871109593
0.0191622792782
0.019229267119
0.0192876534154
0.0193370444653
0.0193770749531
0.0194074116241
0.0194277540973
0.0194378378768
0.019437434717
0.0194263547486
0.0194044461265
0.0193715960202
0.0193277292698
0.0192728080163
0.0192068291669
0.0191298225847
0.019041847398
0.018942989027
0.018833354902
0.0187130713472
0.0185822802271
0.0184411377931
0.0182898147096
0.0181284992194
0.0179574018335
0.0177767619732
0.0175868535585
0.0173879890233
0.0171805199475
0.0169648353291
0.0167413830564
0.0165110801943
0.0162744599545
0.0160320687813
0.0157844604201
0.0155321928747
0.0152758245713
0.0150159120034
0.0147530070503
0.0144876549825
0.0142203917266
0.013951741837
0.0136822157682
0.0134123079388
0.0131424942235
0.0128732303803
0.0126049500726
0.0123380639529
0.0120729584875
0.0118099959227
0.0115495141045
0.0112918274704
0.011037227968
0.0107859871077
0.010538351417
0.0102945491528
0.0100548015475
0.00981932733805
0.00958834703719
0.00936208750807
0.00914078555907
0.00892469080624
0.0087140664744
0.00850918819216
0.0083103397057
0.00811780588503
0.00793186294318
0.0077527675234
0.00758074666677
0.00741599280014
0.00725866916585
0.00710893417997
0.00696699696032
0.00683322422395
0.00670833360866
0.00659373942886
0.00649217970583
0.00640888142702
0.00635377474996
0.00634572808843
0.00642033835173
0.0134404594138
0.0134519044312
0.0134746028952
0.0135082363795
0.0135523506094
0.0136063499304
0.0136695047912
0.0137409602604
0.0138197567397
0.0139048532411
0.0139951644717
0.0140895998558
0.0141871135138
0.014286750069
0.0143876929745
0.0144892988677
0.0145911252343
0.0146929362872
0.0147946980898
0.0148965511573
0.0149987765298
0.0151017464065
0.0152058787531
0.0153115870058
0.0154192444129
0.0155291509488
0.0156415199322
0.0157564679124
0.0158740225284
0.0159941289554
0.0161166690645
0.0162414733331
0.0163683407601
0.016497047762
0.0166273628563
0.0167590493031
0.0168918734854
0.017025602025
0.0171600055586
0.0172948526495
0.0174299112899
0.0175649418771
0.017699698405
0.0178339225277
0.0179673471428
0.0180996967824
0.0182307828016
0.018360068462
0.0184870315262
0.0186111554071
0.0187319293055
0.0188488441474
0.0189613953177
0.0190690808516
0.0191714052964
0.0192678791221
0.0193580229738
0.0194413677253
0.0195174587069
0.0195858560541
0.0196461386735
0.0196979046675
0.019740774899
0.0197743933418
0.0197984301517
0.0198125818255
0.0198165737033
0.0198101598275
0.0197931248016
0.0197652832445
0.0197264809402
0.0196765938118
0.0196155283501
0.0195432201328
0.0194596336668
0.0193647606881
0.0192586198444
0.0191412553876
0.0190127375847
0.0188731629193
0.0187226565476
0.0185613752337
0.0183895125932
0.0182073043412
0.0180150342131
0.0178130375226
0.0176017026876
0.0173814685237
0.0171528194585
0.016916276204
0.0166723785639
0.0164222637945
0.0161665791057
0.0159059799006
0.015641116999
0.0153726303464
0.0151011454547
0.0148272703366
0.0145515934723
0.0142746812433
0.013997076498
0.0137192966573
0.0134418328079
0.0131651483212
0.0128896784703
0.0126158296424
0.0123439795812
0.0120744773105
0.0118076441104
0.0115437742579
0.0112831368205
0.0110259772756
0.0107725201324
0.0105229662274
0.0102774906639
0.0100362621829
0.00979944741678
0.00956721474456
0.0093397382162
0.00911720028934
0.00889979361659
0.0086877206422
0.00848119110547
0.00828041649332
0.00808560186658
0.00789693504937
0.00771457480095
0.00753863993227
0.00736920343405
0.00720629719162
0.00704993651583
0.00690017894764
0.00675724298131
0.00662173448609
0.00649507635316
0.00638034027605
0.00628390790603
0.00621888919825
0.00621225810102
0.00631925321164
0.0135986065261
0.0136121742508
0.0136390527205
0.0136788168749
0.0137308654806
0.0137944203053
0.0138685408327
0.0139521416784
0.0140440242018
0.0141429110814
0.0142474954205
0.0143564909014
0.0144686910181
0.0145830207662
0.0146985869672
0.0148147098495
0.0149309438888
0.0150470732604
0.0151630947404
0.0152791775727
0.0153956183197
0.015512782822
0.0156310558931
0.0157507898482
0.0158722714081
0.0159956938649
0.0161211508875
0.0162486341668
0.0163780488994
0.0165092267324
0.0166419501013
0.016775967579
0.0169110157715
0.0170468286964
0.0171831519449
0.017319743877
0.017456382113
0.0175928583649
0.0177289799062
0.0178645611171
0.0179994228008
0.0181333830114
0.018266256193
0.0183978449139
0.0185279401985
0.0186563156026
0.0187829902737
0.0189074782055
0.0190293036421
0.0191479930906
0.0192630764464
0.0193740834832
0.0194805467987
0.0195819999482
0.0196779811811
0.019768032632
0.019851704355
0.0199285540641
0.0199981510544
0.0200600761364
0.0201139252115
0.0201593092032
0.0201958571911
0.0202232162458
0.0202410541022
0.0202490588661
0.0202469412496
0.020234434151
0.0202112944992
0.0201773027344
0.0201322643351
0.0200760092737
0.0200083933631
0.0199292978557
0.0198386308736
0.0197363274832
0.0196223516651
0.0194966974066
0.0193593918689
0.0192104981699
0.0190501203551
0.0188784081386
0.0186955633246
0.018501845106
0.018297575294
0.0180831403761
0.0178589913371
0.0176256389845
0.0173836467052
0.0171336200221
0.0168761940053
0.0166120304583
0.0163423064474
0.0160678661087
0.0157894479923
0.0155077745722
0.0152235423867
0.0149374212096
0.0146500507745
0.0143620377164
0.0140739543194
0.0137863370486
0.0134996863178
0.0132144659068
0.012931103485
0.0126499907702
0.0123714847294
0.0120959084365
0.0118235529332
0.0115546787962
0.0112895186662
0.0110282795089
0.0107711457186
0.010518281262
0.010269812498
0.0100258582338
0.00978653448036
0.00955195803268
0.00932224984032
0.00909753698874
0.00887795354013
0.00866363907973
0.00845473510238
0.00825137837839
0.00805369175062
0.00786177238158
0.00767567899301
0.00749541994924
0.00732094609794
0.00715215394875
0.00698890890834
0.00683110479676
0.00667879008776
0.00653242065726
0.00639336460661
0.00626493497424
0.00615458134809
0.00607871887803
0.00607360564998
0.00621908440626
0.0137764569864
0.0137924064811
0.0138239721683
0.0138706042338
0.0139315284832
0.0140057513686
0.0140920841705
0.0141891715436
0.014295535969
0.0144096261048
0.0145298798552
0.0146547867945
0.0147829575269
0.0149131812354
0.0150444773896
0.0151761235383
0.0153076681542
0.0154389146009
0.0155698910785
0.0157007973949
0.0158319486208
0.0159637085936
0.0160964350028
0.0162304268843
0.0163658940391
0.0165029340936
0.0166415329638
0.0167815695691
0.0169228382953
0.0170650678516
0.0172079504179
0.0173511602132
0.0174943773826
0.0176372979666
0.0177796477915
0.0179211824621
0.0180616922597
0.0182009949046
0.0183389349386
0.0184753730247
0.0186101832013
0.0187432415998
0.018874423546
0.0190035927169
0.0191305976059
0.019255258308
0.0193777663491
0.0194977309964
0.019614731438
0.0197283358772
0.019838111094
0.0199436214553
0.0200444323623
0.0201401082346
0.0202302160465
0.020314324227
0.0203920064776
0.0204628412032
0.0205264151879
0.0205823231734
0.0206301711584
0.0206695759447
0.0207001680038
0.0207215909533
0.0207335040373
0.0207355815765
0.0207275151678
0.0207090131976
0.0206798028996
0.0206396300544
0.0205882610752
0.0205254830594
0.0204511061232
0.0203649640448
0.0202669171522
0.0201568538938
0.0200346946765
0.0199003947609
0.0197539494406
0.0195953985283
0.0194248329254
0.0192424003084
0.0190483120791
0.0188428483876
0.018626362738
0.0183992829593
0.0181621100508
0.0179154124721
0.0176598182858
0.0173960039037
0.0171246833339
0.0168465960911
0.0165625040663
0.0162734696931
0.0159806241872
0.0156847706866
0.0153866707297
0.0150870593863
0.0147866349824
0.01448605388
0.0141859291749
0.0138868292938
0.0135892780024
0.0132937541896
0.013000692911
0.012710486153
0.0124234847029
0.0121399997028
0.0118603052076
0.0115846404395
0.0113132129715
0.0110462016242
0.0107837601543
0.0105260205796
0.0102730744486
0.0100249934867
0.00978184531826
0.00954369657211
0.00931061569401
0.00908267426779
0.00885994706754
0.00864250975097
0.00843043435441
0.00822378180773
0.00802259193149
0.0078268709414
0.00763657790427
0.00745161185349
0.00727180327425
0.00709691543058
0.00692666550213
0.00676078304243
0.0065991401112
0.00644202352272
0.00629070332998
0.00614865215284
0.00602427229493
0.00593727524341
0.0059340511497
0.00612355330659
0.0139721464417
0.013990750886
0.0140275383908
0.0140818152568
0.0141526064575
0.0142386683967
0.0143385242353
0.0144505059075
0.0145728142935
0.0147035834219
0.0148409595315
0.0149831775484
0.0151286412436
0.015275986724
0.0154241349562
0.015572314668
0.0157200659811
0.0158672116944
0.0160138134118
0.0161601046808
0.0163064233044
0.0164531364387
0.0166005812425
0.0167490114153
0.0168985690948
0.0170492665557
0.0172009929654
0.0173535256738
0.0175065592066
0.0176597296113
0.0178126481498
0.0179649229097
0.0181161846728
0.018266097517
0.018414372582
0.0185607669951
0.0187050873553
0.0188471805556
0.0189869312346
0.0191242489635
0.0192590636901
0.0193913128122
0.0195209373908
0.0196478714435
0.0197720410766
0.0198933593231
0.0200117656219
0.0201274188681
0.0202398906842
0.0203487662405
0.0204536377732
0.0205540971047
0.0206497365283
0.0207401455977
0.0208249141274
0.0209036306749
0.0209758861387
0.0210412728919
0.0210993882845
0.0211498339313
0.0211922188488
0.0212261587267
0.0212512786784
0.0212672125062
0.0212736051723
0.0212701121639
0.0212564018558
0.02123215513
0.0211970678316
0.0211508508269
0.0210932327734
0.0210239608264
0.0209428039704
0.0208495546207
0.0207440327974
0.0206260888946
0.0204956089775
0.0203525189383
0.0201967910482
0.0200284494327
0.0198475775289
0.0196543240846
0.0194489101809
0.0192316337629
0.0190028736745
0.018763089831
0.0185128215552
0.0182526814548
0.0179833475091
0.0177055518589
0.0174200694865
0.0171277063609
0.0168292895059
0.0165256628248
0.0162176127961
0.0159067174003
0.0155937270733
0.0152794592202
0.014964680701
0.0146501052983
0.0143363974219
0.0140241699192
0.0137139840707
0.01340634922
0.0131017238528
0.0128005165422
0.0125030881275
0.0122097536523
0.0119207853594
0.0116364154159
0.0113568395768
0.0110822205695
0.0108126922693
0.0105483635123
0.010289306661
0.0100355511977
0.00978712001664
0.00954403218356
0.00930630531391
0.00907395639469
0.00884700125422
0.00862545164163
0.00840931009722
0.00819856189544
0.00799316452581
0.00779303472768
0.00759803441949
0.00740795707311
0.00722251801506
0.00704135393854
0.00686404164799
0.00669015438967
0.00651939315158
0.00635187234803
0.00618874003911
0.00603356419231
0.00589557892352
0.00579769054436
0.00579694876183
0.00603517581981
0.0141835676317
0.0142051221675
0.0142477089079
0.0143104697088
0.0143921988103
0.0144913644841
0.0146061580833
0.01473455211
0.0148743784362
0.0150234113894
0.0151794652672
0.0153404863723
0.0155046451969
0.0156704059757
0.0158365794133
0.0160023395338
0.01616721667
0.016331054666
0.0164939520674
0.0166561808641
0.0168181071009
0.0169801074653
0.0171425055843
0.017305517675
0.017469226954
0.0176335698567
0.017798348896
0.0179632502342
0.0181278789312
0.0182917884947
0.0184545189314
0.0186156212473
0.0187746852484
0.018931350746
0.0190853212387
0.0192363617946
0.019384301179
0.0195290207477
0.019670449984
0.0198085515021
0.0199433145331
0.0200747399214
0.020202834451
0.0203275978404
0.0204490188848
0.020567064486
0.0206816759521
0.020793283597
0.020901519099
0.0210060060594
0.0211063660311
0.0212022155823
0.0212931688397
0.0213788345325
0.0214588189491
0.0215327241549
0.021600151458
0.0216607002926
0.0217139716248
0.0217595670168
0.0217970917078
0.021826153703
0.0218463665414
0.0218573484662
0.0218587250369
0.0218501285383
0.021831200657
0.0218015923291
0.0217609667193
0.0217089997192
0.0216453834666
0.0215698277086
0.0214820640913
0.0213818485954
0.0212689668104
0.0211432376161
0.0210045195781
0.0208527159137
0.0206877819147
0.0205097308769
0.0203186419392
0.0201146659644
0.019898032343
0.0196690529032
0.0194281254175
0.0191757331541
0.0189124429727
0.0186388990919
0.0183558154453
0.0180639645872
0.0177641664157
0.0174572749235
0.0171441661291
0.0168257247194
0.0165028293516
0.0161763543961
0.0158475370306
0.0155175487293
0.0151872149967
0.0148573041672
0.0145285406617
0.0142015919058
0.0138770700014
0.0135555296815
0.0132374689433
0.012923329704
0.0126134998815
0.0123083153473
0.0120080630297
0.0117129838175
0.0114232764471
0.0111391011507
0.0108605841088
0.0105878215848
0.0103208863769
0.0100597722479
0.00980446273207
0.00955493341089
0.00931115403711
0.00907308909952
0.00884069696867
0.00861392663692
0.00839271225703
0.00817696481597
0.0079665614087
0.00776133211168
0.00756104569403
0.00736539555833
0.00717398915538
0.00698634591967
0.00680191365426
0.00662012220294
0.00644051401691