/*--------------------------------*- C++ -*----------------------------------*\
| =========                 |                                                 |
| \\      /  F ield         | OpenFOAM: The Open Source CFD Toolbox           |
|  \\    /   O peration     | Version:  2206                                  |
|   \\  /    A nd           | Website:  www.openfoam.com                      |
|    \\/     M anipulation  |                                                 |
\*---------------------------------------------------------------------------*/
FoamFile
{
    version     2.0;
    format      ascii;
    arch        "LSB;label=64;scalar=64";
    class       volScalarField;
    location    "3.5/water";
    object      p_rgh;
}
// * * * * * * * * * * * * * * * * * * * * * * * * * * * * * * * * * * * * * //

dimensions      [1 -1 -2 0 0 0 0];

internalField   nonuniform List<scalar> 
23300
(
100724.955461
100725.01238
100725.009434
100725.006837
100725.00455
100725.002929
100725.002386
100725.003485
100725.006662
100725.012431
100725.021133
100725.033144
100725.048643
100725.067819
100725.090669
100725.117186
100725.147204
100725.18056
100725.216974
100725.256198
100725.297911
100725.341852
100725.38773
100725.435334
100725.484449
100725.534949
100725.586713
100725.639707
100725.693895
100725.749312
100725.805981
100725.863977
100725.923346
100725.98417
100726.04649
100726.110371
100726.175828
100726.242888
100726.31153
100726.381742
100726.453459
100726.526628
100726.601145
100726.676918
100726.753792
100726.831622
100726.910239
100726.989487
100727.069175
100727.149119
100727.22911
100727.30895
100727.388418
100727.467306
100727.545392
100727.622463
100727.698301
100727.772698
100727.845445
100727.916344
100727.9852
100728.051832
100728.116065
100728.177738
100728.2367
100728.292815
100728.34596
100728.396027
100728.442928
100728.486589
100728.526959
100728.56401
100728.59774
100728.628177
100728.65539
100728.679485
100728.700623
100728.719018
100728.734958
100728.748795
100728.76096
100728.771931
100728.782168
100728.791902
100728.801015
100728.809523
100728.817921
100728.826631
100728.835612
100728.844499
100728.852881
100728.860413
100728.866834
100728.871977
100728.875753
100728.878144
100728.879188
100728.878971
100728.877609
100728.87525
100728.872053
100728.868191
100728.863838
100728.859171
100728.85436
100728.849569
100728.844949
100728.840643
100728.836775
100728.833458
100728.830786
100728.828834
100728.827659
100728.827302
100728.827783
100728.829107
100728.831263
100728.834225
100728.837951
100728.842388
100728.847472
100728.853133
100728.859302
100728.865916
100728.872929
100728.88032
100728.888107
100728.896354
100728.905178
100728.914746
100728.925259
100728.936918
100728.94987
100728.964132
100728.979503
100728.995453
100729.010999
100729.024549
100729.033879
100729.100628
100725.024491
100725.083218
100725.086029
100725.08994
100725.095154
100725.101878
100725.110322
100725.120778
100725.133466
100725.148634
100725.166415
100725.186941
100725.210217
100725.236237
100725.264877
100725.296003
100725.329392
100725.364828
100725.402036
100725.440776
100725.480784
100725.521854
100725.563782
100725.606438
100725.64971
100725.693561
100725.737972
100725.782992
100725.828675
100725.875126
100725.922441
100725.970745
100726.020139
100726.070739
100726.122624
100726.175878
100726.230543
100726.286657
100726.344218
100726.403219
100726.463611
100726.525343
100726.588326
100726.652473
100726.717652
100726.783733
100726.850565
100726.918002
100726.985877
100727.054028
100727.122278
100727.190456
100727.258382
100727.325885
100727.392788
100727.458924
100727.524128
100727.588246
100727.651127
100727.712636
100727.772644
100727.83104
100727.887721
100727.942603
100727.995613
100728.046695
100728.095811
100728.142935
100728.188059
100728.231187
100728.272342
100728.311554
100728.348872
100728.384348
100728.418052
100728.450052
100728.480424
100728.509234
100728.536539
100728.562354
100728.586634
100728.609207
100728.629712
100728.64751
100728.661888
100728.672729
100728.680637
100728.686536
100728.69132
100728.695519
100728.699416
100728.703153
100728.7068
100728.710392
100728.713948
100728.717486
100728.721024
100728.724584
100728.728192
100728.731878
100728.735677
100728.739627
100728.743771
100728.748152
100728.752816
100728.757809
100728.763176
100728.768963
100728.77521
100728.781953
100728.789225
100728.797047
100728.805433
100728.814384
100728.823893
100728.833939
100728.844491
100728.855502
100728.866911
100728.878642
100728.890604
100728.902691
100728.914789
100728.926777
100728.938534
100728.949953
100728.96095
100728.97148
100728.981552
100728.991242
100729.000694
100729.010109
100729.01972
100729.029737
100729.040271
100729.051238
100729.062229
100729.072335
100729.079746
100729.147389
100724.989142
100725.04636
100725.049838
100725.0546
100725.060856
100725.068858
100725.078821
100725.091024
100725.105687
100725.123043
100725.143226
100725.16635
100725.192415
100725.221388
100725.253124
100725.287451
100725.324111
100725.362838
100725.403314
100725.445243
100725.488313
100725.532267
100725.576858
100725.621912
100725.667285
100725.712909
100725.758748
100725.804834
100725.851218
100725.898
100725.945284
100725.993202
100726.041871
100726.091421
100726.141953
100726.193571
100726.246339
100726.300322
100726.355542
100726.41202
100726.469735
100726.528665
100726.588752
100726.649938
100726.712119
100726.775189
100726.839026
100726.903518
100726.968533
100727.033944
100727.099608
100727.165391
100727.231148
100727.29674
100727.362027
100727.426875
100727.49115
100727.554728
100727.617488
100727.679319
100727.740117
100727.799788
100727.858247
100727.915417
100727.971232
100728.025637
100728.078582
100728.130026
100728.179939
100728.228288
100728.275052
100728.320205
100728.363725
100728.405581
100728.445741
100728.484157
100728.520771
100728.555496
100728.588218
100728.618772
100728.646933
100728.672385
100728.694712
100728.713413
100728.728047
100728.738692
100728.745858
100728.750146
100728.752301
100728.752966
100728.752632
100728.751663
100728.750339
100728.74887
100728.747427
100728.746142
100728.745125
100728.744465
100728.744235
100728.744494
100728.745291
100728.746666
100728.748652
100728.751274
100728.754552
100728.758503
100728.763136
100728.768459
100728.774474
100728.781175
100728.788554
100728.796593
100728.805267
100728.814537
100728.824359
100728.834676
100728.845423
100728.85652
100728.867874
100728.879381
100728.890924
100728.902377
100728.913608
100728.924488
100728.934899
100728.944744
100728.953967
100728.962567
100728.970613
100728.978254
100728.985726
100728.993334
100729.001423
100729.010319
100729.020253
100729.031258
100729.043037
100729.054766
100729.064793
100729.135948
100724.966288
100725.022765
100725.026071
100725.030944
100725.037514
100725.046026
100725.0567
100725.069811
100725.085571
100725.104201
100725.125827
100725.150552
100725.178363
100725.209211
100725.242933
100725.279337
100725.318139
100725.359045
100725.401707
100725.445797
100725.490971
100725.536936
100725.583416
100725.630207
100725.677139
100725.724123
100725.771104
100725.8181
100725.865152
100725.912357
100725.959813
100726.007656
100726.056006
100726.105002
100726.154754
100726.205378
100726.256954
100726.309563
100726.363245
100726.418041
100726.473953
100726.530982
100726.589094
100726.648257
100726.708391
100726.769412
100726.831217
100726.893722
100726.956822
100727.020418
100727.084395
100727.148643
100727.213043
100727.277482
100727.341841
100727.406008
100727.469869
100727.533315
100727.59624
100727.658545
100727.720132
100727.780912
100727.840799
100727.899713
100727.95758
100728.014327
100728.069889
100728.124198
100728.177192
100728.228803
100728.278965
100728.327603
100728.374641
100728.419986
100728.463541
100728.505188
100728.544798
100728.582214
100728.617257
100728.64971
100728.679323
100728.705796
100728.728802
100728.748016
100728.76321
100728.774467
100728.782261
100728.787041
100728.789251
100728.789454
100728.788141
100728.785731
100728.78258
100728.778988
100728.775211
100728.771463
100728.767928
100728.764756
100728.762074
100728.759986
100728.758573
100728.7579
100728.758016
100728.758955
100728.76074
100728.763382
100728.766885
100728.77124
100728.776434
100728.782443
100728.789238
100728.796778
100728.805015
100728.813887
100728.823323
100728.833248
100728.843573
100728.8542
100728.865019
100728.87591
100728.886747
100728.897396
100728.907725
100728.917611
100728.926946
100728.935655
100728.943708
100728.951135
100728.958046
100728.964634
100728.971179
100728.978035
100728.985598
100728.994251
100729.004294
100729.015847
100729.028735
100729.042333
100729.055377
100729.127871
100724.945618
100725.002126
100725.005232
100725.010065
100725.016741
100725.025494
100725.036547
100725.050171
100725.066577
100725.085982
100725.108505
100725.134242
100725.163173
100725.19524
100725.230272
100725.268062
100725.308314
100725.350717
100725.394903
100725.440525
100725.487218
100725.534669
100725.582579
100725.630726
100725.678919
100725.727056
100725.775064
100725.822951
100725.870746
100725.91854
100725.966426
100726.014536
100726.062989
100726.111927
100726.161462
100726.211717
100726.262779
100726.314739
100726.367651
100726.421568
100726.476507
100726.532487
100726.589491
100726.647507
100726.706479
100726.766337
100726.826986
100726.888364
100726.950386
100727.012974
100727.076033
100727.139472
100727.20319
100727.26709
100727.331068
100727.395025
100727.458856
100727.522464
100727.585746
100727.648607
100727.71095
100727.772682
100727.833712
100727.89395
100727.953308
100728.011698
100728.069034
100728.125226
100728.180184
100728.233812
100728.286011
100728.336673
100728.385684
100728.432918
100728.47824
100728.521499
100728.562535
100728.601165
100728.637197
100728.670413
100728.700584
100728.727458
100728.750798
100728.770392
100728.786135
100728.798054
100728.806535
100728.812059
100728.814937
100728.81554
100728.814319
100728.81168
100728.807992
100728.803584
100728.798748
100728.793741
100728.788791
100728.78409
100728.779805
100728.776074
100728.773012
100728.770711
100728.76924
100728.768653
100728.768984
100728.770255
100728.772469
100728.775623
100728.779698
100728.784666
100728.790489
100728.79712
100728.804497
100728.812545
100728.821182
100728.83032
100728.839859
100728.849692
100728.859702
100728.869764
100728.879747
100728.889522
100728.89896
100728.907947
100728.916389
100728.924229
100728.931457
100728.938129
100728.944378
100728.950421
100728.956567
100728.963197
100728.97074
100728.979624
100728.990212
100729.002709
100729.017069
100729.032865
100729.049142
100729.120596
100724.922948
100724.979772
100724.982701
100724.987467
100724.994181
100725.003068
100725.014349
100725.028294
100725.045111
100725.065014
100725.088122
100725.114526
100725.144207
100725.177102
100725.213035
100725.251796
100725.29308
100725.336567
100725.381881
100725.428664
100725.476536
100725.525172
100725.57426
100725.623566
100725.672887
100725.722106
100725.771141
100725.81999
100725.868672
100725.917268
100725.965865
100726.014589
100726.063556
100726.112902
100726.16274
100726.213193
100726.264351
100726.316311
100726.369129
100726.42287
100726.477559
100726.533225
100726.589864
100726.647476
100726.706032
100726.765468
100726.825688
100726.886645
100726.948269
100727.010498
100727.073248
100727.136446
100727.199999
100727.263825
100727.327826
100727.391913
100727.455986
100727.519952
100727.58371
100727.647164
100727.710214
100727.772763
100727.83471
100727.895957
100727.956403
100728.015946
100728.074483
100728.131906
100728.188105
100728.242963
100728.296361
100728.348168
100728.398252
100728.446466
100728.492658
100728.536663
100728.578311
100728.617417
100728.653792
100728.687232
100728.717537
100728.744504
100728.767956
100728.787757
100728.803858
100728.816317
100728.825314
100728.831343
100728.834821
100728.835944
100728.83507
100728.832577
100728.828822
100728.824132
100728.818813
100728.813137
100728.807351
100728.801673
100728.796293
100728.791374
100728.787054
100728.783446
100728.780642
100728.778711
100728.777704
100728.777652
100728.778571
100728.780463
100728.783314
100728.787099
100728.791779
100728.797307
100728.80362
100728.810637
100728.818267
100728.826421
100728.834995
100728.84388
100728.852957
100728.862101
100728.871186
100728.880085
100728.888679
100728.896864
100728.90456
100728.911724
100728.918364
100728.924553
100728.930441
100728.936263
100728.942344
100728.949085
100728.956941
100728.966376
100728.977806
100728.991508
100729.007524
100729.025549
100729.044764
100729.11319
100724.89629
100724.953499
100724.95626
100724.960941
100724.967649
100724.976606
100724.988025
100725.002173
100725.019257
100725.03949
100725.062992
100725.089854
100725.120059
100725.153542
100725.190131
100725.229613
100725.271681
100725.316014
100725.36223
100725.409966
100725.458836
100725.508509
100725.558665
100725.609062
100725.659488
100725.709819
100725.759963
100725.809908
100725.859665
100725.909305
100725.958904
100726.008584
100726.058448
100726.108631
100726.159236
100726.210386
100726.262166
100726.314675
100726.36797
100726.422119
100726.47715
100726.533099
100726.589969
100726.647766
100726.706494
100726.766087
100726.826441
100726.887518
100726.94926
100727.011613
100727.074506
100727.137873
100727.201633
100727.265709
100727.330011
100727.394453
100727.45894
100727.52338
100727.587671
100727.651716
100727.715411
100727.778654
100727.841336
100727.903351
100727.964587
100728.02493
100728.084265
100728.14247
100728.199423
100728.254991
100728.309043
100728.361436
100728.412024
100728.460653
100728.507165
100728.551391
100728.593162
100728.632298
100728.668622
100728.701952
100728.732117
100728.758951
100728.782327
100728.802156
100728.818423
100728.831196
100728.840637
100728.846996
100728.850789
100728.852353
100728.851842
100728.84959
100728.845934
100728.841191
100728.835661
100728.82962
100728.823323
100728.816997
100728.810846
100728.805048
100728.799757
100728.795102
100728.79119
100728.788106
100728.785913
100728.784655
100728.784361
100728.78504
100728.786686
100728.78928
100728.79279
100728.797171
100728.802365
100728.808288
100728.814851
100728.821963
100728.829522
100728.837421
100728.845545
100728.853774
100728.861986
100728.870062
100728.877895
100728.885389
100728.892479
100728.899135
100728.90538
100728.9113
100728.917057
100728.9229
100728.929164
100728.936263
100728.94467
100728.954873
100728.967322
100728.982336
100728.999998
100729.02003
100729.041604
100729.105716
100724.864166
100724.921685
100724.924293
100724.928889
100724.935581
100724.94458
100724.956095
100724.97039
100724.98767
100725.008148
100725.031944
100725.059155
100725.089763
100725.123711
100725.160828
100725.200904
100725.243635
100725.288701
100725.33572
100725.384328
100725.434139
100725.484817
100725.536039
100725.587559
100725.639159
100725.690708
100725.742105
100725.793331
100725.844384
100725.895327
100725.946224
100725.997185
100726.048303
100726.099704
100726.151482
100726.203752
100726.256596
100726.310105
100726.364337
100726.419356
100726.475194
100726.531889
100726.589444
100726.647872
100726.707192
100726.767358
100726.828261
100726.88985
100726.952075
100727.014893
100727.078238
100727.142054
100727.206265
100727.270801
100727.335575
100727.400507
100727.465501
100727.530468
100727.595306
100727.659914
100727.724186
100727.788014
100727.851284
100727.913882
100727.975689
100728.036582
100728.096436
100728.155121
100728.212502
100728.268442
100728.322798
100728.375421
100728.426162
100728.47486
100728.521359
100728.565491
100728.607093
100728.645996
100728.682038
100728.715058
100728.74491
100728.771464
100728.794626
100728.81434
100728.830614
100728.843522
100728.853214
100728.859902
100728.86386
100728.865579
100728.865361
100728.863336
100728.859815
100728.855098
100728.84948
100728.843232
100728.836606
100728.829834
100728.823127
100728.816669
100728.810624
100728.805132
100728.800312
100728.796259
100728.793048
100728.790735
100728.789358
100728.788935
100728.78947
100728.790951
100728.793353
100728.796637
100728.800754
100728.805623
100728.811152
100728.817255
100728.823837
100728.830794
100728.838017
100728.845392
100728.852808
100728.860154
100728.867331
100728.874259
100728.880882
100728.887184
100728.893201
100728.899029
100728.90484
100728.910891
100728.917521
100728.925151
100728.934261
100728.94535
100728.958878
100728.975175
100728.994318
100729.015987
100729.039242
100729.098395
100724.825359
100724.883009
100724.885491
100724.890022
100724.896708
100724.905756
100724.917369
100724.931804
100724.949265
100724.969966
100724.994029
100725.021554
100725.05253
100725.086906
100725.124517
100725.165158
100725.208532
100725.254322
100725.302149
100725.351652
100725.402445
100725.454194
100725.506572
100725.55933
100725.612246
100725.665183
100725.71803
100725.770759
100725.823355
100725.875871
100725.928355
100725.980905
100726.033601
100726.086556
100726.139852
100726.193596
100726.247859
100726.302728
100726.358252
100726.414497
100726.471489
100726.529268
100726.58784
100726.647222
100726.707406
100726.768411
100726.830151
100726.892516
100726.955465
100727.018964
100727.082956
100727.147389
100727.212195
100727.277306
100727.342644
100727.408127
100727.473666
100727.539168
100727.604534
100727.669661
100727.734439
100727.798758
100727.862499
100727.925541
100727.987761
100728.049029
100728.109213
100728.168175
100728.225777
100728.281873
100728.336317
100728.388957
100728.439639
100728.488207
100728.534502
100728.578366
100728.619641
100728.658171
100728.693808
100728.726412
100728.755861
100728.782052
100728.804915
100728.824421
100728.840593
100728.85351
100728.863311
100728.870188
100728.874384
100728.876159
100728.875986
100728.874139
100728.87073
100728.866067
100728.860416
100728.854048
100728.847207
100728.840125
100728.833012
100728.826059
100728.819433
100728.813283
100728.807733
100728.802887
100728.79883
100728.795626
100728.793321
100728.791942
100728.791502
100728.791996
100728.793407
100728.795702
100728.798842
100728.802756
100728.807347
100728.812534
100728.818231
100728.824339
100728.830758
100728.837382
100728.844108
100728.850837
100728.85748
100728.863968
100728.870258
100728.876345
100728.882275
100728.888153
100728.894158
100728.900547
100728.907663
100728.915924
100728.925804
100728.937799
100728.952361
100728.969803
100728.990161
100729.013027
100729.037292
100729.091305
100724.778786
100724.836306
100724.838693
100724.843193
100724.84991
100724.859042
100724.870785
100724.885394
100724.903067
100724.92402
100724.948378
100724.976247
100725.007623
100725.042463
100725.080611
100725.12187
100725.165951
100725.212543
100725.261273
100725.311782
100725.363686
100725.416653
100725.470354
100725.524537
100725.578974
100725.63352
100725.688055
100725.742539
100725.796943
100725.851305
100725.905658
100725.960085
100726.014649
100726.069449
100726.124554
100726.180058
100726.236021
100726.292523
100726.349606
100726.40733
100726.465719
100726.524811
100726.584613
100726.645143
100726.706391
100726.768427
100726.831158
100726.894446
100726.958253
100727.02255
100727.087288
100727.15242
100727.217883
100727.283617
100727.349544
100727.415591
100727.481666
100727.547682
100727.613536
100727.679127
100727.744344
100727.809072
100727.87319
100727.936575
100727.999096
100728.06062
100728.121011
100728.180125
100728.237821
100728.293948
100728.348358
100728.400898
100728.451414
100728.49975
100728.545753
100728.589269
100728.630152
100728.668255
100728.703446
100728.735602
100728.764621
100728.790422
100728.812956
100728.832212
100728.848226
100728.861078
100728.870902
100728.877877
100728.882218
100728.884175
100728.884026
100728.88216
100728.878847
100728.874232
100728.868594
100728.862169
100728.855199
100728.847911
100728.840516
100728.833204
100728.826147
100728.819495
100728.813379
100728.807908
100728.803173
100728.799246
100728.796179
100728.794006
100728.792748
100728.792407
100728.792972
100728.794418
100728.796716
100728.799805
100728.803586
100728.807985
100728.812921
100728.818303
100728.824039
100728.830034
100728.836192
100728.842425
100728.848655
100728.854825
100728.860902
100728.866892
100728.872847
100728.878879
100728.88517
100728.891977
100728.899634
100728.908552
100728.919192
100728.932032
100728.9475
100728.965872
100728.987123
100729.010733
100729.035409
100729.084388
100724.723407
100724.780464
100724.782796
100724.787314
100724.794116
100724.803393
100724.815332
100724.830179
100724.848134
100724.869411
100724.89414
100724.922434
100724.954298
100724.9897
100725.028494
100725.070495
100725.115421
100725.16297
100725.212773
100725.264476
100725.317698
100725.372103
100725.427362
100725.483218
100725.539433
100725.595855
100725.65235
100725.708863
100725.765352
100725.821835
100725.878329
100725.934898
100725.991589
100726.048483
100726.105635
100726.163126
100726.221004
100726.27934
100726.338168
100726.397543
100726.457487
100726.518034
100726.579192
100726.64098
100726.703382
100726.76652
100726.830312
100726.894591
100726.959312
100727.024451
100727.089963
100727.15581
100727.221937
100727.288286
100727.354788
100727.42137
100727.487947
100727.554431
100727.620723
100727.686721
100727.752313
100727.817383
100727.881808
100727.945462
100728.008211
100728.069919
100728.130444
100728.189643
100728.247368
100728.303468
100728.357793
100728.410188
100728.460502
100728.508581
100728.554276
100728.597439
100728.637933
100728.675622
100728.710387
100728.742121
100728.770738
100728.796175
100728.8184
100728.837416
100728.853267
100728.866038
100728.875857
100728.882893
100728.88735
100728.889456
100728.889465
100728.887656
100728.884318
100728.879748
100728.874144
100728.867734
100728.860717
100728.853317
100728.845751
100728.838205
100728.830852
100728.823845
100728.817316
100728.811381
100728.806132
100728.801648
100728.797986
100728.795186
100728.793275
100728.792261
100728.792139
100728.792892
100728.79449
100728.796894
100728.800015
100728.803769
100728.808082
100728.812873
100728.818059
100728.823551
100728.829264
100728.835121
100728.841055
100728.847015
100728.852981
100728.858965
100728.865026
100728.87128
100728.877907
100728.885157
100728.893358
100728.902901
100728.914228
100728.927789
100728.943977
100728.963022
100728.984825
100729.008752
100729.033332
100729.077529
100724.65818
100724.714382
100724.716705
100724.721302
100724.728263
100724.737767
100724.74999
100724.765175
100724.783514
100724.805223
100724.83044
100724.859284
100724.891774
100724.927889
100724.967498
100725.010426
100725.056402
100725.10513
100725.156249
100725.209405
100725.264217
100725.320346
100725.377459
100725.435288
100725.493586
100725.552187
100725.610943
100725.669781
100725.728638
100725.787516
100725.84641
100725.905366
100725.964411
100726.02361
100726.083002
100726.142654
100726.202603
100726.262909
100726.323603
100726.384732
100726.446316
100726.508391
100726.570965
100726.63406
100726.697674
100726.76184
100726.826618
100726.891921
100726.957559
100727.023528
100727.089793
100727.156326
100727.223077
100727.289999
100727.357026
100727.424093
100727.491116
100727.558014
100727.624687
100727.691036
100727.756948
100727.822309
100727.886992
100727.95087
100728.013807
100728.075664
100728.136297
100728.195559
100728.2533
100728.309369
100728.363613
100728.415878
100728.466013
100728.513868
100728.559297
100728.60216
100728.642324
100728.679666
100728.714079
100728.745466
100728.773758
100728.798905
100728.820888
100728.839722
100728.855457
100728.868182
100728.878021
100728.885136
100728.88972
100728.891989
100728.892183
100728.890548
100728.887365
100728.882809
100728.877273
100728.87096
100728.863942
100728.856533
100728.848905
100728.841248
100728.833732
100728.82651
100728.819718
100728.813471
100728.807867
100728.802987
100728.798893
100728.79563
100728.793229
100728.791702
100728.791052
100728.791264
100728.792315
100728.794185
100728.796794
100728.800047
100728.803878
100728.808214
100728.812978
100728.818092
100728.823479
100728.829071
100728.834809
100728.840652
100728.846588
100728.852634
100728.858854
100728.865363
100728.872338
100728.88002
100728.888722
100728.898814
100728.910712
100728.92483
100728.941522
100728.960965
100728.982987
100729.006848
100729.030923
100729.070653
100724.582019
100724.636918
100724.639289
100724.644041
100724.651253
100724.661089
100724.673715
100724.68936
100724.708216
100724.730501
100724.756357
100724.785918
100724.819215
100724.856243
100724.896887
100724.940985
100724.988276
100725.038472
100725.091212
100725.146145
100725.202884
100725.261084
100725.3204
100725.380554
100725.441282
100725.502401
100725.563742
100725.625214
100725.686731
100725.748273
100725.809815
100725.871381
100725.932979
100725.994656
100726.056437
100726.118375
100726.180497
100726.242855
100726.305471
100726.368393
100726.431636
100726.495239
100726.55921
100726.623578
100726.688344
100726.753525
100726.819267
100726.885497
100726.951978
100727.018705
100727.085652
100727.152797
100727.2201
100727.287522
100727.355004
100727.422487
100727.489893
100727.557144
100727.624144
100727.690795
100727.756986
100727.822602
100727.887517
100727.951602
100728.014718
100728.076726
100728.137478
100728.196825
100728.254615
100728.310696
100728.364912
100728.417111
100728.467142
100728.514856
100728.560114
100728.602778
100728.642723
100728.679834
100728.714013
100728.745177
100728.773265
100728.79824
100728.820094
100728.83885
100728.854564
100728.867326
100728.87726
100728.884521
100728.889292
100728.891781
100728.892212
100728.890822
100728.887849
100728.88354
100728.878171
100728.871948
100728.865101
100728.857779
100728.850214
100728.842579
100728.835035
100728.82774
100728.82083
100728.814422
100728.808617
100728.803497
100728.799128
100728.79556
100728.792825
100728.790943
100728.789917
100728.789739
100728.790389
100728.791867
100728.794107
100728.796997
100728.800479
100728.804487
100728.808952
100728.813802
100728.81897
100728.824394
100728.830023
100728.835826
100728.841792
100728.847947
100728.854354
100728.861126
100728.868433
100728.876506
100728.885637
100728.896175
100728.908501
100728.922995
100728.939964
100728.959533
100728.981465
100729.004925
100729.028172
100729.063761
100724.493775
100724.546874
100724.549358
100724.554357
100724.561933
100724.572231
100724.5854
100724.60166
100724.621197
100724.64423
100724.670913
100724.701392
100724.735718
100724.773905
100724.815855
100724.861421
100724.91035
100724.962361
100725.017094
100725.07419
100725.133254
100725.193929
100725.255853
100725.318729
100725.382273
100725.446278
100725.510553
100725.574981
100725.639453
100725.703926
100725.768349
100725.832727
100725.897049
100725.961345
100726.025624
100726.089929
100726.154277
100726.218713
100726.283257
100726.347953
100726.412819
100726.477896
100726.543198
100726.608757
100726.674581
100726.740686
100726.807246
100726.874257
100726.941491
100727.008878
100727.076406
100727.144065
100727.211825
100727.279657
100727.34751
100727.415333
100727.483054
100727.550599
100727.617877
100727.684793
100727.751237
100727.817094
100727.882239
100727.946542
100728.009862
100728.072056
100728.132977
100728.192471
100728.250386
100728.306565
100728.360852
100728.413096
100728.463144
100728.510851
100728.556078
100728.598692
100728.638574
100728.675616
100728.709727
100728.740833
100728.768883
100728.793849
100728.815732
100728.83456
100728.850393
100728.863325
100728.873475
100728.880997
100728.886065
100728.888879
100728.889653
100728.888613
100728.885993
100728.882031
100728.876961
100728.871047
100728.864413
100728.857344
100728.850015
100728.842486
100728.835061
100728.82784
100728.820956
100728.814536
100728.808679
100728.80347
100728.798978
100728.795254
100728.792336
100728.790245
100728.78899
100728.788564
100728.788952
100728.790167
100728.792162
100728.794816
100728.798073
100728.80187
100728.806146
100728.810835
100728.815877
100728.821217
100728.82681
100728.83263
100728.838673
100728.844964
100728.851567
100728.85859
100728.866195
100728.874598
100728.884071
100728.894935
100728.907538
100728.92222
100728.939245
100728.958686
100728.980249
100729.003026
100729.025194
100729.056961
100724.392201
100724.442959
100724.445636
100724.450994
100724.45907
100724.469986
100724.48387
100724.500927
100724.521338
100724.545325
100724.573053
100724.604688
100724.640305
100724.679939
100724.723514
100724.770898
100724.82185
100724.876087
100724.933245
100724.992955
100725.054805
100725.118417
100725.183406
100725.249449
100725.316233
100725.383525
100725.451103
100725.518823
100725.58655
100725.654212
100725.721738
100725.78911
100725.856299
100725.923319
100725.990166
100726.056874
100726.123453
100726.189946
100726.25637
100726.322772
100726.389173
100726.45562
100726.522136
100726.588762
100726.65552
100726.722448
100726.789581
100726.857134
100726.925005
100726.992926
100727.060911
100727.128965
100727.197069
100727.265207
100727.333338
100727.401419
100727.469386
100727.537172
100727.60469
100727.671847
100727.738536
100727.804644
100727.870043
100727.934604
100727.998184
100728.060638
100728.121814
100728.181559
100728.239714
100728.296123
100728.350627
100728.403072
100728.453305
100728.501183
100728.546566
100728.589326
100728.629347
100728.666527
100728.70078
100728.732039
100728.760261
100728.785425
100728.807537
100728.826631
100728.842771
100728.856049
100728.866586
100728.874529
100728.880048
100728.883335
100728.884596
100728.884048
100728.881918
100728.878434
100728.873825
100728.868307
100728.862099
100728.855457
100728.848438
100728.841299
100728.834171
100728.827126
100728.820426
100728.814144
100728.808383
100728.803233
100728.798764
100728.79503
100728.792071
100728.789911
100728.788563
100728.788025
100728.788286
100728.789337
100728.791183
100728.793724
100728.796869
100728.800561
100728.804746
100728.809363
100728.814359
100728.819684
100728.825299
100728.831182
100728.837331
100728.843772
100728.850567
100728.857818
100728.865675
100728.874338
100728.884058
100728.895125
100728.907854