/*--------------------------------*- C++ -*----------------------------------*\
| =========                 |                                                 |
| \\      /  F ield         | OpenFOAM: The Open Source CFD Toolbox           |
|  \\    /   O peration     | Version:  2206                                  |
|   \\  /    A nd           | Website:  www.openfoam.com                      |
|    \\/     M anipulation  |                                                 |
\*---------------------------------------------------------------------------*/
FoamFile
{
    version     2.0;
    format      ascii;
    arch        "LSB;label=64;scalar=64";
    class       surfaceScalarField;
    location    "3.5/water";
    object      phi;
}
// * * * * * * * * * * * * * * * * * * * * * * * * * * * * * * * * * * * * * //

dimensions      [0 3 -1 0 0 0 0];

oriented        oriented;

internalField   nonuniform List<scalar> 
46280
(
-4.25000192824e-10
4.24967087952e-10
-8.64873837051e-10
4.39870166186e-10
-1.32153277214e-09
4.56602023811e-10
-1.80001278722e-09
4.78481211259e-10
-2.30620680063e-09
5.06131660566e-10
-2.84585060007e-09
5.39651297373e-10
-3.42488914066e-09
5.78963061115e-10
-4.04879591622e-09
6.23917815026e-10
-4.72311167723e-09
6.74235611515e-10
-5.45263886865e-09
7.2954241199e-10
-6.24200470107e-09
7.89286527362e-10
-7.09476629407e-09
8.52780920276e-10
-8.01396916828e-09
9.19126872121e-10
-9.00122017892e-09
9.87274004685e-10
-1.00572597777e-08
1.0559665783e-09
-1.11810640355e-08
1.12383013549e-09
-1.23704826702e-08
1.18934713524e-09
-1.36214255489e-08
1.25097094425e-09
-1.49286219802e-08
1.30712493982e-09
-1.62849240125e-08
1.35633178545e-09
-1.76822139313e-08
1.39721724055e-09
-1.91108160632e-08
1.42863302235e-09
-2.05605323283e-08
1.44964153401e-09
-2.20201124791e-08
1.45961159405e-09
-2.34783576788e-08
1.45816785919e-09
-2.49235775801e-08
1.44525118772e-09
-2.63446904616e-08
1.42103262999e-09
-2.77306064041e-08
1.38594637266e-09
-2.90712721157e-08
1.34058249021e-09
-3.03569530135e-08
1.28570974092e-09
-3.15792042987e-08
1.22216522725e-09
-3.27300601499e-08
1.15088245581e-09
-3.3802938964e-08
1.07279022311e-09
-3.47917680988e-08
9.88852869803e-10
-3.56918407992e-08
8.99982003958e-10
-3.64989087247e-08
8.07088262367e-10
-3.72100050559e-08
7.11004064708e-10
-3.78225314663e-08
6.1254287395e-10
-3.83350544777e-08
5.12429782786e-10
-3.87464064437e-08
4.11364200501e-10
-3.90564557186e-08
3.09955742996e-10
-3.92652351614e-08
2.0878718009e-10
-3.9373682434e-08
1.08354123572e-10
-3.93828072263e-08
9.1279188534e-12
-3.92944319066e-08
-8.8467383984e-11
-3.91104005669e-08
-1.8403279833e-10
-3.88332395895e-08
-2.77251261936e-10
-3.84654457915e-08
-3.6779964996e-10
-3.80101359736e-08
-4.55397666475e-10
-3.74703865454e-08
-5.3975935523e-10
-3.6849830639e-08
-6.20640726066e-10
-3.61520515086e-08
-6.97792694195e-10
-3.53811289556e-08
-7.71003833968e-10
-3.45410882127e-08
-8.40057426217e-10
-3.36363945347e-08
-9.04771003632e-10
-3.26714555301e-08
-9.64958234901e-10
-3.16510629752e-08
-1.02046560868e-09
-3.05799451294e-08
-1.07113903711e-09
-2.94631559839e-08
-1.11685770771e-09
-2.83056735488e-08
-1.15750501923e-09
-2.71127379169e-08
-1.19299957069e-09
-2.58894913941e-08
-1.2232699705e-09
-2.46412676939e-08
-1.24828295087e-09
-2.33732699806e-08
-1.2680215497e-09
-2.20908141863e-08
-1.28251033883e-09
-2.07990415189e-08
-1.29179646714e-09
-1.95031193915e-08
-1.29597196781e-09
-1.82079856378e-08
-1.2951571351e-09
-1.6918510983e-08
-1.28951979491e-09
-1.56392731319e-08
-1.27926044301e-09
-1.43746853001e-08
-1.26462825665e-09
-1.31287993192e-08
-1.24590739809e-09
-1.19054053643e-08
-1.22342963204e-09
-1.07078635184e-08
-1.19756165921e-09
-9.5391792182e-09
-1.16871519189e-09
-8.40186003593e-09
-1.13733691994e-09
-7.29796656562e-09
-1.10391957064e-09
-6.22898189621e-09
-1.06899982145e-09
-5.19582418998e-09
-1.03317907386e-09
-4.19869416814e-09
-9.97142036799e-10
-3.23700365946e-09
-9.61707286569e-10
-2.30911698744e-09
-9.27895001201e-10
-1.41209084414e-09
-8.97038603285e-10
-5.4122386543e-10
-8.70871254583e-10
3.10041741882e-10
-8.51274221028e-10
1.14910877923e-09
-8.39067242906e-10
1.98203261126e-09
-8.32929244672e-10
2.81243945879e-09
-8.30403284103e-10
3.64188846574e-09
-8.29451926367e-10
4.47055950223e-09
-8.28664222653e-10
5.29761777483e-09
-8.27059394427e-10
6.12153589921e-09
-8.23908682222e-10
6.9401735408e-09
-8.1863758673e-10
7.75094913167e-09
-8.10764164933e-10
8.55082898171e-09
-7.998791386e-10
9.33646909842e-09
-7.85627320903e-10
1.01041814895e-08
-7.67711434312e-10
1.08500792077e-08
-7.45884114179e-10
1.15700369225e-08
-7.19956824084e-10
1.22598434366e-08
-6.89792592432e-10
1.29151588777e-08
-6.55314835505e-10
1.35316713666e-08
-6.16498665567e-10
1.41050501502e-08
-5.73378603522e-10
1.46311019989e-08
-5.2603845964e-10
1.51057196797e-08
-4.74617999659e-10
1.55250343071e-08
-4.19301936055e-10
1.58853593832e-08
-3.60325914959e-10
1.61833364354e-08
-2.97965256603e-10
1.6415875665e-08
-2.3254056891e-10
1.65802929543e-08
-1.64406533006e-10
1.66742479778e-08
-9.39568137736e-11
1.66958698911e-08
-2.16122912703e-11
1.6643695326e-08
5.21723982129e-11
1.6516779896e-08
1.26923864998e-10
1.63146556268e-08
2.02121820621e-10
1.60374584884e-08
2.77204369833e-10
1.56858994633e-08
3.51556405495e-10
1.52613945056e-08
4.24510999486e-10
1.47660551835e-08
4.95336656482e-10
1.42028240106e-08
5.63236069311e-10
1.35754874576e-08
6.27333977567e-10
1.28888126112e-08
6.86678675375e-10
1.21485708301e-08
7.40239442577e-10
1.13616496442e-08
7.86924071635e-10
1.05360440264e-08
8.25603672683e-10
9.6808795844e-09
8.55166559505e-10
8.80628932362e-09
8.74588868922e-10
7.92325733224e-09
8.83033571912e-10
7.04329978616e-09
8.79956870763e-10
6.17808480478e-09
8.65216290493e-10
5.33893386212e-09
8.3915110166e-10
4.53631060957e-09
8.02624468835e-10
3.77929717274e-09
7.57014400633e-10
3.07512888375e-09
7.0416976547e-10
2.42876750427e-09
6.46363232906e-10
1.8424655013e-09
5.86304328147e-10
1.31516367467e-09
5.27304355507e-10
8.41440719114e-10
4.73725656112e-10
4.09591779235e-10
4.31851777976e-10
4.09592584944e-10
-4.6580263123e-10
8.90738311929e-10
-9.37899910948e-10
9.11946864888e-10
-1.42472322462e-09
9.43380735535e-10
-1.9326604923e-09
9.86401480808e-10
-2.4680980199e-09
1.04152153034e-09
-3.0371758978e-09
1.10871542756e-09
-3.64597520826e-09
1.18771074484e-09
-4.30013437922e-09
1.27806573156e-09
-5.00509153949e-09
1.37914037607e-09
-5.76562669876e-09
1.49006908102e-09
-6.58609488156e-09
1.60970376695e-09
-7.46990926836e-09
1.73659015851e-09
-8.41976073067e-09
1.86893010765e-09
-9.43708032604e-09
2.00459118859e-09
-1.05222714002e-08
2.141111617e-09
-1.16742012683e-08
2.27575963275e-09
-1.28904908472e-08
2.40559182213e-09
-1.41670811583e-08
2.527562284e-09
-1.54986244367e-08
2.6386234183e-09
-1.68781534662e-08
2.73586269423e-09
-1.82975953744e-08
2.81661363385e-09
-1.97475417535e-08
2.8785815769e-09
-2.12178709723e-08
2.91992384134e-09
-2.26975842254e-08
2.93932674007e-09
-2.41754902393e-08
2.93602509641e-09
-2.5640051041e-08
2.90981300089e-09
-2.70800687513e-08
2.86099932923e-09
-2.84844857575e-08
2.79036294324e-09
-2.98430230368e-08
2.69906636505e-09
-3.11459006117e-08
2.58858492407e-09
-3.23844017677e-08
2.46061051523e-09
-3.35505084713e-08
2.31698438246e-09
-3.46373915974e-08
2.15961512669e-09
-3.56389781893e-08
1.9904319504e-09
-3.65503829646e-08
1.81132636524e-09
-3.7367434012e-08
1.62412879939e-09
-3.8087064464e-08
1.43057221385e-09
-3.87068225124e-08
1.23228723376e-09
-3.92252381233e-08
1.0307815296e-09
-3.96413378057e-08
8.27446920769e-10
-3.99549955966e-08
6.23548534599e-10
-4.01664674272e-08
4.20238772732e-10
-4.02767318206e-08
2.18552813825e-10
-4.02870567917e-08
1.94294773734e-11
-4.01992942878e-08
-1.7629578028e-10
-4.00154654142e-08
-3.67888036804e-10
-3.97381097685e-08
-5.54672478747e-10
-3.93699074083e-08
-7.36031004299e-10
-3.89139707908e-08
-9.11398988788e-10
-3.83735114515e-08
-1.08024990783e-09
-3.77521162536e-08
-1.24209926319e-09
-3.70534493933e-08
-1.39649252215e-09
-3.62815047031e-08
-1.5430100121e-09
-3.54403391961e-08
-1.68125715195e-09
-3.45342987241e-08
-1.81087069993e-09
-3.35677802878e-08
-1.93151163395e-09
-3.25454296567e-08
-2.04287283378e-09
-3.14719294559e-08
-2.14467445254e-09
-3.03521681114e-08
-2.23667273582e-09
-2.91910506593e-08
-2.31865749115e-09
-2.79936391507e-08
-2.39046162874e-09
-2.67649832927e-08
-2.4519602546e-09
-2.55102330369e-08
-2.50308046903e-09
-2.42344864945e-08
-2.54380158453e-09
-2.29428759953e-08
-2.57416469718e-09
-2.16404312345e-08
-2.59427349021e-09
-2.03321405492e-08
-2.60430302628e-09
-1.90228279374e-08
-2.60450051727e-09
-1.77171918759e-08
-2.59519266372e-09
-1.64196956954e-08
-2.57678564176e-09
-1.5134586882e-08
-2.54977022297e-09
-1.386580094e-08
-2.51472032756e-09
-1.26169643151e-08
-2.47229564495e-09
-1.13913113467e-08
-2.42323926412e-09
-1.01916724063e-08
-2.3683796331e-09
-9.02040025328e-09
-2.30863100196e-09
-7.87934043442e-09
-2.24500089182e-09
-6.76975692329e-09
-2.17860216431e-09
-5.69227601411e-09
-2.11067741062e-09
-4.64679795078e-09
-2.04263541844e-09
-3.63241550578e-09
-1.97610305645e-09
-2.64733997593e-09
-1.91298194693e-09
-1.68891679921e-09
-1.85547108057e-09
-7.5386731624e-10
-1.80592804749e-09
1.61162158685e-10
-1.76630924389e-09
1.05938472751e-09
-1.7372931308e-09
1.94392218149e-09
-1.71746897964e-09
2.81757741547e-09
-1.70405825746e-09
3.68230809569e-09
-1.69418223807e-09
4.53906688179e-09
-1.68541975487e-09
5.38786363137e-09
-1.67585378152e-09
6.22792108901e-09
-1.66396053614e-09
7.05778972463e-09
-1.64850247596e-09
7.87548363818e-09
-1.62845074799e-09
8.67854766637e-09
-1.60293857115e-09
9.46416219947e-09
-1.57123336384e-09
1.02291796882e-08
-1.53272391748e-09
1.09702169932e-08
-1.48691226464e-09
1.168367703e-08
-1.43341179996e-09
1.23658378631e-08
-1.37194402649e-09
1.30128664309e-08
-1.30233855336e-09
1.36209067862e-08
-1.22452971991e-09
1.41860884374e-08
-1.13855581145e-09
1.47046133508e-08
-1.04455444001e-09
1.51727598676e-08
-9.42760606249e-10
1.5586967367e-08
-8.33501073087e-10
1.59438365147e-08
-7.17191761537e-10
1.62402107688e-08
-5.94331866129e-10
1.64731741548e-08
-4.65501292542e-10
1.66401295772e-08
-3.31355127379e-10
1.67387961572e-08
-1.92621368369e-10
1.67672856106e-08
-5.00957913963e-11
1.67240974471e-08
9.53619841177e-11
1.66081921111e-08
2.42834259643e-10
1.64190010985e-08
3.9131371027e-10
1.61565133289e-08
5.39696314453e-10
1.58212976553e-08
6.86772491774e-10
1.54145939195e-08
8.31218066083e-10
1.49383485313e-08
9.71582091162e-10
1.43953093159e-08
1.1062778377e-09
1.37890675816e-08
1.23357550826e-09
1.31241431321e-08
1.35160499752e-09
1.24060115649e-08
1.45837068998e-09
1.16411481602e-08
1.55178880468e-09
1.083700033e-08
1.62975121687e-09
1.00019437788e-08
1.69022407346e-09
9.14515325626e-09
1.73137931086e-09
8.27643297609e-09
1.75175467652e-09
7.40596594485e-09
1.7504242085e-09
6.5440261901e-09
1.72715696557e-09
5.70064221044e-09
1.68253592255e-09
4.88524963987e-09
1.61801820771e-09
4.10633252133e-09
1.53593291386e-09
3.37106391768e-09
1.43943997172e-09
2.68492773827e-09
1.33250153781e-09
2.05128785106e-09
1.21994674356e-09
1.4708544796e-09
1.10774041593e-09
9.40996051958e-10
1.00358689992e-09
4.55067907266e-10
9.17782808854e-10
8.64661299516e-10
-5.12366883542e-10
1.40306712504e-09
-1.02907817832e-09
1.42863309461e-09
-1.55889989913e-09
1.47315346162e-09
-2.10927923773e-09
1.5367595605e-09
-2.68720733675e-09
1.61940007108e-09
-3.29923377005e-09
1.72072484736e-09
-3.9516870518e-09
1.84011498489e-09
-4.65033734498e-09
1.9767031217e-09
-5.40058408844e-09
2.12933837941e-09
-6.20705765026e-09
2.29653325321e-09
-7.07380209312e-09
2.47640176236e-09
-8.00383555389e-09
2.66661666e-09
-8.99932698973e-09
2.86437720871e-09
-1.00611540083e-08
3.06641329944e-09
-1.11891007458e-08
3.26901554191e-09
-1.23814531414e-08
3.46810864203e-09
-1.36352576684e-08
3.65935422918e-09
-1.49459887041e-08
3.83829094191e-09
-1.63079001706e-08
4.00049268013e-09
-1.77137830745e-08
4.14174381838e-09
-1.91554216185e-08
4.25820922682e-09
-2.06234346048e-08
4.34659288829e-09
-2.21078202371e-08
4.40426522565e-09
-2.35978501288e-08
4.42935456588e-09
-2.50826623755e-08
4.42079135439e-09
-2.65511600964e-08
4.37830769429e-09
-2.79926010165e-08
4.30239220318e-09
-2.93964529366e-08
4.19421037719e-09
-3.07529356839e-08
4.05549882404e-09
-3.20528033194e-08
3.88844612989e-09
-3.32878157871e-08
3.69557040294e-09
-3.44504429405e-08
3.4796028009e-09
-3.55342662816e-08
3.24338366134e-09
-3.65336201352e-08
2.98977444108e-09
-3.74439383692e-08
2.72158773661e-09
-3.82613575371e-08
2.44153377691e-09
-3.89830271537e-08
2.15218316392e-09
-3.96066991187e-08
1.8559420285e-09
-4.01310165959e-08
1.55503886155e-09
-4.05551088106e-08
1.25151894562e-09
-4.08788676609e-08
9.47246133016e-10
-4.11025606607e-08
6.43908579828e-10
-4.12270987002e-08
3.43028915863e-10
-4.12536703397e-08
4.59750625858e-11
-4.11839989063e-08
-2.46029372471e-10
-4.1019996275e-08
-5.31919351821e-10
-4.0764015494e-08
-8.10715139757e-10
-4.04185512913e-08
-1.08152617526e-09
-3.99864749305e-08
-1.34353644885e-09
-3.94707644021e-08
-1.59599328719e-09
-3.88747245719e-08
-1.83819892464e-09
-3.82017475322e-08
-2.06950383285e-09
-3.74555137331e-08
-2.28930192437e-09
-3.66397790502e-08
-2.49702704881e-09
-3.57585541746e-08
-2.69215156989e-09
-3.48159155124e-08
-2.87418596901e-09
-3.38161613206e-08
-3.04268056233e-09
-3.2763643601e-08
-3.19722785093e-09
-3.16629002815e-08
-3.33746686425e-09
-3.05185053441e-08
-3.46308770138e-09
-2.9335176994e-08
-3.5738378564e-09
-2.8117643436e-08
-3.66952832352e-09
-2.68707274877e-08
-3.750041219e-09
-2.55992257308e-08
-3.81533678934e-09
-2.43079704452e-08
-3.86546160707e-09
-2.30017202933e-08
-3.90055577107e-09
-2.16852008161e-08
-3.92086087621e-09
-2.03630053435e-08
-3.92672657566e-09
-1.90396156911e-08
-3.91861736704e-09
-1.77193126346e-08
-3.89711751821e-09
-1.64061788933e-08
-3.86293561142e-09
-1.51040190705e-08
-3.81690696283e-09
-1.38163473744e-08
-3.75999547719e-09
-1.25463170952e-08
-3.69329406629e-09
-1.12966954899e-08
-3.61802573939e-09
-1.00698025148e-08
-3.5355458877e-09
-8.86747567754e-09
-3.44734846958e-09
-7.69101934907e-09
-3.3550774238e-09
-6.54116898996e-09
-3.26054464729e-09
-5.41806756565e-09
-3.16575238881e-09
-4.32127238982e-09
-3.07291118689e-09
-3.24983664677e-09
-2.98442947229e-09
-2.20249614226e-09
-2.90282066408e-09
-1.17799794396e-09
-2.83043405867e-09
-1.75376656109e-10
-2.768935971e-09
8.0593212039e-10
-2.71860584664e-09
1.76684475848e-09
-2.67838386498e-09
2.70876924659e-09
-2.6459832004e-09
3.63299130223e-09
-2.61840393971e-09
4.540391377e-09
-2.59281737433e-09
5.43126681266e-09
-2.56672689455e-09
6.30531174334e-09
-2.53800073246e-09
7.16164501683e-09
-2.50483205267e-09
7.99888794898e-09
-2.46568727844e-09
8.81522002104e-09
-2.41926609043e-09
9.60846624753e-09
-2.36447206955e-09
1.03761414183e-08
-2.30039410838e-09
1.11155309555e-08
-2.2262936383e-09
1.18237210832e-08
-2.141596863e-09
1.24976738363e-08
-2.04588836982e-09
1.31342468356e-08
-1.9389066649e-09
1.37302646422e-08
-1.82053919432e-09
1.42825314549e-08
-1.69081810413e-09
1.47878999507e-08
-1.54991493253e-09
1.52432791179e-08
-1.39813575008e-09
1.56457009044e-08
-1.23591537606e-09
1.59923248521e-08
-1.06381226049e-09
1.62805027594e-08
-8.82502946507e-10
1.6507781877e-08
-6.92777573371e-10
1.66719682232e-08
-4.95535397243e-10
1.67711304938e-08
-2.91781418526e-10
1.680366265e-08
-8.26226753826e-11
1.67682905762e-08
1.30735687028e-10
1.66641350984e-08
3.46994186963e-10
1.64907230105e-08
5.64726887971e-10
1.62480577124e-08
7.82365253534e-10
1.59366434593e-08
9.98187369566e-10
1.55575587361e-08
1.21030566328e-09
1.51124865428e-08
1.41665453862e-09
1.46037850756e-08
1.6149814809e-09
1.40345156087e-08
1.80284497152e-09
1.34084968978e-08
1.97762528784e-09
1.273031317e-08
2.13655428801e-09
1.2005330891e-08
2.27677220367e-09
1.12396644744e-08
2.39541752671e-09
1.04401350501e-08
2.48975434032e-09
9.61417973943e-09
2.55733471298e-09
8.76974830673e-09
2.59618689229e-09
7.91516263976e-09
2.60501034936e-09
7.05896728045e-09
2.58335327624e-09
6.20975717579e-09
2.53174702929e-09
5.37599490818e-09
2.45178171356e-09
4.56580340447e-09
2.34612595637e-09
3.78672307942e-09
2.21852207076e-09
3.04540702569e-09
2.07381981372e-09
2.34721095376e-09
1.91814544834e-09
1.69561283898e-09
1.75934134613e-09
1.09131851931e-09
1.60788407443e-09
5.30374566501e-10
1.47872968866e-09
1.39503666095e-09
-5.60080123205e-10
1.96310389013e-09
-1.1258157332e-09
1.9943403942e-09
-1.70477982795e-09
2.05206382486e-09
-2.3045419154e-09
2.13649698215e-09
-2.93241764398e-09
2.24722315719e-09
-3.59520261958e-09
2.38349197566e-09
-4.29936956718e-09
2.54423075348e-09
-5.05070769661e-09
2.72802797421e-09
-5.85450120046e-09
2.93308413621e-09
-6.71512875438e-09
3.15715058566e-09
-7.63623794488e-09
3.39746503741e-09
-8.62033191707e-09
3.65070320585e-09
-9.66895373213e-09
3.91295504686e-09
-1.07822855618e-08
4.17973954857e-09
-1.19593706937e-08
4.4460579641e-09
-1.31977611301e-08
4.70649478645e-09
-1.44938071902e-08
4.95535806033e-09
-1.58423778623e-08
5.18685821006e-09
-1.72372381861e-08
5.39531055465e-09
-1.86708481552e-08
5.57535090419e-09
-2.01348283075e-08
5.72214613897e-09
-2.1619822285e-08
5.83158408637e-09
-2.31160290222e-08
5.90042743543e-09
-2.46130959992e-08
5.92641837735e-09
-2.61006795315e-08
5.90832868264e-09
-2.75683265924e-08
5.84595068552e-09
-2.90060198581e-08
5.74003729377e-09
-3.04040107872e-08
5.59219582929e-09
-3.17533159362e-08
5.4047536743e-09
-3.30454810918e-08
5.18060395981e-09
-3.42730142601e-08
4.92305110648e-09
-3.54290815836e-08
4.63566058006e-09
-3.6507880679e-08
4.32212821337e-09
-3.75042846391e-08
3.98616635465e-09
-3.84141698107e-08
3.6314164572e-09
-3.92340304813e-08
3.26137969344e-09
-3.99612770064e-08
2.87937159803e-09
-4.05938424122e-08
2.48848985418e-09
-4.11304630205e-08
2.09160005906e-09
-4.15702930965e-08
1.6913285705e-09
-4.19131746868e-08
1.2900673717e-09
-4.21592705703e-08
8.89981183001e-10
-4.23093244467e-08
4.93021907705e-10
-4.23643174385e-08
1.00942077931e-10
-4.23257204713e-08
-2.8468729479e-10
-4.21951781061e-08
-6.62490139303e-10
-4.19747343617e-08
-1.03121942546e-09
-4.16665510508e-08
-1.38974001794e-09
-4.12731373793e-08
-1.73700975487e-09
-4.07970961804e-08
-2.07206671925e-09
-4.02413360322e-08
-2.39401733623e-09
-3.960884505e-08
-2.70202830259e-09
-3.89028840322e-08
-2.99531940248e-09
-3.81267856329e-08
-3.27315972153e-09
-3.72841264236e-08
-3.53486506416e-09
-3.63785487625e-08
-3.77979822967e-09
-3.54139105641e-08
-4.00737055657e-09
-3.43941272092e-08
-4.21704569934e-09
-3.33232985592e-08
-4.4083445812e-09
-3.22055683139e-08
-4.58085195135e-09
-3.10452284078e-08
-4.73422392402e-09
-2.98465933894e-08
-4.86819652959e-09
-2.86140827724e-08
-4.98259497679e-09
-2.73521082798e-08
-5.07734338172e-09
-2.60651350715e-08
-5.15247486082e-09
-2.47575800613e-08
-5.20814156829e-09
-2.34338531932e-08
-5.24462464645e-09
-2.20982654733e-08
-5.26234357569e-09
-2.07550517189e-08
-5.26186483537e-09
-1.9408287457e-08
-5.24390936326e-09
-1.80618949196e-08
-5.20935861606e-09
-1.67195686069e-08
-5.15925895244e-09
-1.53847670217e-08
-5.09482419936e-09
-1.40606477899e-08
-5.01743682123e-09
-1.27500493049e-08
-4.92864792694e-09
-1.14554387382e-08
-4.83017753126e-09
-1.01788920568e-08
-4.72391530903e-09
-8.92206476596e-09
-4.61192300413e-09
-7.68619019547e-09
-4.49643573674e-09
-6.4721000602e-09
-4.37985764839e-09
-5.28028706008e-09
-4.26473701372e-09
-4.11103142686e-09
-4.15369671599e-09
-2.96458329939e-09
-4.04927797637e-09
-1.84136913244e-09
-3.9536561332e-09
-7.42090683463e-10
-3.8682201835e-09
3.32406756415e-10
-3.79310756604e-09
1.38142547582e-09
-3.72740533723e-09
2.40485513063e-09
-3.6694138479e-09
3.40300043342e-09
-3.61654952519e-09
4.37612355021e-09
-3.56593871424e-09
5.32426389825e-09
-3.51486564053e-09
6.24714649463e-09
-3.46087936733e-09
7.14412680155e-09
-3.40180942692e-09
8.01421084531e-09
-3.3357657486e-09
8.85606935571e-09
-3.26112082508e-09
9.66809615428e-09
-3.17649220245e-09
1.0448433408e-08
-3.08072714673e-09
1.11950370439e-08
-2.97288996596e-09
1.19056967333e-08
-2.85225222125e-09
1.25781000361e-08
-2.71828409915e-09
1.32098449202e-08
-2.57064734889e-09
1.37985014999e-08
-2.4091882408e-09
1.43416185097e-08
-2.23393122675e-09
1.48367829378e-08
-2.04507210862e-09
1.52816222517e-08
-1.84297161306e-09
1.56738622396e-08
-1.62814857515e-09
1.60113266808e-08
-1.40127376421e-09
1.62919937682e-08
-1.16316384256e-09
1.65139949957e-08
-9.14776415118e-10
1.66756707915e-08
-6.57205691832e-10
1.67755705221e-08
-3.91679323692e-10
1.68125081448e-08
-1.19555542538e-10
1.67855655258e-08
1.57679592655e-10
1.66941459038e-08
4.38417799321e-10
1.65379754721e-08
7.20898115468e-10
1.63171613144e-08
1.00318264905e-09
1.60322044552e-08
1.28314460575e-09
1.56840568539e-08
1.55845579106e-09
1.52741358133e-08
1.82657562939e-09
1.48043738021e-08
2.08474537681e-09
1.42772268848e-08
2.32999172438e-09
1.36957076858e-08
2.55914583201e-09
1.30633776609e-08
2.76888406255e-09
1.23843533795e-08
2.95579742951e-09
1.16632760149e-08
3.11649470553e-09
1.0905289671e-08
3.24774140808e-09
1.01159938671e-08
3.34663056219e-09
9.30140686971e-09
3.41077460541e-09
8.46791762697e-09
3.43850004006e-09
7.62224900482e-09
3.42902282443e-09
6.77141337344e-09
3.38258365069e-09
5.92266315144e-09
3.30053321178e-09
5.08341331338e-09
3.18537735176e-09
4.26111501953e-09
3.04082210779e-09
3.46304150911e-09
2.8718956071e-09
2.69592060939e-09
2.68526896759e-09
1.96530469759e-09
2.48995999903e-09
1.27447210298e-09
2.29871949313e-09
6.2240232436e-10
2.13080232984e-09
2.01743973971e-09
-6.08361547842e-10
2.57141713395e-09
-1.2236077013e-09
2.60955579789e-09
-1.85308592896e-09
2.68148339063e-09
-2.5042897051e-09
2.78767567194e-09
-3.18464907174e-09
2.92752579574e-09
-3.90106087305e-09
3.09988380639e-09
-4.6600289621e-09
3.30314681715e-09
-5.46726774422e-09
3.53525213203e-09
-6.3278654478e-09
3.7936318314e-09
-7.24587437096e-09
4.07514892384e-09
-8.22449249149e-09
4.37603652264e-09
-9.26565668618e-09
4.69185896852e-09
-1.03702479645e-08
5.0175017677e-09
-1.15377224715e-08
5.34720738032e-09
-1.27663659482e-08
5.67465806029e-09
-1.40529866642e-08
5.99311012203e-09
-1.53932447299e-08
6.29557312894e-09
-1.6781418287e-08
6.57502730219e-09
-1.82108158237e-08
6.82466482752e-09
-1.96736082645e-08
7.03813945012e-09
-2.11613125416e-08
7.20980635108e-09
-2.26646650497e-08
7.33493285736e-09
-2.4174148231e-08
7.4098653004e-09
-2.56798703954e-08
7.43213648866e-09
-2.71720988293e-08
7.40051018389e-09
-2.86411105209e-08
7.31495749292e-09
-3.00776981555e-08
7.17657612001e-09
-3.1472966502e-08
6.98745797348e-09
-3.28187900351e-08
6.75052638548e-09
-3.41075462136e-08
6.4693521796e-09
-3.53325191482e-08
6.14797119097e-09
-3.64875767746e-08
5.79070813801e-09
-3.75675272839e-08
5.40202394099e-09
-3.85677569555e-08
4.9863835692e-09
-3.94845517348e-08
4.54815471657e-09
-4.03147153066e-08
4.09152823107e-09
-4.10558679361e-08
3.62046624148e-09
-4.17060621185e-08
3.13866631237e-09
-4.22640671803e-08
2.64954600488e-09
-4.27289953958e-08
2.1562363419e-09
-4.31005763713e-08
1.66158847808e-09
-4.33788017702e-08
1.16818346277e-09
-4.3564189491e-08
6.78349419291e-10
-4.36574509891e-08
1.94177924289e-10
-4.36597445185e-08
-2.82453863513e-10
-4.35723906109e-08
-7.4987197921e-10
-4.33970723271e-08
-1.20659721271e-09
-4.31355673277e-08
-1.65127488652e-09
-4.27899789477e-08
-2.08265656741e-09
-4.23624905374e-08
-2.49958653031e-09
-4.18555763814e-08
-2.90098840173e-09
-4.12717820251e-08
-3.28585514679e-09
-4.06139156693e-08
-3.653240738e-09
-3.98848530875e-08
-4.00225542315e-09
-3.908770791e-08
-4.33206294199e-09
-3.82256587168e-08
-4.64188073028e-09
-3.73020974099e-08
-4.93098200219e-09
-3.63204760291e-08
-5.19870016544e-09
-3.52844330926e-08
-5.44443488359e-09
-3.41976577225e-08
-5.66765982579e-09
-3.30639943717e-08
-5.86793172453e-09
-3.18873220012e-08
-6.04490052315e-09
-3.06716380131e-08
-6.19832041337e-09
-2.94209504788e-08
-6.32806141593e-09
-2.81393423864e-08
-6.43412135786e-09
-2.68308752624e-08
-6.51663787448e-09
-2.54996350394e-08
-6.57590021279e-09
-2.41496458008e-08
-6.61236051572e-09
-2.27848987459e-08
-6.62664415806e-09
-2.14092752374e-08
-6.61955893467e-09
-2.0026560632e-08
-6.59210238679e-09
-1.8640376484e-08
-6.54546735084e-09
-1.72541818825e-08
-6.48104481159e-09
-1.58712161915e-08
-6.40042473972e-09
-1.44944929588e-08
-6.30539394367e-09
-1.31267581486e-08
-6.19793229181e-09
-1.17704872223e-08
-6.08020571095e-09
-1.04278710552e-08
-5.95455654465e-09
-9.10083677978e-09
-5.82348611044e-09
-7.79108440589e-09
-5.68962449006e-09
-6.50016170888e-09
-5.55567240156e-09
-5.22957161215e-09
-5.42429807991e-09
-3.98089498184e-09
-5.29796395166e-09
-2.75588605861e-09
-5.17867296472e-09
-1.55645428662e-09
-5.06765816219e-09
-3.84425009547e-10
-4.96514145498e-09
7.5826918564e-10
-4.87010296647e-09
1.87011447176e-09
-4.78126073354e-09
2.95040607514e-09
-4.69684226755e-09
3.9986146736e-09
-4.6141463426e-09
5.01429644267e-09
-4.53054677308e-09
5.99692711145e-09
-4.44350700946e-09
6.94583896595e-09
-4.35071936904e-09
7.86019521076e-09
-4.25011742555e-09
8.73897025764e-09
-4.13989312739e-09
9.58097676084e-09
-4.01849307189e-09
1.03848657323e-08
-3.88461291408e-09
1.11491712874e-08
-3.73718923838e-09
1.18723141748e-08
-3.57539174469e-09
1.25526517386e-08
-3.39861508325e-09
1.31884790705e-08
-3.20647138899e-09
1.37780799548e-08
-2.99878253671e-09
1.43197247068e-08
-2.77557293014e-09
1.48117207669e-08
-2.53706180035e-09
1.52524078172e-08
-2.28365597716e-09
1.56402075862e-08
-2.01594237179e-09
1.59736173641e-08
-1.73468129378e-09
1.62512590232e-08
-1.44080005657e-09
1.64718723231e-08
-1.1353879454e-09
1.66343634407e-08
-8.19691985475e-10
1.673779961e-08
-4.95114213759e-10
1.67814577019e-08
-1.63209489514e-10
1.67648219123e-08
1.74316187874e-10
1.66876272295e-08
5.15615926027e-10
1.65498483479e-08
8.58677373825e-10
1.63517453459e-08
1.20128840535e-09
1.60938643609e-08
1.54102560751e-09
1.57770789341e-08
1.87524332284e-09
1.54025889592e-08
2.2010653512e-09
1.49719525971e-08
2.51538326439e-09
1.44870784653e-08
2.8148654431e-09
1.39502426574e-08
3.09598268731e-09
1.33640704111e-08
3.35505586287e-09
1.27315370702e-08
3.58833147916e-09
1.20559429491e-08
3.79208849303e-09
1.13409079422e-08
3.96277695709e-09
1.05903552712e-08
4.09718316722e-09
9.80851981899e-09
4.19261063696e-09
8.99996011401e-09
4.24706011471e-09
8.16959365957e-09
4.25939010876e-09
7.32273618924e-09
4.22944205508e-09
6.46514486055e-09
4.158125709e-09
5.60304332645e-09
4.04748037026e-09
4.7431092409e-09
3.90075794961e-09
3.89239129495e-09
3.72261570186e-09
3.05810109572e-09
3.51956170622e-09
2.24718913163e-09
3.30087463264e-09
1.46555334451e-09
3.08035792794e-09
7.16724476293e-10
2.87963389845e-09
2.73416490706e-09
-6.54804791474e-10
3.22617117688e-09
-1.31772069628e-09
3.27244057484e-09
-1.99608613719e-09
3.35978769382e-09
-2.69743984899e-09
3.48900181965e-09
-3.42928796731e-09
3.65931533859e-09
-4.19857922056e-09
3.86915524733e-09
-5.01180491476e-09
4.11631669068e-09
-5.87455699819e-09
4.39798904678e-09
-6.79169587078e-09
4.71072039076e-09
-7.76692590583e-09
5.05036659794e-09
-8.80298087987e-09
5.41204354583e-09
-9.90123324626e-09
5.79010167433e-09
-1.10619187842e-08
6.17814147833e-09
-1.22837974617e-08
6.56907812852e-09
-1.35644437042e-08
6.95525972676e-09
-1.48999800273e-08
7.32863978813e-09
-1.62854468788e-08
7.68099582046e-09
-1.77146089754e-08
8.00418369197e-09
-1.91804005327e-08
8.29041197631e-09
-2.06747837839e-08
8.53251762316e-09
-2.21892470985e-08
8.7242244853e-09
-2.37146825972e-08
8.86036351291e-09
-2.52419043288e-08
8.93704064725e-09
-2.67615095902e-08
8.95173667087e-09
-2.82643844989e-08
8.90333716343e-09
-2.97415213603e-08
8.79208853615e-09
-3.11844882853e-08
8.61949333439e-09
-3.25851892403e-08
8.38815188663e-09
-3.39362879212e-08
8.10157346074e-09
-3.52309119586e-08
7.76396752643e-09
-3.64630330021e-08
7.38003873911e-09
-3.76271269375e-08
6.95479138489e-09
-3.87185187089e-08
6.49336044563e-09
-3.97330149058e-08
6.00086681512e-09
-4.06672233364e-08
5.48230631819e-09
-4.1518174261e-08
4.94246375963e-09
-4.22836229671e-08
4.38585684565e-09
-4.29616732696e-08
3.8166986759e-09
-4.35510681356e-08
3.2388818418e-09
-4.4050825478e-08
2.65597317914e-09
-4.44605186094e-08
2.0712220396e-09
-4.47799309442e-08
1.4875727834e-09
-4.50093257334e-08
9.07684509651e-10
-4.51491224714e-08
3.33949282581e-10
-4.52001476057e-08
-2.31488108744e-10
-4.51633831565e-08
-7.86663912526e-10
-4.50401394364e-08
-1.32989951692e-09
-4.48318028767e-08
-1.85964068829e-09
-4.4540068533e-08
-2.37444823376e-09
-4.41666995426e-08
-2.87298611211e-09
-4.37137374565e-08
-3.3540061149e-09
-4.31832881895e-08
-3.81633591549e-09
-4.25777124448e-08
-4.25887002872e-09
-4.18994355682e-08
-4.68056426537e-09
-4.1151116707e-08
-5.08043294694e-09
-4.03354804294e-08
-5.45754900948e-09
-3.94554642608e-08
-5.81104666013e-09
-3.85140697927e-08
-6.14012628197e-09
-3.751448883e-08
-6.44406150302e-09
-3.64599717352e-08
-6.72220788145e-09
-3.53539329183e-08
-6.97401325551e-09
-3.41998343168e-08
-7.19902912499e-09
-3.30012713274e-08
-7.39692312273e-09
-3.17618695857e-08
-7.56749198425e-09
-3.04853526975e-08
-7.71067496314e-09
-2.91754508235e-08
-7.82656723809e-09
-2.78359517356e-08
-7.91543303011e-09
-2.64706200968e-08
-7.97771817511e-09
-2.50832334985e-08
-8.01406151831e-09
-2.36775117446e-08
-8.02530511731e-09
-2.22571397611e-08
-8.01250217203e-09
-2.08257068212e-08
-7.9769229895e-09
-1.9386719006e-08
-7.92005745431e-09
-1.79435497513e-08
-7.84361479375e-09
-1.64994468272e-08
-7.74951868526e-09
-1.50574989096e-08
-7.63989889922e-09
-1.3620646845e-08
-7.51707653809e-09
-1.21916765196e-08
-7.3835432021e-09
-1.07732503779e-08
-7.24192792327e-09
-9.36794048146e-09
-7.09494809358e-09
-7.97829367297e-09
-6.94533178851e-09
-6.60690014587e-09
-6.79570245494e-09
-5.25646029964e-09
-6.64841335823e-09
-3.92980275197e-09
-6.50533837972e-09
-2.62981873965e-09
-6.3676489082e-09
-1.35933424463e-09
-6.23563088994e-09
-1.20747915795e-10
-6.10869352011e-09
1.08322047234e-09
-5.98523136609e-09
2.25036972696e-09
-5.86399364652e-09
3.37961698974e-09