/*--------------------------------*- C++ -*----------------------------------*\
| =========                 |                                                 |
| \\      /  F ield         | OpenFOAM: The Open Source CFD Toolbox           |
|  \\    /   O peration     | Version:  2206                                  |
|   \\  /    A nd           | Website:  www.openfoam.com                      |
|    \\/     M anipulation  |                                                 |
\*---------------------------------------------------------------------------*/
FoamFile
{
    version     2.0;
    format      ascii;
    arch        "LSB;label=64;scalar=64";
    class       surfaceScalarField;
    location    "3.5/water";
    object      phi.gas;
}
// * * * * * * * * * * * * * * * * * * * * * * * * * * * * * * * * * * * * * //

dimensions      [0 3 -1 0 0 0 0];

oriented        oriented;

internalField   nonuniform List<scalar> 
46280
(
-7.80148330419e-09
2.71915553916e-07
-4.77949173556e-10
2.71888336036e-07
-9.76458200559e-10
2.71797696423e-07
-1.49195340853e-09
2.71689263795e-07
-2.08157542683e-09
2.71566800265e-07
-2.75819919419e-09
2.71433653615e-07
-3.54779559056e-09
2.71293840974e-07
-4.43910727949e-09
2.71152744713e-07
-5.44857824218e-09
2.71014376978e-07
-6.55769553337e-09
2.70883873075e-07
-7.77634424682e-09
2.70764796959e-07
-9.08212448942e-09
2.70661484864e-07
-1.04794200567e-08
2.70576553287e-07
-1.19443488857e-08
2.70512951392e-07
-1.3477773626e-08
2.70471869204e-07
-1.50564915151e-08
2.70454520326e-07
-1.66801054403e-08
2.70460493403e-07
-1.83276996121e-08
2.70489303028e-07
-1.99992885171e-08
2.70539149647e-07
-2.16769208764e-08
2.70608255809e-07
-2.33616989751e-08
2.70693948253e-07
-2.5038383461e-08
2.70793777013e-07
-2.67089503693e-08
2.70904817747e-07
-2.83600064077e-08
2.71024568982e-07
-2.99937075104e-08
2.71150390147e-07
-3.15974751307e-08
2.7128018757e-07
-3.31729216098e-08
2.71411936028e-07
-3.47074893646e-08
2.71544184026e-07
-3.6201847115e-08
2.7167563686e-07
-3.76431421654e-08
2.71805521369e-07
-3.90311536854e-08
2.71933224909e-07
-4.03529014559e-08
2.72058557507e-07
-4.16076960502e-08
2.72181447404e-07
-4.27829025598e-08
2.72302129415e-07
-4.38779296829e-08
2.72420898798e-07
-4.48810309135e-08
2.7253824502e-07
-4.57922230855e-08
2.72654666053e-07
-4.66010928526e-08
2.72770757772e-07
-4.73086064298e-08
2.72887090291e-07
-4.79059625936e-08
2.73004256325e-07
-4.83952325975e-08
2.73122810864e-07
-4.87693287264e-08
2.73243276733e-07
-4.90312815412e-08
2.73366145898e-07
-4.91734535431e-08
2.73491800713e-07
-4.91997702376e-08
2.73620464341e-07
-4.91082955867e-08
2.73752202576e-07
-4.89038936589e-08
2.73887242295e-07
-4.85838517941e-08
2.74025681716e-07
-4.8153443923e-08
2.74167609654e-07
-4.76114266536e-08
2.74312885e-07
-4.69637461387e-08
2.74461396295e-07
-4.62105235433e-08
2.74612784097e-07
-4.53582561876e-08
2.74766755352e-07
-4.44083138618e-08
2.74922744157e-07
-4.33676579807e-08
2.75080279123e-07
-4.22387987498e-08
2.75238590049e-07
-4.10290872858e-08
2.75397022601e-07
-3.97420555621e-08
2.75554599288e-07
-3.83853670709e-08
2.75710473787e-07
-3.69634358765e-08
2.75863456137e-07
-3.54841443869e-08
2.76012497172e-07
-3.39526261798e-08
2.76156189446e-07
-3.23768731872e-08
2.76293271989e-07
-3.07625629718e-08
2.76422120023e-07
-2.9117679412e-08
2.76541260868e-07
-2.74482785577e-08
2.76648866872e-07
-2.57622400258e-08
2.76743276016e-07
-2.40658855182e-08
2.76822504285e-07
-2.23669590998e-08
2.76884768285e-07
-2.06720421206e-08
2.76928034758e-07
-1.8988832516e-08
2.76950547367e-07
-1.73243164856e-08
2.76950431528e-07
-1.56863804216e-08
2.76926231139e-07
-1.40827051647e-08
2.7687658662e-07
-1.25217179319e-08
2.76800793583e-07
-1.10121542714e-08
2.7669857856e-07
-9.56333355352e-09
2.76570710356e-07
-8.18521275068e-09
2.76418925861e-07
-6.88775765738e-09
2.76246669799e-07
-5.68056277767e-09
2.76059272608e-07
-4.56945515875e-09
2.75864918714e-07
-3.55019006351e-09
2.75675051765e-07
-2.59111677482e-09
2.75504897334e-07
-1.64252179818e-09
2.75370834043e-07
-7.15711221728e-10
2.75284237142e-07
1.36069023042e-10
2.75247730855e-07
9.28040389013e-10
2.75260144312e-07
1.72303924397e-09
2.75312449309e-07
2.56377146193e-09
2.75387513507e-07
3.4559921932e-09
2.754689874e-07
4.39050657921e-09
2.75544687273e-07
5.35498670202e-09
2.75606246696e-07
6.33529272409e-09
2.75648411085e-07
7.31918567746e-09
2.75668180882e-07
8.29417636131e-09
2.75664343078e-07
9.25035723661e-09
2.75636942884e-07
1.01776061707e-08
2.75587044093e-07
1.10683093195e-08
2.75516367553e-07
1.19144722312e-08
2.75427162158e-07
1.2710347897e-08
2.75321929037e-07
1.34496783802e-08
2.75203363708e-07
1.41281623937e-08
2.75074139501e-07
1.47409491047e-08
2.74936907349e-07
1.52848829404e-08
2.74794124999e-07
1.57563096466e-08
2.74648103071e-07
1.61530557523e-08
2.74500868101e-07
1.64725683433e-08
2.74354242428e-07
1.67136089434e-08
2.7420973011e-07
1.68747249837e-08
2.74068618364e-07
1.69556547197e-08
2.73931877208e-07
1.69561010957e-08
2.73800272355e-07
1.6876753791e-08
2.73674279013e-07
1.67184241442e-08
2.73554237908e-07
1.64824788052e-08
2.73440275753e-07
1.61704711979e-08
2.73332370954e-07
1.57847254905e-08
2.732303066e-07
1.53279081715e-08
2.73133806724e-07
1.48033669299e-08
2.73042470293e-07
1.4214840301e-08
2.72955896916e-07
1.35665580089e-08
2.72873633653e-07
1.28630938994e-08
2.72795309338e-07
1.2109229543e-08
2.72720602551e-07
1.13099128396e-08
2.72649388048e-07
1.04699088785e-08
2.7258172659e-07
9.59389857228e-09
2.72518016173e-07
8.68605983145e-09
2.72458983781e-07
7.75053855798e-09
2.7240580176e-07
6.79135542779e-09
2.72360015149e-07
5.81372541306e-09
2.72323527712e-07
4.82481398686e-09
2.72298346156e-07
3.83615009091e-09
2.72286321292e-07
2.86511006486e-09
2.72288645847e-07
1.93761389655e-09
2.7230539067e-07
1.08926782036e-09
2.72334949863e-07
3.67488992452e-10
2.72373702484e-07
-1.6669358436e-10
2.7241578628e-07
-4.35970478368e-10
2.72453233473e-07
-3.64025032249e-10
2.72476748113e-07
-8.22864081715e-09
2.72469036752e-07
2.72445438152e-07
-4.65141512272e-09
2.23261145387e-07
-1.13688129151e-09
2.23315688373e-07
-1.70127156472e-09
2.23353821389e-07
-2.30131163773e-09
2.23402377577e-07
-2.9438375382e-09
2.2346313678e-07
-3.63491634137e-09
2.23534809531e-07
-4.38679277755e-09
2.23616183901e-07
-5.19978828962e-09
2.2370626362e-07
-6.08142571088e-09
2.23803585849e-07
-7.02827201636e-09
2.2390668319e-07
-8.04462564657e-09
2.24013624655e-07
-9.12483071597e-09
2.24122471658e-07
-1.02706871968e-08
2.24230892427e-07
-1.14751626197e-08
2.24336610818e-07
-1.27380964966e-08
2.24437075412e-07
-1.40516079772e-08
2.24529857559e-07
-1.54140710024e-08
2.24612414286e-07
-1.68170516626e-08
2.24682427781e-07
-1.82577892846e-08
2.24737655042e-07
-1.97273880971e-08
2.24776204647e-07
-2.12221056241e-08
2.24796445768e-07
-2.27325506197e-08
2.24797208075e-07
-2.42540509431e-08
2.24777716127e-07
-2.57766661954e-08
2.24737697849e-07
-2.72948600801e-08
2.24677317075e-07
-2.87981819988e-08
2.24597190226e-07
-3.02804131615e-08
2.24498310837e-07
-3.17308061414e-08
2.24381994181e-07
-3.31428218083e-08
2.24249806876e-07
-3.45058275157e-08
2.24103471499e-07
-3.58134789712e-08
2.23944822499e-07
-3.70557848212e-08
2.23775699365e-07
-3.8227143937e-08
2.23597942235e-07
-3.93187045789e-08
2.23413288191e-07
-4.03260457887e-08
2.23223408393e-07
-4.12417999925e-08
2.23029808604e-07
-4.20629695876e-08
2.2283390122e-07
-4.27838233734e-08
2.22636904446e-07
-4.3402837949e-08
2.22439941864e-07
-4.39159071505e-08
2.22243933836e-07
-4.4322893902e-08
2.22049718757e-07
-4.46212095376e-08
2.21857931185e-07
-4.48120405814e-08
2.21669140385e-07
-4.48934804312e-08
2.21483740935e-07
-4.48675788677e-08
2.21302235309e-07
-4.47347924455e-08
2.21124951504e-07
-4.4498158575e-08
2.20952130621e-07
-4.41586969956e-08
2.20783789779e-07
-4.37201384349e-08
2.20620007599e-07
-4.3184411088e-08
2.20460728193e-07
-4.25558390411e-08
2.20305970732e-07
-4.18371819459e-08
2.20155619047e-07
-4.10332902905e-08
2.20009651624e-07
-4.01476882179e-08
2.1986791564e-07
-3.91856884338e-08
2.19730372184e-07
-3.81515091516e-08
2.19596855234e-07
-3.70508606962e-08
2.19467329164e-07
-3.58885755356e-08
2.19341635317e-07
-3.46706881158e-08
2.1921975907e-07
-3.3402547719e-08
2.19101567855e-07
-3.20904197852e-08
2.18987084855e-07
-3.07400483768e-08
2.18876222602e-07
-2.9357810518e-08
2.18769060215e-07
-2.79496940248e-08
2.1866557683e-07
-2.65220359943e-08
2.18565929182e-07
-2.50808867847e-08
2.18470188776e-07
-2.36323603519e-08
2.18378616435e-07
-2.21823625102e-08
2.1829140651e-07
-2.07365749732e-08
2.18208955251e-07
-1.93005369494e-08
2.18131614439e-07
-1.78792779708e-08
2.18059950718e-07
-1.64777452141e-08
2.17994510487e-07
-1.51000857273e-08
2.17936067967e-07
-1.37503981445e-08
2.1788540121e-07
-1.24316378425e-08
2.17843523602e-07
-1.11466229464e-08
2.17811462453e-07
-9.89648343774e-09
2.17790454143e-07
-8.68173953984e-09
2.17781689115e-07
-7.5000905887e-09
2.1778640528e-07
-6.34711052439e-09
2.17805485708e-07
-5.21290986273e-09
2.17839254263e-07
-4.08204526032e-09
2.17886590491e-07
-2.93238085765e-09
2.17943916588e-07
-1.75507960685e-09
2.18003753979e-07
-5.8943616778e-10
2.18057373914e-07
5.16629608495e-10
2.18099736497e-07
1.54330434851e-09
2.18134446098e-07
2.49584430875e-09
2.1817187076e-07
3.40182167879e-09
2.18220059912e-07
4.27966133146e-09
2.18281976934e-07
5.13949123674e-09
2.18357746717e-07
5.98562569099e-09
2.1844620386e-07
6.81912710782e-09
2.18545805751e-07
7.63899197402e-09
2.18654934195e-07
8.44301645563e-09
2.18772165402e-07
9.22831245002e-09
2.18896228357e-07
9.99143027412e-09
2.1902610306e-07
1.07287409891e-08
2.19160913342e-07
1.14362591687e-08
2.19299991932e-07
1.21100459793e-08
2.19442771944e-07
1.27459176078e-08
2.19588847226e-07
1.33398796479e-08
2.19737871226e-07
1.38878017035e-08
2.19889615216e-07
1.43858543122e-08
2.20043873724e-07
1.48301900516e-08
2.20200520384e-07
1.52173536768e-08
2.20359419561e-07
1.5543993607e-08
2.20520480208e-07
1.58072245509e-08
2.20683574129e-07
1.60043839726e-08
2.20848588454e-07
1.61333364208e-08
2.21015351477e-07
1.61922976771e-08
2.21183684754e-07
1.6180145804e-08
2.2135333348e-07
1.6096217335e-08
2.21524009226e-07
1.59401140064e-08
2.21695356244e-07
1.57120702171e-08
2.21866949634e-07
1.54130086471e-08
2.22038239173e-07
1.50445140908e-08
2.22208579264e-07
1.46088823623e-08
2.22377164144e-07
1.41091645155e-08
2.22543049775e-07
1.35491464265e-08
2.22705088658e-07
1.29334114209e-08
2.22861941772e-07
1.22672083832e-08
2.23012016553e-07
1.15564773909e-08
2.2315348115e-07
1.08075581036e-08
2.23284226349e-07
1.00271366316e-08
2.23401912813e-07
9.22180114412e-09
2.23503995237e-07
8.39798628815e-09
2.2358784361e-07
7.56156839229e-09
2.23650862174e-07
6.7181054835e-09
2.23690695576e-07
5.87288148112e-09
2.2370541847e-07
5.0318116394e-09
2.23693763036e-07
4.20218534568e-09
2.2365528678e-07
3.3941559839e-09
2.23590532685e-07
2.62180802109e-09
2.23501125411e-07
1.90462369107e-09
2.23389906373e-07
1.2689880622e-09
2.23261123184e-07
7.51431524762e-10
2.2312081713e-07
4.13427770011e-10
2.22977866698e-07
-4.36711749153e-09
2.22840912484e-07
2.22725892518e-07
-4.96008050199e-09
2.31820659028e-07
-1.29774819475e-09
2.31854649412e-07
-1.92623456042e-09
2.31903460298e-07
-2.59180614438e-09
2.3196394069e-07
-3.3043285987e-09
2.32039914087e-07
-4.06786632056e-09
2.32131361051e-07
-4.89350378025e-09
2.32237681331e-07
-5.78234944911e-09
2.32358225499e-07
-6.7410458329e-09
2.3249205085e-07
-7.76632037288e-09
2.32638027184e-07
-8.86095574529e-09
2.32794477572e-07
-1.00187788009e-08
2.32959447938e-07
-1.1239623693e-08
2.33130380443e-07
-1.25155549209e-08
2.33304385393e-07
-1.38444652911e-08
2.33478033957e-07
-1.5217575532e-08
2.33647661546e-07
-1.66317176373e-08
2.33809257028e-07
-1.80779338457e-08
2.33958799575e-07
-1.95525965939e-08
2.34092225205e-07
-2.10468884383e-08
2.3420576571e-07
-2.25569716031e-08
2.34295950142e-07
-2.40741607452e-08
2.34359898894e-07
-2.55943613189e-08
2.34395306679e-07
-2.71088091592e-08
2.34400648124e-07
-2.8612976721e-08
2.34375102982e-07
-3.00977981297e-08
2.34318654411e-07
-3.15582069438e-08
2.34231948192e-07
-3.29847931791e-08
2.3411629924e-07
-3.43720802914e-08
2.33973509739e-07
-3.5710551657e-08
2.33805823899e-07
-3.69947046852e-08
2.33615743943e-07
-3.82153744674e-08
2.33405975194e-07
-3.93675481411e-08
2.33179272002e-07
-4.0442920952e-08
2.32938399509e-07
-4.14374337834e-08
2.32686022903e-07
-4.2344036922e-08
2.32424693287e-07
-4.31599180883e-08
2.32156778704e-07
-4.38794915297e-08
2.31884469368e-07
-4.45012908002e-08
2.31609741539e-07
-4.50212341476e-08
2.31334373621e-07
-4.54391564319e-08
2.31059933739e-07
-4.57524252732e-08
2.30787798977e-07
-4.59620889471e-08
2.30519162745e-07
-4.60655680346e-08
2.30255059101e-07
-4.6064598852e-08
2.29996355345e-07
-4.5959834758e-08
2.29743819195e-07
-4.57544621574e-08
2.2949817832e-07
-4.54492422625e-08
2.29259940088e-07
-4.50476405039e-08
2.29029544919e-07
-4.45513173354e-08
2.28807360841e-07
-4.39642975174e-08
2.28593718847e-07
-4.32890358364e-08
2.28388894729e-07
-4.25300333635e-08
2.28193148894e-07
-4.16904686423e-08
2.28006698705e-07
-4.07752524477e-08
2.27829761806e-07
-3.97882170948e-08
2.27662519587e-07
-3.87346168257e-08
2.27505163261e-07
-3.76188573503e-08
2.27357849617e-07
-3.64464597481e-08
2.27220749367e-07
-3.52223028774e-08
2.27093997049e-07
-3.39520762492e-08
2.26977740972e-07
-3.26410042438e-08
2.26872088934e-07
-3.1294817545e-08
2.26777159158e-07
-2.99189261688e-08
2.26693023739e-07
-2.85189395108e-08
2.26619759701e-07
-2.71002599186e-08
2.26557391622e-07
-2.566817878e-08
2.26505942175e-07
-2.42278679277e-08
2.2646537542e-07
-2.27840749987e-08
2.26435646112e-07
-2.1341499113e-08
2.26416644568e-07
-1.99041021176e-08
2.26408244307e-07
-1.84758553048e-08
2.26410248693e-07
-1.70596718886e-08
2.26422435067e-07
-1.56585002992e-08
2.26444499959e-07
-1.42738661503e-08
2.26476093746e-07
-1.29072572039e-08
2.26516754217e-07
-1.15582495623e-08
2.26565916946e-07
-1.02260873362e-08
2.26622816067e-07
-8.90737483734e-09
2.2668644427e-07
-7.59774564575e-09
2.26755387108e-07
-6.28938517769e-09
2.26827692321e-07
-4.97376062746e-09
2.26900599374e-07
-3.64295337231e-09
2.26970377031e-07
-2.30031383294e-09
2.27032495952e-07
-9.85874910112e-10
2.27082579528e-07
2.6742278267e-10
2.27120770513e-07
1.45320030644e-09
2.27148279498e-07
2.56161741822e-09
2.27169140019e-07
3.602063535e-09
2.27190905324e-07
4.587190976e-09
2.27217351578e-07
5.52723818846e-09
2.27251205743e-07
6.42869643946e-09
2.27293973098e-07
7.29580386016e-09
2.27346467057e-07
8.13063326002e-09
2.2740905984e-07
8.9340739582e-09
2.27481878166e-07
9.70589863521e-09
2.27564900667e-07
1.04452249137e-08
2.27658035435e-07
1.11505917893e-08
2.27761143281e-07
1.18201127833e-08
2.27874065988e-07
1.24516181864e-08
2.27996621236e-07
1.30426423067e-08
2.2812861312e-07
1.35906304139e-08
2.28269817711e-07
1.40928421532e-08
2.28419987933e-07
1.4546596837e-08
2.28578836686e-07
1.49491418128e-08
2.28746040445e-07
1.52979066014e-08
2.28921222263e-07
1.55903674906e-08
2.29103955292e-07
1.58242862892e-08
2.29293746176e-07
1.59975921595e-08
2.29490038347e-07
1.61085893625e-08
2.29692195635e-07
1.6155871661e-08
2.29899504485e-07
1.61385673478e-08
2.30111157821e-07
1.60563324662e-08
2.30326271984e-07
1.59088303225e-08
2.30543889233e-07
1.56963789273e-08
2.30762906038e-07
1.5419882394e-08
2.30982050753e-07
1.50808335263e-08
2.31199885654e-07
1.46813039468e-08
2.31414779764e-07
1.42240005185e-08
2.31624894808e-07
1.37121644073e-08
2.31828161945e-07
1.31496152782e-08
2.32022275696e-07
1.2540521526e-08
2.32204690011e-07
1.18893880769e-08
2.3237264258e-07
1.12006730487e-08
2.32523199123e-07
1.04787211954e-08
2.3265334094e-07
9.72729615363e-09
2.32760088545e-07
8.94961103542e-09
2.32840672332e-07
8.14804053457e-09
2.32892731125e-07
7.32459506681e-09
2.3291452642e-07
6.48122898935e-09
2.3290513483e-07
5.62108350126e-09
2.32864592872e-07
4.74956774135e-09
2.32793962643e-07
3.87617772157e-09
2.32695317156e-07
3.01588918504e-09
2.32571677513e-07
2.19082826781e-09
2.32426949167e-07
1.43191946967e-09
2.32265934276e-07
7.83786857672e-10
2.32094474012e-07
3.1140444523e-10
2.31919609966e-07
-5.01078650072e-09
2.31745381776e-07
2.31645393989e-07
-4.88722664364e-09
2.30949244998e-07
-1.37739797186e-09
2.30979082666e-07
-2.075385967e-09
2.31042018283e-07
-2.80420394038e-09
2.31127702616e-07
-3.57981592833e-09
2.31237793422e-07
-4.40735742316e-09
2.31371611372e-07
-5.29728171141e-09
2.3152803534e-07
-6.25060576723e-09
2.31705641292e-07
-7.27348912983e-09
2.31902594299e-07
-8.36280913213e-09
2.32116676405e-07
-9.52054654195e-09
2.32345182847e-07
-1.07402989308e-08
2.32584860843e-07
-1.20208853285e-08
2.32831877617e-07
-1.33537778223e-08
2.330818778e-07
-1.4735715685e-08
2.33329997122e-07
-1.61571775186e-08
2.33571006002e-07
-1.76139293829e-08
2.33799419809e-07
-1.90963784728e-08
2.34009697863e-07
-2.06001608285e-08
2.3419642759e-07
-2.21161594027e-08
2.34354537361e-07
-2.36402958366e-08
2.34479501485e-07
-2.51640423768e-08
2.34567508778e-07
-2.66835981229e-08
2.34615626711e-07
-2.81907946772e-08
2.34621871344e-07
-2.96818383024e-08
2.34585284974e-07
-3.11485673146e-08
2.34505882261e-07
-3.25869192759e-08
2.34384634274e-07
-3.39885224302e-08
2.34223308305e-07
-3.53489937682e-08
2.34024390627e-07
-3.6659832166e-08
2.33790869117e-07
-3.79165762823e-08
2.33526145886e-07
-3.91109443794e-08
2.33233815864e-07
-4.0238821596e-08
2.329176106e-07
-4.12925951273e-08
2.32581206932e-07
-4.22689169918e-08
2.32228219925e-07
-4.31612186599e-08
2.3186205191e-07
-4.39672007636e-08
2.3148593159e-07
-4.46815549911e-08
2.31102798152e-07
-4.53031395761e-08
2.30715374177e-07
-4.58279682452e-08
2.30326074532e-07
-4.62560326152e-08
2.29937099367e-07
-4.65846313246e-08
2.29550358759e-07
-4.68147763083e-08
2.29167574987e-07
-4.69437144789e-08
2.28790217292e-07
-4.69726301486e-08
2.28419536606e-07
-4.69016925443e-08
2.28056698428e-07
-4.67345235768e-08
2.27702854524e-07
-4.64714967378e-08
2.27358820279e-07
-4.61157506893e-08
2.27025362323e-07
-4.56684871468e-08
2.26703138031e-07
-4.5133331349e-08
2.26392781119e-07
-4.45122202323e-08
2.26094844376e-07
-4.38091821171e-08
2.25809876681e-07
-4.30268219668e-08
2.25538366188e-07
-4.21695100463e-08
2.25280808171e-07
-4.12404545817e-08
2.25037648547e-07
-4.02443078403e-08
2.24809343013e-07
-3.91848059326e-08
2.24596301206e-07
-3.8066813083e-08
2.24398938013e-07
-3.68944986098e-08
2.24217618808e-07
-3.56728489542e-08
2.24052703808e-07
-3.44063466643e-08
2.23904494654e-07
-3.30999846793e-08
2.23773272767e-07
-3.17584104848e-08
2.23659247496e-07
-3.03864784777e-08
2.23562589238e-07
-2.8988825437e-08
2.23483379183e-07
-2.7569995179e-08
2.23421637948e-07
-2.61344171394e-08
2.23377276929e-07
-2.46861340106e-08
2.233501233e-07
-2.32291622856e-08
2.23339872917e-07
-2.17668487996e-08
2.23346112678e-07
-2.03025941166e-08
2.23368274863e-07
-1.88388562713e-08
2.2340565738e-07
-1.73782112375e-08
2.23457377642e-07
-1.59220148882e-08
2.23522388467e-07
-1.44717598659e-08
2.23599425484e-07
-1.30274131851e-08
2.23687011313e-07
-1.1589022591e-08
2.23783385148e-07
-1.01548098438e-08
2.23886484143e-07
-8.72307737106e-09
2.23993845387e-07
-7.29053139362e-09
2.24102566421e-07
-5.85539810289e-09
2.24209223858e-07
-4.41795088226e-09
2.24309984844e-07
-2.98627599123e-09
2.2440094781e-07
-1.58500088827e-09
2.24479015932e-07
-2.44845541317e-10
2.2454512301e-07
1.03533720926e-09
2.24601190994e-07
2.25585423962e-09
2.24648209877e-07
3.40782387274e-09
2.24690859066e-07
4.49700470607e-09
2.24734947035e-07
5.52901200809e-09
2.24783788365e-07
6.50837504608e-09
2.24840121803e-07
7.43879272151e-09
2.24906013683e-07
8.32268303467e-09
2.24982999995e-07
9.1618070608e-09
2.2507221065e-07
9.95710210717e-09
2.25174446596e-07
1.07090283886e-08
2.25290254915e-07
1.1417538481e-08
2.25419965723e-07
1.20822045485e-08
2.25563735468e-07
1.27023003168e-08
2.25721563484e-07
1.32767880248e-08
2.25893319256e-07
1.38044853121e-08
2.26078747877e-07
1.4283972169e-08
2.26277488819e-07
1.47138102925e-08
2.264890749e-07
1.50924119845e-08
2.26712946177e-07
1.54182808928e-08
2.26948444728e-07
1.56898723759e-08
2.27194825057e-07
1.59058297612e-08
2.27451245509e-07
1.60648568254e-08
2.2771677535e-07
1.61659293601e-08
2.2799038298e-07
1.62081924559e-08
2.2827093967e-07
1.61912747444e-08
2.28557205791e-07
1.61153090694e-08
2.28847844287e-07
1.59801322531e-08
2.29141434832e-07
1.57861373239e-08
2.29436399285e-07
1.55342400937e-08
2.29730955314e-07
1.5225784019e-08
2.3002312563e-07
1.4862531793e-08
2.30310711132e-07
1.4446684731e-08
2.30591277527e-07
1.39807712912e-08
2.30862135841e-07
1.34676516562e-08
2.31120342498e-07
1.29102781641e-08
2.3136270618e-07
1.2311659112e-08
2.31585825593e-07
1.16744901905e-08
2.31786151221e-07
1.10011088437e-08
2.31960090417e-07
1.02930932517e-08
2.32104148312e-07
9.55137360195e-09
2.32215110173e-07
8.77605715698e-09
2.32290246151e-07
7.9670040913e-09
2.32327523133e-07
7.12423118121e-09
2.32325791371e-07
6.24919802744e-09
2.3228491916e-07
5.34589443518e-09
2.32205855591e-07
4.42264074757e-09
2.32090629619e-07
3.49339169215e-09
2.31942311232e-07
2.57919662179e-09
2.31765038271e-07
1.70922907213e-09
2.3156422368e-07
9.2369470589e-10
2.31347087969e-07
2.74768262423e-10
2.31123524842e-07
-4.93817002813e-09
2.30904462215e-07
2.30807590995e-07
-4.94899447031e-09
2.31831846025e-07
-1.46043530082e-09
2.3186498939e-07
-2.22150861008e-09
2.31941583709e-07
-3.01320954909e-09
2.3204878375e-07
-3.85211369919e-09
2.3218817759e-07
-4.74416522113e-09
2.32358725659e-07
-5.69966536448e-09
2.32558875916e-07
-6.71956908922e-09
2.32786536333e-07
-7.8095425844e-09
2.33039182369e-07
-8.96610699862e-09
2.33313697545e-07
-1.01906685178e-08
2.33606321785e-07
-1.14762904757e-08
2.33912657016e-07
-1.28209013028e-08
2.34227634605e-07
-1.4215225346e-08
2.34545546734e-07
-1.56549914204e-08
2.34860155123e-07
-1.71298335944e-08
2.35164802477e-07
-1.86346053171e-08
2.35452621272e-07
-2.01590038989e-08
2.35716717651e-07
-2.16980795573e-08
2.35950446369e-07
-2.32423542212e-08
2.36147613554e-07
-2.47876494149e-08
2.36302759548e-07
-2.63255337619e-08
2.36411310292e-07
-2.78526221056e-08
2.36469800641e-07
-2.93612715575e-08
2.36475911873e-07
-3.08485224862e-08
2.36428587432e-07
-3.2307032515e-08
2.36327929302e-07
-3.37338197376e-08
2.36175201302e-07
-3.51214504758e-08
2.35972606179e-07
-3.6466689667e-08
2.35723216501e-07
-3.77619364626e-08
2.3543069008e-07
-3.90038035881e-08
2.35099188252e-07
-4.01847642033e-08
2.34733091051e-07
-4.13016150562e-08
2.34336951007e-07
-4.23472964801e-08
2.33915247378e-07
-4.33191681717e-08
2.33472395779e-07
-4.42109979731e-08
2.33012553139e-07
-4.50209828657e-08
2.32539679731e-07
-4.5743945144e-08
2.3205738853e-07
-4.63790402667e-08
2.31569044601e-07
-4.69222310935e-08
2.31077646536e-07
-4.73736263917e-08
2.30585947015e-07
-4.77303172316e-08
2.30096355346e-07
-4.79932757002e-08
2.29611064891e-07
-4.81598256786e-08
2.29131963575e-07
-4.8230081309e-08
2.28660593525e-07
-4.8203341524e-08
2.2819852689e-07
-4.80839718011e-08
2.27747296059e-07
-4.78718467218e-08
2.27308014627e-07
-4.75697401278e-08
2.2688174235e-07
-4.71783018923e-08
2.26469409723e-07
-4.67007187502e-08
2.26071915835e-07
-4.61383287946e-08
2.25690063745e-07
-4.54946540946e-08
2.25324647865e-07
-4.47716621962e-08
2.24976389365e-07
-4.39731595524e-08
2.24646010939e-07
-4.3101686427e-08
2.24334173053e-07
-4.21612840288e-08
2.24041537575e-07
-4.11549982184e-08
2.23768704773e-07
-4.00870468258e-08
2.23516267291e-07
-3.89608968805e-08
2.23284747929e-07
-3.77808682043e-08
2.23074645552e-07
-3.65507431073e-08
2.22886373546e-07
-3.52748478868e-08
2.2272029926e-07
-3.39571520661e-08
2.22576683098e-07
-3.26018709815e-08
2.22455712941e-07
-3.12130143964e-08
2.22357443741e-07
-2.97945519478e-08
2.22281828465e-07
-2.83503760092e-08
2.2222865829e-07
-2.68840685147e-08
2.22197591702e-07
-2.53992494923e-08
2.221880957e-07
-2.3898979275e-08
2.22199475213e-07
-2.23864666158e-08
2.22230816143e-07
-2.08641350803e-08
2.22281017226e-07
-1.93346611566e-08
2.22348735084e-07
-1.77997309756e-08
2.22432419361e-07
-1.62613715092e-08
2.22530257716e-07
-1.47204392173e-08
2.2264021212e-07
-1.31782175886e-08
2.22759960191e-07
-1.16347563628e-08
2.22886931936e-07
-1.00908199897e-08
2.23018253708e-07
-8.5464948711e-09
2.23150810189e-07
-7.00398261708e-09
2.23281259184e-07
-5.46730118419e-09
2.23406259438e-07
-3.94599063963e-09
2.23522800039e-07
-2.4524146274e-09
2.23628924771e-07
-1.01598335501e-09
2.23723583203e-07
3.54010726985e-10
2.2381165074e-07
1.66934601235e-09
2.23893467981e-07
2.92444696019e-09
2.2396891281e-07
4.11273252297e-09
2.24043912182e-07
5.23725701226e-09
2.24122110638e-07
6.30028419642e-09
2.24206507797e-07
7.30428507609e-09
2.24299630212e-07
8.25112939458e-09
2.24403562095e-07
9.14255889438e-09
2.24519998315e-07
9.9798399486e-09
2.2465027457e-07
1.07640380902e-08
2.24795421262e-07
1.14958802171e-08
2.24956178365e-07
1.21758609526e-08
2.2513304259e-07
1.28042511693e-08
2.25326271797e-07
1.33810815671e-08
2.25535925308e-07
1.39062555748e-08
2.25761862671e-07
1.43794566407e-08
2.26003777468e-07
1.4800329057e-08
2.26261192133e-07
1.51683453634e-08
2.26533486809e-07
1.54830217427e-08
2.26819890821e-07
1.57437732231e-08
2.27119506922e-07
1.595013554e-08
2.27431299204e-07
1.61016281658e-08
2.27754112337e-07
1.6197958936e-08
2.28086655596e-07
1.62389090318e-08
2.28427516855e-07
1.62247056342e-08
2.28775143527e-07
1.61561105305e-08
2.29127859479e-07
1.60332467139e-08
2.29483893803e-07
1.58566178479e-08
2.29841322505e-07
1.56272436023e-08
2.30197978273e-07
1.53464170352e-08
2.30551483897e-07
1.50156876938e-08
2.30899222593e-07
1.46368578866e-08
2.31238334678e-07
1.42118586299e-08
2.31565698724e-07
1.37427360629e-08
2.31877944813e-07
1.32314035089e-08
2.32171465997e-07
1.26796055331e-08
2.3244247133e-07
1.20885610029e-08
2.3268705311e-07
1.14589507775e-08
2.32901303748e-07
1.07905571867e-08
2.33081454712e-07
1.00824360452e-08
2.3322405784e-07
9.33279030015e-09
2.33326173373e-07
8.53959220769e-09
2.33385564764e-07
7.70098760571e-09
2.3340085729e-07
6.81656351362e-09
2.33371654942e-07
5.88839007252e-09
2.33298590107e-07
4.92275583871e-09
2.33183328661e-07
3.93149620212e-09
2.33028588555e-07
2.93348684343e-09
2.32838264514e-07
1.95553270867e-09
2.32617831021e-07
1.03369268715e-09
2.32375268563e-07
2.14440723316e-10
2.32122705065e-07
-4.77884587973e-09
2.31876046431e-07
2.31776542001e-07
-5.01707467119e-09
2.32502546651e-07
-1.54073813817e-09
2.32542957032e-07
-2.35901994023e-09
2.32634979929e-07
-3.2088493186e-09
2.32765606565e-07
-4.10654139795e-09
2.32936270811e-07
-5.0584791194e-09
2.33145436875e-07
-6.07516501705e-09
2.33390951022e-07
-7.15731881429e-09
2.3367005928e-07
-8.31034086516e-09
2.33979284434e-07
-9.53055922234e-09
2.34314464221e-07
-1.08187356327e-08
2.34670725625e-07
-1.2167465637e-08
2.35042393266e-07
-1.35739106528e-08
2.35423056357e-07
-1.50280957211e-08
2.35805628957e-07
-1.65248849226e-08
2.36182469326e-07
-1.80531581918e-08
2.36545557395e-07
-1.96069974935e-08
2.36886715441e-07
-2.11754934868e-08
2.37197854935e-07
-2.2753222454e-08
2.37471260005e-07
-2.43304194472e-08
2.37699842717e-07
-2.59028578708e-08
2.3787742144e-07
-2.74622132829e-08
2.37998910184e-07
-2.90054881543e-08
2.38060519898e-07
-3.05254983545e-08
2.38059818285e-07
-3.20200123453e-08
2.37995806394e-07
-3.34823763411e-08
2.37868824693e-07
-3.49105295922e-08
2.37680505254e-07
-3.62978116963e-08
2.37433552307e-07
-3.76419553462e-08
2.37131617161e-07
-3.89360928856e-08
2.36779017763e-07
-4.01777373958e-08
2.36380602514e-07
-4.13599692275e-08
2.3594147528e-07
-4.24803445982e-08
2.35466899715e-07
-4.35322389961e-08
2.34962071072e-07
-4.45135943673e-08
2.34432082354e-07
-4.54184280298e-08
2.33881754359e-07
-4.62453330248e-08
2.33315659255e-07
-4.69892035683e-08
2.32738000915e-07
-4.76494129614e-08
2.32152679421e-07
-4.82218368713e-08
2.31563207287e-07
-4.87066365986e-08
2.3097279699e-07
-4.91006782163e-08
2.30384300019e-07
-4.9404862112e-08
2.29800306064e-07
-4.96171819641e-08
2.29223090222e-07
-4.97359116706e-08
2.28654366259e-07
-4.97593372022e-08
2.28096138485e-07
-4.96928482826e-08
2.27550229428e-07
-4.95358311617e-08
2.27018021657e-07
-4.92906850978e-08
2.26500829907e-07
-4.89575401091e-08
2.25999830893e-07
-4.8539129343e-08
2.25516143327e-07
-4.80362213265e-08
2.25050795933e-07
-4.7451824179e-08
2.24604786517e-07
-4.67873039902e-08
2.24179045142e-07
-4.60459073824e-08
2.23774482401e-07
-4.52295516212e-08
2.23391950177e-07
-4.43416862702e-08
2.23032280431e-07
-4.3384723998e-08
2.22696243398e-07
-4.23622750374e-08
2.22384578674e-07
-4.12771767609e-08
2.22097950954e-07
-4.01331446698e-08
2.21836975247e-07
-3.89333527721e-08
2.21602170336e-07
-3.76815503483e-08
2.21393979847e-07
-3.63811436651e-08
2.21212723663e-07
-3.50358291307e-08
2.21058616498e-07
-3.36491293188e-08
2.20931717634e-07
-3.22245913709e-08
2.20831948601e-07
-3.0765735635e-08
2.20759041821e-07
-2.92758643554e-08
2.20712559297e-07
-2.77583869322e-08
2.20691841213e-07
-2.62162796615e-08
2.20696027904e-07
-2.465275485e-08
2.2072401007e-07
-2.30704079957e-08
2.2077445673e-07
-2.14721964913e-08
2.20845768762e-07
-1.98603111181e-08
2.2093611488e-07
-1.82374285089e-08
2.21043389434e-07
-1.6605361964e-08
2.21165257556e-07
-1.49665686995e-08
2.2129911881e-07
-1.33227046699e-08
2.21442166483e-07
-1.16764512569e-08
2.21591371117e-07
-1.00302661096e-08
2.21743584019e-07
-8.38872082139e-09
2.21895601411e-07
-6.7576877318e-09
2.22044409149e-07
-5.1465632712e-09
2.2218745287e-07
-3.56675400309e-09
2.2232304527e-07
-2.03011383829e-09
2.22450919046e-07
-5.63656361903e-10
2.22571228508e-07
8.36402530014e-10
2.22690494127e-07
2.18439082739e-09
2.22807529698e-07
3.46694938783e-09
2.22921298009e-07
4.68140636637e-09
2.23038606831e-07
5.8286135866e-09
2.23161826477e-07
6.90976501416e-09
2.23293647172e-07
7.92599254535e-09
2.23436281008e-07
8.87867164958e-09
2.23591658139e-07
9.76899925617e-09
2.23761336141e-07
1.05982200614e-08
2.23946585461e-07
1.13674121322e-08
2.24148364452e-07
1.20775887347e-08
2.24367360593e-07
1.27296427285e-08
2.24603991161e-07
1.3324333533e-08