/*--------------------------------*- C++ -*----------------------------------*\
| =========                 |                                                 |
| \\      /  F ield         | OpenFOAM: The Open Source CFD Toolbox           |
|  \\    /   O peration     | Version:  2212                                  |
|   \\  /    A nd           | Website:  www.openfoam.com                      |
|    \\/     M anipulation  |                                                 |
\*---------------------------------------------------------------------------*/
FoamFile
{
    version     2.0;
    format      ascii;
    arch        "LSB;label=64;scalar=64";
    class       volScalarField;
    location    "1580";
    object      Gh2;
}
// * * * * * * * * * * * * * * * * * * * * * * * * * * * * * * * * * * * * * //

dimensions      [1 -3 0 0 0 0 0];

internalField   nonuniform List<scalar> 
1024
(
1.28318e-05
1.2831e-05
1.28291e-05
1.28257e-05
1.28201e-05
1.2812e-05
1.28009e-05
1.27867e-05
1.27697e-05
1.27507e-05
1.27304e-05
1.27097e-05
1.26885e-05
1.26659e-05
1.26407e-05
1.26139e-05
1.25935e-05
1.25889e-05
1.25993e-05
1.26213e-05
1.26516e-05
1.26867e-05
1.27232e-05
1.27579e-05
1.27883e-05
1.28131e-05
1.28321e-05
1.28457e-05
1.28548e-05
1.28605e-05
1.28636e-05
1.28649e-05
1.28314e-05
1.28306e-05
1.28287e-05
1.28252e-05
1.28196e-05
1.28113e-05
1.28001e-05
1.27857e-05
1.27686e-05
1.27494e-05
1.27291e-05
1.27084e-05
1.26872e-05
1.26646e-05
1.26393e-05
1.26122e-05
1.25917e-05
1.2587e-05
1.25974e-05
1.26195e-05
1.26497e-05
1.26849e-05
1.27216e-05
1.27565e-05
1.27872e-05
1.28122e-05
1.28314e-05
1.28452e-05
1.28545e-05
1.28602e-05
1.28633e-05
1.28646e-05
1.28304e-05
1.28296e-05
1.28276e-05
1.2824e-05
1.28183e-05
1.28098e-05
1.27982e-05
1.27835e-05
1.27659e-05
1.27463e-05
1.27258e-05
1.2705e-05
1.26838e-05
1.26611e-05
1.26356e-05
1.26081e-05
1.25871e-05
1.25823e-05
1.2593e-05
1.26153e-05
1.26458e-05
1.26812e-05
1.27182e-05
1.27536e-05
1.27848e-05
1.28103e-05
1.283e-05
1.28441e-05
1.28536e-05
1.28595e-05
1.28627e-05
1.2864e-05
1.28286e-05
1.28278e-05
1.28258e-05
1.2822e-05
1.2816e-05
1.28071e-05
1.2795e-05
1.27795e-05
1.27612e-05
1.27408e-05
1.27197e-05
1.26986e-05
1.26774e-05
1.26546e-05
1.26286e-05
1.26003e-05
1.25786e-05
1.25739e-05
1.25852e-05
1.26083e-05
1.26395e-05
1.26755e-05
1.2713e-05
1.27491e-05
1.27811e-05
1.28074e-05
1.28277e-05
1.28423e-05
1.28521e-05
1.28582e-05
1.28615e-05
1.28628e-05
1.28257e-05
1.28249e-05
1.28228e-05
1.28188e-05
1.28124e-05
1.28029e-05
1.279e-05
1.27734e-05
1.27538e-05
1.2732e-05
1.27098e-05
1.26881e-05
1.26667e-05
1.26436e-05
1.26168e-05
1.25872e-05
1.25645e-05
1.25602e-05
1.25731e-05
1.2598e-05
1.26307e-05
1.26678e-05
1.27063e-05
1.27433e-05
1.27762e-05
1.28035e-05
1.28245e-05
1.28397e-05
1.285e-05
1.28563e-05
1.28597e-05
1.28611e-05
1.28213e-05
1.28204e-05
1.28182e-05
1.2814e-05
1.28072e-05
1.27969e-05
1.27828e-05
1.27646e-05
1.27429e-05
1.2719e-05
1.26949e-05
1.26721e-05
1.26501e-05
1.26265e-05
1.25984e-05
1.25668e-05
1.2543e-05
1.25398e-05
1.25556e-05
1.25838e-05
1.26194e-05
1.26585e-05
1.26985e-05
1.27367e-05
1.27708e-05
1.2799e-05
1.28208e-05
1.28365e-05
1.28471e-05
1.28536e-05
1.28572e-05
1.28586e-05
1.28149e-05
1.2814e-05
1.28116e-05
1.28072e-05
1.27997e-05
1.27884e-05
1.27726e-05
1.27521e-05
1.27276e-05
1.27006e-05
1.26737e-05
1.26489e-05
1.26258e-05
1.2601e-05
1.2571e-05
1.25369e-05
1.25119e-05
1.2511e-05
1.25315e-05
1.25653e-05
1.26055e-05
1.2648e-05
1.26903e-05
1.27301e-05
1.27652e-05
1.27943e-05
1.28167e-05
1.28328e-05
1.28436e-05
1.28502e-05
1.28538e-05
1.28552e-05
1.28056e-05
1.28047e-05
1.28022e-05
1.27974e-05
1.27892e-05
1.27766e-05
1.27587e-05
1.27352e-05
1.27068e-05
1.26756e-05
1.26449e-05
1.26171e-05
1.25917e-05
1.25647e-05
1.2532e-05
1.24948e-05
1.24694e-05
1.24724e-05
1.25e-05
1.25417e-05
1.25889e-05
1.26365e-05
1.26821e-05
1.27239e-05
1.27601e-05
1.27898e-05
1.28124e-05
1.28286e-05
1.28393e-05
1.28457e-05
1.28491e-05
1.28505e-05
1.27925e-05
1.27915e-05
1.27889e-05
1.27836e-05
1.27745e-05
1.27603e-05
1.27397e-05
1.27124e-05
1.26793e-05
1.26429e-05
1.26072e-05
1.2575e-05
1.25458e-05
1.25152e-05
1.24786e-05
1.24385e-05
1.24137e-05
1.24226e-05
1.24596e-05
1.25119e-05
1.25687e-05
1.26235e-05
1.26737e-05
1.2718e-05
1.27554e-05
1.27852e-05
1.28075e-05
1.28231e-05
1.28332e-05
1.28392e-05
1.28422e-05
1.28434e-05
1.27742e-05
1.27732e-05
1.27703e-05
1.27644e-05
1.27542e-05
1.27379e-05
1.27142e-05
1.26824e-05
1.26436e-05
1.2601e-05
1.2559e-05
1.2521e-05
1.24863e-05
1.24502e-05
1.24087e-05
1.23661e-05
1.23434e-05
1.23594e-05
1.24071e-05
1.24719e-05
1.25409e-05
1.26054e-05
1.2662e-05
1.27098e-05
1.27484e-05
1.27781e-05
1.27995e-05
1.28139e-05
1.28228e-05
1.28277e-05
1.283e-05
1.28308e-05
1.2749e-05
1.27479e-05
1.27447e-05
1.27381e-05
1.27264e-05
1.27077e-05
1.26802e-05
1.26432e-05
1.25979e-05
1.25482e-05
1.24989e-05
1.24536e-05
1.24114e-05
1.23683e-05
1.23213e-05
1.22766e-05
1.22562e-05
1.22778e-05
1.2334e-05
1.24104e-05
1.24925e-05
1.25695e-05
1.26356e-05
1.26891e-05
1.27304e-05
1.27604e-05
1.27808e-05
1.27935e-05
1.28005e-05
1.28037e-05
1.28048e-05
1.2805e-05
1.27157e-05
1.27144e-05
1.27107e-05
1.27031e-05
1.26895e-05
1.26678e-05
1.26358e-05
1.25929e-05
1.25405e-05
1.24829e-05
1.24254e-05
1.23717e-05
1.23209e-05
1.22696e-05
1.22168e-05
1.21696e-05
1.21482e-05
1.21682e-05
1.22244e-05
1.23049e-05
1.23963e-05
1.24862e-05
1.25654e-05
1.26291e-05
1.2677e-05
1.27103e-05
1.27312e-05
1.27428e-05
1.2748e-05
1.27494e-05
1.2749e-05
1.27484e-05
1.26737e-05
1.26722e-05
1.26679e-05
1.26591e-05
1.26432e-05
1.26179e-05
1.25809e-05
1.25315e-05
1.24718e-05
1.24063e-05
1.23405e-05
1.22778e-05
1.22179e-05
1.21582e-05
1.2099e-05
1.20464e-05
1.20162e-05
1.20213e-05
1.20609e-05
1.21282e-05
1.22138e-05
1.23066e-05
1.23959e-05
1.24735e-05
1.25349e-05
1.25789e-05
1.26068e-05
1.26218e-05
1.2628e-05
1.26291e-05
1.26281e-05
1.26271e-05
1.26251e-05
1.26234e-05
1.26185e-05
1.26084e-05
1.25903e-05
1.25615e-05
1.25199e-05
1.24648e-05
1.23984e-05
1.23255e-05
1.22515e-05
1.21802e-05
1.21117e-05
1.20446e-05
1.19789e-05
1.1918e-05
1.18716e-05
1.1849e-05
1.18535e-05
1.18838e-05
1.1937e-05
1.20069e-05
1.2086e-05
1.21657e-05
1.22382e-05
1.22981e-05
1.23422e-05
1.23706e-05
1.23863e-05
1.23932e-05
1.23951e-05
1.2395e-05
1.25738e-05
1.2572e-05
1.25668e-05
1.25559e-05
1.25364e-05
1.25054e-05
1.24607e-05
1.24016e-05
1.23304e-05
1.22517e-05
1.21713e-05
1.20934e-05
1.20194e-05
1.19487e-05
1.1881e-05
1.18165e-05
1.17583e-05
1.17102e-05
1.16755e-05
1.1657e-05
1.16572e-05
1.16766e-05
1.17136e-05
1.17642e-05
1.18224e-05
1.18813e-05
1.19342e-05
1.19763e-05
1.20058e-05
1.20234e-05
1.2032e-05
1.20349e-05
1.25249e-05
1.25231e-05
1.25179e-05
1.25071e-05
1.24878e-05
1.2457e-05
1.24123e-05
1.23528e-05
1.22805e-05
1.21998e-05
1.21167e-05
1.20369e-05
1.19635e-05
1.18976e-05
1.18392e-05
1.17868e-05
1.17376e-05
1.16859e-05
1.16313e-05
1.1578e-05
1.15321e-05
1.14986e-05
1.14804e-05
1.14786e-05
1.14918e-05
1.15168e-05
1.15484e-05
1.15806e-05
1.16082e-05
1.16281e-05
1.16398e-05
1.16447e-05
1.24864e-05
1.24848e-05
1.248e-05
1.24701e-05
1.24526e-05
1.24245e-05
1.23834e-05
1.23281e-05
1.22599e-05
1.21826e-05
1.21024e-05
1.20262e-05
1.19594e-05
1.19053e-05
1.18652e-05
1.18377e-05
1.1815e-05
1.1781e-05
1.17294e-05
1.16645e-05
1.15949e-05
1.15287e-05
1.1472e-05
1.14286e-05
1.13998e-05
1.13851e-05
1.13822e-05
1.13877e-05
1.13972e-05
1.14067e-05
1.14136e-05
1.14169e-05
1.24623e-05
1.24607e-05
1.24564e-05
1.24478e-05
1.24326e-05
1.24083e-05
1.23725e-05
1.23237e-05
1.22626e-05
1.21923e-05
1.21185e-05
1.20483e-05
1.19885e-05
1.19443e-05
1.19184e-05
1.19098e-05
1.19088e-05
1.18935e-05
1.1852e-05
1.1786e-05
1.17039e-05
1.16167e-05
1.15344e-05
1.14643e-05
1.14101e-05
1.13722e-05
1.1349e-05
1.13374e-05
1.13339e-05
1.13346e-05
1.13366e-05
1.13379e-05
1.24495e-05
1.2448e-05
1.24441e-05
1.24366e-05
1.24235e-05
1.24028e-05
1.23723e-05
1.23305e-05
1.22773e-05
1.22151e-05
1.21488e-05
1.2085e-05
1.20308e-05
1.19923e-05
1.19728e-05
1.1972e-05
1.19798e-05
1.19739e-05
1.19411e-05
1.18796e-05
1.17946e-05
1.16956e-05
1.15946e-05
1.15023e-05
1.14264e-05
1.13698e-05
1.1332e-05
1.13099e-05
1.12993e-05
1.12959e-05
1.12958e-05
1.12965e-05
1.24438e-05
1.24424e-05
1.2439e-05
1.24324e-05
1.24212e-05
1.24036e-05
1.23778e-05
1.23423e-05
1.22969e-05
1.22431e-05
1.21848e-05
1.21278e-05
1.20785e-05
1.20428e-05
1.20243e-05
1.20228e-05
1.20286e-05
1.20223e-05
1.19924e-05
1.19356e-05
1.18537e-05
1.1753e-05
1.16438e-05
1.15379e-05
1.14453e-05
1.13722e-05
1.13204e-05
1.1288e-05
1.12708e-05
1.12637e-05
1.12622e-05
1.12624e-05
1.24414e-05
1.24403e-05
1.24374e-05
1.24318e-05
1.24223e-05
1.24076e-05
1.23859e-05
1.23561e-05
1.23178e-05
1.2272e-05
1.22217e-05
1.21714e-05
1.21266e-05
1.2092e-05
1.20708e-05
1.20625e-05
1.20587e-05
1.20446e-05
1.20118e-05
1.19566e-05
1.18789e-05
1.1782e-05
1.1673e-05
1.15622e-05
1.146e-05
1.13751e-05
1.13116e-05
1.12696e-05
1.12457e-05
1.12348e-05
1.12317e-05
1.12316e-05
1.24376e-05
1.24369e-05
1.2435e-05
1.24309e-05
1.24236e-05
1.24117e-05
1.23939e-05
1.23692e-05
1.23371e-05
1.22985e-05
1.22554e-05
1.2211e-05
1.21692e-05
1.21337e-05
1.21066e-05
1.20869e-05
1.20687e-05
1.20428e-05
1.2004e-05
1.19485e-05
1.18748e-05
1.17839e-05
1.16805e-05
1.1572e-05
1.14676e-05
1.13761e-05
1.13041e-05
1.12538e-05
1.12235e-05
1.12088e-05
1.12039e-05
1.12034e-05
1.24262e-05
1.24263e-05
1.2426e-05
1.24243e-05
1.242e-05
1.24117e-05
1.2398e-05
1.2378e-05
1.23512e-05
1.2318e-05
1.22799e-05
1.22389e-05
1.21976e-05
1.21582e-05
1.21222e-05
1.20885e-05
1.2054e-05
1.20158e-05
1.19708e-05
1.19151e-05
1.18461e-05
1.17631e-05
1.16682e-05
1.15668e-05
1.14659e-05
1.13735e-05
1.12967e-05
1.12401e-05
1.12041e-05
1.11854e-05
1.11786e-05
1.11776e-05
1.24004e-05
1.24017e-05
1.24039e-05
1.24056e-05
1.24054e-05
1.24014e-05
1.23919e-05
1.23758e-05
1.23524e-05
1.23221e-05
1.22856e-05
1.22442e-05
1.21996e-05
1.21536e-05
1.21072e-05
1.20595e-05
1.20108e-05
1.19626e-05
1.19135e-05
1.18592e-05
1.17963e-05
1.17227e-05
1.16388e-05
1.15475e-05
1.14543e-05
1.13655e-05
1.1288e-05
1.12276e-05
1.11869e-05
1.11644e-05
1.11556e-05
1.1154e-05
1.23539e-05
1.23569e-05
1.23622e-05
1.23679e-05
1.2372e-05
1.2372e-05
1.23657e-05
1.23516e-05
1.23289e-05
1.22978e-05
1.22591e-05
1.22139e-05
1.21638e-05
1.21104e-05
1.20547e-05
1.19964e-05
1.19381e-05
1.18845e-05
1.18346e-05
1.17838e-05
1.17283e-05
1.16654e-05
1.15938e-05
1.15151e-05
1.14324e-05
1.13509e-05
1.12765e-05
1.12153e-05
1.11715e-05
1.11458e-05
1.11348e-05
1.11326e-05
1.22825e-05
1.22875e-05
1.22957e-05
1.23045e-05
1.23111e-05
1.23127e-05
1.23068e-05
1.22915e-05
1.22664e-05
1.22317e-05
1.21887e-05
1.21388e-05
1.20837e-05
1.20252e-05
1.19642e-05
1.19009e-05
1.18393e-05
1.17853e-05
1.17379e-05
1.16926e-05
1.16455e-05
1.15936e-05
1.15351e-05
1.14701e-05
1.14002e-05
1.13288e-05
1.12608e-05
1.12019e-05
1.11571e-05
1.11291e-05
1.11162e-05
1.11133e-05
1.21838e-05
1.21906e-05
1.22004e-05
1.22094e-05
1.22143e-05
1.2213e-05
1.22035e-05
1.21841e-05
1.21547e-05
1.21161e-05
1.20699e-05
1.20176e-05
1.19611e-05
1.1902e-05
1.18415e-05
1.17796e-05
1.17208e-05
1.16708e-05
1.16287e-05
1.15903e-05
1.15519e-05
1.15108e-05
1.1465e-05
1.14138e-05
1.13577e-05
1.12986e-05
1.12398e-05
1.11861e-05
1.11429e-05
1.1114e-05
1.10996e-05
1.10959e-05
1.20564e-05
1.20644e-05
1.20728e-05
1.20768e-05
1.20749e-05
1.20663e-05
1.20502e-05
1.20258e-05
1.19934e-05
1.19537e-05
1.1908e-05
1.1858e-05
1.18053e-05
1.17511e-05
1.16965e-05
1.16416e-05
1.15903e-05
1.15476e-05
1.15128e-05
1.14819e-05
1.14521e-05
1.1421e-05
1.13868e-05
1.13486e-05
1.13061e-05
1.12602e-05
1.12126e-05
1.11669e-05
1.11279e-05
1.10999e-05
1.10849e-05
1.10804e-05
1.18988e-05
1.1906e-05
1.19081e-05
1.19024e-05
1.18902e-05
1.18731e-05
1.18514e-05
1.18247e-05
1.1793e-05
1.17568e-05
1.17167e-05
1.16739e-05
1.16297e-05
1.1585e-05
1.15405e-05
1.14964e-05
1.14557e-05
1.14223e-05
1.13955e-05
1.13724e-05
1.13506e-05
1.13284e-05
1.13043e-05
1.12776e-05
1.12476e-05
1.12145e-05
1.11792e-05
1.11435e-05
1.11111e-05
1.10863e-05
1.10717e-05
1.10669e-05
1.17068e-05
1.17096e-05
1.17011e-05
1.16849e-05
1.16651e-05
1.16439e-05
1.16214e-05
1.15973e-05
1.15711e-05
1.15427e-05
1.15123e-05
1.14806e-05
1.14482e-05
1.14158e-05
1.13838e-05
1.13524e-05
1.13237e-05
1.13003e-05
1.12818e-05
1.12661e-05
1.12515e-05
1.1237e-05
1.12215e-05
1.12044e-05
1.11852e-05
1.11637e-05
1.11403e-05
1.11156e-05
1.10919e-05
1.10723e-05
1.10598e-05
1.10551e-05
1.14726e-05
1.14671e-05
1.14507e-05
1.14322e-05
1.14138e-05
1.13963e-05
1.13796e-05
1.13631e-05
1.13463e-05
1.13287e-05
1.13103e-05
1.12913e-05
1.12721e-05
1.1253e-05
1.12343e-05
1.1216e-05
1.11993e-05
1.11858e-05
1.11752e-05
1.11663e-05
1.11582e-05
1.11501e-05
1.11417e-05
1.11324e-05
1.11221e-05
1.11105e-05
1.10976e-05
1.10838e-05
1.10698e-05
1.10574e-05
1.10488e-05
1.10451e-05
1.11867e-05
1.11823e-05
1.11738e-05
1.11657e-05
1.11583e-05
1.11515e-05
1.11454e-05
1.11396e-05
1.11338e-05
1.1128e-05
1.11219e-05
1.11157e-05
1.11094e-05
1.11032e-05
1.10972e-05
1.10913e-05
1.10859e-05
1.10816e-05
1.10782e-05
1.10753e-05
1.10727e-05
1.10702e-05
1.10676e-05
1.10647e-05
1.10615e-05
1.10579e-05
1.1054e-05
1.10496e-05
1.10452e-05
1.1041e-05
1.10379e-05
1.10364e-05
)
;

boundaryField
{
    movingWall
    {
        type            fixedValue;
        value           uniform 1.1032e-05;
    }
    fixedWalls
    {
        type            zeroGradient;
    }
    floor
    {
        type            zeroGradient;
    }
    frontAndBack
    {
        type            empty;
    }
}


// ************************************************************************* //
