/*--------------------------------*- C++ -*----------------------------------*\
| =========                 |                                                 |
| \\      /  F ield         | OpenFOAM: The Open Source CFD Toolbox           |
|  \\    /   O peration     | Version:  2212                                  |
|   \\  /    A nd           | Website:  www.openfoam.com                      |
|    \\/     M anipulation  |                                                 |
\*---------------------------------------------------------------------------*/
FoamFile
{
    version     2.0;
    format      ascii;
    arch        "LSB;label=64;scalar=64";
    class       volScalarField;
    location    "1580";
    object      p_rgh;
}
// * * * * * * * * * * * * * * * * * * * * * * * * * * * * * * * * * * * * * //

dimensions      [0 2 -2 0 0 0 0];

internalField   nonuniform List<scalar> 
1024
(
0.0431944
0.0431934
0.0431924
0.0431926
0.0431948
0.0431997
0.043208
0.0432195
0.0432326
0.0432431
0.0432451
0.0432355
0.0432198
0.0432051
0.0431964
0.043192
0.0431772
0.0431385
0.0430849
0.0430333
0.0429955
0.0429728
0.0429603
0.0429539
0.0429508
0.0429493
0.0429488
0.0429492
0.0429502
0.0429516
0.0429529
0.0429537
0.0431965
0.0431955
0.0431948
0.0431952
0.0431974
0.0432023
0.0432102
0.0432213
0.0432341
0.0432443
0.0432464
0.0432372
0.0432218
0.0432072
0.0431983
0.0431935
0.0431785
0.0431398
0.0430865
0.0430353
0.042998
0.0429755
0.0429631
0.0429567
0.0429534
0.0429518
0.0429512
0.0429513
0.0429521
0.0429532
0.0429543
0.0429551
0.0432002
0.043199
0.0431983
0.043199
0.0432015
0.0432066
0.0432147
0.0432259
0.043239
0.0432493
0.0432515
0.0432423
0.0432269
0.043212
0.043203
0.0431981
0.0431831
0.0431445
0.0430912
0.0430399
0.0430026
0.0429802
0.0429678
0.0429612
0.0429578
0.0429559
0.042955
0.0429547
0.042955
0.0429558
0.0429569
0.0429579
0.0432045
0.0432031
0.0432025
0.0432036
0.0432067
0.0432126
0.0432217
0.0432341
0.0432483
0.0432595
0.0432618
0.0432522
0.043236
0.0432206
0.0432114
0.043207
0.0431924
0.0431537
0.0430998
0.0430477
0.0430097
0.042987
0.0429744
0.0429676
0.0429637
0.0429614
0.0429598
0.042959
0.0429588
0.0429593
0.0429606
0.042962
0.0432087
0.0432074
0.0432069
0.0432086
0.0432129
0.0432204
0.0432315
0.0432462
0.0432626
0.0432751
0.0432775
0.0432672
0.0432499
0.0432337
0.0432248
0.0432214
0.0432075
0.0431684
0.0431131
0.043059
0.0430193
0.0429958
0.0429828
0.0429755
0.042971
0.0429679
0.0429655
0.0429638
0.042963
0.0429632
0.0429646
0.0429664
0.043212
0.0432109
0.043211
0.0432137
0.0432197
0.0432296
0.043244
0.0432621
0.0432814
0.0432954
0.043298
0.0432869
0.0432685
0.0432518
0.0432437
0.0432419
0.0432285
0.0431885
0.0431308
0.0430735
0.0430309
0.043006
0.0429922
0.0429842
0.0429788
0.0429745
0.0429709
0.0429681
0.0429665
0.0429662
0.0429676
0.0429696
0.043214
0.0432133
0.0432142
0.0432183
0.0432266
0.0432399
0.0432585
0.043281
0.0433035
0.043319
0.0433214
0.0433099
0.0432912
0.0432748
0.0432684
0.0432683
0.0432546
0.0432122
0.043151
0.0430893
0.0430426
0.0430159
0.043001
0.0429918
0.042985
0.0429792
0.0429741
0.0429699
0.0429671
0.0429663
0.0429673
0.0429692
0.0432151
0.043215
0.0432168
0.0432224
0.0432334
0.0432508
0.0432745
0.043302
0.0433278
0.0433443
0.043346
0.0433343
0.0433163
0.0433019
0.043298
0.0432989
0.043283
0.0432365
0.0431702
0.0431032
0.0430515
0.0430224
0.0430063
0.0429956
0.042987
0.0429792
0.0429721
0.0429663
0.0429625
0.0429608
0.0429613
0.0429628
0.0432167
0.043217
0.0432198
0.0432271
0.043241
0.0432628
0.043292
0.0433248
0.0433541
0.0433709
0.0433712
0.0433588
0.0433425
0.0433317
0.0433306
0.0433304
0.0433099
0.0432577
0.0431854
0.043112
0.0430544
0.0430223
0.043005
0.0429928
0.0429821
0.0429721
0.042963
0.0429557
0.0429508
0.0429485
0.0429482
0.0429489
0.0432209
0.0432216
0.0432251
0.0432341
0.043251
0.0432775
0.0433126
0.0433509
0.0433831
0.0433993
0.0433975
0.0433843
0.0433698
0.043362
0.043362
0.0433585
0.0433321
0.0432745
0.0431979
0.0431182
0.0430516
0.0430152
0.0429966
0.0429827
0.04297
0.0429579
0.0429473
0.0429391
0.0429337
0.0429308
0.0429298
0.0429298
0.0432304
0.0432312
0.0432355
0.0432462
0.0432665
0.0432984
0.0433397
0.043383
0.0434164
0.0434306
0.0434262
0.0434123
0.0433998
0.0433922
0.0433888
0.0433805
0.0433503
0.0432916
0.0432142
0.0431314
0.0430603
0.0430129
0.0429875
0.042971
0.0429561
0.0429425
0.042931
0.0429225
0.0429171
0.0429141
0.0429127
0.0429121
0.0432473
0.0432482
0.0432533
0.0432664
0.0432914
0.0433301
0.0433786
0.043426
0.0434576
0.0434681
0.0434617
0.0434474
0.0434326
0.043422
0.0434133
0.0433994
0.0433708
0.0433196
0.0432526
0.0431787
0.0431079
0.0430464
0.0430001
0.0429759
0.0429563
0.0429398
0.0429267
0.0429175
0.042912
0.0429093
0.0429081
0.0429075
0.0432721
0.0432731
0.0432793
0.0432959
0.0433268
0.0433729
0.0434273
0.0434756
0.0435042
0.04351
0.0435009
0.0434854
0.0434694
0.0434553
0.0434413
0.0434238
0.0434016
0.0433676
0.0433256
0.0432804
0.043234
0.0431836
0.0431254
0.0430602
0.0430139
0.0429826
0.0429596
0.0429454
0.0429384
0.042936
0.0429358
0.0429361
0.0432941
0.0432951
0.0433025
0.043322
0.0433576
0.043408
0.0434642
0.0435113
0.0435385
0.0435452
0.043538
0.0435243
0.0435085
0.0434926
0.0434759
0.043457
0.0434388
0.0434246
0.0434148
0.0434114
0.0434118
0.0434082
0.0433895
0.0433448
0.043268
0.0431798
0.0431093
0.0430716
0.0430524
0.0430453
0.0430446
0.0430457
0.0432935
0.0432946
0.0433027
0.0433238
0.0433617
0.0434142
0.0434715
0.0435197
0.0435497
0.043561
0.0435591
0.0435493
0.043535
0.0435176
0.0434974
0.043475
0.0434564
0.0434516
0.0434623
0.0434878
0.0435246
0.0435651
0.0435993
0.0436168
0.0436096
0.0435729
0.0435075
0.0434247
0.0433572
0.0433179
0.0433018
0.0432975
0.0432547
0.043256
0.0432643
0.0432854
0.0433236
0.0433773
0.0434373
0.0434905
0.0435274
0.0435463
0.0435512
0.0435462
0.0435337
0.0435142
0.0434886
0.0434595
0.0434353
0.0434272
0.043438
0.0434657
0.0435075
0.0435583
0.0436109
0.0436573
0.0436907
0.0437075
0.0437072
0.0436923
0.0436676
0.0436399
0.0436181
0.0436079
0.0431838
0.0431854
0.0431933
0.043213
0.0432495
0.043303
0.0433664
0.0434268
0.0434732
0.0435019
0.0435151
0.0435163
0.0435074
0.0434893
0.043463
0.0434329
0.0434087
0.0433949
0.0433942
0.043406
0.0434299
0.0434651
0.043508
0.0435529
0.0435932
0.0436237
0.0436421
0.0436496
0.0436491
0.0436442
0.043638
0.0436329
0.0431167
0.0431186
0.0431256
0.0431429
0.043176
0.0432273
0.043292
0.0433586
0.0434149
0.043454
0.0434764
0.0434849
0.0434818
0.0434684
0.0434472
0.0434237
0.0434106
0.0434002
0.0433919
0.0433867
0.0433865
0.0433947
0.0434132
0.0434408
0.0434722
0.0435008
0.0435218
0.0435334
0.0435372
0.0435359
0.0435319
0.0435276
0.0430754
0.0430773
0.0430836
0.0430986
0.0431276
0.043174
0.043236
0.043305
0.0433696
0.0434194
0.043451
0.0434667
0.0434691
0.0434603
0.0434438
0.043426
0.0434222
0.0434209
0.0434148
0.0434059
0.0433929
0.0433794
0.0433724
0.0433768
0.0433921
0.0434124
0.0434309
0.0434431
0.043448
0.0434471
0.0434427
0.0434376
0.0430583
0.0430602
0.0430658
0.0430789
0.0431043
0.0431462
0.0432044
0.0432729
0.0433412
0.0433982
0.043438
0.0434601
0.0434666
0.04346
0.0434444
0.0434271
0.0434207
0.0434245
0.0434293
0.0434305
0.043422
0.0434015
0.0433794
0.0433647
0.0433639
0.0433745
0.0433891
0.0434009
0.0434064
0.0434057
0.0434004
0.0433942
0.0430578
0.0430596
0.0430645
0.0430759
0.0430985
0.0431366
0.0431912
0.043258
0.0433273
0.0433883
0.0434333
0.0434594
0.0434676
0.0434605
0.0434427
0.0434217
0.0434103
0.043415
0.0434264
0.0434373
0.0434412
0.043434
0.0434148
0.0433905
0.0433794
0.0433837
0.0433968
0.0434101
0.0434176
0.0434177
0.0434119
0.0434043
0.043067
0.0430685
0.0430726
0.0430826
0.0431032
0.0431388
0.0431909
0.043256
0.043325
0.0433872
0.0434338
0.0434605
0.0434675
0.0434572
0.0434347
0.0434081
0.0433914
0.0433945
0.0434105
0.0434296
0.0434454
0.0434531
0.0434503
0.0434399
0.0434271
0.0434316
0.0434495
0.0434698
0.0434834
0.0434869
0.0434813
0.0434722
0.0430805
0.0430815
0.0430848
0.0430939
0.0431136
0.0431483
0.0431998
0.0432643
0.0433324
0.0433931
0.0434374
0.0434609
0.0434633
0.0434474
0.0434185
0.0433854
0.0433638
0.0433649
0.0433836
0.0434092
0.0434357
0.0434588
0.0434761
0.0434883
0.0434985
0.0435142
0.0435437
0.0435794
0.0436067
0.0436182
0.0436147
0.0436044
0.0430947
0.0430948
0.0430974
0.0431064
0.0431268
0.0431629
0.0432159
0.0432809
0.0433474
0.0434042
0.0434425
0.0434589
0.0434536
0.0434297
0.0433931
0.0433533
0.0433268
0.0433259
0.0433457
0.0433764
0.0434129
0.0434517
0.0434914
0.0435327
0.043577
0.0436256
0.0436798
0.0437399
0.0437917
0.0438197
0.0438221
0.0438122
0.0431065
0.0431053
0.0431075
0.0431177
0.0431412
0.0431815
0.0432378
0.0433039
0.0433678
0.043418
0.0434471
0.0434531
0.0434372
0.0434034
0.0433581
0.0433112
0.0432801
0.0432769
0.0432964
0.0433322
0.0433779
0.0434327
0.0434966
0.0435715
0.0436582
0.0437549
0.0438558
0.0439543
0.0440432
0.0441011
0.044117
0.0441115
0.043113
0.0431103
0.0431128
0.0431268
0.0431564
0.0432022
0.043264
0.043331
0.0433905
0.0434313
0.0434484
0.0434413
0.0434129
0.0433679
0.0433132
0.0432592
0.0432239
0.0432189
0.0432391
0.0432788
0.0433333
0.0434037
0.0434926
0.0436037
0.0437385
0.0438939
0.0440595
0.0442206
0.0443629
0.0444706
0.0445155
0.044523
0.043108
0.0431044
0.0431095
0.0431313
0.0431709
0.0432254
0.0432907
0.0433579
0.0434108
0.0434397
0.0434425
0.0434209
0.0433792
0.0433227
0.0432588
0.0431985
0.0431602
0.0431544
0.043176
0.0432196
0.0432826
0.043368
0.0434811
0.0436283
0.043813
0.0440327
0.0442754
0.0445209
0.0447448
0.0449279
0.0450291
0.0450664
0.0430781
0.0430771
0.0430909
0.0431273
0.0431819
0.0432468
0.0433157
0.0433798
0.0434231
0.0434385
0.0434263
0.0433903
0.0433358
0.0432689
0.0431973
0.0431325
0.0430931
0.0430879
0.0431117
0.0431597
0.0432311
0.0433301
0.0434648
0.0436444
0.0438755
0.0441584
0.044483
0.0448288
0.0451659
0.0454576
0.0456573
0.0457543
0.0429976
0.0430112
0.0430496
0.0431129
0.0431879
0.0432635
0.043335
0.0433924
0.0434239
0.0434254
0.0433994
0.0433509
0.043286
0.0432111
0.0431344
0.0430677
0.0430291
0.0430258
0.0430525
0.0431052
0.043184
0.0432942
0.0434463
0.0436519
0.0439209
0.0442576
0.0446583
0.045109
0.0455838
0.0460378
0.0463916
0.0466187
0.0428118
0.042887
0.0429909
0.0430978
0.043194
0.0432789
0.0433484
0.0433962
0.0434156
0.0434049
0.0433677
0.0433097
0.0432376
0.043158
0.043079
0.0430124
0.0429758
0.042975
0.0430047
0.0430616
0.0431459
0.0432642
0.0434281
0.0436513
0.043946
0.0443207
0.0447796
0.0453224
0.0459423
0.0466111
0.0472423
0.0477932
0.0423205
0.0427126
0.0429575
0.0431109
0.0432185
0.0433027
0.0433644
0.0434007
0.0434087
0.0433879
0.0433423
0.043278
0.0432014
0.0431194
0.0430397
0.0429741
0.0429394
0.0429407
0.0429727
0.0430322
0.0431198
0.0432423
0.0434123
0.0436441
0.0439514
0.0443455
0.0448372
0.0454405
0.0461792
0.0470875
0.0481948
0.0494528
0.0413013
0.0425382
0.0430049
0.0431572
0.0432569
0.0433342
0.0433859
0.0434119
0.0434111
0.0433833
0.0433323
0.0432641
0.0431849
0.0431015
0.0430214
0.0429562
0.0429223
0.0429247
0.0429577
0.0430182
0.0431068
0.0432305
0.043402
0.0436358
0.0439458
0.0443448
0.044847
0.045478
0.0462904
0.0473916
0.0489995
0.0512615
)
;

boundaryField
{
    movingWall
    {
        type            fixedFluxPressure;
        gradient        uniform 0;
        value           nonuniform List<scalar> 
32
(
0.0413013
0.0425382
0.0430049
0.0431572
0.0432569
0.0433342
0.0433859
0.0434119
0.0434111
0.0433833
0.0433323
0.0432641
0.0431849
0.0431015
0.0430214
0.0429562
0.0429223
0.0429247
0.0429577
0.0430182
0.0431068
0.0432305
0.043402
0.0436358
0.0439458
0.0443448
0.044847
0.045478
0.0462904
0.0473916
0.0489995
0.0512615
)
;
    }
    fixedWalls
    {
        type            fixedFluxPressure;
        gradient        uniform 0;
        value           nonuniform List<scalar> 
64
(
0.0431944
0.0431965
0.0432002
0.0432045
0.0432087
0.043212
0.043214
0.0432151
0.0432167
0.0432209
0.0432304
0.0432473
0.0432721
0.0432941
0.0432935
0.0432547
0.0431838
0.0431167
0.0430754
0.0430583
0.0430578
0.043067
0.0430805
0.0430947
0.0431065
0.043113
0.043108
0.0430781
0.0429976
0.0428118
0.0423205
0.0413013
0.0429537
0.0429551
0.0429579
0.042962
0.0429664
0.0429696
0.0429692
0.0429628
0.0429489
0.0429298
0.0429121
0.0429075
0.0429361
0.0430457
0.0432975
0.0436079
0.0436329
0.0435276
0.0434376
0.0433942
0.0434043
0.0434722
0.0436044
0.0438122
0.0441115
0.044523
0.0450664
0.0457543
0.0466187
0.0477932
0.0494528
0.0512615
)
;
    }
    floor
    {
        type            fixedFluxPressure;
        gradient        uniform 0;
        value           nonuniform List<scalar> 
32
(
0.0431944
0.0431934
0.0431924
0.0431926
0.0431948
0.0431997
0.043208
0.0432195
0.0432326
0.0432431
0.0432451
0.0432355
0.0432198
0.0432051
0.0431964
0.043192
0.0431772
0.0431385
0.0430849
0.0430333
0.0429955
0.0429728
0.0429603
0.0429539
0.0429508
0.0429493
0.0429488
0.0429492
0.0429502
0.0429516
0.0429529
0.0429537
)
;
    }
    frontAndBack
    {
        type            empty;
    }
}


// ************************************************************************* //
