/*--------------------------------*- C++ -*----------------------------------*\
| =========                 |                                                 |
| \\      /  F ield         | OpenFOAM: The Open Source CFD Toolbox           |
|  \\    /   O peration     | Version:  2212                                  |
|   \\  /    A nd           | Website:  www.openfoam.com                      |
|    \\/     M anipulation  |                                                 |
\*---------------------------------------------------------------------------*/
FoamFile
{
    version     2.0;
    format      ascii;
    arch        "LSB;label=64;scalar=64";
    class       volScalarField;
    location    "1580";
    object      Saa;
}
// * * * * * * * * * * * * * * * * * * * * * * * * * * * * * * * * * * * * * //

dimensions      [1 -3 0 0 0 0 0];

internalField   nonuniform List<scalar> 
1024
(
0.00546339
0.00546341
0.00546346
0.00546356
0.00546372
0.00546395
0.00546427
0.00546467
0.00546515
0.00546569
0.00546626
0.00546683
0.0054674
0.00546798
0.00546862
0.00546926
0.0054697
0.00546973
0.00546937
0.00546871
0.00546783
0.00546682
0.00546576
0.00546475
0.00546386
0.00546313
0.00546258
0.00546217
0.0054619
0.00546174
0.00546164
0.00546161
0.0054634
0.00546342
0.00546347
0.00546357
0.00546374
0.00546397
0.00546429
0.0054647
0.00546519
0.00546573
0.00546629
0.00546686
0.00546743
0.00546802
0.00546865
0.0054693
0.00546975
0.00546977
0.00546942
0.00546876
0.00546788
0.00546687
0.0054658
0.00546479
0.00546389
0.00546316
0.00546259
0.00546219
0.00546191
0.00546174
0.00546165
0.00546161
0.00546343
0.00546345
0.0054635
0.00546361
0.00546377
0.00546402
0.00546434
0.00546476
0.00546526
0.00546581
0.00546638
0.00546695
0.00546752
0.00546811
0.00546875
0.00546941
0.00546986
0.00546989
0.00546953
0.00546886
0.00546798
0.00546696
0.0054659
0.00546487
0.00546396
0.00546321
0.00546263
0.00546222
0.00546194
0.00546176
0.00546167
0.00546163
0.00546348
0.0054635
0.00546356
0.00546367
0.00546384
0.00546409
0.00546444
0.00546487
0.00546539
0.00546596
0.00546655
0.00546713
0.00546769
0.00546828
0.00546893
0.0054696
0.00547008
0.0054701
0.00546972
0.00546903
0.00546814
0.00546711
0.00546603
0.00546499
0.00546406
0.00546329
0.0054627
0.00546227
0.00546198
0.0054618
0.0054617
0.00546166
0.00546356
0.00546358
0.00546364
0.00546376
0.00546394
0.00546421
0.00546458
0.00546504
0.0054656
0.00546621
0.00546682
0.00546741
0.00546798
0.00546857
0.00546923
0.00546994
0.00547042
0.00547043
0.00547001
0.00546928
0.00546836
0.00546731
0.00546621
0.00546514
0.00546419
0.0054634
0.00546278
0.00546233
0.00546203
0.00546185
0.00546175
0.00546171
0.00546369
0.00546371
0.00546377
0.00546389
0.00546409
0.00546438
0.00546478
0.00546529
0.0054659
0.00546657
0.00546723
0.00546785
0.00546842
0.00546902
0.00546971
0.00547045
0.00547096
0.00547093
0.00547043
0.00546962
0.00546863
0.00546753
0.0054664
0.00546531
0.00546433
0.00546351
0.00546288
0.00546242
0.00546211
0.00546191
0.00546181
0.00546177
0.00546387
0.0054639
0.00546396
0.00546409
0.0054643
0.00546462
0.00546507
0.00546564
0.00546633
0.00546707
0.00546781
0.00546847
0.00546907
0.00546969
0.00547041
0.0054712
0.00547172
0.00547161
0.00547099
0.00547005
0.00546894
0.00546777
0.00546659
0.00546547
0.00546446
0.00546363
0.00546298
0.00546251
0.00546219
0.005462
0.0054619
0.00546185
0.00546414
0.00546416
0.00546423
0.00546437
0.0054646
0.00546496
0.00546546
0.00546612
0.0054669
0.00546776
0.00546859
0.00546933
0.00546997
0.00547063
0.00547141
0.00547225
0.00547275
0.00547253
0.00547172
0.00547057
0.0054693
0.00546801
0.00546676
0.0054656
0.00546457
0.00546373
0.00546308
0.00546261
0.0054623
0.00546211
0.00546201
0.00546197
0.00546451
0.00546454
0.00546461
0.00546476
0.00546502
0.00546542
0.00546599
0.00546675
0.00546766
0.00546866
0.00546961
0.00547045
0.00547118
0.00547191
0.00547276
0.00547365
0.0054741
0.0054737
0.00547264
0.00547122
0.00546972
0.00546826
0.00546691
0.00546569
0.00546465
0.00546381
0.00546318
0.00546273
0.00546244
0.00546226
0.00546217
0.00546214
0.00546504
0.00546507
0.00546515
0.00546531
0.00546559
0.00546605
0.00546671
0.00546758
0.00546865
0.0054698
0.00547091
0.00547188
0.00547273
0.00547358
0.00547452
0.00547543
0.00547579
0.00547518
0.00547383
0.0054721
0.0054703
0.00546861
0.00546711
0.00546583
0.00546477
0.00546395
0.00546334
0.00546293
0.00546268
0.00546253
0.00546246
0.00546244
0.00546576
0.00546579
0.00546588
0.00546606
0.00546638
0.0054669
0.00546766
0.00546867
0.0054699
0.00547123
0.00547251
0.00547366
0.00547467
0.00547567
0.00547671
0.00547763
0.00547789
0.00547711
0.00547553
0.0054735
0.00547137
0.00546938
0.00546766
0.00546625
0.00546515
0.00546433
0.00546377
0.00546342
0.00546321
0.00546311
0.00546308
0.00546307
0.00546671
0.00546674
0.00546684
0.00546705
0.00546742
0.00546802
0.00546889
0.00547006
0.00547146
0.00547298
0.00547446
0.0054758
0.005477
0.00547817
0.00547932
0.00548026
0.00548051
0.00547974
0.00547814
0.00547599
0.00547363
0.00547133
0.0054693
0.00546765
0.00546641
0.00546553
0.00546497
0.00546465
0.00546451
0.00546446
0.00546446
0.00546448
0.0054679
0.00546794
0.00546806
0.0054683
0.00546873
0.00546942
0.00547042
0.00547174
0.00547332
0.00547503
0.0054767
0.00547824
0.00547965
0.005481
0.00548228
0.00548332
0.00548376
0.00548334
0.00548212
0.00548028
0.00547805
0.00547567
0.00547341
0.00547145
0.00546989
0.00546877
0.00546806
0.00546767
0.00546751
0.00546747
0.00546749
0.00546752
0.00546929
0.00546933
0.00546946
0.00546973
0.00547022
0.00547099
0.00547211
0.00547357
0.00547531
0.0054772
0.00547906
0.0054808
0.00548242
0.00548394
0.00548537
0.00548661
0.00548742
0.00548764
0.00548724
0.00548626
0.00548479
0.00548297
0.00548097
0.00547898
0.00547718
0.0054757
0.00547462
0.00547391
0.00547353
0.00547336
0.00547331
0.00547332
0.00547075
0.0054708
0.00547093
0.00547122
0.00547174
0.00547256
0.00547375
0.00547532
0.00547718
0.00547921
0.00548124
0.00548315
0.00548491
0.00548654
0.00548804
0.00548937
0.00549046
0.00549124
0.0054917
0.00549181
0.00549155
0.00549089
0.00548989
0.00548861
0.00548719
0.00548578
0.00548452
0.00548352
0.00548283
0.00548241
0.00548221
0.00548214
0.00547216
0.0054722
0.00547234
0.00547262
0.00547313
0.00547395
0.00547514
0.00547671
0.00547861
0.00548071
0.00548283
0.00548483
0.00548662
0.00548818
0.0054895
0.00549058
0.00549146
0.00549227
0.00549309
0.00549388
0.00549453
0.00549498
0.00549517
0.00549506
0.00549469
0.00549409
0.00549338
0.00549267
0.00549206
0.00549163
0.00549138
0.00549127
0.0054733
0.00547334
0.00547347
0.00547372
0.00547418
0.00547493
0.00547603
0.0054775
0.00547931
0.00548135
0.00548345
0.00548541
0.00548711
0.00548846
0.00548942
0.00549
0.00549033
0.00549075
0.00549144
0.00549235
0.00549335
0.00549432
0.00549516
0.00549582
0.00549626
0.0054965
0.00549654
0.00549645
0.00549629
0.00549613
0.00549601
0.00549595
0.00547406
0.0054741
0.00547421
0.00547443
0.00547483
0.00547548
0.00547644
0.00547775
0.00547939
0.00548128
0.00548326
0.00548513
0.00548673
0.00548791
0.00548862
0.00548885
0.00548877
0.00548885
0.00548936
0.00549028
0.00549146
0.00549273
0.00549393
0.00549496
0.00549576
0.00549634
0.00549672
0.00549693
0.00549703
0.00549706
0.00549705
0.00549704
0.00547452
0.00547455
0.00547465
0.00547484
0.00547518
0.00547574
0.00547656
0.00547769
0.00547914
0.00548084
0.00548265
0.0054844
0.0054859
0.00548701
0.00548761
0.00548772
0.0054875
0.00548743
0.00548781
0.00548867
0.00548992
0.00549139
0.00549289
0.00549425
0.00549535
0.00549618
0.00549675
0.0054971
0.00549729
0.00549738
0.00549741
0.00549742
0.00547477
0.0054748
0.00547488
0.00547505
0.00547535
0.00547581
0.00547651
0.00547748
0.00547873
0.00548021
0.00548184
0.00548344
0.00548484
0.0054859
0.00548651
0.00548666
0.0054865
0.00548647
0.00548683
0.00548764
0.00548887
0.00549039
0.00549203
0.00549359
0.00549495
0.00549601
0.00549676
0.00549725
0.00549752
0.00549766
0.00549771
0.00549772
0.00547491
0.00547493
0.00547501
0.00547515
0.0054754
0.00547579
0.00547638
0.0054772
0.00547826
0.00547954
0.00548096
0.00548239
0.00548369
0.00548472
0.00548539
0.00548568
0.00548573
0.00548588
0.00548632
0.00548714
0.00548833
0.00548982
0.00549148
0.00549313
0.00549463
0.00549586
0.00549678
0.00549739
0.00549775
0.00549792
0.00549799
0.00549801
0.00547504
0.00547506
0.00547511
0.00547522
0.00547542
0.00547574
0.00547623
0.00547691
0.00547781
0.00547889
0.00548011
0.00548138
0.00548258
0.0054836
0.00548438
0.00548489
0.00548525
0.00548565
0.00548624
0.0054871
0.00548825
0.00548967
0.00549126
0.0054929
0.00549444
0.00549577
0.00549679
0.00549751
0.00549795
0.00549818
0.00549827
0.00549829
0.00547529
0.00547529
0.00547532
0.00547538
0.00547551
0.00547575
0.00547614
0.0054767
0.00547745
0.00547838
0.00547944
0.00548058
0.00548172
0.00548278
0.0054837
0.00548448
0.00548516
0.00548582
0.00548656
0.00548746
0.00548856
0.00548988
0.00549135
0.00549289
0.00549439
0.00549573
0.00549683
0.00549763
0.00549814
0.00549841
0.00549852
0.00549855
0.00547579
0.00547577
0.00547575
0.00547574
0.0054758
0.00547595
0.00547624
0.0054767
0.00547734
0.00547816
0.00547913
0.00548021
0.00548134
0.00548248
0.00548357
0.0054846
0.00548555
0.00548642
0.00548727
0.00548818
0.00548921
0.00549039
0.00549171
0.0054931
0.00549449
0.00549579
0.00549689
0.00549774
0.0054983
0.00549862
0.00549876
0.00549879
0.00547666
0.00547661
0.00547653
0.00547645
0.00547642
0.00547648
0.0054767
0.00547709
0.00547768
0.00547846
0.00547941
0.00548049
0.00548167
0.00548289
0.00548412
0.00548533
0.00548647
0.00548746
0.00548834
0.00548921
0.00549014
0.00549116
0.00549229
0.00549351
0.00549475
0.00549594
0.005497
0.00549785
0.00549846
0.00549882
0.00549898
0.00549902
0.00547797
0.00547788
0.00547774
0.00547761
0.00547752
0.00547755
0.00547774
0.00547813
0.00547872
0.00547952
0.00548049
0.0054816
0.00548281
0.00548408
0.00548537
0.00548666
0.00548786
0.00548886
0.00548972
0.00549051
0.0054913
0.00549216
0.00549309
0.0054941
0.00549515
0.0054962
0.00549717
0.00549799
0.00549861
0.00549899
0.00549917
0.00549922
0.00547975
0.00547963
0.00547947
0.00547932
0.00547927
0.00547934
0.00547957
0.00548001
0.00548065
0.00548147
0.00548245
0.00548355
0.00548474
0.00548597
0.00548721
0.00548845
0.00548959
0.00549053
0.0054913
0.00549198
0.00549264
0.00549332
0.00549405
0.00549485
0.00549571
0.00549658
0.00549742
0.00549817
0.00549876
0.00549914
0.00549934
0.0054994
0.00548203
0.00548189
0.00548175
0.00548169
0.00548175
0.00548194
0.00548228
0.00548278
0.00548344
0.00548425
0.00548517
0.00548619
0.00548727
0.00548837
0.00548947
0.00549056
0.00549155
0.00549235
0.005493
0.00549355
0.00549406
0.00549459
0.00549514
0.00549574
0.00549639
0.00549707
0.00549775
0.00549839
0.00549892
0.00549929
0.00549949
0.00549955
0.00548483
0.00548471
0.00548467
0.00548479
0.00548502
0.00548535
0.00548577
0.00548629
0.00548691
0.00548762
0.00548842
0.00548927
0.00549015
0.00549104
0.00549193
0.0054928
0.00549359
0.00549422
0.00549472
0.00549513
0.00549552
0.00549589
0.00549629
0.00549671
0.00549717
0.00549766
0.00549817
0.00549867
0.00549911
0.00549944
0.00549962
0.00549969
0.00548822
0.00548817
0.00548832
0.00548862
0.00548898
0.00548937
0.00548979
0.00549024
0.00549075
0.00549129
0.00549188
0.00549251
0.00549315
0.00549379
0.00549442
0.00549504
0.0054956
0.00549604
0.00549639
0.00549667
0.00549693
0.00549718
0.00549743
0.0054977
0.005498
0.00549832
0.00549866
0.00549901
0.00549933
0.00549958
0.00549974
0.0054998
0.00549232
0.00549242
0.00549271
0.00549304
0.00549337
0.00549369
0.00549399
0.0054943
0.00549462
0.00549495
0.00549531
0.00549568
0.00549605
0.00549643
0.0054968
0.00549716
0.00549749
0.00549774
0.00549794
0.0054981
0.00549825
0.00549839
0.00549853
0.00549867
0.00549883
0.00549901
0.0054992
0.00549939
0.00549958
0.00549974
0.00549985
0.00549989
0.00549731
0.00549739
0.00549754
0.00549768
0.00549781
0.00549794
0.00549805
0.00549816
0.00549826
0.00549837
0.00549849
0.00549861
0.00549873
0.00549886
0.00549898
0.00549909
0.0054992
0.00549928
0.00549934
0.00549939
0.00549944
0.00549948
0.00549953
0.00549957
0.00549962
0.00549968
0.00549974
0.0054998
0.00549986
0.00549991
0.00549995
0.00549997
)
;

boundaryField
{
    movingWall
    {
        type            fixedValue;
        value           uniform 0.0055;
    }
    fixedWalls
    {
        type            zeroGradient;
    }
    floor
    {
        type            zeroGradient;
    }
    frontAndBack
    {
        type            empty;
    }
}


// ************************************************************************* //
