/*--------------------------------*- C++ -*----------------------------------*\
| =========                 |                                                 |
| \\      /  F ield         | OpenFOAM: The Open Source CFD Toolbox           |
|  \\    /   O peration     | Version:  2212                                  |
|   \\  /    A nd           | Website:  www.openfoam.com                      |
|    \\/     M anipulation  |                                                 |
\*---------------------------------------------------------------------------*/
FoamFile
{
    version     2.0;
    format      ascii;
    arch        "LSB;label=64;scalar=64";
    class       volScalarField;
    location    "1580";
    object      SIC;
}
// * * * * * * * * * * * * * * * * * * * * * * * * * * * * * * * * * * * * * //

dimensions      [1 -3 0 0 0 0 0];

internalField   nonuniform List<scalar> 
1024
(
0.0911633
0.0911648
0.0911683
0.0911748
0.0911851
0.0912003
0.0912211
0.0912478
0.0912797
0.0913157
0.0913541
0.0913937
0.0914347
0.0914792
0.0915298
0.0915847
0.0916281
0.0916408
0.0916234
0.0915832
0.091527
0.0914616
0.0913936
0.0913292
0.0912729
0.0912271
0.0911922
0.0911671
0.0911503
0.0911398
0.0911341
0.0911318
0.0911641
0.0911655
0.0911691
0.0911757
0.0911862
0.0912016
0.0912227
0.0912496
0.0912819
0.0913181
0.0913567
0.0913963
0.0914373
0.0914819
0.0915326
0.091588
0.0916318
0.0916446
0.0916272
0.0915869
0.0915306
0.091465
0.0913967
0.0913318
0.0912751
0.0912288
0.0911934
0.0911681
0.091151
0.0911405
0.0911347
0.0911324
0.0911659
0.0911674
0.0911711
0.0911778
0.0911886
0.0912045
0.0912262
0.0912539
0.091287
0.0913239
0.091363
0.0914028
0.0914439
0.0914886
0.0915399
0.0915962
0.0916409
0.0916539
0.0916362
0.0915953
0.0915384
0.0914723
0.0914033
0.0913375
0.0912797
0.0912324
0.0911962
0.0911702
0.0911527
0.0911419
0.091136
0.0911336
0.0911692
0.0911708
0.0911746
0.0911816
0.0911929
0.0912096
0.0912323
0.0912614
0.0912959
0.0913344
0.0913747
0.0914151
0.0914563
0.0915013
0.0915537
0.0916119
0.0916581
0.091671
0.0916519
0.0916094
0.091551
0.0914836
0.0914133
0.0913462
0.0912868
0.0912381
0.0912006
0.0911737
0.0911556
0.0911444
0.0911383
0.0911359
0.0911747
0.0911762
0.0911802
0.0911876
0.0911996
0.0912174
0.0912417
0.0912729
0.09131
0.0913512
0.0913937
0.0914353
0.0914771
0.0915228
0.0915769
0.091638
0.0916864
0.0916987
0.0916767
0.0916304
0.0915688
0.0914989
0.0914266
0.0913575
0.0912962
0.0912456
0.0912067
0.0911786
0.0911598
0.0911482
0.0911419
0.0911394
0.0911829
0.0911845
0.0911887
0.0911965
0.0912094
0.0912287
0.0912554
0.0912897
0.0913308
0.0913761
0.0914223
0.0914663
0.0915094
0.0915565
0.0916134
0.0916787
0.0917299
0.0917403
0.0917127
0.0916596
0.0915921
0.0915179
0.0914423
0.0913706
0.0913071
0.0912546
0.0912141
0.0911849
0.0911654
0.0911534
0.0911469
0.0911443
0.0911949
0.0911966
0.091201
0.0912094
0.0912235
0.0912447
0.0912745
0.0913133
0.0913599
0.0914113
0.091463
0.091511
0.0915568
0.0916065
0.0916677
0.0917387
0.0917928
0.0917993
0.0917624
0.0916983
0.0916212
0.0915399
0.0914595
0.0913844
0.0913184
0.0912641
0.0912224
0.0911924
0.0911724
0.0911602
0.0911537
0.0911512
0.0912122
0.0912139
0.0912186
0.0912277
0.0912432
0.091267
0.0913009
0.0913455
0.0913995
0.0914591
0.0915184
0.0915727
0.0916233
0.091678
0.0917455
0.0918232
0.0918793
0.0918788
0.0918281
0.0917481
0.0916566
0.0915646
0.0914772
0.0913978
0.0913293
0.0912736
0.0912313
0.0912012
0.0911813
0.0911694
0.0911631
0.0911607
0.0912367
0.0912385
0.0912435
0.0912535
0.0912708
0.0912978
0.0913367
0.0913886
0.091452
0.0915219
0.0915913
0.0916546
0.0917132
0.0917759
0.091852
0.0919369
0.0919929
0.0919817
0.0919126
0.0918114
0.0917003
0.0915935
0.0914963
0.0914113
0.0913402
0.0912839
0.0912419
0.0912127
0.0911939
0.0911829
0.0911774
0.0911753
0.091271
0.0912729
0.0912784
0.0912895
0.091309
0.0913399
0.0913851
0.0914458
0.0915203
0.0916027
0.0916846
0.09176
0.0918304
0.0919048
0.0919919
0.0920834
0.0921367
0.0921124
0.0920225
0.0918963
0.0917607
0.0916339
0.0915233
0.0914307
0.0913564
0.0912998
0.0912592
0.0912322
0.0912156
0.0912066
0.0912025
0.0912011
0.0913181
0.0913202
0.0913264
0.091339
0.0913613
0.091397
0.0914496
0.0915206
0.0916079
0.0917046
0.0918015
0.0918922
0.0919782
0.0920681
0.0921676
0.0922647
0.0923151
0.0922807
0.0921743
0.0920254
0.0918631
0.0917108
0.0915805
0.0914757
0.0913954
0.0913375
0.0912985
0.0912744
0.0912614
0.0912555
0.0912537
0.0912535
0.0913807
0.0913831
0.0913902
0.0914048
0.0914308
0.0914725
0.0915339
0.0916167
0.0917184
0.0918311
0.0919449
0.0920533
0.0921577
0.0922651
0.0923777
0.0924815
0.0925353
0.0925052
0.0923997
0.0922428
0.092062
0.0918835
0.0917262
0.0915999
0.0915054
0.0914403
0.0913995
0.0913771
0.0913675
0.0913652
0.0913662
0.0913675
0.0914594
0.0914623
0.0914706
0.0914878
0.0915183
0.0915672
0.0916387
0.0917344
0.0918509
0.0919799
0.0921111
0.0922381
0.0923619
0.0924871
0.0926137
0.0927295
0.0928022
0.0928032
0.0927323
0.092603
0.0924344
0.0922499
0.0920714
0.0919162
0.0917936
0.0917059
0.0916505
0.0916208
0.0916087
0.0916066
0.0916088
0.091611
0.0915509
0.0915542
0.0915636
0.0915833
0.0916184
0.0916741
0.0917551
0.0918625
0.0919925
0.0921367
0.0922847
0.0924297
0.0925711
0.0927119
0.0928519
0.0929849
0.0930914
0.0931498
0.0931521
0.0930993
0.0929976
0.0928596
0.0927016
0.0925412
0.0923948
0.0922738
0.0921846
0.092127
0.0920952
0.0920813
0.0920775
0.0920776
0.0916471
0.0916507
0.0916609
0.0916823
0.0917202
0.0917804
0.0918676
0.091983
0.0921229
0.0922786
0.0924395
0.0925973
0.0927494
0.0928968
0.0930404
0.0931806
0.0933116
0.0934242
0.0935094
0.0935599
0.0935694
0.0935365
0.0934651
0.0933639
0.0932455
0.0931249
0.0930161
0.0929293
0.0928685
0.092832
0.0928142
0.0928082
0.0917383
0.0917419
0.0917521
0.0917733
0.0918111
0.0918711
0.0919584
0.0920745
0.0922164
0.0923756
0.0925407
0.092701
0.0928503
0.0929862
0.093109
0.0932229
0.0933351
0.0934572
0.0935878
0.0937156
0.0938264
0.0939085
0.0939551
0.0939645
0.0939395
0.093888
0.0938215
0.0937531
0.0936944
0.0936519
0.0936269
0.0936166
0.0918087
0.0918121
0.0918216
0.0918411
0.0918754
0.0919301
0.0920101
0.0921178
0.0922509
0.0924022
0.0925598
0.0927106
0.092844
0.092953
0.0930351
0.0930947
0.0931494
0.0932341
0.0933608
0.0935181
0.0936859
0.0938449
0.0939805
0.0940841
0.0941524
0.094187
0.0941935
0.0941807
0.0941587
0.0941367
0.0941207
0.094113
0.0918512
0.0918544
0.091863
0.0918801
0.09191
0.0919573
0.0920269
0.0921213
0.0922397
0.0923761
0.0925196
0.0926563
0.0927728
0.0928587
0.0929086
0.0929255
0.0929314
0.0929737
0.0930772
0.0932377
0.0934354
0.0936451
0.0938428
0.0940112
0.0941412
0.0942313
0.0942856
0.0943115
0.0943183
0.0943152
0.0943094
0.0943056
0.0918721
0.0918751
0.0918829
0.0918979
0.0919235
0.0919639
0.092023
0.0921038
0.0922062
0.0923258
0.0924532
0.0925755
0.0926788
0.0927513
0.0927859
0.0927846
0.0927698
0.0927899
0.0928726
0.0930217
0.0932256
0.0934624
0.0937045
0.0939258
0.0941084
0.0942444
0.0943348
0.0943868
0.0944107
0.0944175
0.0944166
0.0944144
0.0918795
0.0918823
0.0918892
0.0919024
0.0919244
0.0919587
0.0920086
0.0920768
0.0921638
0.0922666
0.0923775
0.0924856
0.0925781
0.0926437
0.0926754
0.0926747
0.0926632
0.0926831
0.0927581
0.0928954
0.093091
0.0933308
0.0935916
0.0938455
0.0940681
0.0942439
0.0943685
0.0944461
0.0944866
0.0945023
0.0945051
0.0945038
0.0918812
0.0918835
0.0918894
0.0919005
0.091919
0.0919478
0.0919896
0.0920468
0.09212
0.0922068
0.0923019
0.0923963
0.0924798
0.0925431
0.0925805
0.0925944
0.0926035
0.0926396
0.0927199
0.0928521
0.0930368
0.0932668
0.0935261
0.0937912
0.0940364
0.0942411
0.0943942
0.0944955
0.0945525
0.0945777
0.0945844
0.094584
0.0918875
0.0918889
0.0918926
0.0919005
0.0919146
0.0919375
0.0919717
0.0920189
0.0920798
0.0921529
0.0922342
0.0923176
0.0923957
0.0924619
0.0925128
0.0925517
0.0925924
0.0926538
0.0927463
0.0928778
0.0930519
0.0932668
0.0935123
0.0937711
0.0940215
0.0942418
0.0944158
0.0945374
0.0946103
0.0946453
0.0946563
0.0946569
0.0919118
0.0919114
0.0919115
0.0919141
0.0919216
0.091937
0.0919628
0.0920009
0.0920518
0.0921147
0.0921871
0.0922653
0.0923446
0.092421
0.0924925
0.0925629
0.0926391
0.0927272
0.0928324
0.0929629
0.0931249
0.0933206
0.0935452
0.0937867
0.0940282
0.0942509
0.0944365
0.0945737
0.094661
0.0947058
0.0947217
0.0947235
0.0919693
0.091966
0.0919606
0.0919555
0.0919541
0.0919602
0.0919773
0.0920077
0.0920524
0.0921111
0.0921825
0.0922641
0.0923528
0.0924458
0.0925419
0.092644
0.0927519
0.0928614
0.0929747
0.0931009
0.0932478
0.0934206
0.093619
0.0938359
0.0940589
0.0942725
0.0944599
0.0946066
0.0947055
0.0947598
0.0947808
0.094784
0.0920739
0.0920668
0.0920545
0.0920404
0.0920295
0.092027
0.0920375
0.0920644
0.0921092
0.0921715
0.0922502
0.0923427
0.0924462
0.0925579
0.0926762
0.0928027
0.092932
0.0930531
0.0931674
0.0932847
0.0934136
0.093561
0.0937296
0.0939165
0.094114
0.0943099
0.0944898
0.0946386
0.0947453
0.0948078
0.0948341
0.0948391
0.0922356
0.0922241
0.092205
0.092184
0.0921676
0.0921619
0.0921722
0.0922027
0.0922545
0.0923268
0.0924173
0.0925228
0.0926398
0.092765
0.0928965
0.093035
0.0931718
0.0932935
0.0934013
0.0935054
0.0936144
0.0937356
0.0938731
0.0940273
0.094194
0.0943654
0.0945297
0.0946731
0.0947823
0.0948508
0.094882
0.0948888
0.09246
0.0924443
0.0924215
0.0924005
0.092388
0.0923892
0.0924084
0.0924493
0.0925121
0.0925949
0.0926946
0.0928075
0.0929296
0.0930577
0.0931897
0.0933258
0.0934566
0.0935689
0.0936642
0.0937522
0.0938407
0.0939364
0.0940439
0.0941651
0.0942987
0.0944406
0.0945827
0.0947131
0.0948187
0.0948896
0.0949247
0.0949335
0.0927503
0.0927319
0.0927126
0.0927027
0.0927063
0.0927246
0.0927593
0.0928124
0.0928833
0.0929702
0.0930701
0.0931795
0.0932948
0.0934134
0.0935332
0.0936543
0.0937684
0.0938641
0.0939429
0.0940133
0.0940819
0.0941542
0.0942342
0.0943245
0.0944255
0.0945357
0.0946505
0.0947615
0.094857
0.0949256
0.0949627
0.0949734
0.0931105
0.0930939
0.0930889
0.0931016
0.0931288
0.0931668
0.0932151
0.0932744
0.0933445
0.0934248
0.0935133
0.0936075
0.0937049
0.0938033
0.0939012
0.0939987
0.0940892
0.094164
0.0942245
0.0942771
0.0943271
0.0943786
0.0944348
0.094498
0.0945691
0.0946483
0.0947336
0.0948202
0.0948994
0.0949606
0.0949965
0.0950084
0.0935501
0.0935436
0.093563
0.0935999
0.0936447
0.0936927
0.0937433
0.0937974
0.0938558
0.093919
0.0939864
0.0940568
0.0941284
0.0941999
0.0942704
0.0943399
0.0944037
0.094456
0.0944977
0.0945335
0.0945668
0.0946004
0.0946365
0.0946769
0.0947224
0.0947736
0.0948302
0.09489
0.094948
0.0949963
0.0950272
0.0950389
0.0940872
0.0941
0.0941376
0.0941798
0.0942216
0.0942614
0.0942993
0.0943365
0.0943742
0.0944134
0.0944544
0.0944966
0.0945391
0.0945813
0.0946227
0.0946632
0.0947002
0.0947303
0.0947542
0.0947745
0.0947931
0.0948116
0.0948312
0.094853
0.0948775
0.0949052
0.0949361
0.0949698
0.0950039
0.0950345
0.095056
0.0950652
0.0947442
0.0947543
0.0947737
0.0947923
0.0948092
0.0948246
0.0948386
0.0948517
0.0948646
0.0948777
0.0948912
0.094905
0.0949189
0.0949326
0.094946
0.094959
0.094971
0.0949807
0.0949883
0.0949948
0.0950007
0.0950065
0.0950126
0.0950193
0.0950269
0.0950354
0.095045
0.0950555
0.0950664
0.0950766
0.0950844
0.0950881
)
;

boundaryField
{
    movingWall
    {
        type            fixedValue;
        value           uniform 0.0951;
    }
    fixedWalls
    {
        type            zeroGradient;
    }
    floor
    {
        type            zeroGradient;
    }
    frontAndBack
    {
        type            empty;
    }
}


// ************************************************************************* //
