/*--------------------------------*- C++ -*----------------------------------*\
| =========                 |                                                 |
| \\      /  F ield         | OpenFOAM: The Open Source CFD Toolbox           |
|  \\    /   O peration     | Version:  2212                                  |
|   \\  /    A nd           | Website:  www.openfoam.com                      |
|    \\/     M anipulation  |                                                 |
\*---------------------------------------------------------------------------*/
FoamFile
{
    version     2.0;
    format      ascii;
    arch        "LSB;label=64;scalar=64";
    class       volScalarField;
    location    "1580";
    object      Xli;
}
// * * * * * * * * * * * * * * * * * * * * * * * * * * * * * * * * * * * * * //

dimensions      [1 -3 0 0 0 0 0];

internalField   nonuniform List<scalar> 
1024
(
0.0422926
0.0422931
0.0422945
0.042297
0.042301
0.0423069
0.0423149
0.0423251
0.0423373
0.0423511
0.0423657
0.0423806
0.0423959
0.0424122
0.0424305
0.0424499
0.0424647
0.0424681
0.0424606
0.0424448
0.042423
0.0423977
0.0423714
0.0423464
0.0423245
0.0423066
0.042293
0.0422832
0.0422766
0.0422725
0.0422703
0.0422694
0.0422929
0.0422934
0.0422948
0.0422974
0.0423014
0.0423073
0.0423154
0.0423258
0.0423381
0.042352
0.0423666
0.0423816
0.0423968
0.0424132
0.0424315
0.0424511
0.042466
0.0424695
0.042462
0.0424461
0.0424243
0.042399
0.0423726
0.0423474
0.0423253
0.0423073
0.0422935
0.0422835
0.0422769
0.0422727
0.0422705
0.0422696
0.0422936
0.0422942
0.0422956
0.0422982
0.0423023
0.0423085
0.0423168
0.0423274
0.0423401
0.0423542
0.042369
0.042384
0.0423993
0.0424157
0.0424342
0.0424541
0.0424693
0.0424728
0.0424652
0.0424492
0.0424272
0.0424017
0.042375
0.0423495
0.0423271
0.0423086
0.0422945
0.0422843
0.0422775
0.0422733
0.042271
0.04227
0.0422949
0.0422955
0.0422969
0.0422996
0.042304
0.0423104
0.0423191
0.0423303
0.0423435
0.0423581
0.0423734
0.0423886
0.0424039
0.0424204
0.0424392
0.0424598
0.0424755
0.042479
0.0424708
0.0424542
0.0424317
0.0424058
0.0423787
0.0423528
0.0423297
0.0423108
0.0422962
0.0422857
0.0422786
0.0422742
0.0422718
0.0422709
0.042297
0.0422976
0.0422991
0.0423019
0.0423066
0.0423134
0.0423227
0.0423346
0.0423488
0.0423645
0.0423806
0.0423962
0.0424117
0.0424283
0.0424477
0.0424692
0.0424857
0.0424888
0.0424796
0.0424617
0.0424381
0.0424113
0.0423836
0.0423569
0.0423332
0.0423136
0.0422984
0.0422875
0.0422801
0.0422756
0.0422731
0.0422721
0.0423001
0.0423008
0.0423024
0.0423054
0.0423103
0.0423177
0.0423279
0.042341
0.0423567
0.0423739
0.0423913
0.0424078
0.0424236
0.0424407
0.042461
0.0424839
0.0425012
0.0425036
0.0424923
0.0424719
0.0424463
0.0424181
0.0423892
0.0423617
0.0423372
0.0423169
0.0423011
0.0422898
0.0422822
0.0422775
0.0422749
0.0422739
0.0423048
0.0423054
0.0423071
0.0423103
0.0423157
0.0423239
0.0423352
0.04235
0.0423677
0.0423872
0.0424066
0.0424245
0.0424412
0.0424591
0.0424808
0.0425056
0.0425237
0.0425244
0.0425097
0.0424854
0.0424564
0.0424257
0.0423952
0.0423665
0.0423412
0.0423203
0.0423041
0.0422925
0.0422847
0.0422799
0.0422774
0.0422764
0.0423114
0.0423121
0.0423139
0.0423174
0.0423233
0.0423324
0.0423453
0.0423622
0.0423827
0.0424052
0.0424274
0.0424474
0.0424658
0.0424853
0.0425091
0.042536
0.0425545
0.0425524
0.0425326
0.0425025
0.0424684
0.042434
0.0424011
0.042371
0.0423449
0.0423235
0.0423072
0.0422955
0.0422878
0.0422832
0.0422807
0.0422798
0.0423209
0.0423216
0.0423235
0.0423273
0.0423339
0.0423441
0.042359
0.0423786
0.0424026
0.0424288
0.0424546
0.0424779
0.042499
0.0425211
0.0425477
0.0425768
0.0425948
0.0425885
0.0425619
0.0425241
0.0424831
0.0424435
0.0424072
0.0423753
0.0423483
0.0423268
0.0423107
0.0422995
0.0422922
0.0422879
0.0422858
0.0422849
0.0423341
0.0423348
0.0423369
0.0423411
0.0423485
0.0423603
0.0423774
0.0424003
0.0424283
0.0424591
0.0424894
0.0425169
0.042542
0.0425681
0.0425982
0.0426292
0.0426457
0.0426343
0.0425999
0.0425531
0.0425033
0.0424567
0.0424158
0.0423813
0.0423534
0.042332
0.0423166
0.0423062
0.0422998
0.0422963
0.0422946
0.0422941
0.0423522
0.042353
0.0423554
0.0423601
0.0423685
0.0423821
0.0424019
0.0424286
0.0424613
0.0424972
0.0425328
0.0425656
0.0425961
0.0426273
0.0426614
0.0426939
0.0427088
0.0426934
0.0426528
0.0425977
0.0425383
0.0424827
0.042435
0.0423963
0.0423665
0.0423449
0.0423302
0.042321
0.042316
0.0423136
0.0423128
0.0423127
0.0423763
0.0423772
0.0423799
0.0423853
0.0423951
0.0424108
0.0424339
0.0424649
0.0425027
0.0425443
0.0425858
0.0426247
0.0426615
0.0426987
0.0427371
0.0427714
0.042787
0.0427728
0.0427323
0.0426741
0.042608
0.0425431
0.0424859
0.0424398
0.0424052
0.0423812
0.042366
0.0423576
0.0423539
0.0423529
0.0423532
0.0423537
0.0424065
0.0424076
0.0424107
0.0424171
0.0424285
0.0424468
0.0424735
0.0425091
0.0425523
0.0425996
0.0426472
0.0426925
0.042736
0.0427792
0.0428222
0.0428604
0.0428825
0.042879
0.0428506
0.042802
0.0427401
0.0426731
0.0426085
0.0425524
0.042508
0.0424762
0.042456
0.0424452
0.0424407
0.0424399
0.0424406
0.0424414
0.0424416
0.0424428
0.0424463
0.0424536
0.0424667
0.0424874
0.0425175
0.0425573
0.0426053
0.042658
0.0427114
0.0427631
0.0428127
0.0428614
0.042909
0.0429532
0.0429871
0.0430036
0.0430006
0.0429788
0.0429405
0.0428899
0.0428328
0.0427751
0.0427227
0.0426794
0.0426475
0.0426269
0.0426155
0.0426105
0.0426092
0.0426092
0.0424785
0.0424798
0.0424836
0.0424915
0.0425055
0.0425279
0.0425602
0.0426029
0.0426543
0.0427112
0.0427693
0.0428257
0.0428793
0.0429305
0.0429796
0.0430265
0.0430689
0.0431039
0.0431293
0.0431429
0.043143
0.043129
0.0431023
0.0430658
0.0430237
0.042981
0.0429427
0.0429122
0.0428909
0.0428781
0.0428719
0.0428698
0.0425138
0.0425151
0.0425188
0.0425266
0.0425406
0.0425628
0.0425951
0.042638
0.0426903
0.0427486
0.0428087
0.0428664
0.0429195
0.0429672
0.0430096
0.0430476
0.0430834
0.0431211
0.0431611
0.0432
0.0432335
0.0432581
0.0432714
0.0432728
0.0432633
0.0432452
0.0432223
0.0431989
0.0431789
0.0431645
0.043156
0.0431525
0.0425414
0.0425427
0.0425461
0.0425533
0.0425659
0.0425862
0.0426159
0.0426558
0.0427051
0.0427609
0.0428188
0.0428739
0.0429222
0.0429613
0.0429903
0.0430103
0.0430268
0.0430517
0.0430895
0.043137
0.0431878
0.0432362
0.0432776
0.0433093
0.0433303
0.0433411
0.0433431
0.0433391
0.0433322
0.0433253
0.0433203
0.0433179
0.0425588
0.0425599
0.042563
0.0425693
0.0425803
0.0425978
0.0426237
0.0426589
0.042703
0.0427538
0.0428071
0.0428578
0.0429009
0.0429328
0.0429515
0.0429577
0.0429584
0.0429697
0.0430001
0.0430484
0.0431084
0.0431721
0.0432322
0.0432834
0.043323
0.0433507
0.0433676
0.043376
0.0433786
0.0433781
0.0433766
0.0433756
0.042568
0.042569
0.0425718
0.0425773
0.0425867
0.0426017
0.0426237
0.0426539
0.0426923
0.0427372
0.042785
0.042831
0.0428701
0.0428979
0.0429119
0.0429124
0.0429067
0.0429111
0.0429352
0.0429801
0.0430422
0.0431145
0.0431884
0.0432557
0.0433112
0.0433526
0.0433802
0.0433963
0.043404
0.0434065
0.0434065
0.043406
0.042572
0.042573
0.0425755
0.0425803
0.0425884
0.042601
0.0426197
0.0426453
0.042678
0.0427168
0.0427589
0.0428
0.0428355
0.0428612
0.0428745
0.0428755
0.0428712
0.0428759
0.0428978
0.0429394
0.0429992
0.0430727
0.0431525
0.0432299
0.0432975
0.0433509
0.0433887
0.0434124
0.043425
0.0434301
0.0434312
0.043431
0.0425736
0.0425745
0.0425766
0.0425806
0.0425874
0.0425981
0.0426138
0.0426353
0.0426629
0.0426959
0.0427322
0.0427684
0.0428007
0.0428256
0.0428408
0.0428468
0.0428495
0.0428598
0.0428838
0.0429241
0.0429809
0.0430517
0.0431312
0.0432122
0.0432868
0.0433488
0.0433952
0.0434259
0.0434434
0.0434513
0.0434536
0.0434536
0.0425764
0.0425769
0.0425783
0.0425812
0.0425865
0.0425951
0.0426079
0.0426258
0.0426489
0.0426767
0.0427078
0.0427398
0.0427699
0.0427955
0.042815
0.0428292
0.0428425
0.0428613
0.0428897
0.0429302
0.042984
0.0430503
0.0431258
0.043205
0.0432813
0.0433481
0.0434008
0.0434375
0.0434596
0.0434704
0.043474
0.0434743
0.0425846
0.0425846
0.0425848
0.042586
0.0425891
0.042595
0.0426049
0.0426194
0.0426387
0.0426626
0.0426901
0.0427197
0.0427495
0.0427779
0.0428039
0.0428284
0.0428534
0.0428812
0.0429141
0.0429547
0.043005
0.0430656
0.0431349
0.0432089
0.0432826
0.0433501
0.0434062
0.0434476
0.0434739
0.0434876
0.0434925
0.0434932
0.0426034
0.0426024
0.0426009
0.0425996
0.0425997
0.0426025
0.0426094
0.042621
0.0426379
0.0426598
0.0426861
0.0427161
0.0427482
0.0427815
0.0428151
0.0428497
0.0428851
0.0429202
0.042956
0.0429956
0.0430414
0.0430951
0.0431564
0.043223
0.0432911
0.043356
0.0434126
0.0434568
0.0434865
0.0435029
0.0435094
0.0435105
0.0426372
0.042635
0.0426312
0.042627
0.042624
0.042624
0.0426285
0.0426387
0.0426551
0.0426775
0.0427056
0.0427383
0.0427745
0.0428132
0.0428536
0.042896
0.0429383
0.0429773
0.0430137
0.0430507
0.0430912
0.0431371
0.0431893
0.0432468
0.0433071
0.0433667
0.043421
0.0434658
0.0434978
0.0435166
0.0435246
0.0435262
0.0426892
0.0426856
0.0426796
0.0426731
0.0426683
0.0426671
0.0426714
0.0426824
0.0427006
0.0427257
0.0427569
0.0427931
0.042833
0.0428755
0.0429198
0.0429658
0.0430105
0.0430499
0.0430844
0.0431174
0.0431517
0.0431896
0.0432322
0.0432797
0.0433307
0.0433828
0.0434325
0.0434756
0.0435084
0.0435288
0.0435382
0.0435404
0.0427611
0.0427561
0.0427489
0.0427424
0.0427388
0.0427397
0.0427466
0.0427607
0.042782
0.04281
0.0428436
0.0428815
0.0429225
0.0429654
0.0430094
0.0430544
0.0430971
0.0431335
0.0431641
0.0431921
0.0432201
0.0432501
0.0432835
0.0433208
0.0433618
0.043405
0.043448
0.0434872
0.0435188
0.0435399
0.0435504
0.0435531
0.0428538
0.042848
0.0428419
0.0428389
0.0428404
0.0428466
0.0428582
0.0428759
0.0428995
0.0429284
0.0429615
0.0429979
0.0430362
0.0430755
0.0431152
0.0431551
0.0431924
0.0432234
0.0432488
0.0432713
0.043293
0.0433157
0.0433406
0.0433685
0.0433995
0.0434331
0.0434678
0.0435012
0.0435298
0.0435502
0.0435612
0.0435645
0.0429686
0.0429634
0.0429618
0.042966
0.0429748
0.0429872
0.043003
0.0430225
0.0430455
0.0430719
0.043101
0.0431321
0.0431642
0.0431967
0.043229
0.0432611
0.0432907
0.0433149
0.0433344
0.0433513
0.0433672
0.0433834
0.0434009
0.0434204
0.0434423
0.0434665
0.0434923
0.0435184
0.043542
0.0435602
0.0435709
0.0435744
0.0431084
0.0431064
0.0431126
0.0431244
0.0431388
0.0431543
0.0431706
0.0431882
0.0432072
0.0432278
0.0432499
0.043273
0.0432966
0.0433201
0.0433433
0.0433662
0.043387
0.043404
0.0434175
0.043429
0.0434396
0.0434502
0.0434615
0.043474
0.043488
0.0435036
0.0435208
0.0435388
0.0435561
0.0435704
0.0435796
0.043583
0.043279
0.0432831
0.043295
0.0433085
0.0433218
0.0433346
0.0433468
0.0433588
0.043371
0.0433838
0.0433972
0.043411
0.0434249
0.0434388
0.0434524
0.0434657
0.0434778
0.0434876
0.0434954
0.0435019
0.0435078
0.0435136
0.0435198
0.0435266
0.0435341
0.0435426
0.043552
0.0435621
0.0435723
0.0435814
0.0435877
0.0435904
0.0434873
0.0434905
0.0434967
0.0435026
0.043508
0.0435129
0.0435174
0.0435216
0.0435258
0.0435301
0.0435345
0.043539
0.0435435
0.043548
0.0435525
0.0435567
0.0435606
0.0435638
0.0435663
0.0435684
0.0435702
0.0435721
0.043574
0.0435761
0.0435784
0.043581
0.0435839
0.0435871
0.0435903
0.0435934
0.0435957
0.0435968
)
;

boundaryField
{
    movingWall
    {
        type            fixedValue;
        value           uniform 0.0436;
    }
    fixedWalls
    {
        type            zeroGradient;
    }
    floor
    {
        type            zeroGradient;
    }
    frontAndBack
    {
        type            empty;
    }
}


// ************************************************************************* //
