/*--------------------------------*- C++ -*----------------------------------*\
| =========                 |                                                 |
| \\      /  F ield         | OpenFOAM: The Open Source CFD Toolbox           |
|  \\    /   O peration     | Version:  2212                                  |
|   \\  /    A nd           | Website:  www.openfoam.com                      |
|    \\/     M anipulation  |                                                 |
\*---------------------------------------------------------------------------*/
FoamFile
{
    version     2.0;
    format      ascii;
    arch        "LSB;label=64;scalar=64";
    class       volScalarField;
    location    "1850";
    object      Gch4;
}
// * * * * * * * * * * * * * * * * * * * * * * * * * * * * * * * * * * * * * //

dimensions      [1 -3 0 0 0 0 0];

internalField   nonuniform List<scalar> 
1024
(
1.87795
1.87779
1.87741
1.87672
1.87559
1.8739
1.87151
1.8683
1.86421
1.85927
1.85363
1.84757
1.84144
1.83559
1.8303
1.82581
1.8227
1.82144
1.82183
1.82356
1.82635
1.82985
1.83371
1.83756
1.84106
1.84399
1.84628
1.84794
1.84906
1.84976
1.85014
1.8503
1.8779
1.87774
1.87736
1.87666
1.87552
1.87381
1.8714
1.86816
1.86404
1.85907
1.85341
1.84734
1.84121
1.83536
1.83007
1.82558
1.82246
1.82118
1.82156
1.82329
1.82608
1.8296
1.83348
1.83735
1.84088
1.84385
1.84616
1.84784
1.84898
1.84969
1.85007
1.85023
1.87778
1.87762
1.87723
1.87651
1.87535
1.8736
1.87114
1.86784
1.86366
1.85863
1.85292
1.84682
1.84068
1.83483
1.82954
1.82504
1.82189
1.82057
1.82092
1.82265
1.82547
1.82904
1.83298
1.83691
1.84051
1.84354
1.84591
1.84763
1.84879
1.84951
1.8499
1.85006
1.87756
1.8774
1.877
1.87625
1.87505
1.87325
1.8707
1.8673
1.86301
1.85788
1.85209
1.84595
1.83979
1.83395
1.82865
1.8241
1.82087
1.81945
1.81973
1.82148
1.8244
1.8281
1.83217
1.83622
1.83993
1.84305
1.84549
1.84727
1.84846
1.8492
1.8496
1.84976
1.87722
1.87705
1.87663
1.87585
1.87459
1.8727
1.87004
1.8665
1.86205
1.85677
1.85088
1.84468
1.8385
1.83264
1.82731
1.82266
1.81925
1.81764
1.81782
1.81962
1.82272
1.82667
1.83099
1.83525
1.83911
1.84236
1.84489
1.84672
1.84795
1.8487
1.8491
1.84926
1.87673
1.87655
1.8761
1.87528
1.87395
1.87194
1.86912
1.86539
1.86074
1.85528
1.84925
1.84297
1.83675
1.83085
1.82543
1.8206
1.81688
1.81496
1.81499
1.81685
1.82025
1.82461
1.82932
1.83391
1.83801
1.84142
1.84405
1.84593
1.84718
1.84793
1.84833
1.84848
1.87606
1.87587
1.8754
1.87452
1.87309
1.87094
1.86793
1.86397
1.85907
1.85339
1.84719
1.8408
1.83452
1.82853
1.82294
1.8178
1.81363
1.81125
1.81104
1.81299
1.81676
1.82168
1.82698
1.83205
1.83648
1.8401
1.84284
1.84477
1.84602
1.84676
1.84713
1.84727
1.87519
1.87499
1.87449
1.87355
1.87201
1.8697
1.86647
1.86224
1.85707
1.85113
1.84473
1.8382
1.8318
1.82566
1.8198
1.8142
1.8094
1.80642
1.80586
1.80782
1.81197
1.81755
1.82359
1.82931
1.83422
1.83812
1.84099
1.84296
1.8442
1.8449
1.84523
1.84535
1.87413
1.87392
1.87339
1.87238
1.87073
1.86824
1.86477
1.86026
1.85478
1.84856
1.84193
1.83521
1.82863
1.82226
1.81603
1.80986
1.80429
1.80053
1.79943
1.80118
1.80552
1.81165
1.81849
1.82501
1.83056
1.83486
1.83793
1.83997
1.84119
1.84184
1.84212
1.84221
1.87289
1.87267
1.87211
1.87104
1.86928
1.86662
1.86291
1.8581
1.85231
1.84578
1.83888
1.83194
1.82514
1.81848
1.81183
1.80504
1.79863
1.79394
1.79195
1.79302
1.79702
1.80327
1.81064
1.81794
1.82426
1.82915
1.83257
1.83477
1.83603
1.83666
1.83691
1.83697
1.8715
1.87128
1.87069
1.86957
1.86771
1.86489
1.86097
1.85589
1.84979
1.84296
1.83578
1.82859
1.82156
1.81465
1.80765
1.80035
1.79317
1.78738
1.78403
1.78365
1.78638
1.79179
1.79893
1.80655
1.81354
1.81916
1.82318
1.82576
1.82723
1.82795
1.82823
1.82829
1.87002
1.86979
1.86919
1.86803
1.8661
1.86317
1.85907
1.85377
1.84741
1.84031
1.8329
1.82552
1.81837
1.81137
1.8043
1.79684
1.78915
1.78218
1.77696
1.77421
1.77445
1.77763
1.78316
1.78998
1.79695
1.80309
1.80783
1.81108
1.81304
1.81407
1.81451
1.81463
1.86853
1.8683
1.86769
1.86652
1.86456
1.86157
1.85739
1.85196
1.84544
1.83819
1.83066
1.82327
1.81624
1.80955
1.80294
1.79594
1.78827
1.78029
1.77292
1.76714
1.76382
1.76338
1.76566
1.77004
1.77557
1.78125
1.78625
1.79009
1.79268
1.7942
1.79494
1.7952
1.86713
1.8669
1.8663
1.86515
1.86322
1.86027
1.85612
1.85072
1.84424
1.83703
1.82963
1.82252
1.81603
1.81021
1.8048
1.79914
1.79235
1.78389
1.77457
1.76563
1.75835
1.75353
1.75146
1.75195
1.75442
1.75808
1.76207
1.76567
1.76845
1.77028
1.77129
1.77168
1.866
1.86578
1.8652
1.8641
1.86226
1.85947
1.85552
1.85038
1.84419
1.83734
1.83039
1.82394
1.81846
1.81411
1.81067
1.80731
1.80239
1.79433
1.78366
1.77195
1.76086
1.75166
1.74502
1.7411
1.73964
1.74011
1.7418
1.74398
1.74604
1.74762
1.74859
1.74901
1.86537
1.86515
1.86461
1.8636
1.86193
1.85942
1.85588
1.85126
1.84568
1.83952
1.83337
1.82792
1.82376
1.82124
1.82022
1.81978
1.81762
1.81101
1.79992
1.78602
1.77138
1.75786
1.74667
1.73835
1.73292
1.73
1.72899
1.72922
1.73003
1.7309
1.73156
1.73188
1.86553
1.86532
1.86482
1.86391
1.86245
1.86028
1.85727
1.85334
1.8486
1.84336
1.83819
1.83379
1.83086
1.82989
1.83088
1.83304
1.8338
1.82954
1.81941
1.80459
1.7872
1.76959
1.75376
1.7409
1.73146
1.72525
1.72173
1.72016
1.7198
1.72001
1.72035
1.72056
1.86645
1.86625
1.86577
1.86495
1.86367
1.86181
1.85928
1.85601
1.85207
1.84773
1.84346
1.83992
1.83781
1.83766
1.83963
1.84306
1.84551
1.84325
1.83491
1.82084
1.80256
1.78235
1.76272
1.74564
1.73222
1.7227
1.71668
1.7134
1.71201
1.71168
1.71179
1.71194
1.86785
1.86766
1.86721
1.86644
1.86529
1.86367
1.8615
1.85876
1.85549
1.8519
1.84839
1.8455
1.84387
1.844
1.84608
1.8496
1.85229
1.85077
1.84367
1.83084
1.81312
1.79222
1.77057
1.75054
1.73386
1.72132
1.71287
1.70787
1.70541
1.70453
1.70443
1.70454
1.86948
1.8693
1.86888
1.86817
1.86712
1.86567
1.86379
1.86146
1.85872
1.85575
1.85286
1.85049
1.84914
1.84923
1.85089
1.85362
1.85542
1.85352
1.84679
1.83491
1.81825
1.79794
1.77588
1.75436
1.73547
1.72052
1.70988
1.7032
1.69963
1.69817
1.69783
1.69789
1.87095
1.8708
1.87044
1.86983
1.86892
1.86765
1.86601
1.86401
1.86171
1.85924
1.85685
1.85486
1.85362
1.8534
1.85418
1.85544
1.85548
1.85237
1.84535
1.83405
1.81851
1.79941
1.77811
1.75647
1.73653
1.71992
1.70749
1.69925
1.69457
1.69246
1.69186
1.69185
1.87163
1.87154
1.87133
1.87092
1.87026
1.86927
1.86793
1.86626
1.86432
1.86225
1.8602
1.85838
1.85695
1.856
1.85539
1.85455
1.85226
1.8475
1.83988
1.829
1.81465
1.79708
1.77723
1.75651
1.73662
1.71921
1.7055
1.69591
1.69015
1.68736
1.68645
1.68638
1.87062
1.87066
1.87071
1.87068
1.87046
1.86994
1.86904
1.86776
1.86615
1.8643
1.86231
1.86023
1.8581
1.85587
1.85334
1.84998
1.84518
1.83875
1.83057
1.82018
1.80716
1.79143
1.7735
1.75438
1.73543
1.71809
1.70368
1.69306
1.6863
1.68281
1.68156
1.6814
1.86697
1.86721
1.86765
1.86817
1.86859
1.86872
1.86838
1.86751
1.86609
1.86417
1.86176
1.85885
1.85542
1.85141
1.84666
1.84081
1.83378
1.82604
1.8176
1.80789
1.79639
1.78275
1.7671
1.75008
1.73271
1.71619
1.70177
1.69052
1.68294
1.67878
1.67715
1.67688
1.85984
1.86034
1.86126
1.8624
1.8635
1.86426
1.86441
1.86376
1.86221
1.85977
1.85642
1.8522
1.84712
1.8412
1.83442
1.82658
1.81804
1.80963
1.80137
1.79261
1.78275
1.77131
1.75816
1.7436
1.72831
1.71323
1.69945
1.68808
1.67995
1.67519
1.67318
1.67279
1.84869
1.84948
1.85084
1.85245
1.85393
1.85493
1.85513
1.85425
1.85213
1.84878
1.84425
1.83864
1.83206
1.82467
1.81655
1.80765
1.79853
1.79017
1.78253
1.77493
1.76676
1.7575
1.74689
1.73498
1.72212
1.70896
1.6964
1.68549
1.67719
1.672
1.66962
1.66909
1.83325
1.83432
1.8359
1.83746
1.83862
1.83912
1.8387
1.83707
1.83411
1.82982
1.82433
1.81779
1.81042
1.80242
1.79395
1.78503
1.77626
1.76859
1.76193
1.75562
1.74909
1.74188
1.73368
1.72437
1.71411
1.70324
1.6924
1.68248
1.67448
1.66912
1.66645
1.66577
1.81339
1.81462
1.81592
1.81665
1.81662
1.81586
1.81429
1.81171
1.80802
1.80323
1.79745
1.79083
1.78361
1.776
1.76816
1.76012
1.75246
1.74594
1.74048
1.73549
1.73051
1.72513
1.71908
1.71219
1.70446
1.69605
1.68729
1.67886
1.67163
1.66644
1.66364
1.66283
1.78884
1.78993
1.79022
1.78935
1.78763
1.78539
1.78272
1.77951
1.77564
1.77106
1.7658
1.75999
1.7538
1.74739
1.74092
1.73442
1.72833
1.72325
1.71908
1.71539
1.71179
1.708
1.70378
1.699
1.69357
1.68753
1.68104
1.67446
1.66846
1.66384
1.66113
1.66023
1.75893
1.75934
1.75796
1.75541
1.75242
1.74936
1.74632
1.7432
1.73987
1.73619
1.73214
1.72778
1.7232
1.71852
1.71384
1.7092
1.7049
1.70136
1.69849
1.696
1.69362
1.69117
1.68848
1.68543
1.68197
1.67807
1.67377
1.66922
1.66483
1.66119
1.65886
1.65798
1.72239
1.7215
1.71891
1.716
1.71317
1.71056
1.70819
1.70597
1.70378
1.70147
1.69901
1.69639
1.69367
1.6909
1.68816
1.68545
1.68296
1.68092
1.67929
1.67788
1.67656
1.67521
1.67375
1.67211
1.67025
1.66815
1.6658
1.66324
1.66066
1.65835
1.65674
1.65605
1.67771
1.67701
1.67568
1.6744
1.67325
1.67223
1.67134
1.67054
1.66978
1.66901
1.6682
1.66734
1.66646
1.66556
1.66467
1.6638
1.663
1.66234
1.66182
1.66137
1.66095
1.66053
1.66008
1.65957
1.659
1.65835
1.65762
1.65683
1.656
1.65523
1.65465
1.65436
)
;

boundaryField
{
    movingWall
    {
        type            fixedValue;
        value           uniform 1.6535;
    }
    fixedWalls
    {
        type            zeroGradient;
    }
    floor
    {
        type            zeroGradient;
    }
    frontAndBack
    {
        type            empty;
    }
}


// ************************************************************************* //
