/*--------------------------------*- C++ -*----------------------------------*\
| =========                 |                                                 |
| \\      /  F ield         | OpenFOAM: The Open Source CFD Toolbox           |
|  \\    /   O peration     | Version:  2212                                  |
|   \\  /    A nd           | Website:  www.openfoam.com                      |
|    \\/     M anipulation  |                                                 |
\*---------------------------------------------------------------------------*/
FoamFile
{
    version     2.0;
    format      ascii;
    arch        "LSB;label=64;scalar=64";
    class       volScalarField;
    location    "1850";
    object      Sch4;
}
// * * * * * * * * * * * * * * * * * * * * * * * * * * * * * * * * * * * * * //

dimensions      [1 -3 0 0 0 0 0];

internalField   nonuniform List<scalar> 
1024
(
0.0386403
0.0386516
0.0386794
0.0387305
0.0388131
0.0389371
0.0391126
0.0393483
0.0396488
0.0400123
0.0404275
0.0408744
0.0413276
0.0417616
0.0421553
0.0424908
0.0427242
0.0428205
0.0427934
0.0426659
0.04246
0.0422005
0.0419145
0.0416298
0.0413709
0.0411538
0.0409848
0.040862
0.0407789
0.0407272
0.040699
0.0406875
0.0386439
0.0386553
0.0386834
0.0387349
0.0388184
0.0389436
0.0391207
0.0393584
0.0396611
0.0400266
0.0404435
0.0408914
0.0413449
0.0417788
0.0421724
0.042508
0.042742
0.0428393
0.0428131
0.0426858
0.0424796
0.0422192
0.0419318
0.0416452
0.041384
0.0411645
0.0409934
0.040869
0.0407849
0.0407326
0.0407042
0.0406926
0.0386527
0.0386643
0.0386929
0.0387455
0.0388308
0.0389587
0.0391395
0.0393817
0.0396893
0.0400594
0.0404798
0.0409299
0.0413841
0.0418179
0.0422115
0.0425482
0.0427848
0.0428853
0.0428614
0.042734
0.0425252
0.042261
0.0419691
0.0416778
0.0414117
0.0411875
0.0410123
0.040885
0.0407989
0.0407456
0.0407167
0.040705
0.0386685
0.0386805
0.03871
0.0387644
0.0388527
0.0389851
0.039172
0.0394215
0.0397371
0.0401147
0.0405408
0.0409943
0.0414498
0.0418837
0.0422782
0.0426181
0.0428613
0.0429694
0.0429499
0.0428213
0.0426054
0.0423314
0.0420297
0.0417293
0.0414551
0.0412239
0.0410432
0.0409119
0.0408234
0.0407689
0.0407395
0.0407277
0.0386935
0.0387059
0.0387368
0.0387937
0.0388863
0.0390251
0.0392208
0.039481
0.039808
0.0401961
0.0406303
0.0410885
0.0415459
0.0419809
0.0423784
0.0427258
0.0429821
0.0431044
0.0430927
0.0429608
0.0427311
0.0424382
0.0421181
0.0418024
0.0415159
0.0412754
0.0410881
0.0409525
0.0408617
0.0408062
0.0407765
0.0407648
0.0387296
0.0387428
0.0387753
0.0388356
0.0389338
0.0390812
0.0392883
0.0395625
0.0399044
0.0403062
0.0407508
0.0412153
0.0416759
0.042114
0.0425184
0.0428801
0.043159
0.0433045
0.0433046
0.0431674
0.042916
0.0425925
0.0422424
0.0419023
0.0415982
0.0413457
0.0411509
0.0410113
0.0409189
0.0408632
0.0408341
0.0408227
0.0387789
0.0387927
0.0388273
0.0388917
0.0389968
0.0391547
0.039376
0.0396672
0.0400272
0.0404456
0.0409029
0.0413756
0.0418417
0.0422867
0.0427039
0.0430892
0.0434026
0.043582
0.0435998
0.0434567
0.0431768
0.0428112
0.0424176
0.0420415
0.0417121
0.0414439
0.0412408
0.0410979
0.0410052
0.0409508
0.0409231
0.0409128
0.0388424
0.038857
0.0388938
0.0389627
0.0390759
0.0392458
0.0394834
0.0397942
0.0401751
0.0406126
0.0410851
0.0415686
0.0420437
0.0425007
0.0429385
0.0433579
0.0437185
0.0439436
0.0439876
0.0438435
0.0435351
0.0431205
0.0426711
0.0422459
0.0418811
0.0415918
0.0413784
0.0412324
0.0411408
0.0410891
0.0410642
0.0410556
0.0389202
0.0389356
0.0389747
0.0390485
0.03917
0.0393529
0.0396081
0.0399402
0.0403438
0.0408026
0.0412929
0.0417905
0.0422791
0.0427539
0.0432197
0.0436825
0.044101
0.044384
0.0444688
0.0443401
0.0440177
0.0435612
0.0430525
0.0425671
0.0421545
0.041835
0.0416065
0.0414556
0.041365
0.0413168
0.0412956
0.0412892
0.0390114
0.0390274
0.0390686
0.039147
0.0392768
0.0394726
0.0397454
0.0400992
0.0405264
0.0410081
0.0415184
0.0420334
0.0425392
0.0430359
0.0435336
0.0440431
0.0445244
0.0448778
0.0450283
0.0449506
0.0446531
0.0441878
0.0436388
0.0430952
0.0426243
0.0422609
0.042006
0.0418428
0.041749
0.0417021
0.0416836
0.0416792
0.0391134
0.0391299
0.0391729
0.0392552
0.0393922
0.0395994
0.0398885
0.0402626
0.0407127
0.0412174
0.0417487
0.0422821
0.0428054
0.0433221
0.0438461
0.0443941
0.0449336
0.0453694
0.0456216
0.0456522
0.0454496
0.0450458
0.0445136
0.0439452
0.0434243
0.0430054
0.042706
0.0425139
0.0424042
0.0423504
0.0423297
0.0423252
0.0392222
0.039239
0.0392832
0.0393682
0.0395105
0.0397264
0.0400282
0.040419
0.0408885
0.0414132
0.0419626
0.0425103
0.0430437
0.043567
0.0440969
0.0446579
0.0452361
0.0457602
0.0461528
0.0463596
0.0463431
0.0461054
0.0456928
0.0451831
0.0446629
0.0442045
0.0438504
0.0436084
0.0434619
0.0433851
0.0433522
0.0433429
0.0393319
0.0393489
0.0393935
0.0394796
0.0396241
0.039844
0.0401525
0.0405528
0.041034
0.0415705
0.0421286
0.042678
0.0432024
0.0437039
0.0442005
0.0447275
0.0453045
0.0459048
0.0464585
0.0468925
0.0471413
0.0471745
0.0470034
0.0466757
0.0462616
0.0458363
0.045462
0.0451747
0.0449811
0.0448676
0.044812
0.0447927
0.0394342
0.0394512
0.0394953
0.0395802
0.0397227
0.0399401
0.0402459
0.040644
0.0411232
0.0416562
0.0422053
0.042734
0.0432187
0.043656
0.0440637
0.044491
0.0450042
0.0456403
0.0463407
0.0470108
0.0475567
0.0479172
0.0480713
0.0480339
0.0478477
0.0475725
0.0472725
0.047002
0.0467936
0.046656
0.0465803
0.0465507
0.0395172
0.0395338
0.0395764
0.0396575
0.0397928
0.039999
0.0402896
0.040669
0.0411264
0.0416336
0.042149
0.0426285
0.0430384
0.0433661
0.0436274
0.0438845
0.0442582
0.0448653
0.045666
0.046545
0.0473763
0.0480658
0.0485625
0.0488552
0.0489629
0.0489259
0.0487972
0.0486321
0.048476
0.0483569
0.0482835
0.0482519
0.0395634
0.0395794
0.0396194
0.0396941
0.0398168
0.0400021
0.0402629
0.0406039
0.0410157
0.0414713
0.0419272
0.0423329
0.0426438
0.0428352
0.0429165
0.0429563
0.0431236
0.043623
0.044455
0.0454979
0.046595
0.047609
0.0484481
0.049071
0.0494773
0.0496948
0.0497682
0.0497491
0.0496869
0.0496197
0.0495698
0.0495455
0.0395513
0.0395667
0.0396038
0.0396709
0.0397784
0.0399379
0.04016
0.0404497
0.0407998
0.0411868
0.0415697
0.0418964
0.0421154
0.0421911
0.0421215
0.0419674
0.0419173
0.0422406
0.043001
0.044112
0.0454154
0.0467355
0.0479233
0.0488877
0.0495959
0.0500608
0.050324
0.0504401
0.0504654
0.050448
0.0504218
0.0504054
0.039483
0.0394979
0.0395327
0.0395935
0.039688
0.0398246
0.0400114
0.0402524
0.0405428
0.0408633
0.0411785
0.0414407
0.0415985
0.0416117
0.0414692
0.041219
0.0410424
0.0412165
0.041844
0.0428986
0.0442679
0.0457827
0.0472551
0.0485366
0.0495441
0.050259
0.0507107
0.0509555
0.0510589
0.0510822
0.0510729
0.0510611
0.0393793
0.0393938
0.0394268
0.0394832
0.0395681
0.0396876
0.0398469
0.0400489
0.0402897
0.0405541
0.0408133
0.0410265
0.0411482
0.0411399
0.0409878
0.0407308
0.0405361
0.0406545
0.0411895
0.0421512
0.043479
0.0450457
0.0466697
0.048173
0.0494254
0.0503672
0.0510022
0.0513773
0.0515612
0.0516257
0.0516323
0.0516239
0.0392592
0.0392728
0.0393037
0.0393558
0.039433
0.0395394
0.0396779
0.0398497
0.040051
0.0402696
0.0404825
0.0406572
0.0407571
0.0407513
0.0406299
0.0404306
0.0403022
0.0404496
0.0409572
0.041848
0.0430962
0.0446185
0.0462732
0.0478883
0.0493072
0.050431
0.0512304
0.0517325
0.0519999
0.0521094
0.0521338
0.0521292
0.0391514
0.0391626
0.0391887
0.0392334
0.0393008
0.0393937
0.0395141
0.0396613
0.0398309
0.0400123
0.0401879
0.0403341
0.0404255
0.0404428
0.0403862
0.0402968
0.0402988
0.0405364
0.0410655
0.0419138
0.0430787
0.0445099
0.0461073
0.0477316
0.04923
0.0504788
0.0514134
0.0520329
0.0523846
0.0525426
0.0525873
0.0525871
0.0391034
0.0391093
0.0391247
0.0391541
0.0392028
0.0392751
0.0393733
0.0394959
0.039638
0.0397905
0.039941
0.0400755
0.0401811
0.0402523
0.0402994
0.0403662
0.0405418
0.0409026
0.0414762
0.0422929
0.0433693
0.0446858
0.0461748
0.0477301
0.0492247
0.0505336
0.0515658
0.0522869
0.0527204
0.0529299
0.0529978
0.053003
0.0391812
0.0391774
0.0391732
0.0391745
0.0391898
0.0392275
0.0392928
0.0393864
0.0395043
0.0396402
0.0397874
0.0399411
0.0400996
0.0402666
0.0404575
0.0407115
0.0410748
0.0415603
0.0421757
0.042956
0.0439323
0.0451112
0.0464568
0.047892
0.049316
0.05062
0.051704
0.0525039
0.0530126
0.053275
0.053369
0.0533806
0.0394571
0.0394386
0.0394051
0.0393651
0.0393322
0.0393213
0.0393445
0.0394078
0.0395117
0.0396539
0.0398328
0.0400489
0.0403049
0.0406057
0.0409626
0.0414034
0.041933
0.0425156
0.0431502
0.0438785
0.0447415
0.0457646
0.0469389
0.0482167
0.0495219
0.0507642
0.0518493
0.0526967
0.0532678
0.0535816
0.0537039
0.0537234
0.0399934
0.0399557
0.0398864
0.0397997
0.039716
0.0396575
0.0396446
0.0396919
0.0398059
0.0399877
0.0402366
0.0405521
0.0409324
0.0413762
0.0418852
0.042474
0.0431166
0.0437489
0.0443696
0.0450271
0.0457671
0.0466253
0.0476118
0.0487048
0.0498539
0.0509887
0.0520261
0.052882
0.0534947
0.0538536
0.0540052
0.0540341
0.0408313
0.0407717
0.040669
0.040548
0.0404361
0.0403597
0.0403431
0.0404079
0.040565
0.040815
0.0411537
0.041574
0.0420665
0.0426208
0.0432298
0.0438983
0.0445835
0.0452119
0.0457856
0.046356
0.0469696
0.0476641
0.0484603
0.0493551
0.0503214
0.051311
0.0522568
0.053079
0.0537044
0.054096
0.054275
0.0543147
0.0419909
0.0419107
0.0417918
0.041674
0.0415862
0.0415482
0.0415785
0.0416992
0.0419208
0.0422412
0.0426526
0.0431423
0.0436948
0.0442947
0.0449298
0.0456
0.0462581
0.0468346
0.047335
0.0478088
0.0482987
0.0488397
0.0494556
0.0501541
0.0509256
0.051743
0.0525592
0.0533067
0.0539101
0.0543147
0.0545155
0.0545665
0.0434828
0.0433907
0.0432928
0.0432377
0.043239
0.0432958
0.0434127
0.0436054
0.0438816
0.0442403
0.044674
0.0451697
0.045711
0.046282
0.0468702
0.0474734
0.0480489
0.0485381
0.0489484
0.0493228
0.0496972
0.0501006
0.0505551
0.0510724
0.0516533
0.0522866
0.0529454
0.0535812
0.0541264
0.0545179
0.0547291
0.0547905
0.0453277
0.0452452
0.0452234
0.0452887
0.0454176
0.0455856
0.0457854
0.0460263
0.046316
0.0466594
0.0470536
0.0474893
0.0479537
0.0484339
0.0489194
0.0494077
0.0498649
0.0502462
0.050559
0.0508366
0.0511066
0.0513912
0.0517076
0.0520673
0.0524751
0.0529292
0.0534182
0.053914
0.0543663
0.0547149
0.0549196
0.0549874
0.0475751
0.0475442
0.0476478
0.0478391
0.0480636
0.0482935
0.0485214
0.0487551
0.049005
0.0492806
0.0495842
0.0499118
0.0502554
0.0506064
0.0509571
0.0513056
0.0516281
0.0518941
0.0521092
0.0522966
0.0524749
0.0526592
0.0528615
0.0530902
0.0533505
0.0536438
0.0539677
0.0543099
0.0546411
0.0549159
0.0550922
0.0551584
0.0503208
0.0503876
0.0505828
0.0508012
0.0510137
0.0512099
0.0513875
0.0515539
0.0517188
0.0518916
0.0520765
0.052273
0.0524772
0.0526844
0.0528903
0.0530934
0.0532802
0.0534334
0.0535563
0.053662
0.0537612
0.0538622
0.0539717
0.0540948
0.0542346
0.054393
0.05457
0.0547624
0.0549575
0.0551313
0.0552536
0.0553059
0.0536801
0.0537322
0.0538325
0.0539282
0.0540149
0.0540917
0.0541584
0.0542182
0.0542751
0.054333
0.0543939
0.0544581
0.0545246
0.0545919
0.0546586
0.0547242
0.0547843
0.0548336
0.0548729
0.0549065
0.0549378
0.0549694
0.0550035
0.0550416
0.0550847
0.0551334
0.0551881
0.055248
0.0553103
0.0553683
0.0554126
0.055434
)
;

boundaryField
{
    movingWall
    {
        type            fixedValue;
        value           uniform 0.0555;
    }
    fixedWalls
    {
        type            zeroGradient;
    }
    floor
    {
        type            zeroGradient;
    }
    frontAndBack
    {
        type            empty;
    }
}


// ************************************************************************* //
