/*--------------------------------*- C++ -*----------------------------------*\
| =========                 |                                                 |
| \\      /  F ield         | OpenFOAM: The Open Source CFD Toolbox           |
|  \\    /   O peration     | Version:  2212                                  |
|   \\  /    A nd           | Website:  www.openfoam.com                      |
|    \\/     M anipulation  |                                                 |
\*---------------------------------------------------------------------------*/
FoamFile
{
    version     2.0;
    format      ascii;
    arch        "LSB;label=64;scalar=64";
    class       volScalarField;
    location    "1850";
    object      Xch;
}
// * * * * * * * * * * * * * * * * * * * * * * * * * * * * * * * * * * * * * //

dimensions      [1 -3 0 0 0 0 0];

internalField   nonuniform List<scalar> 
1024
(
0.0200532
0.0200536
0.0200544
0.0200559
0.0200585
0.0200622
0.0200676
0.0200747
0.0200838
0.0200947
0.0201071
0.0201204
0.0201336
0.020146
0.0201571
0.0201663
0.0201725
0.0201748
0.0201737
0.0201699
0.0201639
0.0201563
0.0201481
0.0201398
0.0201323
0.020126
0.0201211
0.0201175
0.0201151
0.0201135
0.0201127
0.0201124
0.0200533
0.0200537
0.0200545
0.0200561
0.0200586
0.0200624
0.0200678
0.020075
0.0200842
0.0200952
0.0201076
0.0201209
0.0201341
0.0201465
0.0201576
0.0201668
0.020173
0.0201753
0.0201743
0.0201704
0.0201644
0.0201569
0.0201485
0.0201402
0.0201327
0.0201263
0.0201213
0.0201177
0.0201152
0.0201137
0.0201129
0.0201125
0.0200536
0.0200539
0.0200548
0.0200564
0.020059
0.0200629
0.0200684
0.0200757
0.020085
0.0200961
0.0201087
0.020122
0.0201352
0.0201476
0.0201587
0.0201679
0.0201741
0.0201766
0.0201756
0.0201717
0.0201656
0.020158
0.0201496
0.0201412
0.0201334
0.0201269
0.0201218
0.0201181
0.0201156
0.0201141
0.0201132
0.0201129
0.020054
0.0200544
0.0200553
0.020057
0.0200597
0.0200637
0.0200694
0.0200769
0.0200864
0.0200978
0.0201105
0.0201238
0.0201371
0.0201495
0.0201605
0.0201698
0.0201762
0.0201789
0.020178
0.0201741
0.0201678
0.0201599
0.0201512
0.0201426
0.0201347
0.020128
0.0201227
0.0201189
0.0201163
0.0201147
0.0201139
0.0201135
0.0200548
0.0200552
0.0200561
0.0200579
0.0200607
0.0200649
0.0200708
0.0200787
0.0200885
0.0201002
0.0201131
0.0201266
0.0201398
0.0201522
0.0201633
0.0201727
0.0201795
0.0201825
0.0201819
0.0201779
0.0201713
0.0201628
0.0201537
0.0201446
0.0201363
0.0201294
0.020124
0.02012
0.0201174
0.0201158
0.0201149
0.0201146
0.0200559
0.0200563
0.0200573
0.0200591
0.0200621
0.0200666
0.0200728
0.0200811
0.0200914
0.0201034
0.0201166
0.0201302
0.0201435
0.0201559
0.0201672
0.020177
0.0201844
0.020188
0.0201877
0.0201835
0.0201763
0.0201671
0.0201571
0.0201473
0.0201386
0.0201313
0.0201257
0.0201217
0.020119
0.0201174
0.0201165
0.0201162
0.0200574
0.0200578
0.0200589
0.0200608
0.020064
0.0200688
0.0200755
0.0200843
0.0200951
0.0201075
0.020121
0.0201348
0.0201482
0.0201608
0.0201723
0.0201827
0.020191
0.0201956
0.0201957
0.0201914
0.0201834
0.020173
0.0201618
0.0201511
0.0201417
0.0201341
0.0201282
0.0201241
0.0201214
0.0201198
0.020119
0.0201187
0.0200593
0.0200598
0.0200609
0.020063
0.0200664
0.0200715
0.0200787
0.020088
0.0200994
0.0201124
0.0201263
0.0201404
0.0201539
0.0201667
0.0201788
0.0201901
0.0201996
0.0202054
0.0202063
0.0202019
0.0201931
0.0201814
0.0201687
0.0201567
0.0201464
0.0201381
0.020132
0.0201278
0.0201252
0.0201237
0.020123
0.0201227
0.0200617
0.0200621
0.0200633
0.0200656
0.0200692
0.0200747
0.0200824
0.0200924
0.0201044
0.020118
0.0201324
0.0201467
0.0201606
0.0201738
0.0201865
0.020199
0.0202101
0.0202174
0.0202193
0.0202155
0.0202063
0.0201935
0.0201792
0.0201655
0.0201539
0.0201449
0.0201384
0.0201341
0.0201315
0.0201301
0.0201295
0.0201293
0.0200644
0.0200649
0.0200662
0.0200685
0.0200724
0.0200783
0.0200865
0.0200971
0.0201098
0.020124
0.0201388
0.0201536
0.0201679
0.0201816
0.0201951
0.0202088
0.0202215
0.0202308
0.0202345
0.0202321
0.0202236
0.0202106
0.0201953
0.0201801
0.0201669
0.0201567
0.0201495
0.0201449
0.0201423
0.0201409
0.0201404
0.0201403
0.0200675
0.020068
0.0200693
0.0200718
0.0200759
0.0200821
0.0200908
0.0201019
0.0201152
0.0201301
0.0201455
0.0201607
0.0201753
0.0201895
0.0202037
0.0202183
0.0202326
0.020244
0.0202505
0.020251
0.0202453
0.020234
0.0202193
0.0202035
0.020189
0.0201774
0.020169
0.0201636
0.0201606
0.0201591
0.0201585
0.0201584
0.0200708
0.0200713
0.0200726
0.0200752
0.0200795
0.0200859
0.0200949
0.0201065
0.0201204
0.0201357
0.0201516
0.0201671
0.0201819
0.0201962
0.0202104
0.0202253
0.0202405
0.0202543
0.0202646
0.02027
0.0202694
0.0202628
0.0202515
0.0202375
0.0202232
0.0202105
0.0202008
0.0201941
0.02019
0.0201879
0.020187
0.0201868
0.0200741
0.0200746
0.020076
0.0200785
0.0200829
0.0200894
0.0200986
0.0201105
0.0201246
0.0201402
0.0201563
0.0201718
0.0201863
0.0201999
0.020213
0.0202268
0.0202418
0.0202576
0.0202723
0.0202839
0.0202905
0.0202914
0.0202868
0.020278
0.0202668
0.0202553
0.0202451
0.0202373
0.020232
0.0202289
0.0202274
0.0202269
0.0200772
0.0200777
0.020079
0.0200816
0.0200858
0.0200923
0.0201014
0.0201131
0.0201272
0.0201427
0.0201585
0.0201733
0.0201867
0.0201983
0.0202089
0.0202198
0.0202329
0.0202496
0.0202682
0.0202861
0.0203008
0.0203106
0.0203149
0.0203141
0.0203093
0.020302
0.0202941
0.0202869
0.0202814
0.0202777
0.0202757
0.0202749
0.0200798
0.0200802
0.0200815
0.0200839
0.020088
0.0200941
0.0201027
0.0201139
0.0201273
0.0201421
0.0201569
0.0201703
0.0201815
0.0201901
0.0201965
0.0202025
0.0202118
0.0202276
0.0202488
0.0202724
0.0202947
0.0203132
0.0203267
0.0203348
0.020338
0.0203373
0.0203342
0.02033
0.020326
0.020323
0.0203211
0.0203203
0.0200812
0.0200817
0.0200829
0.0200851
0.0200887
0.0200942
0.020102
0.020112
0.0201241
0.0201374
0.0201505
0.020162
0.0201704
0.0201752
0.0201765
0.0201765
0.02018
0.0201929
0.020215
0.0202429
0.0202724
0.0202996
0.0203221
0.0203389
0.02035
0.0203561
0.0203584
0.0203582
0.0203568
0.0203553
0.0203541
0.0203535
0.0200809
0.0200814
0.0200825
0.0200845
0.0200877
0.0200924
0.020099
0.0201076
0.0201179
0.0201293
0.0201404
0.0201496
0.0201556
0.0201572
0.0201544
0.0201491
0.0201466
0.0201546
0.0201748
0.0202046
0.0202397
0.0202751
0.0203069
0.0203327
0.0203516
0.0203642
0.0203714
0.0203748
0.0203757
0.0203755
0.020375
0.0203746
0.020079
0.0200794
0.0200804
0.0200822
0.0200851
0.0200891
0.0200947
0.0201019
0.0201105
0.0201199
0.0201292
0.0201367
0.0201411
0.0201411
0.0201364
0.0201285
0.0201225
0.0201264
0.0201429
0.0201713
0.0202082
0.0202489
0.0202883
0.0203225
0.0203493
0.0203683
0.0203804
0.0203871
0.0203901
0.0203909
0.0203908
0.0203906
0.0200759
0.0200764
0.0200773
0.020079
0.0200816
0.0200851
0.0200899
0.0200959
0.0201031
0.020111
0.0201186
0.0201249
0.0201283
0.0201279
0.0201231
0.0201151
0.0201087
0.020111
0.020125
0.0201507
0.0201865
0.0202286
0.0202721
0.0203122
0.0203455
0.0203704
0.0203873
0.0203973
0.0204023
0.0204042
0.0204045
0.0204044
0.0200723
0.0200728
0.0200737
0.0200752
0.0200776
0.0200808
0.0200849
0.0200901
0.0200961
0.0201026
0.020109
0.0201142
0.0201171
0.0201168
0.020113
0.0201067
0.0201022
0.0201053
0.0201185
0.0201423
0.0201759
0.0202169
0.0202612
0.0203042
0.0203418
0.0203715
0.0203926
0.0204059
0.0204131
0.0204161
0.0204169
0.0204168
0.020069
0.0200694
0.0200702
0.0200716
0.0200736
0.0200764
0.02008
0.0200845
0.0200896
0.0200951
0.0201004
0.0201047
0.0201074
0.0201079
0.0201059
0.0201028
0.0201019
0.0201075
0.0201213
0.0201439
0.0201752
0.0202137
0.0202565
0.0202997
0.0203394
0.0203724
0.0203969
0.0204132
0.0204225
0.0204268
0.0204281
0.0204282
0.0200673
0.0200675
0.0200681
0.020069
0.0200705
0.0200728
0.0200758
0.0200795
0.0200838
0.0200885
0.020093
0.020097
0.0201001
0.020102
0.020103
0.0201042
0.0201081
0.0201172
0.0201322
0.0201539
0.0201828
0.0202182
0.020258
0.0202994
0.020339
0.0203735
0.0204005
0.0204194
0.0204308
0.0204364
0.0204383
0.0204385
0.020069
0.020069
0.020069
0.0200691
0.0200698
0.0200711
0.0200732
0.0200761
0.0200797
0.0200838
0.0200882
0.0200926
0.0200971
0.0201016
0.0201065
0.0201129
0.0201221
0.0201346
0.0201507
0.0201715
0.0201977
0.0202293
0.0202653
0.0203035
0.0203411
0.0203754
0.0204038
0.0204247
0.020438
0.0204449
0.0204474
0.0204478
0.0200761
0.0200756
0.0200748
0.0200739
0.0200732
0.0200732
0.0200741
0.0200762
0.0200794
0.0200835
0.0200887
0.0200948
0.0201018
0.0201099
0.0201193
0.0201308
0.0201446
0.0201598
0.0201766
0.020196
0.020219
0.0202464
0.0202778
0.0203118
0.0203463
0.020379
0.0204074
0.0204294
0.0204443
0.0204525
0.0204557
0.0204563
0.0200902
0.0200892
0.0200874
0.0200852
0.0200832
0.0200818
0.0200818
0.0200833
0.0200867
0.0200919
0.0200988
0.0201075
0.0201178
0.0201297
0.0201433
0.0201589
0.0201758
0.0201924
0.0202088
0.0202263
0.0202461
0.020269
0.0202954
0.0203244
0.0203548
0.0203846
0.0204117
0.020434
0.0204499
0.0204592
0.0204632
0.020464
0.0201123
0.0201108
0.0201081
0.020105
0.0201021
0.0201003
0.0201001
0.020102
0.0201065
0.0201134
0.0201227
0.0201341
0.0201474
0.0201622
0.0201785
0.0201962
0.0202144
0.020231
0.0202462
0.0202614
0.0202778
0.0202963
0.0203175
0.0203413
0.0203668
0.0203928
0.0204175
0.0204389
0.0204551
0.0204652
0.0204699
0.020471
0.020143
0.0201409
0.0201378
0.0201348
0.0201325
0.0201317
0.0201326
0.0201361
0.0201422
0.0201509
0.020162
0.0201752
0.0201901
0.0202061
0.0202231
0.020241
0.0202584
0.0202737
0.020287
0.0202996
0.0203126
0.0203271
0.0203435
0.020362
0.0203824
0.0204039
0.0204252
0.0204446
0.0204602
0.0204707
0.0204758
0.0204772
0.0201826
0.0201801
0.0201776
0.0201762
0.0201763
0.0201779
0.0201811
0.0201864
0.0201939
0.0202036
0.0202153
0.0202286
0.0202431
0.0202584
0.0202741
0.0202902
0.0203055
0.0203184
0.0203293
0.0203393
0.0203493
0.02036
0.0203721
0.0203858
0.0204012
0.0204178
0.020435
0.0204515
0.0204656
0.0204757
0.0204811
0.0204827
0.0202314
0.0202293
0.0202287
0.0202305
0.0202339
0.0202384
0.0202438
0.0202503
0.0202581
0.0202674
0.0202779
0.0202896
0.0203021
0.0203149
0.0203279
0.0203409
0.0203531
0.0203632
0.0203715
0.0203789
0.0203861
0.0203936
0.020402
0.0204116
0.0204223
0.0204343
0.0204471
0.0204599
0.0204716
0.0204806
0.0204858
0.0204876
0.0202909
0.0202901
0.0202928
0.0202979
0.0203039
0.02031
0.0203161
0.0203223
0.020329
0.0203364
0.0203446
0.0203533
0.0203625
0.0203719
0.0203813
0.0203906
0.0203992
0.0204062
0.020412
0.0204169
0.0204217
0.0204266
0.020432
0.020438
0.0204449
0.0204526
0.0204611
0.02047
0.0204785
0.0204856
0.0204901
0.0204918
0.0203634
0.0203652
0.0203703
0.0203761
0.0203818
0.020387
0.0203917
0.0203961
0.0204005
0.0204052
0.0204101
0.0204154
0.0204208
0.0204264
0.0204319
0.0204373
0.0204423
0.0204464
0.0204496
0.0204524
0.0204551
0.0204578
0.0204607
0.0204639
0.0204676
0.0204718
0.0204764
0.0204814
0.0204865
0.0204909
0.020494
0.0204953
0.020452
0.0204534
0.0204561
0.0204586
0.0204609
0.0204629
0.0204647
0.0204663
0.0204678
0.0204694
0.020471
0.0204727
0.0204745
0.0204763
0.0204781
0.0204798
0.0204814
0.0204827
0.0204838
0.0204847
0.0204855
0.0204863
0.0204873
0.0204883
0.0204894
0.0204907
0.0204921
0.0204937
0.0204953
0.0204968
0.0204979
0.0204984
)
;

boundaryField
{
    movingWall
    {
        type            fixedValue;
        value           uniform 0.0205;
    }
    fixedWalls
    {
        type            zeroGradient;
    }
    floor
    {
        type            zeroGradient;
    }
    frontAndBack
    {
        type            empty;
    }
}


// ************************************************************************* //
