/*--------------------------------*- C++ -*----------------------------------*\
| =========                 |                                                 |
| \\      /  F ield         | OpenFOAM: The Open Source CFD Toolbox           |
|  \\    /   O peration     | Version:  2212                                  |
|   \\  /    A nd           | Website:  www.openfoam.com                      |
|    \\/     M anipulation  |                                                 |
\*---------------------------------------------------------------------------*/
FoamFile
{
    version     2.0;
    format      ascii;
    arch        "LSB;label=64;scalar=64";
    class       volScalarField;
    location    "1010";
    object      Saa;
}
// * * * * * * * * * * * * * * * * * * * * * * * * * * * * * * * * * * * * * //

dimensions      [1 -3 0 0 0 0 0];

internalField   nonuniform List<scalar> 
1024
(
0.00546443
0.00546446
0.00546454
0.00546469
0.00546492
0.00546523
0.00546563
0.0054661
0.00546659
0.00546708
0.00546752
0.00546786
0.00546807
0.00546811
0.00546798
0.00546763
0.00546709
0.00546642
0.00546573
0.00546501
0.00546426
0.0054635
0.00546272
0.00546198
0.0054613
0.00546072
0.00546026
0.00545992
0.00545969
0.00545954
0.00545946
0.00545943
0.00546443
0.00546447
0.00546455
0.0054647
0.00546493
0.00546526
0.00546566
0.00546613
0.00546663
0.00546713
0.00546756
0.0054679
0.00546811
0.00546815
0.00546802
0.00546767
0.00546712
0.00546646
0.00546576
0.00546505
0.0054643
0.00546354
0.00546277
0.00546202
0.00546133
0.00546075
0.00546028
0.00545994
0.0054597
0.00545955
0.00545947
0.00545943
0.00546445
0.00546448
0.00546457
0.00546473
0.00546497
0.0054653
0.00546572
0.0054662
0.00546672
0.00546722
0.00546767
0.00546801
0.00546821
0.00546825
0.0054681
0.00546775
0.00546719
0.00546653
0.00546583
0.00546512
0.00546438
0.00546362
0.00546285
0.0054621
0.0054614
0.00546081
0.00546033
0.00545997
0.00545972
0.00545957
0.00545948
0.00545945
0.00546447
0.00546451
0.0054646
0.00546477
0.00546502
0.00546537
0.00546581
0.00546631
0.00546686
0.00546739
0.00546786
0.00546822
0.00546841
0.00546842
0.00546825
0.00546787
0.0054673
0.00546662
0.00546593
0.00546522
0.00546449
0.00546374
0.00546297
0.00546222
0.00546151
0.0054609
0.0054604
0.00546003
0.00545977
0.0054596
0.00545951
0.00545948
0.00546451
0.00546455
0.00546464
0.00546482
0.00546508
0.00546545
0.00546592
0.00546646
0.00546705
0.00546764
0.00546817
0.00546854
0.00546872
0.0054687
0.00546848
0.00546805
0.00546744
0.00546674
0.00546604
0.00546533
0.00546461
0.00546387
0.00546312
0.00546236
0.00546165
0.00546102
0.0054605
0.0054601
0.00545982
0.00545965
0.00545955
0.00545951
0.00546455
0.00546459
0.00546469
0.00546487
0.00546515
0.00546555
0.00546605
0.00546665
0.00546732
0.00546799
0.00546859
0.005469
0.00546916
0.00546909
0.0054688
0.00546829
0.00546761
0.00546686
0.00546613
0.00546542
0.00546472
0.005464
0.00546326
0.00546251
0.00546179
0.00546115
0.0054606
0.00546019
0.00545989
0.00545971
0.0054596
0.00545956
0.00546461
0.00546465
0.00546475
0.00546494
0.00546524
0.00546566
0.00546622
0.00546689
0.00546766
0.00546845
0.00546915
0.00546961
0.00546975
0.00546961
0.00546921
0.00546859
0.00546779
0.00546697
0.0054662
0.00546547
0.00546477
0.00546407
0.00546336
0.00546263
0.00546192
0.00546126
0.0054607
0.00546027
0.00545996
0.00545976
0.00545966
0.00545961
0.00546469
0.00546473
0.00546483
0.00546502
0.00546534
0.00546579
0.00546641
0.00546719
0.00546809
0.00546903
0.00546985
0.00547037
0.00547049
0.00547025
0.00546971
0.00546893
0.00546798
0.00546704
0.00546619
0.00546544
0.00546474
0.00546406
0.00546337
0.00546267
0.00546198
0.00546133
0.00546077
0.00546033
0.00546001
0.00545981
0.0054597
0.00545965
0.00546479
0.00546483
0.00546493
0.00546513
0.00546546
0.00546596
0.00546665
0.00546755
0.00546861
0.00546973
0.00547069
0.00547126
0.00547135
0.00547099
0.00547029
0.00546932
0.00546817
0.00546705
0.00546609
0.00546528
0.00546458
0.00546391
0.00546326
0.00546259
0.00546193
0.00546131
0.00546077
0.00546034
0.00546003
0.00545983
0.00545972
0.00545967
0.00546494
0.00546498
0.00546509
0.00546529
0.00546564
0.00546619
0.00546698
0.00546802
0.00546927
0.00547057
0.00547167
0.00547229
0.00547233
0.00547184
0.00547096
0.00546977
0.00546836
0.005467
0.00546588
0.00546498
0.00546424
0.00546359
0.00546297
0.00546235
0.00546174
0.00546117
0.00546067
0.00546027
0.00545998
0.0054598
0.00545969
0.00545965
0.00546518
0.00546522
0.00546533
0.00546554
0.00546593
0.00546654
0.00546744
0.00546865
0.00547011
0.00547161
0.00547283
0.00547347
0.00547344
0.00547282
0.00547177
0.00547036
0.00546866
0.00546698
0.0054656
0.00546455
0.00546374
0.00546308
0.00546249
0.00546193
0.00546139
0.00546089
0.00546046
0.00546011
0.00545986
0.00545969
0.00545959
0.00545955
0.00546556
0.0054656
0.00546572
0.00546596
0.00546639
0.00546709
0.00546813
0.00546954
0.00547122
0.00547291
0.00547422
0.00547486
0.00547476
0.00547406
0.00547291
0.00547131
0.0054693
0.0054672
0.00546543
0.0054641
0.00546312
0.0054624
0.00546183
0.00546132
0.00546087
0.00546046
0.00546011
0.00545983
0.00545962
0.00545948
0.0054594
0.00545936
0.00546618
0.00546622
0.00546635
0.00546663
0.00546713
0.00546795
0.00546917
0.00547081
0.00547271
0.00547456
0.00547593
0.00547657
0.00547647
0.00547581
0.00547469
0.00547304
0.00547078
0.00546823
0.00546591
0.00546407
0.00546273
0.00546179
0.00546112
0.00546062
0.00546023
0.00545991
0.00545965
0.00545944
0.0054593
0.00545921
0.00545916
0.00545913
0.00546713
0.00546718
0.00546734
0.00546767
0.00546827
0.00546926
0.0054707
0.00547258
0.00547469
0.00547665
0.00547807
0.00547877
0.00547883
0.00547842
0.00547759
0.00547615
0.00547392
0.00547112
0.00546828
0.00546576
0.00546372
0.00546221
0.00546112
0.00546037
0.00545987
0.00545956
0.00545937
0.00545929
0.00545928
0.00545931
0.00545936
0.00545939
0.0054685
0.00546856
0.00546876
0.00546917
0.00546992
0.00547112
0.00547281
0.00547493
0.00547721
0.00547926
0.00548076
0.00548166
0.00548209
0.0054822
0.00548197
0.0054812
0.00547963
0.00547731
0.00547459
0.00547183
0.00546925
0.00546702
0.00546518
0.00546378
0.00546278
0.00546215
0.00546185
0.00546181
0.00546194
0.00546213
0.0054623
0.0054624
0.00547024
0.00547031
0.00547055
0.00547105
0.00547193
0.0054733
0.00547518
0.00547746
0.00547986
0.00548203
0.00548375
0.00548501
0.00548595
0.00548669
0.00548723
0.00548748
0.0054873
0.00548655
0.00548533
0.00548379
0.00548206
0.00548026
0.00547852
0.00547691
0.00547548
0.00547429
0.0054734
0.00547283
0.00547255
0.00547247
0.00547249
0.00547253
0.00547186
0.00547194
0.00547218
0.00547269
0.00547359
0.00547496
0.00547683
0.00547909
0.00548151
0.00548379
0.00548572
0.00548725
0.00548846
0.00548944
0.00549026
0.00549098
0.00549166
0.00549231
0.00549281
0.00549313
0.00549324
0.00549311
0.00549274
0.00549215
0.00549137
0.00549047
0.00548953
0.00548866
0.00548796
0.00548748
0.00548721
0.00548711
0.00547301
0.00547309
0.00547332
0.00547379
0.00547461
0.00547588
0.00547762
0.00547974
0.00548206
0.00548432
0.00548627
0.00548782
0.00548895
0.00548973
0.00549022
0.00549054
0.0054909
0.0054915
0.00549228
0.00549314
0.00549401
0.00549482
0.0054955
0.00549601
0.0054963
0.00549638
0.00549625
0.00549597
0.00549563
0.00549532
0.00549511
0.00549502
0.00547373
0.0054738
0.00547401
0.00547443
0.00547516
0.00547628
0.00547783
0.00547976
0.00548191
0.00548405
0.00548596
0.00548745
0.00548849
0.00548906
0.00548924
0.00548915
0.00548909
0.00548938
0.00549003
0.00549092
0.00549195
0.00549302
0.00549406
0.00549498
0.00549575
0.00549633
0.00549672
0.00549694
0.00549702
0.00549702
0.00549699
0.00549697
0.00547413
0.0054742
0.00547439
0.00547475
0.00547538
0.00547635
0.0054777
0.0054794
0.00548134
0.00548332
0.00548511
0.00548655
0.00548751
0.00548799
0.00548802
0.00548774
0.00548746
0.00548756
0.0054881
0.00548898
0.00549011
0.0054914
0.00549274
0.005494
0.0054951
0.00549598
0.0054966
0.00549701
0.00549724
0.00549736
0.0054974
0.0054974
0.00547429
0.00547436
0.00547453
0.00547486
0.0054754
0.00547622
0.00547737
0.00547884
0.00548053
0.0054823
0.00548394
0.00548528
0.0054862
0.00548666
0.00548669
0.00548642
0.00548616
0.00548624
0.00548675
0.00548761
0.00548876
0.00549014
0.00549163
0.00549313
0.0054945
0.00549565
0.00549651
0.00549709
0.00549743
0.0054976
0.00549767
0.00549769
0.00547428
0.00547435
0.00547451
0.0054748
0.00547526
0.00547596
0.00547693
0.00547816
0.0054796
0.00548112
0.00548257
0.00548379
0.00548468
0.00548519
0.00548534
0.00548526
0.0054852
0.00548543
0.00548599
0.00548686
0.00548801
0.00548938
0.00549091
0.0054925
0.00549403
0.00549537
0.00549643
0.00549717
0.00549763
0.00549786
0.00549796
0.00549798
0.00547422
0.00547427
0.00547441
0.00547465
0.00547505
0.00547564
0.00547644
0.00547746
0.00547865
0.00547993
0.00548118
0.00548229
0.00548318
0.00548381
0.0054842
0.00548443
0.00548469
0.00548514
0.00548581
0.00548671
0.00548783
0.00548915
0.00549064
0.00549221
0.00549377
0.0054952
0.00549638
0.00549726
0.00549782
0.00549812
0.00549825
0.00549828
0.00547427
0.0054743
0.00547438
0.00547455
0.00547486
0.00547533
0.00547598
0.00547682
0.00547781
0.00547889
0.00548
0.00548106
0.00548202
0.00548284
0.00548352
0.00548413
0.00548474
0.00548542
0.0054862
0.00548711
0.00548818
0.00548941
0.00549078
0.00549225
0.00549375
0.00549517
0.0054964
0.00549736
0.005498
0.00549837
0.00549852
0.00549856
0.00547465
0.00547463
0.00547463
0.00547469
0.00547487
0.00547521
0.00547572
0.00547642
0.00547727
0.00547826
0.00547933
0.00548043
0.00548153
0.00548258
0.00548357
0.00548451
0.00548541
0.00548626
0.00548711
0.00548801
0.00548899
0.00549009
0.0054913
0.00549261
0.00549397
0.0054953
0.0054965
0.00549748
0.00549818
0.00549859
0.00549878
0.00549882
0.00547557
0.0054755
0.00547539
0.00547532
0.00547535
0.00547555
0.00547596
0.00547658
0.0054774
0.00547839
0.00547952
0.00548073
0.00548199
0.00548324
0.00548445
0.00548561
0.00548668
0.00548762
0.00548846
0.0054893
0.00549016
0.0054911
0.00549212
0.00549323
0.0054944
0.00549558
0.00549669
0.00549764
0.00549836
0.0054988
0.00549901
0.00549906
0.00547718
0.00547704
0.00547684
0.00547666
0.0054766
0.00547673
0.0054771
0.00547772
0.00547858
0.00547963
0.00548083
0.00548213
0.00548348
0.00548481
0.00548611
0.00548734
0.00548845
0.00548936
0.00549014
0.00549087
0.0054916
0.00549237
0.00549319
0.00549408
0.00549503
0.00549602
0.00549699
0.00549785
0.00549854
0.00549899
0.00549921
0.00549928
0.00547952
0.00547933
0.00547911
0.00547894
0.0054789
0.00547906
0.00547947
0.00548012
0.00548101
0.00548208
0.00548329
0.00548457
0.00548587
0.00548715
0.00548837
0.00548953
0.00549054
0.00549135
0.00549202
0.00549262
0.0054932
0.00549379
0.00549442
0.0054951
0.00549583
0.0054966
0.00549738
0.00549812
0.00549873
0.00549916
0.00549939
0.00549947
0.00548259
0.00548241
0.00548229
0.00548228
0.00548238
0.00548265
0.00548311
0.00548376
0.00548459
0.00548557
0.00548664
0.00548776
0.00548888
0.00548997
0.005491
0.00549196
0.00549279
0.00549344
0.00549396
0.00549442
0.00549485
0.00549528
0.00549573
0.00549621
0.00549673
0.00549729
0.00549787
0.00549845
0.00549896
0.00549933
0.00549955
0.00549963
0.00548643
0.00548635
0.00548645
0.00548666
0.00548693
0.00548727
0.00548771
0.00548826
0.00548892
0.00548968
0.0054905
0.00549134
0.00549218
0.00549298
0.00549373
0.00549443
0.00549503
0.00549549
0.00549586
0.00549617
0.00549646
0.00549675
0.00549704
0.00549735
0.00549769
0.00549806
0.00549845
0.00549884
0.00549921
0.00549951
0.00549969
0.00549976
0.00549115
0.00549125
0.00549154
0.00549184
0.00549213
0.00549242
0.00549273
0.00549309
0.0054935
0.00549397
0.00549446
0.00549497
0.00549547
0.00549595
0.00549639
0.00549681
0.00549716
0.00549743
0.00549764
0.00549782
0.00549798
0.00549814
0.0054983
0.00549847
0.00549865
0.00549885
0.00549907
0.00549929
0.00549951
0.0054997
0.00549982
0.00549987
0.0054969
0.00549699
0.00549714
0.00549729
0.00549741
0.00549752
0.00549763
0.00549776
0.0054979
0.00549805
0.00549821
0.00549838
0.00549854
0.0054987
0.00549884
0.00549898
0.00549909
0.00549918
0.00549925
0.0054993
0.00549935
0.0054994
0.00549946
0.00549951
0.00549957
0.00549963
0.00549969
0.00549976
0.00549983
0.0054999
0.00549994
0.00549996
)
;

boundaryField
{
    movingWall
    {
        type            fixedValue;
        value           uniform 0.0055;
    }
    fixedWalls
    {
        type            zeroGradient;
    }
    floor
    {
        type            zeroGradient;
    }
    frontAndBack
    {
        type            empty;
    }
}


// ************************************************************************* //
