/*--------------------------------*- C++ -*----------------------------------*\
| =========                 |                                                 |
| \\      /  F ield         | OpenFOAM: The Open Source CFD Toolbox           |
|  \\    /   O peration     | Version:  2212                                  |
|   \\  /    A nd           | Website:  www.openfoam.com                      |
|    \\/     M anipulation  |                                                 |
\*---------------------------------------------------------------------------*/
FoamFile
{
    version     2.0;
    format      ascii;
    arch        "LSB;label=64;scalar=64";
    class       volScalarField;
    location    "1010";
    object      Sco2;
}
// * * * * * * * * * * * * * * * * * * * * * * * * * * * * * * * * * * * * * //

dimensions      [1 -3 0 0 0 0 0];

internalField   nonuniform List<scalar> 
1024
(
0.00560602
0.00560843
0.0056143
0.00562482
0.00564109
0.00566375
0.00569258
0.00572627
0.00576254
0.00579857
0.0058312
0.00585714
0.00587387
0.00587969
0.00587295
0.00585182
0.00581621
0.00577188
0.00572438
0.00567489
0.00562383
0.0055717
0.00551979
0.00547031
0.00542579
0.00538822
0.00535857
0.00533669
0.00532168
0.00531224
0.00530705
0.00530493
0.00560649
0.00560895
0.00561496
0.00562573
0.00564238
0.00566551
0.00569481
0.00572891
0.00576554
0.00580185
0.00583468
0.00586064
0.00587723
0.00588286
0.00587594
0.00585466
0.00581898
0.00577462
0.00572714
0.0056777
0.00562672
0.00557464
0.00552266
0.00547296
0.00542807
0.00539006
0.00535996
0.0053377
0.00532242
0.00531281
0.00530753
0.00530538
0.00560758
0.00561014
0.0056164
0.00562763
0.00564496
0.00566896
0.00569923
0.00573434
0.00577199
0.00580935
0.00584306
0.00586934
0.00588562
0.00589063
0.005883
0.00586109
0.00582492
0.00578026
0.00573269
0.00568334
0.00563255
0.00558062
0.00552859
0.00547851
0.00543293
0.00539403
0.00536301
0.00533997
0.0053241
0.00531413
0.00530865
0.00530642
0.0056094
0.00561208
0.00561864
0.00563046
0.0056487
0.00567393
0.00570573
0.00574266
0.00578246
0.0058222
0.00585806
0.00588528
0.00590111
0.0059048
0.0058955
0.00587193
0.00583437
0.00578878
0.00574076
0.00569139
0.00564086
0.00558924
0.0055373
0.00548683
0.00544034
0.00540018
0.00536784
0.00534363
0.00532688
0.00531633
0.00531055
0.00530821
0.00561202
0.0056148
0.00562167
0.00563411
0.0056534
0.0056802
0.00571418
0.00575404
0.0057976
0.00584166
0.00588145
0.00591062
0.00592593
0.00592735
0.00591494
0.00588808
0.0058476
0.00579987
0.00575067
0.00570094
0.00565063
0.0055995
0.00554786
0.00549715
0.00544976
0.00540818
0.00537424
0.00534857
0.00533071
0.00531944
0.00531326
0.00531076
0.00561548
0.00561834
0.00562547
0.0056385
0.00565891
0.00568759
0.00572454
0.00576872
0.00581806
0.00586883
0.00591468
0.00594711
0.005962
0.00596008
0.00594275
0.00591039
0.00586472
0.005813
0.00576135
0.00571056
0.00566024
0.00560965
0.00555858
0.00550796
0.00545993
0.00541708
0.00538155
0.00535437
0.00533531
0.00532323
0.00531662
0.00531395
0.00561992
0.00562281
0.00563012
0.00564368
0.00566525
0.00569618
0.00573697
0.00578707
0.00584447
0.00590454
0.00595864
0.00599568
0.00601038
0.00600407
0.00597981
0.00593936
0.00588561
0.00582729
0.00577135
0.00571838
0.00566749
0.00561737
0.0055671
0.00551701
0.00546886
0.00542523
0.00538852
0.00536009
0.00534001
0.00532724
0.00532024
0.00531742
0.00562567
0.00562856
0.00563599
0.00565002
0.00567283
0.00570639
0.00575198
0.00580969
0.00587748
0.0059493
0.00601355
0.00605635
0.00607098
0.00605929
0.00602622
0.00597502
0.00590984
0.00584162
0.00577886
0.0057221
0.0056698
0.00561984
0.00557054
0.00552149
0.005474
0.00543044
0.00539337
0.0053644
0.00534378
0.00533061
0.00532337
0.00532045
0.0056335
0.00563637
0.0056439
0.00565841
0.00568262
0.0057193
0.00577073
0.00583777
0.00591817
0.00600382
0.00607956
0.00612861
0.00614291
0.00612494
0.00608158
0.00601728
0.00593712
0.00585492
0.00578199
0.00571925
0.00566431
0.00561406
0.00556585
0.00551844
0.00547256
0.00543029
0.0053941
0.00536566
0.00534531
0.00533224
0.00532501
0.00532205
0.00564492
0.00564777
0.00565544
0.00567058
0.00569653
0.00573703
0.00579553
0.00587373
0.00596879
0.0060698
0.00615752
0.00621242
0.00622563
0.00620079
0.00614651
0.00606754
0.00596874
0.00586743
0.00577971
0.00570781
0.00564844
0.00559719
0.00555015
0.0055051
0.00546205
0.00542255
0.00538877
0.0053622
0.00534312
0.00533076
0.00532382
0.00532092
0.00566266
0.00566553
0.00567347
0.00568959
0.00571795
0.00576339
0.00583062
0.00592203
0.0060336
0.00615071
0.00624988
0.00630941
0.00632078
0.00628959
0.00622556
0.00613182
0.00601101
0.00588402
0.00577459
0.00568829
0.00562133
0.00556761
0.00552154
0.00547957
0.00544066
0.0054056
0.00537589
0.00535256
0.00533572
0.00532465
0.00531828
0.00531554
0.00569111
0.00569411
0.00570265
0.00572043
0.0057524
0.00580456
0.0058828
0.00598976
0.00611921
0.00625212
0.00636117
0.00642394
0.00643419
0.00640011
0.00633102
0.00622562
0.0060814
0.00592165
0.00578041
0.00566993
0.00558843
0.00552799
0.00548103
0.00544202
0.0054082
0.00537894
0.00535466
0.0053357
0.00532192
0.00531274
0.00530737
0.00530503
0.00573651
0.00573982
0.00574953
0.00577011
0.00580758
0.0058691
0.0059613
0.00608602
0.0062337
0.0063808
0.0064977
0.00656389
0.00657764
0.00654951
0.00648599
0.00637879
0.00621733
0.00602321
0.00583888
0.00568707
0.00557493
0.00549576
0.00543988
0.0053994
0.00536882
0.00534506
0.00532672
0.0053132
0.00530401
0.00529845
0.00529563
0.00529461
0.005806
0.0058099
0.00582157
0.00584655
0.00589206
0.00596622
0.00607554
0.00621963
0.0063847
0.00654355
0.00666722
0.00674088
0.00676891
0.00676266
0.00672382
0.00663717
0.00648286
0.00627272
0.00604963
0.00584483
0.00567653
0.0055502
0.00545924
0.00539728
0.00535676
0.00533201
0.00531887
0.00531426
0.00531546
0.00531973
0.00532438
0.00532732
0.00590565
0.00591053
0.00592527
0.00595678
0.00601355
0.00610413
0.00623345
0.00639707
0.00657666
0.00674403
0.00687547
0.00696497
0.00702223
0.00705737
0.00706886
0.00704075
0.00694846
0.00678584
0.00658061
0.0063619
0.00615306
0.0059696
0.00581672
0.00570016
0.00561642
0.00556419
0.00554
0.00553771
0.00554913
0.00556558
0.00558012
0.00558832
0.00603153
0.00603756
0.00605554
0.00609347
0.00616053
0.00626468
0.00640848
0.00658428
0.00677275
0.00694895
0.00709505
0.00720979
0.00730388
0.00738698
0.0074611
0.00752155
0.00755315
0.0075359
0.00746921
0.00736488
0.00723614
0.00709525
0.00695331
0.00681978
0.00669849
0.00659655
0.00651954
0.00646962
0.0064442
0.00643645
0.00643795
0.00644126
0.00614684
0.0061532
0.00617181
0.00621056
0.0062782
0.0063819
0.00652337
0.0066954
0.00688137
0.00706011
0.0072153
0.00734303
0.00745007
0.00754556
0.00763733
0.00773565
0.00784809
0.00796388
0.00806434
0.00814086
0.00818909
0.00820731
0.00819564
0.00815623
0.00809421
0.00801638
0.00793214
0.00785217
0.0077863
0.00774061
0.0077153
0.00770581
0.00622564
0.00623176
0.00624918
0.00628484
0.00634662
0.00644112
0.00657033
0.00672867
0.0069023
0.00707221
0.00722119
0.00734042
0.0074305
0.00749723
0.00754947
0.00760354
0.00768365
0.00780082
0.00794032
0.00808708
0.0082292
0.00835737
0.00846397
0.00854321
0.00859174
0.00860935
0.00859992
0.00857134
0.00853447
0.00850041
0.00847672
0.00846575
0.00627169
0.00627747
0.00629324
0.00632477
0.0063788
0.00646138
0.00657501
0.00671586
0.00687272
0.00702885
0.00716696
0.00727485
0.00734818
0.00738914
0.00740544
0.00741408
0.00744627
0.00752875
0.00765498
0.00781033
0.00798101
0.00815422
0.0083177
0.00846089
0.00857609
0.00865946
0.00871144
0.00873633
0.0087414
0.00873559
0.00872728
0.00872206
0.00629431
0.00629981
0.0063141
0.00634169
0.00638811
0.00645865
0.00655613
0.00667829
0.00681648
0.00695649
0.00708219
0.0071802
0.00724329
0.007271
0.00726973
0.00725585
0.00726167
0.00731875
0.00742694
0.00757644
0.0077569
0.00795654
0.00816051
0.00835255
0.00851821
0.0086479
0.00873874
0.00879404
0.00882131
0.0088301
0.0088298
0.00882764
0.0063
0.00630528
0.00631837
0.00634269
0.00638252
0.00644219
0.0065244
0.00662805
0.00674674
0.00686898
0.00698083
0.00706963
0.00712739
0.00715245
0.00715035
0.0071365
0.0071409
0.00719131
0.00728934
0.00742951
0.00760575
0.0078104
0.00803153
0.00825291
0.00845637
0.00862606
0.00875298
0.00883645
0.00888278
0.00890242
0.00890688
0.008906
0.00629511
0.00629996
0.00631171
0.00633305
0.00636722
0.00641751
0.00648612
0.00657246
0.0066719
0.00677568
0.00687285
0.0069531
0.0070096
0.00704087
0.00705198
0.00705674
0.00707955
0.00713961
0.00723761
0.00737153
0.00753904
0.00773647
0.00795641
0.00818635
0.00840903
0.00860565
0.00876168
0.00887091
0.00893619
0.00896712
0.00897649
0.00897672
0.00628994
0.00629353
0.00630266
0.00631987
0.00634799
0.00638955
0.00644606
0.00651696
0.00659895
0.00668598
0.00677061
0.0068459
0.00690729
0.00695402
0.00699035
0.00702724
0.0070805
0.0071592
0.00726312
0.00739336
0.00755079
0.00773495
0.00794229
0.00816467
0.00838864
0.00859673
0.00877146
0.00890113
0.00898361
0.00902588
0.00904062
0.00904215
0.00630195
0.00630264
0.00630625
0.00631599
0.00633533
0.0063669
0.00641193
0.00646989
0.00653868
0.00661479
0.00669417
0.00677296
0.00684837
0.00691967
0.00698931
0.00706432
0.00715098
0.00724929
0.00735933
0.00748516
0.00763031
0.00779701
0.00798486
0.00818933
0.00840101
0.00860589
0.00878723
0.00892986
0.00902624
0.00907908
0.00909944
0.00910248
0.00635436
0.00635004
0.00634427
0.00634185
0.00634815
0.00636738
0.00640155
0.00645074
0.00651397
0.0065895
0.00667517
0.00676834
0.00686632
0.00696717
0.0070709
0.00718064
0.00729474
0.007407
0.00751889
0.00763716
0.00776718
0.00791295
0.00807633
0.00825592
0.00844612
0.00863657
0.00881303
0.00895982
0.00906528
0.00912704
0.00915295
0.00915773
0.00646996
0.00645886
0.00644107
0.0064238
0.00641524
0.00642235
0.00644911
0.0064966
0.00656425
0.00665031
0.00675219
0.0068663
0.00698858
0.00711552
0.00724509
0.00737777
0.00750704
0.00762375
0.00773114
0.00783779
0.00795003
0.00807267
0.00820883
0.00835927
0.00852161
0.00868941
0.00885158
0.00899372
0.00910225
0.00917025
0.0092012
0.00920792
0.00666463
0.00664638
0.00661815
0.00659011
0.00657239
0.00657424
0.00660142
0.00665528
0.0067345
0.00683583
0.0069548
0.00708606
0.00722426
0.00736495
0.00750524
0.00764446
0.00777431
0.00788527
0.00798187
0.00807335
0.00816611
0.00826496
0.0083734
0.00849329
0.00862453
0.00876401
0.00890446
0.00903401
0.009139
0.00920946
0.00924431
0.00925306
0.00694533
0.00692215
0.00689186
0.00686621
0.0068536
0.00686238
0.00689813
0.00696169
0.00705082
0.00716101
0.00728653
0.00742119
0.00755936
0.00769676
0.00783065
0.0079602
0.00807747
0.00817418
0.00825522
0.00832926
0.00840205
0.0084779
0.00855998
0.00865047
0.00875039
0.008859
0.00897256
0.00908278
0.00917766
0.00924587
0.00928261
0.00929318
0.00731415
0.00729203
0.00727469
0.0072691
0.00727646
0.00730078
0.0073462
0.00741374
0.00750168
0.00760587
0.00772099
0.00784146
0.00796247
0.00808055
0.0081936
0.008301
0.00839629
0.00847311
0.00853583
0.00859162
0.00864515
0.00869982
0.00875819
0.00882218
0.00889305
0.00897128
0.00905567
0.00914161
0.00922028
0.00928102
0.00931667
0.00932841
0.00777576
0.00776523
0.00777575
0.00779862
0.0078274
0.00786324
0.0079097
0.00796908
0.00804129
0.00812386
0.0082131
0.00830496
0.00839597
0.00848368
0.00856667
0.00864456
0.00871281
0.00876707
0.00881062
0.00884862
0.00888441
0.00892037
0.00895829
0.00899955
0.00904518
0.00909594
0.00915189
0.00921121
0.0092688
0.00931669
0.00934744
0.00935895
0.00834473
0.00835644
0.00839061
0.0084258
0.00845855
0.00849059
0.00852499
0.00856452
0.00861021
0.00866122
0.00871569
0.00877129
0.00882597
0.00887832
0.00892753
0.00897339
0.00901328
0.00904475
0.00906975
0.00909129
0.00911133
0.00913122
0.00915198
0.0091744
0.00919909
0.00922658
0.0092572
0.00929053
0.00932447
0.00935477
0.00937614
0.00938528
0.0090422
0.0090525
0.00907149
0.00908822
0.00910246
0.00911525
0.00912784
0.00914147
0.00915679
0.0091737
0.00919166
0.00920992
0.00922783
0.00924491
0.00926092
0.00927579
0.00928869
0.00929882
0.00930683
0.0093137
0.00932004
0.0093263
0.00933278
0.00933975
0.00934739
0.00935587
0.00936533
0.00937572
0.00938655
0.00939667
0.0094044
0.00940815
)
;

boundaryField
{
    movingWall
    {
        type            fixedValue;
        value           uniform 0.00942;
    }
    fixedWalls
    {
        type            zeroGradient;
    }
    floor
    {
        type            zeroGradient;
    }
    frontAndBack
    {
        type            empty;
    }
}


// ************************************************************************* //
