/*--------------------------------*- C++ -*----------------------------------*\
| =========                 |                                                 |
| \\      /  F ield         | OpenFOAM: The Open Source CFD Toolbox           |
|  \\    /   O peration     | Version:  2212                                  |
|   \\  /    A nd           | Website:  www.openfoam.com                      |
|    \\/     M anipulation  |                                                 |
\*---------------------------------------------------------------------------*/
FoamFile
{
    version     2.0;
    format      ascii;
    arch        "LSB;label=64;scalar=64";
    class       volScalarField;
    location    "1010";
    object      T;
}
// * * * * * * * * * * * * * * * * * * * * * * * * * * * * * * * * * * * * * //

dimensions      [0 0 0 1 0 0 0];

internalField   nonuniform List<scalar> 
1024
(
309.994
309.994
309.994
309.993
309.992
309.99
309.988
309.986
309.984
309.982
309.98
309.98
309.982
309.983
309.984
309.986
309.987
309.988
309.989
309.99
309.991
309.992
309.993
309.993
309.994
309.995
309.995
309.996
309.996
309.996
309.996
309.996
309.982
309.982
309.98
309.978
309.974
309.969
309.963
309.957
309.95
309.943
309.939
309.939
309.943
309.947
309.951
309.956
309.96
309.963
309.967
309.97
309.972
309.975
309.977
309.979
309.981
309.983
309.985
309.986
309.988
309.988
309.989
309.989
309.969
309.969
309.966
309.961
309.954
309.945
309.935
309.924
309.913
309.902
309.894
309.895
309.901
309.908
309.915
309.922
309.929
309.935
309.941
309.946
309.951
309.955
309.959
309.963
309.966
309.97
309.973
309.976
309.978
309.979
309.98
309.98
309.956
309.955
309.951
309.944
309.933
309.92
309.906
309.89
309.875
309.862
309.852
309.852
309.859
309.867
309.876
309.885
309.895
309.904
309.912
309.92
309.927
309.933
309.939
309.944
309.95
309.955
309.96
309.964
309.967
309.97
309.971
309.971
309.942
309.94
309.936
309.926
309.913
309.896
309.878
309.859
309.841
309.827
309.817
309.817
309.823
309.831
309.84
309.85
309.861
309.872
309.882
309.892
309.901
309.909
309.917
309.924
309.932
309.939
309.945
309.951
309.956
309.959
309.961
309.961
309.929
309.927
309.921
309.91
309.894
309.875
309.854
309.833
309.816
309.802
309.793
309.792
309.796
309.803
309.811
309.82
309.83
309.841
309.853
309.864
309.874
309.885
309.894
309.903
309.912
309.921
309.93
309.938
309.944
309.948
309.95
309.951
309.916
309.914
309.908
309.897
309.879
309.858
309.836
309.816
309.799
309.787
309.779
309.777
309.78
309.784
309.79
309.798
309.806
309.816
309.827
309.838
309.85
309.861
309.872
309.882
309.893
309.904
309.915
309.924
309.932
309.937
309.94
309.941
309.904
309.903
309.897
309.886
309.869
309.847
309.825
309.806
309.79
309.778
309.771
309.769
309.771
309.774
309.779
309.785
309.791
309.798
309.807
309.817
309.829
309.84
309.852
309.863
309.875
309.888
309.9
309.912
309.921
309.927
309.93
309.931
309.893
309.892
309.887
309.877
309.861
309.841
309.82
309.801
309.785
309.774
309.767
309.766
309.767
309.77
309.774
309.779
309.784
309.789
309.795
309.803
309.813
309.824
309.835
309.847
309.86
309.874
309.888
309.9
309.911
309.918
309.921
309.922
309.883
309.882
309.879
309.87
309.856
309.837
309.817
309.799
309.782
309.77
309.765
309.764
309.766
309.769
309.773
309.778
309.783
309.787
309.791
309.796
309.804
309.813
309.824
309.836
309.849
309.864
309.878
309.892
309.903
309.909
309.913
309.913
309.874
309.873
309.87
309.863
309.851
309.835
309.816
309.796
309.779
309.768
309.763
309.763
309.766
309.769
309.773
309.779
309.784
309.789
309.792
309.795
309.801
309.808
309.818
309.83
309.844
309.858
309.873
309.887
309.897
309.903
309.905
309.906
309.865
309.864
309.862
309.856
309.846
309.831
309.813
309.793
309.775
309.765
309.761
309.762
309.765
309.769
309.774
309.78
309.787
309.793
309.797
309.799
309.803
309.81
309.819
309.83
309.844
309.858
309.873
309.885
309.893
309.897
309.899
309.9
309.855
309.855
309.853
309.848
309.838
309.824
309.806
309.786
309.769
309.761
309.759
309.761
309.764
309.768
309.773
309.779
309.788
309.797
309.804
309.808
309.812
309.818
309.826
309.837
309.849
309.862
309.874
309.883
309.889
309.892
309.893
309.893
309.845
309.844
309.842
309.837
309.827
309.813
309.794
309.775
309.762
309.756
309.756
309.757
309.76
309.763
309.768
309.774
309.783
309.795
309.807
309.817
309.825
309.832
309.839
309.848
309.857
309.867
309.875
309.881
309.884
309.886
309.886
309.886
309.832
309.831
309.829
309.823
309.811
309.795
309.777
309.761
309.752
309.749
309.749
309.749
309.751
309.752
309.755
309.76
309.769
309.78
309.792
309.806
309.82
309.833
309.844
309.851
309.858
309.865
309.87
309.873
309.874
309.874
309.874
309.873
309.819
309.818
309.815
309.807
309.795
309.778
309.761
309.747
309.738
309.734
309.732
309.731
309.732
309.733
309.735
309.738
309.743
309.75
309.758
309.766
309.774
309.783
309.793
309.804
309.815
309.825
309.834
309.839
309.841
309.84
309.839
309.838
309.809
309.808
309.805
309.797
309.785
309.769
309.752
309.739
309.73
309.725
309.721
309.718
309.717
309.716
309.717
309.72
309.725
309.73
309.737
309.743
309.748
309.753
309.757
309.76
309.762
309.764
309.765
309.768
309.77
309.772
309.773
309.773
309.804
309.802
309.799
309.792
309.781
309.765
309.75
309.736
309.727
309.72
309.715
309.712
309.709
309.707
309.707
309.709
309.713
309.72
309.727
309.735
309.742
309.749
309.754
309.759
309.762
309.764
309.764
309.763
309.762
309.76
309.758
309.757
309.8
309.799
309.796
309.79
309.779
309.765
309.75
309.736
309.726
309.718
309.713
309.709
309.705
309.702
309.701
309.701
309.704
309.711
309.718
309.727
309.736
309.745
309.753
309.759
309.764
309.767
309.769
309.77
309.769
309.768
309.766
309.765
309.798
309.797
309.795
309.789
309.78
309.767
309.753
309.739
309.727
309.719
309.713
309.708
309.704
309.701
309.698
309.698
309.7
309.705
309.712
309.72
309.73
309.74
309.749
309.757
309.764
309.768
309.772
309.773
309.774
309.774
309.773
309.772
309.798
309.797
309.794
309.789
309.781
309.77
309.756
309.743
309.731
309.721
309.714
309.709
309.705
309.702
309.7
309.699
309.7
309.704
309.71
309.718
309.726
309.735
309.745
309.754
309.762
309.768
309.772
309.775
309.776
309.776
309.776
309.776
309.798
309.797
309.794
309.79
309.782
309.772
309.76
309.747
309.735
309.726
309.718
309.712
309.708
309.705
309.703
309.703
309.705
309.708
309.713
309.719
309.726
309.734
309.743
309.752
309.76
309.767
309.772
309.775
309.777
309.778
309.778
309.778
309.798
309.797
309.795
309.791
309.784
309.775
309.764
309.752
309.741
309.731
309.723
309.717
309.713
309.71
309.709
309.709
309.712
309.715
309.719
309.724
309.73
309.736
309.744
309.751
309.759
309.766
309.771
309.775
309.777
309.778
309.779
309.779
309.799
309.798
309.796
309.792
309.786
309.778
309.768
309.757
309.746
309.737
309.73
309.724
309.72
309.717
309.716
309.717
309.72
309.723
309.727
309.731
309.736
309.741
309.747
309.753
309.76
309.766
309.771
309.775
309.777
309.779
309.779
309.779
309.8
309.799
309.797
309.793
309.787
309.78
309.771
309.761
309.752
309.744
309.737
309.732
309.728
309.726
309.725
309.727
309.729
309.732
309.735
309.739
309.742
309.747
309.751
309.756
309.761
309.766
309.771
309.775
309.777
309.779
309.779
309.78
309.801
309.8
309.798
309.794
309.789
309.782
309.774
309.766
309.758
309.751
309.745
309.741
309.738
309.736
309.736
309.737
309.739
309.742
309.744
309.747
309.75
309.753
309.757
309.76
309.764
309.768
309.772
309.775
309.777
309.779
309.779
309.78
309.801
309.8
309.798
309.795
309.79
309.784
309.777
309.77
309.764
309.758
309.753
309.75
309.748
309.746
309.746
309.747
309.749
309.751
309.753
309.755
309.757
309.76
309.762
309.765
309.767
309.77
309.773
309.775
309.777
309.778
309.779
309.78
309.802
309.801
309.799
309.796
309.791
309.786
309.78
309.775
309.77
309.765
309.762
309.759
309.758
309.757
309.757
309.758
309.759
309.76
309.762
309.763
309.764
309.766
309.767
309.769
309.77
309.772
309.774
309.776
309.777
309.778
309.779
309.779
309.802
309.801
309.799
309.797
309.793
309.789
309.784
309.78
309.777
309.773
309.771
309.769
309.768
309.767
309.767
309.767
309.767
309.768
309.769
309.769
309.77
309.771
309.772
309.772
309.773
309.774
309.775
309.776
309.777
309.778
309.779
309.779
309.802
309.802
309.8
309.798
309.796
309.792
309.789
309.786
309.784
309.782
309.78
309.778
309.777
309.776
309.775
309.774
309.774
309.774
309.774
309.774
309.774
309.775
309.775
309.775
309.776
309.776
309.777
309.777
309.778
309.778
309.779
309.779
309.803
309.802
309.801
309.8
309.799
309.797
309.795
309.793
309.791
309.789
309.787
309.785
309.783
309.782
309.78
309.779
309.778
309.778
309.777
309.777
309.777
309.777
309.777
309.777
309.777
309.777
309.778
309.778
309.778
309.778
309.779
309.779
309.803
309.803
309.803
309.802
309.801
309.8
309.798
309.796
309.795
309.793
309.791
309.788
309.786
309.785
309.783
309.781
309.78
309.779
309.779
309.778
309.778
309.778
309.778
309.778
309.778
309.778
309.778
309.778
309.778
309.779
309.779
309.779
)
;

boundaryField
{
    movingWall
    {
        type            zeroGradient;
    }
    fixedWalls
    {
        type            zeroGradient;
    }
    floor
    {
        type            fixedValue;
        value           uniform 310;
    }
    frontAndBack
    {
        type            empty;
    }
}


// ************************************************************************* //
