/*--------------------------------*- C++ -*----------------------------------*\
| =========                 |                                                 |
| \\      /  F ield         | OpenFOAM: The Open Source CFD Toolbox           |
|  \\    /   O peration     | Version:  2206                                  |
|   \\  /    A nd           | Website:  www.openfoam.com                      |
|    \\/     M anipulation  |                                                 |
\*---------------------------------------------------------------------------*/
FoamFile
{
    version     2.0;
    format      ascii;
    arch        "LSB;label=64;scalar=64";
    class       volScalarField;
    location    "2.4/water";
    object      alpha.gas;
}
// * * * * * * * * * * * * * * * * * * * * * * * * * * * * * * * * * * * * * //

dimensions      [0 0 0 0 0 0 0];

internalField   nonuniform List<scalar> 
23300
(
1e-15
1e-15
1e-15
1e-15
1e-15
1e-15
1e-15
1e-15
1e-15
1e-15
1e-15
1e-15
1e-15
1e-15
1e-15
1e-15
1e-15
1e-15
1e-15
1e-15
1e-15
1e-15
1e-15
1e-15
1e-15
1e-15
1e-15
1e-15
1e-15
1e-15
1e-15
1e-15
1e-15
1e-15
1e-15
1e-15
1e-15
1e-15
1e-15
1e-15
1e-15
1e-15
1e-15
1e-15
1e-15
1e-15
1e-15
1e-15
1e-15
1e-15
1e-15
1e-15
1e-15
1e-15
1e-15
1e-15
1e-15
1e-15
1e-15
1e-15
1e-15
1e-15
1e-15
1e-15
1e-15
1e-15
1e-15
1e-15
1e-15
1e-15
1e-15
1e-15
1e-15
1e-15
1e-15
1e-15
1e-15
1e-15
1e-15
1e-15
1e-15
1e-15
1e-15
1e-15
1e-15
1e-15
1e-15
1e-15
1e-15
1e-15
1e-15
1e-15
1e-15
1e-15
1e-15
1e-15
1e-15
1e-15
1e-15
1e-15
1e-15
1e-15
1e-15
1e-15
1e-15
1e-15
1e-15
1e-15
1e-15
1e-15
1e-15
1e-15
1e-15
1e-15
1e-15
1e-15
1e-15
1e-15
1e-15
1e-15
1e-15
1e-15
1e-15
1e-15
1e-15
1e-15
1e-15
1e-15
1e-15
1e-15
1e-15
1e-15
1e-15
1e-15
1e-15
1e-15
1e-15
1e-15
1e-15
1e-15
1e-15
1e-15
1e-15
1e-15
1e-15
1e-15
1e-15
1e-15
1e-15
1e-15
1e-15
1e-15
1e-15
1e-15
1e-15
1e-15
1e-15
1e-15
1e-15
1e-15
1e-15
1e-15
1e-15
1e-15
1e-15
1e-15
1e-15
1e-15
1e-15
1e-15
1e-15
1e-15
1e-15
1e-15
1e-15
1e-15
1e-15
1e-15
1e-15
1e-15
1e-15
1e-15
1e-15
1e-15
1e-15
1e-15
1e-15
1e-15
1e-15
1e-15
1e-15
1e-15
1e-15
1e-15
1e-15
1e-15
1e-15
1e-15
1e-15
1e-15
1e-15
1e-15
1e-15
1e-15
1e-15
1e-15
1e-15
1e-15
1e-15
1e-15
1e-15
1e-15
1e-15
1e-15
1e-15
1e-15
1e-15
1e-15
1e-15
1e-15
1e-15
1e-15
1e-15
1e-15
1e-15
1e-15
1e-15
1e-15
1e-15
1e-15
1e-15
1e-15
1e-15
1e-15
1e-15
1e-15
1e-15
1e-15
1e-15
1e-15
1e-15
1e-15
1e-15
1e-15
1e-15
1e-15
1e-15
1e-15
1e-15
1e-15
1e-15
1e-15
1e-15
1e-15
1e-15
1e-15
1e-15
1e-15
1e-15
1e-15
1e-15
1e-15
1e-15
1e-15
1e-15
1e-15
1e-15
1e-15
1e-15
1e-15
1e-15
1e-15
1e-15
1e-15
1e-15
1e-15
1e-15
1e-15
1e-15
1e-15
1e-15
1e-15
1e-15
1e-15
1e-15
1e-15
1e-15
1e-15
1e-15
1e-15
1e-15
1e-15
1e-15
1e-15
1e-15
1e-15
1e-15
1e-15
1e-15
1e-15
1e-15
1e-15
1e-15
1e-15
1e-15
1e-15
1e-15
1e-15
1e-15
1e-15
1e-15
1e-15
1e-15
1e-15
1e-15
1e-15
1e-15
1e-15
1e-15
1e-15
1e-15
1e-15
1e-15
1e-15
1e-15
1e-15
1e-15
1e-15
1e-15
1e-15
1e-15
1e-15
1e-15
1e-15
1e-15
1e-15
1e-15
1e-15
1e-15
1e-15
1e-15
1e-15
1e-15
1e-15
1e-15
1e-15
1e-15
1e-15
1e-15
1e-15
1e-15
1e-15
1e-15
1e-15
1e-15
1e-15
1e-15
1e-15
1e-15
1e-15
1e-15
1e-15
1e-15
1e-15
1e-15
1e-15
1e-15
1e-15
1e-15
1e-15
1e-15
1e-15
1e-15
1e-15
1e-15
1e-15
1e-15
1e-15
1e-15
1e-15
1e-15
1e-15
1e-15
1e-15
1e-15
1e-15
1e-15
1e-15
1e-15
1e-15
1e-15
1e-15
1e-15
1e-15
1e-15
1e-15
1e-15
1e-15
1e-15
1e-15
1e-15
1e-15
1e-15
1e-15
1e-15
1e-15
1e-15
1e-15
1e-15
1e-15
1e-15
1e-15
1e-15
1e-15
1e-15
1e-15
1e-15
1e-15
1e-15
1e-15
1e-15
1e-15
1e-15
1e-15
1e-15
1e-15
1e-15
1e-15
1e-15
1e-15
1e-15
1e-15
1e-15
1e-15
1e-15
1e-15
1e-15
1e-15
1e-15
1e-15
1e-15
1e-15
1e-15
1e-15
1e-15
1e-15
1e-15
1e-15
1e-15
1e-15
1e-15
1e-15
1e-15
1e-15
1e-15
1e-15
1e-15
1e-15
1e-15
1e-15
1e-15
1e-15
1e-15
1e-15
1e-15
1e-15
1e-15
1e-15
1e-15
1e-15
1e-15
1e-15
1e-15
1e-15
1e-15
1e-15
1e-15
1e-15
1e-15
1e-15
1e-15
1e-15
1e-15
1e-15
1e-15
1e-15
1e-15
1e-15
1e-15
1e-15
1e-15
1e-15
1e-15
1e-15
1e-15
1e-15
1e-15
1e-15
1e-15
1e-15
1e-15
1e-15
1e-15
1e-15
1e-15
1e-15
1e-15
1e-15
1e-15
1e-15
1e-15
1e-15
1e-15
1e-15
1e-15
1e-15
1e-15
1e-15
1e-15
1e-15
1e-15
1e-15
1e-15
1e-15
1e-15
1e-15
1e-15
1e-15
1e-15
1e-15
1e-15
1e-15
1e-15
1e-15
1e-15
1e-15
1e-15
1e-15
1e-15
1e-15
1e-15
1e-15
1e-15
1e-15
1e-15
1e-15
1e-15
1e-15
1e-15
1e-15
1e-15
1e-15
1e-15
1e-15
1e-15
1e-15
1e-15
1e-15
1e-15
1e-15
1.01246985246e-15
1e-15
1e-15
1e-15
1e-15
1e-15
1e-15
1e-15
1e-15
1e-15
1e-15
1e-15
1e-15
1e-15
1e-15
1e-15
1e-15
1e-15
1e-15
1e-15
1e-15
1e-15
1e-15
1e-15
1e-15
1e-15
1e-15
1e-15
1e-15
1e-15
1e-15
1e-15
1e-15
1e-15
1e-15
1e-15
1e-15
1e-15
1e-15
1e-15
1e-15
1e-15
1e-15
1e-15
1e-15
1e-15
1e-15
1e-15
1e-15
1e-15
1e-15
1e-15
1e-15
1e-15
1e-15
1e-15
1e-15
1e-15
1e-15
1e-15
1e-15
1e-15
1e-15
1e-15
1e-15
1e-15
1e-15
1e-15
1e-15
1e-15
1e-15
1e-15
1e-15
1e-15
1e-15
1e-15
1e-15
1e-15
1e-15
1e-15
1e-15
1e-15
1e-15
1e-15
1e-15
1e-15
1e-15
1e-15
1e-15
1e-15
1e-15
1e-15
1e-15
1e-15
1e-15
1e-15
1e-15
1e-15
1e-15
1e-15
1e-15
1e-15
1e-15
1e-15
1e-15
1e-15
1e-15
1e-15
1e-15
1e-15
1e-15
1e-15
1e-15
1e-15
1e-15
1e-15
1e-15
1e-15
1e-15
1e-15
1e-15
1e-15
1e-15
1e-15
1e-15
1e-15
1e-15
1e-15
1e-15
1e-15
1e-15
1e-15
1e-15
1e-15
1.02320645207e-15
1.02386718312e-15
1e-15
1e-15
1e-15
1e-15
1.00884614388e-15
1e-15
1e-15
1e-15
1e-15
1e-15
1e-15
1e-15
1e-15
1e-15
1e-15
1e-15
1e-15
1e-15
1e-15
1e-15
1e-15
1e-15
1e-15
1e-15
1e-15
1e-15
1e-15
1e-15
1e-15
1e-15
1e-15
1e-15
1e-15
1e-15
1e-15
1e-15
1e-15
1e-15
1e-15
1e-15
1e-15
1e-15
1e-15
1e-15
1e-15
1e-15
1e-15
1e-15
1e-15
1e-15
1e-15
1e-15
1e-15
1e-15
1e-15
1e-15
1e-15
1e-15
1e-15
1e-15
1e-15
1e-15
1e-15
1e-15
1e-15
1e-15
1e-15
1e-15
1e-15
1e-15
1e-15
1e-15
1e-15
1e-15
1e-15
1e-15
1e-15
1e-15
1e-15
1e-15
1e-15
1e-15
1e-15
1e-15
1e-15
1e-15
1e-15
1e-15
1e-15
1e-15
1e-15
1e-15
1e-15
1e-15
1e-15
1e-15
1e-15
1e-15
1e-15
1e-15
1e-15
1e-15
1e-15
1e-15
1e-15
1e-15
1e-15
1e-15
1e-15
1e-15
1e-15
1e-15
1e-15
1e-15
1e-15
1.00001827537e-15
1e-15
1.00006911715e-15
1e-15
1.00051163036e-15
1.00063643045e-15
1.00029376293e-15
1e-15
1.00003841655e-15
1e-15
1e-15
1e-15
1e-15
1e-15
1e-15
1e-15
1e-15
1e-15
1e-15
1e-15
1e-15
1e-15
1e-15
1.02429795555e-15
1.02320645207e-15
1e-15
1e-15
1e-15
1e-15
1.01249459989e-15
1e-15
1e-15
1e-15
1e-15
1e-15
1e-15
1e-15
1e-15
1e-15
1e-15
1e-15
1e-15
1e-15
1e-15
1e-15
1e-15
1e-15
1e-15
1e-15
1e-15
1e-15
1e-15
1e-15
1e-15
1e-15
1e-15
1e-15
1e-15
1e-15
1e-15
1e-15
1e-15
1e-15
1e-15
1e-15
1e-15
1e-15
1.00000186647e-15
1.00005886691e-15
1.0004029532e-15
1.00088601495e-15
1.00110723013e-15
1.00117742209e-15
1.00128066194e-15
1.00130361619e-15
1.00139787882e-15
1.00138695861e-15
1.00122575245e-15
1.00105488616e-15
1.00093840293e-15
1.00051584715e-15
1.00027219363e-15
1.000272448e-15
1.00026962202e-15
1.00025271176e-15
1.00023704224e-15
1.00021366443e-15
1.00018854149e-15
1.00015772632e-15
1.00012686092e-15
1.00008962163e-15
1.00005067432e-15
1.00001038009e-15
1.00000155557e-15
1e-15
1e-15
1e-15
1e-15
1e-15
1e-15
1e-15
1e-15
1e-15
1e-15
1e-15
1e-15
1e-15
1e-15
1e-15
1e-15
1e-15
1e-15
1e-15
1e-15
1e-15
1e-15
1e-15
1e-15
1e-15
1e-15
1e-15
1e-15
1e-15
1e-15
1e-15
1e-15
1e-15
1e-15
1e-15
1.00000282189e-15
1.00003766117e-15
1.00013038492e-15
1.00021797086e-15
1.00028219429e-15
1.00037046511e-15
1.00724008374e-15
1.00810307248e-15
1.00831679132e-15
1.00810307248e-15
1.00836092161e-15
1.00810307248e-15
1.00837207276e-15
1.00810307248e-15
1.0083888925e-15
1.00810307248e-15
1.00841176794e-15
1.00810307248e-15
1.00838945133e-15
1.00810307248e-15
1.00837369005e-15
1.00810307248e-15
1.00835775882e-15
1.00810307248e-15
1.00832362916e-15
1.00810307248e-15
1.007935936e-15
1.00676549145e-15
1.00507241984e-15
1.00014136061e-15
1.00000336727e-15
1.00000124872e-15
1.00000447392e-15
1.02354674809e-15
1.02320645207e-15
1.02427430813e-15
1.0013735116e-15
1.00035771651e-15
1e-15
1e-15
1.00884614388e-15
1e-15
1e-15
1e-15
1e-15
1e-15
1e-15
1e-15
1e-15
1e-15
1e-15
1e-15
1e-15
1e-15
1e-15
1e-15
1e-15
1e-15
1e-15
1e-15
1e-15
1e-15
1e-15
1e-15
1e-15
1e-15
1e-15
1e-15
1e-15
1e-15
1e-15
1e-15
1e-15
1e-15
1e-15
1e-15
1e-15
1.0000001788e-15
1.00020221102e-15
1.00074282853e-15
1.0013848207e-15
1.00140391782e-15
1.00138695857e-15
1.00140397325e-15
1.00138695857e-15
1.00140405464e-15
1.00138695861e-15
1.00140405325e-15
1.00138695861e-15
1.00140273542e-15
1.00138695861e-15
1.00139440389e-15
1.00089963992e-15
1.00060935335e-15
1.0005916646e-15
1.00054812186e-15
1.00049454882e-15
1.00043742809e-15
1.00038768014e-15
1.00034196766e-15
1.00028398195e-15
1.00015538965e-15
1.00003081221e-15
1e-15
1e-15
1e-15
1e-15
1e-15
1e-15
1e-15
1e-15
1e-15
1e-15
1e-15
1e-15
1e-15
1e-15
1e-15
1e-15
1e-15
1e-15
1e-15
1e-15
1e-15
1e-15
1e-15
1e-15
1e-15
1e-15
1e-15
1e-15
1e-15
1e-15
1e-15
1e-15
1e-15
1e-15
1e-15
1e-15
1e-15
1.00000704318e-15
1.00008307997e-15
1.00032585646e-15
1.00052438117e-15
1.00066746125e-15
1.00489225266e-15
1.00810307248e-15
1.00837404607e-15
1.00810307248e-15
1.00842519962e-15
1.00810307248e-15
1.00845241667e-15
1.00810307248e-15
1.00845732449e-15
1.00810307248e-15
1.00846552404e-15
1.00810307248e-15
1.0084678354e-15
1.00810307248e-15
1.00846425922e-15
1.00810307248e-15
1.00845483065e-15
1.00810307248e-15
1.00843489542e-15
1.00810307248e-15
1.00839789305e-15
1.00810307248e-15
1.00834893399e-15
1.00810307248e-15
1.00586479156e-15
1.00011712417e-15
1.00000442804e-15
1.00002488909e-15
1.02320645207e-15
1.02431189025e-15
1.02320645207e-15
1.0034193648e-15
1.00075684777e-15
1e-15
1e-15
1.01211580017e-15
1e-15
1e-15
1e-15
1e-15
1e-15
1e-15
1e-15
1e-15
1e-15
1e-15
1e-15
1e-15
1e-15
1e-15
1e-15
1e-15
1e-15
1e-15
1e-15
1e-15
1e-15
1e-15
1e-15
1e-15
1e-15
1e-15
1e-15
1e-15
1e-15
1e-15
1e-15
1e-15
1e-15
1e-15
1.00002103356e-15
1.00008943109e-15
1.00022978479e-15
1.00068615851e-15
1.00138695857e-15
1.00139814369e-15
1.00138695857e-15
1.00140169294e-15
1.00138695857e-15
1.00140355422e-15
1.00138695857e-15
1.00140405325e-15
1.00138695861e-15
1.0014008952e-15
1.00138695861e-15
1.00139467662e-15
1.00138695861e-15
1.00138950396e-15
1.00103492796e-15
1.00085317277e-15
1.00079416311e-15
1.00074169903e-15
1.00067056449e-15
1.00053953202e-15
1.00038904535e-15
1.00023502709e-15
1.00007014141e-15
1e-15
1e-15
1e-15
1e-15
1e-15
1e-15
1e-15
1e-15
1e-15
1e-15
1e-15
1e-15
1e-15
1e-15
1e-15
1e-15
1e-15
1e-15
1e-15
1e-15
1e-15
1e-15
1e-15
1e-15
1e-15
1e-15
1e-15
1e-15
1e-15
1e-15
1e-15
1e-15
1e-15
1e-15
1e-15
1e-15
1e-15
1e-15
1.00000641241e-15
1.00021804366e-15
1.00059933106e-15
1.000895481e-15
1.00117325661e-15
1.00810307248e-15
1.00833251106e-15
1.00810307248e-15
1.00838556749e-15
1.00810307248e-15
1.00842634792e-15
1.00810307248e-15
1.0084523012e-15
1.00810307248e-15
1.00845699595e-15
1.00810307248e-15
1.00846455632e-15
1.00810307248e-15
1.00846417073e-15
1.00810307248e-15
1.00845483065e-15
1.00810307248e-15
1.00843933522e-15
1.00810307248e-15
1.00840617342e-15
1.00810307248e-15
1.00836698017e-15
1.00810307248e-15
1.00832262937e-15
1.00810307248e-15
1.0006436306e-15
1.00003217559e-15
1.00016029598e-15
1.02398825405e-15
1.02320645207e-15
1.02423856647e-15
1.00561067196e-15
1.00085050848e-15
1e-15
1e-15
1.00884614388e-15
1e-15
1e-15
1e-15
1e-15
1e-15
1e-15
1e-15
1e-15
1e-15
1e-15
1e-15
1e-15
1e-15
1e-15
1e-15
1e-15
1e-15
1e-15
1e-15
1e-15
1e-15
1e-15
1e-15
1e-15
1e-15
1e-15
1e-15
1e-15
1e-15
1e-15
1e-15
1e-15
1e-15
1.00004420802e-15
1.00012033954e-15
1.00022047294e-15
1.00051677293e-15
1.00110518407e-15
1.00139100421e-15
1.00138695857e-15
1.00139451497e-15
1.00138695857e-15
1.00139608625e-15
1.00138695857e-15
1.00139656e-15
1.00138695857e-15
1.00139995844e-15
1.00138695861e-15
1.00138932325e-15
1.00138695861e-15
1.0013889694e-15
1.00138695861e-15
1.00131968037e-15
1.00112667875e-15
1.00098592291e-15
1.00083750665e-15
1.00065744873e-15
1.00049453697e-15
1.00028880803e-15
1.00005745219e-15
1e-15
1e-15
1e-15
1e-15
1e-15
1e-15
1e-15
1e-15
1e-15
1e-15
1e-15
1e-15
1e-15
1e-15
1e-15
1e-15
1e-15
1e-15
1e-15
1e-15
1e-15
1e-15
1e-15
1e-15
1e-15
1e-15
1e-15
1e-15
1e-15
1e-15
1e-15
1e-15
1e-15
1e-15
1e-15
1e-15
1e-15
1e-15
1e-15
1.00000635108e-15
1.00041498267e-15
1.0009119155e-15
1.00131231548e-15
1.00165579362e-15
1.00827122579e-15
1.00810307248e-15
1.0083403485e-15
1.00810307248e-15
1.0083893472e-15
1.00810307248e-15
1.00842213943e-15
1.00810307248e-15
1.00844401734e-15
1.00810307248e-15
1.00845666077e-15
1.00810307248e-15
1.0084611733e-15
1.00810307248e-15
1.00845430333e-15
1.00810307248e-15
1.00843788679e-15
1.00810307248e-15
1.00840833454e-15
1.00810307248e-15
1.00837624393e-15
1.00810307248e-15
1.00833687348e-15
1.00810307248e-15
1.00829145555e-15
1.00146567306e-15
1.00010783026e-15
1.00044985526e-15
1.02320645207e-15
1.02430089777e-15
1.02320645207e-15
1.00771079768e-15
1.0006932517e-15
1e-15
1e-15
1.01164442112e-15
1e-15
1e-15
1e-15
1e-15
1e-15
1e-15
1e-15
1e-15
1e-15
1e-15
1e-15
1e-15
1e-15
1e-15
1e-15
1e-15
1e-15
1e-15
1e-15
1e-15
1e-15
1e-15
1e-15
1e-15
1e-15
1e-15
1e-15
1e-15
1e-15
1e-15
1e-15
1e-15
1e-15
1.00009602377e-15
1.00017061521e-15
1.00034925534e-15
1.0008176953e-15
1.00136189333e-15
1.00138695857e-15
1.00138970018e-15
1.00138695857e-15
1.00139073114e-15
1.00138695857e-15
1.00139119682e-15
1.00138695857e-15
1.00139112332e-15
1.00138695857e-15
1.00138922668e-15
1.00138326489e-15
1.00137721892e-15
1.00136486136e-15
1.00135105792e-15
1.00129229871e-15
1.00112854814e-15
1.00095517645e-15
1.00077156184e-15
1.00055093244e-15
1.00030217805e-15
1.00001885913e-15
1e-15
1e-15
1e-15
1e-15
1e-15
1e-15
1e-15
1e-15
1e-15
1e-15
1e-15
1e-15
1e-15
1e-15
1e-15
1e-15
1e-15
1e-15
1e-15
1e-15
1e-15
1e-15
1e-15
1e-15
1e-15
1e-15
1e-15
1e-15
1e-15
1e-15
1e-15
1e-15
1e-15
1e-15
1e-15
1e-15
1e-15
1e-15
1e-15
1e-15
1.00001412975e-15
1.0006156677e-15
1.00121431883e-15
1.00172465282e-15
1.00278746698e-15
1.00810307248e-15
1.00830017089e-15
1.00810307248e-15
1.00834848478e-15
1.00810307248e-15
1.00838484313e-15
1.00810307248e-15
1.0084134772e-15
1.00810307248e-15
1.0084302182e-15
1.00810307248e-15
1.00843985567e-15
1.00810307248e-15
1.00844037239e-15
1.00810307248e-15
1.00842736767e-15
1.00810307248e-15
1.00840618572e-15
1.00810307248e-15
1.00837747811e-15
1.00810307248e-15
1.00834315245e-15
1.00810307248e-15
1.00830452918e-15
1.00810307248e-15
1.00211549151e-15
1.00030676751e-15
1.00085857303e-15
1.02403553475e-15
1.02320645207e-15
1.02418794332e-15
1.00957107641e-15
1.00025144492e-15
1e-15
1e-15
1.00884614388e-15
1e-15
1e-15
1e-15
1e-15
1e-15
1e-15
1e-15
1e-15
1e-15
1e-15
1e-15
1e-15
1e-15
1e-15
1e-15
1e-15
1e-15
1e-15
1e-15
1e-15
1e-15
1e-15
1e-15
1e-15
1e-15
1e-15
1e-15
1e-15
1e-15
1e-15
1e-15
1e-15
1.00001331671e-15
1.00008060841e-15
1.0001999466e-15
1.00052295081e-15
1.001063992e-15
1.00137586412e-15
1.00138433995e-15
1.00138695857e-15
1.00138787675e-15
1.00138695857e-15
1.00138810231e-15
1.00138695857e-15
1.00138808871e-15
1.00138695857e-15
1.00138904918e-15
1.00138695857e-15
1.0013088229e-15
1.00129572867e-15
1.00126734894e-15
1.00123552468e-15
1.00117513333e-15
1.00104013221e-15
1.00081923102e-15
1.00057194435e-15
1.00025043673e-15
1e-15
1e-15
1e-15
1e-15
1e-15
1e-15
1e-15
1e-15
1e-15
1e-15
1e-15
1e-15
1e-15
1e-15
1e-15
1e-15
1e-15
1e-15
1e-15
1e-15
1e-15
1e-15
1e-15
1e-15
1e-15
1e-15
1e-15
1e-15
1e-15
1e-15
1e-15
1e-15
1e-15
1e-15
1e-15
1e-15
1e-15
1e-15
1e-15
1e-15
1e-15
1e-15
1.00006050105e-15
1.0007700681e-15
1.00155778644e-15
1.00215203063e-15
1.00754051845e-15
1.00825602404e-15
1.00810307248e-15
1.00830402332e-15
1.00810307248e-15
1.00834836134e-15
1.00810307248e-15
1.00837947974e-15
1.00810307248e-15
1.00839864482e-15
1.00810307248e-15
1.00841138682e-15
1.00810307248e-15
1.00842146379e-15
1.00810307248e-15
1.00841372842e-15
1.00810307248e-15
1.00840037387e-15
1.00810307248e-15
1.00837651514e-15
1.00810307248e-15
1.00834720189e-15
1.00810307248e-15
1.00831283447e-15
1.00810307248e-15
1.00827254509e-15
1.00389757387e-15
1.00073092432e-15
1.00133145742e-15
1.02320645207e-15
1.02427549646e-15
1.02320645207e-15
1.01116211148e-15
1e-15
1e-15
1.00949969355e-15
1.01108980038e-15
1e-15
1e-15
1e-15
1e-15
1e-15
1e-15
1e-15
1e-15
1e-15
1e-15
1e-15
1e-15
1e-15
1e-15
1e-15
1e-15
1e-15
1e-15
1e-15
1e-15
1e-15
1e-15
1e-15
1e-15
1e-15
1e-15
1e-15
1e-15
1e-15
1e-15
1e-15
1e-15
1e-15
1.00004157115e-15
1.00026042384e-15
1.00072063839e-15
1.00119493232e-15
1.00134797086e-15
1.00134765565e-15
1.00135524914e-15
1.00135216279e-15
1.00135567417e-15
1.00134872949e-15
1.00134720161e-15
1.00133520829e-15
1.00133194612e-15
1.00133876182e-15
1.00134844574e-15
1.00123447156e-15
1.00114796887e-15
1.0011075199e-15
1.00105684904e-15
1.0009752114e-15
1.00082041168e-15
1.00051493097e-15
1.00015792529e-15
1e-15
1e-15
1e-15
1e-15
1e-15
1e-15
1e-15
1e-15
1e-15
1e-15
1e-15
1e-15
1e-15
1e-15
1e-15
1e-15
1e-15
1e-15
1e-15
1e-15
1e-15
1e-15
1e-15
1e-15
1e-15
1e-15
1e-15
1e-15
1e-15
1e-15
1e-15
1e-15
1e-15
1e-15
1e-15
1e-15
1e-15
1e-15
1e-15
1e-15
1e-15
1e-15
1e-15
1.00012122947e-15
1.00096618568e-15
1.00184156371e-15
1.00257865094e-15
1.00820444488e-15
1.00810307248e-15
1.00826568867e-15
1.00810307248e-15
1.00830803254e-15
1.00810307248e-15
1.00834057546e-15
1.00810307248e-15
1.00836707236e-15
1.00810307248e-15
1.00838368469e-15
1.00810307248e-15
1.00839198468e-15
1.00810307248e-15
1.00839681323e-15
1.00810307248e-15
1.00838622596e-15
1.00810307248e-15
1.00836845889e-15
1.00810307248e-15
1.00834370824e-15
1.00810307248e-15
1.00831396812e-15
1.00810307248e-15
1.00827994878e-15
1.00810307248e-15
1.00820102685e-15
1.00143831824e-15
1.0018505974e-15
1.02406326262e-15
1.02320645207e-15
1.02413499851e-15
1.01248660507e-15
1e-15
1e-15
1.01405609174e-15
1.00884614388e-15
1e-15
1e-15
1e-15
1e-15
1e-15
1e-15
1e-15
1e-15
1e-15
1e-15
1e-15
1e-15
1e-15
1e-15
1e-15
1e-15
1e-15
1e-15
1e-15
1e-15
1e-15
1e-15
1e-15
1e-15
1e-15
1e-15
1e-15
1e-15
1e-15
1e-15
1e-15
1e-15
1e-15
1.00002614203e-15
1.00036482073e-15
1.00081524683e-15
1.00116510133e-15
1.00127034777e-15
1.00126638716e-15
1.00127083766e-15
1.00126306095e-15
1.00126252044e-15
1.00124946524e-15
1.00124125143e-15
1.00122167609e-15
1.00121435686e-15
1.00121968082e-15
1.00126853847e-15
1.00110156925e-15
1.00094134289e-15
1.00089706976e-15
1.00082692973e-15
1.00069529405e-15
1.00040417116e-15
1.0000178164e-15
1e-15
1e-15
1e-15
1e-15
1e-15
1e-15
1e-15
1e-15
1e-15
1e-15
1e-15
1e-15
1e-15
1e-15
1e-15
1e-15
1e-15
1e-15
1e-15
1e-15
1e-15
1e-15
1e-15
1e-15
1e-15
1e-15
1e-15
1e-15
1e-15
1e-15
1e-15
1e-15
1e-15
1e-15
1e-15
1e-15
1e-15
1e-15
1e-15
1e-15
1e-15
1e-15
1e-15
1e-15
1.000256081e-15
1.00121893739e-15
1.00211082121e-15
1.00307299044e-15
1.00810307248e-15
1.00822472082e-15
1.00810307248e-15
1.00826689699e-15
1.00810307248e-15
1.00830464915e-15
1.00810307248e-15
1.00833316526e-15
1.00810307248e-15
1.00834985254e-15
1.00810307248e-15
1.00836264469e-15
1.00810307248e-15
1.00837334955e-15
1.00810307248e-15
1.00837168193e-15
1.00810307248e-15
1.0083590617e-15
1.00810307248e-15
1.00833881715e-15
1.00810307248e-15
1.00831374537e-15
1.00810307248e-15
1.00828376602e-15
1.00810307248e-15
1.00824773995e-15
1.00810307248e-15
1.00215428499e-15
1.002408843e-15
1.02320645207e-15
1.02424013774e-15
1.02320645207e-15
1.01349084337e-15
1e-15
1e-15
1.01298708452e-15
1.01048549293e-15
1e-15
1e-15
1e-15
1e-15
1e-15
1e-15
1e-15
1e-15
1e-15
1e-15
1e-15
1e-15
1e-15
1e-15
1e-15
1e-15
1e-15
1e-15
1e-15
1e-15
1e-15
1e-15
1e-15
1e-15
1e-15
1e-15
1e-15
1e-15
1e-15
1e-15
1e-15
1e-15
1e-15
1e-15
1.00036269505e-15
1.00077670748e-15
1.00104738237e-15
1.00111430456e-15
1.0011102088e-15
1.00111232198e-15
1.0011016216e-15
1.00109724573e-15
1.00108134335e-15
1.0010685067e-15
1.00104582856e-15
1.00103659481e-15
1.00105310824e-15
1.00113045301e-15
1.00092487584e-15
1.0007153345e-15
1.00064638374e-15
1.00052096837e-15
1.00022395055e-15
1e-15
1e-15
1e-15
1e-15
1e-15
1e-15
1e-15
1e-15
1e-15
1e-15
1e-15
1e-15
1e-15
1e-15
1e-15
1e-15
1e-15
1e-15
1e-15
1e-15
1e-15
1e-15
1e-15
1e-15
1e-15
1e-15
1e-15
1e-15
1e-15
1e-15
1e-15
1e-15
1e-15
1e-15
1e-15
1e-15
1e-15
1e-15
1e-15
1e-15
1e-15
1e-15
1e-15
1e-15
1e-15
1e-15
1.00042040716e-15
1.00151857116e-15
1.00253771357e-15
1.00373374305e-15
1.00818355155e-15
1.00810307248e-15
1.00823015644e-15
1.00810307248e-15
1.00826589632e-15
1.00810307248e-15
1.00829407474e-15
1.00810307248e-15
1.00831805266e-15
1.00810307248e-15
1.00833397318e-15
1.00810307248e-15
1.00834010976e-15
1.00810307248e-15
1.00835130159e-15
1.00810307248e-15
1.00834406697e-15
1.00810307248e-15
1.00832842526e-15
1.00810307248e-15
1.00830716628e-15
1.00810307248e-15
1.0082820905e-15
1.00810307248e-15
1.00825113172e-15
1.00810307248e-15
1.00821517693e-15
1.00281667943e-15
1.00298692704e-15
1.0240754665e-15
1.02320645207e-15
1.02408873537e-15
1.01416794046e-15
1e-15
1e-15
1.01425480285e-15
1.00884614388e-15
1e-15
1e-15
1e-15
1e-15
1e-15
1e-15
1e-15
1e-15
1e-15
1e-15
1e-15
1e-15
1e-15
1e-15
1e-15
1e-15
1e-15
1e-15
1e-15
1e-15
1e-15
1e-15
1e-15
1e-15
1e-15
1e-15
1e-15
1e-15
1e-15
1e-15
1e-15
1e-15
1e-15
1e-15
1.00029376e-15
1.00064745642e-15
1.00083111704e-15
1.00087253394e-15
1.00087070032e-15
1.00087412274e-15
1.00086529697e-15
1.00086237249e-15
1.00084770802e-15
1.00083571328e-15
1.00081405698e-15
1.00080579569e-15
1.00082920422e-15
1.00087812434e-15
1.00077256604e-15
1.00052019492e-15
1.00026617259e-15
1.00002954525e-15
1e-15
1e-15
1e-15
1e-15
1e-15
1e-15
1e-15
1e-15
1e-15
1e-15
1e-15
1e-15
1e-15
1e-15
1e-15
1e-15
1e-15
1e-15
1e-15
1e-15
1e-15
1e-15
1e-15
1e-15
1e-15
1e-15
1e-15
1e-15
1e-15
1e-15
1e-15
1e-15
1e-15
1e-15
1e-15
1e-15
1e-15
1e-15
1e-15
1e-15
1e-15
1e-15
1e-15
1e-15
1e-15
1e-15
1.00000004584e-15
1.00063074e-15
1.00187837145e-15
1.00302996874e-15
1.00445379379e-15
1.00810307248e-15
1.00819371904e-15
1.00810307248e-15
1.00823037723e-15
1.00810307248e-15
1.00825969705e-15
1.00810307248e-15
1.00828565053e-15
1.00810307248e-15
1.0082996782e-15
1.00810307248e-15
1.00831232178e-15
1.00810307248e-15
1.00832147074e-15
1.00810307248e-15
1.00832582113e-15
1.00810307248e-15
1.00831773719e-15
1.00810307248e-15
1.00829846757e-15
1.00810307248e-15
1.00827715212e-15
1.00810307248e-15
1.00825150713e-15
1.00810307248e-15
1.00821861245e-15
1.00810307248e-15
1.00343502106e-15
1.00356754671e-15
1.02320645207e-15
1.02420824765e-15
1.02320645207e-15
1.01943321236e-15
1e-15
1e-15
1.01298708452e-15
1.00988185198e-15
1e-15
1e-15
1e-15
1e-15
1e-15
1e-15
1e-15
1e-15
1e-15
1e-15
1e-15
1e-15
1e-15
1e-15
1e-15
1e-15
1e-15
1e-15
1e-15
1e-15
1e-15
1e-15
1e-15
1e-15
1e-15
1e-15
1e-15
1e-15
1e-15
1e-15
1e-15
1e-15
1e-15
1e-15
1.00006039515e-15
1.00042873892e-15
1.00054368219e-15
1.00056871573e-15
1.00056964103e-15
1.0005774283e-15
1.00057457886e-15
1.00057720083e-15
1.00056854825e-15
1.00056279567e-15
1.00054700267e-15
1.00054292834e-15
1.00056775501e-15
1.00060333672e-15
1.0005896972e-15
1.00017482306e-15
1e-15
1e-15
1e-15
1e-15
1e-15
1e-15
1e-15
1e-15
1e-15
1e-15
1e-15
1e-15
1e-15
1e-15
1e-15
1e-15
1e-15
1e-15
1e-15
1e-15
1e-15
1e-15
1e-15
1e-15
1e-15
1e-15
1e-15
1e-15
1e-15
1e-15
1e-15
1e-15
1e-15
1e-15
1e-15
1e-15
1e-15
1e-15
1e-15
1e-15
1e-15
1e-15
1e-15
1e-15
1e-15
1e-15
1e-15
1e-15
1e-15
1.00087455225e-15
1.00226414056e-15
1.00352968181e-15
1.0051900499e-15
1.00815824955e-15
1.00810307248e-15
1.00819528365e-15
1.00810307248e-15
1.00822574463e-15
1.00810307248e-15
1.0082508964e-15
1.00810307248e-15
1.00826923302e-15
1.00810307248e-15
1.00828477045e-15
1.00810307248e-15
1.00828843798e-15
1.00810307248e-15
1.00830440857e-15
1.00810307248e-15
1.00829918877e-15
1.00810307248e-15
1.00828806497e-15
1.00810307248e-15
1.00827011767e-15
1.00810307248e-15
1.00824854592e-15
1.00810307248e-15
1.00821936234e-15
1.00810307248e-15
1.00818617106e-15
1.00402364678e-15
1.00414331006e-15
1.02407740003e-15
1.02320645207e-15
1.024054643e-15
1.02320645207e-15
1e-15
1e-15
1.01436472644e-15
1.00884614388e-15
1e-15
1e-15
1e-15
1e-15
1e-15
1e-15
1e-15
1e-15
1e-15
1e-15
1e-15
1e-15
1e-15
1e-15
1e-15
1e-15
1e-15
1e-15
1e-15
1e-15
1e-15
1e-15
1e-15
1e-15
1e-15
1e-15
1e-15
1e-15
1e-15
1e-15
1e-15
1e-15
1e-15
1e-15
1e-15
1.00009063302e-15
1.00019305663e-15
1.00021272464e-15
1.0002175998e-15
1.00023461012e-15
1.00024135276e-15
1.0002537687e-15
1.00025450147e-15
1.00025715803e-15
1.00024908081e-15
1.0002529501e-15
1.00027261521e-15
1.00028845146e-15
1.0001912393e-15
1e-15
1e-15
1e-15
1e-15
1e-15
1e-15
1e-15
1e-15
1e-15
1e-15
1e-15
1e-15
1e-15
1e-15
1e-15
1e-15
1e-15
1e-15
1e-15
1e-15
1e-15
1e-15
1e-15
1e-15
1e-15
1e-15
1e-15
1e-15
1e-15
1e-15
1e-15
1e-15
1e-15
1e-15
1e-15
1e-15
1e-15
1e-15
1e-15
1e-15
1e-15
1e-15
1e-15
1e-15
1e-15
1e-15
1e-15
1e-15
1e-15
1e-15
1.0011094328e-15
1.00260554866e-15
1.00398993449e-15
1.00589094186e-15
1.00810307248e-15
1.00816176128e-15
1.00810307248e-15
1.00819290584e-15
1.00810307248e-15
1.00821913594e-15
1.00810307248e-15
1.00824071368e-15
1.00810307248e-15
1.00825416452e-15
1.00810307248e-15
1.00826307767e-15
1.00810307248e-15
1.0082710312e-15
1.00810307248e-15
1.00827961434e-15
1.00810307248e-15
1.00827495519e-15
1.00810307248e-15
1.00825774857e-15
1.00810307248e-15
1.00823903147e-15
1.00810307248e-15
1.0082174506e-15
1.00810307248e-15
1.00818927546e-15
1.00810307248e-15
1.00459762775e-15
1.00470397111e-15
1.02320645207e-15
1.02418214291e-15
1.02320645207e-15
1.02335307424e-15
1e-15
1e-15
1.01298708452e-15
1.0093415139e-15
1e-15
1e-15
1e-15
1e-15
1e-15
1e-15
1e-15
1e-15
1e-15
1e-15
1e-15
1e-15
1e-15
1e-15
1e-15
1e-15
1e-15
1e-15
1e-15
1e-15
1e-15
1e-15
1e-15
1e-15
1e-15
1e-15
1e-15
1e-15
1e-15
1e-15
1e-15
1e-15
1e-15
1e-15
1e-15
1e-15
1e-15
1e-15
1e-15
1e-15
1e-15
1e-15
1e-15
1e-15
1e-15
1e-15
1e-15
1e-15
1e-15
1e-15
1e-15
1e-15
1e-15
1e-15
1e-15
1e-15
1e-15
1e-15
1e-15
1e-15
1e-15
1e-15
1e-15
1e-15
1e-15
1e-15
1e-15
1e-15
1e-15
1e-15
1e-15
1e-15
1e-15
1e-15
1e-15
1e-15
1e-15
1e-15
1e-15
1e-15
1e-15
1e-15
1e-15
1e-15
1e-15
1e-15
1e-15
1e-15
1e-15
1e-15
1e-15
1e-15
1e-15
1e-15
1e-15
1e-15
1e-15
1e-15
1e-15
1.00128663848e-15
1.00285806822e-15
1.00439514811e-15
1.00648667695e-15
1.00813348968e-15
1.00810307248e-15
1.00816210135e-15
1.00810307248e-15
1.00818601124e-15
1.00810307248e-15
1.00820762508e-15
1.00810307248e-15
1.00822586251e-15
1.00810307248e-15
1.00823915348e-15
1.00810307248e-15
1.00824322155e-15
1.00810307248e-15
1.00825439278e-15
1.00810307248e-15
1.00825488418e-15
1.00810307248e-15
1.00824704153e-15
1.00810307248e-15
1.00823097937e-15
1.00810307248e-15
1.00821308158e-15
1.00810307248e-15
1.00818700912e-15
1.00810307248e-15
1.00815782054e-15
1.00514478994e-15
1.00521238331e-15
1.02407532017e-15
1.02320645207e-15
1.02403454508e-15
1.02320645207e-15
1e-15
1e-15
1.01441780964e-15
1.00884496367e-15
1e-15
1e-15
1e-15
1e-15
1e-15
1e-15
1e-15
1e-15
1e-15
1e-15
1e-15
1e-15
1e-15
1e-15
1e-15
1e-15
1e-15
1e-15
1e-15
1.00008538094e-15
1.00008275855e-15
1.00007141233e-15
1e-15
1e-15
1e-15
1e-15
1e-15
1e-15
1e-15
1e-15
1e-15
1e-15
1e-15
1e-15
1e-15
1e-15
1e-15
1e-15
1e-15
1e-15
1e-15
1e-15
1e-15
1e-15
1e-15
1e-15
1e-15
1e-15
1e-15
1e-15
1e-15
1e-15
1e-15
1e-15
1e-15
1e-15
1e-15
1e-15
1e-15
1e-15
1e-15
1e-15
1e-15
1e-15
1e-15
1e-15
1e-15
1e-15
1e-15
1e-15
1e-15
1e-15
1e-15
1e-15
1e-15
1e-15
1e-15
1e-15
1e-15
1e-15
1e-15
1e-15
1e-15
1e-15
1e-15
1e-15
1e-15
1e-15
1e-15
1e-15
1e-15
1e-15
1e-15
1e-15
1e-15
1e-15
1e-15
1e-15
1e-15
1.00138475364e-15
1.00303251915e-15
1.00475913181e-15
1.00694583926e-15
1.00810307248e-15
1.00813426534e-15
1.00810307248e-15
1.00815918169e-15
1.00810307248e-15
1.00817977235e-15
1.00810307248e-15
1.00819797512e-15
1.00810307248e-15
1.00821287185e-15
1.00810307248e-15
1.0082198332e-15
1.00810307248e-15
1.00822633437e-15
1.00810307248e-15
1.00823624118e-15
1.00810307248e-15
1.00823436546e-15
1.00810307248e-15
1.00821822259e-15
1.00810307248e-15
1.0082030942e-15
1.00810307248e-15
1.00818406965e-15
1.00810307248e-15
1.00816315395e-15
1.00810307248e-15
1.00562359439e-15
1.00563562982e-15
1.02320645207e-15
1.02416545204e-15
1.02320645207e-15
1.02335667405e-15
1e-15
1e-15
1.01298708452e-15
1.00896754312e-15
1e-15
1e-15
1e-15
1e-15
1e-15
1e-15
1e-15
1e-15
1e-15
1e-15
1e-15
1e-15
1e-15
1e-15
1e-15
1e-15
1e-15
1.000062254e-15
1.00019781767e-15
1.00022578632e-15
1.00018192332e-15
1.00012783743e-15
1.00003161375e-15
1e-15
1e-15
1e-15
1e-15
1e-15
1e-15
1e-15
1e-15
1e-15
1e-15
1e-15
1e-15
1e-15
1e-15
1e-15
1e-15
1e-15
1e-15
1e-15
1e-15
1e-15
1e-15
1e-15
1e-15
1e-15
1e-15
1e-15
1e-15
1e-15
1e-15
1e-15
1e-15
1e-15
1e-15
1e-15
1e-15
1e-15
1e-15
1e-15
1e-15
1e-15
1e-15
1e-15
1e-15
1e-15
1e-15
1e-15
1e-15
1e-15
1e-15
1e-15
1e-15
1e-15
1e-15
1e-15
1e-15
1e-15
1e-15
1e-15
1e-15
1e-15
1e-15
1e-15
1e-15
1e-15
1e-15
1e-15
1e-15
1e-15
1e-15
1e-15
1e-15
1e-15
1e-15
1e-15
1e-15
1.00140722971e-15
1.0031774202e-15
1.00515887198e-15
1.0073776757e-15
1.00811599054e-15
1.00810307248e-15
1.00813400894e-15
1.00810307248e-15
1.00815169583e-15
1.00810307248e-15
1.00816939849e-15
1.00810307248e-15
1.0081848937e-15
1.00810307248e-15
1.00819669796e-15
1.00810307248e-15
1.00820167686e-15
1.00810307248e-15
1.00820935497e-15
1.00810307248e-15
1.00821548494e-15
1.00810307248e-15
1.00820955636e-15
1.00810307248e-15
1.00819592625e-15
1.00810307248e-15
1.00818004439e-15
1.00810307248e-15
1.00816098895e-15
1.00810307248e-15
1.00813233841e-15
1.00597385204e-15
1.00591818128e-15
1.02407410667e-15
1.02320645207e-15
1.0240290053e-15
1.02320645207e-15
1e-15
1e-15
1.0144207254e-15
1.00884387184e-15
1e-15
1e-15
1e-15
1e-15
1e-15
1e-15
1e-15
1e-15
1e-15
1e-15
1e-15
1e-15
1e-15
1e-15
1e-15
1e-15
1.00013432172e-15
1.0003652929e-15
1.00037975993e-15
1.00035043671e-15
1.00026904045e-15
1.0001795131e-15
1.00006688094e-15
1e-15
1e-15
1e-15
1e-15
1e-15
1e-15
1e-15
1e-15
1e-15
1e-15
1e-15
1e-15
1e-15
1e-15
1e-15
1e-15
1e-15
1e-15
1e-15
1e-15
1e-15
1e-15
1e-15
1e-15
1e-15
1e-15
1e-15
1e-15
1e-15
1e-15
1e-15
1e-15
1e-15
1e-15
1e-15
1e-15
1e-15
1e-15
1e-15
1e-15
1e-15
1e-15
1e-15
1e-15
1e-15
1e-15
1e-15
1e-15
1e-15
1e-15
1e-15
1e-15
1e-15
1e-15
1e-15
1e-15
1e-15
1e-15
1e-15
1e-15
1e-15
1e-15
1e-15
1e-15
1e-15
1e-15
1e-15
1e-15
1e-15
1e-15
1e-15
1e-15
1e-15
1e-15
1e-15
1e-15
1.00139610007e-15
1.0033483844e-15
1.00564969916e-15
1.00781019708e-15
1.00810307248e-15
1.00811354734e-15
1.00810307248e-15
1.00813151268e-15
1.00810307248e-15
1.00814681176e-15
1.00810307248e-15
1.00816187722e-15
1.00810307248e-15
1.00817436209e-15
1.00810307248e-15
1.00818023982e-15
1.00810307248e-15