/*--------------------------------*- C++ -*----------------------------------*\
| =========                 |                                                 |
| \\      /  F ield         | OpenFOAM: The Open Source CFD Toolbox           |
|  \\    /   O peration     | Version:  2206                                  |
|   \\  /    A nd           | Website:  www.openfoam.com                      |
|    \\/     M anipulation  |                                                 |
\*---------------------------------------------------------------------------*/
FoamFile
{
    version     2.0;
    format      ascii;
    arch        "LSB;label=64;scalar=64";
    class       volScalarField;
    location    "2.4/water";
    object      Ct2;
}
// * * * * * * * * * * * * * * * * * * * * * * * * * * * * * * * * * * * * * //

dimensions      [0 0 0 0 0 0 0];

internalField   nonuniform List<scalar> 
23300
(
8.96903913905
8.9694569862
8.97007896487
8.97072615061
8.97131240039
8.97181672564
8.97224663717
8.97261606181
8.97293756391
8.97322042374
8.9734714124
8.97369533341
8.97389589656
8.97407593434
8.97423784027
8.9743835652
8.97451485017
8.97463315857
8.97473982724
8.97483599016
8.97492269369
8.97500082593
8.97507121211
8.97513455165
8.97519149972
8.97524261092
8.97528840978
8.97532933961
8.97536582384
8.9753982189
8.975426868
8.97545205747
8.97547406457
8.97549311692
8.97550943576
8.97552319816
8.9755345768
8.97554370466
8.97555071197
8.97555569292
8.97555874025
8.9755599135
8.97555927135
8.97555684077
8.97555264674
8.97554668079
8.9755389261
8.97552933866
8.97551794562
8.97550471558
8.97548960647
8.97547254473
8.97545345425
8.97543222961
8.97540876222
8.9753829127
8.97535453611
8.97532345387
8.97528947848
8.97525238489
8.97521193492
8.97516784784
8.97511982487
8.97506751877
8.97501055894
8.97494852009
8.97488094868
8.97480733125
8.97472712369
8.97463972058
8.97454448995
8.97444074646
8.97432779649
8.97420492046
8.97407143645
8.97392670143
8.97377020744
8.97360161892
8.97342092603
8.97322854852
8.97302558786
8.97281405077
8.97259727453
8.97238037859
8.97217104625
8.97198054159
8.97182546019
8.97172986654
8.9717219616
8.97180018343
8.97193775301
8.97211229822
8.97230836303
8.97251538315
8.97272604658
8.97293516681
8.97313906892
8.97333515025
8.97352165173
8.97369744328
8.9738619077
8.97401480258
8.9741561855
8.97428631682
8.97440561111
8.97451457048
8.97461375641
8.97470374617
8.97478511937
8.97485843068
8.97492420557
8.97498292352
8.97503501831
8.97508086611
8.97512078399
8.97515501085
8.97518367645
8.97520693442
8.97522491222
8.97523764343
8.97524507507
8.97524706202
8.97524336147
8.97523361693
8.97521734116
8.97519388596
8.97516240469
8.97512179395
8.97507061275
8.97500695861
8.97492828401
8.97483111064
8.97471058303
8.97455974303
8.97436829974
8.97412036541
8.97378982408
8.97333098216
8.97268058355
8.97198293289
8.96620293212
8.96658510252
8.96720747098
8.96790893839
8.96858700147
8.96920105615
8.96974571764
8.97022844708
8.97065888987
8.97104524393
8.97139385818
8.97170949439
8.97199588871
8.97225601197
8.97249238929
8.97270716134
8.97290224764
8.97307932793
8.97323994396
8.97338545967
8.97351713906
8.97363610397
8.97374340029
8.97383995787
8.97392664878
8.97400424954
8.97407349261
8.97413503037
8.9741894806
8.97423739176
8.97427928354
8.97431561355
8.97434681418
8.97437326091
8.97439530662
8.97441325171
8.97442737652
8.97443791321
8.97444507647
8.9744490369
8.97444995008
8.97444793086
8.97444308071
8.97443546245
8.97442512566
8.97441208167
8.97439632811
8.97437786109
8.97435669291
8.97433279081
8.97430610391
8.97427654485
8.97424401415
8.97420837906
8.97416949492
8.97412718295
8.97408125025
8.97403146718
8.9739775866
8.97391932107
8.97385636158
8.97378835471
8.97371492121
8.97363563341
8.97355003436
8.97345761595
8.97335783989
8.97325011778
8.97313383606
8.97300834039
8.9728729682
8.97272704168
8.97256991391
8.97240097757
8.9722197343
8.97202583086
8.97181916737
8.97159997996
8.97136901275
8.97112767656
8.97087831884
8.97062449154
8.97037134208
8.9701259813
8.96989791284
8.96969925788
8.96954461979
8.96944966167
8.969426628
8.96947583939
8.96958610403
8.96974313645
8.96993384545
8.97014733392
8.97037490441
8.97060969561
8.97084635352
8.97108072587
8.97130965771
8.97153080028
8.97174247962
8.97194356113
8.9721333534
8.97231150684
8.97247794287
8.97263278021
8.97277628549
8.97290882203
8.97303081732
8.97314272875
8.97324502308
8.9733381537
8.97342254731
8.9734985872
8.97356660137
8.97362684583
8.9736794927
8.97372457379
8.97376219824
8.97379237093
8.97381498683
8.9738298245
8.97383653819
8.97383464627
8.97382351726
8.97380235112
8.97377015511
8.97372571063
8.97366752701
8.97359377441
8.97350218512
8.97338990532
8.9732532701
8.97308746115
8.97288600789
8.97264025158
8.97234015291
8.97198632608
8.97167512922
8.97195272225
8.96875652231
8.96896026699
8.96930545768
8.96971514681
8.97013208034
8.97052717287
8.97089063087
8.97122184581
8.97152339963
8.97179840803
8.97204968975
8.97227958093
8.97249002633
8.97268265134
8.97285886962
8.97301991755
8.97316691479
8.97330086932
8.97342271378
8.97353330017
8.97363342579
8.97372382548
8.9738051923
8.97387816944
8.97394336727
8.97400135499
8.97405267461
8.97409783213
8.97413730885
8.97417155225
8.97420098533
8.97422599762
8.97424695345
8.97426418369
8.97427799358
8.97428865557
8.97429641704
8.97430149426
8.97430408001
8.97430433835
8.97430241212
8.97429841819
8.97429245469
8.97428459674
8.97427490362
8.97426341547
8.97425016181
8.97423514797
8.97421834674
8.97419972339
8.97417923281
8.97415681341
8.97413239124
8.97410587555
8.97407716268
8.97404613167
8.97401264756
8.97397655708
8.97393769152
8.9738958626
8.97385086508
8.97380247301
8.97375044237
8.97369450795
8.97363438653
8.97356977496
8.97350035464
8.97342579182
8.97334574467
8.97325986757
8.97316782298
8.9730692923
8.97296399599
8.97285171514
8.97273232463
8.97260583117
8.97247242641
8.97233254904
8.97218696618
8.97203686717
8.97188397777
8.9717306815
8.97158014474
8.97143641127
8.97130443066
8.97118994016
8.97109910217
8.97103772216
8.97100975703
8.97101598623
8.97105375785
8.97111837478
8.97120470594
8.97130782463
8.97142330063
8.97154728661
8.97167651604
8.97180826559
8.97194030435
8.97207084012
8.9721984642
8.97232209926
8.97244094852
8.9725544507
8.97266223761
8.97276409845
8.97285994668
8.97294979338
8.97303372225
8.97311187041
8.97318440986
8.9732515338
8.97331344288
8.97337033556
8.97342239845
8.9734698023
8.97351270415
8.9735510993
8.97358499564
8.97361434476
8.97363902604
8.97365883684
8.97367348236
8.97368256811
8.97368559167
8.97368193646
8.97367086395
8.97365150564
8.97362284958
8.97358371935
8.97353273743
8.97346826841
8.97338834272
8.97329061101
8.973172581
8.97303326072
8.97288108789
8.97276922981
8.97293561494
8.97399658422
8.96963378274
8.96976829494
8.97000220398
8.97029137388
8.97059832919
8.97090016511
8.97118600227
8.97145206137
8.97169794837
8.9719245866
8.97213328165
8.97232534281
8.97250197514
8.97266425287
8.97281313965
8.97294950147
8.97307413079
8.97318775561
8.97329105609
8.97338466898
8.97346919896
8.97354522051
8.97361328591
8.97367392537
8.97372765238
8.97377496233
8.9738163355
8.97385223428
8.97388310439
8.97390937114
8.97393143962
8.97394969093
8.9739644822
8.9739761434
8.97398497804
8.97399126091
8.97399523969
8.97399713371
8.97399713628
8.97399541431
8.97399211112
8.97398734657
8.97398122025
8.97397381208
8.97396518584
8.97395539026
8.97394446576
8.97393239892
8.97391912789
8.97390459622
8.97388874444
8.9738715061
8.97385280696
8.97383256285
8.97381068025
8.97378705479
8.97376157205
8.97373410624
8.97370452103
8.97367266839
8.97363838956
8.97360151414
8.97356186135
8.97351923976
8.97347344911
8.97342428106
8.97337152227
8.9733149568
8.97325437141
8.97318956082
8.97312033654
8.97304653669
8.97296804048
8.97288478474
8.97279678657
8.97270416939
8.97260719643
8.97250630861
8.97240217056
8.97229571973
8.97218822024
8.97208131105
8.97197704306
8.97187788293
8.97178666585
8.97170646181
8.97164033229
8.97159095602
8.97156011955
8.97154834333
8.97155507498
8.97157866448
8.97161683864
8.9716672196
8.97172743766
8.97179526129
8.97186866141
8.97194584059
8.97202524112
8.9721055394
8.97218563259
8.97226461997
8.97234178279
8.97241656291
8.9724885425
8.97255742442
8.97262301436
8.97268520429
8.9727439576
8.97279929565
8.97285128593
8.97290003148
8.972945662
8.97298832651
8.97302818851
8.97306542437
8.97310022677
8.97313266435
8.97316273401
8.97319038912
8.97321552223
8.97323795094
8.97325740558
8.97327351868
8.97328581652
8.97329371285
8.97329650453
8.97329336807
8.97328335507
8.9732653839
8.97323822688
8.97320050267
8.9731507245
8.97308759701
8.97301124386
8.97292775547
8.97286536769
8.97292886731
8.97343796382
8.974755206
8.97025798668
8.9703548735
8.97052624664
8.97074445091
8.97098320324
8.97122418141
8.97145695
8.97167660102
8.97188140866
8.97207123096
8.97224661717
8.97240835739
8.97255728589
8.97269419801
8.97281982955
8.97293485266
8.97303988656
8.97313550458
8.97322224632
8.9733006235
8.973371129
8.97343424013
8.97349042442
8.97354014047
8.97358384087
8.97362197084
8.97365496877
8.97368326313
8.97370727135
8.97372739579
8.97374402194
8.97375751443
8.97376821557
8.97377644214
8.97378248494
8.97378660682
8.97378904343
8.97379000241
8.97378966528
8.97378818746
8.97378570089
8.97378231468
8.97377811813
8.97377318177
8.97376756079
8.97376129641
8.97375441947
8.97374691018
8.97373868027
8.97372964825
8.97371974109
8.97370888453
8.97369700193
8.97368401179
8.97366982812
8.97365435885
8.97363750666
8.9736191678
8.97359923312
8.97357758712
8.97355410919
8.97352867294
8.97350114775
8.97347139858
8.97343928799
8.97340467676
8.97336742684
8.97332740309
8.97328447771
8.97323853389
8.97318947251
8.97313721848
8.97308173081
8.97302301272
8.97296112603
8.97289620601
8.9728284807
8.97275829037
8.97268611088
8.97261257493
8.97253849398
8.9724648718
8.97239290976
8.97232399044
8.97225963698
8.97220143311
8.97215090542
8.97210936442
8.97207775092
8.97205641857
8.97204526723
8.97204394186
8.97205155467
8.97206698944
8.97208910819
8.97211675507
8.97214881824
8.97218425793
8.97222212984
8.97226159372
8.97230191791
8.97234247733
8.97238274983
8.97242230942
8.9724608197
8.97249802567
8.9725337466
8.97256786787
8.97260033418
8.97263114213
8.97266033429
8.97268799302
8.97271423597
8.972739212
8.97276309955
8.97278610633
8.97280847217
8.97283036054
8.97285181122
8.97287282594
8.9728933511
8.9729132615
8.97293234544
8.97295029061
8.97296667234
8.97298094384
8.97299242947
8.97300032052
8.97300367405
8.97300141645
8.97299236357
8.97297529658
8.97294922213
8.97291420812
8.97287398011
8.97284382699
8.97287388374
8.97310981053
8.97387238826
8.97519029544
8.97065123787
8.97072715375
8.97086278325
8.97103895399
8.97123574572
8.97143795437
8.97163590616
8.97182435927
8.97200097225
8.97216505448
8.97231675396
8.97245658956
8.9725852112
8.97270328347
8.9728114405
8.97291026995
8.97300031563
8.97308208271
8.97315604773
8.97322266517
8.97328237568
8.97333561008
8.97338279428
8.97342435032
8.97346069814
8.97349225403
8.97351942993
8.97354263005
8.97356224867
8.97357866591
8.97359224519
8.97360332927
8.97361223826
8.97361926671
8.97362468288
8.97362872711
8.97363161247
8.97363352439
8.97363462242
8.97363504071
8.97363489062
8.97363426159
8.97363322414
8.97363183094
8.97363011991
8.97362811536
8.97362582822
8.9736232638
8.97362029958
8.97361683618
8.97361278959
8.97360807827
8.97360262253
8.97359634218
8.97358915654
8.97358098283
8.97357173683
8.9735613317
8.97354967889
8.97353668733
8.97352226453
8.97350631601
8.9734887467
8.97346946072
8.97344836317
8.9734253604
8.9734003624
8.97337328388
8.97334404755
8.97331258625
8.9732788476
8.97324279764
8.97320442721
8.97316375751
8.97312084856
8.97307580675
8.97302879519
8.97298004261
8.97292985421
8.9728786195
8.97282682
8.97277503058
8.97272391662
8.97267421945
8.97262673242
8.9725822604
8.97254156803
8.97250531612
8.97247399869
8.97244789466
8.97242699061
8.97241115635
8.9724002864
8.97239393548
8.97239154665
8.97239258479
8.97239649272
8.97240273212
8.97241078932
8.97242019021
8.97243050779
8.97244136553
8.97245244047
8.9724634633
8.9724742186
8.97248454311
8.97249432462
8.97250349943
8.97251205064
8.97252000543
8.9725274333
8.9725344437
8.97254118494
8.97254784292
8.97255464174
8.97256184459
8.97256975641
8.97257863764
8.97258860751
8.97259975207
8.97261210618
8.97262563563
8.9726402196
8.97265563298
8.97267153041
8.97268743193
8.97270271261
8.97271659685
8.9727281626
8.97273636523
8.9727401121
8.97273847031
8.97273123505
8.97272047233
8.97271468362
8.97273984979
8.9728669389
8.97326615263
8.97420676853
8.97544887839
8.97093184533
8.97099452829
8.97110720025
8.97125556919
8.97142373124
8.97159875065
8.97177175547
8.9719374965
8.97209333247
8.97223825094
8.972372149
8.97249537623
8.97260847473
8.97271204197
8.97280666771
8.9728929082
8.97297128164
8.97304227102
8.97310633177
8.97316389846
8.97321539196
8.97326122394
8.97330180085
8.97333752526
8.97336879666
8.97339601008
8.97341955458
8.97343981007
8.97345714458
8.97347191051
8.97348444181
8.97349505068
8.97350402559
8.97351162907
8.9735180971
8.97352363819
8.97352843408
8.97353264002
8.97353638647
8.9735397802
8.97354290662
8.97354583116
8.97354860196
8.97355125124
8.97355379807
8.97355624954
8.9735586037
8.97356085781
8.9735629093
8.97356464355
8.97356596551
8.97356678787
8.97356702917
8.9735666112
8.97356545849
8.97356349665
8.9735606526
8.9735568534
8.97355202691
8.97354610091
8.97353900397
8.97353066492
8.97352101381
8.97350998172
8.97349750197
8.97348351023
8.97346794615
8.97345075388
8.97343188422
8.97341129574
8.9733889576
8.97336485143
8.97333897502
8.973311345
8.9732820014
8.97325101111
8.97321847289
8.973184521
8.97314932981
8.97311311606
8.97307614115
8.97303870946
8.97300116524
8.97296388362
8.97292725873
8.97289168483
8.9728575348
8.97282513363
8.97279473491
8.97276650221
8.97274049198
8.97271661763
8.97269477278
8.9726750269
8.97265717635
8.97264093807
8.9726260869
8.97261236695
8.97259953492
8.97258735995
8.97257562805
8.97256414914
8.9725527603
8.97254132818
8.97252975198
8.97251796476
8.97250593524
8.97249366854
8.97248120748
8.97246863294
8.97245606499
8.97244366337
8.97243162888
8.97242020437
8.97240967704
8.97240038041
8.97239269786
8.97238698709
8.97238346808
8.97238233484
8.97238373613
8.97238775609
8.97239439432
8.972403545
8.972414977
8.97242831556
8.97244302923
8.97245842553
8.97247366638
8.972487825
8.97250003999
8.97250990072
8.97251839714
8.97253025055
8.97255958558
8.97264327871
8.97286916688
8.97341502072
8.9744724351
8.97561685011
8.97114358782
8.97119719127
8.97129395861
8.97142264167
8.97157005719
8.97172497716
8.97187927255
8.97202782627
8.97216785649
8.97229814709
8.97241841993
8.97252890275
8.97263006307
8.97272245835
8.97280665935
8.9728832156
8.97295264396
8.97301542838
8.97307202466
8.97312286648
8.97316837124
8.97320894456
8.97324498336
8.97327687738
8.97330500936
8.973329754
8.97335147602
8.9733705277
8.97338724602
8.9734019498
8.97341493713
8.97342648305
8.9734368379
8.97344622616
8.97345484606
8.97346286955
8.9734704432
8.97347768903
8.97348470636
8.97349157319
8.97349834852
8.97350507391
8.97351177596
8.9735184678
8.9735251515
8.97353181932
8.97353845573
8.97354505203
8.97355154743
8.97355781352
8.97356374948
8.97356926419
8.97357427615
8.97357870999
8.97358249554
8.97358556605
8.97358785799
8.97358930983
8.97358986232
8.97358945761
8.97358803977
8.97358555419
8.97358194826
8.973577171
8.97357117385
8.97356391057
8.97355533827
8.97354541749
8.9735341135
8.97352139674
8.97350724439
8.97349164117
8.97347458124
8.97345606935
8.97343612308
8.97341477407
8.97339207044
8.97336807778
8.97334288111
8.97331658501
8.97328931423
8.9732612119
8.97323243773
8.97320316318
8.9731735663
8.97314382335
8.97311410036
8.97308454235
8.97305526437
8.97302634253
8.97299781135
8.97296966412
8.97294179922
8.97291412383
8.972886787
8.97285971094
8.97283278206
8.97280590099
8.97277896682
8.97275187866
8.97272455459
8.97269692109
8.97266891919
8.97264050928
8.97261167361
8.97258241889
8.97255277951
8.97252281992
8.97249263772
8.97246236603
8.97243217653
8.97240228202
8.97237293967
8.97234445383
8.9723171797
8.97229152633
8.97226796189
8.97224694441
8.97222880472
8.97221385839
8.97220238456
8.97219460531
8.97219066381
8.97219060069
8.97219433115
8.97220162409
8.97221208885
8.97222517671
8.97224021543
8.97225651319
8.97227361554
8.97229190366
8.97231396436
8.9723477001
8.97241325531
8.97255760113
8.97288047271
8.97355394509
8.97468465413
8.97573166776
8.97131202782
8.97135904472
8.97144424141
8.97155836709
8.97169016856
8.97182972877
8.97196957255
8.97210477341
8.97223250094
8.97235141091
8.97246109968
8.97256170295
8.97265363203
8.97273741724
8.97281362129
8.97288279738
8.97294547126
8.97300213746
8.97305326099
8.97309928209
8.97314062055
8.97317767993
8.97321084984
8.97324050761
8.97326701816
8.97329073342
8.97331199056
8.97333111027
8.97334839439
8.97336412405
8.97337855773
8.97339192999
8.97340445049
8.97341630372
8.97342764912
8.97343862179
8.97344933359
8.9734598745
8.97347031448
8.97348070513
8.97349108185
8.97350146553
8.97351186479
8.97352227733
8.97353269214
8.97354309049
8.97355344821
8.97356373318
8.97357394675
8.97358397227
8.97359368946
8.97360300772
8.97361184686
8.9736201348
8.97362780656
8.97363480215
8.97364106611
8.97364654608
8.9736511928
8.97365495914
8.97365780037
8.97365967344
8.9736605374
8.97366035289
8.97365908266
8.97365669126
8.97365314562
8.97364841488
8.97364247115
8.97363528947
8.97362684868
8.9736171315
8.97360612562
8.97359382379
8.97358022502
8.97356533471
8.97354916576
8.97353173852
8.97351308165
8.97349323162
8.9734722329
8.97345013669
8.97342700021
8.97340288427
8.97337785145
8.97335196251
8.97332527348
8.97329783133
8.97326967083
8.97324081101
8.97321125361
8.97318097867
8.97314996466
8.97311810658
8.97308533993
8.97305172991
8.97301734308
8.97298215192
8.97294606839
8.97290909549
8.97287119718
8.97283235135
8.9727925554
8.97275181831
8.97271016577
8.97266764486
8.97262432725
8.97258031244
8.97253573212
8.97249075391
8.97244558601
8.97240048125
8.97235574213
8.97231172517
8.972268846
8.9722275834
8.9721884873
8.97215211941
8.97211892187
8.97208933639
8.97206378048
8.97204262633
8.97202617739
8.97201464272
8.97200811219
8.97200653498
8.97200970919
8.97201729425
8.97202887304
8.97204411577
8.97206315861
8.97208743569
8.97212147408
8.97217670383
8.97227928698
8.97248490979
8.97290038815
8.97368297558
8.97485669573
8.97581338763
8.97145118809
8.97149327173
8.97156983014
8.97167295377
8.97179279464
8.97192044756
8.97204899267
8.97217370912
8.97229177179
8.97240176082
8.97250318515
8.97259611222
8.97268091104
8.9727580929
8.97282821774
8.97289184616
8.97294951584
8.97300173428
8.97304897737
8.97309169273
8.97313030252
8.97316520723
8.9731967874
8.97322540553
8.97325140587
8.97327511459
8.97329683838
8.97331686377
8.97333545534
8.97335285517
8.97336928145
8.97338492846
8.97339996613
8.97341454069
8.97342877524
8.973442771
8.97345660865
8.97347035002
8.97348403992
8.97349770789
8.97351137026
8.97352503173
8.97353868746
8.97355232429
8.9735659227
8.97357945785
8.97359290211
8.97360621196
8.97361938799
8.973632389
8.97364507788
8.97365736083
8.97366915802
8.9736804002
8.97369102681
8.97370098353
8.9737102214
8.9737186952
8.97372636328
8.97373318635
8.97373912763
8.97374415202
8.9737482263
8.97375131854
8.97375339844
8.97375443681
8.97375440599
8.97375327945
8.97375103224
8.97374764069
8.9737430829
8.97373733851
8.9737303892
8.9737222185
8.97371281231
8.97370215862
8.97369024807
8.97367707353
8.97366263048
8.97364691646
8.97362993124
8.97361167596
8.97359215304
8.97357136501
8.97354931414
8.97352600092
8.9735014234
8.97347557548
8.97344844616
8.97342001799
8.97339026657
8.97335916066
8.97332665789
8.97329271244
8.97325725384
8.97322021236
8.97318151525
8.97314135517
8.97309969572
8.97305652388
8.97301180513
8.97296556305
8.97291779462
8.97286851499
8.97281776215
8.97276559148
8.97271208025
8.97265733414
8.97260149173
8.97254472929
8.97248726699
8.9724293745
8.9723713777
8.97231366488
8.97225669354
8.97220099585
8.97214718742
8.97209593544
8.97204778771
8.97200330502
8.9719630429
8.9719275284
8.97189723545
8.97187255823
8.9718537857
8.97184108154
8.97183447972
8.9718339129
8.97183930965
8.971850829
8.97186937327
8.97189766121
8.9719424253
8.97201880208
8.97215869404
8.97242492047
8.97292726642
8.97380239811
8.97499810513
8.97587319662
8.97156981331
8.97160813237
8.97167816084
8.97177289043
8.97188351067
8.97200189675
8.97212158756
8.97223805867
8.97234851942
8.97245151054
8.9725464833
8.97263345703
8.97271277064
8.97278492302
8.97285047444
8.97290999398
8.97296403092
8.97301310452
8.97305769965
8.97309826888
8.97313523379
8.9731689887
8.97319990183
8.97322831775
8.97325455729
8.97327891867
8.97330167661
8.97332308278
8.97334336484
8.97336272688
8.97338134893
8.97339938781
8.97341697731
8.97343422952
8.97345123579
8.97346806837
8.97348478187
8.97350141512
8.9735179929
8.97353452771
8.97355102161
8.97356746766
8.97358385176
8.97360015364
8.97361634854
8.97363240789
8.97364830058
8.97366399045
8.97367946565
8.9736947397
8.973709681
8.97372419542
8.97373820318
8.97375163748
8.97376444129
8.97377656467
8.97378796371
8.97379859864
8.97380843344
8.97381743457
8.97382557087
8.97383281268
8.97383913197
8.9738445016
8.97384889556
8.9738522884
8.97385465546
8.97385597244
8.97385621562
8.97385536148
8.973853387
8.97385026922
8.9738459856
8.97384051358
8.9738338309
8.97382591517
8.97381674416
8.97380629532
8.973794546
8.97378147298
8.97376705263
8.97375126036
8.97373407081
8.97371545722
8.97369539165
8.97367384427
8.97365078356
8.97362617552
8.97359998383
8.97357216911
8.97354268909
8.97351149753
8.97347854473
8.97344377588
8.97340712646
8.97336855586
8.97332795286
8.97328526017
8.97324047912
8.97319372813
8.97314496902
8.97309418414
8.9730413545
8.97298650956
8.97292965784
8.97287082971
8.97281008631
8.97274751381
8.97268323027
8.97261739329
8.97255020725
8.97248193066
8.97241288467
8.97234346147
8.97227413336
8.97220546097
8.97213809632
8.97207280457
8.97201023346
8.9719510423
8.97189591596
8.9718455326
8.97180053957
8.97176152677
8.97172900216
8.97170337505
8.97168496074
8.97167402928
8.97167094394
8.97167647412
8.97169244877
8.97172306653
8.97177745516
8.97187450618
8.97205143054
8.97237662968
8.97295957053
8.97391291201
8.97511576085
8.9759177734
8.97167377067
8.97170918324
8.97177425298
8.97186256313
8.97196607432
8.97207726076
8.97219003176
8.97230003785
8.97240453582
8.97250205089
8.97259199925
8.97267436899
8.97274947976
8.97281782398
8.97287996481
8.97293647986
8.97298792858
8.97303483942
8.97307770297
8.97311697308
8.97315306707
8.97318636947
8.97321723302
8.97324598176
8.97327291136
8.97329829124
8.97332236432
8.97334534865
8.97336743713
8.97338879901
8.97340958003
8.97342990408
8.97344987384
8.97346957266
8.97348906564
8.97350840166
8.97352761478
8.97354672613
8.9735657456
8.9735846734
8.97360350179
8.97362221629
8.97364079726
8.97365922072
8.97367745968
8.97369548445
8.97371326362
8.9737307649
8.97374794256
8.97376487727
8.9737814755
8.97379761702
8.97381322615
8.9738282383
8.97384259917
8.9738562623
8.97386918764
8.97388133961
8.97389268641
8.97390319872
8.97391284945
8.97392161282
8.97392946434
8.97393638014
8.97394233702
8.97394731192
8.97395128206
8.97395422446
8.97395611609
8.97395693347
8.97395665283
8.97395524969
8.97395269905
8.97394897498
8.9739440508
8.97393789863
8.9739304896
8.97392179337
8.97391177838
8.97390041133
8.97388765747
8.97387348014
8.97385784109
8.97384070004
8.97382201509
8.9738017423
8.97377983607
8.97375624875
8.97373093096
8.97370383115
8.9736748958
8.97364406889
8.97361129181
8.97357650228
8.97353963744
8.97350062357
8.97345938177
8.97341584917
8.97336992394
8.97332153161
8.97327067696
8.97321744155
8.97316177018
8.97310363997
8.9730430174
8.97297993647
8.9729144071
8.9728464673
8.9727761955
8.97270370773
8.97262916738
8.97255279318
8.97247487172
8.97239576767
8.97231593599
8.97223593351
8.9721564266
8.97207822488
8.97200207865
8.97192872513
8.97185895749
8.97179359089
8.97173343967
8.97167929214
8.97163188878
8.97159191103
8.97155999782
8.9715368183
8.97152325617
8.97152080552
8.97153236586
8.9715637768
8.97162668984
8.97174371295
8.97195687231
8.97233875255
8.97299596837
8.9740152786
8.9752145632
8.97595130756
8.97176733429
8.97180048187
8.9718617841
8.9719451896
8.97204323255
8.97214884403
8.97225622666
8.97236117965
8.97246101047
8.97255424404
8.97264027819
8.97271908348
8.97279096979
8.97285642868
8.97291602864
8.97297035593
8.97301997865
8.97306543172
8.97310720821
8.97314575962
8.97318149551
8.97321478753
8.97324597049
8.97327534636
8.97330318506
8.97332972771
8.97335518702
8.97337974999
8.97340357823
8.97342681041
8.97344956284
8.97347193174
8.9734939942
8.9735158104
8.97353742481
8.97355886827
8.97358015944
8.97360130655
8.97362230899
8.9736431587
8.97366384168
8.97368433907
8.97370462845
8.97372468459
8.97374448052
8.97376398799
8.97378317869
8.97380202584
8.97382047936
8.97383856023
8.97385631069
8.97387359048
8.97389031865
8.97390642925
8.97392186912
8.97393659401
8.9739505666
8.97396375436
8.97397612866
8.97398766332
8.97399833429
8.97400811864
8.97401699454
8.97402494046
8.97403193529
8.97403795773
8.9740429864
8.97404699938
8.97404997431
8.974051888
8.97405271654
8.97405243491
8.9740510171
8.97404843576
8.97404466229
8.97403966648
8.97403341666
8.97402587926
8.97401701908
8.9740067988
8.97399517931
8.97398211928
8.97396757552
8.97395150258
8.97393385321
8.97391457795
8.97389362553
8.97387094254
8.97384647369
8.97382016144
8.97379194615
8.9737617655
8.97372955447
8.97369524479
8.97365876394
8.97362003547
8.97357897956
8.97353550225
8.9734895165
8.97344093475
8.97338964636
8.97333555618
8.97327862423
8.97321892964
8.97315637911
8.97309095159
8.97302258495
8.97295130519
8.97287713318
8.97280011643
8.97272035257
8.97263799982
8.97255328276
8.97246650802
8.97237807878
8.97228851119
8.97219845151
8.97210870302
8.97202010642
8.97193344845
8.97184959992
8.97176948789
8.97169407611
8.97162434352
8.97156126745
8.97150582039
8.9714590012
8.97142193491
8.97139610621
8.97138383998
8.97138923491
8.97141990477
8.97149010983
8.97162608799
8.97187419067
8.97230998895
8.97303533823
8.97411016603
8.97529801476
8.97597655274
8.97185386435
8.97188522733
8.97194366664
8.97202332655
8.97211716679
8.97221846394
8.97232164917
8.97242264431
8.9725188056
8.97260866713
8.97269162088
8.97276763108
8.97283700625
8.9729002424
8.97295791611
8.9730106229
8.97305893845
8.97310340211
8.97314450658
8.97318269809
8.97321837563
8.97325189565
8.9732835735
8.97331368845
8.9733424851
8.97337017773
8.9733969513
8.97342296507
8.97344835349
8.97347322927
8.97349768429
8.97352179238
8.97354561031
8.97356918029
8.97359253113
8.97361568035
8.9736386355
8.97366139587
8.97368395379
8.97370629599
8.97372840482
8.97375025918
8.97377183561
8.97379310885
8.97381405269
8.9738346402
8.97385484447
8.97387463784
8.97389399135
8.97391289045
8.97393141815
8.97394946851
8.97396695119
8.97398380039
8.97399996375
8.97401539832
8.97403006866
8.9740439445
8.97405699959
8.97406921021
8.97408055469
8.97409101242
8.97410056364
8.97410918879
8.97411686844
8.97412358282
8.97412931181
8.97413403456
8.97413772952
8.97414037411
8.97414194481
8.97414241679
8.97414176403
8.97413995898
8.97413697271
8.97413277452
8.97412733213
8.9741206113
8.97411257605
8.97410318827
8.97409240801
8.9740801931
8.97406649945
8.97405128077
8.97403448878
8.97401607296
8.97399598081
8.97397415743
8.9739505458
8.9739250862
8.97389771639
8.9738683709
8.97383698104
8.97380347394
8.97376777253
8.97372979439
8.97368945079
8.9736466487
8.97360128701
8.97355324963
8.97350243065
8.97344872267
8.97339199119
8.97333212491
8.97326897076
8.97320267325
8.97313307933
8.97306014584
8.97298381479
8.9729040735
8.97282097215
8.97273457719
8.97264502359
8.9725525321
8.97245742398
8.97236013744
8.9722612516
8.97216151681
8.97206185185
8.97196304572
8.97186600685
8.9717717369
8.97168131824
8.97159589913
8.97151668485
8.97144494562
8.9713820658
8.97132967384
8.9712899271
8.97126607741
8.97126353707
8.97129180635
8.97136781278
8.97152132161
8.97180256586
8.97228912497
8.97307669906
8.9741980613
8.97536863402
8.97599539859
8.97193621483
8.97196614686
8.97202239945
8.97209918287
8.97218977094
8.97228769991
8.97238757713
8.97248542387
8.9725786417
8.97266578028
8.97274623552
8.97281997486
8.97288731317
8.9729487564
8.97300489243
8.97305632733
8.97310364423
8.9731473855
8.97318804153
8.97322605098
8.9732618002
8.97329562881
8.97332783182
8.97335866581
8.97338835105
8.97341707687
8.97344500326
8.97347226525
8.97349897416
8.97352522119
8.97355107846
8.97357660208
8.97360183315
8.97362680031
8.97365152081
8.97367600266
8.97370024565
8.97372424309
8.97374798283
8.97377144854
8.97379462072
8.97381747749
8.97383999554
8.97386215054
8.97388391784
8.97390527261
8.97392619018
8.9739466458
8.97396661612
8.97398605273
8.97400505986
8.97402360873
8.97404157913
8.97405890613
8.97407553725
8.97409143035
8.97410655138
8.97412087187
8.97413436752
8.9741470167
8.97415879975
8.97416969803
8.97417969363
8.97418876871
8.97419690543
8.97420408542
8.97421028984
8.97421549896
8.9742196922
8.97422284786
8.97422494313
8.97422595384
8.97422585454
8.97422461822
8.97422221644
8.97421861901
8.97421379418
8.97420770832
8.9742003261
8.9741916102
8.97418152153
8.9741700189
8.9741570593
8.97414259753
8.97412658646
8.97410897668
8.97408971666
8.97406875233
8.97404602716
8.97402148165
8.97399505328
8.97396667578
8.97393627904
8.97390378817
8.97386912321
8.97383219808
8.97379292038
8.97375118994
8.97370689866
8.97365993188
8.97361016415
8.97355745379
8.97350166409
8.97344267043
8.97338029668
8.97331440853
8.97324480547
8.97317154187
8.97309452952
8.97301364895
8.97292887347
8.97284016381
8.97274757552
8.97265123976
8.97255135839
8.97244825403
8.97234239511
8.97223442468
8.97212531083
8.97201580927
8.97190681231
8.97179934579
8.97169456494
8.97159374877
8.97149830313
8.97140978422
8.97132996962
8.97126102208
8.97120582806
8.97116864752
8.97115630529
8.97118028376
8.971260223
8.97142932133
8.97174132591
8.97227507175