/*--------------------------------*- C++ -*----------------------------------*\
| =========                 |                                                 |
| \\      /  F ield         | OpenFOAM: The Open Source CFD Toolbox           |
|  \\    /   O peration     | Version:  2206                                  |
|   \\  /    A nd           | Website:  www.openfoam.com                      |
|    \\/     M anipulation  |                                                 |
\*---------------------------------------------------------------------------*/
FoamFile
{
    version     2.0;
    format      ascii;
    arch        "LSB;label=64;scalar=64";
    class       volScalarField;
    location    "2.4/water";
    object      km;
}
// * * * * * * * * * * * * * * * * * * * * * * * * * * * * * * * * * * * * * //

dimensions      [0 2 -2 0 0 0 0];

internalField   nonuniform List<scalar> 
23300
(
0.000274728436139
0.000283341523825
0.00030054740969
0.00032594005011
0.000358541988812
0.00039702910579
0.000440075448954
0.00048655790142
0.000535596034241
0.000586505214116
0.000638734532729
0.000691814552811
0.000745325635061
0.000798878833918
0.00085211058407
0.000904681056369
0.000956279922846
0.00100663028415
0.0010554968631
0.00110268929747
0.00114806826353
0.00119154494194
0.00123308293176
0.00127269277175
0.00131042947102
0.00134638287295
0.00138067237407
0.00141343536932
0.00144482169864
0.00147498279393
0.00150406812973
0.00153221687286
0.00155955738518
0.00158620178183
0.00161224819073
0.00163777752955
0.00166285747789
0.00168754041106
0.00171186799648
0.00173586941632
0.00175956583058
0.00178296839143
0.00180608216052
0.00182890367121
0.00185142401182
0.00187362561686
0.00189548388716
0.00191696719144
0.00193806092936
0.00195873717485
0.00197896261031
0.00199869855246
0.00201790407095
0.00203653427358
0.00205454241498
0.00207187810088
0.00208848914124
0.00210432002248
0.00211931368728
0.00213341035985
0.00214654932115
0.00215866811671
0.00216970437426
0.00217959540761
0.0021882801136
0.00219569896927
0.00220179602443
0.00220651925763
0.00220982263669
0.00221166674146
0.00221202079251
0.0022108633669
0.00220818420667
0.00220398477084
0.00219827956351
0.00219109621725
0.00218247605391
0.0021724733906
0.0021611550496
0.00214859858498
0.00213489046638
0.0021201229712
0.00210439090884
0.00208778723248
0.00207039864014
0.00205230032708
0.00203354996829
0.00201417630578
0.00199414889567
0.00197331968838
0.00195146782386
0.00192844931801
0.0019041825873
0.0018786262333
0.00185176607354
0.00182360834828
0.00179417668751
0.00176351040557
0.00173166355912
0.00169870371157
0.00166471069937
0.0016297748285
0.00159399506007
0.00155747671233
0.00152032929313
0.00148266397687
0.00144459135886
0.00140621897495
0.00136764923012
0.00132897718176
0.00129028879232
0.00125165901706
0.00121315024771
0.00117481033941
0.00113667052918
0.00109874218267
0.00106101213402
0.00102346800005
0.000986089791186
0.000948836943297
0.000911648245737
0.000874440830492
0.000837108952741
0.000799522498753
0.000761526040645
0.000722938717019
0.000683556126311
0.000643155079834
0.000601502805495
0.000558371857041
0.000513562408476
0.000466933263017
0.000418443353541
0.000368206248424
0.00031656402222
0.000264199788347
0.000212354307344
0.000163358534494
0.000121948007436
9.67806308934e-05
0.00028078518632
0.000289841086846
0.00030769425048
0.000333667003798
0.000366638124142
0.000405269977464
0.000448280737998
0.000494590946997
0.000543341674044
0.000593848731238
0.000645547579076
0.000697948514208
0.000750609418088
0.000803120338386
0.000855099431492
0.000906193153645
0.000956081934333
0.00100448532605
0.00105116946514
0.001095951336
0.00113870369909
0.00117935536115
0.00121789149692
0.00125434887101
0.00128881146989
0.00132140155372
0.00135227227929
0.00138159690423
0.00140956103015
0.00143635262735
0.00146215623813
0.00148714565029
0.00151148117348
0.00153530539901
0.00155874332907
0.00158190056361
0.00160486530305
0.001627707904
0.00165048369834
0.00167323301978
0.00169598409049
0.00171875298974
0.00174154623693
0.00176436052121
0.00178718492095
0.0018100004905
0.00183278237998
0.00185549703591
0.00187808886043
0.00190050219548
0.00192268013883
0.00194456276116
0.00196608775235
0.00198718939798
0.00200779942957
0.0020278462839
0.00204725603383
0.00206595190516
0.00208385530142
0.00210088559199
0.00211696125797
0.00213199996744
0.00214591986988
0.00215863996994
0.00217008159017
0.00218016904001
0.00218883124485
0.00219600267592
0.00220162510028
0.00220564868103
0.00220803373246
0.00220875181925
0.00220778731279
0.00220513823162
0.00220081731724
0.00219485230062
0.00218728617946
0.00217817658046
0.00216759491189
0.00215562447503
0.00214235812382
0.00212789470914
0.00211233478783
0.00209577488263
0.00207830062366
0.00205997794147
0.00204084225913
0.00202088493553
0.00200003932645
0.00197821564716
0.00195528259008
0.00193112703781
0.00190566841672
0.0018788555595
0.00185066203529
0.00182108261965
0.00179013130291
0.00175784000774
0.00172425773011
0.00168944950644
0.00165349527604
0.00161648833855
0.00157853365056
0.00153974575894
0.00150024665904
0.00146016339673
0.00141962571695
0.00137876358363
0.00133770487404
0.00129657305429
0.00125548510779
0.00121454947683
0.00117386423998
0.00113351525875
0.00109357454415
0.00105409877531
0.00101512877417
0.000976684929993
0.000938776607229
0.00090139126916
0.000864492457087
0.000828017412642
0.000791874586955
0.000755941093601
0.0007200606438
0.000684042414031
0.000647661798081
0.000610663978641
0.000572771636136
0.000533697985164
0.000493166437987
0.000450937969639
0.000406847531749
0.000360851876175
0.000313095043284
0.000264008890727
0.000214496503573
0.000166323037685
0.000123033821265
9.29119854867e-05
0.000300068541155
0.0003094462191
0.000327736622406
0.000354042469445
0.000387150265123
0.000425748922737
0.000468623098197
0.000514743463907
0.00056326995653
0.000613513167127
0.000664890868165
0.000716892504419
0.000769057506761
0.00082096286687
0.000872220069334
0.000922475467
0.000971415253581
0.00101876985985
0.00106432013578
0.00110790058746
0.00114940288251
0.00118877516081
0.00122602109909
0.00126119453218
0.00129439425084
0.00132575500221
0.00135543979592
0.0013836295775
0.00141051552927
0.00143628984313
0.00146114006951
0.00148524252396
0.00150875955603
0.00153183585683
0.00155459835463
0.00157715476346
0.00159959519486
0.00162199198392
0.00164440207481
0.00166686732388
0.00168941700052
0.00171206810248
0.00173482766193
0.00175769293964
0.00178065353326
0.00180369158305
0.00182678389889
0.00184989476489
0.00187295656095
0.00189590351357
0.00191867004342
0.00194118873737
0.00196339036945
0.00198520289305
0.00200655194474
0.00202736026391
0.00204754840196
0.00206703443188
0.00208573480283
0.00210356430772
0.00212043707959
0.00213626681471
0.00215096792337
0.00216445601122
0.00217664919502
0.00218746883536
0.00219684101063
0.0022046974681
0.00221097721185
0.00221562759041
0.00221860589232
0.00221988041564
0.00221943188247
0.0022172542507
0.00221335567623
0.0022077587561
0.00220050070814
0.0021916326887
0.00218121881585
0.00216933415171
0.00215606211803
0.00214149063585
0.00212570739537
0.00210879364932
0.0020908170371
0.00207182327239
0.00205182799061
0.00203081026496
0.00200871160692
0.00198547209045
0.00196103493734
0.00193532665573
0.00190829036092
0.00187988833988
0.00185010240589
0.00181893347019
0.00178640106918
0.00175254268438
0.00171741299588
0.0016810827853
0.00164363766337
0.00160517642484
0.00156580925389
0.00152565562818
0.00148484215809
0.0014435002309
0.00140176370322
0.00135976652281
0.00131764051715
0.00127551321813
0.00123350593098
0.00119173188652
0.00115029465248
0.00110928663372
0.00106878785061
0.00102886489163
0.000989570313036
0.000950936084726
0.000912978245077
0.000875692925095
0.000839054073351
0.000803010954096
0.000767485536235
0.000732369774919
0.000697523173203
0.00066277098558
0.000627903833201
0.000592679540435
0.000556828348508
0.00052006265579
0.00048209264857
0.000442649267355
0.000401516664907
0.000358578072747
0.000313883454965
0.000267755903336
0.000220964538462
0.000174985614236
0.000132407553486
0.000100625878451
0.000334316479604
0.000343592182732
0.000361624948277
0.000387501166033
0.000420060397669
0.000458078876731
0.000500412476939
0.000546064226802
0.00059419177639
0.000644083166532
0.000695126752846
0.00074678458817
0.000798575418585
0.000850064071431
0.000900858421574
0.000950608852186
0.000999011740453
0.00104581217235
0.00109080828311
0.00113385277338
0.00117485473179
0.00121377760686
0.00125063711905
0.00128549524319
0.00131845461883
0.00134964972537
0.00137923953237
0.00140739797324
0.00143430700583
0.00146014840719
0.00148509887217
0.00150932427235
0.00153297736434
0.00155619459027
0.00157909603468
0.00160178413645
0.00162434509079
0.00164684865095
0.00166935018899
0.00169189092647
0.00171450011418
0.00173719530911
0.0017599844149
0.00178286588461
0.00180583060083
0.00182886207649
0.00185193827903
0.00187502874127
0.00189806445521
0.00192097761664
0.0019437005112
0.00196616387332
0.00198829693475
0.00201002653781
0.0020312775736
0.00205197248023
0.00207203189209
0.00209137441861
0.00210991744463
0.00212757714579
0.00214426942046
0.00215991012446
0.00217441613296
0.00218770578615
0.00219970008117
0.00221032331507
0.00221950439418
0.00222717764064
0.00223328417748
0.00223777282623
0.0022406014758
0.00224173793905
0.0022411611439
0.00223886174209
0.002234842883
0.00222912029336
0.00222172232429
0.00221268915749
0.00220207175622
0.00218992979885
0.00217632912005
0.00216133797072
0.00214502264515
0.00212744201976
0.00210864186301
0.00208864912812
0.00206746793427
0.00204507843879
0.00202144029923
0.00199650016994
0.00197026528683
0.00194271048661
0.00191381245132
0.00188356033091
0.00185195774757
0.00181902363353
0.00178479266363
0.00174931504121
0.00171265597468
0.00167489466345
0.00163612306869
0.00159644431092
0.0015559709486
0.00151482299422
0.00147312590695
0.00143100843405
0.00138860053243
0.00134603125264
0.00130342680005
0.00126090864679
0.0012185918768
0.00117658361667
0.00113498170113
0.00109387341124
0.00105333441052
0.00101342770303
0.000974202688965
0.000935690857953
0.000897906681188
0.000860846922157
0.000824488753335
0.000788787636476
0.000753675065809
0.000719056143959
0.000684807267585
0.000650774168093
0.000616770899656
0.000582580427998
0.000547957840483
0.000512637341639
0.00047634464908
0.000438816920349
0.000399833630112
0.000359264142632
0.000317141577937
0.000273775206361
0.000229901793983
0.000186825112266
0.000146680134686
0.000119037586108
0.000379992310906
0.000388908892542
0.00040626594513
0.000431252925619
0.000462842687603
0.000499930139055
0.000541445354544
0.000586417149666
0.000633993601291
0.000683434770144
0.00073409625286
0.000785411021135
0.000836876657828
0.000888046072283
0.000938524084839
0.00098796554891
0.00103607701407
0.00108261743661
0.00112740048803
0.00117029419474
0.00121122108592
0.00125015486583
0.00128711737199
0.00132217210567
0.00135541855935
0.00138698379177
0.00141701571597
0.00144567453117
0.00147312674527
0.00149953803882
0.00152506921663
0.00154987127803
0.00157408360666
0.00159783117911
0.00162122460302
0.00164435889359
0.00166731468067
0.00169015788287
0.00171294145501
0.00173570543793
0.00175847882074
0.00178127966167
0.00180411685039
0.00182699017977
0.00184989194254
0.00187280691973
0.00189571373403
0.00191859162959
0.00194137514972
0.00196399763655
0.00198639177329
0.00200848866078
0.00203021810315
0.00205150788981
0.00207228425418
0.0020924714456
0.00211199236688
0.00213076839882
0.00214872017521
0.00216576761481
0.00218183080468
0.00219683021106
0.00221068765705
0.00222332669305
0.00223467365815
0.00224465818812
0.00225321434137
0.00226028120804
0.0022658040594
0.00226973499286
0.00227203402618
0.00227266966836
0.00227161982675
0.00226887213587
0.00226442448306
0.00225828486546
0.00225047127991
0.00224101082563
0.00222993866212
0.00221729605778
0.00220312814877
0.00218748075883
0.00217039698936
0.00215191321859
0.00213205554384
0.00211083683585
0.00208825584613
0.002064298638
0.0020389428
0.00201216226154
0.0019839459608
0.00195435764371
0.00192340971184
0.0018911238859
0.00185753213489
0.0018226778705
0.00178661641399
0.00174941489128
0.00171115182604
0.00167191627477
0.00163180678543
0.00159093000705
0.00154939922047
0.00150733263503
0.00146485169572
0.0014220792626
0.00137913788864
0.00133614806721
0.0012932266493
0.00125048529597
0.0012080291311
0.00116595544615
0.00112435258712
0.00108329886137
0.0010428615583
0.00100309589616
0.000964043939275
0.000925731801931
0.000888169427304
0.000851351048715
0.000815253730726
0.000779835686455
0.00074503445517
0.000710764891631
0.000676917168962
0.000643354953617
0.000609914211624
0.000576403182709
0.000542604456065
0.00050828036489
0.000473183588057
0.000437075704276
0.000399758011618
0.0003611209307
0.000321219516478
0.00028037642682
0.000239284559962
0.000199044756939
0.000161671215141
0.000141295054743
0.000432629987984
0.000441156866484
0.000457795444633
0.000481851903911
0.000512434766016
0.000548554323396
0.000589213598761
0.000633470349822
0.000680469044117
0.000729448240626
0.000779736393234
0.000830741683217
0.000881943460198
0.000932884417838
0.000983166941121
0.00103244998074
0.00108044897348
0.00112693460853
0.00117173320139
0.00121472457195
0.00125584069066
0.00129506123546
0.00133240981876
0.001367947258
0.00140176601199
0.00143398227147
0.0014647299761
0.00149415320287
0.00152240113596
0.00154962190959
0.00157595934508
0.00160154871809
0.00162651537179
0.00165097224483
0.00167501997216
0.00169874567537
0.0017222239916
0.00174551659367
0.00176867365702
0.00179173370894
0.00181472520817
0.00183766649168
0.00186056730417
0.00188342875732
0.00190624477517
0.0019290020716
0.00195168150881
0.00197425899366
0.00199669166159
0.00201891242568
0.0020408544758
0.00206244999182
0.00208363028168
0.00210432507226
0.00212446296124
0.00214397103271
0.00216277549155
0.00218080151237
0.00219797399303
0.00221421758048
0.00222945750479
0.00224361974396
0.00225663191462
0.00226842354731
0.00227892701443
0.00228807788703
0.00229581587509
0.00230208522694
0.00230683564171
0.00231002265262
0.00231160844539
0.00231156213629
0.00230986039448
0.00230648748783
0.00230143556669
0.00229470431265
0.00228630070754
0.00227623809824
0.00226453527131
0.00225121478139
0.00223630124992
0.0022198190121
0.00220178993085
0.0021822310136
0.00216115286866
0.0021385589258
0.0021144464759
0.00208880915458
0.00206164090349
0.00203293961919
0.00200270905232
0.00197098485138
0.00193787910181
0.00190344608608
0.00186774776197
0.00183085388393
0.00179284257678
0.00175379984468
0.00171381910138
0.0016730003969
0.00163144956201
0.00158927707645
0.00154659692241
0.00150352524214
0.00146017903998
0.00141667476969
0.0013731270262
0.00132964719618
0.00128634225615
0.00124331357223
0.00120065585565
0.00115845612231
0.00111679277774
0.0010757346678
0.00103534018099
0.000995656226484
0.0009567171404
0.00091854252184
0.000881136924204
0.000844490901076
0.000808579873373
0.000773362804185
0.000738780754037
0.000704755260617
0.000671186700297
0.000637952742432
0.000604907277543
0.000571880294601
0.000538679602383
0.00050509566928
0.000470911646603
0.000435921605385
0.000399961372127
0.000362957122907
0.000324994335387
0.000286396100112
0.000247768191711
0.000209998093431
0.000175330845743
0.000164318460422
0.000489049061834
0.000497258923176
0.000513313103952
0.000536608210395
0.000566358758515
0.000601668432861
0.000641603825378
0.000685253074986
0.000731764501483
0.000780364411541
0.000830362588533
0.000881148999838
0.000932189258395
0.000983018430685
0.00103323743797
0.00108250897716
0.00113055596475
0.00117715860038
0.00122215304323
0.00126542775657
0.00130692088826
0.00134661492539
0.00138453239208
0.00142072900498
0.00145528832697
0.00148831440063
0.00151992648363
0.00155025230855
0.00157942390532
0.00160757228355
0.00163482484567
0.0016613017262
0.0016871147601
0.00171236525723
0.00173714415523
0.00176153080162
0.00178559383609
0.00180939056296
0.00183296818631
0.00185636347075
0.00187960408425
0.00190270837428
0.00192568669541
0.0019485412382
0.00197126731993
0.00199385328244
0.00201628175727
0.00203852959911
0.00206057494702
0.00208235166125
0.00210379435716
0.00212483704844
0.00214541324149
0.00216545525251
0.00218489467158
0.00220366200845
0.00222168732332
0.00223890007705
0.00225522985559
0.00227060636559
0.00228496021094
0.00229822299118
0.00231032810032
0.00232121089366
0.00233080948387
0.00233906494317
0.0023459220691
0.00235132958329
0.00235524082982
0.0023576139198
0.0023584123095
0.00235760482298
0.00235516603766
0.00235107609892
0.00234532082394
0.00233789121144
0.00232878317148
0.00231799664669
0.00230553491176
0.00229140329827
0.00227560814302
0.00225815533351
0.00223904932388
0.00221829218057
0.00219588361816
0.0021718216787
0.00214610482269
0.00211873469618
0.00208971957512
0.00205907703179
0.00202683538716
0.00199303260829
0.00195773173499
0.00192110466428
0.00188323958327
0.00184423176837
0.00180418195194
0.00176319523637
0.0017213804326
0.00167884935305
0.00163571606671
0.00159209595832
0.00154810486746
0.00150385809037
0.0014594694698
0.00141505038542
0.00137070885309
0.00132654856565
0.00128266805485
0.00123915981549
0.00119610953988
0.00115359530779
0.0011116868507
0.00107044473655
0.0010299195626
0.000990150996933
0.000951166736899
0.000912980423071
0.000875591266116
0.000838985859877
0.000803137287752
0.000768004070712
0.000733529028266
0.000699637999066
0.000666238557778
0.00063321882306
0.000600446702642
0.000567770030207
0.000535018473388
0.000502008507665
0.000468553531155
0.000434482016238
0.000399667328953
0.00036407194946
0.00032780296839
0.000291159195664
0.000254630625175
0.000218933347806
0.000186896152825
0.000187002178231
0.000547346543641
0.000555334477898
0.000570979558763
0.00059373959051
0.00062290252089
0.00065763964512
0.000697066825782
0.000740298980491
0.000786491728491
0.000834865678787
0.000884718846657
0.000935428804539
0.000986451582866
0.00103731706831
0.00108762565088
0.001137043453
0.00118529958744
0.00123218179092
0.00127753367603
0.0013212497896
0.00136327196595
0.00140358327476
0.00144220335574
0.00147918155753
0.0015145918638
0.00154852604871
0.00158108907641
0.0016123931199
0.00164255412216
0.00167168717733
0.00169990451216
0.00172731228659
0.00175400985867
0.00178008774996
0.00180562784781
0.00183070217138
0.0018553736426
0.00187969532899
0.00190371149664
0.00192745710551
0.00195095896178
0.00197423533669
0.00199729712247
0.00202014752328
0.00204278319542
0.00206519403346
0.0020873643428
0.00210927276499
0.00213091913523
0.00215223940617
0.00217317056603
0.00219364914539
0.00221361137272
0.00223299258383
0.00225172773757
0.002269751085
0.00228699678924
0.00230339875118
0.00231889129066
0.00233340908737
0.00234688788863
0.00235926452379
0.00237047760681
0.00238046758732
0.00238917742123
0.00239655262481
0.00240254188683
0.00240709709069
0.00241017383731
0.00241173139518
0.00241173309644
0.00241014616895
0.00240694196243
0.00240209561521
0.00239558607021
0.00238739554092
0.00237750929941
0.00236591494629
0.00235260201451
0.00233756114286
0.00232078367688
0.00230226103812
0.00228198475091
0.0022599465796
0.00223613964878
0.00221055997955
0.00218320904906
0.00215409646828
0.00212324285665
0.00209068169908
0.00205646019109
0.0020206383521
0.00198328688954
0.00194447999606
0.00190444360832
0.0018632944816
0.00182115602828
0.0017781519572
0.00173440568695
0.00169004090691
0.00164518062283
0.00159994635753
0.00155445746499
0.00150883038512
0.00146317804386
0.00141760918068
0.00137222779365
0.00132713251307
0.00128241607485
0.00123816472091
0.00119445767195
0.0011513665139
0.00110895461885
0.00106727645186
0.00102637685783
0.00098629018364
0.000947039322233
0.000908633436615
0.000871066921455
0.000834322594552
0.000798370987613
0.000763169509607
0.000728661562683
0.000694775567205
0.000661424027397
0.000628502735339
0.000595890449191
0.000563449497324
0.000531028167289
0.000498466128939
0.000465604797118
0.00043230503303
0.000398474510907
0.000364104650286
0.000329309312615
0.00029434265288
0.000259574107564
0.000225620239475
0.000196212664804
0.00020893099257
0.000606415021562
0.000614271040573
0.000629675040248
0.000652123300446
0.000680950775392
0.000715373371876
0.00075454090972
0.00079758797236
0.000843676551484
0.000892024197815
0.000941921115607
0.000992736253944
0.00104391893595
0.00109499558251
0.00114556662352
0.00119530119437
0.00124393342717
0.00129125689319
0.00133712067504
0.00138142336465
0.00142410860022
0.00146515847253
0.00150458862823
0.00154244145822
0.00157878132169
0.00161368818319
0.00164725361033
0.00167957543995
0.00171075497078
0.00174089291791
0.0017700878688
0.00179843345202
0.00182601785019
0.00185292191223
0.00187921940381
0.00190497575376
0.00193024874426
0.00195508764212
0.00197953411318
0.00200362157586
0.00202737620617
0.00205081641947
0.00207395388907
0.00209679310472
0.00211933236116
0.00214156335221
0.00216347203335
0.00218503796381
0.00220628003861
0.00222714191575
0.00224756442148
0.00226748700834
0.00228684879464
0.00230558826727
0.0023236438665
0.00234095364433
0.00235745584704
0.00237308868475
0.00238779095095
0.00240150188626
0.00241416180704
0.00242571202285
0.00243609544225
0.00244525650746
0.00245314175173
0.00245969972072
0.00246488145964
0.00246864039313
0.00247093272096
0.00247171722904
0.00247095557252
0.00246861199356
0.0024646534753
0.00245904935255
0.00245177133658
0.00244279303132
0.00243208986606
0.00241963858289
0.0024054171839
0.00238940454736
0.00237158061016
0.00235192640582
0.00233042484544
0.00230706158699
0.00228182679964
0.0022547171016
0.00222573821484
0.00219490736849
0.00216225564433
0.00212782919305
0.00209168957634
0.00205391260362
0.00201458651622
0.0019738090206
0.00193168624751
0.00188840811084
0.00184416829949
0.00179910785183
0.00175336157415
0.0017070645418
0.00166034866828
0.00161334255484
0.00156617062988
0.00151895259328
0.00147180300659
0.00142483085723
0.00137813924783
0.00133182501391
0.00128597842831
0.00124068280786
0.00119601416727
0.00115204075544
0.00110882259909
0.00106641090948
0.00102484745388
0.000984163759909
0.000944380259234
0.00090550394428
0.000867525282307
0.000830423860189
0.000794167825746
0.000758713233054
0.000724003385993
0.000689968149439
0.000656523362183
0.000623570460094
0.000590996644259
0.000558676041195
0.000526472669995
0.0004942463475
0.000461863119664
0.000429211893781
0.000396228105785
0.000362921793752
0.000329399535803
0.000295859712054
0.000262563728504
0.000230107906217
0.000203403921045
0.000229946440761
0.000665595518443
0.000673399933745
0.000688714510896
0.000711057610967
0.000739791223168
0.000774157055199
0.000813324461842
0.000856438784975
0.000902664397202
0.000951215111739
0.0010013743661
0.00105250409408
0.00110404830114
0.00115553074271
0.00120655198896
0.00125678362104
0.00130596369032
0.00135389013667
0.00140041587702
0.0014454419262
0.00148891229408
0.00153080698507
0.00157113697564
0.00160993749936
0.00164726358204
0.00168318411755
0.00171777840138
0.00175113134538
0.00178333120859
0.00181446601826
0.00184462242057
0.00187388313875
0.00190232669165
0.00193002561393
0.00195704675069
0.00198344997819
0.00200928883483
0.00203460955358
0.00205945187045
0.00208384825564
0.00210782480714
0.00213140061982
0.00215458871494
0.00217739552383
0.00219982185108
0.00222186251846
0.00224350747596
0.00226474188822
0.00228555874446
0.00230595914618
0.00232588145341
0.00234526586366
0.0023640536882
0.00238218633616
0.00239960560047
0.00241625316617
0.00243207110398
0.00244700155248
0.00246098726026
0.0024739713569
0.00248589789627
0.00249671167152
0.00250635872836
0.00251478619037
0.00252194272105
0.00252777833461
0.00253224479229
0.00253529537987
0.00253688522775
0.00253697104136
0.00253551133973
0.00253246613332
0.0025277970866
0.00252146715497
0.0025134406997
0.00250368312789
0.00249216102911
0.00247884191544
0.00246369451192
0.00244668876724
0.00242779650851
0.00240699196888
0.00238425306984
0.00235956271015
0.00233291083153
0.00230429644137
0.00227373013366
0.00224123613266
0.00220685417483
0.00217064026298
0.00213266670501
0.0020930208929
0.00205180363878
0.002009127111
0.00196511270881
0.00191988913265
0.00187356501684
0.0018264486393
0.00177866446159
0.00173036464421
0.00168168898464
0.00163277398163
0.00158375013514
0.0015347422208
0.00148586875919
0.00143724179406
0.00138896669163
0.0013411419028
0.00129385880103
0.00124720141042
0.00120124617169
0.00115606156861
0.00111170774685
0.00106823598309
0.00102568811433
0.0009840958046
0.000943479769587
0.00090384808323
0.000865188603233
0.000827478615901
0.000790684438236
0.000754760939443
0.000719651102311
0.000685285614681
0.000651582630797
0.000618447821517
0.000585775044784
0.000553448066046
0.000521344068728
0.000489339906078
0.000457322273644
0.000425202672067
0.000392936600339
0.000360542520587
0.000328109229597
0.000295776444242
0.000263718678517
0.000232587254812
0.000208715647566
0.000249985963483
0.000724486725421
0.00073231208249
0.000747675418677
0.000770105155778
0.000798975175932
0.000833537594214
0.00087296818686
0.000916413491888
0.000963034222232
0.00101203728509
0.00106269808245
0.00111437121568
0.00116649538937
0.00121859162792
0.00127026028586
0.00132117468448
0.00137107577517
0.00141976462914
0.00146709667549
0.00151297408297
0.00155734015722
0.0016001720427
0.00164147566217
0.00168127913703
0.00171962864473
0.00175658289693
0.00179221015726
0.00182658392143
0.00185978110815
0.00189187885606
0.00192295370061
0.00195307925227
0.00198232608089
0.00201076000605
0.00203844242584
0.00206542900084
0.00209177023673
0.00211751042234
0.00214268835218
0.00216733644423
0.00219148154044
0.00221514416549
0.00223833936874
0.00226107610353
0.00228335810126
0.00230518340112
0.00232654535203
0.00234743249035
0.00236782981081
0.0023877765286
0.00240721357222
0.00242608404539
0.00244433230856
0.00246190289888
0.00247874083648
0.00249479111989
0.00250999918252
0.00252431049711
0.00253767104189
0.00255002697327
0.00256132508456
0.00257151251956
0.00258053720327
0.00258834757037
0.00259489295385
0.00260012331137
0.00260398956599
0.00260644332138
0.0026074371551
0.00260692432121
0.002604859004
0.00260119601726
0.0025958910395
0.00258890033797
0.00258018102969
0.00256969088929
0.00255738871672
0.00254323433211
0.00252718917869
0.00250921665673
0.00248928313191
0.00246735878535
0.002443419186
0.00241744676135
0.00238943292686
0.00235937999474
0.00232730343582
0.00229323353407
0.00225721686222
0.00221931668374
0.00217961279428
0.00213820022898
0.00209518760513
0.00205069475383
0.00200485034659
0.00195778891255
0.00190964785961
0.00186057155424
0.00181072425782
0.00176038083417
0.00170966619706
0.00165872982345
0.001607707654
0.00155673115545
0.0015059243858
0.0014554048479
0.00140528294595
0.00135566188872
0.0013066375621
0.00125829827591
0.00121072457608
0.0011639888924
0.00111815517468
0.00107327837416
0.0010294038887
0.000986566858379
0.000944791416156
0.000904090287248
0.000864451380476
0.000825850988607
0.000788254531786
0.000751616276837
0.000715879106001
0.000680974382216
0.0006468220559
0.000613331135725
0.000580400842432
0.000547922840348
0.000515785183527
0.000483878707436
0.000452106602004
0.000420397266888
0.000388718764656
0.000357089351895
0.000325573395255
0.00029425449684
0.000263243914515
0.00023331577982
0.000212440807791
0.000269012068675
0.000782844632248
0.00079075861092
0.000806300418053
0.000828999225485
0.000858228721269
0.000893238504968
0.000933198730048
0.000977247179607
0.00102453357555
0.00107425293595
0.00112566946398
0.00117812854933
0.00123106244145
0.00128398861694
0.00133650648589
0.00138829031934
0.00143908307537
0.00148868797367
0.00153696195607
0.00158380741745
0.00162916620966
0.00167301213327
0.00171534591574
0.00175618880368
0.00179557875827
0.00183356531017
0.00187020702234
0.00190556756798
0.00193971431665
0.00197271542943
0.00200463930082
0.00203555239394
0.00206551925011
0.00209460081039
0.00212285476161
0.00215033416648
0.00217708799869
0.00220315998385
0.00222858924648
0.00225340931814
0.00227764885765
0.00230133080332
0.00232447313582
0.00234708814719
0.00236918320841
0.00239076011474
0.00241181579134
0.00243234154417
0.00245232313592
0.00247181977557
0.0024907848905
0.00250916703909
0.00252691396626
0.00254397301563
0.00256029192737
0.00257581841335
0.00259050058596
0.00260428647725
0.00261712442484
0.00262896264319
0.0026397496015
0.00264943364165
0.0026579633393
0.002665287151
0.00267135375208
0.00267611170407
0.00267950977185
0.00268149661147
0.00268202107646
0.00268103193417
0.00267847817881
0.00267430879524
0.0026684731084
0.00266092063032
0.0026516014952
0.00264046645055
0.00262746745489
0.00261255790468
0.0025956935011
0.00257683282917
0.00255593861072
0.00253297874017
0.00250792799018
0.00248076950341
0.00245149684037
0.00242011566886
0.00238664571634
0.0023511220455
0.00231359617788
0.00227413621812
0.00223282656223
0.00218976659031
0.00214506906409
0.00209885784016
0.00205126561683
0.00200243150539
0.00195249931558
0.00190161572376
0.00184992853579
0.001797578145
0.00174475758295
0.00169171547386
0.00163857170562
0.00158547144389
0.00153254362708
0.00147991369014
0.00142769899699
0.00137601009307
0.00132495035182
0.00127461557006
0.0012250938402
0.00117646512331
0.0011288008471
0.00108216335056
0.00103660529867
0.000992168981513
0.000948885604265
0.000906774548848
0.0008658299164
0.000826028489824
0.000787336069491
0.000749707309624
0.000713085654559
0.000677403453663
0.000642582396349
0.000608534381382
0.000575163113513
0.00054236676886
0.000510042241285
0.000478091461135
0.000446430091017
0.000414998037868
0.000383769296166
0.00035275522624
0.000321992202151
0.000291513106696
0.000261388847466
0.000232577223667
0.000214882121115
0.000286976700533
0.000840527443405
0.000848595367691
0.000864441345975
0.000887587571147
0.000917397365359
0.000953106293636
0.000993867479864
0.00103879976787
0.00108703345456
0.00113774522212
0.00119018344953
0.00124368109913
0.00129766182373
0.00135163812338
0.00140520746057