/*--------------------------------*- C++ -*----------------------------------*\
| =========                 |                                                 |
| \\      /  F ield         | OpenFOAM: The Open Source CFD Toolbox           |
|  \\    /   O peration     | Version:  2212                                  |
|   \\  /    A nd           | Website:  www.openfoam.com                      |
|    \\/     M anipulation  |                                                 |
\*---------------------------------------------------------------------------*/
FoamFile
{
    version     2.0;
    format      ascii;
    arch        "LSB;label=64;scalar=64";
    class       volScalarField;
    location    "950";
    object      Gch4;
}
// * * * * * * * * * * * * * * * * * * * * * * * * * * * * * * * * * * * * * //

dimensions      [1 -3 0 0 0 0 0];

internalField   nonuniform List<scalar> 
1024
(
1.93563
1.93554
1.93532
1.93493
1.93432
1.93344
1.93228
1.93085
1.9292
1.9274
1.92554
1.92372
1.92207
1.92088
1.92057
1.9214
1.92327
1.92567
1.92815
1.93057
1.93285
1.93499
1.93696
1.93871
1.94023
1.94147
1.94244
1.94314
1.94363
1.94393
1.94409
1.94416
1.93561
1.93552
1.9353
1.93491
1.93428
1.93338
1.9322
1.93075
1.92908
1.92727
1.9254
1.92355
1.92188
1.92067
1.92037
1.92121
1.9231
1.92551
1.928
1.93043
1.93273
1.93487
1.93685
1.93862
1.94015
1.94141
1.94239
1.94311
1.9436
1.94391
1.94408
1.94415
1.93559
1.93549
1.93526
1.93485
1.93419
1.93326
1.93204
1.93055
1.92885
1.92701
1.92509
1.92318
1.92144
1.92016
1.91986
1.92075
1.9227
1.92516
1.92769
1.93014
1.93246
1.93462
1.93662
1.93842
1.93998
1.94127
1.94229
1.94303
1.94354
1.94386
1.94404
1.94411
1.93555
1.93545
1.9352
1.93476
1.93407
1.9331
1.93183
1.93029
1.92854
1.92664
1.92463
1.92259
1.92067
1.91926
1.91895
1.91994
1.92202
1.92459
1.92718
1.92969
1.93204
1.93424
1.93627
1.93811
1.93971
1.94106
1.94212
1.94291
1.94345
1.94379
1.94398
1.94405
1.9355
1.93539
1.93514
1.93467
1.93394
1.93292
1.9316
1.93001
1.92819
1.92619
1.92402
1.92173
1.9195
1.91784
1.9175
1.91868
1.92099
1.92375
1.92649
1.92908
1.9315
1.93375
1.93582
1.93771
1.93937
1.94078
1.9419
1.94274
1.94332
1.94369
1.94389
1.94397
1.93545
1.93534
1.93508
1.93459
1.93384
1.93278
1.93141
1.92976
1.92785
1.9257
1.92328
1.92061
1.91789
1.91583
1.91543
1.91687
1.91956
1.92264
1.9256
1.92834
1.93086
1.93318
1.93531
1.93725
1.93898
1.94046
1.94165
1.94254
1.94316
1.94356
1.94377
1.94386
1.93543
1.93532
1.93505
1.93455
1.93379
1.93272
1.93132
1.92961
1.9276
1.92524
1.92246
1.91923
1.91582
1.9132
1.91267
1.91444
1.91768
1.92123
1.92453
1.92751
1.93019
1.93261
1.9348
1.9368
1.93859
1.94013
1.94138
1.94233
1.94299
1.94341
1.94364
1.94373
1.93545
1.93534
1.93508
1.9346
1.93385
1.93279
1.93139
1.92964
1.9275
1.92488
1.92162
1.91765
1.91333
1.90996
1.90923
1.91141
1.91536
1.91957
1.92335
1.92666
1.92955
1.9321
1.93439
1.93644
1.93828
1.93986
1.94115
1.94214
1.94283
1.94327
1.9435
1.9436
1.93555
1.93544
1.93519
1.93474
1.93404
1.93303
1.93167
1.9299
1.92763
1.92469
1.92082
1.9159
1.91042
1.90614
1.90517
1.90784
1.91269
1.91774
1.92215
1.9259
1.92907
1.93179
1.93416
1.93626
1.93812
1.93972
1.94102
1.94202
1.94272
1.94316
1.9434
1.94349
1.93573
1.93563
1.93541
1.93501
1.93437
1.93345
1.93215
1.93039
1.92799
1.92466
1.92002
1.91389
1.90701
1.90172
1.90056
1.90389
1.90983
1.91589
1.92108
1.92536
1.92888
1.93179
1.93424
1.93636
1.93821
1.93977
1.94104
1.94201
1.94269
1.94312
1.94335
1.94345
1.93592
1.93585
1.93567
1.93534
1.9348
1.93398
1.93277
1.93101
1.92842
1.92457
1.91892
1.91125
1.90276
1.89652
1.89542
1.89968
1.90692
1.91418
1.92027
1.9252
1.92912
1.93223
1.93476
1.93685
1.93862
1.94009
1.94127
1.94217
1.94279
1.94319
1.94341
1.9435
1.93583
1.93579
1.93569
1.93546
1.93504
1.93432
1.93316
1.93132
1.9284
1.92376
1.91671
1.90719
1.89707
1.8902
1.88963
1.89515
1.90388
1.9125
1.91967
1.92539
1.92982
1.93319
1.93577
1.9378
1.93942
1.94073
1.94176
1.94253
1.94307
1.94342
1.94362
1.94371
1.93446
1.93449
1.93451
1.93443
1.93415
1.93351
1.93229
1.93015
1.92654
1.92068
1.91187
1.90044
1.88909
1.8823
1.88281
1.88971
1.89984
1.90989
1.91841
1.92526
1.93052
1.93439
1.93716
1.93916
1.94062
1.94171
1.94254
1.94314
1.94356
1.94383
1.94397
1.94403
1.92974
1.92983
1.92995
1.93001
1.92983
1.92918
1.92772
1.92495
1.92023
1.91277
1.90213
1.88932
1.87784
1.87212
1.87385
1.88141
1.89207
1.90317
1.91325
1.92189
1.92884
1.93405
1.93773
1.94019
1.94178
1.94279
1.9434
1.94372
1.94383
1.94379
1.9437
1.94363
1.91921
1.91928
1.91937
1.91936
1.91903
1.91806
1.91599
1.91222
1.90611
1.8971
1.88532
1.87255
1.86247
1.8582
1.85981
1.86555
1.87413
1.88427
1.89482
1.90516
1.91465
1.92276
1.92925
1.93403
1.93713
1.93877
1.93924
1.93891
1.93813
1.93723
1.93648
1.93607
1.90309
1.90307
1.90293
1.9025
1.90152
1.89957
1.89613
1.89059
1.88253
1.87204
1.86025
1.84932
1.84134
1.83673
1.83454
1.83397
1.83535
1.83903
1.8447
1.85189
1.86001
1.86842
1.8766
1.88404
1.89024
1.89485
1.89772
1.89906
1.89922
1.89871
1.89804
1.89761
1.88724
1.88711
1.88669
1.88575
1.88394
1.88085
1.87602
1.86906
1.85995
1.84919
1.83783
1.82704
1.81744
1.80874
1.80019
1.79128
1.78264
1.77565
1.7708
1.76807
1.76742
1.76874
1.77185
1.77646
1.78219
1.78852
1.79481
1.80045
1.80485
1.80774
1.80926
1.80979
1.8771
1.87693
1.87641
1.87528
1.87319
1.86976
1.86457
1.85739
1.84825
1.8376
1.82622
1.81491
1.80404
1.7934
1.78256
1.77119
1.75977
1.74933
1.7399
1.73138
1.72395
1.71791
1.7136
1.7113
1.71116
1.7131
1.7167
1.72124
1.72582
1.72961
1.73209
1.7332
1.87127
1.87109
1.87055
1.86941
1.86736
1.86403
1.85904
1.85219
1.84349
1.83331
1.82233
1.81123
1.80048
1.79018
1.78024
1.77062
1.76176
1.7538
1.74594
1.73772
1.72926
1.72087
1.71303
1.70624
1.70096
1.69746
1.69581
1.69577
1.69685
1.69839
1.69972
1.70043
1.86794
1.86776
1.86724
1.86618
1.8643
1.86126
1.85674
1.85051
1.84257
1.8332
1.82299
1.81262
1.80261
1.79329
1.78479
1.77719
1.77079
1.76514
1.75891
1.75138
1.74253
1.73269
1.72252
1.71283
1.70441
1.6978
1.69322
1.69054
1.68939
1.68926
1.68957
1.68986
1.86598
1.86582
1.86536
1.86442
1.86277
1.86011
1.85615
1.85067
1.84364
1.83529
1.82609
1.81667
1.80756
1.79915
1.79164
1.78511
1.77973
1.77481
1.76914
1.76196
1.75307
1.74256
1.73097
1.71918
1.70826
1.69912
1.6923
1.68784
1.68543
1.68447
1.68434
1.68445
1.86445
1.86433
1.86399
1.86325
1.8619
1.85966
1.8563
1.8516
1.84552
1.83824
1.83012
1.82166
1.81334
1.8055
1.79833
1.79185
1.78612
1.78067
1.77468
1.76748
1.75871
1.74828
1.73643
1.72383
1.71151
1.70059
1.6919
1.68583
1.68223
1.68055
1.68009
1.68011
1.86232
1.86231
1.86218
1.86175
1.86081
1.85909
1.85635
1.8524
1.84719
1.84084
1.83362
1.82589
1.81802
1.81029
1.80283
1.79558
1.78869
1.78212
1.77543
1.76801
1.75944
1.74946
1.73809
1.72572
1.71314
1.70138
1.69147
1.68411
1.67944
1.67706
1.67626
1.6762
1.85846
1.85863
1.85883
1.85888
1.85849
1.85735
1.85521
1.85189
1.84731
1.84156
1.83482
1.82738
1.8195
1.81141
1.80321
1.79484
1.78659
1.7789
1.77161
1.76411
1.75591
1.74667
1.73621
1.72472
1.71273
1.70105
1.69067
1.68248
1.67695
1.67392
1.67277
1.67261
1.8518
1.85222
1.85287
1.85348
1.85368
1.85308
1.85137
1.84836
1.844
1.83835
1.8316
1.82398
1.81573
1.80706
1.79808
1.78873
1.77947
1.77113
1.76363
1.75636
1.74881
1.74055
1.73134
1.72116
1.71032
1.69941
1.68926
1.68078
1.67466
1.67108
1.66959
1.66933
1.84151
1.84223
1.84335
1.84443
1.84499
1.8446
1.84291
1.83975
1.83512
1.82915
1.82205
1.81407
1.80545
1.79638
1.78699
1.77723
1.7677
1.75934
1.75214
1.74547
1.73881
1.73175
1.72398
1.71539
1.70608
1.69643
1.68707
1.67882
1.6725
1.66852
1.66672
1.66634
1.82708
1.82809
1.8295
1.83065
1.83101
1.83022
1.82801
1.82427
1.81911
1.81272
1.80536
1.79726
1.78866
1.77974
1.7706
1.76123
1.75221
1.7445
1.73804
1.73226
1.72667
1.7209
1.71465
1.70776
1.7002
1.69215
1.68401
1.67647
1.67033
1.66619
1.66415
1.66364
1.8082
1.80942
1.81065
1.81116
1.81058
1.80878
1.80567
1.80127
1.79576
1.78933
1.78219
1.77456
1.76663
1.75853
1.75037
1.74212
1.7343
1.72772
1.72233
1.71761
1.71318
1.7087
1.70393
1.6987
1.69292
1.68663
1.68003
1.6736
1.66804
1.66402
1.66185
1.66123
1.7846
1.78572
1.78606
1.78517
1.78316
1.78022
1.77639
1.77178
1.7665
1.76067
1.75443
1.74794
1.74132
1.73467
1.72805
1.72144
1.71525
1.71011
1.70595
1.70239
1.69909
1.69584
1.69242
1.68871
1.68459
1.68005
1.67513
1.67012
1.6655
1.66191
1.6598
1.6591
1.75567
1.75613
1.7549
1.75246
1.74939
1.74595
1.74218
1.73813
1.73381
1.72925
1.72453
1.7197
1.71485
1.71003
1.70529
1.70059
1.69623
1.69264
1.68976
1.68732
1.6851
1.68295
1.68072
1.67831
1.67566
1.6727
1.66944
1.66597
1.66259
1.65976
1.65793
1.65725
1.72028
1.71945
1.71701
1.71424
1.71144
1.70868
1.70595
1.70322
1.70045
1.69763
1.69476
1.69187
1.68899
1.68615
1.68336
1.68063
1.67811
1.67604
1.67439
1.673
1.67175
1.67055
1.66933
1.66802
1.66658
1.66498
1.66319
1.66124
1.65925
1.65746
1.65619
1.65564
1.67696
1.6763
1.67503
1.67382
1.67269
1.67164
1.67065
1.66969
1.66875
1.66781
1.66686
1.66591
1.66497
1.66405
1.66315
1.66227
1.66146
1.66079
1.66026
1.65982
1.65942
1.65904
1.65866
1.65825
1.65781
1.65731
1.65676
1.65615
1.65552
1.65492
1.65446
1.65424
)
;

boundaryField
{
    movingWall
    {
        type            fixedValue;
        value           uniform 1.6535;
    }
    fixedWalls
    {
        type            zeroGradient;
    }
    floor
    {
        type            zeroGradient;
    }
    frontAndBack
    {
        type            empty;
    }
}


// ************************************************************************* //
