/*--------------------------------*- C++ -*----------------------------------*\
| =========                 |                                                 |
| \\      /  F ield         | OpenFOAM: The Open Source CFD Toolbox           |
|  \\    /   O peration     | Version:  2212                                  |
|   \\  /    A nd           | Website:  www.openfoam.com                      |
|    \\/     M anipulation  |                                                 |
\*---------------------------------------------------------------------------*/
FoamFile
{
    version     2.0;
    format      ascii;
    arch        "LSB;label=64;scalar=64";
    class       volScalarField;
    location    "950";
    object      p_rgh;
}
// * * * * * * * * * * * * * * * * * * * * * * * * * * * * * * * * * * * * * //

dimensions      [0 2 -2 0 0 0 0];

internalField   nonuniform List<scalar> 
1024
(
0.0431948
0.0431919
0.0431883
0.0431859
0.0431857
0.0431884
0.0431951
0.0432087
0.0432339
0.0432776
0.0433468
0.0434413
0.0435383
0.0435963
0.043573
0.0434905
0.0433795
0.0432867
0.043221
0.0431775
0.0431496
0.0431322
0.0431218
0.0431159
0.0431124
0.0431101
0.0431086
0.0431079
0.0431084
0.04311
0.0431121
0.0431136
0.0432006
0.0431977
0.0431947
0.0431932
0.0431937
0.0431968
0.0432037
0.0432173
0.0432424
0.0432859
0.0433548
0.0434489
0.0435454
0.0436031
0.0435803
0.0434982
0.0433871
0.0432941
0.0432281
0.0431844
0.0431562
0.0431386
0.043128
0.0431218
0.0431181
0.0431156
0.0431139
0.043113
0.0431131
0.0431142
0.043116
0.0431175
0.0432112
0.0432077
0.0432051
0.0432049
0.0432068
0.0432111
0.0432189
0.0432331
0.0432588
0.0433029
0.0433728
0.043468
0.0435653
0.0436233
0.0436008
0.0435181
0.0434058
0.0433115
0.0432445
0.0431998
0.0431708
0.0431524
0.0431412
0.0431343
0.0431299
0.0431267
0.0431242
0.0431223
0.0431215
0.0431219
0.0431235
0.0431255
0.0432239
0.0432196
0.0432173
0.0432188
0.0432231
0.0432296
0.0432394
0.0432553
0.0432827
0.0433287
0.0434011
0.0434986
0.0435974
0.0436561
0.0436349
0.0435515
0.0434379
0.0433418
0.0432727
0.0432263
0.0431957
0.0431758
0.0431631
0.0431549
0.0431492
0.0431444
0.0431401
0.0431363
0.0431337
0.0431331
0.0431346
0.0431372
0.043233
0.0432284
0.0432271
0.0432312
0.0432392
0.0432495
0.0432627
0.0432816
0.0433117
0.0433602
0.043435
0.043534
0.0436335
0.0436929
0.0436765
0.0435952
0.0434825
0.0433856
0.0433143
0.0432657
0.0432328
0.0432107
0.0431957
0.0431853
0.0431771
0.0431696
0.043162
0.0431548
0.0431493
0.0431468
0.043148
0.0431512
0.0432305
0.0432264
0.0432272
0.0432353
0.0432486
0.0432646
0.0432831
0.0433064
0.0433397
0.0433899
0.0434645
0.0435626
0.0436613
0.0437222
0.0437143
0.0436402
0.0435335
0.0434392
0.0433678
0.0433177
0.0432825
0.0432575
0.0432394
0.0432256
0.0432136
0.0432016
0.0431888
0.0431763
0.0431661
0.0431605
0.0431606
0.043164
0.0432081
0.0432055
0.0432094
0.0432226
0.0432431
0.0432671
0.0432928
0.0433215
0.0433574
0.0434073
0.0434781
0.0435736
0.0436723
0.0437362
0.0437383
0.0436754
0.0435804
0.0434941
0.0434271
0.0433781
0.0433418
0.0433141
0.0432923
0.0432738
0.0432561
0.0432373
0.0432169
0.0431964
0.0431792
0.0431689
0.0431668
0.0431698
0.0431617
0.0431611
0.0431683
0.0431872
0.0432159
0.0432497
0.0432842
0.0433184
0.0433558
0.043403
0.0434691
0.0435637
0.0436664
0.0437352
0.0437451
0.0436936
0.043613
0.0435392
0.0434821
0.0434383
0.0434036
0.0433746
0.043349
0.0433248
0.0432995
0.0432711
0.0432397
0.043208
0.0431812
0.0431644
0.043159
0.043161
0.0430947
0.0430961
0.043106
0.0431292
0.0431654
0.043209
0.0432526
0.0432925
0.0433303
0.0433739
0.0434385
0.0435386
0.0436517
0.0437255
0.0437385
0.0436944
0.0436265
0.0435664
0.0435224
0.0434881
0.0434586
0.0434306
0.043402
0.0433713
0.0433362
0.0432952
0.0432492
0.0432029
0.0431642
0.0431393
0.0431299
0.0431304
0.0430193
0.0430222
0.0430333
0.0430578
0.0430979
0.0431482
0.0431994
0.0432444
0.043283
0.043325
0.0433964
0.043512
0.0436392
0.0437164
0.0437265
0.043683
0.0436224
0.0435732
0.043542
0.0435196
0.0434984
0.0434735
0.043443
0.0434052
0.0433581
0.0433013
0.0432373
0.0431739
0.043122
0.0430891
0.0430756
0.0430742
0.0429554
0.042959
0.0429696
0.0429924
0.0430303
0.0430802
0.043134
0.0431827
0.0432239
0.0432696
0.0433633
0.0435042
0.043642
0.043719
0.0437182
0.0436668
0.0436055
0.0435619
0.0435406
0.0435301
0.043518
0.0434972
0.0434648
0.0434188
0.0433576
0.0432822
0.0431982
0.0431176
0.0430541
0.0430154
0.0429991
0.042996
0.0429231
0.042926
0.0429341
0.0429525
0.0429849
0.0430296
0.0430799
0.0431279
0.0431737
0.0432396
0.0433652
0.0435348
0.0436818
0.0437463
0.0437225
0.043653
0.0435818
0.0435354
0.0435197
0.04352
0.0435154
0.0434969
0.0434605
0.0434039
0.0433264
0.0432319
0.0431305
0.0430381
0.0429695
0.0429299
0.042913
0.0429087
0.0429475
0.0429473
0.0429491
0.0429586
0.0429809
0.0430165
0.0430617
0.0431123
0.0431738
0.0432775
0.043448
0.0436402
0.0437777
0.0438073
0.0437447
0.0436474
0.0435565
0.0434958
0.0434734
0.0434815
0.04348
0.0434592
0.0434163
0.0433459
0.0432536
0.0431485
0.0430447
0.0429569
0.0428948
0.0428594
0.0428436
0.0428386
0.0430876
0.0430803
0.0430692
0.0430618
0.0430663
0.0430884
0.0431301
0.0431935
0.0432907
0.043451
0.0436546
0.0438388
0.0439302
0.0438946
0.0437816
0.0436556
0.0435395
0.0434509
0.0433985
0.0433782
0.0433701
0.0433486
0.0433077
0.0432449
0.0431633
0.0430725
0.0429851
0.0429132
0.0428638
0.0428358
0.0428228
0.042818
0.0434618
0.0434457
0.0434173
0.0433861
0.0433661
0.0433716
0.0434146
0.0435043
0.0436462
0.0438241
0.0439874
0.0440957
0.0440881
0.0439767
0.0438391
0.0436987
0.0435655
0.0434488
0.0433548
0.0432847
0.0432437
0.0432257
0.0432071
0.0431715
0.0431182
0.0430544
0.0429922
0.0429415
0.0429083
0.0428913
0.0428848
0.0428825
0.0440835
0.044066
0.0440345
0.0439979
0.0439721
0.0439789
0.044038
0.0441523
0.0442811
0.0443463
0.0443405
0.0442879
0.0442035
0.0441013
0.0439935
0.0438922
0.0438085
0.0437409
0.0436894
0.0436502
0.0436155
0.0435734
0.0435198
0.0434537
0.0433751
0.0432972
0.043246
0.0432089
0.0431901
0.0431883
0.043195
0.0432009
0.0444845
0.0444706
0.0444474
0.0444226
0.0444079
0.0444169
0.0444568
0.0445189
0.0445795
0.0446177
0.0446324
0.044628
0.0446062
0.0445677
0.0445149
0.0444552
0.0444153
0.0444204
0.0444557
0.0445179
0.0446003
0.0446907
0.0447708
0.0448193
0.0448166
0.0447496
0.0446152
0.04446
0.0443181
0.0442179
0.0441699
0.0441577
0.0445944
0.0445836
0.0445663
0.0445487
0.0445393
0.044547
0.0445754
0.0446196
0.0446673
0.0447079
0.0447384
0.0447581
0.0447656
0.0447592
0.0447393
0.0447107
0.0446884
0.0446759
0.044694
0.04474
0.0448103
0.0448988
0.0449953
0.0450864
0.0451591
0.0452046
0.0452194
0.0452055
0.0451694
0.0451216
0.0450759
0.0450489
0.0446075
0.0445994
0.0445864
0.0445732
0.0445665
0.0445734
0.0445978
0.0446371
0.0446833
0.0447288
0.0447697
0.0448029
0.0448253
0.0448335
0.0448251
0.044802
0.0447777
0.0447575
0.0447513
0.0447619
0.04479
0.0448365
0.0448994
0.0449723
0.0450451
0.0451073
0.045151
0.0451736
0.0451777
0.0451695
0.0451558
0.0451444
0.0445995
0.0445934
0.0445833
0.0445724
0.0445668
0.0445731
0.0445955
0.0446332
0.0446807
0.0447305
0.0447784
0.0448195
0.04485
0.0448663
0.0448662
0.0448522
0.0448385
0.0448299
0.0448151
0.0448021
0.0447956
0.0447997
0.0448197
0.0448572
0.0449081
0.044963
0.0450109
0.0450437
0.045059
0.0450601
0.0450527
0.0450436
0.0445952
0.0445905
0.0445823
0.0445729
0.044568
0.0445737
0.0445948
0.0446315
0.0446796
0.0447322
0.0447837
0.0448283
0.0448618
0.0448807
0.0448839
0.0448768
0.0448706
0.0448812
0.044874
0.0448577
0.0448406
0.0448232
0.0448122
0.044817
0.0448408
0.04488
0.0449237
0.0449601
0.0449814
0.0449871
0.0449811
0.0449715
0.0445993
0.0445956
0.0445885
0.0445809
0.0445773
0.0445834
0.0446039
0.0446401
0.0446882
0.0447418
0.0447937
0.0448377
0.044869
0.0448844
0.0448838
0.0448729
0.0448619
0.0448686
0.0448778
0.0448804
0.0448778
0.0448687
0.044851
0.04484
0.0448458
0.0448717
0.0449113
0.044951
0.0449785
0.044989
0.0449846
0.0449742
0.0446097
0.0446064
0.0446002
0.0445942
0.0445925
0.0446004
0.0446225
0.0446597
0.0447073
0.0447592
0.0448076
0.044846
0.0448698
0.0448764
0.0448665
0.0448459
0.0448251
0.0448248
0.0448411
0.0448588
0.0448748
0.0448863
0.0448922
0.0448984
0.044907
0.0449297
0.0449716
0.0450197
0.0450579
0.0450761
0.0450746
0.0450639
0.044622
0.0446187
0.0446133
0.0446091
0.0446105
0.0446224
0.0446483
0.0446877
0.0447346
0.0447825
0.0448237
0.0448523
0.0448638
0.0448572
0.0448339
0.0448002
0.0447684
0.0447612
0.0447787
0.0448067
0.04484
0.0448752
0.0449117
0.0449507
0.0449927
0.0450421
0.0450973
0.0451626
0.0452205
0.0452534
0.0452578
0.0452482
0.0446321
0.044628
0.0446235
0.0446226
0.0446294
0.0446479
0.0446797
0.0447221
0.0447678
0.0448093
0.0448398
0.0448545
0.0448504
0.0448274
0.044788
0.0447396
0.044697
0.0446832
0.0446989
0.0447347
0.044783
0.0448417
0.0449105
0.04499
0.0450801
0.0451781
0.0452777
0.0453757
0.0454653
0.0455249
0.045542
0.045537
0.0446371
0.044632
0.0446288
0.0446333
0.0446486
0.0446757
0.0447148
0.0447603
0.0448033
0.0448358
0.0448527
0.0448507
0.0448286
0.0447875
0.0447307
0.044667
0.044614
0.0445946
0.0446092
0.0446503
0.0447115
0.044792
0.044893
0.0450159
0.0451608
0.0453218
0.0454886
0.0456476
0.045787
0.0458928
0.0459372
0.045945
0.0446308
0.0446251
0.0446254
0.0446393
0.0446671
0.0447053
0.0447514
0.0447986
0.0448363
0.0448575
0.0448586
0.0448383
0.0447972
0.0447373
0.0446634
0.0445854
0.0445235
0.0444999
0.0445146
0.0445605
0.0446331
0.0447331
0.0448641
0.0450293
0.04523
0.0454604
0.0457078
0.0459527
0.0461729
0.0463513
0.0464503
0.0464872
0.0446016
0.044599
0.0446088
0.0446389
0.0446837
0.0447345
0.0447868
0.0448328
0.0448623
0.0448699
0.044854
0.0448155
0.044756
0.0446788
0.0445896
0.0444999
0.0444317
0.0444058
0.0444219
0.0444727
0.0445556
0.0446725
0.0448292
0.0450316
0.0452831
0.0455807
0.0459135
0.0462609
0.0465948
0.0468815
0.0470775
0.0471735
0.0445238
0.0445365
0.0445723
0.044631
0.0446981
0.0447617
0.0448179
0.0448594
0.044878
0.0448709
0.0448388
0.0447839
0.0447085
0.0446171
0.0445163
0.0444185
0.044347
0.0443209
0.0443392
0.0443952
0.0444868
0.0446171
0.0447936
0.0450247
0.0453167
0.0456708
0.046082
0.0465364
0.0470093
0.0474589
0.0478087
0.0480346
0.0443432
0.0444182
0.0445211
0.0446248
0.0447146
0.0447893
0.0448449
0.0448781
0.0448846
0.0448641
0.0448182
0.0447501
0.0446629
0.0445614
0.0444532
0.044351
0.0442785
0.0442534
0.0442742
0.0443347
0.0444326
0.0445719
0.0447615
0.0450114
0.0453303
0.0457236
0.0461943
0.046742
0.0473615
0.048027
0.048655
0.0492047
0.0438569
0.0442491
0.0444946
0.0446468
0.0447496
0.044825
0.0448737
0.044896
0.0448906
0.0448586
0.044802
0.0447244
0.0446294
0.044522
0.0444095
0.0443052
0.0442327
0.0442087
0.0442315
0.0442947
0.044396
0.0445399
0.0447359
0.0449947
0.0453265
0.0457396
0.0462436
0.0468528
0.0475923
0.0484986
0.0496036
0.0508608
0.0428394
0.0440773
0.0445462
0.0446991
0.0447953
0.0448644
0.0449034
0.0449154
0.0449009
0.0448607
0.0447973
0.044714
0.0446146
0.044504
0.0443894
0.0442841
0.0442115
0.044188
0.0442115
0.0442757
0.0443779
0.044523
0.0447205
0.0449812
0.0453158
0.0457338
0.0462487
0.0468861
0.0477001
0.0488002
0.0504067
0.0526681
)
;

boundaryField
{
    movingWall
    {
        type            fixedFluxPressure;
        gradient        uniform 0;
        value           nonuniform List<scalar> 
32
(
0.0428394
0.0440773
0.0445462
0.0446991
0.0447953
0.0448644
0.0449034
0.0449154
0.0449009
0.0448607
0.0447973
0.044714
0.0446146
0.044504
0.0443894
0.0442841
0.0442115
0.044188
0.0442115
0.0442757
0.0443779
0.044523
0.0447205
0.0449812
0.0453158
0.0457338
0.0462487
0.0468861
0.0477001
0.0488002
0.0504067
0.0526681
)
;
    }
    fixedWalls
    {
        type            fixedFluxPressure;
        gradient        uniform 0;
        value           nonuniform List<scalar> 
64
(
0.0431948
0.0432006
0.0432112
0.0432239
0.043233
0.0432305
0.0432081
0.0431617
0.0430947
0.0430193
0.0429554
0.0429231
0.0429475
0.0430876
0.0434618
0.0440835
0.0444845
0.0445944
0.0446075
0.0445995
0.0445952
0.0445993
0.0446097
0.044622
0.0446321
0.0446371
0.0446308
0.0446016
0.0445238
0.0443432
0.0438569
0.0428394
0.0431136
0.0431175
0.0431255
0.0431372
0.0431512
0.043164
0.0431698
0.043161
0.0431304
0.0430742
0.042996
0.0429087
0.0428386
0.042818
0.0428825
0.0432009
0.0441577
0.0450489
0.0451444
0.0450436
0.0449715
0.0449742
0.0450639
0.0452482
0.045537
0.045945
0.0464872
0.0471735
0.0480346
0.0492047
0.0508608
0.0526681
)
;
    }
    floor
    {
        type            fixedFluxPressure;
        gradient        uniform 0;
        value           nonuniform List<scalar> 
32
(
0.0431948
0.0431919
0.0431883
0.0431859
0.0431857
0.0431884
0.0431951
0.0432087
0.0432339
0.0432776
0.0433468
0.0434413
0.0435383
0.0435963
0.043573
0.0434905
0.0433795
0.0432867
0.043221
0.0431775
0.0431496
0.0431322
0.0431218
0.0431159
0.0431124
0.0431101
0.0431086
0.0431079
0.0431084
0.04311
0.0431121
0.0431136
)
;
    }
    frontAndBack
    {
        type            empty;
    }
}


// ************************************************************************* //
