/*--------------------------------*- C++ -*----------------------------------*\
| =========                 |                                                 |
| \\      /  F ield         | OpenFOAM: The Open Source CFD Toolbox           |
|  \\    /   O peration     | Version:  2212                                  |
|   \\  /    A nd           | Website:  www.openfoam.com                      |
|    \\/     M anipulation  |                                                 |
\*---------------------------------------------------------------------------*/
FoamFile
{
    version     2.0;
    format      ascii;
    arch        "LSB;label=64;scalar=64";
    class       surfaceScalarField;
    location    "950";
    object      phi;
}
// * * * * * * * * * * * * * * * * * * * * * * * * * * * * * * * * * * * * * //

dimensions      [0 3 -1 0 0 0 0];

oriented        oriented;

internalField   nonuniform List<scalar> 
1984
(
-1.9915e-11
1.97333e-11
-9.49224e-09
9.47223e-09
-3.12619e-08
2.17699e-08
-6.18597e-08
3.05977e-08
-9.73823e-08
3.55224e-08
-1.3613e-07
3.87473e-08
-1.77832e-07
4.17022e-08
-2.21409e-07
4.3577e-08
-2.62847e-07
4.14387e-08
-2.93047e-07
3.01999e-08
-2.95281e-07
2.23387e-09
-2.44652e-07
-5.06293e-08
-1.27448e-07
-1.17204e-07
3.51054e-08
-1.62553e-07
1.64364e-07
-1.29259e-07
2.31699e-07
-6.7335e-08
2.4883e-07
-1.7131e-08
2.39997e-07
8.83302e-09
2.2012e-07
1.98776e-08
1.96396e-07
2.37238e-08
1.71852e-07
2.45433e-08
1.47848e-07
2.40048e-08
1.25256e-07
2.25915e-08
1.04528e-07
2.07275e-08
8.54611e-08
1.90673e-08
6.71549e-08
1.83061e-08
4.87495e-08
1.84055e-08
3.05238e-08
1.82258e-08
1.45139e-08
1.601e-08
3.64022e-09
1.08737e-08
-5.17896e-10
4.15809e-09
-5.17762e-10
-1.10337e-08
1.10533e-08
-5.19748e-08
5.04136e-08
-1.24921e-07
9.47157e-08
-2.22715e-07
1.28392e-07
-3.35789e-07
1.48596e-07
-4.57538e-07
1.60496e-07
-5.83582e-07
1.67746e-07
-7.07156e-07
1.67151e-07
-8.14174e-07
1.48457e-07
-8.78805e-07
9.4831e-08
-8.58322e-07
-1.82498e-08
-6.96057e-07
-2.12894e-07
-3.58528e-07
-4.54733e-07
1.05968e-07
-6.2705e-07
4.92076e-07
-5.15366e-07
7.05998e-07
-2.81257e-07
7.77637e-07
-8.87702e-08
7.66924e-07
1.95461e-08
7.17807e-07
6.89942e-08
6.51791e-07
8.97398e-08
5.79245e-07
9.70894e-08
5.05313e-07
9.79373e-08
4.33161e-07
9.47433e-08
3.64519e-07
8.93693e-08
2.99338e-07
8.42476e-08
2.36057e-07
8.15872e-08
1.73498e-07
8.09649e-08
1.13404e-07
7.83203e-08
6.12986e-08
6.81151e-08
2.39203e-08
4.82521e-08
4.54626e-09
2.35323e-08
4.02851e-09
-3.06045e-08
4.16581e-08
-1.18722e-07
1.38531e-07
-2.5891e-07
2.34904e-07
-4.37836e-07
3.07318e-07
-6.40029e-07
3.50789e-07
-8.52476e-07
3.72943e-07
-1.06351e-06
3.78782e-07
-1.25758e-06
3.61215e-07
-1.40936e-06
3.00243e-07
-1.47853e-06
1.63999e-07
-1.40247e-06
-9.4314e-08
-1.10793e-06
-5.07429e-07
-5.53883e-07
-1.00878e-06
1.92324e-07
-1.37326e-06
8.32752e-07
-1.15579e-06
1.2157e-06
-6.64204e-07
1.37144e-06
-2.44512e-07
1.38181e-06
9.17304e-09
1.31814e-06
1.32667e-07
1.21726e-06
1.9062e-07
1.09811e-06
2.16243e-07
9.70841e-07
2.25204e-07
8.41734e-07
2.2385e-07
7.14495e-07
2.16608e-07
5.90211e-07
2.08533e-07
4.68095e-07
2.03703e-07
3.48051e-07
2.0101e-07
2.33853e-07
1.92518e-07
1.34058e-07
1.67911e-07
5.8776e-08
1.23534e-07
1.42537e-08
6.80547e-08
1.82823e-08
-5.44747e-08
9.61329e-08
-1.99848e-07
2.83904e-07
-4.18518e-07
4.53575e-07
-6.86847e-07
5.75648e-07
-9.81242e-07
6.45183e-07
-1.28078e-06
6.72478e-07
-1.56495e-06
6.62955e-07
-1.80858e-06
6.04845e-07
-1.97617e-06
4.67833e-07
-2.01634e-06
2.04169e-07
-1.85585e-06
-2.54798e-07
-1.41932e-06
-9.4396e-07
-6.6862e-07
-1.75948e-06
3.01232e-07
-2.34311e-06
1.15546e-06
-2.01002e-06
1.71724e-06
-1.22598e-06
1.98546e-06
-5.12732e-07
2.04571e-06
-5.10827e-08
1.99003e-06
1.88344e-07
1.87069e-06
3.09966e-07
1.71481e-06
3.72118e-07
1.53797e-06
4.02046e-07
1.35005e-06
4.11769e-07
1.15744e-06
4.09223e-07
9.63511e-07
4.02459e-07
7.69827e-07
3.97387e-07
5.78685e-07
3.92151e-07
3.96354e-07
3.74849e-07
2.3448e-07
3.29784e-07
1.07637e-07
2.50377e-07
2.78474e-08
1.47845e-07
4.61297e-08
-7.67782e-08
1.72911e-07
-2.76558e-07
4.83684e-07
-5.70318e-07
7.47335e-07
-9.22916e-07
9.28246e-07
-1.3005e-06
1.02277e-06
-1.67267e-06
1.04464e-06
-2.00972e-06
1e-06
-2.27783e-06
8.72961e-07
-2.43367e-06
6.23667e-07
-2.41878e-06
1.89279e-07
-2.15974e-06
-5.13835e-07
-1.5881e-06
-1.5156e-06
-6.74328e-07
-2.67326e-06
4.38004e-07
-3.45544e-06
1.43849e-06
-3.01051e-06
2.16718e-06
-1.95466e-06
2.56285e-06
-9.08404e-07
2.69887e-06
-1.87107e-07
2.67796e-06
2.09257e-07
2.56301e-06
4.24908e-07
2.3882e-06
5.46928e-07
2.17374e-06
6.16513e-07
1.9329e-06
6.52609e-07
1.67501e-06
6.67108e-07
1.40662e-06
6.70849e-07
1.13283e-06
6.71176e-07
8.59533e-07
6.6545e-07
5.96402e-07
6.3798e-07
3.59163e-07
5.67023e-07
1.68575e-07
4.40966e-07
4.47979e-08
2.71622e-07
9.09277e-08
-8.9208e-08
2.62119e-07
-3.22961e-07
7.17437e-07
-6.68765e-07
1.09314e-06
-1.08387e-06
1.34335e-06
-1.52392e-06
1.46282e-06
-1.94771e-06
1.46842e-06
-2.31621e-06
1.36851e-06
-2.58852e-06
1.14527e-06
-2.71638e-06
7.51531e-07
-2.63781e-06
1.10705e-07
-2.28612e-06
-8.65527e-07
-1.60039e-06
-2.20132e-06
-5.67319e-07
-3.70633e-06
6.07015e-07
-4.62978e-06
1.68273e-06
-4.08623e-06
2.54079e-06
-2.81272e-06
3.05487e-06
-1.42248e-06
3.27735e-06
-4.09588e-07
3.31214e-06
1.74466e-07
3.22387e-06
5.13177e-07
3.05112e-06
7.19682e-07
2.81667e-06
8.50959e-07
2.53595e-06
9.33334e-07
2.22074e-06
9.82318e-07
1.88088e-06
1.01071e-06
1.5256e-06
1.02646e-06
1.16534e-06
1.0257e-06
8.14628e-07
9.88696e-07
4.94954e-07
8.86697e-07
2.34758e-07
7.01162e-07
6.31826e-08
4.43197e-07
1.5411e-07
-8.45166e-08
3.46636e-07
-3.15828e-07
9.48748e-07
-6.71854e-07
1.44916e-06
-1.11175e-06
1.78325e-06
-1.58386e-06
1.93493e-06
-2.03569e-06
1.92025e-06
-2.41835e-06
1.75118e-06
-2.68464e-06
1.41156e-06
-2.78405e-06
8.50936e-07
-2.65224e-06
-2.11044e-08
-2.22867e-06
-1.28909e-06
-1.45603e-06
-2.97396e-06
-3.56998e-07
-4.80536e-06
8.11533e-07
-5.79831e-06
1.90381e-06
-5.1785e-06
2.83585e-06
-3.74476e-06
3.43587e-06
-2.0225e-06
3.73271e-06
-7.06433e-07
3.82702e-06
8.01607e-08
3.77764e-06
5.62556e-07
3.62362e-06
8.73702e-07
3.38693e-06
1.08765e-06
3.08273e-06
1.23753e-06
2.72392e-06
1.34113e-06
2.32292e-06
1.41172e-06
1.89299e-06
1.45639e-06
1.44988e-06
1.46881e-06
1.01465e-06
1.42392e-06
6.16605e-07
1.28474e-06
2.92505e-07
1.02526e-06
7.8816e-08
6.56886e-07
2.32926e-07
-6.05983e-08
4.07234e-07
-2.44695e-07
1.13284e-06
-5.5491e-07
1.75938e-06
-9.66984e-07
2.19532e-06
-1.43061e-06
2.39855e-06
-1.88419e-06
2.37384e-06
-2.26791e-06
2.13489e-06
-2.5267e-06
1.67035e-06
-2.60554e-06
9.29775e-07
-2.44631e-06
-1.80336e-07
-1.97573e-06
-1.75967e-06
-1.14712e-06
-3.80257e-06
-5.20778e-08
-5.90041e-06
1.0505e-06
-6.90088e-06
2.10834e-06
-6.23635e-06
3.05236e-06
-4.68878e-06
3.69398e-06
-2.66412e-06
4.03504e-06
-1.04749e-06
4.1721e-06
-5.6907e-08
4.15894e-06
5.75721e-07
4.0302e-06
1.00244e-06
3.80346e-06
1.31439e-06
3.49076e-06
1.55023e-06
3.10396e-06
1.72793e-06
2.65675e-06
1.85893e-06
2.166e-06
1.94714e-06
1.6535e-06
1.98131e-06
1.14881e-06
1.92861e-06
6.90803e-07
1.74275e-06
3.23651e-07
1.39241e-06
8.60751e-08
8.94462e-07
3.19001e-07
-2.2304e-08
4.29538e-07
-1.17235e-07
1.22778e-06
-3.17981e-07
1.96013e-06
-6.34243e-07
2.51159e-06
-1.03299e-06
2.7973e-06
-1.45273e-06
2.79358e-06
-1.82399e-06
2.50615e-06
-2.0809e-06
1.92726e-06
-2.15978e-06
1.00865e-06
-1.99174e-06
-3.48369e-07
-1.491e-06
-2.26041e-06
-6.49262e-07
-4.64431e-06
3.49415e-07
-6.89908e-06
1.30966e-06
-7.86112e-06
2.27079e-06
-7.19748e-06
3.15843e-06
-5.57642e-06
3.79692e-06
-3.30261e-06
4.15059e-06
-1.40115e-06
4.30445e-06
-2.10775e-07
4.3141e-06
5.66074e-07
4.20746e-06
1.10908e-06
3.99567e-06
1.52617e-06
3.68517e-06
1.86073e-06
3.28463e-06
2.12847e-06
2.80766e-06
2.33589e-06
2.27459e-06
2.48021e-06
1.71466e-06
2.54124e-06
1.16818e-06
2.47509e-06
6.84388e-07
2.22654e-06
3.11065e-07
1.76574e-06
8.00033e-08
1.12552e-06
3.99005e-07
2.07574e-08
4.08781e-07
3.84805e-08
1.21005e-06
2.08896e-10
1.9984e-06
-1.37832e-07
2.64963e-06
-3.8471e-07
3.04418e-06
-7.04762e-07
3.11363e-06
-1.03061e-06
2.832e-06
-1.28163e-06
2.17828e-06
-1.37436e-06
1.10137e-06
-1.21581e-06
-5.06917e-07
-7.11184e-07
-2.76504e-06
4.78719e-08
-5.40336e-06
8.25913e-07
-7.67712e-06
1.56514e-06
-8.60035e-06
2.31723e-06
-7.94957e-06
3.05786e-06
-6.31704e-06
3.64911e-06
-3.89387e-06
4.0003e-06
-1.75234e-06
4.15777e-06
-3.68242e-07
4.1783e-06
5.45542e-07
4.0898e-06
1.19759e-06
3.89593e-06
1.72004e-06
3.59591e-06
2.16075e-06
3.19391e-06
2.53048e-06
2.70346e-06
2.82634e-06
2.15003e-06
3.03365e-06
1.57343e-06
3.11784e-06
1.02745e-06
3.02107e-06
5.69915e-07
2.68407e-06
2.42985e-07
2.09267e-06
5.80137e-08
1.3105e-06
4.57018e-07
5.78658e-08
3.50915e-07
1.86197e-07
1.08172e-06
3.30049e-07
1.85455e-06
4.26464e-07
2.55321e-06
4.2474e-07
3.0459e-06
3.14365e-07
3.224e-06
1.31614e-07
3.01475e-06
-5.11367e-08
2.36103e-06
-1.26703e-07
1.17694e-06
1.83384e-08
-6.51959e-07
3.91212e-07
-3.13791e-06
8.82448e-07
-5.8946e-06
1.33586e-06
-8.13054e-06
1.71819e-06
-8.98268e-06
2.09593e-06
-8.32731e-06
2.56045e-06
-6.78155e-06
3.05135e-06
-4.38477e-06
3.40336e-06
-2.10436e-06
3.58022e-06
-5.45102e-07
3.62488e-06
5.00882e-07
3.56744e-06
1.25503e-06
3.40398e-06
1.88349e-06
3.12673e-06
2.438e-06
2.73554e-06
2.92167e-06
2.24889e-06
3.31299e-06
1.70441e-06
3.57813e-06
1.15899e-06
3.66326e-06
6.80737e-07
3.49933e-06
3.26909e-07
3.0379e-06
1.1561e-07
2.30397e-06
2.09725e-08
1.40513e-06
4.77991e-07
8.10814e-08
2.69833e-07
2.9426e-07
8.68542e-07
5.96923e-07
1.55188e-06
9.2271e-07
2.22742e-06
1.20147e-06
2.76715e-06
1.38598e-06
3.03949e-06
1.46947e-06
2.93125e-06
1.48617e-06
2.34434e-06
1.4907e-06
1.17241e-06
1.55565e-06
-7.16908e-07
1.69592e-06
-3.27818e-06
1.80505e-06
-6.00373e-06
1.764e-06
-8.08949e-06
1.5501e-06
-8.76878e-06
1.32881e-06
-8.10603e-06
1.34859e-06
-6.80133e-06
1.66047e-06
-4.69665e-06
2.02687e-06
-2.47076e-06
2.28314e-06
-8.01372e-07
2.40636e-06
3.77666e-07
2.41901e-06
1.24237e-06
2.31354e-06
1.98897e-06
2.08219e-06
2.66935e-06
1.71738e-06
3.28647e-06
1.26278e-06
3.76759e-06
7.89289e-07
4.05162e-06
3.78305e-07
4.07425e-06
9.44291e-08
3.7832e-06
-4.17676e-08
3.1741e-06
-6.14639e-08
2.32366e-06
-2.71946e-08
1.37086e-06
4.50796e-07
8.51076e-08
1.84726e-07
3.33485e-07
6.20165e-07
7.28682e-07
1.15669e-06
1.21918e-06
1.73692e-06
1.7315e-06
2.25483e-06
2.1953e-06
2.57569e-06
2.5654e-06
2.56115e-06
2.83072e-06
2.07902e-06
3.00285e-06
1.00028e-06
3.07349e-06
-7.87552e-07
2.94616e-06
-3.15084e-06
2.52029e-06
-5.57786e-06
1.72279e-06
-7.29198e-06
5.95508e-07
-7.6415e-06
-4.56577e-07
-7.05394e-06
-1.03708e-06
-6.22083e-06
-1.04227e-06
-4.69146e-06
-7.05983e-07
-2.80705e-06
-2.59881e-07
-1.24747e-06
3.79617e-08
7.98239e-08
1.47755e-07
1.13258e-06
1.34076e-07
2.00265e-06
-7.89212e-09
2.81132e-06
-2.46172e-07
3.52475e-06
-5.08604e-07
4.03002e-06
-7.07535e-07
4.25055e-06
-7.75102e-07
4.14181e-06
-6.91593e-07
3.69969e-06
-4.95955e-07
2.97846e-06
-2.65217e-07
2.09292e-06
-7.90395e-08
1.18469e-06
3.71757e-07
6.91571e-08
1.15569e-07
2.90533e-07
3.98789e-07
6.76947e-07
7.70271e-07
1.20768e-06
1.20619e-06
1.82769e-06
1.63482e-06
2.46559e-06
1.93779e-06
3.05728e-06
1.96947e-06
3.55566e-06
1.58063e-06
3.90738e-06
6.4856e-07
3.95005e-06
-8.30221e-07
3.43522e-06
-2.63601e-06
2.24028e-06
-4.38292e-06
2.95114e-07
-5.34681e-06
-1.96698e-06
-5.37941e-06
-3.90661e-06
-5.11431e-06
-5.19637e-06
-4.93108e-06
-5.70173e-06
-4.18609e-06
-5.57287e-06
-2.93591e-06
-5.11229e-06
-1.70805e-06
-4.57935e-06
-4.53123e-07
-4.14732e-06
7.00554e-07
-3.83295e-06
1.68828e-06
-3.57707e-06
2.55544e-06
-3.32445e-06
3.27213e-06
-3.02454e-06
3.7301e-06
-2.63076e-06
3.85678e-06
-2.12651e-06
3.63756e-06
-1.54365e-06
3.11683e-06
-9.56113e-07
2.39093e-06
-4.55691e-07
1.5925e-06
-1.21952e-07
8.50947e-07
2.49805e-07
4.15275e-08
7.40412e-08
1.87496e-07
2.52821e-07
4.66691e-07
4.91075e-07
8.89835e-07
7.83046e-07
1.43756e-06
1.0871e-06
2.064e-06
1.31134e-06
2.71066e-06
1.32281e-06
3.28666e-06
1.00462e-06
3.56531e-06
3.69914e-07
3.17844e-06
-4.4335e-07
1.79735e-06
-1.25492e-06
-7.27781e-07
-1.8578e-06
-3.96655e-06
-2.10804e-06
-7.13377e-06
-2.2122e-06
-9.83467e-06
-2.41341e-06
-1.1936e-05
-2.82971e-06
-1.31219e-05
-3.00019e-06
-1.33694e-05
-2.68844e-06
-1.29048e-05
-2.17266e-06
-1.19278e-05
-1.4301e-06
-1.07387e-05
-4.88616e-07
-9.49335e-06
4.42975e-07
-8.20833e-06
1.27042e-06
-6.91408e-06
1.97787e-06
-5.63677e-06
2.4528e-06
-4.39531e-06
2.61531e-06
-3.19905e-06
2.4413e-06
-2.11155e-06
2.02933e-06
-1.20295e-06
1.48232e-06
-5.33464e-07
9.2302e-07
-1.34055e-07
4.51538e-07
1.1575e-07
-1.55308e-08
8.95719e-08
-5.25619e-08
2.89852e-07
-9.54396e-08
5.33953e-07
-1.26291e-07
8.13897e-07
-1.44334e-07
1.10515e-06
-1.91165e-07
1.35817e-06
-3.77618e-07
1.50926e-06
-8.98761e-07
1.52577e-06
-1.98117e-06
1.45232e-06
-3.8122e-06
1.38768e-06
-6.40719e-06
1.34007e-06
-9.53133e-06
1.26635e-06
-1.27476e-05
1.10826e-06
-1.57941e-05
8.34296e-07
-1.85797e-05
3.72182e-07
-2.1003e-05
-4.06426e-07
-2.25788e-05
-1.42438e-06
-2.31052e-05
-2.16203e-06
-2.26996e-05
-2.57826e-06
-2.14409e-05
-2.68882e-06
-1.93867e-05
-2.5428e-06
-1.67555e-05
-2.18826e-06
-1.38056e-05
-1.67949e-06
-1.07359e-05
-1.09181e-06
-7.78041e-06
-5.0268e-07
-5.18662e-06
2.15222e-08
-3.10555e-06
3.60237e-07
-1.62483e-06
5.48609e-07
-7.0561e-07
5.63103e-07
-2.2494e-07
4.4235e-07
-3.3603e-08
2.60201e-07
8.21472e-08
-7.73232e-08
1.66895e-07
-3.05334e-07
5.17863e-07
-6.85998e-07
9.14617e-07
-1.21013e-06
1.33803e-06
-1.86882e-06
1.76384e-06
-2.67781e-06
2.16717e-06
-3.69801e-06
2.52946e-06
-5.02076e-06
2.84852e-06
-6.70676e-06
3.13832e-06
-8.72202e-06
3.40294e-06
-1.09975e-05
3.61551e-06
-1.34622e-05
3.73106e-06
-1.60489e-05
3.695e-06
-1.86559e-05
3.44132e-06
-2.11562e-05
2.87244e-06
-2.33944e-05
1.83182e-06
-2.48022e-05
-1.66078e-08
-2.53658e-05
-1.59848e-06
-2.51782e-05
-2.7658e-06
-2.42651e-05
-3.60198e-06
-2.26331e-05
-4.17476e-06
-2.03088e-05
-4.5126e-06
-1.73778e-05
-4.61041e-06
-1.40186e-05
-4.45106e-06
-1.04975e-05
-4.0238e-06
-7.13419e-06
-3.34176e-06
-4.30923e-06
-2.46472e-06
-2.21269e-06
-1.54793e-06
-8.98776e-07
-7.5081e-07
-2.46403e-07
-2.10024e-07
-2.15121e-08
3.53103e-08
6.06351e-08
-6.11234e-08
2.28019e-07
-2.49179e-07
7.05918e-07
-5.74994e-07
1.24043e-06
-1.03959e-06
1.80262e-06
-1.63734e-06
2.3616e-06
-2.36467e-06
2.89449e-06
-3.22735e-06
3.39214e-06
-4.23666e-06
3.85782e-06
-5.39577e-06
4.29744e-06
-6.69599e-06
4.70316e-06
-8.12453e-06
5.04405e-06
-9.66699e-06
5.27352e-06
-1.13054e-05
5.33345e-06
-1.3011e-05
5.14687e-06
-1.47398e-05
4.60123e-06
-1.64195e-05
3.51153e-06
-1.77644e-05
1.32835e-06
-1.84324e-05
-9.30511e-07
-1.86452e-05
-2.55304e-06
-1.84635e-05
-3.78362e-06
-1.78606e-05
-4.77765e-06
-1.67927e-05
-5.58053e-06
-1.52451e-05
-6.15807e-06
-1.32585e-05
-6.43759e-06
-1.09317e-05
-6.35063e-06
-8.41276e-06
-5.86069e-06
-5.89115e-06
-4.98633e-06
-3.62138e-06
-3.81769e-06
-1.84573e-06
-2.52646e-06
-7.01342e-07
-1.35441e-06
-1.448e-07
-5.21232e-07
-8.41654e-08
-2.46404e-08
2.52659e-07
-1.12411e-07
7.93688e-07
-2.83748e-07
1.41177e-06
-5.53976e-07
2.07285e-06
-9.28809e-07
2.73643e-06
-1.404e-06
3.36968e-06
-1.96921e-06
3.95736e-06
-2.61163e-06
4.50024e-06
-3.31721e-06
5.00302e-06
-4.07289e-06
5.45884e-06
-4.86967e-06
5.84083e-06
-5.70277e-06
6.10662e-06
-6.56925e-06
6.19992e-06
-7.46577e-06
6.0434e-06
-8.38683e-06
5.52229e-06
-9.33068e-06
4.45538e-06
-1.01931e-05
2.19074e-06
-1.07858e-05
-3.37765e-07
-1.12089e-05
-2.12996e-06
-1.15412e-05
-3.45137e-06
-1.17316e-05
-4.58721e-06
-1.16869e-05
-5.62525e-06
-1.13066e-05
-6.53836e-06
-1.05222e-05
-7.22197e-06
-9.31338e-06
-7.55946e-06
-7.7249e-06
-7.44917e-06
-5.87659e-06
-6.83463e-06
-3.96295e-06
-5.73134e-06
-2.23355e-06
-4.25587e-06
-9.38101e-07
-2.64986e-06
-2.11055e-07
-1.24828e-06
-2.9522e-07
2.78558e-09
2.49874e-07
-5.51132e-09
8.01985e-07
-4.67653e-08
1.45302e-06
-1.43416e-07
2.1695e-06
-3.11239e-07
2.90425e-06
-5.52725e-07
3.61117e-06
-8.55611e-07
4.26024e-06
-1.19677e-06
4.8414e-06
-1.55229e-06
5.35854e-06
-1.90231e-06
5.80885e-06
-2.23445e-06
6.17297e-06
-2.54485e-06
6.41702e-06
-2.83698e-06
6.49205e-06
-3.11948e-06
6.32589e-06
-3.40421e-06
5.80702e-06
-3.68922e-06
4.74038e-06
-4.02753e-06
2.52905e-06
-4.44489e-06
7.95923e-08
-4.8961e-06
-1.67874e-06
-5.44852e-06
-2.89894e-06
-6.05747e-06
-3.97826e-06
-6.64302e-06
-5.0397e-06
-7.06853e-06
-6.11285e-06
-7.2073e-06
-7.0832e-06
-6.95371e-06
-7.81305e-06
-6.25777e-06
-8.14511e-06
-5.15078e-06
-7.94163e-06
-3.75655e-06
-7.12556e-06
-2.29022e-06
-5.72221e-06
-1.03624e-06
-3.90384e-06
-2.49356e-07
-2.03516e-06
-5.44576e-07
1.63533e-08
2.3352e-07
5.15199e-08
7.66818e-07
8.82459e-08
1.4163e-06
1.05219e-07
2.15253e-06
8.40221e-08
2.92545e-06
1.76468e-08
3.67754e-06
-8.36357e-08
4.36152e-06
-1.95878e-07
4.95364e-06
-2.90233e-07
5.4529e-06
-3.42673e-07
5.8613e-06
-3.40156e-07
6.17045e-06
-2.81878e-07
6.35875e-06
-1.78569e-07
6.38875e-06
-5.15124e-08
6.19883e-06
7.75032e-08
5.67801e-06
1.89455e-07
4.62843e-06
2.42571e-07
2.47593e-06
-7.50245e-09
3.29666e-07
-4.977e-07
-1.18855e-06
-1.07591e-06
-2.32074e-06
-1.769e-06
-3.28518e-06
-2.56886e-06
-4.23984e-06
-3.37658e-06
-5.30513e-06
-4.07145e-06
-6.38834e-06
-4.49796e-06
-7.38653e-06
-4.52792e-06
-8.11514e-06
-4.10496e-06
-8.36459e-06
-3.26884e-06
-7.96168e-06
-2.16623e-06
-6.82482e-06
-1.06014e-06
-5.00993e-06
-2.72685e-07
-2.82262e-06
-8.17261e-07
1.94492e-08
2.14071e-07
6.89001e-08
7.17368e-07
1.37357e-07
1.34784e-06
2.09686e-07
2.0802e-06
2.72388e-07
2.86275e-06
3.21008e-07
3.62892e-06
3.6466e-07
4.31787e-06
4.25021e-07
4.89328e-06
5.29388e-07
5.34853e-06
6.99803e-07
5.69088e-06
9.45688e-07
5.92457e-06
1.26259e-06
6.04185e-06
1.6335e-06
6.01783e-06
2.031e-06
5.80133e-06
2.41579e-06
5.29322e-06
2.7385e-06
4.30572e-06
2.8386e-06
2.37583e-06
2.63302e-06
5.35241e-07
2.21179e-06
-7.67315e-07
1.66639e-06
-1.77533e-06
1.02299e-06
-2.64178e-06
2.6856e-07
-3.4854e-06
-5.91046e-07
-4.44552e-06
-1.49432e-06
-5.48507e-06
-2.29719e-06
-6.58366e-06
-2.83705e-06
-7.57528e-06
-2.97162e-06
-8.23002e-06
-2.65337e-06
-8.27993e-06
-1.94114e-06
-7.53705e-06
-1.03956e-06
-5.91151e-06
-2.88615e-07
-3.57356e-06
-1.10588e-06
1.48749e-08
1.99196e-07
5.60805e-08
6.76162e-07
1.20643e-07
1.28328e-06
2.03912e-07
1.99693e-06
3.02485e-07
2.76417e-06
4.18646e-07
3.51276e-06
5.63834e-07
4.17268e-06
7.56497e-07
4.70062e-06
1.01601e-06
5.08902e-06
1.35495e-06
5.35194e-06
1.77426e-06
5.50526e-06
2.26266e-06
5.55345e-06
2.7977e-06
5.48279e-06
3.34622e-06
5.25281e-06
3.86038e-06
4.77906e-06
4.2661e-06
3.9e-06
4.39244e-06
2.24949e-06
4.219e-06
7.08688e-07
3.83484e-06
-3.83159e-07
3.31516e-06
-1.25565e-06
2.70866e-06
-2.03527e-06
2.04555e-06
-2.8223e-06
1.28961e-06
-3.68959e-06
4.40653e-07
-4.63611e-06
-4.60735e-07
-5.68227e-06
-1.30217e-06
-6.73384e-06
-1.85434e-06
-7.67786e-06
-1.98803e-06
-8.14625e-06
-1.66097e-06
-7.8641e-06
-9.95021e-07
-6.57746e-06
-3.05398e-07
-4.26318e-06
-1.41127e-06
3.53303e-09
1.95663e-07
1.6583e-08
6.63112e-07
4.81203e-08
1.25174e-06
1.10689e-07
1.93436e-06
2.14932e-07
2.65993e-06
3.70352e-07
3.35734e-06
5.90172e-07
3.95286e-06
8.87324e-07
4.40347e-06
1.26883e-06
4.70751e-06
1.73353e-06
4.88723e-06
2.27222e-06
4.96658e-06
2.86796e-06
4.9577e-06
3.49597e-06
4.85478e-06
4.12184e-06
4.62694e-06
4.69494e-06
4.20597e-06
5.13362e-06
3.46132e-06
5.28806e-06
2.09505e-06
5.16719e-06
8.29556e-07
4.85183e-06
-6.77989e-08
4.40178e-06
-8.05598e-07
3.85394e-06
-1.48744e-06
3.23333e-06
-2.20169e-06
2.5426e-06
-2.99886e-06
1.7924e-06
-3.8859e-06
9.58588e-07
-4.84846e-06
6.24809e-08
-5.83773e-06
-7.73456e-07
-6.84192e-06
-1.29119e-06
-7.62851e-06
-1.33728e-06
-7.81801e-06
-9.31738e-07
-6.983e-06
-3.28628e-07
-4.86629e-06
-1.7399e-06
-1.60507e-08
2.11713e-07
-5.10226e-08
6.98084e-07
-7.61718e-08
1.27689e-06
-5.41111e-08
1.9123e-06
4.35627e-08
2.56226e-06
2.28901e-07
3.172e-06
5.11117e-07
3.67065e-06
8.94908e-07
4.01968e-06
1.37184e-06
4.23058e-06
1.92675e-06
4.33233e-06
2.54227e-06
4.35105e-06
3.19883e-06
4.30114e-06
3.87269e-06
4.18091e-06
4.53221e-06
3.96742e-06
5.13011e-06
3.60807e-06
5.59053e-06
3.0009e-06
5.78889e-06
1.89669e-06
5.74952e-06
8.6893e-07
5.53418e-06
1.47543e-07
5.18408e-06
-4.55498e-07
4.73271e-06
-1.03607e-06
4.19273e-06
-1.66171e-06
3.56559e-06
-2.37172e-06
2.85357e-06
-3.17388e-06
2.05791e-06
-4.05281e-06
1.19616e-06
-4.97597e-06
2.68449e-07
-5.91421e-06
-5.44796e-07
-6.81527e-06
-9.57702e-07
-7.4051e-06
-8.41398e-07
-7.09931e-06
-3.58549e-07
-5.34914e-06
-2.09845e-06
-4.93708e-08
2.61084e-07
-1.53895e-07
8.02608e-07
-2.49347e-07
1.37234e-06
-2.70956e-07
1.93391e-06
-1.77408e-07
2.46871e-06
4.36535e-08
2.95094e-06
3.88144e-07
3.32616e-06
8.4739e-07
3.56043e-06
1.39787e-06
3.6801e-06
2.0144e-06
3.7158e-06
2.67613e-06
3.68933e-06
3.36445e-06
3.61282e-06
4.05942e-06
3.48595e-06
4.73485e-06
3.292e-06
5.35085e-06
2.99207e-06
5.84317e-06
2.50858e-06
6.10409e-06
1.63577e-06
6.15385e-06
8.19172e-07
6.04853e-06
2.52853e-07
5.81927e-06
-2.26238e-07
5.48593e-06
-7.02724e-07
5.04897e-06
-1.22476e-06
4.50087e-06
-1.82361e-06
3.8358e-06
-2.50882e-06
3.05538e-06
-3.27238e-06
2.17521e-06
-4.0958e-06
1.22272e-06
-4.96172e-06
2.55391e-07
-5.84794e-06
-4.9491e-07
-6.6548e-06
-7.03748e-07
-6.89047e-06
-3.87312e-07
-5.66558e-06
-2.48576e-06
-1.06909e-07
3.67993e-07
-3.01343e-07
9.97043e-07
-4.62281e-07
1.53328e-06
-5.05782e-07
1.97741e-06
-3.94388e-07
2.35731e-06
-1.25392e-07
2.68195e-06
2.88464e-07
2.9123e-06
8.18298e-07
3.0306e-06
1.42693e-06
3.07147e-06
2.08719e-06
3.05554e-06
2.77983e-06
2.99669e-06
3.48959e-06
2.90306e-06
4.2011e-06
2.77444e-06
4.89394e-06
2.59916e-06
5.53603e-06
2.34997e-06
6.07378e-06
1.97083e-06
6.40616e-06
1.30339e-06
6.54337e-06
6.81968e-07
6.5407e-06
2.55521e-07
6.42312e-06
-1.08659e-07
6.19835e-06
-4.77954e-07
5.85889e-06
-8.85298e-07
5.39053e-06
-1.35524e-06
4.78012e-06
-1.89842e-06
4.02283e-06
-2.51509e-06
3.12891e-06
-3.20188e-06
2.12688e-06
-3.95969e-06
1.07286e-06
-4.79392e-06
9.07771e-08
-5.67272e-06
-4.83768e-07
-6.31592e-06
-3.95682e-07
-5.75366e-06
-2.88144e-06
-1.98848e-07
5.6684e-07
-4.87916e-07
1.28611e-06
-6.77768e-07
1.72313e-06
-6.93121e-07
1.99276e-06
-5.21262e-07
2.18545e-06
-1.75196e-07
2.33588e-06
3.21661e-07
2.41544e-06
9.20603e-07
2.43165e-06
1.58115e-06
2.41091e-06
2.28074e-06
2.35596e-06
3.00346e-06
2.27397e-06
3.7369e-06
2.16963e-06
4.46852e-06
2.04282e-06
5.18137e-06
1.8863e-06
5.84871e-06
1.68263e-06
6.4241e-06
1.39545e-06
6.80948e-06
9.18005e-07
7.00907e-06
4.82372e-07
7.07902e-06
1.85572e-07
7.03961e-06
-6.92455e-08
6.89168e-06
-3.30029e-07
6.62567e-06
-6.19283e-07
6.22529e-06
-9.54864e-07
5.67313e-06
-1.34626e-06
4.95686e-06
-1.79882e-06
4.07588e-06
-2.3209e-06
3.04736e-06
-2.93117e-06
1.91466e-06
-3.66122e-06
7.74352e-07
-4.53241e-06
-1.27571e-07
-5.414e-06
-3.52418e-07
-5.52882e-06
-3.23386e-06
-3.19739e-07
8.86579e-07
-6.64296e-07
1.63067e-06
-7.88905e-07
1.84774e-06
-6.85082e-07
1.88894e-06
-3.84955e-07
1.88533e-06
8.588e-08
1.86504e-06
6.81695e-07
1.81963e-06
1.34724e-06
1.76611e-06
2.05831e-06
1.69983e-06
2.79537e-06
1.6189e-06
3.54372e-06
1.52561e-06
4.2914e-06
1.42194e-06
5.02626e-06
1.30796e-06
5.73269e-06
1.17987e-06
6.38756e-06
1.02776e-06
6.95121e-06
8.31801e-07
7.33581e-06
5.33406e-07
7.54775e-06
2.70426e-07
7.64196e-06
9.13656e-08
7.63541e-06
-6.26961e-08
7.52687e-06
-2.2149e-07
7.308e-06
-4.00411e-07
6.96348e-06
-6.10346e-07
6.47492e-06
-8.57695e-07
5.82474e-06
-1.14865e-06
5.00016e-06
-1.49632e-06
3.99841e-06
-1.92942e-06
2.83708e-06
-2.49988e-06
1.57972e-06
-3.27506e-06
4.07774e-07
-4.24205e-06
-2.15317e-07
-4.90573e-06
-3.44918e-06
-4.42617e-07
1.3292e-06
-6.73881e-07
1.86193e-06
-5.34283e-07
1.70814e-06
-1.6277e-07
1.51743e-06
3.55525e-07
1.36703e-06
9.75476e-07
1.24509e-06
1.65684e-06
1.13827e-06
2.37557e-06
1.04739e-06
3.11203e-06
9.63368e-07
3.84963e-06
8.81305e-07
4.57498e-06
8.00259e-07
5.27683e-06
7.20098e-07
5.94447e-06
6.40316e-07
6.56558e-06
5.58761e-07
7.1231e-06
4.70248e-07
7.5887e-06
3.662e-07
7.89858e-06
2.2352e-07
8.06589e-06
1.03123e-07
8.13693e-06
2.03191e-08
8.12564e-06
-5.14066e-08
8.03104e-06
-1.26892e-07
7.84571e-06
-2.15072e-07
7.5561e-06
-3.20743e-07
7.14531e-06
-4.46903e-07
6.59446e-06
-5.97798e-07
5.88269e-06
-7.84544e-07
4.987e-06
-1.03373e-06
3.88613e-06
-1.39902e-06
2.58161e-06
-1.97054e-06
1.18306e-06
-2.8435e-06
1.13764e-07
-3.83643e-06
-3.33542e-06
-3.78374e-07
1.70757e-06
1.56031e-08
1.46796e-06
7.29529e-07
9.94215e-07
1.45362e-06
7.93341e-07
2.17189e-06
6.4876e-07
2.88704e-06
5.29946e-07
3.58686e-06
4.3844e-07
4.26481e-06
3.69436e-07
4.91369e-06
3.14485e-07
5.52625e-06
2.68747e-07
6.09669e-06
2.29824e-07
6.62067e-06
1.96113e-07
7.09471e-06
1.66276e-07
7.51472e-06
1.38756e-07
7.87367e-06
1.1129e-07
8.1584e-06
8.14723e-08
8.33697e-06
4.49498e-08
8.42466e-06
1.54305e-08
8.45037e-06
-5.38399e-09
8.42289e-06
-2.39337e-08
8.34097e-06
-4.49652e-08
8.1971e-06
-7.12014e-08
7.98008e-06
-1.03728e-07
7.67647e-06
-1.43292e-07
7.27025e-06
-1.91572e-07
6.73965e-06
-2.53946e-07
6.0508e-06
-3.44877e-07
5.14937e-06
-4.97585e-07
3.9571e-06
-7.7827e-07
2.41203e-06
-1.29843e-06
7.43601e-07
-2.16801e-06
-2.59182e-06
1.70757e-06
3.17553e-06
4.16974e-06
4.96308e-06
5.61184e-06
6.14179e-06
6.58023e-06
6.94966e-06
7.26415e-06
7.53289e-06
7.76272e-06
7.95883e-06
8.12511e-06
8.26386e-06
8.37515e-06
8.45663e-06
8.50158e-06
8.51701e-06
8.51162e-06
8.48769e-06
8.44272e-06
8.37152e-06
8.26779e-06
8.1245e-06
7.93293e-06
7.67898e-06
7.33411e-06
6.83652e-06
6.05825e-06
4.75982e-06
2.59182e-06
)
;

boundaryField
{
    movingWall
    {
        type            calculated;
        value           uniform 0;
    }
    fixedWalls
    {
        type            calculated;
        value           uniform 0;
    }
    floor
    {
        type            calculated;
        value           uniform 0;
    }
    frontAndBack
    {
        type            empty;
        value           nonuniform List<scalar> 0();
    }
}


// ************************************************************************* //
