/*--------------------------------*- C++ -*----------------------------------*\
| =========                 |                                                 |
| \\      /  F ield         | OpenFOAM: The Open Source CFD Toolbox           |
|  \\    /   O peration     | Version:  2212                                  |
|   \\  /    A nd           | Website:  www.openfoam.com                      |
|    \\/     M anipulation  |                                                 |
\*---------------------------------------------------------------------------*/
FoamFile
{
    version     2.0;
    format      ascii;
    arch        "LSB;label=64;scalar=64";
    class       volScalarField;
    location    "950";
    object      T;
}
// * * * * * * * * * * * * * * * * * * * * * * * * * * * * * * * * * * * * * //

dimensions      [0 0 0 1 0 0 0];

internalField   nonuniform List<scalar> 
1024
(
309.995
309.995
309.994
309.994
309.993
309.992
309.991
309.989
309.988
309.987
309.985
309.983
309.981
309.98
309.981
309.983
309.985
309.987
309.988
309.989
309.99
309.991
309.992
309.992
309.993
309.994
309.994
309.995
309.995
309.996
309.996
309.996
309.984
309.984
309.983
309.981
309.978
309.975
309.971
309.967
309.962
309.958
309.952
309.946
309.94
309.937
309.941
309.948
309.954
309.959
309.963
309.966
309.969
309.971
309.973
309.975
309.978
309.98
309.982
309.984
309.985
309.986
309.987
309.987
309.972
309.972
309.97
309.967
309.962
309.955
309.949
309.941
309.934
309.925
309.916
309.906
309.897
309.892
309.898
309.909
309.92
309.928
309.934
309.94
309.944
309.949
309.953
309.956
309.96
309.964
309.968
309.972
309.974
309.976
309.977
309.977
309.96
309.959
309.956
309.951
309.944
309.935
309.925
309.914
309.903
309.892
309.879
309.866
309.856
309.849
309.856
309.869
309.882
309.894
309.903
309.911
309.917
309.923
309.929
309.935
309.941
309.947
309.952
309.958
309.962
309.964
309.966
309.966
309.947
309.946
309.942
309.935
309.925
309.913
309.9
309.887
309.874
309.86
309.845
309.832
309.821
309.814
309.82
309.832
309.846
309.858
309.87
309.879
309.888
309.896
309.904
309.912
309.919
309.927
309.935
309.943
309.948
309.952
309.954
309.955
309.935
309.933
309.929
309.92
309.908
309.894
309.878
309.863
309.848
309.833
309.82
309.808
309.798
309.791
309.793
309.802
309.814
309.826
309.837
309.848
309.858
309.868
309.877
309.887
309.897
309.907
309.917
309.927
309.934
309.94
309.942
309.943
309.923
309.922
309.917
309.907
309.894
309.877
309.86
309.844
309.829
309.815
309.804
309.795
309.786
309.778
309.777
309.782
309.789
309.799
309.809
309.819
309.83
309.84
309.851
309.862
309.874
309.886
309.899
309.91
309.92
309.927
309.93
309.931
309.913
309.911
309.907
309.897
309.883
309.865
309.848
309.832
309.818
309.807
309.799
309.79
309.78
309.772
309.769
309.77
309.774
309.78
309.787
309.796
309.805
309.816
309.827
309.839
309.852
309.866
309.881
309.895
309.906
309.914
309.918
309.919
309.904
309.903
309.899
309.89
309.876
309.859
309.842
309.827
309.815
309.806
309.799
309.79
309.779
309.769
309.765
309.765
309.766
309.768
309.773
309.779
309.787
309.796
309.807
309.819
309.833
309.849
309.865
309.881
309.894
309.902
309.906
309.908
309.896
309.895
309.892
309.885
309.873
309.858
309.842
309.828
309.818
309.811
309.804
309.792
309.778
309.768
309.764
309.763
309.763
309.763
309.765
309.768
309.774
309.782
309.792
309.804
309.818
309.835
309.853
309.87
309.883
309.892
309.896
309.897
309.889
309.889
309.887
309.881
309.872
309.86
309.847
309.835
309.825
309.819
309.808
309.793
309.777
309.767
309.763
309.763
309.763
309.762
309.762
309.764
309.767
309.773
309.782
309.794
309.808
309.826
309.844
309.861
309.875
309.883
309.887
309.888
309.882
309.882
309.881
309.878
309.872
309.863
309.853
309.843
309.835
309.826
309.811
309.792
309.774
309.765
309.762
309.764
309.765
309.765
309.764
309.763
309.765
309.77
309.778
309.79
309.805
309.822
309.841
309.857
309.869
309.876
309.879
309.879
309.872
309.872
309.872
309.871
309.868
309.863
309.856
309.848
309.84
309.827
309.808
309.786
309.77
309.762
309.762
309.766
309.768
309.769
309.769
309.767
309.769
309.774
309.782
309.794
309.809
309.826
309.842
309.855
309.865
309.87
309.872
309.872
309.854
309.855
309.856
309.857
309.857
309.854
309.85
309.843
309.832
309.816
309.795
309.775
309.763
309.76
309.763
309.768
309.772
309.776
309.778
309.78
309.783
309.788
309.796
309.806
309.819
309.833
309.845
309.854
309.86
309.864
309.865
309.865
309.818
309.819
309.822
309.825
309.827
309.826
309.823
309.815
309.803
309.787
309.771
309.759
309.755
309.758
309.762
309.767
309.773
309.779
309.786
309.793
309.8
309.806
309.812
309.821
309.829
309.838
309.846
309.852
309.855
309.856
309.857
309.857
309.767
309.768
309.771
309.774
309.776
309.775
309.771
309.763
309.754
309.748
309.746
309.746
309.748
309.749
309.751
309.753
309.755
309.758
309.764
309.771
309.779
309.789
309.799
309.81
309.821
309.829
309.834
309.836
309.837
309.837
309.836
309.836
309.738
309.739
309.74
309.742
309.743
309.742
309.739
309.735
309.73
309.727
309.724
309.721
309.718
309.715
309.713
309.711
309.71
309.709
309.709
309.71
309.711
309.713
309.716
309.72
309.725
309.732
309.742
309.752
309.76
309.766
309.769
309.769
309.728
309.728
309.729
309.73
309.73
309.729
309.727
309.724
309.72
309.716
309.713
309.708
309.704
309.7
309.695
309.692
309.689
309.688
309.688
309.689
309.69
309.691
309.692
309.694
309.695
309.696
309.698
309.7
309.702
309.704
309.707
309.708
309.723
309.723
309.723
309.724
309.724
309.723
309.721
309.719
309.715
309.711
309.706
309.702
309.697
309.692
309.687
309.683
309.681
309.68
309.681
309.682
309.684
309.686
309.688
309.689
309.691
309.692
309.693
309.693
309.694
309.694
309.694
309.695
309.719
309.72
309.72
309.721
309.721
309.72
309.718
309.715
309.712
309.708
309.703
309.698
309.693
309.688
309.683
309.679
309.676
309.675
309.675
309.677
309.679
309.682
309.685
309.687
309.689
309.691
309.692
309.693
309.694
309.694
309.694
309.694
309.717
309.718
309.718
309.718
309.718
309.718
309.716
309.714
309.71
309.706
309.702
309.697
309.692
309.687
309.682
309.678
309.674
309.672
309.672
309.674
309.676
309.679
309.682
309.686
309.688
309.691
309.692
309.693
309.694
309.694
309.694
309.694
309.716
309.716
309.716
309.717
309.717
309.716
309.715
309.712
309.709
309.705
309.701
309.696
309.692
309.687
309.682
309.678
309.675
309.673
309.672
309.673
309.675
309.678
309.681
309.684
309.687
309.69
309.692
309.693
309.694
309.695
309.695
309.695
309.715
309.715
309.715
309.715
309.715
309.715
309.714
309.712
309.709
309.705
309.701
309.697
309.692
309.688
309.684
309.68
309.677
309.675
309.675
309.675
309.676
309.678
309.681
309.684
309.687
309.69
309.692
309.694
309.694
309.695
309.695
309.695
309.714
309.714
309.714
309.714
309.714
309.714
309.713
309.711
309.708
309.705
309.701
309.697
309.693
309.689
309.686
309.682
309.68
309.678
309.678
309.678
309.679
309.68
309.682
309.684
309.687
309.69
309.692
309.694
309.695
309.695
309.695
309.695
309.713
309.713
309.713
309.713
309.713
309.713
309.712
309.71
309.708
309.705
309.702
309.698
309.695
309.691
309.688
309.685
309.683
309.682
309.681
309.681
309.682
309.683
309.684
309.686
309.688
309.69
309.692
309.694
309.695
309.695
309.696
309.696
309.712
309.712
309.713
309.713
309.713
309.712
309.711
309.71
309.708
309.705
309.703
309.7
309.697
309.694
309.691
309.688
309.687
309.686
309.685
309.685
309.685
309.686
309.687
309.688
309.689
309.691
309.693
309.694
309.695
309.696
309.696
309.696
309.712
309.712
309.712
309.712
309.712
309.712
309.711
309.709
309.708
309.706
309.703
309.701
309.699
309.696
309.694
309.692
309.69
309.69
309.689
309.689
309.689
309.689
309.69
309.69
309.691
309.692
309.693
309.694
309.695
309.696
309.696
309.696
309.711
309.711
309.712
309.712
309.711
309.711
309.71
309.709
309.708
309.706
309.704
309.703
309.701
309.699
309.697
309.695
309.694
309.693
309.693
309.692
309.692
309.692
309.692
309.693
309.693
309.694
309.694
309.695
309.696
309.696
309.696
309.696
309.711
309.711
309.711
309.711
309.711
309.711
309.71
309.709
309.708
309.707
309.706
309.704
309.703
309.701
309.7
309.699
309.697
309.696
309.696
309.695
309.695
309.695
309.695
309.695
309.695
309.695
309.695
309.696
309.696
309.696
309.696
309.696
309.711
309.711
309.711
309.711
309.711
309.711
309.71
309.71
309.709
309.708
309.707
309.706
309.705
309.704
309.702
309.701
309.7
309.699
309.698
309.698
309.697
309.697
309.697
309.696
309.696
309.696
309.696
309.696
309.696
309.696
309.697
309.697
309.711
309.711
309.711
309.711
309.711
309.711
309.71
309.71
309.709
309.709
309.708
309.707
309.706
309.705
309.704
309.703
309.702
309.701
309.7
309.699
309.699
309.698
309.698
309.697
309.697
309.697
309.697
309.697
309.697
309.697
309.697
309.697
309.711
309.711
309.711
309.711
309.711
309.711
309.71
309.71
309.71
309.709
309.709
309.708
309.707
309.706
309.705
309.704
309.702
309.701
309.701
309.7
309.699
309.699
309.698
309.698
309.698
309.697
309.697
309.697
309.697
309.697
309.697
309.697
)
;

boundaryField
{
    movingWall
    {
        type            zeroGradient;
    }
    fixedWalls
    {
        type            zeroGradient;
    }
    floor
    {
        type            fixedValue;
        value           uniform 310;
    }
    frontAndBack
    {
        type            empty;
    }
}


// ************************************************************************* //
