/*--------------------------------*- C++ -*----------------------------------*\
| =========                 |                                                 |
| \\      /  F ield         | OpenFOAM: The Open Source CFD Toolbox           |
|  \\    /   O peration     | Version:  2212                                  |
|   \\  /    A nd           | Website:  www.openfoam.com                      |
|    \\/     M anipulation  |                                                 |
\*---------------------------------------------------------------------------*/
FoamFile
{
    version     2.0;
    format      ascii;
    arch        "LSB;label=64;scalar=64";
    class       volScalarField::Internal;
    location    "1800";
    object      dGco2;
}
// * * * * * * * * * * * * * * * * * * * * * * * * * * * * * * * * * * * * * //

dimensions      [1 -3 -1 0 0 0 0];

value           nonuniform List<scalar> 
1024
(
0.000161051
0.000161108
0.000161248
0.000161505
0.000161921
0.000162545
0.000163426
0.000164609
0.000166116
0.000167936
0.000170018
0.000172264
0.000174549
0.000176744
0.000178731
0.000180401
0.00018151
0.000181883
0.000181608
0.000180815
0.000179629
0.000178184
0.000176618
0.000175075
0.000173681
0.000172518
0.000171614
0.000170958
0.000170514
0.000170239
0.000170088
0.000170026
0.000161069
0.000161126
0.000161267
0.000161527
0.000161947
0.000162577
0.000163467
0.00016466
0.000166178
0.00016801
0.0001701
0.000172351
0.000174639
0.000176833
0.000178821
0.000180491
0.000181603
0.000181981
0.00018171
0.000180916
0.000179728
0.000178278
0.000176705
0.000175152
0.000173747
0.00017257
0.000171655
0.000170991
0.000170542
0.000170263
0.000170111
0.000170049
0.000161112
0.000161171
0.000161315
0.00016158
0.000162009
0.000162653
0.000163562
0.000164778
0.000166321
0.000168176
0.000170285
0.000172548
0.000174841
0.000177038
0.000179027
0.000180704
0.000181829
0.000182222
0.000181957
0.000181158
0.000179954
0.000178483
0.000176889
0.000175313
0.000173882
0.000172681
0.000171745
0.000171065
0.000170605
0.000170321
0.000170166
0.000170103
0.000161191
0.000161251
0.0001614
0.000161674
0.000162118
0.000162785
0.000163725
0.000164978
0.000166562
0.000168456
0.000170595
0.000172879
0.000175183
0.000177385
0.000179382
0.000181079
0.000182237
0.000182662
0.00018241
0.000181591
0.000180342
0.00017882
0.000177178
0.000175559
0.000174089
0.000172853
0.000171888
0.000171188
0.000170715
0.000170423
0.000170266
0.000170202
0.000161314
0.000161377
0.000161532
0.000161819
0.000162285
0.000162985
0.000163968
0.000165276
0.000166918
0.000168867
0.000171052
0.000173366
0.000175687
0.000177902
0.000179922
0.000181662
0.000182885
0.000183372
0.000183138
0.000182276
0.000180939
0.000179318
0.000177587
0.000175896
0.000174369
0.000173088
0.000172091
0.000171368
0.000170883
0.000170586
0.000170426
0.000170363
0.000161493
0.000161559
0.000161723
0.000162026
0.000162521
0.000163263
0.000164304
0.000165683
0.000167402
0.000169425
0.00017167
0.000174026
0.000176377
0.000178622
0.000180688
0.000182506
0.000183841
0.000184426
0.000184217
0.000183287
0.000181808
0.000180021
0.000178141
0.000176337
0.000174729
0.000173395
0.000172364
0.000171623
0.00017113
0.000170831
0.000170673
0.000170611
0.000161738
0.000161807
0.000161981
0.000162304
0.000162833
0.000163627
0.00016474
0.000166206
0.000168021
0.000170136
0.000172459
0.000174874
0.000177273
0.000179572
0.000181719
0.000183666
0.00018517
0.000185896
0.000185725
0.000184704
0.000183029
0.000181002
0.000178899
0.000176925
0.000175206
0.000173805
0.00017274
0.000171986
0.000171494
0.000171203
0.000171053
0.000170996
0.000162054
0.000162128
0.000162312
0.000162658
0.000163226
0.000164081
0.000165277
0.000166846
0.000168774
0.000171
0.00017342
0.000175917
0.000178389
0.000180776
0.000183049
0.00018518
0.000186913
0.00018783
0.000187723
0.000186616
0.000184719
0.00018239
0.000179987
0.000177773
0.000175895
0.000174406
0.000173304
0.000172545
0.000172064
0.00017179
0.000171655
0.000171607
0.000162447
0.000162524
0.000162719
0.000163089
0.0001637
0.00016462
0.000165909
0.000167592
0.000169649
0.000172005
0.000174546
0.00017715
0.000179728
0.00018224
0.000184683
0.000187049
0.000189064
0.000190228
0.000190251
0.000189125
0.000187051
0.000184416
0.000181658
0.000179127
0.000177024
0.000175408
0.000174251
0.000173485
0.000173021
0.000172771
0.000172659
0.000172624
0.000162914
0.000162994
0.0001632
0.000163594
0.000164247
0.000165235
0.00016662
0.000168426
0.000170624
0.000173128
0.000175811
0.00017855
0.000181263
0.00018393
0.00018657
0.000189195
0.000191525
0.000193009
0.000193294
0.000192326
0.000190252
0.000187435
0.000184356
0.000181464
0.000179056
0.000177238
0.000175977
0.000175174
0.000174714
0.000174486
0.000174396
0.000174376
0.00016345
0.000163533
0.000163748
0.000164162
0.000164855
0.000165908
0.000167387
0.000169317
0.000171663
0.000174325
0.000177167
0.000180056
0.000182916
0.000185738
0.000188559
0.000191414
0.000194056
0.00019595
0.000196715
0.000196224
0.000194512
0.00019185
0.00018869
0.000185534
0.000182784
0.000180661
0.000179187
0.000178263
0.00017775
0.000177508
0.000177423
0.000177408
0.00016404
0.000164125
0.000164348
0.000164779
0.000165505
0.000166614
0.000168176
0.000170219
0.000172704
0.000175521
0.000178515
0.000181543
0.000184521
0.000187441
0.000190353
0.00019333
0.000196217
0.000198597
0.000200099
0.000200499
0.000199681
0.000197749
0.00019503
0.000191984
0.00018907
0.000186631
0.000184827
0.000183642
0.000182954
0.000182611
0.000182477
0.000182445
0.000164664
0.00016475
0.000164976
0.000165418
0.000166164
0.00016731
0.000168931
0.000171059
0.00017365
0.000176585
0.00017969
0.000182799
0.000185804
0.000188685
0.0001915
0.000194377
0.000197332
0.000200176
0.000202583
0.000204222
0.000204813
0.000204268
0.000202717
0.000200466
0.000197918
0.00019547
0.000193422
0.000191916
0.00019094
0.000190391
0.000190135
0.000190052
0.000165282
0.000165368
0.000165595
0.000166036
0.000166783
0.000167934
0.000169569
0.000171724
0.000174354
0.00017733
0.000180455
0.000183528
0.000186403
0.000189029
0.000191462
0.000193898
0.000196595
0.000199696
0.000202943
0.000205903
0.000208142
0.000209393
0.00020959
0.000208847
0.000207415
0.000205627
0.000203823
0.000202273
0.000201123
0.000200386
0.000199993
0.000199844
0.000165837
0.000165922
0.000166142
0.000166569
0.000167289
0.000168399
0.000169981
0.000172073
0.000174634
0.000177527
0.000180535
0.000183415
0.000185968
0.000188091
0.000189823
0.000191426
0.000193433
0.000196411
0.000200211
0.0002043
0.000208089
0.00021114
0.000213224
0.000214301
0.000214476
0.000213963
0.000213041
0.000211997
0.000211064
0.000210376
0.000209962
0.000209787
0.000166235
0.000166317
0.000166525
0.000166921
0.000167581
0.000168593
0.000170036
0.000171951
0.000174302
0.000176959
0.000179696
0.000182234
0.000184314
0.000185768
0.000186593
0.000187079
0.000188007
0.000190417
0.000194374
0.000199303
0.000204457
0.000209186
0.000213063
0.000215902
0.000217704
0.000218601
0.000218811
0.00021859
0.000218184
0.000217783
0.000217497
0.000217361
0.000166345
0.000166424
0.000166617
0.000166972
0.000167553
0.000168431
0.000169674
0.000171324
0.000173358
0.000175662
0.000178023
0.000180158
0.000181769
0.000182626
0.000182662
0.000182124
0.000181904
0.000183394
0.000186992
0.000192287
0.000198502
0.000204782
0.000210417
0.000214979
0.000218319
0.000220499
0.000221718
0.000222236
0.000222323
0.000222213
0.000222069
0.000221983
0.00016615
0.000166226
0.000166405
0.000166726
0.000167234
0.000167986
0.000169036
0.00017042
0.000172126
0.000174064
0.000176051
0.000177827
0.000179097
0.000179607
0.000179241
0.000178181
0.00017729
0.000178009
0.000180941
0.000185982
0.000192576
0.000199883
0.000206981
0.000213152
0.000217998
0.000221432
0.000223597
0.000224766
0.000225255
0.000225359
0.000225309
0.00022525
0.000165749
0.000165822
0.000165991
0.000166285
0.000166738
0.000167391
0.000168283
0.000169444
0.000170867
0.000172481
0.000174139
0.00017562
0.000176661
0.000177022
0.000176574
0.000175455
0.000174463
0.000174907
0.000177387
0.000181986
0.000188409
0.000196019
0.00020392
0.000211235
0.00021733
0.000221913
0.000225001
0.000226823
0.000227715
0.000228026
0.000228056
0.000228015
0.000165244
0.000165312
0.000165468
0.000165737
0.000166145
0.000166719
0.000167489
0.000168471
0.000169659
0.000170999
0.000172372
0.000173605
0.000174483
0.00017481
0.000174482
0.000173636
0.000172982
0.000173597
0.00017597
0.000180244
0.0001863
0.000193725
0.000201816
0.000209721
0.000216671
0.000222177
0.000226094
0.000228554
0.000229864
0.0002304
0.000230519
0.000230496
0.000164781
0.000164837
0.000164969
0.000165198
0.00016555
0.000166048
0.00016671
0.000167544
0.00016854
0.00016965
0.000170786
0.00017182
0.0001726
0.000172994
0.000172957
0.000172647
0.000172661
0.000173762
0.000176283
0.000180383
0.000186057
0.000193058
0.000200891
0.000208868
0.000216233
0.000222375
0.000226973
0.000230021
0.000231752
0.00023253
0.00023275
0.000232749
0.000164601
0.000164631
0.000164709
0.00016486
0.000165115
0.000165502
0.00016604
0.000166732
0.000167561
0.00016849
0.000169455
0.000170378
0.000171177
0.000171793
0.000172239
0.000172697
0.000173594
0.000175347
0.000178131
0.000182113
0.000187381
0.000193839
0.000201156
0.000208808
0.000216169
0.000222619
0.000227708
0.000231264
0.000233403
0.000234437
0.000234772
0.000234798
0.000165035
0.000165016
0.000164996
0.000165006
0.000165093
0.000165303
0.000165669
0.000166202
0.00016689
0.000167706
0.000168618
0.000169594
0.000170609
0.000171659
0.000172788
0.000174165
0.000176013
0.000178418
0.000181445
0.000185281
0.000190081
0.000195881
0.000202505
0.000209576
0.000216597
0.00022303
0.00022838
0.000232329
0.000234841
0.000236138
0.000236602
0.00023666
0.000166446
0.000166354
0.000166187
0.000165992
0.000165838
0.000165806
0.000165959
0.000166334
0.00016694
0.000167768
0.000168811
0.000170063
0.000171523
0.000173197
0.000175119
0.000177412
0.000180096
0.000183007
0.000186156
0.00018976
0.000194021
0.000199067
0.000204857
0.00021116
0.0002176
0.000223732
0.000229091
0.000233278
0.0002361
0.00023765
0.000238255
0.000238352
0.000169153
0.000168964
0.000168618
0.000168189
0.000167784
0.000167515
0.000167491
0.000167786
0.000168438
0.000169452
0.000170824
0.000172542
0.000174586
0.000176933
0.000179581
0.000182595
0.000185844
0.000189015
0.000192112
0.000195379
0.000199047
0.00020329
0.000208162
0.000213559
0.000219232
0.000224836
0.000229961
0.000234191
0.000237219
0.000238994
0.000239743
0.000239886
0.000173367
0.000173068
0.000172554
0.000171954
0.000171409
0.000171054
0.000171015
0.000171401
0.000172268
0.000173615
0.000175418
0.000177633
0.000180203
0.000183068
0.000186187
0.000189582
0.000193039
0.000196196
0.000199068
0.000201912
0.000204961
0.000208403
0.000212341
0.000216763
0.000221537
0.000226426
0.0002311
0.000235163
0.000238255
0.000240191
0.000241076
0.000241272
0.000179197
0.000178794
0.000178197
0.000177612
0.000177187
0.000177025
0.000177224
0.000177892
0.000179079
0.00018077
0.000182919
0.000185457
0.0001883
0.000191366
0.000194593
0.000197982
0.000201299
0.000204197
0.000206706
0.000209074
0.000211514
0.0002142
0.000217251
0.000220706
0.00022452
0.000228559
0.000232593
0.000236288
0.000239271
0.000241272
0.000242264
0.000242517
0.000186699
0.000186234
0.000185742
0.000185469
0.000185489
0.0001858
0.00018643
0.000187456
0.000188908
0.000190779
0.000193024
0.000195572
0.000198338
0.00020124
0.000204216
0.00020726
0.000210158
0.000212618
0.000214678
0.000216551
0.00021842
0.000220426
0.00022268
0.000225242
0.000228115
0.000231245
0.000234502
0.000237645
0.00024034
0.000242276
0.00024332
0.000243624
0.000195976
0.00019556
0.000195449
0.000195779
0.000196435
0.0001973
0.000198338
0.000199594
0.000201102
0.000202882
0.000204912
0.000207143
0.000209509
0.000211943
0.000214395
0.000216856
0.000219158
0.000221076
0.000222646
0.000224038
0.000225387
0.000226804
0.000228375
0.000230158
0.000232176
0.000234421
0.000236839
0.00023929
0.000241526
0.00024325
0.000244262
0.000244597
0.00020728
0.000207123
0.000207642
0.000208603
0.000209736
0.000210905
0.000212073
0.000213279
0.000214572
0.000215995
0.000217556
0.00021923
0.000220979
0.000222756
0.000224527
0.000226282
0.000227906
0.000229244
0.000230324
0.000231264
0.000232156
0.000233075
0.00023408
0.000235214
0.000236503
0.000237954
0.000239556
0.000241248
0.000242885
0.000244244
0.000245115
0.000245442
0.000221088
0.000221423
0.000222403
0.0002235
0.000224571
0.000225563
0.000226468
0.000227322
0.000228172
0.000229062
0.000230012
0.000231016
0.000232055
0.000233105
0.000234144
0.000235167
0.000236107
0.000236878
0.000237496
0.000238026
0.000238522
0.000239026
0.000239571
0.000240181
0.000240874
0.000241657
0.000242533
0.000243484
0.000244449
0.000245308
0.000245913
0.000246171
0.00023798
0.000238242
0.000238746
0.000239226
0.000239663
0.000240051
0.000240389
0.000240695
0.000240988
0.000241286
0.000241599
0.000241928
0.000242266
0.000242607
0.000242943
0.000243274
0.000243576
0.000243824
0.000244022
0.000244191
0.000244347
0.000244505
0.000244674
0.000244863
0.000245077
0.000245318
0.000245589
0.000245885
0.000246193
0.00024648
0.000246698
0.000246804
)
;


// ************************************************************************* //
