/*--------------------------------*- C++ -*----------------------------------*\
| =========                 |                                                 |
| \\      /  F ield         | OpenFOAM: The Open Source CFD Toolbox           |
|  \\    /   O peration     | Version:  2212                                  |
|   \\  /    A nd           | Website:  www.openfoam.com                      |
|    \\/     M anipulation  |                                                 |
\*---------------------------------------------------------------------------*/
FoamFile
{
    version     2.0;
    format      ascii;
    arch        "LSB;label=64;scalar=64";
    class       volScalarField;
    location    "1800";
    object      Gco2;
}
// * * * * * * * * * * * * * * * * * * * * * * * * * * * * * * * * * * * * * //

dimensions      [1 -3 0 0 0 0 0];

internalField   nonuniform List<scalar> 
1024
(
0.0515318
0.0515065
0.0514444
0.0513304
0.0511458
0.0508691
0.0504781
0.0499536
0.0492854
0.048478
0.0475552
0.0465598
0.0455475
0.0445758
0.0436962
0.0429579
0.0424681
0.0423037
0.0424259
0.0427777
0.0433028
0.0439429
0.0446366
0.0453199
0.0459374
0.046453
0.0468534
0.047144
0.0473405
0.0474627
0.0475295
0.0475567
0.0515238
0.0514984
0.0514357
0.0513206
0.0511341
0.0508547
0.0504598
0.0499307
0.0492576
0.0484455
0.047519
0.0465213
0.0455079
0.0445361
0.0436566
0.0429179
0.0424267
0.0422603
0.0423812
0.0427328
0.0432592
0.0439013
0.0445981
0.0452858
0.0459086
0.0464297
0.0468351
0.0471294
0.0473284
0.047452
0.0475194
0.0475468
0.0515046
0.0514786
0.0514146
0.0512971
0.0511065
0.0508209
0.0504177
0.0498784
0.0491943
0.0483718
0.047437
0.0464339
0.045418
0.0444456
0.0435653
0.0428238
0.0423268
0.0421539
0.0422716
0.0426259
0.0431595
0.0438106
0.0445168
0.0452148
0.0458487
0.0463807
0.0467954
0.0470967
0.0473002
0.0474263
0.0474949
0.0475227
0.0514698
0.051443
0.051377
0.0512554
0.0510582
0.0507625
0.0503456
0.0497897
0.0490875
0.0482479
0.0472993
0.0462873
0.045267
0.0442921
0.0434082
0.0426582
0.0421467
0.0419591
0.0420715
0.0424345
0.0429878
0.0436614
0.0443888
0.0451057
0.045757
0.0463045
0.0467318
0.0470423
0.0472516
0.0473808
0.0474507
0.0474789
0.051415
0.0513871
0.0513182
0.051191
0.0509842
0.0506741
0.0502377
0.0496579
0.0489297
0.0480655
0.0470971
0.0460718
0.0450438
0.0440629
0.0431692
0.0424004
0.0418599
0.0416455
0.0417497
0.0421313
0.0427234
0.0434412
0.044208
0.0449568
0.0456332
0.0462003
0.0466422
0.0469623
0.0471772
0.047309
0.0473796
0.0474078
0.0513356
0.0513063
0.0512337
0.0510991
0.0508798
0.0505508
0.0500887
0.0494775
0.0487151
0.0478184
0.0468233
0.0457792
0.0447382
0.0437446
0.0428305
0.0420267
0.041437
0.0411793
0.0412722
0.0416843
0.0423393
0.0431305
0.0439629
0.0447618
0.0454736
0.0460645
0.0465214
0.0468497
0.0470681
0.0472004
0.0472703
0.0472977
0.0512272
0.0511964
0.0511194
0.0509759
0.0507413
0.0503892
0.0498954
0.0492454
0.0484407
0.0475032
0.0464738
0.0454036
0.0443416
0.0433242
0.0423743
0.0415137
0.0408494
0.0405292
0.0406056
0.0410578
0.0417992
0.0426967
0.0436276
0.0445014
0.0452629
0.0458832
0.046355
0.0466886
0.0469066
0.0470359
0.0471023
0.0471275
0.0510866
0.0510542
0.0509724
0.050819
0.050567
0.050188
0.0496573
0.0489618
0.048107
0.0471204
0.0460479
0.044942
0.0438474
0.0427915
0.041786
0.040844
0.0400784
0.0396739
0.0397219
0.0402122
0.0410516
0.0420824
0.0431463
0.0441261
0.0449578
0.045617
0.0461051
0.0464412
0.0466542
0.0467759
0.0468356
0.0468568
0.0509125
0.0508785
0.0507918
0.0506278
0.050357
0.0499488
0.0493775
0.0486311
0.0477192
0.046675
0.0455495
0.0443961
0.043255
0.0421438
0.0410633
0.0400178
0.0391274
0.0386135
0.0386042
0.0391028
0.0400204
0.0411862
0.042407
0.0435271
0.0444581
0.0451738
0.0456859
0.0460254
0.0462309
0.0463415
0.0463912
0.0464066
0.0507053
0.0506698
0.0505784
0.0504041
0.0501144
0.0496761
0.0490622
0.0482616
0.0472871
0.0461776
0.044989
0.0437763
0.0425756
0.0413962
0.0402288
0.0390691
0.0380395
0.0373843
0.0372587
0.0376872
0.0386048
0.0398509
0.041213
0.0424929
0.0435589
0.0443634
0.044922
0.0452774
0.0454811
0.0455822
0.0456218
0.045631
0.0504678
0.0504312
0.0503357
0.0501519
0.0498447
0.0493777
0.048722
0.0478666
0.0468271
0.0456473
0.0443888
0.0431097
0.0418444
0.0405967
0.0393496
0.0380879
0.0369208
0.0360845
0.0357466
0.0359641
0.0367208
0.0378982
0.039296
0.0406923
0.041909
0.0428485
0.0435011
0.0439098
0.0441371
0.0442442
0.0442822
0.0442887
0.050206
0.0501685
0.0500698
0.0498785
0.0495567
0.0490652
0.0483726
0.0474669
0.0463659
0.0451182
0.0437921
0.0424517
0.0411346
0.0398435
0.0385565
0.0372415
0.0359664
0.0349153
0.0342515
0.0340745
0.0344361
0.0352902
0.0364923
0.0378392
0.0391281
0.0402069
0.0410051
0.0415297
0.0418342
0.0419858
0.0420454
0.0420594
0.0499298
0.0498917
0.0497912
0.0495954
0.0492646
0.0487568
0.0480381
0.0470953
0.0459471
0.0446471
0.0432721
0.0418965
0.0405674
0.0392936
0.0380502
0.0367799
0.0354752
0.0342188
0.0331556
0.032431
0.0321689
0.0324092
0.0330947
0.0340894
0.0352156
0.0362978
0.0372034
0.0378696
0.038301
0.0385441
0.0386575
0.0386941
0.0496555
0.0496174
0.0495169
0.0493214
0.0489903
0.0484802
0.0477554
0.0468007
0.0456354
0.0443176
0.0429339
0.0415741
0.0403027
0.0391421
0.0380682
0.0369931
0.0358029
0.0344335
0.0329989
0.031691
0.0307008
0.0301471
0.0300592
0.0303868
0.0310189
0.0318086
0.0326057
0.0332904
0.0337989
0.0341247
0.0342984
0.0343644
0.0494098
0.0493722
0.0492743
0.0490853
0.0487662
0.0482744
0.0475732
0.0466462
0.0455118
0.0442305
0.0428987
0.0416241
0.0404955
0.0395578
0.038794
0.0380877
0.0372028
0.0358885
0.0342097
0.0324026
0.0307281
0.0293793
0.0284575
0.0279807
0.0279023
0.028128
0.0285347
0.0289953
0.029407
0.029711
0.0298936
0.0299708
0.0492334
0.049197
0.0491046
0.0489293
0.0486368
0.0481882
0.0475487
0.0467004
0.0456586
0.0444818
0.0432702
0.0421469
0.0412271
0.0405852
0.0402226
0.0400107
0.039603
0.0385398
0.0367921
0.0346138
0.0323363
0.0302464
0.0285325
0.0272775
0.0264807
0.0260834
0.0259895
0.0260864
0.0262651
0.0264417
0.0265677
0.0266279
0.0491843
0.0491495
0.049064
0.0489064
0.048649
0.0482601
0.047709
0.046978
0.046077
0.0450563
0.0440105
0.0430656
0.0423532
0.041975
0.0419607
0.0422011
0.0423014
0.0416447
0.0400558
0.0377161
0.0349696
0.0321943
0.0297042
0.0276882
0.0262123
0.0252485
0.0247096
0.0244801
0.0244409
0.0244891
0.024552
0.0245901
0.0492707
0.0492373
0.0491577
0.0490156
0.0487902
0.048457
0.0479917
0.0473784
0.0466224
0.0457638
0.0448835
0.044097
0.0435351
0.0433101
0.0434729
0.0439438
0.0443406
0.044025
0.0427305
0.0405033
0.0375892
0.0343603
0.0312239
0.0284972
0.0263562
0.0248387
0.0238817
0.0233648
0.0231484
0.0231019
0.0231237
0.0231499
0.0494484
0.0494161
0.0493412
0.0492109
0.04901
0.0487208
0.0483251
0.0478105
0.0471801
0.0464647
0.0457299
0.0450738
0.0446127
0.0444534
0.0446523
0.0451489
0.04559
0.0453958
0.044301
0.0422694
0.0394312
0.0360682
0.0325772
0.029345
0.0266523
0.0246279
0.0232636
0.0224582
0.0220639
0.0219261
0.0219124
0.0219307
0.0496724
0.0496422
0.0495727
0.0494536
0.049273
0.0490183
0.0486772
0.0482416
0.047715
0.0471213
0.0465124
0.0459662
0.045577
0.0454324
0.0455777
0.0459536
0.0462446
0.0459746
0.0449274
0.0430392
0.0403632
0.0370823
0.0335074
0.0300145
0.0269446
0.0245122
0.0227819
0.0216951
0.0211162
0.0208792
0.0208263
0.0208363
0.0498774
0.0498525
0.0497942
0.0496924
0.0495364
0.0493158
0.0490223
0.0486523
0.0482109
0.0477187
0.0472149
0.0467569
0.0464112
0.0462364
0.0462533
0.0463913
0.0463872
0.0459022
0.0447895
0.042978
0.040471
0.0373774
0.0339162
0.030392
0.0271384
0.0244257
0.0223947
0.0210482
0.0202837
0.0199398
0.0198424
0.0198426
0.0499576
0.0499445
0.04991
0.0498428
0.0497296
0.0495578
0.0493192
0.0490124
0.0486446
0.048233
0.047805
0.0473959
0.0470419
0.0467693
0.0465721
0.0463706
0.0459756
0.0452025
0.0439733
0.0422138
0.0398862
0.0370325
0.0337997
0.030419
0.0271675
0.0243182
0.0220708
0.0205001
0.0195556
0.0190987
0.0189505
0.0189391
0.0497669
0.049775
0.0497838
0.0497788
0.0497399
0.0496465
0.0494839
0.0492475
0.0489424
0.0485806
0.0481764
0.0477441
0.0472946
0.0468305
0.0463315
0.0457234
0.044908
0.0438462
0.042509
0.0408145
0.0386934
0.0361308
0.033204
0.0300802
0.0269788
0.0241374
0.0217748
0.0200305
0.0189211
0.0183484
0.0181432
0.0181176
0.0491438
0.0491844
0.049258
0.0493439
0.0494112
0.0494252
0.0493569
0.0491902
0.0489217
0.0485547
0.0480931
0.047539
0.046893
0.0461529
0.0453033
0.0442902
0.0431048
0.0418192
0.040428
0.0388361
0.0369533
0.0347236
0.0321652
0.029381
0.0265361
0.0238276
0.0214609
0.0196123
0.0183662
0.0176813
0.0174141
0.0173713
0.0479481
0.0480315
0.0481842
0.0483732
0.0485522
0.0486703
0.0486806
0.0485495
0.0482608
0.0478117
0.0472047
0.0464451
0.0455415
0.0445037
0.0433334
0.0420015
0.0405664
0.0391655
0.0377975
0.0363538
0.0347335
0.0328586
0.0307058
0.0283219
0.0258157
0.0233404
0.0210771
0.0192096
0.0178724
0.0170889
0.0167579
0.0166946
0.046086
0.0462181
0.0464451
0.0467102
0.0469508
0.0471073
0.047124
0.0469527
0.0465693
0.0459736
0.0451764
0.0441971
0.0430611
0.0417947
0.0404164
0.038916
0.0373884
0.0359936
0.0347251
0.0334683
0.0321211
0.0306005
0.0288604
0.0269069
0.0247983
0.0226389
0.020575
0.0187806
0.0174157
0.0165607
0.0161699
0.0160832
0.0435105
0.0436887
0.0439519
0.0442104
0.044398
0.0444691
0.0443811
0.0440854
0.0435608
0.0428134
0.0418633
0.0407414
0.0394849
0.03813
0.0367038
0.0352061
0.0337404
0.03246
0.0313515
0.0303052
0.0292269
0.0280402
0.0266924
0.0251659
0.0234813
0.0216972
0.0199157
0.0182843
0.0169672
0.0160841
0.0156459
0.0155343
0.0401963
0.0404013
0.0406188
0.0407391
0.0407304
0.0405926
0.0403139
0.0398606
0.0392187
0.038392
0.0373999
0.0362737
0.0350514
0.0337688
0.0324534
0.0311084
0.0298277
0.0287407
0.0278307
0.0270027
0.0261773
0.0252908
0.024295
0.0231634
0.0218943
0.0205116
0.0190733
0.0176856
0.0164956
0.0156411
0.0151801
0.0150462
0.0360975
0.0362812
0.0363303
0.0361846
0.0358944
0.0355124
0.0350536
0.0344984
0.0338319
0.0330456
0.0321484
0.0311624
0.0301171
0.0290412
0.0279575
0.0268698
0.0258529
0.0250054
0.0243114
0.0236967
0.0231004
0.0224744
0.0217803
0.0209929
0.0201014
0.0191096
0.0180418
0.0169595
0.0159725
0.0152117
0.0147649
0.0146171
0.0311039
0.0311732
0.0309441
0.0305193
0.0300185
0.0295022
0.0289861
0.0284529
0.0278818
0.027253
0.0265634
0.0258233
0.0250507
0.0242652
0.0234828
0.0227068
0.0219896
0.0213983
0.0209207
0.0205056
0.0201114
0.0197056
0.0192615
0.0187603
0.0181912
0.0175502
0.016843
0.0160959
0.015373
0.0147733
0.0143887
0.0142443
0.0250042
0.0248561
0.0244231
0.0239383
0.0234654
0.0230269
0.0226273
0.0222499
0.0218744
0.0214808
0.0210612
0.0206175
0.0201584
0.0196946
0.0192354
0.0187831
0.0183676
0.018027
0.0177542
0.0175198
0.0173005
0.017078
0.0168373
0.0165675
0.0162616
0.0159156
0.0155288
0.0151089
0.0146829
0.0143038
0.0140369
0.0139228
0.0175422
0.0174265
0.0172039
0.0169915
0.0167987
0.0166274
0.0164776
0.0163424
0.0162131
0.0160814
0.0159431
0.015798
0.0156485
0.0154978
0.0153491
0.0152031
0.0150693
0.0149599
0.0148726
0.014798
0.0147287
0.014659
0.0145842
0.0145007
0.0144063
0.0142998
0.0141804
0.0140495
0.0139136
0.013787
0.0136905
0.0136438
)
;

boundaryField
{
    movingWall
    {
        type            fixedValue;
        value           uniform 0.0135;
    }
    fixedWalls
    {
        type            zeroGradient;
    }
    floor
    {
        type            zeroGradient;
    }
    frontAndBack
    {
        type            empty;
    }
}


// ************************************************************************* //
