/*--------------------------------*- C++ -*----------------------------------*\
| =========                 |                                                 |
| \\      /  F ield         | OpenFOAM: The Open Source CFD Toolbox           |
|  \\    /   O peration     | Version:  2212                                  |
|   \\  /    A nd           | Website:  www.openfoam.com                      |
|    \\/     M anipulation  |                                                 |
\*---------------------------------------------------------------------------*/
FoamFile
{
    version     2.0;
    format      ascii;
    arch        "LSB;label=64;scalar=64";
    class       volScalarField;
    location    "1800";
    object      Sco2;
}
// * * * * * * * * * * * * * * * * * * * * * * * * * * * * * * * * * * * * * //

dimensions      [1 -3 0 0 0 0 0];

internalField   nonuniform List<scalar> 
1024
(
0.00613886
0.00614103
0.00614637
0.00615616
0.00617202
0.0061958
0.00622941
0.00627448
0.00633191
0.00640132
0.00648066
0.00656627
0.00665338
0.00673703
0.00681279
0.00687644
0.0069187
0.00693293
0.00692247
0.00689222
0.00684703
0.00679194
0.00673224
0.00667344
0.00662031
0.00657595
0.00654149
0.00651649
0.00649958
0.00648907
0.00648333
0.00648099
0.00613954
0.00614173
0.00614711
0.00615701
0.00617303
0.00619704
0.00623097
0.00627645
0.0063343
0.00640411
0.00648378
0.00656959
0.00665679
0.00674045
0.0068162
0.00687989
0.00692227
0.00693668
0.00692632
0.00689608
0.00685079
0.00679552
0.00673556
0.00667638
0.00662279
0.00657795
0.00654307
0.00651775
0.00650063
0.00648999
0.0064842
0.00648184
0.0061412
0.00614343
0.00614892
0.00615903
0.0061754
0.00619995
0.0062346
0.00628094
0.00633974
0.00641045
0.00649083
0.00657711
0.00666452
0.00674824
0.00682407
0.006888
0.00693088
0.00694585
0.00693577
0.0069053
0.00685938
0.00680334
0.00674256
0.00668249
0.00662794
0.00658217
0.00654649
0.00652057
0.00650306
0.0064922
0.0064863
0.00648392
0.00614418
0.00614648
0.00615216
0.0061626
0.00617955
0.00620497
0.00624079
0.00628857
0.00634893
0.00642111
0.00650267
0.00658972
0.00667752
0.00676146
0.00683761
0.00690226
0.00694641
0.00696263
0.00695302
0.00692179
0.00687418
0.00681619
0.00675359
0.00669189
0.00663584
0.00658873
0.00655196
0.00652525
0.00650724
0.00649612
0.00649011
0.00648769
0.00614889
0.00615129
0.00615721
0.00616815
0.00618592
0.00621257
0.00625007
0.0062999
0.00636249
0.00643679
0.00652007
0.00660827
0.00669674
0.0067812
0.0068582
0.00692449
0.00697112
0.00698967
0.00698075
0.00694792
0.00689696
0.00683517
0.00676916
0.00670472
0.00664651
0.0065977
0.00655968
0.00653214
0.00651365
0.00650231
0.00649623
0.00649381
0.00615572
0.00615823
0.00616448
0.00617604
0.00619489
0.00622316
0.00626288
0.00631541
0.00638094
0.00645804
0.00654362
0.00663345
0.00672304
0.00680862
0.00688738
0.00695669
0.00700758
0.00702986
0.00702191
0.00698645
0.00693007
0.00686195
0.00679029
0.00672152
0.00666025
0.00660939
0.00657008
0.00654182
0.00652304
0.00651165
0.00650564
0.00650329
0.00616504
0.00616768
0.0061743
0.00618663
0.00620679
0.00623706
0.0062795
0.00633537
0.00640455
0.00648516
0.00657369
0.00666578
0.0067572
0.00684482
0.00692669
0.0070009
0.00705822
0.00708589
0.00707937
0.00704045
0.00697662
0.00689933
0.00681918
0.00674395
0.0066784
0.00662501
0.00658441
0.0065557
0.00653694
0.00652582
0.0065201
0.00651793
0.00617711
0.0061799
0.00618693
0.00620012
0.00622178
0.00625435
0.00629996
0.00635975
0.00643324
0.00651809
0.00661034
0.00670551
0.00679976
0.00689072
0.00697738
0.00705862
0.00712468
0.00715961
0.00715554
0.00711334
0.00704104
0.00695227
0.00686065
0.00677628
0.00670468
0.00664794
0.00660592
0.006577
0.00655867
0.00654819
0.00654306
0.00654124
0.00619208
0.006195
0.00620246
0.00621655
0.00623982
0.00627491
0.00632403
0.00638819
0.0064666
0.0065564
0.00665324
0.00675251
0.00685078
0.00694652
0.00703967
0.00712984
0.00720667
0.00725103
0.00725189
0.00720896
0.00712992
0.00702949
0.00692435
0.00682788
0.00674772
0.00668611
0.00664202
0.0066128
0.00659511
0.0065856
0.00658132
0.00657999
0.0062099
0.00621294
0.0062208
0.00623578
0.00626068
0.00629836
0.00635113
0.00641997
0.00650377
0.00659921
0.00670149
0.00680589
0.0069093
0.00701095
0.0071116
0.00721163
0.00730047
0.00735702
0.00736789
0.00733099
0.00725192
0.00714455
0.00702721
0.00691696
0.00682516
0.00675589
0.0067078
0.0066772
0.00665966
0.00665097
0.00664756
0.00664676
0.00623031
0.00623346
0.00624166
0.00625746
0.00628387
0.00632402
0.00638039
0.00645395
0.00654336
0.00664485
0.00675316
0.0068633
0.0069723
0.00707986
0.0071874
0.00729624
0.00739695
0.00746912
0.00749828
0.00747956
0.00741433
0.00731285
0.00719239
0.00707208
0.00696727
0.00688636
0.00683015
0.00679496
0.0067754
0.00676618
0.00676291
0.00676235
0.00625281
0.00625604
0.00626453
0.00628097
0.00630863
0.00635089
0.00641046
0.00648834
0.00658305
0.00669041
0.00680456
0.00691999
0.00703348
0.00714479
0.0072558
0.00736927
0.00747931
0.00757001
0.00762728
0.00764254
0.00761135
0.00753769
0.00743405
0.00731795
0.00720687
0.00711391
0.00704515
0.00699997
0.00697374
0.00696069
0.00695557
0.00695436
0.00627657
0.00627984
0.00628849
0.00630532
0.00633376
0.00637743
0.00643923
0.00652033
0.0066191
0.00673097
0.00684935
0.00696783
0.00708237
0.00719222
0.00729951
0.00740916
0.00752179
0.00763023
0.00772195
0.00778442
0.00780698
0.00778621
0.00772705
0.00764125
0.00754413
0.00745083
0.00737277
0.00731535
0.00727817
0.00725723
0.00724746
0.00724431
0.00630016
0.00630344
0.00631207
0.00632889
0.00635736
0.00640122
0.00646357
0.00654569
0.00664595
0.00675936
0.00687849
0.00699562
0.00710522
0.00720533
0.00729805
0.00739091
0.00749372
0.00761193
0.00773569
0.0078485
0.00793386
0.00798155
0.00798905
0.00796073
0.00790615
0.00783799
0.00776922
0.00771016
0.00766631
0.00763821
0.00762323
0.00761754
0.00632129
0.00632452
0.00633294
0.00634919
0.00637664
0.00641894
0.00647925
0.00655899
0.0066566
0.00676687
0.00688154
0.00699134
0.00708863
0.00716956
0.00723557
0.00729668
0.0073732
0.00748669
0.00763154
0.00778742
0.00793184
0.00804812
0.00812757
0.00816862
0.00817529
0.00815574
0.00812058
0.0080808
0.00804524
0.00801899
0.00800323
0.00799656
0.00633646
0.00633959
0.00634753
0.00636261
0.00638777
0.00642635
0.00648136
0.00655433
0.00664397
0.00674525
0.00684955
0.00694631
0.00702561
0.00708103
0.00711247
0.00713097
0.00716636
0.00725822
0.00740904
0.00759695
0.0077934
0.00797364
0.00812145
0.00822966
0.00829833
0.00833253
0.00834055
0.00833212
0.00831663
0.00830136
0.00829046
0.00828526
0.00634067
0.00634366
0.00635102
0.00636458
0.00638671
0.00642017
0.00646757
0.00653045
0.00660796
0.00669579
0.0067858
0.00686717
0.00692857
0.00696124
0.00696263
0.00694213
0.00693372
0.00699053
0.00712767
0.00732951
0.00756642
0.0078058
0.00802059
0.00819448
0.00832177
0.00840488
0.00845132
0.00847107
0.00847439
0.00847019
0.00846474
0.00846143
0.00633323
0.00633611
0.00634295
0.00635518
0.00637456
0.00640321
0.00644323
0.00649599
0.00656101
0.00663488
0.00671063
0.00677832
0.00682673
0.00684616
0.00683224
0.00679183
0.00675785
0.00678526
0.00689701
0.00708916
0.00734053
0.00761905
0.0078896
0.00812482
0.00830953
0.00844043
0.00852297
0.00856753
0.00858616
0.00859014
0.00858823
0.00858596
0.00631794
0.00632072
0.00632716
0.00633837
0.00635564
0.00638051
0.00641455
0.0064588
0.00651302
0.00657455
0.00663776
0.00669421
0.0067339
0.00674763
0.00673057
0.00668791
0.00665009
0.00666702
0.00676156
0.00693685
0.00718168
0.00747177
0.00777291
0.00805176
0.00828409
0.00845876
0.00857646
0.00864594
0.00867993
0.00869179
0.00869294
0.00869135
0.00629867
0.00630127
0.00630724
0.00631749
0.00633302
0.00635492
0.00638425
0.0064217
0.00646699
0.00651804
0.00657041
0.00661738
0.00665086
0.00666331
0.00665084
0.00661856
0.00659364
0.0066171
0.00670754
0.00687046
0.0071013
0.00738431
0.00769271
0.00799406
0.00825894
0.00846883
0.00861814
0.00871191
0.00876185
0.00878227
0.00878681
0.00878594
0.00628105
0.00628319
0.0062882
0.00629695
0.00631036
0.00632933
0.00635456
0.00638638
0.00642432
0.00646664
0.00650996
0.00654934
0.00657907
0.0065941
0.00659268
0.00658088
0.00658139
0.00662338
0.00671946
0.00687576
0.00709202
0.00735888
0.00765747
0.00796153
0.00824227
0.00847637
0.00865164
0.00876784
0.00883381
0.00886346
0.00887185
0.00887182
0.00627419
0.00627532
0.00627828
0.00628404
0.00629377
0.00630853
0.00632903
0.00635541
0.00638703
0.00642241
0.0064592
0.00649439
0.00652484
0.00654831
0.00656533
0.00658279
0.00661698
0.00668378
0.00678989
0.00694171
0.0071425
0.00738867
0.00766756
0.00795924
0.00823981
0.00848569
0.00867966
0.00881523
0.00889673
0.00893615
0.00894893
0.0089499
0.00629071
0.00629
0.00628922
0.00628963
0.00629295
0.00630095
0.00631491
0.00633522
0.00636144
0.00639255
0.00642731
0.00646451
0.00650321
0.00654321
0.00658625
0.00663875
0.00670916
0.00680084
0.00691625
0.00706245
0.00724543
0.0074665
0.00771899
0.00798851
0.00825613
0.00850134
0.00870526
0.00885582
0.00895157
0.009001
0.0090187
0.0090209
0.0063445
0.00634099
0.00633463
0.00632719
0.00632135
0.0063201
0.00632593
0.00634024
0.00636333
0.0063949
0.00643464
0.00648237
0.00653802
0.00660183
0.00667511
0.00676251
0.00686481
0.00697577
0.00709582
0.00723316
0.00739559
0.00758795
0.00780866
0.00804888
0.00829437
0.00852812
0.00873239
0.00889197
0.00899953
0.00905865
0.0090817
0.00908538
0.00644768
0.00644048
0.00642729
0.00641096
0.00639549
0.00638527
0.00638433
0.00639559
0.00642043
0.0064591
0.0065114
0.00657688
0.00665477
0.00674425
0.00684519
0.00696008
0.0070839
0.00720478
0.00732282
0.00744737
0.00758716
0.0077489
0.00793463
0.00814032
0.00835659
0.0085702
0.00876556
0.00892677
0.00904221
0.00910985
0.00913841
0.00914387
0.00660834
0.00659694
0.00657734
0.00655446
0.00653367
0.00652014
0.00651866
0.0065334
0.00656643
0.00661777
0.00668649
0.00677093
0.00686889
0.0069781
0.00709698
0.00722639
0.00735818
0.00747851
0.00758796
0.00769639
0.00781262
0.0079438
0.00809392
0.00826248
0.00844444
0.0086308
0.00880894
0.00896384
0.00908168
0.00915549
0.00918922
0.00919671
0.00683054
0.00681517
0.00679244
0.00677013
0.00675393
0.00674777
0.00675534
0.00678082
0.00682605
0.00689049
0.00697242
0.00706917
0.00717753
0.00729439
0.00741739
0.00754658
0.00767301
0.00778347
0.00787911
0.00796937
0.0080624
0.00816478
0.00828107
0.00841278
0.00855814
0.00871212
0.00886589
0.00900672
0.00912043
0.00919668
0.00923451
0.00924414
0.00711649
0.00709879
0.00708002
0.00706963
0.00707037
0.00708224
0.00710626
0.00714535
0.00720072
0.00727201
0.00735758
0.00745471
0.00756013
0.00767075
0.00778421
0.00790022
0.0080107
0.00810447
0.00818298
0.00825441
0.00832562
0.0084021
0.00848801
0.00858565
0.00869516
0.0088145
0.00893865
0.00905844
0.00916118
0.00923496
0.00927476
0.00928633
0.00747013
0.00745428
0.00745004
0.0074626
0.00748763
0.00752057
0.00756015
0.00760804
0.00766553
0.00773335
0.00781074
0.00789579
0.00798595
0.00807874
0.00817221
0.00826603
0.00835375
0.00842686
0.00848673
0.00853976
0.0085912
0.00864521
0.0087051
0.00877304
0.00884997
0.00893556
0.00902773
0.00912116
0.00920638
0.00927207
0.00931065
0.00932342
0.00790099
0.00789502
0.00791478
0.00795143
0.00799463
0.00803917
0.00808369
0.00812968
0.00817895
0.00823319
0.00829268
0.00835652
0.00842316
0.00849091
0.00855839
0.00862532
0.00868719
0.0087382
0.0087794
0.00881521
0.00884922
0.00888423
0.00892255
0.00896579
0.0090149
0.00907022
0.00913126
0.00919576
0.00925817
0.00930996
0.00934317
0.00935564
0.00842731
0.0084401
0.00847745
0.00851927
0.00856008
0.00859791
0.00863239
0.00866494
0.00869734
0.00873129
0.00876749
0.00880576
0.00884536
0.00888537
0.00892497
0.00896399
0.00899982
0.0090292
0.00905274
0.00907296
0.00909188
0.00911107
0.00913184
0.00915512
0.00918152
0.00921138
0.00924476
0.00928101
0.00931779
0.00935053
0.00937358
0.00938343
0.0090712
0.00908118
0.00910039
0.00911872
0.00913535
0.00915013
0.00916305
0.00917471
0.00918587
0.00919723
0.00920916
0.00922168
0.00923457
0.00924757
0.0092604
0.00927299
0.00928453
0.00929397
0.0093015
0.00930794
0.00931391
0.00931992
0.00932638
0.00933358
0.00934173
0.00935092
0.00936123
0.00937252
0.00938426
0.00939519
0.00940353
0.00940756
)
;

boundaryField
{
    movingWall
    {
        type            fixedValue;
        value           uniform 0.00942;
    }
    fixedWalls
    {
        type            zeroGradient;
    }
    floor
    {
        type            zeroGradient;
    }
    frontAndBack
    {
        type            empty;
    }
}


// ************************************************************************* //
