/*--------------------------------*- C++ -*----------------------------------*\
| =========                 |                                                 |
| \\      /  F ield         | OpenFOAM: The Open Source CFD Toolbox           |
|  \\    /   O peration     | Version:  2212                                  |
|   \\  /    A nd           | Website:  www.openfoam.com                      |
|    \\/     M anipulation  |                                                 |
\*---------------------------------------------------------------------------*/
FoamFile
{
    version     2.0;
    format      ascii;
    arch        "LSB;label=64;scalar=64";
    class       volScalarField;
    location    "1800";
    object      SIC;
}
// * * * * * * * * * * * * * * * * * * * * * * * * * * * * * * * * * * * * * //

dimensions      [1 -3 0 0 0 0 0];

internalField   nonuniform List<scalar> 
1024
(
0.0918192
0.0918213
0.0918267
0.0918365
0.0918523
0.0918761
0.0919097
0.0919548
0.0920122
0.0920816
0.092161
0.0922466
0.0923337
0.0924174
0.0924931
0.0925568
0.092599
0.0926133
0.0926028
0.0925726
0.0925274
0.0924724
0.0924127
0.0923539
0.0923008
0.0922564
0.092222
0.092197
0.0921801
0.0921695
0.0921638
0.0921615
0.0918199
0.091822
0.0918274
0.0918373
0.0918533
0.0918774
0.0919113
0.0919568
0.0920146
0.0920844
0.0921641
0.0922499
0.0923371
0.0924208
0.0924965
0.0925602
0.0926026
0.092617
0.0926067
0.0925765
0.0925312
0.0924759
0.092416
0.0923568
0.0923032
0.0922584
0.0922235
0.0921982
0.0921811
0.0921705
0.0921647
0.0921623
0.0918215
0.0918237
0.0918292
0.0918393
0.0918557
0.0918803
0.0919149
0.0919613
0.0920201
0.0920908
0.0921712
0.0922574
0.0923449
0.0924286
0.0925044
0.0925683
0.0926112
0.0926262
0.0926161
0.0925857
0.0925398
0.0924838
0.092423
0.0923629
0.0923084
0.0922626
0.092227
0.092201
0.0921835
0.0921727
0.0921668
0.0921644
0.0918245
0.0918268
0.0918325
0.0918429
0.0918599
0.0918853
0.0919211
0.0919689
0.0920293
0.0921014
0.092183
0.0922701
0.0923579
0.0924418
0.0925179
0.0925826
0.0926267
0.092643
0.0926334
0.0926022
0.0925546
0.0924966
0.092434
0.0923723
0.0923163
0.0922692
0.0922324
0.0922057
0.0921877
0.0921766
0.0921706
0.0921682
0.0918292
0.0918316
0.0918375
0.0918485
0.0918662
0.0918929
0.0919304
0.0919802
0.0920428
0.0921171
0.0922004
0.0922886
0.0923771
0.0924615
0.0925385
0.0926048
0.0926515
0.09267
0.0926611
0.0926283
0.0925774
0.0925156
0.0924496
0.0923852
0.092327
0.0922782
0.0922401
0.0922126
0.0921941
0.0921828
0.0921767
0.0921743
0.091836
0.0918386
0.0918448
0.0918564
0.0918752
0.0919035
0.0919432
0.0919957
0.0920613
0.0921384
0.092224
0.0923138
0.0924034
0.092489
0.0925677
0.092637
0.0926879
0.0927102
0.0927023
0.0926668
0.0926105
0.0925424
0.0924707
0.092402
0.0923407
0.0922899
0.0922506
0.0922223
0.0922035
0.0921921
0.0921861
0.0921838
0.0918454
0.091848
0.0918546
0.091867
0.0918871
0.0919174
0.0919598
0.0920157
0.0920849
0.0921655
0.092254
0.0923461
0.0924375
0.0925252
0.092607
0.0926812
0.0927385
0.0927662
0.0927597
0.0927209
0.092657
0.0925798
0.0924996
0.0924244
0.0923589
0.0923055
0.0922649
0.0922362
0.0922174
0.0922063
0.0922006
0.0921984
0.0918574
0.0918602
0.0918672
0.0918804
0.0919021
0.0919347
0.0919803
0.0920401
0.0921136
0.0921984
0.0922907
0.0923858
0.0924801
0.092571
0.0926577
0.0927389
0.092805
0.0928399
0.0928359
0.0927937
0.0927215
0.0926327
0.0925411
0.0924568
0.0923852
0.0923284
0.0922864
0.0922575
0.0922392
0.0922287
0.0922236
0.0922217
0.0918724
0.0918753
0.0918828
0.0918969
0.0919201
0.0919552
0.0920044
0.0920685
0.0921469
0.0922367
0.0923336
0.0924328
0.0925311
0.0926268
0.09272
0.0928101
0.0928869
0.0929313
0.0929322
0.0928894
0.0928104
0.09271
0.0926049
0.0925084
0.0924282
0.0923666
0.0923225
0.0922933
0.0922756
0.0922661
0.0922618
0.0922605
0.0918902
0.0918933
0.0919011
0.0919161
0.091941
0.0919787
0.0920315
0.0921003
0.0921841
0.0922795
0.0923818
0.0924862
0.0925896
0.0926912
0.0927919
0.0928919
0.0929807
0.0930373
0.0930482
0.0930114
0.0929324
0.0928251
0.0927078
0.0925975
0.0925057
0.0924364
0.0923883
0.0923577
0.0923402
0.0923315
0.0923281
0.0923273
0.0919106
0.0919138
0.091922
0.0919378
0.0919642
0.0920043
0.0920607
0.0921343
0.0922237
0.0923252
0.0924335
0.0925436
0.0926526
0.0927601
0.0928676
0.0929764
0.0930771
0.0931493
0.0931785
0.0931599
0.0930948
0.0929934
0.092873
0.0927527
0.0926479
0.092567
0.0925107
0.0924755
0.092456
0.0924468
0.0924435
0.0924429
0.0919331
0.0919363
0.0919448
0.0919613
0.0919889
0.0920312
0.0920908
0.0921686
0.0922633
0.0923707
0.0924848
0.0926002
0.0927137
0.092825
0.0929359
0.0930494
0.0931594
0.0932501
0.0933074
0.0933228
0.0932917
0.0932181
0.0931146
0.0929985
0.0928875
0.0927945
0.0927258
0.0926806
0.0926543
0.0926413
0.0926362
0.0926349
0.0919569
0.0919601
0.0919688
0.0919856
0.0920141
0.0920577
0.0921195
0.0922006
0.0922994
0.0924112
0.0925296
0.092648
0.0927625
0.0928723
0.0929796
0.0930892
0.0932018
0.0933102
0.093402
0.0934645
0.0934872
0.0934665
0.0934074
0.0933217
0.0932246
0.0931314
0.0930533
0.0929959
0.0929587
0.0929378
0.092928
0.0929249
0.0919804
0.0919837
0.0919924
0.0920092
0.0920376
0.0920815
0.0921438
0.0922259
0.0923262
0.0924396
0.0925587
0.0926758
0.0927853
0.0928853
0.092978
0.0930708
0.0931736
0.0932918
0.0934155
0.0935284
0.0936138
0.0936616
0.0936692
0.0936409
0.0935864
0.0935183
0.0934496
0.0933906
0.0933467
0.0933186
0.0933037
0.093298
0.0920015
0.0920048
0.0920132
0.0920295
0.0920569
0.0920992
0.0921595
0.0922392
0.0923368
0.092447
0.0925617
0.0926714
0.0927686
0.0928495
0.0929154
0.0929765
0.0930529
0.0931664
0.0933113
0.0934672
0.0936117
0.093728
0.0938075
0.0938486
0.0938554
0.0938359
0.0938007
0.093761
0.0937254
0.0936992
0.0936835
0.0936768
0.0920167
0.0920198
0.0920278
0.0920428
0.092068
0.0921066
0.0921616
0.0922345
0.0923241
0.0924254
0.0925296
0.0926263
0.0927056
0.0927609
0.0927923
0.0928107
0.0928461
0.0929379
0.0930887
0.0932767
0.0934732
0.0936534
0.0938013
0.0939096
0.0939783
0.0940125
0.0940205
0.0940121
0.0939967
0.0939814
0.0939705
0.0939653
0.0920209
0.0920239
0.0920312
0.0920448
0.0920669
0.0921004
0.0921478
0.0922106
0.0922881
0.0923759
0.0924659
0.0925472
0.0926085
0.0926412
0.0926425
0.0926219
0.0926135
0.0926702
0.0928074
0.0930092
0.0932462
0.0934856
0.0937004
0.0938744
0.0940017
0.0940848
0.0941313
0.094151
0.0941544
0.0941502
0.0941447
0.0941414
0.0920134
0.0920163
0.0920231
0.0920354
0.0920548
0.0920834
0.0921234
0.0921761
0.0922411
0.092315
0.0923907
0.0924584
0.0925067
0.0925261
0.0925121
0.0924717
0.0924377
0.092465
0.0925768
0.0927689
0.0930203
0.0932989
0.0935695
0.0938047
0.0939894
0.0941204
0.0942029
0.0942475
0.0942661
0.0942701
0.0942682
0.0942659
0.0919981
0.0920009
0.0920073
0.0920185
0.0920358
0.0920607
0.0920947
0.092139
0.0921931
0.0922547
0.0923178
0.0923742
0.0924139
0.0924276
0.0924105
0.0923678
0.09233
0.0923469
0.0924414
0.0926167
0.0928615
0.0931516
0.0934528
0.0937317
0.093964
0.0941387
0.0942564
0.0943259
0.0943599
0.0943718
0.0943729
0.0943713
0.0919788
0.0919814
0.0919874
0.0919977
0.0920132
0.0920351
0.0920644
0.0921018
0.0921471
0.0921981
0.0922505
0.0922974
0.0923309
0.0923433
0.0923308
0.0922985
0.0922736
0.092297
0.0923874
0.0925503
0.0927812
0.0930642
0.0933726
0.093674
0.0939389
0.0941488
0.0942981
0.0943919
0.0944418
0.0944623
0.0944668
0.0944659
0.0919612
0.0919634
0.0919684
0.0919771
0.0919905
0.0920095
0.0920347
0.0920665
0.0921045
0.0921468
0.09219
0.0922294
0.0922591
0.0922741
0.0922727
0.0922609
0.0922613
0.0923033
0.0923994
0.0925557
0.0927719
0.0930388
0.0933374
0.0936415
0.0939222
0.0941563
0.0943316
0.0944478
0.0945138
0.0945435
0.0945518
0.0945518
0.0919543
0.0919555
0.0919584
0.0919642
0.0919739
0.0919887
0.0920092
0.0920355
0.0920672
0.0921025
0.0921393
0.0921745
0.0922049
0.0922283
0.0922453
0.0922628
0.092297
0.0923637
0.0924698
0.0926216
0.0928224
0.0930686
0.0933475
0.0936392
0.0939198
0.0941657
0.0943596
0.0944952
0.0945767
0.0946161
0.0946289
0.0946299
0.0919709
0.0919701
0.0919694
0.0919698
0.0919731
0.0919811
0.091995
0.0920154
0.0920416
0.0920727
0.0921074
0.0921446
0.0921833
0.0922232
0.0922663
0.0923188
0.0923892
0.0924808
0.0925962
0.0927424
0.0929254
0.0931465
0.0933989
0.0936685
0.0939361
0.0941813
0.0943852
0.0945358
0.0946316
0.094681
0.0946987
0.0947009
0.0920247
0.0920211
0.0920148
0.0920073
0.0920015
0.0920002
0.0920061
0.0920204
0.0920435
0.092075
0.0921147
0.0921624
0.0922181
0.0922819
0.0923551
0.0924425
0.0925448
0.0926558
0.0927758
0.0929131
0.0930756
0.0932679
0.0934886
0.0937289
0.0939743
0.0942081
0.0944124
0.094572
0.0946795
0.0947386
0.0947617
0.0947654
0.0921278
0.0921206
0.0921074
0.0920911
0.0920756
0.0920654
0.0920645
0.0920757
0.0921005
0.0921392
0.0921915
0.0922569
0.0923348
0.0924243
0.0925252
0.0926401
0.0927639
0.0928848
0.0930028
0.0931274
0.0932671
0.0934289
0.0936146
0.0938203
0.0940366
0.0942502
0.0944456
0.0946068
0.0947222
0.0947898
0.0948184
0.0948239
0.0922885
0.0922771
0.0922575
0.0922346
0.0922138
0.0922003
0.0921988
0.0922135
0.0922465
0.0922979
0.0923666
0.092451
0.0925489
0.0926581
0.092777
0.0929064
0.0930382
0.0931585
0.093268
0.0933764
0.0934926
0.0936238
0.0937739
0.0939425
0.0941244
0.0943108
0.0944889
0.0946438
0.0947617
0.0948355
0.0948692
0.0948767
0.0925107
0.0924953
0.0924726
0.0924503
0.0924341
0.0924279
0.0924355
0.0924609
0.0925061
0.0925706
0.0926525
0.0927492
0.0928576
0.0929744
0.0930974
0.0932266
0.093353
0.0934635
0.0935591
0.0936494
0.0937424
0.0938448
0.0939611
0.0940928
0.0942381
0.0943921
0.0945459
0.0946867
0.0948004
0.0948767
0.0949145
0.0949241
0.0927966
0.0927789
0.0927602
0.0927498
0.0927505
0.0927624
0.0927864
0.0928255
0.0928808
0.0929521
0.0930376
0.0931348
0.0932402
0.0933508
0.0934642
0.0935802
0.0936907
0.0937845
0.093863
0.0939344
0.0940056
0.0940821
0.094168
0.0942656
0.0943752
0.0944945
0.0946186
0.0947384
0.0948412
0.094915
0.0949548
0.0949663
0.0931502
0.0931344
0.0931301
0.0931427
0.0931677
0.0932007
0.0932402
0.0932881
0.0933456
0.0934134
0.0934908
0.0935758
0.093666
0.0937588
0.0938522
0.093946
0.0940338
0.0941069
0.0941667
0.0942198
0.0942712
0.0943252
0.0943851
0.094453
0.09453
0.0946156
0.0947077
0.0948012
0.0948864
0.0949521
0.0949907
0.0950034
0.0935811
0.0935751
0.0935949
0.0936315
0.0936747
0.0937192
0.0937638
0.0938097
0.093859
0.0939132
0.0939727
0.0940365
0.0941032
0.0941709
0.0942384
0.0943053
0.0943672
0.0944182
0.0944594
0.0944952
0.0945292
0.0945642
0.0946025
0.0946458
0.0946949
0.0947502
0.0948113
0.0948758
0.0949382
0.09499
0.0950232
0.0950356
0.0941074
0.0941202
0.0941575
0.0941993
0.0942401
0.094278
0.0943124
0.094345
0.0943774
0.0944113
0.0944475
0.0944858
0.0945254
0.0945654
0.094605
0.094644
0.0946798
0.0947092
0.0947327
0.094753
0.0947719
0.0947911
0.0948118
0.0948351
0.0948615
0.0948914
0.0949248
0.094961
0.0949978
0.0950305
0.0950536
0.0950634
0.0947512
0.0947612
0.0947804
0.0947987
0.0948154
0.0948301
0.0948431
0.0948547
0.0948659
0.0948772
0.0948892
0.0949017
0.0949146
0.0949276
0.0949404
0.094953
0.0949645
0.094974
0.0949815
0.0949879
0.0949939
0.0949999
0.0950064
0.0950136
0.0950217
0.0950309
0.0950412
0.0950525
0.0950643
0.0950752
0.0950835
0.0950876
)
;

boundaryField
{
    movingWall
    {
        type            fixedValue;
        value           uniform 0.0951;
    }
    fixedWalls
    {
        type            zeroGradient;
    }
    floor
    {
        type            zeroGradient;
    }
    frontAndBack
    {
        type            empty;
    }
}


// ************************************************************************* //
