/*--------------------------------*- C++ -*----------------------------------*\
| =========                 |                                                 |
| \\      /  F ield         | OpenFOAM: The Open Source CFD Toolbox           |
|  \\    /   O peration     | Version:  2212                                  |
|   \\  /    A nd           | Website:  www.openfoam.com                      |
|    \\/     M anipulation  |                                                 |
\*---------------------------------------------------------------------------*/
FoamFile
{
    version     2.0;
    format      ascii;
    arch        "LSB;label=64;scalar=64";
    class       volScalarField;
    location    "1800";
    object      Xch;
}
// * * * * * * * * * * * * * * * * * * * * * * * * * * * * * * * * * * * * * //

dimensions      [1 -3 0 0 0 0 0];

internalField   nonuniform List<scalar> 
1024
(
0.0200307
0.0200311
0.020032
0.0200336
0.0200362
0.0200402
0.0200458
0.0200532
0.0200627
0.0200741
0.020087
0.0201008
0.0201146
0.0201276
0.0201391
0.0201485
0.0201544
0.0201561
0.0201541
0.0201491
0.0201418
0.020133
0.0201236
0.0201142
0.0201058
0.0200987
0.0200932
0.0200892
0.0200865
0.0200848
0.0200839
0.0200835
0.0200308
0.0200312
0.0200321
0.0200337
0.0200364
0.0200404
0.020046
0.0200535
0.0200631
0.0200745
0.0200875
0.0201013
0.0201151
0.0201281
0.0201396
0.020149
0.020155
0.0201567
0.0201546
0.0201496
0.0201424
0.0201336
0.0201241
0.0201147
0.0201061
0.020099
0.0200934
0.0200894
0.0200866
0.0200849
0.020084
0.0200836
0.0200311
0.0200315
0.0200324
0.0200341
0.0200368
0.0200409
0.0200466
0.0200543
0.020064
0.0200755
0.0200886
0.0201025
0.0201163
0.0201293
0.0201408
0.0201502
0.0201563
0.020158
0.020156
0.020151
0.0201437
0.0201348
0.0201251
0.0201156
0.0201069
0.0200996
0.0200939
0.0200898
0.020087
0.0200853
0.0200843
0.0200839
0.0200316
0.020032
0.0200329
0.0200347
0.0200375
0.0200417
0.0200476
0.0200555
0.0200655
0.0200773
0.0200905
0.0201045
0.0201183
0.0201313
0.0201429
0.0201524
0.0201586
0.0201605
0.0201586
0.0201534
0.0201459
0.0201367
0.0201268
0.020117
0.0201081
0.0201006
0.0200948
0.0200905
0.0200876
0.0200859
0.0200849
0.0200845
0.0200324
0.0200328
0.0200338
0.0200356
0.0200385
0.020043
0.0200492
0.0200574
0.0200677
0.0200798
0.0200933
0.0201074
0.0201213
0.0201344
0.020146
0.0201557
0.0201622
0.0201645
0.0201627
0.0201573
0.0201492
0.0201395
0.0201291
0.020119
0.0201097
0.020102
0.020096
0.0200916
0.0200886
0.0200868
0.0200858
0.0200854
0.0200335
0.0200339
0.020035
0.0200369
0.02004
0.0200447
0.0200513
0.0200599
0.0200707
0.0200832
0.020097
0.0201113
0.0201254
0.0201386
0.0201504
0.0201605
0.0201677
0.0201705
0.0201688
0.020163
0.0201541
0.0201434
0.0201322
0.0201214
0.0201118
0.0201038
0.0200975
0.020093
0.0200901
0.0200882
0.0200873
0.0200869
0.0200351
0.0200355
0.0200366
0.0200387
0.020042
0.020047
0.020054
0.0200632
0.0200745
0.0200876
0.0201018
0.0201164
0.0201307
0.0201441
0.0201563
0.0201671
0.0201752
0.0201788
0.0201773
0.020171
0.020161
0.0201489
0.0201365
0.0201248
0.0201145
0.0201061
0.0200997
0.0200951
0.0200922
0.0200904
0.0200895
0.0200891
0.0200371
0.0200375
0.0200387
0.0200409
0.0200445
0.0200498
0.0200573
0.0200671
0.0200791
0.0200928
0.0201076
0.0201226
0.0201373
0.0201511
0.020164
0.0201758
0.0201851
0.0201898
0.0201886
0.0201817
0.0201705
0.0201567
0.0201426
0.0201295
0.0201184
0.0201095
0.0201029
0.0200984
0.0200955
0.0200938
0.020093
0.0200927
0.0200396
0.02004
0.0200413
0.0200436
0.0200474
0.0200532
0.0200612
0.0200717
0.0200845
0.020099
0.0201144
0.02013
0.0201451
0.0201596
0.0201734
0.0201865
0.0201974
0.0202033
0.0202029
0.0201959
0.0201836
0.0201682
0.020152
0.0201372
0.0201248
0.0201152
0.0201084
0.0201038
0.020101
0.0200995
0.0200988
0.0200986
0.0200425
0.020043
0.0200443
0.0200468
0.0200509
0.020057
0.0200657
0.0200769
0.0200904
0.0201058
0.020122
0.0201383
0.0201542
0.0201694
0.0201843
0.0201987
0.0202113
0.0202191
0.02022
0.020214
0.0202017
0.0201853
0.0201673
0.0201505
0.0201364
0.0201258
0.0201183
0.0201136
0.0201109
0.0201095
0.020109
0.0201088
0.0200459
0.0200464
0.0200477
0.0200503
0.0200547
0.0200612
0.0200704
0.0200824
0.0200968
0.020113
0.0201301
0.0201472
0.0201638
0.0201799
0.0201957
0.0202114
0.0202256
0.0202356
0.0202393
0.020236
0.0202258
0.0202103
0.020192
0.0201738
0.0201578
0.0201455
0.0201369
0.0201315
0.0201285
0.0201271
0.0201266
0.0201265
0.0200496
0.0200501
0.0200515
0.0200542
0.0200587
0.0200656
0.0200753
0.0200879
0.0201031
0.0201202
0.0201382
0.020156
0.0201733
0.0201898
0.020206
0.0202222
0.0202378
0.0202505
0.0202583
0.02026
0.020255
0.0202438
0.0202281
0.0202106
0.0201939
0.0201799
0.0201695
0.0201626
0.0201586
0.0201567
0.0201559
0.0201557
0.0200535
0.0200541
0.0200555
0.0200582
0.0200628
0.0200699
0.02008
0.0200931
0.0201089
0.0201267
0.0201452
0.0201635
0.0201808
0.020197
0.0202125
0.0202281
0.0202439
0.0202591
0.020272
0.0202807
0.0202836
0.0202803
0.0202715
0.0202587
0.0202442
0.0202303
0.0202187
0.0202102
0.0202046
0.0202015
0.0202
0.0201996
0.0200574
0.020058
0.0200594
0.0200621
0.0200667
0.0200738
0.0200839
0.0200972
0.0201132
0.0201312
0.0201499
0.0201679
0.0201844
0.0201991
0.0202123
0.0202253
0.0202395
0.020256
0.0202734
0.0202894
0.0203016
0.0203084
0.0203094
0.0203053
0.0202974
0.0202875
0.0202775
0.0202688
0.0202624
0.0202583
0.0202561
0.0202553
0.020061
0.0200615
0.0200628
0.0200655
0.0200699
0.0200768
0.0200865
0.0200994
0.020115
0.0201325
0.0201505
0.0201675
0.0201821
0.0201939
0.020203
0.0202111
0.0202213
0.020237
0.0202574
0.0202796
0.0203002
0.0203168
0.0203283
0.0203343
0.0203355
0.0203329
0.0203281
0.0203225
0.0203175
0.0203138
0.0203116
0.0203107
0.0200636
0.0200641
0.0200653
0.0200678
0.0200719
0.0200781
0.020087
0.0200988
0.0201132
0.0201293
0.0201458
0.0201608
0.0201728
0.0201808
0.0201848
0.0201865
0.0201906
0.020203
0.0202242
0.0202509
0.020279
0.0203047
0.0203258
0.0203414
0.0203514
0.0203565
0.020358
0.0203571
0.0203552
0.0203532
0.0203518
0.0203511
0.0200644
0.0200649
0.0200661
0.0200683
0.0200718
0.0200773
0.0200849
0.0200951
0.0201076
0.0201217
0.0201361
0.0201489
0.0201583
0.0201631
0.0201627
0.0201587
0.0201563
0.0201636
0.0201828
0.0202115
0.0202454
0.0202795
0.0203101
0.0203349
0.020353
0.020365
0.0203719
0.0203749
0.0203757
0.0203754
0.0203747
0.0203744
0.0200634
0.0200638
0.0200649
0.0200669
0.02007
0.0200747
0.0200812
0.0200898
0.0201003
0.0201123
0.0201245
0.0201353
0.020143
0.0201459
0.0201434
0.0201366
0.0201304
0.0201334
0.020149
0.0201763
0.0202123
0.0202521
0.0202907
0.0203241
0.0203503
0.0203689
0.0203807
0.0203872
0.02039
0.0203908
0.0203907
0.0203905
0.020061
0.0200615
0.0200625
0.0200643
0.0200671
0.0200712
0.0200767
0.0200839
0.0200928
0.0201029
0.0201132
0.0201223
0.0201288
0.020131
0.0201282
0.0201212
0.0201146
0.020116
0.020129
0.020154
0.020189
0.0202305
0.0202735
0.0203131
0.0203459
0.0203706
0.0203873
0.0203972
0.0204022
0.020404
0.0204043
0.0204042
0.020058
0.0200584
0.0200594
0.020061
0.0200636
0.0200671
0.0200719
0.0200781
0.0200855
0.0200939
0.0201026
0.0201103
0.0201159
0.020118
0.020116
0.0201106
0.020106
0.0201085
0.0201209
0.020144
0.0201771
0.0202176
0.0202616
0.0203044
0.0203419
0.0203715
0.0203925
0.0204057
0.0204129
0.0204159
0.0204166
0.0204166
0.0200551
0.0200555
0.0200563
0.0200577
0.0200599
0.0200631
0.0200672
0.0200725
0.0200787
0.0200857
0.0200929
0.0200995
0.0201045
0.020107
0.0201067
0.0201045
0.0201037
0.020109
0.0201223
0.0201445
0.0201754
0.0202137
0.0202563
0.0202995
0.0203391
0.0203721
0.0203966
0.020413
0.0204223
0.0204265
0.0204278
0.0204279
0.0200538
0.020054
0.0200545
0.0200555
0.0200572
0.0200597
0.0200631
0.0200675
0.0200727
0.0200786
0.0200847
0.0200906
0.0200956
0.0200993
0.0201018
0.020104
0.0201082
0.0201172
0.020132
0.0201536
0.0201824
0.0202176
0.0202574
0.0202988
0.0203384
0.020373
0.0204001
0.0204191
0.0204305
0.0204361
0.020438
0.0204382
0.0200558
0.0200557
0.0200557
0.0200559
0.0200567
0.0200582
0.0200606
0.020064
0.0200684
0.0200736
0.0200793
0.0200853
0.0200914
0.0200975
0.0201038
0.0201111
0.0201208
0.0201335
0.0201498
0.0201706
0.0201967
0.0202284
0.0202644
0.0203027
0.0203405
0.0203749
0.0204034
0.0204244
0.0204377
0.0204447
0.0204472
0.0204476
0.0200632
0.0200628
0.020062
0.020061
0.0200604
0.0200605
0.0200618
0.0200643
0.0200681
0.0200732
0.0200795
0.0200869
0.0200954
0.0201048
0.0201155
0.020128
0.0201424
0.020158
0.020175
0.0201946
0.0202178
0.0202453
0.0202768
0.0203109
0.0203456
0.0203784
0.0204069
0.0204291
0.020444
0.0204523
0.0204555
0.0204561
0.0200778
0.0200768
0.020075
0.0200728
0.0200708
0.0200696
0.0200698
0.0200718
0.0200758
0.0200818
0.0200898
0.0200996
0.0201111
0.0201243
0.0201389
0.0201554
0.0201731
0.0201902
0.020207
0.0202248
0.0202447
0.0202679
0.0202943
0.0203235
0.020354
0.020384
0.0204113
0.0204337
0.0204497
0.020459
0.020463
0.0204638
0.0201007
0.0200991
0.0200963
0.0200932
0.0200904
0.0200886
0.0200887
0.0200911
0.0200962
0.0201039
0.0201141
0.0201266
0.0201409
0.0201568
0.0201741
0.0201927
0.0202115
0.0202287
0.0202443
0.0202598
0.0202764
0.0202951
0.0203165
0.0203404
0.0203661
0.0203922
0.0204171
0.0204386
0.0204549
0.0204651
0.0204698
0.0204708
0.0201323
0.0201302
0.020127
0.0201239
0.0201217
0.020121
0.0201223
0.0201261
0.0201329
0.0201424
0.0201544
0.0201685
0.0201843
0.0202012
0.020219
0.0202376
0.0202557
0.0202715
0.0202852
0.0202981
0.0203114
0.020326
0.0203425
0.0203612
0.0203817
0.0204033
0.0204248
0.0204443
0.02046
0.0204705
0.0204757
0.0204771
0.0201731
0.0201706
0.0201679
0.0201665
0.0201667
0.0201685
0.0201721
0.0201779
0.020186
0.0201964
0.0202088
0.0202229
0.0202382
0.0202542
0.0202706
0.0202873
0.0203031
0.0203165
0.0203278
0.020338
0.0203481
0.020359
0.0203713
0.0203851
0.0204006
0.0204173
0.0204346
0.0204513
0.0204654
0.0204756
0.020481
0.0204826
0.0202234
0.0202211
0.0202206
0.0202224
0.020226
0.0202308
0.0202365
0.0202435
0.0202518
0.0202617
0.0202729
0.0202852
0.0202982
0.0203116
0.0203251
0.0203386
0.0203512
0.0203617
0.0203702
0.0203778
0.0203852
0.0203929
0.0204014
0.020411
0.0204219
0.0204339
0.0204468
0.0204597
0.0204715
0.0204805
0.0204858
0.0204875
0.0202846
0.0202838
0.0202866
0.0202918
0.020298
0.0203044
0.0203108
0.0203174
0.0203246
0.0203324
0.020341
0.0203502
0.0203598
0.0203696
0.0203793
0.020389
0.0203979
0.0204052
0.0204111
0.0204162
0.020421
0.020426
0.0204315
0.0204376
0.0204446
0.0204523
0.0204608
0.0204698
0.0204784
0.0204855
0.02049
0.0204917
0.0203593
0.0203612
0.0203665
0.0203724
0.0203782
0.0203836
0.0203886
0.0203932
0.0203979
0.0204028
0.020408
0.0204135
0.0204193
0.020425
0.0204307
0.0204364
0.0204415
0.0204457
0.0204491
0.020452
0.0204547
0.0204574
0.0204604
0.0204637
0.0204674
0.0204716
0.0204763
0.0204813
0.0204864
0.0204909
0.020494
0.0204953
0.0204506
0.020452
0.0204548
0.0204574
0.0204597
0.0204618
0.0204637
0.0204654
0.020467
0.0204686
0.0204703
0.0204721
0.020474
0.0204759
0.0204777
0.0204795
0.0204812
0.0204825
0.0204836
0.0204845
0.0204854
0.0204862
0.0204872
0.0204882
0.0204893
0.0204906
0.0204921
0.0204936
0.0204953
0.0204968
0.0204979
0.0204984
)
;

boundaryField
{
    movingWall
    {
        type            fixedValue;
        value           uniform 0.0205;
    }
    fixedWalls
    {
        type            zeroGradient;
    }
    floor
    {
        type            zeroGradient;
    }
    frontAndBack
    {
        type            empty;
    }
}


// ************************************************************************* //
