/*--------------------------------*- C++ -*----------------------------------*\
| =========                 |                                                 |
| \\      /  F ield         | OpenFOAM: The Open Source CFD Toolbox           |
|  \\    /   O peration     | Version:  2212                                  |
|   \\  /    A nd           | Website:  www.openfoam.com                      |
|    \\/     M anipulation  |                                                 |
\*---------------------------------------------------------------------------*/
FoamFile
{
    version     2.0;
    format      ascii;
    arch        "LSB;label=64;scalar=64";
    class       volScalarField;
    location    "1800";
    object      Xpr;
}
// * * * * * * * * * * * * * * * * * * * * * * * * * * * * * * * * * * * * * //

dimensions      [1 -3 0 0 0 0 0];

internalField   nonuniform List<scalar> 
1024
(
0.0821915
0.0821931
0.0821969
0.0822039
0.0822151
0.082232
0.0822559
0.0822878
0.0823283
0.082377
0.0824323
0.0824912
0.0825504
0.0826061
0.0826554
0.0826956
0.082721
0.0827281
0.0827194
0.082698
0.082667
0.0826295
0.0825889
0.0825489
0.0825127
0.0824824
0.0824588
0.0824417
0.0824301
0.0824229
0.0824189
0.0824173
0.082192
0.0821936
0.0821974
0.0822045
0.0822159
0.0822329
0.082257
0.0822892
0.08233
0.082379
0.0824344
0.0824935
0.0825526
0.0826083
0.0826576
0.0826978
0.0827233
0.0827305
0.0827218
0.0827005
0.0826694
0.0826318
0.0825911
0.0825508
0.0825143
0.0824837
0.0824598
0.0824425
0.0824308
0.0824235
0.0824195
0.0824179
0.0821932
0.0821948
0.0821987
0.0822059
0.0822175
0.082235
0.0822596
0.0822923
0.0823338
0.0823833
0.0824392
0.0824986
0.0825578
0.0826134
0.0826627
0.082703
0.0827288
0.0827363
0.0827278
0.0827063
0.0826749
0.0826368
0.0825956
0.0825548
0.0825177
0.0824865
0.0824621
0.0824444
0.0824324
0.0824249
0.0824209
0.0824192
0.0821953
0.082197
0.082201
0.0822084
0.0822205
0.0822385
0.0822639
0.0822977
0.0823402
0.0823907
0.0824473
0.0825071
0.0825665
0.0826221
0.0826714
0.0827121
0.0827387
0.082747
0.0827388
0.0827168
0.0826843
0.082645
0.0826027
0.0825609
0.0825228
0.0824908
0.0824657
0.0824474
0.0824351
0.0824275
0.0824234
0.0824217
0.0821987
0.0822004
0.0822046
0.0822123
0.082225
0.0822439
0.0822704
0.0823056
0.0823496
0.0824015
0.0824592
0.0825196
0.0825793
0.0826351
0.0826848
0.0827264
0.0827544
0.0827642
0.0827563
0.0827333
0.0826987
0.082657
0.0826126
0.0825691
0.0825297
0.0824966
0.0824707
0.0824519
0.0824393
0.0824316
0.0824274
0.0824257
0.0822035
0.0822053
0.0822097
0.0822179
0.0822313
0.0822513
0.0822794
0.0823164
0.0823624
0.0824162
0.0824753
0.0825366
0.0825967
0.082653
0.0827037
0.082747
0.0827777
0.0827897
0.0827824
0.0827576
0.0827195
0.0826739
0.082626
0.0825798
0.0825385
0.0825041
0.0824775
0.0824582
0.0824454
0.0824377
0.0824336
0.0824319
0.0822101
0.082212
0.0822167
0.0822254
0.0822397
0.0822611
0.0822911
0.0823303
0.0823788
0.0824348
0.0824957
0.0825583
0.0826194
0.0826767
0.0827291
0.0827754
0.08281
0.0828253
0.0828188
0.0827918
0.0827489
0.0826974
0.0826441
0.082594
0.08255
0.0825141
0.0824867
0.0824672
0.0824545
0.0824469
0.082443
0.0824415
0.0822187
0.0822207
0.0822256
0.082235
0.0822503
0.0822733
0.0823054
0.0823473
0.0823986
0.0824573
0.0825206
0.0825849
0.0826475
0.0827067
0.0827619
0.0828124
0.0828524
0.0828722
0.0828671
0.0828379
0.0827896
0.0827308
0.0826702
0.0826143
0.0825667
0.0825287
0.0825005
0.082481
0.0824686
0.0824615
0.082458
0.0824568
0.0822293
0.0822314
0.0822366
0.0822466
0.082263
0.0822877
0.0823222
0.082367
0.0824216
0.0824835
0.0825496
0.0826164
0.0826812
0.0827432
0.0828022
0.0828581
0.0829047
0.0829303
0.0829283
0.0828985
0.0828459
0.0827797
0.0827106
0.0826471
0.0825941
0.0825532
0.0825238
0.0825042
0.0824924
0.0824859
0.082483
0.0824821
0.0822419
0.0822441
0.0822496
0.0822601
0.0822777
0.0823041
0.082341
0.082389
0.0824471
0.0825127
0.0825821
0.082652
0.0827198
0.0827852
0.0828486
0.0829106
0.0829645
0.0829976
0.0830018
0.0829759
0.0829234
0.0828529
0.0827762
0.0827041
0.0826438
0.0825982
0.0825664
0.0825462
0.0825345
0.0825286
0.0825263
0.0825258
0.0822564
0.0822586
0.0822643
0.0822754
0.0822939
0.082322
0.0823614
0.0824125
0.0824742
0.0825437
0.0826169
0.0826902
0.0827613
0.08283
0.0828975
0.0829647
0.0830258
0.0830686
0.0830844
0.0830701
0.0830266
0.0829603
0.082882
0.0828037
0.0827355
0.0826827
0.0826459
0.0826228
0.08261
0.0826039
0.0826017
0.0826013
0.0822723
0.0822746
0.0822805
0.082292
0.0823113
0.0823408
0.0823822
0.0824362
0.0825014
0.0825746
0.0826515
0.0827279
0.0828016
0.0828723
0.0829416
0.0830112
0.0830778
0.083132
0.0831655
0.0831729
0.0831514
0.0831033
0.0830364
0.0829615
0.0828898
0.0828298
0.0827853
0.082756
0.082739
0.0827306
0.0827272
0.0827265
0.0822891
0.0822914
0.0822974
0.0823091
0.082329
0.0823593
0.0824022
0.0824583
0.0825261
0.0826022
0.0826816
0.0827598
0.0828339
0.0829033
0.0829697
0.0830363
0.083104
0.083169
0.083224
0.0832612
0.0832739
0.0832598
0.0832219
0.0831672
0.0831053
0.0830459
0.0829961
0.0829595
0.0829357
0.0829224
0.0829161
0.0829141
0.0823058
0.0823081
0.0823141
0.0823258
0.0823456
0.082376
0.0824192
0.0824759
0.0825446
0.0826216
0.0827015
0.0827787
0.0828493
0.0829122
0.0829688
0.0830242
0.0830849
0.0831555
0.0832303
0.0832987
0.0833507
0.0833798
0.0833843
0.0833667
0.0833328
0.0832904
0.0832475
0.0832106
0.0831832
0.0831657
0.0831563
0.0831528
0.0823209
0.0823232
0.082329
0.0823403
0.0823593
0.0823886
0.0824304
0.0824853
0.0825523
0.0826272
0.0827043
0.0827767
0.0828394
0.0828898
0.082929
0.0829637
0.0830073
0.0830744
0.0831617
0.0832566
0.0833447
0.083416
0.0834651
0.083491
0.0834959
0.0834848
0.0834641
0.0834403
0.083419
0.0834032
0.0833937
0.0833896
0.082332
0.0823342
0.0823397
0.0823501
0.0823675
0.0823943
0.0824324
0.0824827
0.0825444
0.0826135
0.082684
0.0827483
0.0827996
0.0828338
0.0828509
0.0828583
0.0828756
0.0829289
0.0830197
0.0831341
0.0832539
0.083364
0.0834544
0.083521
0.0835638
0.0835859
0.0835922
0.0835885
0.0835802
0.0835718
0.0835656
0.0835627
0.0823356
0.0823377
0.0823428
0.0823521
0.0823675
0.0823907
0.0824236
0.0824672
0.0825207
0.0825811
0.0826425
0.0826973
0.0827377
0.0827579
0.0827562
0.0827391
0.0827289
0.0827601
0.0828424
0.0829654
0.0831102
0.0832564
0.0833873
0.0834933
0.083571
0.0836223
0.0836515
0.0836648
0.083668
0.0836665
0.0836639
0.0836623
0.0823312
0.0823331
0.0823379
0.0823463
0.0823598
0.0823797
0.0824075
0.0824443
0.0824895
0.0825407
0.082593
0.0826393
0.082672
0.0826844
0.0826737
0.0826445
0.0826183
0.0826311
0.0826976
0.0828147
0.0829686
0.083139
0.083304
0.083447
0.0835592
0.0836387
0.0836893
0.0837171
0.0837293
0.0837327
0.0837322
0.0837312
0.0823211
0.0823231
0.0823275
0.0823353
0.0823473
0.0823646
0.0823884
0.0824193
0.0824572
0.0825002
0.0825444
0.0825837
0.0826112
0.0826206
0.0826086
0.0825785
0.0825503
0.0825566
0.0826123
0.082719
0.082869
0.0830467
0.0832305
0.0833999
0.0835407
0.0836463
0.0837176
0.0837601
0.0837813
0.0837892
0.0837906
0.0837899
0.0823082
0.08231
0.0823141
0.0823213
0.0823321
0.0823474
0.0823679
0.0823942
0.0824261
0.082462
0.082499
0.0825321
0.0825559
0.0825649
0.0825564
0.0825335
0.0825138
0.0825243
0.0825775
0.0826765
0.082818
0.0829915
0.0831798
0.083363
0.0835232
0.0836498
0.0837398
0.0837965
0.083827
0.0838399
0.0838432
0.083843
0.0822959
0.0822974
0.0823009
0.0823071
0.0823166
0.0823299
0.0823477
0.0823702
0.082397
0.082427
0.0824578
0.0824859
0.0825071
0.0825179
0.0825168
0.0825073
0.082504
0.0825265
0.0825834
0.0826784
0.0828109
0.0829745
0.0831569
0.0833417
0.0835114
0.0836524
0.0837576
0.0838274
0.0838673
0.0838856
0.0838911
0.0838914
0.0822901
0.082291
0.0822933
0.0822976
0.0823047
0.0823153
0.08233
0.0823488
0.0823713
0.0823964
0.0824226
0.0824476
0.0824691
0.0824851
0.0824957
0.082505
0.0825233
0.0825618
0.0826251
0.0827175
0.0828405
0.0829914
0.0831617
0.083339
0.0835086
0.0836564
0.0837726
0.0838537
0.0839026
0.0839266
0.0839347
0.0839355
0.0822988
0.0822986
0.0822985
0.0822995
0.0823026
0.0823089
0.0823194
0.0823341
0.0823529
0.0823749
0.0823993
0.082425
0.0824511
0.0824773
0.0825042
0.0825356
0.0825771
0.0826315
0.082701
0.08279
0.0829021
0.0830375
0.0831917
0.0833555
0.0835172
0.0836645
0.0837865
0.0838763
0.0839335
0.0839632
0.0839741
0.0839757
0.0823307
0.0823287
0.0823252
0.0823212
0.0823186
0.0823191
0.0823244
0.0823351
0.0823516
0.0823734
0.0824003
0.0824319
0.0824681
0.0825087
0.0825544
0.0826078
0.0826695
0.0827364
0.0828092
0.0828929
0.0829923
0.0831101
0.0832448
0.0833907
0.083539
0.0836794
0.0838015
0.0838965
0.0839605
0.0839957
0.0840097
0.0840122
0.0823931
0.0823888
0.0823811
0.0823716
0.082363
0.0823578
0.0823586
0.0823672
0.0823843
0.08241
0.0824441
0.0824862
0.0825357
0.0825919
0.0826546
0.0827252
0.0828007
0.0828741
0.0829459
0.083022
0.0831075
0.0832064
0.0833197
0.0834446
0.0835752
0.0837035
0.0838202
0.0839161
0.0839845
0.0840247
0.0840418
0.0840453
0.0824909
0.082484
0.0824723
0.0824588
0.0824467
0.0824394
0.0824396
0.08245
0.0824717
0.0825048
0.0825485
0.0826018
0.0826632
0.0827313
0.082805
0.0828847
0.0829654
0.0830388
0.0831056
0.0831718
0.0832429
0.0833231
0.0834146
0.0835169
0.0836268
0.0837387
0.083845
0.0839371
0.0840068
0.0840505
0.0840705
0.0840752
0.0826264
0.0826171
0.0826034
0.0825902
0.0825808
0.0825777
0.0825833
0.0825999
0.0826287
0.0826694
0.0827208
0.0827812
0.0828487
0.0829213
0.0829974
0.083077
0.0831546
0.0832221
0.0832806
0.0833357
0.0833926
0.0834551
0.083526
0.0836059
0.0836937
0.0837861
0.083878
0.0839616
0.0840288
0.0840738
0.0840961
0.0841019
0.0828007
0.08279
0.0827787
0.0827726
0.0827735
0.0827812
0.0827966
0.0828212
0.0828559
0.0829004
0.0829537
0.083014
0.0830794
0.0831479
0.083218
0.0832895
0.0833574
0.0834148
0.0834629
0.0835065
0.08355
0.0835967
0.0836491
0.0837083
0.0837744
0.0838461
0.0839202
0.0839914
0.084052
0.0840954
0.0841188
0.0841257
0.0830161
0.0830065
0.083004
0.0830119
0.0830274
0.0830478
0.0830724
0.0831022
0.0831379
0.0831799
0.0832279
0.0832805
0.0833363
0.0833937
0.0834514
0.0835093
0.0835632
0.083608
0.0836447
0.0836771
0.0837085
0.0837415
0.0837779
0.0838192
0.0838656
0.083917
0.0839721
0.0840276
0.0840779
0.0841164
0.084139
0.0841465
0.0832782
0.0832746
0.0832867
0.0833091
0.0833355
0.0833629
0.0833903
0.0834187
0.0834491
0.0834826
0.0835194
0.0835589
0.0836
0.0836419
0.0836836
0.0837248
0.0837629
0.0837942
0.0838194
0.0838413
0.0838621
0.0838835
0.0839068
0.083933
0.0839627
0.0839959
0.0840324
0.0840707
0.0841076
0.0841379
0.0841573
0.0841646
0.083598
0.0836057
0.0836284
0.0836539
0.0836788
0.083702
0.0837231
0.0837431
0.0837631
0.083784
0.0838064
0.08383
0.0838544
0.0838792
0.0839036
0.0839277
0.0839497
0.0839677
0.0839822
0.0839945
0.0840061
0.0840178
0.0840305
0.0840446
0.0840605
0.0840785
0.0840985
0.08412
0.0841417
0.0841609
0.0841743
0.08418
0.0839886
0.0839947
0.0840063
0.0840175
0.0840276
0.0840367
0.0840446
0.0840517
0.0840586
0.0840656
0.084073
0.0840807
0.0840886
0.0840967
0.0841046
0.0841124
0.0841195
0.0841252
0.0841299
0.0841338
0.0841375
0.0841411
0.0841451
0.0841494
0.0841544
0.0841599
0.0841661
0.0841728
0.0841797
0.0841861
0.0841909
0.0841933
)
;

boundaryField
{
    movingWall
    {
        type            fixedValue;
        value           uniform 0.0842;
    }
    fixedWalls
    {
        type            zeroGradient;
    }
    floor
    {
        type            zeroGradient;
    }
    frontAndBack
    {
        type            empty;
    }
}


// ************************************************************************* //
