/*--------------------------------*- C++ -*----------------------------------*\
| =========                 |                                                 |
| \\      /  F ield         | OpenFOAM: The Open Source CFD Toolbox           |
|  \\    /   O peration     | Version:  2206                                  |
|   \\  /    A nd           | Website:  www.openfoam.com                      |
|    \\/     M anipulation  |                                                 |
\*---------------------------------------------------------------------------*/
FoamFile
{
    version     2.0;
    format      ascii;
    arch        "LSB;label=64;scalar=64";
    class       volScalarField;
    location    "12";
    object      Gch4_0;
}
// * * * * * * * * * * * * * * * * * * * * * * * * * * * * * * * * * * * * * //

dimensions      [0 0 0 0 0 0 0];

internalField   nonuniform List<scalar> 
1024
(
1.02348e-11
1.0881e-11
1.28887e-11
1.6605e-11
2.2541e-11
3.13703e-11
4.3895e-11
6.09561e-11
8.32628e-11
1.11137e-10
1.442e-10
1.81116e-10
2.19541e-10
2.56368e-10
2.88018e-10
3.09794e-10
3.13597e-10
2.98439e-10
2.71368e-10
2.36908e-10
1.98898e-10
1.6096e-10
1.26034e-10
9.59632e-11
7.14782e-11
5.24604e-11
3.82973e-11
2.81892e-11
2.13537e-11
1.71219e-11
1.49669e-11
1.45071e-11
1.24146e-11
1.31816e-11
1.55718e-11
1.99917e-11
2.70374e-11
3.7491e-11
5.22799e-11
7.23697e-11
9.85665e-11
1.31219e-10
1.69861e-10
2.12916e-10
2.57647e-10
3.00451e-10
3.37198e-10
3.62486e-10
3.66969e-10
3.49484e-10
3.18129e-10
2.78112e-10
2.33864e-10
1.89595e-10
1.48744e-10
1.13491e-10
8.47235e-11
6.23316e-11
4.56226e-11
3.36768e-11
2.55871e-11
2.0572e-11
1.80121e-11
1.74568e-11
1.88319e-11
1.99522e-11
2.34598e-11
2.99334e-11
4.02152e-11
5.54018e-11
7.67816e-11
1.05681e-10
1.43185e-10
1.89721e-10
2.44565e-10
3.05442e-10
3.6848e-10
4.28637e-10
4.80184e-10
5.15666e-10
5.22138e-10
4.97909e-10
4.54128e-10
3.97982e-10
3.35626e-10
2.72972e-10
2.14912e-10
1.64601e-10
1.23381e-10
9.11716e-11
6.70503e-11
4.9751e-11
3.80048e-11
3.07032e-11
2.69603e-11
2.61287e-11
3.31075e-11
3.49932e-11
4.09302e-11
5.18639e-11
6.91574e-11
9.45698e-11
1.30146e-10
1.77965e-10
2.39679e-10
3.15859e-10
4.05208e-10
5.03953e-10
6.05803e-10
7.02684e-10
7.85508e-10
8.42547e-10
8.53298e-10
8.14943e-10
7.44995e-10
6.54777e-10
5.54047e-10
4.52317e-10
3.57574e-10
2.75079e-10
2.0717e-10
1.53869e-10
1.13786e-10
8.49348e-11
6.52824e-11
5.30257e-11
4.67115e-11
4.52723e-11
6.37242e-11
6.71925e-11
7.81787e-11
9.83677e-11
1.30167e-10
1.76655e-10
2.41374e-10
3.27868e-10
4.38883e-10
5.75199e-10
7.34296e-10
9.09327e-10
1.08913e-09
1.25956e-09
1.40493e-09
1.50509e-09
1.52462e-09
1.4584e-09
1.33644e-09
1.17816e-09
1.00045e-09
8.19978e-10
6.51007e-10
5.03124e-10
3.80787e-10
2.84315e-10
2.11456e-10
1.58816e-10
1.22837e-10
1.00318e-10
8.86588e-11
8.59381e-11
1.31379e-10
1.38195e-10
1.5993e-10
1.99784e-10
2.62295e-10
3.53214e-10
4.79087e-10
6.46366e-10
8.59885e-10
1.12069e-09
1.42355e-09
1.75518e-09
2.09438e-09
2.41475e-09
2.68731e-09
2.87525e-09
2.91321e-09
2.79128e-09
2.56437e-09
2.26796e-09
1.93308e-09
1.59099e-09
1.26886e-09
9.85379e-10
7.49633e-10
5.62814e-10
4.21086e-10
3.18282e-10
2.47759e-10
2.03458e-10
1.8041e-10
1.74925e-10
2.89733e-10
3.04016e-10
3.4987e-10
4.33768e-10
5.64806e-10
7.54407e-10
1.01543e-09
1.36035e-09
1.79815e-09
2.32998e-09
2.94435e-09
3.6137e-09
4.29513e-09
4.93614e-09
5.48009e-09
5.8555e-09
5.93417e-09
5.69586e-09
5.24728e-09
4.65703e-09
3.98565e-09
3.29526e-09
2.64099e-09
2.0617e-09
1.57718e-09
1.19116e-09
8.96891e-10
6.82507e-10
5.34858e-10
4.4175e-10
3.93087e-10
3.81328e-10
6.88439e-10
7.20541e-10
8.24362e-10
1.0139e-09
1.30864e-09
1.73285e-09
2.31352e-09
3.07632e-09
4.03888e-09
5.20144e-09
6.53678e-09
7.98357e-09
9.44876e-09
1.08208e-08
1.19818e-08
1.27839e-08
1.29588e-08
1.24623e-08
1.15158e-08
1.02603e-08
8.82118e-09
7.33007e-09
5.90669e-09
4.63776e-09
3.56957e-09
2.71345e-09
2.05728e-09
1.57693e-09
1.24465e-09
1.03426e-09
9.23824e-10
8.96827e-10
1.78059e-09
1.8587e-09
2.11334e-09
2.57714e-09
3.29516e-09
4.32293e-09
5.72141e-09
7.54724e-09
9.83683e-09
1.25848e-08
1.57213e-08
1.90982e-08
2.24977e-08
2.56647e-08
2.83356e-08
3.01832e-08
3.06034e-08
2.94932e-08
2.7346e-08
2.44712e-08
2.11465e-08
1.76719e-08
1.43273e-08
1.13222e-08
8.77393e-09
6.71776e-09
5.13219e-09
3.96512e-09
3.15389e-09
2.63799e-09
2.36604e-09
2.29901e-09
5.06804e-09
5.27577e-09
5.95908e-09
7.20072e-09
9.11401e-09
1.1837e-08
1.5519e-08
2.02944e-08
2.62421e-08
3.33307e-08
4.13637e-08
4.99505e-08
5.8535e-08
6.64849e-08
7.31639e-08
7.779e-08
7.88911e-08
7.6207e-08
7.09272e-08
6.37831e-08
5.54364e-08
4.66254e-08
3.80627e-08
3.02991e-08
2.36602e-08
1.82621e-08
1.40704e-08
1.0966e-08
8.79633e-09
7.40994e-09
6.67607e-09
6.49421e-09
1.60447e-08
1.66542e-08
1.86792e-08
2.23502e-08
2.79792e-08
3.59421e-08
4.66367e-08
6.04078e-08
7.74297e-08
9.75571e-08
1.2018e-07
1.44162e-07
1.67947e-07
1.89821e-07
2.08117e-07
2.20806e-07
2.23977e-07
2.16913e-07
2.0274e-07
1.83329e-07
1.60381e-07
1.35875e-07
1.11795e-07
8.97323e-08
7.06827e-08
5.50557e-08
4.28243e-08
3.37012e-08
2.72857e-08
2.31647e-08
2.0974e-08
2.04295e-08
5.70592e-08
5.9048e-08
6.57308e-08
7.78158e-08
9.62515e-08
1.22161e-07
1.56704e-07
2.00829e-07
2.54908e-07
3.18278e-07
3.88837e-07
4.62921e-07
5.35714e-07
6.02124e-07
6.57383e-07
6.95761e-07
7.05857e-07
6.85515e-07
6.43743e-07
5.85724e-07
5.16201e-07
4.40961e-07
3.6607e-07
2.96622e-07
2.35982e-07
1.85727e-07
1.46028e-07
1.16176e-07
9.50349e-08
8.13755e-08
7.40821e-08
7.2268e-08
2.299e-07
2.37159e-07
2.61876e-07
3.06463e-07
3.74106e-07
4.685e-07
5.93328e-07
7.51364e-07
9.4318e-07
1.16563e-06
1.41064e-06
1.66504e-06
1.91235e-06
2.13587e-06
2.32074e-06
2.44928e-06
2.48496e-06
2.42068e-06
2.285e-06
2.0935e-06
1.86043e-06
1.60429e-06
1.34552e-06
1.10216e-06
8.86896e-07
7.06362e-07
5.62223e-07
4.5281e-07
3.74696e-07
3.2389e-07
2.96634e-07
2.89862e-07
1.05648e-06
1.08622e-06
1.18907e-06
1.37415e-06
1.65327e-06
2.03977e-06
2.54627e-06
3.18105e-06
3.94301e-06
4.81617e-06
5.76581e-06
6.73929e-06
7.67391e-06
8.50956e-06
9.19575e-06
9.67328e-06
9.81328e-06
9.59033e-06
9.1043e-06
8.4057e-06
7.54028e-06
6.57214e-06
5.57706e-06
4.62589e-06
3.77165e-06
3.04525e-06
2.45804e-06
2.00738e-06
1.68262e-06
1.46978e-06
1.355e-06
1.32657e-06
5.55956e-06
5.69619e-06
6.17784e-06
7.04252e-06
8.33824e-06
1.01171e-05
1.24246e-05
1.52832e-05
1.86709e-05
2.24996e-05
2.66033e-05
3.07478e-05
3.46696e-05
3.8132e-05
4.09504e-05
4.29115e-05
4.3518e-05
4.26724e-05
4.07594e-05
3.79531e-05
3.44058e-05
3.03558e-05
2.6109e-05
2.19715e-05
1.81891e-05
1.492e-05
1.22384e-05
1.01538e-05
8.63494e-06
7.6308e-06
7.08607e-06
6.95177e-06
3.35174e-05
3.42177e-05
3.67444e-05
4.12702e-05
4.80047e-05
5.71617e-05
6.89023e-05
8.32535e-05
0.00010001
0.000118645
0.000138281
0.000157768
0.000175897
0.000191659
0.000204349
0.00021316
0.000216019
0.000212542
0.000204348
0.000192059
0.000176171
0.000157603
0.000137674
0.000117819
9.92829e-05
8.29503e-05
6.9318e-05
5.85577e-05
5.06158e-05
4.53108e-05
4.24135e-05
4.17042e-05
0.000216904
0.000220638
0.000234479
0.000259209
0.000295718
0.000344814
0.000406922
0.000481675
0.000567465
0.000661101
0.000757817
0.000851836
0.000937526
0.00101065
0.00106866
0.00110869
0.00112214
0.00110764
0.00107216
0.00101778
0.000945758
0.00085935
0.000764102
0.000666693
0.000573475
0.000489441
0.000417841
0.000360296
0.000317172
0.00028802
0.000271979
0.000268097
0.00121741
0.00123416
0.00129816
0.00141222
0.00157919
0.0018011
0.00207783
0.00240543
0.0027745
0.00316923
0.00356817
0.00394724
0.00428491
0.00456695
0.00478684
0.0049371
0.00498874
0.00493846
0.00481144
0.00461289
0.00434361
0.00401168
0.00363518
0.00323896
0.00284919
0.00248868
0.0021743
0.00191644
0.00171989
0.00158524
0.00151057
0.00149279
0.00516618
0.00522152
0.00544021
0.00582923
0.00639442
0.00713749
0.00805182
0.00911747
0.0102969
0.0115338
0.0127573
0.0138936
0.0148828
0.0156913
0.0163105
0.0167293
0.016876
0.0167469
0.0164107
0.0158763
0.015136
0.0141999
0.0131081
0.0119255
0.0107285
0.00959115
0.00857456
0.00772248
0.00706105
0.00660151
0.00634445
0.00628417
0.0170625
0.017201
0.0177695
0.0187806
0.0202409
0.0221439
0.0244591
0.0271211
0.0300207
0.0330063
0.0358993
0.0385272
0.040763
0.0425517
0.0438977
0.0447987
0.045119
0.0448627
0.0441771
0.0430737
0.0415192
0.0395107
0.0371085
0.0344344
0.0316508
0.028932
0.0264385
0.0243001
0.0226077
0.021414
0.0207399
0.0205838
0.0451163
0.0453866
0.0465448
0.0486092
0.0515822
0.0554343
0.0600833
0.065372
0.0710552
0.0768101
0.0822789
0.0871402
0.0911854
0.0943553
0.0967007
0.0982544
0.0988125
0.0984009
0.0972769
0.0954561
0.0928629
0.0894603
0.0853095
0.0805797
0.0755266
0.0704555
0.0656799
0.0614837
0.0580927
0.0556608
0.0542719
0.0539526
0.0985805
0.0990044
0.100917
0.104348
0.109294
0.115694
0.123387
0.132074
0.141303
0.150505
0.159085
0.166552
0.172635
0.177308
0.180712
0.182945
0.18375
0.18319
0.181643
0.179134
0.175547
0.170804
0.164951
0.158172
0.150773
0.14316
0.135794
0.12915
0.123654
0.119635
0.117307
0.11677
0.183853
0.184402
0.187052
0.191862
0.198847
0.207921
0.218826
0.231076
0.243952
0.256591
0.268153
0.278008
0.285873
0.291807
0.296068
0.298837
0.299834
0.299162
0.297301
0.294295
0.290006
0.284341
0.277338
0.269177
0.260157
0.250684
0.241277
0.232541
0.225109
0.219541
0.216251
0.215476
0.301668
0.302265
0.305441
0.311333
0.320014
0.331393
0.345098
0.36041
0.376311
0.391656
0.405417
0.416909
0.425907
0.432586
0.437323
0.440377
0.441469
0.440734
0.438717
0.43548
0.43089
0.424873
0.417496
0.408959
0.399529
0.389524
0.37936
0.36962
0.361038
0.35439
0.350342
0.349343
0.447143
0.447681
0.451066
0.457574
0.46738
0.480385
0.496061
0.513427
0.531184
0.547993
0.562764
0.574864
0.584176
0.590994
0.59578
0.598842
0.599928
0.599183
0.59717
0.593961
0.589447
0.583591
0.576524
0.568508
0.559816
0.550665
0.54126
0.531959
0.523394
0.516438
0.512001
0.510813
0.611962
0.612342
0.61563
0.622306
0.632643
0.646472
0.663057
0.681163
0.699323
0.716161
0.73067
0.742353
0.751215
0.75763
0.762096
0.764938
0.765934
0.765229
0.763353
0.760384
0.756235
0.750908
0.744592
0.737631
0.730363
0.722972
0.715471
0.707888
0.700533
0.694145
0.68977
0.688446
0.786957
0.787123
0.79013
0.796663
0.807001
0.820802
0.837102
0.854527
0.871624
0.88716
0.900319
0.910764
0.918598
0.924219
0.928108
0.930572
0.931427
0.930801
0.92916
0.926578
0.922987
0.918409
0.913064
0.907343
0.901661
0.896255
0.891073
0.885883
0.880586
0.87555
0.871712
0.870341
0.96391
0.963886
0.966596
0.972805
0.982623
0.995471
1.01026
1.02568
1.04048
1.0537
1.06475
1.07342
1.07987
1.08447
1.08764
1.08964
1.09033
1.08981
1.08846
1.08636
1.08343
1.07971
1.07542
1.07092
1.06667
1.06296
1.05981
1.05693
1.05393
1.05073
1.04787
1.0466
1.13636
1.13627
1.13878
1.14447
1.15314
1.16406
1.17624
1.18863
1.20031
1.21062
1.21914
1.22579
1.23071
1.2342
1.23659
1.2381
1.23862
1.23822
1.23719
1.23559
1.23337
1.23056
1.22731
1.22396
1.22089
1.21843
1.21668
1.21546
1.21436
1.21298
1.21137
1.2104
1.29972
1.29975
1.30209
1.30685
1.31362
1.32176
1.33057
1.33937
1.34757
1.35474
1.36064
1.36522
1.3686
1.37099
1.37263
1.37366
1.37401
1.37373
1.37302
1.37192
1.3704
1.36847
1.36624
1.36394
1.36188
1.36031
1.35937
1.35901
1.35898
1.3589
1.35849
1.358
1.451
1.45128
1.45314
1.45633
1.46053
1.4654
1.47057
1.47567
1.4804
1.48452
1.4879
1.49052
1.49244
1.49381
1.49474
1.49532
1.49552
1.49536
1.49496
1.49433
1.49346
1.49235
1.49108
1.48976
1.48858
1.4877
1.48722
1.48715
1.4874
1.48779
1.48807
1.48808
1.58842
1.58861
1.58934
1.59044
1.59184
1.59343
1.5951
1.59674
1.59826
1.59958
1.60066
1.6015
1.60212
1.60255
1.60285
1.60303
1.6031
1.60305
1.60292
1.60272
1.60244
1.60208
1.60167
1.60125
1.60087
1.60058
1.60043
1.60042
1.60053
1.60073
1.60093
1.60103
)
;

boundaryField
{
    movingWall
    {
        type            fixedValue;
        value           uniform 1.6535;
    }
    fixedWalls
    {
        type            zeroGradient;
    }
    frontAndBack
    {
        type            empty;
    }
}


// ************************************************************************* //
