/*--------------------------------*- C++ -*----------------------------------*\
| =========                 |                                                 |
| \\      /  F ield         | OpenFOAM: The Open Source CFD Toolbox           |
|  \\    /   O peration     | Version:  2206                                  |
|   \\  /    A nd           | Website:  www.openfoam.com                      |
|    \\/     M anipulation  |                                                 |
\*---------------------------------------------------------------------------*/
FoamFile
{
    version     2.0;
    format      ascii;
    arch        "LSB;label=64;scalar=64";
    class       volScalarField;
    location    "12";
    object      Gch4;
}
// * * * * * * * * * * * * * * * * * * * * * * * * * * * * * * * * * * * * * //

dimensions      [0 0 0 0 0 0 0];

internalField   nonuniform List<scalar> 
1024
(
1.84261e-11
1.9549e-11
2.30383e-11
2.94809e-11
3.97377e-11
5.49392e-11
7.64269e-11
1.05602e-10
1.43644e-10
1.91085e-10
2.47294e-10
3.10039e-10
3.75386e-10
4.38086e-10
4.92036e-10
5.29217e-10
5.35874e-10
5.10272e-10
4.64317e-10
4.05737e-10
3.411e-10
2.76566e-10
2.17104e-10
1.65832e-10
1.23995e-10
9.14149e-11
6.70808e-11
4.96635e-11
3.78554e-11
3.0531e-11
2.67949e-11
2.59929e-11
2.22095e-11
2.35343e-11
2.7663e-11
3.52793e-11
4.73811e-11
6.52739e-11
9.04994e-11
1.24659e-10
1.69085e-10
2.24353e-10
2.89688e-10
3.62474e-10
4.38142e-10
5.10637e-10
5.7295e-10
6.15902e-10
6.23707e-10
5.94329e-10
5.41379e-10
4.73711e-10
3.98868e-10
3.2397e-10
2.54801e-10
1.95028e-10
1.46148e-10
1.08004e-10
7.94591e-11
5.89936e-11
4.51e-11
3.64701e-11
3.20577e-11
3.10945e-11
3.33076e-11
3.52207e-11
4.12114e-11
5.22421e-11
6.97075e-11
9.54174e-11
1.31491e-10
1.80105e-10
2.43034e-10
3.20977e-10
4.12746e-10
5.14607e-10
6.20163e-10
7.21023e-10
8.07557e-10
8.67225e-10
8.78372e-10
8.38076e-10
7.64888e-10
6.70911e-10
5.66517e-10
4.61605e-10
3.6432e-10
2.79908e-10
2.10608e-10
1.56323e-10
1.15556e-10
8.62374e-11
6.62817e-11
5.38528e-11
4.74707e-11
4.60434e-11
5.78224e-11
6.10015e-11
7.10125e-11
8.94079e-11
1.18417e-10
1.60904e-10
2.20194e-10
2.99649e-10
4.01948e-10
5.28008e-10
6.75732e-10
8.39001e-10
1.00755e-09
1.16809e-09
1.30552e-09
1.40033e-09
1.41862e-09
1.3556e-09
1.24004e-09
1.09081e-09
9.24158e-10
7.5584e-10
5.98988e-10
4.62239e-10
3.49451e-10
2.60707e-10
1.93787e-10
1.45489e-10
1.12511e-10
9.19031e-11
8.12675e-11
7.88273e-11
1.09896e-10
1.15668e-10
1.33955e-10
1.67488e-10
2.20153e-10
2.96901e-10
4.0341e-10
5.45352e-10
7.27108e-10
9.49926e-10
1.20978e-09
1.49571e-09
1.78971e-09
2.06879e-09
2.30714e-09
2.47167e-09
2.50451e-09
2.39702e-09
2.19796e-09
1.93928e-09
1.64879e-09
1.3538e-09
1.07746e-09
8.35314e-10
6.34617e-10
4.75973e-10
3.55836e-10
2.68807e-10
2.09182e-10
1.71789e-10
1.52393e-10
1.47838e-10
2.23629e-10
2.34821e-10
2.70517e-10
3.35839e-10
4.38013e-10
5.86162e-10
7.90643e-10
1.06164e-09
1.40678e-09
1.82771e-09
2.3162e-09
2.85123e-09
3.39906e-09
3.91724e-09
4.35875e-09
4.66374e-09
4.72675e-09
4.53134e-09
4.16554e-09
3.68706e-09
3.14647e-09
2.59427e-09
2.07405e-09
1.61571e-09
1.23386e-09
9.30558e-10
6.99854e-10
5.32072e-10
4.16705e-10
3.44089e-10
3.06238e-10
2.97175e-10
4.86283e-10
5.09398e-10
5.8363e-10
7.19188e-10
9.30347e-10
1.23497e-09
1.65312e-09
2.20421e-09
2.90221e-09
3.74895e-09
4.72658e-09
5.79209e-09
6.87812e-09
7.90136e-09
8.77097e-09
9.37227e-09
9.50114e-09
9.12435e-09
8.41081e-09
7.47064e-09
6.40124e-09
5.3017e-09
4.2593e-09
3.33541e-09
2.56132e-09
1.9432e-09
1.47079e-09
1.12575e-09
8.87564e-10
7.37065e-10
6.58258e-10
6.39102e-10
1.1377e-09
1.18883e-09
1.35425e-09
1.65569e-09
2.12327e-09
2.79431e-09
3.71028e-09
4.91052e-09
6.42204e-09
8.24532e-09
1.03387e-08
1.2608e-08
1.49092e-08
1.70678e-08
1.88971e-08
2.01634e-08
2.04457e-08
1.96725e-08
1.8189e-08
1.62184e-08
1.39597e-08
1.16199e-08
9.38587e-09
7.39236e-09
5.71148e-09
4.36137e-09
3.32401e-09
2.56273e-09
2.03493e-09
1.70007e-09
1.52397e-09
1.48068e-09
2.89232e-09
3.01455e-09
3.41317e-09
4.13797e-09
5.25732e-09
6.8552e-09
9.02359e-09
1.18478e-08
1.53828e-08
1.96207e-08
2.44565e-08
2.96665e-08
3.49188e-08
3.98209e-08
4.3962e-08
4.68321e-08
4.74992e-08
4.57995e-08
4.2489e-08
3.80503e-08
3.29177e-08
2.75552e-08
2.23929e-08
1.77506e-08
1.38081e-08
1.06202e-08
8.15612e-09
6.33804e-09
5.0715e-09
4.26447e-09
3.83828e-09
3.73267e-09
8.07603e-09
8.39476e-09
9.44355e-09
1.13462e-08
1.42714e-08
1.84237e-08
2.4024e-08
3.1271e-08
4.02814e-08
5.10096e-08
6.31661e-08
7.61715e-08
8.91942e-08
1.01278e-07
1.11447e-07
1.18504e-07
1.20221e-07
1.16189e-07
1.08198e-07
9.73694e-08
8.47195e-08
7.13719e-08
5.84003e-08
4.66311e-08
3.65526e-08
2.83416e-08
2.19511e-08
1.72072e-08
1.38845e-08
1.17574e-08
1.06294e-08
1.03484e-08
2.50281e-08
2.59431e-08
2.89837e-08
3.44872e-08
4.29081e-08
5.47909e-08
7.07115e-08
9.11684e-08
1.16415e-07
1.46243e-07
1.79772e-07
2.15352e-07
2.50701e-07
2.83278e-07
3.10574e-07
3.29545e-07
3.34387e-07
3.24003e-07
3.02996e-07
2.74174e-07
2.40108e-07
2.03749e-07
1.68026e-07
1.35278e-07
1.06966e-07
8.36971e-08
6.54451e-08
5.18009e-08
4.2186e-08
3.59986e-08
3.27037e-08
3.18808e-08
8.69238e-08
8.98371e-08
9.96287e-08
1.1731e-07
1.44228e-07
1.8197e-07
2.32174e-07
2.96178e-07
3.74509e-07
4.66241e-07
5.68408e-07
6.75811e-07
7.8155e-07
8.78228e-07
9.58823e-07
1.01492e-06
1.02998e-06
1.0008e-06
9.40319e-07
8.56145e-07
7.553e-07
6.46233e-07
5.37701e-07
4.37016e-07
3.49001e-07
2.75933e-07
2.18095e-07
1.74509e-07
1.43581e-07
1.23563e-07
1.12856e-07
1.1018e-07
3.41159e-07
3.51508e-07
3.86749e-07
4.50236e-07
5.46365e-07
6.8022e-07
8.56854e-07
1.08007e-06
1.35068e-06
1.66438e-06
2.01005e-06
2.36951e-06
2.7197e-06
3.03694e-06
3.29983e-06
3.48303e-06
3.53496e-06
3.44525e-06
3.25387e-06
2.98315e-06
2.65372e-06
2.29193e-06
1.92659e-06
1.58292e-06
1.27862e-06
1.02301e-06
8.18542e-07
6.63021e-07
5.51778e-07
4.79303e-07
4.40359e-07
4.30638e-07
1.52293e-06
1.56407e-06
1.70633e-06
1.96201e-06
2.34692e-06
2.87882e-06
3.5745e-06
4.44497e-06
5.4888e-06
6.68478e-06
7.98653e-06
9.32324e-06
1.06096e-05
1.17627e-05
1.27113e-05
1.3373e-05
1.35711e-05
1.32696e-05
1.26039e-05
1.16446e-05
1.04562e-05
9.12777e-06
7.76319e-06
6.45867e-06
5.28612e-06
4.28764e-06
3.47904e-06
2.85732e-06
2.40847e-06
2.11386e-06
1.95473e-06
1.91513e-06
7.76167e-06
7.94445e-06
8.58854e-06
9.74352e-06
1.14714e-05
1.38391e-05
1.69051e-05
2.06982e-05
2.519e-05
3.02673e-05
3.57151e-05
4.1228e-05
4.64584e-05
5.10881e-05
5.48643e-05
5.74981e-05
5.83302e-05
5.72268e-05
5.4692e-05
5.09613e-05
4.62451e-05
4.08649e-05
3.52272e-05
2.97349e-05
2.47105e-05
2.03626e-05
1.67902e-05
1.40083e-05
1.19781e-05
1.06339e-05
9.90359e-06
9.72272e-06
4.51698e-05
4.60723e-05
4.93262e-05
5.51484e-05
6.37991e-05
7.55421e-05
9.05756e-05
0.000108932
0.000130357
0.000154195
0.000179349
0.000204371
0.000227715
0.000248068
0.000264486
0.000275914
0.000279705
0.000275351
0.000264892
0.000249143
0.000228773
0.000204985
0.000179473
0.00015406
0.000130323
0.000109385
9.18839e-05
7.80477e-05
6.78202e-05
6.09792e-05
5.72379e-05
5.63176e-05
0.000281249
0.000285866
0.000302961
0.000333476
0.000378466
0.000438884
0.000515223
0.000607041
0.000712415
0.000827532
0.000946657
0.00106278
0.00116894
0.00125979
0.00133201
0.00138196
0.00139915
0.00138183
0.00133842
0.00127153
0.00118285
0.00107654
0.000959444
0.000839725
0.000725113
0.000621696
0.000533468
0.000462459
0.000409173
0.000373108
0.000353239
0.000348405
0.00151713
0.00153698
0.00161266
0.00174742
0.00194449
0.00220613
0.00253217
0.00291807
0.00335307
0.00381901
0.00429106
0.00474104
0.00514326
0.00548023
0.00574344
0.00592378
0.00598739
0.00593025
0.00578149
0.00554746
0.00522962
0.00483804
0.00439424
0.00392736
0.00346797
0.00304274
0.00267152
0.00236667
0.00213403
0.00197451
0.00188593
0.00186471
0.00619906
0.00626198
0.00651
0.00695092
0.00759109
0.00843231
0.00946728
0.0106742
0.0120117
0.0134176
0.0148127
0.0161134
0.01725
0.018182
0.0188971
0.0193821
0.0195569
0.0194171
0.0190393
0.0184343
0.0175945
0.0165333
0.0152965
0.0139576
0.0126024
0.011314
0.0101613
0.0091943
0.00844296
0.00792051
0.00762794
0.00755887
0.0197742
0.0199258
0.0205462
0.0216492
0.0232421
0.0253182
0.0278459
0.0307563
0.033934
0.0372164
0.04041
0.0433241
0.0458143
0.0478132
0.0493201
0.0503315
0.0507021
0.0504367
0.0496944
0.0484894
0.0467885
0.0445923
0.0419684
0.0390498
0.036012
0.0330437
0.0303197
0.0279819
0.0261305
0.0248238
0.024085
0.0239126
0.050705
0.0509913
0.0522132
0.0543911
0.0575291
0.0615995
0.0665205
0.0721329
0.0781847
0.0843393
0.0902169
0.0954691
0.0998608
0.103314
0.105873
0.107574
0.108204
0.107793
0.106614
0.104686
0.101936
0.0983302
0.0939392
0.0889412
0.0836034
0.0782447
0.0731954
0.0687559
0.0651664
0.0625908
0.0611181
0.0607761
0.10794
0.108377
0.110338
0.113857
0.118937
0.125526
0.133468
0.142469
0.152076
0.161705
0.170735
0.178641
0.185114
0.190104
0.193745
0.196138
0.19703
0.196489
0.194906
0.192315
0.188607
0.183714
0.17769
0.170724
0.163126
0.155304
0.14773
0.140894
0.135234
0.131093
0.128691
0.128129
0.19705
0.197602
0.200256
0.20508
0.212102
0.221254
0.232298
0.244765
0.257941
0.270953
0.282933
0.293209
0.301452
0.307694
0.312182
0.315104
0.316192
0.315556
0.31369
0.310645
0.306302
0.300583
0.29354
0.285355
0.276318
0.266821
0.257376
0.248592
0.241109
0.235496
0.232173
0.231377
0.317848
0.318435
0.321556
0.327363
0.33595
0.347255
0.360943
0.376325
0.392399
0.408013
0.422109
0.433959
0.443286
0.450234
0.455166
0.458351
0.459529
0.458845
0.45685
0.453619
0.449043
0.443072
0.435796
0.427413
0.418173
0.408362
0.398372
0.388769
0.380285
0.373697
0.369674
0.368661
0.464863
0.46538
0.468656
0.474986
0.484574
0.49736
0.512868
0.530156
0.547953
0.564917
0.579927
0.592304
0.601882
0.608915
0.613856
0.617024
0.618185
0.617498
0.615526
0.612357
0.607908
0.602174
0.595311
0.587584
0.579244
0.570464
0.561408
0.552403
0.544068
0.537267
0.532908
0.531714
0.629649
0.630003
0.633147
0.639581
0.64961
0.663116
0.679419
0.697337
0.715431
0.732327
0.746989
0.758872
0.767935
0.774516
0.779099
0.782019
0.783079
0.782432
0.780607
0.777696
0.773639
0.768472
0.762412
0.755807
0.748971
0.742042
0.734983
0.727783
0.720734
0.71456
0.710297
0.708975
0.803255
0.803395
0.806247
0.81251
0.822497
0.835921
0.85188
0.869055
0.886022
0.90155
0.914795
0.925379
0.933359
0.939101
0.943075
0.945596
0.946502
0.945929
0.94434
0.941821
0.938328
0.933916
0.92883
0.923468
0.91822
0.913279
0.908543
0.903743
0.898759
0.893949
0.890236
0.888874
0.977838
0.977793
0.980355
0.986298
0.995766
1.00824
1.02268
1.03783
1.05248
1.06566
1.07675
1.08552
1.09207
1.09676
1.09998
1.10202
1.10275
1.10228
1.10098
1.09893
1.09609
1.09252
1.08846
1.08428
1.0804
1.0771
1.07434
1.0718
1.06907
1.06606
1.06331
1.06205
1.14733
1.14722
1.1496
1.15505
1.16341
1.174
1.18587
1.19803
1.20957
1.21982
1.22837
1.23507
1.24006
1.24361
1.24604
1.24758
1.24812
1.24776
1.24677
1.24521
1.24307
1.24037
1.23731
1.2342
1.23144
1.2293
1.22785
1.22688
1.22597
1.22473
1.22321
1.22225
1.30746
1.30748
1.30972
1.31429
1.32081
1.3287
1.33728
1.34591
1.354
1.36112
1.36703
1.37164
1.37506
1.37749
1.37915
1.3802
1.38057
1.38032
1.37964
1.37857
1.3771
1.37525
1.37315
1.37103
1.36918
1.36783
1.36709
1.3669
1.36699
1.367
1.36663
1.36615
1.45552
1.45579
1.45757
1.46064
1.46469
1.46941
1.47444
1.47944
1.4841
1.48819
1.49157
1.49421
1.49616
1.49754
1.49848
1.49908
1.49929
1.49914
1.49875
1.49814
1.4973
1.49625
1.49504
1.49383
1.49277
1.49202
1.49165
1.49168
1.492
1.49242
1.49272
1.49272
1.58989
1.59007
1.59077
1.59184
1.59318
1.59472
1.59634
1.59795
1.59945
1.60076
1.60184
1.60269
1.60331
1.60375
1.60405
1.60424
1.60431
1.60426
1.60414
1.60394
1.60367
1.60333
1.60295
1.60256
1.60222
1.60197
1.60186
1.60188
1.60201
1.60222
1.60242
1.60252
)
;

boundaryField
{
    movingWall
    {
        type            fixedValue;
        value           uniform 1.6535;
    }
    fixedWalls
    {
        type            zeroGradient;
    }
    frontAndBack
    {
        type            empty;
    }
}


// ************************************************************************* //
