/*--------------------------------*- C++ -*----------------------------------*\
| =========                 |                                                 |
| \\      /  F ield         | OpenFOAM: The Open Source CFD Toolbox           |
|  \\    /   O peration     | Version:  2206                                  |
|   \\  /    A nd           | Website:  www.openfoam.com                      |
|    \\/     M anipulation  |                                                 |
\*---------------------------------------------------------------------------*/
FoamFile
{
    version     2.0;
    format      ascii;
    arch        "LSB;label=64;scalar=64";
    class       surfaceScalarField;
    location    "12";
    object      phi;
}
// * * * * * * * * * * * * * * * * * * * * * * * * * * * * * * * * * * * * * //

dimensions      [0 3 -1 0 0 0 0];

oriented        oriented;

internalField   nonuniform List<scalar> 
1984
(
2.87869e-12
-2.8865e-12
-3.34245e-12
6.22082e-12
-2.72637e-11
2.39208e-11
-7.2265e-11
4.50008e-11
-1.38104e-10
6.5838e-11
-2.22516e-10
8.44117e-11
-3.22939e-10
1.00423e-10
-4.3777e-10
1.1483e-10
-5.66351e-10
1.2858e-10
-7.07948e-10
1.41597e-10
-8.60566e-10
1.52617e-10
-1.01984e-09
1.59274e-10
-1.17785e-09
1.58008e-10
-1.32156e-09
1.43716e-10
-1.43125e-09
1.09684e-10
-1.47825e-09
4.70028e-11
-1.43754e-09
-4.07145e-11
-1.33216e-09
-1.05382e-10
-1.19067e-09
-1.41484e-10
-1.0332e-09
-1.57471e-10
-8.73275e-10
-1.5993e-10
-7.19275e-10
-1.54002e-10
-5.75927e-10
-1.43349e-10
-4.45483e-10
-1.30445e-10
-3.28842e-10
-1.16641e-10
-2.26771e-10
-1.02072e-10
-1.40941e-10
-8.58314e-11
-7.39549e-11
-6.69869e-11
-2.80999e-11
-4.58559e-11
-3.62829e-12
-2.44723e-11
2.84867e-12
-6.47763e-12
2.84843e-12
-6.21362e-12
3.32686e-12
-4.23124e-11
4.23192e-11
-1.26871e-10
1.08478e-10
-2.7074e-10
1.8887e-10
-4.76514e-10
2.71611e-10
-7.40369e-10
3.48266e-10
-1.05611e-09
4.16158e-10
-1.41896e-09
4.7768e-10
-1.8263e-09
5.35923e-10
-2.27523e-09
5.90525e-10
-2.75903e-09
6.36419e-10
-3.26366e-09
6.63904e-10
-3.76381e-09
6.58155e-10
-4.21818e-09
5.98081e-10
-4.56391e-09
4.55418e-10
-4.71078e-09
1.93864e-10
-4.58127e-09
-1.70228e-10
-4.24745e-09
-4.39205e-10
-3.79929e-09
-5.89641e-10
-3.30067e-09
-6.5609e-10
-2.79427e-09
-6.66331e-10
-2.30668e-09
-6.41593e-10
-1.85295e-09
-5.97087e-10
-1.44048e-09
-5.42914e-10
-1.07266e-09
-4.84468e-10
-7.52393e-10
-4.22336e-10
-4.84648e-10
-3.53577e-10
-2.7573e-10
-2.75907e-10
-1.29509e-10
-1.92077e-10
-4.33908e-11
-1.10592e-10
-6.45633e-12
-4.3413e-11
-3.60813e-12
-2.38974e-11
2.72241e-11
-1.0849e-10
1.26911e-10
-2.74823e-10
2.74812e-10
-5.39315e-10
4.5336e-10
-9.08675e-10
6.40971e-10
-1.37984e-09
8.19427e-10
-1.94465e-09
9.80967e-10
-2.59564e-09
1.12867e-09
-3.32783e-09
1.26812e-09
-4.13534e-09
1.39803e-09
-5.00557e-09
1.50665e-09
-5.91293e-09
1.57127e-09
-6.81167e-09
1.55689e-09
-7.62741e-09
1.41383e-09
-8.24697e-09
1.07497e-09
-8.50862e-09
4.55515e-10
-8.27463e-09
-4.04221e-10
-7.67408e-09
-1.03975e-09
-6.86827e-09
-1.39545e-09
-5.97202e-09
-1.55235e-09
-5.06187e-09
-1.57648e-09
-4.18564e-09
-1.51783e-09
-3.3705e-09
-1.41223e-09
-2.63016e-09
-1.28325e-09
-1.97127e-09
-1.14336e-09
-1.39928e-09
-9.94326e-10
-9.21957e-10
-8.30901e-10
-5.47613e-10
-6.50252e-10
-2.79364e-10
-4.60327e-10
-1.10464e-10
-2.79493e-10
-2.4399e-11
-1.29479e-10
-2.80073e-11
-4.5057e-11
7.22808e-11
-1.89356e-10
2.7121e-10
-4.54586e-10
5.40041e-10
-8.59305e-10
8.58078e-10
-1.41281e-09
1.19448e-09
-2.11331e-09
1.51993e-09
-2.9521e-09
1.81975e-09
-3.92005e-09
2.09663e-09
-5.01006e-09
2.35812e-09
-6.21285e-09
2.60083e-09
-7.50912e-09
2.80291e-09
-8.8603e-09
2.92245e-09
-1.0198e-08
2.89455e-09
-1.14112e-08
2.62707e-09
-1.23314e-08
1.9952e-09
-1.27184e-08
8.42473e-10
-1.23683e-08
-7.54354e-10
-1.14734e-08
-1.93466e-09
-1.02733e-08
-2.59547e-09
-8.93898e-09
-2.8867e-09
-7.58411e-09
-2.93135e-09
-6.27987e-09
-2.82207e-09
-5.06693e-09
-2.62517e-09
-3.9661e-09
-2.38408e-09
-2.98766e-09
-2.12181e-09
-2.13935e-09
-1.84263e-09
-1.43069e-09
-1.53957e-09
-8.70574e-10
-1.21037e-09
-4.60838e-10
-8.70064e-10
-1.92124e-10
-5.48207e-10
-4.57723e-11
-2.75832e-10
-7.37797e-11
-6.62939e-11
1.38574e-10
-2.73957e-10
4.78872e-10
-6.46772e-10
9.12856e-10
-1.20401e-09
1.41532e-09
-1.95539e-09
1.94585e-09
-2.89921e-09
2.46375e-09
-4.02639e-09
2.94693e-09
-5.32696e-09
3.3972e-09
-6.79227e-09
3.82343e-09
-8.40971e-09
4.21827e-09
-1.01528e-08
4.54603e-09
-1.19693e-08
4.73894e-09
-1.37669e-08
4.69209e-09
-1.53962e-08
4.25637e-09
-1.66307e-08
3.22975e-09
-1.71482e-08
1.36e-09
-1.66758e-08
-1.22684e-09
-1.54721e-08
-3.13828e-09
-1.3859e-08
-4.20861e-09
-1.20655e-08
-4.68021e-09
-1.02445e-08
-4.75236e-09
-8.4916e-09
-4.57495e-09
-6.86174e-09
-4.25503e-09
-5.3832e-09
-3.86262e-09
-4.0698e-09
-3.43521e-09
-2.93099e-09
-2.98145e-09
-1.97721e-09
-2.49334e-09
-1.21778e-09
-1.9698e-09
-6.54415e-10
-1.43343e-09
-2.77335e-10
-9.25288e-10
-6.71598e-11
-4.86008e-10
-1.4094e-10
-8.59812e-11
2.24555e-10
-3.55498e-10
7.48388e-10
-8.37072e-10
1.39443e-09
-1.55147e-09
2.12972e-09
-2.50775e-09
2.90212e-09
-3.70275e-09
3.65875e-09
-5.12607e-09
4.37024e-09
-6.76683e-09
5.03796e-09
-8.61523e-09
5.67182e-09
-1.06556e-08
6.25864e-09
-1.28543e-08
6.74471e-09
-1.51449e-08
7.02954e-09
-1.74107e-08
6.95787e-09
-1.94632e-08
6.30894e-09
-2.10174e-08
4.78392e-09
-2.16677e-08
2.01033e-09
-2.10707e-08
-1.82387e-09
-1.95531e-08
-4.65588e-09
-1.75196e-08
-6.24208e-09
-1.52586e-08
-6.94124e-09
-1.29626e-08
-7.04834e-09
-1.07524e-08
-6.78522e-09
-8.69728e-09
-6.31013e-09
-6.83318e-09
-5.72672e-09
-5.1772e-09
-5.0912e-09
-3.7401e-09
-4.41855e-09
-2.53332e-09
-3.70013e-09
-1.56752e-09
-2.93559e-09
-8.45927e-10
-2.15503e-09
-3.59374e-10
-1.41184e-09
-8.69598e-11
-7.58423e-10
-2.279e-10
-1.04459e-10
3.29013e-10
-4.34005e-10
1.07793e-09
-1.02417e-09
1.98459e-09
-1.89904e-09
3.00459e-09
-3.06745e-09
4.07053e-09
-4.52384e-09
5.11514e-09
-6.25516e-09
6.10157e-09
-8.24886e-09
7.03166e-09
-1.04938e-08
7.91674e-09
-1.29712e-08
8.73609e-09
-1.56402e-08
9.41371e-09
-1.84198e-08
9.80914e-09
-2.11681e-08
9.70612e-09
-2.36564e-08
8.79724e-09
-2.55396e-08
6.66711e-09
-2.63272e-08
2.79791e-09
-2.56029e-08
-2.5481e-09
-2.37632e-08
-6.4956e-09
-2.12977e-08
-8.70763e-09
-1.85551e-08
-9.68382e-09
-1.57691e-08
-9.83433e-09
-1.30863e-08
-9.46802e-09
-1.05913e-08
-8.80515e-09
-8.32761e-09
-7.99038e-09
-6.31573e-09
-7.10308e-09
-4.56794e-09
-6.16633e-09
-3.0975e-09
-5.17057e-09
-1.9178e-09
-4.11529e-09
-1.03444e-09
-3.0384e-09
-4.38457e-10
-2.00783e-09
-1.05569e-10
-1.09131e-09
-3.33468e-10
-1.23723e-10
4.52736e-10
-5.16238e-10
1.47045e-09
-1.22156e-09
2.68991e-09
-2.26885e-09
4.05188e-09
-3.66782e-09
5.4695e-09
-5.41046e-09
6.85778e-09
-7.48007e-09
8.17118e-09
-9.86128e-09
9.41288e-09
-1.25409e-08
1.05963e-08
-1.54966e-08
1.16918e-08
-1.86793e-08
1.25965e-08
-2.19923e-08
1.31221e-08
-2.52658e-08
1.29797e-08
-2.82279e-08
1.17593e-08
-3.04687e-08
8.90794e-09
-3.14064e-08
3.73564e-09
-3.05461e-08
-3.40843e-09
-2.83585e-08
-8.68321e-09
-2.54244e-08
-1.16417e-08
-2.21579e-08
-1.29503e-08
-1.88373e-08
-1.3155e-08
-1.56376e-08
-1.26677e-08
-1.26604e-08
-1.17824e-08
-9.95773e-09
-1.0693e-08
-7.55414e-09
-9.50667e-09
-5.46427e-09
-8.25621e-09
-3.70438e-09
-6.93046e-09
-2.29157e-09
-5.5281e-09
-1.23393e-09
-4.09604e-09
-5.21567e-10
-2.72018e-09
-1.25042e-10
-1.48784e-09
-4.5851e-10
-1.46401e-10
5.99136e-10
-6.12364e-10
1.93641e-09
-1.45164e-09
3.52918e-09
-2.69984e-09
5.30008e-09
-4.36857e-09
7.13824e-09
-6.44752e-09
8.93673e-09
-8.91571e-09
1.06394e-08
-1.17538e-08
1.2251e-08
-1.49455e-08
1.3788e-08
-1.84637e-08
1.521e-08
-2.22495e-08
1.63822e-08
-2.61867e-08
1.70593e-08
-3.00737e-08
1.68667e-08
-3.35875e-08
1.52731e-08
-3.62444e-08
1.15648e-08
-3.73579e-08
4.84914e-09
-3.63424e-08
-4.42388e-09
-3.37532e-08
-1.12724e-08
-3.02752e-08
-1.51197e-08
-2.63976e-08
-1.68279e-08
-2.24507e-08
-1.71018e-08
-1.86436e-08
-1.64748e-08
-1.5098e-08
-1.53281e-08
-1.18769e-08
-1.39141e-08
-9.01016e-09
-1.23734e-08
-6.51607e-09
-1.07503e-08
-4.41506e-09
-9.03147e-09
-2.72867e-09
-7.21449e-09
-1.4673e-09
-5.35742e-09
-6.19096e-10
-3.56839e-09
-1.48062e-10
-1.95887e-09
-6.06573e-10
-1.75146e-10
7.7428e-10
-7.33458e-10
2.49472e-09
-1.74029e-09
4.53602e-09
-3.23914e-09
6.79893e-09
-5.24421e-09
9.14331e-09
-7.74273e-09
1.14352e-08
-1.07086e-08
1.36052e-08
-1.41173e-08
1.56598e-08
-1.7948e-08
1.76186e-08
-2.21668e-08
1.94289e-08
-2.67016e-08
2.0917e-08
-3.14119e-08
2.17696e-08
-3.60554e-08
2.15102e-08
-4.02472e-08
1.94649e-08
-4.34139e-08
1.47315e-08
-4.4744e-08
6.17922e-09
-4.35428e-08
-5.62504e-09
-4.04655e-08
-1.43497e-08
-3.63216e-08
-1.92636e-08
-3.16911e-08
-2.14584e-08
-2.69687e-08
-2.18243e-08
-2.24059e-08
-2.10375e-08
-1.81508e-08
-1.95832e-08
-1.42811e-08
-1.77838e-08
-1.08343e-08
-1.58202e-08
-7.83399e-09
-1.37506e-08
-5.30608e-09
-1.15594e-08
-3.2775e-09
-9.24307e-09
-1.76111e-09
-6.87381e-09
-7.42403e-10
-4.5871e-09
-1.77353e-10
-2.52392e-09
-7.83926e-10
-2.13072e-10
9.87351e-10
-8.92796e-10
3.17444e-09
-2.11928e-09
5.7625e-09
-3.94593e-09
8.62558e-09
-6.39015e-09
1.15875e-08
-9.43596e-09
1.44811e-08
-1.30505e-08
1.72197e-08
-1.72025e-08
1.98117e-08
-2.18641e-08
2.22803e-08
-2.69918e-08
2.45566e-08
-3.24948e-08
2.64199e-08
-3.81997e-08
2.74746e-08
-4.38114e-08
2.71219e-08
-4.88663e-08
2.45197e-08
-5.26795e-08
1.85447e-08
-5.42856e-08
7.78539e-09
-5.28556e-08
-7.05507e-09
-4.91656e-08
-1.80397e-08
-4.41776e-08
-2.42516e-08
-3.85851e-08
-2.7051e-08
-3.28644e-08
-2.7545e-08
-2.73235e-08
-2.65784e-08
-2.2146e-08
-2.47607e-08
-1.74303e-08
-2.24995e-08
-1.32256e-08
-2.0025e-08
-9.56304e-09
-1.74132e-08
-6.47631e-09
-1.46461e-08
-3.99935e-09
-1.172e-08
-2.14828e-09
-8.72488e-09
-9.05254e-10
-5.83013e-09
-2.16146e-10
-3.21303e-09
-1.00007e-09
-2.64833e-10
1.25218e-09
-1.11003e-09
4.01963e-09
-2.63547e-09
7.28795e-09
-4.90765e-09
1.08978e-08
-7.94793e-09
1.46278e-08
-1.17356e-08
1.82687e-08
-1.62282e-08
2.17123e-08
-2.13842e-08
2.49677e-08
-2.71655e-08
2.80617e-08
-3.35133e-08
3.09043e-08
-4.03094e-08
3.32159e-08
-4.73343e-08
3.44996e-08
-5.42215e-08
3.40091e-08
-6.04045e-08
3.07028e-08
-6.50578e-08
2.31979e-08
-6.7025e-08
9.75265e-09
-6.53083e-08
-8.77177e-09
-6.0832e-08
-2.25161e-08
-5.4747e-08
-3.03367e-08
-4.78899e-08
-3.39081e-08
-4.08444e-08
-3.45905e-08
-3.39949e-08
-3.34279e-08
-2.75758e-08
-3.11798e-08
-2.17164e-08
-2.83588e-08
-1.64837e-08
-2.52577e-08
-1.19212e-08
-2.19757e-08
-8.07382e-09
-1.84935e-08
-4.9857e-09
-1.48082e-08
-2.67784e-09
-1.10327e-08
-1.12823e-09
-7.37974e-09
-2.69324e-10
-4.07194e-09
-1.2694e-09
-3.38144e-10
1.59033e-09
-1.4176e-09
5.09909e-09
-3.36596e-09
9.23631e-09
-6.26776e-09
1.37996e-08
-1.01493e-08
1.85094e-08
-1.49823e-08
2.31017e-08
-2.07095e-08
2.74394e-08
-2.72731e-08
3.15313e-08
-3.46177e-08
3.54063e-08
-4.26593e-08
3.8946e-08
-5.12375e-08
4.17941e-08
-6.00649e-08
4.33269e-08
-6.86749e-08
4.2619e-08
-7.63648e-08
3.83927e-08
-8.21305e-08
2.89636e-08
-8.45796e-08
1.22017e-08
-8.2502e-08
-1.08493e-08
-7.70022e-08
-2.80159e-08
-6.94636e-08
-3.78752e-08
-6.09042e-08
-4.24675e-08
-5.20504e-08
-4.34443e-08
-4.33944e-08
-4.20839e-08
-3.52459e-08
-3.93283e-08
-2.7783e-08
-3.58217e-08
-2.11023e-08
-3.19384e-08
-1.52679e-08
-2.78101e-08
-1.0343e-08
-2.34183e-08
-6.38785e-09
-1.87634e-08
-3.43112e-09
-1.39895e-08
-1.44558e-09
-9.36528e-09
-3.45044e-10
-5.17247e-09
-1.61444e-09
-4.46526e-10
2.03685e-09
-1.87205e-09
6.52461e-09
-4.44469e-09
1.18089e-08
-8.27487e-09
1.76297e-08
-1.3395e-08
2.36295e-08
-1.97638e-08
2.94705e-08
-2.72993e-08
3.49748e-08
-3.59155e-08
4.01476e-08
-4.55258e-08
4.50166e-08
-5.60015e-08
4.94217e-08
-6.71119e-08
5.29046e-08
-7.84647e-08
5.46797e-08
-8.94493e-08
5.36036e-08
-9.91811e-08
4.81245e-08
-1.06434e-07
3.62166e-08
-1.09534e-07
1.53013e-08
-1.07009e-07
-1.33743e-08
-1.00174e-07
-3.48501e-08
-9.06901e-08
-4.73596e-08
-7.97973e-08
-5.33604e-08
-6.84132e-08
-5.48283e-08
-5.7186e-08
-5.33111e-08
-4.65434e-08
-4.99709e-08
-3.67444e-08
-4.56207e-08
-2.79391e-08
-4.07437e-08
-2.02294e-08
-3.55198e-08
-1.37108e-08
-2.99369e-08
-8.47052e-09
-2.40037e-08
-4.55075e-09
-1.79093e-08
-1.91755e-09
-1.19985e-08
-4.57733e-10
-6.63229e-09
-2.07217e-09
-6.14765e-10
2.65162e-09
-2.5774e-09
8.48724e-09
-6.11819e-09
1.53497e-08
-1.13862e-08
2.28978e-08
-1.84207e-08
3.06641e-08
-2.71558e-08
3.82056e-08
-3.74641e-08
4.52832e-08
-4.92063e-08
5.18897e-08
-6.22327e-08
5.8043e-08
-7.63292e-08
6.35181e-08
-9.11399e-08
6.77154e-08
-1.06101e-07
6.96411e-08
-1.20391e-07
6.78935e-08
-1.32887e-07
6.06207e-08
-1.4211e-07
4.54391e-08
-1.46082e-07
1.92734e-08
-1.43035e-07
-1.6421e-08
-1.34505e-07
-4.338e-08
-1.2244e-07
-5.94252e-08
-1.08332e-07
-6.74682e-08
-9.33454e-08
-6.98148e-08
-7.83578e-08
-6.82987e-08
-6.39892e-08
-6.43395e-08
-5.06448e-08
-5.89651e-08
-3.85781e-08
-5.28104e-08
-2.79674e-08
-4.61305e-08
-1.89713e-08
-3.8933e-08
-1.17268e-08
-3.12481e-08
-6.30243e-09
-2.33336e-08
-2.65623e-09
-1.56447e-08
-6.34125e-10
-8.65439e-09
-2.7063e-09
-8.92462e-10
3.54408e-09
-3.74138e-09
1.13362e-08
-8.87791e-09
2.04863e-08
-1.65108e-08
3.05307e-08
-2.6683e-08
4.08363e-08
-3.92761e-08
5.07986e-08
-5.40702e-08
6.00773e-08
-7.08112e-08
6.86307e-08
-8.92119e-08
7.64438e-08
-1.08877e-07
8.31834e-08
-1.29211e-07
8.80497e-08
-1.49359e-07
8.97887e-08
-1.68188e-07
8.67223e-08
-1.84297e-07
7.67295e-08
-1.95988e-07
5.71302e-08
-2.01076e-07
2.43617e-08
-1.97534e-07
-1.99632e-08
-1.87045e-07
-5.38691e-08
-1.7174e-07
-7.47302e-08
-1.5331e-07
-8.58984e-08
-1.33194e-07
-8.993e-08
-1.12602e-07
-8.88916e-08
-9.24785e-08
-8.44625e-08
-7.35114e-08
-7.79322e-08
-5.61733e-08
-7.01485e-08
-4.08126e-08
-6.14912e-08
-2.77256e-08
-5.202e-08
-1.7155e-08
-4.18188e-08
-9.22547e-09
-3.12631e-08
-3.88959e-09
-2.09806e-08
-9.28704e-10
-1.16153e-08
-3.635e-09
-1.19002e-09
4.73411e-09
-4.98357e-09
1.51297e-08
-1.18129e-08
2.73156e-08
-2.19388e-08
4.06565e-08
-3.53877e-08
5.42852e-08
-5.19513e-08
6.73623e-08
-7.12598e-08
7.93857e-08
-9.28636e-08
9.02345e-08
-1.16235e-07
9.98147e-08
-1.40684e-07
1.07633e-07
-1.65286e-07
1.12652e-07
-1.88874e-07
1.13376e-07
-2.10114e-07
1.07962e-07
-2.27616e-07
9.42312e-08
-2.39951e-07
6.94654e-08
-2.45397e-07
2.98082e-08
-2.42205e-07
-2.31557e-08
-2.31721e-07
-6.43527e-08
-2.15586e-07
-9.08652e-08
-1.95159e-07
-1.06325e-07
-1.71818e-07
-1.13271e-07
-1.46954e-07
-1.13756e-07
-1.21849e-07
-1.09567e-07
-9.7576e-08
-1.02205e-07
-7.4967e-08
-9.27575e-08
-5.46744e-08
-8.17838e-08
-3.72386e-08
-6.94559e-08
-2.30813e-08
-5.5976e-08
-1.24279e-08
-4.19166e-08
-5.24508e-09
-2.81634e-08
-1.25378e-09
-1.56066e-08
-4.88878e-09
-1.4208e-09
6.15491e-09
-5.94215e-09
1.96511e-08
-1.40639e-08
3.54374e-08
-2.60652e-08
5.26578e-08
-4.1919e-08
7.0139e-08
-6.12816e-08
8.67249e-08
-8.35695e-08
1.01674e-07
-1.08052e-07
1.14717e-07
-1.33867e-07
1.2563e-07
-1.59968e-07
1.33734e-07
-1.85119e-07
1.37803e-07
-2.08002e-07
1.36259e-07
-2.27414e-07
1.27374e-07
-2.4245e-07
1.09267e-07
-2.52533e-07
7.95483e-08
-2.57085e-07
3.43601e-08
-2.55214e-07
-2.50267e-08
-2.47496e-07
-7.20705e-08
-2.34431e-07
-1.03931e-07
-2.16432e-07
-1.24323e-07
-1.94265e-07
-1.35438e-07
-1.69089e-07
-1.38933e-07
-1.42296e-07
-1.3636e-07
-1.15297e-07
-1.29204e-07
-8.93624e-08
-1.18693e-07
-6.55763e-08
-1.0557e-07
-4.48485e-08
-9.01837e-08
-2.78724e-08
-7.29521e-08
-1.50335e-08
-5.47555e-08
-6.35249e-09
-3.68445e-08
-1.52033e-09
-2.04388e-08
-6.40912e-09
-1.71341e-09
7.86831e-09
-7.15969e-09
2.50973e-08
-1.69169e-08
4.51946e-08
-3.12633e-08
6.70042e-08
-5.00596e-08
8.89353e-08
-7.27219e-08
1.09387e-07
-9.83086e-08
1.2726e-07
-1.25645e-07
1.42054e-07
-1.53391e-07
1.53375e-07
-1.80071e-07
1.60414e-07
-2.04194e-07
1.61925e-07
-2.24486e-07
1.56552e-07
-2.4017e-07
1.43058e-07
-2.51128e-07
1.20225e-07
-2.57851e-07
8.62708e-08
-2.61026e-07
3.75357e-08
-2.60742e-07
-2.53114e-08
-2.5679e-07
-7.60224e-08
-2.4846e-07
-1.12261e-07
-2.35024e-07
-1.37759e-07
-2.1628e-07
-1.54183e-07
-1.92751e-07
-1.62461e-07
-1.65631e-07
-1.63479e-07
-1.36538e-07
-1.58298e-07
-1.07238e-07
-1.47992e-07
-7.94446e-08
-1.33363e-07
-5.46772e-08
-1.14951e-07
-3.41124e-08
-9.35169e-08
-1.84384e-08
-7.04295e-08
-7.79872e-09
-4.74842e-08
-1.8668e-09
-2.63707e-08
-8.27592e-09
-2.10288e-09
9.9712e-09
-8.77288e-09
3.17673e-08
-2.06718e-08
5.70935e-08
-3.80327e-08
8.43652e-08
-6.04926e-08
1.11395e-07
-8.7048e-08
1.35943e-07
-1.16179e-07
1.56391e-07
-1.46061e-07
1.71936e-07
-1.74761e-07
1.82075e-07
-2.00419e-07
1.86072e-07
-2.21515e-07
1.83021e-07
-2.37176e-07
1.72213e-07
-2.47403e-07
1.53284e-07
-2.53081e-07
1.25903e-07
-2.55768e-07
8.89586e-08
-2.57275e-07
3.90422e-08
-2.58589e-07
-2.39972e-08
-2.58868e-07
-7.57431e-08
-2.56414e-07
-1.14715e-07
-2.49431e-07
-1.44742e-07
-2.36557e-07
-1.67057e-07
-2.17247e-07
-1.81771e-07
-1.91964e-07
-1.88763e-07
-1.62123e-07
-1.88139e-07
-1.29842e-07
-1.80273e-07
-9.75987e-08
-1.65607e-07
-6.78409e-08
-1.44709e-07
-4.25848e-08
-1.18773e-07
-2.30937e-08
-8.99206e-08
-9.781e-09
-6.07969e-08
-2.34167e-09
-3.38101e-08
-1.06176e-08
-2.64439e-09
1.26156e-08
-1.10043e-08
4.01272e-08
-2.58165e-08
7.19057e-08
-4.71644e-08
1.05713e-07
-7.4243e-08
1.38474e-07
-1.05325e-07
1.67025e-07
-1.38002e-07
1.89068e-07
-1.69604e-07
2.03538e-07
-1.97621e-07
2.10093e-07
-2.20086e-07
2.08537e-07
-2.35903e-07
1.98838e-07
-2.45063e-07
1.81373e-07
-2.48631e-07
1.56853e-07
-2.48503e-07
1.25775e-07
-2.4706e-07
8.75157e-08
-2.46853e-07
3.88354e-08
-2.49534e-07
-2.13165e-08
-2.53864e-07
-7.14123e-08
-2.57598e-07
-1.10981e-07
-2.58254e-07
-1.44087e-07
-2.53442e-07
-1.7187e-07
-2.41291e-07
-1.93922e-07
-2.20921e-07
-2.09133e-07
-1.92792e-07
-2.16267e-07
-1.58803e-07
-2.14262e-07
-1.22046e-07
-2.02364e-07
-8.62005e-08
-1.80554e-07
-5.46694e-08
-1.50304e-07
-2.9816e-08
-1.14774e-07
-1.26567e-08
-7.79562e-08
-3.02988e-09
-4.34369e-08
-1.36475e-08
-3.43582e-09
1.60514e-08
-1.42317e-08
5.09231e-08
-3.31378e-08
9.08118e-08
-5.98447e-08
1.3242e-07
-9.26933e-08
1.71322e-07
-1.28758e-07
2.03089e-07
-1.64391e-07
2.24701e-07
-1.96028e-07
2.35175e-07
-2.20914e-07
2.34979e-07
-2.37564e-07
2.25187e-07
-2.45932e-07
2.07205e-07
-2.47276e-07
1.82717e-07
-2.4378e-07
1.53357e-07
-2.38087e-07
1.20081e-07
-2.32963e-07
8.2392e-08
-2.31224e-07
3.70959e-08
-2.34871e-07
-1.76689e-08
-2.42513e-07
-6.37705e-08
-2.51842e-07
-1.01652e-07
-2.60268e-07
-1.35661e-07
-2.64873e-07
-1.67265e-07
-2.62639e-07
-1.96156e-07
-2.50974e-07
-2.20797e-07
-2.28468e-07
-2.38774e-07
-1.95657e-07
-2.47073e-07
-1.55442e-07
-2.42579e-07
-1.12665e-07
-2.23331e-07
-7.27615e-08
-1.90207e-07
-4.01249e-08
-1.4741e-07
-1.71239e-08
-1.00957e-07
-4.10412e-09
-5.64566e-08
-1.77516e-08
-4.65768e-09
2.07091e-08
-1.91081e-08
6.53735e-08
-4.38863e-08
1.1559e-07
-7.77461e-08
1.6628e-07
-1.17448e-07
2.11024e-07
-1.58249e-07
2.43891e-07
-1.95068e-07
2.61521e-07
-2.23819e-07
2.63925e-07
-2.42294e-07
2.53454e-07
-2.50362e-07
2.33255e-07
-2.49606e-07
2.06449e-07
-2.42663e-07
1.75775e-07
-2.32547e-07
1.43241e-07
-2.2216e-07
1.09695e-07
-2.14164e-07
7.43953e-08
-2.11205e-07
3.41368e-08
-2.15346e-07
-1.35274e-08
-2.25211e-07
-5.39053e-08
-2.38803e-07
-8.80601e-08
-2.53969e-07
-1.20495e-07
-2.67994e-07
-1.53239e-07
-2.77418e-07
-1.86732e-07
-2.78223e-07
-2.19992e-07
-2.66578e-07
-2.50419e-07
-2.40212e-07
-2.73439e-07
-2.00039e-07
-2.82753e-07
-1.50936e-07
-2.72434e-07
-1.0058e-07
-2.40563e-07
-5.66952e-08
-1.91295e-07
-2.45229e-08
-1.33129e-07
-5.92023e-09
-7.50593e-08
-2.36718e-08
-6.62571e-09
2.73348e-08
-2.66387e-08
8.53865e-08
-5.96882e-08
1.48639e-07
-1.02488e-07
2.09079e-07
-1.49142e-07
2.57678e-07
-1.92602e-07
2.87351e-07
-2.26749e-07
2.95667e-07
-2.48074e-07
2.85251e-07
-2.56184e-07
2.61565e-07
-2.5316e-07
2.3023e-07
-2.42405e-07
1.95695e-07
-2.27578e-07
1.60947e-07
-2.11921e-07
1.27583e-07
-1.98031e-07
9.58055e-08
-1.88057e-07
6.44214e-08
-1.84188e-07
3.02677e-08
-1.88333e-07
-9.38249e-09
-1.9921e-07
-4.30283e-08
-2.15285e-07
-7.19849e-08
-2.35163e-07
-1.00617e-07
-2.56975e-07
-1.31427e-07
-2.77823e-07
-1.65883e-07
-2.93365e-07
-2.04451e-07
-2.9789e-07
-2.45894e-07
-2.85513e-07
-2.85815e-07
-2.52833e-07
-3.15433e-07
-2.01961e-07
-3.23306e-07
-1.41336e-07
-3.01188e-07
-8.28147e-08
-2.49817e-07
-3.68501e-08
-1.79094e-07
-9.08725e-09
-1.02822e-07
-3.27591e-08
-9.78359e-09
3.71184e-08
-3.78791e-08
1.13482e-07
-8.14418e-08
1.92202e-07
-1.33298e-07
2.60935e-07
-1.83845e-07
3.08225e-07
-2.24109e-07
3.27615e-07
-2.48531e-07
3.20089e-07
-2.56117e-07
2.92836e-07
-2.49617e-07
2.55065e-07
-2.33642e-07
2.14255e-07
-2.12915e-07
1.74968e-07
-1.91272e-07
1.39304e-07
-1.7144e-07
1.07752e-07
-1.55233e-07
7.9598e-08
-1.44045e-07
5.32341e-08
-1.39471e-07
2.5693e-08
-1.43137e-07
-5.71627e-09
-1.53858e-07
-3.23068e-08
-1.70513e-07
-5.53296e-08
-1.92461e-07
-7.86699e-08
-2.18937e-07
-1.04951e-07
-2.484e-07
-1.3642e-07
-2.77654e-07
-1.75198e-07
-3.0097e-07
-2.22577e-07
-3.10002e-07
-2.76783e-07
-2.95999e-07
-3.29437e-07
-2.54675e-07
-3.6463e-07
-1.90915e-07
-3.64948e-07
-1.18723e-07
-3.22008e-07
-5.54525e-08
-2.42365e-07
-1.42533e-08
-1.44021e-07
-4.70123e-08
-1.45795e-08
5.16979e-08
-5.30193e-08
1.51922e-07
-1.06856e-07
2.46039e-07
-1.62848e-07
3.16927e-07
-2.07915e-07
3.53292e-07
-2.33586e-07
3.53286e-07
-2.37976e-07
3.24478e-07
-2.24757e-07
2.79617e-07
-2.00311e-07
2.30619e-07
-1.70954e-07
1.84898e-07
-1.41425e-07
1.45439e-07
-1.1464e-07
1.12519e-07
-9.21602e-08
8.52721e-08
-7.4744e-08
6.21818e-08
-6.29792e-08
4.14694e-08
-5.7847e-08
2.05608e-08
-6.06421e-08
-2.92113e-09
-7.02448e-08
-2.27041e-08
-8.57874e-08
-3.97871e-08
-1.07141e-07
-5.73159e-08
-1.34453e-07
-7.76397e-08
-1.67677e-07
-1.03195e-07
-2.05715e-07
-1.3716e-07
-2.45073e-07
-1.83219e-07
-2.78203e-07
-2.43653e-07
-2.9341e-07
-3.1423e-07
-2.78738e-07
-3.79302e-07
-2.29777e-07
-4.13909e-07
-1.55854e-07
-3.95931e-07
-7.85026e-08
-3.19716e-07
-2.15909e-08
-2.00933e-07
-6.86032e-08
-2.14644e-08
7.31623e-08
-7.05641e-08
2.01021e-07
-1.28399e-07
3.03874e-07
-1.75043e-07
3.63571e-07
-1.97654e-07
3.75903e-07
-1.9342e-07
3.49053e-07
-1.67683e-07
2.98741e-07
-1.29457e-07
2.41391e-07
-8.72536e-08
1.88416e-07
-4.69284e-08
1.44573e-07
-1.15381e-08
1.10049e-07
1.77981e-08
8.31824e-08
4.10664e-08
6.20039e-08
5.84477e-08
4.48005e-08
7.00695e-08
2.98475e-08
7.54772e-08
1.51532e-08
7.37132e-08
-1.15718e-09
6.58254e-08
-1.48163e-08
5.25671e-08
-2.65288e-08
3.38392e-08
-3.85881e-08
9.0042e-09
-5.28047e-08
-2.2852e-08
-7.13392e-08
-6.26879e-08
-9.73238e-08
-1.10321e-07
-1.35585e-07
-1.62339e-07
-1.91636e-07
-2.09486e-07
-2.67082e-07
-2.36125e-07
-3.52663e-07
-2.26495e-07
-4.23539e-07
-1.75972e-07
-4.46454e-07
-9.99972e-08
-3.95691e-07
-3.07164e-08
-2.70214e-07
-9.93196e-08
-3.10042e-08
1.04167e-07
-8.67871e-08
2.56804e-07
-1.32995e-07
3.50082e-07
-1.48136e-07
3.78712e-07
-1.28459e-07
3.56226e-07
-8.26833e-08
3.03278e-07
-2.41414e-08
2.40199e-07
3.56012e-08
1.81648e-07
8.95318e-08
1.34485e-07
1.34829e-07
9.92755e-08
1.71282e-07
7.3596e-08
1.99799e-07
5.46654e-08
2.21507e-07
4.02967e-08
2.37372e-07
2.89353e-08
2.47942e-07
1.92771e-08
2.53131e-07
9.96442e-09
2.52257e-07
-2.83084e-10
2.46268e-07
-8.82698e-09
2.35837e-07
-1.6098e-08
2.20832e-07
-2.35831e-08
2.00524e-07
-3.24967e-08
1.73563e-07
-4.43786e-08
1.37946e-07
-6.17062e-08
9.11374e-08
-8.87772e-08
3.13664e-08
-1.31865e-07
-3.86393e-08
-1.97077e-07
-1.07755e-07
-2.83548e-07
-1.54759e-07
-3.76534e-07
-1.57418e-07
-4.43795e-07
-1.10531e-07
-4.42578e-07
-4.08194e-08
-3.39925e-07
-1.40139e-07
-4.221e-08
1.46377e-07
-9.19949e-08
3.06589e-07
-9.99754e-08
3.58063e-07
-5.9498e-08
3.38235e-07
1.34081e-08
2.8332e-07
9.82414e-08
2.18445e-07
1.79102e-07
1.59338e-07
2.47873e-07
1.12878e-07
3.02686e-07
7.96721e-08
3.44959e-07
5.70019e-08
3.77082e-07
4.14732e-08
4.01276e-07
3.04714e-08
4.19253e-07
2.23199e-08
4.32213e-07
1.59756e-08
4.4084e-07
1.065e-08
4.45233e-07
5.57123e-09
4.44938e-07
1.18239e-11
4.40723e-07
-4.6123e-09
4.33152e-07
-8.52641e-09
4.22124e-07
-1.25553e-08
4.07014e-07
-1.73864e-08
3.86562e-07
-2.39268e-08
3.58578e-07
-3.3722e-08
3.1946e-07
-4.96599e-08
2.64194e-07
-7.65992e-08
1.8819e-07
-1.21072e-07
9.29257e-08
-1.88284e-07
-6.80103e-09
-2.76808e-07
-8.0587e-08
-3.70009e-07
-9.54901e-08
-4.27675e-07
-4.86151e-08
-3.868e-07
-1.88754e-07
-5.03915e-08
1.96768e-07
-6.0793e-08
3.16991e-07
3.94484e-09
2.93325e-07
1.10158e-07
2.32022e-07
2.24205e-07
1.69272e-07
3.25911e-07
1.16739e-07
4.07149e-07
7.81012e-08
4.68038e-07
5.19887e-08
5.12452e-07
3.52581e-08
5.44767e-07
2.4686e-08
5.68457e-07
1.77838e-08
5.85916e-07
1.3012e-08
5.98722e-07
9.5143e-09
6.0789e-07
6.8069e-09
6.13997e-07
4.54326e-09
6.17177e-07
2.39148e-09
6.17148e-07
4.09737e-11
6.1445e-07
-1.91408e-09
6.09489e-07
-3.56559e-09
6.02203e-07
-5.26935e-09
5.92143e-07
-7.32606e-09
5.78361e-07
-1.01453e-08
5.59085e-07
-1.4446e-08
5.31056e-07
-2.16308e-08
4.88721e-07
-3.42643e-08
4.2415e-07
-5.65015e-08
3.29752e-07
-9.38853e-08
2.05468e-07
-1.52524e-07
6.99424e-08
-2.34484e-07
-3.19068e-08
-3.25826e-07
-4.76284e-08
-3.71079e-07
-2.36382e-07
-2.734e-08
2.24108e-07
7.1391e-08
2.1826e-07
2.23293e-07
1.41422e-07
3.65263e-07
9.00517e-08
4.78714e-07
5.58216e-08
5.61815e-07
3.36371e-08
6.19523e-07
2.03937e-08
6.58752e-07
1.27592e-08
6.85625e-07
8.38541e-09
7.04499e-07
5.81184e-09
7.18095e-07
4.18753e-09
7.28034e-07
3.07339e-09
7.35295e-07
2.25384e-09
7.40485e-07
1.61628e-09
7.43948e-07
1.0808e-09
7.4577e-07
5.69115e-10
7.45802e-07
9.45259e-12
7.44345e-07
-4.57247e-10
7.41632e-07
-8.52486e-10
7.37625e-07
-1.26319e-09
7.32063e-07
-1.76388e-09
7.24378e-07
-2.45989e-09
7.13471e-07
-3.53955e-09
6.9722e-07
-5.37984e-09
6.71664e-07
-8.7077e-09
6.30021e-07
-1.4859e-08
5.62296e-07
-2.61599e-08
4.56689e-07
-4.69166e-08
3.06279e-07
-8.40741e-08
1.27178e-07
-1.46725e-07
-6.75419e-09
-2.37146e-07
-2.43137e-07
2.24108e-07
4.42368e-07
5.8379e-07
6.73842e-07
7.29663e-07
7.63301e-07
7.83694e-07
7.96453e-07
8.04839e-07
8.10651e-07
8.14838e-07
8.17912e-07
8.20165e-07
8.21782e-07
8.22863e-07
8.23432e-07
8.23441e-07
8.22984e-07
8.22131e-07
8.20868e-07
8.19104e-07
8.16644e-07
8.13105e-07
8.07725e-07
7.99017e-07
7.84158e-07
7.57999e-07
7.11082e-07
6.27008e-07
4.80283e-07
2.43137e-07
)
;

boundaryField
{
    movingWall
    {
        type            calculated;
        value           uniform 0;
    }
    fixedWalls
    {
        type            calculated;
        value           uniform 0;
    }
    frontAndBack
    {
        type            empty;
        value           nonuniform List<scalar> 0();
    }
}


// ************************************************************************* //
