/*--------------------------------*- C++ -*----------------------------------*\
| =========                 |                                                 |
| \\      /  F ield         | OpenFOAM: The Open Source CFD Toolbox           |
|  \\    /   O peration     | Version:  2212                                  |
|   \\  /    A nd           | Website:  www.openfoam.com                      |
|    \\/     M anipulation  |                                                 |
\*---------------------------------------------------------------------------*/
FoamFile
{
    version     2.0;
    format      ascii;
    arch        "LSB;label=64;scalar=64";
    class       volScalarField::Internal;
    location    "1520";
    object      dGch4;
}
// * * * * * * * * * * * * * * * * * * * * * * * * * * * * * * * * * * * * * //

dimensions      [1 -3 -1 0 0 0 0];

value           nonuniform List<scalar> 
1024
(
0.000908983
0.000909189
0.000909694
0.000910615
0.000912084
0.000914227
0.000917128
0.000920788
0.000925081
0.000929748
0.000934422
0.000938694
0.000942257
0.000944999
0.000946957
0.000948177
0.000948173
0.000946091
0.000941859
0.000935812
0.000928507
0.000920616
0.000912826
0.000905718
0.000899673
0.000894848
0.000891216
0.000888634
0.000886908
0.000885841
0.00088526
0.000885024
0.000909056
0.000909265
0.000909778
0.000910713
0.000912206
0.000914383
0.000917328
0.000921035
0.000925375
0.000930083
0.000934788
0.000939071
0.000942629
0.00094536
0.000947313
0.000948541
0.000948559
0.000946494
0.000942269
0.000936219
0.000928902
0.000920986
0.000913156
0.000905997
0.000899898
0.000895023
0.00089135
0.000888738
0.000886992
0.000885914
0.000885327
0.000885089
0.000909235
0.000909449
0.000909976
0.000910939
0.000912479
0.000914726
0.000917763
0.000921579
0.000926038
0.000930867
0.000935674
0.000940009
0.000943564
0.000946268
0.000948202
0.000949444
0.0009495
0.000947454
0.000943214
0.000937132
0.00092977
0.00092179
0.000913872
0.000906605
0.000900392
0.000895411
0.000891652
0.000888977
0.00088719
0.000886087
0.000885488
0.000885245
0.000909557
0.000909777
0.000910323
0.000911327
0.000912937
0.000915291
0.000918476
0.000922481
0.000927167
0.000932244
0.000937279
0.000941748
0.000945317
0.000947975
0.00094987
0.000951126
0.000951226
0.000949169
0.000944848
0.000938656
0.00093118
0.000923075
0.000915008
0.000907571
0.000901183
0.000896042
0.000892152
0.000889382
0.000887532
0.000886394
0.000885777
0.000885527
0.000910069
0.000910296
0.000910864
0.000911917
0.000913617
0.000916117
0.000919516
0.000923817
0.000928879
0.000934391
0.000939841
0.000944575
0.000948207
0.000950808
0.000952641
0.000953908
0.000954043
0.000951902
0.000947363
0.000940911
0.000933193
0.000924862
0.000916568
0.000908896
0.000902275
0.000896926
0.000892869
0.000889977
0.00088805
0.000886866
0.000886227
0.00088597
0.000910837
0.000911069
0.000911659
0.000912767
0.000914575
0.000917261
0.000920955
0.000925684
0.000931319
0.00093751
0.000943622
0.000948811
0.000952598
0.000955157
0.000956923
0.000958204
0.000958349
0.000955988
0.000951
0.000944034
0.00093586
0.000927147
0.000918518
0.000910537
0.000903636
0.000898047
0.000893802
0.000890779
0.000888769
0.000887541
0.000886882
0.000886619
0.000911955
0.000912191
0.000912801
0.000913965
0.000915897
0.000918816
0.000922898
0.000928216
0.000934659
0.000941819
0.000948885
0.000954767
0.000958866
0.00096146
0.000963202
0.000964534
0.000964647
0.000961856
0.000956069
0.000948203
0.00093924
0.000929905
0.000920789
0.000912417
0.000905199
0.000899362
0.000894939
0.0008918
0.000889725
0.000888467
0.0008878
0.000887536
0.000913575
0.000913811
0.000914438
0.000915662
0.000917737
0.000920937
0.00092551
0.000931599
0.000939112
0.000947552
0.000955875
0.000962727
0.000967368
0.000970169
0.000972028
0.000973509
0.000973545
0.000970038
0.000962976
0.000953672
0.000943449
0.000933146
0.000923331
0.000914464
0.000906905
0.000900844
0.000896287
0.000893084
0.000890992
0.000889743
0.000889092
0.000888841
0.000915943
0.000916178
0.00091682
0.000918109
0.000920348
0.000923886
0.000929065
0.000936112
0.000944958
0.000954976
0.000964844
0.00097295
0.000978428
0.000981734
0.000983999
0.000985837
0.00098577
0.000981213
0.000972317
0.000960905
0.000948797
0.000937056
0.000926246
0.000916745
0.00090882
0.000902584
0.00089798
0.000894808
0.000892786
0.000891615
0.000891029
0.000890813
0.000919443
0.000919677
0.000920341
0.00092171
0.000924149
0.000928095
0.000934001
0.000942194
0.000952612
0.000964456
0.000976107
0.000985729
0.000992389
0.000996644
0.000999793
0.00100235
0.00100225
0.000996387
0.000985157
0.000970953
0.000956217
0.000942413
0.000930184
0.000919818
0.000911458
0.00090509
0.000900546
0.000897539
0.000895718
0.000894737
0.000894292
0.000894152
0.000924633
0.000924873
0.000925576
0.000927061
0.000929763
0.000934217
0.000940994
0.000950512
0.000962691
0.000976528
0.000990127
0.00100149
0.00100973
0.00101553
0.00102026
0.00102414
0.00102439
0.00101742
0.00100383
0.000986504
0.000968437
0.00095173
0.000937388
0.000925667
0.000916603
0.000910024
0.000905598
0.000902891
0.000901436
0.000900796
0.000900609
0.000900603
0.00093221
0.000932473
0.000933252
0.000934923
0.000937999
0.000943116
0.000950947
0.000961968
0.000976032
0.000991931
0.00100755
0.00102087
0.00103115
0.00103927
0.00104651
0.0010527
0.00105443
0.00104773
0.00103314
0.00101353
0.000992151
0.000971774
0.000954204
0.00094003
0.000929411
0.000922082
0.00091753
0.000915093
0.000914093
0.000913926
0.000914107
0.000914299
0.000942807
0.000943114
0.00094403
0.000946
0.000949624
0.000955635
0.000964773
0.0009775
0.000993532
0.00101147
0.0010291
0.00104456
0.00105745
0.00106879
0.00107967
0.00108962
0.00109512
0.00109203
0.00108023
0.00106188
0.00103973
0.0010167
0.000995263
0.000977016
0.000962878
0.00095302
0.000947047
0.000944049
0.000943033
0.000943102
0.000943556
0.000943916
0.000956487
0.000956866
0.000957992
0.000960399
0.000964788
0.000971971
0.00098269
0.000997277
0.00101521
0.00103492
0.00105435
0.00107206
0.00108807
0.00110341
0.0011189
0.00113416
0.00114623
0.0011512
0.00114804
0.00113759
0.0011213
0.00110113
0.00107933
0.00105814
0.00103943
0.00102453
0.00101408
0.00100769
0.00100449
0.00100337
0.0010033
0.0010035
0.000971934
0.000972371
0.000973668
0.000976427
0.000981413
0.000989467
0.00100128
0.00101708
0.00103627
0.00105744
0.00107883
0.00109924
0.00111863
0.00113779
0.0011574
0.00117746
0.00119611
0.00121051
0.00121944
0.00122261
0.00121985
0.00121146
0.00119829
0.00118177
0.00116376
0.00114633
0.00113125
0.00111964
0.00111184
0.00110739
0.00110535
0.00110475
0.000987047
0.0009875
0.000988836
0.000991666
0.000996763
0.00100497
0.00101697
0.00103303
0.00105268
0.0010747
0.00109747
0.00111969
0.0011409
0.00116134
0.00118129
0.00120102
0.00122003
0.001238
0.00125486
0.0012699
0.00128181
0.00128945
0.00129212
0.00128974
0.0012829
0.00127283
0.00126128
0.00125017
0.00124102
0.00123461
0.00123094
0.00122948
0.000999027
0.000999458
0.0010007
0.00100331
0.001008
0.00101555
0.00102667
0.00104172
0.00106043
0.00108178
0.00110422
0.00112615
0.00114644
0.00116448
0.00117999
0.00119307
0.00120462
0.00121774
0.00123441
0.00125396
0.00127437
0.00129346
0.00130948
0.0013213
0.00132846
0.00133116
0.00133018
0.00132678
0.00132245
0.0013185
0.00131578
0.00131451
0.00100665
0.00100705
0.00100816
0.00101045
0.00101451
0.00102106
0.00103077
0.00104407
0.00106087
0.00108038
0.00110119
0.00112152
0.00113976
0.00115466
0.00116539
0.00117187
0.00117575
0.00118244
0.00119578
0.00121584
0.00124041
0.00126649
0.00129114
0.00131217
0.0013284
0.00133957
0.00134613
0.001349
0.0013494
0.00134857
0.00134753
0.0013469
0.00101088
0.00101125
0.00101225
0.00101423
0.0010177
0.00102325
0.0010315
0.0010429
0.0010575
0.00107473
0.00109338
0.00111175
0.00112805
0.00114073
0.0011487
0.00115175
0.00115187
0.00115502
0.00116554
0.00118442
0.00121036
0.00124065
0.00127171
0.00130017
0.00132368
0.00134119
0.0013528
0.00135943
0.00136241
0.00136317
0.00136295
0.00136262
0.00101302
0.00101336
0.00101423
0.00101594
0.00101888
0.00102355
0.00103048
0.0010401
0.00105253
0.00106739
0.0010837
0.00109999
0.00111457
0.00112588
0.00113281
0.0011352
0.00113511
0.00113794
0.00114742
0.00116491
0.00119009
0.00122123
0.00125526
0.00128851
0.00131774
0.00134088
0.00135727
0.00136746
0.00137275
0.00137477
0.00137508
0.00137489
0.00101424
0.00101451
0.00101522
0.00101663
0.00101906
0.00102294
0.0010287
0.00103673
0.00104717
0.00105976
0.00107376
0.00108801
0.00110109
0.00111168
0.00111887
0.00112263
0.00112489
0.0011298
0.00114009
0.00115707
0.00118103
0.00121113
0.00124527
0.00128035
0.00131292
0.00134016
0.00136058
0.00137408
0.00138167
0.001385
0.00138586
0.00138579
0.00101598
0.00101612
0.00101655
0.0010175
0.00101931
0.00102234
0.001027
0.0010336
0.00104227
0.00105286
0.00106485
0.00107739
0.00108945
0.00110007
0.00110863
0.0011153
0.00112154
0.00112985
0.00114194
0.00115906
0.00118183
0.00121009
0.00124258
0.00127702
0.00131049
0.00134001
0.00136336
0.0013797
0.00138949
0.00139418
0.00139564
0.00139571
0.00102011
0.00102
0.00101994
0.00102017
0.00102107
0.00102306
0.00102654
0.00103183
0.00103907
0.00104816
0.00105879
0.00107041
0.00108235
0.00109398
0.00110491
0.00111544
0.00112629
0.00113826
0.00115225
0.00116946
0.00119082
0.00121671
0.00124655
0.00127878
0.00131115
0.00134108
0.00136609
0.00138459
0.00139635
0.00140239
0.00140452
0.00140475
0.00102866
0.00102818
0.00102737
0.00102657
0.00102627
0.00102701
0.00102931
0.00103353
0.00103987
0.0010483
0.00105862
0.00107047
0.00108339
0.00109692
0.0011108
0.0011253
0.0011403
0.00115522
0.00117046
0.00118729
0.00120682
0.0012298
0.00125624
0.00128526
0.00131519
0.00134395
0.00136922
0.00138903
0.0014024
0.00140973
0.00141256
0.00141299
0.0010435
0.00104251
0.00104078
0.00103881
0.00103727
0.00103689
0.00103833
0.00104209
0.0010484
0.00105722
0.00106836
0.00108146
0.00109609
0.00111182
0.00112838
0.00114596
0.00116375
0.00118028
0.00119577
0.00121154
0.0012288
0.00124849
0.00127103
0.00129609
0.00132261
0.001349
0.00137327
0.00139338
0.00140781
0.00141627
0.00141982
0.00142048
0.00106594
0.00106437
0.00106175
0.0010589
0.00105668
0.00105595
0.00105744
0.00106171
0.00106895
0.00107902
0.0010916
0.00110623
0.00112241
0.00113971
0.00115783
0.00117684
0.00119559
0.00121221
0.00122688
0.00124096
0.00125564
0.00127189
0.00129033
0.00131102
0.00133344
0.00135653
0.00137871
0.00139807
0.00141285
0.00142211
0.00142633
0.00142725
0.00109676
0.00109462
0.00109154
0.00108872
0.00108712
0.0010874
0.00109017
0.00109589
0.00110459
0.00111599
0.00112967
0.00114512
0.00116181
0.00117931
0.00119732
0.00121589
0.00123376
0.00124911
0.0012621
0.00127405
0.00128602
0.00129891
0.00131335
0.00132963
0.00134761
0.00136673
0.0013859
0.00140352
0.0014178
0.00142739
0.00143214
0.00143334
0.00113641
0.00113392
0.00113132
0.00113006
0.00113068
0.00113334
0.00113823
0.00114562
0.00115539
0.00116727
0.00118088
0.00119574
0.00121139
0.00122747
0.00124374
0.00126021
0.00127577
0.00128884
0.0012996
0.00130918
0.00131848
0.00132824
0.00133902
0.00135117
0.00136476
0.00137961
0.0013951
0.0014101
0.00142301
0.0014323
0.00143731
0.00143876
0.00118547
0.00118322
0.00118258
0.0011844
0.00118822
0.00119355
0.00120028
0.00120849
0.00121813
0.00122907
0.00124109
0.00125384
0.001267
0.0012803
0.00129356
0.00130679
0.00131912
0.00132933
0.00133758
0.00134476
0.00135156
0.00135852
0.0013661
0.00137461
0.00138419
0.00139485
0.00140636
0.00141806
0.00142877
0.00143705
0.00144192
0.00144353
0.00124527
0.00124439
0.00124706
0.00125214
0.00125833
0.00126499
0.001272
0.00127946
0.00128746
0.00129608
0.00130522
0.00131473
0.00132439
0.00133405
0.00134357
0.00135299
0.00136167
0.00136881
0.00137451
0.00137939
0.00138391
0.00138847
0.00139335
0.00139879
0.00140493
0.00141183
0.00141945
0.00142753
0.00143538
0.00144191
0.00144611
0.00144768
0.00131831
0.00132005
0.00132518
0.00133096
0.00133669
0.00134218
0.00134741
0.00135252
0.0013577
0.00136305
0.0013686
0.0013743
0.00138004
0.00138573
0.00139131
0.0013968
0.00140183
0.00140594
0.0014092
0.00141197
0.0014145
0.00141701
0.00141967
0.0014226
0.00142591
0.00142964
0.00143381
0.00143835
0.00144297
0.0014471
0.00145002
0.00145127
0.00140764
0.00140901
0.00141166
0.00141419
0.00141651
0.00141863
0.00142055
0.00142236
0.00142413
0.00142591
0.00142774
0.00142961
0.00143148
0.00143333
0.00143514
0.00143691
0.00143853
0.00143985
0.0014409
0.00144178
0.00144258
0.00144337
0.0014442
0.00144511
0.00144613
0.00144728
0.00144856
0.00144998
0.00145145
0.00145283
0.00145389
0.0014544
)
;


// ************************************************************************* //
