/*--------------------------------*- C++ -*----------------------------------*\
| =========                 |                                                 |
| \\      /  F ield         | OpenFOAM: The Open Source CFD Toolbox           |
|  \\    /   O peration     | Version:  2212                                  |
|   \\  /    A nd           | Website:  www.openfoam.com                      |
|    \\/     M anipulation  |                                                 |
\*---------------------------------------------------------------------------*/
FoamFile
{
    version     2.0;
    format      ascii;
    arch        "LSB;label=64;scalar=64";
    class       volScalarField;
    location    "1520";
    object      Gch4;
}
// * * * * * * * * * * * * * * * * * * * * * * * * * * * * * * * * * * * * * //

dimensions      [1 -3 0 0 0 0 0];

internalField   nonuniform List<scalar> 
1024
(
1.93482
1.93471
1.93444
1.93395
1.93318
1.93205
1.93052
1.92859
1.92633
1.92387
1.92141
1.91916
1.91729
1.91586
1.91485
1.91423
1.91427
1.9154
1.91765
1.92086
1.92474
1.92893
1.93306
1.93684
1.94005
1.94262
1.94455
1.94592
1.94684
1.94741
1.94772
1.94784
1.93478
1.93467
1.9344
1.9339
1.93312
1.93197
1.93041
1.92846
1.92617
1.92369
1.92122
1.91896
1.9171
1.91567
1.91466
1.91404
1.91406
1.91518
1.91744
1.92065
1.92453
1.92873
1.93289
1.93669
1.93993
1.94253
1.94448
1.94587
1.9468
1.94737
1.94768
1.94781
1.93468
1.93457
1.93429
1.93378
1.93297
1.93179
1.93018
1.92817
1.92582
1.92328
1.92075
1.91847
1.91661
1.91519
1.91419
1.91357
1.91357
1.91468
1.91694
1.92017
1.92408
1.92831
1.93251
1.93637
1.93967
1.94232
1.94432
1.94574
1.94669
1.94728
1.9476
1.94773
1.93451
1.9344
1.93411
1.93358
1.93273
1.93149
1.92981
1.9277
1.92523
1.92256
1.91991
1.91756
1.91569
1.9143
1.91332
1.91269
1.91267
1.91379
1.91609
1.91938
1.92334
1.92764
1.93191
1.93586
1.93926
1.94199
1.94406
1.94553
1.94651
1.94712
1.94745
1.94758
1.93424
1.93412
1.93382
1.93327
1.93237
1.93105
1.92926
1.92699
1.92433
1.92143
1.91856
1.91607
1.91417
1.91282
1.91187
1.91123
1.9112
1.91236
1.91478
1.9182
1.92228
1.9267
1.9311
1.93517
1.93868
1.94152
1.94368
1.94522
1.94624
1.94687
1.94721
1.94735
1.93384
1.93372
1.9334
1.93282
1.93187
1.93045
1.9285
1.92601
1.92304
1.91979
1.91657
1.91385
1.91187
1.91054
1.90963
1.90899
1.90895
1.91023
1.91288
1.91657
1.92089
1.9255
1.93008
1.93431
1.93797
1.94094
1.94319
1.9448
1.94587
1.94652
1.94687
1.94701
1.93325
1.93312
1.9328
1.93219
1.93117
1.92963
1.92748
1.92468
1.92129
1.91752
1.91381
1.91073
1.90859
1.90724
1.90635
1.90569
1.90567
1.90718
1.91025
1.9144
1.91914
1.92407
1.92889
1.93332
1.93715
1.94025
1.9426
1.94426
1.94537
1.94603
1.94639
1.94653
1.93239
1.93227
1.93194
1.93129
1.9302
1.92851
1.9261
1.9229
1.91895
1.91451
1.91014
1.90655
1.90413
1.90269
1.90174
1.90101
1.90104
1.90293
1.90666
1.91157
1.91695
1.92239
1.92757
1.93226
1.93626
1.93948
1.94189
1.94359
1.9447
1.94537
1.94571
1.94585
1.93114
1.93102
1.93068
1.93
1.92882
1.92696
1.92423
1.92052
1.91587
1.91061
1.90543
1.90119
1.89834
1.89664
1.8955
1.89459
1.89468
1.89712
1.90182
1.90782
1.91419
1.92037
1.92607
1.93109
1.93528
1.93858
1.94101
1.9427
1.94377
1.94439
1.94471
1.94482
1.9293
1.92917
1.92882
1.9281
1.92682
1.92474
1.92163
1.91732
1.91185
1.90563
1.89953
1.8945
1.89104
1.88886
1.88726
1.88599
1.88611
1.88925
1.89517
1.90263
1.91036
1.91762
1.92405
1.92951
1.93392
1.93728
1.93969
1.94128
1.94225
1.94277
1.94301
1.94308
1.92656
1.92643
1.92606
1.92528
1.92386
1.92151
1.91795
1.91295
1.90655
1.89929
1.89218
1.88625
1.88198
1.879
1.87659
1.87464
1.8746
1.87833
1.88548
1.89457
1.90405
1.91281
1.92033
1.92649
1.93126
1.93473
1.93706
1.9385
1.93927
1.93961
1.93971
1.93972
1.92256
1.92243
1.92202
1.92114
1.91952
1.91683
1.91271
1.90692
1.89955
1.89122
1.88305
1.87612
1.87079
1.86661
1.86291
1.85978
1.85898
1.86257
1.87026
1.88054
1.89174
1.9024
1.91161
1.91904
1.92461
1.92846
1.93085
1.93214
1.93267
1.93276
1.93267
1.93257
1.91698
1.91682
1.91634
1.9153
1.9134
1.91024
1.90544
1.89877
1.89036
1.88098
1.87178
1.86373
1.85706
1.85121
1.84562
1.84054
1.83779
1.83951
1.84575
1.85538
1.86698
1.87902
1.89023
1.89977
1.90717
1.91232
1.91545
1.91703
1.91756
1.91753
1.9173
1.91711
1.90978
1.90958
1.90899
1.90773
1.90542
1.90166
1.89603
1.88839
1.879
1.8687
1.85857
1.84936
1.84106
1.83314
1.82515
1.8173
1.81114
1.80867
1.81043
1.81596
1.82451
1.83506
1.84644
1.8575
1.86726
1.87503
1.88049
1.88382
1.88549
1.88608
1.88612
1.88601
1.90164
1.90141
1.90073
1.89929
1.89668
1.89246
1.88627
1.878
1.86796
1.8569
1.84574
1.83512
1.82506
1.81514
1.805
1.79466
1.78509
1.77774
1.77324
1.77171
1.77324
1.77768
1.78457
1.79318
1.80256
1.81163
1.81947
1.82551
1.82956
1.83188
1.83293
1.83325
1.89367
1.89344
1.89274
1.89126
1.88859
1.8843
1.87801
1.8696
1.85932
1.84782
1.83593
1.82436
1.81332
1.80272
1.79239
1.78221
1.77246
1.7633
1.75472
1.7471
1.74107
1.73723
1.73594
1.73722
1.7408
1.74602
1.75201
1.75776
1.76249
1.76581
1.7677
1.76846
1.88734
1.88712
1.88647
1.8851
1.88265
1.8787
1.87287
1.86499
1.8552
1.84403
1.8323
1.82085
1.81027
1.80088
1.79282
1.78607
1.78017
1.77353
1.7651
1.7552
1.74486
1.73519
1.72707
1.72107
1.71744
1.71608
1.71659
1.71833
1.72055
1.72257
1.72396
1.72461
1.88329
1.88308
1.8825
1.88131
1.87918
1.87576
1.87067
1.8637
1.8549
1.84467
1.83378
1.82313
1.81359
1.8058
1.80018
1.79682
1.79485
1.7915
1.78478
1.77464
1.7622
1.74899
1.73651
1.72585
1.71762
1.71196
1.70862
1.70715
1.70693
1.70733
1.70785
1.70817
1.88102
1.88082
1.88031
1.87927
1.87746
1.87456
1.87023
1.86426
1.8566
1.84756
1.83777
1.82813
1.81958
1.81291
1.80871
1.80709
1.80703
1.80548
1.80019
1.79064
1.7775
1.76215
1.74641
1.732
1.72009
1.71122
1.70533
1.70196
1.70043
1.70003
1.70013
1.70029
1.87984
1.87967
1.87922
1.87832
1.87679
1.87435
1.87071
1.86567
1.85915
1.85134
1.84277
1.8342
1.82653
1.82057
1.81689
1.8156
1.81564
1.81424
1.80946
1.80061
1.78785
1.77205
1.7548
1.73795
1.72315
1.71143
1.70313
1.69796
1.69527
1.69424
1.69407
1.69416
1.87917
1.87903
1.87865
1.87792
1.87665
1.87462
1.8716
1.86739
1.86191
1.85529
1.84792
1.84042
1.83353
1.82793
1.82412
1.82212
1.82095
1.81847
1.81327
1.80466
1.7925
1.77723
1.75991
1.74213
1.72563
1.71184
1.7015
1.69466
1.69081
1.68912
1.68867
1.6887
1.87823
1.87816
1.87794
1.87744
1.87649
1.8749
1.87246
1.869
1.86444
1.85887
1.85256
1.84596
1.8396
1.834
1.8295
1.826
1.82279
1.81855
1.81241
1.80372
1.79215
1.7778
1.76131
1.74385
1.72689
1.71194
1.70012
1.69186
1.6869
1.68452
1.68377
1.68373
1.87609
1.87614
1.87617
1.87604
1.87557
1.87452
1.87268
1.8699
1.8661
1.86132
1.85574
1.84963
1.84336
1.83727
1.83155
1.82608
1.8205
1.81439
1.80726
1.7985
1.78764
1.77449
1.75934
1.74299
1.72658
1.71143
1.69877
1.68942
1.68346
1.6804
1.67932
1.6792
1.8717
1.87194
1.87235
1.87275
1.87289
1.87248
1.87126
1.86904
1.86572
1.8613
1.8559
1.8497
1.84296
1.83591
1.8287
1.82121
1.8135
1.80586
1.79809
1.78951
1.77957
1.76789
1.75446
1.73974
1.72456
1.71
1.69721
1.68719
1.68043
1.67672
1.67529
1.67506
1.86409
1.8646
1.86548
1.86648
1.86725
1.86742
1.86665
1.86467
1.86138
1.85678
1.85099
1.84418
1.83659
1.82844
1.81987
1.81081
1.80167
1.79321
1.7853
1.77726
1.76847
1.75845
1.747
1.73428
1.72083
1.70747
1.69518
1.68501
1.67772
1.67344
1.67165
1.67131
1.85261
1.85341
1.85475
1.8562
1.85732
1.85768
1.85688
1.85466
1.8509
1.84569
1.83918
1.83161
1.82325
1.81432
1.80497
1.79519
1.78557
1.77706
1.76956
1.76237
1.75489
1.74662
1.73725
1.72674
1.71538
1.70368
1.69245
1.68266
1.67519
1.67051
1.66838
1.66791
1.83685
1.83795
1.83952
1.84095
1.84176
1.8416
1.84016
1.83721
1.83272
1.82684
1.81979
1.81183
1.80323
1.79422
1.78494
1.7754
1.76623
1.75837
1.75172
1.74562
1.73952
1.73296
1.72561
1.71734
1.70822
1.69854
1.68884
1.67992
1.67271
1.66787
1.66546
1.66486
1.8166
1.81787
1.8192
1.81983
1.81951
1.81814
1.81562
1.81183
1.80681
1.8007
1.7937
1.78606
1.77801
1.76974
1.76137
1.75291
1.74493
1.73823
1.73273
1.72783
1.72309
1.71812
1.71263
1.70646
1.69956
1.69204
1.6842
1.67662
1.67009
1.6654
1.66287
1.66214
1.79155
1.7927
1.79302
1.79209
1.79014
1.7874
1.78395
1.77974
1.7748
1.76918
1.76302
1.75647
1.7497
1.74287
1.73606
1.72926
1.72294
1.71771
1.71348
1.70981
1.70635
1.7028
1.69894
1.69462
1.68976
1.68435
1.67853
1.67261
1.6672
1.66302
1.66056
1.65975
1.76102
1.76147
1.76011
1.75751
1.75435
1.75095
1.74736
1.74354
1.73944
1.73502
1.73033
1.72545
1.72049
1.71553
1.71064
1.70581
1.70135
1.6977
1.69478
1.69228
1.68997
1.68765
1.68516
1.6824
1.67929
1.67579
1.67193
1.66784
1.66388
1.66058
1.65846
1.65767
1.72375
1.72286
1.72025
1.7173
1.71437
1.71156
1.70889
1.70627
1.70363
1.70088
1.69804
1.69511
1.69217
1.68924
1.68638
1.68356
1.68098
1.67888
1.6772
1.67579
1.6745
1.67322
1.67186
1.67037
1.66869
1.6668
1.66469
1.66239
1.66006
1.65797
1.6565
1.65587
1.67818
1.67748
1.67613
1.67484
1.67365
1.67257
1.67159
1.67066
1.66976
1.66884
1.6679
1.66695
1.66599
1.66504
1.66411
1.6632
1.66237
1.66169
1.66116
1.66071
1.6603
1.65989
1.65947
1.65901
1.65849
1.65791
1.65726
1.65654
1.6558
1.6551
1.65457
1.65431
)
;

boundaryField
{
    movingWall
    {
        type            fixedValue;
        value           uniform 1.6535;
    }
    fixedWalls
    {
        type            zeroGradient;
    }
    floor
    {
        type            zeroGradient;
    }
    frontAndBack
    {
        type            empty;
    }
}


// ************************************************************************* //
