/*--------------------------------*- C++ -*----------------------------------*\
| =========                 |                                                 |
| \\      /  F ield         | OpenFOAM: The Open Source CFD Toolbox           |
|  \\    /   O peration     | Version:  2212                                  |
|   \\  /    A nd           | Website:  www.openfoam.com                      |
|    \\/     M anipulation  |                                                 |
\*---------------------------------------------------------------------------*/
FoamFile
{
    version     2.0;
    format      ascii;
    arch        "LSB;label=64;scalar=64";
    class       volScalarField;
    location    "1520";
    object      p;
}
// * * * * * * * * * * * * * * * * * * * * * * * * * * * * * * * * * * * * * //

dimensions      [0 2 -2 0 0 0 0];

internalField   nonuniform List<scalar> 
1024
(
0
-1.42326e-06
-2.88935e-06
-3.0778e-06
-8.40084e-07
4.81349e-06
1.48623e-05
3.01902e-05
5.07748e-05
7.32316e-05
8.8053e-05
8.49457e-05
6.48923e-05
3.25935e-05
-2.41196e-06
-3.78636e-05
-7.63934e-05
-0.000120576
-0.000163146
-0.000195857
-0.000217177
-0.000229883
-0.000237101
-0.000241161
-0.000243491
-0.000244809
-0.000245368
-0.000245211
-0.000244426
-0.000243276
-0.000242165
-0.000241543
-0.092811
-0.0928124
-0.0928137
-0.0928138
-0.0928117
-0.0928067
-0.0927976
-0.0927835
-0.0927643
-0.0927432
-0.0927294
-0.0927322
-0.0927512
-0.0927825
-0.0928169
-0.0928521
-0.0928905
-0.0929344
-0.0929764
-0.0930086
-0.0930294
-0.0930418
-0.0930487
-0.0930525
-0.0930547
-0.0930558
-0.0930562
-0.0930561
-0.0930554
-0.0930544
-0.0930535
-0.0930528
-0.199424
-0.199426
-0.199428
-0.199428
-0.199426
-0.199422
-0.199415
-0.199402
-0.199385
-0.199365
-0.199353
-0.199356
-0.199373
-0.199403
-0.199436
-0.199471
-0.199509
-0.199552
-0.199594
-0.199625
-0.199645
-0.199657
-0.199663
-0.199666
-0.199668
-0.199669
-0.199669
-0.199669
-0.199668
-0.199667
-0.199666
-0.199665
-0.321895
-0.321897
-0.321899
-0.3219
-0.321899
-0.321896
-0.32189
-0.32188
-0.321865
-0.321847
-0.321837
-0.321839
-0.321856
-0.321884
-0.321915
-0.321948
-0.321985
-0.322028
-0.322069
-0.322099
-0.322118
-0.322129
-0.322134
-0.322136
-0.322137
-0.322137
-0.322137
-0.322137
-0.322136
-0.322135
-0.322133
-0.322132
-0.462583
-0.462585
-0.462587
-0.462589
-0.462589
-0.462588
-0.462584
-0.462576
-0.462563
-0.462548
-0.46254
-0.462543
-0.462558
-0.462583
-0.462612
-0.462643
-0.462679
-0.462721
-0.462761
-0.46279
-0.462808
-0.462816
-0.46282
-0.462821
-0.462821
-0.46282
-0.462819
-0.462818
-0.462817
-0.462815
-0.462814
-0.462812
-0.624198
-0.6242
-0.624203
-0.624205
-0.624207
-0.624208
-0.624206
-0.6242
-0.62419
-0.624177
-0.624171
-0.624175
-0.624189
-0.624211
-0.624237
-0.624265
-0.624299
-0.62434
-0.624379
-0.624408
-0.624423
-0.62443
-0.624431
-0.62443
-0.624428
-0.624425
-0.624423
-0.624422
-0.62442
-0.624418
-0.624416
-0.624414
-0.809854
-0.809856
-0.809859
-0.809861
-0.809864
-0.809867
-0.809867
-0.809864
-0.809856
-0.809846
-0.809843
-0.809848
-0.809861
-0.80988
-0.809902
-0.809926
-0.809958
-0.809998
-0.810037
-0.810065
-0.810078
-0.810082
-0.810081
-0.810077
-0.810072
-0.810068
-0.810064
-0.810061
-0.810059
-0.810057
-0.810055
-0.810053
-1.02313
-1.02313
-1.02313
-1.02313
-1.02313
-1.02314
-1.02314
-1.02314
-1.02313
-1.02313
-1.02313
-1.02313
-1.02315
-1.02316
-1.02318
-1.0232
-1.02323
-1.02327
-1.02331
-1.02334
-1.02335
-1.02335
-1.02334
-1.02334
-1.02333
-1.02332
-1.02332
-1.02331
-1.02331
-1.02331
-1.0233
-1.0233
-1.26811
-1.26811
-1.26812
-1.26812
-1.26812
-1.26813
-1.26813
-1.26813
-1.26812
-1.26812
-1.26813
-1.26814
-1.26815
-1.26816
-1.26818
-1.2682
-1.26822
-1.26826
-1.2683
-1.26833
-1.26834
-1.26833
-1.26832
-1.26831
-1.2683
-1.26829
-1.26829
-1.26828
-1.26828
-1.26828
-1.26827
-1.26827
-1.54954
-1.54954
-1.54954
-1.54954
-1.54954
-1.54954
-1.54955
-1.54955
-1.54954
-1.54955
-1.54955
-1.54957
-1.54958
-1.5496
-1.54961
-1.54962
-1.54965
-1.54968
-1.54972
-1.54975
-1.54975
-1.54975
-1.54973
-1.54972
-1.54971
-1.5497
-1.54969
-1.54968
-1.54968
-1.54968
-1.54967
-1.54967
-1.8728
-1.8728
-1.8728
-1.8728
-1.87281
-1.87281
-1.87281
-1.87281
-1.87281
-1.87282
-1.87283
-1.87285
-1.87286
-1.87288
-1.87289
-1.8729
-1.87293
-1.87295
-1.87299
-1.87301
-1.87301
-1.873
-1.87299
-1.87297
-1.87296
-1.87295
-1.87294
-1.87293
-1.87293
-1.87292
-1.87292
-1.87292
-2.24414
-2.24414
-2.24414
-2.24414
-2.24414
-2.24414
-2.24414
-2.24415
-2.24415
-2.24416
-2.24418
-2.2442
-2.24422
-2.24424
-2.24425
-2.24427
-2.24428
-2.2443
-2.24432
-2.24433
-2.24433
-2.24432
-2.2443
-2.24428
-2.24426
-2.24425
-2.24424
-2.24424
-2.24423
-2.24423
-2.24423
-2.24423
-2.67071
-2.67071
-2.67071
-2.67071
-2.67071
-2.67071
-2.67071
-2.67071
-2.67072
-2.67073
-2.67075
-2.67077
-2.6708
-2.67082
-2.67085
-2.67086
-2.67088
-2.67089
-2.67089
-2.67088
-2.67086
-2.67083
-2.67081
-2.67078
-2.67077
-2.67076
-2.67075
-2.67075
-2.67075
-2.67075
-2.67075
-2.67075
-3.16072
-3.16072
-3.16072
-3.16072
-3.16072
-3.16072
-3.16072
-3.16072
-3.16073
-3.16075
-3.16078
-3.16081
-3.16084
-3.16087
-3.1609
-3.16093
-3.16094
-3.16094
-3.16092
-3.16089
-3.16084
-3.16079
-3.16075
-3.16072
-3.1607
-3.16069
-3.16069
-3.16069
-3.16069
-3.1607
-3.1607
-3.1607
-3.72363
-3.72363
-3.72363
-3.72363
-3.72363
-3.72363
-3.72364
-3.72364
-3.72366
-3.72368
-3.7237
-3.72374
-3.72377
-3.72381
-3.72386
-3.72389
-3.72392
-3.72391
-3.72388
-3.72383
-3.72377
-3.7237
-3.72364
-3.72359
-3.72355
-3.72354
-3.72353
-3.72353
-3.72354
-3.72354
-3.72354
-3.72354
-4.37028
-4.37028
-4.37029
-4.37029
-4.37029
-4.3703
-4.3703
-4.37031
-4.37033
-4.37035
-4.37038
-4.37041
-4.37046
-4.37051
-4.37056
-4.37061
-4.37064
-4.37064
-4.37061
-4.37056
-4.3705
-4.37042
-4.37035
-4.37029
-4.37024
-4.3702
-4.37019
-4.37018
-4.37018
-4.37019
-4.37019
-4.37019
-5.06172
-5.06172
-5.06173
-5.06173
-5.06173
-5.06174
-5.06175
-5.06176
-5.06178
-5.0618
-5.06183
-5.06187
-5.06192
-5.06198
-5.06204
-5.06209
-5.06213
-5.06214
-5.06212
-5.06208
-5.06202
-5.06196
-5.06188
-5.06181
-5.06176
-5.06171
-5.06169
-5.06167
-5.06167
-5.06168
-5.06168
-5.06169
-5.70842
-5.70842
-5.70842
-5.70842
-5.70842
-5.70843
-5.70844
-5.70845
-5.70847
-5.7085
-5.70853
-5.70857
-5.70862
-5.70868
-5.70875
-5.70881
-5.70885
-5.70886
-5.70885
-5.70882
-5.70878
-5.70872
-5.70866
-5.7086
-5.70853
-5.70848
-5.70845
-5.70843
-5.70843
-5.70843
-5.70843
-5.70844
-6.27138
-6.27138
-6.27138
-6.27138
-6.27139
-6.27139
-6.2714
-6.27142
-6.27144
-6.27147
-6.2715
-6.27154
-6.27159
-6.27165
-6.27172
-6.27178
-6.27183
-6.27184
-6.27183
-6.2718
-6.27177
-6.27173
-6.27168
-6.27163
-6.27157
-6.27152
-6.27148
-6.27145
-6.27144
-6.27144
-6.27145
-6.27146
-6.76145
-6.76145
-6.76145
-6.76145
-6.76146
-6.76146
-6.76147
-6.76149
-6.76151
-6.76154
-6.76157
-6.76161
-6.76166
-6.76173
-6.76179
-6.76186
-6.7619
-6.76192
-6.7619
-6.76188
-6.76185
-6.76182
-6.76178
-6.76173
-6.76168
-6.76163
-6.76159
-6.76156
-6.76154
-6.76154
-6.76155
-6.76155
-7.18807
-7.18807
-7.18807
-7.18807
-7.18807
-7.18808
-7.18809
-7.1881
-7.18812
-7.18815
-7.18818
-7.18823
-7.18828
-7.18834
-7.18841
-7.18848
-7.18853
-7.18854
-7.18853
-7.1885
-7.18847
-7.18843
-7.1884
-7.18836
-7.18831
-7.18825
-7.18821
-7.18817
-7.18815
-7.18814
-7.18815
-7.18816
-7.55946
-7.55946
-7.55946
-7.55946
-7.55946
-7.55946
-7.55947
-7.55948
-7.55949
-7.55952
-7.55955
-7.5596
-7.55966
-7.55973
-7.5598
-7.55987
-7.55992
-7.55993
-7.55992
-7.55989
-7.55985
-7.55981
-7.55976
-7.55972
-7.55967
-7.55961
-7.55955
-7.5595
-7.55948
-7.55946
-7.55947
-7.55948
-7.88277
-7.88277
-7.88277
-7.88276
-7.88276
-7.88276
-7.88276
-7.88277
-7.88278
-7.88281
-7.88284
-7.88289
-7.88295
-7.88303
-7.88311
-7.88318
-7.88323
-7.88325
-7.88323
-7.8832
-7.88315
-7.8831
-7.88305
-7.88298
-7.88292
-7.88285
-7.88278
-7.88271
-7.88267
-7.88265
-7.88265
-7.88266
-8.16422
-8.16422
-8.16422
-8.16422
-8.16421
-8.16421
-8.1642
-8.1642
-8.16421
-8.16423
-8.16427
-8.16432
-8.16439
-8.16447
-8.16456
-8.16464
-8.16469
-8.16471
-8.16469
-8.16465
-8.1646
-8.16454
-8.16447
-8.16439
-8.1643
-8.1642
-8.16411
-8.16401
-8.16394
-8.1639
-8.1639
-8.16391
-8.40924
-8.40924
-8.40924
-8.40924
-8.40923
-8.40922
-8.4092
-8.4092
-8.4092
-8.40922
-8.40926
-8.40932
-8.4094
-8.40948
-8.40957
-8.40966
-8.40971
-8.40973
-8.40971
-8.40968
-8.40962
-8.40955
-8.40946
-8.40935
-8.40923
-8.40909
-8.40895
-8.40882
-8.40871
-8.40864
-8.40862
-8.40863
-8.62255
-8.62255
-8.62255
-8.62254
-8.62253
-8.62251
-8.62249
-8.62247
-8.62247
-8.6225
-8.62254
-8.6226
-8.62268
-8.62277
-8.62287
-8.62296
-8.62302
-8.62304
-8.62302
-8.62298
-8.62292
-8.62284
-8.62273
-8.62259
-8.62243
-8.62225
-8.62205
-8.62186
-8.6217
-8.62158
-8.62153
-8.62152
-8.80826
-8.80826
-8.80826
-8.80824
-8.80821
-8.80818
-8.80815
-8.80813
-8.80813
-8.80816
-8.80821
-8.80827
-8.80836
-8.80846
-8.80856
-8.80865
-8.80871
-8.80873
-8.80871
-8.80867
-8.80861
-8.80851
-8.80839
-8.80823
-8.80802
-8.80778
-8.80752
-8.80725
-8.80701
-8.80682
-8.80671
-8.80667
-8.96995
-8.96995
-8.96994
-8.96991
-8.96987
-8.96982
-8.96978
-8.96976
-8.96976
-8.96979
-8.96984
-8.96991
-8.97
-8.9701
-8.9702
-8.9703
-8.97036
-8.97038
-8.97037
-8.97033
-8.97026
-8.97015
-8.97001
-8.96983
-8.96958
-8.96929
-8.96895
-8.96859
-8.96824
-8.96794
-8.96774
-8.96764
-9.11076
-9.11075
-9.11071
-9.11065
-9.11059
-9.11053
-9.11049
-9.11046
-9.11046
-9.11049
-9.11055
-9.11062
-9.11072
-9.11082
-9.11093
-9.11102
-9.11109
-9.11111
-9.1111
-9.11105
-9.11098
-9.11087
-9.11072
-9.11051
-9.11024
-9.1099
-9.10949
-9.10903
-9.10855
-9.10809
-9.10773
-9.1075
-9.23346
-9.23338
-9.23328
-9.23318
-9.2331
-9.23302
-9.23297
-9.23295
-9.23295
-9.23298
-9.23304
-9.23312
-9.23322
-9.23332
-9.23343
-9.23353
-9.2336
-9.23362
-9.23361
-9.23356
-9.23349
-9.23337
-9.23321
-9.23299
-9.2327
-9.23232
-9.23186
-9.23132
-9.2307
-9.23002
-9.22939
-9.22884
-9.3406
-9.34021
-9.33997
-9.33982
-9.33972
-9.33964
-9.33959
-9.33957
-9.33958
-9.33961
-9.33968
-9.33976
-9.33986
-9.33997
-9.34008
-9.34018
-9.34025
-9.34027
-9.34026
-9.34021
-9.34014
-9.34002
-9.33986
-9.33963
-9.33933
-9.33894
-9.33845
-9.33784
-9.33711
-9.3362
-9.33509
-9.33383
-9.43447
-9.43323
-9.43277
-9.43262
-9.43252
-9.43245
-9.43241
-9.43239
-9.4324
-9.43244
-9.43251
-9.4326
-9.4327
-9.43281
-9.43292
-9.43302
-9.43309
-9.43312
-9.43311
-9.43306
-9.43298
-9.43287
-9.4327
-9.43248
-9.43217
-9.43178
-9.43128
-9.43065
-9.42984
-9.42874
-9.42713
-9.42487
)
;

boundaryField
{
    movingWall
    {
        type            calculated;
        value           nonuniform List<scalar> 
32
(
-9.47768
-9.47644
-9.47598
-9.47583
-9.47573
-9.47566
-9.47562
-9.4756
-9.47561
-9.47565
-9.47572
-9.47581
-9.47591
-9.47602
-9.47613
-9.47623
-9.4763
-9.47633
-9.47632
-9.47627
-9.4762
-9.47608
-9.47592
-9.47569
-9.47538
-9.47499
-9.47449
-9.47386
-9.47305
-9.47195
-9.47034
-9.46808
)
;
    }
    fixedWalls
    {
        type            calculated;
        value           nonuniform List<scalar> 
64
(
6.93889e-18
-0.092811
-0.199424
-0.321895
-0.462583
-0.624198
-0.809854
-1.02313
-1.26811
-1.54954
-1.8728
-2.24414
-2.67071
-3.16072
-3.72363
-4.37028
-5.06172
-5.70842
-6.27138
-6.76145
-7.18807
-7.55946
-7.88277
-8.16422
-8.40924
-8.62255
-8.80826
-8.96995
-9.11076
-9.23346
-9.3406
-9.43447
-0.000241543
-0.0930528
-0.199665
-0.322132
-0.462812
-0.624414
-0.810053
-1.0233
-1.26827
-1.54967
-1.87292
-2.24423
-2.67075
-3.1607
-3.72354
-4.37019
-5.06169
-5.70844
-6.27146
-6.76155
-7.18816
-7.55948
-7.88266
-8.16391
-8.40863
-8.62152
-8.80667
-8.96764
-9.1075
-9.22884
-9.33383
-9.42487
)
;
    }
    floor
    {
        type            calculated;
        value           nonuniform List<scalar> 
32
(
0.0431944
0.043193
0.0431915
0.0431914
0.0431937
0.0431994
0.0432095
0.0432249
0.0432456
0.0432681
0.043283
0.0432799
0.0432598
0.0432274
0.0431924
0.0431569
0.0431183
0.0430741
0.0430315
0.0429987
0.0429774
0.0429646
0.0429574
0.0429533
0.0429509
0.0429496
0.042949
0.0429491
0.0429499
0.042951
0.0429521
0.0429528
)
;
    }
    frontAndBack
    {
        type            empty;
    }
}


// ************************************************************************* //
