/*--------------------------------*- C++ -*----------------------------------*\
| =========                 |                                                 |
| \\      /  F ield         | OpenFOAM: The Open Source CFD Toolbox           |
|  \\    /   O peration     | Version:  2212                                  |
|   \\  /    A nd           | Website:  www.openfoam.com                      |
|    \\/     M anipulation  |                                                 |
\*---------------------------------------------------------------------------*/
FoamFile
{
    version     2.0;
    format      ascii;
    arch        "LSB;label=64;scalar=64";
    class       volScalarField;
    location    "0.3";
    object      alpha.air;
}
// * * * * * * * * * * * * * * * * * * * * * * * * * * * * * * * * * * * * * //

dimensions      [0 0 0 0 0 0 0];

internalField   nonuniform List<scalar> 
32768
(
5.43559e-121
5.14574e-118
1.65315e-115
3.07788e-113
4.08277e-111
4.24261e-109
3.61806e-107
2.59414e-105
1.58549e-103
8.33207e-102
3.78731e-100
1.49513e-98
5.13973e-97
1.54049e-95
4.02505e-94
9.15343e-93
1.80593e-91
3.07574e-90
4.4917e-89
5.57537e-88
5.81469e-87
5.01818e-86
3.5149e-85
1.94911e-84
8.25832e-84
2.53436e-83
5.28152e-83
6.77461e-83
4.46099e-83
1.06484e-83
8.45831e-85
4.54842e-86
1.95474e-87
1.06677e-86
2.10622e-86
4.01962e-87
4.67761e-88
4.32317e-89
3.47799e-90
2.52458e-91
1.67691e-92
1.02535e-93
5.80862e-95
3.04331e-96
1.47729e-97
6.64834e-99
2.77247e-100
1.07102e-101
3.8152e-103
1.24796e-104
3.74798e-106
1.0245e-107
2.53739e-109
5.64097e-111
1.11054e-112
1.91331e-114
2.83456e-116
3.52453e-118
3.5589e-120
2.77875e-122
1.54314e-124
5.13757e-127
6.12783e-130
1.7815e-131
7.13031e-129
1.75867e-126
3.04706e-124
4.00932e-122
4.21592e-120
3.66671e-118
2.70406e-116
1.72336e-114
9.63674e-113
4.78499e-111
2.13303e-109
8.61733e-108
3.18264e-106
1.08114e-104
3.40167e-103
9.95278e-102
2.72865e-100
7.03763e-99
1.71331e-97
3.94688e-96
8.61375e-95
1.77956e-93
3.49062e-92
6.50233e-91
1.16076e-89
2.00107e-88
3.32977e-87
5.10024e-86
6.23708e-85
4.31844e-84
1.3678e-85
1.42122e-85
4.49333e-84
6.9172e-83
3.83632e-82
7.8899e-82
7.96943e-82
4.71471e-82
1.82129e-82
4.99094e-83
1.02524e-83
1.64321e-84
2.11646e-85
2.23925e-86
1.98158e-87
1.4863e-88
9.54932e-90
5.29719e-91
2.55125e-92
1.0711e-93
3.93036e-95
1.26214e-96
3.54644e-98
8.70737e-100
1.8631e-101
3.45978e-103
5.54254e-105
7.59241e-107
8.77033e-109
8.33833e-111
6.22944e-113
3.32796e-115
1.03584e-117
1.10515e-120
1.04046e-117
1.10485e-114
3.91063e-112
7.98223e-110
1.15955e-107
1.31658e-105
1.22461e-103
9.62776e-102
6.53914e-100
3.87868e-98
2.01642e-96
9.2018e-95
3.68749e-93
1.2963e-91
3.99054e-90
1.07329e-88
2.5135e-87
5.10184e-86
8.9264e-85
1.33332e-83
1.6824e-82
1.76731e-81
1.51494e-80
1.03528e-79
5.47704e-79
2.13806e-78
5.76922e-78
9.88945e-78
9.56255e-78
4.51538e-78
8.84247e-79
7.85115e-80
5.14382e-81
1.56055e-81
2.97275e-82
2.91788e-83
2.31532e-84
1.6509e-85
1.09741e-86
6.86847e-88
4.05526e-89
2.25257e-90
1.17791e-91
5.76771e-93
2.64385e-94
1.13279e-95
4.53038e-97
1.68859e-98
5.8348e-100
1.86091e-101
5.4699e-103
1.47064e-104
3.59574e-106
7.92363e-108
1.55228e-109
2.66985e-111
3.96347e-113
4.95688e-115
5.05671e-117
4.00973e-119
2.27942e-121
7.90871e-124
1.05263e-126
2.21093e-128
9.30476e-126
2.32323e-123
4.03187e-121
5.30239e-119
5.5722e-117
4.84742e-115
3.58091e-113
2.29098e-111
1.28898e-109
6.45299e-108
2.90886e-106
1.19191e-104
4.47851e-103
1.55238e-101
5.00515e-100
1.50616e-98
4.26843e-97
1.1436e-95
2.91022e-94
7.05235e-93
1.63188e-91
3.60647e-90
7.66125e-89
1.57206e-87
3.16365e-86
6.35784e-85
1.28929e-83
2.54698e-82
4.43381e-81
5.81721e-80
4.20044e-79
9.91217e-79
8.88318e-78
4.91614e-77
1.27324e-76
1.61975e-76
1.14497e-76
5.05507e-77
1.51798e-77
3.30299e-78
5.46415e-79
7.13032e-80
7.54927e-81
6.62721e-82
4.90369e-83
3.09678e-84
1.68484e-85
7.95308e-87
3.27479e-88
1.18063e-89
3.73613e-91
1.03909e-92
2.54218e-94
5.47059e-96
1.03429e-97
1.71376e-99
2.47785e-101
3.08911e-103
3.24499e-105
2.78325e-107
1.86151e-109
8.85508e-112
2.43393e-114
2.24579e-117
4.31088e-115
5.28028e-112
2.26103e-109
5.76995e-107
1.07094e-104
1.55247e-102
1.77825e-100
1.6279e-98
1.23522e-96
8.00708e-95
4.49889e-93
2.20563e-91
9.44076e-90
3.52642e-88
1.14836e-86
3.25872e-85
8.04284e-84
1.71907e-82
3.16499e-81
4.98483e-80
6.65166e-79
7.42572e-78
6.81999e-77
5.04233e-76
2.91403e-75
1.26466e-74
3.90269e-74
7.94673e-74
9.62317e-74
6.0305e-74
1.70593e-74
2.63412e-75
3.35227e-76
2.86149e-77
1.93357e-78
1.17752e-79
6.8869e-81
3.95925e-82
2.24127e-83
1.23798e-84
6.60325e-86
3.3729e-87
1.64304e-88
7.57532e-90
3.29888e-91
1.35319e-92
5.21209e-94
1.88157e-95
6.32937e-97
1.9743e-98
5.69779e-100
1.5108e-101
3.65655e-103
8.00757e-105
1.56487e-106
2.69464e-108
4.01946e-110
5.0701e-112
5.24025e-114
4.23301e-116
2.47258e-118
8.98311e-121
1.33785e-123
1.95627e-125
8.68892e-123
2.19237e-120
3.80575e-118
4.99534e-116
5.23863e-114
4.55126e-112
3.36204e-110
2.1554e-108
1.21775e-106
6.13213e-105
2.78829e-103
1.15538e-101
4.40231e-100
1.55131e-98
5.10482e-97
1.57278e-95
4.58391e-94
1.26815e-92
3.35069e-91
8.47884e-90
2.06225e-88
4.82859e-87
1.09756e-85
2.4432e-84
5.43693e-83
1.24022e-81
2.94533e-80
7.04358e-79
1.55672e-77
2.87788e-76
4.04364e-75
3.90562e-74
2.29712e-73
7.55672e-73
1.34185e-72
1.30946e-72
7.57472e-73
2.85338e-73
7.52951e-74
1.47317e-74
2.23185e-75
2.70153e-76
2.67754e-77
2.21577e-78
1.55275e-79
9.3209e-81
4.82932e-82
2.17218e-83
8.51612e-85
2.91778e-86
8.74478e-88
2.29634e-89
5.28267e-91
1.06267e-92
1.86534e-94
2.85058e-96
3.74872e-98
4.11537e-100
3.6034e-102
2.46813e-104
1.30759e-106
5.00418e-109
1.13793e-111
9.07305e-115
2.61767e-112
3.33664e-109
1.52105e-106
4.22056e-104
8.67766e-102
1.40614e-99
1.77329e-97
1.7311e-95
1.36296e-93
9.0785e-92
5.21604e-90
2.60498e-88
1.13426e-86
4.29068e-85
1.4095e-83
4.02583e-82
9.99602e-81
2.154e-79
4.01372e-78
6.43e-77
8.78493e-76
1.01213e-74
9.69908e-74
7.58671e-73
4.71963e-72
2.25286e-71
7.87826e-71
1.89001e-70
2.83469e-70
2.35258e-70
9.37348e-71
1.69516e-71
1.63645e-72
1.05481e-73
5.5771e-75
2.77074e-76
1.37995e-77
7.02585e-79
3.62322e-80
1.85391e-81
9.27793e-83
4.49042e-84
2.08635e-85
9.23879e-87
3.88632e-88
1.54757e-89
5.81203e-91
2.05428e-92
6.7907e-94
2.09006e-95
5.97023e-97
1.57263e-98
3.79252e-100
8.30267e-102
1.62798e-103
2.8217e-105
4.25098e-107
5.43464e-109
5.7175e-111
4.72686e-113
2.85012e-115
1.08904e-117
1.81971e-120
1.81511e-122
8.298e-120
2.11068e-117
3.66003e-115
4.78506e-113
4.9959e-111
4.32247e-109
3.1816e-107
2.03626e-105
1.15037e-103
5.79732e-102
2.6437e-100
1.10063e-98
4.22202e-97
1.49922e-95
4.98652e-94
1.55546e-92
4.60336e-91
1.29593e-89
3.49715e-88
9.07244e-87
2.27103e-85
5.50175e-84
1.30167e-82
3.03911e-81
7.15647e-80
1.74959e-78
4.52293e-77
1.19165e-75
2.91734e-74
5.98058e-73
9.32502e-72
9.94555e-71
6.32171e-70
2.02783e-69
3.15768e-69
2.64433e-69
1.34016e-69
4.51789e-70
1.08946e-70
1.98857e-71
2.85121e-72
3.30555e-73
3.17028e-74
2.55872e-75
1.76103e-76
1.04321e-77
5.35256e-79
2.3902e-80
9.31284e-82
3.16955e-83
9.41758e-85
2.44576e-86
5.55688e-88
1.10022e-89
1.8982e-91
2.82928e-93
3.56924e-95
3.67162e-97
2.9148e-99
1.79885e-101
8.71155e-104
3.10897e-106
6.72565e-109
5.20831e-112
1.38844e-109
1.75978e-106
8.04474e-104
2.2551e-101
4.72696e-99
7.89583e-97
1.03546e-94
1.03722e-92
8.24036e-91
5.48604e-89
3.13739e-87
1.56082e-85
6.75765e-84
2.53839e-82
8.29679e-81
2.36469e-79
5.87852e-78
1.27287e-76
2.39314e-75
3.88659e-74
5.4119e-73
6.39524e-72
6.32601e-71
5.14272e-70
3.35259e-69
1.69554e-68
6.35874e-68
1.66186e-67
2.77632e-67
2.63024e-67
1.21447e-67
2.46543e-68
2.50507e-69
1.60002e-70
8.08588e-72
3.79435e-73
1.8075e-74
8.99624e-76
4.58235e-77
2.32248e-78
1.15166e-79
5.51993e-81
2.53951e-82
1.11564e-83
4.65777e-85
1.84335e-86
6.88752e-88
2.42448e-89
7.99719e-91
2.46253e-92
7.05363e-94
1.86545e-95
4.52569e-97
9.98525e-99
1.97918e-100
3.47809e-102
5.32413e-104
6.93497e-106
7.45713e-108
6.3251e-110
3.93634e-112
1.57037e-114
2.83837e-117
2.16994e-119
9.8597e-117
2.49e-114
4.26792e-112
5.51025e-110
5.68489e-108
4.86284e-106
3.53788e-104
2.24288e-102
1.25682e-100
6.28295e-99
2.84564e-97
1.17717e-95
4.49372e-94
1.58596e-92
5.25002e-91
1.63034e-89
4.80492e-88
1.34632e-86
3.61699e-85
9.3614e-84
2.33592e-82
5.65793e-81
1.33878e-79
3.1296e-78
7.36897e-77
1.80338e-75
4.70507e-74
1.27e-72
3.21257e-71
6.76096e-70
1.06438e-68
1.11442e-67
6.65507e-67
1.91707e-66
2.66688e-66
2.02459e-66
9.46436e-67
2.98957e-67
6.83537e-68
1.19069e-68
1.64225e-69
1.84626e-70
1.72919e-71
1.37125e-72
9.31773e-74
5.47283e-75
2.79496e-76
1.24606e-77
4.86054e-79
1.65986e-80
4.95725e-82
1.29202e-83
2.94742e-85
5.87271e-87
1.01925e-88
1.52783e-90
1.92924e-92
1.95914e-94
1.52207e-96
9.18929e-99
4.38103e-101
1.55344e-103
3.37009e-106
2.64242e-109
5.24015e-107
6.50795e-104
2.92847e-101
8.12176e-99
1.69638e-96
2.85263e-94
3.82559e-92
3.81603e-90
2.94815e-88
1.91058e-86
1.06824e-84
5.2149e-83
2.2249e-81
8.26497e-80
2.67919e-78
7.5974e-77
1.88557e-75
4.09142e-74
7.74039e-73
1.27079e-71
1.79806e-70
2.17172e-69
2.21042e-68
1.86359e-67
1.27185e-66
6.81138e-66
2.74356e-65
7.83844e-65
1.46345e-64
1.59091e-64
8.6328e-65
2.03875e-65
2.27648e-66
1.5239e-67
7.86318e-69
3.73087e-70
1.82076e-71
9.40891e-73
4.97702e-74
2.61365e-75
1.34177e-76
6.64304e-78
3.15125e-79
1.42297e-80
6.09901e-82
2.47447e-83
9.45908e-85
3.39759e-86
1.14421e-87
3.59947e-89
1.05386e-90
2.84519e-92
7.05144e-94
1.59077e-95
3.22967e-97
5.82087e-99
9.15419e-101
1.22802e-102
1.36258e-104
1.19596e-106
7.73645e-109
3.23525e-111
6.28077e-114
3.79759e-116
1.68794e-113
4.19592e-111
7.04522e-109
8.89565e-107
8.97565e-105
7.50812e-103
5.33382e-101
3.3067e-99
1.8123e-97
8.87173e-96
3.93283e-94
1.59025e-92
5.93432e-91
2.04526e-89
6.59639e-88
1.99654e-86
5.71224e-85
1.55446e-83
4.04463e-82
1.0121e-80
2.43702e-79
5.69316e-78
1.29886e-76
2.91997e-75
6.60184e-74
1.54756e-72
3.87689e-71
1.01977e-69
2.55268e-68
5.29801e-67
8.08674e-66
7.97391e-65
4.29183e-64
1.07798e-63
1.31671e-63
8.95558e-64
3.82553e-64
1.12291e-64
2.41943e-65
4.01838e-66
5.33679e-67
5.82573e-68
5.33551e-69
4.1624e-70
2.79682e-71
1.63161e-72
8.30897e-74
3.70678e-75
1.45145e-76
4.99021e-78
1.50445e-79
3.97194e-81
9.21162e-83
1.86891e-84
3.31346e-86
5.07679e-88
6.53016e-90
6.64628e-92
5.14599e-94
3.11866e-96
1.50474e-98
5.42957e-101
1.20341e-103
9.67641e-107
1.47434e-104
1.77672e-101
7.7828e-99
2.10944e-96
4.33216e-94
7.21689e-92
9.65427e-90
9.21706e-88
6.91263e-86
4.37799e-84
2.40358e-82
1.15521e-80
4.87209e-79
1.79568e-77
5.79002e-76
1.63781e-74
4.06734e-73
8.86155e-72
1.68986e-70
2.80871e-69
4.04324e-68
4.99643e-67
5.23694e-66
4.58144e-65
3.27405e-64
1.8565e-63
8.02715e-63
2.50477e-62
5.22055e-62
6.51019e-62
4.17033e-62
1.16825e-62
1.47244e-63
1.06536e-64
5.8284e-66
2.91682e-67
1.52396e-68
8.47334e-70
4.81527e-71
2.71887e-72
1.50206e-73
7.98692e-75
4.05269e-76
1.95192e-77
8.88932e-79
3.82342e-80
1.54976e-81
5.90084e-83
2.10455e-84
6.99408e-86
2.15883e-87
6.14207e-89
1.60093e-90
3.78605e-92
8.04064e-94
1.51287e-95
2.48063e-97
3.46668e-99
4.00505e-101
3.66095e-103
2.46977e-105
1.08123e-107
2.22625e-110
1.12282e-112
4.85358e-110
1.18197e-107
1.92784e-105
2.35081e-103
2.27845e-101
1.82695e-99
1.24773e-97
7.39893e-96
3.8728e-94
1.81054e-92
7.65409e-91
2.94492e-89
1.04272e-87
3.40593e-86
1.0369e-84
2.96095e-83
7.97512e-82
2.04117e-80
4.98923e-79
1.16965e-77
2.64054e-76
5.76561e-75
1.22511e-73
2.56071e-72
5.36921e-71
1.16594e-69
2.70658e-68
6.68532e-67
1.60143e-65
3.18505e-64
4.58922e-63
4.15168e-62
1.96331e-61
4.23983e-61
4.52144e-61
2.74795e-61
1.07098e-61
2.91799e-62
5.91877e-63
9.36337e-64
1.1961e-64
1.26619e-65
1.13233e-66
8.67576e-68
5.75357e-69
3.32693e-70
1.68554e-71
7.50554e-73
2.94213e-74
1.01535e-75
3.07995e-77
8.21689e-79
1.93081e-80
3.98112e-82
7.20142e-84
1.12989e-85
1.49958e-87
1.58595e-89
1.23576e-91
7.62137e-94
3.76437e-96
1.39663e-98
3.19193e-101
2.65353e-104
3.28165e-102
3.80428e-99
1.60793e-96
4.21905e-94
8.45263e-92
1.38998e-89
1.79044e-87
1.64762e-85
1.20405e-83
7.47078e-82
4.03421e-80
1.91215e-78
7.98042e-77
2.92075e-75
9.37413e-74
2.64638e-72
6.5781e-71
1.43922e-69
2.76636e-68
4.65409e-67
6.8141e-66
8.61137e-65
9.2891e-64
8.4257e-63
6.29868e-62
3.77674e-61
1.75014e-60
5.95295e-60
1.38211e-59
1.97356e-59
1.49432e-59
5.03004e-60
7.31417e-61
5.85247e-62
3.48854e-63
1.90098e-64
1.09657e-65
6.73244e-67
4.22827e-68
2.65027e-69
1.6133e-70
9.4196e-72
5.26467e-73
2.81356e-74
1.43379e-75
6.93704e-77
3.15595e-78
1.34685e-79
5.37585e-81
1.99919e-82
6.8938e-84
2.19109e-85
6.37252e-87
1.68103e-88
3.97915e-90
8.34087e-92
1.52276e-93
2.36974e-95
3.05319e-97
3.12289e-99
2.3735e-101
1.18864e-103
2.93847e-106
9.40219e-109
3.59913e-106
8.35712e-104
1.27813e-101
1.44876e-99
1.29817e-97
9.5807e-96
5.99195e-94
3.24344e-92
1.54448e-90
6.55422e-89
2.50544e-87
8.70513e-86
2.77089e-84
8.13645e-83
2.21827e-81
5.64939e-80
1.36293e-78
3.12901e-77
6.8666e-76
1.44395e-74
2.93802e-73
5.82762e-72
1.12727e-70
2.13612e-69
4.04276e-68
7.8968e-67
1.65237e-65
3.71819e-64
8.28117e-63
1.5426e-61
2.05552e-60
1.67265e-59
6.81876e-59
1.256e-58
1.16723e-58
6.33928e-59
2.25558e-59
5.70876e-60
1.09096e-60
1.64506e-61
2.02246e-62
2.07714e-63
1.81429e-64
1.3654e-65
8.9368e-67
5.12107e-68
2.58038e-69
1.14637e-70
4.49605e-72
1.55637e-73
4.74723e-75
1.27891e-76
3.04093e-78
6.36501e-80
1.17231e-81
1.87964e-83
2.56502e-85
2.81862e-87
2.25629e-89
1.42899e-91
7.28984e-94
2.80381e-96
6.65816e-99
5.76372e-102
6.00438e-100
6.65886e-97
2.7e-94
6.81224e-92
1.31872e-89
2.12951e-87
2.61239e-85
2.32426e-83
1.65755e-81
1.00873e-79
5.3618e-78
2.50836e-76
1.03645e-74
3.76684e-73
1.20327e-71
3.38939e-70
8.42967e-69
1.85114e-67
3.58399e-66
6.09834e-65
9.07262e-64
1.17132e-62
1.29882e-61
1.21987e-60
9.52486e-60
6.02858e-59
2.98788e-58
1.10518e-57
2.8506e-57
4.64883e-57
4.15795e-57
1.69641e-57
2.90292e-58
2.61713e-59
1.73808e-60
1.05947e-61
6.90654e-63
4.78433e-64
3.40395e-65
2.39804e-66
1.63723e-67
1.08471e-68
6.96075e-70
4.24544e-71
2.44586e-72
1.32886e-73
6.79499e-75
3.26145e-76
1.46434e-77
6.12345e-79
2.37235e-80
8.46139e-82
2.7576e-83
8.13956e-85
2.15308e-86
5.03889e-88
1.02679e-89
1.78459e-91
2.57288e-93
2.95655e-95
2.54414e-97
1.46631e-99
4.37504e-102
9.77967e-105
2.94309e-102
6.49383e-100
9.28242e-98
9.75869e-96
8.07395e-94
5.48493e-92
3.15012e-90
1.5626e-88
6.80535e-87
2.63627e-85
9.18098e-84
2.90019e-82
8.37431e-81
2.22547e-79
5.47711e-78
1.25569e-76
2.6969e-75
5.4564e-74
1.04566e-72
1.91718e-71
3.41348e-70
5.90938e-69
1.00544e-67
1.69606e-66
2.83999e-65
4.87617e-64
8.98746e-63
1.7948e-61
3.61845e-60
6.18864e-59
7.49406e-58
5.39408e-57
1.86697e-56
2.91976e-56
2.36467e-56
1.14914e-56
3.73875e-57
8.80427e-58
1.58764e-58
2.28517e-59
2.70735e-60
2.70069e-61
2.30625e-62
1.7062e-63
1.1029e-64
6.26645e-66
3.14163e-67
1.39294e-68
5.46704e-70
1.89844e-71
5.8252e-73
1.58397e-74
3.80918e-76
8.08911e-78
1.51596e-79
2.4819e-81
3.47708e-83
3.95784e-85
3.29954e-87
2.15209e-89
1.14035e-91
4.57916e-94
1.1377e-96
1.03292e-99
9.25664e-98
9.76925e-95
3.78147e-92
9.13125e-90
1.69799e-87
2.66486e-85
3.11777e-83
2.68539e-81
1.87002e-79
1.11674e-77
5.8449e-76
2.70002e-74
1.10462e-72
3.98517e-71
1.26647e-69
3.55754e-68
8.84658e-67
1.94821e-65
3.7956e-64
6.52457e-63
9.8508e-62
1.29745e-60
1.47668e-59
1.43373e-58
1.16712e-57
7.78144e-57
4.115e-56
1.65069e-55
4.71549e-55
8.75469e-55
9.23121e-55
4.58916e-55
9.41566e-56
9.72315e-57
7.33344e-58
5.11185e-59
3.83899e-60
3.0574e-61
2.50087e-62
2.01246e-63
1.5885e-64
1.22619e-65
8.99308e-67
6.24122e-68
4.0912e-69
2.5278e-70
1.46831e-71
7.99248e-73
4.06132e-74
1.91783e-75
8.37214e-77
3.35833e-78
1.22925e-79
4.07236e-81
1.20924e-82
3.18034e-84
7.2986e-86
1.43335e-87
2.34593e-89
3.08037e-91
3.05855e-93
2.06908e-95
7.56371e-98
1.42417e-100
2.84167e-98
5.8268e-96
7.61148e-94
7.26701e-92
5.44683e-90
3.34964e-88
1.74155e-86
7.82286e-85
3.08596e-83
1.08284e-81
3.41473e-80
9.76007e-79
2.54672e-77
6.10475e-76
1.35198e-74
2.7809e-73
5.34003e-72
9.62231e-71
1.6356e-69
2.63677e-68
4.05337e-67
6.03201e-66
8.82087e-65
1.28037e-63
1.87067e-62
2.77366e-61
4.40043e-60
7.61449e-59
1.357e-57
2.09174e-56
2.2661e-55
1.42051e-54
4.12314e-54
5.46236e-54
3.86017e-54
1.68198e-54
5.01485e-55
1.1011e-55
1.87735e-56
2.58414e-57
2.95529e-58
2.86772e-59
2.39741e-60
1.7456e-61
1.11554e-62
6.29029e-64
3.1402e-65
1.39048e-66
5.46446e-68
1.90438e-69
5.88125e-71
1.61406e-72
3.92564e-74
8.45725e-76
1.61258e-77
2.69506e-79
3.87438e-81
4.56282e-83
3.98932e-85
2.68718e-87
1.48759e-89
6.2633e-92
1.63451e-94
1.5624e-97
1.221e-95
1.22199e-92
4.50077e-90
1.03621e-87
1.84161e-85
2.78906e-83
3.11806e-81
2.60163e-79
1.76947e-77
1.03712e-75
5.34517e-74
2.43859e-72
9.8779e-71
3.53606e-69
1.11729e-67
3.1275e-66
7.76932e-65
1.71409e-63
3.35646e-62
5.821e-61
8.90577e-60
1.19472e-58
1.39324e-57
1.39574e-56
1.18211e-55
8.28295e-55
4.6614e-54
2.0218e-53
6.37492e-53
1.34241e-52
1.66361e-52
1.01025e-52
2.52867e-53
3.03349e-54
2.64346e-55
2.14992e-56
1.89251e-57
1.76784e-58
1.68429e-59
1.58384e-60
1.47983e-61
1.32161e-62
1.11696e-63
8.91004e-65
6.69299e-66
4.72329e-67
3.12368e-68
1.93055e-69
1.11153e-70
5.94046e-72
2.93459e-73
1.33334e-74
5.53857e-76
2.088e-77
7.07912e-79
2.13375e-80
5.63381e-82
1.27798e-83
2.42597e-85
3.71222e-87
4.32439e-89
3.47534e-91
1.56119e-93
2.98873e-96
3.57868e-94
6.73978e-92
7.90801e-90
6.71293e-88
4.44932e-86
2.4128e-84
1.10504e-82
4.37363e-81
1.52206e-79
4.72044e-78
1.31861e-76
3.34613e-75
7.76754e-74
1.65899e-72
3.2761e-71
6.00767e-70
1.02718e-68
1.64406e-67
2.47355e-66
3.51402e-65
4.73666e-64
6.08922e-63
7.56868e-62
9.30893e-61
1.15558e-59
1.46156e-58
1.95495e-57
2.86875e-56
4.41584e-55
6.025e-54
5.75076e-53
3.09167e-52
7.45307e-52
8.36028e-52
5.16641e-52
2.02379e-52
5.54404e-53
1.13785e-53
1.83856e-54
2.42541e-55
2.68278e-56
2.53685e-57
2.0795e-58
1.49231e-59
9.4401e-61
5.28876e-62
2.63167e-63
1.16481e-64
4.58712e-66
1.60547e-67
4.99294e-69
1.38308e-70
3.40326e-72
7.43822e-74
1.44294e-75
2.46213e-77
3.63139e-79
4.42232e-81
4.05287e-83
2.83555e-85
1.64617e-87
7.28765e-90
2.00433e-92
2.02468e-95
1.39904e-93
1.32187e-90
4.61302e-88
1.0089e-85
1.70939e-83
2.48536e-81
2.65722e-79
2.14803e-77
1.42692e-75
8.20903e-74
4.16617e-72
1.87715e-70
7.5269e-69
2.67208e-67
8.38853e-66
2.33792e-64
5.79639e-63
1.2797e-61
2.51534e-60
4.39458e-59
6.80193e-58
9.27734e-57
1.10638e-55
1.14122e-54
1.00331e-53
7.36972e-53
4.40116e-52
2.05731e-51
7.13335e-51
1.69662e-50
2.46129e-50
1.82577e-50
5.66106e-51
7.99015e-52
8.17704e-53
7.91626e-54
8.31606e-55
9.28089e-56
1.0474e-56
1.18339e-57
1.30175e-58
1.3522e-59
1.32148e-60
1.21268e-61
1.04379e-62
8.41984e-64
6.35998e-65
4.49318e-66
2.9636e-67
1.82013e-68
1.03701e-69
5.4536e-71
2.63018e-72
1.15386e-73
4.55849e-75
1.60183e-76
4.93018e-78
1.30339e-79
2.88422e-81
5.15301e-83
7.03962e-85
6.70598e-87
3.67909e-89
7.91492e-92
5.2198e-90
9.09044e-88
9.6444e-86
7.32193e-84
4.30919e-82
2.06326e-80
8.3028e-79
2.87496e-77
8.72116e-76
2.3509e-74
5.69711e-73
1.25323e-71
2.52277e-70
4.67901e-69
8.0414e-68
1.28666e-66
1.92424e-65
2.69884e-64
3.56068e-63
4.43229e-62
5.22223e-61
5.84496e-60
6.24043e-59
6.47676e-58
6.70936e-57
7.14311e-56
7.92824e-55
9.66943e-54
1.25653e-52
1.48947e-51
1.23387e-50
5.60023e-50
1.11332e-49
1.05846e-49
5.73652e-50
2.02652e-50
5.11614e-51
9.8427e-52
1.5112e-52
1.91519e-53
2.05339e-54
1.89587e-55
1.52651e-56
1.08138e-57
6.78102e-59
3.77935e-60
1.87664e-61
8.31118e-63
3.28275e-64
1.15475e-65
3.61801e-67
1.01195e-68
2.51988e-70
5.58834e-72
1.10316e-73
1.9222e-75
2.90892e-77
3.66241e-79
3.51464e-81
2.56526e-83
1.5656e-85
7.31519e-88
2.12746e-90
2.27905e-93
1.39649e-91
1.24345e-88
4.10471e-86
8.51538e-84
1.37228e-81
1.90891e-79
1.95247e-77
1.52897e-75
9.91884e-74
5.60024e-72
2.79837e-70
1.24542e-68
4.94243e-67
1.7387e-65
5.41898e-64
1.50243e-62
3.71381e-61
8.1952e-60
1.61471e-58
2.8375e-57
4.43532e-56
6.13854e-55
7.47045e-54
7.91603e-53
7.20629e-52
5.53386e-51
3.49621e-50
1.75517e-49
6.66521e-49
1.78229e-48
3.01208e-48
2.72348e-48
1.05906e-48
1.78035e-49
2.17681e-50
2.56272e-51
3.28108e-52
4.45549e-53
6.06898e-54
8.26246e-55
1.0646e-55
1.2847e-56
1.45146e-57
1.53721e-58
1.52859e-59
1.42888e-60
1.25585e-61
1.0366e-62
8.01457e-64
5.78084e-65
3.8694e-66
2.38819e-67
1.34916e-68
6.91762e-70
3.18789e-71
1.30515e-72
4.67978e-74
1.44305e-75
3.73466e-77
7.83873e-79
1.26696e-80
1.44536e-82
9.75588e-85
2.56549e-87
8.90998e-86
1.39101e-83
1.30617e-81
8.72196e-80
4.50687e-78
1.89443e-76
6.69471e-75
2.03582e-73
5.41993e-72
1.28018e-70
2.71132e-69
5.19444e-68
9.06976e-67
1.45284e-65
2.14779e-64
2.94642e-63
3.7699e-62
4.51986e-61
5.09952e-60
5.435e-59
5.49047e-58
5.27319e-57
4.8284e-56
4.23222e-55
3.65774e-54
3.22335e-53
2.94299e-52
2.92974e-51
3.14346e-50
3.17349e-49
2.24745e-48
8.47378e-48
1.3829e-47
1.1169e-47
5.32784e-48
1.70349e-48
3.97677e-49
7.19406e-50
1.05255e-50
1.28485e-51
1.33846e-52
1.20919e-53
9.5816e-55
6.71189e-56
4.17855e-57
2.32003e-58
1.15101e-59
5.10615e-61
2.02476e-62
7.1645e-64
2.26255e-65
6.39202e-67
1.61134e-68
3.62654e-70
7.28677e-72
1.29693e-73
2.01423e-75
2.62186e-77
2.63357e-79
2.01182e-81
1.29376e-83
6.38708e-86
1.96753e-88
2.23966e-91
1.2236e-89
1.02412e-86
3.19085e-84
6.26758e-82
9.59469e-80
1.27421e-77
1.24734e-75
9.46154e-74
5.99336e-72
3.32062e-70
1.63345e-68
7.1807e-67
2.81959e-65
9.82202e-64
3.0367e-62
8.36784e-61
2.06009e-59
4.53829e-58
8.95081e-57
1.57951e-55
2.48873e-54
3.48792e-53
4.32175e-52
4.69294e-51
4.4119e-50
3.53157e-49
2.35266e-48
1.26369e-47
5.23294e-47
1.56527e-46
3.06452e-46
3.36383e-46
1.6547e-46
3.35868e-47
5.00298e-48
7.32157e-49
1.1647e-49
1.94504e-50
3.23362e-51
5.23673e-52
7.9151e-53
1.11827e-53
1.48263e-54
1.85105e-55
2.18021e-56
2.42219e-57
2.53341e-58
2.48643e-59
2.28064e-60
1.94614e-61
1.53742e-62
1.11835e-63
7.44497e-65
4.50302e-66
2.45281e-67
1.19003e-68
5.07114e-70
1.8639e-71
5.76717e-73
1.45215e-74
2.829e-76
3.92275e-78
3.28416e-80
1.09566e-82
2.0832e-81
2.83501e-79
2.28526e-77
1.29737e-75
5.67554e-74
2.01756e-72
6.03683e-71
1.55883e-69
3.53837e-68
7.15916e-67
1.30491e-65
2.16018e-64
3.2682e-63
4.54123e-62
5.81865e-61
6.89862e-60
7.5931e-59
7.78514e-58
7.46334e-57
6.71854e-56
5.70658e-55
4.59689e-54
3.52939e-53
2.59384e-52
1.848e-51
1.32834e-50
9.93461e-50
7.96819e-49
6.92378e-48
5.83301e-47
3.47983e-46
1.07258e-45
1.4341e-45
9.87352e-46
4.16296e-46
1.20958e-46
2.62086e-47
4.47347e-48
6.25647e-49
7.37719e-50
7.48578e-51
6.6323e-52
5.18256e-53
3.59639e-54
2.22648e-55
1.23328e-56
6.12112e-58
2.72314e-59
1.08514e-60
3.86582e-62
1.23108e-63
3.51421e-65
8.97127e-67
2.04945e-68
4.19235e-70
7.62378e-72
1.21529e-73
1.63554e-75
1.71903e-77
1.37775e-79
9.35023e-82
4.88313e-84
1.59532e-86
1.93233e-89
9.44104e-88
7.42599e-85
2.1831e-82
4.05657e-80
5.88418e-78
7.44209e-76
6.97245e-74
5.12217e-72
3.16782e-70
1.72224e-68
8.33952e-67
3.62065e-65
1.40621e-63
4.84697e-62
1.48534e-60
4.06419e-59
9.95501e-58
2.1867e-56
4.31104e-55
7.62675e-54
1.20901e-52
1.71208e-51
2.15467e-50
2.39135e-49
2.315e-48
1.92553e-47
1.34784e-46
7.71498e-46
3.46756e-45
1.15389e-44
2.60071e-44
3.4458e-44
2.15358e-44
5.37654e-45
9.98421e-46
1.85168e-46
3.69739e-47
7.5752e-48
1.53821e-48
2.96169e-49
5.32332e-50
8.98394e-51
1.42965e-51
2.1485e-52
3.04703e-53
4.06983e-54
5.10648e-55
6.00231e-56
6.59014e-57
6.73592e-58
6.38366e-59
5.58129e-60
4.4739e-61
3.26285e-62
2.14484e-63
1.25628e-64
6.46336e-66
2.86827e-67
1.07195e-68
3.26409e-70
7.71205e-72
1.30537e-73
1.35634e-75
5.82372e-78
6.49204e-77
7.69666e-75
5.31513e-73
2.55769e-71
9.42358e-70
2.80829e-68
7.01856e-67
1.50949e-65
2.84828e-64
4.78644e-63
7.24927e-62
9.99026e-61
1.26236e-59
1.47134e-58
1.58906e-57
1.59539e-56
1.49221e-55
1.30208e-54
1.06111e-53
8.08663e-53
5.77576e-52
3.88029e-51
2.46543e-50
1.49174e-49
8.66179e-49
5.00477e-48
3.01889e-47
1.93107e-46
1.33828e-45
9.23013e-45
4.57402e-44
1.13557e-43
1.24451e-43
7.33729e-44
2.74764e-44
7.28764e-45
1.47161e-45
2.37885e-46
3.191e-47
3.64543e-48
3.61294e-49
3.1468e-50
2.43004e-51
1.6737e-52
1.03213e-53
5.71215e-55
2.84001e-56
1.26847e-57
5.08475e-59
1.82536e-60
5.86428e-62
1.69199e-63
4.37551e-65
1.01478e-66
2.11356e-68
3.92776e-70
6.42659e-72
8.94069e-74
9.82596e-76
8.26807e-78
5.92412e-80
3.27939e-82
1.13841e-84
1.47086e-87
6.43231e-86
4.74333e-83
1.31351e-80
2.30624e-78
3.17193e-76
3.81788e-74
3.42513e-72
2.43702e-70
1.47153e-68
7.85045e-67
3.74226e-65
1.60442e-63
6.16031e-62
2.09946e-60
6.37177e-59
1.7296e-57
4.21076e-56
9.21154e-55
1.81277e-53
3.20985e-52
5.10941e-51
7.29443e-50
9.30056e-49
1.05203e-47
1.04552e-46
9.00579e-46
6.59894e-45
4.008e-44
1.94552e-43
7.16001e-43
1.84487e-42
2.92918e-42
2.32595e-42
7.32929e-43
1.74621e-43
4.18292e-44
1.05746e-44
2.6794e-45
6.70053e-46
1.56832e-46
3.43348e-47
7.05696e-48
1.3643e-48
2.48296e-49
4.25509e-50
6.86509e-51
1.04194e-51
1.48529e-52
1.98363e-53
2.47328e-54
2.86608e-55
3.0696e-56
3.018e-57
2.70191e-58
2.18124e-59
1.56922e-60
9.91528e-62
5.40294e-63
2.47923e-64
9.2732e-66
2.6958e-67
5.64004e-69
7.33562e-71
4.0956e-73
3.03274e-72
3.07468e-70
1.78216e-68
7.11676e-67
2.16086e-65
5.28133e-64
1.07895e-62
1.89288e-61
2.91047e-60
3.98493e-59
4.91997e-58
5.53271e-57
5.71211e-56
5.44821e-55
4.82425e-54
3.98075e-53
3.06971e-52
2.21667e-51
1.50073e-50
9.53062e-50
5.67762e-49
3.17319e-48
1.66584e-47
8.24323e-47
3.87127e-46
1.76443e-45
8.32476e-45
4.16646e-44
2.26558e-43
1.25218e-42
5.0843e-42
1.00444e-41
9.04836e-42
4.5937e-42
1.53622e-42
3.7379e-43
7.06592e-44
1.08606e-44
1.40234e-45
1.55714e-46
1.5116e-47
1.29753e-48
9.92409e-50
6.79743e-51
4.18268e-52
2.31631e-53
1.15515e-54
5.18578e-56
2.09314e-57
7.57845e-59
2.45756e-60
7.16795e-62
1.87837e-63
4.42308e-65
9.38091e-67
1.78174e-68
2.99244e-70
4.30333e-72
4.94396e-74
4.37404e-76
3.31462e-78
1.94437e-80
7.16867e-83
9.87319e-86
3.86937e-84
2.67669e-81
6.98459e-79
1.15877e-76
1.50965e-74
1.72711e-72
1.48402e-70
1.02281e-68
6.03058e-67
3.15693e-65
1.4816e-63
6.27294e-62
2.3794e-60
8.01185e-59
2.40617e-57
6.47375e-56
1.56486e-54
3.40539e-53
6.68047e-52
1.18203e-50
1.8857e-49
2.7079e-48
3.48876e-47
4.01018e-46
4.07793e-45
3.6246e-44
2.76909e-43
1.7765e-42
9.26366e-42
3.74661e-41
1.09522e-40
2.06592e-40
2.07536e-40
8.48969e-41
2.64961e-41
8.25676e-42
2.65478e-42
8.47232e-43
2.62851e-43
7.58133e-44
2.04011e-44
5.14463e-45
1.22076e-45
2.73457e-46
5.79352e-47
1.16128e-47
2.19985e-48
3.92886e-49
6.59203e-50
1.0343e-50
1.50903e-51
2.03362e-52
2.51188e-53
2.8186e-54
2.84396e-55
2.54957e-56
2.00178e-57
1.35212e-58
7.67758e-60
3.55094e-61
1.27755e-62
3.32013e-64
5.42097e-66
3.9301e-68
2.04535e-67
1.75787e-65
8.47935e-64
2.78679e-62
6.91042e-61
1.37037e-59
2.25781e-58
3.17639e-57
3.89631e-56
4.23757e-55
4.14346e-54
3.68558e-53
3.01212e-52
2.28054e-51
1.60993e-50
1.06463e-49
6.61445e-49
3.86682e-48
2.12815e-47
1.10252e-46
5.3742e-46
2.46309e-45
1.06058e-44
4.28864e-44
1.6305e-43
5.86795e-43
2.1152e-42
8.08693e-42
3.36551e-41
1.44973e-40
4.7503e-40
7.40833e-40
5.51346e-40
2.42619e-40
7.29003e-41
1.63612e-41
2.90934e-42
4.27036e-43
5.32794e-44
5.76964e-45
5.50233e-46
4.6669e-47
3.54339e-48
2.4184e-49
1.48744e-50
8.25483e-52
4.13452e-53
1.86765e-54
7.59785e-56
2.77681e-57
9.09461e-59
2.68216e-60
7.12326e-62
1.70303e-63
3.6785e-65
7.1399e-67
1.23077e-68
1.82895e-70
2.19504e-72
2.04166e-74
1.63276e-76
1.01391e-78
3.97093e-81
5.83513e-84
2.05317e-82
1.3318e-79
3.2751e-77
5.14055e-75
6.34869e-73
6.90268e-71
5.68494e-69
3.79687e-67
2.18653e-65
1.12317e-63
5.1916e-62
2.17057e-60
8.12671e-59
2.70161e-57
8.02236e-56
2.13739e-54
5.12479e-53
1.10816e-51
2.16422e-50
3.82058e-49
6.09691e-48
8.78671e-47
1.14084e-45
1.32847e-44
1.37754e-43
1.25861e-42
9.98244e-42
6.73182e-41
3.74971e-40
1.65533e-39
5.44433e-39
1.20806e-38
1.52287e-38
8.25326e-39
3.40352e-39
1.38892e-39
5.76178e-40
2.35797e-40
9.16289e-41
3.3005e-41
1.10972e-41
3.50798e-42
1.04853e-42
2.97452e-43
8.02434e-44
2.05883e-44
5.01559e-45
1.15605e-45
2.50786e-46
5.08673e-47
9.57416e-48
1.65856e-48
2.62146e-49
3.74536e-50
4.78781e-51
5.41267e-52
5.33718e-53
4.51217e-54
3.19859e-55
1.84411e-56
8.27008e-58
2.68549e-59
5.52354e-61
5.18689e-63
2.08067e-62
1.51165e-60
6.02732e-59
1.62522e-57
3.28257e-56
5.26872e-55
6.9823e-54
7.84959e-53
7.64055e-52
6.54498e-51
5.00181e-50
3.45121e-49
2.17346e-48
1.2619e-47
6.81701e-47
3.45437e-46
1.65256e-45
7.4959e-45
3.22977e-44
1.32129e-43
5.12111e-43
1.87487e-42
6.46442e-42
2.09411e-41
6.36421e-41
1.81504e-40
4.97897e-40
1.4248e-39
4.38777e-39
1.42708e-38
3.70225e-38
4.54533e-38
2.81471e-38
1.08174e-38
2.94024e-39
6.12296e-40
1.02954e-40
1.44976e-41
1.75484e-42
1.85984e-43
1.74781e-44
1.4687e-45
1.10954e-46
7.56084e-48
4.65613e-49
2.59327e-50
1.3061e-51
5.94292e-53
2.43898e-54
9.00519e-56
2.9812e-57
8.89118e-59
2.39314e-60
5.80959e-62
1.27746e-63
2.53358e-65
4.48118e-67
6.87802e-69
8.61764e-71
8.4279e-73
7.11991e-75
4.68432e-77
1.94869e-79
3.0547e-82
9.64152e-81
5.86631e-78
1.35999e-75
2.01779e-73
2.36272e-71
2.44072e-69
1.92802e-67
1.2486e-65
7.02702e-64
3.54299e-62
1.61415e-60
6.66405e-59
2.4601e-57
8.06847e-56
2.36704e-54
6.23959e-53
1.4825e-51
3.18185e-50
6.17872e-49
1.08664e-47
1.73149e-46
2.49881e-45
3.26082e-44
3.83467e-43
4.04008e-42
3.77906e-41
3.09762e-40
2.1845e-39
1.29197e-38
6.18047e-38
2.2667e-37
5.85137e-37
9.14951e-37
6.63848e-37
3.62556e-37
1.95337e-37
1.05352e-37
5.54012e-38
2.71556e-38
1.23716e-38
5.29821e-39
2.15246e-39
8.35047e-40
3.10653e-40
1.10979e-40
3.80017e-41
1.24091e-41
3.83486e-42
1.11156e-42
2.99407e-43
7.42717e-44
1.6822e-44
3.44961e-45
6.34973e-46
1.03936e-46
1.49673e-47
1.8718e-48
2.00006e-49
1.78734e-50
1.29699e-51
7.31865e-53
2.9958e-54
7.81818e-56
9.51438e-58
2.89839e-57
1.76617e-55
5.77832e-54
1.27127e-52
2.0811e-51
2.69138e-50
2.85671e-49
2.55579e-48
1.96574e-47
1.32003e-46
7.8382e-46
4.16144e-45
1.99584e-44
8.73487e-44
3.52501e-43
1.326e-42
4.70017e-42
1.58522e-41
5.12289e-41
1.59095e-40
4.74094e-40
1.34894e-39
3.64098e-39
9.26548e-39
2.21327e-38
4.95255e-38
1.0449e-37
2.22189e-37
4.98082e-37
1.18714e-36
2.38662e-36
2.3135e-36
1.20304e-36
4.07266e-37
1.00888e-37
1.96207e-38
3.13717e-39
4.25877e-40
5.02239e-41
5.22853e-42
4.85715e-43
4.05462e-44
3.05475e-45
2.08242e-46
1.28612e-47
7.19882e-49
3.65017e-50
1.67467e-51
6.93961e-53
2.59057e-54
8.67824e-56
2.61732e-57
7.13887e-59
1.75968e-60
3.93772e-62
7.97603e-64
1.44684e-65