/*--------------------------------*- C++ -*----------------------------------*\
| =========                 |                                                 |
| \\      /  F ield         | OpenFOAM: The Open Source CFD Toolbox           |
|  \\    /   O peration     | Version:  2212                                  |
|   \\  /    A nd           | Website:  www.openfoam.com                      |
|    \\/     M anipulation  |                                                 |
\*---------------------------------------------------------------------------*/
FoamFile
{
    version     2.0;
    format      ascii;
    arch        "LSB;label=64;scalar=64";
    class       volVectorField;
    location    "0.3";
    object      U;
}
// * * * * * * * * * * * * * * * * * * * * * * * * * * * * * * * * * * * * * //

dimensions      [0 1 -1 0 0 0 0];

internalField   nonuniform List<vector> 
32768
(
(-4.47566e-06 1.38969e-05 0)
(-2.95433e-05 2.83314e-05 0)
(-6.38734e-05 3.17206e-05 0)
(-9.59394e-05 3.04708e-05 0)
(-0.000123044 2.84914e-05 0)
(-0.00014637 2.70487e-05 0)
(-0.000167581 2.61709e-05 0)
(-0.000187726 2.56013e-05 0)
(-0.000207279 2.51375e-05 0)
(-0.0002264 2.46751e-05 0)
(-0.000245118 2.41727e-05 0)
(-0.000263413 2.36173e-05 0)
(-0.000281252 2.30076e-05 0)
(-0.000298597 2.23452e-05 0)
(-0.000315412 2.16317e-05 0)
(-0.000331663 2.08677e-05 0)
(-0.000347314 2.00544e-05 0)
(-0.000362332 1.91929e-05 0)
(-0.00037668 1.82827e-05 0)
(-0.000390325 1.73285e-05 0)
(-0.000403236 1.63293e-05 0)
(-0.000415378 1.52861e-05 0)
(-0.000426717 1.41962e-05 0)
(-0.000437218 1.30639e-05 0)
(-0.000446849 1.18911e-05 0)
(-0.000455577 1.06795e-05 0)
(-0.000463372 9.427e-06 0)
(-0.000470198 8.1347e-06 0)
(-0.000476023 6.80419e-06 0)
(-0.000480814 5.43612e-06 0)
(-0.000484541 4.03061e-06 0)
(-0.000487169 2.58798e-06 0)
(-0.000488668 1.11774e-06 0)
(-0.000489015 -3.79547e-07 0)
(-0.000488173 -1.89487e-06 0)
(-0.00048614 -3.41669e-06 0)
(-0.000482908 -4.93692e-06 0)
(-0.000478473 -6.45033e-06 0)
(-0.00047283 -7.95601e-06 0)
(-0.000465977 -9.45608e-06 0)
(-0.000457918 -1.09413e-05 0)
(-0.000448659 -1.24082e-05 0)
(-0.000438204 -1.38551e-05 0)
(-0.000426564 -1.52799e-05 0)
(-0.000413754 -1.66782e-05 0)
(-0.000399788 -1.80473e-05 0)
(-0.000384689 -1.93777e-05 0)
(-0.000368487 -2.0667e-05 0)
(-0.000351207 -2.19105e-05 0)
(-0.000332885 -2.31035e-05 0)
(-0.000313565 -2.42433e-05 0)
(-0.000293289 -2.53225e-05 0)
(-0.000272106 -2.63389e-05 0)
(-0.000250067 -2.72893e-05 0)
(-0.000227232 -2.81658e-05 0)
(-0.000203664 -2.89663e-05 0)
(-0.000179425 -2.96886e-05 0)
(-0.000154585 -3.03293e-05 0)
(-0.000129216 -3.08853e-05 0)
(-0.000103392 -3.13542e-05 0)
(-7.71872e-05 -3.17344e-05 0)
(-5.06821e-05 -3.20231e-05 0)
(-2.39703e-05 -3.22108e-05 0)
(2.86382e-06 -3.22825e-05 0)
(2.97167e-05 -3.22338e-05 0)
(5.64613e-05 -3.20766e-05 0)
(8.30306e-05 -3.18246e-05 0)
(0.000109342 -3.14868e-05 0)
(0.000135324 -3.10651e-05 0)
(0.000160905 -3.0561e-05 0)
(0.000186017 -2.99746e-05 0)
(0.000210589 -2.93069e-05 0)
(0.000234553 -2.85591e-05 0)
(0.000257845 -2.77348e-05 0)
(0.000280405 -2.68367e-05 0)
(0.00030217 -2.58671e-05 0)
(0.000323082 -2.48316e-05 0)
(0.000343087 -2.37345e-05 0)
(0.000362142 -2.25779e-05 0)
(0.000380204 -2.13669e-05 0)
(0.000397229 -2.01068e-05 0)
(0.000413183 -1.88017e-05 0)
(0.000428033 -1.74558e-05 0)
(0.000441752 -1.60732e-05 0)
(0.00045432 -1.46592e-05 0)
(0.000465717 -1.32198e-05 0)
(0.000475922 -1.17562e-05 0)
(0.000484921 -1.02697e-05 0)
(0.000492709 -8.76664e-06 0)
(0.000499281 -7.25056e-06 0)
(0.00050463 -5.7235e-06 0)
(0.000508752 -4.18674e-06 0)
(0.000511644 -2.64159e-06 0)
(0.00051331 -1.09116e-06 0)
(0.000513756 4.55567e-07 0)
(0.000512977 1.98387e-06 0)
(0.000511014 3.48536e-06 0)
(0.000507899 4.94706e-06 0)
(0.000503669 6.3697e-06 0)
(0.000498358 7.75442e-06 0)
(0.000491999 9.10127e-06 0)
(0.000484626 1.04047e-05 0)
(0.00047627 1.16658e-05 0)
(0.000466964 1.28877e-05 0)
(0.000456741 1.40711e-05 0)
(0.000445635 1.52151e-05 0)
(0.000433679 1.63184e-05 0)
(0.000420904 1.73765e-05 0)
(0.000407344 1.83897e-05 0)
(0.000393031 1.9358e-05 0)
(0.000377999 2.02792e-05 0)
(0.000362282 2.11548e-05 0)
(0.000345912 2.19826e-05 0)
(0.000328925 2.27597e-05 0)
(0.000311357 2.3486e-05 0)
(0.000293241 2.41625e-05 0)
(0.000274614 2.47841e-05 0)
(0.000255514 2.53507e-05 0)
(0.000235975 2.58643e-05 0)
(0.000216017 2.63373e-05 0)
(0.000195612 2.68115e-05 0)
(0.000174599 2.7393e-05 0)
(0.000152499 2.82884e-05 0)
(0.000128247 2.97632e-05 0)
(0.000100133 3.18032e-05 0)
(6.69021e-05 3.31451e-05 0)
(3.12411e-05 2.97786e-05 0)
(4.87432e-06 1.48779e-05 0)
(-3.6704e-06 5.00131e-05 0)
(-3.2253e-05 0.000100038 0)
(-6.51901e-05 0.000104138 0)
(-9.11952e-05 8.9201e-05 0)
(-0.000108488 7.36981e-05 0)
(-0.000119637 6.35008e-05 0)
(-0.000127452 5.80005e-05 0)
(-0.000133692 5.51711e-05 0)
(-0.000139206 5.35125e-05 0)
(-0.000144342 5.22474e-05 0)
(-0.000149229 5.10487e-05 0)
(-0.000153909 4.97989e-05 0)
(-0.000158395 4.84683e-05 0)
(-0.00016269 4.70474e-05 0)
(-0.000166794 4.55355e-05 0)
(-0.000170706 4.39314e-05 0)
(-0.000174425 4.22345e-05 0)
(-0.000177952 4.04484e-05 0)
(-0.000181267 3.85729e-05 0)
(-0.00018437 3.66053e-05 0)
(-0.000187269 3.45459e-05 0)
(-0.000189964 3.23963e-05 0)
(-0.000192437 3.01549e-05 0)
(-0.000194664 2.78213e-05 0)
(-0.000196644 2.53947e-05 0)
(-0.000198381 2.28744e-05 0)
(-0.000199871 2.02602e-05 0)
(-0.000201092 1.7552e-05 0)
(-0.000202036 1.47494e-05 0)
(-0.000202703 1.18521e-05 0)
(-0.000203089 8.86178e-06 0)
(-0.000203159 5.78191e-06 0)
(-0.000202903 2.61723e-06 0)
(-0.000202329 -6.22441e-07 0)
(-0.000201436 -3.92004e-06 0)
(-0.000200204 -7.25771e-06 0)
(-0.000198617 -1.06241e-05 0)
(-0.000196665 -1.40114e-05 0)
(-0.000194337 -1.74141e-05 0)
(-0.000191594 -2.0828e-05 0)
(-0.000188422 -2.4247e-05 0)
(-0.000184835 -2.76622e-05 0)
(-0.000180817 -3.10644e-05 0)
(-0.000176362 -3.44438e-05 0)
(-0.000171468 -3.77881e-05 0)
(-0.000166111 -4.10844e-05 0)
(-0.000160293 -4.4321e-05 0)
(-0.000154037 -4.74832e-05 0)
(-0.000147328 -5.05564e-05 0)
(-0.000140175 -5.35285e-05 0)
(-0.000132597 -5.63856e-05 0)
(-0.000124602 -5.91123e-05 0)
(-0.000116212 -6.16951e-05 0)
(-0.000107429 -6.412e-05 0)
(-9.8278e-05 -6.63742e-05 0)
(-8.88008e-05 -6.84455e-05 0)
(-7.90157e-05 -7.0322e-05 0)
(-6.89465e-05 -7.1994e-05 0)
(-5.86301e-05 -7.34529e-05 0)
(-4.81035e-05 -7.46908e-05 0)
(-3.74004e-05 -7.56988e-05 0)
(-2.65583e-05 -7.64613e-05 0)
(-1.5624e-05 -7.6952e-05 0)
(-4.64516e-06 -7.71386e-05 0)
(6.34495e-06 -7.70164e-05 0)
(1.73059e-05 -7.66142e-05 0)
(2.81975e-05 -7.59704e-05 0)
(3.89825e-05 -7.51086e-05 0)
(4.96324e-05 -7.40392e-05 0)
(6.01162e-05 -7.27661e-05 0)
(7.04034e-05 -7.12911e-05 0)
(8.04645e-05 -6.96174e-05 0)
(9.02684e-05 -6.77504e-05 0)
(9.97922e-05 -6.56977e-05 0)
(0.000109023 -6.34695e-05 0)
(0.000117928 -6.10775e-05 0)
(0.000126467 -5.8533e-05 0)
(0.000134631 -5.58454e-05 0)
(0.00014242 -5.30269e-05 0)
(0.000149816 -5.00912e-05 0)
(0.000156803 -4.70516e-05 0)
(0.000163372 -4.39209e-05 0)
(0.000169515 -4.07119e-05 0)
(0.000175228 -3.7437e-05 0)
(0.000180512 -3.41083e-05 0)
(0.00018537 -3.07378e-05 0)
(0.000189794 -2.73359e-05 0)
(0.000193766 -2.39089e-05 0)
(0.000197304 -2.04647e-05 0)
(0.000200428 -1.70112e-05 0)
(0.000203142 -1.35546e-05 0)
(0.000205449 -1.00999e-05 0)
(0.000207358 -6.65346e-06 0)
(0.000208884 -3.22509e-06 0)
(0.000210045 1.67186e-07 0)
(0.000210871 3.49693e-06 0)
(0.000211315 6.7412e-06 0)
(0.000211405 9.88767e-06 0)
(0.000211182 1.29335e-05 0)
(0.000210651 1.58787e-05 0)
(0.000209803 1.87249e-05 0)
(0.000208647 2.14745e-05 0)
(0.000207208 2.41292e-05 0)
(0.000205491 2.66915e-05 0)
(0.000203503 2.91639e-05 0)
(0.000201259 3.1546e-05 0)
(0.000198757 3.38362e-05 0)
(0.000196002 3.60388e-05 0)
(0.000193011 3.81479e-05 0)
(0.000189785 4.01801e-05 0)
(0.000186332 4.21092e-05 0)
(0.000182651 4.39476e-05 0)
(0.000178737 4.5707e-05 0)
(0.000174603 4.73673e-05 0)
(0.00017026 4.89376e-05 0)
(0.000165696 5.04209e-05 0)
(0.000160909 5.18077e-05 0)
(0.000155909 5.31108e-05 0)
(0.000150682 5.43638e-05 0)
(0.000145184 5.56826e-05 0)
(0.000139288 5.73958e-05 0)
(0.000132642 6.02906e-05 0)
(0.000124388 6.58965e-05 0)
(0.000112745 7.62976e-05 0)
(9.4838e-05 9.21984e-05 0)
(6.79932e-05 0.000107775 0)
(3.39262e-05 0.000104184 0)
(3.9967e-06 5.29637e-05 0)
(-3.49694e-06 8.02373e-05 0)
(-2.81247e-05 0.000153028 0)
(-5.30741e-05 0.000149073 0)
(-6.92425e-05 0.000115652 0)
(-7.59693e-05 8.43104e-05 0)
(-7.63174e-05 6.43567e-05 0)
(-7.32881e-05 5.3907e-05 0)
(-6.87181e-05 4.8859e-05 0)
(-6.34997e-05 4.62623e-05 0)
(-5.80206e-05 4.45937e-05 0)
(-5.24401e-05 4.32096e-05 0)
(-4.6813e-05 4.18668e-05 0)
(-4.11754e-05 4.04965e-05 0)
(-3.55631e-05 3.90805e-05 0)
(-2.99978e-05 3.76062e-05 0)
(-2.45026e-05 3.60737e-05 0)
(-1.90888e-05 3.44819e-05 0)
(-1.37734e-05 3.28297e-05 0)
(-8.58165e-06 3.11163e-05 0)
(-3.52929e-06 2.93341e-05 0)
(1.3723e-06 2.74837e-05 0)
(6.10336e-06 2.55639e-05 0)
(1.06483e-05 2.35772e-05 0)
(1.49993e-05 2.15173e-05 0)
(1.9143e-05 1.93813e-05 0)
(2.30662e-05 1.71653e-05 0)
(2.67573e-05 1.48734e-05 0)
(3.02075e-05 1.25043e-05 0)
(3.34056e-05 1.0059e-05 0)
(3.63403e-05 7.53793e-06 0)
(3.90005e-05 4.94433e-06 0)
(4.13788e-05 2.28416e-06 0)
(4.3469e-05 -4.48954e-07 0)
(4.5251e-05 -3.24495e-06 0)
(4.67193e-05 -6.0991e-06 0)
(4.78888e-05 -9.01103e-06 0)
(4.87652e-05 -1.19793e-05 0)
(4.93543e-05 -1.50002e-05 0)
(4.96634e-05 -1.80663e-05 0)
(4.97058e-05 -2.11676e-05 0)
(4.9491e-05 -2.43067e-05 0)
(4.90241e-05 -2.74728e-05 0)
(4.83163e-05 -3.06522e-05 0)
(4.73788e-05 -3.38331e-05 0)
(4.62202e-05 -3.70024e-05 0)
(4.48547e-05 -4.01437e-05 0)
(4.32936e-05 -4.32524e-05 0)
(4.15459e-05 -4.63083e-05 0)
(3.96253e-05 -4.92936e-05 0)
(3.75412e-05 -5.2197e-05 0)
(3.5305e-05 -5.50002e-05 0)
(3.29293e-05 -5.76896e-05 0)
(3.04251e-05 -6.02468e-05 0)
(2.7806e-05 -6.26549e-05 0)
(2.50803e-05 -6.49019e-05 0)
(2.22559e-05 -6.69697e-05 0)
(1.9345e-05 -6.88447e-05 0)
(1.63563e-05 -7.05164e-05 0)
(1.32952e-05 -7.19742e-05 0)
(1.01686e-05 -7.3206e-05 0)
(6.98478e-06 -7.42003e-05 0)
(3.74954e-06 -7.49444e-05 0)
(4.74892e-07 -7.54194e-05 0)
(-2.82021e-06 -7.56046e-05 0)
(-6.1102e-06 -7.55036e-05 0)
(-9.36922e-06 -7.51423e-05 0)
(-1.25842e-05 -7.45491e-05 0)
(-1.57427e-05 -7.37408e-05 0)
(-1.88306e-05 -7.27261e-05 0)
(-2.18362e-05 -7.1509e-05 0)
(-2.47491e-05 -7.00929e-05 0)
(-2.75589e-05 -6.84834e-05 0)
(-3.02547e-05 -6.66873e-05 0)
(-3.28255e-05 -6.4712e-05 0)
(-3.52593e-05 -6.25701e-05 0)
(-3.75463e-05 -6.02772e-05 0)
(-3.96775e-05 -5.78421e-05 0)
(-4.16401e-05 -5.52714e-05 0)
(-4.34222e-05 -5.25805e-05 0)
(-4.50158e-05 -4.97837e-05 0)
(-4.64132e-05 -4.68958e-05 0)
(-4.76068e-05 -4.39302e-05 0)
(-4.85887e-05 -4.08997e-05 0)
(-4.93512e-05 -3.78154e-05 0)
(-4.98866e-05 -3.46899e-05 0)
(-5.01901e-05 -3.15356e-05 0)
(-5.02595e-05 -2.83672e-05 0)
(-5.00927e-05 -2.51901e-05 0)
(-4.96833e-05 -2.20071e-05 0)
(-4.90247e-05 -1.88289e-05 0)
(-4.81142e-05 -1.56661e-05 0)
(-4.69482e-05 -1.25271e-05 0)
(-4.55229e-05 -9.42131e-06 0)
(-4.3836e-05 -6.3597e-06 0)
(-4.18826e-05 -3.35348e-06 0)
(-3.96466e-05 -4.11079e-07 0)
(-3.71317e-05 2.4575e-06 0)
(-3.43595e-05 5.25538e-06 0)
(-3.13361e-05 7.97331e-06 0)
(-2.80728e-05 1.06076e-05 0)
(-2.45799e-05 1.31578e-05 0)
(-2.08679e-05 1.5631e-05 0)
(-1.6946e-05 1.80271e-05 0)
(-1.2823e-05 2.0344e-05 0)
(-8.51023e-06 2.2586e-05 0)
(-4.02162e-06 2.47551e-05 0)
(6.37661e-07 2.68494e-05 0)
(5.44388e-06 2.88772e-05 0)
(1.04087e-05 3.08365e-05 0)
(1.54759e-05 3.2729e-05 0)
(2.06221e-05 3.45591e-05 0)
(2.59045e-05 3.63246e-05 0)
(3.12408e-05 3.80294e-05 0)
(3.66131e-05 3.96762e-05 0)
(4.2051e-05 4.1265e-05 0)
(4.74906e-05 4.27918e-05 0)
(5.2913e-05 4.42655e-05 0)
(5.83151e-05 4.57131e-05 0)
(6.36495e-05 4.71976e-05 0)
(6.88509e-05 4.89629e-05 0)
(7.37626e-05 5.16613e-05 0)
(7.80021e-05 5.68311e-05 0)
(8.06691e-05 6.74728e-05 0)
(7.99017e-05 8.78001e-05 0)
(7.26414e-05 0.000119881 0)
(5.57224e-05 0.000154505 0)
(2.97387e-05 0.000159522 0)
(3.81967e-06 8.50081e-05 0)
(-3.48051e-06 0.000109083 0)
(-2.71786e-05 0.000201056 0)
(-4.98467e-05 0.000186661 0)
(-6.30405e-05 0.000133767 0)
(-6.65228e-05 8.6382e-05 0)
(-6.35649e-05 5.67392e-05 0)
(-5.72359e-05 4.14419e-05 0)
(-4.94007e-05 3.42535e-05 0)
(-4.09612e-05 3.07912e-05 0)
(-3.22914e-05 2.88001e-05 0)
(-2.35631e-05 2.73205e-05 0)
(-1.48377e-05 2.60097e-05 0)
(-6.13726e-06 2.47461e-05 0)
(2.47513e-06 2.34921e-05 0)
(1.09671e-05 2.22361e-05 0)
(1.93245e-05 2.09702e-05 0)
(2.75153e-05 1.96917e-05 0)
(3.55125e-05 1.83955e-05 0)
(4.32954e-05 1.7079e-05 0)
(5.08415e-05 1.57391e-05 0)
(5.81269e-05 1.43722e-05 0)
(6.51273e-05 1.29732e-05 0)
(7.18235e-05 1.15423e-05 0)
(7.82011e-05 1.00749e-05 0)
(8.42389e-05 8.56643e-06 0)
(8.99193e-05 7.01476e-06 0)
(9.52246e-05 5.41666e-06 0)
(0.000100142 3.77133e-06 0)
(0.000104657 2.07494e-06 0)
(0.000108751 3.27766e-07 0)
(0.000112411 -1.46961e-06 0)
(0.000115624 -3.31601e-06 0)
(0.000118383 -5.21176e-06 0)
(0.00012068 -7.15825e-06 0)
(0.000122511 -9.15865e-06 0)
(0.000123869 -1.12164e-05 0)
(0.000124755 -1.33322e-05 0)
(0.000125167 -1.5504e-05 0)
(0.000125107 -1.77284e-05 0)
(0.000124575 -2.00008e-05 0)
(0.000123573 -2.23168e-05 0)
(0.000122109 -2.46691e-05 0)
(0.000120189 -2.705e-05 0)
(0.000117819 -2.94514e-05 0)
(0.000115007 -3.18618e-05 0)
(0.000111764 -3.42705e-05 0)
(0.000108106 -3.66673e-05 0)
(0.000104049 -3.9039e-05 0)
(9.96072e-05 -4.13721e-05 0)
(9.4793e-05 -4.36536e-05 0)
(8.96203e-05 -4.58678e-05 0)
(8.41087e-05 -4.79998e-05 0)
(7.82809e-05 -5.00344e-05 0)
(7.21615e-05 -5.19576e-05 0)
(6.57712e-05 -5.37565e-05 0)
(5.91226e-05 -5.54153e-05 0)
(5.22353e-05 -5.69179e-05 0)
(4.5136e-05 -5.82515e-05 0)
(3.78504e-05 -5.94053e-05 0)
(3.04039e-05 -6.03692e-05 0)
(2.28199e-05 -6.11362e-05 0)
(1.51201e-05 -6.17004e-05 0)
(7.33159e-06 -6.20554e-05 0)
(-5.06404e-07 -6.22001e-05 0)
(-8.34268e-06 -6.21412e-05 0)
(-1.6137e-05 -6.18962e-05 0)
(-2.38568e-05 -6.14807e-05 0)
(-3.14692e-05 -6.09025e-05 0)
(-3.8941e-05 -6.01648e-05 0)
(-4.62428e-05 -5.92692e-05 0)
(-5.33483e-05 -5.82186e-05 0)
(-6.02317e-05 -5.70188e-05 0)
(-6.68668e-05 -5.5675e-05 0)
(-7.323e-05 -5.41921e-05 0)
(-7.92985e-05 -5.25816e-05 0)
(-8.50492e-05 -5.08542e-05 0)
(-9.04616e-05 -4.90184e-05 0)
(-9.55171e-05 -4.70811e-05 0)
(-0.000100196 -4.50566e-05 0)
(-0.000104485 -4.29555e-05 0)
(-0.000108374 -4.07886e-05 0)
(-0.000111847 -3.85628e-05 0)
(-0.000114889 -3.62893e-05 0)
(-0.000117493 -3.39787e-05 0)
(-0.000119654 -3.16384e-05 0)
(-0.000121366 -2.92779e-05 0)
(-0.000122627 -2.69045e-05 0)
(-0.000123432 -2.45257e-05 0)
(-0.000123781 -2.21471e-05 0)
(-0.000123674 -1.97755e-05 0)
(-0.000123114 -1.74171e-05 0)
(-0.000122102 -1.50792e-05 0)
(-0.000120642 -1.27712e-05 0)
(-0.000118736 -1.05033e-05 0)
(-0.000116389 -8.28419e-06 0)
(-0.000113606 -6.12013e-06 0)
(-0.000110395 -4.01421e-06 0)
(-0.000106766 -1.96505e-06 0)
(-0.000102726 2.5212e-08 0)
(-9.82863e-05 1.95673e-06 0)
(-9.34595e-05 3.83051e-06 0)
(-8.82616e-05 5.64907e-06 0)
(-8.2713e-05 7.41619e-06 0)
(-7.68273e-05 9.13781e-06 0)
(-7.06151e-05 1.08153e-05 0)
(-6.41e-05 1.24528e-05 0)
(-5.72988e-05 1.40571e-05 0)
(-5.02318e-05 1.56266e-05 0)
(-4.2922e-05 1.71727e-05 0)
(-3.53836e-05 1.86824e-05 0)
(-2.76414e-05 2.01816e-05 0)
(-1.97241e-05 2.16621e-05 0)
(-1.16535e-05 2.31175e-05 0)
(-3.44865e-06 2.45676e-05 0)
(4.85906e-06 2.6005e-05 0)
(1.32362e-05 2.74368e-05 0)
(2.1674e-05 2.88747e-05 0)
(3.0119e-05 3.03477e-05 0)
(3.85266e-05 3.19798e-05 0)
(4.68513e-05 3.41191e-05 0)
(5.4917e-05 3.77334e-05 0)
(6.23393e-05 4.51056e-05 0)
(6.82189e-05 6.06889e-05 0)
(7.06814e-05 9.08788e-05 0)
(6.6598e-05 0.000139325 0)
(5.25865e-05 0.000193955 0)
(2.88308e-05 0.000209941 0)
(3.80868e-06 0.000115706 0)
(-3.65359e-06 0.00013826 0)
(-2.80365e-05 0.000248711 0)
(-5.1042e-05 0.000222776 0)
(-6.41253e-05 0.000149596 0)
(-6.71469e-05 8.57438e-05 0)
(-6.35459e-05 4.62483e-05 0)
(-5.65084e-05 2.60626e-05 0)
(-4.79289e-05 1.67488e-05 0)
(-3.87305e-05 1.24551e-05 0)
(-2.93301e-05 1.01881e-05 0)
(-1.98699e-05 8.67705e-06 0)
(-1.04106e-05 7.45207e-06 0)
(-1.01805e-06 6.35104e-06 0)
(8.27169e-06 5.31827e-06 0)
(1.74257e-05 4.34113e-06 0)
(2.64127e-05 3.40881e-06 0)
(3.52153e-05 2.51536e-06 0)
(4.38092e-05 1.65656e-06 0)
(5.21648e-05 8.27927e-07 0)
(6.02563e-05 2.33391e-08 0)
(6.80615e-05 -7.62414e-07 0)
(7.55597e-05 -1.53474e-06 0)
(8.27279e-05 -2.29738e-06 0)
(8.95412e-05 -3.05636e-06 0)
(9.59824e-05 -3.81796e-06 0)
(0.000102032 -4.58651e-06 0)
(0.000107674 -5.36783e-06 0)
(0.000112889 -6.16498e-06 0)
(0.000117662 -6.98425e-06 0)
(0.000121984 -7.82828e-06 0)
(0.000125845 -8.69894e-06 0)
(0.000129234 -9.59832e-06 0)
(0.000132141 -1.05299e-05 0)
(0.00013456 -1.14988e-05 0)
(0.000136486 -1.25105e-05 0)
(0.000137914 -1.35694e-05 0)
(0.000138838 -1.46779e-05 0)
(0.000139256 -1.58363e-05 0)
(0.000139164 -1.70454e-05 0)
(0.000138564 -1.83049e-05 0)
(0.00013746 -1.96125e-05 0)
(0.000135852 -2.09651e-05 0)
(0.000133744 -2.23599e-05 0)
(0.000131149 -2.37894e-05 0)
(0.000128074 -2.52488e-05 0)
(0.000124529 -2.67302e-05 0)
(0.000120526 -2.82224e-05 0)
(0.000116082 -2.97165e-05 0)
(0.000111212 -3.12074e-05 0)
(0.000105932 -3.26849e-05 0)
(0.000100262 -3.41341e-05 0)
(9.42216e-05 -3.55369e-05 0)
(8.78284e-05 -3.68834e-05 0)
(8.11028e-05 -3.81637e-05 0)
(7.40697e-05 -3.93679e-05 0)
(6.67587e-05 -4.04824e-05 0)
(5.91939e-05 -4.14927e-05 0)
(5.13934e-05 -4.23865e-05 0)
(4.33801e-05 -4.31521e-05 0)
(3.5181e-05 -4.37813e-05 0)
(2.6826e-05 -4.42704e-05 0)
(1.83486e-05 -4.46192e-05 0)
(9.77629e-06 -4.48322e-05 0)
(1.14455e-06 -4.49189e-05 0)
(-7.48738e-06 -4.48893e-05 0)
(-1.60784e-05 -4.47624e-05 0)
(-2.45954e-05 -4.4545e-05 0)
(-3.30017e-05 -4.42384e-05 0)
(-4.12577e-05 -4.384e-05 0)
(-4.93289e-05 -4.33446e-05 0)
(-5.71866e-05 -4.27492e-05 0)
(-6.47997e-05 -4.20621e-05 0)
(-7.21341e-05 -4.12881e-05 0)
(-7.91709e-05 -4.04313e-05 0)
(-8.58921e-05 -3.94966e-05 0)
(-9.22668e-05 -3.84885e-05 0)
(-9.82643e-05 -3.74157e-05 0)
(-0.000103872 -3.62824e-05 0)
(-0.000109076 -3.50974e-05 0)
(-0.000113854 -3.38691e-05 0)
(-0.000118184 -3.26011e-05 0)
(-0.000122056 -3.13006e-05 0)
(-0.000125467 -2.99724e-05 0)
(-0.0001284 -2.86229e-05 0)
(-0.000130848 -2.72566e-05 0)
(-0.000132807 -2.58811e-05 0)
(-0.000134274 -2.44988e-05 0)
(-0.00013525 -2.3111e-05 0)
(-0.000135731 -2.17216e-05 0)
(-0.000135716 -2.03338e-05 0)
(-0.000135209 -1.89513e-05 0)
(-0.000134213 -1.75797e-05 0)
(-0.000132736 -1.62259e-05 0)
(-0.000130782 -1.48986e-05 0)
(-0.000128359 -1.36058e-05 0)
(-0.000125471 -1.23534e-05 0)
(-0.000122127 -1.1144e-05 0)
(-0.000118335 -9.97641e-06 0)
(-0.000114104 -8.84677e-06 0)
(-0.000109445 -7.7516e-06 0)
(-0.000104371 -6.68663e-06 0)
(-9.88943e-05 -5.64659e-06 0)
(-9.30257e-05 -4.62553e-06 0)
(-8.67867e-05 -3.61478e-06 0)
(-8.02005e-05 -2.60977e-06 0)
(-7.32777e-05 -1.60526e-06 0)
(-6.60428e-05 -5.9377e-07 0)
(-5.85173e-05 4.28347e-07 0)
(-5.07196e-05 1.4684e-06 0)
(-4.26843e-05 2.53058e-06 0)
(-3.44313e-05 3.61737e-06 0)
(-2.5975e-05 4.73362e-06 0)
(-1.73484e-05 5.88432e-06 0)
(-8.57874e-06 7.07235e-06 0)
(3.26564e-07 8.3001e-06 0)
(9.31802e-06 9.57916e-06 0)
(1.83466e-05 1.092e-05 0)
(2.74119e-05 1.23723e-05 0)
(3.64577e-05 1.41022e-05 0)
(4.54065e-05 1.65851e-05 0)
(5.412e-05 2.11013e-05 0)
(6.2188e-05 3.06752e-05 0)
(6.86828e-05 5.12442e-05 0)
(7.16726e-05 9.14546e-05 0)
(6.79214e-05 0.000156681 0)
(5.39177e-05 0.000232107 0)
(2.97455e-05 0.000260117 0)
(3.98662e-06 0.000146794 0)
(-3.8458e-06 0.000168795 0)
(-2.94052e-05 0.000298367 0)
(-5.34887e-05 0.000260326 0)
(-6.72084e-05 0.00016605 0)
(-7.04259e-05 8.51243e-05 0)
(-6.67466e-05 3.5428e-05 0)
(-5.9486e-05 1.02114e-05 0)
(-5.06103e-05 -1.25179e-06 0)
(-4.10936e-05 -6.36576e-06 0)
(-3.1358e-05 -8.89509e-06 0)
(-2.15858e-05 -1.04251e-05 0)
(-1.18444e-05 -1.15566e-05 0)
(-2.16753e-06 -1.24905e-05 0)
(7.39655e-06 -1.32881e-05 0)
(1.6817e-05 -1.39739e-05 0)
(2.6066e-05 -1.45554e-05 0)
(3.51167e-05 -1.50399e-05 0)
(4.39419e-05 -1.54357e-05 0)
(5.25151e-05 -1.57508e-05 0)
(6.08107e-05 -1.59919e-05 0)
(6.88045e-05 -1.61668e-05 0)
(7.64735e-05 -1.62832e-05 0)
(8.37954e-05 -1.63503e-05 0)
(9.07487e-05 -1.63754e-05 0)
(9.73137e-05 -1.63654e-05 0)
(0.000103472 -1.63289e-05 0)
(0.000109206 -1.62721e-05 0)
(0.0001145 -1.62032e-05 0)
(0.00011934 -1.61265e-05 0)
(0.000123715 -1.6049e-05 0)
(0.000127613 -1.59769e-05 0)
(0.000131026 -1.59162e-05 0)
(0.000133947 -1.58733e-05 0)
(0.000136368 -1.5855e-05 0)
(0.000138287 -1.58684e-05 0)
(0.000139698 -1.59203e-05 0)
(0.000140599 -1.60152e-05 0)
(0.000140987 -1.61569e-05 0)
(0.000140861 -1.63468e-05 0)
(0.000140224 -1.65868e-05 0)
(0.000139077 -1.68805e-05 0)
(0.000137426 -1.723e-05 0)
(0.00013528 -1.76331e-05 0)
(0.000132643 -1.80901e-05 0)
(0.000129522 -1.85989e-05 0)
(0.000125937 -1.91517e-05 0)
(0.000121903 -1.97464e-05 0)
(0.000117422 -2.03781e-05 0)
(0.00011251 -2.10364e-05 0)
(0.000107197 -2.17066e-05 0)
(0.000101511 -2.23889e-05 0)
(9.54637e-05 -2.30703e-05 0)
(8.90609e-05 -2.37436e-05 0)
(8.23286e-05 -2.43977e-05 0)
(7.52963e-05 -2.50204e-05 0)
(6.79891e-05 -2.55929e-05 0)
(6.04278e-05 -2.61065e-05 0)
(5.26389e-05 -2.65573e-05 0)
(4.4649e-05 -2.69356e-05 0)
(3.64821e-05 -2.72337e-05 0)
(2.81658e-05 -2.74486e-05 0)
(1.9731e-05 -2.7585e-05 0)
(1.12072e-05 -2.76558e-05 0)
(2.63049e-06 -2.76776e-05 0)
(-5.95659e-06 -2.76652e-05 0)
(-1.45168e-05 -2.76344e-05 0)
(-2.30101e-05 -2.75932e-05 0)
(-3.14021e-05 -2.7538e-05 0)
(-3.96452e-05 -2.74607e-05 0)
(-4.76969e-05 -2.73571e-05 0)
(-5.55447e-05 -2.72166e-05 0)
(-6.31673e-05 -2.70427e-05 0)
(-7.05228e-05 -2.68396e-05 0)
(-7.75828e-05 -2.66049e-05 0)
(-8.43206e-05 -2.63464e-05 0)
(-9.07176e-05 -2.6056e-05 0)
(-9.67498e-05 -2.5745e-05 0)
(-0.000102396 -2.5416e-05 0)
(-0.000107645 -2.50719e-05 0)
(-0.00011247 -2.47145e-05 0)
(-0.000116857 -2.43424e-05 0)
(-0.000120794 -2.39619e-05 0)
(-0.000124265 -2.35757e-05 0)
(-0.000127261 -2.31836e-05 0)
(-0.000129779 -2.27931e-05 0)
(-0.000131814 -2.24016e-05 0)
(-0.000133349 -2.20092e-05 0)
(-0.000134385 -2.16164e-05 0)
(-0.000134927 -2.12197e-05 0)
(-0.000134973 -2.08204e-05 0)
(-0.000134525 -2.04202e-05 0)
(-0.000133584 -2.00228e-05 0)
(-0.000132154 -1.96337e-05 0)
(-0.000130238 -1.92601e-05 0)
(-0.000127842 -1.89089e-05 0)
(-0.000124972 -1.85848e-05 0)
(-0.000121633 -1.82884e-05 0)
(-0.000117833 -1.80164e-05 0)
(-0.000113583 -1.77623e-05 0)
(-0.000108892 -1.75185e-05 0)
(-0.000103773 -1.72763e-05 0)
(-9.82396e-05 -1.7027e-05 0)
(-9.23068e-05 -1.67624e-05 0)
(-8.59922e-05 -1.64764e-05 0)
(-7.93146e-05 -1.61587e-05 0)
(-7.2293e-05 -1.5801e-05 0)
(-6.49483e-05 -1.53979e-05 0)
(-5.73024e-05 -1.49395e-05 0)
(-4.93781e-05 -1.44208e-05 0)
(-4.12001e-05 -1.38348e-05 0)
(-3.27927e-05 -1.31717e-05 0)
(-2.41802e-05 -1.24273e-05 0)
(-1.53895e-05 -1.15978e-05 0)
(-6.44722e-06 -1.0676e-05 0)
(2.6253e-06 -9.65584e-06 0)
(1.17862e-05 -8.53494e-06 0)
(2.10126e-05 -7.29066e-06 0)
(3.02746e-05 -5.84778e-06 0)
(3.95292e-05 -4.0241e-06 0)
(4.87131e-05 -1.20989e-06 0)
(5.76326e-05 4.19973e-06 0)
(6.58538e-05 1.60015e-05 0)
(7.24246e-05 4.17056e-05 0)
(7.53672e-05 9.22725e-05 0)
(7.13013e-05 0.000174874 0)
(5.65396e-05 0.000271886 0)
(3.11861e-05 0.00031244 0)
(4.18577e-06 0.000179306 0)
(-4.06384e-06 0.000200963 0)
(-3.10377e-05 0.000350649 0)
(-5.64834e-05 0.000299943 0)
(-7.10724e-05 0.000183573 0)
(-7.46384e-05 8.47619e-05 0)
(-7.09225e-05 2.43762e-05 0)
(-6.34005e-05 -6.11261e-06 0)
(-5.41961e-05 -1.98414e-05 0)
(-4.43482e-05 -2.58173e-05 0)
(-3.42717e-05 -2.86139e-05 0)
(-2.41481e-05 -3.01685e-05 0)
(-1.40629e-05 -3.11931e-05 0)
(-4.05671e-06 -3.19364e-05 0)
(5.83039e-06 -3.24773e-05 0)
(1.55613e-05 -3.28417e-05 0)
(2.51073e-05 -3.30442e-05 0)
(3.44405e-05 -3.30946e-05 0)
(4.35329e-05 -3.30019e-05 0)
(5.23573e-05 -3.27756e-05 0)
(6.08877e-05 -3.24252e-05 0)
(6.9099e-05 -3.19605e-05 0)
(7.69676e-05 -3.13916e-05 0)
(8.44708e-05 -3.07292e-05 0)
(9.15873e-05 -2.99835e-05 0)
(9.82973e-05 -2.91649e-05 0)
(0.000104582 -2.8284e-05 0)
(0.000110425 -2.73508e-05 0)
(0.000115811 -2.63756e-05 0)
(0.000120725 -2.53679e-05 0)
(0.000125157 -2.43374e-05 0)
(0.000129096 -2.32936e-05 0)
(0.000132534 -2.22458e-05 0)
(0.000135462 -2.1203e-05 0)
(0.000137876 -2.01746e-05 0)
(0.000139774 -1.91699e-05 0)
(0.000141153 -1.81977e-05 0)
(0.000142011 -1.72648e-05 0)
(0.00014235 -1.63771e-05 0)
(0.000142173 -1.55397e-05 0)
(0.000141479 -1.47579e-05 0)
(0.000140272 -1.40391e-05 0)
(0.00013856 -1.3389e-05 0)
(0.000136348 -1.28101e-05 0)
(0.000133644 -1.23034e-05 0)
(0.00013047 -1.18706e-05 0)
(0.000126831 -1.15056e-05 0)
(0.000122734 -1.12146e-05 0)
(0.000118209 -1.09918e-05 0)
(0.000113289 -1.08287e-05 0)
(0.000107969 -1.07238e-05 0)
(0.000102263 -1.06639e-05 0)
(9.62028e-05 -1.06535e-05 0)
(8.98024e-05 -1.06752e-05 0)
(8.30911e-05 -1.07152e-05 0)
(7.61081e-05 -1.07633e-05 0)
(6.88753e-05 -1.08188e-05 0)
(6.13878e-05 -1.08715e-05 0)
(5.36677e-05 -1.09051e-05 0)
(4.57512e-05 -1.09114e-05 0)
(3.76646e-05 -1.08855e-05 0)
(2.94343e-05 -1.08283e-05 0)
(2.10905e-05 -1.07484e-05 0)
(1.26615e-05 -1.06659e-05 0)
(4.18039e-06 -1.06117e-05 0)
(-4.30279e-06 -1.0615e-05 0)
(-1.27616e-05 -1.06874e-05 0)
(-2.11674e-05 -1.08273e-05 0)
(-2.9479e-05 -1.1022e-05 0)
(-3.76584e-05 -1.12568e-05 0)
(-4.56551e-05 -1.1524e-05 0)
(-5.3444e-05 -1.183e-05 0)
(-6.10159e-05 -1.21552e-05 0)
(-6.8321e-05 -1.24964e-05 0)
(-7.53457e-05 -1.28639e-05 0)
(-8.20596e-05 -1.32472e-05 0)
(-8.84387e-05 -1.36574e-05 0)
(-9.44733e-05 -1.40835e-05 0)
(-0.000100134 -1.45378e-05 0)
(-0.000105405 -1.50108e-05 0)
(-0.000110254 -1.55061e-05 0)
(-0.000114669 -1.60128e-05 0)
(-0.000118648 -1.65342e-05 0)
(-0.000122174 -1.70768e-05 0)
(-0.00012524 -1.76338e-05 0)
(-0.000127833 -1.82056e-05 0)
(-0.000129936 -1.87851e-05 0)
(-0.00013155 -1.93721e-05 0)
(-0.000132669 -1.99668e-05 0)
(-0.000133289 -2.05645e-05 0)
(-0.000133415 -2.11586e-05 0)
(-0.000133041 -2.17483e-05 0)
(-0.000132169 -2.2335e-05 0)
(-0.000130801 -2.29243e-05 0)
(-0.000128937 -2.3522e-05 0)
(-0.000126581 -2.41334e-05 0)
(-0.000123737 -2.47604e-05 0)
(-0.000120411 -2.54012e-05 0)
(-0.00011661 -2.60496e-05 0)
(-0.000112343 -2.6696e-05 0)
(-0.000107622 -2.73295e-05 0)
(-0.000102459 -2.79385e-05 0)
(-9.68683e-05 -2.85114e-05 0)
(-9.0865e-05 -2.90369e-05 0)
(-8.44667e-05 -2.95043e-05 0)
(-7.76918e-05 -2.99025e-05 0)
(-7.05603e-05 -3.0221e-05 0)
(-6.30931e-05 -3.04498e-05 0)
(-5.53125e-05 -3.05792e-05 0)
(-4.7242e-05 -3.06e-05 0)
(-3.89059e-05 -3.05034e-05 0)
(-3.03294e-05 -3.02809e-05 0)
(-2.15385e-05 -2.9925e-05 0)
(-1.25598e-05 -2.94289e-05 0)
(-3.4179e-06 -2.8786e-05 0)
(5.86282e-06 -2.79834e-05 0)
(1.52333e-05 -2.70122e-05 0)
(2.4679e-05 -2.5858e-05 0)
(3.41582e-05 -2.44391e-05 0)
(4.36165e-05 -2.25072e-05 0)
(5.30011e-05 -1.93449e-05 0)
(6.21141e-05 -1.30022e-05 0)
(7.05376e-05 1.14532e-06 0)
(7.72207e-05 3.22302e-05 0)
(8.00375e-05 9.36581e-05 0)
(7.54897e-05 0.000194437 0)
(5.97321e-05 0.000313989 0)
(3.29016e-05 0.000367581 0)
(4.41219e-06 0.000213533 0)
(-4.31839e-06 0.000235023 0)
(-3.29422e-05 0.000406014 0)
(-5.99739e-05 0.000342009 0)
(-7.55371e-05 0.000202378 0)
(-7.94472e-05 8.4699e-05 0)
(-7.56528e-05 1.30199e-05 0)
(-6.78269e-05 -2.30531e-05 0)
(-5.82112e-05 -3.91959e-05 0)
(-4.7897e-05 -4.60887e-05 0)
(-3.73473e-05 -4.91603e-05 0)
(-2.67547e-05 -5.07181e-05 0)
(-1.62051e-05 -5.16171e-05 0)
(-5.74792e-06 -5.21443e-05 0)
(4.57919e-06 -5.24014e-05 0)
(1.47371e-05 -5.2417e-05 0)
(2.46912e-05 -5.22104e-05 0)
(3.44149e-05 -5.17935e-05 0)
(4.38791e-05 -5.11773e-05 0)
(5.30555e-05 -5.03733e-05 0)
(6.19171e-05 -4.93934e-05 0)
(7.04382e-05 -4.82498e-05 0)
(7.85942e-05 -4.69554e-05 0)
(8.63619e-05 -4.5523e-05 0)
(9.37196e-05 -4.39661e-05 0)
(0.000100647 -4.22978e-05 0)
(0.000107126 -4.05319e-05 0)
(0.000113139 -3.86815e-05 0)
(0.000118671 -3.67603e-05 0)
(0.000123708 -3.47815e-05 0)
(0.000128239 -3.27582e-05 0)
(0.000132254 -3.07034e-05 0)
(0.000135745 -2.86299e-05 0)
(0.000138705 -2.65503e-05 0)
(0.000141129 -2.44771e-05 0)
(0.000143018 -2.2423e-05 0)
(0.00014437 -2.04e-05 0)
(0.000145184 -1.84179e-05 0)
(0.000145464 -1.64844e-05 0)
(0.000145213 -1.4607e-05 0)
(0.000144436 -1.27942e-05 0)
(0.000143136 -1.10557e-05 0)
(0.000141326 -9.39554e-06 0)
(0.000139022 -7.82801e-06 0)
(0.000136226 -6.36311e-06 0)
(0.000132955 -5.00022e-06 0)
(0.000129217 -3.74825e-06 0)
(0.000125025 -2.59653e-06 0)
(0.000120409 -1.5423e-06 0)
(0.000115374 -5.86783e-07 0)
(0.000109958 2.67634e-07 0)
(0.000104176 1.03587e-06 0)
(9.80459e-05 1.7201e-06 0)
(9.16082e-05 2.33176e-06 0)
(8.48729e-05 2.87989e-06 0)
(7.7842e-05 3.3727e-06 0)
(7.05395e-05 3.81072e-06 0)
(6.30169e-05 4.20353e-06 0)
(5.52989e-05 4.56728e-06 0)
(4.73953e-05 4.91096e-06 0)
(3.93268e-05 5.23851e-06 0)
(3.11192e-05 5.54681e-06 0)
(2.27999e-05 5.82268e-06 0)
(1.43848e-05 6.04039e-06 0)
(5.89196e-06 6.16185e-06 0)
(-2.61542e-06 6.15271e-06 0)
(-1.10805e-05 5.99603e-06 0)
(-1.947e-05 5.69389e-06 0)
(-2.7759e-05 5.26201e-06 0)
(-3.59144e-05 4.7209e-06 0)
(-4.39239e-05 4.08903e-06 0)
(-5.17366e-05 3.36907e-06 0)
(-5.93035e-05 2.57287e-06 0)
(-6.66384e-05 1.70665e-06 0)
(-7.36965e-05 7.65927e-07 0)
(-8.04531e-05 -2.3771e-07 0)
(-8.68887e-05 -1.31186e-06 0)
(-9.2982e-05 -2.44526e-06 0)
(-9.8715e-05 -3.63879e-06 0)
(-0.000104058 -4.88456e-06 0)
(-0.000108982 -6.18001e-06 0)
(-0.000113474 -7.5391e-06 0)
(-0.000117553 -8.95287e-06 0)
(-0.000121183 -1.04093e-05 0)
(-0.000124343 -1.19114e-05 0)
(-0.000127029 -1.34352e-05 0)
(-0.000129233 -1.49874e-05 0)
(-0.000130954 -1.6561e-05 0)
(-0.000132183 -1.8145e-05 0)
(-0.000132905 -1.97366e-05 0)
(-0.000133118 -2.133e-05 0)
(-0.000132827 -2.29209e-05 0)
(-0.000132029 -2.45105e-05 0)
(-0.000130724 -2.61023e-05 0)
(-0.000128909 -2.76991e-05 0)
(-0.000126584 -2.93028e-05 0)
(-0.000123752 -3.09126e-05 0)
(-0.000120418 -3.25232e-05 0)
(-0.000116591 -3.41248e-05 0)
(-0.000112279 -3.57045e-05 0)
(-0.000107493 -3.72479e-05 0)
(-0.000102246 -3.874e-05 0)
(-9.6553e-05 -4.01662e-05 0)
(-9.0429e-05 -4.15122e-05 0)
(-8.38917e-05 -4.27639e-05 0)
(-7.696e-05 -4.39079e-05 0)
(-6.96541e-05 -4.49309e-05 0)
(-6.19956e-05 -4.58205e-05 0)
(-5.40074e-05 -4.65645e-05 0)
(-4.57135e-05 -4.71517e-05 0)
(-3.71389e-05 -4.7571e-05 0)