/*--------------------------------*- C++ -*----------------------------------*\
| =========                 |                                                 |
| \\      /  F ield         | OpenFOAM: The Open Source CFD Toolbox           |
|  \\    /   O peration     | Version:  2206                                  |
|   \\  /    A nd           | Website:  www.openfoam.com                      |
|    \\/     M anipulation  |                                                 |
\*---------------------------------------------------------------------------*/
FoamFile
{
    version     2.0;
    format      ascii;
    arch        "LSB;label=64;scalar=64";
    class       volScalarField;
    location    "4.1/water";
    object      Ct2;
}
// * * * * * * * * * * * * * * * * * * * * * * * * * * * * * * * * * * * * * //

dimensions      [0 0 0 0 0 0 0];

internalField   nonuniform List<scalar> 
23300
(
8.96902323021
8.96915631938
8.96932051595
8.96952167611
8.96975333746
8.97000918459
8.97028381794
8.97057234261
8.97087028554
8.97117335734
8.9714775689
8.9717791428
8.97207469647
8.9723612027
8.97263614598
8.97289746874
8.97314366131
8.973373673
8.97358694012
8.97378327222
8.9739628442
8.97412607932
8.97427363186
8.97440628414
8.974524936
8.97463052305
8.97472401839
8.97480637096
8.97487851792
8.97494133824
8.97499567189
8.97504228374
8.97508188652
8.97511511174
8.97514253496
8.97516465158
8.97518190356
8.97519465848
8.97520323655
8.97520789127
8.97520883547
8.97520622153
8.97520016474
8.97519072032
8.97517794929
8.97516189263
8.97514255114
8.97511987571
8.97509379356
8.97506418888
8.97503092482
8.97499382181
8.97495267842
8.97490724841
8.97485726136
8.9748023987
8.97474231462
8.97467661143
8.97460486147
8.97452658228
8.97444126082
8.97434832934
8.97424719397
8.97413721319
8.97401773407
8.97388807641
8.97374758169
8.97359560764
8.97343159703
8.97325508948
8.97306581989
8.97286375833
8.97264925544
8.97242313476
8.97218692724
8.97194308368
8.97169541277
8.97144960171
8.97121416786
8.97100177155
8.97083127187
8.97072898803
8.97071631373
8.97077854018
8.97089271591
8.97104172509
8.97121356515
8.97139959588
8.97159345836
8.97179031703
8.97198649088
8.97217913374
8.97236610305
8.97254578431
8.97271703095
8.97287904153
8.97303132487
8.97317360589
8.97330580496
8.9734279648
8.97354023993
8.97364283999
8.97373602646
8.97382006855
8.97389524487
8.97396180835
8.97401999056
8.9740699722
8.9741118869
8.97414579223
8.97417166559
8.97418943404
8.97419894166
8.9741999136
8.97419195564
8.97417452712
8.97414693359
8.97410829564
8.97405753737
8.97399335511
8.97391420882
8.97381830189
8.97370359299
8.97356781161
8.97340852345
8.97322322264
8.97300949692
8.97276524092
8.97248895134
8.97218005889
8.97183929397
8.97146899885
8.9710733376
8.97065830577
8.97023153881
8.96980200388
8.96937995799
8.96897805996
8.96861411795
8.96832933348
8.96476108233
8.9648669029
8.96505049625
8.96529761289
8.96559751751
8.96594075119
8.96631883985
8.96672399667
8.96714899239
8.96758699915
8.96803162941
8.96847691819
8.96891744307
8.96934835128
8.96976546995
8.97016530768
8.9705451068
8.97090279335
8.97123696851
8.9715468173
8.97183206279
8.97209285893
8.97232973518
8.97254349577
8.97273517312
8.9729059445
8.97305710065
8.97318998054
8.97330595364
8.97340636883
8.97349254678
8.97356573952
8.97362713107
8.97367780637
8.97371875989
8.97375087329
8.97377493116
8.97379160556
8.9738014766
8.97380502082
8.97380263365
8.97379461869
8.97378121019
8.97376256261
8.97373880317
8.97371002909
8.97367627691
8.97363751502
8.97359366727
8.97354460036
8.97349014348
8.97343007252
8.97336412809
8.97329199796
8.97321333462
8.9731277369
8.97303476796
8.9729339368
8.97282471789
8.97270653365
8.97257877742
8.97244079861
8.97229193176
8.97213148705
8.97195878951
8.9717731793
8.97157406671
8.97136094825
8.97113348497
8.97089154192
8.97063529942
8.97036532668
8.97008274227
8.96978934518
8.96948786164
8.96918218669
8.96887778625
8.96858211384
8.96830516705
8.96805984548
8.96786178964
8.96772718525
8.96766659903
8.96767748766
8.9677494275
8.96787035453
8.96802904863
8.96821578831
8.96842243747
8.96864224089
8.9688696639
8.96910017191
8.96933010884
8.9695565312
8.96977712423
8.96999007408
8.97019400832
8.97038789631
8.97057100766
8.97074283422
8.97090306127
8.97105150559
8.97118809544
8.97131282066
8.9714257187
8.97152683355
8.97161620547
8.9716938355
8.97175967584
8.97181359646
8.97185537341
8.97188469636
8.97190115184
8.97190417241
8.97189302471
8.97186677994
8.9718243009
8.97176421514
8.9716849074
8.97158450583
8.97146089553
8.97131173969
8.97113454313
8.97092674344
8.97068586455
8.97040971859
8.97009668312
8.96974602824
8.96935829604
8.96893567358
8.96848231299
8.96800448719
8.9675104823
8.96701008866
8.96651358438
8.96603004706
8.96556463045
8.96511363368
8.9646540355
8.96412142453
8.96697831495
8.96703021722
8.96713628689
8.96728967465
8.96748436115
8.96771453298
8.96797457294
8.9682590206
8.96856256808
8.96888006671
8.96920657344
8.96953740097
8.96986819331
8.97019498545
8.97051426697
8.9708230157
8.97111872358
8.97139939051
8.97166351099
8.9719100358
8.97213833382
8.97234813823
8.97253950076
8.97271273688
8.9728683838
8.97300715204
8.97312989087
8.97323754713
8.9733311372
8.97341171149
8.97348033176
8.97353804081
8.97358584596
8.97362469563
8.9736554707
8.97367896943
8.97369590723
8.9737069093
8.97371251711
8.97371318638
8.97370929761
8.97370115677
8.97368900793
8.97367303542
8.97365335047
8.97363003575
8.97360313158
8.97357263204
8.97353849477
8.97350063842
8.97345895147
8.97341328815
8.9733634763
8.97330931227
8.97325056835
8.97318698739
8.97311829052
8.97304417201
8.97296430822
8.97287835364
8.97278595214
8.97268673547
8.97258033851
8.9724664021
8.97234459471
8.97221462223
8.97207625914
8.97192936862
8.97177394668
8.97161015581
8.97143838521
8.97125930052
8.97107392303
8.97088369887
8.97069060161
8.97049722491
8.9703069063
8.97012382002
8.96995304933
8.96980051014
8.96967262941
8.96957544525
8.96951307378
8.9694864167
8.96949332965
8.96952998799
8.96959197117
8.9696747816
8.96977416678
8.9698862499
8.97000759654
8.97013520844
8.97026651449
8.97039932585
8.9705318067
8.9706624233
8.97078991395
8.97091324316
8.97103157663
8.97114424236
8.97125071045
8.97135055989
8.97144346187
8.97152915105
8.97160741143
8.97167805113
8.97174089005
8.97179573721
8.97184237944
8.97188056075
8.97190997242
8.97193022643
8.97194086281
8.97194132297
8.97193093938
8.97190891974
8.97187434191
8.97182614694
8.97176314663
8.97168403609
8.97158742829
8.97147190395
8.97133609389
8.97117878821
8.97099908692
8.97079658259
8.97057158076
8.97032533674
8.97006029507
8.96978028725
8.96949064386
8.9691981465
8.96891074982
8.96863699389
8.96838506012
8.96816144058
8.96796918266
8.96780543045
8.96765557402
8.96751346873
8.96761967975
8.96766231352
8.96774679678
8.96787032974
8.96802914379
8.96821899492
8.96843543113
8.96867392175
8.96892995242
8.9691990974
8.96947709003
8.96975988304
8.97004371066
8.9703251365
8.9706010969
8.97086892515
8.97112636693
8.97137157696
8.97160310842
8.97181988857
8.97202119198
8.97220660588
8.97237599801
8.97252948048
8.97266737861
8.97279019713
8.97289859142
8.97299333559
8.97307529508
8.97314539566
8.97320459727
8.97325386517
8.97329414765
8.97332635259
8.97335133252
8.9733698695
8.97338266912
8.97339035393
8.97339346529
8.9733924633
8.97338773375
8.97337959179
8.97336829148
8.97335403213
8.97333691078
8.97331698617
8.97329428363
8.9732687927
8.97324047279
8.97320925334
8.97317503928
8.97313771048
8.97309712666
8.97305312615
8.97300553053
8.97295414313
8.97289875394
8.9728391384
8.97277506315
8.97270628585
8.97263256265
8.97255364986
8.97246931429
8.97237933813
8.97228353358
8.97218175262
8.97207390783
8.97195998892
8.97184009154
8.97171444209
8.97158343546
8.97144766805
8.97130798344
8.97116551114
8.97102171588
8.97087843425
8.97073791258
8.97060281247
8.97047618401
8.97036135023
8.97026168128
8.97018020555
8.97011905318
8.97007923714
8.97006053107
8.97006157534
8.97008042972
8.97011483955
8.97016244604
8.97022092587
8.97028808732
8.97036191463
8.97044059454
8.97052251459
8.97060626018
8.97069059649
8.97077445687
8.97085692183
8.97093720645
8.97101464026
8.97108865517
8.97115876651
8.97122456141
8.97128568091
8.97134180873
8.97139265442
8.97143794262
8.97147739732
8.97151073191
8.97153763517
8.97155776294
8.9715706923
8.97157594069
8.97157295689
8.9715611145
8.97153970545
8.97150794232
8.97146496437
8.97140985673
8.97134167962
8.97125951735
8.97116254517
8.97105012306
8.97092191333
8.9707780276
8.97061919491
8.97044694767
8.97026380699
8.97007344981
8.96988082353
8.9696921726
8.96951492599
8.96935739904
8.96922826922
8.96913583166
8.96908711691
8.9690870612
8.96913779334
8.96923273943
8.96937509999
8.96826315837
8.96829820436
8.96836708142
8.96846810009
8.96859868882
8.96875570534
8.96893567797
8.96913494885
8.96934978801
8.96957648683
8.96981143845
8.97005120318
8.97029256628
8.97053258099
8.97076860323
8.97099831123
8.97121971678
8.97143116357
8.97163131947
8.97181916033
8.97199395137
8.97215522429
8.97230275496
8.97243653931
8.97255677061
8.97266381545
8.97275819037
8.97284053653
8.97291159447
8.97297217675
8.97302314149
8.97306536527
8.97309971893
8.97312704502
8.97314814014
8.97316374041
8.97317451253
8.9731810479
8.97318386173
8.97318339389
8.97318001351
8.97317402363
8.97316566832
8.97315514116
8.97314253187
8.97312787156
8.97311116589
8.97309239394
8.9730715114
8.97304845208
8.97302313126
8.97299544704
8.97296528323
8.97293251025
8.97289698778
8.97285856542
8.97281708547
8.97277238381
8.97272429322
8.97267264495
8.97261727317
8.97255801785
8.97249473102
8.97242728174
8.97235556503
8.97227950995
8.97219909217
8.97211434605
8.97202538177
8.97193240178
8.97183572245
8.97173579392
8.971633224
8.97152879783
8.97142349839
8.97131851762
8.9712152614
8.97111533443
8.97102050417
8.9709326249
8.97085352073
8.97078481837
8.97072774313
8.97068297916
8.9706508401
8.97063101945
8.9706227219
8.97062494617
8.97063652868
8.9706562369
8.97068283416
8.97071512165
8.97075196771
8.97079232106
8.97083521905
8.9708797871
8.97092523793
8.97097086581
8.97101604232
8.97106020851
8.97110286905
8.97114358317
8.97118195768
8.9712176372
8.97125029641
8.97127962998
8.97130534456
8.97132714895
8.97134474659
8.97135782707
8.97136606021
8.9713690418
8.97136631773
8.97135738934
8.97134171159
8.97131869449
8.97128771205
8.97124811791
8.9711992729
8.97114058465
8.97107156457
8.97099190246
8.97090156272
8.97080090045
8.97069079724
8.97057280969
8.97044932295
8.9703236937
8.97020036481
8.97008492556
8.96998408899
8.96990555054
8.96985769278
8.96984910597
8.96988792445
8.96998104154
8.97013335714
8.97034717661
8.97061942967
8.97094840953
8.96876718042
8.96879659131
8.96885435972
8.96893923893
8.96904926436
8.96918196481
8.96933453605
8.96950395986
8.96968711018
8.96988084425
8.97008208266
8.9702878742
8.9704954507
8.97070226667
8.97090602962
8.97110471664
8.97129658329
8.97148016212
8.97165425658
8.97181792882
8.97197048607
8.97211146429
8.97224061232
8.97235787471
8.97246337509
8.97255739787
8.97264036937
8.97271283655
8.97277544434
8.97282891109
8.97287400338
8.97291151081
8.97294222241
8.97296690533
8.97298628725
8.9730010426
8.97301178314
8.97301905238
8.97302332386
8.97302500202
8.97302442567
8.97302187262
8.97301756557
8.97301167696
8.97300430756
8.97299546113
8.97298511991
8.97297325114
8.9729598043
8.97294471339
8.97292789936
8.97290927189
8.97288873143
8.97286617059
8.97284147592
8.9728145291
8.97278520871
8.97275339153
8.97271895461
8.97268177701
8.97264174254
8.9725987423
8.97255267855
8.97250346849
8.97245104973
8.9723953858
8.97233647373
8.97227435171
8.97220910906
8.97214089605
8.97206993577
8.97199653519
8.97192109705
8.97184412908
8.9717662519
8.97168820076
8.97161082213
8.97153505918
8.97146192643
8.97139246735
8.97132769697
8.97126852844
8.97121570584
8.9711696968
8.97113074879
8.97109904781
8.97107437539
8.97105631164
8.9710443574
8.97103792883
8.97103639909
8.97103912476
8.97104546671
8.97105480366
8.97106654215
8.97108012179
8.971095019
8.97111074785
8.97112686038
8.97114294486
8.9711586239
8.97117355089
8.97118740653
8.97119989398
8.97121073424
8.97121966053
8.97122641315
8.9712307338
8.97123236089
8.97123102493
8.97122644557
8.97121827593
8.97120612585
8.97118957953
8.97116819806
8.97114152693
8.97110911057
8.97107051469
8.97102535963
8.97097336609
8.97091441613
8.97084863018
8.97077646161
8.97069880678
8.97061712825
8.97053358403
8.97045115387
8.97037374851
8.97030628499
8.9702547065
8.9702259222
8.97022763773
8.97026804374
8.9703553275
8.97049698423
8.97069894537
8.97096463109
8.97129410469
8.97168247472
8.97212119143
8.96918962012
8.96921475461
8.96926419665
8.96933690019
8.96943126334
8.96954524214
8.96967648935
8.96982245105
8.96998045959
8.97014781662
8.97032186783
8.97050006343
8.970680009
8.9708595012
8.97103655447
8.97120941442
8.97137656482
8.97153672528
8.97168884581
8.97183209641
8.97196585642
8.97208970173
8.97220339294
8.97230686229
8.9724002009
8.97248364405
8.97255755548
8.972622409
8.97267876848
8.97272726566
8.97276857743
8.97280340283
8.97283244166
8.97285637508
8.97287584961
8.9728914646
8.97290376369
8.97291322959
8.97292028243
8.97292528048
8.97292852301
8.97293025446
8.97293066952
8.97292991581
8.97292810789
8.97292523137
8.97292124878
8.97291611575
8.97290977559
8.97290216138
8.97289319791
8.97288280324
8.97287089026
8.97285736789
8.97284214242
8.97282511846
8.97280620025
8.97278529262
8.97276230241
8.97273713967
8.97270971948
8.97267996359
8.97264780287
8.97261317966
8.97257605106
8.97253639229
8.97249420103
8.9724495019
8.9724023519
8.97235284591
8.97230112287
8.97224737146
8.97219183586
8.97213481981
8.97207668948
8.97201787283
8.97195885597
8.97190017374
8.97184239549
8.97178610318
8.9717318644
8.97168019996
8.97163155069
8.97158625683
8.97154448931
8.97150638978
8.97147212859
8.97144159288
8.97141458704
8.97139088747
8.97137022492
8.97135230166
8.97133680403
8.9713234114
8.97131180358
8.97130166617
8.97129269473
8.97128459738
8.9712770966
8.9712699298
8.9712628494
8.97125562183
8.97124802623
8.97123985233
8.97123089814
8.97122096708
8.97120986532
8.97119739885
8.97118337138
8.9711675827
8.97114982856
8.97112984978
8.97110734658
8.97108200915
8.97105352374
8.97102158469
8.97098591324
8.97094628432
8.97090256362
8.97085475622
8.97080306878
8.97074798557
8.97069035848
8.97063150884
8.97057333714
8.97051843376
8.97047018121
8.97043283452
8.97041156381
8.97041243945
8.97044233694
8.97050873444
8.97061936946
8.97078171418
8.97100222555
8.97128534833
8.97163233064
8.97204005784
8.9724997632
8.97299648339
8.969545548
8.96956738512
8.96961049958
8.96967390573
8.96975622846
8.96985570386
8.96997029817
8.97009779011
8.97023585384
8.97038213353
8.97053431203
8.97069016597
8.97084761188
8.97100473748
8.97115982446
8.97131135857
8.97145803423
8.97159875065
8.9717326061
8.97185888778
8.97197706256
8.97208676577
8.97218779165
8.97228008232
8.97236371746
8.97243890171
8.97250595144
8.97256527853
8.97261737311
8.97266278386
8.97270209833
8.97273592266
8.97276486317
8.97278950943
8.9728104206
8.97282811453
8.97284306053
8.97285567484
8.97286631928
8.9728753018
8.97288287913
8.97288926026
8.97289461095
8.97289905871
8.97290270308
8.97290555055
8.97290754677
8.97290863504
8.97290875264
8.9729078314
8.97290579904
8.97290258005
8.97289809691
8.97289227081
8.97288502266
8.97287627369
8.97286594625
8.97285396446
8.97284025508
8.97282474815
8.97280737818
8.97278808498
8.97276681512
8.97274352327
8.97271817402
8.9726907437
8.97266122283
8.97262961837
8.97259595673
8.97256028645
8.97252268141
8.97248324348
8.9724421053
8.9723994319
8.9723554219
8.97231030653
8.97226434758
8.97221783224
8.9721710661
8.97212436268
8.9720780312
8.97203236189
8.97198761254
8.97194399575
8.97190166357
8.97186068117
8.97182116265
8.97178328598
8.97174701834
8.97171228625
8.97167901357
8.97164709876
8.97161642413
8.97158685958
8.97155826805
8.97153050815
8.97150343762
8.97147691537
8.97145080328
8.97142496709
8.97139927711
8.97137360811
8.97134783913
8.9713218526
8.97129553352
8.97126876824
8.97124144343
8.97121344517
8.97118465869
8.971154969
8.97112426342
8.97109239139
8.9710591594
8.97102437756
8.97098786812
8.97094948077
8.97090911442
8.97086674675
8.97082247322
8.97077655666
8.9707294885
8.97068206181
8.97063545532
8.97059132579
8.9705519044
8.97052009005
8.97049953008
8.97049467555
8.97051079569
8.9705539327
8.97063077484
8.97074842107
8.97091400339
8.97113412225
8.97141403917
8.97175657455
8.97216072216
8.97262017018
8.97312194994
8.97364542326
8.9698507785
8.96987003659
8.96990828188
8.96996450731
8.97003748243
8.97012562948
8.97022713101
8.9703400042
8.97046217698
8.97059155648
8.97072609234
8.97086382655
8.97100293486
8.97114175334
8.97127879708
8.97141276653
8.97154254928
8.9716672139
8.97178600301
8.9718983224
8.97200373189
8.97210193443
8.97219276751
8.97227619307
8.97235228865
8.97242123626
8.97248331124
8.97253886812
8.97258832614
8.97263215245
8.97267084568
8.97270491889
8.97273488434
8.97276123935
8.97278445517
8.97280496778
8.97282317214
8.97283941827
8.97285401033
8.97286720683
8.9728792231
8.97289023396
8.97290037768
8.97290975898
8.97291846415
8.97292653671
8.97293390548
8.97294050503
8.97294626756
8.97295112413
8.97295500493
8.9729578397
8.97295955848
8.97296009198
8.97295937216
8.97295733246
8.97295390831
8.97294903731
8.97294265974
8.9729347188
8.97292516122
8.97291393761
8.97290100326
8.97288631867
8.97286985058
8.97285157278
8.9728314674
8.97280952592
8.97278575074
8.97276015635
8.97273277096
8.97270363761
8.97267281555
8.9726403808
8.97260642678
8.97257106365
8.97253441748
8.97249662775
8.97245784446
8.97241822331
8.97237792077
8.97233708754
8.97229586283
8.97225436789
8.97221270421
8.97217093758
8.9721290873
8.97208724252
8.97204559982
8.97200417233
8.971962947
8.97192192318
8.97188108559
8.97184041456
8.97179988202
8.97175945567
8.97171910029
8.97167877895
8.97163845441
8.97159808958
8.97155764824
8.97151709512
8.97147639605
8.97143551769
8.97139442746
8.97135309327
8.97131148353
8.97126956749
8.97122731643
8.97118470571
8.97114171967
8.97109832884
8.97105445261
8.97101002679
8.97096501324
8.97091941731
8.97087331153
8.97082686669
8.97078039141
8.97073438125
8.9706895778
8.97064703751
8.97060820893
8.97057501542
8.97054993876
8.97053609651
8.97053730365
8.97055810641
8.97060377303
8.9706802235
8.97079387664
8.97095138802
8.97115924476
8.97142317059
8.97174727743
8.97213288766
8.9725769866
8.97307043797
8.97359635241
8.97412895571
8.97011678063
8.97013400108
8.97016847559
8.97021912234
8.97028480158
8.97036405838
8.97045522354
8.97055648415
8.97066595613
8.97078174849
8.97090202244
8.9710250368
8.97114918477
8.9712730158
8.97139524987
8.97151477975
8.97163066939
8.97174214492
8.9718485857
8.97194951189
8.97204457462
8.97213354454
8.97221630348
8.97229283467
8.97236321501
8.97242760521
8.97248624061
8.9725394194
8.97258749107
8.97263084268
8.97266988591
8.97270504329
8.97273673621
8.97276537347
8.97279134258
8.97281500215
8.97283667743
8.97285665688
8.97287519149
8.97289249479
8.97290874479
8.97292408602
8.97293863271
8.97295247151
8.97296565852
8.97297828776
8.97299029785
8.97300160154
8.97301212903
8.97302181099
8.97303057978
8.97303836948
8.97304511633
8.97305075854
8.97305523669
8.97305849346
8.97306047403
8.97306112574
8.9730603985
8.97305824453
8.97305461878
8.97304947876
8.97304278505
8.9730345013
8.97302459478
8.97301303653
8.97299980211
8.97298487183
8.9729682316
8.97294987327
8.97292979552
8.97290800417
8.97288451295
8.97285934357
8.97283252625
8.97280409925
8.97277410888
8.97274260829
8.97270965667
8.97267531721
8.97263965543
8.97260273647
8.97256462304
8.9725253727
8.97248503545
8.97244365367
8.97240125117
8.97235782197
8.97231341068
8.97226824319
8.97222235496
8.9721757463
8.97212846209
8.97208052766
8.97203197252
8.97198282239
8.97193310256
8.97188283848
8.97183205608
8.97178078235
8.97172904574
8.9716768763
8.97162430597
8.97157136857
8.97151810016
8.97146453927
8.97141072767
8.97135671146
8.97130254311
8.97124828447
8.97119401364
8.97113982622
8.97108575397
8.97103185741
8.97097823519
8.97092504315
8.97087251912
8.97082101443
8.9707710333
8.97072328046
8.97067871739
8.97063862629
8.97060468047
8.97057901771
8.97056431209
8.97056383713
8.97058151126
8.97062191372
8.97069025668
8.97079229602
8.9709341599
8.97112206909
8.97136191487
8.97165864635
8.9720153962
8.97243224593
8.9729045332
8.97342074326
8.97396042232
8.97449288916
8.97035267298
8.97036826985
8.97039981305
8.97044610903
8.97050607107
8.97057832218
8.97066129234
8.97075328834
8.97085256493
8.97095738671
8.97106608428
8.97117709565
8.97128899869
8.97140052822
8.97151058562
8.97161823659
8.97172270573
8.97182336409
8.97191971775
8.9720113933
8.97209812671
8.97217975106
8.97225618797
8.97232743821
8.97239357484
8.97245473487
8.97251111219
8.97256294837
8.97261052417
8.97265414902
8.97269415156
8.97273086889
8.97276463779
8.97279578552
8.9728246233
8.97285144001
8.97287649866
8.97290003338
8.97292224877
8.97294331952
8.97296339203
8.97298258578
8.97300099628
8.97301869803
8.97303573717
8.97305217131
8.97306802931
8.97308320508
8.97309762095
8.97311120549
8.97312389235
8.97313561901
8.97314632671
8.9731559597
8.9731644654
8.97317179381
8.97317789759
8.97318273161
8.973186253
8.97318842074
8.97318919581
8.97318854082
8.97318642024
8.97318280011
8.97317764834
8.97317093452
8.97316263028
8.97315270921
8.97314114729
8.97312792284
8.97311301701
8.97309641373
8.97307810022
8.97305806685
8.9730363076
8.97301281976
8.97298760426
8.97296066518
8.97293200977
8.9729016477
8.97286959087
8.97283585231
8.97280044582
8.97276338477
8.97272468173
8.97268434665
8.97264238696
8.97259880499
8.97255357398
8.97250668496
8.9724583916
8.97240872016
8.972357691
8.97230535725
8.97225176177
8.97219695332
8.97214098396
8.97208390715
8.97202578051
8.97196666527
8.9719066269
8.97184573539
8.97178406572
8.9717216981
8.97165871871
8.9715952203
8.97153130352
8.97146707859
8.97140266787
8.9713382095
8.97127386243
8.97120984254
8.97114629268
8.97108338935
8.97102136003
8.97096050125
8.97090120398
8.97084398516
8.97078952621
8.97073871869
8.97069271722
8.97065299861
8.97062142552
8.9706003113
8.97059248131
8.97060132394
8.97063082276
8.97068555838
8.97077066686
8.9708917377
8.9710546316
8.97126519215
8.97152881719
8.97184983864
8.97223063134
8.97267032631
8.97316296701
8.97369503514
8.97424275421
8.97477051413
8.97056571419
8.97058000565
8.9706092625
8.97065215239
8.97070761402
8.97077431548
8.97085074982
8.97093530632
8.97102634198
8.97112224249
8.97122147605
8.97132263139
8.97142444588
8.97152581775
8.97162581065
8.97172364668
8.97181869655
8.97191046357
8.97199856916
8.97208273612
8.97216277593
8.97223857559
8.97231008893
8.97237732756
8.97244035533
8.9724992816
8.97255425668
8.97260546528
8.9726531213
8.97269746034
8.9727387336
8.97277719995
8.97281311976
8.97284674775
8.97287832813
8.97290808923
8.97293624074
8.97296297069
8.9729884448
8.97301280556
8.9730361734
8.97305864724
8.97308030668
8.97310121282
8.97312141077
8.97314094594
8.97315989322
8.97317814965
8.97319563451
8.97321227455
8.97322800456
8.9732427648
8.97325650057
8.9732691611
8.97328069943
8.97329107152
8.97330023617
8.97330815434
8.97331478902
8.97332010471
8.97332406736
8.9733266439
8.97332780228
8.97332751104
8.97332573948
8.97332245726
8.97331763459
8.97331124198
8.97330325046
8.97329363134
8.97328235655
8.97326939836
8.97325472981
8.97323832445
8.97322015677
8.97320020197
8.97317843639
8.97315483727
8.9731293832
8.97310205376
8.97307282996
8.97304169383
8.97300862871
8.97297361882
8.97293664938
8.97289770599
8.97285677435
8.9728138372
8.97276888645
8.97272187041
8.97267276826
8.97262176229
8.97256891792
8.97251426555
8.97245784647
8.97239970905
8.97233990161
8.97227848559
8.97221552564
8.97215109317
8.97208526752
8.9720181359
8.97194979448
8.971880349
8.97180991589
8.97173862346
8.9716666137
8.97159404459
8.97152109345
8.97144796142
8.97137487798
8.97130213322
8.97123000625
8.97115877324
8.97108877644
8.97102043866
8.9709542886
8.97089099182
8.97083138785
8.97077653372
8.97072775337
8.9706866922
8.97065537454
8.97063626093
8.9706323005
8.97064697209
8.97068430583
8.97074887477
8.97084574405
8.97098036169
8.97115837197
8.97138532595
8.97166625354
8.97200504251
8.97240353296
8.97286017363
8.97336800738
8.9739117772
8.97446448552
8.97498543405
8.9707618262
8.97077505511
8.97080251788
8.97084272277
8.97089461318
8.97095687778
8.97102804577
8.97110656144
8.97119085712
8.9712794142
8.97137081526
8.97146377876
8.97155718282
8.97165007224
8.97174165777
8.97183130394
8.97191851465
8.97200291317
8.97208422456
8.97216225661
8.97223688562
8.97230804254
8.97237570438
8.97243988588
8.97250063562
8.97255803123
8.9726121776
8.97266320312
8.97271125762
8.97275650795
8.9727991347
8.9728393268
8.9728772775
8.97291317879
8.97294721773
8.97297957178
8.97301040634
8.97303987169
8.97306810208
8.97309521438
8.97312130863
8.97314646792
8.97317075993
8.97319423722
8.97321693872
8.97323888063
8.97326020257
8.97328082731
8.97330065084
8.97331960183
8.97333761632
8.97335463701
8.97337061267
8.9733854968
8.97339924723
8.97341182503
8.97342319426
8.97343332107
8.97344217355
8.97344972101
8.97345593387
8.97346078305
8.97346423998
8.97346627604
8.97346686266
8.97346597083
8.97346357126
8.97345963394
8.97345412837
8.97344702317
8.97343828634
8.97342788497
8.97341578551
8.9734019535
8.973386354
8.97336895131
8.97334970943
8.97332859194
8.97330556244
8.97328058446
8.973253622
8.97322463936
8.97319360168
8.97316047477
8.97312522553
8.97308782163
8.97304823159
8.973006425
8.97296236873
8.97291603315
8.97286736877
8.97281634073
8.97276300524
8.97270750912
8.97264988106
8.97259012441
8.97252829963
8.97246444732
8.97239862288
8.97233089293
8.97226133204
8.97219002661
8.97211707563
8.97204259171
8.97196670295
8.97188955466
8.97181131183
8.97173216206
8.9716523197
8.97157203097
8.97149158094
8.9714113102
8.9713316261
8.97125288996
8.97117554245
8.97110011603
8.97102725973
8.97095776931
8.97089262294
8.97083302239
8.97078043939
8.9707366658
8.97070386581
8.97068462672
8.97068200406
8.97069955484
8.97074135136
8.97081196585
8.97091641424
8.97106004419
8.97124834893
8.9714866815
8.9717798321
8.97213140856
8.97254291486
8.97301234032
8.97353194919
8.97408491109
8.97464100502
8.97515425564
8.97094596396
8.97095831194
8.9709843478
8.97102240496
8.97107141591
8.97113007154
8.9711969175
8.97127043299
8.9713491064
8.97143149691
8.97151628511
8.97160230455
8.97168856074
8.97177423278
8.97185866688
8.97194135869
8.97202193404
8.97210012488
8.97217574858
8.97224868663
8.97231886924
8.97238626099
8.97245085285
8.97251265499
8.97257169488
8.97262801488
8.9726816733
8.97273274354
8.9727813151
8.97282749177
8.97287139101
8.97291314045
8.97295287564
8.97299073551
8.97302685958
8.97306138354
8.97309443697
8.97312613998
8.97315660207
8.9731859202
8.9732141789
8.97324144963
8.97326779204
8.97329325439
8.97331787664
8.9733416721
8.97336470758
8.97338705124
8.97340857507
8.97342919979
8.9734488595
8.97346749787
8.97348506626
8.97350152165
8.97351682595
8.97353094462
8.97354384632
8.97355550183
8.97356588382
8.97357496595
8.97358272282
8.97358912919
8.97359415998
8.97359778967
8.97359999234
8.97360074118
8.97360000855
8.97359776556
8.97359398223
8.9735886271
8.97358166743
8.97357306887
8.97356279571
8.97355081061
8.97353707491
8.97352154845
8.97350418991
8.97348495672
8.97346380548
8.97344069189
8.97341557126
8.97338839842
8.97335912825
8.97332771558
8.97329411566
8.97325828397
8.97322017659
8.97317974959
8.97313695962
8.97309176193
8.97304411056
8.97299396034
8.97294125556
8.97288594008
8.97282822202
8.97276810016
8.97270558942
8.97264072198
8.97257353944
8.9725040833
8.97243241546
8.97235860899
8.97228275109
8.97220494657
8.9721253195
8.97204401567
8.97196120597
8.97187708995
8.97179190057
8.97170590998
8.97161943719
8.97153286281
8.97144669837
8.97136137442
8.97127741322
8.97119543841
8.97111620043
8.97104060565
8.97096975079
8.97090496211
8.970847839
8.97080030049
8.97076463295
8.97074353566
8.97074016019
8.97075813783
8.97080158798
8.97087509853
8.97098366729
8.9711325905
8.97132728024
8.9715729851
8.97187437457
8.97223492055
8.97265595555
8.9731351833
8.97366424766
8.97422483706
8.97478344818
8.97528868682
8.97112240517
8.97113400223
8.97115887098
8.97119515955
8.97124177826
8.97129740701
8.97136059384
8.97142983905
8.97150367414
8.97158072432
8.97165975783
8.971739714
8.97181971723
8.97189907274
8.9719772539
8.97205387875
8.9721286858
8.97220150572
8.97227223777
8.97234082646
8.97240724539
8.97247148286
8.97253353498
8.97259340016
8.97265107958
8.97270657741
8.97275990495
8.97281108252
8.9728601434
8.97290713429
8.9729521169
8.97299516592
8.97303636803
8.97307581805
8.9731136166
8.97314986572
8.97318466654
8.9732181155
8.97325030297
8.97328131067
8.97331121144
8.97334006795
8.97336793352
8.97339485179
8.97342085749
8.97344597458
8.9734702385
8.97349377491
8.9735164727
8.97353824714
8.97355903093
8.9735787686
8.97359741348
8.9736149254
8.97363126973
8.97364641581
8.97366033638
8.97367300638
8.97368440265
8.97369450291
8.97370328563
8.97371072927
8.97371681217
8.97372151201
8.97372480575
8.97372666915
8.97372707684
8.9737260019
8.97372341597
8.97371928887
8.97371358879
8.97370628196
8.9736973329
8.97368670407
8.97367435625
8.97366024824
8.97364433725
8.9736265787
8.97360692666
8.97358533368
8.97356175129
8.97353612981
8.97350841892
8.97347856742
8.97344652375
8.97341223576
8.97337565105
8.97333671674
8.97329537953
8.97325158526
8.97320527957
8.9731564021
8.97310490804
8.97305071542
8.9729937724
8.97293412764
8.97287188385
8.97280704687
8.97273960776
8.97266961523
8.97259709973
8.97252210833
8.97244471107
8.97236499389
8.9722830645
8.97219905614
8.97211313112
8.97202548532
8.97193635378
8.97184601697
8.97175480852
8.97166312316
8.97157155443
8.97148059593
8.97139082886
8.97130294889
8.97121778761
8.97113634128
8.97105980448
8.97098960773
8.97092745877
8.97087538619
8.97083578352
8.97081145079
8.9708056297
8.97082202697
8.97086481938
8.97093863209
8.97104847999
8.97119965874
8.97139756753
8.97164743715
8.97195392114
8.97232047621
8.9727483945