/*--------------------------------*- C++ -*----------------------------------*\
| =========                 |                                                 |
| \\      /  F ield         | OpenFOAM: The Open Source CFD Toolbox           |
|  \\    /   O peration     | Version:  2206                                  |
|   \\  /    A nd           | Website:  www.openfoam.com                      |
|    \\/     M anipulation  |                                                 |
\*---------------------------------------------------------------------------*/
FoamFile
{
    version     2.0;
    format      ascii;
    arch        "LSB;label=64;scalar=64";
    class       volScalarField;
    location    "4.1/water";
    object      nut.gas;
}
// * * * * * * * * * * * * * * * * * * * * * * * * * * * * * * * * * * * * * //

dimensions      [0 2 -1 0 0 0 0];

internalField   nonuniform List<scalar> 
23300
(
0.000141239486805
0.000138759199741
0.000135746285701
0.000132048388938
0.000127791577109
0.000123089161776
0.000118036643686
0.000112719572987
0.000107216361429
0.000101602155391
9.59477658321e-05
9.03207172057e-05
8.47827018745e-05
7.93896770153e-05
7.41895256883e-05
6.92223802883e-05
6.45192899279e-05
6.01032104758e-05
5.59887014591e-05
5.21834515075e-05
4.86886042563e-05
4.550044148e-05
4.26108829961e-05
4.00089965267e-05
3.7681376508e-05
3.56133300384e-05
3.37890431199e-05
3.21924597166e-05
3.08072807669e-05
2.96176323262e-05
2.86079766717e-05
2.77636524159e-05
2.70707393876e-05
2.65165024933e-05
2.60892090021e-05
2.57784785493e-05
2.55750437969e-05
2.54710159721e-05
2.5459598849e-05
2.55352991691e-05
2.56936237802e-05
2.5931279417e-05
2.6245899972e-05
2.66363069171e-05
2.71014306838e-05
2.76405844643e-05
2.82539967667e-05
2.89428413605e-05
2.97089000532e-05
3.05547562674e-05
3.1483531553e-05
3.24991216207e-05
3.36059556138e-05
3.48092530606e-05
3.61147919623e-05
3.7529178412e-05
3.90596132652e-05
4.07141653523e-05
4.25015224753e-05
4.44312536364e-05
4.6513520124e-05
4.87593016158e-05
5.11800264259e-05
5.37877173507e-05
5.65944744602e-05
5.96124676407e-05
6.28531697718e-05
6.63270850792e-05
7.00425880892e-05
7.40052321033e-05
7.8215992233e-05
8.2669911164e-05
8.73533847219e-05
9.22415992064e-05
9.72939445616e-05
0.000102448734206
0.000107614228098
0.000112656516309
0.000117379539907
0.000121496313578
0.000124588011366
0.000126083204618
0.000125537007795
0.000123300468027
0.000119902672966
0.000115742350671
0.000111101568324
0.000106182741184
0.00010113396244
9.60658591304e-05
9.10612460246e-05
8.61821757481e-05
8.14739844959e-05
7.69690251295e-05
7.26888656089e-05
6.86467733745e-05
6.48491430741e-05
6.12972960243e-05
5.79884316785e-05
5.49169351995e-05
5.20749840593e-05
4.9453485301e-05
4.70424318564e-05
4.48315657142e-05
4.28105597098e-05
4.09694860984e-05
3.92988886422e-05
3.7790127874e-05
3.64354081086e-05
3.52280812988e-05
3.4162734275e-05
3.32346871008e-05
3.24404741529e-05
3.1778186998e-05
3.12474575929e-05
3.08496667772e-05
3.05879975534e-05
3.04676757181e-05
3.04960545445e-05
3.06828428464e-05
3.10401475786e-05
3.15825799436e-05
3.2327092402e-05
3.3292740478e-05
3.45000238533e-05
3.59699575537e-05
3.77225423094e-05
3.97748083856e-05
4.21382287208e-05
4.48158608102e-05
4.77993436826e-05
5.10664632568e-05
5.45797686604e-05
5.82869642798e-05
6.21230010541e-05
6.60128100504e-05
6.9870910577e-05
7.35890559425e-05
7.69918318973e-05
7.9721471652e-05
0.000122264181415
0.000121180537989
0.000119325851105
0.000116827869351
0.000113795445638
0.00011032289241
0.000106493692015
0.000102383753922
9.80635416994e-05
9.35993945367e-05
8.90538090163e-05
8.44853110036e-05
7.99477869456e-05
7.548987116e-05
7.11542303056e-05
6.69771903865e-05
6.29884808152e-05
5.92113796118e-05
5.56629828434e-05
5.23547758276e-05
4.92932218028e-05
4.64805060914e-05
4.39151844767e-05
4.15928778732e-05
3.95068125617e-05
3.76483649418e-05
3.60074549542e-05
3.45729544541e-05
3.33329798779e-05
3.22752244629e-05
3.13872043849e-05
3.06565513338e-05
3.00712234105e-05
2.96197478864e-05
2.92913716158e-05
2.90762262088e-05
2.89653959454e-05
2.8950997337e-05
2.9026170988e-05
2.91850962066e-05
2.94229358557e-05
2.97358190287e-05
3.0120768103e-05
3.05756674237e-05
3.10987457259e-05
3.16884395579e-05
3.234400202e-05
3.30654103428e-05
3.3853256951e-05
3.47087152411e-05
3.56334750262e-05
3.66297393973e-05
3.77001813114e-05
3.88479547679e-05
4.00766599043e-05
4.13903577553e-05
4.27935336271e-05
4.42911043402e-05
4.58883672209e-05
4.75909844756e-05
4.94048988003e-05
5.13362714329e-05
5.3391334732e-05
5.55762474196e-05
5.7896838708e-05
6.03583262934e-05
6.29648869389e-05
6.57191629222e-05
6.86215751562e-05
7.16695262422e-05
7.48563515456e-05
7.81700911032e-05
8.15918994215e-05
8.50941120786e-05
8.86376860655e-05
9.21689358904e-05
9.56152145415e-05
9.88796250499e-05
0.000101835176304
0.000104320842957
0.000106145976765
0.000107118682068
0.000107122379854
0.000106202758435
0.000104501747176
0.000102181806705
9.93938380712e-05
9.62676872044e-05
9.29115176605e-05
8.94140986336e-05
8.58475438905e-05
8.22699019468e-05
7.87273318449e-05
7.52560146951e-05
7.18837473454e-05
6.86313655114e-05
6.55139279262e-05
6.25417761998e-05
5.97214054663e-05
5.70562462961e-05
5.45473006083e-05
5.21937175378e-05
4.99932562162e-05
4.79427080756e-05
4.60382305952e-05
4.42756555586e-05
4.26507302622e-05
4.11593478743e-05
3.97977319273e-05
3.85626239344e-05
3.745143758e-05
3.64621160356e-05
3.55933121659e-05
3.48446668218e-05
3.42169042152e-05
3.37119343148e-05
3.33329338246e-05
3.30844220905e-05
3.29722961287e-05
3.30038270447e-05
3.3187571185e-05
3.35331818496e-05
3.40510630049e-05
3.47518384896e-05
3.56455769899e-05
3.67407560523e-05
3.8042941112e-05
3.95532287513e-05
4.1266543897e-05
4.31700040596e-05
4.52416594609e-05
4.74500652415e-05
4.97552113006e-05
5.21113732025e-05
5.4472415829e-05
5.68003135394e-05
5.90788903427e-05
6.13390481815e-05
6.37139753962e-05
6.65592282841e-05
0.000108315493312
0.000107733843346
0.000106559841384
0.000104862857775
0.000102709390957
0.000100162740355
9.72835478673e-05
9.4130309314e-05
9.07596750746e-05
8.72264730478e-05
8.35834198276e-05
7.98806151443e-05
7.61648975152e-05
7.24792048105e-05
6.88620145609e-05
6.53469598976e-05
6.19626331664e-05
5.87326004876e-05
5.56755814404e-05
5.28057717141e-05
5.01332416167e-05
4.76643822795e-05
4.54023443587e-05
4.33474600174e-05
4.14976190635e-05
3.98486133908e-05
3.83944423551e-05
3.712760549e-05
3.60393815832e-05
3.51201160064e-05
3.43595069869e-05
3.37468985633e-05
3.32715598906e-05
3.29229489777e-05
3.26909389459e-05
3.25660068043e-05
3.25393710813e-05
3.26030865259e-05
3.27500917238e-05
3.29742235883e-05
3.32701985681e-05
3.36335740568e-05
3.40606875937e-05
3.45485832858e-05
3.50950868844e-05
3.56981579101e-05
3.63564044706e-05
3.70690229323e-05
3.78357348236e-05
3.86567344406e-05
3.95326420349e-05
4.04644677577e-05
4.14535782548e-05
4.25016701072e-05
4.3610741772e-05
4.47830680206e-05
4.6021168298e-05
4.73277724505e-05
4.8705774603e-05
5.01581775427e-05
5.16880172039e-05
5.3298267948e-05
5.49917164022e-05
5.6770802361e-05
5.86374122461e-05
6.0592621495e-05
6.26363697108e-05
6.47670645572e-05
6.6981099298e-05
6.92722832171e-05
7.16311738592e-05
7.40443141462e-05
7.64933631625e-05
7.89541196985e-05
8.13954235979e-05
8.37779522074e-05
8.60529798476e-05
8.81613447104e-05
9.00331721633e-05
9.15894559876e-05
9.27473212644e-05
9.34317035117e-05
9.35946363309e-05
9.32322083578e-05
9.23798892376e-05
9.10955115473e-05
8.94461066846e-05
8.74995736918e-05
8.53201007416e-05
8.29659618669e-05
8.04886691847e-05
7.79328759807e-05
7.53366791643e-05
7.27321326206e-05
7.01458499597e-05
6.75996320409e-05
6.51110728467e-05
6.26941278753e-05
6.03596328498e-05
5.81157769531e-05
5.59685295419e-05
5.3922027658e-05
5.19789240854e-05
5.01407018542e-05
4.84079548176e-05
4.67806396081e-05
4.52582993951e-05
4.38402645472e-05
4.25258306194e-05
4.13144162369e-05
4.02056986357e-05
3.91997870765e-05
3.82971907271e-05
3.74989867618e-05
3.68069108225e-05
3.62234230772e-05
3.57517448315e-05
3.53958577711e-05
3.51604519035e-05
3.50508052437e-05
3.50725729911e-05
3.52314625499e-05
3.55327691577e-05
3.59807517515e-05
3.65778368518e-05
3.73236567573e-05
3.82139543633e-05
3.9239427342e-05
4.03846358283e-05
4.16271650513e-05
4.2937308885e-05
4.4278613888e-05
4.56096644199e-05
4.6887463821e-05
4.80726524785e-05
4.91366831919e-05
5.00712342738e-05
5.09015391462e-05
5.17189245187e-05
5.25624060064e-05
9.98133022391e-05
9.93518615446e-05
9.84388104851e-05
9.71048592879e-05
9.53900189101e-05
9.3338770342e-05
9.09975416596e-05
8.84133035588e-05
8.56326859437e-05
8.2701316405e-05
7.96632392278e-05
7.65603685408e-05
7.34319779436e-05
7.03142554779e-05
6.72399534478e-05
6.4238157071e-05
6.13341782775e-05
5.85495687799e-05
5.590223111e-05
5.34066020393e-05
5.10738777786e-05
4.89122564349e-05
4.69271767232e-05
4.51215435328e-05
4.34959369091e-05
4.20488113644e-05
4.07766947769e-05
3.96743999689e-05
3.87352577936e-05
3.79513771406e-05
3.73139290073e-05
3.68134460605e-05
3.64401234923e-05
3.61841050633e-05
3.60357393993e-05
3.59857945193e-05
3.60256244879e-05
3.61472858475e-05
3.63436074943e-05
3.66082185542e-05
3.69355425786e-05
3.73207640017e-05
3.77597751529e-05
3.82491083243e-05
3.87864235584e-05
3.93694744325e-05
3.99965449312e-05
4.06664055552e-05
4.13782651755e-05
4.21317227944e-05
4.29267240886e-05
4.37635212249e-05
4.46426375739e-05
4.55648339855e-05
4.65310774495e-05
4.75425082416e-05
4.86004060743e-05
4.97061509171e-05
5.08611786064e-05
5.20669262929e-05
5.33247671814e-05
5.46359287339e-05
5.60013928207e-05
5.74217708933e-05
5.88971515725e-05
6.04269128251e-05
6.20094956775e-05
6.36421321672e-05
6.5320526376e-05
6.70384851147e-05
6.87875029158e-05
7.05563056384e-05
7.2330366244e-05
7.40914078307e-05
7.58169233246e-05
7.7479758023e-05
7.90478487062e-05
8.04842881052e-05
8.17480067441e-05
8.27954955325e-05
8.35840564173e-05
8.40768498424e-05
8.42490501947e-05
8.40923452999e-05
8.36157670302e-05
8.28418653899e-05
8.18015981767e-05
8.05302649448e-05
7.90644267085e-05
7.74398057687e-05
7.5689983591e-05
7.38456860859e-05
7.19344757752e-05
6.99807066481e-05
6.80056378346e-05
6.60276319277e-05
6.40623932155e-05
6.21232179855e-05
6.02212451014e-05
5.83656996643e-05
5.6564128978e-05
5.48226283635e-05
5.31460574203e-05
5.15382444279e-05
5.00021794286e-05
4.85401938791e-05
4.71541276688e-05
4.58454815518e-05
4.46155553734e-05
4.34655690042e-05
4.23967644045e-05
4.14107564664e-05
4.05093903113e-05
3.96947911598e-05
3.89694222571e-05
3.83361113129e-05
3.77980397711e-05
3.73586841866e-05
3.70216980414e-05
3.67907181418e-05
3.66690801942e-05
3.66594271537e-05
3.67631988982e-05
3.69799978399e-05
3.73068388227e-05
3.77373087942e-05
3.82606871977e-05
3.88611074176e-05
3.95168759441e-05
4.02001046638e-05
4.08768526985e-05
4.15080062519e-05
4.20511267502e-05
4.24634187181e-05
4.27057365801e-05
4.27471061254e-05
4.25686917943e-05
4.21669414834e-05
4.15857133347e-05
4.08017085607e-05
9.31512310177e-05
9.27786355452e-05
9.2043030388e-05
9.09639874329e-05
8.95685419946e-05
8.78888769046e-05
8.59603965563e-05
8.38202537512e-05
8.15062271409e-05
7.90558432378e-05
7.65056696396e-05
7.38907362553e-05
7.12440670165e-05
6.85963162404e-05
6.59755090467e-05
6.34068816688e-05
6.09128125194e-05
5.85128282446e-05
5.62236651144e-05
5.40593644767e-05
5.2031383017e-05
5.01487031488e-05
4.84179355055e-05
4.68434128119e-05
4.54272812627e-05
4.41696003836e-05
4.30684647702e-05
4.21201595847e-05
4.13193579761e-05
4.06593612146e-05
4.01323759516e-05
3.97298150951e-05
3.94426060364e-05
3.92614867478e-05
3.91772742041e-05
3.91810911136e-05
3.92645449967e-05
3.94198558544e-05
3.963993649e-05
3.9918429096e-05
4.0249707399e-05
4.06288503285e-05
4.10515973918e-05
4.15142904997e-05
4.20145452034e-05
4.25501362461e-05
4.31192709137e-05
4.37205571827e-05
4.43529641253e-05
4.50157791786e-05
4.57085682646e-05
4.64311371988e-05
4.7183497259e-05
4.79658315234e-05
4.87784639361e-05
4.96218270844e-05
5.04964303396e-05
5.14028240127e-05
5.2341560942e-05
5.33131508295e-05
5.43180084189e-05
5.53563904121e-05
5.64283217793e-05
5.75335058888e-05
5.86712186912e-05
5.98401811508e-05
6.10384102737e-05
6.22630437691e-05
6.35101405377e-05
6.47744554412e-05
6.60491957189e-05
6.73257648389e-05
6.85935104385e-05
6.98394937983e-05
7.1048312131e-05
7.22020115055e-05
7.3280151615e-05
7.42601036843e-05
7.51176957601e-05
7.58283269935e-05
7.63686362961e-05
7.67186562447e-05
7.68640867958e-05
7.67979768315e-05
7.65210542213e-05
7.60417170213e-05
7.53738738646e-05
7.45351000892e-05
7.35450729057e-05
7.24242968165e-05
7.11931585254e-05
6.98712802955e-05
6.84771166787e-05
6.70277300038e-05
6.55386907841e-05
6.40240577552e-05
6.2496409181e-05
6.09669043967e-05
5.94453661692e-05
5.79403756146e-05
5.64593775459e-05
5.50087916301e-05
5.35941286447e-05
5.22201078e-05
5.08907745968e-05
4.96096154623e-05
4.83796687136e-05
4.720362812e-05
4.60839381813e-05
4.50228768219e-05
4.40226239371e-05
4.30856907662e-05
4.22147257727e-05
4.14124664773e-05
4.06817602033e-05
4.00255514144e-05
3.94468290879e-05
3.89485232397e-05
3.85333402308e-05
3.82035237093e-05
3.79605305998e-05
3.78046124485e-05
3.77342996059e-05
3.7745793214e-05
3.78322844845e-05
3.79832365826e-05
3.81836862219e-05
3.84136438201e-05
3.86476955182e-05
3.8854932213e-05
3.89993520735e-05
3.9040897593e-05
3.89372869285e-05
3.86467469834e-05
3.81315884062e-05
3.736220427e-05
3.63205901129e-05
3.50027739087e-05
3.34328093388e-05
3.16140074386e-05
8.78289394919e-05
8.75233327214e-05
8.69194975726e-05
8.60316618038e-05
8.48797253262e-05
8.34880495861e-05
8.18841864299e-05
8.00977196962e-05
7.81592649511e-05
7.60996288814e-05
7.39491190642e-05
7.17369904137e-05
6.94910183029e-05
6.72371868832e-05
6.49994810356e-05
6.27997658278e-05
6.06577353744e-05
5.85909099442e-05
5.66146610804e-05
5.47422461348e-05
5.298483895e-05
5.13515490953e-05
4.98494297982e-05
4.84834808978e-05
4.72566592594e-05
4.61699113247e-05
4.52222432875e-05
4.44108400596e-05
4.37312394042e-05
4.31775586216e-05
4.27427651772e-05
4.2418974624e-05
4.21977577955e-05
4.20704364298e-05
4.20283515126e-05
4.20630901548e-05
4.21666654101e-05
4.23316452537e-05
4.25512350092e-05
4.28193167275e-05
4.31304550103e-05
4.34798752501e-05
4.38634246455e-05
4.42775203159e-05
4.47196814385e-05
4.51879940051e-05
4.56807613033e-05
4.61966167158e-05
4.67344884934e-05
4.72935612724e-05
4.78732399699e-05
4.84731145311e-05
4.90929286195e-05
4.9732549072e-05
5.03919383576e-05
5.10711263258e-05
5.17701832572e-05
5.24891902913e-05
5.3228209135e-05
5.39872469725e-05
5.47662183557e-05
5.55648998405e-05
5.63828789996e-05
5.72194934462e-05
5.80737614213e-05
5.89442996636e-05
5.98292304295e-05
6.07260742008e-05
6.16316314006e-05
6.25418521576e-05
6.34517011017e-05
6.43550214204e-05
6.52444116926e-05
6.61111277218e-05
6.6945031857e-05
6.77346120991e-05
6.84671040841e-05
6.9128748563e-05
6.97052231148e-05
7.01822723357e-05
7.05465355155e-05
7.07865061816e-05
7.08934787815e-05
7.08622658674e-05
7.06914811449e-05
7.03833486409e-05
6.99437831987e-05
6.9381140508e-05
6.87055096071e-05
6.79280638998e-05
6.7060517761e-05
6.61147019221e-05
6.51022515168e-05
6.40343866087e-05
6.29217661247e-05
6.17743945784e-05
6.06015689653e-05
5.94118537752e-05
5.82130791433e-05
5.70123557581e-05
5.58161050178e-05
5.46301000064e-05
5.3459516611e-05
5.23089907705e-05
5.11826812481e-05
5.0084334005e-05
4.90173473985e-05
4.79848340734e-05
4.69896782114e-05
4.60345835726e-05
4.51221108326e-05
4.42551156934e-05
4.34365573903e-05
4.2669365154e-05
4.19564249204e-05
4.13005324988e-05
4.07043068358e-05
4.01700532571e-05
3.96995679143e-05
3.92938729646e-05
3.89528757936e-05
3.86749476841e-05
3.8456425485e-05
3.8291047783e-05
3.81693512482e-05
3.80780671203e-05
3.7999576606e-05
3.7911500986e-05
3.77865202714e-05
3.75925282997e-05
3.72932459549e-05
3.68494259898e-05
3.62207941713e-05
3.53688648746e-05
3.42606967025e-05
3.28734144659e-05
3.11988403832e-05
2.92472382581e-05
2.7054512279e-05
2.46652079669e-05
8.35395441699e-05
8.32856796209e-05
8.27836905521e-05
8.20445703694e-05
8.10837723121e-05
7.99204477786e-05
7.85765568544e-05
7.70759824621e-05
7.54437089999e-05
7.37050980558e-05
7.18852799307e-05
7.00086658439e-05
6.80985798505e-05
6.61770000711e-05
6.42643945446e-05
6.23796306695e-05
6.05399360395e-05
5.87608872066e-05
5.70564065389e-05
5.54387511072e-05
5.39184850422e-05
5.25044332817e-05
5.12036230122e-05
5.00212243603e-05
4.89605071476e-05
4.80228305804e-05
4.72076820715e-05
4.65127748988e-05
4.59342088429e-05
4.54666880263e-05
4.51037848176e-05
4.48382309759e-05
4.46622171972e-05
4.45676799687e-05
4.45465607266e-05
4.4591023809e-05
4.4693628543e-05
4.48474521506e-05
4.50461682163e-05
4.52840842876e-05
4.5556148311e-05
4.58579299934e-05
4.61855879803e-05
4.65358286621e-05
4.69058675221e-05
4.72944540878e-05
4.77000833466e-05
4.81215365812e-05
4.85578384071e-05
4.90082176891e-05
4.94720737246e-05
4.99489445276e-05
5.04384796296e-05
5.09404140009e-05
5.14545453145e-05
5.19807109833e-05
5.25187671567e-05
5.30685660494e-05
5.36299337874e-05
5.42026451082e-05
5.4786397096e-05
5.53807782699e-05
5.59852352048e-05
5.65990330347e-05
5.72212120852e-05
5.78505371837e-05
5.84854422238e-05
5.91239671878e-05
5.97636912061e-05
6.04016604866e-05
6.1034316937e-05
6.1657429428e-05
6.22660372913e-05
6.28544124492e-05
6.3416054282e-05
6.39437278881e-05
6.44295627161e-05
6.4865222778e-05
6.52421613014e-05
6.55519594911e-05
6.57867391749e-05
6.59396127347e-05
6.60051148151e-05
6.59795422307e-05
6.58611425708e-05
6.56500312913e-05
6.53481158296e-05
6.4959135738e-05
6.44880179132e-05
6.39405746629e-05
6.33232284531e-05
6.26427719426e-05
6.19061711737e-05
6.11204080378e-05
6.02923589471e-05
5.94287019147e-05
5.85358486953e-05
5.76198960139e-05
5.66865945194e-05
5.57413312103e-05
5.4789125083e-05
5.38346324943e-05
5.28821622536e-05
5.19356970687e-05
5.09989212087e-05
5.00752508627e-05
4.91678666417e-05
4.82797442518e-05
4.74136820521e-05
4.65723210362e-05
4.57581559481e-05
4.49739278232e-05
4.42224995134e-05
4.35066342443e-05
4.28289544531e-05
4.21918678395e-05
4.15974550211e-05
4.10473098731e-05
4.0542325532e-05
4.00824180467e-05
3.96661841691e-05
3.92904925112e-05
3.89500158317e-05
3.8636720116e-05
3.83393396643e-05
3.80428804071e-05
3.7728210557e-05
3.73718123358e-05
3.69457840067e-05
3.64181931873e-05
3.57538950066e-05
3.4915942373e-05
3.38677375586e-05
3.25760992347e-05
3.10154155122e-05
2.91729156668e-05
2.70546371495e-05
2.46908928674e-05
2.21416693393e-05
1.94913879645e-05
8.00564744959e-05
7.98437396982e-05
7.94228818958e-05
7.88027296836e-05
7.79957105111e-05
7.70173016843e-05
7.58853569418e-05
7.46194091706e-05
7.32400022084e-05
7.17680879268e-05
7.02245155472e-05
6.86296250324e-05
6.70029475183e-05
6.53630031224e-05
6.37271800564e-05
6.21116717845e-05
6.0531448604e-05
5.90002398875e-05
5.75305087974e-05
5.61334063379e-05
5.48187005568e-05
5.35946834299e-05
5.24680665437e-05
5.14438808309e-05
5.05253999204e-05
4.9714104762e-05
4.9009705301e-05
4.84102268436e-05
4.79121628746e-05
4.75106857702e-05
4.71999024128e-05
4.69731346016e-05
4.68232054717e-05
4.67427113672e-05
4.67242654702e-05
4.6760700799e-05
4.6845229102e-05
4.69715529113e-05
4.71339358819e-05
4.73272347677e-05
4.75469023089e-05
4.77889661e-05
4.80499928246e-05
4.83270408287e-05
4.86176061954e-05
4.89205489609e-05
4.92347235632e-05
4.9559183006e-05
4.98931564793e-05
5.02360216508e-05
5.05872783988e-05
5.09465230945e-05
5.13134268293e-05
5.16877146168e-05
5.20691479946e-05
5.24575076064e-05
5.28525780818e-05
5.32541317717e-05
5.36619137045e-05
5.40756243569e-05
5.44949026592e-05
5.49193058793e-05
5.53482888685e-05
5.57811794065e-05
5.6217152242e-05
5.66551987751e-05
5.70940952495e-05
5.7532366875e-05
5.79682513846e-05
5.8399660434e-05
5.88241436025e-05
5.92388551049e-05
5.96405298985e-05
6.00254714944e-05
6.03895601314e-05
6.07282852125e-05
6.10368110304e-05
6.13100784295e-05
6.15429474314e-05
6.17303762239e-05
6.18676302356e-05
6.19505023543e-05
6.19755231322e-05
6.19401323967e-05
6.18427923117e-05
6.16830278647e-05
6.14612569285e-05
6.11787582065e-05
6.08378183918e-05
6.04413349997e-05
5.99926849614e-05
5.94956020305e-05
5.89540653252e-05
5.83722027643e-05
5.77542104726e-05
5.71042850612e-05
5.64265694301e-05
5.57251092527e-05
5.50038208868e-05
5.42664678433e-05
5.35166464987e-05
5.27577783111e-05
5.1993109211e-05
5.12257134134e-05
5.04585020551e-05
4.96942336283e-05
4.89355260455e-05
4.81848666967e-05
4.74446194414e-05
4.67170242746e-05
4.60041886154e-05
4.53083869671e-05
4.46320793034e-05
4.39775865033e-05
4.33470286049e-05
4.27422314551e-05
4.21645970666e-05
4.16149301378e-05
4.1093215494e-05
4.05983406575e-05
4.01277626526e-05
3.96771212009e-05
3.92398090658e-05
3.88065179411e-05
3.83647911839e-05
3.78986266804e-05
3.738818883e-05
3.68097021311e-05
3.61356136621e-05
3.53351235084e-05
3.43751956822e-05
3.32221778076e-05
3.18441848142e-05
3.02144415822e-05
2.83158161178e-05
2.61467186813e-05
2.37281667278e-05
2.1110841963e-05
1.8380602431e-05
1.56569685634e-05
7.72052597353e-05
7.70260721028e-05
7.66714972253e-05
7.61488097438e-05
7.54682374812e-05
7.46425264495e-05
7.36863968878e-05
7.26159736693e-05
7.1448236002e-05
7.02005199261e-05
6.88901006296e-05
6.75338671072e-05
6.61480923623e-05
6.47482882368e-05
6.33491273543e-05
6.19644074929e-05
6.0607034498e-05
5.92890008093e-05
5.80213437993e-05
5.68140739934e-05
5.56760730825e-05
5.46149681578e-05
5.36369970129e-05
5.2746882214e-05
5.19477349817e-05
5.12410062883e-05
5.06264998072e-05
5.01024520532e-05
4.96656792719e-05
4.93117803023e-05
4.90353812937e-05
4.88304016827e-05
4.869032335e-05
4.86084434524e-05
4.85780988242e-05
4.85928508366e-05
4.86466284412e-05
4.87338272144e-05
4.88493698376e-05
4.8988731104e-05
4.9147936362e-05
4.9323537847e-05
4.9512578e-05
4.97125429956e-05
4.99213133845e-05
5.01377522591e-05
5.03611147603e-05
5.05907803263e-05
5.08262419485e-05
5.1067087519e-05
5.13129810975e-05
5.15636436379e-05
5.18188369909e-05
5.20783485361e-05
5.23419790673e-05
5.2609530631e-05
5.2880796731e-05
5.31555515667e-05
5.34335407926e-05
5.3714470544e-05
5.3997997303e-05
5.42837154355e-05
5.45711450523e-05
5.48597171384e-05
5.51487587153e-05
5.54374751603e-05
5.57249326483e-05
5.60100381665e-05
5.62915204506e-05
5.65679098738e-05
5.68375212979e-05
5.70984388104e-05
5.73485072609e-05
5.75853305377e-05
5.78062822539e-05
5.80085292917e-05
5.8189073585e-05
5.8344811467e-05
5.84726134063e-05
5.85694195965e-05
5.86323488705e-05
5.86588105873e-05
5.86466117295e-05
5.85940464704e-05
5.84999621103e-05
5.8363794266e-05
5.81855728711e-05
5.79657359469e-05
5.77050508195e-05
5.74049251314e-05
5.70670890561e-05
5.66935333884e-05
5.62864484494e-05
5.58481698727e-05
5.53811325257e-05
5.48878286533e-05
5.43707723372e-05
5.38324691017e-05
5.32753925234e-05
5.27019656651e-05
5.21145484341e-05
5.1515428481e-05
5.09068166441e-05
5.02908445542e-05
4.9669565161e-05
4.90449535283e-05
4.84189080767e-05
4.77932489639e-05
4.71697127758e-05
4.65499393777e-05
4.5935449843e-05
4.53278083471e-05
4.47288652329e-05
4.41403068305e-05
4.35635808551e-05
4.29997912275e-05
4.24495586473e-05
4.19128409133e-05
4.13887095575e-05
4.08750789924e-05
4.03683894446e-05
3.98632480788e-05
3.93520412359e-05
3.88245379682e-05
3.82675173249e-05
3.76644629419e-05
3.69953833029e-05
3.6236828821e-05
3.53621915528e-05
3.43423856214e-05
3.31470210855e-05
3.17462011144e-05
3.01131012139e-05
2.82275350765e-05
2.60807721166e-05
2.36818834762e-05
2.10656358575e-05
1.83009681029e-05
1.54975620655e-05
1.28054806301e-05
7.48478633455e-05
7.46966950433e-05
7.4397541885e-05
7.39564960941e-05
7.33820963043e-05
7.2684958676e-05
7.18773151644e-05
7.0972532717e-05
6.9984652985e-05
6.89279821273e-05
6.78167557462e-05
6.66648894045e-05
6.54858157256e-05
6.42923947249e-05
6.30968778024e-05
6.19108993696e-05
6.07454724351e-05
5.96109665271e-05
5.85170548888e-05
5.74726242438e-05
5.64856508183e-05
5.55630523083e-05
5.47105334762e-05
5.39324445739e-05
5.32316742107e-05
5.26095931815e-05
5.20660624231e-05
5.15995082403e-05
5.12070625465e-05
5.08847557766e-05
5.06277478951e-05
5.04305770416e-05
5.02874088582e-05
5.01922682834e-05
5.01392433364e-05
5.01226509951e-05
5.01371639575e-05
5.01778965407e-05
5.02404553639e-05
5.03209576288e-05
5.04160255806e-05
5.05227610721e-05
5.06387090757e-05
5.07618133348e-05
5.08903708874e-05
5.10232031457e-05
5.11599557807e-05
5.13003537101e-05
5.14441804693e-05
5.15912634808e-05
5.17414618855e-05
5.18946535733e-05
5.20507248741e-05
5.22095604328e-05
5.23710360643e-05
5.25350113742e-05
5.2701324624e-05
5.2869786572e-05
5.30401758612e-05
5.32122327963e-05
5.33856541899e-05
5.35600862197e-05
5.37351180628e-05
5.39102733575e-05
5.40850023519e-05
5.42586719387e-05
5.44305565694e-05
5.45998274723e-05
5.47655433879e-05
5.49266405878e-05
5.50819257253e-05
5.52300697479e-05
5.53696068121e-05
5.54989368873e-05
5.56163362121e-05
5.57199743924e-05
5.58079419093e-05
5.58782860619e-05
5.59290575787e-05
5.59583639124e-05
5.59644288112e-05
5.59456516631e-05
5.59006641918e-05
5.58283776135e-05
5.57280192001e-05
5.55991546628e-05
5.54416985409e-05
5.52559108527e-05
5.50422599832e-05
5.48011434614e-05
5.45334658227e-05
5.42403105585e-05
5.39228792771e-05
5.35824678444e-05
5.32204446531e-05
5.28382272883e-05
5.24372609613e-05
5.20189990027e-05
5.15848880854e-05
5.11363562433e-05
5.06748049116e-05
5.02016026757e-05
4.97180817926e-05
4.92255352043e-05
4.8725214945e-05
4.82183294942e-05
4.77060405081e-05
4.71894559265e-05
4.66696189056e-05
4.61474885142e-05
4.56239106558e-05
4.50995989588e-05
4.4575676782e-05
4.40530819161e-05
4.35324871452e-05
4.30141896676e-05
4.24979678912e-05
4.19829015016e-05
4.14671531483e-05
4.09477096673e-05
4.04200858326e-05
3.98779967354e-05
3.93130132279e-05
3.87142217053e-05
3.80679211026e-05
3.7357400233e-05
3.65628525359e-05
3.56614973936e-05
3.46279916009e-05
3.34352271941e-05
3.20556275287e-05
3.04630720134e-05
2.86356107609e-05
2.65591813447e-05
2.42326197446e-05
2.167433084e-05
1.89308619487e-05
1.60867492712e-05
1.32727732833e-05
1.06662250054e-05
7.2872723595e-05
7.27455238649e-05
7.2493813212e-05
7.21227356284e-05
7.16394660605e-05
7.1052881173e-05
7.03731528997e-05
6.96113321173e-05
6.87789587263e-05
6.7887724715e-05
6.6949212327e-05
6.59747145901e-05
6.49751360918e-05
6.3960957051e-05
6.29422386746e-05
6.1928642323e-05
6.09294391415e-05
5.99534900802e-05
5.9009186063e-05
5.8104344749e-05
5.72460709906e-05
5.64405933848e-05
5.56930967366e-05
5.50075704475e-05
5.43866944501e-05
5.38317780215e-05
5.33427631683e-05
5.29182938433e-05
5.25558474321e-05
5.22519152207e-05
5.20022173517e-05
5.1801932365e-05
5.16459256778e-05
5.15289601045e-05
5.14458794239e-05
5.13917561171e-05
5.13620029069e-05
5.13524466119e-05
5.13593700434e-05
5.13795244122e-05
5.14101204406e-05
5.14488014696e-05
5.14936068356e-05
5.15429281358e-05
5.15954666636e-05
5.1650199543e-05
5.17068625667e-05
5.17655714633e-05
5.18264184597e-05
5.18894809328e-05
5.195482178e-05
5.20224842803e-05
5.20924877783e-05
5.21648227124e-05
5.22394481757e-05
5.23162889133e-05
5.23952343134e-05
5.247613616e-05
5.25588077868e-05
5.26430215402e-05
5.27285073161e-05
5.28149491903e-05
5.29019829917e-05
5.29891919347e-05
5.3076103235e-05
5.31621829397e-05
5.3246831985e-05
5.33293808637e-05
5.34090860361e-05
5.34851256746e-05
5.3556598027e-05
5.36225202392e-05
5.3681831063e-05
5.37333954899e-05
5.37760147343e-05
5.380843957e-05
5.38293900715e-05
5.3837579256e-05
5.38317427228e-05
5.38106706969e-05
5.37732431596e-05
5.37184632911e-05
5.36454890091e-05
5.35536579323e-05
5.34425065625e-05
5.33117811006e-05
5.31614429881e-05
5.29916681752e-05
5.2802841233e-05
5.25955539625e-05
5.23698862278e-05
5.21265382411e-05
5.18662225379e-05
5.15896919805e-05
5.12977334702e-05
5.09911552689e-05
5.06707716985e-05
5.03373898148e-05
4.99917997791e-05
4.96347669752e-05
4.92670272597e-05
4.8889283139e-05
4.85022019406e-05
4.81064136608e-05
4.77025093646e-05
4.72910377467e-05
4.68725004283e-05
4.64473432917e-05
4.60159438222e-05
4.55785913434e-05
4.51354605262e-05
4.46863883025e-05
4.42317110413e-05
4.37715703985e-05
4.33058244448e-05
4.28339328591e-05
4.23548134141e-05
4.18666661141e-05
4.13667642988e-05
4.08512117972e-05
4.03146703818e-05
3.97500648365e-05
3.91482810718e-05
3.84978790812e-05
3.77848534457e-05
3.6992483452e-05
3.61013279227e-05
3.50894311348e-05
3.39328202275e-05
3.26063872871e-05
3.10852660274e-05
2.93468335809e-05
2.73735025543e-05
2.51565274839e-05
2.27011515555e-05
2.00335537322e-05
1.72100751511e-05
1.43285005947e-05
1.15384589213e-05
9.04230835674e-06
7.11875671918e-05
7.10814093205e-05
7.08713646696e-05
7.05617765912e-05
7.01586624403e-05
6.9669408649e-05
6.91024032909e-05
6.84666693313e-05
6.77715329012e-05
6.70263502575e-05
6.62403129375e-05
6.54223346043e-05
6.45810133694e-05
6.3724648647e-05
6.28612876102e-05
6.19987722122e-05
6.11447638869e-05
6.03067274836e-05
5.94918670835e-05
5.87070131427e-05
5.79584711746e-05
5.72518466126e-05
5.65918672936e-05
5.59822239414e-05
5.54254499853e-05
5.49228548335e-05
5.44745210247e-05
5.4079365069e-05
5.37352576237e-05
5.34391892909e-05
5.31874680015e-05
5.29759288512e-05
5.28001420532e-05
5.26556032845e-05
5.25378986671e-05
5.24428362664e-05
5.23665443251e-05
5.23055348224e-05
5.2256738046e-05
5.2217510237e-05
5.21856221165e-05
5.21592310013e-05
5.21368443513e-05
5.21172768361e-05
5.20996077201e-05
5.20831374468e-05
5.20674578306e-05
5.20530580558e-05
5.20403326178e-05
5.20296044059e-05
5.20211344269e-05
5.2015124401e-05
5.20117188477e-05
5.20110054772e-05
5.20130174402e-05
5.2017734524e-05
5.20250859738e-05
5.20349517464e-05
5.20471649087e-05
5.20615121334e-05
5.20777351427e-05
5.20955301738e-05
5.21145483967e-05
5.21343944443e-05
5.21546260357e-05
5.21747519442e-05
5.21942313383e-05
5.22124718529e-05
5.22288294739e-05
5.22426077205e-05
5.22530592623e-05
5.22593875893e-05
5.22607518915e-05
5.22562728453e-05
5.22450423653e-05
5.22261349415e-05
5.21986232861e-05
5.21615955631e-05
5.21141762843e-05
5.20555475236e-05
5.19849717076e-05
5.19018120527e-05
5.18055514433e-05
5.16958060028e-05
5.15723348082e-05
5.14350434492e-05
5.12839845759e-05