/*--------------------------------*- C++ -*----------------------------------*\
| =========                 |                                                 |
| \\      /  F ield         | OpenFOAM: The Open Source CFD Toolbox           |
|  \\    /   O peration     | Version:  2206                                  |
|   \\  /    A nd           | Website:  www.openfoam.com                      |
|    \\/     M anipulation  |                                                 |
\*---------------------------------------------------------------------------*/
FoamFile
{
    version     2.0;
    format      ascii;
    arch        "LSB;label=64;scalar=64";
    class       surfaceScalarField;
    location    "4.1/water";
    object      phi;
}
// * * * * * * * * * * * * * * * * * * * * * * * * * * * * * * * * * * * * * //

dimensions      [0 3 -1 0 0 0 0];

oriented        oriented;

internalField   nonuniform List<scalar> 
46280
(
-3.71787783587e-10
3.71764444927e-10
-7.5520328369e-10
3.83409986505e-10
-1.15287120754e-09
3.97629442554e-10
-1.56955737769e-09
4.16684150912e-10
-2.01063171742e-09
4.41033195663e-10
-2.48134730215e-09
4.70719100962e-10
-2.987060864e-09
5.05666543974e-10
-3.53281242717e-09
5.45759324301e-10
-4.12366192417e-09
5.9080098455e-10
-4.76418398815e-09
6.40534116768e-10
-5.45880819837e-09
6.94577800313e-10
-6.21123923137e-09
7.52446893244e-10
-7.0247729831e-09
8.13490764806e-10
-7.9016752646e-09
8.76921544159e-10
-8.8434816162e-09
9.41766523994e-10
-9.85037350753e-09
1.00691392978e-09
-1.09214980627e-08
1.07108691866e-09
-1.20543860106e-08
1.13291221108e-09
-1.32453404225e-08
1.19091798514e-09
-1.44889384393e-08
1.24362414607e-09
-1.5778532705e-08
1.28955832776e-09
-1.71058630637e-08
1.32735809627e-09
-1.84616898024e-08
1.3557908445e-09
-1.98355114909e-08
1.37385086651e-09
-2.1216311504e-08
1.38076395232e-09
-2.25923414922e-08
1.37606044093e-09
-2.39519256792e-08
1.35954790857e-09
-2.52832426319e-08
1.33134853665e-09
-2.65751142715e-08
1.29183520878e-09
-2.78167183914e-08
1.24163665307e-09
-2.89983033978e-08
1.18154855267e-09
-3.01107943646e-08
1.11252426576e-09
-3.11464128019e-08
1.03558213448e-09
-3.2098181209e-08
9.51802240887e-10
-3.29604639273e-08
8.62246756393e-10
-3.37284032038e-08
7.67973412329e-10
-3.43984120878e-08
6.69973464291e-10
-3.49675786019e-08
5.69200686445e-10
-3.54341357122e-08
4.66522427532e-10
-3.57968592628e-08
3.62757511766e-10
-3.60555270197e-08
2.58633995927e-10
-3.62103237782e-08
1.54830252817e-10
-3.62622934123e-08
5.193695686e-11
-3.62127806874e-08
-4.94799158624e-11
-3.60638755226e-08
-1.48936621882e-10
-3.58178621543e-08
-2.45981447712e-10
-3.54776576579e-08
-3.40234633345e-10
-3.50463020567e-08
-4.31324715144e-10
-3.45274042861e-08
-5.18926525601e-10
-3.39246500588e-08
-6.02724489109e-10
-3.3242230367e-08
-6.82447045862e-10
-3.24843721996e-08
-7.57829628633e-10
-3.1655750746e-08
-8.28647428085e-10
-3.07610431329e-08
-8.94680294805e-10
-2.98053227015e-08
-9.55745089317e-10
-2.87936334876e-08
-1.01166308918e-09
-2.77313647442e-08
-1.06229218132e-09
-2.6623843053e-08
-1.10749672303e-09
-2.54766858172e-08
-1.14717957988e-09
-2.42954078161e-08
-1.18125412993e-09
-2.30857531491e-08
-1.20967605792e-09
-2.18533132382e-08
-1.23241708923e-09
-2.06038374412e-08
-1.24949638346e-09
-1.93428601206e-08
-1.26095549827e-09
-1.80759909006e-08
-1.26688914237e-09
-1.68085492733e-08
-1.2674207787e-09
-1.55458362754e-08
-1.26273238145e-09
-1.42927764325e-08
-1.25303994525e-09
-1.3054173688e-08
-1.23862168519e-09
-1.1834362173e-08
-1.21979256239e-09
-1.06374504278e-08
-1.19693030878e-09
-9.46698388506e-09
-1.1704485179e-09
-8.32618086558e-09
-1.14082123706e-09
-7.21760646242e-09
-1.10855728988e-09
-6.14339471595e-09
-1.07422961647e-09
-5.104916568e-09
-1.03846190941e-09
-4.10295338984e-09
-1.00198065693e-09
-3.13729671915e-09
-9.65641255101e-10
-2.20677263762e-09
-9.30541084723e-10
-1.30863091511e-09
-8.98127027803e-10
-4.38304440542e-10
-8.70342939692e-10
4.1103968121e-10
-8.49330010093e-10
1.24714529544e-09
-8.36121561047e-10
2.07662541118e-09
-8.29466463069e-10
2.9035356777e-09
-8.26925756507e-10
3.72997974134e-09
-8.2643082077e-10
4.55648754657e-09
-8.26522885586e-10
5.38264986771e-09
-8.26149486041e-10
6.20716258196e-09
-8.24527409371e-10
7.02819827487e-09
-8.2102329407e-10
7.84330574269e-09
-8.15121786433e-10
8.64969590917e-09
-8.0637823719e-10
9.44410808067e-09
-7.94426110537e-10
1.02230708234e-08
-7.78951326603e-10
1.09827659987e-08
-7.59708726499e-10
1.17192786036e-08
-7.36501741528e-10
1.24284652428e-08
-7.09199791152e-10
1.31061949638e-08
-6.77719453931e-10
1.37482231422e-08
-6.42040920438e-10
1.43504223319e-08
-6.02189555567e-10
1.49086607222e-08
-5.5825071157e-10
1.54190209783e-08
-5.10351291843e-10
1.58776819749e-08
-4.58672887821e-10
1.62811237769e-08
-4.03433536648e-10
1.66260118971e-08
-3.44899573068e-10
1.69093874004e-08
-2.83367964382e-10
1.71285535676e-08
-2.19177174691e-10
1.72812504283e-08
-1.52690068605e-10
1.73655432163e-08
-8.4303343376e-11
1.73799793926e-08
-1.44301492862e-11
1.73234818806e-08
5.6487415785e-11
1.71954898735e-08
1.27997257276e-10
1.69958698555e-08
1.99610389157e-10
1.67250626666e-08
2.7081165249e-10
1.63840074899e-08
3.41046025141e-10
1.59742847487e-08
4.09726412918e-10
1.54980558034e-08
4.76220283298e-10
1.49582030868e-08
5.39855592561e-10
1.43582860762e-08
5.99908854724e-10
1.37026748808e-08
6.55613276297e-10
1.29965128188e-08
7.06154433578e-10
1.22458250015e-08
7.50689111084e-10
1.14574587808e-08
7.88359148217e-10
1.06391271762e-08
8.18332132131e-10
9.79927820514e-09
8.39842489797e-10
8.94702097372e-09
8.52257029228e-10
8.09187913348e-09
8.55135989805e-10
7.24357544283e-09
8.48302807154e-10
6.41167866031e-09
8.31891590646e-10
5.605297276e-09
8.06379885667e-10
4.83270884237e-09
7.72583921741e-10
4.1010754791e-09
7.31631303281e-10
3.41616281867e-09
6.8490882554e-10
2.78214449266e-09
6.34015917271e-10
2.2013963712e-09
5.80745046186e-10
1.67425593056e-09
5.27138083051e-10
1.198578041e-09
4.75675580936e-10
7.68886440953e-10
4.29689537779e-10
3.74810384445e-10
3.94074040586e-10
3.74809828495e-10
-4.05769280438e-10
7.77512913248e-10
-8.16206880608e-10
7.93831977991e-10
-1.23919487319e-09
8.20588217047e-10
-1.68082126891e-09
8.58296859322e-10
-2.14693246467e-09
9.0711420226e-10
-2.64312800947e-09
9.66904407946e-10
-3.17489034941e-09
1.03739758638e-09
-3.74737132517e-09
1.11823318289e-09
-4.36553275708e-09
1.20893252437e-09
-5.03387252718e-09
1.30886989485e-09
-5.75654316364e-09
1.417220943e-09
-6.53702710326e-09
1.53293036795e-09
-7.37822896412e-09
1.65466832487e-09
-8.28212160182e-09
1.78081664937e-09
-9.24982771908e-09
1.90945108793e-09
-1.02812697992e-08
2.03836077673e-09
-1.13752720414e-08
2.16506955702e-09
-1.25292499031e-08
2.28689658623e-09
-1.37393699097e-08
2.40101959127e-09
-1.50003111527e-08
2.5045732598e-09
-1.63055146418e-08
2.59474411991e-09
-1.76470371608e-08
2.66888959078e-09
-1.90159042867e-08
2.72464065489e-09
-2.04020560523e-08
2.76001255644e-09
-2.1794792073e-08
2.77348290391e-09
-2.31827824457e-08
2.76406158157e-09
-2.45545666511e-08
2.73131523263e-09
-2.58985814335e-08
2.67537485121e-09
-2.72036588696e-08
2.59689599045e-09
-2.84590167068e-08
2.49700670998e-09
-2.96547041004e-08
2.37721956331e-09
-3.07815141989e-08
2.23934718733e-09
-3.18313481327e-08
2.08540004815e-09
-3.27970374506e-08
1.91750488531e-09
-3.36726254954e-08
1.73781920813e-09
-3.4453113918e-08
1.54847554992e-09
-3.51346814486e-08
1.35152591892e-09
-3.57143826671e-08
1.14891588183e-09
-3.61903305591e-08
9.42455813797e-10
-3.65613760969e-08
7.33817156546e-10
-3.6827276944e-08
5.24520977086e-10
-3.69883800244e-08
3.15947438886e-10
-3.7045792351e-08
1.09336087127e-10
-3.70010587274e-08
-9.41995601524e-11
-3.68563191544e-08
-2.93688681335e-10
-3.66140306418e-08
-4.88256220568e-10
-3.62771577975e-08
-6.77119255351e-10
-3.58489020151e-08
-8.595670908e-10
-3.53328814528e-08
-1.0349581518e-09
-3.47328869562e-08
-1.2027059839e-09
-3.40530638869e-08
-1.36228049874e-09
-3.32976851823e-08
-1.51319578485e-09
-3.24713293367e-08
-1.65501300507e-09
-3.15786669907e-08
-1.78733057456e-09
-3.06246318762e-08
-1.90978934683e-09
-2.96142179005e-08
-2.02206549333e-09
-2.85526406704e-08
-2.12387802565e-09
-2.74451421026e-08
-2.21498421875e-09
-2.6297140684e-08
-2.29518917313e-09
-2.51140408617e-08
-2.36434338066e-09
-2.39013708468e-08
-2.4223538871e-09
-2.26645944191e-08
-2.46918344967e-09
-2.14092356296e-08
-2.50486272529e-09
-2.01406912413e-08
-2.52949033127e-09
-1.88643424012e-08
-2.54324535194e-09
-1.7585366732e-08
-2.54638741795e-09
-1.63088378129e-08
-2.53926857284e-09
-1.50395370681e-08
-2.52233220042e-09
-1.37820429761e-08
-2.49612300669e-09
-1.25405441487e-08
-2.46128345181e-09
-1.13189208421e-08
-2.41856085186e-09
-1.01205607298e-08
-2.36880124563e-09
-8.94843355594e-09
-2.31295566857e-09
-7.80490702496e-09
-2.25207697809e-09
-6.69180808985e-09
-2.18733583682e-09
-5.610226856e-09
-2.12003681628e-09
-4.5605493778e-09
-2.05166541455e-09
-3.54223972387e-09
-1.98394505339e-09
-2.55386574446e-09
-1.91892228376e-09
-1.59297430007e-09
-1.85901302115e-09
-6.56432594795e-10
-1.80689172988e-09
2.59134266759e-10
-1.76489174423e-09
1.15707522707e-09
-1.73406943387e-09
2.04085473216e-09
-1.71324109186e-09
2.9136284739e-09
-1.69970622316e-09
3.77778283452e-09
-1.69058050728e-09
4.6346210461e-09
-1.68336764906e-09
5.48452019876e-09
-1.67604414522e-09
6.32696665061e-09
-1.66698024897e-09
7.16078882994e-09
-1.65484115887e-09
7.98418336772e-09
-1.63852256651e-09
8.79490874896e-09
-1.61709949436e-09
9.59027954112e-09
-1.58980300667e-09
1.03673296952e-08
-1.5559975665e-09
1.1122789591e-08
-1.51517460288e-09
1.18532317572e-08
-1.46694022808e-09
1.25550405562e-08
-1.41101445216e-09
1.32245471793e-08
-1.34722265863e-09
1.38579968904e-08
-1.27549638731e-09
1.44516762213e-08
-1.19586575701e-09
1.50018796546e-08
-1.10845979765e-09
1.5505029653e-08
-1.01349847565e-09
1.59576431231e-08
-9.11291916901e-10
1.63564440166e-08
-8.02231955139e-10
1.66983295921e-08
-6.86790614811e-10
1.69804754857e-08
-5.65511743607e-10
1.72003022738e-08
-4.39009342354e-10
1.73555736068e-08
-3.07959666823e-10
1.74443645056e-08
-1.73099533213e-10
1.74651546963e-08
-3.52189993545e-11
1.741679474e-08
1.04842168081e-10
1.72985923589e-08
2.46200573628e-10
1.71102959578e-08
3.87901679499e-10
1.68521881829e-08
5.28919950712e-10
1.65250763241e-08
6.68152870627e-10
1.613038469e-08
8.04418153897e-10
1.56701533324e-08
9.36446736352e-10
1.51471270691e-08
1.06288154628e-09
1.45647552402e-08
1.18227589938e-09
1.39272656106e-08
1.29310218375e-09
1.32396485002e-08
1.39376689922e-09
1.250769349e-08
1.48264299939e-09
1.17379317646e-08
1.5581163922e-09
1.09376074347e-08
1.6186549649e-09
1.01145521602e-08
1.66289348035e-09
9.27707231985e-09
1.68973503514e-09
8.43374976473e-09
1.69845449573e-09
7.59325516379e-09
1.6887952824e-09
6.76410272154e-09
1.66104024879e-09
5.9544322822e-09
1.61604795689e-09
5.17176785671e-09
1.55524485932e-09
4.42281524622e-09
1.48058133497e-09
3.71325418323e-09
1.39446670248e-09
3.04755060599e-09
1.29971685366e-09
2.42873708647e-09
1.19955582527e-09
1.85814541051e-09
1.09772734835e-09
1.33503341617e-09
9.98785373257e-10
8.56074069244e-10
9.08646826034e-10
4.14886945137e-10
8.35259173504e-10
7.89696228561e-10
-4.44245730963e-10
1.22173519777e-09
-8.91201772157e-10
1.24077100463e-09
-1.34949772065e-09
1.27885361621e-09
-1.82615983692e-09
1.33494431085e-09
-2.32763297297e-09
1.40855685501e-09
-2.85991664315e-09
1.49917642275e-09
-3.42873794631e-09
1.60619022634e-09
-4.03937721276e-09
1.72886457405e-09
-4.69677369934e-09
1.86630178184e-09
-5.40529242812e-09
2.01738452783e-09
-6.16880927893e-09
2.18071378402e-09
-6.99043703252e-09
2.3545569587e-09
-7.87259066283e-09
2.53680088036e-09
-8.81670007329e-09
2.72492748059e-09
-9.823274289e-09
2.91600658879e-09
-1.08916288098e-08
3.10671871195e-09
-1.20199777235e-08
3.29340138839e-09
-1.32052034479e-08
3.4721271891e-09
-1.44430046654e-08
3.63880474195e-09
-1.57277307981e-08
3.78930540008e-09
-1.70526064489e-08
3.9196043006e-09
-1.84096426672e-08
4.02593272544e-09
-1.9789945368e-08
4.10492824125e-09
-2.11837002882e-08
4.15377519776e-09
-2.25805543503e-08
4.17032209941e-09
-2.39696520838e-08
4.15316775973e-09
-2.5340058765e-08
4.10170727559e-09
-2.66808090897e-08
4.01613430864e-09
-2.79813273721e-08
3.89739989695e-09
-2.92314431245e-08
3.74713222306e-09
-3.04217649059e-08
3.56752729231e-09
-3.1543627961e-08
3.36122058484e-09
-3.25893954608e-08
3.13115388992e-09
-3.35523259048e-08
2.88044616545e-09
-3.44267995578e-08
2.61227966783e-09
-3.52081165652e-08
2.32980380596e-09
-3.58926653202e-08
2.03606200782e-09
-3.6477675718e-08
1.73393782328e-09
-3.6961353394e-08
1.42612140403e-09
-3.73426142506e-08
1.11508974956e-09
-3.76212055394e-08
8.03100799579e-10
-3.77974411451e-08
4.92194848552e-10
-3.78723192625e-08
1.84203385607e-10
-3.78472660278e-08
-1.19241024779e-10
-3.77242659356e-08
-4.16698933592e-10
-3.75056052478e-08
-7.06905284224e-10
-3.71940117525e-08
-9.88722255161e-10
-3.6792442189e-08
-1.26112525396e-09
-3.63042204462e-08
-1.52318876309e-09
-3.57328409033e-08
-1.77407442616e-09
-3.50821093291e-08
-2.01302033775e-09
-3.43559616185e-08
-2.23933273428e-09
-3.35586029898e-08
-2.45237934048e-09
-3.26943382127e-08
-2.65158496711e-09
-3.17677057123e-08
-2.83642905388e-09
-3.07833161214e-08
-3.00644508518e-09
-2.97459788776e-08
-3.16122204585e-09
-2.86605462548e-08
-3.30040724332e-09
-2.75320307109e-08
-3.42371114193e-09
-2.63654519092e-08
-3.53091298328e-09
-2.51659436551e-08
-3.62186829905e-09
-2.39386017377e-08
-3.69651658037e-09
-2.26885797935e-08
-3.75489064631e-09
-2.14209362865e-08
-3.79712546763e-09
-2.01407191356e-08
-3.82346838158e-09
-1.88528106837e-08
-3.83428793607e-09
-1.75620014577e-08
-3.8300836535e-09
-1.6272832775e-08
-3.81149339641e-09
-1.49896606804e-08
-3.77930099167e-09
-1.37164967457e-08
-3.73444036701e-09
-1.24570639659e-08
-3.67799959885e-09
-1.12146372889e-08
-3.61122137332e-09
-9.99209392963e-09
-3.5355050923e-09
-8.79175623928e-09
-3.45240859492e-09
-7.61544085496e-09
-3.36365738054e-09
-6.4643120917e-09
-3.27115996619e-09
-5.33894796375e-09
-3.17703576974e-09
-4.23924357638e-09
-3.08364426708e-09
-3.16457439885e-09
-2.99359770343e-09
-2.11389029226e-09
-2.90969234517e-09
-1.08613464952e-09
-2.83465356424e-09
-8.0431253533e-11
-2.77059069782e-09
9.03715272154e-10
-2.71822204021e-09
1.86731761387e-09
-2.67683926828e-09
2.81194753615e-09
-2.64434207506e-09
3.73914253051e-09
-2.61777156955e-09
4.65001632205e-09
-2.59424720189e-09
5.54514405007e-09
-2.5711681395e-09
6.42443880972e-09
-2.54628060047e-09
7.28726186455e-09
-2.51766066838e-09
8.13241063832e-09
-2.48367677052e-09
8.9582674661e-09
-2.44295296155e-09
9.76279950867e-09
-2.39434033083e-09
1.054369833e-08
-2.33689322495e-09
1.1298371063e-08
-2.269852484e-09
1.20240650129e-08
-2.19263122598e-09
1.27178507883e-08
-2.10480525835e-09
1.33767352185e-08
-2.0061043711e-09
1.39976401873e-08
-1.89640628519e-09
1.45775070126e-08
-1.77573011834e-09
1.51132734218e-08
-1.6442310486e-09
1.56019709831e-08
-1.50219385191e-09
1.60407013802e-08
-1.35002708074e-09
1.64267275858e-08
-1.18825627376e-09
1.67574501803e-08
-1.01751791127e-09
1.7030492926e-08
-8.38552922187e-10
1.72436801304e-08
-6.52201191853e-10
1.73951176969e-08
-4.59396001231e-10
1.74831729875e-08
-2.6115941749e-10
1.75065520728e-08
-5.85972030921e-11
1.74642828527e-08
1.47106844051e-10
1.73557903572e-08
3.54693591501e-10
1.71808857305e-08
5.62801812938e-10
1.69398445613e-08
7.69961275609e-10
1.66334051655e-08
9.74587828865e-10
1.62628448251e-08
1.1749782811e-09
1.58299807725e-08
1.36930641467e-09
1.53372387539e-08
1.55562298222e-09
1.47876483616e-08
1.73186199259e-09
1.41848922784e-08
1.89585732043e-09
1.35332819162e-08
2.0453730536e-09
1.28377716903e-08
2.1781519275e-09
1.21038998203e-08
2.29198416942e-09
1.13377552333e-08
2.3847979278e-09
1.0545876759e-08
2.45476800884e-09
9.73517351537e-09
2.50043636392e-09
8.91279184607e-09
2.52083240267e-09
8.08600577042e-09
2.51557919319e-09
7.26207220155e-09
2.48497027037e-09
6.44811147019e-09
2.4300063148e-09
5.65096525453e-09
2.35238776729e-09
4.8770720876e-09
2.25447194141e-09
4.1323192064e-09
2.13921651769e-09
3.42188604135e-09
2.01014740387e-09
2.75003605047e-09
1.87140313736e-09
2.11983772458e-09
1.72792326706e-09
1.53275359755e-09
1.58586731101e-09
9.879875467e-10
1.45341081792e-09
4.80970059819e-10
1.34227466068e-09
1.27066574124e-09
-4.82321993727e-10
1.70403218041e-09
-9.68924430896e-10
1.72735648277e-09
-1.46712439556e-09
1.77702177782e-09
-1.984106751e-09
1.8519111795e-09
-2.52665714215e-09
1.95107651046e-09
-3.10106018503e-09
2.07356882038e-09
-3.7132352583e-09
2.21833605923e-09
-4.36854009985e-09
2.38416253335e-09
-5.07186900792e-09
2.56960535369e-09
-5.82741428164e-09
2.77292606773e-09
-6.63874287289e-09
2.99201972436e-09
-7.5085387488e-09
3.22435241794e-09
-8.43867243241e-09
3.46691474127e-09
-9.42994244879e-09
3.71619955898e-09
-1.04821595905e-08
3.96820608527e-09
-1.15939147293e-08
4.21847772738e-09
-1.27627008074e-08
4.46217124381e-09
-1.39847283242e-08
4.69415989346e-09
-1.52551044634e-08
4.9091654813e-09
-1.65677090663e-08
5.10191617405e-09
-1.79154418447e-08
5.26732212771e-09
-1.92901618844e-08
5.40065973567e-09
-2.06830022488e-08
5.49775389786e-09
-2.20843638319e-08
5.55514445322e-09
-2.34842822721e-08
5.57022600617e-09
-2.48724530223e-08
5.54134683584e-09
-2.62386212712e-08
5.46786116727e-09
-2.75726042416e-08
5.35012622478e-09
-2.88646673437e-08
5.18944887632e-09
-3.01055086182e-08
4.98798303027e-09
-3.1286588883e-08
4.74859373919e-09
-3.24000544229e-08
4.47469619475e-09
-3.34390042668e-08
4.17009030637e-09
-3.43973456837e-08
3.8387981243e-09
-3.52700001158e-08
3.48492113508e-09
-3.60527030062e-08
3.11251762318e-09
-3.6742163229e-08
2.72550980009e-09
-3.73358279392e-08
2.32761374684e-09
-3.78320148088e-08
1.92229642805e-09
-3.82296630358e-08
1.51274936815e-09
-3.85284547687e-08
1.10188131675e-09
-3.87285677476e-08
6.92319290121e-10
-3.88307942439e-08
2.86419319442e-10
-3.88363027271e-08
-1.13721114216e-10
-3.87467805681e-08
-5.06230987368e-10
-3.85641764515e-08
-8.89498105274e-10
-3.82908401013e-08
-1.26206784238e-09
-3.79293244863e-08
-1.62262978803e-09
-3.74825214079e-08
-1.97000043923e-09
-3.69534772723e-08
-2.30310775751e-09
-3.63455296335e-08
-2.62097597432e-09
-3.56621369757e-08
-2.92271490882e-09
-3.490701304e-08
-3.20751071931e-09
-3.40839671795e-08
-3.47462069036e-09
-3.31970336067e-08
-3.72336957942e-09
-3.22503194575e-08
-3.95314945707e-09
-3.12481269469e-08
-4.16342108791e-09
-3.01948066097e-08
-4.35371816793e-09
-2.9094870984e-08
-4.52365296116e-09
-2.79528508122e-08
-4.67292411144e-09
-2.67733994197e-08
-4.80132562984e-09
-2.55611499916e-08
-4.90875733802e-09
-2.4320810229e-08
-4.99523618139e-09
-2.30570191898e-08
-5.06090822001e-09
-2.17744321864e-08
-5.1060610715e-09
-2.04775761123e-08
-5.13113612077e-09
-1.91709248689e-08
-5.13674057338e-09
-1.78587526568e-08
-5.12365813535e-09
-1.6545200691e-08
-5.09285867974e-09
-1.5234128808e-08
-5.04550521028e-09
-1.39291751884e-08
-4.98295902825e-09
-1.26336085246e-08
-4.9067814461e-09
-1.13503852491e-08
-4.81873428066e-09
-1.00820094458e-08
-4.72077826227e-09
-8.8305997891e-09
-4.61507305062e-09
-7.59777700354e-09
-4.50397706625e-09
-6.38477189439e-09
-4.39004696254e-09
-5.19238793917e-09
-4.2760229633e-09
-4.02121448163e-09
-4.16477726883e-09
-2.87172588e-09
-4.05917607353e-09
-1.74458343465e-09
-3.96180208282e-09
-6.40660373786e-10
-3.87450922117e-09
4.38995761954e-10
-3.79788416099e-09
1.49360671226e-09
-3.73144596885e-09
2.52302597879e-09
-3.67376719451e-09
3.52760299911e-09
-3.6223445891e-09
4.50766928734e-09
-3.57431918826e-09
5.46341175269e-09
-3.52690682729e-09
6.39468142433e-09
-3.47755580519e-09
7.30101239825e-09
-3.42398807431e-09
8.18154712883e-09
-3.36421687276e-09
9.03513377477e-09
-3.2965362474e-09
9.86029377346e-09
-3.21950554718e-09
1.0655334531e-08
-3.13193083593e-09
1.14183251267e-08
-3.03284815799e-09
1.21472051267e-08
-2.92150830568e-09
1.28397595631e-08
-2.79736464791e-09
1.34937204971e-08
-2.66006262685e-09
1.41067405322e-08
-2.5094311654e-09
1.46764874177e-08
-2.34547458671e-09
1.52006167243e-08
-2.16836510629e-09
1.56768601432e-08
-1.97843513366e-09
1.61029980339e-08
-1.77616964348e-09
1.64769420708e-08
-1.56219847266e-09
1.67967084439e-08
-1.33728888792e-09
1.70604956463e-08
-1.10233860291e-09
1.72666593496e-08
-8.58369440777e-10
1.74137863606e-08
-6.06521822778e-10
1.75006723013e-08
-3.48049851327e-10
1.75263926719e-08
-8.43167289639e-11
1.7490284546e-08
1.83210525507e-10
1.73920131627e-08
4.52965465583e-10
1.72315551122e-08
7.23255469085e-10
1.70092662733e-08
9.92250246113e-10
1.67258728853e-08
1.25797687578e-09
1.63825354139e-08
1.51831552214e-09
1.59808394146e-08
1.77099813414e-09
1.55228492707e-08
2.01361253462e-09
1.50110917624e-08
2.24361529273e-09
1.44485913049e-08
2.45835683014e-09
1.38388376029e-08
2.6551226352e-09
1.3185794568e-08
2.83119367153e-09
1.24938469079e-08
2.98392781921e-09
1.1767781645e-08
3.1108615813e-09
1.10127179276e-08
3.20982785692e-09
1.02340707044e-08
3.27908169361e-09
9.43747715661e-09
3.31742225745e-09
8.62875671186e-09
3.32429750022e-09
7.8138450218e-09
3.29987847003e-09
6.99875416717e-09
3.24509482203e-09
6.18950799273e-09
3.16163067888e-09
5.39208546202e-09
3.05189192957e-09
4.6123287708e-09
2.91897017493e-09
3.85582693543e-09
2.76664663103e-09
3.12772742661e-09
2.59949997277e-09
2.43243982368e-09
2.42320844335e-09
1.77313053674e-09
2.24517438653e-09
1.15086121349e-09
2.07567805888e-09
5.62984978048e-10
1.93014887755e-09
1.83365016669e-09
-5.20600699558e-10
2.22460636896e-09
-1.04669437033e-09
2.25343320431e-09
-1.58549694768e-09
2.31579106109e-09
-2.14415485538e-09
2.41055554709e-09
-2.7296171774e-09
2.53650685958e-09
-3.34833365539e-09
2.69227476319e-09
-4.00633234644e-09
2.87630690398e-09
-4.70898851166e-09
3.08681234169e-09
-5.4611039746e-09
3.32169519924e-09
-6.26665726711e-09
3.57847700609e-09
-7.12888132652e-09
3.85422206016e-09
-8.05000527669e-09
4.14547675819e-09
-9.03133711728e-09
4.44822773733e-09
-1.00730256842e-08
4.75789087411e-09
-1.11741698279e-08
5.06933340365e-09
-1.23326208852e-08
5.37693326706e-09
-1.3545140088e-08
5.67467485717e-09
-1.4807254531e-08
5.95628004026e-09
-1.61134742111e-08
6.21537022966e-09
-1.74572047186e-08
6.44565328048e-09
-1.88310248063e-08
6.64112758998e-09
-2.0226649275e-08
6.79629151394e-09
-2.16352573493e-08
6.90634748044e-09
-2.30474894838e-08
6.96738452033e-09
-2.44538063137e-08
6.97652843063e-09
-2.58444944341e-08
6.93204346839e-09
-2.72100280456e-08
6.83338048844e-09
-2.85410551053e-08
6.68116235482e-09
-2.9828733452e-08
6.47711312003e-09
-3.10646735962e-08
6.2239327745e-09
-3.22412295611e-08
5.92513587826e-09
-3.33513867387e-08
5.5848634634e-09
-3.43890009742e-08
5.20769108607e-09
-3.53486336127e-08
4.79844128203e-09
-3.62257443512e-08
4.362018874e-09
-3.70164856303e-08
3.9032697715e-09
-3.77178617865e-08
3.42687348712e-09
-3.83274992476e-08
2.93726233031e-09
-3.88437860116e-08
2.4385713138e-09
-3.92656333223e-08
1.93460795474e-09
-3.95926068536e-08
1.42884360472e-09
-3.98246915906e-08
9.2441535272e-10
-3.99624233117e-08
4.24140462615e-10
-4.00066581262e-08
-6.94750213077e-11
-3.99587287385e-08
-5.54170276458e-10
-3.98201858983e-08
-1.02802980787e-09
-3.95929530602e-08
-1.48930991132e-09
-3.92791326073e-08
-1.93643931791e-09
-3.88811431556e-08
-2.36799847458e-09
-3.84015417853e-08
-2.78269847804e-09
-3.78431626765e-08
-3.1793630571e-09
-3.72089516456e-08
-3.55691559927e-09
-3.6502101418e-08
-3.91436836215e-09
-3.57258959631e-08
-4.25081613614e-09
-3.4883840336e-08
-4.56543212608e-09
-3.39795124441e-08
-4.85746767845e-09
-3.30166859564e-08
-5.1262540735e-09
-3.19991873409e-08
-5.37120745501e-09
-3.09310109135e-08
-5.59183554689e-09
-2.98161792775e-08
-5.78774676059e-09
-2.86588500812e-08
-5.95866073158e-09
-2.74631783044e-08
-6.10442047455e-09
-2.62334146886e-08
-6.22500553671e-09
-2.49737686799e-08
-6.32054594307e-09
-2.36884988081e-08
-6.39133659947e-09
-2.23817754821e-08
-6.43785153209e-09
-2.10577638514e-08
-6.46075784954e-09
-1.97204861322e-08
-6.46092832913e-09
-1.8373897829e-08
-6.43945267506e-09
-1.7021750063e-08
-6.39764586146e-09
-1.56676609872e-08
-6.33705388111e-09
-1.43149806621e-08
-6.25945508322e-09
-1.2966862704e-08
-6.16685811707e-09
-1.16261399374e-08
-6.06149477817e-09
-1.0295409757e-08
-5.94580920424e-09
-8.9769409727e-09
-5.82244003207e-09
-7.67280115286e-09
-5.69419282174e-09
-6.38482919211e-09
-5.56398951609e-09
-5.11483533434e-09
-5.43477718534e-09
-3.86464050757e-09
-5.30936586282e-09
-2.63627359064e-09
-5.19017502525e-09
-1.43187824276e-09
-5.07889985787e-09
-2.53544647197e-10
-4.97622369869e-09
8.96541477009e-10
-4.88152766834e-09
2.01665905717e-09
-4.79389059628e-09
3.10603169382e-09
-4.71171305927e-09
4.16402571183e-09
-4.63231888262e-09
5.19020850727e-09
-4.55308569551e-09
6.184071143e-09
-4.4714239619e-09
7.14503886921e-09
-4.3849521048e-09
8.07234650603e-09
-4.2915298748e-09
8.96509685274e-09
-4.18928312881e-09
9.82219145314e-09
-4.07660536332e-09
1.06424149602e-08
-3.95215111442e-09
1.14243870219e-08
-3.81482529678e-09
1.21666530827e-08
-3.66377138424e-09
1.28676441564e-08
-3.49836067364e-09
1.35257665287e-08
-3.31818227747e-09
1.41393647514e-08
-3.12303422959e-09
1.47068074078e-08
-2.91291479663e-09
1.52264516151e-08
-2.68801405907e-09
1.56967239518e-08
-2.44870531578e-09
1.61160861514e-08
-2.19553650567e-09
1.64831112434e-08
-1.92922171745e-09
1.67964508053e-08
-1.65063304118e-09
1.70549068302e-08
-1.36079310348e-09
1.72574012455e-08
-1.06086838561e-09
1.7403044231e-08
-7.52163620088e-10
1.74911068318e-08
-4.36116926389e-10
1.75210864561e-08
-1.14295512399e-10
1.74926833906e-08
2.11609168702e-10
1.74058584218e-08
5.39790920728e-10
1.72608061841e-08
8.68303337219e-10
1.70580136541e-08
1.19504290335e-09
1.67982413297e-08
1.51774488713e-09
1.64825756498e-08
1.83398096908e-09
1.61124084723e-08
2.14116106215e-09
1.56894786891e-08
2.43654172561e-09
1.52158451911e-08
2.71724461549e-09
1.46939129588e-08
2.98028811676e-09
1.41263959328e-08
3.22263557519e-09
1.3516325986e-08
3.44126233257e-09
1.2867007396e-08
3.63324243472e-09
1.21820142468e-08
3.79585312926e-09
1.14651460535e-08
3.92669221734e-09
1.07204259554e-08
4.0237999101e-09
9.95207043152e-09
4.08577412411e-09
9.16449858732e-09
4.11186721771e-09
8.36232010422e-09
4.10205349612e-09
7.55035091087e-09
4.05706167681e-09
6.73360426145e-09
3.97837408732e-09
5.91728793367e-09
3.86820572355e-09
5.10676465091e-09
3.72949042788e-09
4.30748778924e-09
3.56592088007e-09
3.5248700614e-09
3.38211501715e-09
2.7640572647e-09
3.18401878469e-09
2.02952106826e-09
2.97970833609e-09
1.32434246388e-09
2.78085455089e-09
6.49059459389e-10
2.605429836e-09
2.48270906682e-09
-5.57321428794e-10
2.78190134958e-09
-1.12126310943e-09
2.81735972143e-09
-1.69917693569e-09
2.89367186644e-09
-2.29834795077e-09
3.0097127568e-09
-2.92587685445e-09
3.16400465823e-09
-3.58835004728e-09
3.35473951554e-09
-4.29187686853e-09
3.57980469557e-09
-5.04181850499e-09
3.83674919551e-09
-5.8428656367e-09
4.12271847285e-09
-6.69877137549e-09
4.43438084649e-09
-7.6124264963e-09
4.76785622167e-09
-8.58560831523e-09
5.11865985149e-09
-9.61907434078e-09
5.48167558956e-09
-1.07123432761e-08
5.85116333566e-09
-1.1863831662e-08
6.22080555802e-09
-1.30706876439e-08
6.58379437062e-09
-1.43289850743e-08
6.93295717239e-09
-1.56336162613e-08
7.26091746021e-09
-1.6978546409e-08
7.56028578891e-09
-1.83567586717e-08
7.82387257798e-09
-1.97605602696e-08
8.04491478449e-09
-2.1181563902e-08
8.21730281192e-09
-2.2611027689e-08
8.33579689491e-09
-2.40398503874e-08
8.39621543289e-09
-2.54589210502e-08
8.39558472468e-09
-2.68591024958e-08
8.33223364296e-09
-2.82315654497e-08
8.20582912561e-09
-2.95677379418e-08
8.01734407336e-09
-3.08596047357e-08
7.76896573936e-09
-3.20996101131e-08
7.46394785613e-09
-3.32809144682e-08
7.10642630538e-09
-3.43972499065e-08
6.70120904799e-09
-3.54431363253e-08
6.25356393014e-09
-3.64136979892e-08
5.76901347889e-09
-3.73048473197e-08
5.25315507871e-09
-3.81130744248e-08
4.71150772011e-09
-3.88356084925e-08
4.14939496128e-09
-3.94701926176e-08
3.57185751945e-09
-4.00152318997e-08
2.98359860062e-09
-4.046956434e-08
2.3889515825e-09
-4.08326026314e-08
1.79187054823e-09
-4.11041093558e-08
1.19593329281e-09
-4.12843369914e-08
6.04357431008e-10
-4.13738337133e-08
2.00328515179e-11
-4.13735452063e-08
-5.54468756825e-10
-4.12846196044e-08
-1.11694440863e-09
-4.11085610026e-08
-1.66537779914e-09
-4.0847024265e-08
-2.1979652736e-09
-4.05019604611e-08
-2.71307090123e-09
-4.00754448495e-08
-3.20920357749e-09
-3.95698183722e-08
-3.68499753459e-09
-3.8987526111e-08
-4.13919764973e-09
-3.83312542098e-08
-4.57064769342e-09
-3.76037774428e-08
-4.97828300876e-09
-3.68080903003e-08
-5.36112619493e-09
-3.59472617775e-08
-5.71828662737e-09
-3.50245596376e-08
-6.04896271147e-09
-3.40433106179e-08
-6.35244721953e-09
-3.30070173734e-08
-6.62813494558e-09
-3.19192225493e-08
-6.87553264673e-09
-3.07836183711e-08
-7.09427080713e-09
-2.96039133585e-08
-7.28411686836e-09
-2.83839349057e-08
-7.44498971791e-09
-2.7127497782e-08
-7.57697477576e-09
-2.58385003493e-08
-7.68033967311e-09
-2.45207943973e-08
-7.75554953587e-09
-2.31782758741e-08
-7.80328199841e-09
-2.18147560578e-08
-7.82444056027e-09
-2.04340479432e-08
-7.82016645544e-09
-1.90398394331e-08
-7.79184717072e-09
-1.76357772454e-08
-7.74112181225e-09
-1.62253444849e-08
-7.66988104595e-09
-1.48119464557e-08
-7.58026198263e-09
-1.33987994639e-08
-7.4746353859e-09
-1.19890292225e-08
-7.3555853688e-09
-1.05855860441e-08
-7.22587723811e-09
-9.19137442294e-09
-7.08841042544e-09
-7.80921250036e-09
-6.94614585854e-09
-6.44199860924e-09
-6.8019970749e-09
-5.09268976125e-09
-6.65866948962e-09
-3.76442434262e-09
-6.51844640866e-09
-2.46037428343e-09
-6.3829450155e-09
-1.18371032565e-09
-6.25289354356e-09
6.28442995546e-11
-6.12807768089e-09
1.27623445229e-09
-6.00728652351e-09
2.45406299494e-09
-5.88953725574e-09
3.59503602084e-09
-5.77329754802e-09
4.69797402388e-09
-5.65601960742e-09
5.76189713394e-09
-5.53535256589e-09
6.7859456717e-09
-5.40899680147e-09
7.7692606442e-09