/*--------------------------------*- C++ -*----------------------------------*\
| =========                 |                                                 |
| \\      /  F ield         | OpenFOAM: The Open Source CFD Toolbox           |
|  \\    /   O peration     | Version:  2206                                  |
|   \\  /    A nd           | Website:  www.openfoam.com                      |
|    \\/     M anipulation  |                                                 |
\*---------------------------------------------------------------------------*/
FoamFile
{
    version     2.0;
    format      ascii;
    arch        "LSB;label=64;scalar=64";
    class       surfaceScalarField;
    location    "4.1/water";
    object      phi.gas;
}
// * * * * * * * * * * * * * * * * * * * * * * * * * * * * * * * * * * * * * //

dimensions      [0 3 -1 0 0 0 0];

oriented        oriented;

internalField   nonuniform List<scalar> 
46280
(
-7.16232664684e-09
2.71746371703e-07
3.86176422077e-10
2.71725919269e-07
4.49006956148e-10
2.71641968221e-07
4.66664602444e-10
2.71539039601e-07
4.05746182987e-10
2.71419799044e-07
2.53223662272e-10
2.71286430662e-07
-1.49124795102e-11
2.7114207742e-07
-3.93973095571e-10
2.70991287845e-07
-9.01326702443e-10
2.70837790025e-07
-1.52569244818e-09
2.7068660971e-07
-2.27859030203e-09
2.70541722716e-07
-3.14333158507e-09
2.70408156893e-07
-4.12517210347e-09
2.70289597217e-07
-5.20314697077e-09
2.70190353104e-07
-6.37746401959e-09
2.70113091683e-07
-7.62480903579e-09
2.70060725692e-07
-8.94266928545e-09
2.7003433843e-07
-1.03076402023e-08
2.70035065677e-07
-1.17168910323e-08
2.70062217823e-07
-1.31487416658e-08
2.7011519813e-07
-1.46017342926e-08
2.70191775001e-07
-1.60568532315e-08
2.70290041049e-07
-1.75147105384e-08
2.70406760585e-07
-1.89589775653e-08
2.70539347253e-07
-2.03921436246e-08
2.7068421286e-07
-2.17998741822e-08
2.70838735442e-07
-2.31857321405e-08
2.70999553854e-07
-2.45363082026e-08
2.71164509073e-07
-2.58552416495e-08
2.71330858186e-07
-2.71290489566e-08
2.71497188136e-07
-2.83607055354e-08
2.71661546534e-07
-2.9536126999e-08
2.71823338651e-07
-3.06574540293e-08
2.71981388616e-07
-3.17101013491e-08
2.72135833987e-07
-3.26957541582e-08
2.72286135937e-07
-3.35998826603e-08
2.72432983959e-07
-3.44243800047e-08
2.72576276016e-07
-3.51554653484e-08
2.72717042147e-07
-3.57958765225e-08
2.72855413182e-07
-3.63331518984e-08
2.72992566937e-07
-3.67712960418e-08
2.73128701014e-07
-3.70994083583e-08
2.73264996975e-07
-3.73217626161e-08
2.73401577413e-07
-3.74283233059e-08
2.73539404991e-07
-3.74265683241e-08
2.73678296358e-07
-3.73098584973e-08
2.73819080742e-07
-3.70859433324e-08
2.73961575376e-07
-3.67485309894e-08
2.74106467999e-07
-3.63065351679e-08
2.74253333969e-07
-3.57551739197e-08
2.74402592315e-07
-3.51044392049e-08
2.74553572053e-07
-3.43508823401e-08
2.74706444305e-07
-3.35054089609e-08
2.74860307435e-07
-3.25657346578e-08
2.75015093934e-07
-3.15435403826e-08
2.75169675092e-07
-3.04375403691e-08
2.75323744427e-07
-2.92600662687e-08
2.75475941154e-07
-2.80106552211e-08
2.75625713655e-07
-2.67021625374e-08
2.75771458661e-07
-2.533475405e-08
2.75912370279e-07
-2.39216791086e-08
2.76046591827e-07
-2.24635252037e-08
2.76173058447e-07
-2.09738102336e-08
2.76289657858e-07
-1.94533457898e-08
2.76395077735e-07
-1.79158331335e-08
2.76486974086e-07
-1.63621712586e-08
2.76563838869e-07
-1.48062585165e-08
2.7662317735e-07
-1.32490836893e-08
2.7666341658e-07
-1.17049395976e-08
2.76682098364e-07
-1.01751240228e-08
2.76677853591e-07
-8.67474026809e-09
2.76648619804e-07
-7.20581238016e-09
2.76593707757e-07
-5.78478338234e-09
2.76512057197e-07
-4.41481527062e-09
2.7640443073e-07
-3.11397462444e-09
2.76271746288e-07
-1.88633127815e-09
2.76117478551e-07
-7.50136029034e-10
2.75946177861e-07
2.94370608163e-10
2.75766209734e-07
1.24261170081e-09
2.7558846624e-07
2.1340199412e-09
2.7542872152e-07
3.00694034278e-09
2.7530304294e-07
3.85595826032e-09
2.75223757527e-07
4.61924852503e-09
2.7519425749e-07
5.32204573479e-09
2.75214936676e-07
6.02534791993e-09
2.75276236826e-07
6.77875974952e-09
2.75360935239e-07
7.58183290143e-09
2.75451885879e-07
8.43319904344e-09
2.7553709333e-07
9.31445453761e-09
2.75607580058e-07
1.02182898466e-08
2.75658371452e-07
1.11265176444e-08
2.75686022636e-07
1.20327916436e-08
2.75689690809e-07
1.29216600431e-08
2.75669093133e-07
1.37885527164e-08
2.75625677465e-07
1.46207453897e-08
2.75560877105e-07
1.54152039515e-08
2.75477280286e-07
1.61614945086e-08
2.75377103814e-07
1.68577659363e-08
2.75263325203e-07
1.74954649379e-08
2.75138335767e-07
1.80736582627e-08
2.75005022295e-07
1.85853716548e-08
2.74865572555e-07
1.9030429885e-08
2.74722500488e-07
1.94032448085e-08
2.74577581867e-07
1.97043329412e-08
2.74432819357e-07
1.99293931215e-08
2.74289489303e-07
2.00796431364e-08
2.74149043474e-07
2.01520449105e-08
2.74012249892e-07
2.01485802475e-08
2.7388002885e-07
2.00674779694e-08
2.73752674491e-07
1.99113902869e-08
2.73630634113e-07
1.96796718953e-08
2.73513855164e-07
1.93755424536e-08
2.73402484642e-07
1.8999215597e-08
2.73296162623e-07
1.85545659362e-08
2.73194716302e-07
1.80428558008e-08
2.73097600202e-07
1.74686437896e-08
2.73004498246e-07
1.68341241841e-08
2.72914812917e-07
1.61443505858e-08
2.72828218958e-07
1.54021686567e-08
2.72744216962e-07
1.46128040535e-08
2.72662647148e-07
1.37793435363e-08
2.72583307057e-07
1.29067471013e-08
2.72506426434e-07
1.19978837205e-08
2.72432340656e-07
1.10570868591e-08
2.72361913432e-07
1.00868505676e-08
2.72296236686e-07
9.09115061511e-09
2.7223695827e-07
8.07301521424e-09
2.72185945061e-07
7.03786938047e-09
2.72145440139e-07
5.99213343179e-09
2.7211760985e-07
4.94657537359e-09
2.72104471733e-07
3.91565350689e-09
2.72107317146e-07
2.92027118322e-09
2.72126481428e-07
1.98714262442e-09
2.72160809533e-07
1.15042299117e-09
2.72207508873e-07
4.51546782344e-10
2.72261910715e-07
-5.83589815054e-11
2.72317580844e-07
-3.1673600457e-10
2.72366460642e-07
-2.65955514499e-10
2.72399694315e-07
-8.31955798569e-09
2.7240097529e-07
2.72376426265e-07
-4.24246279783e-09
2.22841743606e-07
-5.52168676438e-10
2.22886388126e-07
-7.88330148924e-10
2.22920536761e-07
-1.06738833054e-09
2.22966654893e-07
-1.3944413373e-09
2.23025537487e-07
-1.77498399307e-09
2.23095957839e-07
-2.21977491814e-09
2.23176723822e-07
-2.7307501475e-09
2.23266748454e-07
-3.31513342924e-09
2.23364658916e-07
-3.97141542627e-09
2.23469033583e-07
-4.70382241867e-09
2.23578149667e-07
-5.50816630616e-09
2.2369022741e-07
-6.38602684667e-09
2.23803202629e-07
-7.33114464676e-09
2.23915014025e-07
-8.34293489862e-09
2.24023371484e-07
-9.41368857459e-09
2.24126049127e-07
-1.05412879651e-08
2.24220674749e-07
-1.17171200393e-08
2.24305028627e-07
-1.2938076428e-08
2.24376842522e-07
-1.41950115824e-08
2.24434119278e-07
-1.54841799492e-08
2.24474925448e-07
-1.67960994904e-08
2.24497739168e-07
-1.81265653292e-08
2.24501217155e-07
-1.9465814778e-08
2.24484563124e-07
-2.08092272236e-08
2.24447242713e-07
-2.21467152222e-08
2.24389353631e-07
-2.34731978073e-08
2.24311264444e-07
-2.47781863523e-08
2.24213969842e-07
-2.60561252913e-08
2.24098644351e-07
-2.72961749969e-08
2.23966985342e-07
-2.84924943228e-08
2.23820700053e-07
-2.96342155561e-08
2.23661860707e-07
-3.07156884537e-08
2.23492359947e-07
-3.17265976418e-08
2.23314307872e-07
-3.26621212818e-08
2.2312948671e-07
-3.35131231489e-08
2.22939803575e-07
-3.42761673066e-08
2.22746754321e-07
-3.49437466354e-08
2.22551925853e-07
-3.5514118486e-08
2.22356464253e-07
-3.59815821524e-08
2.22161610585e-07
-3.63461369241e-08
2.21968163693e-07
-3.66039039017e-08
2.21777034381e-07
-3.67562550302e-08
2.21588715077e-07
-3.68005529109e-08
2.21403912729e-07
-3.67398350631e-08
2.21223026912e-07
-3.65734541376e-08
2.21046592519e-07
-3.63055309492e-08
2.20874632156e-07
-3.59362526391e-08
2.2070739284e-07
-3.54707444622e-08
2.20544788776e-07
-3.4910178686e-08
2.20386978017e-07
-3.42604933722e-08
2.2023379342e-07
-3.35237233437e-08
2.20085326329e-07
-3.27065059074e-08
2.19941358154e-07
-3.18116284013e-08
2.19801944868e-07
-3.08463243123e-08
2.19666847933e-07
-2.9814024037e-08
2.19536118011e-07
-2.87224553364e-08
2.19409525205e-07
-2.75755735476e-08
2.19287141972e-07
-2.6381486472e-08
2.19168773474e-07
-2.51445331122e-08
2.19054540124e-07
-2.3873063765e-08
2.18944308205e-07
-2.25716297944e-08
2.18838272987e-07
-2.12486536328e-08
2.18736390165e-07
-1.99086894471e-08
2.1863896014e-07
-1.85600255114e-08
2.18546059957e-07
-1.72069744658e-08
2.18458129184e-07
-1.58574521873e-08
2.18375402129e-07
-1.45152600462e-08
2.18298495023e-07
-1.31876882313e-08
2.18227837514e-07
-1.18777523993e-08
2.18164261032e-07
-1.05918519433e-08
2.18108429215e-07
-9.3319003413e-09
2.18061425699e-07
-8.1030109643e-09
2.18024177455e-07
-6.9053810038e-09
2.17998026441e-07
-5.74183777084e-09
2.17984110224e-07
-4.6091694312e-09
2.17983846035e-07
-3.50508818642e-09
2.1799813689e-07
-2.41838382271e-09
2.18027539796e-07
-1.33488173147e-09
2.1807091134e-07
-2.2984284968e-10
2.18124678665e-07
9.0284114608e-10
2.18180828814e-07
2.02555704665e-09
2.1823053175e-07
3.08791411322e-09
2.18267850537e-07
4.07031596214e-09
2.18296511171e-07
4.97732161437e-09
2.18327362484e-07
5.83811692122e-09
2.18368339406e-07
6.66990165288e-09
2.18422549066e-07
7.48504681902e-09
2.18490435363e-07
8.28696879521e-09
2.18570881457e-07
9.0788895921e-09
2.18662538441e-07
9.8587943953e-09
2.18763711948e-07
1.06263436413e-08
2.18873057985e-07
1.1377497738e-08
2.18989151826e-07
1.21103849719e-08
2.19110998551e-07
1.28201569047e-08
2.19237550105e-07
1.35041896004e-08
2.19368159364e-07
1.41573467299e-08
2.19502106567e-07
1.4776657165e-08
2.19639022886e-07
1.53570100849e-08
2.19778438299e-07
1.58953734023e-08
2.19920180109e-07
1.63869001409e-08
2.20063945673e-07
1.68287329827e-08
2.20209678478e-07
1.72164917546e-08
2.20357167327e-07
1.75477011526e-08
2.20506401297e-07
1.78186252829e-08
2.20657195738e-07
1.80273511502e-08
2.20809527238e-07
1.81709390159e-08
2.20963186786e-07
1.82481928747e-08
2.21118096057e-07
1.82571167072e-08
2.21273988489e-07
1.81974966161e-08
2.21430702931e-07
1.80684528287e-08
2.21587873997e-07
1.78703672268e-08
2.21745234065e-07
1.76032746142e-08
2.2190231233e-07
1.7268766466e-08
2.22058689924e-07
1.68681389295e-08
2.22213737115e-07
1.64041547455e-08
2.2236683892e-07
1.58794069731e-08
2.22517156965e-07
1.52978686729e-08
2.22663832553e-07
1.46634178906e-08
2.22805767047e-07
1.39811593369e-08
2.22941805036e-07
1.3256068757e-08
2.23070540698e-07
1.24940728416e-08
2.23190493514e-07
1.17007861681e-08
2.23299956934e-07
1.08823669191e-08
2.23397186172e-07
1.00443801482e-08
2.23480307939e-07
9.19253034302e-09
2.2354753398e-07
8.33178782973e-09
2.23597134346e-07
7.46719146098e-09
2.23627663347e-07
6.6034331229e-09
2.23637965918e-07
5.74589363226e-09
2.23627371797e-07
4.9007479444e-09
2.23595687218e-07
4.07613542293e-09
2.23543321047e-07
3.2825171562e-09
2.23471255329e-07
2.53360205082e-09
2.23381146609e-07
1.84677543887e-09
2.23275379382e-07
1.24435955432e-09
2.23157298727e-07
7.56508359923e-10
2.23031577685e-07
4.35793250543e-10
2.22905387325e-07
-4.45393483058e-09
2.22784920331e-07
2.22672231797e-07
-4.52979477536e-09
2.31212576942e-07
-6.3988666016e-10
2.3124176276e-07
-9.03236169936e-10
2.31287602631e-07
-1.21199252982e-09
2.31345037283e-07
-1.5741970256e-09
2.31417329945e-07
-1.9942987311e-09
2.31504419376e-07
-2.48224641225e-09
2.31605797179e-07
-3.04061178328e-09
2.3172087296e-07
-3.67580444804e-09
2.31848923434e-07
-4.38632474852e-09
2.3198906296e-07
-5.17493656118e-09
2.3214005022e-07
-6.03683220916e-09
2.32300399117e-07
-6.97160647592e-09
2.32468180524e-07
-7.97197596628e-09
2.32641132271e-07
-9.03525531641e-09
2.32816537608e-07
-1.01526504797e-08
2.32991365636e-07
-1.13202023723e-08
2.3316220948e-07
-1.25285273783e-08
2.33325472998e-07
-1.3773247542e-08
2.33477363359e-07
-1.50450427015e-08
2.33614120051e-07
-1.63396518886e-08
2.33732041467e-07
-1.76481305322e-08
2.33827739419e-07
-1.89665211903e-08
2.33898164106e-07
-2.02862483411e-08
2.33940853641e-07
-2.16035458451e-08
2.33953915195e-07
-2.29099499495e-08
2.33936234258e-07
-2.42015695861e-08
2.33887373836e-07
-2.54696868238e-08
2.33807717979e-07
-2.670996868e-08
2.33698274163e-07
-2.79132121141e-08
2.33560753495e-07
-2.90745803704e-08
2.33397293992e-07
-3.01845151468e-08
2.33210509977e-07
-3.12380145729e-08
2.33003179856e-07
-3.22256732523e-08
2.32778310036e-07
-3.31429443515e-08
2.32538829518e-07
-3.39812387293e-08
2.32287699871e-07
-3.47370911645e-08
2.32027638754e-07
-3.54032708452e-08
2.31761283761e-07
-3.59778001375e-08
2.31490943881e-07
-3.6455086309e-08
2.31218807538e-07
-3.68347870906e-08
2.30946711351e-07
-3.71130148894e-08
2.30676379891e-07
-3.72904977231e-08
2.30409201784e-07
-3.73639749028e-08
2.30146435716e-07
-3.73361504338e-08
2.29889157989e-07
-3.72069384397e-08
2.29638426247e-07
-3.69799332084e-08
2.29394918368e-07
-3.66551490908e-08
2.29159327897e-07
-3.62371658276e-08
2.28932123853e-07
-3.57269646456e-08
2.28713830674e-07
-3.51299034541e-08
2.28504774967e-07
-3.44477803645e-08
2.28305367884e-07
-3.36866073389e-08
2.28115842684e-07
-3.28488847835e-08
2.27936539072e-07
-3.1941170425e-08
2.27767631577e-07
-3.09665546172e-08
2.27609415332e-07
-2.99320329472e-08
2.27462026312e-07
-2.88411613784e-08
2.27325728676e-07
-2.77012488762e-08
2.27200627514e-07
-2.6516167367e-08
2.27086957587e-07
-2.52933883459e-08
2.26984789921e-07
-2.40369153941e-08
2.26894322252e-07
-2.27541941167e-08
2.26815580075e-07
-2.14491350934e-08
2.26748708753e-07
-2.01289311229e-08
2.26693670126e-07
-1.87971367618e-08
2.26650536636e-07
-1.74604291808e-08
2.26619183922e-07
-1.61217163299e-08
2.26599587074e-07
-1.47868766931e-08
2.26591510061e-07
-1.34578664712e-08
2.26594804344e-07
-1.21394576773e-08
2.26609093835e-07
-1.08323012115e-08
2.26634072323e-07
-9.53964069217e-09
2.26669176045e-07
-8.26025017534e-09
2.26713865169e-07
-6.9950431813e-09
2.26767258455e-07
-5.73978938112e-09
2.26828362936e-07
-4.49155173523e-09
2.26895623493e-07
-3.24136359889e-09
2.26967045531e-07
-1.98159932099e-09
2.27039610566e-07
-7.02799788102e-10
2.27109359005e-07
5.90430375882e-10
2.27171300863e-07
1.85714260287e-09
2.27220757698e-07
3.06471992616e-09
2.27257415528e-07
4.20732752025e-09
2.27282375911e-07
5.27092476327e-09
2.27299635151e-07
6.26730884046e-09
2.2731698875e-07
7.20777087344e-09
2.27338232046e-07
8.1040359015e-09
2.27366260305e-07
8.96180432599e-09
2.27402647438e-07
9.78697154326e-09
2.27448381359e-07
1.05808563678e-08
2.27503846896e-07
1.13458923057e-08
2.27569276716e-07
1.20810138041e-08
2.276445976e-07
1.27866964175e-08
2.27729763416e-07
1.34605657786e-08
2.27824544396e-07
1.41019218523e-08
2.27928799488e-07
1.47076595744e-08
2.28042248474e-07
1.52763666701e-08
2.28164710206e-07
1.58045806118e-08
2.2829587477e-07
1.6290508071e-08
2.28435519986e-07
1.67306125356e-08
2.28583292233e-07
1.71229899833e-08
2.28738907592e-07
1.74642706892e-08
2.28901944889e-07
1.77526779422e-08
2.29072034089e-07
1.79852227421e-08
2.29248662662e-07
1.81604691578e-08
2.2943135202e-07
1.82760004115e-08
2.2961947688e-07
1.83309146042e-08
2.29812429884e-07
1.83235446416e-08
2.30009453109e-07
1.82537882939e-08
2.30209790861e-07
1.81210204557e-08
2.30412548461e-07
1.7925615624e-08
2.30616842338e-07
1.7667707379e-08
2.30821594018e-07
1.73488134647e-08
2.31025667418e-07
1.69701758602e-08
2.31227735485e-07
1.65343371412e-08
2.31426391684e-07
1.60436522142e-08
2.31620022647e-07
1.55016482506e-08
2.31806913842e-07
1.49116636946e-08
2.31985142481e-07
1.42779796582e-08
2.32152687923e-07
1.36045533976e-08
2.32307358615e-07
1.28959213143e-08
2.32446924034e-07
1.21560273866e-08
2.32569092584e-07
1.13889501944e-08
2.32671679308e-07
1.05979035468e-08
2.32752640538e-07
9.78592983547e-09
2.32810269617e-07
8.95524132416e-09
2.32843261861e-07
8.10808437889e-09
2.32850892057e-07
7.2466011458e-09
2.32833047348e-07
6.37398832497e-09
2.32790318103e-07
5.49488674684e-09
2.32723940986e-07
4.61668492195e-09
2.32635775849e-07
3.75013096734e-09
2.32528181994e-07
2.91036798893e-09
2.32403964874e-07
2.11748401585e-09
2.32266325654e-07
1.39783560564e-09
2.32118939132e-07
7.89308605667e-10
2.31966041264e-07
3.46158914282e-10
2.31812501686e-07
-5.14018483548e-09
2.31659385375e-07
2.31562239429e-07
-4.45241822684e-09
2.30150517767e-07
-6.87274345828e-10
2.3017333903e-07
-1.01205580142e-09
2.30230832495e-07
-1.37353832513e-09
2.3031168101e-07
-1.78760058915e-09
2.30416240439e-07
-2.26036962154e-09
2.30543716291e-07
-2.80173671505e-09
2.30693040303e-07
-3.41429890001e-09
2.30862955979e-07
-4.10423399407e-09
2.31051946002e-07
-4.87017217058e-09
2.31258234237e-07
-5.71427731035e-09
2.31479690042e-07
-6.63151952908e-09
2.31713753405e-07
-7.62065260477e-09
2.31957376695e-07
-8.6738242679e-09
2.32207049563e-07
-9.78730435949e-09
2.32458760557e-07
-1.09515378136e-08
2.32708089202e-07
-1.21614911389e-08
2.3295024141e-07
-1.34070343431e-08
2.33180191851e-07
-1.46829024882e-08
2.33392788736e-07
-1.59792677619e-08
2.33582934015e-07
-1.72913648718e-08
2.33745734029e-07
-1.86101552503e-08
2.33876692998e-07
-1.99316775972e-08
2.33971871733e-07
-2.12477455521e-08
2.340280565e-07
-2.25550877571e-08
2.34042877699e-07
-2.38460602916e-08
2.34014910712e-07
-2.51176547253e-08
2.33943710379e-07
-2.63622572676e-08
2.33829813007e-07
-2.75766272435e-08
2.33674667259e-07
-2.87527664823e-08
2.33480540425e-07
-2.98869552586e-08
2.33250366807e-07
-3.09707712161e-08
2.32987599518e-07
-3.20002013206e-08
2.32696027877e-07
-3.29667846816e-08
2.32379632467e-07
-3.38667396161e-08
2.32042423497e-07
-3.46921661827e-08
2.31688341545e-07
-3.5440102187e-08
2.3132114327e-07
-3.61037412133e-08
2.30944360909e-07
-3.66813560032e-08
2.30561234304e-07
-3.71675387619e-08
2.30174720124e-07
-3.75619713392e-08
2.29787455042e-07
-3.78607279362e-08
2.29401800768e-07
-3.80646108382e-08
2.29019817353e-07
-3.81693755558e-08
2.28643194447e-07
-3.81773300509e-08
2.28273627339e-07
-3.80887919357e-08
2.27912601681e-07
-3.79069561546e-08
2.2756125893e-07
-3.76314373791e-08
2.27220633941e-07
-3.72663066377e-08
2.26891610552e-07
-3.68120628875e-08
2.26575006465e-07
-3.62734719601e-08
2.2627152758e-07
-3.56517769261e-08
2.259818519e-07
-3.49523217243e-08
2.25706569464e-07
-3.41769863521e-08
2.25446267135e-07
-3.33315910208e-08
2.25201456855e-07
-3.2418546322e-08
2.24972661089e-07
-3.14440458665e-08
2.24760330164e-07
-3.04109132645e-08
2.24564928436e-07
-2.93255985119e-08
2.24386841912e-07
-2.8191197635e-08
2.24226465011e-07
-2.70142759707e-08
2.24084099583e-07
-2.5798032398e-08
2.23960042271e-07
-2.45489767504e-08
2.23854476121e-07
-2.32702095208e-08
2.2376755831e-07
-2.1967985049e-08
2.23699305267e-07
-2.06450791602e-08
2.23649680853e-07
-1.9307270271e-08
2.23618476073e-07
-1.79567722206e-08
2.2360539798e-07
-1.65986642381e-08
2.23609945148e-07
-1.52343696927e-08
2.23631498297e-07
-1.3868053416e-08
2.23669192715e-07
-1.25001226014e-08
2.23722010343e-07
-1.11335854091e-08
2.23788646714e-07
-9.76754210609e-09
2.23867598202e-07
-8.40348173574e-09
2.23957011482e-07
-7.03877603809e-09
2.24054748289e-07
-5.67300908255e-09
2.24158197204e-07
-4.30188568029e-09
2.24264304887e-07
-2.92463380589e-09
2.2436938525e-07
-1.54035402833e-09
2.24469294934e-07
-1.58150444857e-10
2.24559678105e-07
1.19599185537e-09
2.2463693671e-07
2.49199345462e-09
2.24702047175e-07
3.73235869011e-09
2.24755854685e-07
4.91315893493e-09
2.24799090013e-07
6.02656438224e-09
2.2483710968e-07
7.07701612376e-09
2.24875362447e-07
8.07123779332e-09
2.2491742522e-07
9.01282527288e-09
2.24966125126e-07
9.9068265301e-09
2.25023691878e-07
1.07548625014e-08
2.25091749827e-07
1.15600351536e-08
2.25171526797e-07
1.23224716889e-08
2.25263847938e-07
1.30438682517e-08
2.25369297482e-07
1.37233321135e-08
2.25488184182e-07
1.43615503646e-08
2.25620670427e-07
1.49569384778e-08
2.25766719753e-07
1.5509464222e-08
2.25926201734e-07
1.60171054464e-08
2.26098830087e-07
1.64793523795e-08
2.26284251365e-07
1.68939654341e-08
2.26481980069e-07
1.72601763846e-08
2.2669147663e-07
1.75757328113e-08
2.26912083077e-07
1.78398165279e-08
2.27143092883e-07
1.80503576647e-08
2.273836884e-07
1.82066866551e-08
2.27633003516e-07
1.83071005674e-08
2.27890063079e-07
1.8351264085e-08
2.28153838633e-07
1.83380089916e-08
2.28423189989e-07
1.82676378556e-08
2.28696915419e-07
1.81399237392e-08
2.28973709516e-07
1.79553491166e-08
2.2925222301e-07
1.77141478053e-08
2.29530942656e-07
1.74178187962e-08
2.2980822769e-07
1.70674824963e-08
2.30082264982e-07
1.66653978023e-08
2.30351099232e-07
1.62135073643e-08
2.30612585296e-07
1.57147348538e-08
2.30864422889e-07
1.51716502245e-08
2.31104126989e-07
1.45875444027e-08
2.313290804e-07
1.396519533e-08
2.31536537419e-07
1.33077346612e-08
2.31723710642e-07
1.26175338348e-08
2.31887822505e-07
1.18969313763e-08
2.3202623578e-07
1.11473278673e-08
2.32136552121e-07
1.03699159533e-08
2.32216770946e-07
9.56513735068e-09
2.32265402051e-07
8.73358810888e-09
2.32281602948e-07
7.8759720225e-09
2.32265243551e-07
6.99425841552e-09
2.32216958609e-07
6.09210354574e-09
2.32138114647e-07
5.17610533128e-09
2.32030758966e-07
4.25639654581e-09
2.31897519903e-07
3.34757569485e-09
2.31741552189e-07
2.46902770981e-09
2.31566552275e-07
1.64539916856e-09
2.31376963367e-07
9.10029289378e-10
2.31178442431e-07
3.04090946505e-10
2.30978358168e-07
-5.12282495708e-09
2.30783454849e-07
2.3069344831e-07
-4.50088143343e-09
2.30826422211e-07
-7.2949083112e-10
2.30853116109e-07
-1.09972738521e-09
2.30922873628e-07
-1.50638118759e-09
2.31023906923e-07
-1.96588211841e-09
2.31156352301e-07
-2.48553193814e-09
2.3131894079e-07
-3.0754591511e-09
2.31510162911e-07
-3.738363208e-09
2.31728179419e-07
-4.48019387737e-09
2.31970878839e-07
-5.29934450486e-09
2.32235745959e-07
-6.19761783238e-09
2.32519765929e-07
-7.16955517815e-09
2.32819436288e-07
-8.21320743955e-09
2.33130666902e-07
-9.32004493798e-09
2.33448807405e-07
-1.04854304194e-08
2.3376865147e-07
-1.1698945762e-08
2.34084524068e-07
-1.29546059199e-08
2.34390364317e-07
-1.4241421276e-08
2.34679876239e-07
-1.55533407931e-08
2.34946682281e-07
-1.68799038971e-08
2.35184516386e-07
-1.8215927041e-08
2.35387424675e-07
-1.95521453911e-08
2.35549967899e-07
-2.08846714352e-08
2.356674286e-07
-2.22055725912e-08
2.35735977395e-07
-2.3512145282e-08
2.35752834171e-07
-2.47974251349e-08
2.35716348281e-07
-2.60593515003e-08
2.35626065184e-07
-2.72912668517e-08
2.35482686611e-07
-2.84910789739e-08
2.35288023107e-07
-2.96518377158e-08
2.35044839657e-07
-3.07709871725e-08
2.34756719537e-07
-3.18410778211e-08
2.34427843647e-07
-3.28591261393e-08
2.34062824754e-07
-3.38174483583e-08
2.33666486361e-07
-3.47130623828e-08
2.33243725607e-07
-3.5538586805e-08
2.32799340209e-07
-3.62915901321e-08
2.32337950253e-07
-3.69655145421e-08
2.31863888979e-07
-3.75589002082e-08
2.31381182626e-07
-3.80663401072e-08
2.30893495791e-07
-3.84875383098e-08
2.30404152011e-07
-3.88183442396e-08
2.29916115757e-07
-3.906009226e-08
2.29432054221e-07
-3.92068622111e-08
2.28954103881e-07
-3.92604765033e-08
2.2848439734e-07
-3.92216268774e-08
2.28024839984e-07
-3.9093124147e-08
2.27577034152e-07
-3.88740499774e-08
2.27142365257e-07
-3.85679832382e-08
2.26722065472e-07
-3.81747881224e-08
2.26317246606e-07
-3.76986558025e-08
2.25928926411e-07
-3.71401385774e-08
2.25558041259e-07
-3.6503943432e-08
2.25205461282e-07
-3.57912144622e-08
2.24872000591e-07
-3.50070832544e-08
2.24558420987e-07
-3.4153190262e-08
2.24265439586e-07
-3.32350005352e-08
2.23993722049e-07
-3.22545457274e-08
2.2374388809e-07
-3.12175220124e-08
2.23516495252e-07
-3.01262290903e-08
2.23312042669e-07
-2.8986473974e-08
2.23130946587e-07
-2.78006797742e-08
2.22973542908e-07
-2.65746234512e-08
2.22840055469e-07
-2.53106872012e-08
2.22730597858e-07
-2.40144608549e-08
2.22645135593e-07
-2.26881108899e-08
2.22583488194e-07
-2.13368781412e-08
2.22545286523e-07
-1.99625451524e-08
2.22529976623e-07
-1.85698567517e-08
2.22536774353e-07
-1.71600710189e-08
2.22564673733e-07
-1.57373204908e-08
2.22612401542e-07
-1.43022333163e-08
2.22678433058e-07
-1.28582363806e-08
2.22760948247e-07
-1.14052377567e-08
2.22857854891e-07
-9.94587525357e-09
2.22966743234e-07
-8.47931440406e-09
2.23084912106e-07
-7.00757374171e-09
2.23209321105e-07
-5.52979879554e-09
2.23336635402e-07
-4.04927364555e-09
2.23463236643e-07
-2.5690107041e-09
2.23585431931e-07
-1.09975410459e-09
2.23699791551e-07
3.4673806067e-10
2.23803919601e-07
1.73739085669e-09
2.23896321461e-07
3.0665674657e-09
2.23981694615e-07
4.34492188311e-09
2.24059346876e-07
5.56384685419e-09
2.24129261827e-07
6.7164501106e-09
2.24198149063e-07
7.80651473946e-09
2.24269060752e-07
8.8352858017e-09
2.24345198065e-07
9.80634079467e-09
2.24429195982e-07
1.07206419248e-08
2.24523231969e-07
1.15811071628e-08
2.24629087754e-07
1.23881260576e-08
2.24748151598e-07
1.31438982368e-08
2.24881491365e-07
1.38482814185e-08
2.25029864241e-07
1.45028297657e-08
2.25193777869e-07
1.51069518799e-08
2.25373493584e-07
1.56616548427e-08
2.25569075005e-07
1.61660044502e-08
2.25780384885e-07
1.66205816893e-08
2.26007124516e-07
1.70242331592e-08
2.26248827158e-07
1.73772505646e-08
2.2650489087e-07
1.76783990331e-08
2.26774569952e-07
1.79278313131e-08
2.27057002316e-07
1.81243794679e-08
2.27351199118e-07
1.82682148305e-08
2.27656066806e-07
1.83583872534e-08
2.2797039451e-07
1.83952408064e-08
2.2829287073e-07
1.8378184368e-08
2.28622068587e-07
1.83080801164e-08
2.28956458387e-07
1.81852252287e-08
2.29294405042e-07
1.80103206497e-08
2.29634206687e-07
1.77837428558e-08
2.29974005214e-07
1.75070810597e-08
2.3031177312e-07
1.718140141e-08
2.30645311607e-07
1.68087747952e-08
2.30972252885e-07
1.63907901961e-08
2.31290046352e-07
1.59298590437e-08
2.31595970982e-07
1.54278548862e-08
2.318871399e-07
1.48871976877e-08
2.32160536567e-07
1.43096107679e-08
2.32413052393e-07
1.36970097426e-08
2.32641560973e-07
1.30504060846e-08
2.32842999515e-07
1.23706751007e-08
2.33014485302e-07
1.16576942389e-08
2.33153434151e-07
1.09111219147e-08
2.3325769841e-07
1.0129901831e-08
2.33325686128e-07
9.31319471834e-09
2.3335647078e-07
8.46034776239e-09
2.33349854083e-07
7.57202836287e-09
2.3330639365e-07
6.65061677063e-09
2.33227373305e-07
5.70140205622e-09
2.33114746437e-07
4.73314826495e-09
2.32971065248e-07
3.75899116007e-09
2.32799463775e-07
2.79672044469e-09
2.3260377032e-07
1.86898665163e-09
2.3238888132e-07
1.00438028456e-09
2.32161522943e-07
2.36806892061e-10
2.31931460357e-07
-5.02332705884e-09
2.31710209383e-07
2.31624959071e-07
-4.54887048207e-09
2.31270434344e-07
-7.70527827047e-10
2.31304315813e-07
-1.17870490438e-09
2.31388517196e-07
-1.62463811603e-09
2.31512118912e-07
-2.12440663476e-09
2.31674978316e-07
-2.68584274858e-09
2.31875304802e-07
-3.31951983597e-09
2.32111004006e-07
-4.028088998e-09
2.32379633386e-07
-4.81746066739e-09
2.3267825318e-07
-5.68595462066e-09
2.33003442239e-07
-6.6349628007e-09
2.33351225125e-07
-7.6586750635e-09
2.33716987858e-07
-8.75456166402e-09
2.34095466518e-07
-9.91347270434e-09
2.34480782595e-07
-1.11300024581e-08
2.34866465068e-07
-1.23929596062e-08
2.35245573346e-07
-1.36955428933e-08
2.35610803423e-07
-1.50260025002e-08
2.35954672068e-07
-1.63776161323e-08
2.36269695178e-07
-1.77393678464e-08
2.36548609702e-07
-1.91057245091e-08
2.36784595095e-07
-2.04672180205e-08
2.36971497301e-07
-2.18200310932e-08
2.37104048937e-07
-2.31564285805e-08
2.3717804636e-07
-2.44741844724e-08
2.37190513178e-07
-2.57668740918e-08
2.37139777744e-07
-2.70332171546e-08
2.37025530752e-07
-2.82673101373e-08
2.36848769793e-07
-2.94679966345e-08
2.36611734253e-07
-3.0629149639e-08
2.36317726679e-07
-3.17491612157e-08
2.35970956161e-07
-3.28213467731e-08
2.35576290737e-07
-3.3843566384e-08
2.35139073703e-07
-3.48087481078e-08
2.34664877443e-07
-3.57145689616e-08
2.34159354397e-07
-3.65540497056e-08
2.33628043171e-07
-3.73251929995e-08
2.33076285488e-07
-3.80216158947e-08
2.32509100711e-07
-3.86420633181e-08
2.31931167657e-07
-3.91810873851e-08
2.31346757332e-07
-3.9638383729e-08
2.3075976056e-07
-4.00095101929e-08
2.30173657596e-07
-4.02963260288e-08
2.29591543437e-07
-4.04918887019e-08
2.29016460577e-07
-4.05970194799e-08
2.28450468721e-07
-4.06121266729e-08
2.278954763e-07
-4.05402223811e-08
2.27353962628e-07
-4.03798890035e-08
2.26827555885e-07
-4.01342069496e-08
2.26317770779e-07
-3.98024320061e-08
2.25825980663e-07
-3.93881926698e-08
2.25353458884e-07
-3.88913858599e-08
2.24901375006e-07
-3.83161029455e-08
2.24470828083e-07
-3.76627993657e-08
2.24062838495e-07
-3.6935953682e-08
2.23678370407e-07
-3.61364994466e-08
2.23318318763e-07
-3.52692276988e-08
2.22983521731e-07
-3.43354620983e-08
2.2267474357e-07
-3.33402237018e-08
2.22392678246e-07
-3.22851249822e-08
2.22137928958e-07
-3.11753221188e-08
2.21911004117e-07
-3.00126009499e-08
2.2171229454e-07
-2.88021456408e-08
2.21542062971e-07
-2.75457899316e-08
2.21400420085e-07
-2.62486325503e-08
2.2128730882e-07
-2.49124303723e-08
2.21202480762e-07
-2.35420895149e-08
2.21145476893e-07
-2.21391824751e-08
2.21115606647e-07
-2.07083397745e-08
2.21111927481e-07
-1.92508787798e-08
2.21133230061e-07
-1.77711118026e-08
2.21178020158e-07
-1.6270078305e-08
2.21244514249e-07
-1.47517748817e-08
2.2133062736e-07
-1.32169938732e-08
2.21433982602e-07
-1.16694908717e-08
2.21551907442e-07
-1.01099928765e-08
2.21681460651e-07
-8.54241651606e-09
2.21819446048e-07
-6.96828834343e-09
2.21962480927e-07
-5.39330761924e-09
2.22107083055e-07
-3.8224176275e-09
2.22249881832e-07
-2.26621160688e-09
2.22387921526e-07
-7.35328892176e-10
2.22519063285e-07
7.55083936364e-10
2.22642574194e-07
2.17783476332e-09
2.2275875745e-07
3.54020403162e-09
2.22872860917e-07
4.85514100588e-09
2.22983342098e-07
6.10336153062e-09
2.23089746587e-07
7.28555119863e-09
2.23198848784e-07
8.40103098036e-09
2.23312977794e-07
9.45194806178e-09
2.23434826411e-07
1.04384107662e-08
2.23566700099e-07
1.13628004341e-08
2.23710558507e-07
1.22253483538e-08
2.23868021062e-07
1.30283102488e-08
2.24040383052e-07
1.37718503286e-08
2.24228628395e-07
1.4457962848e-08
2.24433460338e-07
1.5086654677e-08
2.24655314334e-07
1.56596102234e-08
2.24894382723e-07
1.61766650588e-08
2.25150627722e-07
1.66392092463e-08
2.25423801898e-07
1.70469392854e-08
2.25713460335e-07