/*--------------------------------*- C++ -*----------------------------------*\
| =========                 |                                                 |
| \\      /  F ield         | OpenFOAM: The Open Source CFD Toolbox           |
|  \\    /   O peration     | Version:  2206                                  |
|   \\  /    A nd           | Website:  www.openfoam.com                      |
|    \\/     M anipulation  |                                                 |
\*---------------------------------------------------------------------------*/
FoamFile
{
    version     2.0;
    format      ascii;
    arch        "LSB;label=64;scalar=64";
    class       volScalarField;
    location    "0.5/water";
    object      alpha.gas_0;
}
// * * * * * * * * * * * * * * * * * * * * * * * * * * * * * * * * * * * * * //

dimensions      [0 0 0 0 0 0 0];

internalField   nonuniform List<scalar> 
23300
(
1e-15
1e-15
1e-15
1e-15
1e-15
1e-15
1e-15
1e-15
1e-15
1e-15
1e-15
1e-15
1e-15
1e-15
1e-15
1e-15
1e-15
1e-15
1e-15
1e-15
1e-15
1e-15
1e-15
1e-15
1e-15
1e-15
1e-15
1e-15
1e-15
1e-15
1e-15
1e-15
1e-15
1e-15
1e-15
1e-15
1e-15
1e-15
1e-15
1e-15
1e-15
1e-15
1e-15
1e-15
1e-15
1e-15
1e-15
1e-15
1e-15
1e-15
1e-15
1e-15
1e-15
1e-15
1e-15
1e-15
1e-15
1e-15
1e-15
1e-15
1e-15
1e-15
1e-15
1e-15
1e-15
1e-15
1e-15
1e-15
1e-15
1e-15
1e-15
1e-15
1e-15
1e-15
1e-15
1e-15
1e-15
1e-15
1e-15
1e-15
1e-15
1e-15
1e-15
1e-15
1e-15
1e-15
1e-15
1e-15
1e-15
1e-15
1e-15
1e-15
1e-15
1e-15
1e-15
1e-15
1e-15
1e-15
1e-15
1e-15
1e-15
1e-15
1e-15
1e-15
1e-15
1e-15
1e-15
1e-15
1e-15
1e-15
1e-15
1e-15
1e-15
1e-15
1e-15
1e-15
1e-15
1e-15
1e-15
1e-15
1e-15
1e-15
1e-15
1e-15
1e-15
1e-15
1e-15
1e-15
1e-15
1e-15
1e-15
1e-15
1e-15
1e-15
1e-15
1e-15
1e-15
1e-15
1e-15
1e-15
1e-15
1e-15
1e-15
1e-15
1e-15
1e-15
1e-15
1e-15
1e-15
1e-15
1e-15
1e-15
1e-15
1e-15
1e-15
1e-15
1e-15
1e-15
1e-15
1e-15
1e-15
1e-15
1e-15
1e-15
1e-15
1e-15
1e-15
1e-15
1e-15
1e-15
1e-15
1e-15
1e-15
1e-15
1e-15
1e-15
1e-15
1e-15
1e-15
1e-15
1e-15
1e-15
1e-15
1e-15
1e-15
1e-15
1e-15
1e-15
1e-15
1e-15
1e-15
1e-15
1e-15
1e-15
1e-15
1e-15
1e-15
1e-15
1e-15
1e-15
1e-15
1e-15
1e-15
1e-15
1e-15
1e-15
1e-15
1e-15
1e-15
1e-15
1e-15
1e-15
1e-15
1e-15
1e-15
1e-15
1e-15
1e-15
1e-15
1e-15
1e-15
1e-15
1e-15
1e-15
1e-15
1e-15
1e-15
1e-15
1e-15
1e-15
1e-15
1e-15
1e-15
1e-15
1e-15
1e-15
1e-15
1e-15
1e-15
1e-15
1e-15
1e-15
1e-15
1e-15
1e-15
1e-15
1e-15
1e-15
1e-15
1e-15
1e-15
1e-15
1e-15
1e-15
1e-15
1e-15
1e-15
1e-15
1e-15
1e-15
1e-15
1e-15
1e-15
1e-15
1e-15
1e-15
1e-15
1e-15
1e-15
1e-15
1e-15
1e-15
1e-15
1e-15
1e-15
1e-15
1e-15
1e-15
1e-15
1e-15
1e-15
1e-15
1e-15
1e-15
1e-15
1e-15
1e-15
1e-15
1e-15
1e-15
1e-15
1e-15
1e-15
1e-15
1e-15
1e-15
1e-15
1e-15
1e-15
1e-15
1e-15
1e-15
1e-15
1e-15
1e-15
1e-15
1e-15
1e-15
1e-15
1e-15
1e-15
1e-15
1e-15
1e-15
1e-15
1e-15
1e-15
1e-15
1e-15
1e-15
1e-15
1e-15
1e-15
1e-15
1e-15
1e-15
1e-15
1e-15
1e-15
1e-15
1e-15
1e-15
1e-15
1e-15
1e-15
1e-15
1e-15
1e-15
1e-15
1e-15
1e-15
1e-15
1e-15
1e-15
1e-15
1e-15
1e-15
1e-15
1e-15
1e-15
1e-15
1e-15
1e-15
1e-15
1e-15
1e-15
1e-15
1e-15
1e-15
1e-15
1e-15
1e-15
1e-15
1e-15
1e-15
1e-15
1e-15
1e-15
1e-15
1e-15
1e-15
1e-15
1e-15
1e-15
1e-15
1e-15
1e-15
1e-15
1e-15
1e-15
1e-15
1e-15
1e-15
1e-15
1e-15
1e-15
1e-15
1e-15
1e-15
1e-15
1e-15
1e-15
1e-15
1e-15
1e-15
1e-15
1e-15
1e-15
1e-15
1e-15
1e-15
1e-15
1e-15
1e-15
1e-15
1e-15
1e-15
1e-15
1e-15
1e-15
1e-15
1e-15
1e-15
1e-15
1e-15
1e-15
1e-15
1e-15
1e-15
1e-15
1e-15
1e-15
1e-15
1e-15
1e-15
1e-15
1e-15
1e-15
1e-15
1e-15
1e-15
1e-15
1e-15
1e-15
1e-15
1e-15
1e-15
1e-15
1e-15
1e-15
1e-15
1e-15
1e-15
1e-15
1e-15
1e-15
1e-15
1e-15
1e-15
1e-15
1e-15
1e-15
1e-15
1e-15
1e-15
1e-15
1e-15
1e-15
1e-15
1e-15
1e-15
1e-15
1e-15
1e-15
1e-15
1e-15
1e-15
1e-15
1e-15
1e-15
1e-15
1e-15
1e-15
1e-15
1e-15
1e-15
1e-15
1e-15
1e-15
1e-15
1e-15
1e-15
1e-15
1e-15
1e-15
1e-15
1e-15
1e-15
1e-15
1e-15
1e-15
1e-15
1e-15
1e-15
1e-15
1e-15
1e-15
1e-15
1e-15
1e-15
1e-15
1e-15
1e-15
1e-15
1e-15
1e-15
1e-15
1e-15
1e-15
1e-15
1e-15
1e-15
1e-15
1e-15
1e-15
1e-15
1e-15
1e-15
1e-15
1e-15
1e-15
1e-15
1e-15
1e-15
1e-15
1e-15
1e-15
1e-15
1e-15
1e-15
1e-15
1e-15
1e-15
1e-15
1e-15
1e-15
1e-15
1e-15
1e-15
1e-15
1e-15
1e-15
1e-15
1e-15
1e-15
1e-15
1e-15
1e-15
1e-15
1e-15
1e-15
1e-15
1e-15
1e-15
1e-15
1e-15
1e-15
1e-15
1e-15
1e-15
1e-15
1e-15
1e-15
1e-15
1e-15
1e-15
1e-15
1e-15
1e-15
1e-15
1e-15
1e-15
1e-15
1e-15
1e-15
1e-15
1e-15
1e-15
1e-15
1e-15
1e-15
1e-15
1e-15
1e-15
1e-15
1e-15
1e-15
1e-15
1e-15
1e-15
1e-15
1e-15
1e-15
1e-15
1e-15
1e-15
1e-15
1e-15
1e-15
1e-15
1e-15
1e-15
1e-15
1e-15
1e-15
1e-15
1e-15
1e-15
1e-15
1e-15
1e-15
1e-15
1e-15
1e-15
1e-15
1e-15
1e-15
1e-15
1e-15
1e-15
1e-15
1e-15
1e-15
1e-15
1e-15
1e-15
1e-15
1e-15
1e-15
1e-15
1e-15
1e-15
1e-15
1e-15
1e-15
1e-15
1e-15
1e-15
1e-15
1e-15
1e-15
1e-15
1e-15
1e-15
1e-15
1e-15
1e-15
1e-15
1e-15
1e-15
1e-15
1e-15
1e-15
1e-15
1e-15
1e-15
1e-15
1e-15
1e-15
1e-15
1e-15
1e-15
1e-15
1e-15
1e-15
1e-15
1e-15
1e-15
1e-15
1e-15
1e-15
1e-15
1e-15
1e-15
1e-15
1e-15
1e-15
1e-15
1e-15
1e-15
1e-15
1e-15
1e-15
1e-15
1e-15
1e-15
1e-15
1e-15
1e-15
1e-15
1e-15
1e-15
1e-15
1e-15
1e-15
1e-15
1e-15
1e-15
1e-15
1e-15
1e-15
1e-15
1e-15
1e-15
1e-15
1e-15
1e-15
1e-15
1e-15
1e-15
1e-15
1e-15
1e-15
1e-15
1e-15
1e-15
1e-15
1e-15
1e-15
1e-15
1e-15
1e-15
1e-15
1e-15
1e-15
1e-15
1e-15
1e-15
1e-15
1e-15
1e-15
1e-15
1e-15
1e-15
1e-15
1e-15
1e-15
1e-15
1e-15
1e-15
1e-15
1e-15
1e-15
1e-15
1e-15
1e-15
1e-15
1e-15
1e-15
1e-15
1e-15
1e-15
1e-15
1e-15
1e-15
1e-15
1e-15
1e-15
1e-15
1e-15
1e-15
1e-15
1e-15
1e-15
1e-15
1e-15
1e-15
1e-15
1e-15
1e-15
1e-15
1e-15
1e-15
1e-15
1e-15
1e-15
1e-15
1e-15
1e-15
1e-15
1e-15
1e-15
1e-15
1e-15
1e-15
1e-15
1e-15
1e-15
1e-15
1e-15
1e-15
1e-15
1e-15
1e-15
1e-15
1e-15
1e-15
1e-15
1e-15
1e-15
1e-15
1e-15
1e-15
1e-15
1e-15
1e-15
1e-15
1e-15
1e-15
1e-15
1e-15
1e-15
1e-15
1e-15
1e-15
1e-15
1e-15
1e-15
1e-15
1e-15
1e-15
1e-15
1e-15
1e-15
1e-15
1e-15
1e-15
1e-15
1e-15
1e-15
1e-15
1e-15
1e-15
1e-15
1e-15
1e-15
1e-15
1e-15
1e-15
1e-15
1e-15
1e-15
1e-15
1e-15
1e-15
1e-15
1e-15
1e-15
1e-15
1e-15
1e-15
1e-15
1e-15
1e-15
1e-15
1e-15
1e-15
1e-15
1e-15
1e-15
1e-15
1e-15
1e-15
1e-15
1e-15
1e-15
1e-15
1e-15
1e-15
1e-15
1e-15
1e-15
1e-15
1e-15
1.00000106115e-15
1.0000011044e-15
1.00000183767e-15
1.00000187004e-15
1.00000257193e-15
1.00000257876e-15
1.00000324385e-15
1.00000322173e-15
1.00000384478e-15
1.0000037868e-15
1.00000456094e-15
1.00000654029e-15
1.00001427492e-15
1.00001656727e-15
1.00002267075e-15
1.00002365752e-15
1.00002818555e-15
1.00002794997e-15
1.00003089266e-15
1.00002939476e-15
1.00003084555e-15
1.00002818616e-15
1.00002823762e-15
1.00002453905e-15
1.0000233515e-15
1.00001876566e-15
1.00001648203e-15
1.00001129535e-15
1.00001008725e-15
1.00000787499e-15
1.00000885343e-15
1.00000660487e-15
1.00000715832e-15
1.00000481731e-15
1.00000517089e-15
1.00000422753e-15
1.00000427211e-15
1.0000038584e-15
1.00000388824e-15
1.00000345999e-15
1.00000356509e-15
1.00000157298e-15
1e-15
1e-15
1e-15
1e-15
1e-15
1e-15
1e-15
1e-15
1e-15
1e-15
1e-15
1e-15
1e-15
1e-15
1e-15
1e-15
1e-15
1e-15
1e-15
1e-15
1e-15
1e-15
1e-15
1e-15
1e-15
1e-15
1e-15
1e-15
1e-15
1e-15
1e-15
1e-15
1e-15
1e-15
1e-15
1e-15
1e-15
1e-15
1e-15
1e-15
1e-15
1e-15
1e-15
1e-15
1e-15
1e-15
1e-15
1e-15
1e-15
1e-15
1e-15
1e-15
1e-15
1e-15
1e-15
1e-15
1e-15
1e-15
1e-15
1e-15
1e-15
1e-15
1.00000053609e-15
1.00000223275e-15
1e-15
1e-15
1e-15
1e-15
1e-15
1e-15
1e-15
1e-15
1e-15
1e-15
1e-15
1e-15
1e-15
1e-15
1e-15
1e-15
1e-15
1e-15
1e-15
1e-15
1e-15
1e-15
1e-15
1e-15
1e-15
1e-15
1e-15
1e-15
1e-15
1e-15
1e-15
1e-15
1e-15
1e-15
1.00002689161e-15
1.00004581647e-15
1.0000775262e-15
1.00009782507e-15
1.00012780224e-15
1.00014745534e-15
1.00017545217e-15
1.00019300818e-15
1.00021775625e-15
1.00023099986e-15
1.00025071522e-15
1.00025846838e-15
1.00026666808e-15
1.00026924139e-15
1.00027372162e-15
1.0002728582e-15
1.00027415662e-15
1.00027058393e-15
1.00026816517e-15
1.00026114724e-15
1.00025581176e-15
1.00024624902e-15
1.00023828314e-15
1.00022641708e-15
1.00021605094e-15
1.0002021893e-15
1.00018970153e-15
1.00017406811e-15
1.00016048387e-15
1.00014619077e-15
1.00013298617e-15
1.00011912174e-15
1.00010447389e-15
1.00008998542e-15
1.00007742474e-15
1.00006318627e-15
1.00005069027e-15
1.00003526677e-15
1.00002623778e-15
1.00001692511e-15
1.00000703024e-15
1.00000119513e-15
1.00000089857e-15
1e-15
1e-15
1e-15
1e-15
1e-15
1e-15
1e-15
1e-15
1e-15
1e-15
1e-15
1e-15
1e-15
1e-15
1e-15
1e-15
1e-15
1e-15
1e-15
1e-15
1e-15
1e-15
1e-15
1e-15
1e-15
1e-15
1e-15
1e-15
1e-15
1e-15
1e-15
1e-15
1e-15
1e-15
1e-15
1e-15
1e-15
1e-15
1e-15
1e-15
1e-15
1e-15
1e-15
1e-15
1e-15
1e-15
1e-15
1e-15
1e-15
1e-15
1e-15
1e-15
1e-15
1e-15
1e-15
1e-15
1e-15
1e-15
1e-15
1e-15
1e-15
1e-15
1.00000476979e-15
1e-15
1e-15
1e-15
1e-15
1e-15
1e-15
1e-15
1e-15
1e-15
1e-15
1e-15
1e-15
1e-15
1e-15
1e-15
1e-15
1e-15
1e-15
1e-15
1e-15
1e-15
1e-15
1e-15
1.00001010304e-15
1.00005283482e-15
1.00008187782e-15
1.00012629535e-15
1.00015609182e-15
1.00020027829e-15
1.00023427543e-15
1.00027601592e-15
1.00031522865e-15
1.00036123198e-15
1.00040163128e-15
1.00044715047e-15
1.00048493582e-15
1.00052615218e-15
1.00055878011e-15
1.00059348449e-15
1.00061976464e-15
1.00064749743e-15
1.00066705801e-15
1.00068637734e-15
1.00069693841e-15
1.00070695567e-15
1.00070969556e-15
1.00071267514e-15
1.00070982927e-15
1.00070768762e-15
1.00070022045e-15
1.00069390006e-15
1.000682228e-15
1.00066900177e-15
1.00065147633e-15
1.00063517271e-15
1.00061420212e-15
1.0005944371e-15
1.00057031776e-15
1.00054729832e-15
1.00052049151e-15
1.00049470073e-15
1.00046520169e-15
1.00043508864e-15
1.00040064027e-15
1.00036798899e-15
1.00033176934e-15
1.00029519872e-15
1.00025778256e-15
1.00022537149e-15
1.00019079799e-15
1.00015818567e-15
1.00012696939e-15
1.00011005707e-15
1.00009592678e-15
1.00008348408e-15
1.00007470858e-15
1.00006710806e-15
1.00005872751e-15
1.00005129938e-15
1.00004318094e-15
1.00003733984e-15
1.00003311573e-15
1.00002988594e-15
1.00002557436e-15
1.00002086947e-15
1.00001665458e-15
1.00001145405e-15
1.00000702621e-15
1.00000497647e-15
1.00000336312e-15
1.00000238499e-15
1.00000167777e-15
1.00000120242e-15
1.0000004436e-15
1.00000007392e-15
1e-15
1e-15
1e-15
1e-15
1e-15
1e-15
1e-15
1e-15
1e-15
1e-15
1e-15
1e-15
1e-15
1e-15
1e-15
1e-15
1e-15
1e-15
1e-15
1e-15
1e-15
1e-15
1e-15
1e-15
1e-15
1e-15
1e-15
1e-15
1e-15
1e-15
1e-15
1e-15
1e-15
1e-15
1e-15
1e-15
1e-15
1e-15
1e-15
1e-15
1e-15
1e-15
1e-15
1.00003371882e-15
1.00005395146e-15
1e-15
1e-15
1e-15
1e-15
1e-15
1e-15
1e-15
1e-15
1e-15
1e-15
1e-15
1e-15
1e-15
1e-15
1e-15
1.00001496624e-15
1.00005770355e-15
1.00009921398e-15
1.00015838554e-15
1.00020680502e-15
1.00028160456e-15
1.00034023551e-15
1.00042391411e-15
1.00049576132e-15
1.00056569079e-15
1.00062541515e-15
1.00068980308e-15
1.00074231367e-15
1.00079960011e-15
1.00084577189e-15
1.00089351679e-15
1.00093242483e-15
1.00097174561e-15
1.00100022243e-15
1.0010296504e-15
1.00105016737e-15
1.00107268902e-15
1.00108627817e-15
1.00110163499e-15
1.00110951815e-15
1.00111974061e-15
1.00112350843e-15
1.00113019543e-15
1.0011319116e-15
1.00113570832e-15
1.00113290205e-15
1.00112978773e-15
1.0011213368e-15
1.00111280226e-15
1.00109946048e-15
1.00108575916e-15
1.001066321e-15
1.00104500788e-15
1.00102123396e-15
1.00099839923e-15
1.00097040982e-15
1.00094323071e-15
1.00091174794e-15
1.00088109419e-15
1.00084692264e-15
1.00081361923e-15
1.0007768394e-15
1.00073935971e-15
1.00069659419e-15
1.00065328732e-15
1.00060512444e-15
1.00055529165e-15
1.00050410079e-15
1.00045688958e-15
1.00040662325e-15
1.000357308e-15
1.00031052767e-15
1.0002774475e-15
1.00024702251e-15
1.00021975206e-15
1.00019253979e-15
1.00016683417e-15
1.00013996464e-15
1.00011447978e-15
1.00008799522e-15
1.00006600367e-15
1.00004947243e-15
1.00003746881e-15
1.00003074656e-15
1.0000247638e-15
1.0000188997e-15
1.00001411201e-15
1.00000850007e-15
1.00000451235e-15
1.00000284176e-15
1.00000199231e-15
1.00000098442e-15
1.00000084694e-15
1.00000018057e-15
1.00000007134e-15
1e-15
1e-15
1e-15
1e-15
1e-15
1e-15
1e-15
1e-15
1e-15
1e-15
1e-15
1e-15
1e-15
1e-15
1e-15
1e-15
1e-15
1e-15
1e-15
1e-15
1e-15
1e-15
1e-15
1e-15
1e-15
1e-15
1e-15
1e-15
1e-15
1e-15
1e-15
1e-15
1e-15
1e-15
1e-15
1e-15
1e-15
1e-15
1e-15
1e-15
1e-15
1e-15
1.0000013386e-15
1.00004598026e-15
1.00009118881e-15
1.00053413666e-15
1e-15
1.00006136166e-15
1.00008904979e-15
1.00009037678e-15
1.00010802274e-15
1.00013549891e-15
1.00016906693e-15
1.00020841709e-15
1.00025300056e-15
1.00031134344e-15
1.00036389241e-15
1.00043625658e-15
1.00050590722e-15
1.00059768036e-15
1.00067371028e-15
1.00074477953e-15
1.0008122972e-15
1.00088982025e-15
1.0009537337e-15
1.00102946841e-15
1.0010895848e-15
1.00115283484e-15
1.00120317382e-15
1.0012544809e-15
1.00129454699e-15
1.00133799599e-15
1.00136959204e-15
1.00140374092e-15
1.00142543602e-15
1.00144857641e-15
1.00146013204e-15
1.00147416675e-15
1.00147787445e-15
1.00148440018e-15
1.00148217829e-15
1.00148223211e-15
1.00147268284e-15
1.00146552402e-15
1.00145034169e-15
1.00143703914e-15
1.0014170264e-15
1.00140270472e-15
1.00138755136e-15
1.00137845896e-15
1.00136460515e-15
1.00135163357e-15
1.0013332514e-15
1.00131553201e-15
1.00129266091e-15
1.00126969126e-15
1.00124119654e-15
1.00121402866e-15
1.00118535424e-15
1.00115827134e-15
1.00112629691e-15
1.00109578328e-15
1.00106110731e-15
1.0010278759e-15
1.00099119143e-15
1.00095577719e-15
1.00091729834e-15
1.00087971784e-15
1.00083892757e-15
1.00079775249e-15
1.00075186932e-15
1.00070583762e-15
1.00065913605e-15
1.00061512011e-15
1.00056834353e-15
1.00052195001e-15
1.0004746005e-15
1.00043154178e-15
1.00038876964e-15
1.00034859479e-15
1.00030770945e-15
1.00026818645e-15
1.0002270303e-15
1.00018686375e-15
1.00014489483e-15
1.00010584973e-15
1.00007110392e-15
1.00004400354e-15
1.00002804621e-15
1.00002129538e-15
1.00001600091e-15
1.00001122328e-15
1.00000582154e-15
1.00000372431e-15
1.00000215994e-15
1.00000130692e-15
1.00000044363e-15
1.0000002366e-15
1.00000000054e-15
1e-15
1e-15
1e-15
1e-15
1e-15
1e-15
1e-15
1e-15
1e-15
1e-15
1e-15
1e-15
1e-15
1e-15
1e-15
1e-15
1e-15
1e-15
1e-15
1e-15
1e-15
1e-15
1e-15
1e-15
1e-15
1e-15
1e-15
1e-15
1e-15
1e-15
1e-15
1e-15
1e-15
1e-15
1e-15
1e-15
1e-15
1e-15
1e-15
1e-15
1e-15
1e-15
1e-15
1.00000184827e-15
1.00008971916e-15
1.00020049073e-15
1.00153742776e-15
1e-15
1.00095205596e-15
1.00098189017e-15
1.00099075443e-15
1.00101172453e-15
1.00104537777e-15
1.00107978044e-15
1.00112015627e-15
1.00116131863e-15
1.00120917511e-15
1.00124953224e-15
1.0012957092e-15
1.00132900928e-15
1.00137827324e-15
1.00141256942e-15
1.00145740226e-15
1.00149055102e-15
1.0015324194e-15
1.00156396693e-15
1.00160311468e-15
1.00163353784e-15
1.00166430075e-15
1.00168694148e-15
1.00171058986e-15
1.00172673019e-15
1.00174757041e-15
1.00175815077e-15
1.00177188868e-15
1.00177491374e-15
1.00178182292e-15
1.00177861594e-15
1.0017799119e-15
1.0017712731e-15
1.00176483025e-15
1.00174924358e-15
1.00173684103e-15
1.00171411914e-15
1.00169350279e-15
1.00166378089e-15
1.00163621593e-15
1.0016009433e-15
1.00156999609e-15
1.00153732374e-15
1.00151268552e-15
1.00148600065e-15
1.00146215015e-15
1.00143331789e-15
1.00140644813e-15
1.00137457992e-15
1.00134387665e-15
1.00130841e-15
1.00127646684e-15
1.00124318487e-15
1.0012125155e-15
1.00117797882e-15
1.00114589052e-15
1.00110965117e-15
1.00107554049e-15
1.00103779789e-15
1.00100158963e-15
1.0009626006e-15
1.00092544013e-15
1.00088561258e-15
1.00084580657e-15
1.00080041127e-15
1.00075711435e-15
1.00071434094e-15
1.00067421468e-15
1.00063197801e-15
1.00059081341e-15
1.00054796284e-15
1.00050667743e-15
1.00046415995e-15
1.00042308506e-15
1.00038069157e-15
1.00033960963e-15
1.00029697803e-15
1.00025518245e-15
1.0002112574e-15
1.00016786145e-15
1.00012306585e-15
1.00008075284e-15
1.0000445689e-15
1.00002494001e-15
1.00001118027e-15
1.00000711769e-15
1.00000356238e-15
1.00000301196e-15
1.00000156176e-15
1.00000095008e-15
1.00000026728e-15
1.00000000053e-15
1e-15
1e-15
1e-15
1e-15
1e-15
1e-15
1e-15
1e-15
1e-15
1e-15
1e-15
1e-15
1e-15
1e-15
1e-15
1e-15
1e-15
1e-15
1e-15
1e-15
1e-15
1e-15
1e-15
1e-15
1e-15
1e-15
1e-15
1e-15
1e-15
1e-15
1e-15
1e-15
1e-15
1e-15
1e-15
1e-15
1e-15
1e-15
1e-15
1e-15
1e-15
1e-15
1e-15
1e-15
1.00000245662e-15
1.00033368072e-15
1.00055065038e-15
1.00204803876e-15
1.00006567259e-15
1.00156622277e-15
1.00157156897e-15
1.00157795021e-15
1.0015850084e-15
1.00159795937e-15
1.00160826601e-15
1.00162576035e-15
1.00163643418e-15
1.00165259169e-15
1.00166304975e-15
1.00168034225e-15
1.00168903642e-15
1.00171551282e-15
1.00173091449e-15
1.00176005681e-15
1.00177870455e-15
1.00180620036e-15
1.00182492496e-15
1.00185052219e-15
1.00186861038e-15
1.00188855187e-15
1.00190051481e-15
1.00191411107e-15
1.0019221524e-15
1.0019355837e-15
1.00193976633e-15
1.00194796602e-15
1.00194574833e-15
1.00194740579e-15
1.0019386981e-15
1.00193411649e-15
1.00191924945e-15
1.00190724587e-15
1.00188647349e-15
1.00186989264e-15
1.00184352309e-15
1.00181964787e-15
1.00178692318e-15
1.00175789304e-15
1.00172130519e-15
1.0016865333e-15
1.00164611105e-15
1.00161246663e-15
1.00157738803e-15
1.00154629282e-15
1.00151050509e-15
1.00147750692e-15
1.00143980118e-15
1.00140426449e-15
1.00136451675e-15
1.00132939452e-15
1.00129302908e-15
1.00126043182e-15
1.00122519143e-15
1.00119339609e-15
1.00115729516e-15
1.00112393728e-15
1.0010866731e-15
1.00105112884e-15
1.00101303396e-15
1.00097755698e-15
1.00093935399e-15
1.00090110569e-15
1.00085573198e-15
1.00081397292e-15
1.00077385317e-15
1.00073656857e-15
1.00069726936e-15
1.00065934323e-15
1.00061980403e-15
1.00058196637e-15
1.00054242668e-15
1.00050391134e-15
1.00046351501e-15
1.0004247672e-15
1.00038479425e-15
1.00034633987e-15
1.00030675341e-15
1.00026942591e-15
1.00023075844e-15
1.00019036772e-15
1.00014365985e-15
1.00010149986e-15
1.00006310856e-15
1.00004044272e-15
1.00002165695e-15
1.00000574528e-15
1.00000147763e-15
1.00000092901e-15
1.00000019562e-15
1e-15
1e-15
1e-15
1e-15
1e-15
1e-15
1e-15
1e-15
1e-15
1e-15
1e-15
1e-15
1e-15
1e-15
1e-15
1e-15
1e-15
1e-15
1e-15
1e-15
1e-15
1e-15
1e-15
1e-15
1e-15
1e-15
1e-15
1e-15
1e-15
1e-15
1e-15
1e-15
1e-15
1e-15
1e-15
1e-15
1e-15
1e-15
1e-15
1e-15
1e-15
1e-15
1e-15
1e-15
1e-15
1.00007671599e-15
1.00091114984e-15
1.00117468109e-15
1.0020518161e-15
1.00072061869e-15
1.00160938681e-15
1.00161273897e-15
1.00161788303e-15
1.00162318409e-15
1.00163385761e-15
1.00164142571e-15
1.00165711486e-15
1.00166942979e-15
1.00169138227e-15
1.00171131451e-15
1.00173842414e-15
1.00175758368e-15
1.00178579317e-15
1.00180421096e-15
1.00183565953e-15
1.00185827477e-15
1.00188808855e-15
1.00190901989e-15
1.00193529936e-15
1.00195352159e-15
1.00197527005e-15
1.00198840839e-15
1.00200407372e-15
1.00201317591e-15
1.00202690579e-15
1.00203103185e-15
1.00203891891e-15
1.00203580769e-15
1.00203564822e-15
1.00202401463e-15
1.00201547321e-15
1.00199656274e-15
1.00198256615e-15
1.00196062454e-15
1.00194332996e-15
1.00191704887e-15
1.00189446694e-15
1.00186388238e-15
1.00183771979e-15
1.00180468804e-15
1.00177359409e-15
1.00173527234e-15
1.00170175507e-15
1.00166512209e-15
1.00163305907e-15
1.00159599477e-15
1.00156169324e-15
1.00152266888e-15
1.00148629234e-15
1.00144592139e-15
1.00141069834e-15
1.00137453118e-15
1.00134355695e-15
1.00131125763e-15
1.00128333177e-15
1.00125071109e-15
1.00122128581e-15
1.00118760269e-15
1.00115576874e-15
1.00112149562e-15
1.00109053468e-15
1.0010564509e-15
1.0010217663e-15
1.00097767802e-15
1.00093815922e-15
1.00090164222e-15
1.00086840458e-15
1.00083282001e-15
1.00079851071e-15
1.000762508e-15
1.00072882402e-15
1.00069327325e-15
1.00065856961e-15
1.00062115994e-15
1.00058574301e-15
1.00055023321e-15
1.00051748371e-15
1.0004852187e-15
1.00045849517e-15
1.00043347715e-15
1.00040731136e-15
1.00037492139e-15
1.00033824184e-15
1.00028924883e-15
1.00024359663e-15
1.00020231197e-15
1.00016397496e-15
1.00012088364e-15
1.00008972525e-15
1.00005684894e-15
1.00003264583e-15
1.00000189471e-15
1e-15
1e-15
1e-15
1e-15
1e-15
1e-15
1e-15
1e-15
1e-15
1e-15
1e-15
1e-15
1e-15
1e-15
1e-15
1e-15
1e-15
1e-15
1e-15
1e-15
1e-15
1e-15
1e-15
1e-15
1e-15
1e-15
1e-15
1e-15
1e-15
1e-15
1e-15
1e-15
1e-15
1e-15
1e-15
1e-15
1e-15
1e-15
1e-15
1e-15
1e-15
1e-15
1e-15
1.00051300311e-15
1.00157831191e-15
1.00181026837e-15
1.00204565774e-15
1.0008051933e-15
1.00158301098e-15
1.0015883789e-15
1.00159510539e-15
1.00160057828e-15
1.00161193467e-15
1.00162025902e-15
1.00163717195e-15
1.00165025481e-15
1.00167432806e-15
1.001696187e-15
1.00172665276e-15
1.0017514705e-15
1.00178686573e-15
1.00181448791e-15
1.00185255935e-15
1.00188236784e-15
1.00191835197e-15
1.00194534838e-15
1.00197702721e-15
1.00200013665e-15
1.00202752559e-15
1.00204554701e-15
1.00206654869e-15
1.00207881479e-15
1.00209419903e-15
1.00209851121e-15
1.00210530409e-15
1.00210099582e-15
1.00210011989e-15
1.00208733247e-15
1.00207741444e-15
1.00205729471e-15
1.00204300473e-15
1.00202105996e-15
1.00200378948e-15
1.00197810423e-15
1.00195746311e-15
1.00192978511e-15
1.00190639366e-15
1.00187686096e-15
1.00185155784e-15
1.00182131274e-15
1.00179633016e-15
1.00176673352e-15
1.00174002551e-15
1.00170755574e-15
1.00167803675e-15
1.00164351453e-15
1.00161180111e-15
1.00157612699e-15
1.00154588396e-15
1.00151524572e-15
1.00149103534e-15
1.00146592427e-15
1.0014450247e-15
1.00141868386e-15
1.00139504815e-15
1.0013666124e-15
1.00133972306e-15
1.00130988187e-15
1.00128305521e-15
1.00125228609e-15
1.00121966788e-15
1.00117483514e-15
1.00113547944e-15
1.00110099065e-15
1.00106984423e-15
1.00103635449e-15
1.00100396444e-15
1.00096964065e-15
1.00093803199e-15
1.00090479369e-15
1.00087314834e-15
1.00084044088e-15
1.00081106531e-15
1.00077821331e-15
1.00074728469e-15
1.00071572794e-15
1.00068782755e-15
1.00065957791e-15
1.000632247e-15
1.00060315221e-15
1.00057349248e-15
1.00053656491e-15
1.00049810456e-15
1.00045824463e-15
1.00042085624e-15
1.00038094783e-15
1.00034320154e-15
1.0003010245e-15
1.00026424213e-15
1.0002182348e-15
1.00016285399e-15
1.00009872879e-15
1.00006107619e-15
1.00002104458e-15
1.00000039386e-15
1e-15
1e-15
1e-15
1e-15
1e-15
1e-15
1e-15
1e-15
1e-15
1e-15
1e-15
1e-15
1e-15
1e-15
1e-15
1e-15
1e-15
1e-15
1e-15
1e-15
1e-15
1e-15
1e-15
1e-15
1e-15
1e-15
1e-15
1e-15
1e-15
1e-15
1e-15
1e-15
1e-15
1e-15
1e-15
1e-15
1e-15
1.00019919352e-15
1.00105874675e-15
1.00199628943e-15
1.00219812456e-15
1.00202762334e-15
1.00081408607e-15
1.00152017139e-15
1.0015293339e-15
1.00153823307e-15
1.00154471562e-15
1.00155904568e-15
1.00156753774e-15
1.0015874348e-15
1.00160582853e-15
1.00163622779e-15
1.00166402621e-15
1.00170235497e-15
1.00173710474e-15
1.00178010463e-15
1.00181597987e-15
1.00186152235e-15
1.00189909815e-15
1.00194275875e-15
1.00197746521e-15
1.00201683747e-15
1.00204709275e-15
1.00208129886e-15
1.00210464473e-15
1.00213026788e-15
1.00214498273e-15
1.00216177662e-15
1.00216622994e-15
1.0021721457e-15
1.00216721582e-15
1.00216703719e-15
1.00215561916e-15
1.00214799933e-15
1.00213119971e-15
1.00212041218e-15
1.00210183246e-15
1.00208728663e-15
1.00206438706e-15
1.00204763186e-15
1.00202508129e-15
1.00200726288e-15
1.0019834967e-15
1.00196559119e-15
1.0019439119e-15
1.00192792177e-15
1.00190738332e-15
1.00189286123e-15
1.00187053711e-15
1.00184956411e-15
1.00182324792e-15
1.00179956693e-15
1.00177155368e-15
1.00174867094e-15
1.00172498191e-15
1.00170733037e-15
1.00168707695e-15
1.00166897534e-15
1.00164445899e-15
1.00162094904e-15
1.00159172829e-15
1.00156306676e-15
1.00153010947e-15
1.0014986337e-15
1.00146190696e-15
1.00142134866e-15
1.00136612766e-15
1.00131770991e-15
1.00127673871e-15
1.00123867849e-15
1.00119878842e-15
1.00115995393e-15
1.00111902365e-15
1.00108099155e-15
1.00104193236e-15
1.0010052511e-15
1.00096282148e-15
1.00092051032e-15
1.00087798632e-15
1.00083823766e-15
1.00079682359e-15
1.00075674e-15
1.00071555419e-15
1.00067907339e-15
1.00064286986e-15
1.00060796069e-15
1.00057316505e-15
1.00053933449e-15
1.00050363055e-15
1.00047074543e-15
1.00043815546e-15
1.00040897015e-15
1.00038104055e-15
1.00035757044e-15
1.00033407168e-15
1.000310046e-15
1.0002792469e-15
1.00025112433e-15
1.00021772219e-15
1.00019209786e-15
1.00014054843e-15
1.00010023498e-15
1.00005162601e-15
1.00001969742e-15
1e-15
1e-15
1e-15
1e-15
1e-15
1e-15
1e-15
1e-15
1e-15
1e-15
1e-15
1e-15
1e-15
1e-15
1e-15
1e-15
1e-15
1e-15
1e-15
1e-15
1e-15
1e-15
1e-15
1e-15
1e-15
1.00000657714e-15
1.00001849851e-15
1.00002927523e-15
1.00003289739e-15
1.00002449956e-15
1.00000084976e-15
1e-15
1.00011359515e-15
1.00063829177e-15
1.00130429278e-15
1.0021768053e-15
1.00239159657e-15
1.0021218068e-15
1.00082284073e-15
1.00144150855e-15
1.00144976877e-15
1.00146005356e-15
1.00146708324e-15
1.00148278624e-15
1.00149602232e-15
1.00152371816e-15
1.00155077208e-15
1.0015898597e-15
1.00162671219e-15
1.0016751628e-15
1.00172059275e-15
1.00177364071e-15
1.00182007955e-15
1.00187508985e-15
1.00192201626e-15
1.0019754913e-15
1.00201971844e-15
1.00206821637e-15
1.00210643811e-15
1.00214718052e-15
1.00217505044e-15
1.00220382026e-15
1.00222056935e-15
1.00223981345e-15
1.00224696543e-15
1.00225613073e-15
1.00225470603e-15
1.00225929458e-15
1.00225495084e-15
1.00225708164e-15
1.00225339778e-15
1.00225789232e-15
1.0022547861e-15
1.00225347533e-15
1.00224219953e-15
1.00223720959e-15
1.00222694167e-15
1.00222343863e-15
1.00221129413e-15
1.00220320562e-15
1.00218430846e-15
1.00216613792e-15
1.00213680436e-15
1.00212385813e-15
1.0021085075e-15
1.00209390151e-15
1.00207225514e-15
1.00205272175e-15
1.00202789177e-15
1.00200680138e-15
1.00198247987e-15
1.00196167254e-15
1.00193538781e-15
1.00190899592e-15
1.00187579873e-15
1.00184230873e-15
1.00180259876e-15
1.00176273042e-15
1.00171743725e-15
1.00167251346e-15
1.00162108595e-15
1.0015640406e-15
1.00149203301e-15
1.00142855776e-15
1.00137518153e-15
1.00132464185e-15
1.00127271835e-15
1.00122214449e-15
1.00116954661e-15
1.0011196962e-15
1.00106807496e-15
1.00101738054e-15
1.00096611744e-15
1.00091959864e-15
1.00087422244e-15
1.00083220618e-15
1.00078874901e-15
1.00074667145e-15
1.00070371365e-15
1.0006661244e-15
1.00062895803e-15
1.00059292726e-15
1.00055765771e-15
1.00052342292e-15
1.00048744506e-15
1.00045440936e-15
1.00042166932e-15
1.00039227249e-15
1.00036467322e-15
1.00034232176e-15
1.00032164501e-15
1.00030274304e-15
1.00028199087e-15
1.00026283466e-15
1.00024248622e-15
1.0002245436e-15
1.00020584367e-15
1.00019013213e-15
1.00017364988e-15
1.00015909971e-15
1.00014552986e-15
1.00012911116e-15
1.00011472137e-15
1.00010849969e-15
1.00008630386e-15
1.00007540195e-15
1.0000511697e-15
1.00002287776e-15
1e-15
1e-15
1e-15
1e-15
1e-15
1.00000915635e-15
1.00002999075e-15
1.00004987014e-15
1.00008021772e-15
1.00010386258e-15
1.00012773701e-15
1.00014707854e-15
1.0001728528e-15
1.00020069016e-15
1.00022387584e-15
1.00025392213e-15
1.00027759634e-15
1.00029514385e-15
1.00031085913e-15
1.00032500653e-15
1.00033427203e-15
1.00033481617e-15
1.00032297853e-15
1.00031889239e-15
1.00044293592e-15
1.00078379041e-15
1.00139347451e-15
1.00227948752e-15
1.00255815656e-15
1.00216167634e-15
1.00083175373e-15
1.00135451616e-15
1.00135912377e-15
1.00136795719e-15
1.00137663168e-15
1.00139617216e-15
1.00141875256e-15
1.00145606586e-15
1.00149183313e-15
1.00154027126e-15
1.00158779112e-15
1.00164799013e-15
1.00170557057e-15
1.00177110354e-15
1.00183014688e-15
1.00189738882e-15
1.00195584806e-15
1.00202145304e-15
1.00207654472e-15
1.00213437378e-15
1.00218033415e-15
1.00222755757e-15
1.00226132755e-15
1.00229589125e-15
1.00231841866e-15
1.00234513356e-15
1.00236172576e-15
1.00238270534e-15
1.0023941934e-15
1.00241361009e-15
1.00242777919e-15
1.00245207222e-15
1.00247423391e-15
1.00250838646e-15
1.00253338424e-15
1.00255481284e-15
1.00256182633e-15
1.00257178498e-15
1.00257403774e-15
1.00258299858e-15
1.00257925049e-15
1.00257752191e-15
1.00255750509e-15
1.00253109969e-15
1.00248045757e-15
1.00244056694e-15
1.00240840469e-15
1.00238718965e-15
1.00235848685e-15
1.00233181018e-15
1.00229959604e-15
1.00226975449e-15
1.00223405121e-15
1.00219943696e-15
1.00215803509e-15
1.00211644823e-15
1.00206876375e-15
1.0020212216e-15
1.00196802409e-15
1.00191496728e-15
1.00185630566e-15
1.00179805518e-15
1.00173223065e-15
1.00165935371e-15
1.00157321942e-15
1.00149720915e-15
1.00143308195e-15
1.00137201173e-15
1.00130970719e-15
1.00124922399e-15
1.00118713357e-15
1.00112844608e-15
1.00106871151e-15
1.00101206772e-15
1.0009548839e-15
1.00090168028e-15
1.00085011665e-15
1.00080321559e-15
1.00075578265e-15
1.00071034805e-15
1.00066469975e-15
1.00062548361e-15
1.00058747043e-15
1.0005510674e-15
1.00051600007e-15
1.0004816961e-15
1.00044571129e-15
1.00041252624e-15
1.00037934269e-15
1.00034901927e-15
1.00032025913e-15
1.0002972471e-15
1.00027750708e-15
1.00026146144e-15
1.00024516315e-15
1.00022889527e-15
1.00021128821e-15
1.00019484455e-15
1.00017952743e-15
1.0001686647e-15
1.00015984157e-15
1.00015333047e-15
1.00014685253e-15
1.00014300067e-15
1.00013938359e-15
1.00013742269e-15
1.00013499206e-15
1.00013436849e-15
1.00013232717e-15
1.00012884709e-15
1.00011766456e-15
1.00010032733e-15
1.00010250542e-15
1.00012119755e-15
1.00014701882e-15
1.00017003854e-15
1.00018797361e-15
1.00020544597e-15
1.00022416534e-15
1.00024111981e-15
1.00025728412e-15
1.00027275865e-15
1.00028828865e-15
1.00030375597e-15
1.00031852147e-15
1.00033314501e-15
1.00034710345e-15
1.00036055007e-15
1.00037342633e-15
1.00038550417e-15
1.00039618927e-15
1.00040454189e-15
1.00041103867e-15
1.00042511747e-15
1.00050756224e-15
1.00082016326e-15
1.00145791752e-15
1.00239742604e-15
1.00284109733e-15
1.00216048465e-15
1.00084040413e-15
1.00125299805e-15
1.00125462162e-15
1.00126385901e-15
1.00127726502e-15
1.00130297975e-15
1.00133416004e-15
1.00137940044e-15
1.00142307808e-15
1.00148292641e-15
1.00154304265e-15
1.00161753964e-15
1.00168989542e-15
1.00177102773e-15
1.00184543754e-15
1.00192829343e-15
1.00200138953e-15
1.00208136196e-15
1.00214865423e-15
1.00221724811e-15
1.00227321664e-15
1.00233119292e-15
1.00237785526e-15
1.00242763504e-15
1.00246583326e-15
1.00251066695e-15
1.00254765279e-15
1.0025918139e-15
1.00262793628e-15
1.00267384599e-15
1.00271522483e-15
1.00276403658e-15
1.00280601085e-15
1.00285450574e-15