/*--------------------------------*- C++ -*----------------------------------*\
| =========                 |                                                 |
| \\      /  F ield         | OpenFOAM: The Open Source CFD Toolbox           |
|  \\    /   O peration     | Version:  2206                                  |
|   \\  /    A nd           | Website:  www.openfoam.com                      |
|    \\/     M anipulation  |                                                 |
\*---------------------------------------------------------------------------*/
FoamFile
{
    version     2.0;
    format      ascii;
    arch        "LSB;label=64;scalar=64";
    class       volScalarField;
    location    "0.5/water";
    object      epsilon.gas;
}
// * * * * * * * * * * * * * * * * * * * * * * * * * * * * * * * * * * * * * //

dimensions      [0 2 -3 0 0 0 0];

internalField   nonuniform List<scalar> 
23300
(
5.54583926939e-05
7.47632821409e-05
0.000104277287949
0.000140998492977
0.000184197122197
0.000233604790028
0.000289064030561
0.000350432854139
0.000417592180457
0.000490407643703
0.000568763253763
0.000652517737873
0.000741549011173
0.000835702134202
0.000934842529381
0.00103879595515
0.00114741038981
0.00126048790812
0.00137785585731
0.00149928985735
0.00162459509128
0.00175351951411
0.00188584603373
0.00202129525054
0.00215962896071
0.00230054198593
0.00244377708381
0.00258900583527
0.00273595471274
0.00288427529923
0.00303368088331
0.00318380665262
0.00333435592049
0.00348495139952
0.00363529009249
0.00378498727131
0.00393373886497
0.0040811597486
0.00422695168153
0.00437073696321
0.00451222923811
0.00465106366247
0.00478696853442
0.00491959431802
0.00504868512961
0.005173909336
0.00529502971225
0.00541173719378
0.00552381747919
0.00563098832847
0.00573306034418
0.0058297785692
0.00592097691988
0.00600642623491
0.00608598330843
0.00615944703113
0.00622670152826
0.00628757912814
0.00634199538748
0.00638981742762
0.00643099157576
0.00646541943857
0.00649308109564
0.00651391777878
0.0065279444333
0.00653512778672
0.00653548002885
0.00652892997926
0.00651539296166
0.00649457770811
0.0064659338817
0.00642963575019
0.00638650369288
0.00633703458847
0.00628163940985
0.00622048128307
0.00615374727125
0.00608159425643
0.00600422920423
0.00592183040793
0.00583462171334
0.00574279812458
0.00564659621424
0.005546224056
0.00544192761449
0.00533392495076
0.00522246849579
0.00510778355162
0.00499012639492
0.00486972709747
0.00474684342461
0.00462170797411
0.00449457785615
0.0043656861405
0.00423528736073
0.00410361324039
0.00397091409625
0.00383741874629
0.00370337190126
0.00356899810816
0.00343453526197
0.00330020241098
0.00316622958183
0.00303282926293
0.00290022275092
0.00276861510309
0.00263821821601
0.00250922900127
0.00238184940806
0.00225626756248
0.00213267496256
0.00201125033477
0.00189217424551
0.00177561541987
0.00166174300684
0.00155071510337
0.00144268889656
0.00133781114273
0.0012362264016
0.00113806922648
0.00104347069304
0.000952552068077
0.000865429825932
0.000782210572619
0.000702994726938
0.000627872490476
0.000556926361963
0.000490227977285
0.000427839668012
0.000369812127927
0.000316185566415
0.000266989031142
0.000222243713157
0.00018196907742
0.000146198970818
0.00011501260035
8.85894713065e-05
6.72878862402e-05
5.18007129132e-05
4.43147581162e-05
3.40375201486e-05
3.68969659385e-05
4.12152009404e-05
4.65137143411e-05
5.27024945008e-05
5.97712965027e-05
6.77253817695e-05
7.65680272874e-05
8.62996163997e-05
9.69136101393e-05
0.000108399358222
0.000120738592711
0.000133908859578
0.000147879846755
0.000162617235239
0.000178078887238
0.000194219124893
0.000210984799069
0.000228320007127
0.000246161975348
0.000264446207203
0.00028310212144
0.000302058629794
0.000321239486145
0.000340569251553
0.000359968311969
0.000379359178514
0.000398661181908
0.000417797049976
0.00043668729266
0.000455256960304
0.00047342974368
0.000491134804758
0.000508300647545
0.000524861960899
0.000540753434567
0.00055591665495
0.000570294069651
0.000583835854734
0.00059649397946
0.000608228684781
0.000619002455789
0.00062878589041
0.000637551753959
0.000645280451976
0.000651954580615
0.00065756420404
0.000662102020629
0.000665568237783
0.000667966027944
0.000669305542687
0.000669599367598
0.00066886567346
0.000667124082389
0.000664398674832
0.00066071498677
0.000656103273396
0.000650596373607
0.000644232383038
0.000637052219543
0.000629101030456
0.000620425862025
0.000611077686972
0.000601111814844
0.000590592629668
0.000579596688841
0.000568218291068
0.000556574374672
0.000544818627588
0.000533206073325
0.000522265878302
0.0005120348358
0.000501958814163
0.000491772443182
0.000481339419429
0.00047068386337
0.000459834604637
0.000448818063039
0.000437660980514
0.000426387962128
0.000415023943323
0.000403591864191
0.000392114928737
0.00038061444175
0.000369111885208
0.000357626924004
0.000346179314553
0.000334787079981
0.000323468259373
0.000312239245625
0.000301116379232
0.000290114441076
0.000279248098071
0.000268530546493
0.000257974819594
0.000247592575034
0.000237395270234
0.000227393081538
0.000217595951387
0.000208012628283
0.000198651594452
0.000189520219564
0.000180625580357
0.000171973721205
0.000163570375385
0.00015542032259
0.000147528018548
0.000139897037806
0.000132530618033
0.000125431178449
0.000118600787784
0.000112040751435
0.000105752012009
9.97347974386e-05
9.39889611397e-05
8.8513683174e-05
8.33077565062e-05
7.83693340828e-05
7.36961673632e-05
6.92853929361e-05
6.51337290475e-05
6.12372962245e-05
5.75917775522e-05
5.41922690177e-05
5.10334093272e-05
4.81092572782e-05
4.54133977509e-05
4.29388463303e-05
4.06781404909e-05
3.86232765825e-05
3.67658052784e-05
3.50968459204e-05
3.36074022621e-05
3.22895232278e-05
3.11423367051e-05
3.02029374983e-05
2.97128785588e-05
3.10927966009e-05
4.31549662174e-05
0.000111506534896
2.77937488234e-05
2.83377565877e-05
2.91158797614e-05
3.00362171724e-05
3.10807217233e-05
3.22456670689e-05
3.35303741052e-05
3.49332435607e-05
3.64523004411e-05
3.80837085686e-05
3.98229010819e-05
4.16632856747e-05
4.35974506064e-05
4.5615986021e-05
4.77087185349e-05
4.98636343012e-05
5.20681512825e-05
5.43081169418e-05
5.65691129739e-05
5.88354913793e-05
6.10917022034e-05
6.33213427974e-05
6.55085023222e-05
6.76368037466e-05
6.96907506951e-05
7.16547489379e-05
7.35144455045e-05
7.52557285773e-05
7.68660460941e-05
7.83333825358e-05
7.96475344879e-05
8.0799054684e-05
8.17804484169e-05
8.25850751473e-05
8.32082494514e-05
8.36461366614e-05
8.38967985165e-05
8.39591574298e-05
8.383401689e-05
8.35230991927e-05
8.3029976253e-05
8.23591158275e-05
8.15166618552e-05
8.05094932219e-05
7.93458985654e-05
7.80347341489e-05
7.65860702743e-05
7.50104938292e-05
7.33197100751e-05
7.15259077696e-05
6.9642195929e-05
6.76819194048e-05
6.56589075323e-05
6.35868311614e-05
6.14794671906e-05
5.93502969272e-05
5.72128763054e-05
5.50805358307e-05
5.29665540705e-05
5.08836693448e-05
4.88441003566e-05
4.68593911927e-05
4.49411536551e-05
4.31019303872e-05
4.13566321872e-05
3.97236702472e-05
3.82266794139e-05
3.68980883241e-05
3.57902515697e-05
3.49859010639e-05
3.4499078908e-05
3.41302546457e-05
3.379227839e-05
3.34616048948e-05
3.31372065979e-05
3.28194415573e-05
3.25087150119e-05
3.22053076943e-05
3.19095161811e-05
3.16215212495e-05
3.13415236443e-05
3.10696188386e-05
3.08059267547e-05
3.0550471818e-05
3.03033067107e-05
3.00643973873e-05
2.98337412325e-05
2.9611256861e-05
2.93968968713e-05
2.9190542188e-05
2.89921095825e-05
2.88014504428e-05
2.86184533179e-05
2.84429471118e-05
2.82747989064e-05
2.81138214474e-05
2.79598662963e-05
2.78127353829e-05
2.7672269591e-05
2.75382642653e-05
2.74105534408e-05
2.72889292756e-05
2.71732221707e-05
2.70632240513e-05
2.69587645212e-05
2.68596378346e-05
2.67656751903e-05
2.66766752188e-05
2.65924725258e-05
2.65128715878e-05
2.64377117313e-05
2.63668043663e-05
2.62999945388e-05
2.62371014015e-05
2.61779764453e-05
2.6122447111e-05
2.60703717697e-05
2.60215864076e-05
2.59759564168e-05
2.59333263217e-05
2.5893568401e-05
2.58565354561e-05
2.58221062772e-05
2.57901415387e-05
2.57605261132e-05
2.5733128359e-05
2.57078393035e-05
2.56845358494e-05
2.56631168003e-05
2.56434710484e-05
2.56255162431e-05
2.56092184763e-05
2.55949254983e-05
2.55851025625e-05
2.55939849901e-05
2.56999624027e-05
2.6344046199e-05
3.02343837512e-05
5.63035167802e-05
0.000224392063967
2.62867860271e-05
2.64098680538e-05
2.65745764712e-05
2.6761509842e-05
2.69676285756e-05
2.71916406125e-05
2.74329670967e-05
2.76903219436e-05
2.79626711921e-05
2.82482140091e-05
2.85453205455e-05
2.88516419334e-05
2.91649792015e-05
2.94824905619e-05
2.98015121515e-05
3.01188478689e-05
3.04315438815e-05
3.07362425156e-05
3.10299144104e-05
3.13092551835e-05
3.15713792786e-05
3.18132447136e-05
3.20323120485e-05
3.22259870341e-05
3.23922458902e-05
3.25290903623e-05
3.26351407051e-05
3.27091017162e-05
3.27503233374e-05
3.27582763469e-05
3.27330769496e-05
3.26749687114e-05
3.25848045289e-05
3.24635330811e-05
3.23126391359e-05
3.21336471161e-05
3.19285358103e-05
3.16992786319e-05
3.14482416906e-05
3.1177759225e-05
3.08905000467e-05
3.05890613605e-05
3.02762920305e-05
2.99549058365e-05
2.96277738671e-05
2.92975741221e-05
2.89670687354e-05
2.86387950834e-05
2.83153231902e-05
2.79989703719e-05
2.76920207121e-05
2.73964491205e-05
2.71141097769e-05
2.68464909156e-05
2.65949072267e-05
2.63603072648e-05
2.61434718181e-05
2.59448436644e-05
2.57646962556e-05
2.56029651855e-05
2.5459413281e-05
2.53335197189e-05
2.52246954211e-05
2.51322249633e-05
2.50554685873e-05
2.49937907917e-05
2.49468198111e-05
2.49147065149e-05
2.4898426761e-05
2.48962024433e-05
2.48992155092e-05
2.49038913119e-05
2.4909483852e-05
2.49158526845e-05
2.49229757396e-05
2.49307820902e-05
2.49392534119e-05
2.49483211193e-05
2.49579671376e-05
2.49681240365e-05
2.49787735209e-05
2.49898492395e-05
2.50013329643e-05
2.50131598342e-05
2.50253121997e-05
2.50377272051e-05
2.50503882742e-05
2.50632350301e-05
2.50762523864e-05
2.50893828391e-05
2.51026131075e-05
2.511588886e-05
2.51291988486e-05
2.51424921295e-05
2.5155759628e-05
2.51689539208e-05
2.51820681785e-05
2.51950585599e-05
2.52079204838e-05
2.52206136814e-05
2.52331357673e-05
2.52454499773e-05
2.52575560162e-05
2.52694205043e-05
2.52810450953e-05
2.5292399636e-05
2.53034875538e-05
2.53142817314e-05
2.53247871727e-05
2.53349795816e-05
2.53448653185e-05
2.53544226759e-05
2.53636591403e-05
2.53725553543e-05
2.53811196923e-05
2.53893349105e-05
2.53972100344e-05
2.54047297109e-05
2.5411903389e-05
2.54187174132e-05
2.5425181463e-05
2.54312834595e-05
2.54370332112e-05
2.54424202516e-05
2.54474546318e-05
2.54521279187e-05
2.54564510053e-05
2.54604187167e-05
2.54640445833e-05
2.546733113e-05
2.54703135911e-05
2.54731149183e-05
2.54764560943e-05
2.54843123207e-05
2.55184595734e-05
2.56984536706e-05
2.67121739337e-05
3.29826749393e-05
7.74000989422e-05
0.000379356618128
2.59121458645e-05
2.59436882533e-05
2.59824073607e-05
2.60237532604e-05
2.60677263339e-05
2.6113916974e-05
2.61622849835e-05
2.62121524049e-05
2.62632235444e-05
2.63146831142e-05
2.63660892512e-05
2.64165456448e-05
2.64655082924e-05
2.65120540968e-05
2.65556026594e-05
2.65952629277e-05
2.66304894974e-05
2.66604855486e-05
2.66848057639e-05
2.67028003267e-05
2.67141739797e-05
2.6718461137e-05
2.67155486564e-05
2.6705175675e-05
2.66874253451e-05
2.6662245794e-05
2.66299146801e-05
2.65905795824e-05
2.65446976124e-05
2.64925941712e-05
2.64348783287e-05
2.63720189087e-05
2.63047354107e-05
2.6233591563e-05
2.61593636345e-05
2.60826552263e-05
2.60042475448e-05
2.5924739636e-05
2.58448821133e-05
2.57652413838e-05
2.56865130461e-05
2.56092062545e-05
2.55339350317e-05
2.54611233228e-05
2.53912773224e-05
2.53247140383e-05
2.52618174552e-05
2.52027902631e-05
2.51478930001e-05
2.50972152188e-05
2.50508960761e-05
2.50089130112e-05
2.49712866107e-05
2.49378888809e-05
2.49086369825e-05
2.48833206169e-05
2.48617837741e-05
2.48437651569e-05
2.48290653012e-05
2.48173972598e-05
2.48085427184e-05
2.48022144979e-05
2.47982037105e-05
2.4796249123e-05
2.4796171541e-05
2.47977469876e-05
2.48008350108e-05
2.48052606559e-05
2.48109147145e-05
2.48175269185e-05
2.48249952985e-05
2.48332280148e-05
2.48422086007e-05
2.48518667772e-05
2.48621842838e-05
2.48730907553e-05
2.48845674375e-05
2.48965453183e-05
2.4909005829e-05
2.49218814903e-05
2.49351541305e-05
2.49487579884e-05
2.49626755938e-05
2.49768432272e-05
2.49912444877e-05
2.50058180688e-05
2.50205489976e-05
2.50353787373e-05
2.50502940505e-05
2.50652394721e-05
2.50802037391e-05
2.50951346962e-05
2.51100232209e-05
2.512482063e-05
2.51395200381e-05
2.5154076328e-05
2.5168484884e-05
2.51827041813e-05
2.51967318492e-05
2.52105299238e-05
2.52240982033e-05
2.5237402196e-05
2.52504437481e-05
2.52631917062e-05
2.52756498068e-05
2.52877900616e-05
2.52996179111e-05
2.53111083327e-05
2.53222682624e-05
2.53330754204e-05
2.53435380134e-05
2.53536362705e-05
2.53633794334e-05
2.53727499992e-05
2.53817580053e-05
2.53903879819e-05
2.5398650523e-05
2.54065319689e-05
2.54140432398e-05
2.54211722903e-05
2.54279301611e-05
2.54343062763e-05
2.5440311654e-05
2.54459371541e-05
2.54511937622e-05
2.54560739822e-05
2.54605890163e-05
2.54647337273e-05
2.54685208425e-05
2.54719528484e-05
2.54750726622e-05
2.54780602124e-05
2.54819547258e-05
2.54924226953e-05
2.55402954763e-05
2.57959265423e-05
2.72592124456e-05
3.65772186414e-05
0.000104835266359
0.000572977667734
2.58168319749e-05
2.58264698796e-05
2.58368493079e-05
2.5846574137e-05
2.58561820781e-05
2.58654902171e-05
2.58746559106e-05
2.5883214451e-05
2.58911417502e-05
2.58979324764e-05
2.59034958622e-05
2.59073508992e-05
2.59094022073e-05
2.59092236939e-05
2.59067540395e-05
2.59016502352e-05
2.58939143339e-05
2.5883301674e-05
2.58698931332e-05
2.58535448607e-05
2.58344182103e-05
2.58124623933e-05
2.57879111392e-05
2.5760792854e-05
2.57314000459e-05
2.56998235843e-05
2.56663986766e-05
2.56312611426e-05
2.55947721026e-05
2.55570949731e-05
2.55185999133e-05
2.54794607712e-05
2.54400397409e-05
2.54005041437e-05
2.5361191984e-05
2.53222494021e-05
2.52839780918e-05
2.52464941333e-05
2.52100572205e-05
2.51747502679e-05
2.51407894158e-05
2.51082235009e-05
2.50772245451e-05
2.50478070833e-05
2.50200998587e-05
2.49940850944e-05
2.49698520152e-05
2.49473553229e-05
2.49266507594e-05
2.49076714714e-05
2.48904461113e-05
2.48748920111e-05
2.48610170786e-05
2.48487288665e-05
2.48380216025e-05
2.48287995984e-05
2.48210502637e-05
2.48146798785e-05
2.48096737306e-05
2.48059428719e-05
2.48034731649e-05
2.48021818373e-05
2.48020568713e-05
2.48030218019e-05
2.48050667832e-05
2.48081208934e-05
2.48121774037e-05
2.48171716528e-05
2.48230755087e-05
2.48298122641e-05
2.48373688068e-05
2.48456786054e-05
2.48547272156e-05
2.48644451126e-05
2.48748147871e-05
2.48857662258e-05
2.48972807976e-05
2.49092892831e-05
2.49217728999e-05
2.49346638042e-05
2.49479435896e-05
2.49615461885e-05
2.49754539882e-05
2.49896030778e-05
2.5003977023e-05
2.50185144433e-05
2.50332004279e-05
2.50479764695e-05
2.50628294719e-05
2.50777040924e-05
2.50925892751e-05
2.51074330675e-05
2.51222266113e-05
2.51369215006e-05
2.51515111626e-05
2.51659508235e-05
2.51802362225e-05
2.51943262381e-05
2.52082188899e-05
2.52218766675e-05
2.52352997886e-05
2.52484542589e-05
2.52613423662e-05
2.52739334901e-05
2.5286231825e-05
2.52982099451e-05
2.53098737579e-05
2.53211988244e-05
2.53321925499e-05
2.53428332538e-05
2.53531296076e-05
2.53630624475e-05
2.53726414696e-05
2.53818497822e-05
2.53906978595e-05
2.53991708405e-05
2.54072797313e-05
2.5415011473e-05
2.54223773612e-05
2.5429365931e-05
2.54359885435e-05
2.54422351555e-05
2.54481170125e-05
2.54536254065e-05
2.54587713644e-05
2.54635475846e-05
2.54679649586e-05
2.54720181294e-05
2.5475719263e-05
2.54790723114e-05
2.54821323798e-05
2.54851519784e-05
2.54895564779e-05
2.55030428132e-05
2.55673590232e-05
2.59147431512e-05
2.79308515043e-05
4.10530748737e-05
0.000138966395359
0.000802940422118
2.57929354849e-05
2.57971612262e-05
2.58010563909e-05
2.5803922682e-05
2.58063742316e-05
2.5808231984e-05
2.58096978734e-05
2.58103570117e-05
2.58102322817e-05
2.580888429e-05
2.58063054409e-05
2.58021006673e-05
2.57962742361e-05
2.57885091596e-05
2.57788564008e-05
2.57670897463e-05
2.57533238937e-05
2.5737423081e-05
2.57195655641e-05
2.56996933563e-05
2.56780361719e-05
2.56545946062e-05
2.56296328865e-05
2.56031905755e-05
2.55755499956e-05
2.55467730302e-05
2.55171465178e-05
2.54867418038e-05
2.54558397872e-05
2.54245117338e-05
2.53930247467e-05
2.53614430057e-05
2.5330013924e-05
2.52987894772e-05
2.52679931741e-05
2.52376615584e-05
2.52079920617e-05
2.51790047931e-05
2.51508710999e-05
2.51235954791e-05
2.50973245311e-05
2.50720487302e-05
2.50478917433e-05
2.50248318573e-05
2.50029719577e-05
2.49822802556e-05
2.49628413733e-05
2.49446156994e-05
2.49276721793e-05
2.49119653918e-05
2.48975509247e-05
2.48843791461e-05
2.48724943219e-05
2.48618438944e-05
2.4852462617e-05
2.48442959274e-05
2.48373704379e-05
2.48316299337e-05
2.48270937472e-05
2.48237040251e-05
2.4821473586e-05
2.482034305e-05
2.4820319582e-05
2.48213424806e-05
2.4823414294e-05
2.4826474076e-05
2.48305224031e-05
2.48354978518e-05
2.48413715909e-05
2.48480721322e-05
2.48555880556e-05
2.48638515377e-05
2.4872847866e-05
2.48825074498e-05
2.48928129738e-05
2.49036944294e-05
2.49151332474e-05
2.49270600089e-05
2.49394558333e-05
2.49522525757e-05
2.49654316905e-05
2.49789268222e-05
2.49927202575e-05
2.50067478722e-05
2.50209932021e-05
2.50353947496e-05
2.50499376509e-05
2.50645633823e-05
2.50792589682e-05
2.50939691463e-05
2.51086830488e-05
2.51233488958e-05
2.51379580774e-05
2.51524624456e-05
2.51668557312e-05
2.51810934971e-05
2.51951718345e-05
2.52090500293e-05
2.52227264949e-05
2.52361641912e-05
2.52493637641e-05
2.52622917431e-05
2.52749508718e-05
2.52873110991e-05
2.52993770948e-05
2.53111220389e-05
2.5322552327e-05
2.53336441532e-05
2.53444054153e-05
2.53548150848e-05
2.53648823219e-05
2.53745886266e-05
2.53839441719e-05
2.53929327339e-05
2.54015652442e-05
2.54098275071e-05
2.54177309574e-05
2.5425263191e-05
2.54324358932e-05
2.54392382316e-05
2.54456819021e-05
2.5451757454e-05
2.54574763862e-05
2.54628305059e-05
2.54678309662e-05
2.54724708518e-05
2.54767610185e-05
2.54806964003e-05
2.54842894735e-05
2.54875473855e-05
2.54905419412e-05
2.54936148926e-05
2.54986530583e-05
2.55157724547e-05
2.55997773366e-05
2.60574664083e-05
2.87437996601e-05
4.65166124969e-05
0.000180230736446
0.00106761690939
2.57874793106e-05
2.57905389202e-05
2.57932770967e-05
2.57951685106e-05
2.57968109151e-05
2.57980078657e-05
2.57989377088e-05
2.57991496462e-05
2.57986582067e-05
2.579700335e-05
2.57941604715e-05
2.5789730306e-05
2.57837160342e-05
2.57758053174e-05
2.5766060208e-05
2.57542690884e-05
2.5740564822e-05
2.57248304921e-05
2.57072630806e-05
2.56878206438e-05
2.5666745776e-05
2.56440468116e-05
2.56199910422e-05
2.55946151659e-05
2.55681940618e-05
2.55407769206e-05
2.55126344497e-05
2.54838181148e-05
2.54545870546e-05
2.54249888224e-05
2.53952665137e-05
2.53654601403e-05
2.53357940705e-05
2.53062986705e-05
2.52771780069e-05
2.52484517302e-05
2.52203029657e-05
2.51927405216e-05
2.51659268553e-05
2.51398605942e-05
2.51146844774e-05
2.50903880328e-05
2.50670955545e-05
2.50447886545e-05
2.50235745717e-05
2.50034281336e-05
2.49844409239e-05
2.49665819646e-05
2.49499285036e-05
2.49344445101e-05
2.49201940944e-05
2.49071367325e-05
2.48953245448e-05
2.48847129797e-05
2.48753432971e-05
2.4867167266e-05
2.48602162814e-05
2.48544385916e-05
2.48498566183e-05
2.48464153027e-05
2.48441292012e-05
2.48429404789e-05
2.48428571601e-05
2.48438194044e-05
2.48458305189e-05
2.48488308859e-05
2.48528220221e-05
2.48577384859e-05
2.48635503474e-05
2.48701848372e-05
2.487763023e-05
2.48858176112e-05
2.48947318384e-05
2.49043029347e-05
2.49145134914e-05
2.49252932508e-05
2.49366235887e-05
2.49484348048e-05
2.49607079262e-05
2.49733745024e-05
2.49864158893e-05
2.49997654549e-05
2.50134054247e-05
2.50272714705e-05
2.504134713e-05
2.50555707985e-05
2.50699276888e-05
2.50843592764e-05
2.50988527389e-05
2.51133529207e-05
2.51278491808e-05
2.51422899502e-05
2.51566669147e-05
2.51709322357e-05
2.51850800021e-05
2.51990661773e-05
2.52128872662e-05
2.52265030376e-05
2.52399123663e-05
2.52530787668e-05
2.52660033864e-05
2.52786533709e-05
2.52910319963e-05
2.53031098788e-05
2.53148922433e-05
2.53263529775e-05
2.5337499045e-05
2.53483073775e-05
2.53587864448e-05
2.53689159755e-05
2.53787056966e-05
2.53881378752e-05
2.53972232371e-05
2.54059463273e-05
2.5414318607e-05
2.54223266429e-05
2.54299823674e-05
2.54372741232e-05
2.54442140513e-05
2.54507920397e-05
2.54570201843e-05
2.5462889717e-05
2.54684124629e-05
2.54735808499e-05
2.54784062764e-05
2.54828823874e-05
2.54870202204e-05
2.54908153472e-05
2.5494281097e-05
2.54974290811e-05
2.55003517864e-05
2.55034972968e-05
2.55092995178e-05
2.55307406655e-05
2.56381387428e-05
2.62273017154e-05
2.97167634306e-05
5.30825804143e-05
0.000229068197178
0.00136574786036
2.57862827423e-05
2.57894031478e-05
2.57924586536e-05
2.57949834148e-05
2.57975772573e-05
2.57999834226e-05
2.58023378538e-05
2.58041406981e-05
2.58053436082e-05
2.58054321884e-05
2.58043409131e-05
2.58016234623e-05
2.57972507291e-05
2.57908841898e-05
2.57825696004e-05
2.57720864887e-05
2.57595670317e-05
2.57448985665e-05
2.5728287463e-05
2.57097025173e-05
2.56893989264e-05
2.56673961005e-05
2.56439721825e-05
2.56191719337e-05
2.55932774523e-05
2.55663424324e-05
2.55386414808e-05
2.551022794e-05
2.548136269e-05
2.54520938054e-05
2.54226651267e-05
2.53931168785e-05
2.53636740165e-05
2.53343674748e-05
2.53054022145e-05
2.52767991089e-05
2.52487426312e-05
2.52212434764e-05
2.5194465834e-05
2.51684107369e-05
2.51432228979e-05
2.5118894592e-05
2.50955521898e-05
2.50731802096e-05
2.5051887919e-05
2.50316530038e-05
2.50125688643e-05
2.49946071245e-05
2.4977846491e-05
2.49622531122e-05
2.49478921115e-05
2.49347246295e-05
2.49228033423e-05
2.49120848354e-05
2.49026105124e-05
2.48943327849e-05
2.48872828487e-05
2.48814091678e-05
2.48767337317e-05
2.48732014078e-05
2.48708262589e-05
2.48695502667e-05
2.48693810749e-05
2.48702587791e-05
2.48721868524e-05
2.48751066034e-05
2.48790204946e-05
2.48838584466e-05
2.48895878333e-05
2.48961347615e-05
2.49034871991e-05
2.49115753613e-05
2.49203836308e-05
2.49298414862e-05
2.493993129e-05
2.49505823711e-05
2.49617759642e-05
2.49734420007e-05
2.49855613961e-05
2.49980653655e-05
2.50109351842e-05
2.50241039452e-05
2.50375538433e-05
2.50512203625e-05
2.5065087078e-05
2.50790923041e-05
2.50932213697e-05
2.5107415786e-05
2.51216629287e-05
2.51359077972e-05
2.51501400292e-05
2.51643083277e-05
2.51784047333e-05
2.51923817901e-05
2.52062340122e-05
2.52199178482e-05
2.52334302902e-05
2.52467316841e-05
2.52598214456e-05
2.52726637469e-05
2.52852603199e-05
2.52975790361e-05
2.53096237906e-05
2.53213659811e-05
2.53328114752e-05
2.53439349848e-05
2.53547441298e-05
2.53652166971e-05
2.5375361815e-05
2.53851600865e-05
2.53946218899e-05
2.54037303749e-05
2.54124969016e-05
2.54209068953e-05
2.54289724255e-05
2.54366809275e-05
2.54440449056e-05
2.54510535501e-05
2.54577195273e-05
2.54640335416e-05
2.54700081576e-05
2.54756353795e-05
2.54809274358e-05
2.54858774794e-05
2.54904972488e-05
2.54947810754e-05
2.54987403182e-05
2.55023713931e-05
2.55056888529e-05
2.55087097315e-05
2.55115512392e-05
2.55147875043e-05
2.55214983682e-05
2.55480509097e-05
2.56831026799e-05
2.64279213967e-05
3.08707864053e-05
6.08757771553e-05
0.000285920603681
0.0016963414528
2.57850809872e-05
2.57887172605e-05
2.57926575635e-05
2.57964719211e-05
2.58007450619e-05
2.58051776815e-05
2.58098371419e-05
2.58141317965e-05
2.58179480821e-05
2.58206912553e-05
2.5822221629e-05
2.58220328723e-05
2.58200456039e-05
2.58158806843e-05
2.58095588198e-05
2.580084397e-05
2.57898661282e-05
2.57765175783e-05
2.5761018295e-05
2.57433534644e-05
2.57237983754e-05
2.5702391537e-05
2.56794307092e-05
2.56549775323e-05
2.5629330344e-05
2.56025562309e-05
2.5574942491e-05
2.55465528696e-05
2.55176581354e-05
2.54883145929e-05
2.54587738718e-05
2.54290828269e-05
2.53994725089e-05
2.53699791733e-05
2.53408123929e-05
2.5311997225e-05
2.52837214526e-05
2.5255998996e-05
2.52289962694e-05
2.52027167661e-05
2.51773065642e-05
2.51527598072e-05
2.51292035681e-05
2.5106623771e-05
2.5085129883e-05
2.5064700623e-05
2.50454292123e-05
2.50272879905e-05
2.50103551969e-05
2.49945974074e-05
2.49800790646e-05
2.49667614878e-05
2.49546965486e-05
2.49438408198e-05
2.49342348561e-05
2.4925830896e-05
2.49186592717e-05
2.49126681241e-05
2.49078786076e-05
2.49042351913e-05
2.49017512398e-05
2.4900368384e-05
2.490009382e-05
2.49008675066e-05
2.49026930646e-05
2.49055126595e-05
2.49093298051e-05
2.4914067974e-05
2.4919692476e-05
2.4926128213e-05
2.49333630065e-05
2.49413262391e-05
2.49500018057e-05
2.49593185338e-05
2.49692584764e-05
2.49797504375e-05
2.49907754488e-05
2.50022630015e-05
2.50141938754e-05
2.50264989225e-05
2.50391593427e-05
2.50521079549e-05
2.50653269476e-05
2.50787516382e-05
2.50923656754e-05
2.51061073288e-05
2.51199620881e-05
2.51338715502e-05
2.51478233415e-05
2.516176268e-05
2.51756795429e-05
2.51895229809e-05
2.52032854588e-05
2.52169199912e-05
2.52304215936e-05
2.52437472979e-05
2.52568946666e-05
2.52698247296e-05
2.52825375319e-05
2.5294998017e-05
2.53072085938e-05
2.5319137979e-05
2.53307907808e-05
2.53421393007e-05
2.53531901441e-05
2.53639189715e-05
2.53743341532e-05
2.53844144546e-05
2.53941697563e-05
2.5403581657e-05
2.54126612772e-05
2.54213927673e-05
2.54297882093e-05
2.54378340225e-05
2.54455429673e-05
2.54529034552e-05
2.54599286408e-05
2.54666086618e-05
2.5472956784e-05
2.54789646206e-05
2.54846452766e-05
2.54899916155e-05
2.54950163429e-05
2.54997134236e-05
2.55040950062e-05
2.55081561952e-05
2.55119087677e-05
2.55153501185e-05
2.55184962766e-05
2.55213707207e-05
2.5524120003e-05
2.55274670603e-05
2.55352542332e-05
2.55678354527e-05
2.57354552717e-05
2.66635550611e-05
3.22295465664e-05
7.0031814349e-05
0.000351230342582
0.0020586288892
2.57821096474e-05
2.57865417957e-05
2.57917432977e-05
2.57973178101e-05
2.58038567316e-05
2.5810975076e-05
2.58186565312e-05
2.58262122684e-05
2.58334164993e-05
2.58395707577e-05
2.58444510664e-05
2.58474640182e-05
2.58484667325e-05
2.58470290126e-05
2.58431402446e-05
2.58365474832e-05
2.58273808501e-05
2.5815543105e-05
2.580127567e-05
2.5784588943e-05
2.5765787641e-05
2.57449381443e-05
2.57223660629e-05
2.56981571497e-05
2.56726324678e-05
2.56458781482e-05
2.56181991681e-05
2.5589674068e-05
2.55605872904e-05
2.55310066964e-05
2.55011944094e-05
2.54712062332e-05
2.5441280996e-05
2.54114616474e-05
2.53819631489e-05
2.53528153226e-05
2.53242093411e-05
2.52961623586e-05
2.52688426345e-05
2.52422557744e-05
2.52165485845e-05
2.51917165358e-05
2.51678866567e-05
2.51450456583e-05
2.51233024508e-05
2.51026361673e-05
2.50831391486e-05
2.50647838738e-05
2.50476475016e-05
2.50316965274e-05
2.50169942111e-05
2.50035016328e-05
2.49912694858e-05
2.4980254012e-05
2.49704946577e-05
2.49619432436e-05
2.49546290587e-05
2.49484997252e-05
2.49435754462e-05
2.49398001494e-05
2.49371864524e-05
2.49356755477e-05
2.49352741947e-05
2.49359221803e-05
2.49376233194e-05
2.49403206277e-05
2.49440189386e-05
2.49486327304e-05
2.49541266315e-05
2.49604241476e-05
2.49675129794e-05
2.49753216714e-05
2.49838336244e-05
2.49929769356e-05
2.50027333035e-05
2.50130309252e-05
2.50238505902e-05
2.50351212933e-05
2.50468236623e-05
2.5058888162e-05
2.50712959238e-05
2.5083979498e-05
2.50969210919e-05
2.51100558852e-05
2.51233676389e-05
2.51367946267e-05
2.51503225492e-05
2.51638931541e-05
2.51774943793e-05
2.51910717405e-05
2.52046156248e-05
2.52180755235e-05
2.52314444041e-05
2.52446758559e-05
2.52577654822e-05
2.5270671012e-05
2.52833906706e-05
2.52958862938e-05
2.53081586523e-05
2.53201735895e-05
2.53319342905e-05
2.53434104489e-05
2.5354607487e-05
2.53654987441e-05
2.53760916638e-05
2.53863629891e-05
2.53963219395e-05
2.54059483925e-05
2.54152530762e-05
2.54242187156e-05
2.54328572654e-05
2.54411540025e-05
2.5449121818e-05
2.54567482448e-05
2.54640468164e-05
2.54710070327e-05
2.54776427746e-05
2.54839452316e-05
2.54899283397e-05
2.5495584716e-05
2.55009280706e-05
2.55059522166e-05
2.55106703938e-05
2.55150774534e-05
2.5519186013e-05
2.5522992024e-05
2.55265077499e-05
2.55297316581e-05
2.55326815355e-05
2.55353883849e-05
2.55380336119e-05
2.55415163953e-05
2.55505776352e-05
2.55902568512e-05
2.5796114699e-05
2.69390286826e-05
3.381954819e-05
8.06974283445e-05
0.000425438738161
0.00245203232078
2.57761210994e-05
2.57816146457e-05
2.57884694546e-05
2.57963316339e-05
2.58057722314e-05
2.58163291978e-05
2.58278672253e-05
2.58395474877e-05
2.58510225021e-05
2.58614583976e-05
2.58705085846e-05
2.5877477849e-05
2.58821419941e-05
2.58840078077e-05
2.58830291455e-05
2.58789356174e-05
2.5871863292e-05
2.58617338371e-05
2.58488216288e-05
2.58331740955e-05
2.58151372255e-05
2.57948157229e-05
2.57725721773e-05
2.57485239787e-05
2.57230211405e-05
2.5696173969e-05
2.56683093243e-05
2.56395241127e-05
2.56101193152e-05
2.5580176819e-05
2.55499710836e-05
2.55195684255e-05
2.5489216436e-05
2.5458965572e-05
2.54290365046e-05
2.53994640849e-05
2.5370442755e-05
2.53419928245e-05
2.53142840297e-05
2.52873238219e-05
2.52612592516e-05
2.52360867603e-05
2.52119328147e-05
2.51887845264e-05
2.51667497505e-05
2.51458076508e-05
2.51260492309e-05
2.51074467427e-05
2.50900758585e-05
2.50739026571e-05
2.50589888803e-05
2.50452950872e-05
2.50328705391e-05
2.50216709138e-05
2.50117343529e-05
2.50030120473e-05
2.49955320778e-05
2.49892413604e-05
2.49841590381e-05
2.49802283685e-05
2.49774611789e-05
2.49757981434e-05
2.49752455831e-05
2.49757430722e-05
2.4977294686e-05
2.49798443988e-05
2.49833990166e-05
2.4987859982e-05
2.49931936221e-05
2.49993219106e-05
2.5006232206e-05
2.50138522211e-05
2.50221648477e-05
2.50310973941e-05
2.50406311719e-05
2.50506937161e-05
2.50612655457e-05
2.50722751246e-05
2.50837029173e-05
2.50954789941e-05
2.51075844274e-05
2.51199515181e-05
2.51325625211e-05
2.51453525217e-05
2.51583054388e-05
2.51713596135e-05
2.51845010175e-05
2.51976716308e-05
2.52108597749e-05
2.52240113609e-05
2.52371172683e-05
2.52501275398e-05