/*--------------------------------*- C++ -*----------------------------------*\
| =========                 |                                                 |
| \\      /  F ield         | OpenFOAM: The Open Source CFD Toolbox           |
|  \\    /   O peration     | Version:  2206                                  |
|   \\  /    A nd           | Website:  www.openfoam.com                      |
|    \\/     M anipulation  |                                                 |
\*---------------------------------------------------------------------------*/
FoamFile
{
    version     2.0;
    format      ascii;
    arch        "LSB;label=64;scalar=64";
    class       volScalarField;
    location    "0.5/water";
    object      p;
}
// * * * * * * * * * * * * * * * * * * * * * * * * * * * * * * * * * * * * * //

dimensions      [1 -1 -2 0 0 0 0];

internalField   nonuniform List<scalar> 
23300
(
100727.322692
100727.321965
100727.319948
100727.316911
100727.31293
100727.307968
100727.302091
100727.295244
100727.287509
100727.278828
100727.269292
100727.258844
100727.24758
100727.235449
100727.222553
100727.208846
100727.194434
100727.179278
100727.163489
100727.147033
100727.130027
100727.112441
100727.094395
100727.075863
100727.056971
100727.037694
100727.018161
100726.99835
100726.978392
100726.958267
100726.938105
100726.917889
100726.897747
100726.877663
100726.857762
100726.838031
100726.81859
100726.799425
100726.780651
100726.762255
100726.744346
100726.726909
100726.710046
100726.693741
100726.678089
100726.663072
100726.648775
100726.635181
100726.622364
100726.610306
100726.599073
100726.588642
100726.579071
100726.570336
100726.562485
100726.555492
100726.549395
100726.544168
100726.53984
100726.536382
100726.533815
100726.532109
100726.531277
100726.531288
100726.532148
100726.533823
100726.536316
100726.53959
100726.543645
100726.548444
100726.553983
100726.560211
100726.567102
100726.574618
100726.582747
100726.591448
100726.600704
100726.610473
100726.620736
100726.631451
100726.642596
100726.65413
100726.66603
100726.678255
100726.690782
100726.703571
100726.716598
100726.729824
100726.743226
100726.756766
100726.770423
100726.784159
100726.797953
100726.811771
100726.825591
100726.839383
100726.853125
100726.866789
100726.880355
100726.893795
100726.907093
100726.920222
100726.933168
100726.945905
100726.958421
100726.970694
100726.98271
100726.994451
100727.005906
100727.017056
100727.027891
100727.038397
100727.048565
100727.058381
100727.067837
100727.076922
100727.08563
100727.09395
100727.101876
100727.109401
100727.11652
100727.123224
100727.129513
100727.135378
100727.140818
100727.145827
100727.150405
100727.154546
100727.158251
100727.161515
100727.16434
100727.166723
100727.168665
100727.170165
100727.171225
100727.171851
100727.172056
100727.171878
100727.17141
100727.170904
100719.248275
100719.247523
100719.245445
100719.242388
100719.238382
100719.233405
100719.227496
100719.220629
100719.212853
100719.204143
100719.194554
100719.184065
100719.172736
100719.160552
100719.147579
100719.133805
100719.119303
100719.104068
100719.088177
100719.07163
100719.054509
100719.036819
100719.018647
100719.000002
100718.980973
100718.961574
100718.941897
100718.921956
100718.901848
100718.881587
100718.86127
100718.840915
100718.820616
100718.800392
100718.780335
100718.760464
100718.740869
100718.721567
100718.702643
100718.684115
100718.666062
100718.648499
100718.6315
100718.615077
100718.599298
100718.584172
100718.569759
100718.556065
100718.543144
100718.530997
100718.51967
100718.509162
100718.499509
100718.490708
100718.482788
100718.47574
100718.469587
100718.464316
100718.459943
100718.456451
100718.45385
100718.45212
100718.451264
100718.451259
100718.452102
100718.453768
100718.456249
100718.459519
100718.463565
100718.468359
100718.473873
100718.480074
100718.486954
100718.494474
100718.502613
100718.511332
100718.520607
100718.530402
100718.54069
100718.551435
100718.562609
100718.574175
100718.586105
100718.598364
100718.610923
100718.623746
100718.636805
100718.650065
100718.663499
100718.677074
100718.690762
100718.704531
100718.718356
100718.732206
100718.746057
100718.759879
100718.77365
100718.787343
100718.800936
100718.814405
100718.827728
100718.840884
100718.853854
100718.866617
100718.879156
100718.891452
100718.903491
100718.915254
100718.926729
100718.9379
100718.948755
100718.959281
100718.969468
100718.979303
100718.988777
100718.997881
100719.006606
100719.014944
100719.022888
100719.03043
100719.037566
100719.044289
100719.050594
100719.056478
100719.061935
100719.066963
100719.071559
100719.07572
100719.079443
100719.082728
100719.085573
100719.087977
100719.089939
100719.09146
100719.092538
100719.093177
100719.093388
100719.093209
100719.09274
100719.092296
100711.175927
100711.175181
100711.173064
100711.169966
100711.165912
100711.160882
100711.154908
100711.147971
100711.140109
100711.131307
100711.12161
100711.111004
100711.099542
100711.087214
100711.074078
100711.060133
100711.045441
100711.030005
100711.013896
100710.997121
100710.979756
100710.961814
100710.943375
100710.924456
100710.90514
100710.885449
100710.865468
100710.845223
100710.824801
100710.804227
100710.783591
100710.762919
100710.742301
100710.721763
100710.701391
100710.681214
100710.661315
100710.641719
100710.622506
100710.6037
100710.585377
100710.567558
100710.550311
100710.533655
100710.517654
100710.502321
100710.487714
100710.473842
100710.460755
100710.448459
100710.436996
100710.426368
100710.41661
100710.407719
100710.399722
100710.392613
100710.386411
100710.381107
100710.376712
100710.373213
100710.370616
100710.368902
100710.368072
100710.368104
100710.368993
100710.370715
100710.373259
100710.376598
100710.380718
100710.385583
100710.391175
100710.397474
100710.404459
100710.412091
100710.420346
100710.429186
100710.438585
100710.448505
100710.458921
100710.469794
100710.481096
100710.49279
100710.504848
100710.517233
100710.529916
100710.542861
100710.55604
100710.569418
100710.582967
100710.596652
100710.610448
100710.624322
100710.638248
100710.652195
100710.666139
100710.680051
100710.693907
100710.707682
100710.721352
100710.734894
100710.748287
100710.761509
100710.77454
100710.787361
100710.799954
100710.812301
100710.824387
100710.836194
100710.847709
100710.858917
100710.869806
100710.880364
100710.890579
100710.900439
100710.909937
100710.919061
100710.927805
100710.936159
100710.944118
100710.951673
100710.958819
100710.965551
100710.971865
100710.977754
100710.983217
100710.988248
100710.992847
100710.997009
100711.000733
100711.004018
100711.006862
100711.009264
100711.011224
100711.012741
100711.013814
100711.014446
100711.014647
100711.014463
100711.014006
100711.013613
100703.10514
100703.104389
100703.102239
100703.099095
100703.094981
100703.089876
100703.083812
100703.076769
100703.068785
100703.059843
100703.049987
100703.039204
100703.027544
100703.015
100703.001627
100702.987425
100702.972455
100702.956722
100702.940295
100702.923185
100702.905466
100702.887154
100702.868328
100702.849008
100702.829278
100702.809163
100702.788748
100702.768061
100702.747191
100702.726166
100702.705077
100702.683953
100702.662884
100702.6419
100702.621088
100702.600479
100702.580157
100702.56015
100702.54054
100702.521352
100702.502661
100702.484493
100702.466914
100702.449948
100702.433654
100702.418052
100702.403195
100702.389096
100702.375804
100702.363327
100702.351704
100702.34094
100702.331066
100702.322083
100702.314015
100702.306857
100702.300627
100702.295314
100702.29093
100702.287461
100702.284911
100702.283262
100702.282513
100702.282642
100702.283642
100702.285488
100702.288169
100702.291656
100702.295931
100702.300961
100702.306732
100702.31321
100702.320375
100702.32819
100702.336629
100702.345656
100702.355244
100702.365356
100702.375962
100702.387026
100702.398518
100702.410401
100702.422646
100702.435215
100702.448079
100702.461202
100702.474555
100702.488102
100702.501815
100702.515661
100702.529612
100702.543635
100702.557705
100702.57179
100702.585867
100702.599905
100702.613883
100702.627772
100702.641551
100702.655196
100702.668686
100702.681999
100702.695117
100702.708018
100702.720686
100702.733102
100702.745252
100702.757118
100702.768688
100702.779946
100702.790881
100702.80148
100702.811732
100702.821626
100702.831154
100702.840305
100702.849072
100702.857447
100702.865423
100702.872993
100702.880152
100702.886895
100702.893216
100702.899112
100702.90458
100702.909614
100702.914215
100702.918377
100702.922101
100702.925384
100702.928225
100702.930623
100702.932578
100702.934089
100702.935155
100702.935778
100702.935971
100702.935783
100702.935334
100702.934967
100695.035766
100695.034999
100695.032812
100695.029612
100695.025422
100695.02022
100695.014038
100695.006855
100694.998709
100694.989581
100694.979515
100694.968497
100694.956576
100694.943744
100694.930058
100694.915516
100694.90018
100694.884056
100694.867214
100694.849664
100694.831483
100694.812688
100694.793359
100694.773519
100694.753254
100694.732589
100694.711614
100694.690358
100694.668913
100694.64731
100694.625641
100694.603939
100694.582297
100694.560746
100694.539378
100694.518223
100694.49737
100694.476849
100694.456742
100694.437078
100694.417934
100694.399334
100694.38135
100694.364004
100694.347358
100694.33143
100694.316277
100694.301912
100694.288382
100694.275696
100694.263894
100694.25298
100694.242986
100694.23391
100694.225777
100694.218581
100694.21234
100694.207041
100694.202696
100694.199288
100694.196823
100694.195279
100694.194656
100694.194929
100694.19609
100694.198114
100694.200987
100694.204679
100694.209171
100694.214429
100694.220434
100694.227154
100694.234564
100694.242627
100694.251319
100694.260602
100694.270446
100694.280816
100694.29168
100694.303001
100694.314749
100694.326886
100694.339381
100694.352197
100694.365303
100694.378664
100694.392249
100694.406022
100694.419956
100694.434015
100694.448172
100694.462395
100694.476656
100694.490925
100694.505178
100694.519385
100694.533523
100694.547564
100694.561488
100694.57527
100694.588889
100694.602323
100694.615554
100694.628561
100694.641328
100694.653836
100694.666071
100694.678015
100694.689657
100694.700981
100694.711976
100694.722629
100694.73293
100694.742868
100694.752435
100694.76162
100694.770417
100694.778818
100694.786816
100694.794405
100694.801581
100694.808336
100694.814668
100694.820571
100694.826044
100694.831082
100694.835683
100694.839846
100694.843567
100694.846847
100694.849683
100694.852075
100694.854023
100694.855525
100694.856581
100694.857192
100694.857373
100694.857176
100694.856729
100694.856381
100686.967825
100686.967037
100686.964805
100686.961534
100686.957251
100686.95193
100686.945603
100686.938247
100686.929899
100686.92054
100686.910212
100686.898901
100686.886655
100686.873466
100686.85939
100686.844426
100686.828636
100686.812027
100686.794668
100686.776574
100686.75782
100686.738427
100686.718476
100686.697993
100686.677066
100686.655724
100686.634058
100686.612102
100686.58995
100686.567636
100686.545256
100686.522847
100686.500503
100686.478261
100686.456213
100686.434395
100686.412897
100686.391752
100686.371045
100686.350807
100686.331116
100686.312
100686.293532
100686.275733
100686.258669
100686.242359
100686.226858
100686.212181
100686.198377
100686.185452
100686.173449
100686.162368
100686.152244
100686.143073
100686.134879
100686.127655
100686.121417
100686.116153
100686.111873
100686.108558
100686.106213
100686.104815
100686.10436
100686.104825
100686.106199
100686.108454
100686.111577
100686.115533
100686.120303
100686.125851
100686.132157
100686.139184
100686.146909
100686.155293
100686.164309
100686.173919
100686.184093
100686.194793
100686.205987
100686.217636
100686.22971
100686.242169
100686.254983
100686.268112
100686.281526
100686.295188
100686.309067
100686.323127
100686.337339
100686.351667
100686.366085
100686.380559
100686.395062
100686.409563
100686.424038
100686.438457
100686.452796
100686.46703
100686.481135
100686.495088
100686.508869
100686.522455
100686.535828
100686.548968
100686.561859
100686.574482
100686.586822
100686.598865
100686.610596
100686.622002
100686.633071
100686.643791
100686.654153
100686.664146
100686.67376
100686.682988
100686.691823
100686.700255
100686.708281
100686.715893
100686.723088
100686.729858
100686.736202
100686.742114
100686.747593
100686.752634
100686.757237
100686.761398
100686.765116
100686.768391
100686.77122
100686.773604
100686.775542
100686.777032
100686.778075
100686.778672
100686.778838
100686.778629
100686.778183
100686.777853
100678.901386
100678.900571
100678.898286
100678.894935
100678.89054
100678.885079
100678.878579
100678.871018
100678.86243
100678.852797
100678.842157
100678.830496
100678.817861
100678.804246
100678.789703
100678.774233
100678.757898
100678.740706
100678.722728
100678.70398
100678.684538
100678.664425
100678.643728
100678.622472
100678.60075
100678.578593
100678.556098
100678.533301
100678.5103
100678.487134
100678.463903
100678.440646
100678.417463
100678.394395
100678.371536
100678.348928
100678.326662
100678.304776
100678.283357
100678.262439
100678.242103
100678.222379
100678.20334
100678.185012
100678.16746
100678.150704
100678.134802
100678.119767
100678.105648
100678.092454
100678.080224
100678.068962
100678.058698
100678.049429
100678.041178
100678.033937
100678.027721
100678.022516
100678.018329
100678.015142
100678.012956
100678.011748
100678.011511
100678.01222
100678.013863
100678.01641
100678.019844
100678.02413
100678.029244
100678.035152
100678.041829
100678.049237
100678.057351
100678.06613
100678.075547
100678.08556
100678.096139
100678.107244
100678.118843
100678.130895
100678.143368
100678.156222
100678.169424
100678.182936
100678.196725
100678.210754
100678.224991
100678.239399
100678.253949
100678.268605
100678.283339
100678.298117
100678.312913
100678.327696
100678.342439
100678.357114
100678.371697
100678.386162
100678.400487
100678.414647
100678.428623
100678.442391
100678.455936
100678.469235
100678.482274
100678.495035
100678.507503
100678.519662
100678.5315
100678.543004
100678.554162
100678.564963
100678.575397
100678.585453
100678.595125
100678.604403
100678.613281
100678.621752
100678.62981
100678.637449
100678.644665
100678.651453
100678.65781
100678.663733
100678.669218
100678.674262
100678.678865
100678.683024
100678.686738
100678.690006
100678.692827
100678.695201
100678.697126
100678.698603
100678.69963
100678.70021
100678.700357
100678.700133
100678.699689
100678.699376
100670.836534
100670.835689
100670.833343
100670.829898
100670.825379
100670.819756
100670.813058
100670.805262
100670.796398
100670.786446
100670.775444
100670.763378
100670.750291
100670.736177
100670.721089
100670.705026
100670.688053
100670.670177
100670.651471
100670.631952
100670.6117
100670.590739
100670.56916
100670.546992
100670.52433
100670.501212
100670.477738
100670.453948
100670.429945
100670.405774
100670.381538
100670.357283
100670.333112
100670.309071
100670.285261
100670.261724
100670.238558
100670.215805
100670.193554
100670.171843
100670.150756
100670.130325
100670.110626
100670.091686
100670.073573
100670.056307
100670.039946
100670.024505
100670.010033
100669.996538
100669.98406
100669.972601
100669.96219
100669.952824
100669.944525
100669.937283
100669.931109
100669.925991
100669.921932
100669.918913
100669.916931
100669.915962
100669.915998
100669.91701
100669.918983
100669.921887
100669.925701
100669.930388
100669.935921
100669.942263
100669.949387
100669.957255
100669.965836
100669.975091
100669.984987
100669.995483
100670.006548
100670.018137
100670.030219
100670.042751
100670.055699
100670.069023
100670.082688
100670.096654
100670.110889
100670.125352
100670.140013
100670.154834
100670.169783
100670.184826
100670.199934
100670.215072
100670.230213
100670.245326
100670.260385
100670.275361
100670.290231
100670.304968
100670.319549
100670.333952
100670.348155
100670.362138
100670.375882
100670.389368
100670.40258
100670.415501
100670.428116
100670.440411
100670.452374
100670.463991
100670.475252
100670.486145
100670.496662
100670.506792
100670.51653
100670.525865
100670.534793
100670.543306
100670.5514
100670.559069
100670.56631
100670.573117
100670.579489
100670.585422
100670.590913
100670.595961
100670.600563
100670.604719
100670.608427
100670.611686
100670.614497
100670.616857
100670.618768
100670.620229
100670.621238
100670.621797
100670.621924
100670.621683
100670.621241
100670.620945
100662.773366
100662.772486
100662.770074
100662.766527
100662.761866
100662.756064
100662.749146
100662.741083
100662.731908
100662.721597
100662.710186
100662.697657
100662.684054
100662.669369
100662.653654
100662.63691
100662.619199
100662.600532
100662.580981
100662.560568
100662.539374
100662.517427
100662.49482
100662.471589
100662.447832
100662.423593
100662.398975
100662.374026
100662.348855
100662.32351
100662.298103
100662.272685
100662.247364
100662.222192
100662.197274
100662.172661
100662.148452
100662.124695
100662.101483
100662.078858
100662.056907
100662.035666
100662.015212
100661.995575
100661.976823
100661.958979
100661.942102
100661.926207
100661.911343
100661.897518
100661.88477
100661.873102
100661.862542
100661.853084
100661.844749
100661.837524
100661.831422
100661.826424
100661.822533
100661.819727
100661.818001
100661.817328
100661.817697
100661.819077
100661.821451
100661.824784
100661.829054
100661.834219
100661.84025
100661.847108
100661.854762
100661.863172
100661.872306
100661.88212
100661.892581
100661.903646
100661.91528
100661.927438
100661.940086
100661.953179
100661.966683
100661.980555
100661.99476
100662.009255
100662.024008
100662.038977
100662.05413
100662.069429
100662.084842
100662.100333
100662.115872
100662.131426
100662.146966
100662.16246
100662.177884
100662.193207
100662.208406
100662.223455
100662.238332
100662.253012
100662.267477
100662.281704
100662.295677
100662.309375
100662.322785
100662.335888
100662.348671
100662.361121
100662.373224
100662.384969
100662.396345
100662.407342
100662.417952
100662.428166
100662.437976
100662.447375
100662.456358
100662.464918
100662.473051
100662.480753
100662.48802
100662.494848
100662.501235
100662.507177
100662.512674
100662.517724
100662.522324
100662.526475
100662.530175
100662.533423
100662.536221
100662.538567
100662.54046
100662.541902
100662.54289
100662.543427
100662.54353
100662.543272
100662.542832
100662.542552
100654.71199
100654.711072
100654.708589
100654.70493
100654.700118
100654.694119
100654.686959
100654.678605
100654.669086
100654.658375
100654.646506
100654.633459
100654.619276
100654.603946
100654.58752
100654.57
100654.551448
100654.531876
100654.511358
100654.489917
100654.467639
100654.444555
100654.420763
100654.396303
100654.37128
100654.345743
100654.319802
100654.293512
100654.266988
100654.240287
100654.213526
100654.186762
100654.160113
100654.133636
100654.107444
100654.08159
100654.056184
100654.031275
100654.006964
100653.983295
100653.960359
100653.938196
100653.916887
100653.896462
100653.876992
100653.858502
100653.841051
100653.824654
100653.809359
100653.795176
100653.782141
100653.770256
100653.759546
100653.750006
100653.741653
100653.734473
100653.728474
100653.723637
100653.719961
100653.717421
100653.71601
100653.715698
100653.716469
100653.71829
100653.72114
100653.724982
100653.729791
100653.73552
100653.742136
100653.749598
100653.757872
100653.766915
100653.776692
100653.787158
100653.798275
100653.809999
100653.822292
100653.835108
100653.848409
100653.862151
100653.876295
100653.890798
100653.905622
100653.920725
100653.936072
100653.951621
100653.967338
100653.983184
100653.999126
100654.015129
100654.03116
100654.047187
100654.06318
100654.079108
100654.094945
100654.110662
100654.126234
100654.141636
100654.156846
100654.17184
100654.186599
100654.201102
100654.215331
100654.229268
100654.242899
100654.256206
100654.269177
100654.281798
100654.294058
100654.305944
100654.317449
100654.328561
100654.339273
100654.349577
100654.359466
100654.368934
100654.377976
100654.386587
100654.394762
100654.402498
100654.409792
100654.41664
100654.423042
100654.428994
100654.434495
100654.439545
100654.444141
100654.448284
100654.451974
100654.455209
100654.457991
100654.460319
100654.462193
100654.463612
100654.464577
100654.465088
100654.465166
100654.464889
100654.464451
100654.464187
100646.652524
100646.651567
100646.649008
100646.645233
100646.640259
100646.634052
100646.626632
100646.617963
100646.60807
100646.596924
100646.584551
100646.570932
100646.556103
100646.540053
100646.522831
100646.504437
100646.484934
100646.464336
100646.442717
100646.420104
100646.396587
100646.372202
100646.34705
100646.321179
100646.294702
100646.267672
100646.24021
100646.212376
100646.184296
100646.156034
100646.127716
100646.099407
100646.071234
100646.043261
100646.015608
100645.988338
100645.961564
100645.935343
100645.909781
100645.884927
100645.860878
100645.837676
100645.815404
100645.794097
100645.773827
100645.75462
100645.736534
100645.719588
100645.703827
100645.689261
100645.675925
100645.663818
100645.652966
100645.643359
100645.635012
100645.627909
100645.622055
100645.617427
100645.614022
100645.611811
100645.610782
100645.610902
100645.612153
100645.614497
100645.61791
100645.62235
100645.627789
100645.634176
100645.641472
100645.649635
100645.658627
100645.668402
100645.678921
100645.690136
100645.702008
100645.714488
100645.727536
100645.741105
100645.755153
100645.769634
100645.784508
100645.799729
100645.815259
100645.831052
100645.847073
100645.863279
100645.879633
100645.896098
100645.912638
100645.929217
100645.945803
100645.962362
100645.978865
100645.99528
100646.011581
100646.027738
100646.043729
100646.059525
100646.075107
100646.09045
100646.105537
100646.120345
100646.134859
100646.14906
100646.162935
100646.176467
100646.189644
100646.202453
100646.214884
100646.226926
100646.23857
100646.249806
100646.260629
100646.27103
100646.281004
100646.290546
100646.29965
100646.308313
100646.316532
100646.324302
100646.331623
100646.338491
100646.344906
100646.350866
100646.356369
100646.361416
100646.366006
100646.370139
100646.373815
100646.377035
100646.379797
100646.382104
100646.383955
100646.38535
100646.386288
100646.386771
100646.38682
100646.386523
100646.386087
100646.385838
100638.595096
100638.594097
100638.591462
100638.587567
100638.582428
100638.576005
100638.568312
100638.559311
100638.549021
100638.537405
100638.524488
100638.510244
100638.494706
100638.47786
100638.459753
100638.440384
100638.419814
100638.398059
100638.375196
100638.351255
100638.326329
100638.30046
100638.273757
100638.246274
100638.218131
100638.189392
100638.160186
100638.130583
100638.10072
100638.070669
100638.040568
100638.010492
100637.980576
100637.950895
100637.921577
100637.892694
100637.864366
100637.836658
100637.809681
100637.783492
100637.758189
100637.733822
100637.710475
100637.688187
100637.66703
100637.647033
100637.628255
100637.610712
100637.594452
100637.579482
100637.565835
100637.553509
100637.542526
100637.532875
100637.524567
100637.517584
100637.511924
100637.507564
100637.504495
100637.502684
100637.502116
100637.502752
100637.504571
100637.507531
100637.511602
100637.51674
100637.52291
100637.530058
100637.53814
100637.547109
100637.556926
100637.56754
100637.578908
100637.59098
100637.603712
100637.617053
100637.63096
100637.645383
100637.660278
100637.675596
100637.691295
100637.707327
100637.723651
100637.740222
100637.757001
100637.773944
100637.791015
100637.808172
100637.825381
100637.842605
100637.859811
100637.876963
100637.894034
100637.91099
100637.927806
100637.944452
100637.960904
100637.977137
100637.99313
100638.008858
100638.024305
100638.039449
100638.054275
100638.068766
100638.082907
100638.096684
100638.110085
100638.123099
100638.135715
100638.147923
100638.159716
100638.171086
100638.182026
100638.19253
100638.202594
100638.212211
100638.221381
100638.230097
100638.238359
100638.246164
100638.25351
100638.260396
100638.266822
100638.272786
100638.278289
100638.28333
100638.287911
100638.292029
100638.295688
100638.298887
100638.301628
100638.30391
100638.305734
100638.307101
100638.308009
100638.308461
100638.308479
100638.308162
100638.307727
100638.307492
100630.539839
100630.538799
100630.536092
100630.532081
100630.526776
100630.520135
100630.512166
100630.502822
100630.492115
100630.480005
100630.466508
100630.451592
100630.435284
100630.417567
100630.398484
100630.378032
100630.356273
100630.333222
100630.308959
100630.283517
100630.256995
100630.229441
100630.200972
100630.17165
100630.141606
100630.110914
100630.079715
100630.04809
100630.016187
100629.984093
100629.951955
100629.919863
100629.887961
100629.856335
100629.825125
100629.794412
100629.764326
100629.734938
100629.706368
100629.678678
100629.651973
100629.626305
100629.601764
100629.57839
100629.556259
100629.535398
100629.515868
100629.497686
100629.480897
100629.465506
100629.451545
100629.439009
100629.427917
100629.418254
100629.410028
100629.403215
100629.397812
100629.393789
100629.391132
100629.389805
100629.389787
100629.391035
100629.393522
100629.397202
100629.40204
100629.407988
100629.415001
100629.423023
100629.432007
100629.441901
100629.45266
100629.46423
100629.476564
100629.489608
100629.503315
100629.51763
100629.532508
100629.547893
100629.563742
100629.580001
100629.596626
100629.613568
100629.630782
100629.648223
100629.665848
100629.683614
100629.701482
100629.71941
100629.737362
100629.755301
100629.773193
100629.791003
100629.8087
100629.826254
100629.843637
100629.860821
100629.877781
100629.894492
100629.910934
100629.927084
100629.942923
100629.958433
100629.973598
100629.988402
100630.002831
100630.016873
100630.030515
100630.043747
100630.056561
100630.068947
100630.080899
100630.092408
100630.103471
100630.114082
100630.124238
100630.133934
100630.143168
100630.151938
100630.160243
100630.168079
100630.175449
100630.18235
100630.188783
100630.194748
100630.200247
100630.205278
100630.209843
100630.213944
100630.217581
100630.220756
100630.223469
100630.225723
100630.227517
100630.228851
100630.229726
100630.230144
100630.230129
100630.229789
100630.229355
100630.229133
100622.486899
100622.485821
100622.483046
100622.478926
100622.473467
100622.466615
100622.458373
100622.448687
100622.437558
100622.424936
100622.410831
100622.395201
100622.378067
100622.359406
100622.339255
100622.317611
100622.294532
100622.270034
100622.244201
100622.217068
100622.188742
100622.159278
100622.128802
100622.097387
100622.065176
100622.032256
100621.99878
100621.964846
100621.930614
100621.896187
100621.861727
100621.827336
100621.793175
100621.75934
100621.725986
100621.693202
100621.66113
100621.629851
100621.599492
100621.570122
100621.541853
100621.514741
100621.48888
100621.464313
100621.441116
100621.419319
100621.398981
100621.380119
100621.362775
100621.346954
100621.332684
100621.319956
100621.308786
100621.299154
100621.291063
100621.284486
100621.279413
100621.275809
100621.273655
100621.27291
100621.273545
100621.275515
100621.278784
100621.283302
100621.289028
100621.295909
100621.303893
100621.312917
100621.322932
100621.333879
100621.345709
100621.358363
100621.371791
100621.385933
100621.400739
100621.416151
100621.432119
100621.448586
100621.465502
100621.482814
100621.500474
100621.518429
100621.536635
100621.555042
100621.573608
100621.592286
100621.611036
100621.629817
100621.64859
100621.667317
100621.685964
100621.704496
100621.722883
100621.741091
100621.759095
100621.776866
100621.79438
100621.811612
100621.828542
100621.845149
100621.861413
100621.877318
100621.892849
100621.907989
100621.922727
100621.937051
100621.95095
100621.964415
100621.977437
100621.99001
100622.002127
100622.013782
100622.024973
100622.035693
100622.045942
100622.055717
100622.065015
100622.073836
100622.08218
100622.090046
100622.097435
100622.104347
100622.110783
100622.116744
100622.122231
100622.127247
100622.131793
100622.13587
100622.13948
100622.142625
100622.145307
100622.147527
100622.149286
100622.150584
100622.151422
100622.151802
100622.151752
100622.151388
100622.150955
100622.150745
100614.436419
100614.435306
100614.432478
100614.428268
100614.42267
100614.415629
100614.407133
100614.397117
100614.385572
100614.372437
100614.357706
100614.341332
100614.323323
100614.303648
100614.282339
100614.259388
100614.234851
100614.208745
100614.181155
100614.152123
100614.121759
100614.090132
100614.057376
100614.02358
100613.988898
100613.953435
100613.91736
100613.880789
100613.843899
100613.80681
100613.769703
100613.732696
100613.695965
100613.659625
100613.623842
100613.588719
100613.55441
100613.521007
100613.488645
100613.457403
100613.427396
100613.398687
100613.371373
100613.3455
100613.321145
100613.298339
100613.27714
100613.257563
100613.239648
100613.223396
100613.208831
100613.195942
100613.184736
100613.175192
100613.167305
100613.161043
100613.156389
100613.153302
100613.151757
100613.151706
100613.153115
100613.155931
100613.160112
100613.165602
100613.172353
100613.180306
100613.189402
100613.199571
100613.210759
100613.222901
100613.235944
100613.249824
100613.264484
100613.279862
100613.295903
100613.312544
100613.329731
100613.347405
100613.365513
100613.383997
100613.402807
100613.421888
100613.441193
100613.46067
100613.480275
100613.49996
100613.519683
100613.539401
100613.559076
100613.578668
100613.598143
100613.617464
100613.636602
100613.655524
100613.674204
100613.692612
100613.710727
100613.728523
100613.74598
100613.763078
100613.7798
100613.796129
100613.81205
100613.827549
100613.842616
100613.857238
100613.871409
100613.885117
100613.898358
100613.911125
100613.923413
100613.935219
100613.946539
100613.95737
100613.967712
100613.977562
100613.986923
100613.995792
100614.004171
100614.012061
100614.019463
100614.026379
100614.032812
100614.038762
100614.044233
100614.049227
100614.053746
100614.057793
100614.06137
100614.064479
100614.067124
100614.069305
100614.071024