/*--------------------------------*- C++ -*----------------------------------*\
| =========                 |                                                 |
| \\      /  F ield         | OpenFOAM: The Open Source CFD Toolbox           |
|  \\    /   O peration     | Version:  2206                                  |
|   \\  /    A nd           | Website:  www.openfoam.com                      |
|    \\/     M anipulation  |                                                 |
\*---------------------------------------------------------------------------*/
FoamFile
{
    version     2.0;
    format      ascii;
    arch        "LSB;label=64;scalar=64";
    class       surfaceScalarField;
    location    "0.5/water";
    object      phi.gas;
}
// * * * * * * * * * * * * * * * * * * * * * * * * * * * * * * * * * * * * * //

dimensions      [0 3 -1 0 0 0 0];

oriented        oriented;

internalField   nonuniform List<scalar> 
46280
(
-3.07370080866e-10
2.73376837486e-07
-5.29868320091e-10
2.73366318487e-07
-7.94677777286e-10
2.73374429307e-07
-1.07275622768e-09
2.73380722715e-07
-1.35296319511e-09
2.73387705676e-07
-1.64380341689e-09
2.73392880682e-07
-1.93444192248e-09
2.73399697826e-07
-2.23681295704e-09
2.7340419446e-07
-2.53876716476e-09
2.73410617939e-07
-2.85330322817e-09
2.73414591008e-07
-3.16769246436e-09
2.73420625421e-07
-3.49544377713e-09
2.73424185065e-07
-3.82357278222e-09
2.73429879334e-07
-4.16562031336e-09
2.73433177808e-07
-4.5085984146e-09
2.73438610315e-07
-4.8659129643e-09
2.7344171447e-07
-5.22456603035e-09
2.73446892686e-07
-5.59782864794e-09
2.73449766295e-07
-5.97261703597e-09
2.73454620311e-07
-6.36211687083e-09
2.73457160876e-07
-6.75309224989e-09
2.73461576753e-07
-7.15867839129e-09
2.73463654921e-07
-7.56546873098e-09
2.73467500699e-07
-7.98654974273e-09
2.73468984334e-07
-8.40836384729e-09
2.7347212954e-07
-8.84391467254e-09
2.73472896329e-07
-9.27955215899e-09
2.73475218963e-07
-9.72813842969e-09
2.73475161399e-07
-1.01760089073e-08
2.73476554305e-07
-1.06358088628e-08
2.73475581766e-07
-1.10939555543e-08
2.73475952988e-07
-1.1562796755e-08
2.73473992408e-07
-1.2028930824e-08
2.73473268417e-07
-1.25043272804e-08
2.73470264699e-07
-1.29758685671e-08
2.73468389712e-07
-1.34550711527e-08
2.73464305916e-07
-1.39291958181e-08
2.7346124371e-07
-1.44092386224e-08
2.73456060174e-07
-1.4882926195e-08
2.73451791884e-07
-1.53606787672e-08
2.73445505049e-07
-1.58307625417e-08
2.73440029441e-07
-1.63029808806e-08
2.7343265049e-07
-1.67662031818e-08
2.73425981996e-07
-1.72295905387e-08
2.73417536244e-07
-1.76826618202e-08
2.7340970513e-07
-1.81339239469e-08
2.73400230543e-07
-1.85735763241e-08
2.73391280581e-07
-1.90094732394e-08
2.73380826737e-07
-1.94325080128e-08
2.73370814899e-07
-1.98498978543e-08
2.73359441987e-07
-2.02532321205e-08
2.73348437188e-07
-2.06491206507e-08
2.73336216283e-07
-2.10298380332e-08
2.73324299924e-07
-2.14014261598e-08
2.73311312646e-07
-2.17568229266e-08
2.73298577345e-07
-2.21015468896e-08
2.73284915328e-07
-2.24291652327e-08
2.73271464336e-07
-2.27447220347e-08
2.73257228798e-07
-2.3042376628e-08
2.73243176021e-07
-2.3326753623e-08
2.73228479504e-07
-2.35925659004e-08
2.73213951384e-07
-2.3844075072e-08
2.73198919218e-07
-2.40765085926e-08
2.73184055961e-07
-2.42938218426e-08
2.73168829932e-07
-2.44917262608e-08
2.73153793404e-07
-2.46739427635e-08
2.73138546036e-07
-2.48366646133e-08
2.73123539179e-07
-2.49834683633e-08
2.7310849549e-07
-2.51110634678e-08
2.73093775164e-07
-2.52230284195e-08
2.73079179118e-07
-2.53140505024e-08
2.73065223612e-07
-2.53868008069e-08
2.73051266488e-07
-2.54400425366e-08
2.73036704662e-07
-2.54760540631e-08
2.73021575539e-07
-2.5491675682e-08
2.73006149193e-07
-2.54893532418e-08
2.72990569718e-07
-2.54664721816e-08
2.72974954238e-07
-2.5425503856e-08
2.72959400828e-07
-2.53641395681e-08
2.72943919436e-07
-2.52848067266e-08
2.72928619362e-07
-2.51854380606e-08
2.72913443875e-07
-2.50683971529e-08
2.72898527728e-07
-2.49318207784e-08
2.72883766247e-07
-2.47780027727e-08
2.72869321932e-07
-2.4605258538e-08
2.72855052139e-07
-2.44158110574e-08
2.72841145242e-07
-2.42081351979e-08
2.72827427169e-07
-2.39843834695e-08
2.72814108871e-07
-2.37431736461e-08
2.72800989716e-07
-2.3486588123e-08
2.72788299842e-07
-2.32133732722e-08
2.72775816268e-07
-2.29255415753e-08
2.72763784876e-07
-2.26219546679e-08
2.72751964039e-07
-2.23045548689e-08
2.72740612249e-07
-2.19723072666e-08
2.72729472751e-07
-2.16270835522e-08
2.72718813539e-07
-2.12679411766e-08
2.72708366e-07
-2.08966804061e-08
2.72698404816e-07
-2.05124413939e-08
2.7268865273e-07
-2.01169520709e-08
2.72679388296e-07
-1.97094264608e-08
2.72670328665e-07
-1.92915190617e-08
2.72661753675e-07
-1.88625103521e-08
2.72653377891e-07
-1.84239803166e-08
2.7264547981e-07
-1.79752692598e-08
2.72637774322e-07
-1.75178816362e-08
2.72630536158e-07
-1.70512121096e-08
2.72623483389e-07
-1.6576688921e-08
2.72616884501e-07
-1.60937563577e-08
2.72610463532e-07
-1.5603765959e-08
2.72604480438e-07
-1.51062079711e-08
2.72598667882e-07
-1.46023573172e-08
2.72593275009e-07
-1.40917470475e-08
2.72588045674e-07
-1.35755758485e-08
2.72583216126e-07
-1.30534175202e-08
2.72578543803e-07
-1.2526395152e-08
2.72574250046e-07
-1.19941219683e-08
2.72570108118e-07
-1.14576460737e-08
2.72566322691e-07
-1.09166202451e-08
2.72562684831e-07
-1.03720179288e-08
2.72559380972e-07
-9.82353269765e-09
2.72556221797e-07
-9.27206303179e-09
2.72553374259e-07
-8.71734633057e-09
2.72550670176e-07
-8.16020620197e-09
2.72548256237e-07
-7.60042847499e-09
2.72545986977e-07
-7.03876309986e-09
2.72543988779e-07
-6.47505281345e-09
2.72542140376e-07
-5.90997812102e-09
2.72540549388e-07
-5.343455953e-09
2.72539123469e-07
-4.77610994739e-09
2.72537961044e-07
-4.20798220618e-09
2.7253702313e-07
-3.63974385782e-09
2.72536466039e-07
-3.07187805415e-09
2.72536479667e-07
-2.5059337918e-09
2.72537733408e-07
-1.94498164413e-09
2.72541730166e-07
-1.39645544679e-09
2.72551977411e-07
-8.76542485071e-10
2.72575608553e-07
-4.18334757715e-10
2.72625573753e-07
-9.12762289342e-11
2.72723976888e-07
2.72888610901e-07
-6.143069018e-10
2.22474340259e-07
-1.1916426426e-09
2.22467442614e-07
-1.79050598355e-09
2.22471037152e-07
-2.3892544588e-09
2.22476124413e-07
-2.98581669701e-09
2.22482109306e-07
-3.58389778462e-09
2.22487507995e-07
-4.1803228166e-09
2.22493968535e-07
-4.77928370635e-09
2.22499526084e-07
-5.37704284895e-09
2.22506243143e-07
-5.97816331014e-09
2.22511861044e-07
-6.57856019507e-09
2.22518676564e-07
-7.18286371563e-09
2.22524331963e-07
-7.78689877042e-09
2.22531154778e-07
-8.39521847989e-09
2.22536798114e-07
-9.00359710137e-09
2.22543527433e-07
-9.61647197073e-09
2.22549028492e-07
-1.0229551287e-08
2.22555478483e-07
-1.08471540884e-08
2.22560608094e-07
-1.14648929266e-08
2.22566514355e-07
-1.20869865325e-08
2.22570978e-07
-1.27089314032e-08
2.22576032003e-07
-1.3334858616e-08
2.22579510121e-07
-1.39601466972e-08
2.22583391716e-07
-1.45888450099e-08
2.22585566632e-07
-1.52162271283e-08
2.2258796549e-07
-1.58462529866e-08
2.22588539666e-07
-1.64741175738e-08
2.22589169734e-07
-1.71036792597e-08
2.2258787548e-07
-1.77300884229e-08
2.22586483372e-07
-1.83570824213e-08
2.22583090342e-07
-1.89798069006e-08
2.2257946185e-07
-1.96018603103e-08
2.22573780752e-07
-2.0218424906e-08
2.22567744189e-07
-2.08329401747e-08
2.22559629977e-07
-2.14406668668e-08
2.22551058681e-07
-2.2044870154e-08
2.22540410618e-07
-2.26409286708e-08
2.22529222139e-07
-2.32319186059e-08
2.22515982792e-07
-2.38133732199e-08
2.22502137569e-07
-2.4388171343e-08
2.22486290387e-07
-2.49520328485e-08
2.22469789725e-07
-2.55076329103e-08
2.2245135818e-07
-2.60509050889e-08
2.22432243806e-07
-2.65843207049e-08
2.22411289733e-07
-2.71040478025e-08
2.22389640928e-07
-2.76123561208e-08
2.22366261008e-07
-2.81056634544e-08
2.22342190391e-07
-2.85860460968e-08
2.22316511194e-07
-2.90501809795e-08
2.22290160056e-07
-2.94999616301e-08
2.22262335034e-07
-2.99323284446e-08
2.2223387177e-07
-3.03490072409e-08
2.222040801e-07
-3.0747200727e-08
2.22173698382e-07
-3.11284828613e-08
2.22142142216e-07
-3.14903130445e-08
2.22110056444e-07
-3.18341315498e-08
2.22076954421e-07
-3.21576449255e-08
2.22043392094e-07
-3.24621774365e-08
2.22008972955e-07
-3.27456703048e-08
2.21974170624e-07
-3.30093495779e-08
2.21938671521e-07
-3.32513761089e-08
2.21902874381e-07
-3.34728940888e-08
2.21866541613e-07
-3.36722696245e-08
2.21830005254e-07
-3.385058333e-08
2.21793098261e-07
-3.40063932118e-08
2.21756096664e-07
-3.41407308776e-08
2.21718900898e-07
-3.42523254562e-08
2.21681739921e-07
-3.43421660978e-08
2.21644563814e-07
-3.44091759928e-08
2.21607540331e-07
-3.445310881e-08
2.21570734604e-07
-3.44733811553e-08
2.21533671739e-07
-3.44716318219e-08
2.21496014075e-07
-3.44462083775e-08
2.21458223986e-07
-3.43982853205e-08
2.21420454957e-07
-3.43274148113e-08
2.21382796083e-07
-3.4234651274e-08
2.21345352581e-07
-3.41194803152e-08
2.21308155555e-07
-3.39828708348e-08
2.21271325413e-07
-3.38243714695e-08
2.21234854469e-07
-3.36449279494e-08
2.21198873088e-07
-3.34441727402e-08
2.2116334083e-07
-3.32230449757e-08
2.21128397476e-07
-3.29812603216e-08
2.21093975259e-07
-3.27197547434e-08
2.21060222648e-07
-3.24383198161e-08
2.2102704891e-07
-3.21378869582e-08
2.20994610278e-07
-3.18183149476e-08
2.20962796599e-07
-3.14805282355e-08
2.20931770459e-07
-3.11244440319e-08
2.20901405041e-07
-3.07509766839e-08
2.20871867933e-07
-3.03600935882e-08
2.2084301814e-07
-2.99526960436e-08
2.20815026749e-07
-2.95287938657e-08
2.20787740714e-07
-2.90892721272e-08
2.20761333337e-07
-2.86341759185e-08
2.20735641632e-07
-2.81643712816e-08
2.20710839759e-07
-2.76799320201e-08
2.20686756714e-07
-2.71817022473e-08
2.20663566388e-07
-2.66697786038e-08
2.20641091757e-07
-2.61449808278e-08
2.20619505249e-07
-2.56074231465e-08
2.20598625684e-07
-2.50578984856e-08
2.20578623e-07
-2.44965341045e-08
2.20559313788e-07
-2.39240941585e-08
2.20540864392e-07
-2.33407150193e-08
2.2052309099e-07
-2.27471302822e-08
2.20506155364e-07
-2.21434821477e-08
2.20489875166e-07
-2.15304724012e-08
2.20474406577e-07
-2.09082464079e-08
2.20459570501e-07
-2.02774731246e-08
2.2044551661e-07
-1.96382989896e-08
2.20432070839e-07
-1.8991359732e-08
2.20419375387e-07
-1.83368012863e-08
2.20407262899e-07
-1.76752259773e-08
2.20395867263e-07
-1.70067782897e-08
2.20385029439e-07
-1.63320274034e-08
2.20374874171e-07
-1.56511159665e-08
2.20365252213e-07
-1.49645803879e-08
2.20356278478e-07
-1.4272561802e-08
2.20347814899e-07
-1.35755643669e-08
2.20339965925e-07
-1.28737286954e-08
2.20332605966e-07
-1.21675271474e-08
2.20325828569e-07
-1.14571015718e-08
2.2031952182e-07
-1.07428933563e-08
2.2031376824e-07
-1.00250480665e-08
2.20308470906e-07
-9.30397756731e-09
2.20303701654e-07
-8.57983475659e-09
2.2029938004e-07
-7.85300336947e-09
2.2029556894e-07
-7.12364877545e-09
2.20292209416e-07
-6.39212849987e-09
2.20289367852e-07
-5.65863925573e-09
2.20287044923e-07
-4.92357517348e-09
2.20285425599e-07
-4.18739347891e-09
2.20284901601e-07
-3.45122449763e-09
2.20286672753e-07
-2.71777440225e-09
2.20293752633e-07
-1.99403119594e-09
2.20313417973e-07
-1.29740156661e-09
2.20361673857e-07
-6.67596618435e-10
2.20471432623e-07
-1.94016606958e-10
2.20703422036e-07
2.21118150759e-07
-7.14772596861e-10
2.3190452228e-07
-1.3849730641e-09
2.31902629093e-07
-2.08588342219e-09
2.31905817624e-07
-2.78732792628e-09
2.31910488691e-07
-3.48723643727e-09
2.31916041998e-07
-4.18897984806e-09
2.31921901913e-07
-4.88965732185e-09
2.31928534343e-07
-5.59303554309e-09
2.31935093047e-07
-6.29574763886e-09
2.31942313705e-07
-7.00163128468e-09
2.31949203249e-07
-7.70711668361e-09
2.31956609341e-07
-8.41607139234e-09
2.31963492218e-07
-9.12476218464e-09
2.3197076301e-07
-9.83700463192e-09
2.31977367555e-07
-1.05489758492e-08
2.31984191847e-07
-1.12643935591e-08
2.31990190304e-07
-1.19793417482e-08
2.31996199417e-07
-1.26974397189e-08
2.32001191694e-07
-1.34146644095e-08
2.32005958147e-07
-1.41345520601e-08
2.32009496613e-07
-1.48529637329e-08
2.32012565502e-07
-1.5573365645e-08
2.32014191825e-07
-1.62915104192e-08
2.32015110417e-07
-1.70107986252e-08
2.32014381143e-07
-1.77268902072e-08
2.32012722052e-07
-1.84431146213e-08
2.32009228523e-07
-1.91550668816e-08
2.32004603955e-07
-1.98659932133e-08
2.31997983075e-07
-2.05714547112e-08
2.3199005598e-07
-2.12745981123e-08
2.3197999999e-07
-2.19709880905e-08
2.31968490598e-07
-2.26636547603e-08
2.319547517e-07
-2.33482029005e-08
2.31939443141e-07
-2.40275294781e-08
2.31921838357e-07
-2.46973182062e-08
2.31902578898e-07
-2.53603188412e-08
2.31880990648e-07
-2.60123291584e-08
2.3185769465e-07
-2.66559407691e-08
2.31832070697e-07
-2.72870998699e-08
2.31804716169e-07
-2.79082326851e-08
2.31775066022e-07
-2.85154621492e-08
2.31743691754e-07
-2.91110449736e-08
2.31710083678e-07
-2.96913053323e-08
2.31674784986e-07
-3.02583295797e-08
2.31637341126e-07
-3.08086604845e-08
2.31598265216e-07
-3.13442168568e-08
2.31557156363e-07
-3.18617736186e-08
2.31514495897e-07
-3.23630888582e-08
2.31469934968e-07
-3.28451770644e-08
2.31423922587e-07
-3.33096456658e-08
2.31376159989e-07
-3.37537521405e-08
2.3132706406e-07
-3.41789656935e-08
2.31276384091e-07
-3.45827843145e-08
2.31224505467e-07
-3.4966553181e-08
2.31171222282e-07
-3.53280056786e-08
2.31116888573e-07
-3.56683790095e-08
2.31061339184e-07
-3.59856334564e-08
2.31004897089e-07
-3.62809150673e-08
2.30947433659e-07
-3.65524005544e-08
2.30889241871e-07
-3.68011602392e-08
2.30830225883e-07
-3.70255727921e-08
2.30770650029e-07
-3.72266455862e-08
2.30710447113e-07
-3.74029426885e-08
2.30649853966e-07
-3.75554175745e-08
2.30588827853e-07
-3.76827974871e-08
2.30527578973e-07
-3.7785979891e-08
2.30466083218e-07
-3.7863829822e-08
2.30404519467e-07
-3.79171825117e-08
2.30342870649e-07
-3.79443858617e-08
2.30281289469e-07
-3.79468382236e-08
2.30219560764e-07
-3.79245972616e-08
2.30157909887e-07
-3.78781293458e-08
2.30096695159e-07
-3.78068648769e-08
2.30036010493e-07
-3.77120088192e-08
2.29975816257e-07
-3.75932093025e-08
2.29916171398e-07
-3.74514999221e-08
2.29857092548e-07
-3.7286533898e-08
2.29798658818e-07
-3.70992795403e-08
2.29740913278e-07
-3.68894422516e-08
2.2968392977e-07
-3.66579644533e-08
2.29627759021e-07
-3.64046188826e-08
2.29572460682e-07
-3.61303368651e-08
2.29518086787e-07
-3.58349596798e-08
2.29464681497e-07
-3.5519412302e-08
2.29412295988e-07
-3.51835998023e-08
2.29360959488e-07
-3.48284410479e-08
2.29310721443e-07
-3.44538983077e-08
2.29261597394e-07
-3.4060882623e-08
2.29213634596e-07
-3.36494059621e-08
2.29166836034e-07
-3.32203689547e-08
2.29121246458e-07
-3.27738260827e-08
2.2907685756e-07
-3.23106646621e-08
2.29033711366e-07
-3.18309745476e-08
2.28991789314e-07
-3.13356267626e-08
2.28951130556e-07
-3.08247400774e-08
2.28911707477e-07
-3.02991663306e-08
2.28873556264e-07
-2.97590470692e-08
2.28836641283e-07
-2.92052121794e-08
2.2880099574e-07
-2.86378206233e-08
2.28766577178e-07
-2.80576778011e-08
2.28733415862e-07
-2.7464955173e-08
2.28701463547e-07
-2.68604313055e-08
2.28670747624e-07
-2.62442860298e-08
2.28641215241e-07
-2.56172690804e-08
2.2861289102e-07
-2.49795650004e-08
2.28585718536e-07
-2.43318930087e-08
2.28559719756e-07
-2.36744394483e-08
2.28534835846e-07
-2.30078917571e-08
2.28511086253e-07
-2.23324356286e-08
2.2848841074e-07
-2.16487258532e-08
2.28466826372e-07
-2.09569456796e-08
2.28446272603e-07
-2.02577168374e-08
2.28426764256e-07
-1.9551218799e-08
2.28408241415e-07
-1.8838040215e-08
2.28390716801e-07
-1.81183560836e-08
2.2837413211e-07
-1.73927223152e-08
2.28358498112e-07
-1.66613092395e-08
2.28343758961e-07
-1.59246405744e-08
2.28329923624e-07
-1.51828825421e-08
2.28316939578e-07
-1.44365272245e-08
2.28304814198e-07
-1.36857378474e-08
2.2829349907e-07
-1.2930975423e-08
2.28283000206e-07
-1.21724017993e-08
2.2827327414e-07
-1.14104474977e-08
2.28264325947e-07
-1.06452750058e-08
2.28256117957e-07
-9.87728525948e-09
2.28248654832e-07
-9.10664345176e-09
2.28241905805e-07
-8.33372014597e-09
2.28235876656e-07
-7.55868506337e-09
2.28230548059e-07
-6.78187558582e-09
2.28225941979e-07
-6.00347827743e-09
2.28222102345e-07
-5.22385115269e-09
2.28219234293e-07
-4.44342585553e-09
2.28217941329e-07
-3.66330788157e-09
2.28219982448e-07
-2.88628678297e-09
2.28229996796e-07
-2.11987518851e-09
2.28259351236e-07
-1.38327815388e-09
2.2833379385e-07
-7.19414867787e-10
2.28507559162e-07
-2.21941639226e-10
2.28879747774e-07
2.29544744693e-07
-7.50521455572e-10
2.3119959916e-07
-1.45407944315e-09
2.31200851748e-07
-2.18976718253e-09
2.3120468096e-07
-2.9271151968e-09
2.31209815789e-07
-3.66346147877e-09
2.31215744516e-07
-4.40214469216e-09
2.3122243173e-07
-5.14030559185e-09
2.31229779404e-07
-5.88136711835e-09
2.31237610693e-07
-6.62215194037e-09
2.31245848894e-07
-7.36624026947e-09
2.3125415083e-07
-8.11017415208e-09
2.31262584525e-07
-8.85749617943e-09
2.31270757739e-07
-9.6046405238e-09
2.31278774402e-07
-1.03550623426e-08
2.31286239257e-07
-1.11050810703e-08
2.31293256948e-07
-1.1858064551e-08
2.31299431373e-07
-1.26102090365e-08
2.31304851652e-07
-1.33648025291e-08
2.31309129649e-07
-1.41179128392e-08
2.31312339554e-07
-1.48727647995e-08
2.31314108568e-07
-1.56253024559e-08
2.31314504123e-07
-1.63786997134e-08
2.31313173061e-07
-1.71287923523e-08
2.31310182989e-07
-1.78787075912e-08
2.31305202619e-07
-1.86241966879e-08
2.31298306045e-07
-1.93683341971e-08
2.31289185169e-07
-2.01068171167e-08
2.31277924245e-07
-2.08426556284e-08
2.31264239426e-07
-2.15715267151e-08
2.31248228435e-07
-2.22963597396e-08
2.31229632706e-07
-2.30128484441e-08
2.31208564847e-07
-2.37238246743e-08
2.31184792361e-07
-2.44250361447e-08
2.31158444109e-07
-2.51192003573e-08
2.31129314266e-07
-2.58021554841e-08
2.31097547798e-07
-2.64764907084e-08
2.31062965557e-07
-2.71381689586e-08
2.31025728262e-07
-2.77896393066e-08
2.3098568296e-07
-2.84270206632e-08
2.30943004502e-07
-2.9052614284e-08
2.30897565055e-07
-2.96627218634e-08
2.30849552022e-07
-3.02594917703e-08
2.30798861458e-07
-3.08394301191e-08
2.30745691077e-07
-3.14045312373e-08
2.30689959185e-07
-3.19515218454e-08
2.3063187169e-07
-3.24822441545e-08
2.30571367509e-07
-3.2993656635e-08
2.30508658421e-07
-3.348745554e-08
2.30443702292e-07
-3.39608373304e-08
2.30376715018e-07
-3.44153611132e-08
2.30307672176e-07
-3.48484626904e-08
2.3023679224e-07
-3.52615754576e-08
2.3016406713e-07
-3.56523712642e-08
2.30089716395e-07
-3.60221705351e-08
2.30013746572e-07
-3.63688744607e-08
2.29936376264e-07
-3.66937051238e-08
2.29857624244e-07
-3.69947838471e-08
2.29777706088e-07
-3.72732494413e-08
2.29696650552e-07
-3.75274319222e-08
2.29614668476e-07
-3.77584013741e-08
2.29531796363e-07
-3.79646828187e-08
2.29448238595e-07
-3.81472902316e-08
2.29364036881e-07
-3.83049281625e-08
2.29279386956e-07
-3.84385643773e-08
2.29194332402e-07
-3.85470644458e-08
2.29109057482e-07
-3.86313529483e-08
2.29023603076e-07
-3.86904209468e-08
2.2893813548e-07
-3.87249494229e-08
2.28852682524e-07
-3.87342317785e-08
2.28767363669e-07
-3.87196617685e-08
2.28682312778e-07
-3.86805717089e-08
2.28597776809e-07
-3.8617766332e-08
2.28513809516e-07
-3.85306514838e-08
2.28430550038e-07
-3.84201483198e-08
2.28348019226e-07
-3.82858300862e-08
2.28266334622e-07
-3.8128637158e-08
2.2818552177e-07
-3.79482381378e-08
2.28105700563e-07
-3.77455640123e-08
2.2802690206e-07
-3.75203610676e-08
2.27949241912e-07
-3.72735507925e-08
2.27872749596e-07
-3.70049511605e-08
2.27797531687e-07
-3.67154769388e-08
2.27723612355e-07
-3.64050126476e-08
2.27651087145e-07
-3.60744675625e-08
2.27579973211e-07
-3.57237866531e-08
2.27510354401e-07
-3.53538730292e-08
2.27442240313e-07
-3.4964725287e-08
2.27375703282e-07
-3.45572385869e-08
2.27310745229e-07
-3.41314580708e-08
2.27247427303e-07
-3.3688268395e-08
2.27185743996e-07
-3.32277541953e-08
2.27125745914e-07
-3.27507868444e-08
2.27067420422e-07
-3.22574836892e-08
2.27010808157e-07
-3.17486998561e-08
2.26955889858e-07
-3.12245790393e-08
2.26902696979e-07
-3.06859572824e-08
2.26851204148e-07
-3.01329987431e-08
2.26801434322e-07
-2.9566517621e-08
2.26753356691e-07
-2.89866932076e-08
2.26706986584e-07
-2.83943153465e-08
2.26662288406e-07
-2.77895737751e-08
2.26619270606e-07
-2.71732316265e-08
2.26577893569e-07
-2.65454849675e-08
2.26538159754e-07
-2.59070682761e-08
2.26500026258e-07
-2.52581804774e-08
2.26463490322e-07
-2.4599525688e-08
2.26428506571e-07
-2.39313028255e-08
2.26395067895e-07
-2.32541844224e-08
2.26363127221e-07
-2.25683670784e-08
2.26332673838e-07
-2.18744908866e-08
2.26303659778e-07
-2.11727483934e-08
2.26276071545e-07
-2.04637468768e-08
2.26249861028e-07
-1.97476736284e-08
2.26225012633e-07
-1.90251031127e-08
2.26201478872e-07
-1.82962167224e-08
2.26179242775e-07
-1.75615564908e-08
2.26158258183e-07
-1.68212978549e-08
2.26138507383e-07
-1.6075950922e-08
2.26119946241e-07
-1.53256857399e-08
2.26102556955e-07
-1.45709811489e-08
2.26086298066e-07
-1.38120029446e-08
2.2607115231e-07
-1.3049199132e-08
2.2605708157e-07
-1.22827327715e-08
2.2604406977e-07
-1.1513021668e-08
2.26032082754e-07
-1.07402280373e-08
2.26021106268e-07
-9.9647401078e-09
2.26011110738e-07
-9.1867211857e-09
2.26002084405e-07
-8.40652937183e-09
2.25994003545e-07
-7.62433137692e-09
2.25986863544e-07
-6.84045409874e-09
2.25980665317e-07
-6.05508335726e-09
2.25975479459e-07
-5.26857993359e-09
2.25971555261e-07
-4.481395782e-09
2.25969713881e-07
-3.69469527654e-09
2.25972323509e-07
-2.91143722335e-09
2.25985722878e-07
-2.13954564246e-09
2.26025548553e-07
-1.39895328271e-09
2.26127514807e-07
-7.33101756049e-10
2.26366980784e-07
-2.33930305075e-10
2.26879530886e-07
2.27788044326e-07
-7.59545236904e-10
2.32255060578e-07
-1.47020709699e-09
2.32258201927e-07
-2.2135342129e-09
2.32262982066e-07
-2.95896197609e-09
2.32268916843e-07
-3.70380153358e-09
2.32275614296e-07
-4.45134910331e-09
2.32283347171e-07
-5.19858269969e-09
2.32291849348e-07
-5.94910033856e-09
2.32301057067e-07
-6.69964856339e-09
2.323106774e-07
-7.45370774838e-09
2.32320537388e-07
-8.20793853419e-09
2.32330346722e-07
-8.96576115058e-09
2.32339896949e-07
-9.72366752836e-09
2.32348965443e-07
-1.04850052559e-08
2.32357318995e-07
-1.12461305908e-08
2.32364758297e-07
-1.20103065305e-08
2.32371051672e-07
-1.27737443991e-08
2.32376008256e-07
-1.35396385379e-08
2.32379409412e-07
-1.43040523406e-08
2.32381071402e-07
-1.50701314988e-08
2.3238079548e-07
-1.58338016911e-08
2.32378409195e-07
-1.65981726265e-08
2.32373736504e-07
-1.73590540798e-08
2.32366620287e-07
-1.81195218275e-08
2.32356908036e-07
-1.88752985007e-08
2.32344462322e-07
-1.96294181932e-08
2.32329153974e-07
-2.03775507147e-08
2.32310868485e-07
-2.11226742913e-08
2.32289499926e-07
-2.18604427639e-08
2.3226495995e-07
-2.25937607644e-08
2.32237165555e-07
-2.33183049445e-08
2.32206056518e-07
-2.40368878298e-08
2.32171572561e-07
-2.47452471179e-08
2.32133683253e-07
-2.54460856211e-08
2.3209235045e-07
-2.61352392733e-08
2.32047573833e-07
-2.68152857953e-08
2.31999336541e-07
-2.74821934941e-08
2.3194766806e-07
-2.81384025689e-08
2.31892571313e-07
-2.87800445145e-08
2.31834103979e-07
-2.94094130849e-08
2.31772287007e-07
-3.00228288221e-08
2.31707204288e-07
-3.0622433674e-08
2.31638892754e-07
-3.12047582032e-08
2.31567459794e-07
-3.17717909092e-08
2.31492956362e-07
-3.23202876733e-08
2.31415510621e-07
-3.28520857402e-08
2.31335185624e-07
-3.33641766464e-08
2.312521274e-07
-3.38582523026e-08
2.31166409551e-07
-3.43315449976e-08
2.31078193417e-07
-3.47856102965e-08
2.30987561858e-07
-3.52179216695e-08
2.30894689017e-07
-3.56299096629e-08
2.30799665845e-07
-3.60192847624e-08
2.30702676773e-07
-3.638736559e-08
2.30603819311e-07
-3.67320922055e-08
2.30503285262e-07
-3.70546858086e-08
2.3040117684e-07
-3.73533059507e-08
2.3029769027e-07
-3.76290914843e-08
2.30192930578e-07
-3.78804096294e-08
2.30087095698e-07
-3.81083316619e-08
2.29980291674e-07
-3.83114190294e-08
2.29872715499e-07
-3.84906891691e-08
2.29764471943e-07
-3.86448833391e-08
2.29655753807e-07
-3.87749762763e-08
2.29546661389e-07
-3.88798723226e-08
2.29437379158e-07
-3.89605103249e-08
2.29327998377e-07
-3.90159192806e-08
2.29218686255e-07
-3.90468521005e-08
2.2910952787e-07
-3.90527046313e-08
2.29000715322e-07
-3.90346606541e-08
2.28892365373e-07
-3.89919155176e-08
2.28784687445e-07
-3.8925327473e-08
2.28677774681e-07
-3.88343120921e-08
2.28571781109e-07
-3.87197621583e-08
2.28466773232e-07
-3.85812393128e-08
2.28362891497e-07
-3.84196607515e-08
2.28260196492e-07
-3.82346980259e-08
2.28158822261e-07
-3.80272736303e-08
2.28058824471e-07
-3.77971476385e-08
2.27960329251e-07
-3.75452417898e-08
2.27863384861e-07
-3.72713930021e-08
2.27768107215e-07
-3.69765204544e-08
2.27674535203e-07
-3.66605293865e-08
2.27582773142e-07
-3.63243351321e-08
2.27492849447e-07
-3.59679035208e-08
2.27404856147e-07
-3.55921442311e-08
2.27318810794e-07
-3.51970761416e-08
2.27234793057e-07
-3.47836009523e-08
2.27152809645e-07
-3.43517831221e-08
2.27072928065e-07
-3.39025136123e-08
2.26995144538e-07
-3.34358952556e-08
2.26919514893e-07
-3.29528052936e-08
2.26846025394e-07
-3.24533780096e-08
2.26774720752e-07
-3.19384739161e-08
2.26705577976e-07
-3.14082523041e-08
2.26638631411e-07
-3.08635539977e-08
2.2657384962e-07
-3.03045573126e-08
2.26511257347e-07
-2.97320806036e-08
2.26450815626e-07
-2.91463158284e-08
2.263925405e-07
-2.85480562821e-08
2.2633638644e-07
-2.79375028221e-08
2.26282361647e-07
-2.73154213176e-08
2.26230415087e-07
-2.66820174283e-08
2.26180548069e-07
-2.60380275738e-08
2.26132705093e-07
-2.53836587328e-08
2.26086881491e-07
-2.47196162034e-08
2.26043018398e-07
-2.40461054331e-08
2.26001106112e-07
-2.33637993427e-08
2.25961083482e-07
-2.26728995761e-08
2.25922936656e-07
-2.19740458418e-08
2.25886603274e-07
-2.12674343237e-08
2.25852066221e-07
-2.05536711262e-08
2.25819262969e-07
-1.98329458147e-08
2.25788173956e-07
-1.91058309746e-08
2.25758737484e-07
-1.83725089514e-08
2.25730932363e-07
-1.76335192139e-08
2.25704698677e-07
-1.68890368747e-08
2.25680014362e-07
-1.61395688424e-08
2.25656822185e-07
-1.5385283666e-08
2.2563509995e-07
-1.46266562933e-08
2.25614793947e-07
-1.38638498803e-08
2.25595882596e-07
-1.30973078348e-08
2.25578316506e-07
-1.23271895711e-08
2.25562075383e-07
-1.15539075161e-08
2.25547114858e-07
-1.07776192294e-08
2.25533416569e-07
-9.99870677887e-09
2.25520941723e-07
-9.21732826023e-09
2.25509674292e-07
-8.43383545379e-09
2.25499582275e-07
-7.64839021294e-09
2.25490657547e-07
-6.86131503194e-09
2.25482898466e-07
-6.07279605773e-09
2.25476391333e-07
-5.28319704322e-09
2.25471450717e-07
-4.49299402186e-09
2.25469117061e-07
-3.70340238282e-09
2.2547240811e-07
-2.91749738547e-09
2.25489414728e-07
-2.14348483619e-09
2.25540138189e-07
-1.40179983709e-09
2.25670387932e-07
-7.36769030672e-10
2.25976736097e-07
-2.39947823287e-10
2.26630656726e-07
2.27776881997e-07
-7.59462884555e-10
2.33011297448e-07
-1.46931533939e-09
2.33015757117e-07
-2.21189875949e-09
2.33021595751e-07
-2.95700068468e-09
2.3302854662e-07
-3.70165984916e-09
2.33036444165e-07
-4.4494189689e-09
2.33045546959e-07
-5.19728774621e-09
2.33055593983e-07
-5.94874298286e-09
2.33066592425e-07
-6.70064426875e-09
2.33078079208e-07
-7.45652305958e-09
2.33089860828e-07
-8.21302349249e-09
2.33101547792e-07
-8.97354888722e-09
2.33112886418e-07
-9.73466078092e-09
2.33123506921e-07
-1.04996365515e-08
2.33133156152e-07
-1.12648925765e-08
2.33141497402e-07
-1.20336197194e-08
2.33148286862e-07
-1.28020657978e-08
2.33153218116e-07
-1.35733614576e-08
2.33156069484e-07
-1.434358451e-08
2.33156563022e-07
-1.51158278792e-08
2.33154506035e-07
-1.58860147242e-08
2.33149648952e-07
-1.66572122608e-08
2.33141829584e-07
-1.74252153397e-08
2.33130827065e-07
-1.81930653297e-08
2.33116508805e-07
-1.89564618988e-08
2.33098684029e-07
-1.97184102007e-08
2.33077248377e-07
-2.04745521212e-08
2.33052042946e-07
-2.12278400595e-08
2.3302299057e-07
-2.19738980615e-08
2.32989966356e-07
-2.27156061227e-08
2.32952919504e-07
-2.34486112549e-08
2.32911760718e-07
-2.41757012632e-08
2.328664648e-07
-2.48925864527e-08
2.3281697915e-07
-2.56019438904e-08
2.32763303217e-07
-2.62995855403e-08
2.32705421097e-07
-2.69880618822e-08
2.326433555e-07
-2.76633217834e-08
2.32577126245e-07
-2.83277763508e-08
2.32506777424e-07
-2.89775423899e-08
2.32432362448e-07
-2.96148826397e-08
2.3235394454e-07
-3.02361080098e-08
2.32271607958e-07
-3.08433276345e-08
2.32185432749e-07
-3.14330672371e-08
2.3209553073e-07
-3.20072812577e-08
2.32001996511e-07
-3.25627254793e-08
2.31904966109e-07
-3.31012024341e-08
2.31804546708e-07
-3.36197077644e-08
2.31700895127e-07
-3.41198987313e-08
2.31594129421e-07
-3.45990154892e-08
2.31484424059e-07
-3.50585796333e-08
2.31371906568e-07
-3.5496075558e-08
2.31256766005e-07
-3.59129013177e-08
2.31139137982e-07
-3.63067810239e-08
2.31019223075e-07
-3.6679002943e-08
2.30897163363e-07
-3.7027522924e-08
2.30773167596e-07
-3.73535345178e-08
2.30647382329e-07
-3.7655214803e-08
2.30520021172e-07
-3.79336780147e-08
2.30391233138e-07
-3.81873101667e-08
2.30261233638e-07
-3.84171613207e-08
2.30130172137e-07
-3.86218129554e-08
2.29998262854e-07
-3.88022650007e-08
2.29865653224e-07
-3.89572801518e-08
2.29732552708e-07
-3.90878203511e-08
2.29599103327e-07
-3.91928137827e-08
2.29465505579e-07
-3.92731951437e-08
2.29331891887e-07
-3.93279600675e-08
2.29198447806e-07
-3.93579483279e-08
2.29065305092e-07
-3.93625254389e-08
2.28932677535e-07
-3.93427467637e-08
2.28800697943e-07
-3.92978892002e-08
2.28669571657e-07
-3.92288334775e-08
2.28539423605e-07
-3.91350367628e-08
2.28410425212e-07
-3.9017396681e-08
2.28282684926e-07
-3.8875497185e-08
2.28156358852e-07
-3.87102520645e-08
2.28031543975e-07
-3.85213528978e-08
2.2790838434e-07
-3.83097215941e-08
2.27786966489e-07
-3.80751410003e-08
2.27667422254e-07
-3.78185362713e-08
2.27549826804e-07
-3.75397694762e-08
2.27434298777e-07
-3.72397659599e-08
2.27320900919e-07
-3.69184572334e-08
2.27209737864e-07
-3.65767663331e-08
2.27100859216e-07
-3.62146854534e-08
2.26994355195e-07
-3.58331326728e-08
2.26890261995e-07
-3.54321526545e-08
2.26788655406e-07
-3.50126556169e-08
2.26689558321e-07
-3.45747308275e-08
2.26593032379e-07
-3.41192775331e-08
2.26499087575e-07
-3.36464220707e-08
2.26407771945e-07
-3.31570495332e-08
2.26319083215e-07
-3.26513161925e-08