/*--------------------------------*- C++ -*----------------------------------*\
| =========                 |                                                 |
| \\      /  F ield         | OpenFOAM: The Open Source CFD Toolbox           |
|  \\    /   O peration     | Version:  2212                                  |
|   \\  /    A nd           | Website:  www.openfoam.com                      |
|    \\/     M anipulation  |                                                 |
\*---------------------------------------------------------------------------*/
FoamFile
{
    version     2.0;
    format      ascii;
    arch        "LSB;label=64;scalar=64";
    class       volScalarField::Internal;
    location    "1650";
    object      dGco2;
}
// * * * * * * * * * * * * * * * * * * * * * * * * * * * * * * * * * * * * * //

dimensions      [1 -3 -1 0 0 0 0];

value           nonuniform List<scalar> 
1024
(
0.000144024
0.000144065
0.000144169
0.000144359
0.000144668
0.000145137
0.000145809
0.000146731
0.000147949
0.000149502
0.000151415
0.000153685
0.000156252
0.000158967
0.000161584
0.000163783
0.000165074
0.000165266
0.000164639
0.000163437
0.000161842
0.000160014
0.000158118
0.000156311
0.000154722
0.000153421
0.000152424
0.000151706
0.000151222
0.000150921
0.000150757
0.000150691
0.000144044
0.000144086
0.00014419
0.000144382
0.000144695
0.000145168
0.000145846
0.000146776
0.000148004
0.000149567
0.000151491
0.000153772
0.00015635
0.000159073
0.000161694
0.000163894
0.000165186
0.000165376
0.000164744
0.000163539
0.00016194
0.000160108
0.000158203
0.000156386
0.000154783
0.000153468
0.000152459
0.000151732
0.000151242
0.000150938
0.000150772
0.000150705
0.000144094
0.000144137
0.000144243
0.000144438
0.000144758
0.000145241
0.000145933
0.000146881
0.00014813
0.000149716
0.000151665
0.000153972
0.000156574
0.000159319
0.000161956
0.000164167
0.000165461
0.000165643
0.000164994
0.000163768
0.000162151
0.000160302
0.000158379
0.000156539
0.000154909
0.000153567
0.000152535
0.00015179
0.000151288
0.000150978
0.000150808
0.00015074
0.000144185
0.000144229
0.000144338
0.00014454
0.000144869
0.000145369
0.000146084
0.000147063
0.000148347
0.000149974
0.000151966
0.000154317
0.000156963
0.00015975
0.000162424
0.000164663
0.000165967
0.000166128
0.000165434
0.000164153
0.000162487
0.000160599
0.000158642
0.000156765
0.000155097
0.000153718
0.000152653
0.000151884
0.000151366
0.000151045
0.000150871
0.000150801
0.000144333
0.000144378
0.000144491
0.000144701
0.000145046
0.000145569
0.000146318
0.000147342
0.00014868
0.000150368
0.000152425
0.000154845
0.000157564
0.000160424
0.000163167
0.00016546
0.000166785
0.000166907
0.000166122
0.000164729
0.00016296
0.000160995
0.000158978
0.000157051
0.000155335
0.000153912
0.00015281
0.000152013
0.000151478
0.000151147
0.000150968
0.000150896
0.000144555
0.000144602
0.00014472
0.000144941
0.000145305
0.000145861
0.000146657
0.000147743
0.000149158
0.000150934
0.000153086
0.000155607
0.000158436
0.000161412
0.000164266
0.000166649
0.000168005
0.00016806
0.000167121
0.000165534
0.000163584
0.000161482
0.000159369
0.000157371
0.0001556
0.000154132
0.000152996
0.000152176
0.000151626
0.000151288
0.000151107
0.000151034
0.000144874
0.000144923
0.000145047
0.000145282
0.000145671
0.000146268
0.000147127
0.000148297
0.000149818
0.000151715
0.000154001
0.000156667
0.000159654
0.000162798
0.000165813
0.000168321
0.000169715
0.000169668
0.0001685
0.000166617
0.000164383
0.000162061
0.000159798
0.000157703
0.00015587
0.000154363
0.000153204
0.000152372
0.000151818
0.000151481
0.000151301
0.00015123
0.000145318
0.000145369
0.0001455
0.000145751
0.000146173
0.000146823
0.000147762
0.000149043
0.000150705
0.000152768
0.000155238
0.000158107
0.000161312
0.00016468
0.000167902
0.00017056
0.00017199
0.000171808
0.000170335
0.000168052
0.000165414
0.000162766
0.000160278
0.000158048
0.000156144
0.000154608
0.000153443
0.00015262
0.000152079
0.000151756
0.000151588
0.000151523
0.00014592
0.000145973
0.000146113
0.000146384
0.000146845
0.000147562
0.000148604
0.000150029
0.000151877
0.000154162
0.000156884
0.000160024
0.000163511
0.000167153
0.00017061
0.000173429
0.000174892
0.000174563
0.000172751
0.000169986
0.000166829
0.000163729
0.000160916
0.000158493
0.000156497
0.000154936
0.000153787
0.000152995
0.000152493
0.000152203
0.000152059
0.000152007
0.000146722
0.000146777
0.000146926
0.000147222
0.000147731
0.000148532
0.000149704
0.000151314
0.000153403
0.000155981
0.000159032
0.00016252
0.000166347
0.000170289
0.00017398
0.000176953
0.000178474
0.000178066
0.000175983
0.000172757
0.000169015
0.00016533
0.000162054
0.000159337
0.000157194
0.00015559
0.00015446
0.000153721
0.000153279
0.000153045
0.000152943
0.000152912
0.000147766
0.000147824
0.000147985
0.00014831
0.000148879
0.000149784
0.00015112
0.000152963
0.000155357
0.000158303
0.000161764
0.000165664
0.00016986
0.000174091
0.000177984
0.000181113
0.000182794
0.000182522
0.000180436
0.000176985
0.000172778
0.000168472
0.000164573
0.000161379
0.000158943
0.000157201
0.000156044
0.000155343
0.000154969
0.000154805
0.000154757
0.000154756
0.000149092
0.000149154
0.00014933
0.000149692
0.000150334
0.000151366
0.000152899
0.000155023
0.000157783
0.000161163
0.000165087
0.000169422
0.000173966
0.00017843
0.000182481
0.000185803
0.000187849
0.00018812
0.000186575
0.00018348
0.000179304
0.000174668
0.000170189
0.000166333
0.000163335
0.000161205
0.000159838
0.000159058
0.000158686
0.00015856
0.000158554
0.000158578
0.000150719
0.000150786
0.000150979
0.000151384
0.00015211
0.000153286
0.000155041
0.000157475
0.00016063
0.000164461
0.000168836
0.000173553
0.000178352
0.00018295
0.000187105
0.000190675
0.000193319
0.000194612
0.000194339
0.000192528
0.000189382
0.000185319
0.000180883
0.000176612
0.000172938
0.000170097
0.00016814
0.000166949
0.000166335
0.000166089
0.000166035
0.000166048
0.00015262
0.000152692
0.000152902
0.000153348
0.000154154
0.000155468
0.000157433
0.000160155
0.000163663
0.000167875
0.000172598
0.000177555
0.000182449
0.000187026
0.000191152
0.000194865
0.000198082
0.00020057
0.000202063
0.000202382
0.000201425
0.00019928
0.000196219
0.000192637
0.000188978
0.000185663
0.000182982
0.000181058
0.000179849
0.000179199
0.000178918
0.000178841
0.000154696
0.000154771
0.000154992
0.000155462
0.000156318
0.000157717
0.000159813
0.000162713
0.000166431
0.00017085
0.000175719
0.000180702
0.000185461
0.000189754
0.00019351
0.00019689
0.000200087
0.000203244
0.000206217
0.000208707
0.000210376
0.000211011
0.000210565
0.000209147
0.000207004
0.000204483
0.000201967
0.000199792
0.000198155
0.000197095
0.000196527
0.000196314
0.000156767
0.000156842
0.00015706
0.000157523
0.000158364
0.000159741
0.000161811
0.000164681
0.000168362
0.000172719
0.000177466
0.000182215
0.000186572
0.000190249
0.000193155
0.000195477
0.000197678
0.000200467
0.000203966
0.000207824
0.000211528
0.000214648
0.000216909
0.000218196
0.000218534
0.000218075
0.000217072
0.000215835
0.000214657
0.000213744
0.000213175
0.000212928
0.000158468
0.000158539
0.00015874
0.000159161
0.00015992
0.000161161
0.000163034
0.000165648
0.000169022
0.000173033
0.000177399
0.000181707
0.000185509
0.000188438
0.000190316
0.00019128
0.000191976
0.000193651
0.000196808
0.000201171
0.000206109
0.000210964
0.000215233
0.000218617
0.000221006
0.000222442
0.000223076
0.000223131
0.00022286
0.000222495
0.000222198
0.000222045
0.000159565
0.000159631
0.000159813
0.000160182
0.000160837
0.000161903
0.000163511
0.000165771
0.000168714
0.000172249
0.000176125
0.000179952
0.000183268
0.000185659
0.000186873
0.000186973
0.000186632
0.000187292
0.000189756
0.000194029
0.000199594
0.000205684
0.000211543
0.000216594
0.000220532
0.000223297
0.000225008
0.000225889
0.000226204
0.00022621
0.000226111
0.000226033
0.00016016
0.000160222
0.000160386
0.000160709
0.00016127
0.000162173
0.00016353
0.000165441
0.000167951
0.000170997
0.000174376
0.000177747
0.000180681
0.000182763
0.000183713
0.000183538
0.000182878
0.000183109
0.000185062
0.000188947
0.000194505
0.000201126
0.000208012
0.000214382
0.000219678
0.000223646
0.000226304
0.000227854
0.000228591
0.000228826
0.000228827
0.000228778
0.000160445
0.000160501
0.000160645
0.000160925
0.000161405
0.000162167
0.000163306
0.000164909
0.000167022
0.000169606
0.000172506
0.000175441
0.000178046
0.00017995
0.000180889
0.000180856
0.000180433
0.000180793
0.000182638
0.000186233
0.000191511
0.000198097
0.00020535
0.000212468
0.000218739
0.000223712
0.000227246
0.000229457
0.000230624
0.00023109
0.000231183
0.000231154
0.00016063
0.000160673
0.000160787
0.000161013
0.000161406
0.000162037
0.000162984
0.000164319
0.000166083
0.000168251
0.000170708
0.00017324
0.000175561
0.000177378
0.000178484
0.000178897
0.000179108
0.000179992
0.000182061
0.000185569
0.000190557
0.000196837
0.000203962
0.00021128
0.000218071
0.000223747
0.000227999
0.000230816
0.000232409
0.000233119
0.000233313
0.000233307
0.000160995
0.000161012
0.000161069
0.000161207
0.000161482
0.00016196
0.000162713
0.000163802
0.000165261
0.000167074
0.00016916
0.00017137
0.000173506
0.000175366
0.000176818
0.000177917
0.000179017
0.000180634
0.000183083
0.000186602
0.000191314
0.000197168
0.000203879
0.000210967
0.000217832
0.00022387
0.000228639
0.000231974
0.000233976
0.00023494
0.000235248
0.000235268
0.000161895
0.000161864
0.000161824
0.00016182
0.000161916
0.000162192
0.000162726
0.00016358
0.000164784
0.000166334
0.000168181
0.000170232
0.000172365
0.000174457
0.000176436
0.000178375
0.000180444
0.000182806
0.000185625
0.000189136
0.000193518
0.000198839
0.000204963
0.000211551
0.000218136
0.000224195
0.000229244
0.000232975
0.000235347
0.000236568
0.000237003
0.000237054
0.000163706
0.000163603
0.000163422
0.000163219
0.000163081
0.000163114
0.000163418
0.00016407
0.000165112
0.00016655
0.000168357
0.000170475
0.000172825
0.000175327
0.000177933
0.000180705
0.000183626
0.000186574
0.000189623
0.000193023
0.000196993
0.00020168
0.000207074
0.000212975
0.000219036
0.000224829
0.000229904
0.000233873
0.000236549
0.000238018
0.000238589
0.000238678
0.000166753
0.000166556
0.000166204
0.000165783
0.000165417
0.000165239
0.00016538
0.000165941
0.000166979
0.000168501
0.00017048
0.00017286
0.00017557
0.000178534
0.000181704
0.000185112
0.000188597
0.000191858
0.000194934
0.000198092
0.000201571
0.000205559
0.000210131
0.000215206
0.000220559
0.000225864
0.000230725
0.000234743
0.000237622
0.000239308
0.000240018
0.000240152
0.000171261
0.000170956
0.000170445
0.000169874
0.000169401
0.000169178
0.000169339
0.000170001
0.00017122
0.000172985
0.000175249
0.000177941
0.000180974
0.000184269
0.000187765
0.000191472
0.000195147
0.000198418
0.000201317
0.000204115
0.000207052
0.000210323
0.000214045
0.00021822
0.000222735
0.00022737
0.000231808
0.000235672
0.000238615
0.000240458
0.0002413
0.000241485
0.000177354
0.000176945
0.00017636
0.000175823
0.000175503
0.00017551
0.000175941
0.000176893
0.000178399
0.000180425
0.000182911
0.000185772
0.000188918
0.000192265
0.000195752
0.000199377
0.00020288
0.000205893
0.000208451
0.000210812
0.000213193
0.000215771
0.000218672
0.000221948
0.000225564
0.000229398
0.000233232
0.000236748
0.00023959
0.000241497
0.000242442
0.000242681
0.000185111
0.000184641
0.000184164
0.000183953
0.000184095
0.000184592
0.000185462
0.00018676
0.00018849
0.000190624
0.000193108
0.000195867
0.000198822
0.0002019
0.000205049
0.000208264
0.000211311
0.000213873
0.000215986
0.000217872
0.000219713
0.000221656
0.000223813
0.00022625
0.00022898
0.000231955
0.000235053
0.000238046
0.000240615
0.000242462
0.000243458
0.000243747
0.000194658
0.000194236
0.000194145
0.000194541
0.000195319
0.000196357
0.00019761
0.000199101
0.000200835
0.000202815
0.000205013
0.000207382
0.000209864
0.000212407
0.00021497
0.000217551
0.000219963
0.000221961
0.00022358
0.00022499
0.00022633
0.000227712
0.000229223
0.000230926
0.000232847
0.000234983
0.000237285
0.00023962
0.000241752
0.000243397
0.000244364
0.000244684
0.000206266
0.000206107
0.000206652
0.000207677
0.000208911
0.000210215
0.000211546
0.000212929
0.000214388
0.000215954
0.00021763
0.000219393
0.000221213
0.000223056
0.000224895
0.000226728
0.000228426
0.000229822
0.000230938
0.000231895
0.000232786
0.000233687
0.000234658
0.000235745
0.000236974
0.000238355
0.000239881
0.000241493
0.000243055
0.000244353
0.000245186
0.000245498
0.000220431
0.000220775
0.000221785
0.000222929
0.000224065
0.00022514
0.000226143
0.000227104
0.000228054
0.000229031
0.000230049
0.000231104
0.000232183
0.000233268
0.000234345
0.000235411
0.000236394
0.000237198
0.000237837
0.000238379
0.000238876
0.000239372
0.0002399
0.000240486
0.000241148
0.000241894
0.000242728
0.000243635
0.000244555
0.000245376
0.000245955
0.000246202
0.000237751
0.000238019
0.000238536
0.000239034
0.000239493
0.000239908
0.000240279
0.00024062
0.000240946
0.000241273
0.000241609
0.000241954
0.000242306
0.000242658
0.000243006
0.00024335
0.000243667
0.000243925
0.00024413
0.000244302
0.00024446
0.000244615
0.00024478
0.000244961
0.000245165
0.000245395
0.000245653
0.000245936
0.000246229
0.000246503
0.000246713
0.000246814
)
;


// ************************************************************************* //
