/*--------------------------------*- C++ -*----------------------------------*\
| =========                 |                                                 |
| \\      /  F ield         | OpenFOAM: The Open Source CFD Toolbox           |
|  \\    /   O peration     | Version:  2212                                  |
|   \\  /    A nd           | Website:  www.openfoam.com                      |
|    \\/     M anipulation  |                                                 |
\*---------------------------------------------------------------------------*/
FoamFile
{
    version     2.0;
    format      ascii;
    arch        "LSB;label=64;scalar=64";
    class       volScalarField;
    location    "1650";
    object      Gch4;
}
// * * * * * * * * * * * * * * * * * * * * * * * * * * * * * * * * * * * * * //

dimensions      [1 -3 0 0 0 0 0];

internalField   nonuniform List<scalar> 
1024
(
1.93498
1.93486
1.93457
1.93403
1.93316
1.93184
1.92995
1.92735
1.92393
1.91957
1.9142
1.90784
1.90066
1.89309
1.88582
1.87974
1.8762
1.87572
1.8775
1.88087
1.88533
1.89044
1.89574
1.90079
1.90523
1.90888
1.91167
1.91368
1.91504
1.91588
1.91634
1.91652
1.93492
1.9348
1.93451
1.93397
1.93309
1.93175
1.92984
1.92723
1.92378
1.91938
1.91398
1.90759
1.90039
1.8928
1.88552
1.87943
1.87589
1.87542
1.87721
1.88059
1.88506
1.89018
1.8955
1.90058
1.90506
1.90874
1.91157
1.91361
1.91498
1.91583
1.9163
1.91648
1.93478
1.93466
1.93436
1.93381
1.93291
1.93155
1.9296
1.92693
1.92342
1.91896
1.9135
1.90703
1.89976
1.89211
1.88479
1.87868
1.87513
1.87468
1.87652
1.87996
1.88447
1.88964
1.89501
1.90016
1.90471
1.90847
1.91136
1.91345
1.91485
1.91572
1.9162
1.91639
1.93452
1.9344
1.93409
1.93352
1.93259
1.93119
1.92918
1.92642
1.92281
1.91824
1.91266
1.90607
1.89868
1.89091
1.88349
1.87731
1.87374
1.87334
1.87531
1.87889
1.88355
1.88882
1.89428
1.89953
1.90419
1.90805
1.91103
1.91319
1.91464
1.91553
1.91602
1.91622
1.9341
1.93398
1.93366
1.93307
1.9321
1.93063
1.92852
1.92564
1.92188
1.91714
1.91137
1.9046
1.897
1.88904
1.88143
1.8751
1.87148
1.8712
1.87341
1.87731
1.88225
1.88773
1.89335
1.89874
1.90353
1.90751
1.9106
1.91283
1.91433
1.91525
1.91575
1.91596
1.93348
1.93335
1.93302
1.93239
1.93137
1.92981
1.92757
1.92452
1.92054
1.91556
1.90952
1.90247
1.89457
1.8863
1.87839
1.87182
1.86811
1.86802
1.87067
1.8751
1.88053
1.88639
1.89228
1.89786
1.9028
1.90691
1.91008
1.91238
1.91392
1.91486
1.91537
1.91558
1.93258
1.93245
1.9321
1.93144
1.93034
1.92866
1.92625
1.92296
1.91869
1.91337
1.90697
1.89951
1.89118
1.88244
1.8741
1.86719
1.8634
1.86359
1.86688
1.87213
1.87835
1.88481
1.89111
1.89695
1.90206
1.90627
1.90951
1.91184
1.91339
1.91433
1.91483
1.91503
1.93134
1.93119
1.93083
1.93012
1.92894
1.92711
1.92447
1.92088
1.91621
1.91043
1.90351
1.8955
1.88657
1.87722
1.86831
1.861
1.85712
1.85771
1.86184
1.8682
1.87553
1.88288
1.8898
1.89601
1.90132
1.9056
1.90886
1.91116
1.91267
1.91357
1.91404
1.91423
1.92965
1.9295
1.92911
1.92835
1.92705
1.92504
1.92212
1.91812
1.91294
1.90654
1.89892
1.89016
1.88045
1.87035
1.86081
1.85308
1.84913
1.85012
1.8552
1.86289
1.87166
1.88026
1.88807
1.89481
1.90036
1.90471
1.90792
1.91013
1.91153
1.91234
1.91274
1.91289
1.9274
1.92724
1.92682
1.926
1.92457
1.92232
1.91904
1.91452
1.90867
1.90146
1.89294
1.88321
1.87257
1.86166
1.85149
1.84335
1.83925
1.84048
1.84632
1.85528
1.86566
1.87588
1.88496
1.8925
1.89846
1.90292
1.90607
1.90813
1.90937
1.91002
1.91031
1.91039
1.92447
1.92431
1.92385
1.92294
1.92135
1.91881
1.91507
1.90991
1.90322
1.89498
1.88533
1.87447
1.86282
1.85112
1.84041
1.83186
1.82734
1.8282
1.83405
1.84365
1.85531
1.86724
1.87804
1.88689
1.89365
1.89849
1.9017
1.90365
1.9047
1.90516
1.90529
1.9053
1.92075
1.92057
1.92008
1.91907
1.91727
1.91439
1.9101
1.90416
1.89644
1.88701
1.87607
1.86402
1.85143
1.8391
1.82798
1.81891
1.8134
1.81277
1.81713
1.82575
1.83732
1.85015
1.86255
1.87322
1.88153
1.88743
1.89122
1.89339
1.89442
1.89477
1.89479
1.89473
1.91618
1.916
1.91546
1.91433
1.9123
1.90901
1.90411
1.89731
1.8885
1.87782
1.86564
1.85254
1.83926
1.82658
1.81518
1.80545
1.79829
1.79486
1.79572
1.8008
1.80954
1.82078
1.83305
1.84485
1.85501
1.86286
1.86828
1.87157
1.87327
1.87396
1.87411
1.87407
1.91085
1.91065
1.91007
1.90883
1.90657
1.90291
1.89742
1.88982
1.88004
1.8683
1.85517
1.84142
1.82788
1.81528
1.80396
1.79384
1.78511
1.7784
1.77443
1.77366
1.77637
1.78233
1.7908
1.80069
1.81078
1.81992
1.82731
1.83262
1.83595
1.83775
1.83852
1.83874
1.90503
1.90482
1.90421
1.9029
1.90051
1.8966
1.89076
1.88267
1.87231
1.86
1.84647
1.83265
1.81949
1.80766
1.79736
1.78815
1.77948
1.77096
1.76295
1.75626
1.75179
1.75013
1.75141
1.75533
1.76123
1.76816
1.77507
1.78104
1.78554
1.78845
1.79001
1.7906
1.89921
1.899
1.8984
1.89711
1.89476
1.89092
1.88515
1.87715
1.86689
1.85476
1.84155
1.82837
1.81631
1.80616
1.79819
1.79186
1.78593
1.77844
1.76902
1.75863
1.74865
1.74023
1.73413
1.73067
1.72977
1.73103
1.73376
1.73713
1.74034
1.74283
1.74438
1.74505
1.89441
1.89422
1.89366
1.89249
1.89038
1.88692
1.88169
1.8744
1.865
1.85382
1.84166
1.82968
1.81912
1.811
1.80582
1.80319
1.80136
1.79691
1.78844
1.7767
1.7634
1.75032
1.73881
1.72968
1.72322
1.71933
1.71761
1.71744
1.71816
1.71913
1.71993
1.72034
1.8913
1.89111
1.89061
1.88959
1.88776
1.8848
1.88031
1.87401
1.86579
1.85593
1.84512
1.83445
1.8252
1.81854
1.81515
1.81486
1.81584
1.81413
1.80754
1.79604
1.78105
1.76463
1.74884
1.73523
1.72462
1.71716
1.71253
1.71014
1.70927
1.70924
1.70949
1.7097
1.88958
1.88941
1.88896
1.88807
1.8865
1.88399
1.88021
1.87487
1.86787
1.85936
1.84992
1.8405
1.83229
1.82645
1.82376
1.8242
1.82603
1.82548
1.82026
1.80981
1.79483
1.77698
1.75841
1.74125
1.72698
1.71629
1.70912
1.70494
1.70294
1.70229
1.70227
1.7024
1.88874
1.88859
1.88819
1.88741
1.88608
1.88396
1.88078
1.87631
1.87041
1.86318
1.85507
1.84685
1.83955
1.83419
1.83152
1.83156
1.83272
1.8318
1.82687
1.81719
1.80296
1.78519
1.76564
1.74645
1.72956
1.71616
1.70665
1.70069
1.69754
1.69627
1.69601
1.69608
1.88819
1.88807
1.88775
1.88713
1.88604
1.88428
1.88164
1.87791
1.87298
1.86691
1.86003
1.85294
1.84642
1.8413
1.83817
1.83699
1.83641
1.83406
1.8285
1.81905
1.80558
1.78864
1.76941
1.74969
1.73139
1.71611
1.70466
1.69708
1.69278
1.69086
1.69033
1.69034
1.88716
1.88712
1.88695
1.88657
1.8858
1.88447
1.88236
1.87932
1.87524
1.87017
1.86432
1.85813
1.85214
1.84692
1.84284
1.83979
1.83678
1.83242
1.82581
1.81631
1.80359
1.78778
1.76967
1.75056
1.73207
1.71581
1.70298
1.694
1.68861
1.68601
1.68518
1.68512
1.88469
1.88477
1.88488
1.88488
1.8846
1.88382
1.88232
1.87993
1.87656
1.87222
1.86706
1.86133
1.85537
1.84953
1.84404
1.8387
1.83305
1.82665
1.81902
1.80953
1.79769
1.78332
1.76679
1.74902
1.73128
1.71496
1.70138
1.69134
1.68496
1.68167
1.6805
1.68035
1.87975
1.88003
1.88052
1.88106
1.88142
1.8813
1.88044
1.87861
1.87569
1.87168
1.86666
1.86077
1.85425
1.84732
1.84013
1.83253
1.82456
1.81656
1.8083
1.7991
1.78836
1.77569
1.76113
1.74521
1.72888
1.71328
1.69963
1.68895
1.68176
1.67781
1.67627
1.67602
1.87146
1.87199
1.87295
1.87408
1.87506
1.87552
1.87511
1.87353
1.87065
1.86643
1.86096
1.85439
1.84691
1.83876
1.83005
1.82073
1.81123
1.80236
1.79402
1.78547
1.77605
1.76527
1.75292
1.73923
1.7248
1.71052
1.69744
1.68664
1.6789
1.67437
1.67245
1.67209
1.85921
1.86004
1.86142
1.86297
1.86424
1.86482
1.86436
1.86252
1.85916
1.8543
1.84808
1.84068
1.83236
1.82332
1.81375
1.80362
1.79361
1.78471
1.77684
1.76926
1.76131
1.75246
1.74241
1.73114
1.71897
1.70649
1.69455
1.68416
1.67625
1.6713
1.66904
1.66854
1.84267
1.84378
1.84536
1.84681
1.84767
1.84764
1.84645
1.84383
1.8397
1.83415
1.82735
1.81951
1.81091
1.80175
1.79222
1.78232
1.77278
1.76458
1.75763
1.75123
1.74478
1.73781
1.72997
1.72113
1.71138
1.70105
1.69074
1.68128
1.67365
1.66853
1.66599
1.66534
1.82162
1.82289
1.82418
1.82475
1.82436
1.823
1.82062
1.81708
1.81235
1.80653
1.79974
1.79221
1.78413
1.77572
1.76713
1.75836
1.75006
1.74309
1.73734
1.73223
1.72724
1.72198
1.71615
1.70957
1.70221
1.69419
1.68586
1.67781
1.67091
1.66595
1.66328
1.6625
1.79572
1.79687
1.79711
1.79603
1.79392
1.7911
1.78768
1.78362
1.7789
1.7735
1.76751
1.76105
1.75427
1.74733
1.74034
1.7333
1.72673
1.72129
1.71689
1.71307
1.70943
1.70569
1.70161
1.69701
1.69183
1.68607
1.67988
1.6736
1.66787
1.66346
1.66086
1.66001
1.76425
1.76468
1.7632
1.76042
1.75707
1.75353
1.74991
1.74615
1.74218
1.73791
1.73335
1.72854
1.72358
1.71855
1.71354
1.70854
1.70391
1.70012
1.69708
1.69448
1.69207
1.68963
1.687
1.68406
1.68075
1.67703
1.67292
1.66859
1.66439
1.66091
1.65868
1.65784
1.72585
1.72492
1.72218
1.71908
1.716
1.71308
1.71035
1.70775
1.70516
1.7025
1.69973
1.69685
1.69391
1.69095
1.68802
1.68511
1.68243
1.68024
1.67851
1.67704
1.67569
1.67434
1.67292
1.67133
1.66955
1.66753
1.66529
1.66285
1.66038
1.65818
1.65663
1.65596
1.67891
1.67819
1.67678
1.67543
1.67419
1.67306
1.67206
1.67113
1.67024
1.66935
1.66844
1.6675
1.66654
1.66558
1.66463
1.66369
1.66283
1.66213
1.66157
1.6611
1.66068
1.66025
1.65981
1.65932
1.65877
1.65815
1.65745
1.65669
1.65591
1.65517
1.65461
1.65434
)
;

boundaryField
{
    movingWall
    {
        type            fixedValue;
        value           uniform 1.6535;
    }
    fixedWalls
    {
        type            zeroGradient;
    }
    floor
    {
        type            zeroGradient;
    }
    frontAndBack
    {
        type            empty;
    }
}


// ************************************************************************* //
