/*--------------------------------*- C++ -*----------------------------------*\
| =========                 |                                                 |
| \\      /  F ield         | OpenFOAM: The Open Source CFD Toolbox           |
|  \\    /   O peration     | Version:  2212                                  |
|   \\  /    A nd           | Website:  www.openfoam.com                      |
|    \\/     M anipulation  |                                                 |
\*---------------------------------------------------------------------------*/
FoamFile
{
    version     2.0;
    format      ascii;
    arch        "LSB;label=64;scalar=64";
    class       volScalarField;
    location    "1650";
    object      Gco2;
}
// * * * * * * * * * * * * * * * * * * * * * * * * * * * * * * * * * * * * * //

dimensions      [1 -3 0 0 0 0 0];

internalField   nonuniform List<scalar> 
1024
(
0.0591288
0.0591102
0.0590642
0.0589794
0.0588414
0.0586326
0.0583331
0.0579221
0.0573796
0.0566879
0.055836
0.0548259
0.0536849
0.0524793
0.0513186
0.0503447
0.0497734
0.0496899
0.0499697
0.0505037
0.0512123
0.0520241
0.0528666
0.0536689
0.0543749
0.054953
0.0553962
0.0557153
0.0559303
0.0560638
0.0561367
0.0561664
0.0591197
0.0591009
0.0590545
0.058969
0.0588297
0.0586188
0.0583166
0.057902
0.0573553
0.056659
0.0558023
0.0547872
0.0536416
0.0524325
0.0512698
0.0502951
0.0497239
0.0496414
0.0499227
0.0504585
0.0511688
0.0519827
0.0528286
0.0536359
0.0543479
0.0549322
0.0553806
0.0557037
0.0559214
0.0560564
0.0561301
0.05616
0.0590974
0.0590783
0.0590311
0.0589439
0.0588017
0.0585864
0.0582779
0.0578554
0.0572992
0.0565925
0.0557247
0.0546983
0.0535418
0.0523233
0.0511536
0.0501744
0.0496019
0.0495231
0.0498121
0.050357
0.0510754
0.0518965
0.0527505
0.0535681
0.054292
0.0548882
0.055347
0.0556779
0.0559008
0.0560389
0.0561141
0.0561446
0.0590567
0.0590371
0.0589886
0.0588987
0.0587519
0.0585294
0.0582106
0.0577746
0.0572025
0.0564779
0.0555912
0.0545451
0.0533688
0.0521316
0.0509458
0.0499544
0.0493777
0.0493079
0.0496169
0.0501862
0.0509265
0.0517647
0.0526339
0.0534675
0.0542085
0.0548214
0.0552945
0.0556363
0.0558664
0.0560088
0.0560861
0.0561174
0.0589911
0.0589708
0.0589205
0.0588269
0.0586735
0.0584404
0.0581065
0.0576506
0.0570544
0.0563027
0.0553869
0.0543103
0.053102
0.0518323
0.0506164
0.0496007
0.0490151
0.0489628
0.049312
0.0499312
0.0507168
0.0515894
0.0524848
0.053341
0.0541032
0.0547355
0.0552249
0.0555787
0.0558168
0.0559637
0.0560432
0.0560752
0.0588924
0.0588714
0.0588188
0.0587204
0.0585581
0.0583108
0.057956
0.0574723
0.0568419
0.0560513
0.0550934
0.0539716
0.0527148
0.051394
0.0501289
0.0490737
0.0484743
0.0484517
0.0488693
0.0495743
0.0504401
0.0513736
0.0523117
0.0531991
0.0539857
0.0546377
0.0551422
0.0555065
0.0557509
0.0559011
0.0559818
0.0560141
0.0587506
0.0587288
0.0586735
0.058569
0.0583955
0.0581296
0.0577472
0.0572261
0.056549
0.0557043
0.054687
0.0535008
0.0521737
0.0507787
0.0494426
0.0483324
0.0477164
0.047739
0.0482586
0.0490944
0.0500861
0.0511171
0.0521219
0.0530522
0.0538662
0.0545353
0.0550501
0.0554197
0.0556659
0.0558158
0.0558955
0.0559269
0.0585534
0.0585308
0.0584724
0.0583606
0.0581729
0.0578834
0.0574653
0.0568948
0.0561552
0.055237
0.0541374
0.0528616
0.051438
0.0499437
0.0485161
0.0473396
0.0467081
0.0467909
0.0474452
0.0484589
0.0496295
0.0508049
0.0519091
0.0528993
0.0537447
0.054427
0.054944
0.05531
0.05555
0.0556935
0.0557682
0.055797
0.0582859
0.0582622
0.0582002
0.0580795
0.0578745
0.0575554
0.0570916
0.0564572
0.055635
0.0546181
0.0534071
0.0520108
0.0504621
0.0488466
0.0473151
0.0460683
0.0454223
0.0455698
0.0463749
0.0476016
0.0490025
0.0503784
0.0516267
0.0527024
0.0535883
0.0542814
0.054792
0.0551433
0.0553667
0.0554953
0.0555591
0.0555822
0.0579301
0.0579054
0.057839
0.0577076
0.0574812
0.0571249
0.0566034
0.0558869
0.0549576
0.0538111
0.052454
0.0509036
0.0492043
0.0474561
0.0458214
0.0445065
0.0438346
0.0440173
0.0449423
0.0463733
0.0480336
0.0496687
0.0511224
0.052328
0.0532793
0.0539916
0.0544933
0.0548216
0.0550177
0.0551215
0.0551671
0.0551807
0.0574667
0.0574407
0.057369
0.0572243
0.0569713
0.0565688
0.0559751
0.0551554
0.0540907
0.0527806
0.0512422
0.0495091
0.0476463
0.0457706
0.0440467
0.0426629
0.0419204
0.0420424
0.0429683
0.044499
0.0463648
0.0482751
0.0500046
0.0514223
0.0525034
0.0532767
0.0537904
0.0541016
0.0542678
0.0543405
0.0543618
0.0543624
0.0568779
0.0568503
0.0567721
0.0566111
0.0563257
0.055867
0.0551855
0.0542412
0.0530144
0.051512
0.0497683
0.0478427
0.0458264
0.0438477
0.0420542
0.0405847
0.0396804
0.0395619
0.0402477
0.0416197
0.0434714
0.0455269
0.0475132
0.049224
0.0505544
0.0514997
0.0521068
0.052453
0.0526183
0.0526743
0.0526772
0.0526667
0.0561555
0.0561259
0.05604
0.0558603
0.0555378
0.0550152
0.0542353
0.0531533
0.0517514
0.0500493
0.0481056
0.0460116
0.0438829
0.0418452
0.0400054
0.038426
0.0372571
0.0366861
0.0368079
0.0376106
0.0390048
0.0408055
0.042772
0.0446655
0.046295
0.0475555
0.0484238
0.0489523
0.049225
0.0493346
0.0493586
0.0493531
0.0553116
0.0552799
0.0551865
0.0549886
0.0546303
0.0540468
0.0531739
0.0519645
0.0504061
0.0485351
0.0464382
0.0442377
0.0420672
0.0400394
0.038213
0.0365704
0.0351481
0.0340486
0.0333885
0.0332481
0.0336723
0.0346222
0.0359781
0.0375651
0.0391864
0.0406557
0.041844
0.0426972
0.0432333
0.043522
0.0436464
0.043681
0.0543898
0.0543567
0.0542587
0.0540497
0.0536696
0.0530483
0.0521177
0.0508298
0.0491785
0.0472162
0.0450544
0.0428433
0.0407328
0.0388309
0.0371683
0.0356738
0.0342611
0.0328665
0.0315526
0.0304519
0.0297139
0.029433
0.0296305
0.0302578
0.0312061
0.032322
0.0334361
0.034399
0.035124
0.0355938
0.0358451
0.0359398
0.0534697
0.0534367
0.0533399
0.0531345
0.0527611
0.0521495
0.0512306
0.049956
0.0483215
0.0463869
0.0442795
0.0421722
0.0402399
0.0386103
0.0373244
0.036298
0.0353273
0.0340964
0.0325511
0.0308469
0.0292097
0.0278305
0.0268303
0.0262606
0.0261105
0.0263128
0.0267557
0.0273026
0.0278234
0.028227
0.0284784
0.0285875
0.0527136
0.0526822
0.0525928
0.0524062
0.0520695
0.0515182
0.0506868
0.0495262
0.0480281
0.046247
0.0443087
0.0423964
0.0407093
0.0394106
0.0385789
0.0381532
0.0378479
0.0371101
0.0357167
0.0337897
0.0316083
0.0294628
0.0275761
0.0260806
0.0250242
0.0243888
0.0241077
0.0240827
0.0242018
0.0243628
0.0244937
0.0245611
0.0522254
0.0521959
0.0521153
0.0519516
0.0516609
0.0511879
0.0504738
0.0494706
0.0481636
0.046594
0.0448726
0.0431735
0.041701
0.0406397
0.0401006
0.0400569
0.0402096
0.0399202
0.0388333
0.0369463
0.034488
0.0317969
0.0292085
0.0269766
0.0252365
0.0240145
0.0232581
0.0228685
0.0227285
0.0227252
0.0227689
0.0228031
0.0519598
0.0519322
0.0518596
0.0517165
0.0514674
0.0510669
0.0504645
0.0496157
0.0485013
0.0471486
0.0456476
0.0441505
0.0428471
0.0419216
0.0414989
0.0415755
0.0418688
0.0417686
0.0409074
0.0391917
0.0367365
0.0338117
0.0307691
0.0279551
0.0256153
0.023862
0.0226875
0.0220026
0.0216766
0.0215722
0.0215717
0.0215932
0.0518321
0.0518072
0.0517431
0.0516191
0.0514064
0.0510683
0.0505627
0.0498508
0.0489124
0.0477646
0.0464765
0.0451725
0.0440148
0.0431681
0.0427498
0.042763
0.0429508
0.042793
0.041979
0.0403914
0.0380599
0.0351501
0.0319459
0.0288014
0.0260308
0.023834
0.022273
0.0212962
0.0207806
0.0205745
0.0205331
0.0205454
0.051749
0.0517298
0.0516791
0.0515789
0.0514046
0.0511248
0.0507045
0.0501117
0.0493284
0.0483652
0.0472736
0.0461486
0.0451168
0.0443086
0.0438164
0.0436321
0.0435385
0.0431485
0.0422352
0.0406858
0.0384818
0.0357074
0.0325591
0.0293263
0.0263267
0.0238197
0.0219413
0.0206972
0.0199933
0.0196796
0.0195935
0.019596
0.0515863
0.0515789
0.0515533
0.051492
0.0513704
0.0511582
0.0508239
0.0503401
0.0496922
0.048887
0.0479603
0.0469783
0.0460289
0.045202
0.0445567
0.0440685
0.0435814
0.0428673
0.0417853
0.0402302
0.0381481
0.0355615
0.0325964
0.0294651
0.0264327
0.023766
0.0216594
0.0201868
0.0193026
0.0188766
0.0187403
0.0187313
0.0511875
0.0512011
0.0512185
0.0512204
0.0511775
0.0510547
0.0508175
0.0504385
0.0499036
0.0492152
0.0483951
0.0474841
0.0465365
0.0456075
0.0447293
0.0438699
0.0429538
0.0419093
0.0406634
0.0391121
0.0371753
0.0348241
0.0321183
0.0292077
0.0262991
0.023623
0.0213931
0.0197456
0.0186981
0.0181585
0.0179665
0.0179438
0.0503859
0.0504312
0.0505114
0.0506012
0.0506616
0.0506466
0.0505115
0.0502219
0.0497592
0.0491208
0.0483189
0.047379
0.0463361
0.0452266
0.044071
0.0428432
0.0415504
0.0402465
0.0388983
0.0373956
0.0356411
0.0335697
0.0311863
0.0285793
0.0259022
0.0233434
0.0211021
0.0193494
0.0181678
0.0175189
0.0172668
0.0172274
0.0490377
0.0491247
0.0492806
0.0494664
0.0496282
0.0497063
0.0496436
0.0493944
0.0489339
0.0482589
0.0473817
0.0463264
0.0451255
0.0438118
0.0424073
0.0408981
0.0393559
0.0379134
0.0365533
0.0351572
0.0336196
0.0318569
0.0298366
0.0275945
0.0252297
0.0228869
0.0207399
0.0189658
0.0176947
0.0169502
0.0166364
0.0165773
0.0470438
0.0471787
0.0474047
0.0476572
0.047866
0.0479645
0.0478929
0.0475992
0.0470592
0.0462774
0.0452744
0.044082
0.0427381
0.0412788
0.0397305
0.0380895
0.0364632
0.0350163
0.0337345
0.032497
0.0311987
0.0297532
0.0281087
0.0262638
0.0242693
0.0222224
0.0202625
0.018556
0.0172568
0.0164429
0.0160713
0.0159895
0.0443495
0.0445301
0.0447888
0.0450259
0.0451677
0.0451641
0.0449735
0.0445518
0.0438854
0.0429882
0.0418877
0.0406209
0.0392281
0.0377462
0.0362023
0.0345978
0.0330478
0.0317148
0.0305832
0.0295394
0.028487
0.0273476
0.0260653
0.0246178
0.0230207
0.0213273
0.0196341
0.0180814
0.0168267
0.0159849
0.0155674
0.0154617
0.0409194
0.0411272
0.0413378
0.041431
0.0413684
0.0411482
0.0407633
0.0401891
0.0394238
0.0384795
0.0373804
0.036159
0.0348512
0.0334884
0.0320945
0.0306716
0.0293235
0.0281901
0.0272551
0.0264211
0.0256073
0.0247488
0.0237955
0.0227183
0.0215125
0.0201984
0.0188302
0.0175088
0.0163745
0.0155592
0.0151194
0.014992
0.0366978
0.0368846
0.0369247
0.0367496
0.0364058
0.0359467
0.0353925
0.034733
0.0339659
0.03309
0.0321173
0.0310691
0.0299707
0.0288452
0.0277106
0.0265687
0.0255015
0.0246171
0.0239011
0.0232777
0.0226851
0.0220745
0.0214064
0.0206541
0.0198053
0.0188616
0.0178453
0.0168142
0.0158728
0.0151465
0.0147197
0.0145787
0.0315657
0.0316362
0.031395
0.0309421
0.0303964
0.0298198
0.029231
0.0286196
0.0279743
0.0272814
0.0265403
0.0257599
0.0249547
0.0241391
0.0233251
0.0225139
0.0217625
0.0211452
0.0206511
0.0202281
0.0198341
0.019436
0.0190067
0.0185265
0.0179836
0.0173731
0.0166996
0.0159876
0.015298
0.0147252
0.0143575
0.0142195
0.0253033
0.0251514
0.0247048
0.0241989
0.0236967
0.0232213
0.0227778
0.0223532
0.0219327
0.0215006
0.0210503
0.0205834
0.0201061
0.019626
0.0191495
0.0186776
0.0182427
0.017887
0.0176043
0.0173648
0.0171448
0.0169257
0.0166923
0.0164332
0.0161409
0.0158111
0.0154427
0.0150425
0.014636
0.0142738
0.0140184
0.0139092
0.0176466
0.0175281
0.0172992
0.017079
0.0168763
0.0166928
0.0165286
0.0163778
0.0162336
0.016089
0.0159405
0.0157877
0.0156323
0.0154764
0.0153223
0.01517
0.01503
0.0149157
0.0148251
0.0147488
0.0146792
0.0146105
0.0145378
0.0144575
0.0143673
0.0142657
0.014152
0.0140272
0.0138975
0.0137766
0.0136842
0.0136395
)
;

boundaryField
{
    movingWall
    {
        type            fixedValue;
        value           uniform 0.0135;
    }
    fixedWalls
    {
        type            zeroGradient;
    }
    floor
    {
        type            zeroGradient;
    }
    frontAndBack
    {
        type            empty;
    }
}


// ************************************************************************* //
