/*--------------------------------*- C++ -*----------------------------------*\
| =========                 |                                                 |
| \\      /  F ield         | OpenFOAM: The Open Source CFD Toolbox           |
|  \\    /   O peration     | Version:  2212                                  |
|   \\  /    A nd           | Website:  www.openfoam.com                      |
|    \\/     M anipulation  |                                                 |
\*---------------------------------------------------------------------------*/
FoamFile
{
    version     2.0;
    format      ascii;
    arch        "LSB;label=64;scalar=64";
    class       volScalarField;
    location    "1650";
    object      Gh2;
}
// * * * * * * * * * * * * * * * * * * * * * * * * * * * * * * * * * * * * * //

dimensions      [1 -3 0 0 0 0 0];

internalField   nonuniform List<scalar> 
1024
(
1.28243e-05
1.28235e-05
1.28213e-05
1.28174e-05
1.28111e-05
1.28015e-05
1.27877e-05
1.27688e-05
1.27439e-05
1.27124e-05
1.26737e-05
1.26281e-05
1.2577e-05
1.25236e-05
1.2473e-05
1.24315e-05
1.24083e-05
1.24064e-05
1.242e-05
1.24444e-05
1.24762e-05
1.25127e-05
1.25505e-05
1.25867e-05
1.26186e-05
1.26448e-05
1.26649e-05
1.26794e-05
1.26892e-05
1.26952e-05
1.26986e-05
1.26999e-05
1.28239e-05
1.2823e-05
1.28209e-05
1.2817e-05
1.28105e-05
1.28008e-05
1.27869e-05
1.27679e-05
1.27428e-05
1.2711e-05
1.26721e-05
1.26263e-05
1.25751e-05
1.25216e-05
1.24709e-05
1.24294e-05
1.24062e-05
1.24044e-05
1.2418e-05
1.24425e-05
1.24744e-05
1.25109e-05
1.25489e-05
1.25852e-05
1.26174e-05
1.26439e-05
1.26642e-05
1.26789e-05
1.26888e-05
1.26949e-05
1.26983e-05
1.26996e-05
1.28229e-05
1.2822e-05
1.28198e-05
1.28158e-05
1.28092e-05
1.27993e-05
1.27851e-05
1.27657e-05
1.27403e-05
1.2708e-05
1.26686e-05
1.26224e-05
1.25707e-05
1.25168e-05
1.24659e-05
1.24243e-05
1.24011e-05
1.23995e-05
1.24134e-05
1.24382e-05
1.24705e-05
1.25072e-05
1.25455e-05
1.25823e-05
1.2615e-05
1.26419e-05
1.26627e-05
1.26778e-05
1.26879e-05
1.26942e-05
1.26976e-05
1.2699e-05
1.2821e-05
1.28201e-05
1.28178e-05
1.28137e-05
1.28069e-05
1.27967e-05
1.27821e-05
1.27621e-05
1.27359e-05
1.27029e-05
1.26626e-05
1.26155e-05
1.2563e-05
1.25085e-05
1.2457e-05
1.24149e-05
1.23917e-05
1.23905e-05
1.24054e-05
1.24312e-05
1.24643e-05
1.25017e-05
1.25405e-05
1.2578e-05
1.26113e-05
1.2639e-05
1.26605e-05
1.2676e-05
1.26864e-05
1.26929e-05
1.26964e-05
1.26978e-05
1.28179e-05
1.2817e-05
1.28147e-05
1.28104e-05
1.28033e-05
1.27926e-05
1.27773e-05
1.27564e-05
1.27292e-05
1.26949e-05
1.26535e-05
1.26051e-05
1.25513e-05
1.24954e-05
1.24428e-05
1.23999e-05
1.23765e-05
1.23762e-05
1.23928e-05
1.24207e-05
1.24557e-05
1.24944e-05
1.25343e-05
1.25726e-05
1.26068e-05
1.26353e-05
1.26575e-05
1.26735e-05
1.26843e-05
1.2691e-05
1.26946e-05
1.2696e-05
1.28134e-05
1.28124e-05
1.281e-05
1.28055e-05
1.2798e-05
1.27867e-05
1.27704e-05
1.27483e-05
1.27195e-05
1.26836e-05
1.26403e-05
1.259e-05
1.25342e-05
1.24763e-05
1.24218e-05
1.23775e-05
1.23539e-05
1.23551e-05
1.23747e-05
1.24063e-05
1.24445e-05
1.24856e-05
1.25272e-05
1.25667e-05
1.26019e-05
1.26312e-05
1.2654e-05
1.26705e-05
1.26815e-05
1.26883e-05
1.2692e-05
1.26935e-05
1.28068e-05
1.28058e-05
1.28033e-05
1.27985e-05
1.27905e-05
1.27783e-05
1.27609e-05
1.27371e-05
1.27062e-05
1.2668e-05
1.26222e-05
1.25691e-05
1.25104e-05
1.24496e-05
1.23923e-05
1.23461e-05
1.23222e-05
1.23257e-05
1.23498e-05
1.23869e-05
1.24304e-05
1.24755e-05
1.25197e-05
1.25609e-05
1.25971e-05
1.26271e-05
1.26502e-05
1.26669e-05
1.2678e-05
1.26848e-05
1.26884e-05
1.26899e-05
1.27977e-05
1.27966e-05
1.2794e-05
1.27889e-05
1.27803e-05
1.2767e-05
1.2748e-05
1.2722e-05
1.26884e-05
1.2647e-05
1.25976e-05
1.25408e-05
1.24782e-05
1.24133e-05
1.23526e-05
1.23042e-05
1.22801e-05
1.22866e-05
1.23168e-05
1.23614e-05
1.24124e-05
1.24634e-05
1.25116e-05
1.25551e-05
1.25925e-05
1.26229e-05
1.2646e-05
1.26625e-05
1.26733e-05
1.26798e-05
1.26832e-05
1.26845e-05
1.27853e-05
1.27842e-05
1.27814e-05
1.27759e-05
1.27665e-05
1.2752e-05
1.27309e-05
1.27021e-05
1.26649e-05
1.26192e-05
1.2565e-05
1.25032e-05
1.24354e-05
1.23658e-05
1.23013e-05
1.22505e-05
1.22266e-05
1.22364e-05
1.22732e-05
1.2327e-05
1.23876e-05
1.24469e-05
1.2501e-05
1.25478e-05
1.25867e-05
1.26174e-05
1.26401e-05
1.26558e-05
1.26658e-05
1.26716e-05
1.26745e-05
1.26756e-05
1.27689e-05
1.27677e-05
1.27647e-05
1.27588e-05
1.27485e-05
1.27323e-05
1.27086e-05
1.26762e-05
1.26344e-05
1.2583e-05
1.25226e-05
1.24544e-05
1.23805e-05
1.23058e-05
1.22376e-05
1.21848e-05
1.21606e-05
1.21724e-05
1.22146e-05
1.22772e-05
1.23488e-05
1.24189e-05
1.24813e-05
1.25334e-05
1.25748e-05
1.2606e-05
1.26281e-05
1.26427e-05
1.26514e-05
1.26561e-05
1.26583e-05
1.26589e-05
1.27475e-05
1.27463e-05
1.27431e-05
1.27365e-05
1.27251e-05
1.27068e-05
1.268e-05
1.26431e-05
1.25954e-05
1.25369e-05
1.24689e-05
1.23931e-05
1.23127e-05
1.22332e-05
1.21621e-05
1.21072e-05
1.20808e-05
1.20906e-05
1.21332e-05
1.22002e-05
1.22805e-05
1.23621e-05
1.2436e-05
1.24967e-05
1.25432e-05
1.25767e-05
1.25991e-05
1.26128e-05
1.26201e-05
1.26234e-05
1.26245e-05
1.26246e-05
1.27203e-05
1.27191e-05
1.27156e-05
1.27083e-05
1.26955e-05
1.26748e-05
1.26441e-05
1.26018e-05
1.2547e-05
1.24803e-05
1.24037e-05
1.232e-05
1.22336e-05
1.21506e-05
1.20773e-05
1.20196e-05
1.19869e-05
1.19871e-05
1.20201e-05
1.20807e-05
1.21606e-05
1.22483e-05
1.23327e-05
1.24054e-05
1.24621e-05
1.25025e-05
1.25285e-05
1.25435e-05
1.25507e-05
1.25532e-05
1.25534e-05
1.2553e-05
1.2687e-05
1.26857e-05
1.26819e-05
1.26738e-05
1.26594e-05
1.26359e-05
1.2601e-05
1.25527e-05
1.24904e-05
1.24152e-05
1.23302e-05
1.22397e-05
1.21492e-05
1.20643e-05
1.19897e-05
1.19279e-05
1.18845e-05
1.18663e-05
1.18762e-05
1.19135e-05
1.19745e-05
1.20515e-05
1.21349e-05
1.22149e-05
1.22837e-05
1.23369e-05
1.23736e-05
1.23959e-05
1.24075e-05
1.24122e-05
1.24132e-05
1.2413e-05
1.26481e-05
1.26467e-05
1.26426e-05
1.26338e-05
1.26178e-05
1.25918e-05
1.25528e-05
1.2499e-05
1.243e-05
1.23477e-05
1.22563e-05
1.21616e-05
1.20698e-05
1.19857e-05
1.19119e-05
1.18475e-05
1.17939e-05
1.17542e-05
1.17326e-05
1.17315e-05
1.17528e-05
1.17947e-05
1.18525e-05
1.19193e-05
1.19871e-05
1.20484e-05
1.20979e-05
1.21335e-05
1.21558e-05
1.21678e-05
1.2173e-05
1.21744e-05
1.26056e-05
1.26041e-05
1.25998e-05
1.25906e-05
1.25737e-05
1.25461e-05
1.25047e-05
1.24476e-05
1.23746e-05
1.22884e-05
1.21943e-05
1.20992e-05
1.20098e-05
1.19309e-05
1.18636e-05
1.18052e-05
1.1752e-05
1.1701e-05
1.16536e-05
1.16147e-05
1.15895e-05
1.15818e-05
1.15924e-05
1.16195e-05
1.16591e-05
1.1705e-05
1.17506e-05
1.17899e-05
1.18194e-05
1.18386e-05
1.18488e-05
1.18526e-05
1.25628e-05
1.25614e-05
1.25572e-05
1.25482e-05
1.25317e-05
1.25045e-05
1.24638e-05
1.24072e-05
1.2335e-05
1.22499e-05
1.21578e-05
1.20667e-05
1.19842e-05
1.19159e-05
1.18634e-05
1.18235e-05
1.1788e-05
1.17442e-05
1.16889e-05
1.16275e-05
1.15684e-05
1.15185e-05
1.14825e-05
1.14622e-05
1.14575e-05
1.1466e-05
1.14835e-05
1.1505e-05
1.15253e-05
1.15411e-05
1.15509e-05
1.15551e-05
1.25271e-05
1.25258e-05
1.25219e-05
1.25138e-05
1.24989e-05
1.24745e-05
1.24376e-05
1.23861e-05
1.23196e-05
1.22409e-05
1.21555e-05
1.20719e-05
1.19987e-05
1.19429e-05
1.19078e-05
1.18911e-05
1.18815e-05
1.1857e-05
1.18081e-05
1.17392e-05
1.16607e-05
1.15833e-05
1.1515e-05
1.14607e-05
1.14221e-05
1.13985e-05
1.13877e-05
1.13862e-05
1.13901e-05
1.13956e-05
1.14002e-05
1.14026e-05
1.25032e-05
1.2502e-05
1.24985e-05
1.24914e-05
1.24787e-05
1.24578e-05
1.24261e-05
1.23814e-05
1.23232e-05
1.22533e-05
1.21768e-05
1.21014e-05
1.20363e-05
1.19892e-05
1.19649e-05
1.19623e-05
1.19699e-05
1.19622e-05
1.19247e-05
1.18572e-05
1.17685e-05
1.16712e-05
1.15777e-05
1.14971e-05
1.14342e-05
1.13899e-05
1.13621e-05
1.13473e-05
1.13415e-05
1.13407e-05
1.13418e-05
1.13428e-05
1.24894e-05
1.24882e-05
1.24851e-05
1.2479e-05
1.24681e-05
1.24504e-05
1.24237e-05
1.23858e-05
1.23359e-05
1.22753e-05
1.2208e-05
1.21408e-05
1.20821e-05
1.20398e-05
1.20194e-05
1.20209e-05
1.20333e-05
1.20323e-05
1.2003e-05
1.19416e-05
1.18527e-05
1.17466e-05
1.16364e-05
1.15347e-05
1.14504e-05
1.13872e-05
1.13447e-05
1.13196e-05
1.13073e-05
1.13029e-05
1.13025e-05
1.1303e-05
1.24819e-05
1.24808e-05
1.24781e-05
1.24728e-05
1.24635e-05
1.24486e-05
1.24262e-05
1.23944e-05
1.23522e-05
1.23005e-05
1.22423e-05
1.21832e-05
1.21303e-05
1.2091e-05
1.20703e-05
1.20688e-05
1.20766e-05
1.20729e-05
1.20449e-05
1.19879e-05
1.19032e-05
1.17973e-05
1.16809e-05
1.15672e-05
1.14673e-05
1.13882e-05
1.13321e-05
1.12968e-05
1.12778e-05
1.127e-05
1.1268e-05
1.12682e-05
1.24768e-05
1.2476e-05
1.24738e-05
1.24695e-05
1.24619e-05
1.24496e-05
1.24309e-05
1.24043e-05
1.23691e-05
1.23255e-05
1.22759e-05
1.22245e-05
1.2177e-05
1.21393e-05
1.21156e-05
1.21061e-05
1.21026e-05
1.20895e-05
1.20572e-05
1.20011e-05
1.19207e-05
1.18194e-05
1.17048e-05
1.15876e-05
1.14794e-05
1.13893e-05
1.13219e-05
1.12772e-05
1.12517e-05
1.12401e-05
1.12367e-05
1.12365e-05
1.24693e-05
1.24689e-05
1.24677e-05
1.24649e-05
1.24595e-05
1.245e-05
1.2435e-05
1.24133e-05
1.2384e-05
1.23474e-05
1.23052e-05
1.22604e-05
1.22169e-05
1.2179e-05
1.21495e-05
1.21281e-05
1.21091e-05
1.2083e-05
1.20437e-05
1.19868e-05
1.19105e-05
1.18158e-05
1.17076e-05
1.1594e-05
1.14845e-05
1.13887e-05
1.13132e-05
1.12605e-05
1.12287e-05
1.12132e-05
1.1208e-05
1.12075e-05
1.24531e-05
1.24535e-05
1.2454e-05
1.24537e-05
1.24513e-05
1.24455e-05
1.24345e-05
1.24173e-05
1.2393e-05
1.23619e-05
1.23249e-05
1.22838e-05
1.22414e-05
1.22003e-05
1.21622e-05
1.21266e-05
1.20909e-05
1.20516e-05
1.20055e-05
1.19483e-05
1.18769e-05
1.17906e-05
1.16917e-05
1.15859e-05
1.14808e-05
1.13846e-05
1.13048e-05
1.1246e-05
1.12086e-05
1.11891e-05
1.1182e-05
1.1181e-05
1.24218e-05
1.24235e-05
1.24264e-05
1.24294e-05
1.24311e-05
1.24295e-05
1.24227e-05
1.24093e-05
1.23885e-05
1.23602e-05
1.23248e-05
1.22838e-05
1.22388e-05
1.21916e-05
1.21435e-05
1.20939e-05
1.20436e-05
1.1994e-05
1.19436e-05
1.18877e-05
1.18228e-05
1.17465e-05
1.16592e-05
1.15644e-05
1.14675e-05
1.13755e-05
1.12953e-05
1.12329e-05
1.11908e-05
1.11676e-05
1.11584e-05
1.11568e-05
1.23701e-05
1.23733e-05
1.23791e-05
1.23858e-05
1.23914e-05
1.23934e-05
1.23897e-05
1.23782e-05
1.23581e-05
1.23291e-05
1.22919e-05
1.22476e-05
1.21975e-05
1.21434e-05
1.20865e-05
1.20264e-05
1.19665e-05
1.19114e-05
1.18601e-05
1.18079e-05
1.17508e-05
1.16858e-05
1.16117e-05
1.153e-05
1.14443e-05
1.13601e-05
1.12832e-05
1.12201e-05
1.11749e-05
1.11484e-05
1.11372e-05
1.11349e-05
1.2294e-05
1.22991e-05
1.23075e-05
1.23168e-05
1.23242e-05
1.23272e-05
1.23233e-05
1.23106e-05
1.2288e-05
1.22557e-05
1.22146e-05
1.2166e-05
1.21115e-05
1.20527e-05
1.19909e-05
1.19262e-05
1.18631e-05
1.18077e-05
1.17592e-05
1.17127e-05
1.16643e-05
1.16108e-05
1.15504e-05
1.14831e-05
1.14108e-05
1.13371e-05
1.1267e-05
1.12062e-05
1.11602e-05
1.11313e-05
1.11181e-05
1.11151e-05
1.21918e-05
1.21986e-05
1.22083e-05
1.2217e-05
1.22219e-05
1.22212e-05
1.2213e-05
1.21958e-05
1.21689e-05
1.21329e-05
1.20889e-05
1.20383e-05
1.19828e-05
1.1924e-05
1.1863e-05
1.18001e-05
1.174e-05
1.16889e-05
1.16459e-05
1.16066e-05
1.15672e-05
1.1525e-05
1.14778e-05
1.14249e-05
1.1367e-05
1.13059e-05
1.12453e-05
1.119e-05
1.11456e-05
1.11159e-05
1.11011e-05
1.10973e-05
1.20621e-05
1.20699e-05
1.20777e-05
1.20811e-05
1.20784e-05
1.20696e-05
1.20543e-05
1.20317e-05
1.20015e-05
1.19644e-05
1.19211e-05
1.1873e-05
1.18214e-05
1.17678e-05
1.1713e-05
1.16574e-05
1.16053e-05
1.15617e-05
1.15261e-05
1.14946e-05
1.14641e-05
1.14322e-05
1.1397e-05
1.13576e-05
1.13138e-05
1.12664e-05
1.12174e-05
1.11704e-05
1.11302e-05
1.11015e-05
1.1086e-05
1.10815e-05
1.19029e-05
1.19099e-05
1.19113e-05
1.19046e-05
1.18914e-05
1.18737e-05
1.18523e-05
1.18268e-05
1.1797e-05
1.17629e-05
1.17249e-05
1.1684e-05
1.1641e-05
1.15969e-05
1.15525e-05
1.1508e-05
1.14667e-05
1.14327e-05
1.14054e-05
1.13817e-05
1.13595e-05
1.13367e-05
1.13121e-05
1.12845e-05
1.12536e-05
1.12195e-05
1.11831e-05
1.11464e-05
1.11131e-05
1.10876e-05
1.10726e-05
1.10676e-05
1.17097e-05
1.17124e-05
1.17033e-05
1.16861e-05
1.16655e-05
1.16435e-05
1.1621e-05
1.15976e-05
1.15727e-05
1.15459e-05
1.15171e-05
1.14868e-05
1.14554e-05
1.14235e-05
1.13917e-05
1.13602e-05
1.13311e-05
1.13073e-05
1.12884e-05
1.12724e-05
1.12575e-05
1.12427e-05
1.12268e-05
1.12092e-05
1.11894e-05
1.11673e-05
1.11432e-05
1.11178e-05
1.10934e-05
1.10733e-05
1.10605e-05
1.10556e-05
1.14745e-05
1.14688e-05
1.1452e-05
1.14329e-05
1.1414e-05
1.1396e-05
1.13791e-05
1.13629e-05
1.13468e-05
1.13301e-05
1.13127e-05
1.12946e-05
1.1276e-05
1.12573e-05
1.12387e-05
1.12203e-05
1.12035e-05
1.11898e-05
1.1179e-05
1.11699e-05
1.11616e-05
1.11534e-05
1.11447e-05
1.11352e-05
1.11246e-05
1.11126e-05
1.10994e-05
1.10851e-05
1.10707e-05
1.1058e-05
1.10491e-05
1.10453e-05
1.11873e-05
1.11829e-05
1.11743e-05
1.1166e-05
1.11584e-05
1.11514e-05
1.11452e-05
1.11394e-05
1.11339e-05
1.11284e-05
1.11226e-05
1.11167e-05
1.11107e-05
1.11046e-05
1.10986e-05
1.10926e-05
1.10872e-05
1.10828e-05
1.10793e-05
1.10764e-05
1.10738e-05
1.10712e-05
1.10685e-05
1.10656e-05
1.10623e-05
1.10586e-05
1.10545e-05
1.10501e-05
1.10455e-05
1.10413e-05
1.1038e-05
1.10365e-05
)
;

boundaryField
{
    movingWall
    {
        type            fixedValue;
        value           uniform 1.1032e-05;
    }
    fixedWalls
    {
        type            zeroGradient;
    }
    floor
    {
        type            zeroGradient;
    }
    frontAndBack
    {
        type            empty;
    }
}


// ************************************************************************* //
