/*--------------------------------*- C++ -*----------------------------------*\
| =========                 |                                                 |
| \\      /  F ield         | OpenFOAM: The Open Source CFD Toolbox           |
|  \\    /   O peration     | Version:  2212                                  |
|   \\  /    A nd           | Website:  www.openfoam.com                      |
|    \\/     M anipulation  |                                                 |
\*---------------------------------------------------------------------------*/
FoamFile
{
    version     2.0;
    format      ascii;
    arch        "LSB;label=64;scalar=64";
    class       volScalarField;
    location    "1650";
    object      Sch4;
}
// * * * * * * * * * * * * * * * * * * * * * * * * * * * * * * * * * * * * * //

dimensions      [1 -3 0 0 0 0 0];

internalField   nonuniform List<scalar> 
1024
(
0.0346285
0.034637
0.0346579
0.0346965
0.0347594
0.0348545
0.0349909
0.0351781
0.0354252
0.0357404
0.0361285
0.0365889
0.0371091
0.0376588
0.0381883
0.0386329
0.0388939
0.0389325
0.0388053
0.038562
0.038239
0.0378689
0.0374849
0.0371193
0.0367975
0.0365341
0.0363321
0.0361867
0.0360887
0.0360279
0.0359947
0.0359811
0.0346326
0.0346412
0.0346623
0.0347013
0.0347647
0.0348607
0.0349984
0.0351873
0.0354363
0.0357535
0.0361439
0.0366065
0.0371288
0.0376801
0.0382105
0.0386555
0.0389166
0.0389547
0.0388267
0.0385826
0.0382589
0.0378878
0.0375023
0.0371343
0.0368098
0.0365436
0.0363392
0.036192
0.0360928
0.0360313
0.0359977
0.0359841
0.0346428
0.0346515
0.034673
0.0347127
0.0347775
0.0348755
0.035016
0.0352085
0.0354619
0.0357839
0.0361793
0.0366471
0.0371743
0.03773
0.0382636
0.0387106
0.0389723
0.0390087
0.0388773
0.038629
0.0383015
0.0379272
0.0375379
0.0371652
0.0368353
0.0365636
0.0363545
0.0362038
0.0361022
0.0360393
0.036005
0.0359911
0.0346613
0.0346702
0.0346923
0.0347333
0.0348001
0.0349015
0.0350467
0.0352453
0.0355059
0.0358361
0.0362401
0.0367169
0.0372532
0.0378174
0.0383584
0.038811
0.0390747
0.039107
0.0389664
0.038707
0.0383695
0.0379874
0.0375911
0.0372111
0.0368734
0.0365941
0.0363785
0.0362228
0.0361179
0.036053
0.0360178
0.0360035
0.0346912
0.0347004
0.0347233
0.034766
0.0348359
0.034942
0.0350941
0.0353018
0.0355734
0.0359159
0.0363333
0.036824
0.0373749
0.0379539
0.0385088
0.0389725
0.0392403
0.0392647
0.0391057
0.0388236
0.0384654
0.0380675
0.0376592
0.0372689
0.0369215
0.0366333
0.0364103
0.036249
0.0361405
0.0360736
0.0360374
0.0360228
0.0347361
0.0347457
0.0347697
0.0348145
0.0348884
0.0350011
0.0351627
0.035383
0.0356702
0.0360305
0.0364671
0.0369784
0.0375515
0.0381539
0.0387312
0.0392131
0.0394872
0.0394981
0.039308
0.0389866
0.0385918
0.0381661
0.0377383
0.0373338
0.0369752
0.036678
0.0364481
0.036282
0.0361706
0.0361022
0.0360654
0.0360507
0.0348007
0.0348106
0.0348358
0.0348834
0.0349625
0.0350836
0.0352578
0.0354952
0.0358037
0.0361886
0.0366523
0.0371931
0.0377982
0.0384346
0.0390444
0.0395515
0.0398333
0.0398238
0.0395871
0.039206
0.0387537
0.0382834
0.0378251
0.0374009
0.0370298
0.0367248
0.0364901
0.0363217
0.0362095
0.0361412
0.0361049
0.0360905
0.0348905
0.0349008
0.0349274
0.0349784
0.0350638
0.0351957
0.0353862
0.0356462
0.0359832
0.0364017
0.0369029
0.0374846
0.0381338
0.0388156
0.0394673
0.0400048
0.0402939
0.0402569
0.0399589
0.0394966
0.0389625
0.0384262
0.0379225
0.0374709
0.0370854
0.0367743
0.0365386
0.0363718
0.0362624
0.036197
0.036163
0.0361499
0.0350123
0.0350231
0.0350514
0.0351063
0.0351998
0.0353452
0.0355565
0.0358456
0.0362202
0.0366838
0.0372358
0.0378725
0.038579
0.0393162
0.0400155
0.0405853
0.0408812
0.0408148
0.0404481
0.0398885
0.0392493
0.0386214
0.0380518
0.0375611
0.037157
0.036841
0.0366082
0.036448
0.0363462
0.0362876
0.0362585
0.036248
0.0351744
0.0351856
0.0352159
0.0352757
0.0353789
0.0355413
0.0357789
0.0361054
0.036529
0.0370516
0.0376704
0.0383775
0.0391527
0.0399507
0.0406973
0.0412984
0.0416064
0.0415241
0.0411027
0.0404499
0.0396922
0.038946
0.0382826
0.0377325
0.0372985
0.0369735
0.0367447
0.036595
0.0365056
0.0364583
0.0364376
0.0364314
0.0353854
0.0353973
0.0354299
0.0354959
0.0356112
0.0357946
0.0360652
0.0364388
0.0369241
0.0375214
0.0382229
0.0390134
0.0398635
0.0407199
0.0415074
0.0421402
0.0424807
0.0424263
0.0420045
0.0413063
0.0404549
0.0395829
0.0387935
0.0381464
0.037653
0.0373002
0.0370659
0.0369239
0.0368482
0.036815
0.0368053
0.0368051
0.0356536
0.0356662
0.0357018
0.0357752
0.0359053
0.0361144
0.036425
0.0368554
0.0374147
0.0380998
0.038895
0.0397735
0.0406938
0.0415974
0.042417
0.0430892
0.0435036
0.0435592
0.0432472
0.0426216
0.0417766
0.0408383
0.0399315
0.0391506
0.0385433
0.0381118
0.0378347
0.0376768
0.0376013
0.0375758
0.0375745
0.0375793
0.0359826
0.0359962
0.0360353
0.0361172
0.0362642
0.0365024
0.0368579
0.0373512
0.0379904
0.0387666
0.0396533
0.0406088
0.0415805
0.0425112
0.0433521
0.0440746
0.0446101
0.0448724
0.0448182
0.0444526
0.0438167
0.0429948
0.042097
0.0412325
0.0404885
0.0399129
0.0395165
0.0392752
0.0391507
0.0391007
0.0390897
0.0390922
0.036367
0.0363815
0.0364241
0.0365143
0.0366776
0.0369437
0.0373416
0.037893
0.0386036
0.039457
0.0404136
0.0414178
0.0424088
0.0433351
0.0441699
0.0449213
0.0455725
0.0460765
0.0463796
0.0464451
0.0462524
0.0458192
0.0452003
0.0444756
0.0437351
0.0430641
0.0425213
0.0421317
0.0418868
0.0417549
0.0416981
0.0416823
0.0367869
0.0368019
0.0368467
0.036942
0.0371153
0.0373985
0.0378229
0.0384101
0.0391631
0.0400582
0.0410444
0.0420535
0.043017
0.0438858
0.0446457
0.0453294
0.0459763
0.0466153
0.0472175
0.0477222
0.0480608
0.0481903
0.0481007
0.0478145
0.0473814
0.0468715
0.0463624
0.0459224
0.0455911
0.0453764
0.0452615
0.0452182
0.0372059
0.0372209
0.0372651
0.0373587
0.037529
0.0378079
0.0382269
0.0388081
0.0395535
0.0404358
0.0413971
0.0423587
0.0432407
0.0439848
0.0445725
0.0450421
0.0454869
0.0460512
0.0467596
0.0475407
0.0482911
0.0489232
0.0493817
0.0496428
0.0497118
0.0496194
0.0494169
0.0491667
0.0489285
0.0487438
0.0486288
0.0485789
0.03755
0.0375643
0.0376051
0.0376902
0.0378438
0.0380952
0.0384743
0.0390035
0.0396866
0.0404988
0.0413828
0.0422551
0.0430248
0.0436175
0.0439973
0.044192
0.0443323
0.0446711
0.0453101
0.0461935
0.0471934
0.0481767
0.0490414
0.0497268
0.0502108
0.0505018
0.0506304
0.0506418
0.050587
0.0505132
0.0504531
0.0504223
0.037772
0.0377854
0.0378222
0.0378969
0.0380295
0.0382452
0.0385708
0.0390282
0.0396241
0.0403397
0.0411246
0.0418994
0.0425708
0.0430548
0.0433004
0.0433202
0.0432508
0.0433842
0.0438828
0.0447479
0.0458746
0.047108
0.0482943
0.0493172
0.0501148
0.0506747
0.0510213
0.0511997
0.0512636
0.0512649
0.0512448
0.051229
0.0378925
0.0379051
0.0379382
0.0380035
0.0381172
0.0382998
0.0385745
0.0389614
0.0394695
0.0400861
0.0407703
0.0414528
0.0420468
0.0424685
0.0426607
0.0426253
0.0424914
0.042538
0.0429332
0.0437197
0.0448449
0.0461853
0.0475797
0.0488694
0.0499418
0.0507455
0.0512837
0.0515975
0.0517468
0.0517945
0.0517946
0.0517847
0.0379502
0.0379615
0.0379908
0.0380474
0.0381444
0.0382986
0.0385292
0.0388538
0.0392815
0.0398046
0.0403916
0.0409859
0.0415133
0.0418989
0.042089
0.0420824
0.0419966
0.0420695
0.042443
0.0431707
0.0442391
0.0455726
0.0470409
0.0484821
0.0497519
0.0507589
0.0514744
0.0519221
0.0521583
0.0522526
0.0522715
0.0522658
0.0379877
0.0379965
0.0380196
0.0380653
0.0381448
0.0382724
0.0384641
0.0387343
0.0390913
0.0395303
0.0400277
0.0405402
0.0410102
0.0413782
0.0416021
0.0416858
0.0417286
0.0419077
0.0423264
0.0430365
0.0440465
0.0453177
0.0467604
0.0482419
0.0496168
0.0507659
0.0516269
0.0521972
0.0525198
0.0526635
0.0527028
0.0527016
0.0380618
0.0380651
0.0380768
0.0381047
0.0381602
0.0382569
0.0384093
0.0386298
0.0389251
0.039292
0.0397142
0.0401617
0.0405942
0.0409709
0.0412649
0.0414876
0.0417104
0.0420376
0.0425334
0.043246
0.0441999
0.0453851
0.0467437
0.0481787
0.0495685
0.0507908
0.0517565
0.0524316
0.0528369
0.0530321
0.0530945
0.0530985
0.0382441
0.0382378
0.0382298
0.0382288
0.0382483
0.0383041
0.0384122
0.0385848
0.0388286
0.0391424
0.0395161
0.0399313
0.0403633
0.0407869
0.0411876
0.0415802
0.0419993
0.0424776
0.0430483
0.043759
0.0446462
0.0457234
0.0469632
0.048297
0.0496301
0.0508567
0.0518789
0.0526342
0.0531144
0.0533617
0.0534497
0.0534601
0.0386108
0.03859
0.0385533
0.0385121
0.0384842
0.0384908
0.0385522
0.0386841
0.038895
0.0391861
0.0395518
0.0399806
0.0404564
0.0409629
0.0414908
0.042052
0.0426435
0.0432404
0.0438578
0.0445461
0.0453497
0.0462987
0.0473907
0.0485853
0.0498123
0.0509852
0.0520126
0.0528161
0.0533579
0.0536553
0.0537708
0.0537889
0.0392278
0.039188
0.0391166
0.0390314
0.0389572
0.0389212
0.0389495
0.039063
0.039273
0.0395811
0.0399816
0.0404635
0.041012
0.0416122
0.0422541
0.0429443
0.0436499
0.0443102
0.0449329
0.0455722
0.0462765
0.047084
0.0480096
0.049037
0.0501208
0.0511946
0.0521789
0.0529922
0.053575
0.0539164
0.0540602
0.0540873
0.0401405
0.0400787
0.0399753
0.0398596
0.0397639
0.0397185
0.039751
0.039885
0.0401316
0.0404888
0.0409471
0.041492
0.0421063
0.0427733
0.0434813
0.0442318
0.044976
0.0456382
0.0462251
0.0467917
0.0473864
0.0480485
0.0488019
0.0496473
0.0505613
0.0514995
0.052398
0.0531803
0.053776
0.0541492
0.0543196
0.0543571
0.041374
0.0412913
0.0411728
0.0410642
0.0409992
0.0410006
0.0410876
0.0412803
0.041585
0.0419951
0.0424983
0.0430776
0.0437144
0.0443921
0.0450982
0.0458322
0.0465414
0.0471515
0.0476695
0.0481475
0.0486294
0.0491513
0.0497388
0.050402
0.0511339
0.0519101
0.0526863
0.0533981
0.0539734
0.0543595
0.0545509
0.0545993
0.0429444
0.0428492
0.0427528
0.0427101
0.0427387
0.0428394
0.0430153
0.043278
0.043628
0.0440599
0.0445627
0.0451213
0.0457195
0.0463428
0.0469804
0.0476314
0.0482483
0.048767
0.049195
0.0495768
0.0499495
0.0503427
0.0507794
0.051273
0.0518256
0.0524279
0.053055
0.0536608
0.054181
0.0545548
0.0547565
0.0548149
0.0448773
0.0447918
0.0447734
0.0448536
0.0450109
0.045221
0.0454746
0.0457764
0.0461274
0.0465281
0.0469731
0.0474527
0.0479552
0.04847
0.048989
0.0495115
0.0499998
0.0504046
0.0507323
0.0510177
0.051289
0.0515687
0.0518748
0.0522194
0.0526084
0.0530409
0.0535068
0.0539795
0.0544112
0.0547443
0.05494
0.0550046
0.0472273
0.047195
0.0473054
0.0475128
0.0477626
0.0480266
0.0482961
0.0485759
0.0488712
0.0491883
0.0495274
0.0498844
0.0502528
0.0506259
0.0509983
0.0513695
0.0517133
0.0519958
0.052222
0.0524156
0.052596
0.0527783
0.052975
0.053195
0.0534438
0.0537236
0.0540323
0.0543587
0.0546749
0.0549376
0.0551063
0.0551696
0.0500949
0.0501644
0.050369
0.0506006
0.0508305
0.0510482
0.0512512
0.0514456
0.051638
0.0518358
0.0520418
0.0522554
0.0524738
0.0526935
0.0529114
0.0531274
0.0533264
0.0534891
0.0536186
0.0537282
0.0538289
0.0539293
0.0540362
0.0541549
0.0542888
0.0544399
0.0546088
0.0547923
0.0549787
0.0551448
0.0552619
0.055312
0.0536011
0.0536554
0.0537602
0.053861
0.0539538
0.0540379
0.054113
0.054182
0.054248
0.0543142
0.0543822
0.0544521
0.0545232
0.0545945
0.054665
0.0547347
0.0547988
0.0548511
0.0548925
0.0549275
0.0549593
0.0549908
0.0550241
0.0550609
0.0551022
0.0551488
0.0552009
0.0552581
0.0553176
0.055373
0.0554154
0.0554359
)
;

boundaryField
{
    movingWall
    {
        type            fixedValue;
        value           uniform 0.0555;
    }
    fixedWalls
    {
        type            zeroGradient;
    }
    floor
    {
        type            zeroGradient;
    }
    frontAndBack
    {
        type            empty;
    }
}


// ************************************************************************* //
