/*--------------------------------*- C++ -*----------------------------------*\
| =========                 |                                                 |
| \\      /  F ield         | OpenFOAM: The Open Source CFD Toolbox           |
|  \\    /   O peration     | Version:  2212                                  |
|   \\  /    A nd           | Website:  www.openfoam.com                      |
|    \\/     M anipulation  |                                                 |
\*---------------------------------------------------------------------------*/
FoamFile
{
    version     2.0;
    format      ascii;
    arch        "LSB;label=64;scalar=64";
    class       volScalarField;
    location    "1650";
    object      Sco2;
}
// * * * * * * * * * * * * * * * * * * * * * * * * * * * * * * * * * * * * * //

dimensions      [1 -3 0 0 0 0 0];

internalField   nonuniform List<scalar> 
1024
(
0.00548982
0.00549142
0.00549535
0.0055026
0.0055144
0.00553225
0.00555787
0.00559303
0.00563944
0.00569864
0.00577157
0.00585811
0.00595595
0.00605944
0.00615919
0.00624299
0.00629223
0.00629954
0.00627561
0.00622981
0.00616902
0.00609935
0.00602705
0.00595821
0.00589764
0.00584804
0.00581002
0.00578265
0.0057642
0.00575275
0.0057465
0.00574395
0.0054906
0.00549221
0.00549618
0.00550349
0.0055154
0.00553343
0.00555929
0.00559475
0.00564153
0.00570111
0.00577446
0.00586142
0.00595966
0.00606345
0.00616338
0.00624725
0.00629649
0.00630372
0.00627965
0.0062337
0.00617276
0.0061029
0.00603031
0.00596104
0.00589995
0.00584983
0.00581135
0.00578364
0.00576497
0.00575339
0.00574707
0.0057445
0.00549251
0.00549414
0.00549818
0.00550564
0.0055178
0.00553621
0.0055626
0.00559875
0.00564633
0.00570681
0.00578111
0.00586904
0.00596822
0.00607283
0.00617336
0.00625763
0.00630697
0.00631389
0.00628916
0.00624243
0.00618078
0.00611032
0.00603703
0.00596686
0.00590475
0.0058536
0.00581424
0.00578586
0.00576674
0.00575489
0.00574844
0.00574582
0.00549599
0.00549767
0.00550182
0.00550951
0.00552207
0.0055411
0.00556837
0.00560567
0.00565462
0.00571663
0.00579255
0.00588217
0.00598305
0.00608928
0.00619121
0.00627653
0.00632626
0.0063324
0.00630595
0.00625712
0.00619359
0.00612164
0.00604704
0.00597551
0.00591192
0.00585934
0.00581875
0.00578943
0.00576969
0.00575748
0.00575085
0.00574816
0.00550162
0.00550335
0.00550766
0.00551566
0.00552879
0.00554873
0.0055773
0.0056163
0.00566732
0.00573166
0.00581007
0.00590231
0.00600595
0.00611497
0.00621951
0.00630694
0.00635744
0.00636208
0.00633217
0.00627905
0.00621162
0.00613672
0.00605987
0.00598639
0.00592098
0.00586672
0.00582473
0.00579438
0.00577395
0.00576135
0.00575453
0.00575178
0.00551008
0.00551188
0.00551637
0.0055248
0.00553868
0.00555985
0.0055902
0.0056316
0.00568555
0.00575322
0.00583524
0.00593136
0.00603917
0.00615261
0.0062614
0.00635224
0.00640394
0.00640603
0.00637025
0.00630975
0.00623542
0.00615529
0.00607475
0.00599859
0.00593108
0.00587513
0.00583184
0.00580059
0.00577961
0.00576673
0.00575981
0.00575703
0.00552224
0.00552411
0.00552884
0.00553778
0.00555263
0.00557539
0.00560812
0.00565273
0.00571069
0.005783
0.00587012
0.00597177
0.00608562
0.00620545
0.00632037
0.00641598
0.00646912
0.00646734
0.00642279
0.00635104
0.00626589
0.00617736
0.00609109
0.00601123
0.00594136
0.00588393
0.00583976
0.00580805
0.00578692
0.00577406
0.00576723
0.00576453
0.00553916
0.0055411
0.0055461
0.00555567
0.00557173
0.00559652
0.00563232
0.00568117
0.00574449
0.00582312
0.0059173
0.00602666
0.0061488
0.00627718
0.0064
0.00650134
0.00655585
0.00654889
0.00649276
0.00640572
0.00630518
0.00620423
0.00610941
0.0060244
0.00595183
0.00589326
0.00584888
0.00581748
0.00579688
0.00578457
0.00577816
0.00577569
0.00556212
0.00556414
0.00556946
0.00557979
0.00559735
0.00562468
0.00566441
0.00571875
0.00578916
0.00587627
0.00598002
0.00609973
0.00623263
0.00637146
0.00650325
0.00661067
0.00666644
0.00665392
0.00658482
0.00647946
0.00635912
0.00624094
0.00613372
0.00604135
0.00596529
0.00590579
0.00586196
0.00583181
0.00581264
0.0058016
0.00579613
0.00579415
0.00559266
0.00559478
0.00560046
0.00561172
0.00563113
0.00566165
0.00570634
0.00576773
0.00584735
0.00594559
0.0060619
0.00619485
0.00634072
0.00649099
0.00663169
0.00674499
0.00680299
0.00678745
0.00670802
0.00658508
0.00644243
0.00630196
0.00617709
0.00607355
0.00599186
0.0059307
0.00588763
0.00585945
0.00584262
0.00583371
0.0058298
0.00582863
0.00563245
0.00563468
0.00564083
0.00565323
0.00567491
0.00570941
0.00576031
0.00583056
0.00592182
0.00603412
0.00616602
0.00631469
0.00647466
0.00663592
0.00678432
0.00690356
0.00696765
0.0069573
0.00687778
0.00674623
0.00658588
0.00642172
0.00627313
0.00615135
0.00605851
0.00599211
0.00594801
0.00592129
0.00590703
0.00590079
0.00589897
0.00589892
0.00568301
0.00568538
0.00569209
0.00570589
0.00573036
0.0057697
0.00582813
0.0059091
0.0060143
0.00614314
0.0062927
0.00645795
0.00663115
0.00680131
0.00695572
0.00708234
0.00716033
0.00717066
0.00711176
0.00699381
0.00683461
0.00665792
0.0064872
0.0063402
0.00622592
0.00614474
0.00609262
0.0060629
0.00604871
0.00604392
0.00604367
0.00604459
0.00574504
0.00574759
0.00575495
0.00577037
0.00579804
0.00584286
0.00590976
0.00600257
0.00612282
0.00626884
0.00643563
0.00661541
0.00679832
0.00697359
0.00713199
0.00726807
0.00736884
0.00741812
0.00740772
0.00733871
0.00721879
0.00706391
0.00689481
0.00673203
0.00659197
0.00648366
0.00640907
0.00636369
0.00634028
0.00633089
0.00632884
0.00632932
0.00581751
0.00582023
0.00582824
0.00584523
0.00587597
0.00592605
0.00600094
0.00610472
0.00623843
0.00639899
0.00657899
0.00676797
0.00695452
0.00712897
0.00728623
0.00742777
0.00755039
0.00764521
0.00770215
0.0077143
0.00767782
0.00759607
0.00747938
0.00734283
0.00720336
0.00707699
0.00697482
0.00690148
0.00685541
0.00683061
0.00681992
0.00681696
0.00589663
0.00589947
0.00590789
0.00592583
0.00595847
0.00601179
0.00609166
0.0062022
0.00634393
0.00651237
0.00669797
0.0068879
0.00706931
0.00723294
0.00737612
0.00750495
0.00762683
0.00774715
0.00786049
0.0079554
0.00801902
0.00804322
0.0080262
0.00797216
0.00789047
0.00779438
0.00769847
0.00761558
0.00755318
0.00751276
0.00749114
0.00748299
0.00597558
0.00597842
0.00598674
0.00600437
0.00603644
0.00608894
0.00616782
0.00627724
0.00641755
0.00658363
0.00676458
0.00694559
0.00711166
0.00725182
0.00736257
0.00745111
0.00753498
0.00764131
0.00777469
0.00792172
0.00806291
0.00818183
0.00826804
0.0083171
0.00832999
0.00831249
0.00827426
0.00822709
0.00818218
0.00814738
0.00812571
0.0081163
0.00604041
0.00604311
0.00605079
0.00606682
0.00609574
0.00614308
0.00621446
0.0063141
0.0064427
0.0065956
0.00676201
0.00692622
0.00707115
0.00718278
0.00725436
0.00729112
0.00731765
0.0073815
0.00750184
0.00766815
0.00785636
0.00804143
0.00820416
0.00833313
0.0084242
0.00847895
0.00850312
0.00850521
0.00849487
0.00848095
0.00846963
0.0084638
0.00608221
0.00608475
0.00609168
0.00610574
0.00613072
0.00617134
0.00623265
0.00631878
0.00643098
0.00656571
0.00671346
0.00685932
0.00698573
0.00707686
0.00712315
0.00712693
0.00711393
0.0071391
0.00723302
0.0073959
0.00760802
0.00784018
0.00806349
0.00825603
0.00840614
0.00851153
0.00857675
0.00861032
0.00862235
0.00862258
0.00861878
0.00861581
0.0061049
0.00610727
0.00611351
0.00612582
0.00614722
0.00618162
0.00623335
0.00630622
0.00640188
0.00651798
0.00664679
0.00677526
0.0068871
0.00696648
0.00700269
0.00699603
0.00697085
0.00697967
0.0070541
0.00720221
0.00741406
0.00766641
0.00792891
0.0081717
0.00837357
0.00852485
0.00862616
0.00868523
0.00871333
0.0087223
0.00872231
0.00872044
0.00611575
0.00611789
0.00612341
0.00613407
0.00615235
0.00618139
0.00622481
0.00628593
0.00636647
0.00646498
0.0065755
0.00668737
0.00678666
0.00685925
0.00689503
0.00689379
0.00687765
0.00689138
0.00696172
0.00709875
0.00729991
0.00755097
0.00782742
0.00809873
0.00833779
0.00852736
0.00866206
0.00874634
0.0087908
0.00880856
0.00881211
0.00881103
0.0061228
0.00612445
0.00612881
0.00613742
0.00615241
0.00617645
0.00621253
0.00626343
0.00633066
0.00641331
0.00650696
0.00660346
0.00669195
0.00676121
0.00680335
0.00681909
0.00682715
0.00686086
0.00693971
0.00707341
0.00726357
0.00750292
0.00777454
0.00805348
0.00831232
0.00852867
0.00869077
0.00879814
0.00885887
0.00888592
0.00889333
0.0088931
0.00613673
0.00613737
0.00613956
0.00614483
0.00615528
0.0061735
0.00620221
0.00624374
0.00629935
0.00636844
0.00644794
0.00653218
0.00661361
0.00668452
0.00673985
0.00678176
0.0068237
0.0068853
0.00697865
0.00711281
0.00729243
0.00751557
0.00777137
0.00804154
0.00830322
0.00853335
0.00871517
0.00884227
0.00891858
0.00895533
0.00896707
0.00896784
0.00617103
0.00616986
0.00616835
0.00616817
0.00617184
0.00618237
0.00620273
0.00623526
0.00628117
0.00634025
0.00641063
0.00648881
0.00657013
0.00664988
0.00672531
0.0067992
0.00687808
0.00696813
0.00707557
0.00720938
0.00737644
0.00757925
0.00781267
0.00806381
0.0083148
0.00854575
0.00873821
0.00888042
0.00897083
0.00901739
0.00903395
0.0090359
0.00624006
0.00623615
0.00622923
0.00622149
0.00621625
0.00621751
0.00622908
0.00625393
0.00629365
0.00634848
0.00641734
0.00649808
0.00658767
0.00668302
0.00678238
0.00688803
0.00699937
0.00711174
0.00722798
0.00735756
0.00750888
0.00768755
0.00789315
0.00811808
0.00834909
0.00856993
0.00876337
0.00891466
0.00901667
0.00907267
0.00909442
0.00909781
0.00635622
0.00634871
0.00633528
0.00631925
0.00630528
0.00629852
0.00630387
0.00632526
0.00636483
0.00642285
0.00649827
0.006589
0.00669227
0.00680526
0.00692611
0.00705602
0.00718885
0.00731316
0.0074304
0.00755077
0.00768337
0.00783541
0.00800968
0.00820312
0.00840718
0.00860936
0.00879468
0.00894782
0.00905755
0.00912183
0.0091489
0.009154
0.00652804
0.00651642
0.00649694
0.00647516
0.00645715
0.00644864
0.00645477
0.00648002
0.00652648
0.00659375
0.00668005
0.00678265
0.0068983
0.00702388
0.00715715
0.00729844
0.00743853
0.00756321
0.00767369
0.00778037
0.00789233
0.008017
0.00815885
0.00831802
0.00849012
0.00866676
0.00883593
0.00898324
0.0090954
0.00916567
0.00919774
0.0092048
0.00676028
0.00674471
0.0067224
0.00670195
0.00668973
0.00669002
0.00670642
0.00674273
0.00680011
0.00687736
0.00697211
0.00708118
0.00720108
0.00732865
0.00746158
0.00759975
0.00773327
0.00784813
0.00794565
0.00803564
0.00812638
0.00822464
0.00833525
0.00846012
0.00859793
0.00874407
0.00889021
0.00902424
0.00913257
0.00920525
0.00924129
0.00925042
0.00705596
0.00703804
0.00701989
0.00701184
0.00701724
0.00703621
0.00706937
0.00711884
0.00718477
0.00726611
0.00736078
0.00746596
0.00757858
0.00769593
0.00781597
0.00793851
0.00805464
0.00815229
0.00823287
0.00830476
0.00837492
0.00844896
0.00853118
0.00862411
0.00872816
0.00884156
0.00895964
0.00907371
0.00917164
0.00924204
0.00928002
0.00929101
0.0074199
0.00740379
0.00740033
0.00741542
0.00744506
0.00748463
0.0075324
0.00758923
0.00765533
0.00773081
0.0078146
0.00790489
0.0079995
0.00809643
0.00819414
0.00829249
0.00838443
0.00846062
0.00852232
0.00857606
0.00862714
0.0086798
0.00873742
0.00880231
0.00887556
0.00895699
0.00904471
0.00913371
0.00921498
0.0092777
0.00931456
0.00932673
0.00786236
0.00785628
0.00787707
0.00791611
0.00796316
0.00801286
0.00806362
0.00811632
0.00817193
0.00823165
0.0082955
0.00836273
0.00843209
0.00850234
0.00857244
0.00864231
0.00870704
0.00876023
0.0088028
0.00883926
0.00887322
0.00890755
0.00894458
0.008986
0.00903284
0.00908552
0.00914365
0.00920511
0.00926465
0.00931412
0.00934587
0.00935779
0.00840229
0.00841539
0.0084539
0.00849751
0.0085408
0.00858179
0.00862002
0.00865662
0.00869286
0.00873011
0.00876891
0.00880913
0.00885024
0.0088916
0.00893264
0.00897328
0.00901075
0.00904139
0.00906576
0.0090864
0.00910536
0.00912426
0.00914438
0.00916673
0.00919195
0.00922041
0.0092522
0.00928675
0.00932184
0.00935313
0.00937518
0.00938461
0.00906246
0.00907268
0.00909242
0.0091114
0.00912888
0.0091447
0.00915885
0.00917185
0.00918428
0.00919675
0.00920954
0.0092227
0.00923609
0.00924952
0.0092628
0.00927591
0.00928797
0.00929782
0.00930562
0.0093122
0.0093182
0.00932413
0.0093304
0.00933732
0.0093451
0.00935387
0.00936368
0.00937445
0.00938565
0.0093961
0.00940407
0.00940793
)
;

boundaryField
{
    movingWall
    {
        type            fixedValue;
        value           uniform 0.00942;
    }
    fixedWalls
    {
        type            zeroGradient;
    }
    floor
    {
        type            zeroGradient;
    }
    frontAndBack
    {
        type            empty;
    }
}


// ************************************************************************* //
