/*--------------------------------*- C++ -*----------------------------------*\
| =========                 |                                                 |
| \\      /  F ield         | OpenFOAM: The Open Source CFD Toolbox           |
|  \\    /   O peration     | Version:  2206                                  |
|   \\  /    A nd           | Website:  www.openfoam.com                      |
|    \\/     M anipulation  |                                                 |
\*---------------------------------------------------------------------------*/
FoamFile
{
    version     2.0;
    format      ascii;
    arch        "LSB;label=64;scalar=64";
    class       volScalarField;
    location    "2.3/water";
    object      alphat.gas;
}
// * * * * * * * * * * * * * * * * * * * * * * * * * * * * * * * * * * * * * //

dimensions      [1 -1 -1 0 0 0 0];

internalField   nonuniform List<scalar> 
23300
(
2.89634229108e-06
4.87291001981e-06
6.75698550213e-06
8.31720605485e-06
9.58300609714e-06
1.06048279775e-05
1.14268961371e-05
1.20849771802e-05
1.26070194748e-05
1.3015181023e-05
1.33267765239e-05
1.35559121983e-05
1.37139634544e-05
1.3810677841e-05
1.38543139482e-05
1.38523594878e-05
1.38114810649e-05
1.37379972267e-05
1.36377248539e-05
1.35162991157e-05
1.33789622744e-05
1.32307885171e-05
1.30764458866e-05
1.29203693484e-05
1.27665239405e-05
1.26185613409e-05
1.2479608878e-05
1.23524352583e-05
1.22392799436e-05
1.2142039169e-05
1.2062135515e-05
1.20007202774e-05
1.19585708671e-05
1.19362968089e-05
1.19342485592e-05
1.19527144547e-05
1.19918282343e-05
1.20517499618e-05
1.21325664042e-05
1.22344553081e-05
1.23575786309e-05
1.25022340414e-05
1.26687448247e-05
1.28576058699e-05
1.30693783035e-05
1.33048438378e-05
1.35649250148e-05
1.38508905485e-05
1.41635094773e-05
1.45035031266e-05
1.4871967371e-05
1.52703292077e-05
1.57001730794e-05
1.61633581664e-05
1.66618973432e-05
1.71980987929e-05
1.7774451938e-05
1.83937808508e-05
1.9059130631e-05
1.97739331147e-05
2.05418906158e-05
2.13671557786e-05
2.22542086272e-05
2.32080516163e-05
2.42340729222e-05
2.53382549067e-05
2.65270107428e-05
2.78073980863e-05
2.91869052302e-05
3.06736488945e-05
3.22760665013e-05
3.40030528888e-05
3.58634809084e-05
3.78661892497e-05
4.00191960059e-05
4.23293789174e-05
4.48011538032e-05
4.74355705933e-05
5.02280645794e-05
5.31664505306e-05
5.62269677996e-05
5.9369999098e-05
6.25324802123e-05
6.56181127122e-05
6.84806286932e-05
7.08997493969e-05
7.2545761766e-05
7.29629902137e-05
7.18221416974e-05
6.94350244085e-05
6.62360400521e-05
6.25567982715e-05
5.8633011377e-05
5.46311994922e-05
5.06680061221e-05
4.68244378626e-05
4.3154713851e-05
3.96934023803e-05
3.64599365878e-05
3.34627688244e-05
3.07020018014e-05
2.81720091474e-05
2.58630199122e-05
2.37627666842e-05
2.18573922177e-05
2.01324368265e-05
1.85732974297e-05
1.7165774029e-05
1.58962473541e-05
1.47519475325e-05
1.37209701386e-05
1.27923825938e-05
1.19561606487e-05
1.12032155223e-05
1.05253254128e-05
9.91520985114e-06
9.36671997004e-06
8.8731378936e-06
8.42857604991e-06
8.02777020541e-06
7.66588317153e-06
7.33837382545e-06
7.04083677965e-06
6.76886981898e-06
6.51790268457e-06
6.28303851846e-06
6.05886228066e-06
5.83926471909e-06
5.61725543639e-06
5.38481314547e-06
5.13276402482e-06
4.85073646561e-06
4.52720433989e-06
4.14969835293e-06
3.70534465349e-06
3.18234645524e-06
2.5748209992e-06
1.90155210184e-06
1.28221334319e-06
1.06895464465e-06
3.40070048894e-06
4.2912207902e-06
5.53535620261e-06
6.78819638787e-06
7.9367596082e-06
8.95499225531e-06
9.844739489e-06
1.06160402887e-05
1.12804106683e-05
1.18487058543e-05
1.2330567625e-05
1.27345113808e-05
1.30681243004e-05
1.33383354267e-05
1.35515944247e-05
1.37140498709e-05
1.38316330214e-05
1.39101422996e-05
1.39552528454e-05
1.39725345266e-05
1.39674121945e-05
1.3945142057e-05
1.39107455069e-05
1.38689679406e-05
1.38242097095e-05
1.3780491214e-05
1.37414026747e-05
1.3710094207e-05
1.36892577223e-05
1.36811492718e-05
1.36876033802e-05
1.37100819525e-05
1.37497101982e-05
1.38073384587e-05
1.38835849071e-05
1.39788965907e-05
1.40935872526e-05
1.4227889174e-05
1.4381980751e-05
1.45560269383e-05
1.47501967546e-05
1.4964694563e-05
1.51997709516e-05
1.54557491376e-05
1.57330332806e-05
1.60321327349e-05
1.63536667734e-05
1.6698378376e-05
1.70665331292e-05
1.74585503395e-05
1.78750666013e-05
1.83169076352e-05
1.8785055218e-05
1.92806446502e-05
1.98049542033e-05
2.03594169116e-05
2.09456185169e-05
2.15653148118e-05
2.22204328721e-05
2.2913090876e-05
2.3645600065e-05
2.44204847862e-05
2.52404821792e-05
2.610855889e-05
2.70279032016e-05
2.80019317003e-05
2.9034264101e-05
3.01287072884e-05
3.12891952249e-05
3.25197276553e-05
3.38242442349e-05
3.52064783115e-05
3.66697128203e-05
3.82164826974e-05
3.98481270945e-05
4.15642348182e-05
4.33618616595e-05
4.52345601691e-05
4.71710668686e-05
4.91536758947e-05
5.115609314e-05
5.31407817768e-05
5.50555704618e-05
5.682968212e-05
5.83694804927e-05
5.95558287209e-05
6.02479816953e-05
6.03065228533e-05
5.96551780956e-05
5.83472195843e-05
5.65088566799e-05
5.42800674364e-05
5.17881062982e-05
4.91392141093e-05
4.6418097892e-05
4.36903045611e-05
4.10052111766e-05
3.83989573648e-05
3.58969711697e-05
3.35161552804e-05
3.12666799476e-05
2.91535041158e-05
2.7177603953e-05
2.53370035196e-05
2.36275922118e-05
2.20437975755e-05
2.0579102922e-05
1.92264605683e-05
1.7978595492e-05
1.68282377464e-05
1.57682817455e-05
1.47919009818e-05
1.38926182556e-05
1.30643539084e-05
1.23014554648e-05
1.1598725021e-05
1.09514499425e-05
1.0355378967e-05
9.80594676021e-06
9.29891644613e-06
8.83027462832e-06
8.39611686967e-06
7.99252443226e-06
7.61543294327e-06
7.26049039121e-06
6.92290784686e-06
6.59730779624e-06
6.2775825775e-06
5.95677950798e-06
5.6270378943e-06
5.27960993617e-06
4.90501027873e-06
4.49335850268e-06
4.03502217955e-06
3.52176426491e-06
2.94883603367e-06
2.31911114089e-06
1.65250953791e-06
1.01099405473e-06
5.33995215197e-07
4.6579824908e-06
5.07634184219e-06
5.7950392994e-06
6.66412781003e-06
7.5749630443e-06
8.46623205153e-06
9.30736432958e-06
1.00846117998e-05
1.07928891402e-05
1.1431493712e-05
1.20019620587e-05
1.25070281295e-05
1.29501240253e-05
1.33351444773e-05
1.36663291992e-05
1.39481975173e-05
1.41854982068e-05
1.43831616173e-05
1.45462448444e-05
1.46798696034e-05
1.47891518585e-05
1.48791263415e-05
1.49546687491e-05
1.50204199296e-05
1.50807166738e-05
1.5139532866e-05
1.52004354142e-05
1.52665562313e-05
1.53405827142e-05
1.54247644238e-05
1.55209360545e-05
1.56305514157e-05
1.57547273661e-05
1.58942912338e-05
1.60498312812e-05
1.62217442349e-05
1.64102811438e-05
1.66155867755e-05
1.683773556e-05
1.70767602702e-05
1.73326775876e-05
1.7605507103e-05
1.78952882186e-05
1.8202091096e-05
1.85260254742e-05
1.88672421868e-05
1.92259296017e-05
1.96022983566e-05
1.99965684267e-05
2.04089878922e-05
2.08398877431e-05
2.12896960309e-05
2.17589393258e-05
2.22482395367e-05
2.27583135099e-05
2.32899722618e-05
2.38441232026e-05
2.44217712142e-05
2.50240216097e-05
2.56520809334e-05
2.6307258397e-05
2.69909638932e-05
2.77047048886e-05
2.8450077905e-05
2.92287560516e-05
3.00424677972e-05
3.08929671383e-05
3.17819894169e-05
3.27111909945e-05
3.36820655288e-05
3.46958322601e-05
3.57532868189e-05
3.68546062175e-05
3.79990957468e-05
3.91848654017e-05
4.04084216898e-05
4.16641606035e-05
4.2943750283e-05
4.42353940832e-05
4.55229759537e-05
4.67851013483e-05
4.79940833903e-05
4.91149805637e-05
5.01049255563e-05
5.09132080229e-05
5.14829750606e-05
5.17559486586e-05
5.16821255924e-05
5.12347940229e-05
5.04239109091e-05
4.92892614294e-05
4.788609392e-05
4.62740721252e-05
4.45103411017e-05
4.26459987881e-05
4.07247516819e-05
3.87827894026e-05
3.68492748142e-05
3.49470987469e-05
3.30937163789e-05
3.13019688987e-05
2.95808481921e-05
2.79361857129e-05
2.63712611552e-05
2.48873316653e-05
2.34840849232e-05
2.21600217054e-05
2.09127731726e-05
1.97393606067e-05
1.86364033662e-05
1.76002831702e-05
1.66272696671e-05
1.57136142652e-05
1.48556149009e-05
1.40496541498e-05
1.32922018631e-05
1.25797565528e-05
1.19098339484e-05
1.12795174512e-05
1.06859707075e-05
1.01264035034e-05
9.59800710178e-06
9.09786803444e-06
8.62286400572e-06
8.16954697332e-06
7.73401852043e-06
7.31180785066e-06
6.89776615732e-06
6.4859981645e-06
6.06985666797e-06
5.6420334069e-06
5.19478606919e-06
4.72035212469e-06
4.21161631955e-06
3.66312673802e-06
3.07258102242e-06
2.44278260561e-06
1.78255112673e-06
1.09256869715e-06
3.85398150115e-07
5.98705394834e-06
6.23360555187e-06
6.68977167132e-06
7.29697804182e-06
7.99472573385e-06
8.733529014e-06
9.47795828538e-06
1.02045072373e-05
1.08983252395e-05
1.1550456972e-05
1.21558999694e-05
1.27123351368e-05
1.3219321298e-05
1.36777799746e-05
1.40896576709e-05
1.44576894086e-05
1.47852226929e-05
1.50760721341e-05
1.53343934782e-05
1.5564564994e-05
1.57710767473e-05
1.59584227264e-05
1.61310016528e-05
1.62930242229e-05
1.64484347431e-05
1.66008450003e-05
1.67534880008e-05
1.69091874117e-05
1.70703483565e-05
1.72389624799e-05
1.74166308002e-05
1.76045950304e-05
1.78037799669e-05
1.80148370144e-05
1.82381920716e-05
1.84740886133e-05
1.8722630689e-05
1.89838179301e-05
1.92575787364e-05
1.95437947124e-05
1.9842323385e-05
2.01530126564e-05
2.04757142065e-05
2.08102891986e-05
2.1156613344e-05
2.15145746192e-05
2.18840706968e-05
2.22649992951e-05
2.26577170848e-05
2.30623830708e-05
2.34791668615e-05
2.39082733912e-05
2.43499558149e-05
2.48045181185e-05
2.52723180873e-05
2.57537660035e-05
2.6249325935e-05
2.67595134193e-05
2.72848955173e-05
2.78260868127e-05
2.83837469433e-05
2.89585731562e-05
2.95512930599e-05
3.01626509002e-05
3.07933919757e-05
3.14442381896e-05
3.21158585888e-05
3.2808827333e-05
3.35235719244e-05
3.42603033394e-05
3.50189296127e-05
3.57989435205e-05
3.6599284531e-05
3.74181648629e-05
3.8252859126e-05
3.90994482316e-05
3.99525194373e-05
4.08048192677e-05
4.16468714608e-05
4.24665742183e-05
4.3248815594e-05
4.39751629742e-05
4.46237281549e-05
4.51693570672e-05
4.55843701272e-05
4.5840137275e-05
4.59097734545e-05
4.57720169077e-05
4.54156115774e-05
4.48424745713e-05
4.4068046625e-05
4.3116001504e-05
4.20145797628e-05
4.0793331515e-05
3.94808679787e-05
3.81035136594e-05
3.66846293046e-05
3.52443763051e-05
3.37997516793e-05
3.23647733334e-05
3.09507438329e-05
2.95665459154e-05
2.82189464784e-05
2.69128915832e-05
2.56517859671e-05
2.44377491927e-05
2.32718477835e-05
2.21542995821e-05
2.1084652566e-05
2.006193651e-05
1.90847908804e-05
1.81515678971e-05
1.72604136033e-05
1.64093244411e-05
1.55961786174e-05
1.48187334313e-05
1.40745770881e-05
1.33622468016e-05
1.26801721806e-05
1.20267607294e-05
1.14003853335e-05
1.07993478617e-05
1.02218212415e-05
9.66577128574e-06
9.12886333087e-06
8.60835907563e-06
8.10101441428e-06
7.6029918493e-06
7.10980765364e-06
6.61633762992e-06
6.11691078151e-06
5.60552217407e-06
5.07619760969e-06
4.52353423939e-06
3.94339399523e-06
3.33347714409e-06
2.69223396816e-06
2.00829836025e-06
1.2137788029e-06
3.84302880444e-07
7.3055981789e-06
7.47653592377e-06
7.80297322341e-06
8.25839437436e-06
8.81029214473e-06
9.4260061424e-06
1.00767913014e-05
1.07394960672e-05
1.13965732203e-05
1.20353225588e-05
1.26469546788e-05
1.32257393171e-05
1.37683198472e-05
1.42731844941e-05
1.474026542e-05
1.51706272288e-05
1.55662205298e-05
1.59296757215e-05
1.62641273597e-05
1.65730559321e-05
1.68601470069e-05
1.71291610567e-05
1.73838191351e-05
1.7627700527e-05
1.78641596039e-05
1.80962580589e-05
1.83267193654e-05
1.85578997575e-05
1.87917808124e-05
1.90299754694e-05
1.92737509013e-05
1.95240584228e-05
1.97815733781e-05
2.00467349945e-05
2.03197899604e-05
2.06008306175e-05
2.08898329645e-05
2.11866865673e-05
2.14912228672e-05
2.18032348777e-05
2.21224954994e-05
2.24487678336e-05
2.27818149553e-05
2.31214026834e-05
2.34673030195e-05
2.38192922255e-05
2.41771514479e-05
2.45406634147e-05
2.49103028711e-05
2.52862291754e-05
2.5668563764e-05
2.60574178338e-05
2.64529102358e-05
2.68551742617e-05
2.72643633669e-05
2.76806512849e-05
2.81042337531e-05
2.85353259034e-05
2.8974161598e-05
2.94209884621e-05
2.98760644595e-05
3.03396496716e-05
3.08119987647e-05
3.12933477213e-05
3.17838999272e-05
3.22838050477e-05
3.2793135321e-05
3.33118524816e-05
3.38397694054e-05
3.43764994277e-05
3.49213968825e-05
3.54734816312e-05
3.60313507937e-05
3.65930707061e-05
3.71560528092e-05
3.77169082101e-05
3.82712875026e-05
3.88137059958e-05
3.93373690414e-05
3.98340099651e-05
4.02937719164e-05
4.07051682364e-05
4.10551790594e-05
4.13295476953e-05
4.15133570925e-05
4.15919483068e-05
4.15521990426e-05
4.1384051409e-05
4.10819814895e-05
4.06459020854e-05
4.0081600426e-05
3.9400026597e-05
3.86145918828e-05
3.77402660751e-05
3.67924645421e-05
3.578623344e-05
3.4735708465e-05
3.3653790977e-05
3.25519843307e-05
3.14403385555e-05
3.03274694283e-05
2.922062339e-05
2.81257733591e-05
2.7047730479e-05
2.59902656711e-05
2.49562320009e-05
2.39476856991e-05
2.29659999361e-05
2.20119713232e-05
2.1085914985e-05
2.01877491131e-05
1.9317065482e-05
1.84731866299e-05
1.76552056109e-05
1.68620074149e-05
1.60922658341e-05
1.53444114226e-05
1.46175991109e-05
1.39111694483e-05
1.32244278909e-05
1.255663723e-05
1.19069951153e-05
1.12745949582e-05
1.06583685e-05
1.00570130413e-05
9.46890688116e-06
8.89202188854e-06
8.32384449023e-06
7.76132250082e-06
7.20085804934e-06
6.63837075873e-06
6.0694529922e-06
5.48962751819e-06
4.89466769219e-06
4.28074975749e-06
3.64345083717e-06
2.97164191231e-06
2.22272040944e-06
1.2768938018e-06
4.00969020037e-07
8.59596262025e-06
8.72754399771e-06
8.98317852201e-06
9.34923477545e-06
9.80702539358e-06
1.03351182476e-05
1.09119471581e-05
1.15178129046e-05
1.21359686854e-05
1.27529417416e-05
1.33583922985e-05
1.39447565343e-05
1.45068313615e-05
1.50413735258e-05
1.55467451927e-05
1.60226064193e-05
1.64696530211e-05
1.68893875101e-05
1.72839202015e-05
1.76557905465e-05
1.80078102296e-05
1.83429216968e-05
1.86640771856e-05
1.89741337023e-05
1.92757703635e-05
1.95714231786e-05
1.98632430851e-05
2.01530704933e-05
2.04424306305e-05
2.07325409269e-05
2.10243335731e-05
2.13184834012e-05
2.16154441859e-05
2.19154836869e-05
2.22187215246e-05
2.25251612041e-05
2.28347217573e-05
2.31472614468e-05
2.34626001462e-05
2.37805336264e-05
2.41008469909e-05
2.4423320841e-05
2.47477376259e-05
2.50738819662e-05
2.54015426237e-05
2.57305102706e-05
2.60605787252e-05
2.63915431166e-05
2.67239057797e-05
2.70579050168e-05
2.73936978638e-05
2.77313918565e-05
2.80710679597e-05
2.84127915221e-05
2.87566210271e-05
2.9102610459e-05
2.9450812607e-05
2.9801277701e-05
3.01540537047e-05
3.0509182317e-05
3.08666965825e-05
3.12266140819e-05
3.15889312894e-05
3.1953613033e-05
3.23205823584e-05
3.26897046994e-05
3.30607713671e-05
3.34334762256e-05
3.38073902903e-05
3.41819281209e-05
3.45563105498e-05
3.49295177739e-05
3.53002374044e-05
3.56668020647e-05
3.60271218156e-05
3.63786075292e-05
3.67180926001e-05
3.70417526587e-05
3.73450353891e-05
3.76226067651e-05
3.78683336748e-05
3.80753183598e-05
3.82360128789e-05
3.83424343865e-05
3.83865064916e-05
3.8360529909e-05
3.82577656489e-05
3.80730620524e-05
3.7803414017e-05
3.74483092714e-05
3.70097720646e-05
3.64925092415e-05
3.59034474392e-05
3.52501481911e-05
3.45407853071e-05
3.37837196205e-05
3.2987174564e-05
3.21589993639e-05
3.13065089168e-05
3.04363823331e-05
2.95546089156e-05
2.86664674256e-05
2.77765325144e-05
2.68886986734e-05
2.60062188547e-05
2.51317507193e-05
2.42674094428e-05
2.34148216234e-05
2.25751802225e-05
2.17492960327e-05
2.09376460072e-05
2.01404143366e-05
1.9357526458e-05
1.8588671774e-05
1.78333146741e-05
1.70906890705e-05
1.63597740158e-05
1.56400883306e-05
1.49314978129e-05
1.42338560805e-05
1.35470013627e-05
1.28707438109e-05
1.2204840567e-05
1.15489553321e-05
1.09026036486e-05
1.02650852909e-05
9.63541008602e-06
9.01222521293e-06
8.39375749323e-06
7.77778588807e-06
7.16166079179e-06
6.54237669814e-06
5.91666937068e-06
5.28098317882e-06
4.63073221907e-06
3.9568580353e-06
3.23336063044e-06
2.38283695949e-06
1.28124000427e-06
4.18880028953e-07
9.85208611008e-06
9.96065746456e-06
1.0173932553e-05
1.04844335459e-05
1.08807232762e-05
1.13481742608e-05
1.18705208664e-05
1.24315134864e-05
1.3016186955e-05
1.36115958671e-05
1.42071008993e-05
1.47943541085e-05
1.53671214211e-05
1.59210306596e-05
1.64533020913e-05
1.69624842133e-05
1.7448209961e-05
1.79109723422e-05
1.83519238751e-05
1.87726943177e-05
1.91752307796e-05
1.95616551305e-05
1.99341441719e-05
2.02948278015e-05
2.06457109892e-05
2.09886138362e-05
2.13251346587e-05
2.16566285942e-05
2.19842054035e-05
2.23087373979e-05
2.26308804875e-05
2.29510986864e-05
2.32696954185e-05
2.35868424166e-05
2.3902610671e-05
2.4216995243e-05
2.45299396886e-05
2.48413529165e-05
2.51511252091e-05
2.54591368885e-05
2.57652668524e-05
2.6069394736e-05
2.6371404059e-05
2.6671180235e-05
2.69686108351e-05
2.72635819698e-05
2.75559773635e-05
2.78456715098e-05
2.81330794848e-05
2.84185925661e-05
2.87024596947e-05
2.89848413195e-05
2.92658416423e-05
2.95455247151e-05
2.98239265128e-05
3.01010598965e-05
3.0376920054e-05
3.06514850855e-05
3.09247180617e-05
3.11965648235e-05
3.14669534494e-05
3.1735789598e-05
3.20029533841e-05
3.22682919873e-05
3.25316134237e-05
3.27926757e-05
3.30511765806e-05
3.33067382348e-05
3.35588918385e-05
3.38070565004e-05
3.40505175205e-05
3.42883985912e-05
3.45196330757e-05
3.47429294973e-05
3.49567368928e-05
3.51592062372e-05
3.53481548352e-05
3.55210318907e-05
3.5674894468e-05
3.58063951687e-05
3.59117938663e-05
3.59869980208e-05
3.6027645656e-05
3.60292350592e-05
3.59873100708e-05
3.58976936738e-05
3.57567589542e-05
3.55617034874e-05
3.53107879447e-05
3.50034898854e-05
3.46405476517e-05
3.42238966145e-05
3.3756664824e-05
3.32432853899e-05
3.26880952977e-05
3.20957101785e-05
3.14708285399e-05
3.08180915017e-05
3.01419711202e-05
2.94466869157e-05
2.87361486341e-05
2.80139176111e-05
2.72831859671e-05
2.65467678855e-05
2.58071028886e-05
2.50662660999e-05
2.43259858706e-05
2.35876643464e-05
2.28524015925e-05
2.21210192481e-05
2.13940843363e-05
2.06719293692e-05
1.99546691713e-05
1.92422105983e-05
1.85342552972e-05
1.78302914466e-05
1.71295725585e-05
1.64317730724e-05
1.57369778298e-05
1.50452931367e-05
1.43568495558e-05
1.36717983671e-05
1.29902989158e-05
1.23124929767e-05
1.16384661893e-05
1.09681961909e-05
1.03014912855e-05
9.63792428728e-06
8.97677040152e-06
8.31695745605e-06
7.65703300738e-06
6.99512881877e-06
6.32882864963e-06
5.65461217007e-06
4.96584910029e-06
4.24633525534e-06
3.45207025094e-06
2.47784140673e-06
1.24706866135e-06
4.37038136076e-07
1.10715316286e-05
1.11655204812e-05
1.13516151298e-05
1.16257185498e-05
1.19805751101e-05
1.24057885491e-05
1.28887391944e-05
1.34158956507e-05
1.39740290822e-05
1.45510764216e-05
1.51366250548e-05
1.57220942716e-05
1.63007186182e-05
1.68674142097e-05
1.74185899324e-05
1.79519351505e-05
1.84662079034e-05
1.896102979e-05
1.94366972473e-05
1.98940073743e-05
2.03341047066e-05
2.07583451419e-05
2.11681829794e-05
2.15650762667e-05
2.19504158519e-05
2.23254718552e-05
2.2691361869e-05
2.30490329173e-05
2.33992604858e-05
2.37426554971e-05
2.40796822903e-05
2.44106782866e-05
2.47358790307e-05
2.50554399317e-05
2.53694595443e-05
2.56779966975e-05
2.59810874718e-05
2.62787551935e-05
2.65710202569e-05
2.68579034588e-05
2.7139430027e-05
2.74156282155e-05
2.76865297189e-05
2.79521658795e-05
2.82125670271e-05
2.8467759252e-05
2.87177663316e-05
2.89626120433e-05
2.92023465962e-05
2.94377383582e-05
2.96691226442e-05
2.9896735515e-05
3.01207385855e-05
3.03412351098e-05
3.05582839384e-05
3.07719068012e-05
3.09820959867e-05
3.11888170628e-05
3.13920129041e-05
3.15916034209e-05
3.17874869385e-05
3.19795375942e-05
3.21676044697e-05
3.23515068301e-05
3.25310309894e-05
3.2705923209e-05
3.28758839876e-05
3.30405582232e-05
3.31995264906e-05
3.33522920434e-05
3.34982687428e-05
3.3636764748e-05
3.37669672601e-05
3.38879235536e-05
3.39985238992e-05
3.40974822947e-05
3.41833212558e-05
3.42543576647e-05
3.43086969568e-05
3.43442340419e-05
3.43586693239e-05
3.43495392335e-05
3.4314269574e-05
3.42502499562e-05
3.41549341148e-05
3.40259586109e-05
3.38612758974e-05
3.36592841498e-05
3.34189404636e-05
3.31398364694e-05
3.28222294791e-05
3.24670253938e-05
3.20757265506e-05
3.16502920595e-05
3.11936742066e-05
3.07084857299e-05
3.01974360765e-05
2.96632670344e-05
2.91086778361e-05
2.85362707718e-05
2.79485087063e-05
2.73476814207e-05
2.67358825438e-05
2.61149933592e-05
2.54866748466e-05
2.48523643184e-05
2.42132779738e-05
2.35704157559e-05
2.29245697893e-05
2.22763329277e-05
2.16261085487e-05
2.09741182275e-05
2.03204081865e-05
1.96648512189e-05
1.90071447656e-05
1.83468016119e-05
1.76831316764e-05
1.70157806183e-05
1.63448227064e-05
1.56703866673e-05
1.49926655374e-05
1.43119223512e-05
1.3628489011e-05
1.29427541732e-05
1.2255139439e-05
1.1566062079e-05
1.08758859224e-05
1.01848616225e-05
9.49305977118e-06
8.80029593533e-06
8.10603427967e-06
7.40921139746e-06
6.70779565341e-06
5.99754250016e-06
5.26846578624e-06
4.49536933161e-06
3.6163491585e-06
2.51241889413e-06
1.19154016242e-06
4.56054950625e-07
1.22533248405e-05
1.23375158399e-05
1.25052224918e-05
1.27544163798e-05
1.30804702702e-05
1.34757569409e-05
1.39301710174e-05
1.44321867349e-05
1.49699827367e-05
1.55323360973e-05
1.61091986253e-05
1.66919859689e-05
1.72736601902e-05
1.78486772863e-05
1.84128604582e-05
1.89632334225e-05
1.94978415562e-05
2.00155707809e-05
2.05159769306e-05
2.0999126043e-05
2.14654534734e-05
2.19156389105e-05
2.23505035563e-05
2.2770924638e-05
2.3177772327e-05
2.35718624331e-05
2.39539287898e-05
2.43246071689e-05
2.46844339269e-05
2.50338504252e-05
2.53732165115e-05
2.57028242004e-05
2.60229156462e-05
2.6333697263e-05
2.66353552041e-05
2.69280649411e-05
2.72120011568e-05
2.74873413875e-05
2.77542702701e-05
2.80129782013e-05
2.82636615089e-05
2.8506518033e-05
2.87417451845e-05
2.89695343517e-05
2.91900686236e-05
2.94035177135e-05
2.96100368041e-05
2.98097624541e-05
3.00028094938e-05
3.01898134665e-05
3.0371284324e-05
3.05475796592e-05
3.0718950224e-05
3.08855662361e-05
3.10475372976e-05
3.12049236239e-05
3.13577465811e-05
3.15059937048e-05
3.16496246617e-05
3.17885727188e-05
3.19227477319e-05
3.20520351439e-05
3.21762967705e-05
3.22953678622e-05
3.24090560292e-05
3.25171365491e-05
3.26193494943e-05
3.27153932685e-05
3.28049198886e-05
3.28875267196e-05
3.29627499508e-05
3.30300547119e-05
3.30888271514e-05
3.31383636706e-05
3.31778627891e-05
3.32064152771e-05
3.32229983332e-05
3.32264700485e-05
3.32155703562e-05
3.31889253661e-05
3.3145061585e-05
3.30824272316e-05
3.29994267148e-05
3.28944646316e-05
3.27660032416e-05
3.26126268917e-05
3.24331131584e-05
3.22264999897e-05
3.19921449351e-05
3.1729765023e-05
3.14394561337e-05
3.11216871684e-05
3.07772757633e-05
3.04073465108e-05
3.00133151049e-05
2.95968791265e-05
2.91599582768e-05
2.87042052237e-05
2.82312870018e-05
2.7742827053e-05
2.72403761685e-05
2.67253876339e-05
2.61991974872e-05
2.56630093894e-05
2.51178844287e-05
2.4564733845e-05
2.40043160296e-05
2.34372348381e-05
2.2863940873e-05
2.22847326329e-05
2.16997591408e-05
2.1109021153e-05
2.05123723215e-05
1.99095175105e-05
1.9300009448e-05
1.86832406776e-05
1.8058429771e-05
1.7425042101e-05
1.67829825009e-05
1.61322357562e-05
1.54728842484e-05
1.4805123236e-05
1.41292711345e-05
1.34457703776e-05
1.27551774932e-05
1.20581393915e-05
1.13553553801e-05
1.06475224903e-05
9.93526123865e-06
9.21900903865e-06
8.49884425241e-06
7.77413256506e-06
7.04270419233e-06
6.29880589916e-06
5.52799910073e-06
4.69530525385e-06
3.72386303234e-06
2.49703778021e-06
1.12593413384e-06
4.76494113065e-07
1.33970586616e-05
1.34743677707e-05
1.36291145501e-05
1.38606484196e-05
1.4166115799e-05
1.4539794489e-05
1.49733498891e-05
1.54567096663e-05
1.59791117072e-05
1.65300031024e-05
1.70996653804e-05
1.76795671316e-05
1.82625082978e-05
1.88426210366e-05
1.94152866855e-05
1.9977004148e-05
2.05252392158e-05
2.10582664717e-05
2.15750179364e-05
2.20749399726e-05
2.25578669853e-05
2.30239093485e-05
2.3473361827e-05
2.39066275554e-05
2.43241623753e-05
2.47264327146e-05
2.51138907388e-05
2.54869586447e-05
2.58460253937e-05
2.6191447258e-05
2.65235558058e-05
2.68426649715e-05
2.71490817133e-05
2.74431126133e-05
2.77250719492e-05
2.79952843376e-05
2.82540883153e-05
2.85018344846e-05
2.87388850786e-05
2.89656088145e-05
2.91823780373e-05
2.93895620311e-05
2.95875234009e-05
2.97766113002e-05
2.99571582303e-05
3.01294741617e-05
3.02938445916e-05
3.04505261639e-05
3.0599745556e-05
3.07419282336e-05
3.087773738e-05
3.10076608611e-05
3.11320516382e-05
3.12511601086e-05
3.13651601449e-05
3.14741646772e-05
3.15782392622e-05
3.16774093599e-05
3.17716680592e-05
3.18609789982e-05
3.19452805819e-05
3.20244860895e-05
3.2098485522e-05
3.21671437611e-05
3.22303006944e-05
3.22877678955e-05
3.23393273575e-05
3.23847269301e-05
3.242367785e-05
3.24558491188e-05
3.24808640577e-05
3.24982939487e-05
3.25076540837e-05
3.25083973548e-05
3.24999107616e-05
3.24815102728e-05
3.24524395368e-05
3.24118682481e-05
3.23588958037e-05
3.22925564052e-05
3.22118312432e-05
3.21156640095e-05
3.20029849111e-05
3.18727388686e-05
3.17239217271e-05
3.15556186285e-05
3.13670461417e-05
3.11575903809e-05
3.09268410309e-05
3.06746135074e-05
3.04009606014e-05
3.01061692852e-05
2.97907477635e-05
2.9455402778e-05
2.91010145156e-05
2.8728604621e-05
2.83392669062e-05
2.79343473682e-05
2.75150398696e-05
2.70824020643e-05
2.6637458536e-05
2.6181166231e-05
2.57143968524e-05
2.52379266691e-05
2.4752423747e-05
2.42584404679e-05
2.37564077011e-05
2.32466300825e-05
2.27292836683e-05
2.22044129538e-05
2.16719294725e-05
2.11316093854e-05
2.05830918504e-05
2.00258758371e-05
1.94593170627e-05
1.88826225383e-05
1.82948422726e-05
1.76951544363e-05
1.70831999744e-05
1.6458712645e-05
1.58215451707e-05
1.51716946705e-05
1.45093247101e-05
1.38347792064e-05
1.31485861081e-05
1.24514465467e-05
1.17442066866e-05
1.10278057549e-05
1.03031898487e-05
9.57116434578e-06
8.83211954742e-06
8.08546461501e-06
7.32836900756e-06
6.55287176357e-06
5.7393651571e-06
4.84337411629e-06
3.77781664667e-06
2.44315548151e-06
1.05730271495e-06
4.98696883244e-07
1.45024401688e-05
1.45747497023e-05
1.47200727258e-05
1.49387418864e-05
1.52291711902e-05
1.55870047395e-05
1.6005181469e-05
1.6474675331e-05
1.69854858497e-05
1.75275399344e-05
1.80913516389e-05
1.86684187654e-05
1.92514090773e-05
1.98341971287e-05
2.04118111875e-05
2.09803268391e-05
2.1536738081e-05
2.20788185583e-05
2.26049876681e-05
2.31141833572e-05
2.36057501484e-05
2.40793397365e-05
2.45348301584e-05
2.49722583927e-05
2.53917709356e-05
2.57935854652e-05
2.61779672831e-05
2.65452125998e-05
2.68956421904e-05
2.72295972196e-05
2.75474412555e-05
2.78495606223e-05
2.81363679868e-05
2.84083019595e-05
2.86658285065e-05
2.89094375406e-05
2.9139641161e-05
2.93569672826e-05
2.95619554811e-05
2.97551489318e-05
2.99370893438e-05
3.01083087228e-05
3.0269324734e-05
3.04206333579e-05
3.05627054112e-05
3.06959805933e-05
3.08208656653e-05
3.09377309021e-05
3.10469124655e-05
3.11487323009e-05
3.12438262924e-05
3.1332840617e-05
3.14162400005e-05
3.14943599806e-05
3.15674424983e-05
3.16356566206e-05
3.16991153167e-05
3.17578849567e-05
3.18119946632e-05
3.18614404543e-05
3.19061904014e-05
3.19461854859e-05
3.1981342091e-05
3.20115507706e-05
3.20366770195e-05
3.20565586856e-05
3.20710055785e-05
3.20797959608e-05
3.20826753547e-05
3.20793524402e-05
3.20694973985e-05
3.20527376097e-05
3.20286560163e-05
3.19967872419e-05
3.19566167687e-05
3.19075784874e-05
3.18490559418e-05
3.17803828298e-05
3.17008480855e-05
3.16097013105e-05
3.15061637573e-05
3.13894406536e-05
3.1258739635e-05
3.11132906975e-05
3.09523715016e-05
3.07753325683e-05
3.0581624871e-05
3.03708234468e-05
3.01426486845e-05
2.98969791657e-05
2.96338585609e-05
2.93534924698e-05
2.90562397195e-05
2.87425959543e-05
2.84131748776e-05
2.80686851721e-05
2.77099079814e-05
2.73376939472e-05
2.69528687569e-05
2.6556411531e-05
2.61491021734e-05
2.57316196618e-05
2.53045818812e-05
2.48685367698e-05
2.44239340099e-05
2.39711265698e-05
2.35103583223e-05
2.30417579494e-05
2.25653339181e-05
2.20809675e-05
2.15884080159e-05
2.10872672724e-05
2.05770153002e-05
2.00569756788e-05
1.9526322569e-05
1.89840776568e-05
1.84291079287e-05
1.78602512006e-05
1.72768433119e-05
1.66783117075e-05
1.60642094046e-05
1.54342504158e-05
1.47883438218e-05
1.41266210985e-05
1.34494536267e-05
1.27574544779e-05
1.20514590055e-05
1.13324729156e-05
1.06015686256e-05
9.85968624206e-06
9.10724257364e-06
8.34332534355e-06
7.56397346836e-06
6.75848075177e-06
5.90178235772e-06
4.94104882458e-06
3.7844404213e-06
2.36128733698e-06
9.90088926009e-07
5.22774434924e-07
1.55689856331e-05
1.56375826683e-05
1.5775917363e-05
1.59850641592e-05
1.6264384538e-05
1.66105330573e-05
1.70173760769e-05
1.74766311776e-05
1.79788182633e-05
1.85141692488e-05
1.90733192391e-05
1.96477396665e-05
2.02299569491e-05
2.08136154275e-05
2.13934451045e-05
2.1965172664e-05
2.25254081424e-05
2.30715208444e-05
2.3601519543e-05
2.41139387344e-05
2.46077391315e-05
2.50822193559e-05
2.55369443758e-05
2.59716852551e-05
2.63863745023e-05
2.67810701179e-05
2.71559320784e-05
2.75112036043e-05
2.78472010384e-05
2.816430459e-05
2.84629543663e-05
2.87436443084e-05
2.90069192743e-05
2.9253368404e-05
2.94836207703e-05
2.96983368782e-05
2.98982025419e-05
3.00839189347e-05
3.02561955932e-05
3.0415740221e-05
3.05632520981e-05
3.06994128602e-05
3.08248813108e-05
3.09402858807e-05
3.10462211992e-05
3.11432423834e-05
3.12318636034e-05
3.13125550075e-05
3.13857448422e-05
3.14518196576e-05
3.15111900458e-05
3.1564658882e-05
3.16128049267e-05
3.16560498882e-05
3.16947025231e-05
3.17289849768e-05
3.17590533455e-05
3.17850097028e-05
3.18069131663e-05
3.18247852161e-05
3.18386156753e-05
3.18483641441e-05
3.185396293e-05
3.18553161822e-05
3.18523010324e-05
3.18447654247e-05
3.18325282445e-05
3.18153764583e-05
3.17930647307e-05
3.176531231e-05
3.17318025482e-05
3.16921799626e-05
3.16460501369e-05
3.15929775193e-05
3.15324863665e-05
3.1464060068e-05
3.13871440565e-05
3.13011477215e-05
3.12054504563e-05
3.1099407394e-05
3.09823597824e-05
3.08536455511e-05
3.07126146226e-05
3.05586442679e-05
3.03911583621e-05
3.02096453351e-05
3.00136778209e-05