/*--------------------------------*- C++ -*----------------------------------*\
| =========                 |                                                 |
| \\      /  F ield         | OpenFOAM: The Open Source CFD Toolbox           |
|  \\    /   O peration     | Version:  2206                                  |
|   \\  /    A nd           | Website:  www.openfoam.com                      |
|    \\/     M anipulation  |                                                 |
\*---------------------------------------------------------------------------*/
FoamFile
{
    version     2.0;
    format      ascii;
    arch        "LSB;label=64;scalar=64";
    class       volScalarField;
    location    "2.3/water";
    object      k.gas;
}
// * * * * * * * * * * * * * * * * * * * * * * * * * * * * * * * * * * * * * //

dimensions      [0 2 -2 0 0 0 0];

internalField   nonuniform List<scalar> 
23300
(
0.000408282556093
0.000688642459572
0.00102556178047
0.00138749576035
0.00177187388866
0.00217849713785
0.00260673007254
0.00305519180713
0.00352181142946
0.00400393872789
0.00449847650449
0.00500200530363
0.00551091596556
0.00602152708086
0.00653020917589
0.00703348863709
0.00752815670718
0.00801135062551
0.00848063628857
0.00893405400737
0.00937016254896
0.00978803887576
0.0101872766392
0.0105679380129
0.0109305111377
0.0112758252283
0.0116049843493
0.0119192679017
0.0122200650408
0.0125087845172
0.0127868102581
0.013055435965
0.0133158503959
0.0135690990234
0.0138160952741
0.0140576018686
0.0142942579349
0.0145265698596
0.014754944333
0.0149796807899
0.0152010037933
0.0154190527607
0.0156339103631
0.015845587691
0.0160540467821
0.0162591795479
0.016460821217
0.0166587172917
0.0168526822935
0.0170425314383
0.0172280054345
0.017408789312
0.01758454387
0.017754894282
0.0179194481157
0.0180777803397
0.018229449157
0.0183739822993
0.0185108928804
0.0186396680557
0.0187597855176
0.0188707049056
0.0189718852808
0.0190627795275
0.0191428530411
0.0192115812312
0.0192684694737
0.0193130535608
0.0193449205951
0.0193637117637
0.0193691432648
0.0193610100942
0.0193392053066
0.0193037226457
0.0192546715881
0.0191922758974
0.0191168814501
0.0190289478369
0.0189290467303
0.0188178451398
0.0186960941673
0.0185646047463
0.0184242284037
0.0182758264837
0.018120240712
0.017958242899
0.0177904529728
0.0176171360914
0.0174377335763
0.0172502297056
0.0170527478957
0.0168440830841
0.0166235175892
0.0163906772826
0.0161454543028
0.0158879601946
0.0156185021016
0.0153375616695
0.0150457816765
0.0147439464886
0.0144329658156
0.0141138497897
0.0137876869299
0.0134556138392
0.0131187895015
0.0127783633334
0.01243545022
0.0120911013952
0.0117462838943
0.0114018569208
0.0110585568083
0.0107169783072
0.0103775621061
0.0100405749934
0.00970608869289
0.00937393810799
0.00904365471713
0.00871497115962
0.00838741428428
0.00806030360406
0.00773274714595
0.00740362871193
0.00707159548254
0.00673504310425
0.00639210956282
0.00604068045307
0.00567842108623
0.00530284449031
0.0049114346639
0.00450183901203
0.00407215156609
0.00362130628028
0.00314961108114
0.00265946525419
0.00215633823008
0.00165016704863
0.00115762482949
0.000707136152104
0.000354419156191
0.000185833910178
0.000676628610204
0.00085939121836
0.00114828754839
0.00149072067116
0.0018675071713
0.00227151694449
0.00269907520793
0.00314728027388
0.00361318597447
0.00409357804533
0.00458496482088
0.00508363946153
0.00558577903007
0.00608754772572
0.00658521014065
0.00707523368218
0.00755439230688
0.00801985009345
0.00846923898663
0.00890070763308
0.00931295866336
0.00970525093176
0.0100773888161
0.0104296760336
0.0107628618759
0.01107805848
0.0113766621033
0.0116602565858
0.0119305344594
0.0121892108093
0.012437964955
0.0126783801936
0.012911914911
0.013139870753
0.0133633899874
0.0135834450796
0.0138008527951
0.0140162751742
0.0142302407422
0.0144431488202
0.014655291344
0.0148668559846
0.015077945476
0.0152885779235
0.0154987028763
0.0157081991482
0.0159168892351
0.0161245394572
0.0163307609843
0.0165350631552
0.0167369596543
0.0169359438271
0.0171314894324
0.0173230407161
0.0175100183941
0.0176918129167
0.0178677920251
0.0180372961364
0.0181996472518
0.0183541464993
0.0185000845345
0.0186367413928
0.0187633985638
0.0188793412968
0.0189838724791
0.019076317429
0.0191560395225
0.0192224472454
0.0192750111477
0.0193132724565
0.0193368603561
0.0193455007825
0.0193390322434
0.0193174125608
0.0192807305717
0.0192292077842
0.019163202714
0.0190832042215
0.018989825587
0.0188837871832
0.0187658985567
0.0186370288363
0.0184980742569
0.0183499104517
0.0181933325267
0.018028963869
0.0178571277692
0.017677669307
0.0174899066536
0.0172928057124
0.0170850624056
0.0168656098731
0.0166336753038
0.0163887636936
0.016130632589
0.0158592675424
0.0155748660124
0.0152778219932
0.014968714559
0.014648292576
0.0143174598258
0.0139772541029
0.0136288258131
0.013273410852
0.012912304245
0.0125468300287
0.012178314021
0.0118080549679
0.0114373002103
0.011067221026
0.0106988929716
0.0103332760084
0.00997119888511
0.00961334263395
0.00926022795419
0.00891220489833
0.00856945498271
0.00823192529479
0.00789944874158
0.0075716258921
0.00724780625987
0.00692706490485
0.00660817852623
0.00628960163251
0.00596945033046
0.00564549909908
0.00531520248261
0.00497575219416
0.00462418487663
0.00425755339484
0.00387317688777
0.00346898354591
0.00304396739456
0.00259879684622
0.0021366614845
0.001664563833
0.001195581417
0.000753557315272
0.000385085919073
0.000183209868639
0.00112260444853
0.00124373117903
0.00146600769209
0.00176259110881
0.00211217166335
0.0025009884044
0.00292026515122
0.00336382567257
0.00382670156347
0.00430443410981
0.00479276797128
0.00528753931759
0.00578467172566
0.00628021759401
0.00677043115576
0.00725184457307
0.00772135111789
0.00817627360166
0.00861442757207
0.00903415873701
0.00943436803828
0.00981450505579
0.0101745478549
0.0105149518814
0.0108365910761
0.0111406754118
0.0114286718598
0.011702212729
0.011963019636
0.0122128243706
0.0124533137409
0.0126860756412
0.0129125713939
0.0131341081011
0.0133518347757
0.013566734153
0.0137796339114
0.0139912089857
0.0142019994155
0.0144124160924
0.014622759602
0.0148332254674
0.0150439213517
0.0152548704281
0.015466026366
0.0156772751171
0.0158884488889
0.0160993292491
0.0163094524989
0.0165182318277
0.0167250979297
0.0169294740613
0.0171307707847
0.0173283751783
0.0175216533857
0.0177099449157
0.0178925681575
0.018068817393
0.0182379701628
0.0183992864777
0.0185520178387
0.0186954085833
0.0188287065903
0.0189511667976
0.0190620636326
0.0191606966741
0.0192464047076
0.0193185732837
0.0193766499803
0.0194201531959
0.019448687683
0.0194619532977
0.0194597591469
0.0194420302131
0.0194088176016
0.0193603001044
0.0192967872645
0.0192187123782
0.0191266248291
0.0190211710619
0.0189030727959
0.0187730923618
0.0186319923846
0.0184804795546
0.0183191383716
0.0181483472846
0.0179681917827
0.0177783911318
0.0175782932298
0.0173674405016
0.0171450889003
0.0169105176561
0.0166631764348
0.0164027140642
0.0161289880316
0.0158420621567
0.0155422020246
0.0152298651722
0.0149056911146
0.0145704861747
0.0142252074783
0.0138709413643
0.0135088810877
0.0131402999165
0.0127665250095
0.0123889086659
0.0120088022681
0.0116275294938
0.0112463636151
0.0108665052307
0.010489064589
0.0101150446524
0.00974532850662
0.00938066748472
0.00902167377106
0.00866881533301
0.00832241846757
0.00798254876801
0.00764912420682
0.00732185662135
0.00700022991474
0.00668347520629
0.00637054536146
0.00606008889167
0.0057504288852
0.00543955129691
0.00512511239212
0.00480447452414
0.00447478375423
0.0041331018336
0.00377660816347
0.00340288861466
0.00301033834097
0.00259872763873
0.00217003278216
0.0017297367285
0.00128897815287
0.000868088110052
0.000501426942886
0.000266516580067
0.00163688308751
0.0017322713372
0.0019149526596
0.00217229273591
0.00249026318726
0.00285618090605
0.00325966286216
0.00369239402149
0.00414755358743
0.00461929983189
0.00510242541323
0.00559215585815
0.00608405999608
0.00657402328616
0.00705826871178
0.00753339324754
0.0079964195144
0.00844483882758
0.00887665260218
0.00929039175245
0.00968512613452
0.0100604461437
0.0104164334633
0.0107536054244
0.0110728545024
0.0113753688149
0.0116625580325
0.011935969997
0.0121972229438
0.0124479360484
0.012689681837
0.0129239398052
0.013152073033
0.0133753044562
0.0135947136103
0.0138112292571
0.0140256387371
0.0142385894463
0.0144506038522
0.0146620840801
0.0148733280474
0.0150845339758
0.0152958154823
0.0155072048028
0.0157186661611
0.0159300975222
0.0161413424422
0.0163521913054
0.0165622237518
0.0167708306453
0.0169774189682
0.0171813914945
0.0173821418739
0.0175790445196
0.0177714564965
0.0179587123508
0.0181401291472
0.0183150040491
0.0184826212804
0.0186422517732
0.0187931616922
0.0189346139402
0.0190658781423
0.0191862339291
0.0192949823178
0.0193914506617
0.0194750052627
0.019545057705
0.0196010782807
0.0196426030915
0.0196692474461
0.0196807126023
0.0196767976876
0.0196574042689
0.0196225445873
0.0195723413426
0.0195070292419
0.019426946679
0.0193325270537
0.0192242787215
0.0191027625113
0.0189685566091
0.0188222175162
0.0186642286348
0.0184949472437
0.0183145478858
0.0181229822664
0.017919966165
0.0177050147453
0.0174776890235
0.0172379890988
0.0169855833673
0.0167202607589
0.0164419529019
0.0161507517176
0.0158469150398
0.0155308690257
0.0152032024537
0.0148646590695
0.0145161234357
0.0141586055138
0.0137932197716
0.0134211640986
0.0130436948764
0.0126621034868
0.0122776908674
0.0118917450481
0.0115055182558
0.0111202079683
0.0107369383932
0.0103567461457
0.00998056652996
0.0096092236499
0.0092434208355
0.00888373420588
0.0085306059839
0.00818433949149
0.00784502382773
0.00751258690656
0.00718677817426
0.00686715077104
0.00655304042901
0.00624354333843
0.0059374925042
0.00563343683246
0.00532962580074
0.00502400738759
0.00471424664243
0.00439777683835
0.00407189565097
0.00373392377547
0.00338144777317
0.0030126824965
0.00262701334005
0.00222582899824
0.00181383246682
0.00140105748601
0.00100531384653
0.000652222939474
0.00042741591346
0.0021852694965
0.00226845526991
0.00242992177463
0.00266210187461
0.00295558853359
0.0033003676349
0.00368683781455
0.00410632643197
0.00455119717518
0.00501474246949
0.00549102452175
0.00597473120862
0.00646108310584
0.00694577930609
0.00742498411472
0.00789532994473
0.00835393824253
0.00879843555474
0.00922697138654
0.00963821796359
0.0100313636072
0.0104060826632
0.0107624985377
0.0111011250925
0.0114228068812
0.0117286444801
0.0120199274988
0.0122980606407
0.0125645054362
0.0128207206201
0.0130681225229
0.0133080456964
0.0135417238161
0.0137702690874
0.013994669577
0.014215781874
0.0144343386152
0.0146509483752
0.0148661079096
0.0150802048013
0.0152935308883
0.0155062851784
0.015718586726
0.0159304767555
0.0161419302639
0.0163528569271
0.0165631112142
0.0167724924803
0.0169806927451
0.0171871021038
0.0173911254084
0.0175921647084
0.0177896153791
0.0179828570653
0.0181712557684
0.0183541592882
0.0185309022719
0.0187008041993
0.0188631762123
0.0190173209235
0.0191625405881
0.0192981384308
0.0194234279534
0.0195377355942
0.0196404110073
0.0197308308508
0.0198084097988
0.0198726051272
0.0199229280247
0.0199589483916
0.0199803056918
0.0199867129874
0.0199779661099
0.0199539454259
0.0199146215163
0.0198600525499
0.0197903840405
0.0197058391668
0.0196067098106
0.0194933371105
0.0193660914437
0.0192253417901
0.0190714249849
0.0189046074555
0.018725052783
0.0185327932026
0.0183277229337
0.0181096132792
0.0178781568585
0.0176330190637
0.017374266218
0.0171023299078
0.0168173570982
0.0165196124455
0.0162094797569
0.0158874667021
0.015554206596
0.0152104533983
0.0148570753965
0.0144950426912
0.0141254139399
0.0137493180792
0.0133679365582
0.0129824823012
0.0125941806227
0.012204248495
0.0118138768723
0.0114242125028
0.0110363433459
0.0106512840308
0.010269964894
0.00989322105749
0.00952178452891
0.00915627582885
0.00879719753627
0.00844492614749
0.00809970366644
0.00776159339492
0.00743050564912
0.00710619570941
0.00678825035971
0.00647607121108
0.00616885686791
0.00586558314522
0.0055649845794
0.00526553890786
0.00496546048247
0.00466270840576
0.00435501993223
0.00403998135432
0.00371515524096
0.00337828997011
0.00302765388396
0.00266256320527
0.00228421810706
0.00189699942122
0.00151022925579
0.00113928084975
0.00080373847764
0.000624817575989
0.0027500708785
0.00282673170868
0.00297629766699
0.00319311888542
0.00346999217657
0.00379874433
0.00417089236163
0.00457817843859
0.00501289801065
0.00546803332667
0.00593727302391
0.00641497228149
0.00689610704368
0.00737623114044
0.00785145439411
0.00831842732455
0.00877434017977
0.00921691688465
0.00964441228923
0.0100555942411
0.0104497226749
0.0108265094939
0.0111860756308
0.0115288909155
0.011855716353
0.0121675349426
0.0124654921277
0.0127508308979
0.0130248424616
0.0132888153543
0.013544002896
0.0137915896694
0.0140326760326
0.0142682598842
0.014499234376
0.0147263802594
0.0149503717469
0.0151717747099
0.0153910564596
0.0156085863859
0.0158246469624
0.0160394349185
0.0162530720916
0.0164656062279
0.0166770209615
0.0168872356915
0.0170961143364
0.0173034647388
0.0175091300843
0.0177125095416
0.0179130161879
0.0181100609109
0.0183030499966
0.0184913773016
0.0186744268572
0.0188515688478
0.019022164778
0.0191855656801
0.0193411188328
0.0194881675064
0.01962605876
0.0197541443564
0.0198717893512
0.0199783739073
0.0200733024285
0.0201560059945
0.0202259517375
0.0202826455249
0.0203256411384
0.0203545426516
0.0203690127408
0.0203687739378
0.0203536150865
0.0203233903057
0.0202780222371
0.0202174971905
0.0201418635121
0.0200512212037
0.0199457137935
0.019825511187
0.0196907945278
0.019541733115
0.0193784652362
0.0192010754454
0.019009582147
0.0188039311573
0.0185840094615
0.0183496718745
0.0181007837068
0.0178372568071
0.0175590751061
0.0172667637828
0.016961267314
0.0166431755872
0.0163131706533
0.0159720192072
0.0156205751769
0.0152597698729
0.0148906054406
0.0145141434986
0.0141314942615
0.0137438016007
0.013352229493
0.0129579456898
0.012562107714
0.012165847264
0.0117702575693
0.0113763799216
0.0109851933484
0.0105976037759
0.0102144360938
0.00983642559887
0.00946421169566
0.00909833043403
0.00873920818857
0.00838715305615
0.00804234554295
0.00770480829029
0.00737442387611
0.00705093883481
0.00673395349406
0.00642290892106
0.00611707285071
0.00581552360989
0.00551713464027
0.00522056053248
0.00492422936677
0.00462634601804
0.00432491590206
0.00401780110699
0.0037028286944
0.00337798001654
0.00304170814071
0.00269345666867
0.00233448410478
0.00196906792079
0.00160579383239
0.00125733399669
0.000940975368673
0.000838103435283
0.00332072547188
0.00339369086717
0.00353637489775
0.00374392499643
0.00401015326068
0.00432790870643
0.00468952877372
0.00508727040287
0.00551365184491
0.00596166815486
0.00642490700216
0.00689758747866
0.00737456580232
0.00785131853753
0.00832392793451
0.00878906163541
0.00924395970156
0.00968641354507
0.0101147477037
0.0105277879909
0.010924829245
0.0113055873932
0.011670152281
0.0120189270866
0.0123525732153
0.0126719464681
0.012978044378
0.0132719492413
0.013554786515
0.0138276812008
0.0140917311754
0.0143479783554
0.014597396132
0.0148408729092
0.0150792101023
0.0153131140887
0.0155432007106
0.0157699919594
0.0159939237475
0.0162153447587
0.016434525459
0.0166516576795
0.0168668637988
0.0170801962997
0.0172916463638
0.0175011424335
0.0177085565399
0.0179136988059
0.0181165624569
0.0183165951367
0.0185132282093
0.0187058860567
0.0188939902686
0.0190769538097
0.0192541840495
0.0194250788824
0.0195890318301
0.0197454301683
0.0198936614103
0.0200331127339
0.0201631782993
0.0202832595344
0.0203927729342
0.0204911508706
0.0205778495709
0.0206523501256
0.0207141663107
0.0207628454122
0.0207979754678
0.0208191854137
0.020826151187
0.0208185945505
0.0207962873295
0.0207590481125
0.0207067437521
0.0206392830508
0.0205566146619
0.0204587170598
0.0203455924459
0.0202172532039
0.020073712916
0.0199149718084
0.0197410092662
0.019551775099
0.0193471929475
0.0191271686147
0.0188916147863
0.0186404809241
0.0183737911068
0.0180916708638
0.01779436116
0.0174822111131
0.0171559695757
0.016817229893
0.0164669256876
0.0161060607488
0.0157357025458
0.0153569564013
0.0149709598074
0.0145788707405
0.0141818587091
0.0137810928491
0.0133777323439
0.0129729145443
0.0125677457606
0.0121632904023
0.0117605629283
0.0113605185901
0.0109640468635
0.0105719638095
0.0101850067315
0.00980382760808
0.00942898817606
0.00906095334103
0.00870008528131
0.00834663506802
0.00800073362311
0.00766236488837
0.00733138101459
0.00700751279705
0.00669036193128
0.00637939073416
0.00607391109533
0.00577307159498
0.00547584502126
0.00518101678034
0.00488717828555
0.00459272930264
0.00429589803685
0.00399479071092
0.0036874909215
0.00337223919471
0.00304774134784
0.00271367482822
0.00237146639414
0.00202530047011
0.00168280276601
0.00135398053951
0.00105811173096
0.0010569652317
0.00389063875042
0.00396155909679
0.00410040785682
0.00430267259251
0.00456261567307
0.00487359551242
0.00522843489419
0.00561977908566
0.00604040453977
0.00648344190294
0.00694252468614
0.0074118678259
0.00788630736524
0.00836130662325
0.00883295291103
0.00929793902637
0.009753545393
0.01019761025
0.0106285012107
0.0110450736371
0.0114466303065
0.0118328680037
0.012203827739
0.0125598345158
0.0129014450373
0.013229388734
0.0135445211189
0.0138477734675
0.0141401176297
0.0144225282902
0.0146959610554
0.0149613273062
0.0152194839885
0.0154712184987
0.0157172469538
0.0159582057767
0.0161946551749
0.0164270745682
0.0166558688104
0.0168813655467
0.017103822679
0.0173234266307
0.0175403003236
0.0177545019321
0.0179660331107
0.0181748382191
0.0183808131717
0.0185838068727
0.0187836449678
0.0189801896297
0.0191728421339
0.0193610261916
0.0195441764176
0.0197217265686
0.0198931102324
0.0200577559213
0.0202150916383
0.0203645425426
0.0205055370046
0.0206375054591
0.0207598871185
0.0208721294411
0.0209736950808
0.021064061599
0.0211427283236
0.0212092159672
0.0212630730689
0.0213038751628
0.0213312304341
0.021344778038
0.0213441925485
0.0213291809842
0.0212994855958
0.02125487916
0.021195165703
0.0211201737612
0.0210297548998
0.0209237750986
0.0208021116439
0.0206646438834
0.0205112505935
0.0203418033599
0.0201561689655
0.0199542112749
0.0197358053311
0.0195008540344
0.0192493173738
0.0189812411283
0.0186967891153
0.0183962622628
0.01808010829
0.0177489117041
0.0174033777217
0.0170442201562
0.0166736998353
0.0162929637293
0.0159032989896
0.0155059705514
0.0151022450971
0.0146933782723
0.0142806067595
0.0138651385761
0.0134481467816
0.0130307610893
0.0126140625618
0.0121990765304
0.0117867682598
0.0113780370451
0.0109737126549
0.0105745502283
0.0101812269991
0.00979433732075
0.00941438891778
0.00904179712634
0.00867687960722
0.00831984857855
0.00797080265831
0.00762969849134
0.00729635924952
0.00697049733171
0.00665170854313
0.00633946402722
0.0060331017008
0.00573181614082
0.00543464897549
0.00514048008719
0.00484802333955
0.00455583046714
0.00426231153345
0.00396578359037
0.00366456791327
0.00335716622893
0.00304256192354
0.00272070183351
0.00239318463954
0.00206399724691
0.0017396163104
0.00142783989118
0.00115405070788
0.0012760680482
0.00445563876142
0.00452562189884
0.00466272788592
0.00486256901218
0.0051195695352
0.00542729163869
0.00577878645892
0.00616692206612
0.00658466495789
0.00702528929642
0.00748252634668
0.00795065350196
0.00842454824011
0.00889970681783
0.00937224915535
0.00983890336633
0.0102969864975
0.0107443702334
0.0111794464598
0.0116010795459
0.0120085609586
0.0124015525815
0.0127800357993
0.0131442522824
0.01349465458
0.0138318514544
0.0141565663882
0.0144695927179
0.0147717636811
0.0150639193356
0.0153468884512
0.0156214662234
0.015888405951
0.0161484049398
0.0164021030347
0.0166500738869
0.0168928276869
0.0171308055661
0.0173643846465
0.0175938741618
0.01781952172
0.0180415104144
0.0182599657711
0.0184749535421
0.0186864870525
0.0188945253695
0.0190989805263
0.0192997152006
0.0194965477959
0.0196896014164
0.0198782943584
0.0200620675572
0.0202403762905
0.0204126789264
0.0205784374665
0.0207371121631
0.0208881656166
0.0210310598054
0.021165261574
0.0212902407191
0.0214054759956
0.0215104536449
0.0216046734774
0.0216876474715
0.0217589056193
0.0218179942892
0.0218644815522
0.0218979550163
0.0219180263527
0.0219243283224
0.0219165182387
0.0218942739467
0.021857296029
0.0218053026242
0.021738030367
0.0216552282179
0.0215566575337
0.0214420856557
0.021311286285
0.0211640345982
0.0210001103569
0.0208192977562
0.0206213951186
0.0204062237217
0.0201736479491
0.0199235954258
0.01965608658
0.0193712598292
0.019069397988
0.0187509409137
0.0184164903474
0.0180667969343
0.0177027405474
0.0173252956855
0.0169355295149
0.0165350760555
0.016126071553
0.0157098281098
0.0152877361966
0.0148611471823
0.0144313689193
0.0139996601557
0.0135672265572
0.0131352141312
0.0127047071504
0.0122767234644
0.0118522128342
0.0114320533112
0.0110170498088
0.0106079307686
0.0102053463199
0.00980986441266
0.00942196793222
0.00904204960653
0.00867040733996
0.00830723721423
0.00795262655611
0.00760652475723
0.00726873073651
0.00693893940658
0.00661673747352
0.00630159725537
0.00599287030314
0.00568977982055
0.00539141386722
0.00509671961622
0.00480450222379
0.00451343183459
0.00422206694138
0.00392890558957
0.00363248433008
0.00333155355424
0.00302536843654
0.00271413008843
0.00239955002583
0.00208528948255
0.00177661827444
0.00147984170321
0.00123012132985
0.0014924258713
0.00501311642227
0.00508300179981
0.00521997197007
0.00541964639278
0.00567644721011
0.00598394979034
0.00633524707459
0.00672327761513
0.00714109759136
0.00758207664611
0.00804003662409
0.0085093350436
0.00898491799737
0.00946234039423
0.009937772835
0.0104079869267
0.0108703352001
0.011322714427
0.0117635280133
0.0121916350092
0.0126063022013
0.0130071460809
0.0133940821198
0.0137672671914
0.0141270531368
0.0144739359514
0.0148085187072
0.0151314711376
0.0154435039271
0.0157453392709
0.0160376957722
0.0163212683181
0.0165967212368
0.0168646749183
0.0171257045706
0.0173803311721
0.0176290236522
0.0178721924278
0.01811019356
0.018343323827
0.0185718260392
0.0187958851247
0.0190156341973
0.0192311513856
0.0194424663005
0.0196495570303
0.0198523557573
0.0200507433689
0.0202445490116
0.0204340965628
0.0206188785059
0.0207983685977
0.0209720469235
0.0211393971353
0.0212999091095
0.0214530733654
0.0215983845893
0.0217353378195
0.0218634332317
0.0219821733129
0.0220910681013
0.0221896327245
0.0222773926561
0.0223538812716
0.0224186448539
0.022471239918
0.0225112377522
0.0225382213092
0.0225517891086
0.022551551543
0.0225371340306
0.0225081726839
0.0224643167348
0.0224052237032
0.0223305613689
0.0222400029202
0.0221332291846
0.0220099247993
0.0218697820926
0.0217125001188
0.0215377924396
0.0213453916663
0.0211350639074
0.0209066213528
0.0206599449303
0.020395004578
0.0201118866802
0.0198108147142
0.0194921702154
0.0191565002182
0.0188045190271
0.0184370946287
0.0180552311627
0.0176600432958
0.0172527302141
0.0168345520119
0.016406649004
0.0159714399662
0.0155306259339
0.0150856287741
0.0146378284424
0.0141885419339
0.0137390236575
0.0132904562361
0.012843954072
0.0124005577003
0.0119612345532
0.0115268763468
0.0110982989093
0.010676239899
0.0102613576617
0.00985422789773
0.00945534121805
0.00906509838504
0.00868380605072
0.00831167038323
0.00794879133435
0.0075951414255
0.00725050367109
0.00691456029281
0.00658688973033
0.00626696225496
0.00595413573207
0.00564765052063
0.0053466255155
0.00505005566327
0.00475681449003
0.0044656651671
0.00417528821217
0.00388433701002
0.00359153990955
0.0032958740229
0.0029968399579
0.00269484758421
0.00239163806983
0.00209044638187
0.00179540157646
0.00151212490446
0.00128882457009
0.00170400776126
0.00556152193167
0.00563201103892
0.00577019832702
0.00597163533967
0.0062306363376
0.0065406594695
0.00689469939858
0.0072856341021
0.00770650299439
0.00815069793987
0.00861209066318
0.00908510338052
0.00956475134584
0.0100466556779
0.0105270455894
0.0110027406241
0.0114711283263
0.0119301255218
0.0123781389815
0.0128140130354
0.0132369810625
0.0136466076937
0.0140427394549
0.0144254494282
0.0147949939593
0.0151517653845
0.0154962588159
0.0158290353734
0.0161506999104
0.0164618743672
0.0167631849899
0.0170552437568
0.0173386426292
0.0176139405861
0.0178816625071
0.0181422897563
0.018396261905
0.0186439694874
0.0188857574451
0.0191219192803
0.0193527016187
0.0195782994006
0.0197988612917
0.0200144858003
0.0202252274447
0.0204310937759
0.0206320523003
0.02082802873
0.0210189164966
0.0212047597997
0.021385644128
0.0215610084003
0.0217303336418
0.0218931195136
0.0220488786897
0.0221971274691
0.0223373875181
0.0224691807452
0.0225920332112
0.0227054712962
0.0228090261722
0.0229022303755
0.0229846223435
0.0230557430666
0.0231151404746
0.0231623659939
0.0231969786546
0.0232185414436
0.023226625062
0.0232208040408
0.0232006601663
0.0231657784472
0.0231157503813
0.0230501700722
0.0229686377674
0.0228707567498
0.022756137967
0.0226243987808
0.0224751700108
0.0223080981485
0.0221228565893
0.021919153178
0.0216967472686
0.0214554636742
0.0211952154317
0.020916022241
0.0206180345569
0.0203015494769
0.0199670268479
0.0196150924983
0.0192465376957
0.0188623049812
0.018463471706
0.0180512239195
0.0176268321867
0.0171916225075
0.0167469527849
0.0162942422277
0.0158346030359
0.0153707646979
0.0149041779542
0.0144362034103
0.0139681716337
0.0135013107781
0.0130367926643
0.0125757050443
0.0121190634216
0.0116678052185
0.0112227906019
0.0107848013118
0.0103545390532
0.00993262213119
0.00951958301882
0.00911586342801
0.008721810013
0.00833766804287
0.0079635756154
0.00759956740024
0.00724542708153
0.0069008339823
0.0065653631786
0.00623848386272
0.00591955751057
0.0056078353296
0.00530245721221
0.00500245267022
0.0047067473408
0.00441417862196
0.00412352837057
0.00383358327388
0.00354323980585
0.00325167400183
0.002958593479
0.00266455758946
0.00237125477458
0.00208143577627
0.00179823521501
0.00152739629147
0.00133315972665
0.00190897062628
0.00610005173444
0.00617177559303
0.00631240206986
0.00651735859183
0.00678077266931
0.00709588608805
0.00745548229597
0.00785226349675
0.00827914805011
0.00872946585082
0.00919707852633
0.00967643624994
0.0101626047798
0.010651264542
0.0111387023608
0.0116217861812
0.0120979379415
0.0125650918343
0.0130216535322
0.0134664473775
0.0138986685867
0.014317826922
0.0147236997206
0.0151162794009
0.0154957335597
0.0158623610893
0.0162165624388
0.0165588058772
0.0168896079994
0.0172095091608
0.0175190624152
0.0178188159312
0.0181093079459
0.018391053888
0.0186645452274
0.0189302395654
0.0191885619056
0.0194398966297
0.0196845903193
0.0199229450441
0.0201552222796
0.0203816372542
0.0206023637691
0.0208175295512
0.0210272219236
0.021231484142
0.0214303217711
0.021623699827
0.0218115498334
0.0219937659915
0.0221708795137
0.0223423474885
0.0225076679307
0.022666359305
0.0228179543569
0.0229619898567
0.0230980076487
0.0232255485255
0.0233441553713
0.0234533683668
0.0235527287731
0.023641774632
0.023720044733
0.0237870745408
0.0238424002009
0.023885554599
0.0239160713577
0.0239334810056
0.0239373149835
0.0239271019792
0.0239023720507
0.0238626533072
0.0238074764036
0.0237363719362
0.0236488757848
0.0235445278576
0.0234228790505
0.0232834922957
0.0231259522133
0.0229498696721
0.022754895328
0.0225407287777
0.0223071366492
0.0220539663291
0.0217811674349
0.0214888074643
0.0211770921846
0.0208463770522
0.0204971791905
0.0201301772739
0.0197462093093
0.019346258228
0.018931436447
0.0185029616239
0.0180621347682
0.0176103144986
0.0171488983632
0.0166792999098
0.0162029245941
0.0157212414532
0.0152353443795
0.0147477541773
0.0142600233143
0.0137733246495
0.013288961286
0.0128080703798
0.0123317482624
0.0118610042527
0.011396770597
0.0109399057238
0.0104911876989
0.0100513108774
0.00962088368689
0.00920042268188
0.00879034795353
0.00839097706574
0.00800251999712
0.00762507674339
0.00725850305359
0.00690248362121
0.00655659705123
0.00622031593984
0.00589300692978
0.00557393048594
0.00526224272553
0.00495699985058
0.00465716879728
0.00436164764037
0.00406930339772
0.00377903695438
0.00348988956395
0.0032012053693
0.00291285514253
0.00262548600138
0.00234066382673
0.00206063518552
0.00178772592771
0.00152857245063
0.00136625981408
0.00210525723747
0.00662844275618
0.00670200004504
0.00684622759711
0.00705638061332
0.00732633324205
0.00764902592654
0.00801693197472
0.00842247249342
0.00885834233613
0.00931771955891
0.0097943845708
0.0102827646414
0.0107779438517
0.0112756442698
0.0117722023209
0.0122645316148
0.0127500877815
0.0132268218184
0.0136931372101
0.0141478368955
0.0145900769424
0.0150193125914
0.0154352545446
0.0158378199122
0.0162270960367
0.0166032999782
0.0169667520207
0.0173178444944
0.0176570245291
0.0179847709521
0.0183015843931
0.0186079701533
0.0189044334557
0.0191914662974
0.0194695460398
0.0197391248196
0.0200006302888
0.0202544567446
0.0205009673375
0.0207404864865
0.0209733031894
0.0211996645199
0.0214197798537
0.0216338153597
0.0218418989823
0.0220441156361
0.0222405121519
0.0224310914239
0.0226158135572
0.0227945808402
0.022968066717
0.0231359001886
0.0232976145957
0.023452746437
0.0236008419142
0.023741450089
0.0238741241046
0.0239984141806
0.0241138700212
0.024220035101
0.024316449853
0.0244026466147
0.024478153182
0.0245424881888
0.0245951649392
0.0246356871933
0.0246635532993
0.0246782524318
0.0246792691054
0.0246660799823
0.0246381589261
0.0245949746009
0.0245359963436
0.0244606929239
0.0243685396768
0.0242590189772
0.0241316292569
0.0239858879237
0.0238213430126
0.0236375793169
0.0234342333002
0.0232110028408
0.0229676653198
0.0227040902279
0.0224202586955
0.0221162761064
0.0217923889737
0.0214489924908
0.0210866391929
0.0207060363106
0.0203080424853
0.0198936535052
0.0194639883422
0.0190202670303
0.0185637916078
0.018095922806
0.0176180622196
0.017131632635
0.0166380662339
0.0161387901096
0.0156352035477
0.0151287624845
0.0146206161619
0.0141126021256
0.0136068180906
0.013104181707
0.0126059859813
0.0121133195871
0.0116271974282
0.0111485921719
0.0106783866008
0.0102173803683
0.00976629085343
0.00932574232535