/*--------------------------------*- C++ -*----------------------------------*\
| =========                 |                                                 |
| \\      /  F ield         | OpenFOAM: The Open Source CFD Toolbox           |
|  \\    /   O peration     | Version:  2206                                  |
|   \\  /    A nd           | Website:  www.openfoam.com                      |
|    \\/     M anipulation  |                                                 |
\*---------------------------------------------------------------------------*/
FoamFile
{
    version     2.0;
    format      ascii;
    arch        "LSB;label=64;scalar=64";
    class       surfaceScalarField;
    location    "2.3/water";
    object      phi.gas;
}
// * * * * * * * * * * * * * * * * * * * * * * * * * * * * * * * * * * * * * //

dimensions      [0 3 -1 0 0 0 0];

oriented        oriented;

internalField   nonuniform List<scalar> 
46280
(
6.34925893816e-11
2.73155162059e-07
4.43452142366e-10
2.73131232167e-07
6.70157848052e-10
2.73156865502e-07
8.61115291996e-10
2.73193589597e-07
9.71881387334e-10
2.73227681918e-07
9.76458384331e-10
2.73255272257e-07
8.62977469443e-10
2.73274122798e-07
6.18643411076e-10
2.73284124451e-07
2.38990217845e-10
2.73284329598e-07
-2.82831534596e-10
2.73275652808e-07
-9.4621205044e-10
2.73257832086e-07
-1.75254977618e-09
2.73232443407e-07
-2.69688642817e-09
2.73199694859e-07
-3.77572302486e-09
2.73161593323e-07
-4.98057987804e-09
2.73118634997e-07
-6.3040435269e-09
2.73073037894e-07
-7.73521809594e-09
2.73025376518e-07
-9.26398085108e-09
2.7297789578e-07
-1.08782049339e-08
2.72931055543e-07
-1.25662861174e-08
2.72886979699e-07
-1.43159645248e-08
2.728458595e-07
-1.61152335414e-08
2.72809589961e-07
-1.79525663281e-08
2.72777993388e-07
-1.98163425585e-08
2.72752676787e-07
-2.16962982655e-08
2.72733057924e-07
-2.35816191498e-08
2.72720456099e-07
-2.54634698104e-08
2.72713918453e-07
-2.73319121282e-08
2.72714534614e-07
-2.9179418553e-08
2.72721071976e-07
-3.09967683339e-08
2.72734488469e-07
-3.27774843403e-08
2.72753392004e-07
-3.45128365087e-08
2.7277871496e-07
-3.61971556549e-08
2.72809021065e-07
-3.78220339758e-08
2.72845302453e-07
-3.9382466991e-08
2.72886164109e-07
-4.08703065928e-08
2.72932704733e-07
-4.22811801631e-08
2.72983616419e-07
-4.36072285977e-08
2.73040113024e-07
-4.48447534257e-08
2.73100985769e-07
-4.59862663996e-08
2.73167543895e-07
-4.70288229039e-08
2.73238668393e-07
-4.79654079086e-08
2.7331573123e-07
-4.87939182931e-08
2.73397686413e-07
-4.95079068244e-08
2.7348593532e-07
-5.01061519234e-08
2.73579490714e-07
-5.05826028193e-08
2.7367975329e-07
-5.09336737078e-08
2.73785704321e-07
-5.11521332402e-08
2.73898545669e-07
-5.12414729288e-08
2.74016991949e-07
-5.11993709423e-08
2.74142135352e-07
-5.10270722762e-08
2.7427304009e-07
-5.07204340555e-08
2.74410846383e-07
-5.02819168769e-08
2.74554431536e-07
-4.97084688573e-08
2.74704666049e-07
-4.9003935763e-08
2.74860251679e-07
-4.81664028893e-08
2.75021815235e-07
-4.72011665537e-08
2.75187884858e-07
-4.61075135329e-08
2.75358839388e-07
-4.48922631045e-08
2.75533016035e-07
-4.35559447624e-08
2.75710532567e-07
-4.21069435693e-08
2.75889510831e-07
-4.0547020565e-08
2.76069791902e-07
-3.88861141262e-08
2.76249254048e-07
-3.71271337535e-08
2.76427442951e-07
-3.52814935538e-08
2.76601960831e-07
-3.33530889911e-08
2.76772035719e-07
-3.13546617338e-08
2.76934956998e-07
-2.92908550781e-08
2.77089608237e-07
-2.71755376339e-08
2.77232927303e-07
-2.50138156773e-08
2.77363428892e-07
-2.28204712717e-08
2.77477671582e-07
-2.06008059978e-08
2.77573798894e-07
-1.83703829827e-08
2.77648006047e-07
-1.61345778959e-08
2.77698135984e-07
-1.39098436551e-08
2.77720153335e-07
-1.17018663309e-08
2.77711845396e-07
-9.52858060709e-09
2.77669335894e-07
-7.39683513459e-09
2.77590963915e-07
-5.32731348284e-09
2.77473903555e-07
-3.32955984096e-09
2.77318329769e-07
-1.42865695763e-09
2.77124267787e-07
3.61981773534e-10
2.76896222616e-07
2.01383294776e-09
2.76640472333e-07
3.51674875124e-09
2.7637037139e-07
4.86418710224e-09
2.76104047453e-07
6.11955212325e-09
2.75868873412e-07
7.35054909313e-09
2.75692936802e-07
8.55094780179e-09
2.75598572233e-07
9.6468915571e-09
2.75590812841e-07
1.06896516747e-08
2.7566823424e-07
1.17873064238e-08
2.75811027517e-07
1.30088026186e-08
2.7598560567e-07
1.43493674035e-08
2.76160335547e-07
1.57924580021e-08
2.76314005058e-07
1.73057995888e-08
2.76431796027e-07
1.88662252952e-08
2.76506870439e-07
2.04446060982e-08
2.7653560287e-07
2.20220265216e-08
2.76519361297e-07
2.35754712006e-08
2.76460506213e-07
2.50904432942e-08
2.76364451351e-07
2.65487855987e-08
2.76236242036e-07
2.79390590178e-08
2.76082742189e-07
2.92464166877e-08
2.75909647893e-07
3.04613500649e-08
2.75723718945e-07
3.15712962953e-08
2.75530137517e-07
3.25681230391e-08
2.75334730889e-07
3.3441134078e-08
2.75141605728e-07
3.41835338807e-08
2.74955317711e-07
3.47865351181e-08
2.74778724787e-07
3.52449689317e-08
2.74615066754e-07
3.55522629866e-08
2.74465993416e-07
3.57053301768e-08
2.74333525747e-07
3.57002632047e-08
2.74218226459e-07
3.55366289492e-08
2.74121019328e-07
3.52137362754e-08
2.74041474288e-07
3.47333388673e-08
2.73979494646e-07
3.40972128847e-08
2.73934451463e-07
3.33088534792e-08
2.73906521965e-07
3.23705581146e-08
2.73894400027e-07
3.12871752888e-08
2.73897312589e-07
3.00635522872e-08
2.73913781197e-07
2.87067025745e-08
2.73942916407e-07
2.72235036873e-08
2.73983241521e-07
2.56225347464e-08
2.74033832368e-07
2.39121702289e-08
2.74093256624e-07
2.2102157856e-08
2.74160543727e-07
2.02021635609e-08
2.74234219572e-07
1.82231913273e-08
2.74313074759e-07
1.61766708215e-08
2.74395263872e-07
1.40758550184e-08
2.74478820836e-07
1.19355908083e-08
2.74560752719e-07
9.77403871993e-09
2.74637173542e-07
7.61389053841e-09
2.7470216593e-07
5.48656041652e-09
2.74747085955e-07
3.44100120959e-09
2.74758278297e-07
1.57048984303e-09
2.74713497658e-07
8.02392975694e-11
2.74572880343e-07
-7.17418726285e-10
2.742602917e-07
-7.99917338733e-10
2.73699489757e-07
2.73110932657e-07
-2.32666807989e-10
2.21800517866e-07
-1.8513060719e-10
2.21770656666e-07
-3.03417940863e-10
2.21862478461e-07
-4.81074005932e-10
2.22010746013e-07
-7.40402830811e-10
2.22192834444e-07
-1.09759930669e-09
2.22396622216e-07
-1.56157760081e-09
2.22613985316e-07
-2.13934749368e-09
2.22839743723e-07
-2.8335670357e-09
2.23068866197e-07
-3.64628715037e-09
2.2329790029e-07
-4.5762124107e-09
2.23522762282e-07
-5.62157612286e-09
2.23740832996e-07
-6.77787094287e-09
2.23948726083e-07
-8.04016224706e-09
2.24144481997e-07
-9.40143483718e-09
2.24325350517e-07
-1.0854282484e-08
2.24489989673e-07
-1.2389924139e-08
2.24636246212e-07
-1.39992549122e-08
2.24763365973e-07
-1.56724913441e-08
2.24869753157e-07
-1.73995988047e-08
2.24955220866e-07
-1.91704972912e-08
2.25018700273e-07
-2.09748892258e-08
2.25060560377e-07
-2.28029498729e-08
2.25080238739e-07
-2.46445914809e-08
2.25078646234e-07
-2.64905755094e-08
2.25055698186e-07
-2.8331267211e-08
2.25012807039e-07
-3.01581308592e-08
2.24950303732e-07
-3.19620451704e-08
2.24870013586e-07
-3.37351651102e-08
2.2477257212e-07
-3.54688687918e-08
2.24660079364e-07
-3.71559726758e-08
2.24533327828e-07
-3.87883628115e-08
2.2439453017e-07
-4.0359541181e-08
2.24244484685e-07
-4.18619696553e-08
2.24085368418e-07
-4.32899137044e-08
2.23917865637e-07
-4.46365124857e-08
2.2374401116e-07
-4.58968865669e-08
2.23564303427e-07
-4.70649451428e-08
2.23380576833e-07
-4.81367297875e-08
2.2319311757e-07
-4.91069746867e-08
2.23003539959e-07
-4.99726676483e-08
2.22811921626e-07
-5.07293828382e-08
2.22619659353e-07
-5.13750437803e-08
2.2242663955e-07
-5.19060502007e-08
2.22234050567e-07
-5.23212396273e-08
2.22041603126e-07
-5.26179549574e-08
2.21850277697e-07
-5.2794556039e-08
2.21659646917e-07
-5.28485182204e-08
2.21470722554e-07
-5.27814297798e-08
2.21283265325e-07
-5.25925741767e-08
2.21098152705e-07
-5.22834772604e-08
2.20914778019e-07
-5.18538080096e-08
2.20733775366e-07
-5.13059519031e-08
2.20554573122e-07
-5.06403629312e-08
2.20377777592e-07
-4.98603483421e-08
2.20202821259e-07
-4.89672562314e-08
2.20030264376e-07
-4.79653963955e-08
2.19859543294e-07
-4.6857070586e-08
2.19691181928e-07
-4.5647639411e-08
2.19524629867e-07
-4.43403867236e-08
2.19360389208e-07
-4.2941743411e-08
2.19197933567e-07
-4.14559689141e-08
2.19037760046e-07
-3.98905457569e-08
2.18879379439e-07
-3.82506561697e-08
2.18723304535e-07
-3.65447686198e-08
2.18569101026e-07
-3.47788811328e-08
2.18417324428e-07
-3.29623243138e-08
2.18267621511e-07
-3.11017386008e-08
2.18120627608e-07
-2.92071251108e-08
2.17976108961e-07
-2.72855186349e-08
2.17834831595e-07
-2.53473191692e-08
2.17696736522e-07
-2.33996199111e-08
2.17562789215e-07
-2.14528565519e-08
2.1743318029e-07
-1.95137476259e-08
2.17309162358e-07
-1.75922941196e-08
2.17191269246e-07
-1.56942903503e-08
2.17081142393e-07
-1.38286927742e-08
2.16979759096e-07
-1.19996427383e-08
2.16889243592e-07
-1.02141469652e-08
2.16811085624e-07
-8.47345750929e-09
2.16747908474e-07
-6.78076948397e-09
2.16701616857e-07
-5.13147283627e-09
2.16675011097e-07
-3.51990606657e-09
2.16669649054e-07
-1.92715167443e-09
2.16686905559e-07
-3.25449546178e-10
2.16724817927e-07
1.33068554848e-09
2.16777405614e-07
3.05422340877e-09
2.16830130212e-07
4.77559627485e-09
2.1686824187e-07
6.41608222837e-09
2.16881159723e-07
7.94501105052e-09
2.16874491634e-07
9.367701699e-09
2.16868536185e-07
1.07321887362e-08
2.16879522515e-07
1.2068606169e-08
2.16913691943e-07
1.33965388636e-08
2.16972847443e-07
1.47230795425e-08
2.17055403281e-07
1.60519714434e-08
2.17159445066e-07
1.73805354252e-08
2.17281982081e-07
1.87058321863e-08
2.17420870982e-07
2.00209800604e-08
2.17573526356e-07
2.13197714503e-08
2.1773844864e-07
2.25932000982e-08
2.17913814232e-07
2.3833224506e-08
2.18098848193e-07
2.50297236904e-08
2.18292422962e-07
2.61736943543e-08
2.1849434415e-07
2.72546346876e-08
2.18703998432e-07
2.82633079907e-08
2.18921572718e-07
2.91894913179e-08
2.1914676507e-07
3.00243743466e-08
2.19379942159e-07
3.07586008359e-08
2.19620918206e-07
3.13843485288e-08
2.19870050994e-07
3.18936055352e-08
2.20127091178e-07
3.2279966482e-08
2.2039221632e-07
3.25370952053e-08
2.2066495475e-07
3.26602575793e-08
2.20945164155e-07
3.26449898012e-08
2.21232049472e-07
3.24904142137e-08
2.21525091801e-07
3.21951717823e-08
2.21822980522e-07
3.17564965014e-08
2.22124992128e-07
3.11737117362e-08
2.22429833231e-07
3.0448061283e-08
2.22736084246e-07
2.95814569927e-08
2.23041647394e-07
2.85772834622e-08
2.23344469631e-07
2.74395707664e-08
2.23641875398e-07
2.61736525006e-08
2.23931234754e-07
2.47854361227e-08
2.24209387688e-07
2.32819142506e-08
2.24473248287e-07
2.16705590775e-08
2.2471931441e-07
1.99597483329e-08
2.24944182596e-07
1.81583640552e-08
2.2514409871e-07
1.62762622917e-08
2.25315296291e-07
1.43242507318e-08
2.2545344319e-07
1.23149383244e-08
2.25553546121e-07
1.02637857567e-08
2.25608838152e-07
8.19199353654e-09
2.25609366941e-07
6.13257874701e-09
2.25538514552e-07
4.14364866075e-09
2.25366337664e-07
2.32856804742e-09
2.25035702725e-07
8.51003602262e-10
2.24440254999e-07
-1.10632024507e-10
2.23417925014e-07
2.22084428964e-07
-4.65660197815e-10
2.30749691883e-07
-3.85920287699e-10
2.30708723616e-07
-6.08268488699e-10
2.30825115617e-07
-8.8779746829e-10
2.31019520249e-07
-1.25290844901e-09
2.31262406809e-07
-1.72001112736e-09
2.31536666285e-07
-2.29673810483e-09
2.31831239913e-07
-2.98840685308e-09
2.32138518505e-07
-3.79598039102e-09
2.32452080633e-07
-4.7197959022e-09
2.32766922896e-07
-5.75680873095e-09
2.33078159565e-07
-6.90370622934e-09
2.33381865262e-07
-8.1545622428e-09
2.33673957172e-07
-9.50324262739e-09
2.33951256614e-07
-1.09417246371e-08
2.3421036943e-07
-1.24618539981e-08
2.34448796176e-07
-1.40543007488e-08
2.34663825788e-07
-1.5709687259e-08
2.34853648868e-07
-1.74181410895e-08
2.35016254149e-07
-1.91698081195e-08
2.35150547506e-07
-2.09549402235e-08
2.35255233608e-07
-2.27638141124e-08
2.35329952871e-07
-2.45872833359e-08
2.35374130646e-07
-2.64161373591e-08
2.35388139143e-07
-2.82420610484e-08
2.35372099754e-07
-3.00564870594e-08
2.35327071771e-07
-3.18519315128e-08
2.35253798786e-07
-3.36204110118e-08
2.3515392301e-07
-3.53551451593e-08
2.35028676127e-07
-3.70486096682e-08
2.34880121146e-07
-3.86945995682e-08
2.3470979734e-07
-4.02859729161e-08
2.34519993539e-07
-4.18170568347e-08
2.34312362955e-07
-4.32811096274e-08
2.34089231859e-07
-4.46730376647e-08
2.3385219967e-07
-4.598658805e-08
2.33603481349e-07
-4.72173407743e-08
2.33344504659e-07
-4.83596391689e-08
2.33077279621e-07
-4.94098265876e-08
2.32803000246e-07
-5.03629282574e-08
2.32523429491e-07
-5.12161101824e-08
2.3223951089e-07
-5.19651305405e-08
2.31952756771e-07
-5.26080051192e-08
2.31663874154e-07
-5.31412555033e-08
2.313741439e-07
-5.35637885902e-08
2.31084066109e-07
-5.38729893358e-08
2.30794725015e-07
-5.40664235384e-08
2.30506467242e-07
-5.41409464411e-08
2.3022015472e-07
-5.40985717744e-08
2.29936125311e-07
-5.39393173051e-08
2.29655441181e-07
-5.36644703975e-08
2.29378277618e-07
-5.32735216573e-08
2.29105411157e-07
-5.2768630073e-08
2.28837003833e-07
-5.21500612515e-08
2.28573821886e-07
-5.1420835709e-08
2.28316046413e-07
-5.05820435809e-08
2.28064447676e-07
-4.9637624816e-08
2.27819236285e-07
-4.85895437038e-08
2.2758119551e-07
-4.74426991021e-08
2.27350570431e-07
-4.61999530756e-08
2.27128159868e-07
-4.48671751077e-08
2.26914241452e-07
-4.34481117272e-08
2.26709626983e-07
-4.19495727068e-08
2.26514619867e-07
-4.03761259681e-08
2.26330037698e-07
-3.8735438548e-08
2.26156198417e-07
-3.70327739248e-08
2.25993914848e-07
-3.5276503993e-08
2.25843504758e-07
-3.34723841872e-08
2.2570576127e-07
-3.1629256419e-08
2.25580982398e-07
-2.97530715392e-08
2.25469921467e-07
-2.7852805051e-08
2.25372830897e-07
-2.59341976371e-08
2.25290395228e-07
-2.40059063383e-08
2.25222784451e-07
-2.20729325989e-08
2.25170571716e-07
-2.01430283622e-08
2.25133790171e-07
-1.82197874968e-08
2.25112835014e-07
-1.63093122821e-08
2.25107516562e-07
-1.44129371883e-08
2.25117942947e-07
-1.25341104552e-08
2.25143554624e-07
-1.06706832444e-08
2.25183970615e-07
-8.8218435067e-09
2.25237968911e-07
-6.97982918172e-09
2.2530424546e-07
-5.13664626243e-09
2.2538025547e-07
-3.27544179715e-09
2.25462766026e-07
-1.37876589138e-09
2.25546421309e-07
5.72613042736e-10
2.25624149368e-07
2.57645879744e-09
2.25686609131e-07
4.55521823108e-09
2.25724440437e-07
6.45004707502e-09
2.25739480905e-07
8.26030292112e-09
2.25731807799e-07
9.96094320354e-09
2.25705536794e-07
1.15633215003e-08
2.25676688048e-07
1.30866502894e-08
2.25652417127e-07
1.45485346146e-08
2.25638793837e-07
1.59592332203e-08
2.25639486389e-07
1.7327236379e-08
2.25657222339e-07
1.86556852779e-08
2.25693495866e-07
1.99472663468e-08
2.2574961777e-07
2.12008371152e-08
2.2582616859e-07
2.24154134109e-08
2.25923845098e-07
2.35870978551e-08
2.26042819823e-07
2.47124257166e-08
2.261834682e-07
2.57856664844e-08
2.26345711993e-07
2.68017028879e-08
2.2652968648e-07
2.77536964541e-08
2.2673510115e-07
2.86356001184e-08
2.26961868822e-07
2.94401401334e-08
2.27209494597e-07
3.01610144189e-08
2.27477670174e-07
3.0791132455e-08
2.27765691667e-07
3.13245305209e-08
2.2807301653e-07
3.17548182273e-08
2.28398708346e-07
3.20768339554e-08
2.28741953851e-07
3.22852591324e-08
2.291015354e-07
3.23760429547e-08
2.29476310082e-07
3.2345171583e-08
2.29864714724e-07
3.21917427089e-08
2.30265212734e-07
3.19154212963e-08
2.30675835849e-07
3.15128570898e-08
2.31094900021e-07
3.09819809165e-08
2.31520272525e-07
3.03232245835e-08
2.31949525375e-07
2.95373594014e-08
2.32379720191e-07
2.86262381104e-08
2.32807758737e-07
2.75920432133e-08
2.33230055394e-07
2.6437857551e-08
2.33642875376e-07
2.5167001621e-08
2.34042075522e-07
2.37834758863e-08
2.34423434558e-07
2.22914264637e-08
2.34782455058e-07
2.06955298789e-08
2.35114656203e-07
1.90006779516e-08
2.35415374521e-07
1.72124535981e-08
2.35679897927e-07
1.53372451202e-08
2.35903053435e-07
1.33832139847e-08
2.36078806681e-07
1.13615990817e-08
2.361989606e-07
9.28976414069e-09
2.36250952478e-07
7.19652022874e-09
2.36213190681e-07
5.13044886813e-09
2.36046204611e-07
3.16379859131e-09
2.35675606683e-07
1.39612309552e-09
2.34962562203e-07
8.03218138203e-11
2.33701656283e-07
2.31756416201e-07
-8.02956648665e-10
2.2969295365e-07
-6.96840800718e-10
2.29653508947e-07
-1.08335180846e-09
2.29800218287e-07
-1.51315262934e-09
2.30047228753e-07
-2.01820571527e-09
2.3036177401e-07
-2.61975298054e-09
2.30721189155e-07
-3.32740984605e-09
2.31110150681e-07
-4.14669446676e-09
2.31517640658e-07
-5.07787327977e-09
2.31934980427e-07
-6.12024563776e-09
2.32355029404e-07
-7.26981849255e-09
2.32771359979e-07
-8.52224279242e-09
2.33178412379e-07
-9.87070344264e-09
2.33570932937e-07
-1.13082698232e-08
2.33944334068e-07
-1.28262868718e-08
2.34294255891e-07
-1.44160986079e-08
2.34616973734e-07
-1.60680644665e-08
2.34908999947e-07
-1.77726346304e-08
2.35167495103e-07
-1.95199687913e-08
2.35389890134e-07
-2.13003728577e-08
2.35574285011e-07
-2.31044584137e-08
2.35719078422e-07
-2.49229617351e-08
2.35823351477e-07
-2.6747376162e-08
2.35886491962e-07
-2.85691891656e-08
2.35908562774e-07
-3.03809355363e-08
2.35889908369e-07
-3.21749087601e-08
2.35831508243e-07
-3.39446078314e-08
2.35734557224e-07
-3.5682995727e-08
2.35600806209e-07
-3.73843325206e-08
2.35432115701e-07
-3.90420541423e-08
2.35230792056e-07
-4.06509854774e-08
2.34999122111e-07
-4.22048950867e-08
2.34739716733e-07
-4.36990697266e-08
2.34455038561e-07
-4.51275765623e-08
2.34147764794e-07
-4.6486165862e-08
2.3382031858e-07
-4.77692561113e-08
2.33475257167e-07
-4.897312693e-08
2.33114812311e-07
-5.00926387745e-08
2.32741304088e-07
-5.11246809794e-08
2.32356690881e-07
-5.20646419748e-08
2.31963003812e-07
-5.29100849079e-08
2.31561904085e-07
-5.36569901705e-08
2.31155131497e-07
-5.43036372288e-08
2.30744066794e-07
-5.48466493582e-08
2.30330187364e-07
-5.52850694942e-08
2.29914634358e-07
-5.56162063412e-08
2.29498668683e-07
-5.58379830136e-08
2.29083235565e-07
-5.5945993808e-08
2.28669192104e-07
-5.59417331862e-08
2.28257504722e-07
-5.58262851263e-08
2.27849525075e-07
-5.56007417933e-08
2.27445982151e-07
-5.52642581999e-08
2.27047820052e-07
-5.48186929598e-08
2.2665578491e-07
-5.42639058362e-08
2.26270843359e-07
-5.36025236305e-08
2.25893779865e-07
-5.28351372388e-08
2.25525601072e-07
-5.19651808418e-08
2.25167143272e-07
-5.09940163684e-08
2.24819459329e-07
-4.99259156491e-08
2.24483437085e-07
-4.87630274559e-08
2.24160169211e-07
-4.75104630777e-08
2.23850583062e-07
-4.61711374959e-08
2.23555794282e-07
-4.47509622242e-08
2.2327674795e-07
-4.3253548286e-08
2.23014556629e-07
-4.16855147316e-08
2.22770151699e-07
-4.00510373757e-08
2.22544607019e-07
-3.83572837307e-08
2.22338798667e-07
-3.66087891439e-08
2.22153714869e-07
-3.48130322037e-08
2.21990121439e-07
-3.29746187597e-08
2.2184885881e-07
-3.11010127649e-08
2.21730509927e-07
-2.91965102627e-08
2.21635684396e-07
-2.72681420231e-08
2.21564684727e-07
-2.53194243389e-08
2.21517777598e-07
-2.3356447337e-08
2.2149485379e-07
-2.13813989176e-08
2.21495685695e-07
-1.93988453992e-08
2.21519575415e-07
-1.7409034698e-08
2.21565597329e-07
-1.54143502784e-08
2.21632227312e-07
-1.34124058291e-08
2.21717565076e-07
-1.1402619406e-08
2.21818930638e-07
-9.37917339333e-09
2.21933050827e-07
-7.33779891618e-09
2.22055599522e-07
-5.26935391527e-09
2.2218133607e-07
-3.16860211384e-09
2.22303650476e-07
-1.03224210511e-09
2.22414969504e-07
1.12662670477e-09
2.22507114285e-07
3.26745834478e-09
2.2257351988e-07
5.32193673074e-09
2.22613769224e-07
7.29408749461e-09
2.22635139919e-07
9.19160873667e-09
2.22636495677e-07
1.09892117073e-08
2.22622762872e-07
1.26918621426e-08
2.22608189991e-07
1.43087216721e-08
2.22599655242e-07
1.58458563794e-08
2.22603293073e-07
1.73102354436e-08
2.22624164176e-07
1.87054463442e-08
2.22666119009e-07
2.00356440093e-08
2.22732215587e-07
2.13020477943e-08
2.22824691386e-07
2.25063839426e-08
2.22945281845e-07
2.36478605075e-08
2.23095095024e-07
2.47261894007e-08
2.23274909479e-07
2.57389515709e-08
2.23485015179e-07
2.66842682055e-08
2.23725479243e-07
2.75585157236e-08
2.23995979902e-07
2.83586983629e-08
2.2429604965e-07
2.90804641698e-08
2.24624907531e-07
2.97202105156e-08
2.24981681621e-07
3.02733485124e-08
2.25365239017e-07
3.07361596547e-08
2.25774385844e-07
3.11042622738e-08
2.26207693806e-07
3.13742325546e-08
2.26663676402e-07
3.1542237335e-08
2.2714061312e-07
3.16054350932e-08
2.27636704301e-07
3.15607437837e-08
2.28149899444e-07
3.14076656798e-08
2.28678042036e-07
3.11471545581e-08
2.29218717453e-07
3.07759741883e-08
2.29769583526e-07
3.02911471664e-08
2.30328018705e-07
2.96926725955e-08
2.30891018152e-07
2.89805225581e-08
2.31455171412e-07
2.81553839217e-08
2.3201677735e-07
2.72179232205e-08
2.32571733564e-07
2.616935686e-08
2.33115661098e-07
2.50108174565e-08
2.33643838717e-07
2.37438194756e-08
2.34151349901e-07
2.23697861233e-08
2.34633056065e-07
2.08904973709e-08
2.35083731911e-07
1.93078823721e-08
2.35497999723e-07
1.76246130528e-08
2.358703013e-07
1.58443762824e-08
2.36194522136e-07
1.39729761348e-08
2.36463324183e-07
1.20196731973e-08
2.36666625408e-07
9.99970023236e-09
2.36788784229e-07
7.9372378242e-09
2.3680316461e-07
5.86530840057e-09
2.36662063672e-07
3.8030668206e-09
2.36278316675e-07
1.80265826819e-09
2.35498762687e-07
2.52907129491e-10
2.34092332363e-07
2.31724760353e-07
-1.19764128185e-09
2.30559314106e-07
-1.00416327342e-09
2.30527694221e-07
-1.55557841828e-09
2.30702159011e-07
-2.13753903845e-09
2.30994028001e-07
-2.77967203225e-09
2.3137025805e-07
-3.50644706489e-09
2.31804555111e-07
-4.33122490319e-09
2.32277512566e-07
-5.26154548299e-09
2.32774667124e-07
-6.29857638314e-09
2.33284670099e-07
-7.44170204046e-09
2.33798222806e-07
-8.68649193948e-09
2.34307310417e-07
-1.00280721808e-08
2.34804857527e-07
-1.14590485449e-08
2.35284436913e-07
-1.29719235175e-08
2.35740288734e-07
-1.45575787045e-08
2.36167134557e-07
-1.62069711609e-08
2.36560304536e-07
-1.79102319702e-08
2.36915611158e-07
-1.96576864952e-08
2.37229485633e-07
-2.14395585653e-08
2.37498884327e-07
-2.32463189469e-08
2.37721403691e-07
-2.50689437994e-08
2.37895202379e-07
-2.6898605519e-08
2.3801908529e-07
-2.87274249448e-08
2.38092428178e-07
-3.05475407656e-08
2.38115227673e-07
-3.23523098729e-08
2.38088017606e-07
-3.41348158323e-08
2.38011885822e-07
-3.58894952184e-08
2.37888375866e-07
-3.76101626123e-08
2.37719475846e-07
-3.92920566383e-08
2.37507506492e-07
-4.09294576917e-08
2.37255094036e-07
-4.25181457965e-08
2.36965052447e-07
-4.40526696148e-08
2.36640355688e-07
-4.55291941252e-08
2.36284024675e-07
-4.69424563149e-08
2.35899113545e-07
-4.82889661788e-08
2.35488609072e-07
-4.95636696303e-08
2.35055439649e-07
-5.07634606032e-08
2.34602389487e-07
-5.18835677384e-08
2.34132132966e-07
-5.29213376296e-08
2.33647160867e-07
-5.38723658853e-08
2.33149837498e-07
-5.47345174464e-08
2.32642333803e-07
-5.55038274272e-08
2.32126702823e-07
-5.61787299854e-08
2.31604814331e-07
-5.67557578645e-08
2.31078443512e-07
-5.72339624203e-08
2.30549203766e-07
-5.7610446616e-08
2.3001864951e-07
-5.78842863008e-08
2.29488179712e-07
-5.80485830472e-08
2.28958689387e-07
-5.81036284389e-08
2.28431661399e-07
-5.80521522847e-08
2.2790875341e-07
-5.78949282341e-08
2.27391146325e-07
-5.7630607757e-08
2.26880052978e-07
-5.72606620461e-08
2.26376654254e-07
-5.6784376585e-08
2.25882192981e-07
-5.62038996114e-08
2.25397893515e-07
-5.55191667228e-08
2.24925054342e-07
-5.47330434134e-08
2.24464960352e-07
-5.3846154358e-08
2.24018966504e-07
-5.28621089067e-08
2.23588410638e-07
-5.17822339853e-08
2.23174687807e-07
-5.06108810376e-08
2.2277916511e-07
-4.93500564006e-08
2.22403246689e-07
-4.80048117443e-08
2.22048291284e-07
-4.65777631847e-08
2.21715667651e-07
-4.50745707837e-08
2.21406674774e-07
-4.34983348132e-08
2.21122587892e-07
-4.18551724804e-08
2.20864580163e-07
-4.01484792851e-08
2.20633759179e-07
-3.83846132063e-08
2.20431088189e-07
-3.65670096088e-08
2.20257413424e-07
-3.47019843453e-08
2.20113382141e-07
-3.27926947857e-08
2.19999460896e-07
-3.08450736685e-08
2.19915847559e-07
-2.88616355789e-08
2.19862481464e-07
-2.68475519432e-08
2.19838946482e-07
-2.48043146945e-08
2.19844474716e-07
-2.27359573742e-08
2.19877839048e-07
-2.06426029412e-08
2.19937354189e-07
-1.85268237139e-08
2.20020759187e-07
-1.63871255101e-08
2.20125221435e-07
-1.42244417155e-08
2.20247212683e-07
-1.20357098881e-08
2.203825254e-07
-9.82068452084e-09
2.20526158927e-07
-7.57629396161e-09
2.20672394359e-07
-5.30481025883e-09
2.20814815438e-07
-3.01062422192e-09
2.20946716284e-07
-7.10124376136e-10
2.21061772688e-07
1.57457607766e-09
2.21155397035e-07
3.79341338549e-09
2.21225245635e-07
5.91214574058e-09
2.21277430938e-07
7.94971082282e-09
2.2132002883e-07
9.90801135072e-09
2.21349621494e-07
1.1764915709e-08
2.21371132752e-07
1.35224914558e-08
2.21396747981e-07
1.51830806288e-08
2.21432689295e-07
1.6750759709e-08
2.21484817958e-07
1.82279553949e-08
2.21557868681e-07
1.96186135374e-08
2.21656013405e-07
2.09245411312e-08
2.21782501895e-07
2.21486416316e-08
2.21939921908e-07
2.32917592661e-08
2.22130199599e-07
2.43555668666e-08
2.22354686494e-07
2.5339844903e-08
2.22614188095e-07
2.62450685048e-08
2.22909055615e-07
2.70700411043e-08
2.23239205541e-07
2.78142243689e-08
2.23604206493e-07
2.84756753148e-08
2.24003292971e-07
2.9053137947e-08
2.24435441273e-07
2.95442363916e-08
2.24899372822e-07
2.99473389787e-08
2.25393615121e-07
3.02599631748e-08
2.2591649091e-07
3.0480418059e-08
2.26466161964e-07
3.06063841475e-08
2.27040603526e-07
3.06363398869e-08
2.27637632478e-07
3.05682849314e-08
2.28254872224e-07
3.04025498968e-08
2.28889775719e-07
3.0141489591e-08
2.29539600423e-07
2.97823352815e-08
2.30201615804e-07
2.93216732171e-08
2.30872913058e-07
2.87594866882e-08
2.31550179504e-07
2.80954579712e-08
2.32229762011e-07
2.73297169216e-08
2.32907681132e-07
2.64620882221e-08
2.33579604653e-07
2.54926872746e-08
2.34240878916e-07
2.4421290725e-08
2.34886530374e-07
2.32478427886e-08
2.35511322524e-07
2.19720157e-08
2.36109775934e-07
2.05937234725e-08
2.36676210985e-07
1.9112982588e-08
2.37204697762e-07
1.75305907334e-08
2.3768891393e-07
1.5848468652e-08
2.38121721171e-07
1.40707653397e-08
2.38494310586e-07
1.2204933913e-08
2.38794490693e-07
1.0263207036e-08
2.39003524491e-07
8.26196272335e-09
2.3909031123e-07
6.20992236049e-09
2.39001016278e-07
4.06836964091e-09
2.38641911277e-07
1.90336284762e-09
2.3785938596e-07
2.48670750488e-10
2.36404351209e-07
2.33718716292e-07
-1.61489334339e-09
2.31290584818e-07
-1.28384942402e-09
2.31272414384e-07
-1.98741918782e-09
2.31473677231e-07
-2.71253927363e-09
2.31806109581e-07
-3.4845261664e-09
2.32237504545e-07
-4.32778483984e-09
2.32739753021e-07
-5.25809202254e-09
2.33290152618e-07
-6.28582764727e-09
2.33870770273e-07
-7.41397767277e-09
2.34467424191e-07
-8.64288276392e-09
2.35068457997e-07
-9.96861420612e-09
2.35663948731e-07
-1.13862887384e-08
2.36245284405e-07
-1.28883441751e-08
2.36804772412e-07
-1.4467014486e-08
2.37335537727e-07
-1.61129172254e-08
2.37831387595e-07
-1.78167720505e-08
2.38286832348e-07
-1.95685742968e-08
2.38697035884e-07
-2.13585821453e-08
2.39057867884e-07
-2.31771025059e-08
2.39365885164e-07
-2.50147605378e-08
2.39618369573e-07
-2.68628524134e-08
2.39813318331e-07
-2.87129167212e-08
2.3994944916e-07
-3.05575985892e-08
2.40026187602e-07
-3.23895645564e-08
2.40043633543e-07
-3.42028388723e-08
2.40002537956e-07
-3.59911286526e-08
2.3990423232e-07
-3.77496148636e-08
2.39750592217e-07
-3.94727695027e-08
2.39543937485e-07
-4.11565955047e-08
2.39286986427e-07
-4.27960146291e-08
2.38982740717e-07
-4.43875452066e-08
2.38634439179e-07
-4.59263211064e-08
2.38245443915e-07
-4.74091811888e-08
2.37819203473e-07
-4.88313582692e-08
2.37359154753e-07
-5.01899397487e-08
2.36868701774e-07
-5.14802519763e-08
2.36351141886e-07
-5.2699645743e-08
2.35809660787e-07
-5.38435983289e-08
2.35247285404e-07
-5.49097790628e-08
2.34666891246e-07
-5.58938944059e-08
2.34071179586e-07
-5.67939940702e-08
2.33462691051e-07
-5.76060884852e-08
2.32843802847e-07
-5.83286603384e-08
2.32216742799e-07
-5.89580832257e-08
2.31583601944e-07
-5.9493296801e-08
2.30946344818e-07
-5.99311191253e-08
2.3030683347e-07
-6.02730976567e-08
2.29666926661e-07
-6.05083125884e-08
2.2902737532e-07
-6.0635417986e-08
2.28390031634e-07
-6.06593675325e-08
2.27757100558e-07
-6.0580498797e-08
2.27129912277e-07
-6.03970113226e-08
2.26510036273e-07
-6.01099616972e-08
2.25898967935e-07
-5.97180569756e-08
2.25298239029e-07
-5.92229307966e-08
2.24709399986e-07
-5.86238725119e-08
2.24134044471e-07
-5.79231588162e-08
2.23573787761e-07
-5.71207041714e-08
2.23030282764e-07
-5.62194573865e-08
2.22505196463e-07
-5.5219974485e-08
2.22000216287e-07
-5.41258771408e-08
2.21517026847e-07
-5.29383443113e-08
2.21057306822e-07
-5.16616332512e-08
2.20622707172e-07
-5.02974839384e-08
2.20214838515e-07
-4.88507065105e-08
2.19835250844e-07
-4.732349127e-08
2.1948541161e-07
-4.57210683313e-08
2.19166685995e-07
-4.40459163532e-08
2.18880305952e-07
-4.23035015995e-08
2.18627349315e-07
-4.04963811109e-08
2.18408700433e-07
-3.86300289035e-08
2.18225025992e-07
-3.67068339684e-08
2.18076728317e-07
-3.47320213832e-08
2.1796391577e-07
-3.2707553877e-08
2.17886350834e-07
-3.0638153557e-08
2.17843413865e-07
-2.85251281431e-08
2.17834049556e-07
-2.63724950644e-08
2.17856724986e-07
-2.4180770729e-08
2.17909381105e-07
-2.19531934497e-08
2.17989390267e-07
-1.9689545155e-08
2.18093523962e-07
-1.73924880808e-08
2.18217922592e-07
-1.50615890497e-08
2.18358101046e-07
-1.26999312804e-08
2.18508965245e-07
-1.03088139135e-08
2.18664918097e-07
-7.89510568313e-09
2.18820040438e-07
-5.46708245489e-09
2.1896849147e-07
-3.04166633154e-09
2.19105112112e-07
-6.39086095347e-10
2.19226250418e-07
1.71563273361e-09
2.19330817343e-07
3.98593607766e-09
2.19419545344e-07
6.1480513477e-09
2.19499599999e-07
8.22305226656e-09
2.19581472411e-07
1.02099202811e-08
2.19659767306e-07
1.20928132484e-08
2.19737346343e-07
1.3867987712e-08
2.19826168642e-07
1.55374602803e-08
2.19931006608e-07
1.71021823041e-08
2.20057679808e-07
1.85650968963e-08
2.20210036522e-07
1.99278632813e-08
2.20391785139e-07
2.11935883077e-08
2.20605926854e-07
2.23637875186e-08