/*--------------------------------*- C++ -*----------------------------------*\
| =========                 |                                                 |
| \\      /  F ield         | OpenFOAM: The Open Source CFD Toolbox           |
|  \\    /   O peration     | Version:  2206                                  |
|   \\  /    A nd           | Website:  www.openfoam.com                      |
|    \\/     M anipulation  |                                                 |
\*---------------------------------------------------------------------------*/
FoamFile
{
    version     2.0;
    format      ascii;
    arch        "LSB;label=64;scalar=64";
    class       volScalarField;
    location    "2.3/water";
    object      T.gas;
}
// * * * * * * * * * * * * * * * * * * * * * * * * * * * * * * * * * * * * * //

dimensions      [0 0 0 1 0 0 0];

internalField   nonuniform List<scalar> 
23300
(
333.00207446
333.003838169
333.00602885
333.008452475
333.011095351
333.013959826
333.017045874
333.020348487
333.02385746
333.027557627
333.031429252
333.035448475
333.039587805
333.043816655
333.048101919
333.052408609
333.056700503
333.060940776
333.065096375
333.069135769
333.073029974
333.076753435
333.080284771
333.083607326
333.086709507
333.089584861
333.092231906
333.094653727
333.09685737
333.098853106
333.10065362
333.1022732
333.103726981
333.105030288
333.106198103
333.107244667
333.108183207
333.109025782
333.109783211
333.110465084
333.111079811
333.111634708
333.112136094
333.112589402
333.112999276
333.11336967
333.113703928
333.114004846
333.114274285
333.114513527
333.114723741
333.114905964
333.1150611
333.115189923
333.115293091
333.115371158
333.115424582
333.115453743
333.115458952
333.115440459
333.115398471
333.115333156
333.115244657
333.1151331
333.114998605
333.1148413
333.114661324
333.114458843
333.114234059
333.113987222
333.113718635
333.113428669
333.113117767
333.11278645
333.112435324
333.112065071
333.111676451
333.111270284
333.110847437
333.110408795
333.109955228
333.109487544
333.109006433
333.108512375
333.108005507
333.107485382
333.10695053
333.106397704
333.105822003
333.105218247
333.104582332
333.103911559
333.103204142
333.10245891
333.101675138
333.100852444
333.099990728
333.09909012
333.098150937
333.097173642
333.096158791
333.095106984
333.094018808
333.092894772
333.091735237
333.090540344
333.089309943
333.08804351
333.086740072
333.085398121
333.084015526
333.082589442
333.081116203
333.079591211
333.078008825
333.076362251
333.074643503
333.072842565
333.070947581
333.068944619
333.066817397
333.064546955
333.062113423
333.059497673
333.056679643
333.053639585
333.050359773
333.046826724
333.043033937
333.038985097
333.034697583
333.030206144
333.025566611
333.020859643
333.016194713
333.011714996
333.007605386
333.004113144
333.001613221
333.000504057
333.003682043
333.004888572
333.006829762
333.009182404
333.011830957
333.014735242
333.0178766
333.02124074
333.024812175
333.028572415
333.032499509
333.036568106
333.040749768
333.045013414
333.049325884
333.053652607
333.057958398
333.06220842
333.066369445
333.070410419
333.074303187
333.078023211
333.081550192
333.084868532
333.08796759
333.090841699
333.093489953
333.095915776
333.09812632
333.100131742
333.101944436
333.103578261
333.10504784
333.106367941
333.107552993
333.10861671
333.109571848
333.110430052
333.111201802
333.111896408
333.112522065
333.113085927
333.113594202
333.114052249
333.11446468
333.114835447
333.115167927
333.115465003
333.115728512
333.115959801
333.116160084
333.116330437
333.116471799
333.116584988
333.116670709
333.116729566
333.11676208
333.116768694
333.116749792
333.116705707
333.11663673
333.116543125
333.116425136
333.116282996
333.116116943
333.115927221
333.115714097
333.115477868
333.11521887
333.114937488
333.114634165
333.114309412
333.113963809
333.113598015
333.113212767
333.112808876
333.112387224
333.111948747
333.111494417
333.111025212
333.110542084
333.110045901
333.109537388
333.109017028
333.108484926
333.107940596
333.10738266
333.106808481
333.106214386
333.105596582
333.104950945
333.104274243
333.103564104
333.102818854
333.102037365
333.101218929
333.100363168
333.09946996
333.098539387
333.097571675
333.096567149
333.095526179
333.094449123
333.093336272
333.092187784
333.091003623
333.089783485
333.088526733
333.08723232
333.085898708
333.084523788
333.083104782
333.081638139
333.080119419
333.078543161
333.076902736
333.07519019
333.073396124
333.071509375
333.069516939
333.067403862
333.065153293
333.0627469
333.060165386
333.057388899
333.054397936
333.051174754
333.047705312
333.04398171
333.040005074
333.035788747
333.031361644
333.026771651
333.022089078
333.017410454
333.012863572
333.008616228
333.004895742
333.002039197
333.000528165
333.006348845
333.007208485
333.008793623
333.01092931
333.013480798
333.01636401
333.019527291
333.022935197
333.026559021
333.030371926
333.034346636
333.038454423
333.042664818
333.046945711
333.051263713
333.055584703
333.059874515
333.064099743
333.068228589
333.072231627
333.076082522
333.079758659
333.083241666
333.086517762
333.089577904
333.092417728
333.095037276
333.097440541
333.099634874
333.1016303
333.103438799
333.105073615
333.106548616
333.107877756
333.109074636
333.11015218
333.111122422
333.111996368
333.112783949
333.113494019
333.114134399
333.114711949
333.115232644
333.115701673
333.116123519
333.116502054
333.116840609
333.11714205
333.117408284
333.117640631
333.117840269
333.118008238
333.118145446
333.118252682
333.118330629
333.11837988
333.118400946
333.118394274
333.118360259
333.118299249
333.118211567
333.118097512
333.117957375
333.117791448
333.117600033
333.117383451
333.117142056
333.116876237
333.116586436
333.116273148
333.115936935
333.115578428
333.115198336
333.114797446
333.114376624
333.11393681
333.113479011
333.113004281
333.112513701
333.112008346
333.111489241
333.110957309
333.110413292
333.109857659
333.109290479
333.108711255
333.108118734
333.10751073
333.106884082
333.106236333
333.105564165
333.104864389
333.104134371
333.103372038
333.102575827
333.101744609
333.10087761
333.099974348
333.099034568
333.09805819
333.097045258
333.095995891
333.094910228
333.093788375
333.09263035
333.091436022
333.090205049
333.08893681
333.087630341
333.086284254
333.084896654
333.083465053
333.081986262
333.080456273
333.078870127
333.077221746
333.075503742
333.073707504
333.071822942
333.069838341
333.067740277
333.065513624
333.063141716
333.060606653
333.057889794
333.054972557
333.051837602
333.048470472
333.044861679
333.041009226
333.036921476
333.032620282
333.028144321
333.023552699
333.018929149
333.01438758
333.010080242
333.006209283
333.003028899
333.00088526
333.009449105
333.010171042
333.011554264
333.01350749
333.015934179
333.018750747
333.021891204
333.025303974
333.028946933
333.032783275
333.036778726
333.040899888
333.045113383
333.049385549
333.053682511
333.057970513
333.062216431
333.066388407
333.070456531
333.074393512
333.078175302
333.081781619
333.085196345
333.088407757
333.091408575
333.09419582
333.096770499
333.099137139
333.101303214
333.10327851
333.105074481
333.10670363
333.108178953
333.109513468
333.110719839
333.111810101
333.112795466
333.113686217
333.114491654
333.1152201
333.115878938
333.116474664
333.117012966
333.117498801
333.117936476
333.118329721
333.118681764
333.118995395
333.119272672
333.11951481
333.119722887
333.119897848
333.120040514
333.120151594
333.120231697
333.120281349
333.120301005
333.120291063
333.120251873
333.120183754
333.120087001
333.119961902
333.119808741
333.119627816
333.119419443
333.119183971
333.118921788
333.118633332
333.118319097
333.117979646
333.117615613
333.117227709
333.116816731
333.116383555
333.115929142
333.115454526
333.114960804
333.114449119
333.113920633
333.11337649
333.112817771
333.11224543
333.111660226
333.111062626
333.110452696
333.109829985
333.109193399
333.108541116
333.107870584
333.107179163
333.106465237
333.105725949
333.104958716
333.104161325
333.103331957
333.102469167
333.101571847
333.100639187
333.099670625
333.098665802
333.097624516
333.096546677
333.095432258
333.094281247
333.09309359
333.091869141
333.090607598
333.089308446
333.087970884
333.086593755
333.085175466
333.083713897
333.0822063
333.080649189
333.079038201
333.07736794
333.075631781
333.073821967
333.071929523
333.069944037
333.06785357
333.065644636
333.063302274
333.060810258
333.05815149
333.055308641
333.052265114
333.049006382
333.045521747
333.041806505
333.037864531
333.033711225
333.029376855
333.024910397
333.020384189
333.015899885
333.011595516
333.00764652
333.004212504
333.001508323
333.01275633
333.013417558
333.014700161
333.016543569
333.018876229
333.021625827
333.024726046
333.028118883
333.031754026
333.035587046
333.039577525
333.043687573
333.04788085
333.05212205
333.05637675
333.060611547
333.064794389
333.06889504
333.07288561
333.076741085
333.080439814
333.083963903
333.087299487
333.090436845
333.093370362
333.096098324
333.098622567
333.100948023
333.103082172
333.105034473
333.106815784
333.108437822
333.109912683
333.111252437
333.11246881
333.113572939
333.114575217
333.115485194
333.116311533
333.117062011
333.11774355
333.118362265
333.118923527
333.119432034
333.119891878
333.120306616
333.120679331
333.121012697
333.121308997
333.121569289
333.121794502
333.121985444
333.122142808
333.122267182
333.122359064
333.122418877
333.122446979
333.122443677
333.122409241
333.122343918
333.122247936
333.122121526
333.121964923
333.121778385
333.121562198
333.121316688
333.121042229
333.120739254
333.120408263
333.120049829
333.119664605
333.119253328
333.118816825
333.118356007
333.117871868
333.117365481
333.116837977
333.116290532
333.115724333
333.115140545
333.114540262
333.113924445
333.113293856
333.112648971
333.111989895
333.111316269
333.110627196
333.109921192
333.109196199
333.108449668
333.107679792
333.106885381
333.106064085
333.105213766
333.104332553
333.103418871
333.102471438
333.101489249
333.10047155
333.099417809
333.098327675
333.097200943
333.096037508
333.094837324
333.093600351
333.092326502
333.091015591
333.089667266
333.088280949
333.086855758
333.085390434
333.08388325
333.082331916
333.080733468
333.079084137
333.077379204
333.075612817
333.073778054
333.071866974
333.069870354
333.067777598
333.065576705
333.063254298
333.060795766
333.058185564
333.055407704
333.052446522
333.049287763
333.045920036
333.042336689
333.03853811
333.034534524
333.030349326
333.026023164
333.021619022
333.017228408
333.012975965
333.009004339
333.005367685
333.002194117
333.016140318
333.016770348
333.017998729
333.019777306
333.02204679
333.024743016
333.027802398
333.031165344
333.034777565
333.03858994
333.042557704
333.046639494
333.050796559
333.054992236
333.0591917
333.06336197
333.067472088
333.071493437
333.075400112
333.079169309
333.082781668
333.086221536
333.089477118
333.092540495
333.095407507
333.098077502
333.100552976
333.102839126
333.104943349
333.10687472
333.108643488
333.110260601
333.111737294
333.11308474
333.114313777
333.115434704
333.11645714
333.117389939
333.118241156
333.11901804
333.119727062
333.120373954
333.120963762
333.121500911
333.12198926
333.122432166
333.122832539
333.123192896
333.123515825
333.123802194
333.124052761
333.124268165
333.124448939
333.124595523
333.124708273
333.124787477
333.124833368
333.124846135
333.124825936
333.12477291
333.124687192
333.124568916
333.124418236
333.12423533
333.124020413
333.123773746
333.123495646
333.123186492
333.122846739
333.12247692
333.12207765
333.121649635
333.12119367
333.120710638
333.120201507
333.119667317
333.11910917
333.118528206
333.117925575
333.117302402
333.11665974
333.115998517
333.11531947
333.114623078
333.113909489
333.113178454
333.112429276
333.111660783
333.110871342
333.110058911
333.109221131
333.108356727
333.10746517
333.106544573
333.105593204
333.104609545
333.103592321
333.102540509
333.101453322
333.100330197
333.099170768
333.097974835
333.096742327
333.095473264
333.094167709
333.092825716
333.091447281
333.090032275
333.088580386
333.087091041
333.085563334
333.083995937
333.082387008
333.080734083
333.079033954
333.077282532
333.075474673
333.073604224
333.071664156
333.069646283
333.067541179
333.065338131
333.063025157
333.060589096
333.058015833
333.055290681
333.05239899
333.049327024
333.046063183
333.042599619
333.038934318
333.035073748
333.031036201
333.02685607
333.022589209
333.0183186
333.014153886
333.010195702
333.006391755
333.002823319
333.019519352
333.020130333
333.021324827
333.023060737
333.02528506
333.027938456
333.030959705
333.034289132
333.037870614
333.04165234
333.045586752
333.049630099
333.053741914
333.057884588
333.062023117
333.066125024
333.070160436
333.074102269
333.077926463
333.081612236
333.085142294
333.088502971
333.091684277
333.094679832
333.097486688
333.10010505
333.102537909
333.104790615
333.106870418
333.108785999
333.110547021
333.112163718
333.113646538
333.115005842
333.116251665
333.117393546
333.118440399
333.119400447
333.120281178
333.121089351
333.121831005
333.122511503
333.123135574
333.123707365
333.124230492
333.124708099
333.125142896
333.125537192
333.125893858
333.126213685
333.126497245
333.126744984
333.126957246
333.127134293
333.127276314
333.127383441
333.127455756
333.127493305
333.12749611
333.127464181
333.127397524
333.127296157
333.127160118
333.126989473
333.126784331
333.126544852
333.126271254
333.125963822
333.125622918
333.125248985
333.124842551
333.124404233
333.123934739
333.123434863
333.122905483
333.122347546
333.121762057
333.121150059
333.120512604
333.11985072
333.11916537
333.118457403
333.117727503
333.11697613
333.116203466
333.115409364
333.114593314
333.113754426
333.11289144
333.112002769
333.111086556
333.110140741
333.109163983
333.108157043
333.107118447
333.106046877
333.104941253
333.103800704
333.102624578
333.10141244
333.100164051
333.098879351
333.097558423
333.096201462
333.09480873
333.093380508
333.091917044
333.090418493
333.088884855
333.087315901
333.085711097
333.084069523
333.08238978
333.080669882
333.078907149
333.07709807
333.075238147
333.073321901
333.071343093
333.069294427
333.067167469
333.064952609
333.062639057
333.06021491
333.057667326
333.054982822
333.052147765
333.049149102
333.045975398
333.042618254
333.039074221
333.035347327
333.031452425
333.027419547
333.023299134
333.019165949
333.015111157
333.011186152
333.007239601
333.003343525
333.022841989
333.023438995
333.024608239
333.026311244
333.028498753
333.031114459
333.03409889
333.037392695
333.040938925
333.044684255
333.048579409
333.052579094
333.056641724
333.06072912
333.064806286
333.068841299
333.072805309
333.076672615
333.080420794
333.084030831
333.087487209
333.090777956
333.093894593
333.096832005
333.099588222
333.102164113
333.104563026
333.106790383
333.108853253
333.110759933
333.112519551
333.114141701
333.115636132
333.117012487
333.118280097
333.119447825
333.120523963
333.121516164
333.122431407
333.123275997
333.124055576
333.124775157
333.12543916
333.126051461
333.126615443
333.127134044
333.127609811
333.128044955
333.128441456
333.128801353
333.129124823
333.129412026
333.129663074
333.129878024
333.130056875
333.130199579
333.13030605
333.130376172
333.13040981
333.130406822
333.130367068
333.130290421
333.130176778
333.130026069
333.129838267
333.129613395
333.12935154
333.129052854
333.128717566
333.128345985
333.127938506
333.12749561
333.127017867
333.126505929
333.125960529
333.125382467
333.124772601
333.124131822
333.123461035
333.122761125
333.122032925
333.121277174
333.120494476
333.119685251
333.118849698
333.117987752
333.117099067
333.116183001
333.115238626
333.114264761
333.113260012
333.112222836
333.111151604
333.11004437
333.108903608
333.10772821
333.106517533
333.105271007
333.103988266
333.102669147
333.10131368
333.09992207
333.098494677
333.09703198
333.095534538
333.094002948
333.092437789
333.090839566
333.089208645
333.087545184
333.085849058
333.084119774
333.082356381
333.080557375
333.078720581
333.076843037
333.074920848
333.07294912
333.070922296
333.068833836
333.06667615
333.064440557
333.06211728
333.059695496
333.057163473
333.054508818
333.051718885
333.048781397
333.045685351
333.042422307
333.03898816
333.03538559
333.031627358
333.027740544
333.023771054
333.019784629
333.015850405
333.01196741
333.007896056
333.003738027
333.026076175
333.026661187
333.027808483
333.029482203
333.031635783
333.034215173
333.037162353
333.040418505
333.043926414
333.047631962
333.051484869
333.055438902
333.059451798
333.063485084
333.067503897
333.071476861
333.075376039
333.079176924
333.082858483
333.086403176
333.089796964
333.093029259
333.096092806
333.098983499
333.101700129
333.104244066
333.106618901
333.108830067
333.11088444
333.112789961
333.114555278
333.116189425
333.117701543
333.119100653
333.120395474
333.121594283
333.122704824
333.123734246
333.124689073
333.125575199
333.126397899
333.127161857
333.127871197
333.12852953
333.129139994
333.129705302
333.130227784
333.130709428
333.131151913
333.131557956
333.131927478
333.132260393
333.132556579
333.132815875
333.133038076
333.13322294
333.133370195
333.133479547
333.133550691
333.133583315
333.133577116
333.133531804
333.133447115
333.13332282
333.133158729
333.132954708
333.132710679
333.132426632
333.13210263
333.131738813
333.131335405
333.13089271
333.13041112
333.129891104
333.129333209
333.128738047
333.128106285
333.127438629
333.126735797
333.125998505
333.125227426
333.124423168
333.123586232
333.122716982
333.121815615
333.120882131
333.119916317
333.118917743
333.11788577
333.116819576
333.115718183
333.114580507
333.1134054
333.112191679
333.110938231
333.109645607
333.108315943
333.106948816
333.105544288
333.104102591
333.102624138
333.101109516
333.099559467
333.097974857
333.09635664
333.094705816
333.093023379
333.091310257
333.089567251
333.087794966
333.085993732
333.084163525
333.082303876
333.080413778
333.078491576
333.076534856
333.07454031
333.072503566
333.070419663
333.068282713
333.066085842
333.063821159
333.061479745
333.059051702
333.056526267
333.053892025
333.051137264
333.048250529
333.045221439
333.042041875
333.038707667
333.035220952
333.031593343
333.027849786
333.024031792
333.020194796
333.016383451
333.012544758
333.008362022
333.004007535
333.029202356
333.029775973
333.030902197
333.03254736
333.034667186
333.037209624
333.040118084
333.043334504
333.046801811
333.050465599
333.054275078
333.058183501
333.062148238
333.066130704
333.070096227
333.074013928
333.077856635
333.081600825
333.085226587
333.088717569
333.092060908
333.095247106
333.098269865
333.101125856
333.103814439
333.106337344
333.108698317
333.110902757
333.112957344
333.114869697
333.116648041
333.118300926
333.11983697
333.121264662
333.122592193
333.123827334
333.124977352
333.126048954
333.127048259
333.12798079
333.128851484
333.129664718
333.130424336
333.131133687
333.131795666
333.132412755
333.132987054
333.133520317
333.134013958
333.134471166
333.134891802
333.135275563
333.135622091
333.135930988
333.136201834
333.136434179
333.136627556
333.136781484
333.136895474
333.136969037
333.137001693
333.136992978
333.136942453
333.136849714
333.136714394
333.13653618
333.136314811
333.136050091
333.135741893
333.135390163
333.134994925
333.134556281
333.134074412
333.133549577
333.132982107
333.132372397
333.131720899
333.131028104
333.130294528
333.12952069
333.128707092
333.12785419
333.126962372
333.12603193
333.125063039
333.124055738
333.123009921
333.121925334
333.120801582
333.119638153
333.118434441
333.117189789
333.115903521
333.114574996
333.113203649
333.111789044
333.110330336
333.108831087
333.10729263
333.105715641
333.104101006
333.102449772
333.100763159
333.099042504
333.097289248
333.095504879
333.093690889
333.091848711
333.089979657
333.088084851
333.086165147
333.084221053
333.082252638
333.080259442
333.07824037
333.076193589
333.074116402
333.072004945
333.069854791
333.067660621
333.065416185
333.063114267
333.060746688
333.058304348
333.055777331
333.053155099
333.050426823
333.04758188
333.044610624
333.041505508
333.038262691
333.034884293
333.03138132
333.02777689
333.024107783
333.020417912
333.01672634
333.01293043
333.008646921
333.004161214
333.032209054
333.032771278
333.033876265
333.035492363
333.037577454
333.04008147
333.042949376
333.046124124
333.049549141
333.053170121
333.056936143
333.060800249
333.064719664
333.068655801
333.072574187
333.076444355
333.080239735
333.083937568
333.087518804
333.090967998
333.094273178
333.097425671
333.100419889
333.103253071
333.105924986
333.108437603
333.11079475
333.113001755
333.11506511
333.116992138
333.118790699
333.120468924
333.122034986
333.123496918
333.124862459
333.126138947
333.127333233
333.128451637
333.129499916
333.130483261
333.131406301
333.132273125
333.133087313
333.133851964
333.134569741
333.135242907
333.135873367
333.136462712
333.137012264
333.137523828
333.137999224
333.13843765
333.138838404
333.139200818
333.139524235
333.139807991
333.140051417
333.14025384
333.140414586
333.140532983
333.140608374
333.140640114
333.140627586
333.140570202
333.140467413
333.140318715
333.140123655
333.139881838
333.139592933
333.139256677
333.138872877
333.138441415
333.137962246
333.137435398
333.13686097
333.136239122
333.135570074
333.134854089
333.134091464
333.133282512
333.132427546
333.131526864
333.130580722
333.129589325
333.128552807
333.127471218
333.126344525
333.125172606
333.123955265
333.122692246
333.121383259
333.120028012
333.118626243
333.117177759
333.11568247
333.114140418
333.112551795
333.110917136
333.109236053
333.107514299
333.105753342
333.103954698
333.102120199
333.100251686
333.098351179
333.096420727
333.094462401
333.092478222
333.090470094
333.088439743
333.086388633
333.084317885
333.082228186
333.0801197
333.077991964
333.075843791
333.073673161
333.071476797
333.069250747
333.066990211
333.064689495
333.062341982
333.059940142
333.057475576
333.05493912
333.052321031
333.049611302
333.046800136
333.043878683
333.040840107
333.037681128
333.034404117
333.031019683
333.027549057
333.024023739
333.020475244
333.016897046
333.013140121
333.008764708
333.004212295
333.035089997
333.035640609
333.036723829
333.038309944
333.040358986
333.042822947
333.045648532
333.048779978
333.052161531
333.055739317
333.059462585
333.063284407
333.067162015
333.071056887
333.074934728
333.078765376
333.082522702
333.086184486
333.089732295
333.093151329
333.096430247
333.099560956
333.102538362
333.105360092
333.108026177
333.110538726
333.11290158
333.115119976
333.117200215
333.119149357
333.12097494
333.122684734
333.124286534
333.125787982
333.127196431
333.128518843
333.129761712
333.130931015
333.13203219
333.133070125
333.134049168
333.134973142
333.135845374
333.136668726
333.137445634
333.138178141
333.13886794
333.139516415
333.14012467
333.140693574
333.141226411
333.141722076
333.14217959
333.142598032
333.142976515
333.143314164
333.143610114
333.143863504
333.144073479
333.144239194
333.144359816
333.144434529
333.144462539
333.14444308
333.14437542
333.144258868
333.144092775
333.143876547
333.143609645
333.14329159
333.142921968
333.142500431
333.142026701
333.141500567
333.140921884
333.140290571
333.139606604
333.138870008
333.138080851
333.13723923
333.13634526
333.135399062
333.13440075
333.133350417
333.132248131
333.131093923
333.129887791
333.1286297
333.127319595
333.125957417
333.124543128
333.12307673
333.121558305
333.11998804
333.118366258
333.116693451
333.114970301
333.113197709
333.111376757
333.109509039
333.107595004
333.105641047
333.103650247
333.101624545
333.099566847
333.097479736
333.095365963
333.093228208
333.091069043
333.088890885
333.086695903
333.084485927
333.082262365
333.080026105
333.077777412
333.075515825
333.073240051
333.070947824
333.068635405
333.066298533
333.06393205
333.061529899
333.059085142
333.056590012
333.054036026
333.051414171
333.04871521
333.045930149
333.043050945
333.040071533
333.03698928
333.033806883
333.030534516
333.02719124
333.023802714
333.020387572
333.016914404
333.013191221
333.008731925
333.004175796
333.037842232
333.03838098
333.039441863
333.040997077
333.043008831
333.045431286
333.048213076
333.051299976
333.054637345
333.05817203
333.061853701
333.065635658
333.069475256
333.073334081
333.077177973
333.080976974
333.084705224
333.088340845
333.091865786
333.095265652
333.098529501
333.101649598
333.104621152
333.107442016
333.110112358
333.112634335
333.115011749
333.117249718
333.119354354
333.121332476
333.123191337
333.124938398
333.126581124
333.128126824
333.12958252
333.130954848
333.132249989
333.13347362
333.134630892
333.135726421
333.136764294
333.137748089
333.138680894
333.139565344
333.140403651
333.141197641
333.141948789
333.142658247
333.143326858
333.143955151
333.14454671
333.145100763
333.145616141
333.146091692
333.146526307
333.14691891
333.14726845
333.147573895
333.147834226
333.148048436
333.148215537
333.148334553
333.14840453
333.148424537
333.14839367
333.148311058
333.148175871
333.147987316
333.147744654
333.147447191
333.147094295
333.146685389
333.146219957
333.145697547
333.145117768
333.144480288
333.143784837
333.143031193
333.142219187
333.141348687
333.140419597
333.139431846
333.138385381
333.137280164
333.136116161
333.134893347
333.133611704
333.132271233
333.130871959
333.129413954
333.127897353
333.126322383
333.124689385
333.122998848
333.121251431
333.119447995
333.117589624
333.115677646
333.113713645
333.111699488
333.10963725
333.107529584
333.105378229
333.10318817
333.100966069
333.098713845
333.096435423
333.09413414
333.091813235
333.08947595
333.08712525
333.084763774
333.082393769
333.080016969
333.077634497
333.075246762
333.072853357
333.070452957
333.068042411
333.065617981
333.063175035
333.060708057
333.05821067
333.055675703
333.053095308
333.050461154
333.047764731
333.044997812
333.042153143
333.039225425
333.03621265
333.033117772
333.029950331
333.026726839
333.023466633
333.020175325
333.016797685
333.013102026
333.008566904
333.004067293
333.040464902
333.040991583
333.042029677
333.043553264
333.045526759
333.047906592
333.050643492
333.053685005
333.056977853
333.060469862
333.064111344
333.067855993
333.07166139
333.075489254
333.079305522
333.083080331
333.086787943
333.090406627
333.093918509
333.09730938
333.100568483
333.103688249
333.106664017
333.109493718
333.112177548
333.11471763
333.117117676
333.119382658
333.121518501
333.123531794
333.125429538
333.127218918
333.128907117
333.130501154
333.132007764
333.133433301
333.134783668
333.136064277
333.137280023
333.138435273
333.139533879
333.140579186
333.141574063
333.14252093
333.143421793
333.144278284
333.145091698
333.145863037
333.146593061
333.147282342
333.147931365
333.148543235
333.149116109
333.149648456
333.150138911
333.150586201
333.150989107
333.151346447
333.151657064
333.151919819
333.152133588
333.152297263
333.152409752
333.15246998
333.152476891
333.152429454
333.152326666
333.152167556
333.15195119
333.151676672
333.151343153
333.150949833
333.150495962
333.149980846
333.149403845
333.148764376
333.148061912
333.147295981
333.146466162
333.145572085
333.144613425
333.143589899
333.142501267
333.141347322
333.140127899
333.138842869
333.137492154
333.136075727
333.134593632
333.133045996
333.131433054
333.129755169
333.128012861
333.126206827
333.124337975
333.122407445
333.120416631
333.118367206
333.116261131
333.114100671
333.111888395
333.109627194
333.107320191
333.104971026
333.102583257
333.100158802
333.09770899
333.095236382
333.092744538
333.090238081
333.087720764
333.085196076
333.082667262
333.080137033
333.0776075
333.075080097
333.072555454
333.070033307
333.067511458
333.064986743
333.062455097
333.059911565
333.057350342
333.054764848
333.052147853
333.049491684
333.046788525
333.044030887
333.041212262
333.038328059
333.035376811
333.032361562
333.02929094
333.026178511
333.02303693
333.019858892
333.016566539
333.012891512
333.008289582
333.003902246
333.042958471
333.043472975
333.044488011
333.045979518
333.047914127
333.050250608
333.052941922
333.055937572
333.059185871
333.062635843
333.066238643
333.069948508
333.073723338
333.077525011
333.081319523
333.085077015
333.08877173
333.092381918
333.095889689
333.099280827
333.102544568
333.105673332
333.108662431
333.111509747
333.1142154
333.116781403
333.119211327
333.121509974
333.123683073
333.125736994
333.127678505
333.129514547
333.131252049
333.132897779
333.13445822
333.135939476
333.137347209
333.138686592
333.139962288
333.141178442
333.142338686
333.143446155
333.144503512
333.145512978
333.146476368
333.147395123
333.148270352
333.149102868
333.149893218
333.150641693
333.151348317
333.152016988
333.152645979
333.153233638
333.153778444
333.154278978
333.154733895
333.155141901
333.155501733
333.155812154
333.156071942
333.156279885
333.156434783
333.156535444
333.156580686
333.156569339
333.156500247
333.156372276
333.156184311
333.155935265
333.155624082
333.155249743
333.154811268
333.154307721
333.153738213
333.153101904
333.152398008
333.151625789
333.150784567
333.149873718
333.14889267
333.147840909
333.146717973
333.145523462
333.144257036
333.142918423
333.141507426
333.140023937
333.138467947
333.13683957
333.135139058
333.133366826
333.131523478
333.129609831
333.127626942
333.125576132
333.123459009
333.121277489
333.119033813
333.116730557
333.11437064
333.111957327
333.109494215
333.106985233
333.104434566
333.101846628
333.099226678
333.096578535
333.09390748
333.091223861
333.088530615
333.085831932
333.083132607
333.080436354
333.077746331
333.075065204
333.07239481
333.069736084
333.067088275
333.064448906
333.061814567
333.059180938
333.056542834
333.053894303
333.051228755
333.048539176
333.045818437
333.043059753
333.04025732
333.037407176
333.034508263
333.031563505
333.028580315
333.025568955