/*--------------------------------*- C++ -*----------------------------------*\
| =========                 |                                                 |
| \\      /  F ield         | OpenFOAM: The Open Source CFD Toolbox           |
|  \\    /   O peration     | Version:  2206                                  |
|   \\  /    A nd           | Website:  www.openfoam.com                      |
|    \\/     M anipulation  |                                                 |
\*---------------------------------------------------------------------------*/
FoamFile
{
    version     2.0;
    format      ascii;
    arch        "LSB;label=64;scalar=64";
    class       volVectorField;
    location    "2.3/water";
    object      U.gas;
}
// * * * * * * * * * * * * * * * * * * * * * * * * * * * * * * * * * * * * * //

dimensions      [0 1 -1 0 0 0 0];

internalField   nonuniform List<vector> 
23300
(
(1.92745360623e-05 0.136577581029 0)
(0.000153893936423 0.136565616083 0)
(0.000338060175663 0.136578432751 0)
(0.000464850774657 0.136596794799 0)
(0.000556445420511 0.136613840959 0)
(0.000591460287827 0.136627636129 0)
(0.000558400169896 0.136637061399 0)
(0.0004497777673 0.136642062225 0)
(0.000260353065922 0.136642164799 0)
(-1.33089711565e-05 0.136637826404 0)
(-0.000373102516886 0.136628916043 0)
(-0.000819266983082 0.136616221704 0)
(-0.00135072170489 0.136599847429 0)
(-0.00196489929824 0.136580796661 0)
(-0.00265816338124 0.136559317498 0)
(-0.00342568924793 0.136536518947 0)
(-0.00426191870693 0.136512688259 0)
(-0.00516047110891 0.13648894789 0)
(-0.0061145921133 0.136465527772 0)
(-0.00711707764057 0.13644348985 0)
(-0.00816068323067 0.13642292975 0)
(-0.0092380422701 0.13640479498 0)
(-0.0103420106747 0.136388996694 0)
(-0.0114655616263 0.136376338393 0)
(-0.0126020516787 0.136366528962 0)
(-0.0137450820725 0.13636022805 0)
(-0.01488868772 0.136356959226 0)
(-0.0160271695171 0.136357267307 0)
(-0.0171552253854 0.136360535988 0)
(-0.0182677710192 0.136367244234 0)
(-0.0193600409904 0.136376696002 0)
(-0.0204274188291 0.13638935748 0)
(-0.0214655333354 0.136404510533 0)
(-0.0224701111379 0.136422651226 0)
(-0.0234370806506 0.136443082054 0)
(-0.0243624491236 0.136466352367 0)
(-0.0252424156223 0.13649180821 0)
(-0.0260732669452 0.136520056512 0)
(-0.0268514945428 0.136550492884 0)
(-0.0275737024469 0.136583771948 0)
(-0.0282367235386 0.136619334196 0)
(-0.0288375343538 0.136657865615 0)
(-0.0293733668826 0.136698843207 0)
(-0.0298416254821 0.13674296766 0)
(-0.0302399821199 0.136789745357 0)
(-0.0305662291183 0.136839876645 0)
(-0.0308174410886 0.136892852161 0)
(-0.0309903342521 0.136949272835 0)
(-0.0310837733013 0.137008495975 0)
(-0.031098113318 0.137071067676 0)
(-0.0310330274056 0.137136520045 0)
(-0.0308876358507 0.137205423191 0)
(-0.0306614279616 0.137277215768 0)
(-0.0303542242407 0.137352333025 0)
(-0.0299662656883 0.13743012584 0)
(-0.0294981385195 0.137510907618 0)
(-0.0289508692952 0.137593942429 0)
(-0.028325849312 0.137679419694 0)
(-0.0276249321935 0.137766508018 0)
(-0.0268503488167 0.137855266284 0)
(-0.0260048053864 0.137944755415 0)
(-0.0250913819693 0.138034895951 0)
(-0.0241136301741 0.138124627024 0)
(-0.0230754502492 0.138213721475 0)
(-0.0219811904325 0.138300980416 0)
(-0.0208354982725 0.13838601786 0)
(-0.0196434243272 0.138467478499 0)
(-0.0184102461751 0.138544804119 0)
(-0.0171415835019 0.138616463651 0)
(-0.0158431965409 0.138681714446 0)
(-0.0145211228238 0.138738835791 0)
(-0.0131814591711 0.138786899447 0)
(-0.0118305395119 0.138824003023 0)
(-0.0104747202667 0.138849067992 0)
(-0.00912062797084 0.138860076668 0)
(-0.00777498338861 0.138855922698 0)
(-0.00644495710618 0.138834667947 0)
(-0.00513807263587 0.138795481958 0)
(-0.00386268797315 0.138736951778 0)
(-0.00262797940187 0.138659164885 0)
(-0.001444458671 0.138562133893 0)
(-0.000323812109459 0.138448111308 0)
(0.000721229468965 0.138320236167 0)
(0.0016789265872 0.138185185695 0)
(0.00254421266981 0.138052023726 0)
(0.00333434940774 0.137934436706 0)
(0.00408913786926 0.137846468401 0)
(0.00482724012881 0.137799286116 0)
(0.00552434409109 0.13779540642 0)
(0.00617359348107 0.13783411712 0)
(0.00682336227988 0.137905513758 0)
(0.00752739024502 0.137992802835 0)
(0.00830515875672 0.138080167773 0)
(0.00915019699813 0.138157002529 0)
(0.0100476853401 0.138215898014 0)
(0.0109807932684 0.13825343522 0)
(0.0119336452444 0.138267801435 0)
(0.012891656331 0.138259680648 0)
(0.0138420975228 0.138230253106 0)
(0.0147735811859 0.138182225676 0)
(0.0156761944853 0.138118121018 0)
(0.01654095283 0.138041371095 0)
(0.0173598765535 0.137954823947 0)
(0.0181255720499 0.137861859472 0)
(0.0188313390737 0.137765068758 0)
(0.0194708951551 0.137667365445 0)
(0.020038524482 0.137570802864 0)
(0.0205289170589 0.137477658855 0)
(0.0209373423746 0.137389362394 0)
(0.0212595637294 0.137307533377 0)
(0.0214920168323 0.137232996708 0)
(0.0216317693532 0.137166762873 0)
(0.0216766979908 0.137109113229 0)
(0.0216254851181 0.137060509664 0)
(0.0214777894432 0.137020737144 0)
(0.0212339335255 0.136989747323 0)
(0.0208949889247 0.136967225731 0)
(0.0204625558605 0.136953260982 0)
(0.0199383928053 0.136947200014 0)
(0.0193246690689 0.136948656294 0)
(0.0186243280141 0.136956890599 0)
(0.0178409702259 0.136971458203 0)
(0.0169788126152 0.136991620761 0)
(0.0160425473816 0.137016916184 0)
(0.0150373211532 0.137046628312 0)
(0.0139686353115 0.137080271863 0)
(0.0128423832873 0.137117109786 0)
(0.0116648398768 0.137156537379 0)
(0.0104428152952 0.137197631936 0)
(0.0091838024871 0.137239410418 0)
(0.00789633176881 0.13728037636 0)
(0.00659042324963 0.137318586771 0)
(0.00527847852485 0.137351082965 0)
(0.00397692261132 0.137373542978 0)
(0.0027101526365 0.137379139148 0)
(0.00152134549812 0.137356748829 0)
(0.000501114203395 0.137286440172 0)
(-0.000193429469432 0.13713014585 0)
(-0.00046061987688 0.136849744878 0)
(-0.000242832049258 0.136555466328 0)
(-7.06309952823e-05 0.247477839962 0)
(-0.000126831358179 0.247450944416 0)
(-0.000148309380659 0.247509671981 0)
(-0.000238149340992 0.247602167805 0)
(-0.000370805468297 0.247710258181 0)
(-0.000557964934599 0.247825947237 0)
(-0.000807250132634 0.247944054057 0)
(-0.00112349511797 0.248061934087 0)
(-0.00150963476785 0.248176597897 0)
(-0.0019670985922 0.248286776549 0)
(-0.00249611593818 0.248390297184 0)
(-0.0030957572334 0.248486638202 0)
(-0.00376411785924 0.248574210471 0)
(-0.00449833150409 0.24865303766 0)
(-0.00529477054343 0.248721992757 0)
(-0.00614905704392 0.248781513783 0)
(-0.00705627701055 0.248830811365 0)
(-0.00801100078341 0.248870630876 0)
(-0.00900749439925 0.24890040435 0)
(-0.0100397416523 0.248921100283 0)
(-0.0111016363148 0.248932279887 0)
(-0.0121869923355 0.248935075169 0)
(-0.0132897011549 0.248929116063 0)
(-0.014403717911 0.248915661511 0)
(-0.0155231756935 0.248894378055 0)
(-0.0166423451115 0.248866631569 0)
(-0.0177557101284 0.248832111093 0)
(-0.0188579105804 0.2487922741 0)
(-0.019943795978 0.248746822048 0)
(-0.0210083674345 0.248697283916 0)
(-0.0220468268741 0.248643359916 0)
(-0.0230545304158 0.248586622565 0)
(-0.0240270422834 0.248526752875 0)
(-0.0249601015039 0.248465335436 0)
(-0.0258496788771 0.248402014873 0)
(-0.0266919508077 0.248338357946 0)
(-0.0274833532838 0.248273959923 0)
(-0.0282205560547 0.248210344928 0)
(-0.028900508461 0.248147051669 0)
(-0.0295204102868 0.248085541927 0)
(-0.030077748566 0.24802529501 0)
(-0.0305702653262 0.247967695291 0)
(-0.030995986652 0.247912162981 0)
(-0.0313531892442 0.247859992943 0)
(-0.0316404272692 0.24781054692 0)
(-0.0318565412132 0.247765015493 0)
(-0.0320002265525 0.247722675619 0)
(-0.0320702189716 0.247684634112 0)
(-0.0320662342143 0.247650128637 0)
(-0.0319885369153 0.247620144029 0)
(-0.0318373727577 0.247593909054 0)
(-0.031613104457 0.247572310874 0)
(-0.0313163556878 0.247554502329 0)
(-0.0309479884318 0.247541221821 0)
(-0.0305091444937 0.247531536469 0)
(-0.0300012371027 0.247526039805 0)
(-0.0294259838332 0.247523714076 0)
(-0.0287853917622 0.247525010658 0)
(-0.0280817869633 0.247528822951 0)
(-0.027317793648 0.247535460888 0)
(-0.0264963609337 0.247543722199 0)
(-0.0256207340987 0.247553775974 0)
(-0.024694477668 0.247564316743 0)
(-0.0237214362991 0.247575373743 0)
(-0.0227057539539 0.247585530929 0)
(-0.0216518222463 0.247594680073 0)
(-0.0205642945106 0.247601289255 0)
(-0.0194480190991 0.247605117922 0)
(-0.0183080479124 0.247604518132 0)
(-0.0171495525656 0.247599130244 0)
(-0.015977825762 0.247587204052 0)
(-0.0147981779351 0.247568294054 0)
(-0.0136159303548 0.247540593169 0)
(-0.012436290554 0.247503649171 0)
(-0.0112643341013 0.247455711291 0)
(-0.0101048559998 0.247396493894 0)
(-0.00896233416278 0.247324547495 0)
(-0.00784074470914 0.247240103754 0)
(-0.00674347187427 0.24714249459 0)
(-0.00567302278689 0.247033119122 0)
(-0.0046307474801 0.246912942322 0)
(-0.00361621641864 0.246785616857 0)
(-0.00262631145265 0.246655060694 0)
(-0.00165357109994 0.246528638474 0)
(-0.000683825370541 0.24641443269 0)
(0.000305160929271 0.246323139513 0)
(0.00133113307631 0.246261533507 0)
(0.00237690954681 0.246233407051 0)
(0.00339747383133 0.246235986282 0)
(0.00435961760252 0.246271362937 0)
(0.00525564494182 0.246339781851 0)
(0.00610175245354 0.246432564093 0)
(0.00692166988193 0.246537013745 0)
(0.00773049045632 0.246643426251 0)
(0.00853631273042 0.246743599654 0)
(0.00934242619216 0.246833157753 0)
(0.0101491538708 0.246908792475 0)
(0.0109547901678 0.246970116139 0)
(0.0117563537177 0.247017016284 0)
(0.0125498709943 0.247051449996 0)
(0.0133307235058 0.247075028134 0)
(0.0140937360405 0.247090795191 0)
(0.0148333949882 0.247101035428 0)
(0.0155438947636 0.247109031548 0)
(0.0162193141734 0.247117067975 0)
(0.0168536611702 0.247128151804 0)
(0.0174410283615 0.247144185399 0)
(0.017975637791 0.247167629935 0)
(0.018451974609 0.247199821497 0)
(0.0188648239143 0.247242558874 0)
(0.0192093789123 0.247296542297 0)
(0.0194812629338 0.247362871033 0)
(0.0196766080122 0.247441590604 0)
(0.0197920535239 0.247533091741 0)
(0.0198248072405 0.24763676188 0)
(0.0197732476474 0.247752293223 0)
(0.0196366957488 0.247878715992 0)
(0.0194138993004 0.248015757046 0)
(0.019103813215 0.248162116629 0)
(0.0187066096665 0.248316698417 0)
(0.0182232466194 0.248477714296 0)
(0.0176553319238 0.248643693019 0)
(0.0170051164622 0.248812558459 0)
(0.0162754427775 0.248982533561 0)
(0.0154697233321 0.249151322156 0)
(0.0145918742205 0.249316896007 0)
(0.013646286546 0.249476766991 0)
(0.0126377718924 0.249628628677 0)
(0.0115715698321 0.249769681291 0)
(0.0104533687124 0.249897058563 0)
(0.00928944145356 0.250007097954 0)
(0.00808689667778 0.250095359832 0)
(0.00685425552463 0.250155502041 0)
(0.00560264728545 0.250178226448 0)
(0.00434853087179 0.250148396425 0)
(0.0031195690345 0.250039917661 0)
(0.00196478007212 0.249804291534 0)
(0.000965227107938 0.24935027335 0)
(0.000224755657533 0.248558707386 0)
(-3.35847217253e-05 0.24759768081 0)
(-0.00014136113148 0.226275104875 0)
(-0.000258515504532 0.226239690141 0)
(-0.000301807307122 0.226343797039 0)
(-0.000454162879803 0.226515133131 0)
(-0.00064985715347 0.226727620627 0)
(-0.000902493442832 0.22696664425 0)
(-0.00121937030264 0.227222612615 0)
(-0.00160441900509 0.227489131114 0)
(-0.00205954612768 0.227760473415 0)
(-0.00258514637474 0.228032411593 0)
(-0.00318039783508 0.228300460923 0)
(-0.00384337061297 0.228561349129 0)
(-0.00457126007193 0.228811341628 0)
(-0.00536040504991 0.229047869306 0)
(-0.00620650791963 0.229267859974 0)
(-0.00710465780002 0.229469392924 0)
(-0.00804954697678 0.229650036 0)
(-0.00903549635956 0.22980850742 0)
(-0.0100566621773 0.229943003653 0)
(-0.0111070560099 0.230052884186 0)
(-0.0121807271756 0.230136966941 0)
(-0.0132717647092 0.230195256624 0)
(-0.0143744402969 0.230227184693 0)
(-0.0154831812825 0.230233392689 0)
(-0.0165926673738 0.23021389897 0)
(-0.0176977735328 0.230169939405 0)
(-0.0187936270667 0.230102051259 0)
(-0.0198755325522 0.230011968298 0)
(-0.0209390081235 0.229900624124 0)
(-0.021979711287 0.229770100255 0)
(-0.0229934742326 0.229621562584 0)
(-0.0239762452186 0.229457261855 0)
(-0.0249241340316 0.22927842382 0)
(-0.0258333719619 0.229087300139 0)
(-0.0267003661424 0.228885032653 0)
(-0.0275216720921 0.228673746254 0)
(-0.0282940498218 0.228454404043 0)
(-0.0290144403401 0.228228928227 0)
(-0.0296800163905 0.227998058908 0)
(-0.030288157721 0.227763484725 0)
(-0.0308364938122 0.227525716258 0)
(-0.0313228766482 0.227286208062 0)
(-0.0317454161826 0.227045256852 0)
(-0.0321024541177 0.226804097233 0)
(-0.0323926026714 0.226562834618 0)
(-0.0326147361563 0.226322501356 0)
(-0.0327673217656 0.22608305708 0)
(-0.0328486658868 0.225845438637 0)
(-0.0328584251728 0.225609695318 0)
(-0.0327972163279 0.225376796943 0)
(-0.0326654355528 0.225146527818 0)
(-0.0324633190168 0.224919593261 0)
(-0.0321913674897 0.224695788478 0)
(-0.0318503170094 0.224475799739 0)
(-0.0314411651489 0.224259433836 0)
(-0.0309651597846 0.224047356026 0)
(-0.0304238279064 0.223839389789 0)
(-0.0298189618722 0.223636188719 0)
(-0.0291526451376 0.223437600149 0)
(-0.0284272336969 0.223244274538 0)
(-0.0276453781986 0.22305608751 0)
(-0.0268099977893 0.222873693514 0)
(-0.0259242970605 0.222696999653 0)
(-0.024991729955 0.222526671116 0)
(-0.0240160106568 0.222362649721 0)
(-0.0230010645008 0.222205619638 0)
(-0.0219510307966 0.222055563135 0)
(-0.0208701981977 0.221913194439 0)
(-0.0197629980413 0.22177854568 0)
(-0.0186339209874 0.221652376531 0)
(-0.0174874982507 0.22153478371 0)
(-0.0163281972447 0.221426592221 0)
(-0.0151603887069 0.22132798237 0)
(-0.0139882189632 0.221239867037 0)
(-0.0128155595776 0.221162529708 0)
(-0.0116458548144 0.221096988704 0)
(-0.0104820481472 0.221043637829 0)
(-0.00932639716072 0.22100359327 0)
(-0.00818035374898 0.220977320124 0)
(-0.00704431237313 0.220965939545 0)
(-0.00591737419233 0.220969792884 0)
(-0.00479693635187 0.220989628279 0)
(-0.00367821575985 0.221024952262 0)
(-0.00255366958953 0.221074835792 0)
(-0.00141288447688 0.221135619618 0)
(-0.000244724971911 0.221200777491 0)
(0.000955968237201 0.221258369672 0)
(0.00216497338367 0.221296341154 0)
(0.0033408841108 0.221310320314 0)
(0.00446564196314 0.221303149717 0)
(0.00553144971645 0.22128703649 0)
(0.00653415178514 0.221278105281 0)
(0.0074830271505 0.221283054535 0)
(0.0083892525602 0.22130582064 0)
(0.00926128666421 0.221347444835 0)
(0.0101048211284 0.221408333702 0)
(0.0109233869316 0.221487738974 0)
(0.0117187531719 0.221585244376 0)
(0.0124913885511 0.221699847473 0)
(0.0132406474812 0.221831146869 0)
(0.013965048063 0.221978317028 0)
(0.0146623553701 0.222141158197 0)
(0.0153297779897 0.222319067478 0)
(0.0159640228453 0.222512015315 0)
(0.0165614605146 0.222719549791 0)
(0.0171181793167 0.22294172077 0)
(0.0176301354337 0.223178129833 0)
(0.0180932076321 0.223428806167 0)
(0.0185033303011 0.223693304937 0)
(0.0188565405464 0.223971533762 0)
(0.019149088013 0.224262899762 0)
(0.0193774658413 0.224567085085 0)
(0.0195384925446 0.224883245075 0)
(0.019629323848 0.225210737119 0)
(0.0196475115562 0.225548382098 0)
(0.0195915632673 0.225895152267 0)
(0.0194611033588 0.226249408185 0)
(0.0192550130816 0.226609946074 0)
(0.018971647252 0.226975052878 0)
(0.0186105088126 0.22734280481 0)
(0.0181719629955 0.227710683793 0)
(0.0176568063876 0.228076114184 0)
(0.0170662639733 0.228435965396 0)
(0.0164019341607 0.228787055065 0)
(0.0156657608202 0.229125731605 0)
(0.0148599663862 0.229448341422 0)
(0.0139870239278 0.229750884734 0)
(0.0130496117469 0.230029419399 0)
(0.01205063452 0.230279736616 0)
(0.0109932720777 0.230497597109 0)
(0.00988115853954 0.230678248312 0)
(0.00871871079976 0.230816176401 0)
(0.00751181825236 0.230903899376 0)
(0.00626916383542 0.230930159709 0)
(0.00500476489789 0.230875852617 0)
(0.00374211561871 0.230706271138 0)
(0.0025178965502 0.230355654704 0)
(0.00138426194065 0.229701408601 0)
(0.000448206490339 0.228559790649 0)
(2.4383407767e-05 0.226920422582 0)
(-0.000243754696915 0.230221322766 0)
(-0.000455295654274 0.230181116281 0)
(-0.000540415613496 0.230312666952 0)
(-0.00078822456147 0.230533374501 0)
(-0.00107201949747 0.23081209041 0)
(-0.00140795174693 0.23112892772 0)
(-0.0018053887152 0.231470695297 0)
(-0.00226892452352 0.231828079581 0)
(-0.00280031520875 0.23219353053 0)
(-0.00339942895709 0.23256097615 0)
(-0.00406484089667 0.232924759772 0)
(-0.00479401860433 0.233280138821 0)
(-0.00558357296418 0.233622445055 0)
(-0.00642933116993 0.233947795341 0)
(-0.00732656185379 0.234252312661 0)
(-0.00827000987771 0.234532884955 0)
(-0.00925412093322 0.234786412867 0)
(-0.0102730693686 0.235010571985 0)
(-0.0113209688958 0.235203072141 0)
(-0.0123918894291 0.235362416258 0)
(-0.0134800380644 0.235487156015 0)
(-0.0145797525451 0.235576652174 0)
(-0.0156856382901 0.235630311304 0)
(-0.0167925287601 0.235648350959 0)
(-0.0178955735701 0.235631004061 0)
(-0.0189901670184 0.235579290007 0)
(-0.020071996108 0.235494178005 0)
(-0.0211369510801 0.235377364609 0)
(-0.0221811532179 0.235230395914 0)
(-0.0232008673796 0.235055456601 0)
(-0.0241925298844 0.234854459726 0)
(-0.0251526780282 0.234629855136 0)
(-0.0260779893182 0.234383700758 0)
(-0.026965231909 0.234118498327 0)
(-0.0278113146644 0.233836259125 0)
(-0.0286132530989 0.233539369258 0)
(-0.0293682234231 0.233229658485 0)
(-0.0300735360173 0.232909291855 0)
(-0.0307266863537 0.232579845563 0)
(-0.0313253301823 0.232243216652 0)
(-0.0318673278035 0.231900707487 0)
(-0.03235071922 0.231553944134 0)
(-0.0327737618889 0.231203970474 0)
(-0.033134908428 0.230852165632 0)
(-0.0334328432228 0.230499350233 0)
(-0.0336664587355 0.230146696849 0)
(-0.0338343074825 0.229794851404 0)
(-0.0339344215349 0.229444673412 0)
(-0.033965917123 0.229096815017 0)
(-0.0339295769875 0.228752483128 0)
(-0.0338260617432 0.228412129885 0)
(-0.0336554464263 0.228076615604 0)
(-0.0334180387447 0.227746394371 0)
(-0.0331143603486 0.227422332622 0)
(-0.0327451660879 0.227104913139 0)
(-0.0323114327637 0.226795024374 0)
(-0.0318143822743 0.226493189778 0)
(-0.0312554705815 0.22620032742 0)
(-0.0306364079337 0.225917003758 0)
(-0.0299591434424 0.22564416454 0)
(-0.0292258810547 0.225382412257 0)
(-0.0284390573168 0.225132710633 0)
(-0.0276013517006 0.224895683908 0)
(-0.0267156549761 0.224672297163 0)
(-0.0257850727016 0.224463175058 0)
(-0.0248128818896 0.224269260934 0)
(-0.02380252605 0.224091151712 0)
(-0.0227575578368 0.223929738069 0)
(-0.0216816243375 0.223785551919 0)
(-0.0205783940423 0.223659390138 0)
(-0.0194515309984 0.223551670412 0)
(-0.0183046052047 0.223463039812 0)
(-0.0171410551581 0.223393734589 0)
(-0.0159640826455 0.223344174657 0)
(-0.0147766039015 0.223314321981 0)
(-0.0135811318986 0.223304260355 0)
(-0.0123797170247 0.223313545988 0)
(-0.0111738207437 0.223341770138 0)
(-0.00996424186778 0.223387890968 0)
(-0.00875097953258 0.223450767845 0)
(-0.00753313266061 0.223528449774 0)
(-0.00630875852833 0.223618648144 0)
(-0.00507479516535 0.223717927496 0)
(-0.00382717139524 0.223822051048 0)
(-0.00256152236596 0.223925035892 0)
(-0.00127525628074 0.224019559436 0)
(2.86524677537e-05 0.224096861708 0)
(0.00133391867575 0.224148980159 0)
(0.00260749493362 0.224176625064 0)
(0.00382986449696 0.224183473859 0)
(0.00500458635589 0.224171016236 0)
(0.00612632049187 0.22414972546 0)
(0.00718889741868 0.224130303559 0)
(0.00819660580086 0.22411922454 0)
(0.009154068337 0.224121389731 0)
(0.0100652421605 0.224140693257 0)
(0.0109333319712 0.224179807438 0)
(0.0117606881429 0.224240916678 0)
(0.0125489421546 0.224325429988 0)
(0.0132989882058 0.224434563471 0)
(0.0140111099223 0.224568957424 0)
(0.0146849794363 0.22472918884 0)
(0.0153197749377 0.224915363586 0)
(0.0159141917177 0.225127582861 0)
(0.0164665594069 0.225365540526 0)
(0.0169748685619 0.225628959236 0)
(0.0174368886259 0.225917201064 0)
(0.0178502048151 0.226229675897 0)
(0.0182123304191 0.226565465342 0)
(0.0185207435506 0.226923701187 0)
(0.0187729852282 0.227303201076 0)
(0.0189666859299 0.227702815126 0)
(0.0190996426449 0.22812107426 0)
(0.0191698291299 0.228556507192 0)
(0.0191754471589 0.229007307084 0)
(0.0191154100156 0.229471627385 0)
(0.0189898561435 0.229947276651 0)
(0.0187980926551 0.230432241773 0)
(0.0185382332683 0.230924145615 0)
(0.0182093738562 0.231420271763 0)
(0.0178115056715 0.231917445802 0)
(0.0173448287527 0.232412268044 0)
(0.0168097539538 0.232900894479 0)
(0.0162068528815 0.233379268237 0)
(0.0155368386317 0.233842957119 0)
(0.0148005147829 0.23428739223 0)
(0.0139987731282 0.234707755562 0)
(0.0131325860607 0.235099194057 0)
(0.0122030795648 0.235456687122 0)
(0.0112116503968 0.235775099614 0)
(0.0101602289053 0.236048787785 0)
(0.00905169626945 0.236271065432 0)
(0.00789062569004 0.236432793004 0)
(0.00668445264826 0.236519868354 0)
(0.00544514190999 0.236508177645 0)
(0.00419005867535 0.236354134142 0)
(0.00293504247783 0.235976961679 0)
(0.00170173797337 0.235230662445 0)
(0.000624010924293 0.233896994323 0)
(7.67753785951e-05 0.231740588277 0)
(-0.00036356967485 0.230126133878 0)
(-0.000668404954282 0.230090601584 0)
(-0.000777064442129 0.230251188649 0)
(-0.00112112494223 0.230520628377 0)
(-0.00149272478933 0.23086601603 0)
(-0.0019082861545 0.231262872133 0)
(-0.00237929327604 0.231693831623 0)
(-0.00291209101011 0.232146153891 0)
(-0.00350932270938 0.232609825263 0)
(-0.00417115595004 0.233076626105 0)
(-0.00489605888679 0.233539335198 0)
(-0.00568120696513 0.233991634953 0)
(-0.00652287593464 0.234427684925 0)
(-0.00741654509044 0.234842311401 0)
(-0.00835717031747 0.235230695224 0)
(-0.00933923835208 0.235588639135 0)
(-0.0103570080935 0.235912305553 0)
(-0.0114045466771 0.236198490368 0)
(-0.0124759493934 0.23644438723 0)
(-0.0135653556734 0.236647844351 0)
(-0.0146671333338 0.2368071404 0)
(-0.015775863186 0.236921218384 0)
(-0.0168864735337 0.23698946007 0)
(-0.0179941860193 0.237011895224 0)
(-0.0190945975154 0.236988962987 0)
(-0.0201835917321 0.236921697033 0)
(-0.0212573801405 0.236811466545 0)
(-0.0223123961273 0.236660141027 0)
(-0.0233453165583 0.236469811096 0)
(-0.0243529597075 0.236242943046 0)
(-0.0253323082019 0.235982087279 0)
(-0.0262804261071 0.23569003621 0)
(-0.0271944943498 0.235369531618 0)
(-0.0280717510266 0.235023439169 0)
(-0.0289095389715 0.234654463826 0)
(-0.0297052644422 0.234265348408 0)
(-0.0304564502496 0.233858600899 0)
(-0.0311607050325 0.233436718527 0)
(-0.031815774844 0.233001925874 0)
(-0.0324195171386 0.232556420655 0)
(-0.0329699467259 0.232102118944 0)
(-0.0334652118368 0.23164091716 0)
(-0.0339036335005 0.231174440562 0)
(-0.0342836838118 0.230704315438 0)
(-0.0346040222295 0.230231919062 0)
(-0.0348634813148 0.229758659097 0)
(-0.0350609010642 0.229285707639 0)
(-0.0351939067666 0.228813940746 0)
(-0.0352604927728 0.228344583061 0)
(-0.0352615762913 0.227879139242 0)
(-0.035198220872 0.227418564238 0)
(-0.0350702519975 0.226963936515 0)
(-0.0348777069047 0.226516219582 0)
(-0.0346208152989 0.22607651817 0)
(-0.034300012417 0.22564583669 0)
(-0.0339159308517 0.225225327707 0)
(-0.0334694209344 0.224816051812 0)
(-0.0329615421808 0.224419212916 0)
(-0.0323935799198 0.224035923861 0)
(-0.0317670326638 0.223667428509 0)
(-0.0310836242036 0.223314874086 0)
(-0.0303452845796 0.222979520486 0)
(-0.0295541564013 0.222662519617 0)
(-0.0287125673893 0.22236511214 0)
(-0.0278230299549 0.222088413236 0)
(-0.0268882034849 0.221833597456 0)
(-0.0259108861429 0.221601689415 0)
(-0.0248939657147 0.221393737024 0)
(-0.0238404030779 0.221210604814 0)
(-0.0227531712119 0.221053136117 0)
(-0.0216352303076 0.220921946034 0)
(-0.0204894561649 0.220817572646 0)
(-0.0193186082809 0.220740266143 0)
(-0.0181252510216 0.220690129531 0)
(-0.0169117176407 0.220666900136 0)
(-0.0156800309437 0.220670080206 0)
(-0.0144318683067 0.220698707231 0)
(-0.0131684915244 0.220751475759 0)
(-0.0118907188061 0.220826493249 0)
(-0.0105988774431 0.220921393255 0)
(-0.00929279719354 0.22103307166 0)
(-0.00797183173685 0.221157788114 0)
(-0.00663497687417 0.221290879224 0)
(-0.00528122561077 0.221426865214 0)
(-0.0039103352098 0.221559232957 0)
(-0.00252432832453 0.221680842894 0)
(-0.00112951296727 0.221784443487 0)
(0.000262422837965 0.221864458457 0)
(0.0016295682299 0.221919507429 0)
(0.002946330449 0.221956285428 0)
(0.00420806359963 0.221978262254 0)
(0.00542109423128 0.221986192183 0)
(0.00657928142888 0.221989661371 0)
(0.00767653431793 0.221998201612 0)
(0.00871419152574 0.222017991184 0)
(0.0096942015312 0.222054491067 0)
(0.0106185385137 0.222111993845 0)
(0.0114891369974 0.222194114496 0)
(0.0123077433816 0.22230359664 0)
(0.0130757876245 0.222442601876 0)
(0.0137944074155 0.222612647311 0)
(0.0144643668618 0.222814797987 0)
(0.0150861071444 0.223049601637 0)
(0.015659705856 0.223317267429 0)
(0.0161849439886 0.223617592722 0)
(0.0166612948759 0.223950128071 0)
(0.0170880052612 0.224314100251 0)
(0.017464104026 0.224708561447 0)
(0.0177884886386 0.225132305919 0)
(0.0180599425232 0.225584000482 0)
(0.0182772167253 0.226062092358 0)
(0.0184390443032 0.226564919183 0)
(0.0185442078128 0.227090608323 0)
(0.0185915412248 0.227637168389 0)
(0.0185799753914 0.228202385834 0)
(0.0185090034301 0.228783908877 0)
(0.0183794405589 0.229379158938 0)
(0.0181911611221 0.229985599665 0)
(0.0179422882943 0.230600465881 0)
(0.0176317806856 0.231220598828 0)
(0.0172595367717 0.231842466711 0)
(0.0168254995211 0.232462229241 0)
(0.016329655133 0.233075669108 0)
(0.0157719854187 0.233678270007 0)
(0.0151524576071 0.234265184545 0)
(0.0144709869596 0.234831336212 0)
(0.0137274570413 0.235371416 0)
(0.0129217422489 0.235879971448 0)
(0.0120538214827 0.236351348742 0)
(0.0111239419012 0.236779607615 0)
(0.010132928742 0.237158121653 0)
(0.00908262460467 0.237478817385 0)
(0.00797655155888 0.237730558051 0)
(0.00682068564525 0.23789615436 0)
(0.00562371224839 0.23794673792 0)
(0.00439325082905 0.237831539975 0)
(0.00312019578616 0.237460113976 0)
(0.0018128473626 0.236679074323 0)
(0.000653295913716 0.235248341786 0)
(7.54893349699e-05 0.232721738322 0)
(-0.000490235479241 0.230924949462 0)
(-0.00087997548296 0.230900054303 0)
(-0.000993063685732 0.231087918121 0)
(-0.00142677310436 0.231400068791 0)
(-0.00188125200857 0.231803881298 0)
(-0.00237159441259 0.232272154066 0)
(-0.0029099983332 0.232783832592 0)
(-0.00350440418546 0.233322718699 0)
(-0.00415886947213 0.233876047145 0)
(-0.0048744040611 0.234433340402 0)
(-0.00564991872301 0.234985629574 0)
(-0.00648273839383 0.235525070966 0)
(-0.00736908499155 0.236044604662 0)
(-0.00830430530778 0.236537913231 0)
(-0.00928319355518 0.236999261076 0)
(-0.0103000842444 0.237423568442 0)
(-0.0113491229982 0.237806323521 0)
(-0.0124243153484 0.238143676758 0)
(-0.0135197614119 0.238432384745 0)
(-0.0146296727096 0.238669886632 0)
(-0.0157485610744 0.238854260355 0)
(-0.01687121563 0.238984267225 0)
(-0.0179928350048 0.23905930789 0)
(-0.0191089602405 0.239079430608 0)
(-0.0202155510407 0.239045277781 0)
(-0.0213088829985 0.238958059071 0)
(-0.022385582853 0.238819484042 0)
(-0.0234425095396 0.238631706665 0)
(-0.0244767715199 0.238397246459 0)
(-0.0254856137904 0.238118917377 0)
(-0.0264664378071 0.237799745813 0)
(-0.0274167094163 0.237442899801 0)
(-0.028333991768 0.237051614074 0)
(-0.0292158780496 0.236629134149 0)
(-0.0300600368981 0.236178655423 0)
(-0.0308641653449 0.235703290768 0)
(-0.0316260403789 0.235206025137 0)
(-0.0323434848073 0.234689709185 0)
(-0.0330144181366 0.234157026057 0)
(-0.0336368294457 0.233610508542 0)
(-0.0342088232872 0.233052512427 0)
(-0.0347285964898 0.232485252835 0)
(-0.0351944773212 0.231910778565 0)
(-0.035604904296 0.231331022728 0)
(-0.0359584546507 0.230747774292 0)
(-0.0362538405488 0.23016274149 0)
(-0.0364905658086 0.229577553186 0)
(-0.0366657852527 0.228993032353 0)
(-0.0367757753527 0.228410846517 0)
(-0.0368216313179 0.227832926984 0)
(-0.0368049594212 0.227260529301 0)
(-0.0367253155718 0.226695044625 0)
(-0.0365824739522 0.226137811094 0)
(-0.0363763628112 0.225590216005 0)
(-0.0361070855735 0.22505364675 0)
(-0.0357749224327 0.224529549407 0)
(-0.0353803487958 0.224019374056 0)
(-0.0349240298353 0.223524624634 0)
(-0.0344068347584 0.22304680355 0)
(-0.0338298275322 0.222587452047 0)
(-0.0331942763862 0.222148095978 0)
(-0.0325016386549 0.221730276756 0)
(-0.031753564617 0.221335499228 0)
(-0.0309518748609 0.220965253083 0)
(-0.0300985578147 0.220620962809 0)
(-0.0291957386118 0.220303999751 0)
(-0.0282456698788 0.220015633079 0)
(-0.0272506917791 0.219757032565 0)
(-0.0262132161641 0.219529218752 0)
(-0.0251356786798 0.219333056928 0)
(-0.0240205173256 0.219169204067 0)
(-0.0228701190859 0.219038094607 0)
(-0.0216867953744 0.218939881665 0)
(-0.0204727282039 0.218874416149 0)
(-0.0192299468995 0.218841180174 0)
(-0.0179602819445 0.218839262136 0)
(-0.0166653499022 0.218867282017 0)
(-0.0153465271157 0.218923367647 0)
(-0.0140049534113 0.219005074727 0)
(-0.0126415456478 0.219109372699 0)
(-0.0112570458037 0.219232567638 0)
(-0.0098521305574 0.219370313223 0)
(-0.00842760438586 0.219517562086 0)
(-0.00698479764809 0.219668656228 0)
(-0.00552618987752 0.219817427938 0)
(-0.00405637854187 0.219957603877 0)
(-0.00258301302443 0.2200834424 0)
(-0.00111737127244 0.220190823726 0)
(0.000326808800898 0.220278031489 0)
(0.00173083338912 0.220348488141 0)
(0.00307638903982 0.220409814415 0)
(0.0043626564543 0.220465546952 0)
(0.00559572380908 0.220515450029 0)
(0.00677047267857 0.220567047162 0)
(0.00788095743437 0.220629428968 0)
(0.00892665385476 0.220707912283 0)
(0.00990846292735 0.220807774245 0)
(0.0108275669001 0.220933024963 0)
(0.011685362911 0.221087143517 0)
(0.0124832978037 0.221272924381 0)
(0.0132227748043 0.221492465886 0)
(0.0139050697201 0.22174728015 0)
(0.0145313244889 0.222038320742 0)
(0.0151024678349 0.222366047076 0)
(0.0156192439085 0.222730466203 0)
(0.0160821679336 0.223131196888 0)
(0.016491572953 0.223567506813 0)
(0.0168475909334 0.224038369462 0)
(0.0171502121312 0.224542490896 0)
(0.0173992811548 0.225078353504 0)
(0.0175945593999 0.225644228362 0)
(0.0177357242263 0.22623820327 0)