/*--------------------------------*- C++ -*----------------------------------*\
| =========                 |                                                 |
| \\      /  F ield         | OpenFOAM: The Open Source CFD Toolbox           |
|  \\    /   O peration     | Version:  2206                                  |
|   \\  /    A nd           | Website:  www.openfoam.com                      |
|    \\/     M anipulation  |                                                 |
\*---------------------------------------------------------------------------*/
FoamFile
{
    version     2.0;
    format      ascii;
    arch        "LSB;label=64;scalar=64";
    class       volVectorField;
    location    "10800";
    object      U;
}
// * * * * * * * * * * * * * * * * * * * * * * * * * * * * * * * * * * * * * //

dimensions      [0 1 -1 0 0 0 0];

internalField   nonuniform List<vector> 
16
(
(3.33143e-08 -1.47748e-08 0)
(1.94481e-08 7.51345e-10 0)
(2.07814e-08 -7.6344e-09 0)
(3.56066e-08 2.07022e-08 0)
(1.64834e-08 -3.98637e-08 0)
(1.80494e-08 1.43825e-08 0)
(7.63845e-09 -1.09439e-08 0)
(7.24747e-09 3.66566e-08 0)
(-1.6748e-08 -4.80461e-08 0)
(-5.88593e-10 1.00032e-08 0)
(1.60785e-09 1.54214e-09 0)
(-1.50186e-08 3.72826e-08 0)
(-3.34099e-08 -2.26713e-08 0)
(-3.65837e-08 -3.58043e-09 0)
(-3.00215e-08 4.13745e-09 0)
(-2.79078e-08 2.11623e-08 0)
)
;

boundaryField
{
    movingWall
    {
        type            noSlip;
    }
    fixedWalls
    {
        type            noSlip;
    }
    frontAndBack
    {
        type            empty;
    }
}


// ************************************************************************* //
