/*--------------------------------*- C++ -*----------------------------------*\
| =========                 |                                                 |
| \\      /  F ield         | OpenFOAM: The Open Source CFD Toolbox           |
|  \\    /   O peration     | Version:  2212                                  |
|   \\  /    A nd           | Website:  www.openfoam.com                      |
|    \\/     M anipulation  |                                                 |
\*---------------------------------------------------------------------------*/
FoamFile
{
    version     2.0;
    format      ascii;
    arch        "LSB;label=64;scalar=64";
    class       volScalarField;
    location    "680";
    object      Gh2;
}
// * * * * * * * * * * * * * * * * * * * * * * * * * * * * * * * * * * * * * //

dimensions      [1 -3 0 0 0 0 0];

internalField   nonuniform List<scalar> 
1024
(
1.25426e-05
1.25417e-05
1.25394e-05
1.25355e-05
1.25296e-05
1.25216e-05
1.25121e-05
1.25014e-05
1.24904e-05
1.24795e-05
1.24693e-05
1.24606e-05
1.2454e-05
1.24504e-05
1.24506e-05
1.24556e-05
1.24657e-05
1.24791e-05
1.24938e-05
1.25094e-05
1.25259e-05
1.25437e-05
1.25626e-05
1.25822e-05
1.26012e-05
1.26184e-05
1.26327e-05
1.26438e-05
1.26516e-05
1.26566e-05
1.26594e-05
1.26605e-05
1.25425e-05
1.25415e-05
1.25392e-05
1.25352e-05
1.25291e-05
1.2521e-05
1.25113e-05
1.25006e-05
1.24896e-05
1.24787e-05
1.24684e-05
1.24596e-05
1.24531e-05
1.24495e-05
1.24498e-05
1.24548e-05
1.2465e-05
1.24784e-05
1.2493e-05
1.25085e-05
1.25249e-05
1.25425e-05
1.25614e-05
1.25809e-05
1.26e-05
1.26173e-05
1.26319e-05
1.26431e-05
1.26511e-05
1.26562e-05
1.26591e-05
1.26602e-05
1.25423e-05
1.25413e-05
1.25389e-05
1.25346e-05
1.25283e-05
1.252e-05
1.25102e-05
1.24993e-05
1.24881e-05
1.2477e-05
1.24664e-05
1.24572e-05
1.24506e-05
1.24472e-05
1.24477e-05
1.24531e-05
1.24635e-05
1.24769e-05
1.24915e-05
1.25068e-05
1.2523e-05
1.25403e-05
1.25589e-05
1.25783e-05
1.25975e-05
1.26151e-05
1.263e-05
1.26417e-05
1.265e-05
1.26553e-05
1.26583e-05
1.26595e-05
1.25421e-05
1.2541e-05
1.25385e-05
1.2534e-05
1.25275e-05
1.2519e-05
1.25089e-05
1.24978e-05
1.24862e-05
1.24744e-05
1.2463e-05
1.2453e-05
1.24461e-05
1.2443e-05
1.24442e-05
1.24503e-05
1.24613e-05
1.24749e-05
1.24894e-05
1.25046e-05
1.25204e-05
1.25372e-05
1.25553e-05
1.25745e-05
1.25937e-05
1.26116e-05
1.26271e-05
1.26394e-05
1.26482e-05
1.26538e-05
1.2657e-05
1.26583e-05
1.25419e-05
1.25408e-05
1.25382e-05
1.25336e-05
1.25269e-05
1.25182e-05
1.25078e-05
1.24964e-05
1.24841e-05
1.24712e-05
1.24581e-05
1.24467e-05
1.24392e-05
1.24364e-05
1.24388e-05
1.24464e-05
1.24585e-05
1.24727e-05
1.24873e-05
1.25022e-05
1.25175e-05
1.25337e-05
1.25512e-05
1.25698e-05
1.25889e-05
1.26072e-05
1.26233e-05
1.26362e-05
1.26457e-05
1.26517e-05
1.26551e-05
1.26565e-05
1.25419e-05
1.25408e-05
1.25382e-05
1.25336e-05
1.25269e-05
1.2518e-05
1.25075e-05
1.24954e-05
1.24821e-05
1.24674e-05
1.2452e-05
1.24382e-05
1.24296e-05
1.24273e-05
1.24315e-05
1.24414e-05
1.24555e-05
1.24709e-05
1.24859e-05
1.25006e-05
1.25153e-05
1.25307e-05
1.25472e-05
1.2565e-05
1.25838e-05
1.26022e-05
1.26189e-05
1.26325e-05
1.26426e-05
1.26491e-05
1.26528e-05
1.26542e-05
1.25423e-05
1.25412e-05
1.25386e-05
1.25342e-05
1.25276e-05
1.25189e-05
1.25081e-05
1.24954e-05
1.24807e-05
1.24637e-05
1.2445e-05
1.24281e-05
1.24177e-05
1.2416e-05
1.24227e-05
1.24361e-05
1.24533e-05
1.24704e-05
1.2486e-05
1.25007e-05
1.25148e-05
1.25291e-05
1.25445e-05
1.25613e-05
1.25794e-05
1.25977e-05
1.26146e-05
1.26288e-05
1.26393e-05
1.26463e-05
1.26501e-05
1.26516e-05
1.25433e-05
1.25423e-05
1.25398e-05
1.25357e-05
1.25294e-05
1.25209e-05
1.25101e-05
1.24967e-05
1.24803e-05
1.24604e-05
1.24378e-05
1.24169e-05
1.24044e-05
1.24036e-05
1.24137e-05
1.24318e-05
1.2453e-05
1.24725e-05
1.24892e-05
1.25038e-05
1.25172e-05
1.25303e-05
1.25443e-05
1.25597e-05
1.25768e-05
1.25945e-05
1.26113e-05
1.26256e-05
1.26364e-05
1.26435e-05
1.26474e-05
1.2649e-05
1.25452e-05
1.25442e-05
1.2542e-05
1.25382e-05
1.25324e-05
1.25243e-05
1.25136e-05
1.24996e-05
1.24813e-05
1.24578e-05
1.24303e-05
1.2405e-05
1.23905e-05
1.23914e-05
1.24063e-05
1.24306e-05
1.2457e-05
1.24794e-05
1.24971e-05
1.25115e-05
1.2524e-05
1.25356e-05
1.25478e-05
1.25615e-05
1.25771e-05
1.25937e-05
1.26098e-05
1.26237e-05
1.26343e-05
1.26413e-05
1.26453e-05
1.26468e-05
1.25483e-05
1.25474e-05
1.25453e-05
1.25418e-05
1.25366e-05
1.25291e-05
1.25186e-05
1.25038e-05
1.2483e-05
1.24551e-05
1.24219e-05
1.2392e-05
1.23765e-05
1.23811e-05
1.2403e-05
1.24352e-05
1.24678e-05
1.24934e-05
1.2512e-05
1.25258e-05
1.25366e-05
1.25462e-05
1.25562e-05
1.25677e-05
1.25812e-05
1.25961e-05
1.26108e-05
1.26237e-05
1.26336e-05
1.26403e-05
1.2644e-05
1.26456e-05
1.25525e-05
1.25517e-05
1.25498e-05
1.25467e-05
1.25419e-05
1.25348e-05
1.25241e-05
1.25079e-05
1.24836e-05
1.24499e-05
1.24104e-05
1.23767e-05
1.23625e-05
1.23738e-05
1.24058e-05
1.24484e-05
1.24883e-05
1.25169e-05
1.25357e-05
1.2548e-05
1.25565e-05
1.25633e-05
1.25702e-05
1.25789e-05
1.25898e-05
1.26022e-05
1.26149e-05
1.26262e-05
1.26349e-05
1.26409e-05
1.26443e-05
1.26458e-05
1.25568e-05
1.25561e-05
1.25544e-05
1.25515e-05
1.25468e-05
1.25393e-05
1.25273e-05
1.25082e-05
1.24787e-05
1.24381e-05
1.23925e-05
1.23573e-05
1.23481e-05
1.23702e-05
1.2416e-05
1.24716e-05
1.25198e-05
1.25511e-05
1.25691e-05
1.2579e-05
1.25841e-05
1.2587e-05
1.25902e-05
1.25953e-05
1.26028e-05
1.26122e-05
1.26223e-05
1.26314e-05
1.26387e-05
1.26437e-05
1.26468e-05
1.26482e-05
1.25572e-05
1.25566e-05
1.25551e-05
1.25521e-05
1.25467e-05
1.25376e-05
1.25224e-05
1.24979e-05
1.24612e-05
1.24134e-05
1.23644e-05
1.23321e-05
1.2333e-05
1.23701e-05
1.24323e-05
1.25023e-05
1.25596e-05
1.25935e-05
1.26104e-05
1.26172e-05
1.26181e-05
1.26166e-05
1.26154e-05
1.26163e-05
1.262e-05
1.26259e-05
1.26329e-05
1.26396e-05
1.26453e-05
1.26495e-05
1.26522e-05
1.26535e-05
1.25457e-05
1.25452e-05
1.25435e-05
1.25398e-05
1.25326e-05
1.252e-05
1.24992e-05
1.24673e-05
1.24229e-05
1.23706e-05
1.23236e-05
1.23011e-05
1.2317e-05
1.23707e-05
1.24481e-05
1.25311e-05
1.25974e-05
1.26354e-05
1.26523e-05
1.26568e-05
1.26542e-05
1.26486e-05
1.26434e-05
1.26405e-05
1.26407e-05
1.26434e-05
1.26475e-05
1.2652e-05
1.26563e-05
1.26597e-05
1.26622e-05
1.26634e-05
1.25137e-05
1.25129e-05
1.25103e-05
1.25048e-05
1.24945e-05
1.24769e-05
1.24494e-05
1.24102e-05
1.2361e-05
1.231e-05
1.22721e-05
1.22645e-05
1.22958e-05
1.2361e-05
1.24461e-05
1.25357e-05
1.261e-05
1.26556e-05
1.26779e-05
1.26851e-05
1.26832e-05
1.26767e-05
1.26692e-05
1.26636e-05
1.26609e-05
1.26614e-05
1.26641e-05
1.26679e-05
1.26719e-05
1.26753e-05
1.26776e-05
1.26788e-05
1.24598e-05
1.24584e-05
1.24545e-05
1.24464e-05
1.24322e-05
1.24092e-05
1.23757e-05
1.2332e-05
1.22825e-05
1.22379e-05
1.22121e-05
1.22163e-05
1.22523e-05
1.23134e-05
1.23901e-05
1.24739e-05
1.25513e-05
1.2609e-05
1.26473e-05
1.26713e-05
1.26864e-05
1.26954e-05
1.27005e-05
1.27032e-05
1.27045e-05
1.27047e-05
1.27039e-05
1.2702e-05
1.26992e-05
1.26961e-05
1.26936e-05
1.26922e-05
1.23997e-05
1.23977e-05
1.23924e-05
1.23818e-05
1.23638e-05
1.23361e-05
1.22979e-05
1.22514e-05
1.2203e-05
1.21628e-05
1.21402e-05
1.21388e-05
1.21564e-05
1.21881e-05
1.22308e-05
1.22824e-05
1.23374e-05
1.23865e-05
1.24266e-05
1.24595e-05
1.24874e-05
1.25116e-05
1.25313e-05
1.25462e-05
1.25556e-05
1.25591e-05
1.25568e-05
1.25496e-05
1.25396e-05
1.25294e-05
1.25214e-05
1.25173e-05
1.23574e-05
1.2355e-05
1.23487e-05
1.23364e-05
1.23161e-05
1.22857e-05
1.22452e-05
1.21972e-05
1.21474e-05
1.2103e-05
1.20691e-05
1.20455e-05
1.2029e-05
1.20161e-05
1.20051e-05
1.19949e-05
1.19839e-05
1.1971e-05
1.19569e-05
1.19433e-05
1.19315e-05
1.19239e-05
1.19212e-05
1.19238e-05
1.19316e-05
1.19437e-05
1.19584e-05
1.19735e-05
1.19864e-05
1.19953e-05
1.19998e-05
1.20013e-05
1.23394e-05
1.2337e-05
1.2331e-05
1.23196e-05
1.23009e-05
1.22735e-05
1.22369e-05
1.21926e-05
1.21441e-05
1.20959e-05
1.20512e-05
1.20098e-05
1.19687e-05
1.19244e-05
1.18742e-05
1.18158e-05
1.17504e-05
1.16839e-05
1.16209e-05
1.15625e-05
1.15105e-05
1.14669e-05
1.14336e-05
1.14121e-05
1.14033e-05
1.14074e-05
1.14228e-05
1.14462e-05
1.14725e-05
1.14958e-05
1.15119e-05
1.15192e-05
1.23349e-05
1.23327e-05
1.23273e-05
1.23173e-05
1.23012e-05
1.22777e-05
1.22462e-05
1.22075e-05
1.21637e-05
1.21178e-05
1.20718e-05
1.20259e-05
1.19774e-05
1.19226e-05
1.1858e-05
1.17808e-05
1.16952e-05
1.16127e-05
1.15397e-05
1.14753e-05
1.14185e-05
1.13687e-05
1.13259e-05
1.12907e-05
1.12641e-05
1.12472e-05
1.12405e-05
1.12433e-05
1.12531e-05
1.12657e-05
1.12766e-05
1.12824e-05
1.23373e-05
1.23353e-05
1.23305e-05
1.23219e-05
1.23083e-05
1.22886e-05
1.22622e-05
1.22295e-05
1.21917e-05
1.21507e-05
1.2108e-05
1.20635e-05
1.2015e-05
1.19593e-05
1.18928e-05
1.18131e-05
1.17257e-05
1.16442e-05
1.15745e-05
1.1514e-05
1.14597e-05
1.14089e-05
1.13605e-05
1.13152e-05
1.12749e-05
1.12421e-05
1.12183e-05
1.12039e-05
1.11981e-05
1.11982e-05
1.12011e-05
1.12035e-05
1.23417e-05
1.23401e-05
1.23361e-05
1.23289e-05
1.23175e-05
1.23012e-05
1.22793e-05
1.22519e-05
1.22197e-05
1.21836e-05
1.21444e-05
1.2102e-05
1.20544e-05
1.19992e-05
1.19335e-05
1.18554e-05
1.17712e-05
1.16938e-05
1.16282e-05
1.15707e-05
1.1517e-05
1.14635e-05
1.14087e-05
1.13534e-05
1.13005e-05
1.12544e-05
1.12181e-05
1.11932e-05
1.11788e-05
1.11727e-05
1.11717e-05
1.11724e-05
1.23429e-05
1.23419e-05
1.23391e-05
1.23338e-05
1.2325e-05
1.23117e-05
1.22935e-05
1.227e-05
1.22416e-05
1.22084e-05
1.21706e-05
1.21278e-05
1.20789e-05
1.20221e-05
1.19557e-05
1.18791e-05
1.17982e-05
1.17247e-05
1.16622e-05
1.16066e-05
1.15538e-05
1.14997e-05
1.14424e-05
1.13822e-05
1.13221e-05
1.12666e-05
1.12204e-05
1.11864e-05
1.11651e-05
1.11544e-05
1.11511e-05
1.1151e-05
1.2334e-05
1.23342e-05
1.23337e-05
1.23312e-05
1.23254e-05
1.23151e-05
1.22995e-05
1.22781e-05
1.22505e-05
1.22167e-05
1.21767e-05
1.21303e-05
1.2077e-05
1.20164e-05
1.1948e-05
1.18718e-05
1.1794e-05
1.17243e-05
1.16649e-05
1.16118e-05
1.1561e-05
1.15089e-05
1.14533e-05
1.13939e-05
1.13327e-05
1.12736e-05
1.12214e-05
1.11807e-05
1.11534e-05
1.11385e-05
1.1133e-05
1.11322e-05
1.23072e-05
1.23093e-05
1.2312e-05
1.23134e-05
1.23113e-05
1.23036e-05
1.22892e-05
1.2267e-05
1.22367e-05
1.21985e-05
1.21528e-05
1.21001e-05
1.20412e-05
1.19764e-05
1.19061e-05
1.1831e-05
1.17568e-05
1.16917e-05
1.16366e-05
1.15875e-05
1.15406e-05
1.14928e-05
1.14419e-05
1.13871e-05
1.13295e-05
1.12719e-05
1.12186e-05
1.11744e-05
1.11427e-05
1.11242e-05
1.11165e-05
1.11151e-05
1.22549e-05
1.22594e-05
1.22661e-05
1.22716e-05
1.22727e-05
1.22662e-05
1.22503e-05
1.22242e-05
1.21881e-05
1.2143e-05
1.20903e-05
1.20316e-05
1.19682e-05
1.19012e-05
1.18313e-05
1.17594e-05
1.16906e-05
1.16316e-05
1.15823e-05
1.15386e-05
1.14975e-05
1.14558e-05
1.14117e-05
1.1364e-05
1.13131e-05
1.12608e-05
1.12103e-05
1.11661e-05
1.11323e-05
1.11112e-05
1.11016e-05
1.10995e-05
1.21716e-05
1.21788e-05
1.21887e-05
1.21965e-05
1.2198e-05
1.21895e-05
1.21692e-05
1.21371e-05
1.20944e-05
1.20432e-05
1.19857e-05
1.19242e-05
1.18601e-05
1.17948e-05
1.17291e-05
1.16634e-05
1.16023e-05
1.15509e-05
1.15086e-05
1.14717e-05
1.14372e-05
1.14028e-05
1.13666e-05
1.13275e-05
1.12852e-05
1.12407e-05
1.11961e-05
1.1155e-05
1.11216e-05
1.10992e-05
1.10881e-05
1.10853e-05
1.20543e-05
1.20634e-05
1.20736e-05
1.20792e-05
1.20763e-05
1.20622e-05
1.20361e-05
1.19988e-05
1.19524e-05
1.18994e-05
1.18423e-05
1.17833e-05
1.17238e-05
1.16649e-05
1.16071e-05
1.15508e-05
1.14994e-05
1.1457e-05
1.14226e-05
1.1393e-05
1.13657e-05
1.13388e-05
1.13107e-05
1.12805e-05
1.12477e-05
1.12124e-05
1.11758e-05
1.11404e-05
1.11098e-05
1.10879e-05
1.1076e-05
1.10726e-05
1.19015e-05
1.19103e-05
1.19154e-05
1.19129e-05
1.19017e-05
1.18811e-05
1.18512e-05
1.18132e-05
1.1769e-05
1.17206e-05
1.16702e-05
1.16194e-05
1.15695e-05
1.15211e-05
1.14745e-05
1.14298e-05
1.13897e-05
1.13571e-05
1.13309e-05
1.13086e-05
1.12884e-05
1.12687e-05
1.12484e-05
1.12267e-05
1.12031e-05
1.11773e-05
1.11498e-05
1.11219e-05
1.10965e-05
1.10768e-05
1.10652e-05
1.10613e-05
1.17106e-05
1.17149e-05
1.17093e-05
1.16964e-05
1.16782e-05
1.16551e-05
1.16272e-05
1.15949e-05
1.15592e-05
1.15214e-05
1.1483e-05
1.1445e-05
1.14082e-05
1.1373e-05
1.13395e-05
1.13079e-05
1.12797e-05
1.1257e-05
1.1239e-05
1.12238e-05
1.12102e-05
1.11971e-05
1.11838e-05
1.11696e-05
1.11542e-05
1.11374e-05
1.1119e-05
1.10996e-05
1.10809e-05
1.10653e-05
1.10553e-05
1.10516e-05
1.14755e-05
1.14708e-05
1.14562e-05
1.14398e-05
1.14228e-05
1.14047e-05
1.13851e-05
1.1364e-05
1.13415e-05
1.13182e-05
1.12948e-05
1.12719e-05
1.12499e-05
1.12291e-05
1.12094e-05
1.1191e-05
1.11746e-05
1.11616e-05
1.11513e-05
1.11426e-05
1.1135e-05
1.11277e-05
1.11203e-05
1.11126e-05
1.11042e-05
1.1095e-05
1.10849e-05
1.1074e-05
1.10629e-05
1.1053e-05
1.10461e-05
1.10431e-05
1.11877e-05
1.11835e-05
1.11756e-05
1.11682e-05
1.11613e-05
1.11544e-05
1.11475e-05
1.11402e-05
1.11326e-05
1.11249e-05
1.11172e-05
1.11096e-05
1.11024e-05
1.10957e-05
1.10893e-05
1.10833e-05
1.10781e-05
1.10739e-05
1.10706e-05
1.10678e-05
1.10654e-05
1.10631e-05
1.10607e-05
1.10583e-05
1.10557e-05
1.10529e-05
1.10497e-05
1.10463e-05
1.10428e-05
1.10395e-05
1.1037e-05
1.10358e-05
)
;

boundaryField
{
    movingWall
    {
        type            fixedValue;
        value           uniform 1.1032e-05;
    }
    fixedWalls
    {
        type            zeroGradient;
    }
    floor
    {
        type            zeroGradient;
    }
    frontAndBack
    {
        type            empty;
    }
}


// ************************************************************************* //
