/*--------------------------------*- C++ -*----------------------------------*\
| =========                 |                                                 |
| \\      /  F ield         | OpenFOAM: The Open Source CFD Toolbox           |
|  \\    /   O peration     | Version:  2212                                  |
|   \\  /    A nd           | Website:  www.openfoam.com                      |
|    \\/     M anipulation  |                                                 |
\*---------------------------------------------------------------------------*/
FoamFile
{
    version     2.0;
    format      ascii;
    arch        "LSB;label=64;scalar=64";
    class       volScalarField;
    location    "680";
    object      p;
}
// * * * * * * * * * * * * * * * * * * * * * * * * * * * * * * * * * * * * * //

dimensions      [0 2 -2 0 0 0 0];

internalField   nonuniform List<scalar> 
1024
(
0
-5.80628e-06
-1.02407e-05
-8.72723e-06
9.13144e-07
2.12616e-05
5.6966e-05
0.000114646
0.00020043
0.000310063
0.00041021
0.000458
0.00042327
0.000306672
0.000136602
-5.32485e-05
-0.000217439
-0.000328727
-0.000396205
-0.000435154
-0.000455734
-0.00046474
-0.000466927
-0.000465691
-0.000463441
-0.000461683
-0.000460864
-0.000460481
-0.000459575
-0.000457602
-0.000455049
-0.000453173
-0.0928132
-0.0928196
-0.0928244
-0.0928243
-0.0928176
-0.0928011
-0.0927697
-0.0927166
-0.0926356
-0.0925309
-0.0924354
-0.0923881
-0.0924186
-0.0925307
-0.0926966
-0.0928827
-0.0930441
-0.0931534
-0.0932193
-0.093257
-0.0932765
-0.0932845
-0.0932858
-0.0932837
-0.0932807
-0.0932781
-0.0932764
-0.0932753
-0.093274
-0.093272
-0.0932695
-0.0932675
-0.199441
-0.19945
-0.199457
-0.19946
-0.199459
-0.199449
-0.199425
-0.199379
-0.199306
-0.199209
-0.19912
-0.199073
-0.199097
-0.199201
-0.19936
-0.199539
-0.199694
-0.199799
-0.199862
-0.199897
-0.199914
-0.199919
-0.199919
-0.199915
-0.19991
-0.199905
-0.199902
-0.199899
-0.199897
-0.199894
-0.199891
-0.199888
-0.321952
-0.321962
-0.321973
-0.321982
-0.321988
-0.321988
-0.321973
-0.321938
-0.321874
-0.321785
-0.321703
-0.321657
-0.321672
-0.321767
-0.321915
-0.322083
-0.322229
-0.322327
-0.322384
-0.322414
-0.322427
-0.322429
-0.322424
-0.322417
-0.322408
-0.3224
-0.322393
-0.322388
-0.322385
-0.322381
-0.322377
-0.322373
-0.46272
-0.462731
-0.462746
-0.462761
-0.462777
-0.462786
-0.462782
-0.462757
-0.462703
-0.462623
-0.462547
-0.462501
-0.462508
-0.462593
-0.462729
-0.462883
-0.463016
-0.463103
-0.463152
-0.463176
-0.463182
-0.463178
-0.463168
-0.463155
-0.463141
-0.463128
-0.463116
-0.463107
-0.463101
-0.463095
-0.463089
-0.463084
-0.624469
-0.62448
-0.624496
-0.624517
-0.62454
-0.624559
-0.624564
-0.624549
-0.624504
-0.624431
-0.62436
-0.624315
-0.624315
-0.62439
-0.624513
-0.624653
-0.624771
-0.624846
-0.624884
-0.624898
-0.624897
-0.624886
-0.624868
-0.624848
-0.624826
-0.624806
-0.624788
-0.624774
-0.624763
-0.624755
-0.624747
-0.62474
-0.810315
-0.810324
-0.81034
-0.810364
-0.810393
-0.810418
-0.81043
-0.810421
-0.810384
-0.810317
-0.810249
-0.810203
-0.8102
-0.810267
-0.810379
-0.810505
-0.810609
-0.810671
-0.810698
-0.810702
-0.810692
-0.810672
-0.810646
-0.810617
-0.810587
-0.810558
-0.810533
-0.810513
-0.810497
-0.810485
-0.810475
-0.810467
-1.02383
-1.02383
-1.02385
-1.02387
-1.0239
-1.02393
-1.02395
-1.02394
-1.02391
-1.02385
-1.02378
-1.02374
-1.02373
-1.0238
-1.0239
-1.02401
-1.02411
-1.02416
-1.02417
-1.02417
-1.02415
-1.02412
-1.02409
-1.02405
-1.02401
-1.02397
-1.02394
-1.02391
-1.02389
-1.02388
-1.02387
-1.02386
-1.2691
-1.2691
-1.26911
-1.26913
-1.26916
-1.26919
-1.26921
-1.26921
-1.26918
-1.26913
-1.26907
-1.26902
-1.26902
-1.26908
-1.26917
-1.26928
-1.26936
-1.2694
-1.26941
-1.2694
-1.26937
-1.26934
-1.2693
-1.26926
-1.26921
-1.26917
-1.26913
-1.2691
-1.26907
-1.26905
-1.26904
-1.26903
-1.55081
-1.55081
-1.55082
-1.55084
-1.55087
-1.5509
-1.55092
-1.55093
-1.55091
-1.55086
-1.5508
-1.55077
-1.55077
-1.55083
-1.55092
-1.55102
-1.55109
-1.55113
-1.55113
-1.55112
-1.55109
-1.55105
-1.55101
-1.55096
-1.55091
-1.55087
-1.55082
-1.55079
-1.55076
-1.55074
-1.55073
-1.55072
-1.87439
-1.87438
-1.87439
-1.8744
-1.87442
-1.87445
-1.87447
-1.87448
-1.87447
-1.87444
-1.8744
-1.87438
-1.8744
-1.87446
-1.87455
-1.87464
-1.87472
-1.87475
-1.87475
-1.87473
-1.8747
-1.87466
-1.87462
-1.87458
-1.87453
-1.87449
-1.87444
-1.87441
-1.87438
-1.87436
-1.87435
-1.87435
-2.24603
-2.24602
-2.24602
-2.24603
-2.24604
-2.24606
-2.24608
-2.24609
-2.24609
-2.24609
-2.24608
-2.24609
-2.24613
-2.2462
-2.24629
-2.24638
-2.24645
-2.24648
-2.24648
-2.24646
-2.24644
-2.24641
-2.24637
-2.24633
-2.24628
-2.24624
-2.2462
-2.24616
-2.24614
-2.24612
-2.24611
-2.24611
-2.6729
-2.6729
-2.67289
-2.67289
-2.6729
-2.67291
-2.67292
-2.67293
-2.67294
-2.67296
-2.67299
-2.67303
-2.6731
-2.67318
-2.67328
-2.67337
-2.67344
-2.67348
-2.67348
-2.67347
-2.67345
-2.67342
-2.67339
-2.67335
-2.67331
-2.67326
-2.67322
-2.67318
-2.67316
-2.67314
-2.67314
-2.67314
-3.16324
-3.16324
-3.16324
-3.16324
-3.16324
-3.16324
-3.16324
-3.16325
-3.16328
-3.16332
-3.16337
-3.16344
-3.16353
-3.16363
-3.16373
-3.16383
-3.16391
-3.16395
-3.16396
-3.16395
-3.16393
-3.16391
-3.16387
-3.16383
-3.16378
-3.16373
-3.16368
-3.16364
-3.16362
-3.1636
-3.1636
-3.1636
-3.72653
-3.72653
-3.72653
-3.72653
-3.72652
-3.72652
-3.72653
-3.72654
-3.72657
-3.72661
-3.72668
-3.72676
-3.72687
-3.72698
-3.72709
-3.7272
-3.72729
-3.72734
-3.72735
-3.72734
-3.72731
-3.72727
-3.72721
-3.72715
-3.72708
-3.72702
-3.72696
-3.72692
-3.7269
-3.72689
-3.72689
-3.7269
-4.37363
-4.37363
-4.37363
-4.37363
-4.37363
-4.37363
-4.37363
-4.37364
-4.37367
-4.37372
-4.37378
-4.37387
-4.37396
-4.37407
-4.37419
-4.3743
-4.37439
-4.37444
-4.37444
-4.37442
-4.37436
-4.37428
-4.37419
-4.37409
-4.374
-4.37393
-4.37388
-4.37385
-4.37383
-4.37383
-4.37383
-4.37384
-5.06558
-5.06559
-5.06559
-5.06559
-5.06559
-5.06559
-5.06559
-5.06561
-5.06563
-5.06567
-5.06573
-5.0658
-5.06588
-5.06598
-5.06608
-5.06617
-5.06624
-5.06626
-5.06623
-5.06616
-5.06606
-5.06592
-5.06578
-5.06565
-5.06554
-5.06547
-5.06544
-5.06543
-5.06543
-5.06544
-5.06545
-5.06545
-5.71281
-5.71281
-5.71281
-5.71281
-5.71281
-5.71282
-5.71283
-5.71285
-5.71288
-5.71292
-5.71298
-5.71304
-5.71311
-5.71319
-5.71326
-5.71334
-5.71338
-5.71338
-5.71334
-5.71325
-5.71312
-5.71296
-5.71279
-5.71263
-5.71252
-5.71245
-5.71242
-5.71241
-5.71242
-5.71243
-5.71244
-5.71244
-6.27635
-6.27635
-6.27636
-6.27636
-6.27636
-6.27637
-6.27638
-6.2764
-6.27643
-6.27647
-6.27651
-6.27657
-6.27663
-6.27669
-6.27676
-6.27683
-6.27688
-6.2769
-6.27688
-6.27682
-6.27672
-6.27658
-6.27643
-6.27627
-6.27614
-6.27605
-6.276
-6.27598
-6.27598
-6.27599
-6.276
-6.27601
-6.76697
-6.76697
-6.76698
-6.76698
-6.76699
-6.767
-6.76701
-6.76703
-6.76706
-6.76709
-6.76713
-6.76718
-6.76724
-6.76729
-6.76736
-6.76742
-6.76748
-6.76752
-6.76754
-6.76752
-6.76746
-6.76737
-6.76725
-6.76712
-6.76699
-6.76687
-6.76679
-6.76674
-6.76673
-6.76673
-6.76674
-6.76675
-7.19408
-7.19408
-7.19408
-7.19409
-7.1941
-7.19411
-7.19412
-7.19414
-7.19417
-7.1942
-7.19424
-7.19429
-7.19434
-7.1944
-7.19446
-7.19452
-7.19459
-7.19464
-7.19467
-7.19468
-7.19466
-7.1946
-7.19452
-7.19441
-7.19429
-7.19417
-7.19407
-7.194
-7.19396
-7.19395
-7.19396
-7.19397
-7.56589
-7.56589
-7.56589
-7.5659
-7.5659
-7.56591
-7.56593
-7.56595
-7.56598
-7.56601
-7.56605
-7.5661
-7.56615
-7.56621
-7.56627
-7.56633
-7.5664
-7.56646
-7.5665
-7.56652
-7.56651
-7.56648
-7.56642
-7.56634
-7.56623
-7.56611
-7.566
-7.56591
-7.56586
-7.56583
-7.56584
-7.56585
-7.88956
-7.88956
-7.88956
-7.88956
-7.88957
-7.88958
-7.88959
-7.88961
-7.88964
-7.88968
-7.88972
-7.88977
-7.88982
-7.88988
-7.88994
-7.89001
-7.89008
-7.89014
-7.89019
-7.8902
-7.8902
-7.89017
-7.89012
-7.89005
-7.88995
-7.88984
-7.88972
-7.88961
-7.88953
-7.8895
-7.8895
-7.88951
-8.17132
-8.17132
-8.17132
-8.17132
-8.17132
-8.17133
-8.17134
-8.17136
-8.17139
-8.17143
-8.17148
-8.17153
-8.17159
-8.17166
-8.17172
-8.17179
-8.17186
-8.17192
-8.17197
-8.17198
-8.17197
-8.17194
-8.17188
-8.1718
-8.1717
-8.17158
-8.17144
-8.17132
-8.17121
-8.17116
-8.17115
-8.17116
-8.41661
-8.41661
-8.4166
-8.4166
-8.4166
-8.4166
-8.41661
-8.41663
-8.41666
-8.4167
-8.41676
-8.41682
-8.41688
-8.41695
-8.41702
-8.4171
-8.41717
-8.41723
-8.41727
-8.41728
-8.41727
-8.41722
-8.41715
-8.41705
-8.41692
-8.41677
-8.41661
-8.41645
-8.41632
-8.41623
-8.41621
-8.41621
-8.63014
-8.63014
-8.63014
-8.63013
-8.63012
-8.63011
-8.63011
-8.63013
-8.63017
-8.63022
-8.63028
-8.63034
-8.63042
-8.63049
-8.63057
-8.63065
-8.63072
-8.63078
-8.63082
-8.63083
-8.6308
-8.63075
-8.63066
-8.63053
-8.63036
-8.63017
-8.62996
-8.62975
-8.62957
-8.62944
-8.62938
-8.62937
-8.81604
-8.81604
-8.81603
-8.81601
-8.81599
-8.81597
-8.81597
-8.81598
-8.81603
-8.81608
-8.81615
-8.81623
-8.81631
-8.81639
-8.81647
-8.81655
-8.81662
-8.81668
-8.81672
-8.81673
-8.8167
-8.81664
-8.81653
-8.81637
-8.81616
-8.81591
-8.81563
-8.81535
-8.8151
-8.81489
-8.81478
-8.81474
-8.97789
-8.97788
-8.97787
-8.97783
-8.97779
-8.97776
-8.97775
-8.97777
-8.97782
-8.97789
-8.97796
-8.97805
-8.97813
-8.97822
-8.9783
-8.97838
-8.97846
-8.97852
-8.97856
-8.97856
-8.97853
-8.97845
-8.97833
-8.97814
-8.97789
-8.97759
-8.97724
-8.97687
-8.97651
-8.9762
-8.97599
-8.97589
-9.11883
-9.11881
-9.11877
-9.11871
-9.11865
-9.1186
-9.11859
-9.11861
-9.11867
-9.11874
-9.11882
-9.11891
-9.119
-9.11909
-9.11918
-9.11926
-9.11934
-9.1194
-9.11944
-9.11944
-9.11941
-9.11932
-9.11918
-9.11898
-9.1187
-9.11835
-9.11792
-9.11746
-9.11697
-9.1165
-9.11614
-9.11591
-9.24164
-9.24156
-9.24145
-9.24134
-9.24125
-9.2412
-9.24119
-9.24122
-9.24128
-9.24136
-9.24145
-9.24154
-9.24164
-9.24173
-9.24182
-9.24191
-9.24198
-9.24205
-9.24208
-9.24209
-9.24205
-9.24196
-9.24181
-9.24159
-9.24129
-9.2409
-9.24043
-9.23988
-9.23925
-9.23857
-9.23794
-9.23739
-9.34888
-9.34848
-9.34823
-9.34807
-9.34797
-9.34792
-9.34791
-9.34795
-9.34801
-9.3481
-9.3482
-9.34829
-9.34839
-9.34849
-9.34858
-9.34867
-9.34875
-9.34881
-9.34885
-9.34885
-9.34881
-9.34872
-9.34857
-9.34835
-9.34804
-9.34763
-9.34713
-9.34652
-9.34577
-9.34486
-9.34376
-9.3425
-9.44284
-9.4416
-9.44112
-9.44095
-9.44086
-9.44081
-9.44081
-9.44086
-9.44093
-9.44102
-9.44112
-9.44123
-9.44133
-9.44143
-9.44152
-9.44161
-9.4417
-9.44176
-9.4418
-9.4418
-9.44176
-9.44167
-9.44152
-9.44129
-9.44098
-9.44057
-9.44006
-9.43943
-9.43861
-9.43751
-9.4359
-9.43364
)
;

boundaryField
{
    movingWall
    {
        type            calculated;
        value           nonuniform List<scalar> 
32
(
-9.48609
-9.48485
-9.48437
-9.48421
-9.48411
-9.48406
-9.48407
-9.48411
-9.48418
-9.48428
-9.48438
-9.48448
-9.48458
-9.48468
-9.48478
-9.48487
-9.48495
-9.48502
-9.48506
-9.48506
-9.48502
-9.48493
-9.48478
-9.48455
-9.48424
-9.48383
-9.48332
-9.48268
-9.48187
-9.48077
-9.47916
-9.4769
)
;
    }
    fixedWalls
    {
        type            calculated;
        value           nonuniform List<scalar> 
64
(
6.93889e-18
-0.0928132
-0.199441
-0.321952
-0.46272
-0.624469
-0.810315
-1.02383
-1.2691
-1.55081
-1.87439
-2.24603
-2.6729
-3.16324
-3.72653
-4.37363
-5.06558
-5.71281
-6.27635
-6.76697
-7.19408
-7.56589
-7.88956
-8.17132
-8.41661
-8.63014
-8.81604
-8.97789
-9.11883
-9.24164
-9.34888
-9.44284
-0.000453173
-0.0932675
-0.199888
-0.322373
-0.463084
-0.62474
-0.810467
-1.02386
-1.26903
-1.55072
-1.87435
-2.24611
-2.67314
-3.1636
-3.7269
-4.37384
-5.06545
-5.71244
-6.27601
-6.76675
-7.19397
-7.56585
-7.88951
-8.17116
-8.41621
-8.62937
-8.81474
-8.97589
-9.11591
-9.23739
-9.3425
-9.43364
)
;
    }
    floor
    {
        type            calculated;
        value           nonuniform List<scalar> 
32
(
0.043196
0.0431903
0.043186
0.0431879
0.0431979
0.0432187
0.0432549
0.0433131
0.0433994
0.0435097
0.0436103
0.0436582
0.043623
0.0435058
0.0433352
0.0431448
0.0429801
0.0428685
0.0428008
0.0427616
0.0427408
0.0427317
0.0427293
0.0427304
0.0427325
0.0427341
0.0427347
0.042735
0.0427358
0.0427377
0.0427402
0.0427421
)
;
    }
    frontAndBack
    {
        type            empty;
    }
}


// ************************************************************************* //
