/*--------------------------------*- C++ -*----------------------------------*\
| =========                 |                                                 |
| \\      /  F ield         | OpenFOAM: The Open Source CFD Toolbox           |
|  \\    /   O peration     | Version:  2212                                  |
|   \\  /    A nd           | Website:  www.openfoam.com                      |
|    \\/     M anipulation  |                                                 |
\*---------------------------------------------------------------------------*/
FoamFile
{
    version     2.0;
    format      ascii;
    arch        "LSB;label=64;scalar=64";
    class       volScalarField;
    location    "680";
    object      T;
}
// * * * * * * * * * * * * * * * * * * * * * * * * * * * * * * * * * * * * * //

dimensions      [0 0 0 1 0 0 0];

internalField   nonuniform List<scalar> 
1024
(
309.986
309.985
309.984
309.982
309.979
309.975
309.972
309.968
309.964
309.959
309.955
309.955
309.958
309.963
309.967
309.971
309.974
309.977
309.979
309.98
309.982
309.983
309.984
309.986
309.987
309.988
309.989
309.99
309.991
309.992
309.992
309.992
309.956
309.955
309.95
309.943
309.933
309.923
309.911
309.9
309.886
309.873
309.862
309.861
309.871
309.883
309.896
309.909
309.919
309.927
309.933
309.938
309.943
309.947
309.951
309.955
309.958
309.962
309.966
309.969
309.972
309.973
309.974
309.975
309.925
309.922
309.914
309.901
309.884
309.865
309.845
309.826
309.804
309.784
309.768
309.766
309.781
309.799
309.819
309.84
309.858
309.871
309.882
309.891
309.899
309.906
309.913
309.919
309.926
309.932
309.939
309.945
309.95
309.953
309.955
309.955
309.893
309.889
309.878
309.858
309.834
309.806
309.779
309.753
309.727
309.704
309.688
309.685
309.7
309.719
309.742
309.767
309.791
309.81
309.825
309.838
309.85
309.861
309.871
309.88
309.89
309.899
309.909
309.918
309.926
309.931
309.934
309.935
309.862
309.857
309.843
309.818
309.787
309.753
309.72
309.691
309.665
309.646
309.632
309.629
309.639
309.655
309.675
309.7
309.726
309.748
309.767
309.783
309.798
309.812
309.825
309.838
309.85
309.863
309.877
309.889
309.9
309.908
309.912
309.913
309.833
309.828
309.812
309.784
309.748
309.71
309.675
309.647
309.626
309.612
309.602
309.599
309.604
309.613
309.627
309.646
309.669
309.691
309.711
309.729
309.746
309.762
309.778
309.794
309.809
309.825
309.842
309.859
309.873
309.884
309.889
309.89
309.807
309.803
309.787
309.758
309.72
309.681
309.647
309.622
309.607
309.598
309.59
309.587
309.588
309.593
309.6
309.612
309.627
309.645
309.662
309.68
309.698
309.715
309.733
309.75
309.769
309.788
309.808
309.829
309.847
309.86
309.866
309.868
309.785
309.781
309.767
309.74
309.703
309.665
309.634
309.613
309.602
309.595
309.588
309.584
309.584
309.586
309.589
309.595
309.603
309.614
309.627
309.641
309.657
309.674
309.692
309.711
309.731
309.752
309.776
309.8
309.821
309.836
309.844
309.846
309.765
309.762
309.751
309.728
309.695
309.661
309.633
309.615
309.606
309.597
309.589
309.584
309.584
309.585
309.588
309.59
309.593
309.597
309.605
309.615
309.628
309.642
309.659
309.677
309.698
309.722
309.748
309.774
309.798
309.815
309.824
309.826
309.747
309.746
309.738
309.721
309.695
309.665
309.639
309.623
309.613
309.601
309.591
309.586
309.585
309.588
309.59
309.591
309.592
309.592
309.595
309.6
309.609
309.62
309.634
309.652
309.673
309.697
309.725
309.753
309.779
309.797
309.806
309.808
309.731
309.73
309.726
309.714
309.695
309.672
309.651
309.635
309.621
309.605
309.592
309.587
309.587
309.59
309.594
309.595
309.595
309.593
309.593
309.594
309.599
309.607
309.618
309.634
309.654
309.679
309.708
309.737
309.763
309.781
309.789
309.791
309.715
309.715
309.713
309.706
309.693
309.677
309.66
309.644
309.626
309.607
309.593
309.587
309.589
309.594
309.598
309.6
309.6
309.597
309.594
309.593
309.594
309.599
309.609
309.623
309.642
309.668
309.697
309.727
309.752
309.768
309.774
309.776
309.699
309.699
309.698
309.695
309.687
309.675
309.661
309.644
309.623
309.603
309.59
309.587
309.591
309.597
309.602
309.605
309.604
309.6
309.596
309.593
309.593
309.596
309.604
309.618
309.638
309.664
309.693
309.722
309.744
309.756
309.762
309.762
309.681
309.682
309.681
309.679
309.674
309.665
309.651
309.631
309.61
309.594
309.586
309.588
309.594
309.601
309.606
309.609
309.608
309.603
309.597
309.594
309.594
309.598
309.607
309.623
309.644
309.67
309.697
309.72
309.737
309.746
309.75
309.75
309.66
309.66
309.66
309.658
309.653
309.643
309.628
309.609
309.593
309.585
309.584
309.59
309.597
309.604
309.609
309.612
309.612
309.608
309.603
309.603
309.606
309.613
309.624
309.64
309.66
309.682
309.702
309.719
309.73
309.736
309.738
309.738
309.634
309.634
309.633
309.63
309.624
309.614
309.6
309.587
309.58
309.58
309.584
309.591
309.598
309.604
309.611
309.617
309.621
309.624
309.626
309.629
309.634
309.641
309.652
309.664
309.679
309.693
309.706
309.716
309.722
309.724
309.724
309.724
309.609
309.608
309.607
309.603
309.597
309.588
309.579
309.575
309.575
309.577
309.582
309.586
309.592
309.598
309.605
309.613
309.622
309.632
309.64
309.646
309.652
309.659
309.666
309.674
309.682
309.69
309.696
309.699
309.7
309.699
309.698
309.696
309.592
309.592
309.59
309.586
309.58
309.571
309.565
309.561
309.56
309.561
309.563
309.564
309.565
309.566
309.568
309.569
309.571
309.572
309.573
309.575
309.577
309.579
309.582
309.585
309.589
309.595
309.6
309.607
309.612
309.616
309.617
309.617
309.583
309.583
309.581
309.578
309.572
309.565
309.558
309.553
309.55
309.548
309.545
309.542
309.539
309.537
309.534
309.532
309.529
309.526
309.523
309.521
309.519
309.519
309.518
309.518
309.519
309.52
309.522
309.525
309.528
309.532
309.535
309.537
309.577
309.577
309.576
309.573
309.567
309.561
309.554
309.548
309.544
309.54
309.537
309.534
309.53
309.527
309.524
309.52
309.516
309.512
309.51
309.508
309.507
309.507
309.507
309.508
309.509
309.51
309.511
309.512
309.513
309.514
309.515
309.515
309.572
309.572
309.571
309.569
309.565
309.558
309.551
309.545
309.539
309.535
309.531
309.528
309.524
309.521
309.518
309.515
309.512
309.509
309.506
309.504
309.503
309.503
309.504
309.505
309.507
309.509
309.51
309.511
309.512
309.512
309.512
309.512
309.569
309.569
309.568
309.566
309.563
309.557
309.55
309.543
309.537
309.531
309.527
309.523
309.519
309.515
309.512
309.51
309.509
309.506
309.504
309.502
309.5
309.5
309.501
309.503
309.505
309.508
309.51
309.511
309.512
309.512
309.512
309.512
309.566
309.566
309.566
309.564
309.561
309.556
309.549
309.542
309.535
309.529
309.524
309.519
309.514
309.51
309.507
309.505
309.504
309.503
309.501
309.5
309.499
309.498
309.499
309.501
309.504
309.507
309.509
309.511
309.512
309.513
309.513
309.513
309.563
309.564
309.563
309.562
309.559
309.555
309.548
309.541
309.534
309.528
309.522
309.517
309.512
309.508
309.504
309.502
309.501
309.5
309.499
309.498
309.498
309.498
309.499
309.5
309.503
309.506
309.509
309.511
309.513
309.513
309.513
309.513
309.561
309.561
309.561
309.56
309.558
309.554
309.548
309.541
309.534
309.528
309.522
309.517
309.512
309.507
309.503
309.501
309.5
309.499
309.498
309.498
309.498
309.498
309.499
309.501
309.503
309.506
309.509
309.511
309.513
309.514
309.514
309.514
309.56
309.56
309.56
309.559
309.556
309.553
309.547
309.541
309.535
309.529
309.523
309.518
309.513
309.509
309.506
309.503
309.501
309.5
309.5
309.5
309.5
309.5
309.501
309.503
309.505
309.507
309.509
309.511
309.513
309.514
309.514
309.514
309.558
309.558
309.558
309.557
309.555
309.552
309.547
309.542
309.536
309.531
309.526
309.521
309.517
309.513
309.51
309.507
309.505
309.504
309.504
309.504
309.504
309.504
309.505
309.506
309.507
309.509
309.51
309.512
309.513
309.514
309.515
309.515
309.557
309.557
309.557
309.556
309.554
309.551
309.547
309.543
309.538
309.534
309.53
309.526
309.522
309.519
309.516
309.513
309.511
309.51
309.509
309.509
309.508
309.508
309.509
309.509
309.51
309.511
309.512
309.513
309.514
309.515
309.515
309.515
309.556
309.556
309.556
309.555
309.554
309.551
309.548
309.544
309.541
309.538
309.534
309.531
309.528
309.525
309.523
309.52
309.518
309.516
309.515
309.514
309.513
309.513
309.513
309.513
309.513
309.513
309.513
309.514
309.515
309.515
309.515
309.515
309.556
309.556
309.555
309.555
309.553
309.552
309.549
309.547
309.544
309.542
309.539
309.537
309.534
309.531
309.529
309.526
309.523
309.521
309.52
309.518
309.517
309.517
309.516
309.516
309.515
309.515
309.515
309.515
309.515
309.516
309.516
309.516
309.556
309.555
309.555
309.555
309.554
309.553
309.551
309.55
309.548
309.546
309.544
309.541
309.539
309.536
309.533
309.53
309.527
309.525
309.523
309.521
309.52
309.519
309.518
309.518
309.517
309.517
309.517
309.516
309.516
309.516
309.516
309.516
309.555
309.555
309.555
309.555
309.554
309.554
309.553
309.551
309.55
309.548
309.546
309.544
309.541
309.538
309.535
309.532
309.529
309.526
309.524
309.523
309.522
309.52
309.52
309.519
309.518
309.518
309.517
309.517
309.517
309.516
309.516
309.516
)
;

boundaryField
{
    movingWall
    {
        type            zeroGradient;
    }
    fixedWalls
    {
        type            zeroGradient;
    }
    floor
    {
        type            fixedValue;
        value           uniform 310;
    }
    frontAndBack
    {
        type            empty;
    }
}


// ************************************************************************* //
