/*--------------------------------*- C++ -*----------------------------------*\
| =========                 |                                                 |
| \\      /  F ield         | OpenFOAM: The Open Source CFD Toolbox           |
|  \\    /   O peration     | Version:  2212                                  |
|   \\  /    A nd           | Website:  www.openfoam.com                      |
|    \\/     M anipulation  |                                                 |
\*---------------------------------------------------------------------------*/
FoamFile
{
    version     2.0;
    format      ascii;
    arch        "LSB;label=64;scalar=64";
    class       volVectorField;
    location    "680";
    object      U;
}
// * * * * * * * * * * * * * * * * * * * * * * * * * * * * * * * * * * * * * //

dimensions      [0 1 -1 0 0 0 0];

internalField   nonuniform List<vector> 
1024
(
(8.77838e-06 -1.10516e-05 0)
(-0.000192175 4.9594e-05 0)
(-0.000686316 9.13136e-05 0)
(-0.00136633 9.65596e-05 0)
(-0.00209236 8.81377e-05 0)
(-0.00278779 7.78642e-05 0)
(-0.00340185 6.54e-05 0)
(-0.0038485 4.60392e-05 0)
(-0.00395523 1.1342e-05 0)
(-0.00341615 -4.82126e-05 0)
(-0.0020244 -9.79623e-05 0)
(0.000328147 -0.000101332 0)
(0.00238027 -6.80344e-05 0)
(0.00386433 -3.10397e-05 0)
(0.00465279 -5.59287e-06 0)
(0.00481404 8.39901e-06 0)
(0.00453399 1.48586e-05 0)
(0.00406047 1.7167e-05 0)
(0.00355021 1.81958e-05 0)
(0.00305177 1.87381e-05 0)
(0.0025822 1.90038e-05 0)
(0.00215084 1.87391e-05 0)
(0.00176655 1.76724e-05 0)
(0.00143692 1.56589e-05 0)
(0.00116324 1.32374e-05 0)
(0.000933425 1.21215e-05 0)
(0.000722827 1.41096e-05 0)
(0.000509072 1.90482e-05 0)
(0.000294249 2.25236e-05 0)
(0.000112961 1.75666e-05 0)
(8.00319e-06 2.00415e-06 0)
(-1.12672e-05 -1.13223e-05 0)
(-6.76679e-05 0.000203998 0)
(-0.00078918 0.000692068 0)
(-0.00214388 0.000985294 0)
(-0.00389068 0.00101245 0)
(-0.0057061 0.000890524 0)
(-0.00737698 0.000713774 0)
(-0.00873531 0.00050405 0)
(-0.00955798 0.000242346 0)
(-0.00948906 -0.000113917 0)
(-0.00794811 -0.000572186 0)
(-0.0046331 -0.000990451 0)
(0.00107991 -0.00103378 0)
(0.00602308 -0.000720759 0)
(0.00982467 -0.000399442 0)
(0.0121246 -0.000147397 0)
(0.0129224 1.69617e-05 0)
(0.0125281 0.000107403 0)
(0.0115213 0.000153848 0)
(0.0103036 0.000182108 0)
(0.0090386 0.000201894 0)
(0.00779652 0.000216922 0)
(0.0066168 0.000226388 0)
(0.00553085 0.000228336 0)
(0.00456341 0.000222327 0)
(0.0037224 0.00021359 0)
(0.00298619 0.000214796 0)
(0.00230768 0.000237068 0)
(0.00164659 0.000273733 0)
(0.00101302 0.000289587 0)
(0.000480116 0.000240645 0)
(0.000137156 0.00012235 0)
(2.51579e-06 6.743e-06 0)
(-0.00015388 0.000866814 0)
(-0.00139006 0.00218603 0)
(-0.00345828 0.00282688 0)
(-0.0059876 0.00280353 0)
(-0.00852583 0.00239699 0)
(-0.0107611 0.00182831 0)
(-0.0124335 0.00117236 0)
(-0.0132395 0.000412074 0)
(-0.0127408 -0.000524576 0)
(-0.0103563 -0.00162703 0)
(-0.00589943 -0.00266051 0)
(0.00174882 -0.00278631 0)
(0.00840846 -0.00199147 0)
(0.0139189 -0.00118829 0)
(0.0176711 -0.000524326 0)
(0.0194608 -5.09599e-05 0)
(0.019409 0.000228901 0)
(0.0183129 0.000385745 0)
(0.0167456 0.000489671 0)
(0.0149859 0.000566909 0)
(0.0131707 0.000628968 0)
(0.0113794 0.000675573 0)
(0.009671 0.000702615 0)
(0.00809031 0.000709618 0)
(0.00665806 0.000709257 0)
(0.00535951 0.000730026 0)
(0.00415099 0.000795434 0)
(0.00299504 0.000886492 0)
(0.00190803 0.000920163 0)
(0.000980565 0.000794906 0)
(0.000338417 0.000491406 0)
(2.62835e-05 0.000133014 0)
(-0.000202604 0.00199717 0)
(-0.00174889 0.00455972 0)
(-0.00424125 0.00560578 0)
(-0.00720228 0.00540854 0)
(-0.0100867 0.00450719 0)
(-0.0125186 0.00329681 0)
(-0.0141882 0.00193718 0)
(-0.0147679 0.000435582 0)
(-0.0138068 -0.00128689 0)
(-0.0109033 -0.00318796 0)
(-0.00599098 -0.00497255 0)
(0.00218162 -0.00521066 0)
(0.0094648 -0.00384478 0)
(0.0159761 -0.00244585 0)
(0.0208948 -0.00122967 0)
(0.0238214 -0.000291796 0)
(0.0245201 0.000304794 0)
(0.0237693 0.000659056 0)
(0.0222569 0.000906018 0)
(0.0203509 0.00109818 0)
(0.0182493 0.00125932 0)
(0.0160713 0.00139176 0)
(0.0139031 0.00148981 0)
(0.01181 0.00155334 0)
(0.0098303 0.00160287 0)
(0.00796986 0.00168238 0)
(0.00620852 0.00182751 0)
(0.00452722 0.00200483 0)
(0.00294966 0.00207344 0)
(0.00157765 0.00184811 0)
(0.000581599 0.001255 0)
(5.38968e-05 0.000435168 0)
(-0.000193982 0.00343771 0)
(-0.00174407 0.0075547 0)
(-0.00428492 0.00907566 0)
(-0.00731162 0.00861071 0)
(-0.0102264 0.00703086 0)
(-0.0126079 0.00496106 0)
(-0.0141252 0.00268735 0)
(-0.0144645 0.00027146 0)
(-0.013217 -0.00234655 0)
(-0.0101628 -0.00509966 0)
(-0.0052756 -0.00764028 0)
(0.002432 -0.00798861 0)
(0.00954689 -0.00610394 0)
(0.0163585 -0.00410193 0)
(0.0219296 -0.00228301 0)
(0.0257916 -0.000788166 0)
(0.0274213 0.000238635 0)
(0.0273099 0.000881076 0)
(0.0261913 0.00134565 0)
(0.0244791 0.00172172 0)
(0.0224079 0.00204976 0)
(0.0201224 0.00233735 0)
(0.0177273 0.00257879 0)
(0.0153032 0.00277462 0)
(0.0129063 0.0029512 0)
(0.0105681 0.00316245 0)
(0.00830055 0.00345159 0)
(0.00611326 0.00377019 0)
(0.00404501 0.00391359 0)
(0.00221402 0.00357892 0)
(0.000843283 0.00257031 0)
(8.40114e-05 0.000987367 0)
(-0.000136248 0.00490707 0)
(-0.00140736 0.0107331 0)
(-0.00364444 0.0128709 0)
(-0.00641885 0.0121617 0)
(-0.00913588 0.00981227 0)
(-0.0113412 0.00673637 0)
(-0.0126922 0.00340305 0)
(-0.0128974 -3.47257e-05 0)
(-0.0116292 -0.00359365 0)
(-0.00869264 -0.00722981 0)
(-0.00408465 -0.0104641 0)
(0.00267963 -0.010886 0)
(0.00918292 -0.00860467 0)
(0.0157378 -0.00604166 0)
(0.0213887 -0.00362899 0)
(0.0257111 -0.0015556 0)
(0.0280986 -3.83836e-05 0)
(0.028685 0.000966743 0)
(0.0281299 0.00171541 0)
(0.026842 0.00234266 0)
(0.0250586 0.00291042 0)
(0.0229262 0.00343456 0)
(0.0205512 0.00391144 0)
(0.0180196 0.00434255 0)
(0.0154 0.00475676 0)
(0.0127458 0.00521065 0)
(0.0100992 0.00574711 0)
(0.00750074 0.00629784 0)
(0.00501324 0.00658387 0)
(0.0027803 0.00614355 0)
(0.00107769 0.00457583 0)
(0.000111621 0.00185815 0)
(-5.79965e-05 0.00609615 0)
(-0.000875646 0.0135729 0)
(-0.00254961 0.0165368 0)
(-0.00482769 0.0157753 0)
(-0.00719364 0.0127187 0)
(-0.00917934 0.00860058 0)
(-0.0104231 0.00413884 0)
(-0.0106343 -0.000376285 0)
(-0.00950942 -0.00492473 0)
(-0.00681751 -0.00950521 0)
(-0.00258923 -0.0133388 0)
(0.00305567 -0.0137703 0)
(0.00876534 -0.011222 0)
(0.0147034 -0.0081455 0)
(0.0199893 -0.00516563 0)
(0.0242702 -0.00253329 0)
(0.0269639 -0.000527714 0)
(0.0280812 0.00087352 0)
(0.0280535 0.00194816 0)
(0.0272518 0.00287674 0)
(0.0258852 0.00374701 0)
(0.0240768 0.00458687 0)
(0.0219164 0.00539687 0)
(0.0194819 0.00617928 0)
(0.016845 0.00696185 0)
(0.0140723 0.00779693 0)
(0.011228 0.00871728 0)
(0.0083802 0.00962208 0)
(0.00562117 0.0101363 0)
(0.00312671 0.0095937 0)
(0.00121568 0.00731081 0)
(0.000126838 0.00306616 0)
(1.23485e-05 0.0067641 0)
(-0.000306279 0.015568 0)
(-0.00126654 0.0195599 0)
(-0.00286072 0.0191077 0)
(-0.00474702 0.0156063 0)
(-0.00648148 0.0105568 0)
(-0.00766651 0.00497766 0)
(-0.00797284 -0.000651403 0)
(-0.00703342 -0.00628087 0)
(-0.00462382 -0.0118888 0)
(-0.000845597 -0.0161767 0)
(0.00360125 -0.0165528 0)
(0.00845128 -0.0138463 0)
(0.0135555 -0.0103025 0)
(0.0182052 -0.00678556 0)
(0.0221001 -0.00362342 0)
(0.0247003 -0.0011565 0)
(0.0260254 0.000624356 0)
(0.026322 0.002031 0)
(0.0259075 0.00328077 0)
(0.0249442 0.00449176 0)
(0.0235131 0.00570866 0)
(0.0216711 0.00693843 0)
(0.0194752 0.00818351 0)
(0.0169888 0.00946664 0)
(0.0142814 0.0108295 0)
(0.0114298 0.0122827 0)
(0.00852409 0.013671 0)
(0.00568835 0.0144871 0)
(0.00313288 0.0138132 0)
(0.00119972 0.010641 0)
(0.000120903 0.00453252 0)
(5.7703e-05 0.00680158 0)
(0.000169128 0.0162997 0)
(-3.93545e-05 0.0213794 0)
(-0.000788865 0.0217076 0)
(-0.00202032 0.0182404 0)
(-0.0034071 0.0125509 0)
(-0.00450981 0.00595391 0)
(-0.00492318 -0.000822277 0)
(-0.00416639 -0.00763194 0)
(-0.00207037 -0.0143067 0)
(0.00103265 -0.0188296 0)
(0.00437369 -0.019145 0)
(0.00823716 -0.0163449 0)
(0.0123504 -0.0123953 0)
(0.0161968 -0.00839191 0)
(0.0195251 -0.00473943 0)
(0.0218179 -0.0018386 0)
(0.0230702 0.000292349 0)
(0.0234497 0.00200912 0)
(0.0232441 0.0035668 0)
(0.0225777 0.00512357 0)
(0.021485 0.00674852 0)
(0.0199811 0.00845843 0)
(0.0180933 0.0102556 0)
(0.015867 0.012154 0)
(0.0133651 0.0141776 0)
(0.0106685 0.0162984 0)
(0.00788581 0.018273 0)
(0.00517359 0.0194113 0)
(0.00277371 0.0185051 0)
(0.00102118 0.0142461 0)
(9.35536e-05 0.00607394 0)
(8.1105e-05 0.00624232 0)
(0.000488436 0.0156593 0)
(0.000897556 0.0214451 0)
(0.00102015 0.0228617 0)
(0.000680899 0.020232 0)
(-6.82808e-05 0.0145487 0)
(-0.000905023 0.00714716 0)
(-0.00136178 -0.000789862 0)
(-0.000808486 -0.00888151 0)
(0.000873167 -0.0165606 0)
(0.00298736 -0.0210225 0)
(0.00530385 -0.0213909 0)
(0.00803467 -0.0185304 0)
(0.0110137 -0.0142717 0)
(0.0139245 -0.00988203 0)
(0.0165888 -0.00581523 0)
(0.0185118 -0.00250677 0)
(0.0195385 -4.17674e-05 0)
(0.0198544 0.00195438 0)
(0.0197107 0.00378355 0)
(0.0192269 0.00566034 0)
(0.0184015 0.00768997 0)
(0.01721 0.00990548 0)
(0.0156474 0.0123103 0)
(0.0137363 0.0149071 0)
(0.0115269 0.0176925 0)
(0.00910083 0.020576 0)
(0.00658514 0.0231769 0)
(0.0041707 0.0245612 0)
(0.00212069 0.0232212 0)
(0.000722407 0.0176728 0)
(5.32312e-05 0.00744732 0)
(8.16698e-05 0.00519069 0)
(0.000632145 0.0137007 0)
(0.00143689 0.0196546 0)
(0.00222829 0.0219585 0)
(0.00273666 0.020381 0)
(0.00284875 0.0154958 0)
(0.0026702 0.00829337 0)
(0.00253181 -0.00042636 0)
(0.00290153 -0.00984246 0)
(0.00386208 -0.0178738 0)
(0.00499862 -0.0225774 0)
(0.00622134 -0.0230303 0)
(0.00767748 -0.0201473 0)
(0.00939231 -0.015727 0)
(0.0112552 -0.0111253 0)
(0.0131841 -0.00678906 0)
(0.0147427 -0.00312577 0)
(0.0155569 -0.000328065 0)
(0.0157748 0.00191863 0)
(0.0156361 0.00397273 0)
(0.0152785 0.00612379 0)
(0.0146739 0.00852713 0)
(0.0137641 0.0112419 0)
(0.0125156 0.014277 0)
(0.01093 0.0176203 0)
(0.00904742 0.0212271 0)
(0.00695546 0.0249061 0)
(0.00480799 0.0280711 0)
(0.00283252 0.029486 0)
(0.00129024 0.0274044 0)
(0.000367763 0.0204131 0)
(1.10074e-05 0.00841481 0)
(6.45343e-05 0.00389805 0)
(0.0006003 0.0108492 0)
(0.0015287 0.0163468 0)
(0.00265867 0.0191476 0)
(0.00371621 0.018561 0)
(0.00451402 0.0146691 0)
(0.0050407 0.0080681 0)
(0.00554337 -0.000582403 0)
(0.005961 -0.0102649 0)
(0.0064292 -0.0185574 0)
(0.00670694 -0.0232847 0)
(0.006755 -0.0237263 0)
(0.00685262 -0.0208867 0)
(0.00723512 -0.0165177 0)
(0.00799318 -0.0119634 0)
(0.00913661 -0.00758849 0)
(0.0103458 -0.00368871 0)
(0.0110763 -0.000572602 0)
(0.0112675 0.00189507 0)
(0.0111796 0.00412091 0)
(0.0109756 0.006494 0)
(0.0105928 0.00922992 0)
(0.00994408 0.0124258 0)
(0.0089746 0.0161013 0)
(0.00767839 0.0202157 0)
(0.00610604 0.0246548 0)
(0.0043738 0.0290654 0)
(0.00268023 0.0325718 0)
(0.00128627 0.0336161 0)
(0.000396238 0.0304068 0)
(2.59389e-05 0.0219619 0)
(-2.01871e-05 0.00877976 0)
(3.93745e-05 0.00267703 0)
(0.000442278 0.00781641 0)
(0.0012388 0.012335 0)
(0.0023477 0.0151106 0)
(0.00356533 0.0151927 0)
(0.00471131 0.012214 0)
(0.00573635 0.00635655 0)
(0.00672861 -0.00190843 0)
(0.00746056 -0.0110992 0)
(0.00773248 -0.0187637 0)
(0.00730725 -0.0229657 0)
(0.00624328 -0.0231736 0)
(0.00505025 -0.0204576 0)
(0.00416735 -0.0164122 0)
(0.00387671 -0.0122405 0)
(0.0042272 -0.00813291 0)
(0.00507216 -0.00420143 0)
(0.00584109 -0.000779352 0)
(0.0062396 0.00184409 0)
(0.00632358 0.00415155 0)
(0.00634493 0.00669205 0)
(0.00618777 0.00972339 0)
(0.00575367 0.0133835 0)
(0.00496973 0.0177136 0)
(0.00385756 0.0226247 0)
(0.0025538 0.0278602 0)
(0.00126232 0.0327751 0)
(0.000219296 0.0361079 0)
(-0.000362793 0.0360778 0)
(-0.00046662 0.0314093 0)
(-0.000283672 0.0219002 0)
(-5.00671e-05 0.00846532 0)
(1.73611e-05 0.00179167 0)
(0.00025011 0.00536159 0)
(0.000773682 0.00869388 0)
(0.00160351 0.0109495 0)
(0.00265404 0.0111676 0)
(0.00382262 0.00868476 0)
(0.00507864 0.00336307 0)
(0.0062584 -0.00431914 0)
(0.0070598 -0.0122823 0)
(0.00702937 -0.0184259 0)
(0.00593671 -0.0214398 0)
(0.00387743 -0.021132 0)
(0.00163335 -0.0186627 0)
(-0.000276609 -0.0152487 0)
(-0.00141603 -0.0118216 0)
(-0.00180298 -0.00834514 0)
(-0.00140896 -0.00476407 0)
(-0.000641915 -0.0013722 0)
(0.000369301 0.00138072 0)
(0.000614062 0.00375613 0)
(0.000809859 0.00645768 0)
(0.000701003 0.00985952 0)
(0.000300716 0.0141746 0)
(-0.000381728 0.0194824 0)
(-0.00119197 0.0251661 0)
(-0.00191858 0.030693 0)
(-0.00235504 0.0351235 0)
(-0.00236387 0.0371902 0)
(-0.00194173 0.035601 0)
(-0.00124688 0.029702 0)
(-0.00054694 0.0198652 0)
(-7.19228e-05 0.00733985 0)
(4.82607e-06 0.0013104 0)
(9.99487e-05 0.00385611 0)
(0.000350805 0.00616654 0)
(0.000814724 0.00762744 0)
(0.00150888 0.00741507 0)
(0.00242161 0.00480951 0)
(0.00346823 -0.000348592 0)
(0.00433985 -0.00686178 0)
(0.00462644 -0.012877 0)
(0.00386648 -0.0168358 0)
(0.00194383 -0.0182443 0)
(-0.0010915 -0.0173341 0)
(-0.00399429 -0.0154093 0)
(-0.00646227 -0.0131617 0)
(-0.00829638 -0.0107063 0)
(-0.00940203 -0.0080352 0)
(-0.00964852 -0.00512978 0)
(-0.00911587 -0.00218352 0)
(-0.00819541 0.000647623 0)
(-0.00796672 0.00343862 0)
(-0.00779214 0.00663722 0)
(-0.00774992 0.0106336 0)
(-0.00775746 0.015472 0)
(-0.00769296 0.0209031 0)
(-0.00744418 0.0263283 0)
(-0.00689789 0.0310038 0)
(-0.00598748 0.033986 0)
(-0.00473547 0.0342831 0)
(-0.00327655 0.0311748 0)
(-0.00184422 0.0246526 0)
(-0.000718652 0.0155938 0)
(-7.81515e-05 0.00540796 0)
(-4.15485e-06 0.00118955 0)
(-2.28403e-05 0.00334154 0)
(-2.24824e-05 0.00508227 0)
(5.32077e-05 0.00588171 0)
(0.000267047 0.00507145 0)
(0.000631772 0.00217843 0)
(0.000955434 -0.0024574 0)
(0.0008849 -0.00734241 0)
(-8.69393e-05 -0.0111723 0)
(-0.00219843 -0.0127786 0)
(-0.00516894 -0.0128118 0)
(-0.00850315 -0.0121962 0)
(-0.0117851 -0.0112986 0)
(-0.0148048 -0.0101355 0)
(-0.0174113 -0.00870375 0)
(-0.0194485 -0.00698541 0)
(-0.0207417 -0.00488892 0)
(-0.0211992 -0.00246627 0)
(-0.0210541 0.00016142 0)
(-0.0206177 0.00301189 0)
(-0.0198475 0.00619318 0)
(-0.0187447 0.00995476 0)
(-0.0172972 0.014239 0)
(-0.0155071 0.0187179 0)
(-0.0134166 0.0228196 0)
(-0.0110954 0.0258291 0)
(-0.00864215 0.0269811 0)
(-0.00619069 0.0256688 0)
(-0.00391577 0.0217446 0)
(-0.00202628 0.0157886 0)
(-0.000724173 0.00902903 0)
(-7.09604e-05 0.00275082 0)
(-1.66388e-05 0.00149911 0)
(-0.000186291 0.00405094 0)
(-0.000502144 0.00587517 0)
(-0.000934165 0.00640839 0)
(-0.0014434 0.00521019 0)
(-0.00211618 0.00234204 0)
(-0.00319621 -0.00126084 0)
(-0.00491695 -0.00416587 0)
(-0.00751532 -0.00555318 0)
(-0.010723 -0.00594491 0)
(-0.0142179 -0.00606696 0)
(-0.0178277 -0.00612972 0)
(-0.0214373 -0.00609581 0)
(-0.0249529 -0.00586096 0)
(-0.0282639 -0.00533186 0)
(-0.0311947 -0.00443724 0)
(-0.0334628 -0.00310641 0)
(-0.0346074 -0.00145977 0)
(-0.0345381 0.000305538 0)
(-0.033344 0.00224233 0)
(-0.0314259 0.00439346 0)
(-0.0286475 0.00682198 0)
(-0.0251325 0.00945911 0)
(-0.02107 0.0120745 0)
(-0.0167323 0.0142812 0)
(-0.0124413 0.0155869 0)
(-0.00851457 0.0154953 0)
(-0.00521906 0.0137106 0)
(-0.00273803 0.0104273 0)
(-0.00113041 0.00647923 0)
(-0.000298597 0.002974 0)
(-9.40226e-06 0.00061745 0)
(-4.13181e-05 0.00259107 0)
(-0.000361689 0.00677221 0)
(-0.000979067 0.00971943 0)
(-0.00190411 0.0109863 0)
(-0.00314515 0.0105101 0)
(-0.00480374 0.00881406 0)
(-0.00703898 0.00679899 0)
(-0.00987056 0.00503034 0)
(-0.0130976 0.00343718 0)
(-0.0165442 0.0019796 0)
(-0.0201066 0.000685392 0)
(-0.0237072 -0.000439294 0)
(-0.0272892 -0.0013385 0)
(-0.030788 -0.00194115 0)
(-0.0341262 -0.00219611 0)
(-0.0372362 -0.00214178 0)
(-0.0398448 -0.00184455 0)
(-0.0413615 -0.00153699 0)
(-0.0415794 -0.00144689 0)
(-0.0405464 -0.00159601 0)
(-0.0382971 -0.00190449 0)
(-0.0349309 -0.00232695 0)
(-0.0305454 -0.00273419 0)
(-0.0253813 -0.00296604 0)
(-0.0198035 -0.00285846 0)
(-0.0142613 -0.00228362 0)
(-0.00922033 -0.00122163 0)
(-0.005097 0.000138382 0)
(-0.00219967 0.00134201 0)
(-0.000602441 0.00187087 0)
(-1.66474e-05 0.00157506 0)
(3.92489e-05 0.000680181 0)
(-1.79472e-05 0.00361331 0)
(-0.000231887 0.0093562 0)
(-0.00069398 0.0135146 0)
(-0.00145699 0.0157068 0)
(-0.00253778 0.0159504 0)
(-0.00394684 0.0147794 0)
(-0.00567256 0.0129997 0)
(-0.00767118 0.0111892 0)
(-0.00991477 0.00950566 0)
(-0.0124161 0.00791171 0)
(-0.0151794 0.00635033 0)
(-0.0181881 0.00481892 0)
(-0.0214154 0.00337915 0)
(-0.0248107 0.00212366 0)
(-0.0282868 0.00114227 0)
(-0.0315881 0.000522871 0)
(-0.0344695 0.000124502 0)
(-0.036402 -0.00040914 0)
(-0.0371341 -0.00137619 0)
(-0.0369012 -0.00296123 0)
(-0.0357579 -0.00522018 0)
(-0.0336949 -0.00804056 0)
(-0.0307403 -0.0112067 0)
(-0.0269833 -0.0143455 0)
(-0.0225935 -0.0169249 0)
(-0.0178246 -0.0183003 0)
(-0.0130005 -0.0178318 0)
(-0.00848971 -0.0151266 0)
(-0.00468732 -0.0104384 0)
(-0.00197248 -0.00509933 0)
(-0.000509258 -0.00111425 0)
(-1.5937e-05 0.000385581 0)
(5.5477e-07 0.00399928 0)
(-6.80139e-05 0.0105453 0)
(-0.000284203 0.0155577 0)
(-0.000731998 0.0185603 0)
(-0.00146424 0.0194442 0)
(-0.00248233 0.0186384 0)
(-0.00372897 0.0169266 0)
(-0.00511762 0.014984 0)
(-0.00659361 0.0131018 0)
(-0.0081535 0.0113015 0)
(-0.00981134 0.00954137 0)
(-0.0115779 0.00782677 0)
(-0.0134658 0.00621582 0)
(-0.0155044 0.00478349 0)
(-0.0177514 0.00359718 0)
(-0.020234 0.0026864 0)
(-0.0228416 0.00189445 0)
(-0.0250602 0.00081097 0)
(-0.0266161 -0.000833414 0)
(-0.0271492 -0.00308473 0)
(-0.027225 -0.00612612 0)
(-0.026801 -0.0100417 0)
(-0.0257992 -0.0147093 0)
(-0.0241381 -0.0197766 0)
(-0.021761 -0.0246367 0)
(-0.0186776 -0.0284446 0)
(-0.0150047 -0.0301902 0)
(-0.0109782 -0.0289245 0)
(-0.0069659 -0.0241147 0)
(-0.00348713 -0.0163564 0)
(-0.0011235 -0.00796016 0)
(-7.50829e-05 -0.00172112 0)
(1.25144e-05 0.00399222 0)
(5.53213e-05 0.0107603 0)
(5.2965e-05 0.0162438 0)
(-8.73694e-05 0.0198906 0)
(-0.000455054 0.0213709 0)
(-0.00108074 0.0209245 0)
(-0.00190403 0.019263 0)
(-0.00280721 0.0171488 0)
(-0.00369545 0.0150254 0)
(-0.00453357 0.0130097 0)
(-0.00533071 0.011083 0)
(-0.00611274 0.00924202 0)
(-0.00690831 0.00753825 0)
(-0.00775539 0.00605267 0)
(-0.00872617 0.00486362 0)
(-0.009918 0.00400529 0)
(-0.0113397 0.00329643 0)
(-0.0126946 0.00223474 0)
(-0.0139194 0.0004075 0)
(-0.0153558 -0.00218044 0)
(-0.0162789 -0.00545941 0)
(-0.0172017 -0.00972098 0)
(-0.0179117 -0.0150652 0)
(-0.01822 -0.0212996 0)
(-0.0178927 -0.0279225 0)
(-0.0167161 -0.0340801 0)
(-0.0146031 -0.0385282 0)
(-0.0116283 -0.0398627 0)
(-0.00806569 -0.0366839 0)
(-0.00445251 -0.0283673 0)
(-0.00159418 -0.0164016 0)
(-0.000129274 -0.00467855 0)
(1.91255e-05 0.00378516 0)
(0.000134316 0.0104391 0)
(0.000283719 0.0160949 0)
(0.000385399 0.0201358 0)
(0.000339688 0.0221242 0)
(8.83738e-05 0.0220764 0)
(-0.000340414 0.0205085 0)
(-0.000820015 0.0182417 0)
(-0.00122486 0.015867 0)
(-0.00149189 0.0136251 0)
(-0.00162638 0.0115451 0)
(-0.00167278 0.00961589 0)
(-0.00168272 0.00786709 0)
(-0.00169962 0.00636867 0)
(-0.00176821 0.00519853 0)
(-0.0019451 0.00438461 0)
(-0.0022762 0.00374569 0)
(-0.00264248 0.002837 0)
(-0.00300182 0.00135847 0)
(-0.00414968 -0.000930567 0)
(-0.00542683 -0.0039805 0)
(-0.00706355 -0.00794216 0)
(-0.00886398 -0.0132092 0)
(-0.0106395 -0.0197982 0)
(-0.0120704 -0.0274165 0)
(-0.0127686 -0.0353996 0)
(-0.012439 -0.0424032 0)
(-0.0109411 -0.0467864 0)
(-0.00834582 -0.0463907 0)
(-0.00508175 -0.0392483 0)
(-0.00202397 -0.0252173 0)
(-0.000192745 -0.00812494 0)
(2.02881e-05 0.00350294 0)
(0.000167676 0.00986727 0)
(0.000402908 0.015504 0)
(0.000664336 0.0197552 0)
(0.000864555 0.0220814 0)
(0.000946393 0.0223447 0)
(0.000920328 0.0209273 0)
(0.000880573 0.0185821 0)
(0.000947872 0.0159953 0)
(0.00119393 0.0135462 0)
(0.00161198 0.0113423 0)
(0.00213974 0.00937747 0)
(0.00270035 0.00765091 0)
(0.00323596 0.00619824 0)
(0.00371905 0.00507381 0)
(0.00416348 0.00428261 0)
(0.00455007 0.00364714 0)
(0.00484061 0.00279143 0)
(0.00492859 0.00157005 0)
(0.00448641 -0.00023312 0)
(0.00336716 -0.00264883 0)
(0.00177083 -0.0058566 0)
(-0.000341573 -0.0106055 0)
(-0.002814 -0.0168975 0)
(-0.00533917 -0.0246249 0)
(-0.00755821 -0.0336293 0)
(-0.00896692 -0.042538 0)
(-0.00917162 -0.0498101 0)
(-0.00792232 -0.0527433 0)
(-0.00540951 -0.0481187 0)
(-0.00243512 -0.0337112 0)
(-0.000268827 -0.0118954 0)
(1.50998e-05 0.00324479 0)
(0.000143574 0.00928503 0)
(0.000381876 0.0147901 0)
(0.000711102 0.0190837 0)
(0.00108419 0.0215613 0)
(0.00146686 0.0219868 0)
(0.00186446 0.0206541 0)
(0.00232997 0.0182716 0)
(0.00293172 0.0155679 0)
(0.0037053 0.0130058 0)
(0.00462937 0.010754 0)
(0.00563587 0.00881869 0)
(0.00664112 0.0071724 0)
(0.00758262 0.00581154 0)
(0.00844299 0.00475563 0)
(0.00928487 0.0039842 0)
(0.0101139 0.00335099 0)
(0.0107833 0.00258293 0)
(0.0110748 0.00155101 0)
(0.0109005 9.25099e-05 0)
(0.00996369 -0.00190351 0)
(0.00856546 -0.00464717 0)
(0.00670467 -0.00851636 0)
(0.00433611 -0.0137829 0)
(0.00158756 -0.0207093 0)
(-0.00159288 -0.0299716 0)
(-0.00444483 -0.0398386 0)
(-0.006412 -0.0493969 0)
(-0.0068138 -0.055694 0)
(-0.00543804 -0.0545051 0)
(-0.00286274 -0.0413808 0)
(-0.000376007 -0.0159177 0)
(-2.10465e-06 0.00309533 0)
(2.22462e-05 0.00889918 0)
(0.00014672 0.014216 0)
(0.000441819 0.0183734 0)
(0.000936003 0.0207695 0)
(0.00162535 0.0211579 0)
(0.00250427 0.0198043 0)
(0.0035653 0.0174011 0)
(0.00478682 0.0146782 0)
(0.0061357 0.0121179 0)
(0.00756637 0.00991181 0)
(0.0090179 0.00807083 0)
(0.0104237 0.00654838 0)
(0.0117367 0.00530916 0)
(0.0129531 0.00434103 0)
(0.0141593 0.00360236 0)
(0.0153474 0.00298865 0)
(0.0163096 0.00232622 0)
(0.0168162 0.00149341 0)
(0.0167938 0.00036989 0)
(0.016082 -0.00124214 0)
(0.0148623 -0.00357102 0)
(0.0131184 -0.00692776 0)
(0.0108349 -0.0115512 0)
(0.00806737 -0.017633 0)
(0.00476705 -0.0254208 0)
(0.00102606 -0.035091 0)
(-0.00257429 -0.0460854 0)
(-0.0048864 -0.0553716 0)
(-0.00507444 -0.058138 0)
(-0.00330544 -0.0478239 0)
(-0.00054222 -0.0202048 0)
(-4.34406e-05 0.0031877 0)
(-0.000271776 0.00896174 0)
(-0.0004207 0.0139915 0)
(-0.000268036 0.0177377 0)
(0.00034721 0.0198023 0)
(0.00142627 0.0199231 0)
(0.0028947 0.0184339 0)
(0.00466301 0.0160293 0)
(0.00659503 0.0133893 0)
(0.00858222 0.0109495 0)
(0.0105611 0.00888221 0)
(0.0124921 0.00719187 0)
(0.0143443 0.00582082 0)
(0.0161008 0.00471565 0)
(0.0177734 0.00384416 0)
(0.0194524 0.00315304 0)
(0.0210683 0.00257572 0)
(0.0223683 0.00201438 0)
(0.0231632 0.00135736 0)
(0.0233865 0.000487297 0)
(0.0229637 -0.000789394 0)
(0.0219704 -0.00269769 0)
(0.0203455 -0.00548904 0)
(0.0180344 -0.00940097 0)
(0.0150313 -0.0146559 0)
(0.011359 -0.0214739 0)
(0.00710268 -0.0299945 0)
(0.00249259 -0.04034 0)
(-0.00186808 -0.0519008 0)
(-0.00409292 -0.0587769 0)
(-0.00367379 -0.0526126 0)
(-0.00079468 -0.0247495 0)
(-0.000147744 0.00372495 0)
(-0.000892669 0.00975179 0)
(-0.0014782 0.0143033 0)
(-0.00147867 0.017239 0)
(-0.000676099 0.0185957 0)
(0.000972802 0.0182586 0)
(0.0032084 0.0165666 0)
(0.00582156 0.0142113 0)
(0.00856863 0.0117583 0)
(0.0112906 0.00954219 0)
(0.0139256 0.00768805 0)
(0.0164648 0.00618791 0)
(0.0189141 0.00498238 0)
(0.0212835 0.0040143 0)
(0.0235903 0.00324458 0)
(0.0259081 0.00261911 0)
(0.0280667 0.00209975 0)
(0.0297758 0.00163582 0)
(0.0309149 0.00112854 0)
(0.0314431 0.000465029 0)
(0.0313382 -0.000524069 0)
(0.0305716 -0.00202948 0)
(0.029046 -0.00424897 0)
(0.0266592 -0.00739461 0)
(0.0233517 -0.0116885 0)
(0.0191306 -0.0173748 0)
(0.0140981 -0.0247305 0)
(0.00848279 -0.0340916 0)
(0.00266363 -0.0454492 0)
(-0.0020877 -0.0561514 0)
(-0.00373266 -0.0552487 0)
(-0.00112879 -0.0294369 0)
(-0.000388854 0.00506769 0)
(-0.00204712 0.0115053 0)
(-0.00311087 0.0150911 0)
(-0.00309187 0.0167209 0)
(-0.00182669 0.017031 0)
(0.000690565 0.0160812 0)
(0.00395778 0.0141979 0)
(0.00759702 0.0119864 0)
(0.0113194 0.0098174 0)
(0.0149532 0.00790142 0)
(0.0184496 0.00631056 0)
(0.0218192 0.005028 0)
(0.0250834 0.00400144 0)
(0.0282557 0.00318045 0)
(0.0313404 0.0025278 0)
(0.0343803 0.00199611 0)
(0.0370979 0.00156379 0)
(0.0391937 0.00120171 0)
(0.0406355 0.000826375 0)
(0.0414223 0.000338178 0)
(0.0415626 -0.000395188 0)
(0.0409428 -0.00151492 0)
(0.0394502 -0.00316938 0)
(0.036951 -0.00552878 0)
(0.0333393 -0.00879118 0)
(0.0285713 -0.0132107 0)
(0.0227009 -0.0191468 0)
(0.0159145 -0.0271344 0)
(0.00860506 -0.0377387 0)
(0.00167139 -0.0499938 0)
(-0.00302937 -0.0551763 0)
(-0.00146112 -0.0340654 0)
(-0.000851975 0.00780363 0)
(-0.00379716 0.0142213 0)
(-0.00496689 0.015905 0)
(-0.00432646 0.0157442 0)
(-0.00198494 0.0148375 0)
(0.00196732 0.0132168 0)
(0.00654473 0.0113011 0)
(0.0114563 0.00935702 0)
(0.016387 0.00755494 0)
(0.0211693 0.00599645 0)
(0.0257496 0.00471237 0)
(0.0301253 0.00368321 0)
(0.0343029 0.00286766 0)
(0.03828 0.00222509 0)
(0.0420446 0.00172273 0)
(0.0456167 0.00132232 0)
(0.0486641 0.00100804 0)
(0.0509349 0.00075616 0)
(0.052488 0.000502577 0)
(0.0533633 0.000170338 0)
(0.0535672 -0.000328166 0)
(0.0529566 -0.00108528 0)
(0.0514175 -0.00220467 0)
(0.048803 -0.00380695 0)
(0.0449743 -0.00604524 0)
(0.0398252 -0.00914686 0)
(0.0333094 -0.0134903 0)
(0.0254886 -0.0197239 0)
(0.0166475 -0.028805 0)
(0.00753783 -0.0411417 0)
(-0.000716492 -0.0516163 0)
(-0.00149594 -0.0381302 0)
(-0.00163795 0.0128315 0)
(-0.00546117 0.0171658 0)
(-0.0051564 0.0156872 0)
(-0.00240434 0.0135598 0)
(0.00237449 0.0114989 0)
(0.00808324 0.00960707 0)
(0.014272 0.00788228 0)
(0.0206236 0.00633077 0)
(0.0268447 0.00497624 0)
(0.0327619 0.00384138 0)
(0.0382949 0.00292724 0)
(0.0434158 0.00221209 0)
(0.0481194 0.00166231 0)
(0.0524078 0.0012446 0)
(0.0562861 0.000930387 0)
(0.0597904 0.000690853 0)
(0.0626381 0.000510958 0)
(0.0646792 0.000369325 0)
(0.0660287 0.000225729 0)
(0.0667463 3.20893e-05 0)
(0.0668054 -0.00025533 0)
(0.0660919 -0.000691037 0)
(0.064493 -0.0013378 0)
(0.0618627 -0.00226691 0)
(0.0580498 -0.0035757 0)
(0.0529012 -0.00542952 0)
(0.0462547 -0.00814834 0)
(0.0379525 -0.0123648 0)
(0.0279538 -0.0192228 0)
(0.0165745 -0.0301425 0)
(0.00441628 -0.0434955 0)
(-0.00016829 -0.0396147 0)
(-0.00127993 0.0181505 0)
(-0.0031266 0.0180389 0)
(0.00330672 0.0126554 0)
(0.0107027 0.00949915 0)
(0.0183048 0.00726778 0)
(0.0258725 0.00555441 0)
(0.0333216 0.00423069 0)
(0.0404592 0.00318767 0)
(0.047088 0.00236036 0)
(0.0530827 0.00171654 0)
(0.0583948 0.00123148 0)
(0.0630361 0.000877142 0)
(0.0670538 0.000623668 0)
(0.0705105 0.000444566 0)
(0.0734716 0.000318643 0)
(0.0760154 0.000228778 0)
(0.0779945 0.00016395 0)
(0.0793567 0.000110815 0)
(0.0801987 5.25104e-05 0)
(0.0805653 -2.92603e-05 0)
(0.0803891 -0.000151068 0)
(0.07961 -0.000337642 0)
(0.0781188 -0.000617045 0)
(0.0757855 -0.00101983 0)
(0.0724734 -0.00159094 0)
(0.0680218 -0.00241864 0)
(0.0621964 -0.00370236 0)
(0.0546162 -0.00589902 0)
(0.0446873 -0.00998161 0)
(0.0316557 -0.0176517 0)
(0.0155109 -0.0297817 0)
(0.00631542 -0.0334513 0)
(0.0207609 0.0113009 0)
(0.0270582 0.00921497 0)
(0.04007 0.00537731 0)
(0.0507507 0.00327814 0)
(0.0589451 0.00206497 0)
(0.0656012 0.00129572 0)
(0.0711812 0.000808061 0)
(0.075861 0.00050058 0)
(0.0797357 0.000306107 0)
(0.0828916 0.000184311 0)
(0.085429 0.000110086 0)
(0.0874582 6.62595e-05 0)
(0.0890849 4.08522e-05 0)
(0.0903983 2.6146e-05 0)
(0.0914679 1.73896e-05 0)
(0.0923521 1.20353e-05 0)
(0.0930207 8.14748e-06 0)
(0.0934589 3.38065e-06 0)
(0.0936854 -3.77397e-06 0)
(0.0936965 -1.42933e-05 0)
(0.0934621 -3.1134e-05 0)
(0.0929366 -5.80271e-05 0)
(0.0920505 -9.92278e-05 0)
(0.090727 -0.000158887 0)
(0.0888865 -0.000243883 0)
(0.0864225 -0.000370452 0)
(0.0831363 -0.000581698 0)
(0.0785962 -0.000990246 0)
(0.0718461 -0.00187669 0)
(0.0608723 -0.003988 0)
(0.0432766 -0.00919276 0)
(0.0285908 -0.0145292 0)
)
;

boundaryField
{
    movingWall
    {
        type            fixedValue;
        value           uniform (0.1 0 0);
    }
    fixedWalls
    {
        type            noSlip;
    }
    floor
    {
        type            noSlip;
    }
    frontAndBack
    {
        type            empty;
    }
}


// ************************************************************************* //
