/*--------------------------------*- C++ -*----------------------------------*\
| =========                 |                                                 |
| \\      /  F ield         | OpenFOAM: The Open Source CFD Toolbox           |
|  \\    /   O peration     | Version:  2212                                  |
|   \\  /    A nd           | Website:  www.openfoam.com                      |
|    \\/     M anipulation  |                                                 |
\*---------------------------------------------------------------------------*/
FoamFile
{
    version     2.0;
    format      ascii;
    arch        "LSB;label=64;scalar=64";
    class       volScalarField;
    location    "420";
    object      T;
}
// * * * * * * * * * * * * * * * * * * * * * * * * * * * * * * * * * * * * * //

dimensions      [0 0 0 1 0 0 0];

internalField   nonuniform List<scalar> 
1024
(
309.983
309.982
309.98
309.978
309.974
309.97
309.967
309.963
309.959
309.954
309.95
309.945
309.941
309.938
309.937
309.941
309.947
309.951
309.954
309.959
309.963
309.967
309.97
309.972
309.972
309.972
309.973
309.975
309.977
309.979
309.98
309.98
309.946
309.944
309.939
309.93
309.919
309.907
309.895
309.882
309.87
309.857
309.842
309.828
309.816
309.808
309.805
309.817
309.834
309.845
309.856
309.87
309.885
309.897
309.906
309.911
309.913
309.914
309.917
309.922
309.928
309.934
309.937
309.938
309.906
309.903
309.893
309.878
309.857
309.835
309.813
309.791
309.769
309.746
309.721
309.699
309.681
309.668
309.664
309.682
309.709
309.728
309.747
309.771
309.796
309.818
309.835
309.844
309.847
309.849
309.854
309.863
309.875
309.884
309.89
309.891
309.864
309.859
309.845
309.82
309.79
309.757
309.724
309.692
309.66
309.628
309.596
309.569
309.547
309.532
309.527
309.548
309.582
309.607
309.631
309.663
309.699
309.731
309.756
309.77
309.776
309.779
309.786
309.8
309.817
309.832
309.84
309.843
309.822
309.815
309.795
309.762
309.72
309.676
309.633
309.592
309.552
309.514
309.48
309.452
309.431
309.417
309.411
309.431
309.465
309.492
309.519
309.556
309.599
309.64
309.672
309.691
309.699
309.704
309.715
309.734
309.757
309.777
309.789
309.792
309.781
309.773
309.747
309.705
309.653
309.599
309.547
309.499
309.456
309.417
309.386
309.363
309.345
309.334
309.329
309.343
309.371
309.395
309.421
309.457
309.504
309.551
309.587
309.609
309.62
309.628
309.642
309.667
309.697
309.723
309.738
309.742
309.742
309.733
309.704
309.655
309.594
309.532
309.475
309.424
309.381
309.347
309.323
309.305
309.292
309.283
309.28
309.288
309.306
309.324
309.345
309.377
309.421
309.467
309.504
309.527
309.539
309.55
309.57
309.601
309.638
309.67
309.687
309.692
309.706
309.696
309.665
309.612
309.546
309.48
309.42
309.37
309.331
309.304
309.286
309.274
309.264
309.258
309.255
309.258
309.268
309.279
309.293
309.317
309.354
309.394
309.426
309.446
309.459
309.475
309.501
309.539
309.583
309.619
309.639
309.644
309.672
309.663
309.633
309.578
309.51
309.442
309.382
309.335
309.302
309.282
309.269
309.259
309.251
309.246
309.243
309.245
309.249
309.254
309.262
309.276
309.301
309.331
309.355
309.371
309.385
309.406
309.438
309.484
309.533
309.573
309.594
309.599
309.641
309.633
309.605
309.552
309.484
309.416
309.359
309.316
309.288
309.271
309.261
309.252
309.245
309.24
309.238
309.239
309.241
309.242
309.245
309.251
309.264
309.281
309.296
309.309
309.324
309.349
309.388
309.439
309.491
309.532
309.552
309.557
309.612
309.606
309.581
309.532
309.466
309.4
309.345
309.306
309.282
309.267
309.257
309.248
309.24
309.236
309.235
309.236
309.237
309.238
309.238
309.238
309.242
309.248
309.256
309.266
309.282
309.31
309.352
309.406
309.459
309.497
309.516
309.52
309.585
309.58
309.558
309.514
309.454
309.391
309.338
309.302
309.279
309.264
309.253
309.243
309.236
309.233
309.233
309.235
309.236
309.237
309.237
309.235
309.234
309.234
309.237
309.245
309.261
309.29
309.334
309.387
309.436
309.47
309.485
309.489
309.56
309.556
309.537
309.499
309.443
309.384
309.334
309.299
309.277
309.262
309.249
309.238
309.232
309.23
309.232
309.234
309.236
309.238
309.24
309.241
309.24
309.236
309.236
309.243
309.26
309.291
309.335
309.383
309.423
309.448
309.459
309.462
309.536
309.532
309.517
309.483
309.433
309.378
309.331
309.297
309.274
309.257
309.243
309.233
309.228
309.227
309.229
309.231
309.235
309.24
309.245
309.251
309.255
309.258
309.259
309.268
309.287
309.316
309.351
309.386
309.414
309.431
309.438
309.439
309.513
309.51
309.497
309.468
309.423
309.372
309.326
309.293
309.268
309.25
309.235
309.226
309.222
309.222
309.223
309.225
309.229
309.235
309.244
309.255
309.268
309.283
309.297
309.311
309.326
309.346
309.368
309.389
309.405
309.415
309.419
309.419
309.491
309.489
309.477
309.452
309.411
309.364
309.32
309.285
309.259
309.238
309.224
309.216
309.212
309.211
309.209
309.208
309.208
309.212
309.219
309.23
309.243
309.259
309.277
309.296
309.318
309.34
309.361
309.378
309.388
309.393
309.394
309.394
309.475
309.472
309.462
309.439
309.402
309.357
309.313
309.277
309.247
309.223
309.206
309.195
309.188
309.183
309.178
309.174
309.171
309.173
309.178
309.185
309.192
309.2
309.208
309.216
309.224
309.233
309.244
309.258
309.276
309.292
309.304
309.308
309.464
309.462
309.453
309.434
309.4
309.357
309.314
309.276
309.244
309.217
309.197
309.181
309.17
309.161
309.153
309.149
309.15
309.156
309.165
309.173
309.182
309.19
309.197
309.203
309.207
309.208
309.208
309.207
309.204
309.201
309.2
309.2
309.457
309.455
309.448
309.432
309.403
309.366
309.325
309.285
309.252
309.224
309.2
309.181
309.167
309.156
309.148
309.146
309.152
309.162
309.173
309.183
309.193
309.202
309.21
309.218
309.223
309.226
309.226
309.223
309.217
309.209
309.201
309.195
309.452
309.451
309.445
309.431
309.408
309.376
309.34
309.303
309.271
309.242
309.217
309.196
309.18
309.169
309.162
309.161
309.171
309.184
309.195
309.204
309.212
309.22
309.227
309.234
309.24
309.245
309.246
309.245
309.24
309.232
309.223
309.217
309.448
309.447
309.443
309.432
309.414
309.387
309.356
309.323
309.293
309.266
309.242
309.223
309.208
309.197
309.193
309.197
309.208
309.219
309.227
309.233
309.238
309.242
309.247
309.251
309.256
309.26
309.262
309.262
309.259
309.253
309.245
309.238
309.444
309.443
309.44
309.433
309.418
309.397
309.37
309.342
309.315
309.29
309.269
309.252
309.24
309.233
309.232
309.239
309.25
309.258
309.263
309.266
309.267
309.268
309.269
309.27
309.271
309.273
309.275
309.276
309.274
309.269
309.262
309.256
309.436
309.437
309.436
309.432
309.421
309.404
309.383
309.359
309.335
309.313
309.295
309.281
309.272
309.267
309.269
309.276
309.285
309.291
309.294
309.295
309.294
309.292
309.29
309.288
309.287
309.286
309.286
309.286
309.285
309.281
309.275
309.27
309.423
309.426
309.428
309.428
309.422
309.409
309.392
309.372
309.352
309.334
309.319
309.308
309.3
309.298
309.3
309.306
309.313
309.317
309.318
309.317
309.314
309.311
309.307
309.304
309.3
309.298
309.296
309.295
309.294
309.291
309.286
309.282
309.406
309.41
309.416
309.421
309.419
309.412
309.399
309.383
309.367
309.352
309.339
309.33
309.325
309.323
309.325
309.329
309.333
309.335
309.335
309.333
309.329
309.325
309.321
309.316
309.312
309.308
309.305
309.303
309.301
309.299
309.295
309.291
309.39
309.395
309.403
309.411
309.414
309.411
309.402
309.391
309.378
309.366
309.356
309.349
309.344
309.343
309.343
309.346
309.347
309.347
309.346
309.343
309.339
309.335
309.33
309.325
309.32
309.316
309.312
309.31
309.307
309.305
309.302
309.299
309.378
309.383
309.392
309.402
309.408
309.409
309.403
309.395
309.385
309.376
309.369
309.363
309.359
309.357
309.357
309.357
309.356
309.355
309.353
309.349
309.345
309.341
309.336
309.332
309.327
309.323
309.319
309.315
309.313
309.311
309.308
309.305
309.371
309.376
309.384
309.394
309.402
309.404
309.402
309.396
309.39
309.383
309.377
309.373
309.369
309.367
309.365
309.363
309.361
309.359
309.356
309.352
309.349
309.345
309.341
309.336
309.332
309.328
309.324
309.32
309.318
309.315
309.313
309.311
309.367
309.371
309.378
309.386
309.393
309.398
309.397
309.394
309.39
309.385
309.381
309.377
309.374
309.371
309.368
309.366
309.363
309.36
309.357
309.354
309.35
309.347
309.343
309.339
309.336
309.332
309.328
309.325
309.322
309.319
309.317
309.315
309.363
309.367
309.372
309.378
309.383
309.388
309.389
309.388
309.386
309.383
309.38
309.377
309.374
309.371
309.369
309.366
309.363
309.36
309.357
309.354
309.351
309.348
309.345
309.341
309.338
309.335
309.332
309.329
309.326
309.323
309.32
309.318
309.36
309.362
309.365
309.368
309.372
309.376
309.378
309.379
309.378
309.377
309.376
309.374
309.372
309.37
309.368
309.365
309.363
309.36
309.357
309.354
309.351
309.349
309.346
309.343
309.34
309.337
309.334
309.332
309.329
309.326
309.323
309.321
309.357
309.358
309.359
309.361
309.364
309.366
309.369
309.371
309.373
309.373
309.373
309.372
309.371
309.37
309.368
309.365
309.362
309.36
309.357
309.354
309.352
309.349
309.346
309.344
309.341
309.339
309.336
309.334
309.331
309.329
309.326
309.323
)
;

boundaryField
{
    movingWall
    {
        type            zeroGradient;
    }
    fixedWalls
    {
        type            zeroGradient;
    }
    floor
    {
        type            fixedValue;
        value           uniform 310;
    }
    frontAndBack
    {
        type            empty;
    }
}


// ************************************************************************* //
