/*--------------------------------*- C++ -*----------------------------------*\
| =========                 |                                                 |
| \\      /  F ield         | OpenFOAM: The Open Source CFD Toolbox           |
|  \\    /   O peration     | Version:  2212                                  |
|   \\  /    A nd           | Website:  www.openfoam.com                      |
|    \\/     M anipulation  |                                                 |
\*---------------------------------------------------------------------------*/
FoamFile
{
    version     2.0;
    format      ascii;
    arch        "LSB;label=64;scalar=64";
    class       volVectorField;
    location    "420";
    object      U;
}
// * * * * * * * * * * * * * * * * * * * * * * * * * * * * * * * * * * * * * //

dimensions      [0 1 -1 0 0 0 0];

internalField   nonuniform List<vector> 
1024
(
(9.04635e-06 -1.29083e-05 0)
(-0.000173508 4.32733e-05 0)
(-0.000629872 8.19035e-05 0)
(-0.00124868 8.26715e-05 0)
(-0.00189396 7.03527e-05 0)
(-0.00250472 5.92433e-05 0)
(-0.0030641 4.99032e-05 0)
(-0.0035462 3.87532e-05 0)
(-0.00389647 2.39306e-05 0)
(-0.00403354 5.41787e-06 0)
(-0.00387731 -1.49344e-05 0)
(-0.00331778 -3.38172e-05 0)
(-0.00232109 -4.80652e-05 0)
(-0.000952944 -5.12179e-05 0)
(0.000730073 -4.84728e-05 0)
(0.00233088 -2.82343e-05 0)
(0.00314751 -1.02142e-05 0)
(0.00362197 -1.05527e-05 0)
(0.00402195 -1.08392e-05 0)
(0.00421922 -5.92092e-07 0)
(0.00409475 1.64035e-05 0)
(0.00364537 3.35725e-05 0)
(0.00300405 4.42864e-05 0)
(0.00235655 4.39264e-05 0)
(0.0018583 3.25268e-05 0)
(0.00155311 1.82178e-05 0)
(0.00135702 1.43875e-05 0)
(0.00113715 2.72307e-05 0)
(0.000817524 4.83471e-05 0)
(0.000437601 5.74112e-05 0)
(0.000129254 3.50734e-05 0)
(-2.81921e-06 -3.83429e-06 0)
(-6.28671e-05 0.000182466 0)
(-0.000746698 0.000636547 0)
(-0.00203323 0.000906703 0)
(-0.00368123 0.00091645 0)
(-0.00538877 0.00079474 0)
(-0.00699758 0.000648302 0)
(-0.00842953 0.00050453 0)
(-0.00959947 0.000353291 0)
(-0.0103794 0.000186357 0)
(-0.010602 5.9834e-06 0)
(-0.0101036 -0.000180583 0)
(-0.00866194 -0.000350967 0)
(-0.00620822 -0.000477075 0)
(-0.0028554 -0.000535059 0)
(0.00138363 -0.000518005 0)
(0.00557011 -0.000340494 0)
(0.00783225 -0.000168478 0)
(0.00921668 -0.000136059 0)
(0.0102961 -0.000110452 0)
(0.0108323 -1.1403e-05 0)
(0.0105771 0.000145194 0)
(0.00953616 0.000305707 0)
(0.00801571 0.000408373 0)
(0.00645452 0.000411845 0)
(0.00521498 0.000326972 0)
(0.00439031 0.000231238 0)
(0.0037907 0.000224641 0)
(0.0031368 0.000342072 0)
(0.00227899 0.000510117 0)
(0.00130329 0.000579483 0)
(0.000484632 0.000432528 0)
(4.14532e-05 0.000131157 0)
(-0.000152912 0.000821125 0)
(-0.00140133 0.00208689 0)
(-0.0034809 0.00269229 0)
(-0.00601155 0.00265422 0)
(-0.00857899 0.00228672 0)
(-0.0109574 0.00183398 0)
(-0.0130059 0.0013762 0)
(-0.0145855 0.000910292 0)
(-0.0155278 0.000428399 0)
(-0.0156368 -6.44286e-05 0)
(-0.0146958 -0.000554048 0)
(-0.0125202 -0.000984381 0)
(-0.00904641 -0.00130132 0)
(-0.00440754 -0.00146853 0)
(0.00147707 -0.0014461 0)
(0.00751479 -0.000989256 0)
(0.0109751 -0.000524897 0)
(0.0131779 -0.00041212 0)
(0.0148239 -0.00032273 0)
(0.0157027 -5.64808e-05 0)
(0.0154749 0.000357348 0)
(0.014169 0.000784183 0)
(0.0121815 0.00106797 0)
(0.0100822 0.00110441 0)
(0.00833339 0.000925653 0)
(0.00705267 0.000724918 0)
(0.00602099 0.000738155 0)
(0.00492142 0.00104231 0)
(0.00358404 0.00146322 0)
(0.00210929 0.00165574 0)
(0.000843218 0.00133134 0)
(8.9017e-05 0.000522571 0)
(-0.000228474 0.00201418 0)
(-0.00195461 0.00457974 0)
(-0.00468091 0.00559015 0)
(-0.00788393 0.00538291 0)
(-0.0110555 0.00457915 0)
(-0.0139218 0.003605 0)
(-0.0162952 0.00261677 0)
(-0.0180019 0.00163573 0)
(-0.0188621 0.000663328 0)
(-0.0186832 -0.000292585 0)
(-0.0172672 -0.00119765 0)
(-0.0145465 -0.00195927 0)
(-0.0104831 -0.00251216 0)
(-0.00522529 -0.00281751 0)
(0.0013096 -0.00279723 0)
(0.00821912 -0.00198077 0)
(0.0124691 -0.00111019 0)
(0.0152637 -0.000862787 0)
(0.0173032 -0.00067136 0)
(0.0185011 -0.000173054 0)
(0.0184622 0.00060099 0)
(0.0172104 0.00140354 0)
(0.0151675 0.00195611 0)
(0.0129266 0.0020795 0)
(0.0109489 0.00183847 0)
(0.00934511 0.00156461 0)
(0.00792157 0.0016496 0)
(0.00640465 0.00222282 0)
(0.00464753 0.00299553 0)
(0.00275894 0.0033765 0)
(0.00112726 0.00281553 0)
(0.000124133 0.00120836 0)
(-0.000264423 0.00374507 0)
(-0.00225195 0.00808402 0)
(-0.0053521 0.00955647 0)
(-0.0089385 0.00903452 0)
(-0.012425 0.00757651 0)
(-0.0154943 0.00584529 0)
(-0.0179266 0.00410064 0)
(-0.0195345 0.0024068 0)
(-0.0201526 0.000785117 0)
(-0.0196162 -0.000746535 0)
(-0.0178382 -0.00211717 0)
(-0.0148337 -0.0032266 0)
(-0.0105796 -0.00401742 0)
(-0.00524145 -0.00444812 0)
(0.00114659 -0.00440908 0)
(0.00795109 -0.00321876 0)
(0.0125097 -0.00189464 0)
(0.015575 -0.00146835 0)
(0.0177655 -0.00114924 0)
(0.0191625 -0.00039282 0)
(0.0194018 0.000800904 0)
(0.0184424 0.00204763 0)
(0.0166787 0.0029309 0)
(0.0146489 0.00320474 0)
(0.0127386 0.00298395 0)
(0.0110172 0.00273819 0)
(0.00932902 0.00299761 0)
(0.00748134 0.00393745 0)
(0.00538892 0.00515157 0)
(0.0031892 0.00576801 0)
(0.00130398 0.00489017 0)
(0.00014397 0.00218196 0)
(-0.000245648 0.00584551 0)
(-0.00221276 0.0123554 0)
(-0.00535302 0.0143956 0)
(-0.00900533 0.0134589 0)
(-0.0125281 0.0111447 0)
(-0.0155605 0.00842646 0)
(-0.0178603 0.00571042 0)
(-0.0192467 0.00312811 0)
(-0.0195924 0.000735463 0)
(-0.0187873 -0.00142619 0)
(-0.0168814 -0.00326156 0)
(-0.01388 -0.00470743 0)
(-0.00976236 -0.00571839 0)
(-0.0047226 -0.00623097 0)
(0.00102311 -0.00611044 0)
(0.00704687 -0.00457593 0)
(0.0115038 -0.00281689 0)
(0.0145258 -0.00217604 0)
(0.0166034 -0.00171123 0)
(0.0179769 -0.000712594 0)
(0.0184515 0.000900527 0)
(0.0178952 0.0026049 0)
(0.0166253 0.00383931 0)
(0.015066 0.00431509 0)
(0.0134785 0.00422271 0)
(0.0118639 0.00416016 0)
(0.0100916 0.00475623 0)
(0.00805228 0.0061989 0)
(0.00574532 0.00794684 0)
(0.00336332 0.00881589 0)
(0.00135857 0.00750637 0)
(0.000146843 0.0034039 0)
(-0.000181805 0.00802206 0)
(-0.00187536 0.016968 0)
(-0.00474905 0.0197697 0)
(-0.00818591 0.0184253 0)
(-0.011521 0.0151207 0)
(-0.0143538 0.0112288 0)
(-0.0164284 0.00736642 0)
(-0.0175856 0.00376689 0)
(-0.0177513 0.000537249 0)
(-0.016885 -0.00225286 0)
(-0.0150974 -0.00453439 0)
(-0.0123295 -0.00631077 0)
(-0.00857405 -0.00752502 0)
(-0.00407756 -0.00805933 0)
(0.000764424 -0.00777259 0)
(0.00572798 -0.00594871 0)
(0.00985031 -0.00381592 0)
(0.0126406 -0.00292099 0)
(0.014423 -0.00227878 0)
(0.01554 -0.00107454 0)
(0.0160849 0.000889194 0)
(0.0159146 0.00298995 0)
(0.0152254 0.00453615 0)
(0.0142787 0.00523592 0)
(0.0131776 0.00538513 0)
(0.0118408 0.00569396 0)
(0.0101502 0.00683738 0)
(0.00806953 0.00895781 0)
(0.00568825 0.0113336 0)
(0.00326938 0.0124337 0)
(0.00128867 0.0105419 0)
(0.000132742 0.00479326 0)
(-0.000101697 0.00995734 0)
(-0.00137169 0.0214188 0)
(-0.00376437 0.0252566 0)
(-0.00678487 0.0236535 0)
(-0.00978729 0.0193366 0)
(-0.0123419 0.0141646 0)
(-0.0141859 0.00904837 0)
(-0.0151881 0.00436794 0)
(-0.0153238 0.000291904 0)
(-0.014606 -0.00310081 0)
(-0.0130981 -0.00582885 0)
(-0.0106976 -0.00794976 0)
(-0.00744603 -0.00935009 0)
(-0.00366267 -0.00983257 0)
(0.00015066 -0.00930614 0)
(0.00402418 -0.0072779 0)
(0.00774756 -0.00486067 0)
(0.0103134 -0.00366627 0)
(0.0118045 -0.00278136 0)
(0.0125727 -0.00138908 0)
(0.0130088 0.000802286 0)
(0.013127 0.00315072 0)
(0.0129929 0.0048994 0)
(0.0126697 0.00581358 0)
(0.0120886 0.00631873 0)
(0.0110916 0.00720647 0)
(0.00957412 0.00913345 0)
(0.00756473 0.0121204 0)
(0.00523799 0.0151968 0)
(0.00292574 0.0164514 0)
(0.00110764 0.0137937 0)
(0.0001046 0.00622684 0)
(-3.35708e-05 0.0114238 0)
(-0.000855171 0.0252606 0)
(-0.00267142 0.0304339 0)
(-0.00516911 0.0288614 0)
(-0.00777078 0.0236475 0)
(-0.010034 0.0171927 0)
(-0.011693 0.0107952 0)
(-0.0126388 0.00503288 0)
(-0.0128725 0.000134956 0)
(-0.0124212 -0.00385079 0)
(-0.0112523 -0.00705661 0)
(-0.0092837 -0.00954218 0)
(-0.00664596 -0.0110906 0)
(-0.00372177 -0.0114372 0)
(-0.000978318 -0.0106314 0)
(0.00183116 -0.00852863 0)
(0.00514306 -0.00596104 0)
(0.00766433 -0.00444606 0)
(0.00910014 -0.00322725 0)
(0.0096982 -0.0016102 0)
(0.0100031 0.000673753 0)
(0.0103008 0.00305991 0)
(0.0105934 0.00485813 0)
(0.0107592 0.00597022 0)
(0.0105822 0.00695543 0)
(0.00985904 0.00863501 0)
(0.0085118 0.0115735 0)
(0.0066284 0.0155848 0)
(0.00445595 0.0193696 0)
(0.00237805 0.0206197 0)
(0.00084326 0.0169873 0)
(6.78361e-05 0.00755184 0)
(8.76528e-06 0.0123459 0)
(-0.000437695 0.0282154 0)
(-0.00169337 0.0349617 0)
(-0.00364703 0.0338046 0)
(-0.00583715 0.0279439 0)
(-0.00783145 0.0203121 0)
(-0.00936158 0.01268 0)
(-0.0103264 0.00587621 0)
(-0.0107226 0.000182588 0)
(-0.0105576 -0.00441905 0)
(-0.00973383 -0.00814336 0)
(-0.00825278 -0.0109844 0)
(-0.0063554 -0.0126004 0)
(-0.00442906 -0.0127331 0)
(-0.0027269 -0.0116371 0)
(-0.000987624 -0.00966229 0)
(0.00181047 -0.00715977 0)
(0.00449618 -0.00539248 0)
(0.00628313 -0.00377535 0)
(0.00718497 -0.00184208 0)
(0.00762507 0.000471988 0)
(0.00805614 0.00272533 0)
(0.00856746 0.00445476 0)
(0.00896153 0.00578118 0)
(0.00895616 0.00737886 0)
(0.00834996 0.0100377 0)
(0.00710353 0.0141586 0)
(0.00535689 0.0192608 0)
(0.00341423 0.0236379 0)
(0.00168223 0.0246123 0)
(0.000528568 0.0197922 0)
(2.83237e-05 0.0086044 0)
(2.61506e-05 0.0127905 0)
(-0.00016524 0.0302273 0)
(-0.000957342 0.038647 0)
(-0.00241173 0.0383053 0)
(-0.00421488 0.0321496 0)
(-0.00597246 0.0235428 0)
(-0.00741629 0.0147808 0)
(-0.00843814 0.00699322 0)
(-0.0090077 0.000514661 0)
(-0.00910731 -0.00474019 0)
(-0.0086471 -0.00899025 0)
(-0.00775189 -0.0121081 0)
(-0.00675271 -0.0136641 0)
(-0.00594369 -0.0135416 0)
(-0.00530661 -0.0122624 0)
(-0.00443149 -0.0104669 0)
(-0.00250034 -0.00850392 0)
(0.000309141 -0.00672484 0)
(0.00278705 -0.00478216 0)
(0.00461116 -0.00243032 0)
(0.00571737 3.16211e-05 0)
(0.00642786 0.00219123 0)
(0.00698755 0.00387426 0)
(0.0073473 0.00549152 0)
(0.00727828 0.00782208 0)
(0.00662398 0.0115836 0)
(0.00539181 0.0169518 0)
(0.00377903 0.0230521 0)
(0.00214309 0.0277132 0)
(0.000874124 0.028006 0)
(0.000188828 0.0218251 0)
(-9.81477e-06 0.00921983 0)
(2.41318e-05 0.0129088 0)
(-3.32484e-05 0.031447 0)
(-0.000498305 0.0414778 0)
(-0.00154484 0.0422749 0)
(-0.00300857 0.0362186 0)
(-0.00456115 0.02691 0)
(-0.00594462 0.0171673 0)
(-0.00703779 0.00846314 0)
(-0.00777899 0.00120591 0)
(-0.00814284 -0.00471538 0)
(-0.00812373 -0.00941691 0)
(-0.00797117 -0.0126402 0)
(-0.00803402 -0.0139895 0)
(-0.00842352 -0.0136389 0)
(-0.00887975 -0.0123711 0)
(-0.00887299 -0.0109415 0)
(-0.00772424 -0.00964928 0)
(-0.00539201 -0.00846606 0)
(-0.00251089 -0.00675315 0)
(0.000591471 -0.00405184 0)
(0.00296122 -0.00109777 0)
(0.00454987 0.00143358 0)
(0.00524199 0.0032851 0)
(0.00547924 0.00534201 0)
(0.00523135 0.00851809 0)
(0.00442799 0.0134329 0)
(0.00314815 0.0199798 0)
(0.00171301 0.0267637 0)
(0.000560573 0.0311176 0)
(-4.64448e-05 0.0301554 0)
(-0.000159732 0.0225841 0)
(-4.36276e-05 0.00923078 0)
(1.50465e-05 0.0128838 0)
(-4.49777e-06 0.0321713 0)
(-0.000291811 0.0436293 0)
(-0.00105318 0.0457413 0)
(-0.00224662 0.0401453 0)
(-0.00363043 0.0304455 0)
(-0.00497514 0.0199117 0)
(-0.00615524 0.0103823 0)
(-0.00709339 0.00238443 0)
(-0.00778071 -0.0041461 0)
(-0.00835742 -0.00910382 0)
(-0.00913877 -0.0121839 0)
(-0.0103924 -0.0132203 0)
(-0.0120221 -0.0127597 0)
(-0.0136201 -0.0117476 0)
(-0.0146243 -0.0109204 0)
(-0.0144227 -0.0105169 0)
(-0.0127607 -0.0102176 0)
(-0.0100576 -0.00929562 0)
(-0.00670008 -0.00731023 0)
(-0.00315921 -0.00424644 0)
(-5.23868e-05 -0.000581525 0)
(0.00178807 0.00235661 0)
(0.00208298 0.00520351 0)
(0.00162759 0.00947709 0)
(0.000679791 0.0157285 0)
(-0.00039778 0.0233958 0)
(-0.00114529 0.0298192 0)
(-0.00134564 0.0326044 0)
(-0.00104871 0.0299728 0)
(-0.000525353 0.0215207 0)
(-8.07998e-05 0.0084367 0)
(4.37592e-06 0.0128966 0)
(-4.24464e-05 0.0327876 0)
(-0.000285156 0.0454536 0)
(-0.000899284 0.0488902 0)
(-0.00191768 0.0440098 0)
(-0.00318866 0.0342216 0)
(-0.00453032 0.023123 0)
(-0.00583232 0.0129102 0)
(-0.00703862 0.00428596 0)
(-0.00818813 -0.00268951 0)
(-0.00957586 -0.00756891 0)
(-0.0114659 -0.0102433 0)
(-0.0139737 -0.0109609 0)
(-0.0168554 -0.0105884 0)
(-0.0196678 -0.0100847 0)
(-0.0218861 -0.0100815 0)
(-0.0229326 -0.0107913 0)
(-0.0223425 -0.0117355 0)
(-0.0203491 -0.0120211 0)
(-0.0173619 -0.0111302 0)
(-0.0138172 -0.0088542 0)
(-0.0102505 -0.00519063 0)
(-0.00716349 -0.00035886 0)
(-0.00578979 0.00505096 0)
(-0.00558306 0.011231 0)
(-0.00548463 0.0181379 0)
(-0.00516959 0.0248043 0)
(-0.00444666 0.0294207 0)
(-0.00332796 0.0302338 0)
(-0.00201692 0.0262799 0)
(-0.000849237 0.0178903 0)
(-0.000105657 0.00660351 0)
(-8.36808e-06 0.0131146 0)
(-0.000117074 0.0337013 0)
(-0.00040554 0.0474355 0)
(-0.00100165 0.0520972 0)
(-0.00196476 0.0480498 0)
(-0.00321819 0.0384212 0)
(-0.00463737 0.0270086 0)
(-0.00614626 0.0163362 0)
(-0.00775076 0.00736266 0)
(-0.00958825 0.000364658 0)
(-0.0119129 -0.00428813 0)
(-0.0150465 -0.00636587 0)
(-0.0187864 -0.00686801 0)
(-0.0228635 -0.00681031 0)
(-0.0268757 -0.00703569 0)
(-0.0303649 -0.00803092 0)
(-0.032793 -0.0100108 0)
(-0.0335515 -0.0123829 0)
(-0.0327576 -0.0140471 0)
(-0.0307991 -0.0143815 0)
(-0.0279772 -0.0129686 0)
(-0.0245992 -0.00955537 0)
(-0.0209449 -0.00417359 0)
(-0.0170998 0.0026041 0)
(-0.0140122 0.0093063 0)
(-0.0114443 0.0153333 0)
(-0.00899245 0.0202851 0)
(-0.00663475 0.0229283 0)
(-0.00437565 0.0222094 0)
(-0.00237177 0.0179603 0)
(-0.000891874 0.0111889 0)
(-9.90371e-05 0.00366866 0)
(-1.72733e-05 0.0136652 0)
(-0.000174307 0.0352679 0)
(-0.000524016 0.0501127 0)
(-0.00116742 0.0559578 0)
(-0.00217646 0.0528258 0)
(-0.00353209 0.0435789 0)
(-0.00516583 0.0321359 0)
(-0.0070506 0.0213269 0)
(-0.00927321 0.0124156 0)
(-0.0120711 0.00588322 0)
(-0.0156075 0.0018282 0)
(-0.0198065 -0.000100554 0)
(-0.0245105 -0.000769635 0)
(-0.0293609 -0.00133677 0)
(-0.0340094 -0.00250923 0)
(-0.0381259 -0.00468018 0)
(-0.041252 -0.00805351 0)
(-0.0428374 -0.0119468 0)
(-0.0429836 -0.0151704 0)
(-0.041963 -0.0172333 0)
(-0.0398492 -0.0178441 0)
(-0.0366574 -0.0168089 0)
(-0.0324278 -0.0140175 0)
(-0.0273036 -0.00947705 0)
(-0.0215633 -0.00337312 0)
(-0.0158913 0.00328251 0)
(-0.0108314 0.00884967 0)
(-0.0066351 0.0118602 0)
(-0.00348496 0.0114769 0)
(-0.00141131 0.00882897 0)
(-0.00034353 0.00512931 0)
(4.51933e-06 0.0015628 0)
(-9.15455e-06 0.0143092 0)
(-0.000105879 0.03703 0)
(-0.000370834 0.0530925 0)
(-0.000936268 0.0602919 0)
(-0.00193704 0.0583551 0)
(-0.00341722 0.0498661 0)
(-0.00534345 0.038846 0)
(-0.00771444 0.0284313 0)
(-0.0106226 0.0201199 0)
(-0.0141931 0.0143168 0)
(-0.0183844 0.0107446 0)
(-0.0229333 0.0085935 0)
(-0.0275398 0.00692216 0)
(-0.032011 0.00502229 0)
(-0.0361933 0.00240985 0)
(-0.0397171 -0.00126205 0)
(-0.0420772 -0.00606164 0)
(-0.0434071 -0.0113566 0)
(-0.0437799 -0.0160886 0)
(-0.0432732 -0.0200299 0)
(-0.0418189 -0.0231106 0)
(-0.0393275 -0.0252733 0)
(-0.0357608 -0.026424 0)
(-0.0311775 -0.0264199 0)
(-0.0257631 -0.0250703 0)
(-0.0198631 -0.0221783 0)
(-0.0139742 -0.0176512 0)
(-0.00865517 -0.0116981 0)
(-0.00444694 -0.00524152 0)
(-0.00172702 -0.000503514 0)
(-0.00039722 0.00154441 0)
(2.38302e-06 0.00113712 0)
(3.30967e-05 0.0142979 0)
(0.000183255 0.0374118 0)
(0.0002942 0.054479 0)
(0.000187258 0.0633773 0)
(-0.000409333 0.0633261 0)
(-0.0016705 0.0561551 0)
(-0.00356662 0.0458645 0)
(-0.00596156 0.0358803 0)
(-0.00876056 0.0278126 0)
(-0.0119293 0.0219098 0)
(-0.0153237 0.017798 0)
(-0.0187628 0.0148224 0)
(-0.0221289 0.0122507 0)
(-0.0253595 0.00945278 0)
(-0.0283879 0.00595731 0)
(-0.03103 0.00145636 0)
(-0.0329032 -0.00427674 0)
(-0.0338747 -0.0102774 0)
(-0.0345235 -0.0157362 0)
(-0.0347069 -0.0206842 0)
(-0.034297 -0.0252351 0)
(-0.0331603 -0.0294357 0)
(-0.0312071 -0.0332014 0)
(-0.0284084 -0.0362971 0)
(-0.0248139 -0.0383034 0)
(-0.0205708 -0.0386331 0)
(-0.0159262 -0.0366211 0)
(-0.0112136 -0.0317455 0)
(-0.00684328 -0.0240577 0)
(-0.00330621 -0.014793 0)
(-0.00104058 -0.00643616 0)
(-7.05849e-05 -0.00111905 0)
(8.87925e-05 0.0131902 0)
(0.0005971 0.0355142 0)
(0.00127683 0.0530216 0)
(0.00188017 0.0634376 0)
(0.00206819 0.0657028 0)
(0.00154967 0.0609293 0)
(0.000214881 0.0520179 0)
(-0.00184707 0.0419945 0)
(-0.0042551 0.0336725 0)
(-0.00682309 0.0272733 0)
(-0.00931241 0.0224723 0)
(-0.0115816 0.0187459 0)
(-0.0135972 0.0154627 0)
(-0.0153619 0.0120309 0)
(-0.0169056 0.00795989 0)
(-0.0181675 0.0028943 0)
(-0.019206 -0.00319721 0)
(-0.0199791 -0.00936897 0)
(-0.0209884 -0.0149405 0)
(-0.0219059 -0.0201796 0)
(-0.0225715 -0.0253326 0)
(-0.0228438 -0.0305557 0)
(-0.0226116 -0.0358444 0)
(-0.0217721 -0.0410457 0)
(-0.0202259 -0.0457407 0)
(-0.0179138 -0.0491829 0)
(-0.0148754 -0.0503344 0)
(-0.0112866 -0.0480248 0)
(-0.00748313 -0.0412878 0)
(-0.00398101 -0.0302254 0)
(-0.00140758 -0.0169535 0)
(-0.000118584 -0.00487081 0)
(0.000126618 0.0111098 0)
(0.000971418 0.0313839 0)
(0.00225778 0.0486457 0)
(0.00367554 0.0602539 0)
(0.00481553 0.0647015 0)
(0.00531232 0.0624137 0)
(0.00495822 0.0555276 0)
(0.00377086 0.0466165 0)
(0.00206483 0.0381539 0)
(0.0002134 0.0310161 0)
(-0.00146238 0.0251956 0)
(-0.00270215 0.020693 0)
(-0.00352619 0.0168087 0)
(-0.00395279 0.012941 0)
(-0.00416765 0.00861962 0)
(-0.00413817 0.00339274 0)
(-0.00416591 -0.00262856 0)
(-0.00497412 -0.00845203 0)
(-0.00641047 -0.0137131 0)
(-0.0080329 -0.0187742 0)
(-0.0096337 -0.0239129 0)
(-0.011087 -0.0293568 0)
(-0.0122885 -0.0351325 0)
(-0.0131441 -0.041264 0)
(-0.0135068 -0.0475489 0)
(-0.0131732 -0.0533413 0)
(-0.0119853 -0.0574636 0)
(-0.00992177 -0.0583272 0)
(-0.00715101 -0.053991 0)
(-0.004133 -0.0431592 0)
(-0.00159563 -0.0267852 0)
(-0.000158771 -0.00869621 0)
(0.000137193 0.00858672 0)
(0.00120483 0.0258801 0)
(0.00300012 0.0421722 0)
(0.00518013 0.0544973 0)
(0.00727325 0.0608196 0)
(0.00885616 0.0608901 0)
(0.00964825 0.0561157 0)
(0.00959291 0.0485948 0)
(0.0089232 0.0404936 0)
(0.00804743 0.0330576 0)
(0.00733398 0.0266849 0)
(0.00705047 0.0214435 0)
(0.00729081 0.0169767 0)
(0.00804562 0.0127675 0)
(0.00904443 0.00836597 0)
(0.0102947 0.00328952 0)
(0.0106854 -0.00217095 0)
(0.00962361 -0.00724859 0)
(0.00772806 -0.0119838 0)
(0.00540397 -0.0166428 0)
(0.00294471 -0.021468 0)
(0.000444074 -0.02681 0)
(-0.00193897 -0.032593 0)
(-0.00410512 -0.0388457 0)
(-0.00598866 -0.0457157 0)
(-0.00739472 -0.0529034 0)
(-0.0080118 -0.0592918 0)
(-0.00762669 -0.0632488 0)
(-0.0061602 -0.0620452 0)
(-0.0039246 -0.0529563 0)
(-0.00165866 -0.0352761 0)
(-0.000186779 -0.0123659 0)
(0.00012441 0.00612003 0)
(0.00126767 0.0199995 0)
(0.00338469 0.0346922 0)
(0.0061558 0.0471779 0)
(0.00907325 0.0549332 0)
(0.0116736 0.057063 0)
(0.0136273 0.0543017 0)
(0.0148178 0.0482767 0)
(0.015394 0.0408666 0)
(0.0157055 0.0334604 0)
(0.0161078 0.0267801 0)
(0.0168641 0.021086 0)
(0.0180966 0.0162325 0)
(0.019784 0.0118298 0)
(0.021644 0.00745731 0)
(0.0234653 0.00275568 0)
(0.0240164 -0.00193327 0)
(0.022765 -0.00621737 0)
(0.0204485 -0.010299 0)
(0.0175158 -0.0144162 0)
(0.0142903 -0.0187787 0)
(0.0109584 -0.023569 0)
(0.00762918 -0.028902 0)
(0.00443037 -0.0348593 0)
(0.00143829 -0.0416155 0)
(-0.00136557 -0.0494238 0)
(-0.0035504 -0.0571836 0)
(-0.00481285 -0.0637362 0)
(-0.00477269 -0.0658547 0)
(-0.0034958 -0.0595057 0)
(-0.00164257 -0.0420507 0)
(-0.000204524 -0.0156406 0)
(9.86884e-05 0.00402605 0)
(0.00118165 0.0145495 0)
(0.00339082 0.0272205 0)
(0.00650183 0.0393205 0)
(0.0100164 0.0479908 0)
(0.0134591 0.0517469 0)
(0.0164812 0.0507221 0)
(0.0189256 0.0461124 0)
(0.0208591 0.0395482 0)
(0.0225226 0.0324549 0)
(0.0241868 0.025758 0)
(0.0260576 0.0199006 0)
(0.0282259 0.0149016 0)
(0.0306393 0.0104954 0)
(0.0330124 0.00632776 0)
(0.0349581 0.00213497 0)
(0.0353596 -0.00177144 0)
(0.0339492 -0.00523939 0)
(0.031362 -0.00857911 0)
(0.0280082 -0.0120378 0)
(0.024191 -0.0158218 0)
(0.0201297 -0.0201035 0)
(0.0159919 -0.0249911 0)
(0.0119321 -0.0305599 0)
(0.00805695 -0.0369001 0)
(0.00438316 -0.0441386 0)
(0.000991503 -0.0523802 0)
(-0.00175999 -0.0608635 0)
(-0.00318962 -0.0661496 0)
(-0.00298984 -0.0631558 0)
(-0.00163029 -0.0471869 0)
(-0.000221153 -0.018497 0)
(6.93498e-05 0.00243045 0)
(0.000985131 0.010035 0)
(0.00304544 0.0205396 0)
(0.0061942 0.0317994 0)
(0.0100141 0.0408429 0)
(0.0140624 0.0456968 0)
(0.0180073 0.0459897 0)
(0.0216671 0.0425665 0)
(0.0250144 0.0368616 0)
(0.0281392 0.0302825 0)
(0.0311663 0.0238524 0)
(0.0341943 0.0181302 0)
(0.037251 0.0132509 0)
(0.0402489 0.00905226 0)
(0.0429049 0.00525493 0)
(0.0447674 0.00165333 0)
(0.0448873 -0.00152349 0)
(0.043272 -0.00427328 0)
(0.0404917 -0.00692839 0)
(0.0368999 -0.00972707 0)
(0.0327486 -0.0128664 0)
(0.0282289 -0.0165144 0)
(0.0235 -0.0208038 0)
(0.0187121 -0.0258438 0)
(0.0140002 -0.0317381 0)
(0.00947166 -0.0386012 0)
(0.00522042 -0.0465591 0)
(0.00139724 -0.0555381 0)
(-0.00150671 -0.0636297 0)
(-0.00250379 -0.0643585 0)
(-0.00172052 -0.0509585 0)
(-0.000259286 -0.0210852 0)
(3.73223e-05 0.0013465 0)
(0.000680158 0.00670903 0)
(0.00233352 0.0151819 0)
(0.0051885 0.0252713 0)
(0.0090085 0.0341426 0)
(0.0134334 0.0394969 0)
(0.0181744 0.0405966 0)
(0.0230188 0.0380461 0)
(0.0278101 0.0331336 0)
(0.032446 0.0272023 0)
(0.036869 0.0212777 0)
(0.0410471 0.015957 0)
(0.0449366 0.011437 0)
(0.0484236 0.00762685 0)
(0.0512438 0.00430879 0)
(0.0529623 0.00131223 0)
(0.0528257 -0.00121699 0)
(0.0510518 -0.00335448 0)
(0.0481772 -0.005414 0)
(0.0445085 -0.00761034 0)
(0.0402421 -0.0101218 0)
(0.0355168 -0.0131085 0)
(0.0304484 -0.0167154 0)
(0.0251547 -0.0210791 0)
(0.0197655 -0.0263368 0)
(0.0144207 -0.0326454 0)
(0.00926676 -0.0402202 0)
(0.00448027 -0.0492351 0)
(0.000369502 -0.0588233 0)
(-0.00202733 -0.0634678 0)
(-0.00199108 -0.0536306 0)
(-0.000359167 -0.023677 0)
(-1.68152e-05 0.00079567 0)
(0.000141795 0.00475237 0)
(0.00105579 0.0115239 0)
(0.00330051 0.0201708 0)
(0.00691426 0.0282801 0)
(0.0115997 0.0334936 0)
(0.017099 0.0348623 0)
(0.0231387 0.032867 0)
(0.0293848 0.0286682 0)
(0.0355166 0.023482 0)
(0.041292 0.0182498 0)
(0.0465575 0.0135381 0)
(0.0512104 0.00955879 0)
(0.0551291 0.0062634 0)
(0.0580891 0.0034814 0)
(0.0597212 0.00106721 0)
(0.0594691 -0.00089992 0)
(0.0576806 -0.0025278 0)
(0.054863 -0.00408778 0)
(0.0512831 -0.0057615 0)
(0.0470883 -0.00769962 0)
(0.0423662 -0.0100434 0)
(0.0371806 -0.0129343 0)
(0.0316008 -0.0165242 0)
(0.0257232 -0.020987 0)
(0.0196821 -0.0265398 0)
(0.0136499 -0.033486 0)
(0.0078364 -0.042205 0)
(0.00256846 -0.0525018 0)
(-0.0013447 -0.0606305 0)
(-0.00242304 -0.0552928 0)
(-0.000573467 -0.0265617 0)
(-0.000143281 0.00103675 0)
(-0.000871391 0.00461436 0)
(-0.00110526 0.00983441 0)
(0.000224683 0.0165498 0)
(0.00365287 0.02332 0)
(0.00871658 0.0277808 0)
(0.0150569 0.0289457 0)
(0.0223382 0.0272656 0)
(0.0300168 0.0237394 0)
(0.0375645 0.0193788 0)
(0.0445897 0.014973 0)
(0.0508515 0.01101 0)
(0.0562143 0.00768442 0)
(0.0605708 0.0049711 0)
(0.0637529 0.00273686 0)
(0.0654744 0.000858016 0)
(0.065331 -0.000630707 0)
(0.0637135 -0.00183839 0)
(0.0611027 -0.00298408 0)
(0.0577395 -0.00421259 0)
(0.0537419 -0.00564293 0)
(0.0491634 -0.00738967 0)
(0.0440281 -0.00957634 0)
(0.0383579 -0.0123517 0)
(0.0321982 -0.0159108 0)
(0.0256406 -0.0205238 0)
(0.0188375 -0.0265856 0)
(0.0120064 -0.0346531 0)
(0.00548986 -0.0450887 0)
(4.87533e-07 -0.0557499 0)
(-0.00278307 -0.0557604 0)
(-0.00092158 -0.0299108 0)
(-0.000470633 0.00259019 0)
(-0.00266686 0.00669003 0)
(-0.00415457 0.0103253 0)
(-0.00373406 0.0142891 0)
(-0.00062602 0.0187793 0)
(0.00521899 0.0221961 0)
(0.0125781 0.0228913 0)
(0.0211466 0.0214282 0)
(0.0301939 0.0185861 0)
(0.0390438 0.0151129 0)
(0.0472149 0.011611 0)
(0.0544199 0.00846671 0)
(0.0605127 0.00584243 0)
(0.0654066 0.00372698 0)
(0.06898 0.00202079 0)
(0.071007 0.000624267 0)
(0.0711558 -0.00045232 0)
(0.0698083 -0.00130433 0)
(0.0674543 -0.00210003 0)
(0.0643388 -0.0029481 0)
(0.0605766 -0.00393624 0)
(0.0562108 -0.00514949 0)
(0.0512446 -0.00668423 0)
(0.0456645 -0.00866804 0)
(0.0394608 -0.011289 0)
(0.032651 -0.0148387 0)
(0.0253083 -0.0197774 0)
(0.0175907 -0.0268093 0)
(0.00980796 -0.0367345 0)
(0.00266166 -0.0488327 0)
(-0.00251089 -0.0545508 0)
(-0.00131472 -0.0337161 0)
(-0.00108298 0.00611077 0)
(-0.00509935 0.0106164 0)
(-0.00737845 0.0118519 0)
(-0.00723499 0.0128267 0)
(-0.00423063 0.0145888 0)
(0.00239801 0.0164741 0)
(0.0109902 0.0166901 0)
(0.0208089 0.0155015 0)
(0.031115 0.0133886 0)
(0.0411595 0.0108326 0)
(0.0504152 0.00825529 0)
(0.0585598 0.00594277 0)
(0.0654237 0.00402319 0)
(0.0709116 0.00249696 0)
(0.0749126 0.00129624 0)
(0.0772318 0.000346396 0)
(0.0775868 -0.000357813 0)
(0.0763999 -0.000896491 0)
(0.074214 -0.00139177 0)
(0.0712968 -0.00191749 0)
(0.0677702 -0.00253198 0)
(0.0636759 -0.00329143 0)
(0.059008 -0.00426166 0)
(0.0537298 -0.00553688 0)
(0.0477834 -0.00727086 0)
(0.0410992 -0.00972904 0)
(0.0336163 -0.0133738 0)
(0.0253309 -0.0189858 0)
(0.0164173 -0.027688 0)
(0.00746626 -0.0399956 0)
(-0.000668851 -0.0506965 0)
(-0.00144995 -0.0375186 0)
(-0.00190067 0.0121172 0)
(-0.00688565 0.0150609 0)
(-0.00807095 0.0128684 0)
(-0.00658379 0.0110666 0)
(-0.00278204 0.0104411 0)
(0.00471347 0.0106657 0)
(0.0140325 0.0104798 0)
(0.0247384 0.00965233 0)
(0.0359512 0.00828727 0)
(0.0468737 0.00663652 0)
(0.0569096 0.00496708 0)
(0.0656614 0.00347564 0)
(0.0729013 0.002257 0)
(0.078513 0.00131705 0)
(0.0824163 0.000610755 0)
(0.084504 8.28597e-05 0)
(0.0846388 -0.000286009 0)
(0.0833764 -0.000558166 0)
(0.0812665 -0.00080873 0)
(0.0785618 -0.00107804 0)
(0.0753675 -0.00139792 0)
(0.0717121 -0.00179907 0)
(0.0675788 -0.00231872 0)
(0.0629164 -0.00301438 0)
(0.0576349 -0.00398904 0)
(0.0515927 -0.00543917 0)
(0.0445831 -0.00774529 0)
(0.0363504 -0.0116292 0)
(0.0267136 -0.0183366 0)
(0.0158203 -0.0293335 0)
(0.0040798 -0.0428783 0)
(-0.000213841 -0.0391577 0)
(-0.00134421 0.0180831 0)
(-0.00386435 0.0172338 0)
(0.00107716 0.0114217 0)
(0.00714552 0.008168 0)
(0.0133428 0.00633622 0)
(0.0208972 0.00544172 0)
(0.029921 0.00493801 0)
(0.0401314 0.00440464 0)
(0.0507703 0.00370037 0)
(0.06103 0.00287707 0)
(0.070246 0.00205627 0)
(0.0779727 0.00134342 0)
(0.0839973 0.000789984 0)
(0.0882927 0.000394133 0)
(0.0909292 0.000122957 0)
(0.0919904 -6.06294e-05 0)
(0.0915501 -0.000178899 0)
(0.0902019 -0.000265514 0)
(0.0883404 -0.000350055 0)
(0.0861238 -0.000446027 0)
(0.0836029 -0.000565015 0)
(0.0807778 -0.000718693 0)
(0.0776189 -0.000922259 0)
(0.0740692 -0.00120156 0)
(0.0700303 -0.00160764 0)
(0.0653297 -0.00224807 0)
(0.0596671 -0.00335602 0)
(0.0525456 -0.00543357 0)
(0.0432221 -0.00949842 0)
(0.0307884 -0.0172625 0)
(0.0151102 -0.0295251 0)
(0.00623734 -0.0332643 0)
(0.0208255 0.0114 0)
(0.0270097 0.00914214 0)
(0.039467 0.00522136 0)
(0.0493567 0.00307498 0)
(0.0566168 0.00188381 0)
(0.0627695 0.00120391 0)
(0.0687174 0.000837278 0)
(0.0747494 0.000618883 0)
(0.0806643 0.000450394 0)
(0.0860512 0.000299844 0)
(0.0905361 0.000171954 0)
(0.0939229 7.77571e-05 0)
(0.0962167 1.90591e-05 0)
(0.0975568 -1.2093e-05 0)
(0.0981166 -2.70123e-05 0)
(0.0980259 -3.38053e-05 0)
(0.09742 -3.72497e-05 0)
(0.0965598 -4.12628e-05 0)
(0.0955692 -4.76357e-05 0)
(0.0944778 -5.6765e-05 0)
(0.0932814 -6.96124e-05 0)
(0.0919621 -8.74506e-05 0)
(0.0904935 -0.000112263 0)
(0.088836 -0.000148029 0)
(0.0869222 -0.000203595 0)
(0.0846233 -0.00029958 0)
(0.081682 -0.00048564 0)
(0.0775762 -0.000881619 0)
(0.0712444 -0.00177339 0)
(0.0605851 -0.00390778 0)
(0.0431738 -0.00914213 0)
(0.0285792 -0.0144892 0)
)
;

boundaryField
{
    movingWall
    {
        type            fixedValue;
        value           uniform (0.1 0 0);
    }
    fixedWalls
    {
        type            noSlip;
    }
    floor
    {
        type            noSlip;
    }
    frontAndBack
    {
        type            empty;
    }
}


// ************************************************************************* //
