-0.11 	0.0115828 	-9.50526e-05 	0.00578969
-0.109559 	0.0122849 	-0.000111622 	0.00612115
-0.109118 	0.012987 	-0.000128192 	0.00645262
-0.108677 	0.0136891 	-0.000144762 	0.00678409
-0.108236 	0.0143912 	-0.000161332 	0.00711555
-0.107796 	0.0151087 	-0.000166876 	0.00743611
-0.107355 	0.0158304 	-0.000169479 	0.00775376
-0.106914 	0.0163359 	-0.000162056 	0.00795691
-0.106473 	0.0166152 	-0.000144283 	0.00803975
-0.106032 	0.0168946 	-0.000126511 	0.0081226
-0.105591 	0.0171525 	-0.000116832 	0.00822426
-0.10515 	0.0174058 	-0.000108917 	0.00833003
-0.104709 	0.0176591 	-0.000101003 	0.00843579
-0.104269 	0.0179124 	-9.30886e-05 	0.00854156
-0.103828 	0.0181657 	-8.51742e-05 	0.00864733
-0.103387 	0.0183515 	-6.49916e-05 	0.008686
-0.102946 	0.0184575 	-3.02156e-05 	0.00864503
-0.102505 	0.0185635 	4.5604e-06 	0.00860406
-0.102064 	0.0186696 	3.93364e-05 	0.00856308
-0.101623 	0.0187756 	7.41124e-05 	0.00852211
-0.101182 	0.0188839 	0.000109873 	0.00847913
-0.100741 	0.0190058 	0.000151479 	0.00842422
-0.100301 	0.0191278 	0.00019308 	0.00836934
-0.0998597 	0.0192314 	0.000238865 	0.00825057
-0.0994188 	0.0193165 	0.000288906 	0.00806664
-0.098978 	0.0194016 	0.000338946 	0.00788272
-0.0985371 	0.0194684 	0.000383902 	0.00772682
-0.0980962 	0.0195326 	0.000428121 	0.00757499
-0.0976553 	0.0195967 	0.000472341 	0.00742315
-0.0972144 	0.0196609 	0.00051656 	0.00727132
-0.0967735 	0.019725 	0.00056078 	0.00711948
-0.0963327 	0.0198092 	0.00060403 	0.00688911
-0.0958918 	0.0199054 	0.000646749 	0.00661106
-0.0954509 	0.0200016 	0.000689468 	0.00633302
-0.09501 	0.0200979 	0.000732186 	0.00605497
-0.0945691 	0.0201941 	0.000774905 	0.00577693
-0.0941283 	0.0202909 	0.00081172 	0.00552237
-0.0936874 	0.0203887 	0.000837965 	0.00530986
-0.0932465 	0.0204865 	0.00086421 	0.00509735
-0.0928056 	0.0205843 	0.000890455 	0.00488484
-0.0923647 	0.0206821 	0.0009167 	0.00467233
-0.0919238 	0.0207799 	0.000942945 	0.00445982
-0.091483 	0.0208777 	0.00096919 	0.00424731
-0.0531263 	0.027428 	0.00173 	-0.00862648
-0.0526854 	0.0273557 	0.00196491 	-0.00802285
-0.0522445 	0.0270702 	0.00249714 	-0.00718019
-0.0518036 	0.0273936 	0.0028869 	-0.00655049
-0.0509218 	0.0333362 	0.00200669 	-0.00702016
-0.050481 	0.0445808 	0.000832255 	-0.00450479
-0.0500401 	0.0594535 	-0.000149691 	-0.000991625
-0.0376954 	0.0419986 	-0.000800095 	-0.000334883
-0.0372545 	0.0359222 	-3.60831e-05 	-0.0010327
-0.0368136 	0.0326527 	0.000498462 	-0.00134392
-0.0363727 	0.0297082 	0.00107885 	-0.00159274
-0.0359319 	0.0277474 	0.000847723 	-0.00207415
-0.035491 	0.0259293 	0.000484484 	-0.00258473
-0.0350501 	0.024103 	2.12708e-05 	-0.00326618
-0.0346092 	0.0224034 	-0.00046131 	-0.00390967
-0.0341683 	0.0208575 	-0.000682352 	-0.00443845
-0.0337275 	0.0194198 	-0.000812794 	-0.00491865
-0.0332866 	0.018025 	-0.000847193 	-0.00510096
-0.0328457 	0.0166321 	-0.000851776 	-0.00519886
0.00507014 	-0.00526838 	8.27859e-05 	0.000459889
0.00551102 	-0.00496361 	-0.000100191 	0.00224768
0.0059519 	-0.00465885 	-0.000283168 	0.00403546
0.00639279 	-0.00444534 	-0.000438942 	0.00584015
0.00683367 	-0.00432633 	-0.000566547 	0.00766235
0.00727455 	-0.00420731 	-0.000694153 	0.00948455
0.00771543 	-0.0040883 	-0.000821758 	0.0113067
0.00815631 	-0.00396928 	-0.000949364 	0.0131289
0.00859719 	-0.00388489 	-0.00117598 	0.014773
0.00903808 	-0.00374312 	-0.00175901 	0.0148412
0.00947896 	-0.00358904 	-0.00234022 	0.0148979
0.00991984 	-0.00343497 	-0.00292142 	0.0149545
0.0103607 	-0.00328089 	-0.00350263 	0.0150112
0.0108016 	-0.00312682 	-0.00408383 	0.0150678
0.0112425 	-0.00284474 	-0.00459283 	0.0151318
0.0116834 	-0.00252865 	-0.00508264 	0.0151977
0.0121242 	-0.00218765 	-0.00550512 	0.0152143
0.0125651 	-0.00182731 	-0.00571381 	0.0149339
0.013006 	-0.00146698 	-0.00592251 	0.0146534
0.0134469 	-0.00112751 	-0.00615623 	0.0144125
0.0138878 	-0.000811352 	-0.00641786 	0.0142157
0.0143287 	-0.000495193 	-0.0066795 	0.0140188
0.0147695 	-0.000179034 	-0.00694114 	0.013822
0.0152104 	0.000137124 	-0.00720278 	0.0136251
0.0156513 	0.000442132 	-0.00746577 	0.0134196
0.0160922 	0.000613242 	-0.00764919 	0.0130507
0.0165331 	0.000784351 	-0.0078326 	0.0126817
0.0169739 	0.000955461 	-0.00801601 	0.0123128
0.0174148 	0.00112657 	-0.00819943 	0.0119438
0.0178557 	0.00129768 	-0.00838284 	0.0115749
0.0182966 	0.00141881 	-0.00851899 	0.0111209
0.0187375 	0.00151116 	-0.00862793 	0.010618
0.0191784 	0.00160351 	-0.00873687 	0.0101151
0.0196192 	0.00135499 	-0.00869248 	0.00949064
0.0200601 	0.00105357 	-0.00863263 	0.00885059
0.020501 	0.000779458 	-0.00857185 	0.00822208
0.0209419 	0.000658427 	-0.0085059 	0.0076583
0.0213828 	0.000537396 	-0.00843995 	0.00709453
0.0218236 	0.000416366 	-0.008374 	0.00653075
0.0222645 	0.000295335 	-0.00830806 	0.00596698
0.0227054 	0.000174304 	-0.00824211 	0.0054032
0.0231463 	-0.000332579 	-0.00810981 	0.00484102
0.0235872 	-0.00104977 	-0.00794144 	0.00428887
0.0240281 	-0.00176696 	-0.00777307 	0.00373672
0.0244689 	-0.00248415 	-0.0076047 	0.00318458
0.0249098 	-0.00320134 	-0.00743633 	0.00263243
0.0253507 	-0.00393027 	-0.00727558 	0.00208246
0.0257916 	-0.00477327 	-0.00718885 	0.00155355
0.0262325 	-0.00561627 	-0.00710212 	0.00102463
0.0266733 	-0.00658068 	-0.00702189 	0.000533157
0.0271142 	-0.00779392 	-0.00695384 	0.000117218
0.0275551 	-0.00900716 	-0.0068858 	-0.000298721
0.027996 	-0.0102188 	-0.00677727 	-0.000740271
0.0284369 	-0.0114291 	-0.00663236 	-0.00120484
0.0288778 	-0.0126393 	-0.00648745 	-0.00166941
0.0293186 	-0.0138495 	-0.00634254 	-0.00213398
0.0297595 	-0.0150597 	-0.00619763 	-0.00259854
0.0302004 	-0.01627 	-0.00605272 	-0.00306311
0.0306413 	-0.0173471 	-0.00590832 	-0.00358675
0.0310822 	-0.0184098 	-0.00576046 	-0.00411513
0.031523 	-0.0194725 	-0.00561259 	-0.00464351
0.0319639 	-0.0205352 	-0.00546473 	-0.00517189
0.0324048 	-0.021598 	-0.00531687 	-0.00570028
0.0328457 	-0.0226406 	-0.00518467 	-0.00620199
0.0332866 	-0.0236451 	-0.0050821 	-0.00665322
0.0337275 	-0.0246497 	-0.00497953 	-0.00710446
0.0341683 	-0.0253547 	-0.00491648 	-0.00752398
0.0346092 	-0.0258117 	-0.00488916 	-0.00790789
0.0350501 	-0.0262686 	-0.00486183 	-0.0082918
0.035491 	-0.026779 	-0.00481362 	-0.00874423
0.0359319 	-0.0273054 	-0.00475913 	-0.00921727
0.0363727 	-0.0278318 	-0.00470463 	-0.00969031
0.0368136 	-0.0283582 	-0.00465014 	-0.0101633
0.0372545 	-0.0288846 	-0.00459564 	-0.0106364
0.0376954 	-0.0293407 	-0.00456177 	-0.0110349
0.0381363 	-0.0295645 	-0.00459151 	-0.01116
0.0385772 	-0.0297882 	-0.00462125 	-0.0112852
0.039018 	-0.0300119 	-0.00465099 	-0.0114103
0.0394589 	-0.0302357 	-0.00468074 	-0.0115354
0.0398998 	-0.0304594 	-0.00471048 	-0.0116606
0.0403407 	-0.0306396 	-0.00473686 	-0.0117834
0.0407816 	-0.0308083 	-0.00476237 	-0.0119056
0.0412224 	-0.0309785 	-0.00478065 	-0.0120039
0.0416633 	-0.0311778 	-0.00472131 	-0.0118826
0.0421042 	-0.031377 	-0.00466198 	-0.0117614
0.0425451 	-0.0315713 	-0.00461514 	-0.0116176
0.042986 	-0.0317605 	-0.00458123 	-0.0114504
0.0434269 	-0.0319497 	-0.00454731 	-0.0112832
0.0438677 	-0.0321389 	-0.0045134 	-0.0111161
0.0443086 	-0.0323281 	-0.00447948 	-0.0109489
0.0447495 	-0.0324904 	-0.00443614 	-0.0108042
0.0451904 	-0.0325797 	-0.004379 	-0.0107305
0.0456313 	-0.0326689 	-0.00432186 	-0.0106568
0.0460721 	-0.0327581 	-0.00426472 	-0.0105831
0.046513 	-0.0328474 	-0.00420758 	-0.0105094
0.0469539 	-0.0329776 	-0.00413445 	-0.0104213
0.0473948 	-0.0331498 	-0.00404493 	-0.0103186
0.0478357 	-0.0332994 	-0.00395909 	-0.0102358
0.0482766 	-0.0331837 	-0.00393127 	-0.0103058
0.0487174 	-0.033068 	-0.00390345 	-0.0103758
0.0491583 	-0.0328831 	-0.00390707 	-0.0105429
0.0495992 	-0.0326635 	-0.00392645 	-0.0107586
0.0500401 	-0.0324439 	-0.00394584 	-0.0109743
0.050481 	-0.0322243 	-0.00396522 	-0.01119
0.0509218 	-0.0320047 	-0.00398461 	-0.0114057
0.0513627 	-0.0316414 	-0.00409711 	-0.0114331
0.0518036 	-0.0312586 	-0.00423626 	-0.0114013
0.0522445 	-0.0308758 	-0.00437541 	-0.0113695
0.0526854 	-0.0304929 	-0.00451456 	-0.0113377
0.0531263 	-0.0301101 	-0.00465371 	-0.0113059
0.0535671 	-0.0297273 	-0.00479286 	-0.0112741
0.054008 	-0.0293642 	-0.00493277 	-0.0111702
0.0544489 	-0.0290043 	-0.00507279 	-0.0110545
0.0548898 	-0.0286444 	-0.00521282 	-0.0109388
0.0553307 	-0.0282346 	-0.00536333 	-0.0106747
0.0557715 	-0.0278211 	-0.00551068 	-0.0104035
0.0562124 	-0.0274076 	-0.00565803 	-0.0101322
0.0566533 	-0.0270241 	-0.00577422 	-0.00983218
0.0570942 	-0.0266443 	-0.00588663 	-0.0095286
0.0575351 	-0.0262644 	-0.00599903 	-0.00922503
0.057976 	-0.0258846 	-0.00611144 	-0.00892145
0.0584168 	-0.0255047 	-0.00622385 	-0.00861788
0.0588577 	-0.0251248 	-0.00633625 	-0.0083143
0.0592986 	-0.0248871 	-0.00634772 	-0.00807345
0.0597395 	-0.0246688 	-0.00634896 	-0.00783897
0.0601804 	-0.0244505 	-0.0063502 	-0.00760449
0.0606212 	-0.0242322 	-0.00635144 	-0.00737002
0.0610621 	-0.0240139 	-0.00635268 	-0.00713554
0.061503 	-0.0237956 	-0.00635392 	-0.00690106
0.0619439 	-0.0235753 	-0.00637688 	-0.00668791
0.0623848 	-0.0233549 	-0.00640128 	-0.00647618
0.0628257 	-0.0231344 	-0.00642568 	-0.00626445
0.0632665 	-0.0230589 	-0.00646311 	-0.00605574
0.0637074 	-0.0229889 	-0.00650166 	-0.00584722
0.0641483 	-0.022919 	-0.00654021 	-0.0056387
0.0645892 	-0.0228606 	-0.00654979 	-0.00547184
0.0650301 	-0.0228023 	-0.00655902 	-0.00530549
0.0654709 	-0.0227441 	-0.00656826 	-0.00513914
0.0659118 	-0.0226858 	-0.00657749 	-0.00497279
0.0663527 	-0.0226275 	-0.00658672 	-0.00480644
0.0667936 	-0.0225689 	-0.00659794 	-0.00463669
0.0672345 	-0.0225067 	-0.00662403 	-0.00444035
0.0681162 	-0.0223824 	-0.00667622 	-0.00404766
0.0685571 	-0.0223203 	-0.00670232 	-0.00385131
0.068998 	-0.0222581 	-0.00672843 	-0.00365497
0.0694389 	-0.0221939 	-0.00675687 	-0.00346054
0.0698798 	-0.0220982 	-0.00682092 	-0.00329536
0.0703206 	-0.0220025 	-0.00688497 	-0.00313018
0.0707615 	-0.0219068 	-0.00694902 	-0.002965
0.0712024 	-0.0218111 	-0.00701307 	-0.00279982
0.0716433 	-0.0217154 	-0.00707712 	-0.00263464
0.0720842 	-0.0216198 	-0.00714117 	-0.00246946
0.0725251 	-0.0215241 	-0.00720522 	-0.00230428
0.0729659 	-0.0214284 	-0.00726927 	-0.0021391
0.0734068 	-0.0213327 	-0.00733332 	-0.00197392
0.0738477 	-0.021237 	-0.00739737 	-0.00180874
0.0742886 	-0.0211413 	-0.00746142 	-0.00164356
0.0747295 	-0.0210424 	-0.00752429 	-0.00148046
0.0751703 	-0.0209109 	-0.00757309 	-0.00133798
0.0756112 	-0.0207795 	-0.00762189 	-0.0011955
0.0760521 	-0.020648 	-0.00767069 	-0.00105301
0.076493 	-0.0205166 	-0.00771949 	-0.000910532
0.0778156 	-0.0201224 	-0.00786608 	-0.000483142
0.0782565 	-0.019991 	-0.00791496 	-0.000340685
0.0786974 	-0.0198597 	-0.00796384 	-0.000198227
0.0791383 	-0.0197283 	-0.00801272 	-5.57691e-05
0.0795792 	-0.0196028 	-0.0080605 	8.94447e-05
0.08002 	-0.0195501 	-0.00809449 	0.000269168
0.0804609 	-0.0194975 	-0.00812848 	0.000448891
0.0809018 	-0.0194449 	-0.00816247 	0.000628615
0.0813427 	-0.0193922 	-0.00819646 	0.000808338
0.0817836 	-0.0193396 	-0.00823045 	0.000988061
0.0822244 	-0.0192879 	-0.00823789 	0.00120755
0.0826653 	-0.0192371 	-0.00822566 	0.00145699
0.0831062 	-0.0191864 	-0.00821342 	0.00170643
0.0835471 	-0.0191356 	-0.00820119 	0.00195587
0.083988 	-0.0190849 	-0.00818895 	0.00220531
0.0844289 	-0.0190342 	-0.00817672 	0.00245475
0.0848697 	-0.0189047 	-0.00817514 	0.00262719
0.0853106 	-0.0187742 	-0.00817369 	0.00279862
0.0857515 	-0.0186437 	-0.00817224 	0.00297006
0.0861924 	-0.0185132 	-0.0081708 	0.00314149
0.0866333 	-0.0183827 	-0.00816935 	0.00331293
0.0870741 	-0.0182522 	-0.00816791 	0.00348436
0.100301 	-0.0135257 	-0.00568107 	0.00971299
0.108677 	-0.00586698 	-0.00149824 	0.00635117
0.109118 	-0.00516443 	-0.00124701 	0.00564699
0.109559 	-0.00446187 	-0.00099578 	0.00494281
0.11 	-0.00375932 	-0.000744547 	0.00423863
