/*--------------------------------*- C++ -*----------------------------------*\
| =========                 |                                                 |
| \\      /  F ield         | OpenFOAM: The Open Source CFD Toolbox           |
|  \\    /   O peration     | Version:  2212                                  |
|   \\  /    A nd           | Website:  www.openfoam.com                      |
|    \\/     M anipulation  |                                                 |
\*---------------------------------------------------------------------------*/
FoamFile
{
    version     2.0;
    format      ascii;
    arch        "LSB;label=64;scalar=64";
    class       volScalarField::Internal;
    location    "320";
    object      dGch4;
}
// * * * * * * * * * * * * * * * * * * * * * * * * * * * * * * * * * * * * * //

dimensions      [1 -3 -1 0 0 0 0];

value           nonuniform List<scalar> 
1024
(
0.0010647
0.00106502
0.0010658
0.00106712
0.00106901
0.00107137
0.00107398
0.00107662
0.00107914
0.0010815
0.0010837
0.0010857
0.00108724
0.001088
0.00108787
0.00108657
0.00108402
0.00108061
0.00107679
0.00107274
0.0010685
0.00106408
0.00105948
0.00105472
0.00104995
0.00104545
0.0010415
0.00103832
0.00103599
0.00103446
0.0010336
0.00103325
0.00106475
0.00106509
0.0010659
0.00106728
0.00106923
0.00107163
0.00107425
0.00107687
0.00107937
0.00108171
0.00108392
0.00108594
0.00108751
0.00108827
0.00108813
0.00108683
0.00108429
0.0010809
0.00107713
0.00107311
0.0010689
0.00106453
0.00105995
0.00105521
0.00105043
0.00104588
0.00104186
0.0010386
0.0010362
0.00103462
0.00103373
0.00103336
0.00106486
0.00106523
0.00106609
0.00106756
0.00106959
0.00107204
0.00107467
0.00107727
0.00107973
0.00108206
0.00108433
0.00108647
0.00108814
0.00108892
0.00108873
0.00108737
0.00108482
0.00108147
0.00107776
0.00107381
0.00106968
0.00106539
0.00106089
0.0010562
0.00105142
0.0010468
0.00104264
0.00103922
0.00103666
0.00103497
0.00103402
0.00103363
0.00106501
0.0010654
0.00106632
0.00106787
0.00106998
0.00107247
0.00107509
0.00107764
0.00108008
0.00108247
0.00108488
0.0010873
0.00108922
0.00109004
0.00108974
0.00108822
0.00108558
0.00108224
0.00107859
0.00107474
0.00107073
0.00106657
0.0010622
0.00105761
0.00105286
0.00104817
0.00104383
0.00104017
0.0010374
0.00103555
0.00103451
0.00103409
0.00106516
0.00106556
0.00106652
0.0010681
0.00107025
0.00107274
0.00107532
0.00107784
0.0010803
0.00108279
0.00108548
0.00108834
0.00109071
0.00109165
0.00109116
0.00108934
0.00108648
0.00108307
0.00107946
0.00107571
0.00107185
0.00106786
0.00106368
0.00105926
0.0010546
0.00104985
0.00104534
0.00104143
0.0010384
0.00103635
0.00103519
0.00103472
0.00106525
0.00106566
0.00106661
0.00106817
0.00107028
0.00107272
0.00107524
0.00107772
0.00108021
0.00108287
0.00108594
0.00108943
0.00109245
0.00109362
0.00109286
0.00109057
0.00108735
0.00108377
0.00108015
0.00107649
0.00107279
0.001069
0.00106505
0.00106085
0.00105634
0.00105162
0.00104698
0.00104283
0.00103955
0.00103729
0.00103602
0.00103551
0.00106523
0.00106562
0.00106653
0.00106801
0.00107001
0.00107232
0.00107473
0.00107714
0.00107965
0.0010825
0.00108603
0.00109034
0.00109419
0.00109566
0.00109454
0.00109161
0.00108788
0.00108405
0.00108037
0.00107678
0.00107323
0.00106967
0.00106599
0.00106206
0.00105778
0.00105317
0.00104849
0.00104419
0.00104071
0.00103829
0.00103692
0.00103638
0.00106504
0.00106541
0.00106624
0.00106758
0.00106938
0.00107148
0.0010737
0.00107598
0.00107846
0.00108149
0.00108559
0.00109092
0.00109575
0.00109745
0.00109574
0.00109194
0.00108758
0.00108347
0.00107973
0.00107623
0.00107286
0.00106956
0.00106619
0.00106259
0.0010586
0.00105419
0.0010496
0.00104527
0.00104171
0.00103921
0.00103779
0.00103723
0.00106461
0.00106495
0.00106569
0.00106684
0.00106839
0.00107019
0.00107212
0.00107416
0.00107654
0.00107977
0.00108463
0.00109128
0.00109715
0.00109881
0.001096
0.00109092
0.00108581
0.00108144
0.00107773
0.0010744
0.00107131
0.00106834
0.00106537
0.00106217
0.00105856
0.00105446
0.00105008
0.00104588
0.00104239
0.00103993
0.00103852
0.00103797
0.00106386
0.00106418
0.00106482
0.00106577
0.00106701
0.00106843
0.00106997
0.00107168
0.00107392
0.00107746
0.00108342
0.00109175
0.00109865
0.00109972
0.001095
0.00108795
0.00108183
0.00107729
0.00107379
0.00107082
0.00106818
0.00106573
0.00106328
0.00106062
0.0010575
0.00105383
0.00104981
0.00104592
0.00104265
0.00104034
0.00103901
0.00103848
0.00106268
0.00106297
0.00106353
0.0010643
0.00106521
0.00106622
0.00106732
0.00106866
0.0010708
0.0010749
0.00108249
0.00109287
0.00110059
0.00110026
0.00109253
0.00108255
0.00107501
0.00107038
0.00106735
0.00106505
0.00106314
0.00106144
0.00105975
0.00105779
0.00105532
0.00105225
0.00104877
0.00104534
0.00104245
0.00104038
0.00103917
0.00103867
0.00106086
0.00106116
0.00106166
0.00106229
0.00106295
0.00106359
0.00106427
0.00106532
0.00106759
0.00107281
0.00108271
0.00109533
0.00110325
0.00110034
0.00108835
0.00107442
0.001065
0.00106031
0.00105805
0.00105677
0.00105595
0.00105533
0.00105466
0.00105365
0.00105203
0.00104973
0.00104695
0.00104413
0.0010417
0.00103994
0.00103888
0.00103842
0.00105813
0.00105842
0.00105892
0.00105949
0.00106003
0.00106047
0.00106096
0.00106205
0.0010651
0.00107243
0.00108541
0.0011
0.00110676
0.00109958
0.00108206
0.00106346
0.00105182
0.00104717
0.00104592
0.001046
0.0010466
0.00104739
0.00104804
0.00104824
0.00104771
0.0010464
0.00104451
0.00104243
0.00104054
0.0010391
0.00103818
0.00103775
0.00105418
0.00105444
0.00105492
0.0010555
0.00105608
0.00105667
0.00105758
0.00105978
0.0010652
0.00107627
0.00109276
0.0011078
0.00111074
0.00109716
0.00107327
0.00104994
0.00103621
0.00103173
0.00103162
0.0010332
0.00103544
0.00103786
0.00104005
0.00104162
0.00104231
0.00104207
0.00104111
0.00103979
0.00103847
0.00103738
0.00103661
0.00103623
0.00105025
0.00105042
0.00105079
0.00105138
0.00105228
0.00105376
0.00105654
0.0010621
0.00107243
0.0010885
0.00110699
0.00111856
0.00111379
0.00109211
0.00106229
0.00103537
0.00102009
0.00101582
0.00101666
0.00101958
0.00102338
0.00102748
0.00103139
0.00103462
0.00103682
0.00103786
0.00103791
0.00103729
0.00103639
0.00103549
0.00103478
0.00103439
0.00105217
0.00105231
0.00105275
0.00105376
0.00105581
0.00105965
0.00106644
0.00107746
0.00109329
0.0011119
0.00112692
0.00112922
0.001114
0.00108522
0.00105219
0.00102378
0.00100745
0.00100295
0.00100423
0.00100795
0.00101272
0.00101782
0.00102265
0.00102673
0.0010297
0.00103152
0.00103234
0.00103242
0.00103204
0.00103144
0.00103088
0.00103053
0.00106602
0.00106636
0.00106737
0.00106958
0.00107379
0.00108099
0.00109206
0.00110706
0.00112418
0.00113888
0.00114452
0.00113605
0.00111418
0.00108415
0.00105187
0.00102306
0.00100484
0.00099909
0.00100033
0.00100467
0.00101021
0.00101591
0.00102111
0.00102534
0.00102834
0.00103002
0.00103048
0.00103001
0.00102905
0.00102802
0.00102723
0.00102682
0.001085
0.0010856
0.00108731
0.00109082
0.00109696
0.00110651
0.0011196
0.00113495
0.00114935
0.0011582
0.00115763
0.00114668
0.00112685
0.00110027
0.00106959
0.00103905
0.0010162
0.00100596
0.00100439
0.00100694
0.001011
0.00101504
0.0010182
0.00102011
0.00102076
0.00102053
0.00102
0.00101979
0.00102024
0.00102124
0.00102229
0.0010229
0.00110061
0.00110142
0.00110364
0.00110802
0.00111531
0.00112594
0.00113942
0.00115391
0.00116634
0.00117362
0.00117401
0.00116729
0.00115359
0.00113291
0.0011059
0.00107493
0.00104658
0.0010282
0.00101897
0.00101475
0.00101317
0.00101298
0.0010138
0.00101576
0.00101926
0.0010247
0.00103221
0.00104129
0.00105067
0.00105871
0.00106414
0.00106662
0.00111066
0.00111158
0.00111406
0.00111881
0.00112649
0.00113731
0.0011506
0.00116461
0.00117706
0.00118604
0.00119071
0.00119078
0.00118556
0.00117393
0.00115525
0.00113036
0.00110412
0.00108452
0.00107399
0.00107025
0.00107197
0.00107811
0.00108795
0.00110079
0.00111576
0.00113172
0.00114737
0.00116136
0.00117237
0.00117965
0.00118347
0.00118485
0.00111553
0.00111646
0.00111887
0.00112338
0.00113056
0.0011406
0.00115304
0.00116667
0.00117993
0.00119155
0.001201
0.00120798
0.00121158
0.00121028
0.00120283
0.0011895
0.00117418
0.00116428
0.00116351
0.00117115
0.00118616
0.00120652
0.00122987
0.00125375
0.00127575
0.00129399
0.00130707
0.00131436
0.00131643
0.00131498
0.0013124
0.00131071
0.00111703
0.0011179
0.00112007
0.00112405
0.00113031
0.00113906
0.00115007
0.00116266
0.00117595
0.00118927
0.00120235
0.0012149
0.00122598
0.00123384
0.00123682
0.00123471
0.00123071
0.00123152
0.00124079
0.00125805
0.00128145
0.0013078
0.00133378
0.00135666
0.00137474
0.0013874
0.00139467
0.00139708
0.00139571
0.0013921
0.0013882
0.00138583
0.00111688
0.00111763
0.00111948
0.00112285
0.00112813
0.00113555
0.00114508
0.00115642
0.00116918
0.00118314
0.00119828
0.00121454
0.0012311
0.00124607
0.00125726
0.00126365
0.0012671
0.00127342
0.00128656
0.00130608
0.00132932
0.00135275
0.00137353
0.00139014
0.00140258
0.0014114
0.00141723
0.00142045
0.00142136
0.00142046
0.00141865
0.00141723
0.00111698
0.00111748
0.00111885
0.00112149
0.00112582
0.0011321
0.00114046
0.0011509
0.00116337
0.00117789
0.00119452
0.00121317
0.00123319
0.00125295
0.00127001
0.00128249
0.0012905
0.00129841
0.00131071
0.00132779
0.00134715
0.00136575
0.00138169
0.00139459
0.00140501
0.00141351
0.00142031
0.00142528
0.0014283
0.00142949
0.00142935
0.0014288
0.00111985
0.00111986
0.0011204
0.00112207
0.00112542
0.00113086
0.00113868
0.00114903
0.00116201
0.00117765
0.00119581
0.00121624
0.00123826
0.00126053
0.00128099
0.00129744
0.0013084
0.00131654
0.00132643
0.00133962
0.00135459
0.00136913
0.00138201
0.00139318
0.00140314
0.0014122
0.00142024
0.00142677
0.00143133
0.00143381
0.0014346
0.00143449
0.00112855
0.00112777
0.00112706
0.00112746
0.00112987
0.00113495
0.00114306
0.00115434
0.00116873
0.00118597
0.00120565
0.00122723
0.00125002
0.00127294
0.00129445
0.00131264
0.00132525
0.00133335
0.00134105
0.00135067
0.0013618
0.00137311
0.00138369
0.0013935
0.00140284
0.00141189
0.00142045
0.0014279
0.00143355
0.00143701
0.00143846
0.00143862
0.00114601
0.00114423
0.00114213
0.00114133
0.00114322
0.00114865
0.00115791
0.00117081
0.00118689
0.00120551
0.00122597
0.00124761
0.00126978
0.00129171
0.00131237
0.00133032
0.00134319
0.00135102
0.00135715
0.00136404
0.0013721
0.00138068
0.00138917
0.00139743
0.00140562
0.00141387
0.00142201
0.00142954
0.00143568
0.0014398
0.00144177
0.00144217
0.00117423
0.00117157
0.00116867
0.00116761
0.00116999
0.00117655
0.00118724
0.00120146
0.00121838
0.0012371
0.00125685
0.00127701
0.00129707
0.00131655
0.00133483
0.00135095
0.00136283
0.00136999
0.00137492
0.00137985
0.00138553
0.0013918
0.00139827
0.00140479
0.00141144
0.0014183
0.00142532
0.00143214
0.00143808
0.0014424
0.00144472
0.00144533
0.00121414
0.00121128
0.00120917
0.00120957
0.00121348
0.00122126
0.00123254
0.00124656
0.00126242
0.00127929
0.00129649
0.00131355
0.00133014
0.00134599
0.00136079
0.00137395
0.00138383
0.00138983
0.0013937
0.00139716
0.00140104
0.00140538
0.00140998
0.00141474
0.00141968
0.00142486
0.00143031
0.00143583
0.00144096
0.001445
0.0014474
0.00144816
0.00126624
0.00126455
0.00126524
0.00126819
0.00127347
0.00128123
0.00129121
0.00130287
0.00131555
0.00132864
0.00134169
0.00135437
0.0013665
0.00137798
0.00138863
0.00139814
0.00140538
0.00140982
0.00141259
0.00141489
0.00141736
0.00142013
0.00142312
0.00142624
0.00142952
0.001433
0.00143671
0.00144062
0.00144446
0.00144773
0.00144988
0.00145068
0.00133166
0.00133265
0.00133611
0.00134013
0.00134484
0.00135054
0.00135725
0.00136475
0.00137269
0.00138076
0.00138869
0.00139631
0.00140354
0.00141032
0.00141659
0.0014222
0.00142651
0.00142918
0.00143082
0.00143212
0.00143346
0.00143497
0.0014366
0.00143832
0.00144012
0.00144204
0.00144411
0.00144633
0.00144863
0.00145072
0.00145225
0.00145291
0.0014123
0.00141337
0.00141539
0.00141725
0.00141913
0.00142121
0.00142353
0.00142608
0.00142874
0.00143142
0.00143404
0.00143655
0.00143891
0.00144112
0.00144316
0.00144498
0.00144639
0.00144727
0.0014478
0.00144821
0.00144864
0.0014491
0.00144961
0.00145015
0.00145071
0.00145131
0.00145196
0.00145265
0.00145339
0.00145409
0.00145465
0.00145492
)
;


// ************************************************************************* //
