/*--------------------------------*- C++ -*----------------------------------*\
| =========                 |                                                 |
| \\      /  F ield         | OpenFOAM: The Open Source CFD Toolbox           |
|  \\    /   O peration     | Version:  2212                                  |
|   \\  /    A nd           | Website:  www.openfoam.com                      |
|    \\/     M anipulation  |                                                 |
\*---------------------------------------------------------------------------*/
FoamFile
{
    version     2.0;
    format      ascii;
    arch        "LSB;label=64;scalar=64";
    class       volScalarField;
    location    "320";
    object      p;
}
// * * * * * * * * * * * * * * * * * * * * * * * * * * * * * * * * * * * * * //

dimensions      [0 2 -2 0 0 0 0];

internalField   nonuniform List<scalar> 
1024
(
0
-9.79164e-06
-1.77866e-05
-1.87134e-05
-1.15617e-05
7.17838e-06
4.63155e-05
0.00012015
0.0002481
0.000449667
0.000717694
0.00096139
0.00105915
0.000968257
0.000692979
0.000321685
-2.38898e-05
-0.000266656
-0.000416843
-0.000504911
-0.000552464
-0.000573723
-0.000578681
-0.000574581
-0.000566825
-0.000559194
-0.000553867
-0.000551166
-0.000549572
-0.000546987
-0.00054292
-0.000539231
-0.0928203
-0.0928318
-0.0928421
-0.0928473
-0.0928466
-0.0928353
-0.092804
-0.0927382
-0.0926191
-0.0924275
-0.0921704
-0.0919379
-0.0918385
-0.0919173
-0.0921816
-0.0925424
-0.0928796
-0.0931166
-0.0932623
-0.0933467
-0.0933911
-0.0934095
-0.0934119
-0.0934055
-0.0933956
-0.0933859
-0.0933784
-0.0933736
-0.0933704
-0.0933671
-0.0933627
-0.0933585
-0.199475
-0.199492
-0.199508
-0.199523
-0.199535
-0.199538
-0.199521
-0.199471
-0.199368
-0.199194
-0.198954
-0.198737
-0.198634
-0.198693
-0.198938
-0.199279
-0.199599
-0.199823
-0.199959
-0.200036
-0.200073
-0.200085
-0.200082
-0.20007
-0.200054
-0.200039
-0.200027
-0.200018
-0.200011
-0.200006
-0.2
-0.199994
-0.322052
-0.322074
-0.322101
-0.32213
-0.32216
-0.322183
-0.322186
-0.322156
-0.322075
-0.321923
-0.321702
-0.3215
-0.321394
-0.321429
-0.321648
-0.321962
-0.322256
-0.32246
-0.32258
-0.322643
-0.322669
-0.322671
-0.322657
-0.322635
-0.32261
-0.322586
-0.322565
-0.322548
-0.322535
-0.322526
-0.322516
-0.322508
-0.462951
-0.462976
-0.463013
-0.463058
-0.463108
-0.463152
-0.463178
-0.46317
-0.463111
-0.46298
-0.462778
-0.462587
-0.462476
-0.462488
-0.462682
-0.462965
-0.463228
-0.463405
-0.463504
-0.463548
-0.463558
-0.463544
-0.463516
-0.46348
-0.463441
-0.463402
-0.463368
-0.463339
-0.463317
-0.463301
-0.463287
-0.463275
-0.624917
-0.624943
-0.624986
-0.625043
-0.625109
-0.62517
-0.625213
-0.625224
-0.625184
-0.62507
-0.624883
-0.624698
-0.624582
-0.624575
-0.624745
-0.625001
-0.625233
-0.625381
-0.625455
-0.625478
-0.625468
-0.625436
-0.62539
-0.625336
-0.625278
-0.625222
-0.62517
-0.625126
-0.625092
-0.625067
-0.625047
-0.625032
-0.811078
-0.811102
-0.811145
-0.811207
-0.81128
-0.81135
-0.811404
-0.811427
-0.8114
-0.811299
-0.811122
-0.810939
-0.810816
-0.810795
-0.810945
-0.811177
-0.811384
-0.811506
-0.811555
-0.811556
-0.811526
-0.811476
-0.811411
-0.811338
-0.811261
-0.811186
-0.811115
-0.811055
-0.811007
-0.810972
-0.810946
-0.810928
-1.025
-1.02502
-1.02506
-1.02512
-1.02519
-1.02526
-1.02532
-1.02535
-1.02533
-1.02524
-1.02507
-1.02488
-1.02475
-1.02472
-1.02485
-1.02506
-1.02525
-1.02535
-1.02538
-1.02536
-1.02532
-1.02525
-1.02517
-1.02508
-1.02499
-1.0249
-1.02481
-1.02473
-1.02467
-1.02463
-1.0246
-1.02458
-1.27077
-1.27079
-1.27082
-1.27087
-1.27094
-1.271
-1.27106
-1.27109
-1.27107
-1.27099
-1.27082
-1.27064
-1.2705
-1.27046
-1.27058
-1.27077
-1.27093
-1.27102
-1.27103
-1.271
-1.27095
-1.27087
-1.27078
-1.27068
-1.27058
-1.27048
-1.27038
-1.2703
-1.27023
-1.27019
-1.27015
-1.27014
-1.55307
-1.55308
-1.5531
-1.55315
-1.55321
-1.55327
-1.55333
-1.55336
-1.55335
-1.55326
-1.5531
-1.55292
-1.55277
-1.55274
-1.55284
-1.55301
-1.55316
-1.55323
-1.55323
-1.5532
-1.55314
-1.55306
-1.55297
-1.55287
-1.55276
-1.55266
-1.55257
-1.55248
-1.55242
-1.55237
-1.55234
-1.55232
-1.87728
-1.87728
-1.87729
-1.87733
-1.87739
-1.87746
-1.87751
-1.87755
-1.87754
-1.87746
-1.87731
-1.87714
-1.877
-1.87697
-1.87706
-1.87721
-1.87734
-1.8774
-1.8774
-1.87736
-1.8773
-1.87723
-1.87714
-1.87705
-1.87696
-1.87686
-1.87678
-1.8767
-1.87664
-1.8766
-1.87657
-1.87656
-2.24957
-2.24956
-2.24957
-2.2496
-2.24966
-2.24973
-2.24979
-2.24983
-2.24982
-2.24976
-2.24964
-2.24949
-2.24938
-2.24937
-2.24947
-2.24961
-2.24973
-2.24977
-2.24977
-2.24973
-2.24968
-2.24961
-2.24954
-2.24946
-2.24938
-2.2493
-2.24923
-2.24916
-2.24911
-2.24907
-2.24905
-2.24905
-2.67707
-2.67706
-2.67707
-2.67708
-2.67712
-2.67718
-2.67724
-2.67728
-2.6773
-2.67726
-2.67719
-2.67711
-2.67707
-2.6771
-2.67721
-2.67736
-2.67746
-2.6775
-2.67749
-2.67746
-2.67742
-2.67736
-2.6773
-2.67724
-2.67718
-2.67712
-2.67706
-2.677
-2.67696
-2.67693
-2.67691
-2.67691
-3.16801
-3.168
-3.168
-3.168
-3.16802
-3.16805
-3.16809
-3.16813
-3.16815
-3.16817
-3.16818
-3.1682
-3.16825
-3.16836
-3.16851
-3.16866
-3.16877
-3.16881
-3.1688
-3.16878
-3.16874
-3.1687
-3.16866
-3.16861
-3.16856
-3.16851
-3.16846
-3.16841
-3.16837
-3.16835
-3.16834
-3.16834
-3.73189
-3.73188
-3.73187
-3.73187
-3.73187
-3.73188
-3.73189
-3.73192
-3.73197
-3.73204
-3.73214
-3.73226
-3.73241
-3.7326
-3.7328
-3.73297
-3.73309
-3.73314
-3.73314
-3.73313
-3.73311
-3.73308
-3.73305
-3.73301
-3.73296
-3.73291
-3.73285
-3.73279
-3.73275
-3.73273
-3.73272
-3.73272
-4.37966
-4.37965
-4.37965
-4.37964
-4.37964
-4.37963
-4.37964
-4.37967
-4.37974
-4.37985
-4.38001
-4.3802
-4.38043
-4.38068
-4.38092
-4.38113
-4.38128
-4.38136
-4.38138
-4.38137
-4.38136
-4.38133
-4.38129
-4.38123
-4.38116
-4.38107
-4.38099
-4.38091
-4.38086
-4.38083
-4.38083
-4.38083
-5.07239
-5.07239
-5.07239
-5.07238
-5.07238
-5.07237
-5.07238
-5.07242
-5.0725
-5.07263
-5.0728
-5.07301
-5.07327
-5.07354
-5.07382
-5.07407
-5.07427
-5.07437
-5.07441
-5.0744
-5.07437
-5.0743
-5.0742
-5.07408
-5.07393
-5.07379
-5.07366
-5.07356
-5.0735
-5.07347
-5.07347
-5.07348
-5.72041
-5.72041
-5.72041
-5.72041
-5.72041
-5.72041
-5.72043
-5.72047
-5.72054
-5.72066
-5.72082
-5.72102
-5.72126
-5.72152
-5.72179
-5.72205
-5.72227
-5.7224
-5.72244
-5.7224
-5.72231
-5.72216
-5.72197
-5.72174
-5.72151
-5.7213
-5.72114
-5.72102
-5.72096
-5.72094
-5.72095
-5.72096
-6.28466
-6.28466
-6.28466
-6.28466
-6.28466
-6.28467
-6.28469
-6.28473
-6.2848
-6.2849
-6.28503
-6.2852
-6.28539
-6.28561
-6.28584
-6.28607
-6.28626
-6.28638
-6.2864
-6.28633
-6.28617
-6.28594
-6.28565
-6.28534
-6.28505
-6.28481
-6.28464
-6.28454
-6.28451
-6.2845
-6.28452
-6.28453
-6.77597
-6.77597
-6.77597
-6.77598
-6.77598
-6.77599
-6.77602
-6.77606
-6.77612
-6.7762
-6.7763
-6.77643
-6.77657
-6.77673
-6.77689
-6.77705
-6.77718
-6.77725
-6.77724
-6.77715
-6.77695
-6.77668
-6.77634
-6.77598
-6.77565
-6.77541
-6.77527
-6.77523
-6.77523
-6.77525
-6.77527
-6.77527
-7.20377
-7.20377
-7.20378
-7.20378
-7.20379
-7.20381
-7.20383
-7.20387
-7.20392
-7.20399
-7.20407
-7.20415
-7.20425
-7.20435
-7.20445
-7.20453
-7.20458
-7.2046
-7.20458
-7.2045
-7.20433
-7.2041
-7.2038
-7.20348
-7.2032
-7.20299
-7.20288
-7.20285
-7.20287
-7.2029
-7.20292
-7.20293
-7.57625
-7.57625
-7.57625
-7.57626
-7.57628
-7.5763
-7.57632
-7.57636
-7.5764
-7.57645
-7.57651
-7.57657
-7.57663
-7.57669
-7.57674
-7.57676
-7.57676
-7.57674
-7.57672
-7.57669
-7.57661
-7.57648
-7.5763
-7.57608
-7.57587
-7.57569
-7.57556
-7.57548
-7.57546
-7.57546
-7.57547
-7.57549
-7.90051
-7.90051
-7.90052
-7.90053
-7.90055
-7.90057
-7.9006
-7.90063
-7.90067
-7.90072
-7.90077
-7.90081
-7.90085
-7.90088
-7.9009
-7.90089
-7.90085
-7.90081
-7.9008
-7.90082
-7.90083
-7.9008
-7.90072
-7.90058
-7.90041
-7.90022
-7.90005
-7.89992
-7.89984
-7.89981
-7.89982
-7.89984
-8.18279
-8.18279
-8.18279
-8.1828
-8.18282
-8.18284
-8.18288
-8.18292
-8.18296
-8.183
-8.18305
-8.18308
-8.18311
-8.18313
-8.18313
-8.1831
-8.18304
-8.18298
-8.18299
-8.18304
-8.1831
-8.18314
-8.18311
-8.18301
-8.18287
-8.1827
-8.18251
-8.18233
-8.1822
-8.18213
-8.18213
-8.18215
-8.4285
-8.4285
-8.4285
-8.42851
-8.42852
-8.42855
-8.42859
-8.42863
-8.42868
-8.42873
-8.42877
-8.42881
-8.42884
-8.42885
-8.42884
-8.4288
-8.42873
-8.42867
-8.42867
-8.42874
-8.42883
-8.42888
-8.42887
-8.42879
-8.42867
-8.42849
-8.42829
-8.42809
-8.42791
-8.4278
-8.42777
-8.42778
-8.6424
-8.6424
-8.6424
-8.6424
-8.6424
-8.64242
-8.64246
-8.64251
-8.64257
-8.64263
-8.64268
-8.64273
-8.64275
-8.64277
-8.64275
-8.64271
-8.64263
-8.64256
-8.64257
-8.64264
-8.64273
-8.64279
-8.64277
-8.64269
-8.64255
-8.64236
-8.64214
-8.6419
-8.64168
-8.64152
-8.64145
-8.64144
-8.82861
-8.82861
-8.8286
-8.82858
-8.82858
-8.82859
-8.82862
-8.82868
-8.82875
-8.82882
-8.82889
-8.82894
-8.82897
-8.82898
-8.82897
-8.82892
-8.82884
-8.82878
-8.82878
-8.82885
-8.82894
-8.82899
-8.82896
-8.82886
-8.82869
-8.82846
-8.82819
-8.8279
-8.82762
-8.82739
-8.82726
-8.82722
-8.99072
-8.99071
-8.99069
-8.99065
-8.99063
-8.99063
-8.99067
-8.99074
-8.99082
-8.99091
-8.99098
-8.99104
-8.99107
-8.99109
-8.99108
-8.99103
-8.99095
-8.99089
-8.99089
-8.99096
-8.99104
-8.99108
-8.99103
-8.99091
-8.9907
-8.99042
-8.99009
-8.98971
-8.98935
-8.98902
-8.9888
-8.98869
-9.13188
-9.13185
-9.1318
-9.13174
-9.13169
-9.13168
-9.13173
-9.13181
-9.1319
-9.132
-9.13208
-9.13215
-9.13219
-9.13221
-9.13219
-9.13215
-9.13207
-9.13201
-9.13202
-9.13208
-9.13215
-9.13218
-9.13212
-9.13198
-9.13174
-9.13142
-9.13101
-9.13054
-9.13005
-9.12957
-9.1292
-9.12897
-9.25486
-9.25477
-9.25465
-9.25454
-9.25447
-9.25446
-9.25451
-9.25461
-9.25471
-9.25482
-9.25491
-9.25498
-9.25503
-9.25505
-9.25504
-9.25499
-9.25492
-9.25486
-9.25487
-9.25493
-9.255
-9.25502
-9.25495
-9.25479
-9.25453
-9.25417
-9.25371
-9.25316
-9.25253
-9.25185
-9.25121
-9.25065
-9.36225
-9.36185
-9.36158
-9.36141
-9.36134
-9.36133
-9.3614
-9.3615
-9.36162
-9.36174
-9.36183
-9.36191
-9.36196
-9.36199
-9.36198
-9.36194
-9.36186
-9.36181
-9.36181
-9.36187
-9.36194
-9.36195
-9.36189
-9.36172
-9.36145
-9.36107
-9.36058
-9.35997
-9.35923
-9.35831
-9.3572
-9.35594
-9.45636
-9.4551
-9.4546
-9.45443
-9.45436
-9.45437
-9.45444
-9.45456
-9.45469
-9.45481
-9.45492
-9.455
-9.45505
-9.45508
-9.45507
-9.45503
-9.45496
-9.45491
-9.45491
-9.45497
-9.45504
-9.45505
-9.45498
-9.45482
-9.45455
-9.45417
-9.45367
-9.45303
-9.45221
-9.4511
-9.44949
-9.44723
)
;

boundaryField
{
    movingWall
    {
        type            calculated;
        value           nonuniform List<scalar> 
32
(
-9.49968
-9.49843
-9.49793
-9.49776
-9.49768
-9.49769
-9.49776
-9.49788
-9.49801
-9.49813
-9.49824
-9.49832
-9.49838
-9.49841
-9.4984
-9.49836
-9.49829
-9.49824
-9.49824
-9.4983
-9.49837
-9.49838
-9.49831
-9.49815
-9.49788
-9.4975
-9.497
-9.49636
-9.49554
-9.49443
-9.49282
-9.49056
)
;
    }
    fixedWalls
    {
        type            calculated;
        value           nonuniform List<scalar> 
64
(
6.93889e-18
-0.0928203
-0.199475
-0.322052
-0.462951
-0.624917
-0.811078
-1.025
-1.27077
-1.55307
-1.87728
-2.24957
-2.67707
-3.16801
-3.73189
-4.37966
-5.07239
-5.72041
-6.28466
-6.77597
-7.20377
-7.57625
-7.90051
-8.18279
-8.4285
-8.6424
-8.82861
-8.99072
-9.13188
-9.25486
-9.36225
-9.45636
-0.000539231
-0.0933585
-0.199994
-0.322508
-0.463275
-0.625032
-0.810928
-1.02458
-1.27014
-1.55232
-1.87656
-2.24905
-2.67691
-3.16834
-3.73272
-4.38083
-5.07348
-5.72096
-6.28453
-6.77527
-7.20293
-7.57549
-7.89984
-8.18215
-8.42778
-8.64144
-8.82722
-8.98869
-9.12897
-9.25065
-9.35594
-9.44723
)
;
    }
    floor
    {
        type            calculated;
        value           nonuniform List<scalar> 
32
(
0.0431988
0.0431893
0.0431818
0.0431818
0.0431899
0.0432097
0.0432499
0.0433249
0.043454
0.0436571
0.0439269
0.0441722
0.0442696
0.044177
0.0439
0.0435269
0.0431799
0.0429361
0.0427851
0.0426964
0.0426482
0.0426264
0.042621
0.0426246
0.042632
0.0426392
0.0426441
0.0426464
0.0426476
0.04265
0.0426539
0.0426575
)
;
    }
    frontAndBack
    {
        type            empty;
    }
}


// ************************************************************************* //
