/*--------------------------------*- C++ -*----------------------------------*\
| =========                 |                                                 |
| \\      /  F ield         | OpenFOAM: The Open Source CFD Toolbox           |
|  \\    /   O peration     | Version:  2212                                  |
|   \\  /    A nd           | Website:  www.openfoam.com                      |
|    \\/     M anipulation  |                                                 |
\*---------------------------------------------------------------------------*/
FoamFile
{
    version     2.0;
    format      ascii;
    arch        "LSB;label=64;scalar=64";
    class       volScalarField;
    location    "320";
    object      Sch4;
}
// * * * * * * * * * * * * * * * * * * * * * * * * * * * * * * * * * * * * * //

dimensions      [1 -3 0 0 0 0 0];

internalField   nonuniform List<scalar> 
1024
(
0.0405839
0.0405962
0.0406255
0.0406757
0.0407474
0.0408367
0.0409356
0.0410357
0.0411312
0.0412205
0.041304
0.0413798
0.0414383
0.0414676
0.0414628
0.0414141
0.0413178
0.041189
0.0410451
0.0408915
0.0407308
0.0405633
0.0403883
0.0402069
0.0400254
0.0398537
0.0397031
0.0395818
0.0394929
0.0394346
0.0394018
0.0393883
0.0405859
0.0405988
0.0406295
0.0406817
0.0407557
0.0408465
0.0409459
0.0410454
0.0411399
0.0412285
0.0413121
0.0413888
0.0414483
0.0414777
0.0414726
0.0414237
0.0413279
0.0412003
0.0410576
0.0409054
0.0407462
0.04058
0.0404062
0.0402256
0.0400436
0.0398703
0.039717
0.0395925
0.0395009
0.0394406
0.0394066
0.0393927
0.0405901
0.0406039
0.0406368
0.0406922
0.0407694
0.0408623
0.0409619
0.0410602
0.0411533
0.0412417
0.0413273
0.0414086
0.0414722
0.041502
0.0414951
0.041444
0.0413479
0.0412216
0.0410814
0.040932
0.0407757
0.0406127
0.0404419
0.0402633
0.0400813
0.0399052
0.0397467
0.039616
0.0395186
0.0394542
0.0394179
0.039403
0.0405958
0.0406105
0.0406455
0.0407039
0.040784
0.0408784
0.0409775
0.0410743
0.0411665
0.0412566
0.0413479
0.0414393
0.0415125
0.0415441
0.0415329
0.0414757
0.0413762
0.0412502
0.0411126
0.040967
0.0408153
0.0406574
0.0404917
0.0403171
0.0401363
0.0399573
0.039792
0.0396526
0.0395469
0.0394763
0.0394365
0.0394203
0.0406014
0.0406167
0.0406529
0.0407129
0.0407942
0.0408885
0.0409863
0.0410816
0.0411742
0.0412684
0.0413698
0.0414783
0.0415682
0.0416044
0.0415861
0.0415173
0.0414096
0.0412812
0.0411451
0.0410036
0.0408576
0.0407063
0.0405477
0.0403796
0.0402022
0.0400216
0.0398496
0.0397003
0.0395847
0.0395065
0.0394623
0.0394445
0.0406049
0.0406202
0.0406562
0.0407156
0.0407954
0.0408875
0.0409829
0.0410766
0.0411703
0.0412708
0.0413864
0.0415187
0.0416333
0.041678
0.0416498
0.0415632
0.0414416
0.041307
0.0411706
0.0410327
0.0408926
0.0407492
0.0405995
0.0404399
0.0402686
0.040089
0.0399121
0.039754
0.0396286
0.0395427
0.039494
0.0394745
0.0406041
0.0406189
0.0406531
0.0407093
0.0407848
0.0408721
0.040963
0.0410541
0.0411486
0.0412559
0.0413891
0.0415521
0.0416983
0.0417545
0.0417123
0.0416014
0.0414606
0.0413166
0.0411781
0.0410429
0.0409091
0.0407743
0.0406349
0.0404859
0.0403233
0.0401478
0.0399696
0.0398056
0.0396729
0.0395807
0.0395284
0.0395077
0.0405967
0.0406106
0.0406419
0.0406927
0.0407609
0.0408401
0.0409238
0.0410096
0.0411028
0.0412168
0.0413715
0.0415733
0.0417567
0.0418218
0.0417566
0.0416123
0.0414479
0.0412932
0.0411527
0.0410209
0.0408944
0.0407696
0.0406422
0.0405058
0.0403544
0.0401867
0.0400116
0.0398467
0.0397109
0.0396158
0.0395617
0.0395403
0.0405803
0.0405932
0.0406209
0.0406647
0.040723
0.0407908
0.0408633
0.0409401
0.0410294
0.0411508
0.0413342
0.041586
0.0418094
0.0418727
0.0417655
0.0415722
0.0413789
0.0412147
0.0410754
0.0409505
0.0408345
0.0407231
0.0406107
0.0404898
0.0403527
0.0401968
0.0400299
0.03987
0.0397369
0.0396431
0.0395896
0.0395683
0.0405517
0.0405637
0.0405878
0.0406239
0.0406704
0.0407239
0.0407816
0.0408458
0.0409296
0.0410624
0.0412874
0.0416032
0.041866
0.0419071
0.0417269
0.0414579
0.0412261
0.0410554
0.0409243
0.0408137
0.0407151
0.0406231
0.0405312
0.0404304
0.040312
0.0401726
0.0400198
0.0398714
0.0397469
0.0396588
0.0396082
0.0395878
0.0405064
0.0405178
0.0405388
0.0405677
0.0406022
0.04064
0.0406807
0.0407308
0.0408109
0.0409647
0.0412516
0.0416454
0.0419397
0.0419278
0.0416329
0.041252
0.0409658
0.0407913
0.0406784
0.0405934
0.0405228
0.0404597
0.0403965
0.0403228
0.0402293
0.0401125
0.0399801
0.0398495
0.0397391
0.0396603
0.0396142
0.0395951
0.0404373
0.0404484
0.0404676
0.0404912
0.040516
0.0405398
0.0405651
0.0406038
0.0406886
0.0408846
0.0412592
0.0417386
0.0420414
0.0419318
0.0414744
0.0409431
0.0405843
0.0404077
0.040324
0.040278
0.0402489
0.0402269
0.0402028
0.0401651
0.040104
0.0400165
0.0399108
0.0398033
0.0397109
0.0396438
0.0396034
0.0395858
0.040333
0.0403442
0.0403631
0.0403849
0.0404048
0.0404211
0.040439
0.0404794
0.0405935
0.0408694
0.041361
0.0419162
0.0421756
0.041904
0.0412365
0.0405264
0.0400832
0.0399076
0.0398625
0.0398678
0.039893
0.0399246
0.0399508
0.0399591
0.0399396
0.0398899
0.039818
0.0397386
0.0396667
0.0396118
0.0395766
0.0395601
0.0401822
0.0401923
0.0402105
0.0402325
0.0402544
0.0402762
0.04031
0.0403921
0.0405961
0.0410144
0.0416406
0.0422141
0.0423286
0.041813
0.0409029
0.0400132
0.0394898
0.0393206
0.0393184
0.0393809
0.0394683
0.039562
0.0396467
0.0397073
0.0397337
0.0397247
0.0396882
0.0396381
0.0395878
0.039546
0.0395169
0.0395022
0.0400315
0.040038
0.040052
0.0400745
0.0401084
0.040164
0.0402691
0.040479
0.0408697
0.0414795
0.0421831
0.0426255
0.0424467
0.0416216
0.0404854
0.0394593
0.0388779
0.038716
0.03875
0.0388629
0.0390093
0.0391669
0.0393167
0.0394406
0.0395247
0.0395646
0.0395663
0.0395428
0.0395085
0.0394743
0.0394473
0.0394323
0.0401041
0.0401094
0.0401261
0.0401645
0.0402422
0.0403879
0.040645
0.0410635
0.0416646
0.0423726
0.0429449
0.0430339
0.0424551
0.0413585
0.0400997
0.0390183
0.0383977
0.0382276
0.0382776
0.0384205
0.0386035
0.0387989
0.0389842
0.03914
0.0392538
0.0393232
0.0393544
0.0393574
0.0393427
0.0393201
0.0392984
0.0392852
0.0406343
0.040647
0.0406853
0.0407697
0.0409297
0.041203
0.0416238
0.042194
0.042845
0.0434039
0.0436179
0.0432937
0.0424591
0.0413138
0.0400847
0.0389894
0.0382982
0.0380812
0.0381297
0.0382962
0.0385081
0.0387259
0.0389244
0.0390861
0.0392008
0.039265
0.0392827
0.0392654
0.0392288
0.0391895
0.0391593
0.0391437
0.041361
0.0413841
0.0414492
0.0415827
0.0418163
0.0421793
0.042677
0.04326
0.0438066
0.044141
0.0441164
0.0436959
0.0429379
0.0419236
0.0407555
0.0395948
0.0387285
0.0383422
0.038285
0.038384
0.0385399
0.0386949
0.0388162
0.0388892
0.0389145
0.0389056
0.0388851
0.0388765
0.0388932
0.0389306
0.0389699
0.0389929
0.0419591
0.0419901
0.0420746
0.0422413
0.0425187
0.0429228
0.0434352
0.0439851
0.0444562
0.04473
0.044741
0.0444807
0.0439551
0.0431641
0.0421338
0.0409556
0.0398794
0.0391837
0.0388357
0.0386776
0.038619
0.0386125
0.0386438
0.0387182
0.0388509
0.0390573
0.0393421
0.0396873
0.040044
0.0403499
0.0405563
0.0406508
0.0423441
0.0423795
0.0424738
0.0426548
0.0429473
0.0433592
0.0438644
0.0443969
0.0448685
0.0452073
0.0453813
0.0453795
0.0451759
0.0447279
0.0440124
0.0430622
0.0420634
0.0413188
0.0409198
0.0407789
0.0408452
0.0410794
0.0414542
0.0419433
0.042514
0.0431225
0.0437194
0.0442535
0.0446739
0.0449521
0.0450981
0.0451508
0.0425314
0.0425669
0.0426586
0.0428307
0.0431044
0.0434872
0.043961
0.0444798
0.0449833
0.0454236
0.0457806
0.0460427
0.0461749
0.0461194
0.0458301
0.0453176
0.0447316
0.044354
0.0443253
0.0446171
0.0451901
0.0459673
0.0468589
0.0477708
0.0486114
0.0493086
0.049809
0.0500887
0.0501686
0.0501139
0.050016
0.0499519
0.0425893
0.0426225
0.0427054
0.0428574
0.0430963
0.0434301
0.0438503
0.0443303
0.0448363
0.0453429
0.0458394
0.0463149
0.0467327
0.0470269
0.0471341
0.047048
0.0468917
0.0469211
0.0472749
0.047934
0.0488284
0.0498355
0.0508286
0.0517036
0.0523954
0.0528796
0.0531579
0.0532503
0.053198
0.0530604
0.0529115
0.0528209
0.0425844
0.042613
0.0426837
0.0428124
0.043014
0.0432975
0.0436615
0.0440943
0.0445812
0.0451131
0.0456894
0.0463074
0.0469355
0.0475014
0.0479219
0.0481594
0.0482862
0.0485255
0.0490267
0.0497728
0.0506617
0.0515578
0.0523524
0.0529876
0.0534627
0.0537997
0.0540218
0.0541443
0.0541791
0.0541444
0.0540753
0.0540209
0.0425889
0.042608
0.0426601
0.0427613
0.0429267
0.0431668
0.0434865
0.0438853
0.0443614
0.0449153
0.0455486
0.0462586
0.0470198
0.0477691
0.0484145
0.0488849
0.049185
0.0494843
0.049953
0.0506058
0.0513464
0.0520577
0.0526672
0.0531599
0.0535571
0.0538811
0.0541399
0.0543291
0.054444
0.0544892
0.054484
0.0544628
0.0426988
0.0426992
0.0427198
0.0427837
0.042912
0.0431203
0.043419
0.0438145
0.0443103
0.0449065
0.0455988
0.0463769
0.0472146
0.048061
0.0488369
0.0494592
0.0498727
0.0501799
0.0505562
0.05106
0.0516324
0.0521883
0.0526802
0.0531065
0.053486
0.0538314
0.0541375
0.054386
0.0545594
0.054654
0.0546839
0.0546797
0.0430306
0.043001
0.0429743
0.0429897
0.0430823
0.0432765
0.0435865
0.0440172
0.0445663
0.0452238
0.0459733
0.0467954
0.0476626
0.0485344
0.0493514
0.0500411
0.050518
0.0508236
0.0511161
0.0514829
0.0519081
0.05234
0.0527444
0.0531185
0.0534744
0.0538192
0.054145
0.0544289
0.0546441
0.0547759
0.0548308
0.0548371
0.0436957
0.0436282
0.0435485
0.0435186
0.0435914
0.0437993
0.0441527
0.0446448
0.0452578
0.0459673
0.0467465
0.0475705
0.0484144
0.049249
0.0500343
0.0507157
0.0512034
0.0514991
0.0517311
0.0519934
0.0523009
0.0526287
0.0529527
0.0532679
0.0535803
0.0538943
0.0542046
0.0544913
0.0547252
0.0548818
0.0549569
0.0549721
0.0447704
0.0446693
0.0445593
0.0445198
0.0446111
0.044862
0.0452699
0.045812
0.0464563
0.0471696
0.0479217
0.048689
0.0494526
0.050194
0.0508893
0.0515018
0.0519522
0.0522228
0.0524094
0.0525966
0.0528133
0.0530526
0.0532994
0.0535482
0.0538017
0.0540631
0.0543305
0.05459
0.0548164
0.0549811
0.0550694
0.0550926
0.0462902
0.0461813
0.0461016
0.0461174
0.0462673
0.046564
0.0469942
0.0475284
0.0481326
0.048775
0.0494299
0.0500791
0.0507105
0.0513141
0.0518771
0.0523771
0.0527521
0.0529793
0.0531254
0.0532568
0.0534043
0.0535699
0.0537456
0.0539272
0.0541154
0.0543129
0.0545204
0.0547309
0.0549262
0.0550801
0.0551715
0.0552004
0.0482737
0.0482097
0.0482362
0.048349
0.0485509
0.0488468
0.0492274
0.0496716
0.0501544
0.0506528
0.0511493
0.051632
0.052094
0.0525307
0.052936
0.0532975
0.0535724
0.0537409
0.0538455
0.0539325
0.0540264
0.0541321
0.054246
0.0543653
0.0544903
0.0546227
0.0547642
0.0549131
0.0550594
0.0551841
0.0552659
0.0552962
0.0507647
0.0508025
0.0509344
0.0510879
0.0512677
0.0514851
0.0517409
0.0520263
0.0523288
0.0526359
0.0529377
0.0532279
0.0535029
0.0537611
0.0539999
0.0542133
0.0543769
0.0544781
0.05454
0.054589
0.0546402
0.0546975
0.0547597
0.0548253
0.0548942
0.0549673
0.0550461
0.0551309
0.0552182
0.0552981
0.0553562
0.0553813
0.0538351
0.053876
0.0539529
0.054024
0.0540956
0.0541747
0.0542634
0.0543603
0.0544617
0.0545638
0.0546636
0.0547589
0.0548489
0.054933
0.0550106
0.05508
0.0551334
0.0551666
0.0551868
0.0552024
0.0552184
0.0552363
0.0552557
0.0552762
0.0552977
0.0553205
0.055345
0.0553716
0.0553995
0.0554263
0.0554475
0.055458
)
;

boundaryField
{
    movingWall
    {
        type            fixedValue;
        value           uniform 0.0555;
    }
    fixedWalls
    {
        type            zeroGradient;
    }
    floor
    {
        type            zeroGradient;
    }
    frontAndBack
    {
        type            empty;
    }
}


// ************************************************************************* //
