/*--------------------------------*- C++ -*----------------------------------*\
| =========                 |                                                 |
| \\      /  F ield         | OpenFOAM: The Open Source CFD Toolbox           |
|  \\    /   O peration     | Version:  2212                                  |
|   \\  /    A nd           | Website:  www.openfoam.com                      |
|    \\/     M anipulation  |                                                 |
\*---------------------------------------------------------------------------*/
FoamFile
{
    version     2.0;
    format      ascii;
    arch        "LSB;label=64;scalar=64";
    class       volScalarField::Internal;
    location    "330";
    object      dGco2;
}
// * * * * * * * * * * * * * * * * * * * * * * * * * * * * * * * * * * * * * //

dimensions      [1 -3 -1 0 0 0 0];

value           nonuniform List<scalar> 
1024
(
0.000172664
0.000172698
0.00017278
0.000172921
0.000173123
0.000173376
0.000173657
0.000173942
0.000174214
0.000174472
0.000174722
0.000174965
0.000175178
0.000175301
0.000175282
0.000175112
0.000174823
0.00017449
0.000174145
0.000173783
0.00017339
0.000172945
0.000172428
0.000171834
0.000171182
0.000170522
0.000169913
0.000169407
0.000169028
0.000168775
0.000168632
0.000168573
0.000172669
0.000172705
0.00017279
0.000172936
0.000173144
0.0001734
0.000173682
0.000173964
0.000174232
0.000174487
0.000174736
0.00017498
0.000175197
0.000175322
0.000175299
0.000175124
0.000174833
0.0001745
0.000174158
0.000173802
0.000173416
0.00017298
0.000172474
0.00017189
0.000171243
0.000170582
0.000169966
0.000169449
0.00016906
0.0001688
0.000168652
0.000168591
0.00017268
0.000172718
0.000172809
0.000172963
0.000173179
0.00017344
0.00017372
0.000173995
0.000174255
0.000174505
0.000174755
0.000175008
0.00017524
0.00017537
0.000175337
0.000175146
0.000174845
0.000174512
0.000174176
0.000173831
0.000173461
0.000173045
0.000172561
0.000171998
0.000171366
0.000170705
0.000170077
0.00016954
0.00016913
0.000168854
0.000168698
0.000168633
0.000172693
0.000172734
0.000172831
0.000172992
0.000173215
0.000173477
0.00017375
0.000174014
0.000174264
0.00017451
0.000174768
0.000175044
0.00017531
0.000175454
0.000175401
0.000175174
0.000174849
0.00017451
0.000174181
0.000173852
0.000173506
0.000173121
0.000172672
0.000172144
0.000171537
0.000170883
0.000170242
0.000169679
0.00016924
0.000168942
0.000168773
0.000168703
0.000172706
0.000172748
0.000172848
0.000173013
0.000173235
0.000173491
0.000173753
0.000174001
0.000174239
0.000174483
0.000174759
0.000175078
0.000175404
0.000175576
0.000175488
0.000175198
0.000174825
0.00017447
0.000174148
0.00017384
0.000173525
0.000173179
0.000172778
0.000172298
0.000171728
0.000171092
0.000170443
0.000169854
0.000169384
0.00016906
0.000168875
0.0001688
0.00017271
0.000172752
0.000172851
0.000173012
0.000173225
0.000173467
0.000173708
0.000173937
0.000174161
0.000174407
0.000174713
0.0001751
0.000175518
0.000175734
0.000175593
0.000175198
0.000174747
0.000174361
0.000174043
0.00017376
0.000173483
0.000173186
0.000172841
0.00017242
0.000171901
0.000171295
0.00017065
0.000170043
0.000169546
0.000169198
0.000168998
0.000168918
0.000172698
0.000172738
0.000172831
0.00017298
0.000173174
0.000173391
0.000173604
0.000173806
0.000174013
0.000174264
0.000174611
0.000175096
0.000175643
0.000175917
0.000175698
0.000175147
0.000174574
0.00017414
0.000173824
0.000173571
0.00017334
0.000173101
0.000172822
0.000172469
0.000172013
0.000171451
0.000170825
0.000170215
0.000169702
0.000169339
0.00016913
0.000169047
0.000172661
0.000172699
0.000172782
0.000172911
0.000173077
0.000173258
0.000173433
0.0001736
0.000173783
0.000174037
0.00017444
0.000175058
0.000175776
0.000176119
0.000175781
0.000175003
0.000174258
0.000173753
0.000173439
0.000173225
0.000173055
0.000172887
0.000172685
0.000172411
0.000172026
0.000171521
0.000170931
0.000170338
0.000169829
0.000169465
0.000169254
0.00016917
0.000172592
0.000172627
0.000172698
0.000172803
0.000172932
0.000173067
0.000173194
0.000173315
0.000173467
0.000173724
0.0001742
0.000174998
0.000175933
0.000176342
0.00017582
0.000174721
0.000173735
0.000173139
0.000172831
0.000172674
0.000172584
0.000172508
0.0001724
0.000172217
0.000171915
0.00017148
0.000170945
0.00017039
0.000169906
0.000169557
0.000169354
0.000169273
0.000172477
0.00017251
0.00017257
0.000172651
0.00017274
0.000172823
0.000172893
0.00017296
0.000173073
0.000173335
0.000173915
0.000174957
0.000176153
0.0001766
0.000175795
0.000174253
0.000172943
0.000172231
0.000171941
0.000171868
0.00017189
0.000171933
0.000171943
0.00017187
0.000171666
0.000171316
0.000170854
0.000170359
0.000169921
0.000169602
0.000169415
0.000169339
0.000172301
0.000172333
0.000172386
0.000172446
0.000172499
0.000172532
0.000172543
0.000172552
0.000172626
0.000172909
0.000173648
0.000175012
0.000176494
0.000176905
0.000175678
0.000173549
0.000171824
0.000170975
0.000170723
0.00017077
0.000170942
0.000171141
0.0001713
0.000171361
0.000171274
0.000171028
0.000170658
0.000170244
0.000169869
0.000169591
0.000169425
0.000169355
0.000172036
0.00017207
0.000172122
0.000172172
0.000172202
0.000172197
0.000172159
0.000172119
0.000172171
0.000172523
0.000173518
0.000175292
0.000177035
0.000177253
0.000175407
0.000172546
0.000170333
0.00016934
0.000169154
0.000169361
0.000169727
0.000170122
0.000170463
0.000170685
0.00017074
0.000170618
0.00017036
0.000170041
0.000169741
0.000169511
0.000169369
0.000169305
0.000171627
0.000171666
0.000171726
0.000171783
0.000171812
0.000171795
0.000171736
0.000171682
0.000171774
0.00017232
0.000173741
0.000176003
0.000177861
0.000177583
0.00017486
0.000171155
0.000168447
0.00016734
0.000167258
0.000167664
0.000168258
0.000168882
0.000169436
0.000169849
0.000170072
0.0001701
0.000169976
0.000169768
0.000169549
0.000169368
0.000169246
0.000169186
0.000170967
0.000171008
0.000171076
0.000171149
0.000171199
0.00017121
0.000171196
0.000171246
0.00017159
0.000172639
0.000174747
0.00017745
0.000179002
0.000177719
0.000173839
0.000169288
0.000166198
0.000165067
0.000165131
0.000165751
0.000166585
0.000167451
0.000168234
0.000168855
0.00016926
0.000169449
0.000169461
0.000169365
0.000169227
0.000169094
0.000168994
0.000168941
0.000170164
0.000170187
0.000170234
0.0001703
0.000170384
0.000170504
0.000170731
0.000171242
0.000172341
0.000174364
0.000177244
0.000179856
0.000180218
0.000177287
0.000172139
0.000166985
0.000163784
0.000162761
0.000162984
0.000163787
0.000164825
0.000165912
0.000166928
0.000167781
0.000168407
0.000168787
0.000168953
0.000168964
0.00016889
0.000168787
0.000168694
0.00016864
0.000170557
0.00017057
0.000170615
0.000170726
0.000170967
0.000171438
0.000172295
0.000173737
0.000175932
0.000178791
0.000181557
0.000182672
0.000180717
0.000175889
0.000169922
0.000164745
0.000161772
0.000160945
0.000161288
0.000162186
0.000163332
0.000164546
0.000165697
0.000166677
0.000167411
0.000167887
0.000168141
0.000168232
0.000168218
0.000168151
0.000168074
0.000168024
0.000174002
0.000174059
0.000174216
0.000174546
0.000175155
0.000176177
0.000177743
0.000179889
0.00018242
0.000184703
0.00018562
0.00018408
0.000179965
0.000174371
0.000168706
0.000164027
0.00016131
0.000160599
0.000161019
0.000161979
0.000163161
0.000164376
0.000165497
0.000166436
0.000167138
0.000167588
0.000167803
0.00016783
0.000167738
0.000167603
0.000167485
0.000167421
0.000178794
0.00017891
0.000179203
0.00017976
0.00018068
0.000182041
0.000183842
0.000185881
0.000187678
0.000188483
0.000187594
0.000184853
0.000180703
0.000175766
0.000170645
0.000166041
0.000163006
0.000161969
0.000162197
0.000163015
0.000164025
0.000164987
0.000165757
0.000166265
0.000166505
0.000166527
0.000166432
0.000166336
0.00016632
0.000166397
0.000166508
0.00016658
0.000182587
0.000182734
0.000183103
0.000183783
0.000184853
0.00018633
0.000188094
0.000189836
0.000191068
0.000191294
0.000190258
0.000188004
0.000184707
0.000180558
0.000175847
0.000171063
0.000167193
0.000165051
0.000164249
0.000164076
0.000164166
0.000164332
0.000164538
0.000164834
0.000165314
0.000166075
0.00016717
0.000168558
0.00017006
0.000171387
0.000172304
0.000172729
0.000184993
0.000185155
0.000185564
0.000186318
0.000187486
0.000189055
0.000190865
0.000192602
0.000193882
0.000194411
0.000194076
0.000192873
0.000190782
0.000187778
0.000183951
0.0001796
0.000175562
0.00017289
0.000171707
0.000171493
0.000172073
0.000173295
0.000175092
0.000177388
0.000180072
0.00018297
0.000185846
0.000188461
0.000190596
0.000192058
0.000192858
0.000193157
0.000186281
0.000186446
0.000186865
0.00018764
0.000188842
0.000190468
0.000192381
0.000194322
0.000195995
0.000197195
0.000197839
0.000197874
0.000197183
0.000195638
0.000193239
0.000190235
0.000187434
0.000185987
0.00018632
0.000188155
0.000191347
0.000195513
0.000200236
0.000205057
0.00020954
0.000213296
0.000216073
0.000217721
0.000218322
0.000218182
0.000217766
0.000217472
0.000186856
0.000187012
0.000187407
0.000188135
0.000189274
0.000190844
0.000192767
0.00019487
0.000196943
0.000198824
0.000200424
0.000201653
0.000202342
0.000202286
0.000201408
0.000199939
0.000198712
0.000198944
0.000201102
0.000204936
0.000210065
0.000215794
0.000221423
0.000226379
0.00023031
0.000233058
0.00023467
0.000235246
0.000235001
0.000234276
0.000233483
0.000233
0.000187102
0.000187237
0.000187583
0.000188229
0.000189254
0.0001907
0.000192537
0.000194668
0.000196962
0.000199311
0.000201645
0.000203869
0.000205775
0.000207074
0.00020756
0.000207346
0.00020715
0.000208218
0.000211111
0.000215514
0.000220776
0.000226051
0.000230668
0.000234291
0.000236922
0.000238721
0.000239862
0.00024046
0.000240594
0.000240372
0.000239978
0.000239676
0.000187396
0.000187488
0.00018775
0.00018828
0.000189164
0.000190464
0.000192188
0.000194294
0.000196708
0.000199364
0.000202202
0.000205134
0.000207966
0.000210376
0.00021203
0.000212836
0.000213229
0.000214336
0.000216925
0.0002208
0.000225245
0.000229457
0.00023296
0.00023566
0.000237723
0.000239332
0.000240581
0.000241481
0.00024202
0.000242221
0.000242177
0.00024206
0.000188187
0.000188198
0.000188324
0.000188692
0.000189421
0.000190595
0.000192251
0.000194377
0.000196927
0.000199843
0.000203053
0.000206459
0.000209876
0.000213022
0.000215544
0.000217183
0.000218022
0.000218923
0.000220791
0.000223707
0.000227126
0.000230394
0.000233169
0.000235447
0.000237374
0.000239068
0.000240544
0.000241737
0.00024257
0.000243025
0.000243167
0.000243145
0.000189981
0.000189866
0.000189797
0.000189969
0.000190554
0.00019167
0.000193362
0.000195614
0.000198362
0.000201524
0.000205
0.000208671
0.000212368
0.000215855
0.00021884
0.000221029
0.000222242
0.000223007
0.000224219
0.000226197
0.000228667
0.000231168
0.000233427
0.000235422
0.000237237
0.000238945
0.000240536
0.000241915
0.000242961
0.000243603
0.000243872
0.000243903
0.000193238
0.000192967
0.000192692
0.000192699
0.000193223
0.0001944
0.000196248
0.000198698
0.000201643
0.000204961
0.000208529
0.000212221
0.000215896
0.000219374
0.000222436
0.000224832
0.000226264
0.000226991
0.00022777
0.000229031
0.000230727
0.000232584
0.000234383
0.000236069
0.000237679
0.000239255
0.000240787
0.000242194
0.000243339
0.000244107
0.000244477
0.000244553
0.000198275
0.000197866
0.000197486
0.000197492
0.000198124
0.000199483
0.000201518
0.000204104
0.000207094
0.000210347
0.000213743
0.000217174
0.000220532
0.000223696
0.000226517
0.000228807
0.000230259
0.000230962
0.000231495
0.000232276
0.000233391
0.000234706
0.000236064
0.000237399
0.000238719
0.000240045
0.000241378
0.00024266
0.000243775
0.000244585
0.000245021
0.000245136
0.000205253
0.000204813
0.000204584
0.000204852
0.000205746
0.000207281
0.000209358
0.000211837
0.000214579
0.000217462
0.000220389
0.000223282
0.000226071
0.000228683
0.000231024
0.000232967
0.000234252
0.000234882
0.000235266
0.000235746
0.000236448
0.000237327
0.000238283
0.000239258
0.000240245
0.000241256
0.000242298
0.000243343
0.000244308
0.000245067
0.000245517
0.00024566
0.000214286
0.00021404
0.000214271
0.000214947
0.000216035
0.000217519
0.000219327
0.000221363
0.00022353
0.000225748
0.000227954
0.0002301
0.000232146
0.000234052
0.000235763
0.000237201
0.000238179
0.000238672
0.00023894
0.000239227
0.000239644
0.000240187
0.000240798
0.000241438
0.000242097
0.000242779
0.000243494
0.000244236
0.000244961
0.000245576
0.000245979
0.000246129
0.000225605
0.000225803
0.000226467
0.000227262
0.000228184
0.000229259
0.000230468
0.000231773
0.000233128
0.00023449
0.000235828
0.000237117
0.000238337
0.000239468
0.000240485
0.000241346
0.000241941
0.000242247
0.000242406
0.000242557
0.000242774
0.000243061
0.000243391
0.000243742
0.000244106
0.000244485
0.000244885
0.000245309
0.000245742
0.000246136
0.000246423
0.000246547
0.00023956
0.000239753
0.000240121
0.000240475
0.000240835
0.000241224
0.000241644
0.000242088
0.000242542
0.000242995
0.000243437
0.000243861
0.00024426
0.000244629
0.000244961
0.000245243
0.000245439
0.000245541
0.000245593
0.00024564
0.000245706
0.000245794
0.000245897
0.000246007
0.00024612
0.000246239
0.000246363
0.000246497
0.000246635
0.000246768
0.000246872
0.000246924
)
;


// ************************************************************************* //
