/*--------------------------------*- C++ -*----------------------------------*\
| =========                 |                                                 |
| \\      /  F ield         | OpenFOAM: The Open Source CFD Toolbox           |
|  \\    /   O peration     | Version:  2212                                  |
|   \\  /    A nd           | Website:  www.openfoam.com                      |
|    \\/     M anipulation  |                                                 |
\*---------------------------------------------------------------------------*/
FoamFile
{
    version     2.0;
    format      ascii;
    arch        "LSB;label=64;scalar=64";
    class       volScalarField;
    location    "330";
    object      Gch4;
}
// * * * * * * * * * * * * * * * * * * * * * * * * * * * * * * * * * * * * * //

dimensions      [1 -3 0 0 0 0 0];

internalField   nonuniform List<scalar> 
1024
(
1.85236
1.85227
1.85205
1.85168
1.85114
1.85047
1.84972
1.84896
1.84824
1.84756
1.8469
1.84626
1.84569
1.84537
1.84543
1.84589
1.84667
1.84756
1.84848
1.84944
1.85048
1.85166
1.85304
1.85463
1.85637
1.85814
1.85978
1.86114
1.86216
1.86283
1.86322
1.86338
1.85235
1.85225
1.85203
1.85164
1.85109
1.8504
1.84965
1.84891
1.8482
1.84752
1.84686
1.84622
1.84564
1.84532
1.84538
1.84586
1.84665
1.84753
1.84844
1.84939
1.85041
1.85157
1.85292
1.85448
1.85621
1.85798
1.85963
1.86102
1.86207
1.86277
1.86316
1.86333
1.85232
1.85222
1.85198
1.85157
1.85099
1.8503
1.84956
1.84883
1.84814
1.84748
1.84681
1.84614
1.84553
1.84519
1.84529
1.84581
1.84662
1.84751
1.8484
1.84932
1.8503
1.8514
1.85269
1.85419
1.85588
1.85765
1.85934
1.86078
1.86188
1.86262
1.86304
1.86322
1.85228
1.85218
1.85192
1.85149
1.8509
1.8502
1.84948
1.84878
1.84812
1.84747
1.84678
1.84605
1.84535
1.84497
1.84512
1.84574
1.84662
1.84752
1.8484
1.84927
1.85019
1.85121
1.8524
1.8538
1.85543
1.85718
1.8589
1.86041
1.86159
1.86239
1.86284
1.86303
1.85225
1.85214
1.85188
1.85144
1.85085
1.85017
1.84947
1.84881
1.84819
1.84754
1.84681
1.84596
1.8451
1.84465
1.8449
1.84569
1.84669
1.84764
1.8485
1.84931
1.85015
1.85106
1.85212
1.8534
1.85492
1.85662
1.85836
1.85994
1.8612
1.86207
1.86257
1.86277
1.85224
1.85213
1.85187
1.85144
1.85087
1.85023
1.84959
1.84899
1.8484
1.84775
1.84694
1.84591
1.84481
1.84424
1.84463
1.84571
1.84693
1.84796
1.8488
1.84955
1.85028
1.85106
1.85197
1.85308
1.85446
1.85608
1.85781
1.85943
1.86077
1.8617
1.86224
1.86245
1.85228
1.85217
1.85192
1.85153
1.85101
1.85044
1.84987
1.84934
1.8488
1.84813
1.84721
1.84593
1.84448
1.84376
1.84437
1.84587
1.84741
1.84858
1.84942
1.85008
1.85068
1.8513
1.85203
1.85296
1.85417
1.85567
1.85734
1.85898
1.86035
1.86133
1.86189
1.86211
1.85237
1.85227
1.85205
1.85171
1.85127
1.8508
1.85033
1.8499
1.84941
1.84874
1.84768
1.84604
1.84413
1.84323
1.84416
1.84628
1.8483
1.84965
1.85048
1.85104
1.85147
1.8519
1.85242
1.85314
1.85415
1.85549
1.85706
1.85865
1.86001
1.86099
1.86156
1.86178
1.85256
1.85247
1.85228
1.852
1.85166
1.85131
1.85097
1.85066
1.85026
1.84958
1.84832
1.8462
1.84371
1.84264
1.84407
1.84706
1.84973
1.85134
1.85216
1.85255
1.85277
1.85295
1.85321
1.85367
1.85446
1.85561
1.85703
1.85852
1.85981
1.86075
1.86129
1.86151
1.85287
1.85278
1.85262
1.85241
1.85217
1.85196
1.85178
1.85161
1.85131
1.85062
1.84908
1.84631
1.84313
1.84195
1.84415
1.84834
1.85189
1.85382
1.85459
1.85476
1.85467
1.85452
1.85446
1.85462
1.85514
1.85606
1.85729
1.85861
1.85977
1.86063
1.86113
1.86133
1.85334
1.85326
1.85311
1.85296
1.85282
1.85273
1.85271
1.8527
1.85251
1.85176
1.8498
1.84617
1.84222
1.84113
1.84447
1.85025
1.85493
1.85723
1.8579
1.85775
1.85725
1.85668
1.85621
1.85601
1.85621
1.85685
1.85782
1.85892
1.85992
1.86066
1.8611
1.86129
1.85405
1.85396
1.85382
1.85369
1.85361
1.85363
1.85373
1.85385
1.85372
1.85279
1.85015
1.84542
1.84077
1.84021
1.84521
1.85296
1.85897
1.86167
1.86216
1.86157
1.86055
1.85945
1.85848
1.85784
1.85766
1.85796
1.85863
1.85947
1.86027
1.86088
1.86126
1.86143
1.85514
1.85504
1.85488
1.85473
1.85465
1.8547
1.85486
1.85501
1.85478
1.85334
1.84956
1.84353
1.83856
1.83933
1.84669
1.85672
1.86407
1.86708
1.86729
1.86617
1.86453
1.8628
1.86127
1.86011
1.85947
1.85936
1.85967
1.86021
1.86079
1.86127
1.8616
1.86175
1.85691
1.85681
1.85662
1.85643
1.85629
1.85627
1.85631
1.85619
1.85528
1.8525
1.84688
1.83966
1.8355
1.83897
1.84945
1.86176
1.87014
1.87322
1.87304
1.87134
1.86905
1.86667
1.86451
1.8628
1.86166
1.86112
1.86106
1.8613
1.86166
1.86201
1.86228
1.86242
1.85908
1.85902
1.85889
1.85872
1.85849
1.85817
1.85757
1.85622
1.85329
1.84789
1.8402
1.83321
1.83225
1.84016
1.85406
1.86799
1.87666
1.87944
1.87883
1.87664
1.8738
1.87082
1.86804
1.86569
1.86397
1.86291
1.86244
1.86239
1.86258
1.86285
1.86309
1.86324
1.85802
1.85799
1.85787
1.85757
1.85693
1.85567
1.85338
1.84952
1.84366
1.83601
1.82862
1.82565
1.83094
1.84397
1.86007
1.87405
1.88208
1.88432
1.88339
1.88094
1.87781
1.8745
1.87135
1.86866
1.86664
1.86533
1.86462
1.86436
1.86439
1.86456
1.86477
1.8649
1.8487
1.84855
1.84812
1.84724
1.84561
1.84288
1.83869
1.83296
1.8262
1.82012
1.81771
1.82191
1.83304
1.84813
1.8634
1.87599
1.88331
1.88521
1.88407
1.88145
1.87823
1.87492
1.87186
1.86929
1.86737
1.86613
1.86553
1.86545
1.86569
1.86605
1.86636
1.86654
1.83574
1.83543
1.83464
1.83315
1.8307
1.82706
1.82227
1.81685
1.81209
1.81001
1.81249
1.81993
1.83114
1.84444
1.85821
1.87056
1.8787
1.88146
1.88081
1.87858
1.87582
1.8732
1.8711
1.8697
1.86904
1.86896
1.8692
1.86946
1.8695
1.8693
1.86901
1.86882
1.8255
1.82511
1.82412
1.82231
1.81945
1.81553
1.81084
1.80624
1.80302
1.8025
1.80537
1.8115
1.82041
1.83158
1.84424
1.85707
1.86742
1.87313
1.87524
1.87566
1.87539
1.87491
1.87434
1.87353
1.87224
1.8702
1.86727
1.86356
1.85954
1.85599
1.85354
1.8524
1.81901
1.81858
1.81749
1.81548
1.81237
1.8082
1.8034
1.79881
1.79545
1.79412
1.7951
1.7984
1.80408
1.81219
1.82248
1.83416
1.84497
1.8521
1.85524
1.85578
1.8542
1.85091
1.84608
1.83992
1.83273
1.82497
1.81727
1.81026
1.80454
1.80062
1.79848
1.79768
1.81553
1.81509
1.81397
1.81191
1.8087
1.80437
1.79928
1.79414
1.78971
1.78657
1.78492
1.7849
1.78683
1.79104
1.79752
1.8056
1.81311
1.81698
1.81606
1.81112
1.80254
1.79136
1.7787
1.76577
1.75376
1.7437
1.73626
1.73185
1.73023
1.73061
1.73172
1.73251
1.81397
1.81355
1.8125
1.81055
1.80751
1.80332
1.79819
1.79259
1.78708
1.78209
1.77787
1.77465
1.77288
1.7731
1.77552
1.77951
1.78282
1.78219
1.77639
1.7661
1.75234
1.73697
1.72189
1.70861
1.6981
1.69075
1.68644
1.68491
1.68557
1.68751
1.68963
1.69092
1.81329
1.81293
1.812
1.81028
1.80754
1.80367
1.79876
1.79307
1.78695
1.7807
1.77449
1.7686
1.76357
1.76017
1.75894
1.75957
1.76012
1.75727
1.7495
1.73768
1.72357
1.70943
1.69707
1.6874
1.68038
1.6756
1.67258
1.671
1.67065
1.67124
1.67229
1.6731
1.81249
1.81224
1.81154
1.81012
1.80775
1.80427
1.79966
1.79403
1.78758
1.78049
1.77293
1.76513
1.75762
1.75124
1.74688
1.74479
1.74378
1.74081
1.73387
1.72347
1.71155
1.70027
1.69091
1.68371
1.67823
1.67398
1.67068
1.66831
1.66688
1.66635
1.66647
1.66678
1.81036
1.81033
1.80999
1.80901
1.80705
1.80391
1.79947
1.79379
1.78697
1.77919
1.77063
1.76156
1.75247
1.74412
1.73744
1.73311
1.73091
1.72851
1.72349
1.71566
1.7065
1.69775
1.69034
1.68428
1.67917
1.67469
1.67079
1.66765
1.66545
1.66425
1.66387
1.66393
1.80557
1.80587
1.80605
1.80559
1.80402
1.80103
1.7965
1.79048
1.78314
1.7747
1.76543
1.75565
1.74581
1.73654
1.72861
1.72282
1.71961
1.71758
1.71433
1.70902
1.7024
1.69571
1.68967
1.68437
1.67955
1.67503
1.67083
1.66719
1.66443
1.66274
1.66203
1.66194
1.79688
1.7976
1.79833
1.79831
1.7969
1.79375
1.78881
1.78227
1.77441
1.76556
1.75605
1.74621
1.73643
1.72717
1.71903
1.71267
1.70888
1.70695
1.70487
1.70148
1.69694
1.69197
1.68717
1.68268
1.67841
1.67423
1.67018
1.66647
1.66345
1.66142
1.66045
1.66024
1.78347
1.78456
1.78556
1.78554
1.78384
1.78021
1.77478
1.76788
1.75992
1.75124
1.74219
1.73305
1.72411
1.71569
1.70818
1.7021
1.69825
1.69638
1.69496
1.69287
1.68988
1.68636
1.68274
1.67918
1.67568
1.67216
1.66863
1.66525
1.66231
1.66017
1.65902
1.65872
1.7649
1.76606
1.76667
1.76594
1.76356
1.75946
1.75392
1.74732
1.74001
1.73233
1.72454
1.71683
1.7094
1.70244
1.69621
1.69105
1.68764
1.68597
1.68495
1.68366
1.68178
1.67943
1.67688
1.67428
1.67166
1.66898
1.66622
1.66345
1.66091
1.65891
1.65772
1.65734
1.74086
1.74151
1.74089
1.73909
1.73619
1.73223
1.72741
1.72199
1.71622
1.71031
1.70444
1.69872
1.69327
1.6882
1.68364
1.67982
1.67722
1.67591
1.6752
1.67443
1.67331
1.67186
1.67023
1.66852
1.66677
1.66496
1.66307
1.66111
1.6592
1.65757
1.65651
1.65612
1.71075
1.71022
1.70845
1.70633
1.70387
1.70101
1.69779
1.69432
1.69071
1.68708
1.68352
1.68009
1.67684
1.67382
1.67112
1.66883
1.66725
1.66643
1.66601
1.66561
1.66503
1.66426
1.66338
1.66244
1.66147
1.66047
1.65941
1.65829
1.65714
1.6561
1.65535
1.65502
1.67363
1.67312
1.67214
1.6712
1.67024
1.6692
1.66808
1.6669
1.66569
1.66448
1.66331
1.66218
1.66112
1.66013
1.65925
1.6585
1.65798
1.65771
1.65757
1.65744
1.65727
1.65703
1.65676
1.65647
1.65616
1.65585
1.65552
1.65517
1.6548
1.65445
1.65417
1.65404
)
;

boundaryField
{
    movingWall
    {
        type            fixedValue;
        value           uniform 1.6535;
    }
    fixedWalls
    {
        type            zeroGradient;
    }
    floor
    {
        type            zeroGradient;
    }
    frontAndBack
    {
        type            empty;
    }
}


// ************************************************************************* //
