/*--------------------------------*- C++ -*----------------------------------*\
| =========                 |                                                 |
| \\      /  F ield         | OpenFOAM: The Open Source CFD Toolbox           |
|  \\    /   O peration     | Version:  2206                                  |
|   \\  /    A nd           | Website:  www.openfoam.com                      |
|    \\/     M anipulation  |                                                 |
\*---------------------------------------------------------------------------*/
FoamFile
{
    version     2.0;
    format      ascii;
    arch        "LSB;label=64;scalar=64";
    class       volVectorField;
    location    "7200";
    object      U;
}
// * * * * * * * * * * * * * * * * * * * * * * * * * * * * * * * * * * * * * //

dimensions      [0 1 -1 0 0 0 0];

internalField   nonuniform List<vector> 
16
(
(3.03241e-08 -1.95381e-08 0)
(2.72797e-08 5.20267e-09 0)
(1.16587e-08 3.09425e-09 0)
(1.5482e-08 1.14715e-08 0)
(8.78395e-09 -3.86066e-08 0)
(7.28811e-09 1.57837e-08 0)
(-2.60577e-09 6.76926e-09 0)
(-2.89299e-10 1.6055e-08 0)
(-1.25874e-08 -3.63639e-08 0)
(-7.74781e-09 1.64016e-08 0)
(-2.47917e-09 1.08007e-08 0)
(-7.69628e-09 9.38786e-09 0)
(-2.6725e-08 -1.73023e-08 0)
(-2.66779e-08 5.63522e-09 0)
(-6.63454e-09 6.88968e-09 0)
(-7.54026e-09 4.90048e-09 0)
)
;

boundaryField
{
    movingWall
    {
        type            noSlip;
    }
    fixedWalls
    {
        type            noSlip;
    }
    frontAndBack
    {
        type            empty;
    }
}


// ************************************************************************* //
