/*--------------------------------*- C++ -*----------------------------------*\
| =========                 |                                                 |
| \\      /  F ield         | OpenFOAM: The Open Source CFD Toolbox           |
|  \\    /   O peration     | Version:  2212                                  |
|   \\  /    A nd           | Website:  www.openfoam.com                      |
|    \\/     M anipulation  |                                                 |
\*---------------------------------------------------------------------------*/
FoamFile
{
    version     2.0;
    format      ascii;
    arch        "LSB;label=64;scalar=64";
    class       surfaceScalarField;
    location    "0.43";
    object      phi;
}
// * * * * * * * * * * * * * * * * * * * * * * * * * * * * * * * * * * * * * //

dimensions      [0 3 -1 0 0 0 0];

oriented        oriented;

internalField   nonuniform List<scalar> 
65152
(
-6.12796e-13
6.12801e-13
-2.41987e-12
1.80708e-12
-4.83235e-12
2.41249e-12
-7.31011e-12
2.47776e-12
-9.58491e-12
2.27481e-12
-1.16114e-11
2.02645e-12
-1.34451e-11
1.83371e-12
-1.51561e-11
1.71103e-12
-1.67942e-11
1.63816e-12
-1.83858e-11
1.59159e-12
-1.99411e-11
1.55527e-12
-2.14618e-11
1.52072e-12
-2.29461e-11
1.48427e-12
-2.43907e-11
1.44465e-12
-2.57923e-11
1.40158e-12
-2.71474e-11
1.3551e-12
-2.84527e-11
1.30536e-12
-2.97052e-11
1.25248e-12
-3.09018e-11
1.19657e-12
-3.20395e-11
1.13772e-12
-3.31155e-11
1.076e-12
-3.4127e-11
1.01148e-12
-3.50712e-11
9.44227e-13
-3.59455e-11
8.74298e-13
-3.67472e-11
8.01735e-13
-3.74738e-11
7.26581e-13
-3.81227e-11
6.48885e-13
-3.86913e-11
5.68696e-13
-3.91774e-11
4.86069e-13
-3.95785e-11
4.01072e-13
-3.98923e-11
3.13801e-13
-4.01167e-11
2.24399e-13
-4.02498e-11
1.3315e-13
-4.02904e-11
4.05542e-14
-4.02361e-11
-5.42645e-14
-4.0087e-11
-1.4905e-13
-3.98426e-11
-2.44421e-13
-3.95026e-11
-3.40039e-13
-3.90668e-11
-4.35722e-13
-3.85355e-11
-5.31297e-13
-3.7909e-11
-6.26563e-13
-3.71876e-11
-7.21312e-13
-3.63723e-11
-8.15314e-13
-3.5464e-11
-9.08296e-13
-3.44641e-11
-9.99951e-13
-3.33741e-11
-1.08997e-12
-3.2196e-11
-1.17805e-12
-3.09322e-11
-1.26384e-12
-2.95851e-11
-1.34702e-12
-2.81579e-11
-1.42724e-12
-2.66537e-11
-1.50417e-12
-2.50762e-11
-1.57748e-12
-2.34294e-11
-1.64682e-12
-2.17175e-11
-1.71187e-12
-1.99452e-11
-1.77234e-12
-1.81172e-11
-1.82795e-12
-1.62388e-11
-1.87843e-12
-1.43152e-11
-1.92354e-12
-1.23522e-11
-1.96306e-12
-1.03554e-11
-1.99677e-12
-8.33098e-12
-2.02439e-12
-6.28541e-12
-2.04557e-12
-4.22555e-12
-2.05986e-12
-2.15864e-12
-2.0669e-12
-9.20962e-14
-2.06654e-12
1.96689e-12
-2.05898e-12
4.01179e-12
-2.0449e-12
6.03684e-12
-2.02504e-12
8.03649e-12
-1.99965e-12
1.00053e-11
-1.96885e-12
1.19381e-11
-1.93276e-12
1.38296e-11
-1.89147e-12
1.56747e-11
-1.84509e-12
1.74685e-11
-1.7938e-12
1.92063e-11
-1.7378e-12
2.08836e-11
-1.67732e-12
2.24962e-11
-1.61261e-12
2.40401e-11
-1.54393e-12
2.55117e-11
-1.47157e-12
2.69075e-11
-1.39583e-12
2.82246e-11
-1.31701e-12
2.946e-11
-1.23542e-12
3.06113e-11
-1.15138e-12
3.16765e-11
-1.06518e-12
3.26536e-11
-9.77116e-13
3.35411e-11
-8.87477e-13
3.43376e-11
-7.96509e-13
3.5042e-11
-7.04428e-13
3.56535e-11
-6.11429e-13
3.61712e-11
-5.177e-13
3.65946e-11
-4.23439e-13
3.69234e-11
-3.28831e-13
3.71575e-11
-2.34084e-13
3.7297e-11
-1.39516e-13
3.73427e-11
-4.5683e-14
3.72949e-11
4.77446e-14
3.71566e-11
1.3829e-13
3.69295e-11
2.27109e-13
3.66159e-11
3.13624e-13
3.62181e-11
3.9774e-13
3.57387e-11
4.79413e-13
3.51801e-11
5.58626e-13
3.45447e-11
6.3538e-13
3.3835e-11
7.09665e-13
3.30535e-11
7.81462e-13
3.22028e-11
8.50732e-13
3.12854e-11
9.17425e-13
3.03039e-11
9.81478e-13
2.9261e-11
1.04283e-12
2.81596e-11
1.10142e-12
2.70024e-11
1.15715e-12
2.57925e-11
1.20995e-12
2.45328e-11
1.25969e-12
2.32265e-11
1.30624e-12
2.1877e-11
1.34945e-12
2.04878e-11
1.38925e-12
1.90619e-11
1.4259e-12
1.76012e-11
1.4607e-12
1.61038e-11
1.49733e-12
1.45594e-11
1.5444e-12
1.29411e-11
1.61824e-12
1.11982e-11
1.74294e-12
9.25862e-12
1.93955e-12
7.06446e-12
2.19415e-12
4.65979e-12
2.40465e-12
2.31483e-12
2.34494e-12
5.71522e-13
1.74329e-12
5.71518e-13
-1.11121e-12
1.72402e-12
-3.82005e-12
4.51593e-12
-7.14987e-12
5.74231e-12
-1.03392e-11
5.66713e-12
-1.30504e-11
4.98596e-12
-1.52689e-11
4.24497e-12
-1.71198e-11
3.68461e-12
-1.87392e-11
3.33043e-12
-2.02241e-11
3.12306e-12
-2.16294e-11
2.99697e-12
-2.29814e-11
2.90728e-12
-2.42903e-11
2.82965e-12
-2.5559e-11
2.75293e-12
-2.6787e-11
2.67268e-12
-2.79729e-11
2.58743e-12
-2.91146e-11
2.4968e-12
-3.021e-11
2.40078e-12
-3.1257e-11
2.29948e-12
-3.22534e-11
2.19302e-12
-3.31971e-11
2.08146e-12
-3.4086e-11
1.96488e-12
-3.49179e-11
1.84337e-12
-3.56907e-11
1.71703e-12
-3.64023e-11
1.58591e-12
-3.70507e-11
1.45009e-12
-3.76337e-11
1.30963e-12
-3.81494e-11
1.16462e-12
-3.85959e-11
1.01515e-12
-3.89711e-11
8.61312e-13
-3.92732e-11
7.03211e-13
-3.95004e-11
5.40994e-13
-3.96509e-11
3.74844e-13
-3.97227e-11
2.04996e-13
-3.9714e-11
3.18494e-14
-3.96242e-11
-1.4409e-13
-3.94519e-11
-3.21331e-13
-3.91964e-11
-4.99839e-13
-3.88571e-11
-6.79379e-13
-3.84331e-11
-8.59698e-13
-3.79239e-11
-1.04053e-12
-3.7329e-11
-1.2214e-12
-3.66484e-11
-1.40193e-12
-3.58821e-11
-1.58163e-12
-3.50304e-11
-1.75995e-12
-3.40941e-11
-1.93625e-12
-3.30742e-11
-2.10989e-12
-3.1972e-11
-2.28027e-12
-3.07891e-11
-2.44668e-12
-2.95277e-11
-2.60839e-12
-2.81902e-11
-2.76474e-12
-2.67794e-11
-2.91501e-12
-2.52983e-11
-3.05848e-12
-2.37507e-11
-3.19446e-12
-2.21403e-11
-3.32224e-12
-2.04715e-11
-3.44119e-12
-1.87487e-11
-3.55072e-12
-1.69769e-11
-3.6502e-12
-1.51613e-11
-3.73911e-12
-1.33074e-11
-3.81699e-12
-1.14208e-11
-3.88334e-12
-9.50759e-12
-3.93761e-12
-7.57394e-12
-3.97921e-12
-5.6263e-12
-4.0075e-12
-3.67113e-12
-4.02205e-12
-1.7148e-12
-4.02287e-12
2.36647e-13
-4.01042e-12
2.1772e-12
-3.98545e-12
4.10111e-12
-3.94895e-12
6.00313e-12
-3.90166e-12
7.87818e-12
-3.8439e-12
9.72124e-12
-3.77582e-12
1.15275e-11
-3.69768e-12
1.32921e-11
-3.60972e-12
1.50106e-11
-3.51232e-12
1.66787e-11
-3.40585e-12
1.82922e-11
-3.29081e-12
1.98472e-11
-3.16765e-12
2.13403e-11
-3.03698e-12
2.2768e-11
-2.89934e-12
2.41275e-11
-2.75532e-12
2.5416e-11
-2.60554e-12
2.66312e-11
-2.45055e-12
2.77708e-11
-2.29103e-12
2.88332e-11
-2.12752e-12
2.98166e-11
-1.9606e-12
3.072e-11
-1.79083e-12
3.15422e-11
-1.61872e-12
3.22825e-11
-1.44472e-12
3.29403e-11
-1.26927e-12
3.35153e-11
-1.09274e-12
3.40075e-11
-9.15625e-13
3.4417e-11
-7.38297e-13
3.47441e-11
-5.61198e-13
3.49894e-11
-3.84872e-13
3.51534e-11
-2.09612e-13
3.52369e-11
-3.57885e-14
3.52409e-11
1.34228e-13
3.51677e-11
3.00296e-13
3.50194e-11
4.61992e-13
3.47978e-11
6.19299e-13
3.4505e-11
7.72182e-13
3.4143e-11
9.20655e-13
3.37136e-11
1.06472e-12
3.32189e-11
1.20436e-12
3.26608e-11
1.33954e-12
3.20413e-11
1.47023e-12
3.13624e-11
1.59636e-12
3.0626e-11
1.71787e-12
2.98341e-11
1.83467e-12
2.89888e-11
1.94673e-12
2.8092e-11
2.05389e-12
2.71459e-11
2.15608e-12
2.61524e-11
2.2532e-12
2.51135e-11
2.34507e-12
2.40313e-11
2.43167e-12
2.29072e-11
2.51334e-12
2.17415e-11
2.59155e-12
2.05314e-11
2.67073e-12
1.92666e-11
2.76217e-12
1.79204e-11
2.89052e-12
1.64372e-11
3.10145e-12
1.47181e-11
3.462e-12
1.2624e-11
4.0337e-12
1.00256e-11
4.79246e-12
6.93488e-12
5.49538e-12
3.69179e-12
5.58801e-12
1.06139e-12
4.37368e-12
1.6329e-12
-1.01387e-12
2.73789e-12
-3.38712e-12
6.88919e-12
-6.1515e-12
8.5067e-12
-8.60357e-12
8.11921e-12
-1.04672e-11
6.84963e-12
-1.17743e-11
5.55208e-12
-1.26799e-11
4.59016e-12
-1.33387e-11
3.9892e-12
-1.38592e-11
3.64364e-12
-1.43042e-11
3.44193e-12
-1.47049e-11
3.30804e-12
-1.50757e-11
3.20047e-12
-1.54226e-11
3.09983e-12
-1.57481e-11
2.9981e-12
-1.60529e-11
2.8923e-12
-1.63376e-11
2.7815e-12
-1.66023e-11
2.66546e-12
-1.68469e-11
2.54412e-12
-1.70715e-11
2.41757e-12
-1.72758e-11
2.28583e-12
-1.74599e-11
2.14898e-12
-1.76236e-11
2.00705e-12
-1.77666e-11
1.86006e-12
-1.78889e-11
1.70819e-12
-1.79902e-11
1.55145e-12
-1.80705e-11
1.3899e-12
-1.81296e-11
1.2237e-12
-1.81673e-11
1.05291e-12
-1.81838e-11
8.77738e-13
-1.81789e-11
6.98329e-13
-1.81529e-11
5.14988e-13
-1.81059e-11
3.27884e-13
-1.80383e-11
1.3746e-13
-1.79505e-11
-5.59722e-14
-1.78423e-11
-2.52291e-13
-1.77125e-11
-4.51097e-13
-1.75603e-11
-6.52047e-13
-1.73847e-11
-8.54952e-13
-1.71848e-11
-1.05962e-12
-1.69601e-11
-1.26526e-12
-1.67098e-11
-1.47167e-12
-1.64335e-11
-1.67823e-12
-1.61308e-11
-1.88434e-12
-1.58014e-11
-2.08927e-12
-1.54453e-11
-2.29241e-12
-1.50622e-11
-2.49297e-12
-1.46523e-11
-2.69014e-12
-1.42158e-11
-2.88312e-12
-1.37531e-11
-3.0711e-12
-1.32647e-11
-3.25318e-12
-1.27511e-11
-3.42853e-12
-1.22134e-11
-3.59624e-12
-1.16524e-11
-3.75546e-12
-1.10693e-11
-3.90534e-12
-1.04654e-11
-4.04501e-12
-9.84247e-12
-4.17369e-12
-9.202e-12
-4.29066e-12
-8.54589e-12
-4.39521e-12
-7.8762e-12
-4.48667e-12
-7.19502e-12
-4.56451e-12
-6.50441e-12
-4.62821e-12
-5.80635e-12
-4.67726e-12
-5.10257e-12
-4.71128e-12
-4.39449e-12
-4.73012e-12
-3.68335e-12
-4.734e-12
-2.97025e-12
-4.72351e-12
-2.2563e-12
-4.69939e-12
-1.5429e-12
-4.66235e-12
-8.31665e-13
-4.61289e-12
-1.24252e-13
-4.5513e-12
5.7776e-13
-4.47783e-12
1.27276e-12
-4.39268e-12
1.9593e-12
-4.29626e-12
2.63589e-12
-4.1889e-12
3.30119e-12
-4.07115e-12
3.95391e-12
-3.94352e-12
4.59292e-12
-3.80667e-12
5.21704e-12
-3.6611e-12
5.82521e-12
-3.50751e-12
6.41646e-12
-3.34657e-12
6.98985e-12
-3.17892e-12
7.54463e-12
-3.00533e-12
8.07994e-12
-2.82634e-12
8.59509e-12
-2.64268e-12
9.08947e-12
-2.45499e-12
9.56251e-12
-2.26387e-12
1.00137e-11
-2.06992e-12
1.04427e-11
-1.87368e-12
1.08491e-11
-1.67568e-12
1.12329e-11
-1.47654e-12
1.15939e-11
-1.27667e-12
1.19323e-11
-1.07676e-12
1.22485e-11
-8.77399e-13
1.2543e-11
-6.79314e-13
1.28166e-11
-4.83199e-13
1.30702e-11
-2.89432e-13
1.3303e-11
-9.85541e-14
1.35142e-11
8.90039e-14
1.37035e-11
2.7269e-13
1.38708e-11
4.52063e-13
1.40158e-11
6.27125e-13
1.41387e-11
7.97763e-13
1.42394e-11
9.63988e-13
1.43181e-11
1.12568e-12
1.43748e-11
1.28284e-12
1.44095e-11
1.43544e-12
1.44225e-11
1.58343e-12
1.44135e-11
1.72677e-12
1.43828e-11
1.86535e-12
1.43304e-11
1.99916e-12
1.42562e-11
2.12812e-12
1.41601e-11
2.25217e-12
1.40421e-11
2.37116e-12
1.3902e-11
2.48512e-12
1.37395e-11
2.5942e-12
1.35535e-11
2.69926e-12
1.33417e-11
2.80333e-12
1.3098e-11
2.91442e-12
1.28081e-11
3.05209e-12
1.24402e-11
3.25841e-12
1.19309e-11
3.61073e-12
1.11698e-11
4.22303e-12
9.99919e-12
5.20432e-12
8.25987e-12
6.53176e-12
5.91711e-12
7.83812e-12
3.24861e-12
8.2565e-12
9.60466e-13
6.6618e-12
2.59336e-12
-9.15871e-13
3.65377e-12
-3.03607e-12
9.0094e-12
-5.42771e-12
1.08983e-11
-7.42642e-12
1.01179e-11
-8.79356e-12
8.21679e-12
-9.58708e-12
6.3456e-12
-9.97615e-12
4.97924e-12
-1.01217e-11
4.13474e-12
-1.01347e-11
3.65661e-12
-1.00786e-11
3.38586e-12
-9.98574e-12
3.21521e-12
-9.87129e-12
3.08604e-12
-9.74219e-12
2.97073e-12
-9.602e-12
2.85792e-12
-9.4527e-12
2.74302e-12
-9.29586e-12
2.62466e-12
-9.1327e-12
2.5023e-12
-8.96436e-12
2.37579e-12
-8.79181e-12
2.24502e-12
-8.61603e-12
2.11006e-12
-8.43789e-12
1.97085e-12
-8.25832e-12
1.8275e-12
-8.07827e-12
1.68001e-12
-7.89841e-12
1.52833e-12
-7.71952e-12
1.37256e-12
-7.54234e-12
1.21273e-12
-7.36767e-12
1.04903e-12
-7.19621e-12
8.81455e-13
-7.02876e-12
7.10301e-13
-6.86615e-12
5.35725e-13
-6.70888e-12
3.57718e-13
-6.55787e-12
1.76882e-13
-6.41367e-12
-6.72789e-15
-6.27657e-12
-1.93065e-13
-6.14693e-12
-3.81931e-13
-6.0248e-12
-5.73223e-13
-5.90978e-12
-7.67058e-13
-5.80173e-12
-9.62996e-13
-5.70091e-12
-1.16043e-12
-5.6066e-12
-1.35957e-12
-5.51883e-12
-1.55942e-12
-5.43741e-12
-1.75965e-12
-5.36204e-12
-1.9597e-12
-5.29239e-12
-2.15891e-12
-5.22811e-12
-2.35669e-12
-5.16884e-12
-2.55223e-12
-5.11419e-12
-2.74478e-12
-5.06373e-12
-2.93356e-12
-5.0171e-12
-3.11772e-12
-4.97391e-12
-3.29636e-12
-4.93374e-12
-3.4687e-12
-4.89624e-12
-3.63373e-12
-4.86106e-12
-3.79064e-12
-4.82788e-12
-3.93851e-12
-4.79645e-12
-4.07643e-12
-4.76659e-12
-4.20354e-12
-4.73812e-12
-4.31912e-12
-4.71094e-12
-4.42238e-12
-4.68492e-12
-4.51269e-12
-4.6599e-12
-4.58953e-12
-4.63558e-12
-4.65252e-12
-4.61137e-12
-4.70146e-12
-4.58626e-12
-4.73638e-12
-4.55885e-12
-4.75753e-12
-4.52749e-12
-4.76535e-12
-4.49057e-12
-4.76043e-12
-4.44665e-12
-4.7433e-12
-4.39467e-12
-4.71433e-12
-4.33382e-12
-4.67374e-12
-4.26347e-12
-4.62164e-12
-4.18312e-12
-4.55818e-12
-4.09226e-12
-4.48354e-12
-3.99049e-12
-4.39802e-12
-3.87742e-12
-4.30198e-12
-3.75271e-12
-4.19585e-12
-3.61608e-12
-4.08015e-12
-3.46738e-12
-3.95536e-12
-3.30643e-12
-3.82205e-12
-3.13313e-12
-3.68081e-12
-2.94753e-12
-3.53216e-12
-2.74967e-12
-3.37679e-12
-2.53974e-12
-3.21526e-12
-2.31785e-12
-3.04822e-12
-2.08436e-12
-2.87618e-12
-1.83956e-12
-2.69979e-12
-1.58391e-12
-2.51952e-12
-1.31783e-12
-2.336e-12
-1.04185e-12
-2.14967e-12
-7.56441e-13
-1.9611e-12
-4.62244e-13
-1.77074e-12
-1.5968e-13
-1.57924e-12
1.50765e-13
-1.38721e-12
4.68744e-13
-1.19538e-12
7.93905e-13
-1.00448e-12
1.12584e-12
-8.15141e-13
1.46455e-12
-6.28147e-13
1.8097e-12
-4.43714e-13
2.16063e-12
-2.61943e-13
2.51623e-12
-8.29157e-14
2.8755e-12
9.27838e-14
3.23777e-12
2.64842e-13
3.60183e-12
4.33699e-13
3.96704e-12
5.98763e-13
4.33247e-12
7.60241e-13
4.69721e-12
9.18086e-13
5.06033e-12
1.07231e-12
5.4209e-12
1.22284e-12
5.778e-12
1.36966e-12
6.13054e-12
1.5128e-12
6.47764e-12
1.65204e-12
6.81811e-12
1.78764e-12
7.15094e-12
1.91932e-12
7.47491e-12
2.04717e-12
7.7888e-12
2.17121e-12
8.09106e-12
2.29192e-12
8.37967e-12
2.41063e-12
8.65119e-12
2.5318e-12
8.89854e-12
2.66705e-12
9.10658e-12
2.84403e-12
9.24277e-12
3.12221e-12
9.24287e-12
3.6106e-12
8.99435e-12
4.47153e-12
8.33344e-12
5.86522e-12
7.08738e-12
7.77781e-12
5.19551e-12
9.72997e-12
2.8982e-12
1.05538e-11
8.62471e-13
8.69751e-12
3.45583e-12
-9.16155e-13
4.56993e-12
-3.01125e-12
1.11045e-11
-5.33713e-12
1.32242e-11
-7.23036e-12
1.20112e-11
-8.46338e-12
9.44981e-12
-9.10683e-12
6.98907e-12
-9.33933e-12
5.21174e-12
-9.32716e-12
4.12258e-12
-9.18393e-12
3.51338e-12
-8.97431e-12
3.17625e-12
-8.73081e-12
2.97172e-12
-8.46877e-12
2.824e-12
-8.19546e-12
2.69743e-12
-7.9145e-12
2.57697e-12
-7.62835e-12
2.45687e-12
-7.33873e-12
2.33506e-12
-7.04709e-12
2.21066e-12
-6.75493e-12
2.08364e-12
-6.46349e-12
1.95358e-12
-6.17419e-12
1.82077e-12
-5.88816e-12
1.68483e-12
-5.60654e-12
1.54589e-12
-5.33056e-12
1.40404e-12
-5.06131e-12
1.25909e-12
-4.79981e-12
1.11107e-12
-4.54698e-12
9.59912e-13
-4.3038e-12
8.05861e-13
-4.07111e-12
6.48771e-13
-3.84968e-12
4.88875e-13
-3.64019e-12
3.26237e-13
-3.44364e-12
1.61174e-13
-3.26032e-12
-6.42955e-15
-3.09058e-12
-1.76465e-13
-2.93508e-12
-3.48552e-13
-2.79402e-12
-5.22985e-13
-2.66757e-12
-6.99665e-13
-2.55631e-12
-8.7832e-13
-2.46051e-12
-1.05879e-12
-2.38003e-12
-1.24091e-12
-2.31566e-12
-1.42393e-12
-2.26712e-12
-1.60796e-12
-2.23419e-12
-1.79257e-12
-2.21682e-12
-1.97706e-12
-2.2146e-12
-2.16112e-12
-2.22745e-12
-2.34384e-12
-2.25486e-12
-2.52481e-12
-2.29631e-12
-2.70332e-12
-2.35117e-12
-2.8787e-12
-2.41896e-12
-3.04992e-12
-2.49903e-12
-3.21629e-12
-2.59075e-12
-3.37696e-12
-2.69337e-12
-3.53111e-12
-2.80619e-12
-3.6778e-12
-2.92841e-12
-3.81628e-12
-3.05938e-12
-3.94545e-12
-3.19826e-12
-4.06465e-12
-3.34434e-12
-4.17304e-12
-3.49691e-12
-4.2698e-12
-3.65519e-12
-4.3544e-12
-3.81829e-12
-4.42642e-12
-3.98515e-12
-4.48565e-12
-4.15438e-12
-4.53222e-12
-4.32422e-12
-4.56654e-12
-4.49253e-12
-4.58922e-12
-4.65696e-12
-4.60092e-12
-4.81512e-12
-4.60225e-12
-4.96484e-12
-4.59357e-12
-5.10417e-12
-4.57499e-12
-5.23146e-12
-4.54645e-12
-5.34525e-12
-4.50784e-12
-5.44431e-12
-4.45912e-12
-5.52745e-12
-4.40039e-12
-5.59364e-12
-4.33183e-12
-5.64203e-12
-4.25358e-12
-5.67178e-12
-4.1661e-12
-5.68216e-12
-4.06976e-12
-5.6725e-12
-3.96503e-12
-5.64242e-12
-3.85213e-12
-5.59145e-12
-3.73179e-12
-5.51937e-12
-3.60424e-12
-5.42595e-12
-3.47021e-12
-5.31125e-12
-3.32997e-12
-5.17534e-12
-3.18413e-12
-5.01834e-12
-3.03318e-12
-4.84063e-12
-2.87751e-12
-4.64253e-12
-2.71762e-12
-4.42463e-12
-2.55391e-12
-4.18743e-12
-2.38687e-12
-3.93163e-12
-2.2169e-12
-3.65789e-12
-2.04449e-12
-3.36696e-12
-1.87017e-12
-3.05959e-12
-1.69458e-12
-2.73655e-12
-1.51843e-12
-2.39856e-12
-1.34248e-12
-2.04626e-12
-1.16745e-12
-1.68048e-12
-9.93936e-13
-1.30185e-12
-8.22353e-13
-9.10859e-13
-6.52943e-13
-5.0793e-13
-4.85853e-13
-9.39532e-14
-3.21202e-13
3.29911e-13
-1.59032e-13
7.62655e-13
9.45172e-16
1.2033e-12
1.58109e-13
1.65066e-12
3.12873e-13
2.1035e-12
4.65233e-13
2.56074e-12
6.15058e-13
3.02115e-12
7.62425e-13
3.4833e-12
9.07496e-13
3.94606e-12
1.05002e-12
4.40786e-12
1.19023e-12
4.86748e-12
1.328e-12
5.32345e-12
1.46334e-12
5.77419e-12
1.59641e-12
6.21831e-12
1.72707e-12
6.65398e-12
1.85624e-12
7.07887e-12
1.98573e-12
7.48926e-12
2.12139e-12
7.87811e-12
2.27817e-12
8.2299e-12
2.49222e-12
8.51202e-12
2.84008e-12
8.65927e-12
3.46334e-12
8.55661e-12
4.57418e-12
8.03535e-12
6.38645e-12
6.91335e-12
8.8998e-12
5.11814e-12
1.15252e-11
2.87958e-12
1.27923e-11
8.64341e-13
1.07127e-11
4.32017e-12
-9.54917e-13
5.52486e-12
-3.12708e-12
1.32767e-11
-5.52607e-12
1.56232e-11
-7.46555e-12
1.39507e-11
-8.71434e-12
1.06986e-11
-9.35016e-12
7.6249e-12
-9.56043e-12
5.42202e-12
-9.51886e-12
4.08102e-12
-9.34342e-12
3.33795e-12
-9.10097e-12
2.93381e-12
-8.82528e-12
2.69603e-12
-8.53191e-12
2.53064e-12
-8.22842e-12
2.39396e-12
-7.91824e-12
2.26679e-12
-7.60391e-12
2.14255e-12
-7.28704e-12
2.01819e-12
-6.96955e-12
1.89319e-12
-6.65257e-12
1.76667e-12
-6.33795e-12
1.63896e-12
-6.02657e-12
1.5094e-12
-5.71996e-12
1.37823e-12
-5.41942e-12
1.24535e-12
-5.12591e-12
1.11054e-12
-4.84057e-12
9.7375e-13
-4.56458e-12
8.35077e-13
-4.29878e-12
6.94123e-13
-4.04423e-12
5.51315e-13
-3.80155e-12
4.06097e-13
-3.57167e-12
2.59003e-13
-3.35496e-12
1.09535e-13
-3.15189e-12
-4.18879e-14
-2.96309e-12
-1.95225e-13
-2.78916e-12
-3.50392e-13
-2.63016e-12
-5.07548e-13
-2.48642e-12
-6.6672e-13
-2.35835e-12
-8.27729e-13
-2.2462e-12
-9.9046e-13
-2.15025e-12
-1.15473e-12
-2.07084e-12
-1.32031e-12
-2.00779e-12
-1.48697e-12
-1.96124e-12
-1.65451e-12
-1.93135e-12
-1.82245e-12
-1.9177e-12
-1.99071e-12
-1.92028e-12
-2.15852e-12
-1.93835e-12
-2.32576e-12
-1.97145e-12
-2.49171e-12
-2.01913e-12
-2.65563e-12
-2.08103e-12
-2.8168e-12
-2.15606e-12
-2.97488e-12
-2.24377e-12
-3.12857e-12
-2.34341e-12
-3.27731e-12
-2.45427e-12
-3.42025e-12
-2.57548e-12
-3.55659e-12
-2.70657e-12
-3.68518e-12
-2.84652e-12
-3.8055e-12
-2.99463e-12
-3.91653e-12
-3.15016e-12
-4.0175e-12
-3.31221e-12
-4.10774e-12
-3.47995e-12
-4.18666e-12
-3.65249e-12
-4.25387e-12
-3.82875e-12
-4.30939e-12
-4.00738e-12
-4.35359e-12
-4.1867e-12
-4.38721e-12
-4.36472e-12
-4.41119e-12
-4.53918e-12
-4.42646e-12
-4.70776e-12
-4.43366e-12
-4.86823e-12
-4.4331e-12
-5.01855e-12
-4.42467e-12
-5.15687e-12
-4.40812e-12
-5.28164e-12
-4.38306e-12
-5.39167e-12
-4.3491e-12
-5.48563e-12
-4.30641e-12
-5.56247e-12
-4.25499e-12
-5.62122e-12
-4.19483e-12
-5.66099e-12
-4.12632e-12
-5.68113e-12
-4.04962e-12
-5.68093e-12
-3.96523e-12
-5.65994e-12
-3.87312e-12
-5.61776e-12
-3.77397e-12
-5.55402e-12
-3.66798e-12
-5.46863e-12
-3.5556e-12
-5.36143e-12
-3.43718e-12
-5.23248e-12
-3.31308e-12
-5.08191e-12
-3.18375e-12
-4.91003e-12
-3.04939e-12
-4.71713e-12
-2.91053e-12
-4.50361e-12
-2.76744e-12
-4.27009e-12
-2.62039e-12
-4.01714e-12
-2.46986e-12
-3.74545e-12
-2.31619e-12
-3.4557e-12
-2.15993e-12
-3.14858e-12
-2.0017e-12
-2.82479e-12
-1.84224e-12
-2.48498e-12
-1.68229e-12
-2.12984e-12
-1.5226e-12
-1.76003e-12
-1.36375e-12
-1.37622e-12
-1.20617e-12
-9.79081e-13
-1.05009e-12
-5.69294e-13
-8.95648e-13
-1.47771e-13
-7.42734e-13
2.84672e-13
-5.91484e-13
7.27376e-13
-4.41768e-13
1.17892e-12
-2.93443e-13
1.63835e-12
-1.46571e-13
2.10402e-12
-4.43383e-16
2.57511e-12
1.43952e-13
3.05018e-12
2.87353e-13
3.52795e-12
4.29713e-13
4.00688e-12
5.71079e-13
4.4857e-12
7.11405e-13
4.96289e-12
8.50796e-13
5.43694e-12
9.89273e-13
5.90636e-12
1.12698e-12
6.36953e-12
1.26389e-12
6.82473e-12
1.40102e-12
7.26954e-12
1.5409e-12
7.70034e-12
1.69059e-12
8.10974e-12
1.86875e-12
8.48232e-12
2.11962e-12
8.78416e-12
2.53822e-12
8.94771e-12
3.29977e-12
8.85399e-12
4.66788e-12
8.32718e-12
6.91325e-12
7.17696e-12
1.005e-11
5.32421e-12
1.33779e-11
3.00338e-12
1.51131e-11
9.05099e-13
1.2811e-11
5.22526e-12
-1.00698e-12
6.53185e-12
-3.29391e-12
1.55636e-11
-5.81701e-12
1.81463e-11
-7.8557e-12
1.59894e-11
-9.16837e-12
1.20113e-11
-9.83726e-12
8.2938e-12
-1.006e-11
5.64478e-12
-1.00192e-11
4.04016e-12
-9.83843e-12
3.15724e-12
-9.58858e-12
2.68397e-12
-9.30479e-12
2.41225e-12
-9.00357e-12
2.22942e-12
-8.69253e-12
2.08293e-12
-8.37566e-12
1.94993e-12
-8.05495e-12
1.82184e-12
-7.73256e-12
1.6958e-12
-7.40975e-12
1.57038e-12
-7.08834e-12
1.44528e-12
-6.7695e-12
1.32012e-12
-6.45464e-12
1.19455e-12
-6.14517e-12
1.06876e-12
-5.84223e-12
9.42411e-13
-5.54703e-12
8.15353e-13
-5.26061e-12
6.87337e-13
-4.98379e-12
5.58259e-13
-4.71783e-12
4.2817e-13
-4.46327e-12
2.96763e-13
-4.22099e-12
1.63828e-13
-3.99159e-12
2.96072e-14
-3.77572e-12
-1.06331e-13
-3.57383e-12
-2.43773e-13
-3.38634e-12
-3.82712e-13
-3.2135e-12
-5.2322e-13
-3.05541e-12
-6.65632e-13
-2.91241e-12
-8.0972e-13
-2.78481e-12
-9.5532e-13
-2.67244e-12
-1.10283e-12
-2.57547e-12
-1.2517e-12
-2.49412e-12
-1.40165e-12
-2.42818e-12
-1.55291e-12
-2.37769e-12
-1.705e-12
-2.34232e-12
-1.85781e-12
-2.32186e-12
-2.01116e-12
-2.31575e-12
-2.16463e-12
-2.32368e-12
-2.31783e-12
-2.34488e-12
-2.4705e-12
-2.37888e-12
-2.62162e-12
-2.42472e-12
-2.77095e-12
-2.4822e-12
-2.9174e-12
-2.55035e-12
-3.06041e-12
-2.62827e-12
-3.19938e-12
-2.71545e-12
-3.33307e-12
-2.81133e-12
-3.4607e-12
-2.91481e-12
-3.58169e-12
-3.02525e-12
-3.69505e-12
-3.1421e-12
-3.79967e-12
-3.26487e-12
-3.89473e-12
-3.3928e-12
-3.97981e-12
-3.52533e-12
-4.05412e-12
-3.6617e-12
-4.11749e-12
-3.80103e-12
-4.17006e-12
-3.94218e-12
-4.21243e-12
-4.08372e-12
-4.24566e-12
-4.22389e-12
-4.27102e-12
-4.36074e-12
-4.2896e-12
-4.49219e-12
-4.3022e-12
-4.61617e-12
-4.30911e-12
-4.73075e-12
-4.31009e-12
-4.83427e-12
-4.30459e-12
-4.92519e-12
-4.29214e-12
-5.00241e-12
-4.27188e-12
-5.06483e-12
-4.24399e-12
-5.11144e-12
-4.20838e-12
-5.14159e-12
-4.16468e-12
-5.15434e-12
-4.11357e-12
-5.14929e-12
-4.05468e-12
-5.12573e-12
-3.98878e-12
-5.08332e-12
-3.91553e-12
-5.02161e-12
-3.83567e-12
-4.94031e-12
-3.74929e-12
-4.83927e-12
-3.65664e-12
-4.71842e-12
-3.55803e-12
-4.57769e-12
-3.45381e-12
-4.41726e-12
-3.34419e-12
-4.23716e-12
-3.2295e-12
-4.03768e-12
-3.11001e-12
-3.81922e-12
-2.9859e-12
-3.58209e-12
-2.85753e-12
-3.32687e-12
-2.72508e-12
-3.05402e-12
-2.58904e-12
-2.76408e-12
-2.44988e-12
-2.45753e-12
-2.30826e-12
-2.13487e-12
-2.1649e-12
-1.7966e-12
-2.02057e-12
-1.44323e-12
-1.87597e-12
-1.07534e-12
-1.73166e-12
-6.93497e-13
-1.58802e-12
-2.98465e-13
-1.44513e-12
1.08851e-13
-1.30297e-12
5.28094e-13
-1.16199e-12
9.58127e-13
-1.02153e-12
1.39815e-12
-8.81803e-13
1.8469e-12
-7.42201e-13
2.30308e-12
-6.02763e-13
2.76604e-12
-4.63416e-13
3.23409e-12
-3.24105e-13
3.70598e-12
-1.84543e-13
4.1803e-12
-4.46252e-14
4.65535e-12
9.60192e-14
5.13038e-12
2.36361e-13
5.60355e-12
3.7761e-13
6.07325e-12
5.19562e-13
6.53837e-12
6.61845e-13
6.99718e-12
8.05067e-13
7.44773e-12
9.50458e-13
7.88762e-12
1.10099e-12
8.31327e-12
1.26493e-12
8.71739e-12
1.46462e-12
9.08306e-12
1.75393e-12
9.37539e-12
2.24588e-12
9.52332e-12
3.15182e-12
9.402e-12
4.78918e-12
8.82708e-12
7.48816e-12
7.59881e-12
1.12782e-11
5.63417e-12
1.53425e-11
3.17894e-12
1.75684e-11
9.59286e-13
1.50306e-11
6.18455e-12
-1.06711e-12
7.59897e-12
-3.48995e-12
1.79864e-11
-6.16309e-12
2.08195e-11
-8.32427e-12
1.81505e-11
-9.71847e-12
1.34055e-11
-1.04322e-11
9.00755e-12
-1.06741e-11
5.88668e-12
-1.06372e-11
4.00326e-12
-1.04526e-11
2.97271e-12
-1.01954e-11
2.42678e-12
-9.90299e-12
2.11979e-12
-9.59305e-12
1.91949e-12
-9.27322e-12
1.7631e-12
-8.94782e-12
1.62454e-12
-8.61945e-12
1.49348e-12
-8.2899e-12
1.36625e-12
-7.9608e-12
1.24129e-12
-7.63358e-12
1.11806e-12
-7.30959e-12
9.96133e-13
-6.99018e-12
8.75148e-13
-6.67699e-12
7.5558e-13
-6.3709e-12
6.36326e-13
-6.07278e-12
5.17242e-13
-5.78397e-12
3.98531e-13
-5.50565e-12
2.79953e-13
-5.23858e-12
1.61106e-13
-4.98351e-12
4.16932e-14
-4.74091e-12
-7.87649e-14
-4.51165e-12
-1.99647e-13
-4.29631e-12
-3.21661e-13
-4.09536e-12
-4.44719e-13
-3.90892e-12
-5.69148e-13
-3.73701e-12
-6.9512e-13
-3.58013e-12
-8.22508e-13
-3.43828e-12
-9.51567e-13
-3.31106e-12
-1.08254e-12
-3.19881e-12
-1.21507e-12
-3.1013e-12
-1.3492e-12
-3.01809e-12
-1.48486e-12
-2.94935e-12
-1.62164e-12
-2.89442e-12
-1.75992e-12
-2.85311e-12
-1.89912e-12
-2.825e-12
-2.03926e-12
-2.80955e-12
-2.18007e-12
-2.80576e-12
-2.32161e-12
-2.81358e-12
-2.46267e-12
-2.83177e-12
-2.60343e-12
-2.85985e-12
-2.74286e-12
-2.89678e-12
-2.88047e-12
-2.94165e-12
-3.01553e-12
-2.99417e-12
-3.14686e-12
-3.05331e-12
-3.27392e-12
-3.11844e-12
-3.39556e-12
-3.18889e-12
-3.51124e-12
-3.26424e-12
-3.61969e-12
-3.34384e-12
-3.72006e-12
-3.42726e-12
-3.8113e-12
-3.51428e-12
-3.89278e-12
-3.60437e-12
-3.96403e-12
-3.69708e-12
-4.02477e-12
-3.79183e-12
-4.0753e-12
-3.88771e-12
-4.11655e-12
-3.98372e-12
-4.14964e-12
-4.07837e-12
-4.17636e-12
-4.1698e-12
-4.19817e-12
-4.25601e-12
-4.21598e-12
-4.33528e-12
-4.22984e-12
-4.40578e-12
-4.23959e-12
-4.46598e-12
-4.24439e-12
-4.51476e-12
-4.24335e-12
-4.55104e-12
-4.23559e-12
-4.57382e-12
-4.22121e-12
-4.58289e-12
-4.19931e-12
-4.57692e-12
-4.17064e-12
-4.55604e-12
-4.13444e-12
-4.51923e-12
-4.0915e-12
-4.46624e-12
-4.04176e-12
-4.39669e-12
-3.98509e-12
-4.3103e-12
-3.92206e-12
-4.20671e-12
-3.85288e-12
-4.08584e-12
-3.77752e-12
-3.94758e-12
-3.69629e-12
-3.79172e-12
-3.60967e-12
-3.61838e-12
-3.51753e-12
-3.42756e-12
-3.42032e-12
-3.21946e-12
-3.31812e-12
-2.99427e-12
-3.2111e-12
-2.75226e-12
-3.09954e-12
-2.49367e-12
-2.98369e-12
-2.21889e-12
-2.86382e-12
-1.92819e-12
-2.7406e-12
-1.62185e-12
-2.6146e-12
-1.30014e-12
-2.48662e-12
-9.63347e-13
-2.35737e-12
-6.11789e-13
-2.22754e-12
-2.45953e-13
-2.0975e-12
1.33338e-13
-1.96732e-12
5.25936e-13
-1.83774e-12
9.31321e-13
-1.70837e-12
1.34812e-12
-1.57879e-12
1.77564e-12
-1.44905e-12
2.21246e-12
-1.31864e-12
2.65794e-12
-1.18769e-12
3.11099e-12
-1.05582e-12
3.57034e-12
-9.22781e-13
4.03452e-12
-7.88295e-13
4.50241e-12
-6.52441e-13
4.97269e-12
-5.14918e-13
5.44432e-12
-3.75626e-13
5.91525e-12
-2.34575e-13
6.38428e-12
-9.14332e-14
6.84936e-12
5.44621e-14
7.30959e-12
2.01601e-13
7.76335e-12
3.51292e-13
8.20864e-12
5.05148e-13
8.64296e-12
6.6665e-13
9.06278e-12
8.45091e-13
9.45976e-12
1.06762e-12
9.81702e-12
1.39666e-12
1.00966e-11
1.96629e-12
1.02235e-11
3.02493e-12
1.00656e-11
4.94698e-12
9.42897e-12
8.12482e-12
8.10302e-12
1.26042e-11
6.00129e-12
1.74442e-11
3.38457e-12
2.01851e-11
1.0217e-12
1.73935e-11
7.20625e-12
-1.13577e-12
8.73474e-12
-3.7142e-12
2.05649e-11
-6.55913e-12
2.36644e-11
-8.86051e-12
2.04519e-11
-1.0347e-11
1.4892e-11
-1.11104e-11
9.77092e-12
-1.13718e-11
6.14806e-12
-1.13358e-11
3.96725e-12
-1.11426e-11
2.77959e-12
-1.08724e-11
2.15659e-12
-1.05656e-11
1.81292e-12
-1.02403e-11
1.59422e-12
-9.90599e-12
1.42882e-12
-9.56648e-12
1.28504e-12
-9.22483e-12
1.15184e-12
-8.88226e-12
1.02369e-12
-8.54116e-12
9.00201e-13
-8.20256e-12
7.79463e-13
-7.86781e-12
6.61391e-13
-7.53864e-12
5.45988e-13
-7.21604e-12
4.32984e-13
-6.90131e-12
3.21606e-13
-6.59607e-12
2.12006e-13
-6.30112e-12
1.03587e-13
-6.01718e-12
-3.9769e-15
-5.74505e-12
-1.11023e-13
-5.48568e-12
-2.17671e-13
-5.24021e-12
-3.24228e-13
-5.00885e-12
-4.30997e-13
-4.79222e-12
-5.38282e-13
-4.59031e-12
-6.46628e-13
-4.40351e-12
-7.55936e-13
-4.23196e-12
-8.66666e-13
-4.07552e-12
-9.78942e-13
-3.9341e-12
-1.09298e-12
-3.80749e-12
-1.20914e-12
-3.69543e-12
-1.32713e-12
-3.59748e-12
-1.44715e-12
-3.51308e-12
-1.56926e-12
-3.44187e-12
-1.69283e-12
-3.3838e-12
-1.81799e-12
-3.33796e-12
-1.94495e-12
-3.30365e-12
-2.07357e-12
-3.28007e-12
-2.20365e-12
-3.2669e-12
-2.33477e-12
-3.26264e-12
-2.46693e-12
-3.26669e-12
-2.59937e-12
-3.27795e-12
-2.73159e-12
-3.2957e-12
-2.86271e-12
-3.3192e-12
-2.99203e-12
-3.34747e-12
-3.11858e-12
-3.37955e-12
-3.24183e-12
-3.41496e-12
-3.36014e-12
-3.4532e-12
-3.47299e-12
-3.4941e-12
-3.57879e-12
-3.5371e-12
-3.67705e-12
-3.58155e-12
-3.76684e-12
-3.6277e-12
-3.84662e-12
-3.67559e-12
-3.91613e-12
-3.72496e-12
-3.9754e-12
-3.77551e-12
-4.02474e-12
-3.82669e-12
-4.06536e-12
-3.8775e-12
-4.09882e-12
-3.92675e-12
-4.12712e-12
-3.97275e-12
-4.15216e-12
-4.01389e-12
-4.17483e-12
-4.04819e-12
-4.19553e-12
-4.0741e-12
-4.21368e-12
-4.09037e-12
-4.22812e-12
-4.09628e-12
-4.23743e-12
-4.09057e-12
-4.2413e-12
-4.07332e-12
-4.23846e-12
-4.04345e-12
-4.22918e-12
-4.00091e-12
-4.21318e-12
-3.9451e-12
-4.19025e-12
-3.87585e-12
-4.16075e-12
-3.79276e-12
-4.12485e-12
-3.69556e-12
-4.08229e-12
-3.58397e-12
-4.03365e-12
-3.45787e-12
-3.97898e-12
-3.3169e-12
-3.91849e-12
-3.16082e-12
-3.85237e-12
-2.98969e-12
-3.78081e-12
-2.80323e-12
-3.704e-12
-2.60163e-12
-3.62193e-12
-2.38478e-12
-3.53497e-12
-2.15273e-12
-3.44315e-12
-1.90565e-12
-3.34663e-12
-1.64363e-12
-3.2457e-12
-1.36672e-12
-3.14074e-12
-1.075e-12
-3.03232e-12
-7.68412e-13
-2.92119e-12
-4.4702e-13
-2.80802e-12
-1.10989e-13
-2.69341e-12
2.39572e-13
-2.57811e-12
6.0439e-13
-2.46232e-12
9.83481e-13
-2.34642e-12
1.37559e-12
-2.22986e-12
1.77998e-12
-2.11277e-12
2.19593e-12
-1.99474e-12
2.62249e-12
-1.87563e-12
3.05884e-12
-1.755e-12
3.50369e-12
-1.63254e-12
3.95596e-12
-1.5081e-12
4.41449e-12
-1.38131e-12
4.87816e-12
-1.25198e-12
5.34546e-12
-1.11975e-12
5.81509e-12
-9.84557e-13
6.28565e-12
-8.46202e-13
6.75563e-12
-7.04565e-13
7.22365e-12
-5.59464e-13
7.68882e-12
-4.1073e-13
8.14876e-12
-2.58346e-13
8.60169e-12
-1.01655e-13
9.04527e-12
6.15488e-14
9.47834e-12
2.33569e-13
9.89599e-12
4.27421e-13
1.029e-11
6.73561e-13
1.06414e-11
1.04526e-12
1.09101e-11
1.69759e-12
1.10165e-11
2.91847e-12
1.08201e-11
5.14337e-12
1.01149e-11
8.83005e-12
8.67859e-12
1.40405e-11
6.4209e-12
1.97019e-11
3.61955e-12
2.29864e-11
1.09292e-12
1.99201e-11
8.29917e-12
-1.21392e-12
9.94867e-12
-3.96882e-12
2.33198e-11
-7.00774e-12
2.67034e-11
-9.4664e-12
2.29106e-11
-1.10554e-11
1.6481e-11
-1.18718e-11
1.05873e-11
-1.21512e-11
6.42747e-12
-1.21125e-11
3.92857e-12
-1.19055e-11
2.57258e-12
-1.16155e-11
1.86659e-12
-1.12865e-11
1.484e-12
-1.09391e-11
1.24683e-12
-1.0583e-11
1.07272e-12
-1.02223e-11
9.24287e-13