/*--------------------------------*- C++ -*----------------------------------*\
| =========                 |                                                 |
| \\      /  F ield         | OpenFOAM: The Open Source CFD Toolbox           |
|  \\    /   O peration     | Version:  2212                                  |
|   \\  /    A nd           | Website:  www.openfoam.com                      |
|    \\/     M anipulation  |                                                 |
\*---------------------------------------------------------------------------*/
FoamFile
{
    version     2.0;
    format      ascii;
    arch        "LSB;label=64;scalar=64";
    class       volScalarField;
    location    "130";
    object      Gh2;
}
// * * * * * * * * * * * * * * * * * * * * * * * * * * * * * * * * * * * * * //

dimensions      [1 -3 0 0 0 0 0];

internalField   nonuniform List<scalar> 
1024
(
1.16676e-05
1.16672e-05
1.16664e-05
1.16651e-05
1.16633e-05
1.16612e-05
1.16591e-05
1.1657e-05
1.16552e-05
1.16537e-05
1.16525e-05
1.16517e-05
1.16512e-05
1.16512e-05
1.16514e-05
1.16517e-05
1.16519e-05
1.16522e-05
1.1653e-05
1.16541e-05
1.16557e-05
1.16576e-05
1.16597e-05
1.16622e-05
1.1665e-05
1.16679e-05
1.16707e-05
1.1673e-05
1.16748e-05
1.1676e-05
1.16767e-05
1.1677e-05
1.16675e-05
1.16671e-05
1.16663e-05
1.16649e-05
1.16631e-05
1.1661e-05
1.16588e-05
1.16567e-05
1.16549e-05
1.16533e-05
1.16522e-05
1.16514e-05
1.16509e-05
1.16509e-05
1.16511e-05
1.16514e-05
1.16516e-05
1.16519e-05
1.16527e-05
1.16539e-05
1.16554e-05
1.16573e-05
1.16594e-05
1.16619e-05
1.16647e-05
1.16676e-05
1.16704e-05
1.16728e-05
1.16746e-05
1.16759e-05
1.16766e-05
1.16769e-05
1.16674e-05
1.1667e-05
1.16661e-05
1.16647e-05
1.16628e-05
1.16606e-05
1.16583e-05
1.16562e-05
1.16542e-05
1.16526e-05
1.16514e-05
1.16506e-05
1.16502e-05
1.16501e-05
1.16504e-05
1.16507e-05
1.16509e-05
1.16513e-05
1.16521e-05
1.16533e-05
1.16548e-05
1.16567e-05
1.16588e-05
1.16612e-05
1.16639e-05
1.16668e-05
1.16697e-05
1.16722e-05
1.16742e-05
1.16756e-05
1.16764e-05
1.16767e-05
1.16673e-05
1.16669e-05
1.1666e-05
1.16645e-05
1.16625e-05
1.16601e-05
1.16577e-05
1.16553e-05
1.16531e-05
1.16513e-05
1.165e-05
1.16492e-05
1.16488e-05
1.16488e-05
1.16491e-05
1.16493e-05
1.16495e-05
1.16501e-05
1.1651e-05
1.16524e-05
1.1654e-05
1.16558e-05
1.16579e-05
1.16602e-05
1.16629e-05
1.16658e-05
1.16687e-05
1.16714e-05
1.16736e-05
1.16751e-05
1.1676e-05
1.16763e-05
1.16672e-05
1.16668e-05
1.16659e-05
1.16643e-05
1.16622e-05
1.16597e-05
1.1657e-05
1.16542e-05
1.16516e-05
1.16495e-05
1.1648e-05
1.16472e-05
1.16468e-05
1.16468e-05
1.1647e-05
1.16472e-05
1.16475e-05
1.16482e-05
1.16495e-05
1.16511e-05
1.16529e-05
1.16548e-05
1.16569e-05
1.16592e-05
1.16617e-05
1.16645e-05
1.16675e-05
1.16704e-05
1.16727e-05
1.16744e-05
1.16754e-05
1.16758e-05
1.16672e-05
1.16668e-05
1.16658e-05
1.16643e-05
1.16621e-05
1.16594e-05
1.16563e-05
1.1653e-05
1.16499e-05
1.16473e-05
1.16455e-05
1.16444e-05
1.1644e-05
1.16439e-05
1.1644e-05
1.16441e-05
1.16444e-05
1.16456e-05
1.16474e-05
1.16494e-05
1.16516e-05
1.16537e-05
1.16559e-05
1.16581e-05
1.16606e-05
1.16633e-05
1.16663e-05
1.16693e-05
1.16718e-05
1.16737e-05
1.16748e-05
1.16752e-05
1.16672e-05
1.16668e-05
1.16659e-05
1.16643e-05
1.1662e-05
1.16591e-05
1.16557e-05
1.1652e-05
1.16483e-05
1.16451e-05
1.16427e-05
1.16413e-05
1.16406e-05
1.16403e-05
1.16401e-05
1.16399e-05
1.16403e-05
1.16421e-05
1.16448e-05
1.16476e-05
1.16502e-05
1.16527e-05
1.1655e-05
1.16573e-05
1.16597e-05
1.16624e-05
1.16653e-05
1.16683e-05
1.1671e-05
1.1673e-05
1.16741e-05
1.16746e-05
1.16673e-05
1.16669e-05
1.1666e-05
1.16644e-05
1.16621e-05
1.16591e-05
1.16553e-05
1.16512e-05
1.16469e-05
1.1643e-05
1.16401e-05
1.16381e-05
1.16369e-05
1.16361e-05
1.16353e-05
1.16346e-05
1.16352e-05
1.1638e-05
1.16419e-05
1.16458e-05
1.16492e-05
1.16521e-05
1.16546e-05
1.16569e-05
1.16593e-05
1.16619e-05
1.16647e-05
1.16677e-05
1.16704e-05
1.16724e-05
1.16736e-05
1.1674e-05
1.16674e-05
1.16671e-05
1.16662e-05
1.16647e-05
1.16623e-05
1.16592e-05
1.16552e-05
1.16507e-05
1.16459e-05
1.16414e-05
1.16378e-05
1.16352e-05
1.16333e-05
1.16315e-05
1.16298e-05
1.16283e-05
1.16291e-05
1.16338e-05
1.16395e-05
1.16447e-05
1.1649e-05
1.16523e-05
1.1655e-05
1.16573e-05
1.16595e-05
1.16619e-05
1.16647e-05
1.16675e-05
1.16701e-05
1.1672e-05
1.16732e-05
1.16736e-05
1.16676e-05
1.16673e-05
1.16664e-05
1.1665e-05
1.16626e-05
1.16594e-05
1.16553e-05
1.16505e-05
1.16453e-05
1.16404e-05
1.16362e-05
1.16328e-05
1.16298e-05
1.16267e-05
1.16234e-05
1.16209e-05
1.16226e-05
1.163e-05
1.16384e-05
1.16452e-05
1.16503e-05
1.16539e-05
1.16565e-05
1.16586e-05
1.16606e-05
1.16628e-05
1.16652e-05
1.16678e-05
1.16702e-05
1.16719e-05
1.1673e-05
1.16734e-05
1.16679e-05
1.16675e-05
1.16667e-05
1.16653e-05
1.1663e-05
1.16598e-05
1.16556e-05
1.16505e-05
1.16451e-05
1.16399e-05
1.16352e-05
1.16309e-05
1.16266e-05
1.16215e-05
1.16161e-05
1.16124e-05
1.16158e-05
1.16275e-05
1.16396e-05
1.16483e-05
1.1654e-05
1.16575e-05
1.16598e-05
1.16613e-05
1.16628e-05
1.16644e-05
1.16664e-05
1.16686e-05
1.16705e-05
1.16721e-05
1.1673e-05
1.16734e-05
1.16681e-05
1.16678e-05
1.1667e-05
1.16656e-05
1.16633e-05
1.16601e-05
1.16559e-05
1.16509e-05
1.16455e-05
1.16402e-05
1.16351e-05
1.16299e-05
1.16236e-05
1.1616e-05
1.16077e-05
1.16026e-05
1.16086e-05
1.16267e-05
1.16438e-05
1.16546e-05
1.16606e-05
1.16636e-05
1.16649e-05
1.16656e-05
1.16662e-05
1.16672e-05
1.16686e-05
1.16702e-05
1.16718e-05
1.1673e-05
1.16738e-05
1.16741e-05
1.16681e-05
1.16678e-05
1.16671e-05
1.16657e-05
1.16635e-05
1.16604e-05
1.16563e-05
1.16516e-05
1.16466e-05
1.16416e-05
1.16364e-05
1.16301e-05
1.16215e-05
1.16104e-05
1.15983e-05
1.1591e-05
1.16002e-05
1.16266e-05
1.16506e-05
1.1664e-05
1.16698e-05
1.16718e-05
1.16719e-05
1.16711e-05
1.16704e-05
1.16702e-05
1.16707e-05
1.16716e-05
1.16726e-05
1.16736e-05
1.16743e-05
1.16747e-05
1.16678e-05
1.16675e-05
1.16668e-05
1.16655e-05
1.16634e-05
1.16605e-05
1.1657e-05
1.16531e-05
1.16491e-05
1.16451e-05
1.16401e-05
1.16327e-05
1.16215e-05
1.1606e-05
1.15886e-05
1.15771e-05
1.15879e-05
1.16238e-05
1.16572e-05
1.16743e-05
1.16802e-05
1.16812e-05
1.16801e-05
1.16782e-05
1.16764e-05
1.16752e-05
1.16747e-05
1.16749e-05
1.16755e-05
1.16762e-05
1.16768e-05
1.16771e-05
1.1667e-05
1.16668e-05
1.16662e-05
1.1665e-05
1.16633e-05
1.1661e-05
1.16586e-05
1.16563e-05
1.16544e-05
1.16523e-05
1.16484e-05
1.16406e-05
1.16269e-05
1.16064e-05
1.15813e-05
1.15609e-05
1.15675e-05
1.16105e-05
1.1656e-05
1.16805e-05
1.1688e-05
1.16879e-05
1.16855e-05
1.16829e-05
1.16808e-05
1.16792e-05
1.16781e-05
1.16776e-05
1.16776e-05
1.16779e-05
1.16784e-05
1.16787e-05
1.16661e-05
1.1666e-05
1.16655e-05
1.16648e-05
1.16638e-05
1.16629e-05
1.16624e-05
1.16629e-05
1.16642e-05
1.16654e-05
1.16643e-05
1.1658e-05
1.16436e-05
1.16188e-05
1.15836e-05
1.1546e-05
1.15343e-05
1.1574e-05
1.16337e-05
1.16741e-05
1.16904e-05
1.16918e-05
1.16874e-05
1.16824e-05
1.16789e-05
1.16775e-05
1.16778e-05
1.16793e-05
1.16812e-05
1.16829e-05
1.16841e-05
1.16846e-05
1.16662e-05
1.16662e-05
1.1666e-05
1.16659e-05
1.16659e-05
1.16666e-05
1.16683e-05
1.16717e-05
1.16768e-05
1.16827e-05
1.1687e-05
1.16862e-05
1.1676e-05
1.16521e-05
1.16098e-05
1.15497e-05
1.14979e-05
1.1503e-05
1.15609e-05
1.16238e-05
1.16681e-05
1.16928e-05
1.17042e-05
1.17081e-05
1.17084e-05
1.17069e-05
1.17042e-05
1.17003e-05
1.16953e-05
1.16899e-05
1.16855e-05
1.16832e-05
1.1667e-05
1.1667e-05
1.1667e-05
1.16673e-05
1.1668e-05
1.16696e-05
1.16725e-05
1.16773e-05
1.16844e-05
1.16932e-05
1.17023e-05
1.17086e-05
1.1708e-05
1.16946e-05
1.16604e-05
1.15951e-05
1.15049e-05
1.14399e-05
1.14398e-05
1.14814e-05
1.15294e-05
1.15688e-05
1.15966e-05
1.16138e-05
1.16218e-05
1.16218e-05
1.16151e-05
1.16035e-05
1.15894e-05
1.1576e-05
1.15663e-05
1.15616e-05
1.16677e-05
1.16678e-05
1.1668e-05
1.16684e-05
1.16694e-05
1.16712e-05
1.16744e-05
1.16794e-05
1.16866e-05
1.16959e-05
1.17062e-05
1.17154e-05
1.17201e-05
1.17157e-05
1.16954e-05
1.16485e-05
1.15658e-05
1.14664e-05
1.13938e-05
1.13647e-05
1.1364e-05
1.13738e-05
1.13849e-05
1.13932e-05
1.13976e-05
1.13981e-05
1.13955e-05
1.13907e-05
1.13853e-05
1.13804e-05
1.13771e-05
1.13756e-05
1.16684e-05
1.16684e-05
1.16687e-05
1.16691e-05
1.16701e-05
1.16719e-05
1.16748e-05
1.16794e-05
1.16858e-05
1.16941e-05
1.17037e-05
1.17131e-05
1.17195e-05
1.1719e-05
1.17062e-05
1.16729e-05
1.16111e-05
1.15263e-05
1.14394e-05
1.13689e-05
1.13206e-05
1.12889e-05
1.12677e-05
1.12528e-05
1.12424e-05
1.12359e-05
1.12331e-05
1.12337e-05
1.12366e-05
1.12404e-05
1.12435e-05
1.1245e-05
1.16688e-05
1.16689e-05
1.16691e-05
1.16695e-05
1.16704e-05
1.16719e-05
1.16744e-05
1.16781e-05
1.16834e-05
1.16903e-05
1.16983e-05
1.17063e-05
1.17123e-05
1.17127e-05
1.17026e-05
1.16754e-05
1.16265e-05
1.15606e-05
1.1487e-05
1.14149e-05
1.13521e-05
1.1301e-05
1.12604e-05
1.12285e-05
1.12041e-05
1.11868e-05
1.11761e-05
1.11714e-05
1.11713e-05
1.11738e-05
1.11768e-05
1.11786e-05
1.16691e-05
1.16691e-05
1.16693e-05
1.16697e-05
1.16704e-05
1.16717e-05
1.16736e-05
1.16765e-05
1.16805e-05
1.16857e-05
1.16916e-05
1.16974e-05
1.17013e-05
1.17001e-05
1.16893e-05
1.16632e-05
1.16203e-05
1.15664e-05
1.15078e-05
1.14468e-05
1.13874e-05
1.13327e-05
1.12843e-05
1.12426e-05
1.1208e-05
1.11809e-05
1.11615e-05
1.11495e-05
1.11438e-05
1.11425e-05
1.11436e-05
1.11448e-05
1.16685e-05
1.16687e-05
1.16691e-05
1.16696e-05
1.16703e-05
1.16713e-05
1.16727e-05
1.16748e-05
1.16775e-05
1.16808e-05
1.1684e-05
1.16865e-05
1.16864e-05
1.16812e-05
1.16668e-05
1.16388e-05
1.1598e-05
1.15513e-05
1.15033e-05
1.14538e-05
1.14034e-05
1.13531e-05
1.13047e-05
1.12594e-05
1.12187e-05
1.11843e-05
1.11575e-05
1.1139e-05
1.11283e-05
1.11237e-05
1.1123e-05
1.11236e-05
1.16652e-05
1.16659e-05
1.1667e-05
1.16682e-05
1.16694e-05
1.16705e-05
1.16716e-05
1.16728e-05
1.16739e-05
1.16745e-05
1.16738e-05
1.16711e-05
1.1665e-05
1.16536e-05
1.16339e-05
1.16026e-05
1.15624e-05
1.15203e-05
1.14798e-05
1.14396e-05
1.13982e-05
1.13554e-05
1.13116e-05
1.12679e-05
1.1226e-05
1.1188e-05
1.11562e-05
1.11326e-05
1.11174e-05
1.11097e-05
1.11073e-05
1.11074e-05
1.16554e-05
1.1657e-05
1.16598e-05
1.1663e-05
1.16657e-05
1.16675e-05
1.16685e-05
1.16684e-05
1.16669e-05
1.16632e-05
1.16566e-05
1.16467e-05
1.1633e-05
1.16142e-05
1.15888e-05
1.15547e-05
1.15152e-05
1.1477e-05
1.14424e-05
1.14094e-05
1.1376e-05
1.1341e-05
1.13038e-05
1.1265e-05
1.12257e-05
1.1188e-05
1.11544e-05
1.11274e-05
1.11087e-05
1.10982e-05
1.10942e-05
1.10938e-05
1.16339e-05
1.16371e-05
1.16426e-05
1.16489e-05
1.16543e-05
1.16576e-05
1.16581e-05
1.16557e-05
1.16497e-05
1.16397e-05
1.16255e-05
1.16075e-05
1.15859e-05
1.15607e-05
1.15309e-05
1.14957e-05
1.14583e-05
1.14242e-05
1.13948e-05
1.13679e-05
1.13413e-05
1.13134e-05
1.12833e-05
1.12508e-05
1.12167e-05
1.11823e-05
1.11498e-05
1.11219e-05
1.11011e-05
1.10884e-05
1.10829e-05
1.10819e-05
1.15965e-05
1.16015e-05
1.16099e-05
1.16194e-05
1.16274e-05
1.16315e-05
1.16306e-05
1.16243e-05
1.16125e-05
1.15954e-05
1.15739e-05
1.1549e-05
1.15218e-05
1.14927e-05
1.14615e-05
1.14276e-05
1.13939e-05
1.13647e-05
1.13403e-05
1.13187e-05
1.1298e-05
1.12765e-05
1.12531e-05
1.12274e-05
1.11996e-05
1.11704e-05
1.11414e-05
1.11149e-05
1.10937e-05
1.10797e-05
1.10729e-05
1.10714e-05
1.15407e-05
1.15469e-05
1.15566e-05
1.15669e-05
1.15751e-05
1.15781e-05
1.15744e-05
1.15639e-05
1.15469e-05
1.15247e-05
1.14988e-05
1.14708e-05
1.14419e-05
1.14129e-05
1.13836e-05
1.13536e-05
1.13251e-05
1.13012e-05
1.12818e-05
1.12651e-05
1.12494e-05
1.12334e-05
1.12161e-05
1.11969e-05
1.11756e-05
1.11526e-05
1.11287e-05
1.11056e-05
1.10859e-05
1.10717e-05
1.10642e-05
1.10621e-05
1.14656e-05
1.14717e-05
1.14789e-05
1.14857e-05
1.14903e-05
1.14901e-05
1.14837e-05
1.14707e-05
1.1452e-05
1.1429e-05
1.14036e-05
1.13772e-05
1.13511e-05
1.13258e-05
1.13013e-05
1.12771e-05
1.12549e-05
1.12367e-05
1.12221e-05
1.12098e-05
1.11985e-05
1.11872e-05
1.11751e-05
1.11616e-05
1.11465e-05
1.11298e-05
1.11118e-05
1.10935e-05
1.10768e-05
1.10639e-05
1.10563e-05
1.10539e-05
1.13708e-05
1.13741e-05
1.1375e-05
1.1375e-05
1.13744e-05
1.13712e-05
1.13638e-05
1.13518e-05
1.13357e-05
1.13167e-05
1.12963e-05
1.12756e-05
1.12556e-05
1.12367e-05
1.12188e-05
1.12016e-05
1.1186e-05
1.11734e-05
1.11635e-05
1.11552e-05
1.11477e-05
1.11403e-05
1.11325e-05
1.11239e-05
1.11142e-05
1.11034e-05
1.10914e-05
1.10786e-05
1.10662e-05
1.10559e-05
1.10492e-05
1.10467e-05
1.12536e-05
1.12518e-05
1.12466e-05
1.12422e-05
1.12388e-05
1.12349e-05
1.12293e-05
1.12213e-05
1.1211e-05
1.11991e-05
1.11865e-05
1.11738e-05
1.11617e-05
1.11504e-05
1.11398e-05
1.11297e-05
1.11208e-05
1.11135e-05
1.11079e-05
1.11032e-05
1.1099e-05
1.10949e-05
1.10907e-05
1.1086e-05
1.10808e-05
1.10749e-05
1.10683e-05
1.10611e-05
1.10538e-05
1.10472e-05
1.10425e-05
1.10405e-05
1.11099e-05
1.1108e-05
1.11046e-05
1.1102e-05
1.11002e-05
1.10985e-05
1.10965e-05
1.10938e-05
1.10903e-05
1.10864e-05
1.10822e-05
1.1078e-05
1.1074e-05
1.10703e-05
1.10669e-05
1.10636e-05
1.10608e-05
1.10584e-05
1.10566e-05
1.10551e-05
1.10538e-05
1.10525e-05
1.10512e-05
1.10498e-05
1.10481e-05
1.10463e-05
1.10443e-05
1.1042e-05
1.10397e-05
1.10375e-05
1.10358e-05
1.10349e-05
)
;

boundaryField
{
    movingWall
    {
        type            fixedValue;
        value           uniform 1.1032e-05;
    }
    fixedWalls
    {
        type            zeroGradient;
    }
    floor
    {
        type            zeroGradient;
    }
    frontAndBack
    {
        type            empty;
    }
}


// ************************************************************************* //
