/*--------------------------------*- C++ -*----------------------------------*\
| =========                 |                                                 |
| \\      /  F ield         | OpenFOAM: The Open Source CFD Toolbox           |
|  \\    /   O peration     | Version:  2212                                  |
|   \\  /    A nd           | Website:  www.openfoam.com                      |
|    \\/     M anipulation  |                                                 |
\*---------------------------------------------------------------------------*/
FoamFile
{
    version     2.0;
    format      ascii;
    arch        "LSB;label=64;scalar=64";
    class       volScalarField::Internal;
    location    "1320";
    object      dGco2;
}
// * * * * * * * * * * * * * * * * * * * * * * * * * * * * * * * * * * * * * //

dimensions      [1 -3 -1 0 0 0 0];

value           nonuniform List<scalar> 
1024
(
0.000142425
0.000142461
0.00014255
0.00014271
0.000142965
0.000143336
0.000143836
0.000144463
0.000145197
0.000145995
0.000146799
0.000147531
0.000148098
0.000148423
0.000148473
0.000148223
0.000147664
0.000146864
0.000145911
0.000144847
0.000143717
0.000142575
0.000141482
0.000140494
0.000139652
0.000138975
0.000138462
0.000138095
0.000137848
0.000137695
0.000137611
0.000137577
0.000142432
0.000142469
0.000142559
0.000142722
0.000142982
0.000143359
0.000143867
0.000144503
0.000145245
0.000146051
0.000146862
0.0001476
0.00014817
0.000148494
0.00014854
0.000148287
0.000147726
0.000146924
0.00014597
0.000144904
0.000143772
0.000142627
0.000141528
0.000140533
0.000139684
0.000139
0.00013848
0.000138108
0.000137858
0.000137703
0.000137618
0.000137584
0.000142449
0.000142486
0.000142579
0.000142748
0.000143017
0.000143407
0.000143931
0.000144585
0.000145347
0.000146174
0.000147007
0.000147767
0.000148348
0.000148668
0.000148704
0.00014844
0.000147871
0.000147062
0.000146101
0.00014503
0.000143891
0.000142738
0.000141628
0.000140618
0.000139753
0.000139054
0.000138521
0.000138139
0.000137881
0.000137722
0.000137635
0.0001376
0.000142476
0.000142516
0.000142612
0.000142789
0.00014307
0.000143479
0.000144026
0.000144709
0.000145504
0.000146373
0.000147257
0.000148066
0.000148674
0.000148989
0.000149005
0.000148717
0.000148126
0.000147297
0.000146318
0.000145232
0.00014408
0.000142912
0.000141784
0.000140752
0.000139863
0.00013914
0.000138587
0.000138189
0.000137921
0.000137755
0.000137665
0.000137629
0.000142518
0.000142558
0.000142659
0.000142844
0.00014314
0.00014357
0.000144148
0.000144871
0.000145722
0.000146663
0.000147636
0.000148536
0.000149197
0.000149511
0.000149492
0.000149158
0.000148524
0.000147653
0.000146637
0.000145519
0.000144341
0.000143148
0.000141993
0.000140932
0.000140011
0.000139258
0.000138678
0.00013826
0.000137979
0.000137805
0.00013771
0.000137672
0.000142575
0.000142616
0.00014272
0.000142913
0.000143223
0.000143676
0.000144291
0.00014507
0.000146002
0.000147057
0.000148173
0.000149218
0.000149969
0.00015029
0.000150223
0.000149816
0.000149107
0.000148161
0.000147073
0.000145895
0.00014467
0.000143438
0.000142246
0.000141148
0.000140189
0.0001394
0.000138791
0.000138351
0.000138054
0.000137871
0.000137771
0.000137731
0.00014265
0.000142692
0.000142798
0.000142995
0.000143317
0.000143794
0.000144452
0.000145304
0.000146349
0.000147568
0.000148891
0.000150144
0.000151032
0.00015138
0.000151255
0.000150751
0.000149928
0.000148859
0.00014765
0.000146368
0.000145061
0.000143766
0.000142523
0.000141379
0.000140379
0.000139554
0.000138916
0.000138454
0.000138143
0.000137952
0.000137848
0.000137807
0.000142754
0.000142795
0.000142899
0.000143098
0.000143428
0.000143928
0.000144634
0.000145576
0.000146771
0.000148211
0.000149813
0.000151344
0.000152421
0.000152827
0.000152647
0.000152025
0.00015105
0.000149798
0.000148399
0.000146948
0.000145508
0.000144113
0.000142797
0.000141599
0.000140557
0.0001397
0.000139039
0.000138562
0.000138242
0.000138046
0.000137941
0.0001379
0.000142908
0.000142946
0.000143046
0.000143241
0.000143575
0.000144094
0.000144854
0.000145905
0.00014729
0.000149014
0.00015097
0.000152845
0.000154164
0.000154666
0.000154451
0.000153713
0.000152554
0.000151052
0.000149371
0.000147661
0.000146014
0.000144468
0.000143048
0.000141781
0.000140698
0.000139819
0.000139148
0.000138668
0.00013835
0.000138157
0.000138056
0.000138016
0.000143165
0.000143198
0.000143289
0.000143477
0.000143809
0.000144348
0.000145167
0.000146348
0.000147965
0.000150036
0.000152418
0.000154696
0.000156304
0.000156945
0.000156738
0.000155915
0.000154566
0.000152748
0.000150678
0.000148591
0.000146634
0.000144858
0.000143285
0.000141929
0.000140804
0.000139914
0.000139251
0.000138788
0.000138489
0.000138314
0.000138225
0.000138192
0.000143633
0.000143659
0.000143739
0.000143915
0.000144245
0.000144807
0.000145699
0.000147038
0.000148932
0.000151413
0.000154278
0.000156995
0.000158922
0.000159753
0.000159636
0.000158818
0.000157325
0.000155157
0.000152604
0.000149998
0.000147582
0.000145453
0.00014364
0.000142146
0.000140963
0.00014007
0.000139435
0.000139015
0.000138763
0.000138628
0.000138569
0.000138552
0.000144509
0.000144528
0.000144596
0.000144763
0.0001451
0.000145704
0.0001467
0.000148241
0.000150466
0.0001534
0.000156764
0.000159917
0.000162178
0.000163277
0.000163403
0.000162786
0.000161321
0.000158902
0.000155855
0.000152612
0.00014955
0.000146868
0.000144642
0.000142882
0.000141567
0.000140644
0.000140047
0.000139702
0.000139538
0.000139486
0.000139489
0.000139504
0.000146086
0.0001461
0.000146165
0.000146339
0.000146708
0.000147394
0.000148551
0.000150359
0.000152966
0.000156358
0.000160178
0.000163719
0.000166337
0.000167852
0.000168505
0.000168468
0.000167465
0.000165219
0.000162002
0.000158271
0.000154487
0.000151004
0.000148045
0.00014571
0.000144026
0.000142922
0.000142296
0.000142026
0.000141985
0.000142061
0.000142164
0.000142232
0.000148661
0.000148679
0.00014876
0.000148976
0.000149433
0.000150275
0.000151682
0.000153843
0.000156884
0.000160713
0.000164891
0.000168743
0.000171775
0.000173967
0.000175589
0.000176733
0.000176998
0.000175895
0.000173499
0.00017015
0.000166255
0.000162228
0.000158426
0.000155133
0.000152577
0.000150783
0.000149718
0.000149245
0.000149163
0.00014928
0.000149441
0.000149548
0.000152271
0.000152307
0.00015244
0.000152764
0.00015341
0.00015455
0.000156373
0.000159041
0.000162584
0.000166779
0.000171146
0.000175192
0.000178714
0.000181846
0.000184819
0.000187677
0.000190014
0.000191214
0.000191116
0.000189832
0.000187539
0.000184483
0.000180967
0.000177334
0.000173923
0.000170982
0.000168721
0.000167208
0.000166356
0.000165985
0.000165893
0.000165908
0.000156291
0.000156345
0.000156525
0.00015694
0.000157736
0.000159087
0.000161164
0.000164078
0.000167806
0.000172138
0.000176721
0.000181217
0.00018549
0.000189622
0.000193757
0.000197957
0.000201937
0.000205254
0.000207781
0.000209481
0.000210274
0.000210111
0.000209011
0.000207087
0.000204553
0.000201723
0.000198937
0.000196508
0.000194655
0.000193448
0.000192808
0.000192574
0.000159651
0.00015971
0.000159901
0.00016033
0.000161139
0.000162492
0.00016455
0.000167415
0.000171074
0.000175363
0.000179994
0.000184659
0.000189155
0.000193418
0.000197436
0.000201212
0.000204646
0.000207841
0.000211058
0.000214296
0.000217338
0.000219926
0.000221838
0.000222932
0.000223162
0.000222605
0.000221453
0.000219998
0.000218565
0.000217418
0.000216687
0.000216366
0.00016189
0.000161949
0.00016213
0.000162527
0.000163265
0.000164494
0.000166365
0.000168984
0.000172362
0.000176376
0.000180771
0.000185227
0.000189455
0.000193241
0.000196427
0.000198917
0.000200744
0.000202562
0.000205069
0.000208371
0.000212196
0.000216142
0.00021982
0.000222924
0.000225268
0.000226791
0.000227546
0.000227686
0.000227432
0.000227028
0.000226676
0.000226489
0.00016325
0.000163307
0.000163473
0.000163825
0.00016447
0.000165538
0.000167166
0.000169464
0.000172462
0.000176072
0.000180077
0.000184164
0.000188002
0.000191299
0.000193817
0.000195419
0.00019622
0.000197119
0.000199006
0.000202145
0.000206345
0.000211168
0.000216073
0.000220558
0.000224261
0.000227015
0.000228827
0.000229834
0.000230245
0.000230298
0.000230207
0.000230125
0.000164063
0.000164116
0.000164264
0.00016457
0.000165122
0.000166031
0.000167417
0.000169383
0.000171973
0.00017513
0.000178676
0.000182331
0.000185774
0.000188696
0.000190846
0.000192091
0.000192594
0.000193249
0.000194868
0.000197785
0.000201959
0.000207099
0.000212709
0.000218205
0.000223046
0.000226882
0.000229597
0.000231275
0.000232132
0.000232443
0.000232474
0.00023243
0.000164597
0.00016464
0.000164761
0.000165014
0.000165472
0.000166229
0.000167389
0.000169045
0.00017124
0.000173941
0.00017701
0.000180219
0.000183291
0.000185952
0.000187985
0.000189294
0.000190056
0.000190999
0.000192736
0.000195579
0.000199595
0.000204653
0.000210417
0.000216371
0.000221924
0.00022659
0.000230097
0.000232416
0.000233716
0.000234278
0.000234416
0.000234397
0.00016515
0.00016517
0.000165241
0.000165412
0.000165753
0.000166349
0.000167291
0.000168659
0.000170494
0.000172777
0.000175408
0.000178218
0.000180996
0.000183532
0.000185665
0.000187352
0.000188736
0.000190275
0.000192367
0.000195282
0.000199149
0.000203954
0.000209514
0.000215455
0.000221266
0.000226419
0.000230513
0.000233383
0.000235103
0.000235923
0.000236175
0.000236183
0.000166078
0.000166055
0.000166037
0.000166078
0.000166253
0.000166653
0.000167368
0.000168472
0.000170003
0.000171953
0.000174257
0.000176802
0.000179442
0.000182032
0.000184465
0.00018674
0.000188909
0.00019113
0.000193621
0.000196627
0.00020032
0.000204781
0.00020994
0.000215552
0.000221229
0.000226509
0.000230942
0.000234231
0.000236326
0.000237401
0.000237776
0.000237815
0.000167773
0.000167681
0.00016753
0.000167385
0.000167342
0.000167512
0.000168001
0.000168888
0.000170215
0.000171983
0.00017415
0.000176636
0.00017934
0.000182158
0.000185017
0.000187932
0.000190838
0.000193631
0.000196411
0.000199422
0.000202864
0.000206881
0.000211499
0.000216585
0.000221864
0.000226965
0.000231472
0.000235015
0.000237411
0.000238725
0.000239231
0.000239306
0.000170591
0.000170406
0.000170087
0.00016973
0.000169464
0.00016943
0.000169758
0.000170543
0.000171829
0.000173612
0.00017585
0.00017847
0.000181385
0.000184506
0.000187772
0.000191195
0.000194606
0.000197726
0.0002006
0.000203478
0.000206576
0.000210067
0.000214041
0.00021846
0.000223156
0.000227851
0.000232189
0.000235796
0.000238389
0.000239909
0.000240547
0.000240663
0.00017479
0.000174497
0.000174016
0.000173498
0.000173111
0.000173016
0.000173351
0.000174217
0.000175644
0.000177606
0.00018004
0.000182864
0.000185986
0.000189321
0.00019281
0.000196459
0.00020004
0.000203194
0.00020595
0.000208559
0.000211235
0.000214155
0.000217435
0.000221105
0.000225087
0.000229201
0.00023317
0.000236645
0.000239302
0.000240969
0.000241729
0.000241893
0.000180522
0.000180125
0.000179557
0.000179047
0.000178775
0.00017887
0.000179438
0.000180559
0.00018223
0.000184398
0.000186987
0.000189907
0.000193066
0.000196385
0.000199813
0.000203352
0.00020676
0.000209682
0.000212144
0.000214382
0.000216591
0.000218932
0.000221524
0.000224427
0.00022763
0.000231041
0.000234472
0.000237635
0.000240203
0.000241929
0.000242785
0.000242999
0.000187879
0.000187418
0.000186939
0.000186716
0.000186854
0.000187383
0.000188339
0.000189757
0.000191608
0.00019384
0.000196385
0.000199163
0.000202095
0.00020512
0.000208194
0.00021132
0.000214285
0.000216778
0.000218826
0.000220635
0.000222368
0.000224157
0.000226106
0.000228284
0.000230712
0.000233364
0.000236136
0.000238828
0.000241149
0.000242822
0.000243725
0.000243985
0.000196979
0.00019656
0.000196443
0.000196786
0.000197511
0.000198529
0.000199815
0.000201374
0.000203188
0.000205234
0.000207469
0.000209841
0.000212293
0.000214782
0.000217277
0.000219782
0.000222129
0.000224078
0.000225653
0.000227015
0.00022829
0.000229576
0.000230956
0.000232487
0.000234204
0.000236111
0.000238171
0.00024027
0.000242196
0.000243687
0.000244564
0.000244853
0.000208065
0.000207901
0.000208395
0.00020934
0.000210497
0.000211751
0.000213077
0.000214485
0.000215989
0.000217596
0.000219295
0.000221058
0.000222854
0.000224656
0.000226445
0.000228224
0.000229876
0.000231238
0.000232327
0.000233255
0.000234108
0.000234953
0.000235847
0.00023683
0.000237932
0.000239167
0.000240533
0.000241982
0.000243392
0.000244568
0.000245325
0.000245609
0.000221604
0.000221926
0.000222875
0.000223948
0.000225016
0.000226042
0.000227026
0.00022799
0.00022896
0.000229959
0.00023099
0.000232046
0.000233111
0.000234172
0.000235219
0.000236254
0.00023721
0.000237995
0.000238619
0.000239146
0.000239624
0.000240091
0.00024058
0.000241112
0.000241707
0.000242375
0.000243122
0.000243936
0.000244767
0.000245511
0.000246037
0.000246263
0.000238162
0.000238416
0.000238906
0.000239375
0.000239808
0.000240202
0.000240564
0.000240904
0.000241235
0.000241568
0.000241909
0.000242254
0.000242601
0.000242946
0.000243285
0.000243619
0.000243927
0.000244179
0.000244379
0.000244547
0.000244698
0.000244845
0.000244998
0.000245163
0.000245347
0.000245553
0.000245783
0.000246037
0.000246302
0.00024655
0.000246741
0.000246833
)
;


// ************************************************************************* //
