/*--------------------------------*- C++ -*----------------------------------*\
| =========                 |                                                 |
| \\      /  F ield         | OpenFOAM: The Open Source CFD Toolbox           |
|  \\    /   O peration     | Version:  2212                                  |
|   \\  /    A nd           | Website:  www.openfoam.com                      |
|    \\/     M anipulation  |                                                 |
\*---------------------------------------------------------------------------*/
FoamFile
{
    version     2.0;
    format      ascii;
    arch        "LSB;label=64;scalar=64";
    class       volScalarField;
    location    "1320";
    object      Gh2;
}
// * * * * * * * * * * * * * * * * * * * * * * * * * * * * * * * * * * * * * //

dimensions      [1 -3 0 0 0 0 0];

internalField   nonuniform List<scalar> 
1024
(
1.28674e-05
1.28667e-05
1.2865e-05
1.28618e-05
1.28567e-05
1.28493e-05
1.28393e-05
1.28268e-05
1.28122e-05
1.27964e-05
1.27806e-05
1.27662e-05
1.27553e-05
1.27492e-05
1.27488e-05
1.27545e-05
1.27664e-05
1.27831e-05
1.28028e-05
1.28247e-05
1.2848e-05
1.28716e-05
1.28943e-05
1.29149e-05
1.29325e-05
1.29467e-05
1.29575e-05
1.29652e-05
1.29704e-05
1.29736e-05
1.29753e-05
1.29761e-05
1.28673e-05
1.28666e-05
1.28648e-05
1.28615e-05
1.28563e-05
1.28488e-05
1.28387e-05
1.2826e-05
1.28112e-05
1.27953e-05
1.27793e-05
1.27649e-05
1.27539e-05
1.27479e-05
1.27475e-05
1.27532e-05
1.27652e-05
1.27819e-05
1.28016e-05
1.28236e-05
1.28469e-05
1.28706e-05
1.28934e-05
1.29141e-05
1.29319e-05
1.29462e-05
1.29571e-05
1.29649e-05
1.29702e-05
1.29734e-05
1.29752e-05
1.29759e-05
1.2867e-05
1.28662e-05
1.28644e-05
1.2861e-05
1.28556e-05
1.28478e-05
1.28374e-05
1.28244e-05
1.28092e-05
1.27929e-05
1.27765e-05
1.27616e-05
1.27504e-05
1.27445e-05
1.27443e-05
1.27503e-05
1.27624e-05
1.27793e-05
1.27991e-05
1.28211e-05
1.28446e-05
1.28684e-05
1.28914e-05
1.29124e-05
1.29305e-05
1.29451e-05
1.29563e-05
1.29643e-05
1.29697e-05
1.2973e-05
1.29749e-05
1.29756e-05
1.28664e-05
1.28656e-05
1.28637e-05
1.28602e-05
1.28546e-05
1.28464e-05
1.28355e-05
1.28219e-05
1.28061e-05
1.27889e-05
1.27716e-05
1.27557e-05
1.2744e-05
1.27382e-05
1.27385e-05
1.2745e-05
1.27575e-05
1.27748e-05
1.27949e-05
1.28172e-05
1.28409e-05
1.28649e-05
1.28883e-05
1.29097e-05
1.29282e-05
1.29434e-05
1.29549e-05
1.29633e-05
1.29689e-05
1.29724e-05
1.29743e-05
1.2975e-05
1.28656e-05
1.28648e-05
1.28628e-05
1.28591e-05
1.28532e-05
1.28446e-05
1.28331e-05
1.28187e-05
1.28018e-05
1.27832e-05
1.27641e-05
1.27465e-05
1.27338e-05
1.27281e-05
1.27291e-05
1.27365e-05
1.27499e-05
1.2768e-05
1.27888e-05
1.28117e-05
1.28358e-05
1.28603e-05
1.28841e-05
1.29061e-05
1.29253e-05
1.2941e-05
1.29531e-05
1.29618e-05
1.29677e-05
1.29714e-05
1.29734e-05
1.29742e-05
1.28644e-05
1.28636e-05
1.28615e-05
1.28577e-05
1.28515e-05
1.28425e-05
1.28302e-05
1.28147e-05
1.27963e-05
1.27754e-05
1.27536e-05
1.27332e-05
1.27188e-05
1.27131e-05
1.27151e-05
1.2724e-05
1.27389e-05
1.27584e-05
1.27806e-05
1.28045e-05
1.28295e-05
1.28547e-05
1.28792e-05
1.29019e-05
1.29217e-05
1.29381e-05
1.29508e-05
1.29601e-05
1.29663e-05
1.29701e-05
1.29722e-05
1.2973e-05
1.28629e-05
1.28621e-05
1.286e-05
1.2856e-05
1.28496e-05
1.28401e-05
1.2827e-05
1.28101e-05
1.27894e-05
1.27654e-05
1.27395e-05
1.27151e-05
1.26982e-05
1.2692e-05
1.26953e-05
1.27062e-05
1.27235e-05
1.27454e-05
1.27698e-05
1.27957e-05
1.28222e-05
1.28485e-05
1.28739e-05
1.28974e-05
1.2918e-05
1.29351e-05
1.29484e-05
1.2958e-05
1.29645e-05
1.29685e-05
1.29707e-05
1.29716e-05
1.28608e-05
1.286e-05
1.28579e-05
1.2854e-05
1.28474e-05
1.28374e-05
1.28234e-05
1.28047e-05
1.27811e-05
1.27527e-05
1.27214e-05
1.26917e-05
1.26712e-05
1.26642e-05
1.26688e-05
1.26822e-05
1.27025e-05
1.2728e-05
1.27561e-05
1.27851e-05
1.2814e-05
1.28421e-05
1.28689e-05
1.28933e-05
1.29147e-05
1.29324e-05
1.29461e-05
1.2956e-05
1.29627e-05
1.29668e-05
1.2969e-05
1.29698e-05
1.28577e-05
1.2857e-05
1.2855e-05
1.28511e-05
1.28444e-05
1.28341e-05
1.2819e-05
1.27982e-05
1.27708e-05
1.27369e-05
1.26987e-05
1.26625e-05
1.26375e-05
1.26289e-05
1.26345e-05
1.26505e-05
1.26746e-05
1.2705e-05
1.27385e-05
1.27724e-05
1.28051e-05
1.2836e-05
1.28646e-05
1.28902e-05
1.29123e-05
1.29304e-05
1.29442e-05
1.29541e-05
1.29607e-05
1.29648e-05
1.29669e-05
1.29677e-05
1.28526e-05
1.28519e-05
1.28501e-05
1.28464e-05
1.28397e-05
1.2829e-05
1.28128e-05
1.27894e-05
1.27575e-05
1.27168e-05
1.26704e-05
1.26266e-05
1.25963e-05
1.25854e-05
1.25913e-05
1.26093e-05
1.26374e-05
1.26741e-05
1.2715e-05
1.2756e-05
1.27945e-05
1.28297e-05
1.2861e-05
1.28882e-05
1.29109e-05
1.2929e-05
1.29426e-05
1.29521e-05
1.29583e-05
1.2962e-05
1.29639e-05
1.29646e-05
1.28431e-05
1.28426e-05
1.2841e-05
1.28376e-05
1.2831e-05
1.28198e-05
1.28022e-05
1.27757e-05
1.27384e-05
1.26898e-05
1.26342e-05
1.25821e-05
1.25461e-05
1.25321e-05
1.25368e-05
1.25552e-05
1.25865e-05
1.263e-05
1.26803e-05
1.27312e-05
1.27783e-05
1.28199e-05
1.28556e-05
1.28852e-05
1.29089e-05
1.29268e-05
1.29397e-05
1.29483e-05
1.29536e-05
1.29564e-05
1.29577e-05
1.29581e-05
1.28255e-05
1.28252e-05
1.28238e-05
1.28205e-05
1.28139e-05
1.28019e-05
1.27822e-05
1.27519e-05
1.27082e-05
1.26509e-05
1.25859e-05
1.25258e-05
1.24839e-05
1.24653e-05
1.24659e-05
1.24811e-05
1.25123e-05
1.2561e-05
1.26209e-05
1.26838e-05
1.27431e-05
1.27951e-05
1.28384e-05
1.28728e-05
1.28986e-05
1.2917e-05
1.29289e-05
1.2936e-05
1.29394e-05
1.29407e-05
1.29407e-05
1.29405e-05
1.27939e-05
1.27937e-05
1.27924e-05
1.2789e-05
1.27818e-05
1.27683e-05
1.27455e-05
1.27101e-05
1.26591e-05
1.25932e-05
1.25198e-05
1.24527e-05
1.24047e-05
1.23787e-05
1.23698e-05
1.23744e-05
1.23973e-05
1.24432e-05
1.25065e-05
1.25789e-05
1.26518e-05
1.27188e-05
1.27757e-05
1.28207e-05
1.28533e-05
1.28748e-05
1.28871e-05
1.28926e-05
1.28936e-05
1.28923e-05
1.28904e-05
1.28891e-05
1.27425e-05
1.27422e-05
1.27406e-05
1.27365e-05
1.27276e-05
1.27111e-05
1.26837e-05
1.26415e-05
1.25825e-05
1.25086e-05
1.24289e-05
1.23565e-05
1.2301e-05
1.22625e-05
1.22354e-05
1.22179e-05
1.22173e-05
1.2242e-05
1.22904e-05
1.23559e-05
1.24311e-05
1.25082e-05
1.25808e-05
1.26436e-05
1.26923e-05
1.27265e-05
1.27469e-05
1.2756e-05
1.27577e-05
1.27555e-05
1.27525e-05
1.27505e-05
1.26706e-05
1.26699e-05
1.26674e-05
1.26612e-05
1.26487e-05
1.26267e-05
1.25914e-05
1.25398e-05
1.24716e-05
1.23912e-05
1.23084e-05
1.22328e-05
1.21681e-05
1.21115e-05
1.20587e-05
1.20089e-05
1.19696e-05
1.19518e-05
1.19578e-05
1.19854e-05
1.2031e-05
1.20902e-05
1.21573e-05
1.22261e-05
1.22905e-05
1.23458e-05
1.23883e-05
1.24167e-05
1.24327e-05
1.24396e-05
1.24413e-05
1.2441e-05
1.25905e-05
1.25895e-05
1.25861e-05
1.25782e-05
1.2563e-05
1.2537e-05
1.2497e-05
1.24409e-05
1.23694e-05
1.22866e-05
1.21997e-05
1.21151e-05
1.20357e-05
1.19596e-05
1.18843e-05
1.1809e-05
1.17394e-05
1.16832e-05
1.16421e-05
1.16159e-05
1.16058e-05
1.16125e-05
1.16354e-05
1.16727e-05
1.17204e-05
1.17731e-05
1.18246e-05
1.18694e-05
1.19035e-05
1.19256e-05
1.19373e-05
1.19416e-05
1.2523e-05
1.2522e-05
1.25184e-05
1.25103e-05
1.24949e-05
1.24689e-05
1.24294e-05
1.23743e-05
1.23039e-05
1.22217e-05
1.21332e-05
1.20446e-05
1.19598e-05
1.188e-05
1.18057e-05
1.17374e-05
1.16776e-05
1.16247e-05
1.15729e-05
1.15214e-05
1.14733e-05
1.14327e-05
1.14031e-05
1.13868e-05
1.13849e-05
1.1396e-05
1.1417e-05
1.14431e-05
1.14685e-05
1.14888e-05
1.15017e-05
1.15074e-05
1.24774e-05
1.24763e-05
1.24729e-05
1.24655e-05
1.24515e-05
1.24279e-05
1.23919e-05
1.23414e-05
1.22762e-05
1.21988e-05
1.21141e-05
1.20284e-05
1.19474e-05
1.1875e-05
1.18146e-05
1.17685e-05
1.17368e-05
1.17082e-05
1.16697e-05
1.16187e-05
1.15593e-05
1.14978e-05
1.14402e-05
1.13914e-05
1.13544e-05
1.133e-05
1.13178e-05
1.13153e-05
1.13193e-05
1.13257e-05
1.13313e-05
1.13343e-05
1.24489e-05
1.24478e-05
1.24448e-05
1.24382e-05
1.2426e-05
1.24055e-05
1.23742e-05
1.23297e-05
1.22716e-05
1.22016e-05
1.21238e-05
1.20443e-05
1.19696e-05
1.19053e-05
1.18561e-05
1.18249e-05
1.18106e-05
1.17973e-05
1.17689e-05
1.17204e-05
1.16549e-05
1.15793e-05
1.15024e-05
1.14322e-05
1.13741e-05
1.13308e-05
1.1302e-05
1.12857e-05
1.12786e-05
1.12771e-05
1.12781e-05
1.12792e-05
1.24311e-05
1.24302e-05
1.24275e-05
1.24218e-05
1.24114e-05
1.2394e-05
1.23673e-05
1.23292e-05
1.22788e-05
1.22172e-05
1.21478e-05
1.20761e-05
1.20083e-05
1.19504e-05
1.19073e-05
1.18819e-05
1.18723e-05
1.18626e-05
1.18381e-05
1.17928e-05
1.17271e-05
1.16461e-05
1.15577e-05
1.14713e-05
1.13953e-05
1.13352e-05
1.12925e-05
1.12659e-05
1.1252e-05
1.12466e-05
1.12457e-05
1.12461e-05
1.24192e-05
1.24184e-05
1.24162e-05
1.24115e-05
1.24029e-05
1.23884e-05
1.2366e-05
1.23339e-05
1.2291e-05
1.22381e-05
1.21777e-05
1.21144e-05
1.20534e-05
1.20002e-05
1.19592e-05
1.19326e-05
1.19182e-05
1.19031e-05
1.1876e-05
1.18311e-05
1.17674e-05
1.16871e-05
1.15959e-05
1.1502e-05
1.14147e-05
1.13415e-05
1.12866e-05
1.12501e-05
1.12295e-05
1.12203e-05
1.12178e-05
1.12178e-05
1.24076e-05
1.24073e-05
1.24059e-05
1.24027e-05
1.23962e-05
1.23847e-05
1.23665e-05
1.23398e-05
1.23039e-05
1.22591e-05
1.22072e-05
1.21516e-05
1.20965e-05
1.20461e-05
1.20037e-05
1.19707e-05
1.19454e-05
1.19197e-05
1.18859e-05
1.18392e-05
1.17772e-05
1.17005e-05
1.1612e-05
1.1518e-05
1.14264e-05
1.13456e-05
1.12815e-05
1.12366e-05
1.12096e-05
1.11965e-05
1.11922e-05
1.11919e-05
1.23903e-05
1.23906e-05
1.23908e-05
1.23898e-05
1.23862e-05
1.23783e-05
1.23643e-05
1.23427e-05
1.23127e-05
1.22745e-05
1.22293e-05
1.21793e-05
1.21276e-05
1.2077e-05
1.20301e-05
1.19874e-05
1.19486e-05
1.19109e-05
1.18698e-05
1.18208e-05
1.17611e-05
1.16895e-05
1.1607e-05
1.15179e-05
1.14283e-05
1.13453e-05
1.1276e-05
1.12246e-05
1.11919e-05
1.11749e-05
1.11688e-05
1.1168e-05
1.23603e-05
1.23619e-05
1.23643e-05
1.23665e-05
1.23667e-05
1.23628e-05
1.23529e-05
1.23355e-05
1.23097e-05
1.22754e-05
1.22337e-05
1.21859e-05
1.21342e-05
1.20808e-05
1.20273e-05
1.19741e-05
1.19228e-05
1.18751e-05
1.18286e-05
1.1779e-05
1.1723e-05
1.1658e-05
1.1584e-05
1.1503e-05
1.14194e-05
1.13392e-05
1.12687e-05
1.12135e-05
1.11761e-05
1.11556e-05
1.11475e-05
1.11461e-05
1.23118e-05
1.23149e-05
1.23202e-05
1.2326e-05
1.233e-05
1.23297e-05
1.23228e-05
1.23075e-05
1.22831e-05
1.22494e-05
1.22075e-05
1.21586e-05
1.21044e-05
1.20469e-05
1.19874e-05
1.1926e-05
1.18663e-05
1.18129e-05
1.17645e-05
1.17167e-05
1.16659e-05
1.16092e-05
1.15452e-05
1.14747e-05
1.14002e-05
1.13263e-05
1.12583e-05
1.12022e-05
1.11619e-05
1.11382e-05
1.11282e-05
1.11262e-05
1.22404e-05
1.22453e-05
1.22533e-05
1.22618e-05
1.22679e-05
1.22688e-05
1.2262e-05
1.22458e-05
1.22195e-05
1.21837e-05
1.21394e-05
1.20881e-05
1.20315e-05
1.19714e-05
1.19089e-05
1.18443e-05
1.17819e-05
1.17278e-05
1.16812e-05
1.16377e-05
1.15935e-05
1.15459e-05
1.14929e-05
1.14342e-05
1.13709e-05
1.1306e-05
1.12438e-05
1.11897e-05
1.11485e-05
1.11226e-05
1.11108e-05
1.11081e-05
1.21436e-05
1.21503e-05
1.21597e-05
1.21681e-05
1.21723e-05
1.21701e-05
1.21597e-05
1.21395e-05
1.21097e-05
1.20711e-05
1.20251e-05
1.19731e-05
1.19169e-05
1.18579e-05
1.17972e-05
1.17351e-05
1.16759e-05
1.16258e-05
1.1584e-05
1.15465e-05
1.15099e-05
1.14715e-05
1.14295e-05
1.13829e-05
1.13319e-05
1.12781e-05
1.12243e-05
1.1175e-05
1.11352e-05
1.11085e-05
1.10953e-05
1.10919e-05
1.202e-05
1.20277e-05
1.20356e-05
1.20392e-05
1.20366e-05
1.20273e-05
1.20106e-05
1.19858e-05
1.19535e-05
1.19144e-05
1.18699e-05
1.18211e-05
1.17695e-05
1.17163e-05
1.16623e-05
1.16077e-05
1.15563e-05
1.15135e-05
1.14787e-05
1.14482e-05
1.14194e-05
1.139e-05
1.13583e-05
1.13233e-05
1.12845e-05
1.12426e-05
1.1199e-05
1.11571e-05
1.11211e-05
1.10954e-05
1.10815e-05
1.10774e-05
1.18675e-05
1.18745e-05
1.18764e-05
1.18706e-05
1.18583e-05
1.18409e-05
1.18189e-05
1.17921e-05
1.17608e-05
1.17254e-05
1.16866e-05
1.16454e-05
1.16026e-05
1.15591e-05
1.15154e-05
1.14718e-05
1.14311e-05
1.13976e-05
1.13708e-05
1.13478e-05
1.13265e-05
1.13053e-05
1.12828e-05
1.12581e-05
1.12307e-05
1.12005e-05
1.11681e-05
1.11353e-05
1.11055e-05
1.10826e-05
1.10692e-05
1.10647e-05
1.16823e-05
1.16851e-05
1.16768e-05
1.16609e-05
1.16415e-05
1.16203e-05
1.15978e-05
1.15739e-05
1.15481e-05
1.15205e-05
1.14912e-05
1.14607e-05
1.14295e-05
1.13981e-05
1.13669e-05
1.13359e-05
1.13073e-05
1.12839e-05
1.12653e-05
1.12496e-05
1.12353e-05
1.12214e-05
1.12068e-05
1.11909e-05
1.11732e-05
1.11536e-05
1.11321e-05
1.11095e-05
1.10877e-05
1.10696e-05
1.10581e-05
1.10538e-05
1.14566e-05
1.14512e-05
1.14354e-05
1.14175e-05
1.13996e-05
1.13824e-05
1.13658e-05
1.13494e-05
1.13329e-05
1.13158e-05
1.12981e-05
1.12798e-05
1.12614e-05
1.12429e-05
1.12247e-05
1.12067e-05
1.11901e-05
1.11766e-05
1.1166e-05
1.1157e-05
1.1149e-05
1.11413e-05
1.11333e-05
1.11246e-05
1.11151e-05
1.11045e-05
1.10927e-05
1.108e-05
1.10671e-05
1.10557e-05
1.10477e-05
1.10443e-05
1.11811e-05
1.11768e-05
1.11686e-05
1.11608e-05
1.11536e-05
1.1147e-05
1.11409e-05
1.11351e-05
1.11295e-05
1.11238e-05
1.1118e-05
1.1112e-05
1.1106e-05
1.11e-05
1.10941e-05
1.10883e-05
1.1083e-05
1.10786e-05
1.10752e-05
1.10724e-05
1.10698e-05
1.10674e-05
1.10649e-05
1.10622e-05
1.10592e-05
1.1056e-05
1.10523e-05
1.10484e-05
1.10443e-05
1.10405e-05
1.10376e-05
1.10362e-05
)
;

boundaryField
{
    movingWall
    {
        type            fixedValue;
        value           uniform 1.1032e-05;
    }
    fixedWalls
    {
        type            zeroGradient;
    }
    floor
    {
        type            zeroGradient;
    }
    frontAndBack
    {
        type            empty;
    }
}


// ************************************************************************* //
