/*--------------------------------*- C++ -*----------------------------------*\
| =========                 |                                                 |
| \\      /  F ield         | OpenFOAM: The Open Source CFD Toolbox           |
|  \\    /   O peration     | Version:  2212                                  |
|   \\  /    A nd           | Website:  www.openfoam.com                      |
|    \\/     M anipulation  |                                                 |
\*---------------------------------------------------------------------------*/
FoamFile
{
    version     2.0;
    format      ascii;
    arch        "LSB;label=64;scalar=64";
    class       surfaceScalarField;
    location    "1320";
    object      phi;
}
// * * * * * * * * * * * * * * * * * * * * * * * * * * * * * * * * * * * * * //

dimensions      [0 3 -1 0 0 0 0];

oriented        oriented;

internalField   nonuniform List<scalar> 
1984
(
-3.32995e-10
3.33118e-10
-7.51793e-09
7.18493e-09
-2.38053e-08
1.62873e-08
-4.72344e-08
2.34292e-08
-7.47164e-08
2.7482e-08
-1.0351e-07
2.87934e-08
-1.3099e-07
2.74799e-08
-1.53331e-07
2.23416e-08
-1.63798e-07
1.04664e-08
-1.50622e-07
-1.31753e-08
-1.0015e-07
-5.04719e-08
-1.4917e-08
-8.52335e-08
7.12193e-08
-8.61363e-08
1.31968e-07
-6.07483e-08
1.65782e-07
-3.3814e-08
1.82054e-07
-1.62721e-08
1.85574e-07
-3.52e-09
1.77156e-07
8.4181e-09
1.59764e-07
1.73918e-08
1.38731e-07
2.10333e-08
1.17699e-07
2.10319e-08
9.83111e-08
1.93877e-08
8.11e-08
1.72111e-08
6.58926e-08
1.52073e-08
5.20692e-08
1.38234e-08
3.89706e-08
1.30986e-08
2.6419e-08
1.25515e-08
1.50853e-08
1.13338e-08
6.2408e-09
8.84441e-09
1.00658e-09
5.23421e-09
-5.6156e-10
1.56818e-09
-5.61529e-10
-7.87984e-09
8.21297e-09
-3.66861e-08
3.59911e-08
-8.87681e-08
6.83694e-08
-1.60191e-07
9.48525e-08
-2.43126e-07
1.10417e-07
-3.28724e-07
1.14392e-07
-4.07344e-07
1.06099e-07
-4.66213e-07
8.12105e-08
-4.86172e-07
3.04256e-08
-4.37729e-07
-6.16179e-08
-2.89914e-07
-1.98287e-07
-4.35659e-08
-3.31582e-07
2.12934e-07
-3.42636e-07
3.99306e-07
-2.4712e-07
5.13573e-07
-1.48081e-07
5.7512e-07
-7.78194e-08
5.939e-07
-2.22997e-08
5.74462e-07
2.78559e-08
5.26522e-07
6.53321e-08
4.64707e-07
8.28489e-08
4.00046e-07
8.56929e-08
3.38242e-07
8.11914e-08
2.81552e-07
7.39005e-08
2.30048e-07
6.67122e-08
1.82509e-07
6.13614e-08
1.37666e-07
5.79426e-08
9.55944e-08
5.46226e-08
5.83643e-08
4.8564e-08
2.91586e-08
3.80501e-08
1.03163e-08
2.40765e-08
1.65917e-09
1.02254e-08
1.0976e-09
-2.00698e-08
2.82827e-08
-7.85327e-08
9.4454e-08
-1.74048e-07
1.63885e-07
-2.99167e-07
2.19971e-07
-4.4114e-07
2.5239e-07
-5.84281e-07
2.57532e-07
-7.10456e-07
2.32274e-07
-7.96876e-07
1.67631e-07
-8.12727e-07
4.62762e-08
-7.15965e-07
-1.5838e-07
-4.67538e-07
-4.46713e-07
-6.49041e-08
-7.34216e-07
3.60706e-07
-7.68247e-07
6.81228e-07
-5.67642e-07
8.95246e-07
-3.62099e-07
1.02341e-06
-2.05981e-07
1.07323e-06
-7.21256e-08
1.05277e-06
4.83226e-08
9.79891e-07
1.38208e-07
8.78236e-07
1.84504e-07
7.66621e-07
1.97308e-07
6.55825e-07
1.91987e-07
5.50832e-07
1.78894e-07
4.52901e-07
1.64642e-07
3.61171e-07
1.53092e-07
2.74622e-07
1.44492e-07
1.94136e-07
1.35109e-07
1.23187e-07
1.19512e-07
6.65105e-08
9.47269e-08
2.7486e-08
6.3101e-08
6.2633e-09
3.14481e-08
7.36082e-09
-3.32731e-08
6.15557e-08
-1.24521e-07
1.85702e-07
-2.66781e-07
3.06145e-07
-4.46926e-07
4.00117e-07
-6.46154e-07
4.51617e-07
-8.41445e-07
4.52824e-07
-1.00588e-06
3.96708e-07
-1.10695e-06
2.68698e-07
-1.10381e-06
4.31365e-08
-9.48322e-07
-3.13865e-07
-6.02791e-07
-7.92244e-07
-6.8225e-08
-1.26878e-06
4.99005e-07
-1.33548e-06
9.46892e-07
-1.01553e-06
1.27258e-06
-6.87789e-07
1.4899e-06
-4.23302e-07
1.59352e-06
-1.75738e-07
1.58976e-06
5.20788e-08
1.50463e-06
2.23341e-07
1.37072e-06
3.18411e-07
1.21451e-06
3.53517e-07
1.05238e-06
3.54113e-07
8.92983e-07
3.38296e-07
7.39916e-07
3.1771e-07
5.93942e-07
2.99066e-07
4.55421e-07
2.83012e-07
3.26579e-07
2.63951e-07
2.1237e-07
2.33721e-07
1.19162e-07
1.87935e-07
5.20576e-08
1.30205e-07
1.28585e-08
7.06473e-08
2.02193e-08
-4.38935e-08
1.05449e-07
-1.62731e-07
3.0454e-07
-3.45358e-07
4.88772e-07
-5.73116e-07
6.27875e-07
-8.20699e-07
6.992e-07
-1.05746e-06
6.89585e-07
-1.2479e-06
5.87144e-07
-1.35086e-06
3.71663e-07
-1.31733e-06
9.60439e-09
-1.10004e-06
-5.31151e-07
-6.70431e-07
-1.22185e-06
-4.74447e-08
-1.89177e-06
6.09585e-07
-1.99251e-06
1.15962e-06
-1.56556e-06
1.59453e-06
-1.1227e-06
1.91745e-06
-7.46225e-07
2.10113e-06
-3.59415e-07
2.13938e-06
1.38309e-08
2.06216e-06
3.00558e-07
1.91117e-06
4.69401e-07
1.72014e-06
5.44548e-07
1.51103e-06
5.63226e-07
1.29665e-06
5.52679e-07
1.08393e-06
5.30422e-07
8.76573e-07
5.06426e-07
6.7749e-07
4.82095e-07
4.91069e-07
4.50373e-07
3.24248e-07
4.00541e-07
1.85646e-07
3.26537e-07
8.3094e-08
2.32758e-07
2.11294e-08
1.32612e-07
4.13487e-08
-4.78997e-08
1.53349e-07
-1.79504e-07
4.36144e-07
-3.84154e-07
6.93422e-07
-6.41269e-07
8.8499e-07
-9.20754e-07
9.78685e-07
-1.18477e-06
9.53604e-07
-1.38947e-06
7.91843e-07
-1.48564e-06
4.67829e-07
-1.42056e-06
-5.54712e-08
-1.14988e-06
-8.01831e-07
-6.60167e-07
-1.71157e-06
-6.23808e-09
-2.5457e-06
6.76666e-07
-2.67541e-06
1.2855e-06
-2.1744e-06
1.80596e-06
-1.64316e-06
2.23455e-06
-1.17481e-06
2.51997e-06
-6.44838e-07
2.62945e-06
-9.56463e-08
2.58642e-06
3.43589e-07
2.44028e-06
6.15543e-07
2.23176e-06
7.53067e-07
1.98794e-06
8.07046e-07
1.72573e-06
8.1488e-07
1.4559e-06
8.00253e-07
1.18598e-06
7.76345e-07
9.22558e-07
7.45522e-07
6.73316e-07
6.99615e-07
4.48253e-07
6.25605e-07
2.59166e-07
5.15624e-07
1.17284e-07
3.7464e-07
3.02041e-08
2.19692e-07
7.15528e-08
-4.24628e-08
1.95812e-07
-1.64532e-07
5.58213e-07
-3.62463e-07
8.91353e-07
-6.20342e-07
1.14287e-06
-9.08049e-07
1.26639e-06
-1.18289e-06
1.22844e-06
-1.39338e-06
1.00234e-06
-1.48286e-06
5.5731e-07
-1.39615e-06
-1.42186e-07
-1.09318e-06
-1.1048e-06
-5.77489e-07
-2.22727e-06
5.16521e-08
-3.17484e-06
6.86755e-07
-3.31051e-06
1.29542e-06
-2.78306e-06
1.85424e-06
-2.20198e-06
2.36393e-06
-1.6845e-06
2.75613e-06
-1.03704e-06
2.96336e-06
-3.02877e-07
2.9849e-06
3.22048e-07
2.86989e-06
7.30551e-07
2.66718e-06
9.5578e-07
2.4084e-06
1.06582e-06
2.11395e-06
1.10933e-06
1.7983e-06
1.11591e-06
1.4732e-06
1.10145e-06
1.14988e-06
1.06884e-06
8.40718e-07
1.00877e-06
5.60222e-07
9.06101e-07
3.24182e-07
7.51664e-07
1.46915e-07
5.51906e-07
3.79328e-08
3.28674e-07
1.09486e-07
-2.77985e-08
2.2361e-07
-1.16376e-07
6.4679e-07
-2.73649e-07
1.04863e-06
-4.95859e-07
1.36508e-06
-7.60815e-07
1.53135e-06
-1.02675e-06
1.49438e-06
-1.23736e-06
1.21295e-06
-1.32881e-06
6.48758e-07
-1.24062e-06
-2.30375e-07
-9.35735e-07
-1.40969e-06
-4.42525e-07
-2.72048e-06
9.85115e-08
-3.71588e-06
6.22019e-07
-3.83402e-06
1.15556e-06
-3.3166e-06
1.68406e-06
-2.73048e-06
2.22335e-06
-2.22379e-06
2.70486e-06
-1.51856e-06
3.02842e-06
-6.26433e-07
3.14445e-06
2.06017e-07
3.0874e-06
7.87602e-07
2.9174e-06
1.12578e-06
2.66951e-06
1.31371e-06
2.36632e-06
1.41252e-06
2.02532e-06
1.4569e-06
1.66256e-06
1.46421e-06
1.29488e-06
1.43652e-06
9.41035e-07
1.36262e-06
6.21436e-07
1.2257e-06
3.55833e-07
1.01727e-06
1.59578e-07
7.48161e-07
4.07969e-08
4.47456e-07
1.50282e-07
-7.8339e-09
2.31444e-07
-4.54112e-08
6.84367e-07
-1.31474e-07
1.13469e-06
-2.78765e-07
1.51237e-06
-4.82533e-07
1.73512e-06
-7.11647e-07
1.72349e-06
-9.12457e-07
1.41376e-06
-1.01607e-06
7.5237e-07
-9.52355e-07
-2.94088e-07
-6.85615e-07
-1.67643e-06
-2.80919e-07
-3.12517e-06
9.94404e-08
-4.09623e-06
4.38225e-07
-4.17281e-06
8.08e-07
-3.68637e-06
1.21956e-06
-3.14205e-06
1.71088e-06
-2.71511e-06
2.23738e-06
-2.04505e-06
2.68406e-06
-1.07311e-06
2.92626e-06
-3.61911e-08
2.95611e-06
7.57761e-07
2.85066e-06
1.23123e-06
2.64614e-06
1.51824e-06
2.36604e-06
1.69261e-06
2.02993e-06
1.79301e-06
1.65859e-06
1.83554e-06
1.27604e-06
1.81908e-06
9.09241e-07
1.72942e-06
5.85127e-07
1.54981e-06
3.25294e-07
1.2771e-06
1.41489e-07
9.31966e-07
3.5037e-08
5.53907e-07
1.85319e-07
1.12889e-08
2.20155e-07
2.7733e-08
6.67923e-07
2.6653e-08
1.13577e-06
-1.67638e-08
1.55579e-06
-1.1731e-07
1.83566e-06
-2.68095e-07
1.87428e-06
-4.32537e-07
1.5782e-06
-5.46904e-07
8.66737e-07
-5.33954e-07
-3.07038e-07
-3.61009e-07
-1.84937e-06
-1.34684e-07
-3.3515e-06
-1.76455e-08
-4.21327e-06
4.45526e-08
-4.235e-06
1.51472e-07
-3.79329e-06
3.45224e-07
-3.3358e-06
6.84276e-07
-3.05416e-06
1.17196e-06
-2.53273e-06
1.70774e-06
-1.6089e-06
2.11593e-06
-4.44378e-07
2.30136e-06
5.72337e-07
2.31062e-06
1.22197e-06
2.19504e-06
1.63381e-06
1.9823e-06
1.90535e-06
1.69429e-06
2.08102e-06
1.35888e-06
2.17095e-06
1.01e-06
2.16796e-06
6.8411e-07
2.05531e-06
4.12278e-07
1.82164e-06
2.1204e-07
1.47734e-06
8.45845e-08
1.05942e-06
1.89244e-08
6.19567e-07
2.04244e-07
2.39755e-08
1.9618e-07
8.17862e-08
6.10113e-07
1.54369e-07
1.06319e-06
2.1499e-07
1.49516e-06
2.35609e-07
1.81504e-06
2.00163e-07
1.90973e-06
1.18767e-07
1.6596e-06
3.16106e-08
9.53893e-07
-1.05273e-08
-2.649e-07
-1.73349e-08
-1.84256e-06
-9.7315e-08
-3.27152e-06
-3.51207e-07
-3.95938e-06
-6.86388e-07
-3.89982e-06
-9.5835e-07
-3.52133e-06
-1.09942e-06
-3.19473e-06
-1.04118e-06
-3.1124e-06
-7.25273e-07
-2.84864e-06
-2.01791e-07
-2.13238e-06
4.57919e-07
-1.10409e-06
9.21806e-07
1.0845e-07
1.11689e-06
1.02689e-06
1.15923e-06
1.59146e-06
1.08084e-06
1.98375e-06
9.07096e-07
2.25476e-06
6.78602e-07
2.39944e-06
4.42319e-07
2.40424e-06
2.41099e-07
2.25653e-06
1.00723e-07
1.96202e-06
2.41523e-08
1.55391e-06
-3.59262e-09
1.08717e-06
-4.70381e-09
6.20678e-07
1.9954e-07
2.7119e-08
1.69061e-07
1.01831e-07
5.35401e-07
2.13469e-07
9.51548e-07
3.39929e-07
1.36871e-06
4.5204e-07
1.70293e-06
5.23257e-07
1.83851e-06
5.40137e-07
1.64272e-06
5.00654e-07
9.93375e-07
3.80904e-07
-1.4515e-07
1.30733e-07
-1.59239e-06
-3.7193e-07
-2.76885e-06
-1.1511e-06
-3.18021e-06
-2.00421e-06
-3.04671e-06
-2.76393e-06
-2.76161e-06
-3.34711e-06
-2.61154e-06
-3.68042e-06
-2.7791e-06
-3.63704e-06
-2.89202e-06
-3.22503e-06
-2.54439e-06
-2.51565e-06
-1.81347e-06
-1.67211e-06
-7.35086e-07
-1.02938e-06
3.84153e-07
-6.64538e-07
1.22662e-06
-4.66512e-07
1.78572e-06
-3.93362e-07
2.18161e-06
-3.82505e-07
2.38859e-06
-3.81561e-07
2.4033e-06
-3.53701e-07
2.22867e-06
-2.87084e-07
1.8954e-06
-1.93972e-07
1.4608e-06
-9.94563e-08
9.92651e-07
-2.87641e-08
5.49986e-07
1.70776e-07
2.00524e-08
1.49008e-07
8.1842e-08
4.73611e-07
1.84132e-07
8.49258e-07
3.14695e-07
1.23814e-06
4.51465e-07
1.56616e-06
5.67467e-07
1.72251e-06
6.32661e-07
1.57752e-06
5.99832e-07
1.0262e-06
3.92814e-07
6.18674e-08
-2.22519e-07
-9.7706e-07
-1.34017e-06
-1.6512e-06
-2.76735e-06
-1.75303e-06
-4.22588e-06
-1.58818e-06
-5.55132e-06
-1.43617e-06
-6.65823e-06
-1.50463e-06
-7.47439e-06
-1.96294e-06
-7.79513e-06
-2.57128e-06
-7.56755e-06
-2.77198e-06
-6.85548e-06
-2.52553e-06
-5.74496e-06
-1.8456e-06
-4.49559e-06
-8.65219e-07
-3.45053e-06
1.81565e-07
-2.67864e-06
1.01384e-06
-2.11841e-06
1.62138e-06
-1.66106e-06
1.93124e-06
-1.27703e-06
2.01926e-06
-9.39574e-07
1.89122e-06
-6.3624e-07
1.59207e-06
-3.74617e-07
1.19917e-06
-1.72356e-07
7.9039e-07
-4.50888e-08
4.22719e-07
1.25687e-07
3.82614e-09
1.45182e-07
1.70532e-08
4.60384e-07
4.42497e-08
8.22061e-07
8.86807e-08
1.19371e-06
1.46851e-07
1.50799e-06
2.01578e-07
1.66778e-06
2.01572e-07
1.57753e-06
1.27881e-08
1.21499e-06
-6.16702e-07
6.91357e-07
-1.88097e-06
2.87207e-07
-3.72562e-06
1.9345e-07
-5.77088e-06
2.92225e-07
-7.74857e-06
3.89514e-07
-9.53165e-06
3.46906e-07
-1.10578e-05
2.15017e-08
-1.22887e-05
-7.32008e-07
-1.29508e-05
-1.90918e-06
-1.29409e-05
-2.78185e-06
-1.23214e-05
-3.1451e-06
-1.11433e-05
-3.02362e-06
-9.48537e-06
-2.52319e-06
-7.54387e-06
-1.75994e-06
-5.67943e-06
-8.50596e-07
-4.09766e-06
3.96067e-08
-2.82232e-06
6.55897e-07
-1.87133e-06
1.06827e-06
-1.19181e-06
1.2117e-06
-7.05632e-07
1.10589e-06
-3.66798e-07
8.6034e-07
-1.50841e-07
5.74433e-07
-3.55291e-08
3.07407e-07
9.0158e-08
-4.11743e-08
1.86357e-07
-1.57158e-07
5.76368e-07
-3.43897e-07
1.0088e-06
-5.94931e-07
1.44475e-06
-9.12837e-07
1.8259e-06
-1.33207e-06
2.08701e-06
-1.94525e-06
2.19071e-06
-2.90407e-06
2.1738e-06
-4.35633e-06
2.14362e-06
-6.24539e-06
2.17626e-06
-8.2974e-06
2.24547e-06
-1.03185e-05
2.31328e-06
-1.2246e-05
2.31706e-06
-1.40508e-05
2.15171e-06
-1.56851e-05
1.65581e-06
-1.70238e-05
6.06667e-07
-1.78161e-05
-1.11685e-06
-1.79717e-05
-2.62629e-06
-1.7506e-05
-3.61083e-06
-1.64342e-05
-4.09543e-06
-1.4794e-05
-4.16334e-06
-1.26603e-05
-3.89361e-06
-1.0155e-05
-3.35597e-06
-7.49413e-06
-2.62123e-06
-5.07815e-06
-1.76008e-06
-3.08448e-06
-9.254e-07
-1.62954e-06
-2.43248e-07
-7.18833e-07
1.95188e-07
-2.43965e-07
3.85473e-07
-4.83706e-08
3.78838e-07
2.32258e-09
2.56714e-07
9.24806e-08
-6.17715e-08
2.48128e-07
-2.48443e-07
7.63039e-07
-5.68837e-07
1.32919e-06
-1.02613e-06
1.90203e-06
-1.62594e-06
2.42572e-06
-2.39117e-06
2.85223e-06
-3.36909e-06
3.16864e-06
-4.60726e-06
3.41197e-06
-6.10536e-06
3.64172e-06
-7.81523e-06
3.88614e-06
-9.69236e-06
4.12259e-06
-1.16797e-05
4.30065e-06
-1.37119e-05
4.34922e-06
-1.57202e-05
4.16e-06
-1.76262e-05
3.5618e-06
-1.93046e-05
2.28508e-06
-2.03135e-05
-1.0795e-07
-2.06703e-05
-2.26948e-06
-2.04684e-05
-3.81276e-06
-1.97165e-05
-4.84725e-06
-1.84094e-05
-5.47045e-06
-1.65653e-05
-5.73772e-06
-1.42537e-05
-5.66755e-06
-1.16047e-05
-5.27029e-06
-8.78897e-06
-4.57578e-06
-6.06493e-06
-3.64944e-06
-3.71332e-06
-2.59486e-06
-1.96065e-06
-1.55748e-06
-8.53273e-07
-7.21904e-07
-2.75274e-07
-1.99161e-07
-4.38351e-08
2.5275e-08
4.86456e-08
-3.71718e-08
2.853e-07
-1.61452e-07
8.87319e-07
-3.94989e-07
1.56273e-06
-7.57886e-07
2.26493e-06
-1.26661e-06
2.93444e-06
-1.93425e-06
3.51988e-06
-2.76941e-06
4.0038e-06
-3.77e-06
4.41256e-06
-4.91942e-06
4.79114e-06
-6.1953e-06
5.16202e-06
-7.58048e-06
5.50777e-06
-9.05795e-06
5.77812e-06
-1.06041e-05
5.89534e-06
-1.21873e-05
5.74319e-06
-1.37664e-05
5.14093e-06
-1.52772e-05
3.79594e-06
-1.64548e-05
1.06958e-06
-1.70682e-05
-1.65601e-06
-1.73056e-05
-3.57537e-06
-1.7199e-05
-4.95389e-06
-1.66972e-05
-5.97223e-06
-1.57368e-05
-6.69809e-06
-1.42922e-05
-7.11223e-06
-1.23999e-05
-7.16256e-06
-1.01643e-05
-6.81135e-06
-7.75581e-06
-6.05795e-06
-5.38826e-06
-4.9624e-06
-3.28996e-06
-3.65579e-06
-1.6746e-06
-2.33726e-06
-6.43088e-07
-1.23067e-06
-1.35232e-07
-4.82581e-07
-8.65868e-08
-2.5839e-09
2.87884e-07
-2.8068e-08
9.12803e-07
-1.02019e-07
1.63668e-06
-2.53987e-07
2.4169e-06
-5.11857e-07
3.19231e-06
-8.93671e-07
3.90169e-06
-1.39793e-06
4.50806e-06
-2.00639e-06
5.02102e-06
-2.69363e-06
5.47838e-06
-3.4363e-06
5.90469e-06
-4.21759e-06
6.28907e-06
-5.02537e-06
6.58589e-06
-5.84913e-06
6.7191e-06
-6.67843e-06
6.57249e-06
-7.5032e-06
5.96569e-06
-8.32818e-06
4.62093e-06
-9.09717e-06
1.83856e-06
-9.69758e-06
-1.05561e-06
-1.02057e-05
-3.06721e-06
-1.06625e-05
-4.49707e-06
-1.09905e-05
-5.64432e-06
-1.10589e-05
-6.62962e-06
-1.07427e-05
-7.42845e-06
-9.97206e-06
-7.93323e-06
-8.74451e-06
-8.03889e-06
-7.14069e-06
-7.66177e-06
-5.31728e-06
-6.78581e-06
-3.49335e-06
-5.47973e-06
-1.9167e-06
-3.91391e-06
-7.89604e-07
-2.35777e-06
-1.76571e-07
-1.09561e-06
-2.63158e-07
1.99891e-08
2.67895e-07
6.2413e-08
8.7038e-07
1.04503e-07
1.59459e-06
1.15814e-07
2.40559e-06
6.38341e-08
3.24429e-06
-7.59132e-08
4.04144e-06
-3.08182e-07
4.74033e-06
-6.14143e-07
5.32698e-06
-9.60297e-07
5.82454e-06
-1.31407e-06
6.25847e-06
-1.65326e-06
6.62826e-06
-1.96664e-06
6.89927e-06
-2.25073e-06
7.00318e-06
-2.50863e-06
6.83039e-06
-2.74795e-06
6.20501e-06
-2.98122e-06
4.8542e-06
-3.29131e-06
2.14865e-06
-3.74185e-06
-6.05069e-07
-4.28843e-06
-2.52063e-06
-4.95978e-06
-3.82572e-06
-5.71213e-06
-4.89197e-06
-6.42367e-06
-5.91807e-06
-6.91452e-06
-6.9376e-06
-7.04874e-06
-7.79901e-06
-6.7263e-06
-8.36132e-06
-5.93741e-06
-8.45066e-06
-4.76071e-06
-7.9625e-06
-3.36089e-06
-6.87955e-06
-1.97512e-06
-5.29968e-06
-8.64015e-07
-3.46887e-06
-2.03617e-07
-1.75601e-06
-4.66775e-07
2.94009e-08
2.38494e-07
1.0505e-07
7.94731e-07
2.10618e-07
1.48902e-06
3.20285e-07
2.29592e-06
4.04058e-07
3.16051e-06
4.36811e-07
4.00869e-06
4.07216e-07
4.76992e-06
3.27821e-07
5.40637e-06
2.31817e-07
5.92054e-06
1.56676e-07
6.33361e-06
1.2965e-07
6.65528e-06
1.62503e-07
6.86642e-06
2.52813e-07
6.91287e-06
3.84834e-07
6.69837e-06
5.30071e-07
6.05977e-06
6.65826e-07
4.71845e-06
6.41449e-07
2.17303e-06
3.00335e-07
-2.63955e-07
-2.50878e-07
-1.96942e-06
-9.3407e-07
-3.14253e-06
-1.75135e-06
-4.07469e-06
-2.68161e-06
-4.98781e-06
-3.57711e-06
-6.0421e-06
-4.29042e-06
-7.0857e-06
-4.6378e-06
-8.01395e-06
-4.5307e-06
-8.55776e-06
-3.96423e-06
-8.52898e-06
-3.02878e-06
-7.815e-06
-1.91489e-06
-6.41357e-06
-8.92586e-07
-4.49118e-06
-2.21045e-07
-2.42755e-06
-6.8782e-07
2.96719e-08
2.08822e-07
1.12419e-07
7.11984e-07
2.39771e-07
1.36167e-06
3.93478e-07
2.14221e-06
5.49583e-07
3.00441e-06
6.86491e-07
3.87178e-06
7.93805e-07
4.66261e-06
8.80411e-07
5.31977e-06
9.73914e-07
5.82704e-06
1.10866e-06
6.19886e-06
1.31069e-06
6.45326e-06
1.58872e-06
6.58839e-06
1.93313e-06
6.56846e-06
2.31745e-06
6.31406e-06
2.6967e-06
5.68052e-06
2.99816e-06
4.41698e-06
3.02447e-06
2.14673e-06
2.71711e-06
4.3397e-08
2.1938e-06
-1.4461e-06
1.54604e-06
-2.49477e-06
8.01576e-07
-3.33022e-06
-6.55804e-08
-4.12066e-06
-1.03723e-06
-5.07045e-06
-2.0033e-06
-6.11963e-06
-2.7609e-06
-7.25635e-06
-3.15615e-06
-8.16251e-06
-3.10286e-06
-8.58227e-06
-2.60822e-06
-8.30964e-06
-1.79345e-06
-7.22834e-06
-8.99687e-07
-5.38494e-06
-2.35396e-07
-3.09184e-06
-9.23216e-07
2.43984e-08
1.84423e-07
9.63408e-08
6.40042e-07
2.14558e-07
1.24345e-06
3.7033e-07
1.98644e-06
5.49557e-07
2.82518e-06
7.38813e-07
3.68252e-06
9.32603e-07
4.46882e-06
1.13874e-06
5.11363e-06
1.37762e-06
5.58816e-06
1.67366e-06
5.90282e-06
2.04396e-06
6.08297e-06
2.49037e-06
6.14198e-06
2.99681e-06
6.06201e-06
3.52869e-06
5.78218e-06
4.02801e-06
5.18121e-06
4.39439e-06
4.0506e-06
4.44578e-06
2.09533e-06
4.16519e-06
3.2399e-07
3.64531e-06
-9.26219e-07
3.00248e-06
-1.85194e-06
2.29866e-06
-2.62641e-06
1.55906e-06
-3.38106e-06
7.08522e-07
-4.21991e-06
-2.24822e-07
-5.18629e-06
-1.16933e-06
-6.31183e-06
-1.89364e-06
-7.4382e-06
-2.24694e-06
-8.22897e-06
-2.14903e-06
-8.40755e-06
-1.63849e-06
-7.73887e-06
-8.99111e-07
-6.12432e-06
-2.52547e-07
-3.73841e-06
-1.17576e-06
1.51168e-08
1.69307e-07
6.27611e-08
5.92397e-07
1.48311e-07
1.1579e-06
2.74979e-07
1.85977e-06
4.42585e-07
2.65757e-06
6.49086e-07
3.47602e-06
8.95958e-07
4.22194e-06
1.19033e-06
4.81926e-06
1.54339e-06
5.2351e-06
1.96527e-06
5.48095e-06
2.45961e-06
5.58863e-06
3.01925e-06
5.58234e-06
3.62298e-06
5.45827e-06
4.23248e-06
5.17268e-06
4.78457e-06
4.62912e-06
5.17125e-06
3.66392e-06
5.23572e-06
2.03086e-06
4.99489e-06
5.64825e-07
4.53468e-06
-4.66014e-07
3.94466e-06
-1.26192e-06
3.28077e-06
-1.96253e-06
2.57643e-06
-2.67671e-06
1.83481e-06
-3.47829e-06
1.04457e-06
-4.39605e-06
1.55991e-07
-5.42325e-06
-7.33979e-07
-6.54824e-06
-1.39611e-06
-7.56684e-06
-1.65245e-06
-8.15121e-06
-1.44892e-06
-7.94241e-06
-8.90661e-07
-6.68257e-06
-2.76361e-07
-4.35271e-06
-1.45212e-06
9.63168e-10
1.68343e-07
9.93712e-09
5.83423e-07
4.2199e-08
1.12564e-06
1.18795e-07
1.78318e-06
2.5661e-07
2.51976e-06
4.63791e-07
3.26884e-06
7.46998e-07
3.93874e-06
1.11116e-06
4.4551e-06
1.55575e-06
4.7905e-06
2.0743e-06
4.96239e-06
2.65642e-06
5.00651e-06
3.28689e-06
4.95186e-06
3.94202e-06
4.80315e-06
4.58418e-06
4.53051e-06
5.15252e-06
4.06078e-06
5.54718e-06
3.26927e-06
5.64081e-06
1.93723e-06
5.46493e-06
7.40704e-07
5.09787e-06
-9.89546e-08
4.60632e-06
-7.70376e-07
4.03003e-06
-1.38624e-06
3.39587e-06
-2.04255e-06
2.7147e-06
-2.79713e-06
1.98705e-06
-3.6684e-06
1.20382e-06
-4.64002e-06
3.28537e-07
-5.67295e-06
-5.2118e-07
-6.71712e-06
-1.09611e-06
-7.57628e-06
-1.2077e-06
-7.83082e-06
-8.6462e-07
-7.02566e-06
-3.08564e-07
-4.90876e-06
-1.76069e-06
-2.03041e-08
1.88647e-07
-6.62081e-08
6.29327e-07
-1.04507e-07
1.16394e-06
-8.97556e-08
1.76843e-06
1.54418e-08
2.41456e-06
2.24507e-07
3.05978e-06
5.41224e-07
3.62202e-06
9.65708e-07
4.03062e-06
1.48373e-06
4.27248e-06
2.07291e-06
4.37321e-06
2.71205e-06
4.36737e-06
3.38147e-06
4.28245e-06
4.05818e-06
4.12644e-06
4.70911e-06
3.87959e-06
5.28138e-06
3.48851e-06
5.69162e-06
2.85902e-06
5.83706e-06
1.79179e-06
5.75513e-06
8.22636e-07
5.50651e-06
1.49661e-07
5.13773e-06
-4.01588e-07
4.68141e-06
-9.29915e-07
4.15045e-06
-1.51159e-06
3.54624e-06
-2.19292e-06
2.86587e-06
-2.98803e-06
2.10706e-06
-3.88121e-06
1.27143e-06
-4.83733e-06
3.69047e-07
-5.81474e-06
-4.50816e-07
-6.75641e-06
-8.91247e-07
-7.39039e-06
-8.05229e-07
-7.11167e-06
-3.47091e-07
-5.3669e-06
-2.10778e-06
-5.52524e-08
2.439e-07
-1.7534e-07
7.49415e-07
-2.92383e-07
1.28098e-06
-3.35155e-07
1.8112e-06
-2.5455e-07
2.33396e-06
-2.93437e-08
2.83457e-06
3.29247e-07
3.26343e-06
8.10732e-07
3.54913e-06
1.38717e-06
3.69604e-06
2.02499e-06
3.73539e-06
2.69832e-06
3.69404e-06
3.38739e-06
3.59339e-06
4.07281e-06
3.44101e-06
4.72836e-06
3.22404e-06
5.31203e-06
2.90483e-06
5.75823e-06
2.41282e-06
5.97769e-06
1.57234e-06
5.99953e-06
8.00788e-07
5.87651e-06
2.72687e-07
5.64222e-06
-1.67301e-07
5.31771e-06
-6.05401e-07
4.90243e-06
-1.09631e-06
4.38639e-06
-1.67687e-06
3.75876e-06
-2.3604e-06
3.01565e-06
-3.1381e-06
2.16622e-06
-3.9879e-06
1.23697e-06
-4.88549e-06
2.8371e-07
-5.80315e-06
-4.69467e-07
-6.63721e-06
-6.88936e-07
-6.8922e-06
-3.82511e-07
-5.67333e-06
-2.49029e-06
-1.14298e-07
3.58197e-07
-3.27037e-07
9.62155e-07
-5.13621e-07
1.46757e-06
-5.85288e-07
1.88286e-06
-4.98051e-07
2.24672e-06
-2.42258e-07
2.57878e-06
1.705e-07
2.85067e-06
7.11701e-07
3.00793e-06
1.33634e-06
3.0714e-06
2.00949e-06
3.06224e-06
2.70705e-06
2.99649e-06
3.41218e-06
2.88826e-06
4.11002e-06
2.74317e-06
4.7809e-06
2.55316e-06
5.39276e-06
2.29297e-06
5.89357e-06
1.91201e-06
6.19657e-06
1.26934e-06
6.31751e-06
6.79842e-07
6.30831e-06
2.8189e-07
6.1951e-06
-5.40921e-08
5.98692e-06
-3.97226e-07
5.67486e-06
-7.84244e-07
5.24168e-06
-1.2437e-06
4.66975e-06
-1.78846e-06
3.94946e-06
-2.41781e-06
3.08681e-06
-3.12525e-06
2.10838e-06
-3.90706e-06
1.06963e-06
-4.7644e-06
9.42724e-08
-5.66185e-06
-4.80737e-07
-6.31719e-06
-3.94858e-07
-5.7592e-06
-2.88515e-06
-2.06453e-07
5.64651e-07
-5.13297e-07
1.269e-06
-7.2862e-07
1.68289e-06
-7.73988e-07
1.92823e-06
-6.3203e-07
2.10476e-06
-3.11206e-07
2.25795e-06
1.74702e-07
2.36476e-06
7.78312e-07
2.40432e-06
1.44775e-06
2.40196e-06
2.15479e-06
2.3552e-06
2.87933e-06
2.27194e-06
3.60727e-06
2.16032e-06
4.32635e-06
2.02408e-06
5.02057e-06
1.85894e-06
5.66409e-06
1.64946e-06
6.21295e-06
1.36315e-06
6.57948e-06
9.02818e-07
6.77128e-06
4.88039e-07
6.84225e-06
2.10925e-07
6.81319e-06
-2.5037e-08
6.68549e-06
-2.69526e-07
6.44803e-06
-5.46781e-07
6.08168e-06
-8.77353e-07
5.56521e-06
-1.272e-06
4.88251e-06
-1.73511e-06
4.02986e-06
-2.2726e-06
3.02275e-06
-2.89995e-06
1.90413e-06
-3.64579e-06
7.71311e-07
-4.52903e-06
-1.28293e-07
-5.41759e-06
-3.52895e-07
-5.5346e-06
-3.23804e-06
-3.24916e-07
8.89567e-07
-6.82653e-07
1.62674e-06
-8.28375e-07
1.82861e-06
-7.51968e-07
1.85183e-06
-4.83994e-07
1.83679e-06
-4.22425e-08
1.8162e-06
5.39616e-07
1.7829e-06
1.20263e-06
1.74131e-06
1.91641e-06
1.68818e-06
2.65685e-06
1.61475e-06
3.40569e-06
1.52311e-06
4.14914e-06
1.41687e-06
4.87488e-06
1.29834e-06
5.56796e-06
1.16586e-06
6.2063e-06
1.01112e-06
6.7527e-06
8.16749e-07
7.12664e-06
5.28881e-07
7.33659e-06
2.7808e-07
7.43657e-06
1.10947e-07
7.44357e-06
-3.2039e-08
7.35592e-06
-1.81872e-07
7.1638e-06
-3.54656e-07
6.84938e-06
-5.6294e-07
6.39116e-06
-8.1378e-07
5.76864e-06
-1.11259e-06
4.9668e-06
-1.47076e-06
3.98173e-06
-1.91488e-06
2.8309e-06
-2.49496e-06
1.57873e-06
-3.27685e-06
4.08154e-07
-4.24702e-06
-2.1525e-07
-4.9112e-06
-3.45329e-06
-4.4355e-07
1.33312e-06
-6.80488e-07
1.86367e-06
-5.54246e-07
1.70237e-06
-2.04733e-07
1.50231e-06
2.8679e-07
1.34526e-06
8.82857e-07
1.22014e-06
1.54841e-06
1.11735e-06
2.25824e-06
1.03148e-06
2.99181e-06
9.54606e-07
3.72911e-06
8.77459e-07
4.45382e-06
7.98394e-07
5.15286e-06
7.17829e-07
5.81483e-06
6.36374e-07
6.4276e-06
5.53082e-07
6.97499e-06
4.63741e-07
7.43074e-06
3.60991e-07
7.736e-06
2.23623e-07
7.90508e-06
1.09005e-07
7.98415e-06
3.18708e-08
7.98686e-06
-3.47445e-08
7.91122e-06
-1.06232e-07
7.74851e-06
-1.91948e-07
7.48312e-06
-2.97545e-07
7.09564e-06
-4.26305e-07
6.56501e-06
-5.81959e-07
5.86886e-06
-7.74605e-07
4.98361e-06
-1.02963e-06
3.88828e-06
-1.39963e-06
2.5854e-06
-1.97397e-06
1.18609e-06
-2.8477e-06
1.15083e-07
-3.84019e-06
-3.33821e-06
-3.762e-07
1.70932e-06
1.76763e-08
1.4698e-06
7.26415e-07
9.93633e-07
1.43895e-06
7.89774e-07
2.14141e-06
6.42803e-07
2.83915e-06
5.22398e-07
3.52482e-06
4.3168e-07
4.19225e-06
3.64054e-07
4.83539e-06
3.11466e-07
5.44538e-06
2.67468e-07
6.01446e-06
2.29316e-07
6.5367e-06
1.95589e-07
7.00773e-06
1.65338e-07
7.4234e-06
1.37417e-07
7.77727e-06
1.09867e-07
8.05765e-06
8.061e-08
8.23554e-06
4.57329e-08
8.32661e-06
1.79365e-08
8.35987e-06
-1.38807e-09
8.3438e-06
-1.86791e-08
8.27615e-06
-3.85758e-08
8.14844e-06
-6.42402e-08
7.94791e-06
-9.70122e-08
7.65931e-06
-1.37704e-07
7.26512e-06
-1.87774e-07
6.74272e-06
-2.52206e-07
6.05811e-06
-3.45012e-07
5.15752e-06
-4.99037e-07
3.96379e-06
-7.80248e-07
2.41629e-06
-1.30021e-06
7.45398e-07
-2.1693e-06
-2.59281e-06
1.70932e-06
3.17911e-06
4.17275e-06
4.96252e-06
5.60532e-06
6.12772e-06
6.5594e-06
6.92346e-06
7.23492e-06
7.50239e-06
7.7317e-06
7.92729e-06
8.09263e-06
8.23005e-06
8.33992e-06
8.42053e-06
8.46626e-06
8.4842e-06
8.48281e-06
8.46413e-06
8.42555e-06
8.36131e-06
8.2643e-06
8.1266e-06
7.93882e-06
7.68662e-06
7.3416e-06
6.84257e-06
6.06232e-06
4.76211e-06
2.59281e-06
)
;

boundaryField
{
    movingWall
    {
        type            calculated;
        value           uniform 0;
    }
    fixedWalls
    {
        type            calculated;
        value           uniform 0;
    }
    floor
    {
        type            calculated;
        value           uniform 0;
    }
    frontAndBack
    {
        type            empty;
        value           nonuniform List<scalar> 0();
    }
}


// ************************************************************************* //
