/*--------------------------------*- C++ -*----------------------------------*\
| =========                 |                                                 |
| \\      /  F ield         | OpenFOAM: The Open Source CFD Toolbox           |
|  \\    /   O peration     | Version:  2212                                  |
|   \\  /    A nd           | Website:  www.openfoam.com                      |
|    \\/     M anipulation  |                                                 |
\*---------------------------------------------------------------------------*/
FoamFile
{
    version     2.0;
    format      ascii;
    arch        "LSB;label=64;scalar=64";
    class       volVectorField;
    location    "1320";
    object      U;
}
// * * * * * * * * * * * * * * * * * * * * * * * * * * * * * * * * * * * * * //

dimensions      [0 1 -1 0 0 0 0];

internalField   nonuniform List<vector> 
1024
(
(8.89548e-06 -9.18021e-06 0)
(-2.61919e-05 6.68492e-06 0)
(-0.000158783 2.44264e-05 0)
(-0.000385273 3.28705e-05 0)
(-0.000674542 3.40329e-05 0)
(-0.000992358 3.19538e-05 0)
(-0.0013101 2.83898e-05 0)
(-0.00159468 2.2769e-05 0)
(-0.00178881 1.31142e-05 0)
(-0.00179282 -3.47644e-06 0)
(-0.00144399 -2.78526e-05 0)
(-0.000678124 -4.26507e-05 0)
(0.000393668 -3.51623e-05 0)
(0.0011928 -2.06151e-05 0)
(0.00170305 -7.86584e-06 0)
(0.00195497 -2.56157e-06 0)
(0.00205378 7.63571e-08 0)
(0.00202539 3.64808e-06 0)
(0.00187738 7.387e-06 0)
(0.00165628 9.3223e-06 0)
(0.00141854 9.95608e-06 0)
(0.00119277 9.91638e-06 0)
(0.000989897 9.51327e-06 0)
(0.000811424 9.10055e-06 0)
(0.000652334 9.13972e-06 0)
(0.000504409 9.97889e-06 0)
(0.000361887 1.14455e-05 0)
(0.000227348 1.23656e-05 0)
(0.000112719 1.10242e-05 0)
(3.29229e-05 6.2245e-06 0)
(-3.97367e-06 -1.0074e-06 0)
(-5.64324e-06 -5.68166e-06 0)
(-8.47863e-06 2.67455e-05 0)
(-0.00017514 0.00016291 0)
(-0.000567012 0.00029706 0)
(-0.00118007 0.000369827 0)
(-0.001945 0.000379569 0)
(-0.00277615 0.000347179 0)
(-0.00358653 0.000287629 0)
(-0.00427322 0.000201651 0)
(-0.00468378 8.01775e-05 0)
(-0.00458789 -9.056e-05 0)
(-0.00364333 -0.000295091 0)
(-0.00173385 -0.000436267 0)
(0.00104184 -0.000387836 0)
(0.00312451 -0.00023845 0)
(0.00454662 -0.000117584 0)
(0.00533477 -4.98115e-05 0)
(0.00569049 -1.07946e-05 0)
(0.00567983 2.88401e-05 0)
(0.0053424 6.88537e-05 0)
(0.00479146 9.63519e-05 0)
(0.0041678 0.000111299 0)
(0.00355188 0.000118374 0)
(0.00297941 0.000121222 0)
(0.00246009 0.000123503 0)
(0.00198656 0.000129159 0)
(0.00154377 0.00014018 0)
(0.00112313 0.000153057 0)
(0.000734751 0.000157255 0)
(0.000407007 0.00014024 0)
(0.000171078 9.68719e-05 0)
(4.10218e-05 3.84489e-05 0)
(-1.03468e-06 -4.37809e-06 0)
(-3.24255e-05 0.000179783 0)
(-0.000357895 0.000574929 0)
(-0.00100732 0.000905767 0)
(-0.00196059 0.00107931 0)
(-0.00311388 0.00109006 0)
(-0.00434061 0.000979703 0)
(-0.00550061 0.000784394 0)
(-0.00642708 0.00051319 0)
(-0.00689648 0.000154831 0)
(-0.00659802 -0.000311226 0)
(-0.00513578 -0.000835166 0)
(-0.00243062 -0.00121416 0)
(0.0015699 -0.00109944 0)
(0.00459941 -0.000693484 0)
(0.00682243 -0.000369188 0)
(0.00818995 -0.00017259 0)
(0.0088895 -5.1783e-05 0)
(0.00899533 6.50546e-05 0)
(0.00858671 0.000181814 0)
(0.00782371 0.000268411 0)
(0.00690718 0.000322045 0)
(0.00596316 0.000353327 0)
(0.00505457 0.000372124 0)
(0.00420516 0.000388225 0)
(0.00341374 0.000411435 0)
(0.00266817 0.000445621 0)
(0.00196417 0.000480106 0)
(0.00131978 0.000488157 0)
(0.000773336 0.000440369 0)
(0.00036498 0.000326934 0)
(0.000115781 0.000173175 0)
(7.63932e-06 3.60039e-05 0)
(-5.1176e-05 0.000478736 0)
(-0.00050883 0.00130489 0)
(-0.00136867 0.00191443 0)
(-0.00258312 0.00220713 0)
(-0.00401113 0.00218886 0)
(-0.00549156 0.00193039 0)
(-0.00684291 0.0014973 0)
(-0.0078517 0.000916348 0)
(-0.00825139 0.000183591 0)
(-0.00768909 -0.000715226 0)
(-0.00582358 -0.00167155 0)
(-0.00267059 -0.00237205 0)
(0.0019414 -0.002169 0)
(0.00550125 -0.00140799 0)
(0.00833199 -0.00080033 0)
(0.0102629 -0.000407584 0)
(0.0113819 -0.000151329 0)
(0.0117218 9.15505e-05 0)
(0.0113791 0.000333213 0)
(0.0105449 0.000522079 0)
(0.0094587 0.000650177 0)
(0.00828155 0.000734728 0)
(0.00710186 0.000793965 0)
(0.00596123 0.000845825 0)
(0.00487216 0.000907256 0)
(0.00383419 0.00098348 0)
(0.00285292 0.00105359 0)
(0.00195405 0.0010694 0)
(0.00118237 0.00097891 0)
(0.00058666 0.000763057 0)
(0.000201799 0.000457379 0)
(1.70828e-05 0.000139353 0)
(-5.97271e-05 0.00091575 0)
(-0.000582733 0.00233996 0)
(-0.00155109 0.00330334 0)
(-0.00290001 0.00371996 0)
(-0.00446132 0.00362774 0)
(-0.00604713 0.00313949 0)
(-0.00744686 0.0023605 0)
(-0.00841874 0.00134687 0)
(-0.00867677 0.000116047 0)
(-0.00785897 -0.00132183 0)
(-0.00574845 -0.00277004 0)
(-0.00246418 -0.0038082 0)
(0.00212766 -0.00349525 0)
(0.00579324 -0.00234549 0)
(0.00895818 -0.00141822 0)
(0.0113432 -0.000784242 0)
(0.0129047 -0.000346022 0)
(0.0135903 7.20891e-05 0)
(0.0134505 0.000489813 0)
(0.0126913 0.000829622 0)
(0.0115751 0.00107715 0)
(0.0102863 0.0012563 0)
(0.00893279 0.00139444 0)
(0.00757368 0.00151802 0)
(0.00623904 0.00165044 0)
(0.00494572 0.00179683 0)
(0.00371338 0.00192415 0)
(0.00257692 0.00195926 0)
(0.00158814 0.00182079 0)
(0.000807009 0.00146999 0)
(0.000286571 0.00094134 0)
(2.61574e-05 0.000326189 0)
(-5.54049e-05 0.00143849 0)
(-0.000554669 0.0035804 0)
(-0.0014944 0.0049655 0)
(-0.00281874 0.00552102 0)
(-0.00435853 0.00532262 0)
(-0.00591324 0.00453405 0)
(-0.00725419 0.00331221 0)
(-0.00812417 0.00175692 0)
(-0.00823259 -7.5939e-05 0)
(-0.00725119 -0.00211831 0)
(-0.00508087 -0.00407043 0)
(-0.00193504 -0.00538558 0)
(0.00212113 -0.00493813 0)
(0.00552979 -0.00343495 0)
(0.00870383 -0.00219976 0)
(0.0113305 -0.00131578 0)
(0.0132662 -0.000672362 0)
(0.0143598 -3.9879e-05 0)
(0.0145392 0.000606306 0)
(0.013985 0.00114904 0)
(0.012974 0.00156706 0)
(0.0117049 0.00189197 0)
(0.0102966 0.00216053 0)
(0.00882146 0.00240659 0)
(0.00732621 0.00265742 0)
(0.00584636 0.00291541 0)
(0.00441829 0.00313295 0)
(0.00308939 0.00320797 0)
(0.00192148 0.00302101 0)
(0.000986999 0.00249961 0)
(0.000355351 0.00166328 0)
(3.35542e-05 0.000611878 0)
(-3.95846e-05 0.00195431 0)
(-0.00043063 0.00484077 0)
(-0.00120529 0.00669977 0)
(-0.0023446 0.00744035 0)
(-0.00371374 0.00714986 0)
(-0.00512256 0.00603355 0)
(-0.00633768 0.00430728 0)
(-0.0070952 0.00213133 0)
(-0.00710321 -0.000376382 0)
(-0.00609605 -0.00305476 0)
(-0.00404987 -0.00549043 0)
(-0.0012633 -0.00696198 0)
(0.00192586 -0.00634857 0)
(0.00481213 -0.00457765 0)
(0.00766933 -0.00308551 0)
(0.0102538 -0.0019851 0)
(0.0123962 -0.00115093 0)
(0.0138577 -0.000291787 0)
(0.0144448 0.000629319 0)
(0.0141916 0.00142788 0)
(0.0133961 0.002069 0)
(0.0122672 0.00259539 0)
(0.0109271 0.00305414 0)
(0.00945384 0.00348466 0)
(0.00790674 0.00391434 0)
(0.00633793 0.00433805 0)
(0.00480165 0.00468854 0)
(0.00336131 0.00482834 0)
(0.0020916 0.00459056 0)
(0.00107494 0.00385751 0)
(0.000387752 0.00262392 0)
(3.70077e-05 0.000995511 0)
(-1.80411e-05 0.00235454 0)
(-0.000248293 0.00588786 0)
(-0.000759413 0.00823577 0)
(-0.00158354 0.00924042 0)
(-0.00265314 0.00894197 0)
(-0.00382013 0.00754673 0)
(-0.00486752 0.00531984 0)
(-0.00553343 0.00249497 0)
(-0.00552648 -0.000720512 0)
(-0.0046251 -0.00404805 0)
(-0.00286721 -0.0069189 0)
(-0.000650134 -0.00839827 0)
(0.00156321 -0.0075866 0)
(0.00371173 -0.0056497 0)
(0.00597125 -0.00397963 0)
(0.00821631 -0.00273695 0)
(0.0103289 -0.0017729 0)
(0.0120352 -0.000719598 0)
(0.0130691 0.000505234 0)
(0.0131687 0.00160952 0)
(0.0126603 0.00252173 0)
(0.0117669 0.00330267 0)
(0.0106051 0.00401213 0)
(0.00925098 0.00469316 0)
(0.00776999 0.00536831 0)
(0.0062282 0.00601706 0)
(0.00469832 0.00654291 0)
(0.00326234 0.00676333 0)
(0.00200784 0.00645761 0)
(0.00101918 0.00546255 0)
(0.000363041 0.00375232 0)
(3.4006e-05 0.00144384 0)
(1.85203e-06 0.00255237 0)
(-6.29248e-05 0.00650726 0)
(-0.000277314 0.00928851 0)
(-0.000713761 0.0106382 0)
(-0.00138765 0.0104816 0)
(-0.00222575 0.00895367 0)
(-0.00305902 0.00632681 0)
(-0.00364498 0.00289896 0)
(-0.00369829 -0.00101705 0)
(-0.00301385 -0.00498343 0)
(-0.00169311 -0.00819814 0)
(-0.000235866 -0.00953395 0)
(0.000974939 -0.00851624 0)
(0.00221631 -0.00650011 0)
(0.00366259 -0.00475073 0)
(0.00530481 -0.0034737 0)
(0.00712134 -0.00249151 0)
(0.00889218 -0.00134169 0)
(0.0103607 0.000192769 0)
(0.0108553 0.00164055 0)
(0.0106789 0.00285798 0)
(0.0100936 0.00393529 0)
(0.00920464 0.00494802 0)
(0.00807707 0.00594069 0)
(0.00677845 0.00692327 0)
(0.00538799 0.00784711 0)
(0.00399825 0.00857102 0)
(0.00271014 0.00885664 0)
(0.00161824 0.00843336 0)
(0.000793708 0.00711418 0)
(0.000272157 0.00488115 0)
(2.35781e-05 0.00188056 0)
(1.38657e-05 0.00252414 0)
(7.37688e-05 0.00659043 0)
(0.000112076 0.00964485 0)
(5.06744e-05 0.0113593 0)
(-0.000189254 0.0115121 0)
(-0.000624189 0.0100803 0)
(-0.0011695 0.00726732 0)
(-0.00163846 0.00338801 0)
(-0.00178073 -0.00115295 0)
(-0.00141276 -0.00569815 0)
(-0.000678543 -0.00910049 0)
(-0.000145421 -0.0101575 0)
(2.18725e-05 -0.00896056 0)
(0.000229497 -0.00694586 0)
(0.00071307 -0.00523353 0)
(0.00154316 -0.0040529 0)
(0.00278939 -0.00320854 0)
(0.00439075 -0.00213473 0)
(0.00607893 -0.000383275 0)
(0.00719366 0.00143024 0)
(0.00742694 0.00298405 0)
(0.00722767 0.00438841 0)
(0.00670213 0.00574395 0)
(0.00590336 0.00709694 0)
(0.00490197 0.00843089 0)
(0.00379464 0.00964916 0)
(0.00269567 0.0105462 0)
(0.00171873 0.0108246 0)
(0.000949159 0.0101913 0)
(0.000423503 0.00848784 0)
(0.000128787 0.00575578 0)
(7.853e-06 0.00219509 0)
(1.75692e-05 0.0023122 0)
(0.0001411 0.00619261 0)
(0.000332085 0.00929496 0)
(0.000529553 0.0112506 0)
(0.000645097 0.0117488 0)
(0.000611386 0.010638 0)
(0.00042401 0.00796723 0)
(0.00017781 0.00394611 0)
(3.36701e-07 -0.00103361 0)
(-3.5818e-05 -0.00596441 0)
(-3.87709e-05 -0.00930685 0)
(-0.000576679 -0.00998884 0)
(-0.00152174 -0.00864731 0)
(-0.002399 -0.00677062 0)
(-0.00295134 -0.00526383 0)
(-0.00307344 -0.00432489 0)
(-0.00264245 -0.00377612 0)
(-0.00152554 -0.00303065 0)
(0.000171981 -0.00137672 0)
(0.0021733 0.00087016 0)
(0.0029446 0.00281422 0)
(0.00322799 0.00454524 0)
(0.00317126 0.00625241 0)
(0.00281642 0.0079875 0)
(0.00224312 0.00967789 0)
(0.00157397 0.0111495 0)
(0.0009402 0.0121163 0)
(0.000446267 0.0122452 0)
(0.000138735 0.011286 0)
(1.66536e-06 0.00918481 0)
(-2.53772e-05 0.00609372 0)
(-7.83509e-06 0.00227686 0)
(1.4725e-05 0.00200371 0)
(0.000140871 0.00548492 0)
(0.000370935 0.00842508 0)
(0.000671482 0.0104619 0)
(0.000969986 0.0112258 0)
(0.00119051 0.0104499 0)
(0.00128612 0.00805165 0)
(0.00127131 0.00416917 0)
(0.00116165 -0.000745375 0)
(0.000772337 -0.00548846 0)
(-0.000134943 -0.00846733 0)
(-0.00186166 -0.00871613 0)
(-0.00393644 -0.00736394 0)
(-0.00589006 -0.0057969 0)
(-0.0074837 -0.00466581 0)
(-0.00858968 -0.00411409 0)
(-0.00902962 -0.00398619 0)
(-0.00855194 -0.00369963 0)
(-0.00721019 -0.00263435 0)
(-0.00513835 -0.000559505 0)
(-0.00298265 0.00191815 0)
(-0.00192406 0.00408455 0)
(-0.00127536 0.00619529 0)
(-0.000964927 0.00833975 0)
(-0.000889388 0.0103262 0)
(-0.000903031 0.0118971 0)
(-0.000891214 0.0127304 0)
(-0.000788705 0.0125553 0)
(-0.000593936 0.0112546 0)
(-0.000356558 0.00890889 0)
(-0.00014822 0.00575394 0)
(-1.86202e-05 0.00208689 0)
(7.39677e-06 0.00172943 0)
(9.23246e-05 0.00478249 0)
(0.000265102 0.00745005 0)
(0.000518894 0.00942186 0)
(0.00081232 0.0103263 0)
(0.0010872 0.00983184 0)
(0.00128392 0.0077707 0)
(0.00135042 0.00425854 0)
(0.0012313 -0.000149787 0)
(0.000460188 -0.00418767 0)
(-0.00154451 -0.00629906 0)
(-0.00440614 -0.00605701 0)
(-0.00750145 -0.00493319 0)
(-0.0104113 -0.003882 0)
(-0.0129433 -0.00330331 0)
(-0.0149598 -0.00329898 0)
(-0.0162271 -0.00377207 0)
(-0.0163722 -0.00417453 0)
(-0.0153917 -0.00385398 0)
(-0.0134541 -0.00252646 0)
(-0.0107533 -0.000240576 0)
(-0.00809084 0.00249347 0)
(-0.00631669 0.00501351 0)
(-0.00494435 0.00741892 0)
(-0.003904 0.0095234 0)
(-0.00304834 0.0110797 0)
(-0.00231197 0.011757 0)
(-0.0016474 0.0113577 0)
(-0.00104965 0.00989814 0)
(-0.000553154 0.00758593 0)
(-0.000205058 0.0047337 0)
(-2.13412e-05 0.00165073 0)
(1.53896e-06 0.00154284 0)
(1.33537e-05 0.00426832 0)
(4.79943e-05 0.00667575 0)
(0.000115963 0.00850345 0)
(0.000218913 0.00940543 0)
(0.00033945 0.00904079 0)
(0.000423941 0.00723717 0)
(0.000335809 0.00419339 0)
(-0.000311594 0.00060821 0)
(-0.00203006 -0.00189657 0)
(-0.00509939 -0.00242636 0)
(-0.00882844 -0.00187188 0)
(-0.0125388 -0.00126032 0)
(-0.0159435 -0.000986211 0)
(-0.0189262 -0.00116294 0)
(-0.0214537 -0.00185704 0)
(-0.0232381 -0.00308768 0)
(-0.0238588 -0.00437322 0)
(-0.0232779 -0.00508883 0)
(-0.0216135 -0.0049375 0)
(-0.0189928 -0.00377131 0)
(-0.0156416 -0.00157221 0)
(-0.0119701 0.00142963 0)
(-0.00872476 0.00445814 0)
(-0.00621166 0.00670005 0)
(-0.00421206 0.00830248 0)
(-0.00274289 0.00900898 0)
(-0.00168945 0.00867699 0)
(-0.000939244 0.00741675 0)
(-0.000434819 0.00551711 0)
(-0.000141332 0.00332026 0)
(-1.30208e-05 0.00110718 0)
(-1.55982e-05 0.00173172 0)
(-0.000141274 0.00470101 0)
(-0.000381509 0.00721775 0)
(-0.000730026 0.00904007 0)
(-0.00117053 0.00990269 0)
(-0.00171938 0.00962287 0)
(-0.00247371 0.00829981 0)
(-0.00367297 0.00649896 0)
(-0.00565898 0.00504227 0)
(-0.00846077 0.00428833 0)
(-0.0116513 0.0038884 0)
(-0.0148774 0.00352847 0)
(-0.0180026 0.00306379 0)
(-0.0209819 0.0023877 0)
(-0.023752 0.00137446 0)
(-0.0260966 -0.000137141 0)
(-0.0278269 -0.00216718 0)
(-0.028596 -0.00440579 0)
(-0.0283504 -0.00632208 0)
(-0.0271264 -0.00767507 0)
(-0.0249557 -0.00831355 0)
(-0.0219211 -0.00810318 0)
(-0.0181921 -0.0069087 0)
(-0.0140629 -0.00465149 0)
(-0.00992641 -0.00142282 0)
(-0.00636618 0.00186696 0)
(-0.00359906 0.00439126 0)
(-0.0017416 0.00545048 0)
(-0.000670065 0.00526049 0)
(-0.000167412 0.00426461 0)
(-2.68888e-06 0.00276804 0)
(1.14021e-05 0.00100339 0)
(-1.71366e-05 0.00241298 0)
(-0.000184825 0.0064605 0)
(-0.000529419 0.00978233 0)
(-0.00106832 0.0121395 0)
(-0.00179637 0.0133786 0)
(-0.00272656 0.0135185 0)
(-0.00391478 0.0128214 0)
(-0.00544623 0.0117377 0)
(-0.00736542 0.0106605 0)
(-0.0096233 0.00972655 0)
(-0.0121317 0.00887461 0)
(-0.014817 0.0079948 0)
(-0.0176038 0.00697553 0)
(-0.0204153 0.0056992 0)
(-0.0231614 0.00404193 0)
(-0.0256659 0.00187111 0)
(-0.0276002 -0.000973788 0)
(-0.0284455 -0.00411565 0)
(-0.0285456 -0.0071049 0)
(-0.0278947 -0.00982296 0)
(-0.0264734 -0.0121657 0)
(-0.0242868 -0.0139889 0)
(-0.0213963 -0.0150762 0)
(-0.0179388 -0.0151652 0)
(-0.0141277 -0.0140095 0)
(-0.0102651 -0.0114984 0)
(-0.00671381 -0.00781105 0)
(-0.0038084 -0.00355753 0)
(-0.00180117 -1.61648e-05 0)
(-0.000661954 0.00188571 0)
(-0.000150171 0.00209278 0)
(3.60215e-07 0.00102297 0)
(-8.00689e-06 0.00300904 0)
(-0.00011169 0.00809538 0)
(-0.000349401 0.0123169 0)
(-0.000759653 0.0153987 0)
(-0.00136347 0.0171937 0)
(-0.00217745 0.0177657 0)
(-0.0032179 0.017413 0)
(-0.0044942 0.0165628 0)
(-0.00599383 0.0155617 0)
(-0.00768424 0.0145416 0)
(-0.00953497 0.0134689 0)
(-0.0115237 0.0122614 0)
(-0.0136238 0.0108355 0)
(-0.0158044 0.00909676 0)
(-0.0180225 0.00692295 0)
(-0.0201743 0.00415256 0)
(-0.0220559 0.000590658 0)
(-0.0232884 -0.00337512 0)
(-0.0237915 -0.00714767 0)
(-0.0239023 -0.0108423 0)
(-0.0235039 -0.0144973 0)
(-0.0225073 -0.0180269 0)
(-0.0208493 -0.0211688 0)
(-0.0185388 -0.0235057 0)
(-0.0156732 -0.0245388 0)
(-0.0124404 -0.0237938 0)
(-0.00910056 -0.0209959 0)
(-0.00595748 -0.0163218 0)
(-0.00332974 -0.0106337 0)
(-0.00146956 -0.0053534 0)
(-0.000429086 -0.00170116 0)
(-2.49349e-05 -2.88618e-05 0)
(2.82529e-06 0.00321796 0)
(-1.00055e-05 0.00879509 0)
(-7.83877e-05 0.0135911 0)
(-0.000250381 0.0172793 0)
(-0.000574076 0.0196385 0)
(-0.001086 0.0206611 0)
(-0.00179823 0.020598 0)
(-0.00269353 0.0198631 0)
(-0.00373459 0.0188276 0)
(-0.00487995 0.017672 0)
(-0.00609782 0.0164083 0)
(-0.00736707 0.0149772 0)
(-0.00867108 0.013307 0)
(-0.00999866 0.0113147 0)
(-0.0113421 0.00888871 0)
(-0.0126594 0.00586916 0)
(-0.013836 0.00204164 0)
(-0.0149557 -0.00220859 0)
(-0.0157364 -0.00624267 0)
(-0.0165419 -0.0102508 0)
(-0.0172105 -0.0145249 0)
(-0.0175644 -0.0191565 0)
(-0.017396 -0.0239608 0)
(-0.0165523 -0.0284712 0)
(-0.0149733 -0.0320168 0)
(-0.0127179 -0.0337805 0)
(-0.0099704 -0.0329901 0)
(-0.00702156 -0.0291876 0)
(-0.00424254 -0.0226346 0)
(-0.00202563 -0.0146589 0)
(-0.000639725 -0.00725884 0)
(-4.36459e-05 -0.0018045 0)
(1.12438e-05 0.00310438 0)
(7.71838e-05 0.00867055 0)
(0.000164039 0.0136698 0)
(0.000224213 0.0177458 0)
(0.000194649 0.0206026 0)
(1.90728e-05 0.0221159 0)
(-0.000331408 0.0223897 0)
(-0.000838186 0.0217841 0)
(-0.0014486 0.0207043 0)
(-0.00209897 0.0194014 0)
(-0.00273934 0.0179512 0)
(-0.00334116 0.0163309 0)
(-0.00389259 0.014484 0)
(-0.00439613 0.0123349 0)
(-0.00487023 0.00977826 0)
(-0.00532875 0.00667492 0)
(-0.00567178 0.00286694 0)
(-0.00630291 -0.00126889 0)
(-0.00717631 -0.00505978 0)
(-0.00833559 -0.00873811 0)
(-0.00968658 -0.0128411 0)
(-0.0110743 -0.0177032 0)
(-0.0122181 -0.0233451 0)
(-0.0128318 -0.0293769 0)
(-0.0126914 -0.0351122 0)
(-0.0116923 -0.0395026 0)
(-0.00989265 -0.0413614 0)
(-0.00750256 -0.0395934 0)
(-0.00487803 -0.0336442 0)
(-0.00249704 -0.0241907 0)
(-0.000840075 -0.0134548 0)
(-6.52435e-05 -0.00392235 0)
(1.54257e-05 0.00281236 0)
(0.000132515 0.00805565 0)
(0.000330292 0.0129903 0)
(0.000569299 0.0172417 0)
(0.000782716 0.0204442 0)
(0.000907045 0.0223645 0)
(0.000902246 0.0229964 0)
(0.000771899 0.02259 0)
(0.000568833 0.0215179 0)
(0.000373765 0.0200888 0)
(0.000258551 0.0184619 0)
(0.000262761 0.016674 0)
(0.000392817 0.0146955 0)
(0.000627948 0.0124619 0)
(0.000921551 0.00986779 0)
(0.00119312 0.00675234 0)
(0.00145816 0.00310757 0)
(0.00120661 -0.000612594 0)
(0.000192507 -0.00402593 0)
(-0.00112494 -0.00723692 0)
(-0.00271858 -0.0107414 0)
(-0.00457532 -0.0151399 0)
(-0.00655349 -0.0208208 0)
(-0.00830069 -0.0275534 0)
(-0.00946627 -0.0348412 0)
(-0.00975987 -0.0415274 0)
(-0.00907614 -0.0461469 0)
(-0.00748726 -0.0470649 0)
(-0.00526555 -0.0428719 0)
(-0.00289955 -0.0332259 0)
(-0.00103861 -0.0199001 0)
(-8.82445e-05 -0.00627615 0)
(1.60168e-05 0.00247049 0)
(0.000154942 0.0072513 0)
(0.000412867 0.011954 0)
(0.000764679 0.0162136 0)
(0.00115032 0.0196171 0)
(0.00150808 0.0218391 0)
(0.00179624 0.0227651 0)
(0.00201344 0.0225436 0)
(0.00220873 0.0215007 0)
(0.00246471 0.0199757 0)
(0.00285935 0.0181997 0)
(0.00343416 0.0162754 0)
(0.00418576 0.0142105 0)
(0.00506872 0.0119545 0)
(0.00599633 0.00940358 0)
(0.00683318 0.00638437 0)
(0.00736535 0.00303775 0)
(0.00714325 -0.000170631 0)
(0.0060612 -0.00305232 0)
(0.00460416 -0.0058078 0)
(0.00291802 -0.00875035 0)
(0.00104943 -0.012363 0)
(-0.00126446 -0.0176297 0)
(-0.00364447 -0.0242607 0)
(-0.00579355 -0.0323253 0)
(-0.00725118 -0.0406883 0)
(-0.00772282 -0.0477894 0)
(-0.0070879 -0.0516139 0)
(-0.00546481 -0.0499716 0)
(-0.0032715 -0.0413206 0)
(-0.00125814 -0.0263388 0)
(-0.000115425 -0.00879119 0)
(1.39046e-05 0.0021597 0)
(0.000146794 0.00647261 0)
(0.000410776 0.0108735 0)
(0.000800511 0.0150249 0)
(0.00127622 0.018494 0)
(0.00179216 0.0208882 0)
(0.00231757 0.0220037 0)
(0.00285525 0.0219062 0)
(0.0034496 0.0208802 0)
(0.00417139 0.0192815 0)
(0.00508403 0.017397 0)
(0.0062141 0.015387 0)
(0.0075401 0.0132964 0)
(0.00899064 0.0110907 0)
(0.010439 0.00867352 0)
(0.0116942 0.00588875 0)
(0.0123485 0.00296137 0)
(0.0121476 0.000306521 0)
(0.0109313 -0.00213311 0)
(0.00928209 -0.00452967 0)
(0.00739706 -0.00714583 0)
(0.0054045 -0.0103169 0)
(0.00323131 -0.014545 0)
(0.000782327 -0.020438 0)
(-0.00191488 -0.0285987 0)
(-0.00429743 -0.0378815 0)
(-0.00588762 -0.0469063 0)
(-0.00632159 -0.0535065 0)
(-0.00548422 -0.0548721 0)
(-0.00363443 -0.0482409 0)
(-0.00153041 -0.0326666 0)
(-0.000152635 -0.0114737 0)
(8.7697e-06 0.00192947 0)
(0.000103861 0.00586398 0)
(0.000310761 0.00997177 0)
(0.000652427 0.0139427 0)
(0.00112908 0.0173469 0)
(0.00172968 0.0197594 0)
(0.00244694 0.0209213 0)
(0.00329349 0.0208468 0)
(0.00430445 0.0197967 0)
(0.0055224 0.0181396 0)
(0.00697426 0.0161971 0)
(0.00865436 0.0141667 0)
(0.0105162 0.0121189 0)
(0.0124655 0.0100322 0)
(0.0143444 0.00782083 0)
(0.0159155 0.00535498 0)
(0.016673 0.00287424 0)
(0.0164512 0.000731623 0)
(0.0152506 -0.00123695 0)
(0.0135455 -0.00322881 0)
(0.0115299 -0.00549301 0)
(0.00934791 -0.00835001 0)
(0.00706295 -0.0121933 0)
(0.00466088 -0.017395 0)
(0.00205536 -0.0243965 0)
(-0.000887541 -0.0338429 0)
(-0.00347142 -0.0440711 0)
(-0.00507262 -0.0530375 0)
(-0.00523965 -0.0575647 0)
(-0.00395931 -0.0537861 0)
(-0.00188383 -0.0387876 0)
(-0.000210574 -0.0143804 0)
(-1.44943e-06 0.00182015 0)
(5.6078e-06 0.00554227 0)
(6.63948e-05 0.00942392 0)
(0.000257601 0.0131638 0)
(0.000651662 0.0163592 0)
(0.00128799 0.0186049 0)
(0.00218293 0.0196424 0)
(0.00335554 0.019469 0)
(0.00482102 0.0183449 0)
(0.00657431 0.016647 0)
(0.00858694 0.0147058 0)
(0.0108108 0.0127271 0)
(0.0131741 0.0107898 0)
(0.0155671 0.00887948 0)
(0.0178152 0.00692166 0)
(0.0196564 0.00480997 0)
(0.0205584 0.00276331 0)
(0.0204193 0.00106522 0)
(0.0193603 -0.000479681 0)
(0.0177619 -0.00208728 0)
(0.015794 -0.00398706 0)
(0.0135785 -0.0064862 0)
(0.0111911 -0.00994017 0)
(0.00865674 -0.014701 0)
(0.00595319 -0.0210804 0)
(0.00297582 -0.0293262 0)
(-0.000307847 -0.039731 0)
(-0.00311593 -0.0504467 0)
(-0.00454779 -0.0580113 0)
(-0.00415282 -0.0577055 0)
(-0.00233249 -0.0445197 0)
(-0.00030771 -0.0175992 0)
(-2.2454e-05 0.00190148 0)
(-0.00018784 0.00567034 0)
(-0.000394227 0.00940348 0)
(-0.000468921 0.0128008 0)
(-0.000231902 0.0155797 0)
(0.00043944 0.0174763 0)
(0.00155634 0.0182156 0)
(0.00311014 0.0178298 0)
(0.0050858 0.0165957 0)
(0.00741379 0.0148884 0)
(0.0100007 0.0130135 0)
(0.0127584 0.0111564 0)
(0.0155978 0.00938781 0)
(0.0184058 0.00769481 0)
(0.0210076 0.00601358 0)
(0.0231447 0.00425499 0)
(0.0242953 0.00260144 0)
(0.0243909 0.00127358 0)
(0.0236782 9.12036e-05 0)
(0.0223307 -0.00117657 0)
(0.0205908 -0.00273382 0)
(0.0185255 -0.00486249 0)
(0.0161696 -0.00788541 0)
(0.013523 -0.0121274 0)
(0.0105677 -0.0178738 0)
(0.00728008 -0.0253459 0)
(0.00365125 -0.0346845 0)
(-0.000180744 -0.0459015 0)
(-0.00313429 -0.0561206 0)
(-0.00404346 -0.0596735 0)
(-0.00285279 -0.0495463 0)
(-0.000472299 -0.0212207 0)
(-7.06921e-05 0.00227663 0)
(-0.000562722 0.00641688 0)
(-0.00118675 0.0100435 0)
(-0.00161099 0.0129278 0)
(-0.00152723 0.0150225 0)
(-0.000792521 0.0162973 0)
(0.000649407 0.0166177 0)
(0.00269139 0.0159514 0)
(0.00524837 0.0146076 0)
(0.00819009 0.0129404 0)
(0.0113649 0.0111966 0)
(0.0146603 0.00951917 0)
(0.0179845 0.00796015 0)
(0.0212337 0.00650515 0)
(0.0242487 0.00510034 0)
(0.026797 0.00366949 0)
(0.0283666 0.00235548 0)
(0.0288818 0.00132561 0)
(0.0286344 0.000430832 0)
(0.027718 -0.000543025 0)
(0.0263713 -0.00179129 0)
(0.0246068 -0.00354967 0)
(0.0224019 -0.00609758 0)
(0.0197073 -0.00972661 0)
(0.0164788 -0.0147096 0)
(0.0127107 -0.0212898 0)
(0.00846088 -0.0296917 0)
(0.00387208 -0.0400554 0)
(-0.000634468 -0.0517689 0)
(-0.00334657 -0.0592983 0)
(-0.00333699 -0.0534071 0)
(-0.000733454 -0.0252735 0)
(-0.000185281 0.00315424 0)
(-0.00126639 0.00798972 0)
(-0.00244134 0.0113544 0)
(-0.00319512 0.0134129 0)
(-0.00314534 0.0145529 0)
(-0.00218561 0.0150168 0)
(-0.000311324 0.0147993 0)
(0.00240576 0.0138304 0)
(0.00563478 0.0124257 0)
(0.00924863 0.010862 0)
(0.0130591 0.0093043 0)
(0.0169509 0.00784573 0)
(0.0208408 0.00651716 0)
(0.0246405 0.00530276 0)
(0.0282114 0.00415866 0)
(0.0313522 0.00302119 0)
(0.0335278 0.00199788 0)
(0.0346175 0.00121226 0)
(0.0349124 0.000546906 0)
(0.0345353 -0.000184994 0)
(0.033652 -0.00115661 0)
(0.03224 -0.00254915 0)
(0.030228 -0.00458963 0)
(0.0275186 -0.00752728 0)
(0.024028 -0.0116182 0)
(0.0197309 -0.0171321 0)
(0.0146953 -0.0243837 0)
(0.00909984 -0.0337405 0)
(0.00330281 -0.0452136 0)
(-0.00159559 -0.0561502 0)
(-0.00352448 -0.0555209 0)
(-0.00108699 -0.0296501 0)
(-0.000433728 0.00486869 0)
(-0.00245573 0.0105352 0)
(-0.00415695 0.0131515 0)
(-0.00499139 0.0139514 0)
(-0.00465159 0.0139148 0)
(-0.00316606 0.0134864 0)
(-0.000568327 0.0126861 0)
(0.00302534 0.0114485 0)
(0.0070625 0.0100735 0)
(0.0114619 0.008677 0)
(0.0160283 0.00734521 0)
(0.0206517 0.00612778 0)
(0.0252541 0.00503816 0)
(0.0297533 0.00406089 0)
(0.0340199 0.003162 0)
(0.0378702 0.00229228 0)
(0.0407154 0.0015285 0)
(0.0423885 0.0009543 0)
(0.0431928 0.000477971 0)
(0.0433122 -5.12428e-05 0)
(0.0428223 -0.000767404 0)
(0.0416947 -0.00180191 0)
(0.0398327 -0.00332604 0)
(0.0371056 -0.00553646 0)
(0.0333882 -0.00865556 0)
(0.0286063 -0.012958 0)
(0.0227804 -0.0188252 0)
(0.0160611 -0.0268077 0)
(0.00881278 -0.0374726 0)
(0.00188666 -0.049862 0)
(-0.00292219 -0.0552144 0)
(-0.00143699 -0.0341195 0)
(-0.000880222 0.00790523 0)
(-0.00410721 0.01389 0)
(-0.00584304 0.0148425 0)
(-0.00602978 0.0139782 0)
(-0.00470274 0.0127207 0)
(-0.0021288 0.0114559 0)
(0.00176787 0.0101145 0)
(0.00636504 0.00879159 0)
(0.0113973 0.00754585 0)
(0.0167303 0.00637267 0)
(0.0221813 0.0053002 0)
(0.0276335 0.00434549 0)
(0.032997 0.00350931 0)
(0.0381788 0.00277724 0)
(0.0430475 0.0021236 0)
(0.0474264 0.00151389 0)
(0.0507017 0.00099597 0)
(0.0527153 0.000615228 0)
(0.0538044 0.000302144 0)
(0.0542001 -4.82505e-05 0)
(0.0539137 -0.00052587 0)
(0.0529276 -0.00122124 0)
(0.0511381 -0.00225132 0)
(0.0483982 -0.00375418 0)
(0.0445505 -0.00589958 0)
(0.0394597 -0.00892922 0)
(0.0330471 -0.0132349 0)
(0.0253431 -0.0194742 0)
(0.0166058 -0.0286054 0)
(0.00756353 -0.0410259 0)
(-0.000685581 -0.0515817 0)
(-0.00148959 -0.0381295 0)
(-0.0016147 0.0130455 0)
(-0.00553086 0.0171966 0)
(-0.00557538 0.0152701 0)
(-0.00344367 0.0126653 0)
(0.000209322 0.0103967 0)
(0.00485337 0.00856968 0)
(0.010198 0.00709523 0)
(0.0159954 0.00588215 0)
(0.0220581 0.0048622 0)
(0.0282404 0.00397555 0)
(0.0343777 0.00320876 0)
(0.0403452 0.00255435 0)
(0.0460435 0.00200233 0)
(0.05138 0.00153753 0)
(0.0562401 0.00113958 0)
(0.0604788 0.000785999 0)
(0.0635691 0.000498233 0)
(0.0654386 0.000291251 0)
(0.0664395 0.000119511 0)
(0.0667912 -7.43482e-05 0)
(0.066495 -0.000341779 0)
(0.0655315 -0.000738199 0)
(0.0637944 -0.00133165 0)
(0.0611337 -0.00220351 0)
(0.0573784 -0.00346118 0)
(0.0523465 -0.00527871 0)
(0.0458453 -0.00798331 0)
(0.0376894 -0.0122119 0)
(0.0278157 -0.0191073 0)
(0.0165243 -0.0300794 0)
(0.00440545 -0.0434781 0)
(-0.000169713 -0.0396145 0)
(-0.00121953 0.0183101 0)
(-0.0029773 0.0181859 0)
(0.00336123 0.0126132 0)
(0.0104176 0.00924366 0)
(0.0173424 0.00688666 0)
(0.024098 0.0051451 0)
(0.030747 0.00388114 0)
(0.0372459 0.00296464 0)
(0.0435369 0.00228187 0)
(0.049557 0.00175283 0)
(0.0552191 0.00133754 0)
(0.0604534 0.00101113 0)
(0.0652116 0.00075518 0)
(0.0694573 0.000553597 0)
(0.0731435 0.000390998 0)
(0.0762023 0.000254747 0)
(0.0783196 0.00014895 0)
(0.0795241 7.3714e-05 0)
(0.0800993 8.43916e-06 0)
(0.0801853 -6.69653e-05 0)
(0.0797949 -0.000175638 0)
(0.0788869 -0.000342975 0)
(0.0773555 -0.000598195 0)
(0.0750636 -0.000976433 0)
(0.0718547 -0.00152743 0)
(0.0675414 -0.00234337 0)
(0.0618625 -0.00362658 0)
(0.0544146 -0.00583482 0)
(0.0445881 -0.00993895 0)
(0.0316218 -0.0176344 0)
(0.0155054 -0.0297843 0)
(0.00631638 -0.0334596 0)
(0.0208014 0.0113665 0)
(0.0272007 0.00929458 0)
(0.0402622 0.00542439 0)
(0.050868 0.00328661 0)
(0.0588068 0.0020466 0)
(0.0650791 0.00126236 0)
(0.0702291 0.000774951 0)
(0.0745413 0.000481276 0)
(0.0782099 0.000304783 0)
(0.0813635 0.000195914 0)
(0.0840748 0.000127472 0)
(0.0863946 8.36705e-05 0)
(0.0883649 5.50519e-05 0)
(0.0900183 3.57302e-05 0)
(0.0913705 2.1667e-05 0)
(0.0924185 1.06989e-05 0)
(0.0930802 2.70121e-06 0)
(0.0933997 -3.19197e-06 0)
(0.093485 -9.54754e-06 0)
(0.0933751 -1.76614e-05 0)
(0.0930676 -3.15551e-05 0)
(0.0925168 -5.51124e-05 0)
(0.0916503 -9.2463e-05 0)
(0.0903845 -0.000148659 0)
(0.0886263 -0.00023143 0)
(0.0862525 -0.000357592 0)
(0.0830486 -0.000570526 0)
(0.078571 -0.000982634 0)
(0.0718577 -0.00187374 0)
(0.0608964 -0.0039897 0)
(0.0432959 -0.00919786 0)
(0.0285983 -0.0145353 0)
)
;

boundaryField
{
    movingWall
    {
        type            fixedValue;
        value           uniform (0.1 0 0);
    }
    fixedWalls
    {
        type            noSlip;
    }
    floor
    {
        type            noSlip;
    }
    frontAndBack
    {
        type            empty;
    }
}


// ************************************************************************* //
