/*--------------------------------*- C++ -*----------------------------------*\
| =========                 |                                                 |
| \\      /  F ield         | OpenFOAM: The Open Source CFD Toolbox           |
|  \\    /   O peration     | Version:  2212                                  |
|   \\  /    A nd           | Website:  www.openfoam.com                      |
|    \\/     M anipulation  |                                                 |
\*---------------------------------------------------------------------------*/
FoamFile
{
    version     2.0;
    format      ascii;
    arch        "LSB;label=64;scalar=64";
    class       volScalarField::Internal;
    location    "780";
    object      dGco2;
}
// * * * * * * * * * * * * * * * * * * * * * * * * * * * * * * * * * * * * * //

dimensions      [1 -3 -1 0 0 0 0];

value           nonuniform List<scalar> 
1024
(
0.000143154
0.000143181
0.000143249
0.000143371
0.000143562
0.00014383
0.000144177
0.000144592
0.000145054
0.000145536
0.000146019
0.000146491
0.000146933
0.000147305
0.000147522
0.000147427
0.000146959
0.000146308
0.000145616
0.000144932
0.000144271
0.000143638
0.000143035
0.000142469
0.000141953
0.000141506
0.000141141
0.000140863
0.000140669
0.000140545
0.000140476
0.000140448
0.000143158
0.000143186
0.000143256
0.000143381
0.000143576
0.00014385
0.000144203
0.000144622
0.000145086
0.000145569
0.000146053
0.000146525
0.00014697
0.000147347
0.000147568
0.000147472
0.000147
0.000146344
0.000145651
0.000144965
0.000144303
0.00014367
0.000143067
0.000142499
0.000141981
0.000141529
0.000141159
0.000140877
0.000140679
0.000140552
0.000140482
0.000140453
0.000143168
0.000143197
0.00014327
0.000143401
0.000143605
0.000143889
0.000144252
0.000144679
0.000145146
0.000145631
0.000146117
0.000146594
0.00014705
0.000147443
0.000147679
0.000147583
0.000147095
0.000146427
0.000145724
0.000145033
0.000144368
0.000143734
0.00014313
0.000142561
0.000142037
0.000141577
0.000141198
0.000140906
0.000140699
0.000140567
0.000140494
0.000140464
0.000143183
0.000143215
0.000143292
0.000143431
0.000143646
0.000143944
0.000144319
0.000144754
0.000145226
0.000145712
0.000146203
0.000146695
0.000147176
0.000147607
0.000147878
0.000147782
0.000147262
0.000146563
0.00014584
0.000145135
0.000144463
0.000143826
0.000143219
0.000142647
0.000142117
0.000141646
0.000141253
0.000140949
0.000140731
0.000140592
0.000140515
0.000140483
0.000143202
0.000143236
0.000143319
0.000143467
0.000143694
0.000144004
0.000144391
0.000144833
0.000145307
0.000145798
0.000146301
0.00014682
0.000147352
0.000147853
0.00014819
0.000148097
0.00014752
0.000146765
0.000146001
0.000145268
0.00014458
0.000143934
0.000143324
0.000142747
0.00014221
0.000141728
0.000141321
0.000141002
0.000140772
0.000140625
0.000140543
0.000140509
0.000143222
0.000143257
0.000143344
0.000143499
0.000143735
0.000144055
0.000144448
0.000144893
0.000145369
0.000145866
0.000146391
0.000146959
0.000147574
0.00014819
0.000148633
0.000148551
0.000147889
0.000147042
0.000146207
0.000145426
0.000144708
0.000144045
0.000143426
0.000142845
0.000142301
0.00014181
0.00014139
0.000141058
0.000140817
0.000140662
0.000140575
0.000140541
0.000143234
0.000143271
0.00014336
0.000143517
0.000143756
0.000144077
0.000144469
0.000144911
0.000145387
0.000145893
0.000146451
0.00014709
0.000147829
0.000148615
0.000149213
0.000149158
0.000148383
0.0001474
0.000146456
0.000145599
0.00014483
0.000144139
0.000143506
0.000142918
0.000142371
0.000141874
0.000141447
0.000141106
0.000140859
0.000140698
0.000140609
0.000140572
0.000143231
0.000143267
0.000143355
0.00014351
0.000143742
0.000144054
0.000144433
0.000144863
0.000145332
0.000145849
0.00014645
0.000147185
0.000148093
0.000149112
0.000149924
0.00014992
0.000149008
0.00014784
0.000146742
0.000145772
0.000144929
0.000144194
0.00014354
0.000142945
0.000142397
0.000141903
0.000141477
0.000141136
0.000140887
0.000140725
0.000140635
0.000140598
0.000143199
0.000143235
0.000143319
0.000143463
0.000143679
0.000143968
0.000144321
0.000144726
0.00014518
0.000145704
0.000146354
0.000147209
0.000148335
0.000149664
0.000150756
0.000150828
0.000149754
0.000148349
0.000147047
0.000145927
0.000144983
0.000144187
0.000143504
0.000142902
0.000142361
0.000141878
0.000141464
0.000141133
0.000140892
0.000140734
0.000140646
0.000140609
0.000143123
0.000143158
0.000143235
0.000143366
0.000143556
0.00014381
0.000144121
0.000144486
0.000144911
0.000145434
0.000146136
0.000147137
0.000148544
0.000150274
0.000151716
0.000151879
0.000150609
0.000148907
0.000147348
0.000146037
0.000144965
0.000144094
0.000143378
0.000142772
0.000142246
0.000141786
0.000141398
0.000141089
0.000140863
0.000140715
0.000140631
0.000140595
0.000142985
0.000143018
0.000143089
0.000143201
0.000143361
0.000143569
0.000143827
0.000144136
0.000144518
0.000145033
0.000145797
0.000146986
0.000148763
0.000151002
0.000152856
0.000153094
0.000151567
0.000149498
0.000147623
0.000146077
0.00014485
0.000143891
0.000143141
0.00014254
0.00014204
0.000141619
0.000141269
0.000140992
0.00014079
0.000140656
0.000140577
0.000140544
0.000142768
0.000142797
0.000142859
0.000142953
0.000143081
0.000143243
0.000143441
0.00014369
0.000144026
0.000144541
0.000145403
0.000146861
0.000149139
0.000152006
0.000154295
0.000154542
0.000152671
0.000150155
0.000147892
0.000146053
0.000144631
0.000143565
0.000142779
0.000142191
0.000141734
0.000141365
0.000141067
0.000140832
0.000140659
0.000140541
0.000140469
0.000140437
0.000142511
0.000142528
0.000142566
0.000142629
0.000142719
0.000142837
0.000142989
0.000143198
0.000143525
0.000144102
0.000145165
0.000147052
0.000149997
0.000153564
0.000156225
0.000156369
0.00015409
0.000151075
0.000148339
0.000146103
0.00014439
0.000143153
0.0001423
0.000141721
0.000141315
0.000141012
0.000140775
0.00014059
0.000140448
0.000140347
0.000140283
0.000140252
0.000142611
0.00014259
0.000142559
0.000142534
0.000142533
0.000142579
0.000142695
0.000142925
0.000143356
0.000144162
0.000145638
0.00014817
0.00015191
0.00015611
0.000158946
0.000158903
0.000156334
0.000152916
0.000149642
0.000146805
0.000144549
0.000142911
0.000141835
0.000141182
0.000140796
0.000140551
0.000140375
0.000140237
0.000140129
0.000140053
0.000140008
0.000139989
0.000144509
0.00014444
0.000144308
0.000144139
0.000143975
0.000143878
0.000143921
0.000144198
0.000144845
0.000146068
0.000148156
0.000151416
0.000155827
0.000160286
0.000162993
0.000162998
0.000160806
0.000157527
0.000153872
0.000150246
0.000146997
0.000144371
0.000142466
0.000141204
0.00014045
0.000140043
0.000139863
0.00013983
0.00013989
0.000139995
0.000140099
0.000140163
0.000150045
0.000149975
0.000149832
0.00014963
0.000149411
0.000149253
0.000149273
0.000149627
0.000150503
0.000152128
0.000154739
0.000158458
0.000162971
0.000167095
0.000169761
0.000171025
0.000170927
0.000169413
0.000166717
0.000163269
0.000159502
0.000155793
0.000152434
0.000149627
0.000147557
0.00014617
0.000145438
0.000145257
0.000145455
0.000145822
0.000146169
0.000146369
0.000157189
0.000157161
0.000157109
0.000157051
0.000157034
0.000157155
0.000157574
0.000158521
0.000160243
0.000162921
0.000166524
0.000170714
0.000174938
0.000178856
0.000182711
0.000186801
0.000190447
0.000192841
0.000193779
0.000193527
0.000192305
0.000190345
0.000187874
0.000185127
0.000182358
0.000179704
0.000177381
0.000175557
0.000174317
0.000173624
0.000173338
0.000173276
0.000162099
0.000162097
0.000162115
0.000162191
0.000162389
0.000162812
0.000163612
0.000164982
0.000167112
0.000170109
0.000173923
0.000178355
0.000183181
0.000188327
0.000193939
0.000200047
0.000205931
0.000210727
0.000214407
0.000217292
0.00021944
0.000220844
0.000221461
0.000221263
0.000220274
0.000218609
0.000216458
0.000214106
0.000211899
0.000210157
0.000209057
0.000208585
0.000165027
0.000165036
0.000165088
0.000165231
0.000165541
0.000166124
0.00016712
0.000168687
0.000170974
0.000174061
0.000177922
0.000182425
0.000187423
0.000192831
0.0001986
0.000204525
0.000209822
0.000213876
0.000217096
0.000220013
0.000222793
0.000225421
0.000227779
0.000229709
0.000231059
0.000231727
0.0002317
0.000231077
0.000230082
0.000229027
0.000228208
0.000227795
0.000166885
0.0001669
0.000166964
0.000167129
0.000167471
0.000168095
0.000169127
0.000170706
0.000172953
0.000175932
0.000179623
0.000183919
0.000188677
0.000193763
0.000199011
0.000204113
0.000208312
0.000211256
0.000213612
0.000215994
0.000218637
0.000221542
0.000224566
0.00022748
0.000230041
0.000232061
0.000233446
0.000234202
0.000234431
0.000234314
0.000234075
0.000233907
0.000168189
0.000168201
0.000168257
0.000168408
0.000168728
0.000169315
0.000170283
0.000171756
0.000173833
0.000176566
0.000179936
0.000183846
0.000188161
0.000192729
0.000197362
0.000201764
0.000205292
0.000207754
0.000209801
0.000212016
0.000214673
0.000217834
0.000221385
0.000225065
0.000228525
0.000231453
0.000233658
0.000235103
0.000235881
0.00023617
0.000236187
0.000236131
0.000169312
0.000169309
0.000169332
0.000169433
0.000169683
0.000170176
0.00017102
0.00017232
0.000174162
0.000176586
0.000179572
0.000183039
0.000186871
0.000190935
0.000195076
0.000199068
0.000202406
0.000204935
0.000207126
0.00020945
0.000212174
0.000215415
0.000219148
0.000223188
0.000227201
0.000230813
0.000233715
0.000235758
0.000236974
0.000237534
0.000237685
0.00023767
0.000170619
0.000170582
0.000170537
0.00017054
0.000170669
0.000171021
0.000171701
0.000172805
0.000174404
0.000176528
0.000179161
0.000182242
0.000185681
0.00018938
0.000193229
0.000197091
0.000200569
0.000203441
0.000205971
0.000208522
0.000211334
0.000214555
0.000218234
0.000222282
0.000226456
0.000230412
0.000233783
0.000236308
0.000237921
0.000238742
0.000239018
0.000239036
0.000172491
0.000172396
0.000172242
0.000172098
0.00017206
0.00017224
0.00017275
0.000173681
0.000175094
0.00017701
0.000179413
0.000182255
0.00018547
0.000188986
0.000192734
0.000196647
0.000200391
0.000203631
0.00020647
0.000209199
0.000212035
0.000215145
0.000218621
0.000222447
0.000226476
0.000230445
0.000234011
0.000236849
0.000238781
0.000239841
0.000240243
0.000240295
0.000175285
0.000175109
0.000174812
0.000174494
0.000174285
0.00017432
0.00017472
0.000175575
0.000176931
0.000178791
0.000181131
0.000183904
0.000187051
0.000190517
0.000194254
0.000198244
0.000202177
0.000205628
0.000208605
0.00021136
0.000214094
0.000216976
0.000220122
0.000223569
0.00022725
0.000230983
0.000234489
0.000237441
0.000239581
0.000240841
0.000241366
0.000241456
0.000179283
0.000179007
0.000178566
0.000178116
0.000177823
0.000177838
0.000178278
0.000179219
0.000180677
0.000182626
0.000185025
0.000187819
0.000190951
0.000194371
0.000198046
0.00020198
0.000205885
0.000209299
0.000212192
0.000214793
0.000217288
0.000219833
0.000222552
0.000225509
0.000228699
0.000232018
0.000235261
0.000238135
0.000240352
0.000241751
0.000242386
0.000242519
0.000184668
0.000184293
0.000183772
0.000183333
0.000183159
0.00018337
0.000184045
0.000185225
0.000186881
0.000188963
0.000191416
0.000194183
0.000197213
0.000200462
0.000203905
0.000207562
0.000211172
0.0002143
0.000216909
0.000219204
0.00022135
0.000223484
0.000225719
0.000228129
0.000230743
0.000233526
0.000236348
0.000238977
0.000241129
0.000242584
0.000243305
0.000243482
0.000191559
0.000191121
0.000190676
0.000190497
0.0001907
0.000191313
0.000192349
0.000193797
0.000195601
0.000197709
0.000200075
0.000202651
0.000205397
0.000208282
0.00021129
0.000214446
0.000217532
0.000220181
0.000222364
0.000224254
0.000225988
0.000227677
0.000229414
0.00023127
0.000233287
0.00023547
0.000237761
0.000240003
0.000241951
0.000243364
0.000244128
0.000244345
0.000200086
0.000199685
0.000199569
0.000199906
0.000200641
0.00020169
0.000203013
0.000204575
0.000206332
0.000208257
0.000210323
0.000212502
0.000214771
0.000217112
0.000219518
0.00022201
0.000224427
0.000226485
0.000228168
0.000229607
0.000230909
0.000232156
0.000233419
0.000234753
0.000236201
0.000237785
0.000239493
0.000241244
0.000242861
0.00024412
0.000244864
0.000245108
0.000210483
0.000210319
0.000210772
0.000211662
0.000212779
0.000214018
0.000215345
0.000216741
0.000218197
0.000219713
0.000221283
0.000222899
0.000224552
0.000226235
0.000227944
0.000229698
0.000231386
0.000232818
0.000233981
0.000234968
0.00023585
0.000236685
0.000237519
0.000238391
0.000239332
0.000240367
0.000241503
0.000242712
0.000243896
0.00024489
0.000245534
0.000245774
0.000223183
0.000223478
0.00022436
0.000225364
0.00022638
0.000227376
0.000228345
0.000229295
0.000230236
0.000231181
0.000232137
0.000233105
0.000234084
0.00023507
0.000236066
0.000237081
0.000238053
0.000238875
0.000239541
0.000240103
0.000240601
0.000241068
0.00024153
0.000242008
0.000242521
0.000243083
0.000243706
0.000244386
0.000245084
0.000245713
0.000246161
0.000246354
0.000238716
0.000238952
0.000239409
0.000239847
0.000240256
0.000240636
0.00024099
0.000241323
0.000241645
0.000241962
0.000242278
0.000242595
0.000242914
0.000243234
0.000243555
0.000243882
0.000244194
0.000244458
0.000244671
0.00024485
0.000245008
0.000245156
0.000245301
0.000245451
0.00024561
0.000245784
0.000245976
0.000246188
0.000246411
0.000246621
0.000246783
0.000246862
)
;


// ************************************************************************* //
