/*--------------------------------*- C++ -*----------------------------------*\
| =========                 |                                                 |
| \\      /  F ield         | OpenFOAM: The Open Source CFD Toolbox           |
|  \\    /   O peration     | Version:  2212                                  |
|   \\  /    A nd           | Website:  www.openfoam.com                      |
|    \\/     M anipulation  |                                                 |
\*---------------------------------------------------------------------------*/
FoamFile
{
    version     2.0;
    format      ascii;
    arch        "LSB;label=64;scalar=64";
    class       volScalarField;
    location    "780";
    object      Gco2;
}
// * * * * * * * * * * * * * * * * * * * * * * * * * * * * * * * * * * * * * //

dimensions      [1 -3 0 0 0 0 0];

internalField   nonuniform List<scalar> 
1024
(
0.0595176
0.0595052
0.059475
0.0594208
0.0593363
0.0592171
0.0590628
0.0588785
0.0586737
0.0584597
0.058245
0.0580356
0.0578395
0.0576743
0.0575784
0.0576206
0.0578288
0.0581185
0.0584256
0.0587299
0.0590235
0.0593046
0.0595725
0.0598239
0.0600529
0.0602516
0.0604136
0.0605366
0.060623
0.060678
0.0607085
0.060721
0.0595156
0.0595029
0.059472
0.0594165
0.0593299
0.0592083
0.0590515
0.0588653
0.0586594
0.0584451
0.0582301
0.0580203
0.0578229
0.0576558
0.0575579
0.0576004
0.0578108
0.0581021
0.0584104
0.0587153
0.0590092
0.0592903
0.0595583
0.0598102
0.0600405
0.060241
0.0604053
0.0605305
0.0606187
0.0606749
0.0607061
0.0607189
0.0595112
0.059498
0.0594656
0.0594074
0.059317
0.0591907
0.0590295
0.05884
0.0586324
0.0584174
0.0582017
0.0579896
0.0577875
0.0576131
0.0575084
0.0575513
0.0577684
0.0580656
0.0583778
0.0586851
0.0589802
0.0592619
0.0595302
0.0597831
0.0600156
0.0602197
0.0603883
0.0605178
0.0606094
0.0606681
0.0607006
0.0607139
0.0595044
0.0594903
0.0594559
0.059394
0.0592985
0.0591663
0.0589997
0.0588065
0.0585971
0.0583811
0.058163
0.0579448
0.0577311
0.05754
0.0574195
0.0574625
0.0576942
0.0580047
0.0583263
0.0586396
0.0589381
0.0592213
0.0594905
0.0597449
0.0599804
0.0601891
0.0603635
0.0604989
0.0605953
0.0606572
0.0606915
0.0607056
0.0594958
0.0594808
0.0594441
0.0593783
0.0592775
0.0591395
0.0589679
0.0587716
0.0585607
0.058343
0.0581196
0.0578889
0.0576527
0.0574302
0.0572807
0.0573224
0.0575793
0.0579149
0.0582549
0.0585803
0.0588861
0.0591731
0.0594442
0.0597004
0.059939
0.0601528
0.0603336
0.0604754
0.0605772
0.0606428
0.0606792
0.060694
0.0594871
0.0594713
0.0594328
0.0593639
0.059259
0.0591169
0.0589424
0.0587446
0.058533
0.0583122
0.0580791
0.0578271
0.0575537
0.0572802
0.0570837
0.0571204
0.0574152
0.0577919
0.0581633
0.0585102
0.0588294
0.0591239
0.0593987
0.0596571
0.0598985
0.0601166
0.060303
0.0604506
0.0605573
0.0606264
0.0606647
0.0606803
0.0594813
0.0594651
0.0594257
0.0593556
0.0592495
0.0591068
0.0589327
0.0587363
0.0585251
0.0582999
0.0580521
0.0577681
0.0574398
0.057091
0.0568255
0.0568504
0.0571954
0.0576326
0.0580524
0.0584336
0.058775
0.0590823
0.0593634
0.0596246
0.0598677
0.0600881
0.0602777
0.060429
0.0605391
0.0606105
0.0606501
0.0606662
0.0594828
0.0594666
0.0594275
0.0593589
0.0592556
0.0591171
0.0589485
0.0587575
0.0585489
0.0583189
0.0580519
0.0577251
0.057322
0.0568694
0.0565088
0.0565115
0.0569177
0.0574373
0.0579254
0.0583565
0.058731
0.0590579
0.0593486
0.0596129
0.0598561
0.0600757
0.0602648
0.0604162
0.0605266
0.0605986
0.0606386
0.0606548
0.0594969
0.0594809
0.0594437
0.0593793
0.0592832
0.0591548
0.0589977
0.0588177
0.0586159
0.0583826
0.0580936
0.0577136
0.0572133
0.0566232
0.0561383
0.0561074
0.0565855
0.0572108
0.0577895
0.0582876
0.0587073
0.0590611
0.0593645
0.0596319
0.0598723
0.0600868
0.0602705
0.0604174
0.0605246
0.0605946
0.0606338
0.0606499
0.0595303
0.0595149
0.0594804
0.0594225
0.0593377
0.059225
0.0590862
0.058924
0.058735
0.0585022
0.0581897
0.0577447
0.0571194
0.0563512
0.0557107
0.0556395
0.0562052
0.0569625
0.0576555
0.0582385
0.0587152
0.0591024
0.0594207
0.0596896
0.0599235
0.0601275
0.0603
0.0604372
0.0605374
0.0606032
0.0606406
0.0606562
0.0595914
0.0595767
0.0595453
0.0594952
0.0594242
0.0593313
0.0592165
0.0590787
0.0589086
0.0586796
0.0583397
0.0578113
0.0570215
0.0560264
0.055203
0.0550986
0.0557786
0.0566993
0.057533
0.0582203
0.0587662
0.0591924
0.0595259
0.059793
0.0600148
0.060202
0.0603575
0.0604801
0.0605699
0.0606296
0.0606644
0.0606794
0.0596877
0.0596744
0.059647
0.059605
0.0595481
0.0594761
0.0593875
0.0592768
0.059127
0.0588979
0.058515
0.057867
0.0568545
0.05558
0.054563
0.0544541
0.0552868
0.0564062
0.0574125
0.0582303
0.058863
0.059337
0.0596866
0.059948
0.0601511
0.0603148
0.0604474
0.0605513
0.0606282
0.0606808
0.0607125
0.0607269
0.0598023
0.0597946
0.0597774
0.0597491
0.0597089
0.0596563
0.0595886
0.0594956
0.0593503
0.0590943
0.0586222
0.0577841
0.0564744
0.0548878
0.0537044
0.0536403
0.0546539
0.0559952
0.0572121
0.0582072
0.058969
0.0595196
0.0598992
0.0601566
0.0603371
0.0604717
0.0605768
0.0606593
0.0607222
0.0607671
0.0607956
0.060809
0.0597624
0.0597713
0.0597846
0.0597954
0.0597949
0.0597741
0.0597224
0.0596207
0.0594299
0.0590728
0.058418
0.0572927
0.0556286
0.0537581
0.0524943
0.0525112
0.0536525
0.0551724
0.0566297
0.0578921
0.0588966
0.0596257
0.0601051
0.0603959
0.0605678
0.0606765
0.0607547
0.0608163
0.0608641
0.0608976
0.0609176
0.0609261
0.0589329
0.0589636
0.0590219
0.0590968
0.0591689
0.0592118
0.0591927
0.0590698
0.0587834
0.0582408
0.0573132
0.0558624
0.053896
0.0519054
0.0506941
0.0506859
0.0516584
0.0531164
0.0547426
0.0563562
0.0578023
0.0589713
0.0598202
0.0603828
0.0607191
0.0609006
0.0609809
0.0609956
0.0609688
0.0609217
0.0608753
0.0608472
0.0564929
0.0565243
0.0565885
0.0566792
0.0567774
0.0568484
0.05684
0.056683
0.0562935
0.0555699
0.0544062
0.0527466
0.0507289
0.0488817
0.0476844
0.0471149
0.0471561
0.0478287
0.0490271
0.0505593
0.0522329
0.0538815
0.0553748
0.0566239
0.0575446
0.0581628
0.0584899
0.0585718
0.0584855
0.0583235
0.05817
0.0580816
0.0533266
0.0533395
0.0533637
0.0533911
0.0534004
0.0533486
0.0531633
0.0527424
0.0519744
0.0507789
0.0491689
0.0472958
0.0454071
0.0436569
0.0419385
0.04012
0.038502
0.0374412
0.037026
0.0371384
0.0376805
0.0385503
0.0396464
0.0408657
0.0420945
0.0432729
0.0443054
0.0451167
0.0456694
0.0459784
0.0461071
0.0461352
0.0511415
0.0511428
0.0511358
0.0511035
0.0510172
0.050831
0.0504769
0.0498683
0.04892
0.0475843
0.0458837
0.0439079
0.0417582
0.0394692
0.0369773
0.0342697
0.0316661
0.0295462
0.0279206
0.0266456
0.0256956
0.0250744
0.024801
0.0248877
0.025325
0.0260617
0.0270138
0.0280551
0.0290323
0.029804
0.0302918
0.0305009
0.049836
0.049832
0.0498099
0.0497476
0.0496113
0.0493538
0.0489131
0.0482177
0.0472014
0.0458279
0.0441099
0.0421061
0.039884
0.0374823
0.0349241
0.0323006
0.0299597
0.0281716
0.0267522
0.0254655
0.0242383
0.0230776
0.0220352
0.0211813
0.0205834
0.0202862
0.0202965
0.0205701
0.0210083
0.0214738
0.0218351
0.0220175
0.0490065
0.0490001
0.0489725
0.0489002
0.0487493
0.0484737
0.0480169
0.0473169
0.0463196
0.0449958
0.043355
0.0414455
0.0393316
0.0370745
0.0347479
0.0324897
0.0306346
0.0293366
0.0282982
0.0272472
0.0260803
0.0247967
0.0234604
0.0221724
0.0210405
0.0201471
0.0195342
0.0191991
0.0190971
0.0191476
0.0192523
0.0193264
0.0484243
0.0484192
0.0483948
0.0483285
0.0481876
0.0479286
0.0475
0.0468475
0.0459259
0.0447121
0.0432153
0.0414782
0.0395624
0.0375354
0.0354814
0.0335325
0.0319732
0.0308865
0.029983
0.029005
0.0278313
0.0264349
0.0248656
0.0232394
0.0217107
0.0204168
0.0194421
0.0188034
0.0184595
0.0183311
0.018323
0.0183476
0.0479234
0.0479251
0.0479151
0.0478713
0.0477613
0.0475435
0.0471703
0.046594
0.0457771
0.0447014
0.0433758
0.0418364
0.0401354
0.0383319
0.0364964
0.0347282
0.0332514
0.0321337
0.0311657
0.0301386
0.028935
0.0275029
0.0258532
0.0240684
0.0222955
0.0206999
0.0194179
0.0185154
0.0179782
0.0177302
0.0176634
0.0176696
0.047342
0.0473587
0.0473788
0.0473781
0.0473217
0.0471663
0.0468657
0.0463769
0.0456684
0.0447263
0.0435577
0.0421904
0.0406641
0.0390233
0.0373169
0.035606
0.0340663
0.0327956
0.0316766
0.0305486
0.0293058
0.0278823
0.0262564
0.0244684
0.0226245
0.0208772
0.0193886
0.0182732
0.0175607
0.0171979
0.017076
0.017068
0.0465114
0.0465535
0.0466221
0.0466865
0.046704
0.0466247
0.0463995
0.0459874
0.0453617
0.0445127
0.043447
0.0421862
0.0407602
0.0392009
0.0375395
0.0358057
0.0341478
0.0327137
0.0314574
0.0302503
0.0289962
0.0276217
0.0260855
0.0243956
0.0226158
0.0208627
0.0192879
0.0180348
0.0171817
0.0167136
0.0165361
0.0165128
0.0452733
0.0453515
0.0454833
0.0456243
0.0457174
0.0457027
0.0455264
0.0451483
0.0445484
0.0437245
0.0426877
0.0414587
0.0400636
0.0385273
0.0368707
0.0351029
0.0333607
0.0318329
0.0305153
0.0292966
0.0280874
0.0268135
0.0254231
0.0239001
0.0222742
0.0206254
0.0190774
0.0177741
0.0168289
0.0162729
0.0160411
0.0160009
0.0435035
0.0436254
0.0438209
0.0440206
0.0441506
0.0441449
0.0439513
0.0435356
0.042891
0.0420282
0.040966
0.0397285
0.0383409
0.0368253
0.035197
0.0334536
0.031724
0.0302123
0.0289317
0.0277809
0.0266775
0.025552
0.0243506
0.0230437
0.0216349
0.0201687
0.0187369
0.0174678
0.0164892
0.0158719
0.0155913
0.0155324
0.0411206
0.0412863
0.0415174
0.0417117
0.0417895
0.041697
0.041399
0.0408782
0.0401464
0.0392256
0.0381401
0.0369146
0.0355729
0.0341335
0.0326078
0.0309875
0.0293884
0.0280036
0.0268488
0.0258332
0.0248838
0.02394
0.0229524
0.0218874
0.0207324
0.0195034
0.0182573
0.0170967
0.0161469
0.0155045
0.0151861
0.0151078
0.0380723
0.038266
0.0384629
0.0385423
0.0384532
0.0381827
0.0377255
0.0370861
0.0362891
0.0353567
0.0343102
0.0331699
0.0319541
0.0306763
0.0293437
0.0279457
0.0265787
0.0254058
0.0244394
0.023603
0.022836
0.0220889
0.0213209
0.0205008
0.0196098
0.0186454
0.0176338
0.0166441
0.0157841
0.0151607
0.0148235
0.0147276
0.0343014
0.0344784
0.0345297
0.0343809
0.0340564
0.0335931
0.0330087
0.0323187
0.0315424
0.0306913
0.0297777
0.0288133
0.0278089
0.0267722
0.0257067
0.0246025
0.0235322
0.0226205
0.0218757
0.0212386
0.0206629
0.0201114
0.0195531
0.0189632
0.0183237
0.017624
0.0168696
0.0160968
0.015383
0.014827
0.0144987
0.0143913
0.0297038
0.0297759
0.0295758
0.0291825
0.0286887
0.0281411
0.0275548
0.026938
0.0262947
0.0256248
0.0249304
0.0242153
0.0234837
0.0227388
0.0219818
0.0212048
0.020457
0.019823
0.0193079
0.018871
0.0184807
0.0181116
0.0177428
0.0173573
0.0169414
0.0164846
0.015983
0.0154491
0.0149263
0.0144875
0.0142037
0.0140975
0.0240882
0.0239575
0.0235677
0.0231239
0.0226745
0.0222345
0.0218059
0.0213863
0.0209706
0.0205527
0.02013
0.0197019
0.019269
0.018832
0.0183912
0.0179417
0.017511
0.0171468
0.016852
0.0166034
0.016383
0.0161765
0.0159723
0.0157609
0.0155343
0.0152858
0.0150107
0.0147105
0.0144024
0.0141248
0.0139271
0.0138422
0.0172205
0.0171158
0.0169139
0.01672
0.0165394
0.0163714
0.0162151
0.0160676
0.0159255
0.0157855
0.0156457
0.0155054
0.0153644
0.0152228
0.0150804
0.0149357
0.0147974
0.0146807
0.0145863
0.0145069
0.0144369
0.0143716
0.0143074
0.0142414
0.014171
0.0140942
0.0140091
0.0139156
0.0138173
0.0137246
0.013653
0.0136181
)
;

boundaryField
{
    movingWall
    {
        type            fixedValue;
        value           uniform 0.0135;
    }
    fixedWalls
    {
        type            zeroGradient;
    }
    floor
    {
        type            zeroGradient;
    }
    frontAndBack
    {
        type            empty;
    }
}


// ************************************************************************* //
