/*--------------------------------*- C++ -*----------------------------------*\
| =========                 |                                                 |
| \\      /  F ield         | OpenFOAM: The Open Source CFD Toolbox           |
|  \\    /   O peration     | Version:  2212                                  |
|   \\  /    A nd           | Website:  www.openfoam.com                      |
|    \\/     M anipulation  |                                                 |
\*---------------------------------------------------------------------------*/
FoamFile
{
    version     2.0;
    format      ascii;
    arch        "LSB;label=64;scalar=64";
    class       surfaceScalarField;
    location    "780";
    object      phi;
}
// * * * * * * * * * * * * * * * * * * * * * * * * * * * * * * * * * * * * * //

dimensions      [0 3 -1 0 0 0 0];

oriented        oriented;

internalField   nonuniform List<scalar> 
1984
(
4.57209e-10
-4.5744e-10
-8.13128e-09
8.58831e-09
-2.86768e-08
2.05457e-08
-5.73895e-08
2.87128e-08
-9.01892e-08
3.27997e-08
-1.259e-07
3.57105e-08
-1.65496e-07
3.95965e-08
-2.09771e-07
4.42747e-08
-2.57636e-07
4.78651e-08
-3.05171e-07
4.75353e-08
-3.44425e-07
3.92534e-08
-3.60931e-07
1.65057e-08
-3.30548e-07
-3.03824e-08
-2.28454e-07
-1.02094e-07
-6.16407e-08
-1.66813e-07
9.22314e-08
-1.53872e-07
1.74126e-07
-8.1895e-08
2.07857e-07
-3.37312e-08
2.16583e-07
-8.72584e-09
2.13326e-07
3.25709e-09
2.03541e-07
9.78543e-09
1.89533e-07
1.40074e-08
1.72397e-07
1.7136e-08
1.52829e-07
1.95679e-08
1.31304e-07
2.15254e-08
1.07821e-07
2.34837e-08
8.21247e-08
2.56959e-08
5.49007e-08
2.72241e-08
2.90499e-08
2.58508e-08
9.53626e-09
1.95136e-08
4.69725e-10
9.06647e-09
4.699e-10
-1.02169e-08
9.75926e-09
-4.97496e-08
4.81213e-08
-1.20865e-07
9.16609e-08
-2.15712e-07
1.2356e-07
-3.2474e-07
1.41828e-07
-4.43265e-07
1.54235e-07
-5.70777e-07
1.67109e-07
-7.06167e-07
1.79665e-07
-8.43496e-07
1.85194e-07
-9.69289e-07
1.73329e-07
-1.05982e-06
1.29784e-07
-1.07717e-06
3.38593e-08
-9.63746e-07
-1.43811e-07
-6.64787e-07
-4.01053e-07
-1.87143e-07
-6.44458e-07
2.70562e-07
-6.11577e-07
5.23933e-07
-3.35266e-07
6.37486e-07
-1.47284e-07
6.76489e-07
-4.77288e-08
6.76275e-07
3.47057e-09
6.53374e-07
3.26856e-08
6.14993e-07
5.23882e-08
5.6461e-07
6.75197e-08
5.04387e-07
7.97895e-08
4.3583e-07
9.00822e-08
3.5963e-07
9.96842e-08
2.76629e-07
1.08696e-07
1.90461e-07
1.13392e-07
1.09785e-07
1.06527e-07
4.66736e-08
8.26249e-08
1.01683e-08
4.55721e-08
1.06382e-08
-3.05817e-08
4.03412e-08
-1.19903e-07
1.37442e-07
-2.61946e-07
2.33704e-07
-4.42172e-07
3.03786e-07
-6.45804e-07
3.45459e-07
-8.63525e-07
3.71956e-07
-1.09011e-06
3.93696e-07
-1.31889e-06
4.08446e-07
-1.53648e-06
4.02778e-07
-1.71901e-06
3.55858e-07
-1.82859e-06
2.39367e-07
-1.80813e-06
1.33973e-08
-1.58064e-06
-3.713e-07
-1.08078e-06
-9.00909e-07
-3.08008e-07
-1.41723e-06
4.50639e-07
-1.37022e-06
8.90387e-07
-7.75015e-07
1.10386e-06
-3.60758e-07
1.19245e-06
-1.36314e-07
1.20967e-06
-1.37511e-08
1.18282e-06
5.95371e-08
1.12503e-06
1.10174e-07
1.04228e-06
1.50272e-07
9.38286e-07
1.83783e-07
8.15881e-07
2.12488e-07
6.77386e-07
2.3818e-07
5.2624e-07
2.59842e-07
3.7007e-07
2.69561e-07
2.22947e-07
2.5365e-07
1.03242e-07
2.0233e-07
2.67065e-08
1.22108e-07
3.73448e-08
-5.80172e-08
9.83583e-08
-2.1326e-07
2.92685e-07
-4.45181e-07
4.65625e-07
-7.2761e-07
5.86215e-07
-1.0382e-06
6.56045e-07
-1.36135e-06
6.95111e-07
-1.68496e-06
7.17301e-07
-1.99475e-06
7.18245e-07
-2.26933e-06
6.77353e-07
-2.47613e-06
5.6266e-07
-2.56741e-06
3.30646e-07
-2.47202e-06
-8.19896e-08
-2.10865e-06
-7.34669e-07
-1.4184e-06
-1.59116e-06
-3.98483e-07
-2.43715e-06
6.16053e-07
-2.38476e-06
1.23916e-06
-1.39812e-06
1.56636e-06
-6.87957e-07
1.72344e-06
-2.93393e-07
1.77588e-06
-6.61924e-08
1.75922e-06
7.61988e-08
1.69219e-06
1.77204e-07
1.58311e-06
2.5935e-07
1.43711e-06
3.29783e-07
1.25855e-06
3.91046e-07
1.05219e-06
4.44545e-07
8.25007e-07
4.87022e-07
5.8905e-07
5.05518e-07
3.6367e-07
4.7903e-07
1.74501e-07
3.91499e-07
4.73923e-08
2.49217e-07
8.47372e-08
-8.78998e-08
1.86258e-07
-3.14601e-07
5.19387e-07
-6.43018e-07
7.94042e-07
-1.03243e-06
9.75628e-07
-1.44989e-06
1.0735e-06
-1.87137e-06
1.1166e-06
-2.27686e-06
1.12279e-06
-2.64461e-06
1.08599e-06
-2.94655e-06
9.79295e-07
-3.14434e-06
7.60448e-07
-3.18459e-06
3.70894e-07
-2.99298e-06
-2.73602e-07
-2.4935e-06
-1.23414e-06
-1.6367e-06
-2.44796e-06
-4.3724e-07
-3.63662e-06
7.57872e-07
-3.57987e-06
1.54097e-06
-2.18123e-06
1.9821e-06
-1.12908e-06
2.21779e-06
-5.2909e-07
2.32046e-06
-1.68857e-07
2.32982e-06
6.68338e-08
2.26709e-06
2.39935e-07
2.14231e-06
3.8413e-07
1.96139e-06
5.10705e-07
1.73004e-06
6.22396e-07
1.45575e-06
7.18834e-07
1.14953e-06
7.93247e-07
8.28339e-07
8.26706e-07
5.17759e-07
7.89609e-07
2.52299e-07
6.56959e-07
6.97979e-08
4.31718e-07
1.54535e-07
-1.1146e-07
2.97719e-07
-3.96999e-07
8.04925e-07
-8.08443e-07
1.20548e-06
-1.29197e-06
1.45915e-06
-1.802e-06
1.58353e-06
-2.30392e-06
1.61852e-06
-2.76937e-06
1.58824e-06
-3.17039e-06
1.48701e-06
-3.47478e-06
1.28369e-06
-3.64188e-06
9.27555e-07
-3.61754e-06
3.46548e-07
-3.33287e-06
-5.58268e-07
-2.71541e-06
-1.8516e-06
-1.7215e-06
-3.44188e-06
-4.08821e-07
-4.94929e-06
8.85974e-07
-4.87467e-06
1.78885e-06
-3.0841e-06
2.3256e-06
-1.66583e-06
2.63306e-06
-8.36547e-07
2.78856e-06
-3.24357e-07
2.83353e-06
2.18596e-08
2.78678e-06
2.86685e-07
2.65824e-06
5.12671e-07
2.45303e-06
7.1591e-07
2.17734e-06
8.98088e-07
1.84096e-06
1.05522e-06
1.45906e-06
1.17514e-06
1.05455e-06
1.23122e-06
6.6097e-07
1.18319e-06
3.22996e-07
9.94933e-07
8.96666e-08
6.65048e-07
2.44202e-07
-1.18831e-07
4.1655e-07
-4.30873e-07
1.11697e-06
-8.90654e-07
1.66527e-06
-1.43797e-06
2.00646e-06
-2.01468e-06
2.16024e-06
-2.57368e-06
2.17752e-06
-3.07771e-06
2.09226e-06
-3.49402e-06
1.90333e-06
-3.78902e-06
1.57868e-06
-3.92311e-06
1.06165e-06
-3.84446e-06
2.679e-07
-3.48862e-06
-9.14111e-07
-2.77629e-06
-2.56393e-06
-1.67249e-06
-4.54567e-06
-3.02345e-07
-6.31944e-06
1.02613e-06
-6.20314e-06
2.00247e-06
-4.06044e-06
2.60167e-06
-2.26504e-06
2.95572e-06
-1.1906e-06
3.14761e-06
-5.16242e-07
3.22174e-06
-5.22757e-08
3.1938e-06
3.14628e-07
3.06909e-06
6.37384e-07
2.84968e-06
9.35313e-07
2.54036e-06
1.20741e-06
2.15209e-06
1.44349e-06
1.70419e-06
1.62304e-06
1.22687e-06
1.70854e-06
7.63654e-07
1.6464e-06
3.69731e-07
1.38886e-06
1.0154e-07
9.33239e-07
3.45742e-07
-1.04308e-07
5.20858e-07
-3.96658e-07
1.40932e-06
-8.52804e-07
2.12141e-06
-1.4188e-06
2.57246e-06
-2.0277e-06
2.76914e-06
-2.6187e-06
2.76852e-06
-3.14437e-06
2.61794e-06
-3.56763e-06
2.32659e-06
-3.85534e-06
1.86638e-06
-3.97066e-06
1.17697e-06
-3.86154e-06
1.58778e-07
-3.45945e-06
-1.3162e-06
-2.67035e-06
-3.35303e-06
-1.48373e-06
-5.73229e-06
-1.1207e-07
-7.69111e-06
1.20285e-06
-7.51806e-06
2.21052e-06
-5.06811e-06
2.83559e-06
-2.89011e-06
3.2022e-06
-1.5572e-06
3.39926e-06
-7.13305e-07
3.47904e-06
-1.32052e-07
3.45778e-06
3.35885e-07
3.33418e-06
7.60984e-07
3.10465e-06
1.16485e-06
2.77008e-06
1.54198e-06
2.34105e-06
1.87252e-06
1.84099e-06
2.1231e-06
1.30893e-06
2.2406e-06
7.99981e-07
2.15535e-06
3.78437e-07
1.8104e-06
1.01107e-07
1.21057e-06
4.46849e-07
-6.86879e-08
5.89546e-07
-2.90299e-07
1.63093e-06
-6.78327e-07
2.50944e-06
-1.20383e-06
3.09797e-06
-1.80133e-06
3.36663e-06
-2.39725e-06
3.36445e-06
-2.9312e-06
3.15188e-06
-3.35947e-06
2.75486e-06
-3.64852e-06
2.15544e-06
-3.76412e-06
1.29257e-06
-3.64491e-06
3.95705e-08
-3.21298e-06
-1.74813e-06
-2.36291e-06
-4.20309e-06
-1.13507e-06
-6.96013e-06
1.75335e-07
-9.00151e-06
1.4188e-06
-8.76153e-06
2.41982e-06
-6.06913e-06
3.04094e-06
-3.51124e-06
3.39202e-06
-1.90827e-06
3.56457e-06
-8.85856e-07
3.62023e-06
-1.8771e-07
3.58153e-06
3.74584e-07
3.44451e-06
8.97995e-07
3.19921e-06
1.41015e-06
2.84107e-06
1.90012e-06
2.37916e-06
2.33444e-06
1.84152e-06
2.66074e-06
1.2778e-06
2.80432e-06
7.55199e-07
2.67795e-06
3.42677e-07
2.22292e-06
8.7091e-08
1.46616e-06
5.3394e-07
-1.89504e-08
6.08496e-07
-1.23364e-07
1.73534e-06
-3.68671e-07
2.75475e-06
-7.74616e-07
3.50391e-06
-1.29894e-06
3.89095e-06
-1.86282e-06
3.92833e-06
-2.38966e-06
3.67872e-06
-2.82125e-06
3.18645e-06
-3.11586e-06
2.45005e-06
-3.23671e-06
1.41342e-06
-3.12109e-06
-7.60566e-08
-2.66921e-06
-2.20001e-06
-1.78897e-06
-5.08333e-06
-6.10356e-07
-8.13875e-06
5.46982e-07
-1.01588e-05
1.65011e-06
-9.86465e-06
2.58694e-06
-7.00596e-06
3.18049e-06
-4.10479e-06
3.50488e-06
-2.23267e-06
3.64048e-06
-1.02145e-06
3.65448e-06
-2.01709e-07
3.57723e-06
4.5183e-07
3.40803e-06
1.0672e-06
3.13351e-06
1.68467e-06
2.7452e-06
2.28842e-06
2.25221e-06
2.82743e-06
1.68992e-06
3.22303e-06
1.12126e-06
3.37298e-06
6.24068e-07
3.17514e-06
2.62869e-07
2.58412e-06
6.09058e-08
1.66812e-06
5.94845e-07
3.59722e-08
5.72524e-07
7.76975e-08
1.69362e-06
4.43472e-08
2.7881e-06
-1.34316e-07
3.68258e-06
-4.74297e-07
4.23093e-06
-9.2929e-07
4.38332e-06
-1.41653e-06
4.16596e-06
-1.84692e-06
3.61684e-06
-2.14802e-06
2.75115e-06
-2.27735e-06
1.54275e-06
-2.16288e-06
-1.90521e-07
-1.70353e-06
-2.65936e-06
-8.63815e-07
-5.92305e-06
1.03189e-07
-9.10575e-06
9.69436e-07
-1.10251e-05
1.81172e-06
-1.07069e-05
2.58746e-06
-7.7817e-06
3.12659e-06
-4.64392e-06
3.43431e-06
-2.54038e-06
3.54996e-06
-1.1371e-06
3.5339e-06
-1.85652e-07
3.41746e-06
5.68272e-07
3.20541e-06
1.27925e-06
2.88656e-06
2.00351e-06
2.45506e-06
2.71992e-06
1.92752e-06
3.35498e-06
1.35438e-06
3.79616e-06
8.17309e-07
3.91005e-06
3.98146e-07
3.59431e-06
1.39925e-07
2.84234e-06
2.46969e-08
1.78335e-06
6.19542e-07
8.67469e-08
4.85777e-07
2.80024e-07
1.50034e-06
4.95854e-07
2.57227e-06
6.37729e-07
3.5407e-06
6.27383e-07
4.24128e-06
4.4531e-07
4.56539e-06
1.36596e-07
4.47468e-06
-2.12016e-07
3.96546e-06
-5.0205e-07
3.04118e-06
-6.40985e-07
1.68169e-06
-5.42211e-07
-2.89294e-07
-1.11782e-07
-3.08979e-06
4.4336e-07
-6.47819e-06
9.75684e-07
-9.63808e-06
1.3578e-06
-1.14072e-05
1.71117e-06
-1.10603e-05
2.16597e-06
-8.2365e-06
2.60594e-06
-5.08389e-06
2.9264e-06
-2.86084e-06
3.07796e-06
-1.28866e-06
3.08278e-06
-1.90475e-07
2.95564e-06
6.95407e-07
2.70265e-06
1.53224e-06
2.32514e-06
2.38102e-06
1.83636e-06
3.2087e-06
1.27775e-06
3.91358e-06
7.28975e-07
4.34494e-06
3.04323e-07
4.3347e-06
5.79835e-08
3.84065e-06
-2.75691e-08
2.92789e-06
-2.14124e-08
1.77719e-06
5.9813e-07
1.23308e-07
3.62469e-07
4.47969e-07
1.17568e-06
9.0671e-07
2.11353e-06
1.39526e-06
3.05215e-06
1.80494e-06
3.8316e-06
2.06098e-06
4.30935e-06
2.14517e-06
4.39049e-06
2.0885e-06
4.02212e-06
1.95872e-06
3.17096e-06
1.85543e-06
1.78498e-06
1.85307e-06
-2.86935e-07
1.96479e-06
-3.20151e-06
2.05307e-06
-6.56648e-06
1.91975e-06
-9.50475e-06
1.48013e-06
-1.09676e-05
9.56906e-07
-1.05371e-05
8.43376e-07
-8.12297e-06
1.09505e-06
-5.33556e-06
1.4563e-06
-3.22208e-06
1.73628e-06
-1.56864e-06
1.85427e-06
-3.08468e-07
1.75105e-06
7.98632e-07
1.4434e-06
1.83989e-06
9.84836e-07
2.83959e-06
4.6152e-07
3.73202e-06
-1.81417e-08
4.39324e-06
-3.55791e-07
4.68259e-06
-4.79636e-07
4.45855e-06
-4.12467e-07
3.77348e-06
-2.43412e-07
2.75884e-06
-7.77587e-08
1.61154e-06
5.20371e-07
1.37178e-07
2.25291e-07
5.36617e-07
7.76239e-07
1.17064e-06
1.47951e-06
1.95574e-06
2.26704e-06
2.77472e-06
3.01263e-06
3.51486e-06
3.56921e-06
4.09851e-06
3.80684e-06
4.49519e-06
3.62545e-06
4.71837e-06
2.94777e-06
4.79999e-06
1.70337e-06
4.68214e-06
-1.69086e-07
4.40923e-06
-2.92861e-06
3.78005e-06
-5.9373e-06
2.55574e-06
-8.28044e-06
7.08193e-07
-9.12005e-06
-1.1721e-06
-8.65678e-06
-2.15716e-06
-7.13791e-06
-2.30623e-06
-5.18649e-06
-1.99778e-06
-3.53053e-06
-1.59635e-06
-1.97008e-06
-1.40083e-06
-5.0399e-07
-1.45564e-06
8.53445e-07
-1.6688e-06
2.05305e-06
-1.93235e-06
3.10314e-06
-2.12368e-06
3.92334e-06
-2.1366e-06
4.40617e-06
-1.91138e-06
4.45738e-06
-1.49826e-06
4.04542e-06
-9.85087e-07
3.26031e-06
-4.93179e-07
2.26693e-06
-1.38483e-07
1.25684e-06
3.81888e-07
1.18279e-07
1.07012e-07
5.01735e-07
3.92782e-07
1.17381e-06
8.07429e-07
2.09654e-06
1.34431e-06
3.17263e-06
1.93655e-06
4.27518e-06
2.46665e-06
5.28469e-06
2.79732e-06
6.11378e-06
2.79636e-06
6.71393e-06
2.34762e-06
7.06587e-06
1.35143e-06
7.14172e-06
-2.44935e-07
6.35167e-06
-2.13855e-06
4.64078e-06
-4.22641e-06
1.65379e-06
-5.29345e-06
-2.28902e-06
-5.17723e-06
-5.83257e-06
-5.11324e-06
-8.00773e-06
-4.96275e-06
-8.92541e-06
-4.26881e-06
-9.02886e-06
-3.42709e-06
-8.65479e-06
-2.34414e-06
-8.10893e-06
-1.04985e-06
-7.56062e-06
3.05138e-07
-6.97106e-06
1.46349e-06
-6.32379e-06
2.45587e-06
-5.52945e-06
3.129e-06
-4.58773e-06
3.46445e-06
-3.53636e-06
3.406e-06
-2.46129e-06
2.97035e-06
-1.47085e-06
2.26987e-06
-6.79676e-07
1.47575e-06
-1.7681e-07
7.53976e-07
2.05078e-07
8.56375e-08
2.13742e-08
3.747e-07
1.0372e-07
9.19947e-07
2.62182e-07
1.74116e-06
5.231e-07
2.79621e-06
8.81495e-07
3.98894e-06
1.27393e-06
5.20977e-06
1.5765e-06
6.36336e-06
1.64276e-06
7.32173e-06
1.38926e-06
7.79289e-06
8.8026e-07
7.23199e-06
3.15968e-07
5.23666e-06
-1.43222e-07
1.28874e-06
-2.78482e-07
-4.14044e-06
1.35727e-07
-9.74695e-06
4.2928e-07
-1.45067e-05
-3.5345e-07
-1.78684e-05
-1.60111e-06
-1.95664e-05
-2.57082e-06
-1.99728e-05
-3.02071e-06
-1.93607e-05
-2.95622e-06
-1.79009e-05
-2.50958e-06
-1.57997e-05
-1.79613e-06
-1.34062e-05
-9.30018e-07
-1.09414e-05
-8.88426e-09
-8.44155e-06
6.2914e-07
-6.10524e-06
1.12814e-06
-4.07448e-06
1.37524e-06
-2.45036e-06
1.34623e-06
-1.26879e-06
1.08831e-06
-5.08344e-07
7.15307e-07
-1.1228e-07
3.57913e-07
9.27976e-08
-3.79678e-08
5.93416e-08
-1.26733e-07
1.92485e-07
-2.4033e-07
3.75779e-07
-3.53409e-07
6.36178e-07
-4.65369e-07
9.93455e-07
-6.28836e-07
1.43739e-06
-9.6117e-07
1.90883e-06
-1.63684e-06
2.31843e-06
-2.86389e-06
2.6163e-06
-4.8349e-06
2.85127e-06
-7.62357e-06
3.10464e-06
-1.11033e-05
3.33656e-06
-1.48152e-05
3.43338e-06
-1.81341e-05
3.45462e-06
-2.08525e-05
3.14767e-06
-2.3407e-05
2.20109e-06
-2.52843e-05
2.76183e-07
-2.6239e-05
-1.6161e-06
-2.63593e-05
-2.90048e-06
-2.56109e-05
-3.70461e-06
-2.40039e-05
-4.11661e-06
-2.15813e-05
-4.21875e-06
-1.8448e-05
-4.06326e-06
-1.4776e-05
-3.68088e-06
-1.10538e-05
-3.09312e-06
-7.54867e-06
-2.37695e-06
-4.56431e-06
-1.60912e-06
-2.3326e-06
-8.85484e-07
-9.30628e-07
-3.13664e-07
-2.37446e-07
2.21257e-08
-1.48076e-08
1.35274e-07
7.799e-08
-6.28402e-08
1.22182e-07
-2.60881e-07
3.90526e-07
-6.01987e-07
7.16884e-07
-1.07358e-06
1.10778e-06
-1.65072e-06
1.57059e-06
-2.31694e-06
2.10362e-06
-3.09244e-06
2.68433e-06
-4.04524e-06
3.27123e-06
-5.25824e-06
3.82931e-06
-6.75909e-06
4.35212e-06
-8.4925e-06
4.83804e-06
-1.04065e-05
5.25057e-06
-1.25016e-05
5.52845e-06
-1.4643e-05
5.59604e-06
-1.67718e-05
5.27647e-06
-1.88602e-05
4.2895e-06
-2.04921e-05
1.90813e-06
-2.13539e-05
-7.5431e-07
-2.1631e-05
-2.62339e-06
-2.13732e-05
-3.96243e-06
-2.05651e-05
-4.92475e-06
-1.91816e-05
-5.60226e-06
-1.72305e-05
-6.01433e-06
-1.47762e-05
-6.13513e-06
-1.19408e-05
-5.92856e-06
-8.94118e-06
-5.37655e-06
-6.05207e-06
-4.49823e-06
-3.56559e-06
-3.37196e-06
-1.72181e-06
-2.15745e-06
-6.13791e-07
-1.08589e-06
-1.13377e-07
-3.6514e-07
-3.53871e-08
-5.05221e-08
1.72704e-07
-2.05313e-07
5.45317e-07
-4.73197e-07
9.84769e-07
-8.53496e-07
1.48807e-06
-1.33511e-06
2.0522e-06
-1.90353e-06
2.67204e-06
-2.55216e-06
3.33296e-06
-3.28889e-06
4.00795e-06
-4.12686e-06
4.66728e-06
-5.06347e-06
5.28873e-06
-6.07759e-06
5.85216e-06
-7.15131e-06
6.32429e-06
-8.27676e-06
6.65389e-06
-9.43569e-06
6.75497e-06
-1.0621e-05
6.4618e-06
-1.18417e-05
5.51022e-06
-1.29427e-05
3.00908e-06
-1.36558e-05
-4.119e-08
-1.40748e-05
-2.20436e-06
-1.4282e-05
-3.75529e-06
-1.42481e-05
-4.9586e-06
-1.39005e-05
-5.94984e-06
-1.31676e-05
-6.74729e-06
-1.20091e-05
-7.29365e-06
-1.04315e-05
-7.50608e-06
-8.50982e-06
-7.29829e-06
-6.38433e-06
-6.62372e-06
-4.25747e-06
-5.49882e-06
-2.37807e-06
-4.03685e-06
-9.90652e-07
-2.47331e-06
-2.20526e-07
-1.13527e-06
-2.55913e-07
-2.33013e-08
1.96005e-07
-1.03512e-07
6.25527e-07
-2.5384e-07
1.1351e-06
-4.80309e-07
1.71454e-06
-7.79306e-07
2.3512e-06
-1.13909e-06
3.03183e-06
-1.54585e-06
3.73972e-06
-1.98872e-06
4.45083e-06
-2.45847e-06
5.13703e-06
-2.94268e-06
5.77294e-06
-3.42559e-06
6.33507e-06
-3.89366e-06
6.79236e-06
-4.33892e-06
7.09916e-06
-4.76076e-06
7.17682e-06
-5.16938e-06
6.87042e-06
-5.57723e-06
5.91807e-06
-6.00061e-06
3.43245e-06
-6.50722e-06
4.6542e-07
-6.99355e-06
-1.71803e-06
-7.47946e-06
-3.26938e-06
-7.95184e-06
-4.48623e-06
-8.33357e-06
-5.56811e-06
-8.51647e-06
-6.56439e-06
-8.4016e-06
-7.40852e-06
-7.89637e-06
-8.01131e-06
-6.96716e-06
-8.22749e-06
-5.6525e-06
-7.93838e-06
-4.08032e-06
-7.071e-06
-2.46991e-06
-5.64726e-06
-1.11164e-06
-3.83158e-06
-2.65864e-07
-1.98104e-06
-5.21777e-07
-2.00948e-09
1.98015e-07
-2.05595e-08
6.44077e-07
-7.09238e-08
1.18546e-06
-1.65215e-07
1.80883e-06
-3.06701e-07
2.49268e-06
-4.85997e-07
3.21113e-06
-6.85182e-07
3.93891e-06
-8.84077e-07
4.64972e-06
-1.06344e-06
5.31639e-06
-1.2055e-06
5.915e-06
-1.29503e-06
6.42459e-06
-1.32163e-06
6.81896e-06
-1.28514e-06
7.06266e-06
-1.19568e-06
7.08736e-06
-1.07815e-06
6.7529e-06
-9.57399e-07
5.79732e-06
-9.11029e-07
3.38608e-06
-1.16262e-06
7.17007e-07
-1.62586e-06
-1.25479e-06
-2.20484e-06
-2.69039e-06
-2.87694e-06
-3.81413e-06
-3.60192e-06
-4.84313e-06
-4.29047e-06
-5.87583e-06
-4.85221e-06
-6.84678e-06
-5.1343e-06
-7.72922e-06
-5.02744e-06
-8.33435e-06
-4.47791e-06
-8.48791e-06
-3.52648e-06
-8.02242e-06
-2.32238e-06
-6.85136e-06
-1.13406e-06
-5.01991e-06
-2.91916e-07
-2.82318e-06
-8.13693e-07
7.49101e-09
1.90524e-07
1.94777e-08
6.3209e-07
2.41016e-08
1.18084e-06
1.07579e-08
1.82218e-06
-2.42397e-08
2.52768e-06
-7.23798e-08
3.25927e-06
-1.14397e-07
3.98093e-06
-1.2573e-07
4.66106e-06
-8.29496e-08
5.27361e-06
3.21549e-08
5.7999e-06
2.34262e-07
6.22248e-06
5.24073e-07
6.52915e-06
8.92439e-07
6.69429e-06
1.31963e-06
6.66017e-06
1.77098e-06
6.30155e-06
2.20152e-06
5.36677e-06
2.43545e-06
3.15216e-06
2.31031e-06
8.4214e-07
1.89755e-06
-8.42027e-07
1.31683e-06
-2.10967e-06
6.25256e-07
-3.12255e-06
-1.63847e-07
-4.05403e-06
-1.01889e-06
-5.02079e-06
-1.88317e-06
-5.9825e-06
-2.62483e-06
-6.98757e-06
-3.10449e-06
-7.85469e-06
-3.1821e-06
-8.4103e-06
-2.80899e-06
-8.39553e-06
-2.04371e-06
-7.61664e-06
-1.09362e-06
-5.96999e-06
-3.04916e-07
-3.61189e-06
-1.11861e-06
7.08669e-09
1.83437e-07
2.18813e-08
6.17295e-07
3.90381e-08
1.16368e-06
5.626e-08
1.80496e-06
7.77839e-08
2.50616e-06
1.15154e-07
3.2219e-06
1.88887e-07
3.90719e-06
3.24532e-07
4.52541e-06
5.44023e-07
5.05412e-06
8.60461e-07
5.48346e-06
1.27453e-06
5.80842e-06
1.77998e-06
6.0237e-06
2.36107e-06
6.1132e-06
2.99082e-06
6.03041e-06
3.62499e-06
5.66739e-06
4.19204e-06
4.79972e-06
4.47441e-06
2.86979e-06
4.38775e-06
9.28796e-07
4.01718e-06
-4.71457e-07
3.46233e-06
-1.55482e-06
2.80274e-06
-2.46297e-06
2.06945e-06
-3.32074e-06
1.24663e-06
-4.19797e-06
3.64173e-07
-5.10004e-06
-5.47516e-07
-6.07588e-06
-1.37875e-06
-7.02345e-06
-1.92064e-06
-7.86841e-06
-2.04413e-06
-8.27204e-06
-1.70387e-06
-7.9569e-06
-1.02169e-06
-6.65218e-06
-3.1536e-07
-4.31822e-06
-1.43397e-06
-1.87822e-09
1.85315e-07
-8.12194e-09
6.23539e-07
-1.27108e-08
1.16827e-06
-1.81174e-09
1.79406e-06
4.08906e-08
2.46345e-06
1.33051e-07
3.12974e-06
2.94282e-07
3.74596e-06
5.47153e-07
4.27254e-06
9.0517e-07
4.69611e-06
1.3697e-06
5.01893e-06
1.93208e-06
5.24604e-06
2.5773e-06
5.37848e-06
3.28441e-06
5.40609e-06
4.02283e-06
5.292e-06
4.74313e-06
4.94709e-06
5.35823e-06
4.18462e-06
5.66103e-06
2.56699e-06
5.61413e-06
9.75693e-07
5.30579e-06
-1.63112e-07
4.81647e-06
-1.0655e-06
4.20489e-06
-1.85139e-06
3.5053e-06
-2.62115e-06
2.73544e-06
-3.42811e-06
1.92051e-06
-4.28511e-06
1.03431e-06
-5.18968e-06
1.1133e-07
-6.10047e-06
-7.37849e-07
-7.01923e-06
-1.27195e-06
-7.73794e-06
-1.33095e-06
-7.8979e-06
-9.32773e-07
-7.05035e-06
-3.31134e-07
-4.91986e-06
-1.7651e-06
-2.03105e-08
2.05625e-07
-7.01966e-08
6.73425e-07
-1.23559e-07
1.22163e-06
-1.43467e-07
1.81396e-06
-9.63453e-08
2.41633e-06
3.83945e-08
2.995e-06
2.72751e-07
3.51161e-06
6.22234e-07
3.92306e-06
1.08806e-06
4.23028e-06
1.65841e-06
4.44858e-06
2.31648e-06
4.58797e-06
3.04288e-06
4.65208e-06
3.8149e-06
4.63407e-06
4.60183e-06
4.50506e-06
5.35428e-06
4.19464e-06
5.98394e-06
3.55496e-06
6.30998e-06
2.24095e-06
6.32347e-06
9.62208e-07
6.10523e-06
5.51258e-08
5.71527e-06
-6.75539e-07
5.19852e-06
-1.33464e-06
4.57846e-06
-2.00109e-06
3.86792e-06
-2.71757e-06
3.07909e-06
-3.49628e-06
2.21847e-06
-4.32906e-06
1.30929e-06
-5.19129e-06
3.5352e-07
-6.06347e-06
-4.81257e-07
-6.90316e-06
-9.20114e-07
-7.45905e-06
-8.24218e-07
-7.14625e-06
-3.5453e-07
-5.38954e-06
-2.11963e-06
-5.31733e-08
2.58798e-07
-1.69559e-07
7.89811e-07
-2.86589e-07
1.33866e-06
-3.40711e-07
1.86809e-06
-2.89396e-07
2.36502e-06
-1.13615e-07
2.81921e-06
1.90545e-07
3.20745e-06
6.24391e-07
3.48921e-06
1.17287e-06
3.68181e-06
1.81443e-06
3.80702e-06
2.52872e-06
3.87368e-06
3.29612e-06
3.88468e-06
4.09552e-06
3.83467e-06
4.89914e-06
3.70144e-06
5.66202e-06
3.43176e-06
6.30382e-06
2.91317e-06
6.66812e-06
1.87664e-06
6.75708e-06
8.73253e-07
6.64264e-06
1.6956e-07
6.37083e-06
-4.03727e-07
5.97359e-06
-9.37396e-07
5.46017e-06
-1.48767e-06
4.83165e-06
-2.08905e-06
4.08994e-06
-2.75457e-06
3.24235e-06
-3.48147e-06
2.30875e-06
-4.25768e-06
1.31825e-06
-5.07297e-06
3.2794e-07
-5.91285e-06
-4.4452e-07
-6.68659e-06
-6.78122e-07
-6.91265e-06
-3.79326e-07
-5.68834e-06
-2.49896e-06
-1.1013e-07
3.68928e-07
-3.13728e-07
9.93409e-07
-4.9105e-07
1.51598e-06
-5.59957e-07
1.93699e-06
-4.83127e-07
2.28819e-06
-2.54129e-07
2.59022e-06
1.24125e-07
2.82919e-06
6.3538e-07
2.97796e-06
1.24735e-06
3.06984e-06
1.93634e-06
3.11803e-06
2.68329e-06
3.12672e-06
3.47111e-06
3.09686e-06
4.28202e-06
3.02376e-06
5.09244e-06
2.89102e-06
5.86381e-06
2.6604e-06
6.5262e-06
2.25077e-06
6.93936e-06
1.46349e-06
7.10319e-06
7.09423e-07
7.08797e-06
1.84778e-07
6.93039e-06
-2.46148e-07
6.64733e-06
-6.54337e-07
6.23887e-06
-1.0792e-06
5.69782e-06
-1.548e-06
5.01735e-06
-2.0741e-06
4.19764e-06
-2.66177e-06
3.25258e-06
-3.31262e-06
2.21242e-06
-4.03281e-06
1.13258e-06
-4.83302e-06
1.328e-07
-5.6868e-06
-4.59573e-07
-6.32027e-06
-3.87076e-07
-5.76084e-06
-2.88603e-06
-2.00863e-07
5.69791e-07
-4.95824e-07
1.28837e-06
-6.97171e-07
1.71733e-06
-7.31692e-07
1.97151e-06
-5.87373e-07
2.14387e-06
-2.7647e-07
2.27931e-06
1.90443e-07
2.36228e-06
7.75324e-07
2.39307e-06
1.44032e-06
2.40485e-06
2.16635e-06
2.392e-06
2.93752e-06
2.35556e-06
3.73942e-06
2.29496e-06
4.55691e-06
2.20626e-06
5.36964e-06
2.07829e-06
6.14444e-06
1.88559e-06
6.82032e-06
1.57489e-06
7.26829e-06
1.01551e-06
7.4863e-06
4.91414e-07
7.5425e-06
1.28582e-07
7.46654e-06
-1.70192e-07
7.26694e-06
-4.54736e-07
6.94068e-06
-7.52948e-07
6.47743e-06
-1.08474e-06
5.86498e-06
-1.46165e-06
5.09519e-06
-1.89198e-06
4.17038e-06
-2.38781e-06
3.10918e-06
-2.97162e-06
1.95486e-06
-3.6787e-06
8.01865e-07
-4.53381e-06
-1.10298e-07
-5.40811e-06
-3.45945e-07
-5.52519e-06
-3.23198e-06
-3.19927e-07
8.89718e-07
-6.66616e-07
1.63506e-06
-7.97694e-07
1.84841e-06
-7.06866e-07
1.88069e-06
-4.28147e-07
1.86515e-06
1.55797e-08
1.83559e-06
5.89324e-07
1.78853e-06
1.24162e-06
1.74078e-06
1.95436e-06
1.6921e-06
2.71069e-06
1.63568e-06
3.49615e-06
1.57009e-06
4.2975e-06
1.49361e-06
5.10055e-06
1.40321e-06
5.88671e-06
1.29214e-06
6.62711e-06
1.14519e-06
7.26949e-06
9.32513e-07
7.70158e-06
5.83422e-07
7.9255e-06
2.675e-07
8.0049e-06
4.91753e-08
7.96468e-06
-1.29963e-07
7.81076e-06
-3.00823e-07
7.54056e-06
-4.82749e-07
7.14377e-06
-6.87947e-07
6.60628e-06
-9.24153e-07
5.91383e-06
-1.19954e-06
5.05574e-06
-1.52972e-06
4.03011e-06
-1.94598e-06
2.85406e-06
-2.50264e-06
1.58928e-06
-3.26903e-06
4.14239e-07
-4.23306e-06
-2.12513e-07
-4.89844e-06
-3.44449e-06
-4.41372e-07
1.33109e-06
-6.71555e-07
1.86524e-06
-5.33687e-07
1.71054e-06
-1.68988e-07
1.51599e-06
3.36147e-07
1.36001e-06
9.38875e-07
1.23286e-06
1.60362e-06
1.12379e-06
2.31021e-06
1.03419e-06
3.04445e-06
9.57861e-07
3.79254e-06
8.87588e-07
4.54224e-06
8.20392e-07
5.28198e-06
7.53863e-07
5.99965e-06
6.85544e-07
6.68024e-06
6.11546e-07
7.30144e-06
5.23988e-07
7.82421e-06
4.09746e-07
8.16623e-06
2.41401e-07
8.33832e-06
9.54133e-08
8.39298e-06
-5.48545e-09
8.35087e-06
-8.78527e-08
8.21778e-06
-1.67737e-07
7.99092e-06
-2.55891e-07
7.66072e-06
-3.57746e-07
7.21357e-06
-4.76996e-07
6.633e-06
-6.18965e-07
5.89945e-06
-7.96181e-07
4.99014e-06
-1.03667e-06
3.8829e-06
-1.3954e-06
2.57735e-06
-1.96348e-06
1.1805e-06
-2.83622e-06
1.12827e-07
-3.83077e-06
-3.33167e-06
-3.7689e-07
1.70798e-06
1.91563e-08
1.4692e-06
7.3422e-07
9.95476e-07
1.45661e-06
7.93601e-07
2.16926e-06
6.47365e-07
2.8753e-06
5.26816e-07
3.56474e-06
4.34348e-07
4.23344e-06
3.65489e-07
4.87846e-06
3.1284e-07
5.49532e-06
2.70732e-07
6.07973e-06
2.35979e-07
6.62745e-06
2.06147e-07
7.13374e-06
1.79249e-07
7.59204e-06
1.53243e-07
7.99089e-06
1.25144e-07
8.3092e-06
9.14352e-08
8.50346e-06
4.71443e-08
8.58853e-06
1.03379e-08
8.59804e-06
-1.49924e-08
8.5459e-06
-3.57138e-08
8.43563e-06
-5.74674e-08
8.26286e-06
-8.31263e-08
8.01907e-06
-1.13953e-07
7.69299e-06
-1.50913e-07
7.27008e-06
-1.96055e-07
6.72917e-06
-2.5527e-07
6.03605e-06
-3.43543e-07
5.1352e-06
-4.94559e-07
3.94651e-06
-7.74786e-07
2.40584e-06
-1.29555e-06
7.41175e-07
-2.1661e-06
-2.59049e-06
1.70798e-06
3.17718e-06
4.17265e-06
4.96625e-06
5.61362e-06
6.14043e-06
6.57478e-06
6.94027e-06
7.25311e-06
7.52384e-06
7.75982e-06
7.96597e-06
8.14522e-06
8.29846e-06
8.4236e-06
8.51504e-06
8.56218e-06
8.57252e-06
8.55753e-06
8.52182e-06
8.46435e-06
8.38122e-06
8.26727e-06
8.11636e-06
7.9203e-06
7.66503e-06
7.32149e-06
6.82693e-06
6.05214e-06
4.75659e-06
2.59049e-06
)
;

boundaryField
{
    movingWall
    {
        type            calculated;
        value           uniform 0;
    }
    fixedWalls
    {
        type            calculated;
        value           uniform 0;
    }
    floor
    {
        type            calculated;
        value           uniform 0;
    }
    frontAndBack
    {
        type            empty;
        value           nonuniform List<scalar> 0();
    }
}


// ************************************************************************* //
