/*--------------------------------*- C++ -*----------------------------------*\
| =========                 |                                                 |
| \\      /  F ield         | OpenFOAM: The Open Source CFD Toolbox           |
|  \\    /   O peration     | Version:  2212                                  |
|   \\  /    A nd           | Website:  www.openfoam.com                      |
|    \\/     M anipulation  |                                                 |
\*---------------------------------------------------------------------------*/
FoamFile
{
    version     2.0;
    format      ascii;
    arch        "LSB;label=64;scalar=64";
    class       volScalarField;
    location    "780";
    object      Xch;
}
// * * * * * * * * * * * * * * * * * * * * * * * * * * * * * * * * * * * * * //

dimensions      [1 -3 0 0 0 0 0];

internalField   nonuniform List<scalar> 
1024
(
0.0198988
0.019899
0.0198994
0.0199002
0.0199014
0.0199031
0.0199054
0.019908
0.019911
0.0199141
0.0199171
0.0199201
0.0199228
0.0199251
0.0199263
0.0199256
0.0199224
0.0199181
0.0199135
0.019909
0.0199046
0.0199004
0.0198964
0.0198926
0.0198892
0.0198862
0.0198838
0.0198819
0.0198806
0.0198798
0.0198793
0.0198792
0.0198988
0.019899
0.0198994
0.0199003
0.0199015
0.0199033
0.0199055
0.0199082
0.0199112
0.0199143
0.0199173
0.0199203
0.0199231
0.0199253
0.0199266
0.0199258
0.0199226
0.0199183
0.0199137
0.0199092
0.0199048
0.0199006
0.0198966
0.0198928
0.0198894
0.0198864
0.0198839
0.019882
0.0198807
0.0198798
0.0198794
0.0198792
0.0198989
0.0198991
0.0198995
0.0199004
0.0199017
0.0199035
0.0199059
0.0199086
0.0199116
0.0199147
0.0199177
0.0199207
0.0199236
0.0199259
0.0199273
0.0199265
0.0199232
0.0199188
0.0199141
0.0199096
0.0199052
0.019901
0.019897
0.0198932
0.0198897
0.0198867
0.0198842
0.0198822
0.0198808
0.01988
0.0198795
0.0198793
0.019899
0.0198992
0.0198997
0.0199006
0.019902
0.0199039
0.0199063
0.0199091
0.0199121
0.0199152
0.0199183
0.0199214
0.0199243
0.019927
0.0199285
0.0199277
0.0199242
0.0199196
0.0199149
0.0199102
0.0199058
0.0199016
0.0198976
0.0198938
0.0198903
0.0198871
0.0198845
0.0198825
0.019881
0.0198801
0.0198796
0.0198794
0.0198991
0.0198993
0.0198998
0.0199008
0.0199023
0.0199043
0.0199068
0.0199096
0.0199126
0.0199157
0.0199189
0.0199222
0.0199255
0.0199285
0.0199305
0.0199297
0.0199258
0.0199208
0.0199158
0.019911
0.0199065
0.0199022
0.0198982
0.0198944
0.0198909
0.0198877
0.019885
0.0198828
0.0198813
0.0198803
0.0198798
0.0198796
0.0198992
0.0198995
0.0199
0.019901
0.0199025
0.0199046
0.0199071
0.01991
0.019913
0.0199162
0.0199195
0.019923
0.0199269
0.0199306
0.0199332
0.0199325
0.0199281
0.0199225
0.019917
0.0199119
0.0199072
0.0199029
0.0198988
0.019895
0.0198914
0.0198882
0.0198854
0.0198832
0.0198816
0.0198806
0.01988
0.0198798
0.0198993
0.0198995
0.0199001
0.0199011
0.0199027
0.0199047
0.0199073
0.0199101
0.0199131
0.0199163
0.0199199
0.0199239
0.0199285
0.0199333
0.0199368
0.0199362
0.019931
0.0199246
0.0199185
0.0199129
0.0199079
0.0199034
0.0198993
0.0198954
0.0198918
0.0198886
0.0198858
0.0198835
0.0198819
0.0198808
0.0198802
0.01988
0.0198993
0.0198995
0.0199001
0.0199011
0.0199026
0.0199046
0.019907
0.0199098
0.0199128
0.0199161
0.0199199
0.0199245
0.0199301
0.0199364
0.0199413
0.0199409
0.0199348
0.0199272
0.0199201
0.0199138
0.0199084
0.0199036
0.0198994
0.0198955
0.0198919
0.0198887
0.0198859
0.0198837
0.019882
0.019881
0.0198804
0.0198801
0.0198991
0.0198993
0.0198998
0.0199008
0.0199022
0.019904
0.0199063
0.0199089
0.0199118
0.0199151
0.0199192
0.0199246
0.0199317
0.0199399
0.0199464
0.0199464
0.0199392
0.0199301
0.0199217
0.0199145
0.0199085
0.0199034
0.019899
0.0198951
0.0198916
0.0198885
0.0198858
0.0198836
0.019882
0.019881
0.0198804
0.0198802
0.0198986
0.0198988
0.0198993
0.0199002
0.0199014
0.019903
0.019905
0.0199074
0.0199101
0.0199134
0.0199179
0.0199242
0.019933
0.0199437
0.0199523
0.0199527
0.0199442
0.0199332
0.0199232
0.0199149
0.019908
0.0199025
0.019898
0.0198941
0.0198907
0.0198878
0.0198853
0.0198833
0.0198818
0.0198808
0.0198803
0.01988
0.0198977
0.0198979
0.0198984
0.0198991
0.0199001
0.0199015
0.0199031
0.0199051
0.0199076
0.0199108
0.0199157
0.0199232
0.0199343
0.0199482
0.0199593
0.01996
0.0199498
0.0199364
0.0199244
0.0199147
0.0199069
0.0199009
0.0198962
0.0198924
0.0198893
0.0198866
0.0198844
0.0198826
0.0198813
0.0198804
0.0198799
0.0198797
0.0198963
0.0198965
0.0198969
0.0198975
0.0198983
0.0198994
0.0199006
0.0199022
0.0199044
0.0199077
0.0199132
0.0199224
0.0199367
0.0199544
0.0199681
0.0199687
0.0199561
0.0199399
0.0199255
0.019914
0.0199051
0.0198984
0.0198936
0.0198899
0.0198871
0.0198848
0.0198829
0.0198815
0.0198803
0.0198796
0.0198791
0.0198789
0.0198946
0.0198947
0.019895
0.0198954
0.019896
0.0198967
0.0198977
0.0198991
0.0199011
0.0199048
0.0199116
0.0199235
0.019942
0.019964
0.0199798
0.0199795
0.0199643
0.0199449
0.0199276
0.0199136
0.019903
0.0198954
0.0198902
0.0198867
0.0198842
0.0198824
0.0198809
0.0198798
0.0198789
0.0198782
0.0198778
0.0198776
0.0198952
0.0198951
0.0198949
0.0198947
0.0198947
0.019895
0.0198958
0.0198972
0.0199
0.0199051
0.0199145
0.0199305
0.0199539
0.0199797
0.0199963
0.0199946
0.0199774
0.0199556
0.019935
0.0199174
0.0199035
0.0198935
0.0198869
0.019883
0.0198807
0.0198793
0.0198782
0.0198773
0.0198767
0.0198762
0.0198759
0.0198757
0.0199074
0.0199069
0.0199061
0.019905
0.0199039
0.0199033
0.0199035
0.0199053
0.0199094
0.0199172
0.0199304
0.0199508
0.0199782
0.0200052
0.0200207
0.0200192
0.0200044
0.0199835
0.0199606
0.0199382
0.0199182
0.0199021
0.0198905
0.0198828
0.0198783
0.0198758
0.0198747
0.0198745
0.0198748
0.0198755
0.0198761
0.0198764
0.019943
0.0199426
0.0199416
0.0199403
0.0199388
0.0199377
0.0199378
0.0199399
0.0199454
0.0199555
0.0199716
0.0199946
0.020022
0.0200466
0.0200616
0.0200681
0.0200664
0.0200564
0.0200393
0.0200178
0.0199946
0.0199718
0.0199513
0.0199341
0.0199215
0.019913
0.0199085
0.0199074
0.0199086
0.0199108
0.0199129
0.0199141
0.0199888
0.0199886
0.0199882
0.0199877
0.0199874
0.019988
0.0199903
0.0199959
0.0200062
0.0200224
0.0200442
0.0200694
0.0200947
0.0201181
0.0201409
0.0201651
0.0201865
0.0202001
0.0202049
0.0202025
0.0201944
0.020182
0.0201667
0.0201498
0.0201329
0.0201168
0.0201027
0.0200917
0.0200842
0.02008
0.0200783
0.0200779
0.0200201
0.02002
0.02002
0.0200204
0.0200214
0.0200237
0.0200282
0.0200363
0.020049
0.0200669
0.0200899
0.0201167
0.0201459
0.020177
0.0202109
0.0202476
0.0202826
0.0203105
0.0203313
0.0203473
0.0203588
0.020366
0.0203687
0.0203668
0.0203604
0.0203502
0.0203372
0.0203232
0.0203101
0.0202997
0.0202932
0.0202904
0.0200388
0.0200388
0.020039
0.0200397
0.0200414
0.0200447
0.0200505
0.0200597
0.0200733
0.0200919
0.0201152
0.0201426
0.0201731
0.0202061
0.0202413
0.0202772
0.0203089
0.0203324
0.0203502
0.0203659
0.0203805
0.0203941
0.0204062
0.0204161
0.020423
0.0204262
0.0204257
0.0204219
0.0204162
0.0204101
0.0204054
0.020403
0.0200508
0.0200508
0.0200511
0.020052
0.0200539
0.0200574
0.0200634
0.0200728
0.0200862
0.0201041
0.0201266
0.0201528
0.0201821
0.0202133
0.0202456
0.0202769
0.0203022
0.0203194
0.0203323
0.0203448
0.0203584
0.0203732
0.0203885
0.0204033
0.0204164
0.0204268
0.020434
0.0204379
0.0204392
0.0204387
0.0204374
0.0204366
0.0200593
0.0200593
0.0200596
0.0200604
0.0200622
0.0200655
0.0200712
0.0200799
0.0200923
0.0201088
0.0201294
0.0201534
0.02018
0.0202082
0.0202369
0.0202641
0.0202856
0.0203001
0.0203114
0.0203232
0.0203369
0.0203532
0.0203714
0.0203903
0.020408
0.020423
0.0204343
0.0204418
0.0204459
0.0204475
0.0204477
0.0204475
0.0200666
0.0200665
0.0200666
0.0200671
0.0200685
0.0200713
0.0200762
0.0200839
0.020095
0.0201097
0.0201279
0.0201492
0.0201728
0.020198
0.0202237
0.0202484
0.0202687
0.0202836
0.020296
0.0203085
0.0203229
0.0203398
0.0203592
0.02038
0.0204007
0.0204192
0.0204341
0.0204446
0.0204509
0.0204538
0.0204547
0.0204547
0.0200747
0.0200744
0.0200741
0.0200741
0.0200748
0.0200768
0.0200808
0.0200874
0.0200969
0.0201098
0.0201258
0.0201447
0.0201659
0.0201887
0.0202124
0.0202361
0.0202571
0.020274
0.0202883
0.0203023
0.0203174
0.0203345
0.0203537
0.0203748
0.0203964
0.0204167
0.020434
0.020447
0.0204553
0.0204595
0.020461
0.0204612
0.0200858
0.0200852
0.0200843
0.0200835
0.0200832
0.0200843
0.0200873
0.0200928
0.0201013
0.0201128
0.0201273
0.0201446
0.0201642
0.0201856
0.0202085
0.0202321
0.0202544
0.0202733
0.0202895
0.0203047
0.0203201
0.0203367
0.0203551
0.0203751
0.0203961
0.0204166
0.0204349
0.0204494
0.0204593
0.0204648
0.0204669
0.0204672
0.0201019
0.0201009
0.0200992
0.0200974
0.0200962
0.0200964
0.0200988
0.0201038
0.0201119
0.0201229
0.0201369
0.0201535
0.0201724
0.0201932
0.0202156
0.0202394
0.0202626
0.0202826
0.0202996
0.020315
0.02033
0.0203455
0.0203623
0.0203804
0.0203997
0.020419
0.0204371
0.0204522
0.0204631
0.0204696
0.0204723
0.0204728
0.0201245
0.020123
0.0201205
0.020118
0.0201163
0.0201164
0.020119
0.0201245
0.020133
0.0201444
0.0201585
0.0201749
0.0201935
0.0202137
0.0202354
0.0202586
0.0202814
0.0203011
0.0203176
0.0203322
0.020346
0.0203598
0.0203744
0.0203901
0.0204068
0.020424
0.0204408
0.0204555
0.0204668
0.020474
0.0204772
0.020478
0.0201548
0.0201527
0.0201497
0.0201473
0.0201463
0.0201475
0.0201513
0.0201581
0.0201676
0.0201796
0.0201938
0.0202099
0.0202276
0.0202466
0.0202667
0.0202881
0.0203091
0.020327
0.0203419
0.0203548
0.0203667
0.0203784
0.0203904
0.0204033
0.020417
0.0204315
0.0204461
0.0204596
0.0204706
0.020478
0.0204817
0.0204826
0.0201932
0.0201907
0.0201882
0.0201872
0.0201883
0.0201918
0.0201976
0.0202058
0.020216
0.020228
0.0202416
0.0202564
0.0202723
0.020289
0.0203065
0.0203248
0.0203426
0.0203579
0.0203703
0.020381
0.0203906
0.0203999
0.0204093
0.0204192
0.0204299
0.0204413
0.0204532
0.0204647
0.0204746
0.0204818
0.0204856
0.0204868
0.0202405
0.0202383
0.0202376
0.0202395
0.0202435
0.0202494
0.0202567
0.0202655
0.0202754
0.0202863
0.020298
0.0203105
0.0203235
0.020337
0.0203509
0.0203653
0.0203793
0.0203911
0.0204007
0.0204088
0.0204161
0.0204229
0.0204298
0.020437
0.0204446
0.0204529
0.0204618
0.0204708
0.0204791
0.0204854
0.0204892
0.0204904
0.020298
0.0202971
0.0202996
0.0203045
0.0203107
0.0203176
0.0203249
0.0203327
0.0203409
0.0203494
0.0203583
0.0203675
0.020377
0.0203866
0.0203965
0.0204066
0.0204163
0.0204245
0.0204312
0.0204367
0.0204417
0.0204463
0.0204508
0.0204555
0.0204605
0.020466
0.0204719
0.0204781
0.0204841
0.0204892
0.0204924
0.0204936
0.0203681
0.0203697
0.0203746
0.0203801
0.0203858
0.0203913
0.0203966
0.0204019
0.0204072
0.0204125
0.0204179
0.0204234
0.020429
0.0204346
0.0204403
0.0204462
0.0204518
0.0204565
0.0204603
0.0204635
0.0204663
0.0204689
0.0204714
0.020474
0.0204767
0.0204797
0.0204829
0.0204864
0.02049
0.0204932
0.0204954
0.0204964
0.0204537
0.020455
0.0204575
0.0204599
0.0204622
0.0204643
0.0204663
0.0204681
0.0204699
0.0204717
0.0204735
0.0204753
0.0204771
0.0204789
0.0204808
0.0204826
0.0204844
0.020486
0.0204872
0.0204882
0.0204891
0.0204899
0.0204907
0.0204915
0.0204923
0.0204933
0.0204943
0.0204954
0.0204965
0.0204976
0.0204984
0.0204988
)
;

boundaryField
{
    movingWall
    {
        type            fixedValue;
        value           uniform 0.0205;
    }
    fixedWalls
    {
        type            zeroGradient;
    }
    floor
    {
        type            zeroGradient;
    }
    frontAndBack
    {
        type            empty;
    }
}


// ************************************************************************* //
