/*--------------------------------*- C++ -*----------------------------------*\
| =========                 |                                                 |
| \\      /  F ield         | OpenFOAM: The Open Source CFD Toolbox           |
|  \\    /   O peration     | Version:  2212                                  |
|   \\  /    A nd           | Website:  www.openfoam.com                      |
|    \\/     M anipulation  |                                                 |
\*---------------------------------------------------------------------------*/
FoamFile
{
    version     2.0;
    format      ascii;
    arch        "LSB;label=64;scalar=64";
    class       volScalarField::Internal;
    location    "1170";
    object      dGch4;
}
// * * * * * * * * * * * * * * * * * * * * * * * * * * * * * * * * * * * * * //

dimensions      [1 -3 -1 0 0 0 0];

value           nonuniform List<scalar> 
1024
(
0.000900563
0.000900916
0.000901779
0.000903338
0.000905788
0.000909281
0.000913868
0.000919444
0.000925727
0.000932291
0.000938603
0.000944069
0.000948046
0.000950009
0.000949664
0.000946791
0.000941483
0.000934657
0.000927205
0.000919388
0.000911398
0.000903452
0.000895835
0.000888874
0.000882854
0.000877941
0.000874162
0.000871427
0.000869575
0.00086842
0.000867788
0.000867531
0.000900642
0.000901002
0.000901882
0.000903474
0.000905974
0.000909531
0.000914191
0.000919838
0.000926181
0.000932791
0.000939137
0.000944621
0.000948589
0.000950523
0.000950145
0.000947244
0.000941916
0.000935077
0.000927616
0.000919794
0.000911798
0.000903837
0.000896191
0.000889186
0.000883112
0.000878142
0.000874311
0.000871534
0.000869653
0.00086848
0.000867839
0.000867578
0.00090083
0.000901203
0.000902116
0.00090377
0.000906366
0.000910052
0.000914863
0.000920667
0.000927166
0.000933926
0.000940404
0.000945975
0.000949939
0.000951791
0.000951304
0.000948296
0.000942883
0.000935982
0.00092848
0.000920635
0.000912622
0.000904633
0.000896935
0.000889845
0.000883662
0.000878575
0.000874637
0.000871773
0.00086983
0.000868619
0.000867958
0.000867689
0.000901154
0.000901543
0.000902502
0.000904242
0.000906974
0.00091085
0.000915895
0.000921971
0.000928771
0.000935854
0.000942644
0.000948435
0.000952425
0.000954118
0.000953388
0.000950126
0.000944493
0.000937423
0.000929808
0.000921897
0.000913847
0.000905819
0.00089805
0.000890844
0.000884506
0.000879249
0.000875151
0.000872157
0.000870121
0.000868852
0.00086816
0.000867879
0.000901635
0.000902042
0.000903052
0.000904893
0.000907794
0.000911916
0.000917292
0.000923787
0.000931094
0.000938756
0.000946124
0.000952336
0.000956407
0.000957843
0.000956679
0.000952933
0.000946858
0.000939434
0.000931571
0.000923512
0.000915381
0.000907295
0.000899445
0.000892108
0.000885591
0.000880128
0.000875834
0.000872678
0.000870524
0.000869181
0.000868449
0.000868152
0.000902289
0.000902714
0.000903775
0.000905726
0.00090882
0.000913245
0.000919062
0.000926159
0.000934244
0.000942822
0.000951105
0.000957984
0.000962215
0.000963287
0.00096145
0.000956916
0.000950083
0.000942025
0.000933701
0.000925349
0.000917056
0.000908877
0.00090094
0.000893477
0.000886783
0.000881114
0.000876616
0.000873288
0.000871008
0.000869585
0.000868809
0.000868496
0.000903137
0.000903577
0.000904687
0.00090675
0.000910057
0.000914845
0.000921231
0.000929155
0.000938342
0.000948227
0.000957797
0.00096559
0.00097006
0.000970665
0.0009679
0.000962229
0.000954242
0.000945173
0.000936079
0.000927217
0.000918629
0.000910294
0.000902259
0.000894693
0.000887863
0.000882029
0.000877365
0.000873893
0.000871505
0.000870012
0.0008692
0.000868872
0.000904213
0.000904666
0.000905823
0.000908002
0.000911545
0.000916767
0.00092387
0.000932875
0.000943525
0.000955125
0.000966332
0.000975234
0.000979982
0.000980017
0.000976089
0.000968943
0.000959369
0.000948824
0.000938553
0.000928878
0.000919798
0.000911206
0.000903051
0.000895421
0.000888532
0.000882628
0.000877887
0.000874346
0.000871906
0.000870378
0.000869546
0.00086921
0.000905585
0.000906051
0.000907259
0.000909567
0.000913386
0.00091913
0.000927123
0.000937489
0.000949972
0.000963668
0.000976783
0.000986885
0.000991868
0.000991221
0.000985962
0.000977083
0.000965514
0.000952963
0.000940999
0.000930101
0.000920253
0.000911252
0.000902937
0.000895294
0.000888459
0.000882631
0.00087796
0.000874475
0.000872074
0.00087057
0.000869749
0.000869416
0.000907376
0.00090786
0.000909134
0.000911604
0.000915766
0.000922156
0.000931248
0.000943281
0.000957961
0.000974074
0.000989249
0.0010005
0.00100558
0.00100416
0.00099754
0.000986861
0.000973001
0.000957883
0.000943574
0.000930882
0.000919852
0.000910197
0.000901634
0.00089402
0.000887376
0.000881805
0.000877393
0.000874128
0.000871889
0.000870489
0.000869725
0.000869414
0.000909788
0.000910303
0.000911673
0.000914369
0.000918986
0.000926206
0.000936666
0.000950711
0.000967944
0.000986704
0.00100395
0.00101619
0.00102119
0.00101904
0.00101136
0.000999191
0.000983055
0.000964895
0.00094745
0.000932088
0.000919143
0.000908336
0.00089927
0.000891635
0.000885273
0.000880132
0.000876174
0.000873309
0.000871383
0.000870201
0.000869569
0.000869318
0.000913127
0.000913689
0.000915208
0.000918234
0.000923485
0.000931801
0.000943986
0.000960444
0.000980562
0.00100209
0.00102128
0.0010343
0.00103925
0.00103688
0.00102905
0.00101648
0.000998884
0.00097779
0.000956449
0.000937087
0.000920847
0.000907762
0.000897396
0.000889285
0.000883032
0.000878337
0.000874964
0.000872692
0.000871294
0.000870537
0.000870201
0.000870099
0.000917801
0.000918438
0.000920181
0.00092369
0.000929828
0.000939605
0.000953961
0.000973272
0.000996558
0.00102086
0.00104179
0.00105558
0.00106108
0.00105985
0.00105389
0.00104332
0.00102671
0.00100453
0.00097994
0.000955808
0.000934301
0.000916555
0.00090269
0.000892418
0.000885141
0.000880309
0.000877396
0.000875917
0.000875426
0.000875506
0.000875796
0.000876024
0.000924301
0.000925044
0.000927106
0.00093129
0.000938636
0.000950321
0.000967356
0.000989937
0.00101654
0.00104351
0.00106612
0.00108115
0.00108868
0.00109107
0.00109025
0.00108577
0.00107521
0.00105737
0.00103415
0.00100826
0.000982334
0.000958496
0.0009381
0.000922217
0.000910611
0.000903158
0.00089927
0.000897998
0.00089834
0.000899408
0.000900502
0.000901161
0.000933146
0.000934041
0.000936543
0.000941642
0.000950573
0.000964649
0.000984819
0.00101088
0.00104062
0.00106987
0.00109418
0.00111147
0.00112303
0.0011317
0.0011392
0.00114518
0.00114723
0.00114265
0.00113115
0.00111411
0.00109324
0.00107043
0.0010476
0.00102655
0.00100821
0.000993781
0.000983764
0.000977851
0.000975186
0.000974626
0.00097503
0.000975506
0.000944062
0.000945109
0.000948019
0.000953908
0.000964122
0.000979983
0.00100225
0.00103038
0.00106191
0.00109291
0.00111962
0.00114054
0.00115713
0.00117203
0.00118701
0.00120262
0.00121786
0.00123035
0.00123833
0.00124138
0.00123931
0.00123231
0.00122097
0.00120623
0.00118949
0.00117234
0.00115638
0.00114305
0.00113328
0.00112719
0.00112413
0.0011231
0.000953798
0.000954892
0.000957869
0.000963809
0.000974003
0.000989687
0.00101153
0.00103903
0.00107008
0.00110135
0.00112943
0.00115255
0.00117119
0.00118716
0.00120205
0.00121707
0.00123308
0.00125048
0.00126851
0.00128599
0.00130144
0.00131359
0.00132145
0.00132452
0.00132277
0.00131681
0.00130788
0.00129778
0.00128838
0.0012811
0.00127658
0.00127464
0.000959822
0.000960868
0.000963637
0.000969059
0.000978275
0.000992415
0.00101217
0.00103724
0.00106602
0.00109577
0.0011234
0.00114667
0.00116495
0.00117889
0.00118951
0.001198
0.00120637
0.00121796
0.00123396
0.00125354
0.0012749
0.00129605
0.00131523
0.00133107
0.00134272
0.00134992
0.00135295
0.00135268
0.00135035
0.0013474
0.001345
0.00134375
0.00096264
0.000963589
0.000966029
0.000970715
0.0009786
0.000990681
0.00100767
0.00102953
0.00105515
0.00108234
0.00110839
0.00113095
0.00114872
0.00116149
0.00116976
0.00117459
0.00117834
0.00118557
0.00119874
0.0012179
0.00124164
0.00126774
0.00129363
0.00131698
0.00133615
0.00135036
0.0013597
0.00136485
0.00136687
0.00136701
0.00136641
0.00136591
0.000963519
0.000964335
0.000966393
0.000970291
0.000976799
0.000986763
0.00100087
0.00101926
0.00104126
0.00106521
0.00108888
0.0011101
0.00112736
0.00114004
0.0011483
0.00115308
0.00115664
0.0011631
0.00117497
0.00119303
0.00121682
0.00124488
0.00127482
0.00130379
0.00132915
0.00134922
0.00136343
0.00137221
0.00137671
0.00137834
0.0013785
0.00137826
0.000963694
0.00096433
0.000965946
0.000969033
0.000974221
0.000982214
0.000993621
0.00100868
0.00102699
0.00104735
0.00106806
0.00108735
0.00110391
0.0011171
0.00112698
0.00113435
0.00114103
0.00114978
0.00116245
0.00118013
0.00120311
0.00123083
0.0012617
0.00129322
0.0013225
0.00134711
0.00136565
0.00137795
0.00138487
0.00138788
0.00138863
0.00138854
0.000964576
0.000964947
0.000965989
0.000968147
0.00097199
0.000978135
0.000987106
0.00099914
0.00101399
0.00103083
0.00104845
0.00106565
0.00108155
0.00109579
0.00110845
0.00112021
0.00113193
0.00114468
0.0011595
0.00117765
0.00119987
0.0012263
0.00125615
0.0012877
0.00131844
0.00134573
0.00136749
0.0013828
0.00139202
0.00139644
0.00139782
0.00139788
0.000968032
0.000968001
0.000968209
0.000969128
0.000971375
0.000975584
0.000982245
0.000991569
0.0010034
0.0010172
0.00103226
0.00104795
0.00106393
0.0010801
0.00109654
0.00111362
0.00113101
0.00114807
0.00116527
0.001184
0.00120538
0.00123005
0.00125785
0.00128772
0.00131783
0.00134586
0.00136949
0.0013871
0.00139836
0.00140417
0.00140622
0.00140645
0.000976385
0.000975765
0.000974773
0.000973962
0.000974119
0.000976047
0.000980332
0.000987226
0.000996674
0.00100842
0.00102217
0.00103778
0.00105521
0.00107438
0.00109517
0.00111752
0.00113992
0.00116045
0.00117934
0.00119818
0.0012183
0.0012407
0.00126572
0.00129289
0.00132095
0.00134809
0.00137214
0.00139113
0.00140403
0.00141114
0.0014139
0.00141432
0.000991988
0.000990598
0.000988066
0.000985081
0.000982694
0.000982029
0.000983947
0.00098889
0.000996966
0.00100814
0.00102236
0.0010396
0.00105973
0.00108243
0.00110719
0.00113359
0.00115928
0.00118168
0.00120108
0.00121923
0.00123757
0.00125725
0.00127895
0.00130267
0.0013277
0.00135273
0.00137591
0.00139524
0.0014092
0.00141741
0.00142087
0.00142151
0.00101665
0.00101439
0.00101026
0.00100518
0.00100045
0.000997542
0.00099771
0.00100169
0.00100974
0.00102188
0.00103798
0.00105776
0.00108074
0.00110621
0.00113339
0.00116164
0.00118833
0.00121075
0.00122935
0.00124597
0.00126204
0.00127874
0.00129684
0.00131666
0.00133796
0.00135993
0.00138115
0.00139979
0.00141407
0.00142305
0.00142716
0.00142806
0.00105135
0.00104829
0.0010431
0.00103702
0.0010314
0.00102775
0.00102761
0.00103195
0.00104105
0.0010548
0.00107281
0.00109444
0.00111883
0.00114507
0.00117227
0.00119979
0.00122514
0.00124587
0.00126255
0.00127697
0.00129045
0.00130404
0.00131852
0.00133434
0.00135155
0.00136981
0.00138816
0.00140512
0.0014189
0.00142819
0.0014328
0.00143396
0.0010964
0.0010929
0.00108803
0.00108315
0.00107914
0.001077
0.0010782
0.00108374
0.00109387
0.0011084
0.00112676
0.0011481
0.00117146
0.00119588
0.00122057
0.00124502
0.00126712
0.00128485
0.00129883
0.00131062
0.00132136
0.00133191
0.00134295
0.00135492
0.00136805
0.00138228
0.00139713
0.00141155
0.00142399
0.00143297
0.00143782
0.00143922
0.00115211
0.001149
0.00114653
0.00114535
0.00114512
0.00114606
0.00114927
0.00115564
0.0011656
0.00117902
0.0011954
0.00121393
0.00123376
0.00125409
0.00127429
0.00129398
0.00131156
0.00132548
0.0013363
0.00134528
0.00135329
0.00136099
0.0013689
0.00137741
0.00138675
0.00139701
0.00140806
0.0014193
0.00142962
0.00143761
0.00144231
0.00144386
0.00121965
0.00121831
0.0012201
0.00122345
0.00122699
0.00123054
0.00123485
0.0012408
0.00124894
0.00125936
0.00127176
0.00128558
0.00130016
0.00131495
0.00132949
0.00134353
0.00135597
0.00136575
0.00137328
0.00137945
0.00138486
0.00138999
0.00139517
0.00140068
0.00140671
0.00141339
0.00142072
0.00142848
0.00143603
0.00144233
0.00144638
0.0014479
0.00130172
0.00130353
0.00130868
0.0013139
0.0013184
0.00132222
0.00132585
0.00132996
0.00133509
0.00134142
0.00134885
0.00135708
0.00136571
0.00137443
0.00138296
0.00139115
0.00139838
0.00140404
0.00140837
0.00141189
0.00141495
0.00141781
0.00142066
0.00142367
0.00142694
0.00143056
0.00143458
0.00143894
0.00144339
0.00144737
0.00145019
0.00145139
0.00140184
0.00140336
0.00140617
0.00140864
0.00141065
0.00141228
0.00141369
0.00141513
0.00141684
0.00141892
0.00142134
0.00142402
0.00142683
0.00142966
0.00143242
0.00143507
0.0014374
0.00143922
0.00144061
0.00144174
0.00144271
0.00144361
0.00144451
0.00144544
0.00144646
0.00144758
0.00144882
0.00145018
0.0014516
0.00145292
0.00145394
0.00145444
)
;


// ************************************************************************* //
