/*--------------------------------*- C++ -*----------------------------------*\
| =========                 |                                                 |
| \\      /  F ield         | OpenFOAM: The Open Source CFD Toolbox           |
|  \\    /   O peration     | Version:  2212                                  |
|   \\  /    A nd           | Website:  www.openfoam.com                      |
|    \\/     M anipulation  |                                                 |
\*---------------------------------------------------------------------------*/
FoamFile
{
    version     2.0;
    format      ascii;
    arch        "LSB;label=64;scalar=64";
    class       volScalarField;
    location    "1170";
    object      p_rgh;
}
// * * * * * * * * * * * * * * * * * * * * * * * * * * * * * * * * * * * * * //

dimensions      [0 2 -2 0 0 0 0];

internalField   nonuniform List<scalar> 
1024
(
0.0431946
0.0431924
0.0431903
0.0431903
0.0431938
0.0432021
0.0432161
0.0432371
0.0432651
0.0432967
0.0433207
0.0433254
0.0432988
0.0432407
0.0431592
0.0430624
0.0429599
0.0428684
0.0428013
0.0427589
0.0427348
0.0427222
0.0427163
0.042714
0.0427132
0.042713
0.042713
0.0427135
0.0427146
0.0427163
0.0427179
0.0427189
0.043199
0.0431968
0.0431951
0.0431957
0.0431995
0.0432077
0.0432214
0.043242
0.0432698
0.0433011
0.0433248
0.0433295
0.0433033
0.0432456
0.0431643
0.0430674
0.0429648
0.0428733
0.0428061
0.0427638
0.0427395
0.0427268
0.0427207
0.0427182
0.0427172
0.0427167
0.0427166
0.0427168
0.0427176
0.0427189
0.0427203
0.0427214
0.0432062
0.0432036
0.0432022
0.0432036
0.0432083
0.0432172
0.0432316
0.0432529
0.0432816
0.0433137
0.0433378
0.0433428
0.0433168
0.0432591
0.0431774
0.04308
0.0429767
0.0428844
0.0428167
0.0427738
0.0427492
0.042736
0.0427294
0.0427264
0.0427249
0.0427239
0.0427232
0.0427228
0.042723
0.0427238
0.0427252
0.0427266
0.0432139
0.0432109
0.0432098
0.0432124
0.0432189
0.0432299
0.0432467
0.0432704
0.0433017
0.043336
0.0433611
0.0433663
0.0433403
0.0432823
0.0432002
0.043102
0.0429976
0.0429037
0.0428343
0.0427903
0.0427646
0.0427506
0.0427432
0.0427393
0.0427369
0.0427349
0.0427331
0.0427315
0.0427307
0.042731
0.0427325
0.0427344
0.0432188
0.0432158
0.0432156
0.0432203
0.04323
0.0432449
0.043266
0.0432941
0.0433293
0.0433661
0.0433919
0.0433966
0.0433706
0.0433129
0.0432314
0.0431332
0.0430278
0.0429318
0.0428599
0.0428139
0.0427868
0.0427714
0.0427628
0.0427576
0.0427538
0.0427501
0.0427463
0.0427429
0.0427406
0.0427401
0.0427416
0.042744
0.0432173
0.0432149
0.0432164
0.0432242
0.0432387
0.0432597
0.0432873
0.0433214
0.0433609
0.0433992
0.0434243
0.0434274
0.0434013
0.0433451
0.043266
0.0431696
0.0430647
0.0429675
0.0428927
0.0428444
0.0428154
0.0427983
0.0427879
0.0427808
0.0427748
0.0427686
0.0427619
0.0427557
0.042751
0.0427492
0.0427504
0.0427531
0.0432061
0.043205
0.0432088
0.043221
0.043242
0.0432711
0.043307
0.0433481
0.0433912
0.0434296
0.0434526
0.0434526
0.0434257
0.0433719
0.0432968
0.0432043
0.0431019
0.0430052
0.0429284
0.0428785
0.0428481
0.0428292
0.0428165
0.0428068
0.0427976
0.0427877
0.0427769
0.0427666
0.0427587
0.0427548
0.0427552
0.0427579
0.0431845
0.0431848
0.0431915
0.0432088
0.0432376
0.0432763
0.0433218
0.0433704
0.0434165
0.0434542
0.0434742
0.0434702
0.0434412
0.043389
0.0433179
0.0432299
0.0431314
0.0430367
0.0429604
0.0429105
0.0428799
0.0428597
0.0428445
0.0428314
0.0428178
0.0428027
0.0427863
0.0427706
0.0427585
0.0427518
0.0427509
0.0427531
0.0431541
0.0431558
0.0431654
0.043188
0.043225
0.0432741
0.0433301
0.0433866
0.0434367
0.0434744
0.0434913
0.0434823
0.0434496
0.043397
0.0433281
0.043243
0.0431473
0.0430545
0.0429806
0.0429327
0.042904
0.0428837
0.0428663
0.0428489
0.0428295
0.0428075
0.0427839
0.0427618
0.0427449
0.0427353
0.0427326
0.0427338
0.0431183
0.0431213
0.0431336
0.043161
0.0432061
0.0432659
0.0433331
0.0433989
0.0434556
0.0434952
0.0435089
0.0434937
0.0434553
0.0434
0.0433305
0.0432457
0.0431495
0.0430557
0.0429823
0.0429386
0.0429143
0.0428953
0.0428758
0.0428535
0.0428271
0.0427968
0.0427651
0.0427366
0.0427155
0.0427036
0.0426994
0.0426995
0.0430799
0.043084
0.0430986
0.0431307
0.0431836
0.0432545
0.0433344
0.0434125
0.0434794
0.0435226
0.0435325
0.0435098
0.0434638
0.0434028
0.0433302
0.0432441
0.0431448
0.0430453
0.0429653
0.0429272
0.0429073
0.0428902
0.0428687
0.0428411
0.0428072
0.0427689
0.0427306
0.0426979
0.042675
0.0426623
0.0426572
0.0426562
0.0430393
0.0430443
0.0430614
0.0430984
0.04316
0.0432435
0.0433393
0.0434344
0.0435138
0.0435609
0.0435657
0.0435345
0.0434804
0.0434131
0.043336
0.0432467
0.043143
0.0430364
0.0429492
0.0428979
0.0428788
0.0428646
0.0428423
0.042811
0.0427722
0.0427302
0.0426908
0.0426593
0.0426382
0.0426266
0.0426215
0.0426197
0.0429923
0.0429985
0.0430191
0.0430628
0.0431355
0.0432355
0.0433523
0.0434682
0.0435602
0.0436091
0.043608
0.0435695
0.0435099
0.0434391
0.0433602
0.0432709
0.0431688
0.0430607
0.042963
0.0428875
0.0428437
0.0428234
0.0428033
0.0427769
0.0427426
0.0427049
0.0426701
0.0426431
0.0426256
0.0426163
0.0426121
0.0426102
0.0429301
0.0429382
0.0429641
0.0430182
0.0431079
0.0432322
0.0433777
0.0435177
0.043618
0.0436606
0.0436545
0.0436151
0.0435583
0.0434929
0.043422
0.0433448
0.0432612
0.0431743
0.0430909
0.0430138
0.0429425
0.0428771
0.0428274
0.0428022
0.042769
0.042732
0.0426992
0.0426756
0.042662
0.0426565
0.0426554
0.0426552
0.0428405
0.0428515
0.0428862
0.0429574
0.0430746
0.0432361
0.043422
0.0435926
0.0437061
0.0437485
0.0437382
0.0437013
0.0436526
0.043599
0.0435454
0.0434957
0.0434519
0.0434185
0.0433961
0.0433823
0.0433694
0.0433444
0.0432904
0.0431931
0.043083
0.0429794
0.0429092
0.0428705
0.0428518
0.0428474
0.0428503
0.0428537
0.0426859
0.0427006
0.042745
0.042835
0.0429818
0.0431817
0.0434069
0.0436098
0.04375
0.0438192
0.043836
0.043823
0.0437945
0.0437568
0.0437134
0.0436729
0.0436562
0.0436642
0.0436945
0.043745
0.0438094
0.0438769
0.0439331
0.0439628
0.0439515
0.0438902
0.0437768
0.0436419
0.0435248
0.0434483
0.0434156
0.0434071
0.0424527
0.0424696
0.0425189
0.0426186
0.0427828
0.0430086
0.0432652
0.0435017
0.0436763
0.043779
0.043826
0.0438393
0.0438333
0.043815
0.043788
0.0437576
0.0437368
0.0437417
0.0437684
0.0438143
0.0438769
0.0439508
0.0440277
0.0440976
0.0441513
0.0441831
0.0441919
0.0441795
0.0441512
0.0441147
0.0440798
0.0440619
0.0422232
0.0422394
0.042286
0.0423827
0.0425473
0.0427817
0.0430591
0.043328
0.0435415
0.043681
0.0437585
0.0437952
0.0438078
0.0438054
0.0437934
0.0437778
0.0437646
0.0437625
0.0437714
0.0437898
0.0438191
0.0438603
0.0439117
0.0439682
0.0440222
0.0440672
0.0440986
0.0441164
0.0441233
0.0441229
0.0441183
0.044113
0.0420697
0.0420828
0.0421215
0.0422045
0.0423503
0.0425673
0.0428442
0.0431391
0.0433897
0.0435684
0.0436792
0.0437402
0.04377
0.0437816
0.043784
0.0437863
0.0437928
0.0437935
0.0437955
0.0437964
0.0437976
0.0438033
0.0438182
0.043844
0.0438778
0.0439132
0.0439438
0.0439659
0.0439796
0.0439868
0.0439886
0.0439867
0.0420069
0.0420145
0.0420412
0.0421054
0.0422263
0.0424151
0.0426666
0.0429517
0.0432214
0.0434378
0.0435865
0.0436758
0.0437234
0.0437459
0.0437562
0.0437665
0.0437887
0.043805
0.0438137
0.0438178
0.0438141
0.0438031
0.0437914
0.0437878
0.0437967
0.0438154
0.0438379
0.0438579
0.0438724
0.0438814
0.0438851
0.043884
0.0420262
0.042026
0.042037
0.0420784
0.0421702
0.0423258
0.042544
0.0428038
0.0430673
0.0432969
0.0434701
0.0435843
0.0436505
0.0436843
0.0437006
0.0437136
0.0437365
0.0437663
0.0437941
0.0438171
0.0438301
0.0438271
0.0438087
0.0437903
0.0437808
0.0437851
0.0437994
0.0438164
0.0438307
0.0438403
0.0438447
0.0438439
0.0421107
0.0421015
0.0420942
0.0421097
0.0421703
0.0422914
0.0424736
0.0427009
0.0429418
0.0431628
0.0433398
0.0434651
0.0435438
0.0435877
0.0436107
0.0436279
0.0436543
0.0436958
0.0437403
0.0437824
0.0438159
0.0438354
0.0438391
0.0438297
0.0438149
0.0438136
0.0438257
0.0438439
0.0438606
0.0438718
0.0438767
0.0438758
0.042241
0.0422227
0.0421964
0.0421849
0.042214
0.0423017
0.04245
0.0426437
0.0428546
0.0430512
0.0432125
0.0433311
0.0434101
0.0434583
0.0434878
0.0435128
0.043548
0.0436015
0.043661
0.043721
0.0437756
0.0438203
0.0438523
0.0438717
0.0438827
0.0438902
0.0439094
0.0439375
0.0439634
0.04398
0.0439862
0.0439852
0.0423937
0.0423675
0.0423246
0.0422885
0.0422892
0.0423478
0.042467
0.0426299
0.0428073
0.0429704
0.0431022
0.0431989
0.0432652
0.0433097
0.0433427
0.0433765
0.0434228
0.0434878
0.0435612
0.0436377
0.0437127
0.043783
0.0438467
0.0439036
0.0439549
0.0440009
0.0440455
0.0440938
0.0441397
0.0441694
0.04418
0.0441797
0.0425437
0.0425121
0.0424574
0.0424034
0.0423833
0.0424206
0.0425178
0.0426539
0.0427975
0.0429225
0.0430166
0.0430814
0.0431256
0.0431589
0.0431904
0.0432303
0.043286
0.0433593
0.0434448
0.0435355
0.0436292
0.0437246
0.0438219
0.0439216
0.0440237
0.0441252
0.0442219
0.0443101
0.0443895
0.0444456
0.0444674
0.0444711
0.0426692
0.0426338
0.0425748
0.0425149
0.0424861
0.0425126
0.0425956
0.0427093
0.0428197
0.0429043
0.0429573
0.042986
0.0430028
0.043019
0.0430432
0.0430834
0.043144
0.043223
0.0433166
0.0434186
0.0435287
0.0436478
0.0437788
0.0439237
0.044083
0.0442516
0.0444201
0.0445759
0.0447091
0.044812
0.0448601
0.0448756
0.0427577
0.0427196
0.0426636
0.0426137
0.0425922
0.0426184
0.0426941
0.0427886
0.042867
0.0429113
0.042923
0.0429147
0.0429016
0.0428962
0.042907
0.0429414
0.0430017
0.0430835
0.0431818
0.0432927
0.0434169
0.0435576
0.0437202
0.0439094
0.044127
0.0443684
0.0446216
0.044868
0.0450871
0.0452638
0.0453665
0.0454101
0.0428012
0.0427656
0.0427226
0.0426968
0.0426994
0.042736
0.0428088
0.0428856
0.042932
0.0429375
0.0429095
0.0428646
0.0428204
0.0427904
0.0427836
0.0428075
0.0428641
0.0429464
0.0430478
0.0431661
0.0433024
0.0434618
0.0436519
0.0438803
0.0441512
0.0444632
0.0448056
0.0451587
0.0454955
0.0457843
0.0459845
0.0460865
0.0427793
0.0427605
0.0427511
0.0427683
0.0428073
0.0428637
0.0429356
0.0429932
0.0430075
0.0429757
0.0429097
0.0428297
0.042755
0.0426999
0.0426745
0.0426867
0.0427387
0.042821
0.0429254
0.0430499
0.043196
0.04337
0.0435815
0.0438406
0.0441544
0.0445257
0.0449499
0.0454137
0.0458936
0.0463486
0.0467044
0.0469367
0.0426372
0.0426851
0.0427561
0.042838
0.0429185
0.0429976
0.0430676
0.0431028
0.0430852
0.0430181
0.0429174
0.0428054
0.0427033
0.0426262
0.0425846
0.0425871
0.0426355
0.0427182
0.0428255
0.0429549
0.0431078
0.0432919
0.0435176
0.0437968
0.0441392
0.0445519
0.0450379
0.0455981
0.0462278
0.0469021
0.0475385
0.0480959
0.0421731
0.0425461
0.0427759
0.0429251
0.043039
0.0431311
0.0431918
0.0432036
0.0431567
0.0430589
0.042929
0.0427911
0.0426676
0.0425742
0.0425214
0.0425175
0.0425638
0.0426471
0.0427567
0.0428889
0.0430456
0.0432348
0.0434676
0.0437565
0.0441126
0.044546
0.0450665
0.0456896
0.0464413
0.0473589
0.0484751
0.0497421
0.0411664
0.0423932
0.0428581
0.0430203
0.0431384
0.0432306
0.0432801
0.043274
0.0432067
0.0430885
0.0429401
0.0427866
0.042651
0.0425488
0.0424901
0.0424832
0.0425285
0.0426122
0.0427227
0.042856
0.0430139
0.0432044
0.0434389
0.04373
0.0440888
0.044527
0.0450586
0.04571
0.0465365
0.0476486
0.0492678
0.0515415
)
;

boundaryField
{
    movingWall
    {
        type            fixedFluxPressure;
        gradient        uniform 0;
        value           nonuniform List<scalar> 
32
(
0.0411664
0.0423932
0.0428581
0.0430203
0.0431384
0.0432306
0.0432801
0.043274
0.0432067
0.0430885
0.0429401
0.0427866
0.042651
0.0425488
0.0424901
0.0424832
0.0425285
0.0426122
0.0427227
0.042856
0.0430139
0.0432044
0.0434389
0.04373
0.0440888
0.044527
0.0450586
0.04571
0.0465365
0.0476486
0.0492678
0.0515415
)
;
    }
    fixedWalls
    {
        type            fixedFluxPressure;
        gradient        uniform 0;
        value           nonuniform List<scalar> 
64
(
0.0431946
0.043199
0.0432062
0.0432139
0.0432188
0.0432173
0.0432061
0.0431845
0.0431541
0.0431183
0.0430799
0.0430393
0.0429923
0.0429301
0.0428405
0.0426859
0.0424527
0.0422232
0.0420697
0.0420069
0.0420262
0.0421107
0.042241
0.0423937
0.0425437
0.0426692
0.0427577
0.0428012
0.0427793
0.0426372
0.0421731
0.0411664
0.0427189
0.0427214
0.0427266
0.0427344
0.042744
0.0427531
0.0427579
0.0427531
0.0427338
0.0426995
0.0426562
0.0426197
0.0426102
0.0426552
0.0428537
0.0434071
0.0440619
0.044113
0.0439867
0.043884
0.0438439
0.0438758
0.0439852
0.0441797
0.0444711
0.0448756
0.0454101
0.0460865
0.0469367
0.0480959
0.0497421
0.0515415
)
;
    }
    floor
    {
        type            fixedFluxPressure;
        gradient        uniform 0;
        value           nonuniform List<scalar> 
32
(
0.0431946
0.0431924
0.0431903
0.0431903
0.0431938
0.0432021
0.0432161
0.0432371
0.0432651
0.0432967
0.0433207
0.0433254
0.0432988
0.0432407
0.0431592
0.0430624
0.0429599
0.0428684
0.0428013
0.0427589
0.0427348
0.0427222
0.0427163
0.042714
0.0427132
0.042713
0.042713
0.0427135
0.0427146
0.0427163
0.0427179
0.0427189
)
;
    }
    frontAndBack
    {
        type            empty;
    }
}


// ************************************************************************* //
