/*--------------------------------*- C++ -*----------------------------------*\
| =========                 |                                                 |
| \\      /  F ield         | OpenFOAM: The Open Source CFD Toolbox           |
|  \\    /   O peration     | Version:  2212                                  |
|   \\  /    A nd           | Website:  www.openfoam.com                      |
|    \\/     M anipulation  |                                                 |
\*---------------------------------------------------------------------------*/
FoamFile
{
    version     2.0;
    format      ascii;
    arch        "LSB;label=64;scalar=64";
    class       volScalarField;
    location    "1170";
    object      Sco2;
}
// * * * * * * * * * * * * * * * * * * * * * * * * * * * * * * * * * * * * * //

dimensions      [1 -3 0 0 0 0 0];

internalField   nonuniform List<scalar> 
1024
(
0.00543316
0.00543569
0.00544188
0.00545308
0.00547066
0.00549572
0.00552865
0.00556868
0.00561377
0.00566088
0.00570618
0.00574542
0.00577396
0.00578805
0.00578558
0.00576495
0.00572686
0.00567787
0.00562438
0.00556827
0.00551092
0.00545389
0.00539921
0.00534925
0.00530604
0.00527077
0.00524365
0.00522402
0.00521073
0.00520244
0.0051979
0.00519605
0.00543373
0.00543631
0.00544263
0.00545405
0.00547199
0.00549752
0.00553097
0.0055715
0.00561703
0.00566447
0.00571002
0.00574938
0.00577786
0.00579174
0.00578903
0.00576821
0.00572996
0.00568088
0.00562733
0.00557118
0.00551379
0.00545664
0.00540177
0.00535149
0.00530789
0.00527222
0.00524472
0.00522479
0.00521128
0.00520287
0.00519826
0.00519639
0.00543508
0.00543775
0.00544431
0.00545618
0.00547481
0.00550127
0.00553579
0.00557745
0.0056241
0.00567262
0.00571912
0.0057591
0.00578755
0.00580085
0.00579735
0.00577576
0.0057369
0.00568737
0.00563353
0.00557722
0.0055197
0.00546236
0.00540711
0.00535622
0.00531184
0.00527533
0.00524706
0.00522651
0.00521256
0.00520387
0.00519912
0.00519719
0.0054374
0.0054402
0.00544707
0.00545956
0.00547917
0.00550699
0.0055432
0.00558681
0.00563562
0.00568646
0.00573519
0.00577676
0.00580539
0.00581755
0.00581231
0.00578889
0.00574846
0.00569771
0.00564306
0.00558628
0.00552849
0.00547087
0.00541511
0.00536339
0.0053179
0.00528016
0.00525075
0.00522926
0.00521465
0.00520554
0.00520057
0.00519855
0.00544085
0.00544378
0.00545102
0.00546424
0.00548506
0.00551465
0.00555323
0.00559984
0.00565229
0.00570729
0.00576017
0.00580476
0.00583398
0.00584428
0.00583593
0.00580904
0.00576543
0.00571215
0.00565571
0.00559786
0.0055395
0.00548147
0.00542512
0.00537247
0.00532568
0.00528648
0.00525565
0.005233
0.00521754
0.0052079
0.00520265
0.00520052
0.00544555
0.0054486
0.00545621
0.00547022
0.00549242
0.00552418
0.00556593
0.00561687
0.0056749
0.00573647
0.00579592
0.00584529
0.00587566
0.00588336
0.00587017
0.00583763
0.00578858
0.00573075
0.005671
0.00561105
0.00555153
0.00549283
0.00543586
0.00538229
0.00533424
0.00529355
0.00526127
0.00523738
0.00522102
0.0052108
0.00520524
0.00520299
0.00545164
0.00545479
0.00546276
0.00547757
0.0055013
0.00553567
0.0055815
0.00563838
0.00570432
0.00577526
0.00584396
0.00589989
0.00593197
0.00593632
0.00591647
0.00587577
0.00581844
0.00575334
0.00568807
0.00562446
0.00556282
0.005503
0.00544532
0.00539102
0.00534199
0.00530012
0.00526664
0.00524172
0.00522459
0.00521387
0.00520804
0.00520569
0.00545936
0.00546261
0.00547092
0.00548655
0.00551199
0.00554946
0.00560044
0.00566508
0.00574152
0.00582478
0.00590521
0.00596911
0.00600319
0.00600344
0.00597525
0.00592395
0.00585524
0.00577954
0.00570582
0.00563638
0.00557121
0.00550954
0.005451
0.00539624
0.0053468
0.00530442
0.00527039
0.00524498
0.00522746
0.0052165
0.00521053
0.00520812
0.00546921
0.00547255
0.00548123
0.00549779
0.0055252
0.00556642
0.00562379
0.0056982
0.00578779
0.00588609
0.00598023
0.00605273
0.0060885
0.00608385
0.00604611
0.00598238
0.00589934
0.00580925
0.00572338
0.00564516
0.00557448
0.00550987
0.00545019
0.00539533
0.00534628
0.00530444
0.00527091
0.0052459
0.00522867
0.00521787
0.00521198
0.00520959
0.00548206
0.00548554
0.00549468
0.00551241
0.00554228
0.00558814
0.0056534
0.00573977
0.00584514
0.00596078
0.0060697
0.00615048
0.00618692
0.0061767
0.00612921
0.00605256
0.00595308
0.00584457
0.00574186
0.00565077
0.0055716
0.00550229
0.00544083
0.00538619
0.0053385
0.00529851
0.00526685
0.00524341
0.00522734
0.0052173
0.00521181
0.00520958
0.00549938
0.00550307
0.0055129
0.00553225
0.00556539
0.00561721
0.00569229
0.0057931
0.00591679
0.00605144
0.00617521
0.00626305
0.00629896
0.00628355
0.00622837
0.00614106
0.00602524
0.00589489
0.00576968
0.00565942
0.0055665
0.00548893
0.00542386
0.00536906
0.00532341
0.0052865
0.00525809
0.00523753
0.00522371
0.00521523
0.00521069
0.00520889
0.00552334
0.00552737
0.00553827
0.00555999
0.00559768
0.00565737
0.00574483
0.00586296
0.00600736
0.00616189
0.00629958
0.00639303
0.00642861
0.00641156
0.00635537
0.00626518
0.00613885
0.00598745
0.00583427
0.0056953
0.00557874
0.00548482
0.00541041
0.0053522
0.00530731
0.00527362
0.00524941
0.00523311
0.00522307
0.00521764
0.00521522
0.00521449
0.00555689
0.00556146
0.00557397
0.00559915
0.00564321
0.00571338
0.00581642
0.00595503
0.00612216
0.00629659
0.00644684
0.00654579
0.00658526
0.00657641
0.00653369
0.00645782
0.00633857
0.00617937
0.00600288
0.00582967
0.0056753
0.00554793
0.00544841
0.00537468
0.00532245
0.00528777
0.00526686
0.00525625
0.00525272
0.0052533
0.00525538
0.00525702
0.00560354
0.00560887
0.00562367
0.00565371
0.00570643
0.0057903
0.00591257
0.00607465
0.00626561
0.00645915
0.00662142
0.00672934
0.00678335
0.00680053
0.00679467
0.0067625
0.00668671
0.00655863
0.00639201
0.00620617
0.00602006
0.00584897
0.00570257
0.00558856
0.00550526
0.00545178
0.00542386
0.00541473
0.00541719
0.00542486
0.00543271
0.00543744
0.00566702
0.00567345
0.00569141
0.00572801
0.00579211
0.00589314
0.00603791
0.00622495
0.00643844
0.00664839
0.00682289
0.00694696
0.00702995
0.00709216
0.00714601
0.00718889
0.00720362
0.00717072
0.00708824
0.00696593
0.00681611
0.00665241
0.00648852
0.00633739
0.00620582
0.00610223
0.00603033
0.00598788
0.00596876
0.00596474
0.00596764
0.00597106
0.00574538
0.00575289
0.00577378
0.00581605
0.00588936
0.0060032
0.00616304
0.00636489
0.00659122
0.00681375
0.00700542
0.00715561
0.00727466
0.00738163
0.00748916
0.00760117
0.00771059
0.00780024
0.00785752
0.00787942
0.00786455
0.00781433
0.0077329
0.00762709
0.00750696
0.00738382
0.00726929
0.00717363
0.0071035
0.00705976
0.0070378
0.00703042
0.00581526
0.0058231
0.00584448
0.00588711
0.00596028
0.00607285
0.00622965
0.00642698
0.00664989
0.00687432
0.00707589
0.0072418
0.00737561
0.00749023
0.00759709
0.0077049
0.0078198
0.00794474
0.00807414
0.00819959
0.00831052
0.00839765
0.00845413
0.00847613
0.00846356
0.00842078
0.00835672
0.00828424
0.00821675
0.00816452
0.00813202
0.0081181
0.00585849
0.005866
0.00588588
0.0059248
0.00599094
0.00609243
0.00623421
0.00641416
0.00662076
0.00683429
0.0070326
0.00719964
0.00733084
0.00743089
0.00750709
0.00756805
0.0076281
0.00771127
0.00782615
0.0079667
0.00811997
0.0082718
0.00840944
0.00852312
0.00860677
0.00865842
0.00868022
0.00867823
0.00866155
0.00864037
0.0086231
0.00861419
0.00587872
0.00588553
0.00590304
0.00593668
0.00599327
0.00607998
0.00620193
0.00635886
0.00654273
0.00673787
0.00692485
0.0070868
0.00721431
0.00730598
0.00736535
0.00740003
0.0074269
0.00747881
0.00757337
0.00771089
0.00788128
0.0080686
0.00825444
0.00842205
0.00855958
0.00866161
0.00872864
0.00876558
0.0087801
0.00878108
0.00877681
0.00877324
0.00588503
0.00589089
0.00590566
0.00593364
0.00598035
0.00605187
0.00615309
0.00628515
0.00644305
0.00661496
0.00678483
0.00693712
0.00706098
0.00715201
0.00721134
0.00724563
0.00727116
0.00731756
0.00740276
0.00753238
0.00770313
0.00790454
0.00811942
0.00832732
0.0085094
0.00865343
0.00875538
0.00881846
0.00885075
0.00886245
0.00886357
0.00886186
0.00588629
0.00589085
0.00590245
0.00592461
0.00596184
0.00601921
0.00610109
0.00620918
0.00634057
0.00648674
0.00663537
0.00677385
0.0068927
0.00698737
0.00705826
0.00711119
0.00715912
0.00722195
0.00731285
0.00743979
0.00760474
0.00780367
0.00802521
0.00825146
0.00846165
0.00863828
0.00877133
0.0088596
0.00890927
0.00893089
0.00893627
0.00893562
0.00589262
0.00589528
0.00590276
0.00591825
0.00594583
0.00598993
0.00605432
0.0061407
0.00624731
0.00636818
0.00649466
0.00661808
0.00673223
0.0068344
0.0069253
0.00700968
0.00709384
0.00718532
0.0072917
0.00742194
0.00758147
0.00777114
0.00798544
0.00821183
0.0084325
0.00862838
0.00878454
0.00889446
0.00896063
0.00899235
0.00900224
0.00900264
0.00591743
0.0059172
0.0059187
0.00592529
0.00594142
0.00597163
0.00601944
0.00608637
0.00617129
0.00627034
0.0063784
0.00649103
0.00660571
0.00672177
0.00683979
0.00696242
0.00708724
0.00720964
0.00733309
0.00746757
0.00762102
0.00779804
0.00799759
0.00821199
0.0084281
0.00862933
0.00879888
0.00892528
0.00900613
0.00904784
0.00906257
0.00906418
0.00597738
0.00597293
0.00596581
0.00595999
0.00596112
0.00597496
0.00600571
0.00605519
0.00612301
0.00620728
0.00630602
0.00641808
0.00654313
0.00668076
0.00682999
0.00699042
0.00715116
0.00729849
0.00743412
0.00756933
0.00771377
0.00787452
0.00805409
0.00824909
0.00845052
0.00864531
0.00881794
0.00895426
0.00904683
0.00909786
0.00911765
0.00912066
0.00608937
0.00607939
0.00606122
0.0060398
0.00602266
0.00601788
0.00603165
0.00606713
0.0061251
0.00620529
0.00630738
0.00643113
0.0065756
0.00673852
0.00691627
0.0071057
0.0072901
0.00745092
0.00759017
0.00772039
0.00785202
0.00799333
0.00814908
0.0083193
0.00849898
0.00867859
0.00884497
0.00898375
0.0090839
0.00914284
0.00916769
0.00917231
0.00626642
0.00625018
0.00622054
0.00618405
0.00615011
0.00612923
0.00613044
0.00615901
0.00621682
0.00630394
0.00641949
0.00656147
0.00672636
0.00690921
0.0071043
0.00730705
0.00749861
0.00765955
0.00779307
0.00791234
0.00802772
0.00814752
0.00827745
0.00841973
0.00857262
0.00873031
0.00888262
0.00901636
0.00911886
0.00918336
0.00921284
0.00921927
0.00651547
0.00649347
0.00645623
0.00641257
0.00637223
0.00634602
0.00634506
0.00637622
0.00644153
0.00654024
0.0066695
0.0068247
0.00699979
0.00718813
0.00738333
0.00758086
0.00776282
0.00791159
0.00803134
0.00813487
0.00823162
0.00832916
0.00843309
0.0085466
0.00867017
0.00880117
0.00893293
0.00905463
0.00915356
0.0092202
0.00925329
0.00926161
0.00683878
0.00681368
0.0067787
0.00674372
0.00671492
0.00669957
0.0067082
0.0067479
0.0068206
0.00692492
0.00705671
0.0072099
0.00737753
0.00755283
0.00773006
0.00790555
0.00806416
0.0081914
0.00829171
0.00837639
0.00845345
0.00852917
0.00860838
0.00869435
0.00878859
0.00889069
0.00899726
0.00910077
0.0091901
0.00925453
0.00928935
0.00929939
0.00723863
0.00721631
0.0071986
0.0071901
0.00718846
0.00719524
0.00721823
0.00726402
0.00733544
0.00743181
0.00754934
0.00768239
0.00782471
0.00797062
0.00811558
0.00825695
0.00838307
0.00848303
0.00856071
0.00862516
0.00868261
0.00873787
0.00879467
0.00885573
0.00892277
0.00899644
0.00907571
0.00915643
0.00923047
0.00928781
0.00932156
0.00933268
0.0077234
0.00771378
0.00772665
0.00775073
0.00777608
0.00780155
0.00783255
0.00787522
0.00793362
0.00800846
0.00809746
0.00819661
0.0083013
0.00840743
0.00851179
0.00861261
0.00870184
0.00877204
0.00882609
0.00887038
0.00890926
0.00894601
0.00898321
0.00902278
0.00906607
0.00911396
0.00916658
0.0092223
0.0092765
0.00932169
0.00935077
0.00936167
0.00831249
0.00832551
0.00836247
0.00839988
0.00843218
0.00845961
0.00848568
0.0085152
0.00855198
0.00859745
0.00865079
0.0087098
0.0087718
0.00883434
0.00889555
0.00895438
0.00900623
0.00904686
0.00907796
0.00910324
0.0091252
0.0091457
0.0091662
0.00918778
0.00921126
0.00923725
0.00926607
0.00929739
0.00932932
0.00935789
0.0093781
0.00938675
0.00903111
0.00904201
0.00906217
0.00907991
0.00909435
0.00910601
0.00911611
0.00912651
0.00913879
0.00915369
0.00917108
0.00919029
0.00921045
0.00923075
0.00925057
0.00926958
0.0092863
0.00929938
0.00930937
0.00931745
0.00932443
0.00933091
0.00933734
0.00934406
0.00935134
0.00935936
0.00936827
0.00937803
0.00938822
0.00939776
0.00940507
0.00940862
)
;

boundaryField
{
    movingWall
    {
        type            fixedValue;
        value           uniform 0.00942;
    }
    fixedWalls
    {
        type            zeroGradient;
    }
    floor
    {
        type            zeroGradient;
    }
    frontAndBack
    {
        type            empty;
    }
}


// ************************************************************************* //
