/*--------------------------------*- C++ -*----------------------------------*\
| =========                 |                                                 |
| \\      /  F ield         | OpenFOAM: The Open Source CFD Toolbox           |
|  \\    /   O peration     | Version:  2212                                  |
|   \\  /    A nd           | Website:  www.openfoam.com                      |
|    \\/     M anipulation  |                                                 |
\*---------------------------------------------------------------------------*/
FoamFile
{
    version     2.0;
    format      ascii;
    arch        "LSB;label=64;scalar=64";
    class       volScalarField;
    location    "1170";
    object      Xli;
}
// * * * * * * * * * * * * * * * * * * * * * * * * * * * * * * * * * * * * * //

dimensions      [1 -3 0 0 0 0 0];

internalField   nonuniform List<scalar> 
1024
(
0.0422644
0.0422653
0.0422677
0.042272
0.0422787
0.0422882
0.0423007
0.042316
0.0423331
0.0423509
0.0423679
0.0423826
0.0423932
0.0423982
0.0423969
0.0423886
0.0423737
0.0423547
0.0423341
0.0423124
0.0422903
0.0422682
0.042247
0.0422275
0.0422106
0.0421968
0.0421861
0.0421784
0.0421732
0.0421699
0.0421681
0.0421674
0.0422646
0.0422656
0.042268
0.0422723
0.0422792
0.0422889
0.0423016
0.042317
0.0423343
0.0423522
0.0423693
0.0423841
0.0423946
0.0423995
0.0423981
0.0423898
0.0423748
0.0423558
0.0423352
0.0423135
0.0422914
0.0422693
0.0422479
0.0422283
0.0422113
0.0421973
0.0421865
0.0421787
0.0421734
0.0421701
0.0421683
0.0421675
0.0422651
0.0422661
0.0422686
0.0422731
0.0422802
0.0422903
0.0423034
0.0423193
0.0423369
0.0423552
0.0423727
0.0423877
0.0423982
0.0424029
0.0424012
0.0423926
0.0423773
0.0423582
0.0423374
0.0423158
0.0422936
0.0422714
0.04225
0.0422302
0.0422128
0.0421985
0.0421874
0.0421794
0.0421739
0.0421705
0.0421686
0.0421678
0.042266
0.042267
0.0422697
0.0422744
0.0422819
0.0422925
0.0423062
0.0423228
0.0423412
0.0423604
0.0423787
0.0423942
0.0424047
0.042409
0.0424066
0.0423973
0.0423815
0.0423619
0.0423409
0.0423191
0.0422969
0.0422746
0.042253
0.0422329
0.0422152
0.0422004
0.0421889
0.0421804
0.0421747
0.0421711
0.0421692
0.0421684
0.0422673
0.0422684
0.0422712
0.0422762
0.0422841
0.0422954
0.04231
0.0423277
0.0423475
0.0423682
0.042388
0.0424046
0.0424153
0.0424188
0.0424152
0.0424045
0.0423876
0.0423671
0.0423454
0.0423233
0.0423009
0.0422786
0.0422568
0.0422364
0.0422181
0.0422028
0.0421908
0.0421819
0.0421758
0.042172
0.04217
0.0421691
0.0422691
0.0422702
0.0422731
0.0422784
0.0422869
0.0422989
0.0423148
0.042334
0.0423559
0.042379
0.0424012
0.0424195
0.0424306
0.042433
0.0424276
0.0424147
0.0423957
0.0423736
0.0423508
0.042328
0.0423053
0.0422828
0.0422608
0.0422401
0.0422214
0.0422055
0.0421929
0.0421836
0.0421771
0.0421731
0.042171
0.0421701
0.0422714
0.0422726
0.0422756
0.0422812
0.0422902
0.0423032
0.0423206
0.0423421
0.0423669
0.0423935
0.042419
0.0424397
0.0424512
0.0424523
0.0424442
0.0424282
0.0424061
0.0423813
0.0423566
0.0423326
0.0423092
0.0422864
0.0422642
0.0422433
0.0422243
0.042208
0.0421949
0.0421852
0.0421785
0.0421743
0.042172
0.0421711
0.0422743
0.0422755
0.0422787
0.0422846
0.0422942
0.0423084
0.0423277
0.042352
0.0423807
0.0424119
0.0424417
0.0424651
0.0424772
0.0424765
0.0424652
0.0424451
0.0424187
0.0423901
0.0423624
0.0423363
0.0423118
0.0422884
0.0422661
0.0422451
0.042226
0.0422095
0.0421963
0.0421864
0.0421795
0.0421753
0.0421729
0.042172
0.042278
0.0422793
0.0422826
0.0422888
0.0422992
0.0423148
0.0423364
0.0423644
0.0423979
0.0424346
0.0424694
0.0424958
0.0425083
0.0425055
0.0424903
0.0424654
0.0424336
0.0423997
0.0423677
0.0423386
0.0423122
0.0422879
0.0422653
0.0422444
0.0422255
0.0422094
0.0421964
0.0421866
0.0421799
0.0421757
0.0421734
0.0421725
0.0422829
0.0422842
0.0422876
0.0422943
0.0423056
0.0423229
0.0423475
0.0423799
0.0424193
0.0424622
0.0425023
0.0425315
0.0425439
0.0425386
0.0425194
0.0424896
0.0424516
0.0424109
0.0423729
0.0423393
0.04231
0.0422842
0.0422611
0.0422404
0.0422222
0.0422068
0.0421946
0.0421855
0.0421793
0.0421753
0.0421732
0.0421723
0.0422894
0.0422908
0.0422945
0.0423018
0.0423143
0.0423338
0.042362
0.0423997
0.0424458
0.0424957
0.042541
0.0425725
0.0425842
0.0425765
0.0425541
0.04252
0.0424759
0.0424272
0.042381
0.0423406
0.0423066
0.042278
0.0422538
0.0422332
0.0422159
0.0422018
0.0421909
0.042183
0.0421776
0.0421743
0.0421725
0.0421718
0.0422985
0.0423
0.0423041
0.0423123
0.0423265
0.0423489
0.0423816
0.0424258
0.0424794
0.0425364
0.0425866
0.0426196
0.0426306
0.0426219
0.0425988
0.0425633
0.0425151
0.0424586
0.0424023
0.0423515
0.0423091
0.0422747
0.0422473
0.0422258
0.042209
0.0421962
0.042187
0.0421807
0.0421768
0.0421746
0.0421736
0.0421733
0.0423112
0.0423129
0.0423176
0.0423271
0.0423436
0.0423699
0.0424084
0.0424601
0.042522
0.042586
0.0426403
0.0426749
0.0426868
0.0426807
0.0426622
0.0426316
0.0425857
0.0425262
0.0424612
0.042398
0.0423419
0.0422956
0.0422593
0.0422323
0.0422131
0.0422002
0.0421923
0.0421882
0.0421868
0.0421868
0.0421875
0.042188
0.0423289
0.0423309
0.0423364
0.0423477
0.0423674
0.0423988
0.0424444
0.0425046
0.0425751
0.0426459
0.0427042
0.0427415
0.0427585
0.0427616
0.0427563
0.0427414
0.0427108
0.042662
0.0426002
0.0425321
0.0424644
0.0424023
0.0423493
0.042308
0.0422778
0.0422583
0.0422481
0.0422447
0.0422454
0.0422481
0.0422509
0.0422526
0.0423529
0.0423553
0.042362
0.0423757
0.0423997
0.0424374
0.0424913
0.0425606
0.0426392
0.0427157
0.0427782
0.0428213
0.0428488
0.0428685
0.0428848
0.0428968
0.0428983
0.042883
0.0428505
0.0428045
0.0427494
0.0426898
0.0426305
0.042576
0.0425287
0.0424916
0.0424658
0.0424506
0.0424437
0.0424423
0.0424433
0.0424446
0.0423825
0.0423853
0.0423931
0.0424089
0.0424363
0.0424788
0.0425382
0.042613
0.0426964
0.0427777
0.0428467
0.0428997
0.0429408
0.0429772
0.0430132
0.0430501
0.043085
0.0431123
0.0431283
0.0431323
0.0431239
0.0431038
0.0430734
0.0430349
0.0429919
0.0429481
0.0429075
0.0428738
0.0428491
0.0428337
0.042826
0.0428234
0.0424091
0.042412
0.04242
0.042436
0.0424633
0.0425054
0.0425639
0.0426373
0.0427198
0.0428024
0.0428759
0.0429357
0.0429832
0.0430233
0.0430601
0.0430961
0.0431329
0.0431719
0.0432116
0.0432498
0.0432834
0.0433094
0.0433257
0.0433309
0.0433251
0.0433095
0.0432871
0.0432621
0.0432389
0.043221
0.0432099
0.0432051
0.0424258
0.0424286
0.042436
0.0424506
0.0424754
0.0425134
0.0425665
0.0426338
0.0427109
0.0427902
0.0428635
0.0429249
0.0429727
0.0430089
0.043036
0.0430567
0.0430754
0.0431002
0.0431344
0.0431764
0.0432224
0.0432681
0.0433096
0.043344
0.0433694
0.0433852
0.0433919
0.0433912
0.043386
0.0433792
0.0433738
0.0433709
0.0424339
0.0424364
0.042443
0.0424556
0.0424769
0.0425095
0.0425553
0.0426143
0.0426834
0.0427565
0.0428264
0.0428868
0.0429343
0.0429685
0.0429906
0.0430032
0.0430115
0.0430265
0.0430546
0.0430959
0.0431472
0.0432038
0.0432598
0.0433103
0.0433518
0.0433827
0.0434032
0.0434148
0.0434196
0.0434204
0.0434194
0.0434184
0.0424368
0.042439
0.0424445
0.042455
0.0424725
0.0424995
0.0425377
0.0425876
0.0426472
0.0427121
0.0427762
0.0428337
0.0428805
0.0429151
0.0429378
0.0429508
0.0429594
0.0429734
0.0429991
0.0430386
0.0430906
0.0431519
0.0432171
0.04328
0.043335
0.0433785
0.0434093
0.0434286
0.0434387
0.0434426
0.0434433
0.043443
0.0424377
0.0424394
0.0424438
0.0424521
0.0424661
0.0424877
0.0425187
0.0425597
0.0426095
0.042665
0.0427215
0.0427742
0.0428195
0.0428556
0.0428826
0.0429024
0.0429191
0.0429393
0.0429677
0.0430071
0.043058
0.043119
0.0431867
0.0432555
0.0433191
0.0433725
0.0434127
0.0434394
0.0434546
0.0434615
0.0434634
0.0434634
0.0424404
0.0424414
0.0424442
0.0424501
0.0424605
0.0424771
0.0425016
0.0425344
0.0425749
0.042621
0.0426693
0.0427164
0.0427598
0.0427985
0.0428324
0.0428631
0.0428924
0.0429229
0.0429572
0.0429984
0.0430482
0.043107
0.0431729
0.043242
0.0433091
0.0433684
0.0434155
0.0434487
0.0434688
0.0434786
0.0434818
0.0434821
0.0424493
0.0424493
0.04245
0.0424527
0.0424589
0.0424705
0.0424887
0.0425142
0.0425466
0.0425844
0.0426255
0.0426682
0.0427112
0.0427542
0.0427972
0.0428409
0.0428842
0.0429255
0.042966
0.0430093
0.0430579
0.0431132
0.043175
0.0432408
0.0433067
0.0433677
0.0434189
0.043457
0.0434814
0.0434942
0.0434988
0.0434995
0.0424699
0.0424685
0.0424662
0.0424646
0.0424656
0.0424713
0.0424833
0.0425023
0.0425281
0.0425599
0.042597
0.0426386
0.0426843
0.042734
0.0427871
0.0428434
0.0428988
0.0429487
0.0429938
0.0430378
0.0430841
0.0431347
0.0431907
0.0432508
0.0433125
0.0433717
0.0434239
0.043465
0.0434928
0.0435083
0.0435144
0.0435154
0.0425077
0.0425044
0.0424984
0.0424915
0.0424863
0.0424855
0.0424914
0.0425051
0.0425269
0.0425565
0.0425937
0.0426382
0.0426896
0.0427471
0.0428092
0.0428749
0.0429382
0.0429928
0.0430393
0.0430821
0.0431246
0.0431695
0.0432183
0.043271
0.0433262
0.043381
0.0434313
0.0434732
0.0435033
0.043521
0.0435286
0.0435301
0.0425667
0.0425614
0.0425516
0.0425397
0.0425287
0.0425224
0.0425238
0.0425347
0.0425557
0.0425869
0.0426277
0.0426774
0.0427347
0.0427981
0.0428654
0.0429352
0.0430006
0.0430552
0.0431
0.0431395
0.043177
0.0432153
0.0432563
0.0433006
0.0433477
0.0433959
0.0434421
0.0434824
0.0435132
0.0435325
0.0435414
0.0435435
0.0426492
0.0426419
0.0426297
0.0426153
0.0426022
0.042594
0.0425944
0.0426057
0.0426286
0.0426629
0.0427075
0.0427608
0.0428209
0.0428853
0.0429521
0.0430197
0.0430817
0.0431321
0.0431724
0.0432068
0.0432385
0.0432699
0.0433028
0.0433383
0.0433765
0.0434166
0.0434567
0.0434934
0.0435231
0.043543
0.0435529
0.0435555
0.0427558
0.0427475
0.042736
0.0427245
0.0427151
0.0427103
0.0427136
0.0427274
0.0427523
0.0427879
0.0428327
0.0428848
0.0429417
0.0430012
0.0430616
0.0431213
0.0431752
0.0432184
0.0432522
0.0432804
0.0433057
0.0433302
0.0433555
0.0433825
0.0434117
0.0434431
0.0434755
0.0435068
0.0435336
0.0435528
0.0435632
0.0435662
0.0428871
0.0428798
0.0428739
0.0428711
0.0428706
0.0428729
0.0428808
0.0428963
0.0429205
0.042953
0.0429926
0.0430375
0.0430856
0.0431349
0.0431841
0.0432321
0.0432749
0.0433088
0.043335
0.0433565
0.0433755
0.0433934
0.0434116
0.0434309
0.0434517
0.0434744
0.0434986
0.043523
0.0435452
0.0435623
0.0435723
0.0435757
0.043046
0.0430428
0.043047
0.0430548
0.0430631
0.0430715
0.0430818
0.0430961
0.0431157
0.0431408
0.0431707
0.043204
0.0432393
0.0432751
0.0433104
0.0433446
0.0433748
0.0433986
0.0434169
0.0434317
0.0434446
0.0434566
0.0434685
0.043481
0.0434946
0.0435094
0.0435254
0.0435423
0.0435586
0.043572
0.0435806
0.0435838
0.0432386
0.0432428
0.0432549
0.0432671
0.0432777
0.0432867
0.0432953
0.0433051
0.0433174
0.0433326
0.0433505
0.0433702
0.0433911
0.0434122
0.0434328
0.0434528
0.0434704
0.0434841
0.0434946
0.0435031
0.0435104
0.0435171
0.0435237
0.0435306
0.0435379
0.043546
0.0435548
0.0435643
0.0435739
0.0435823
0.0435883
0.0435908
0.0434732
0.0434768
0.0434833
0.0434891
0.0434938
0.0434977
0.043501
0.0435044
0.0435085
0.0435135
0.0435193
0.0435258
0.0435325
0.0435394
0.0435461
0.0435525
0.0435582
0.0435626
0.043566
0.0435687
0.043571
0.0435731
0.0435752
0.0435774
0.0435796
0.0435821
0.0435849
0.0435878
0.0435909
0.0435937
0.0435959
0.0435969
)
;

boundaryField
{
    movingWall
    {
        type            fixedValue;
        value           uniform 0.0436;
    }
    fixedWalls
    {
        type            zeroGradient;
    }
    floor
    {
        type            zeroGradient;
    }
    frontAndBack
    {
        type            empty;
    }
}


// ************************************************************************* //
