/*--------------------------------*- C++ -*----------------------------------*\
| =========                 |                                                 |
| \\      /  F ield         | OpenFOAM: The Open Source CFD Toolbox           |
|  \\    /   O peration     | Version:  2212                                  |
|   \\  /    A nd           | Website:  www.openfoam.com                      |
|    \\/     M anipulation  |                                                 |
\*---------------------------------------------------------------------------*/
FoamFile
{
    version     2.0;
    format      ascii;
    arch        "LSB;label=64;scalar=64";
    class       surfaceScalarField;
    location    "0.28";
    object      phi;
}
// * * * * * * * * * * * * * * * * * * * * * * * * * * * * * * * * * * * * * //

dimensions      [0 3 -1 0 0 0 0];

oriented        oriented;

internalField   nonuniform List<scalar> 
65152
(
-2.3231e-12
2.32312e-12
-6.6487e-12
4.32561e-12
-1.10167e-11
4.36801e-12
-1.4753e-11
3.73639e-12
-1.79085e-11
3.15551e-12
-2.07087e-11
2.80021e-12
-2.33252e-11
2.61647e-12
-2.5846e-11
2.52083e-12
-2.83056e-11
2.45966e-12
-3.07134e-11
2.40777e-12
-3.30689e-11
2.35559e-12
-3.53688e-11
2.29993e-12
-3.76088e-11
2.24003e-12
-3.97846e-11
2.1758e-12
-4.1892e-11
2.10737e-12
-4.39266e-11
2.03462e-12
-4.58842e-11
1.9577e-12
-4.77608e-11
1.87662e-12
-4.95515e-11
1.79064e-12
-5.12526e-11
1.70118e-12
-5.28598e-11
1.60725e-12
-5.43692e-11
1.50939e-12
-5.57756e-11
1.4064e-12
-5.70749e-11
1.29936e-12
-5.8263e-11
1.18808e-12
-5.93359e-11
1.07295e-12
-6.02891e-11
9.53239e-13
-6.11182e-11
8.29115e-13
-6.18189e-11
7.00685e-13
-6.23868e-11
5.67927e-13
-6.28176e-11
4.30791e-13
-6.31059e-11
2.88391e-13
-6.3249e-11
1.43097e-13
-6.32436e-11
-5.38464e-15
-6.3086e-11
-1.57524e-13
-6.27749e-11
-3.11118e-13
-6.23094e-11
-4.655e-13
-6.16891e-11
-6.2026e-13
-6.09138e-11
-7.75241e-13
-5.99823e-11
-9.3148e-13
-5.88955e-11
-1.08677e-12
-5.76541e-11
-1.24142e-12
-5.62588e-11
-1.3952e-12
-5.47111e-11
-1.54773e-12
-5.30126e-11
-1.69842e-12
-5.1165e-11
-1.84757e-12
-4.91721e-11
-1.99293e-12
-4.7037e-11
-2.13501e-12
-4.47639e-11
-2.27314e-12
-4.23577e-11
-2.40612e-12
-3.98235e-11
-2.5342e-12
-3.71675e-11
-2.65596e-12
-3.43961e-11
-2.77134e-12
-3.15161e-11
-2.87999e-12
-2.85357e-11
-2.98041e-12
-2.5463e-11
-3.07268e-12
-2.23066e-11
-3.15638e-12
-1.90756e-11
-3.23097e-12
-1.57796e-11
-3.29595e-12
-1.24285e-11
-3.35111e-12
-9.03227e-12
-3.39616e-12
-5.60164e-12
-3.4306e-12
-2.14848e-12
-3.45313e-12
1.31365e-12
-3.4621e-12
4.77064e-12
-3.45696e-12
8.20972e-12
-3.43905e-12
1.16201e-11
-3.41035e-12
1.49923e-11
-3.37214e-12
1.83169e-11
-3.32464e-12
2.1585e-11
-3.26807e-12
2.47875e-11
-3.20241e-12
2.79153e-11
-3.12779e-12
3.09598e-11
-3.04444e-12
3.39127e-11
-2.9529e-12
3.67662e-11
-2.8535e-12
3.95125e-11
-2.74624e-12
4.21445e-11
-2.63201e-12
4.46562e-11
-2.51167e-12
4.70416e-11
-2.3854e-12
4.92954e-11
-2.25373e-12
5.14127e-11
-2.11724e-12
5.33893e-11
-1.9766e-12
5.52216e-11
-1.83228e-12
5.69065e-11
-1.68484e-12
5.84414e-11
-1.5349e-12
5.98245e-11
-1.38307e-12
6.10538e-11
-1.22923e-12
6.21275e-11
-1.07377e-12
6.30456e-11
-9.17976e-13
6.38073e-11
-7.61699e-13
6.44123e-11
-6.05032e-13
6.48606e-11
-4.48189e-13
6.51519e-11
-2.91348e-13
6.52868e-11
-1.34825e-13
6.52665e-11
2.03104e-14
6.50936e-11
1.72956e-13
6.47713e-11
3.22335e-13
6.43058e-11
4.65475e-13
6.37018e-11
6.04002e-13
6.29639e-11
7.37992e-13
6.20958e-11
8.68102e-13
6.11028e-11
9.93025e-13
5.99893e-11
1.11351e-12
5.87594e-11
1.22992e-12
5.74172e-11
1.34222e-12
5.5967e-11
1.45028e-12
5.44123e-11
1.55472e-12
5.2758e-11
1.65431e-12
5.10081e-11
1.7499e-12
4.91669e-11
1.84118e-12
4.72387e-11
1.92822e-12
4.52272e-11
2.01157e-12
4.31368e-11
2.09046e-12
4.09717e-11
2.16506e-12
3.87365e-11
2.23527e-12
3.64346e-11
2.3019e-12
3.4071e-11
2.36367e-12
3.16498e-11
2.42118e-12
2.91746e-11
2.47525e-12
2.66456e-11
2.529e-12
2.40536e-11
2.59207e-12
2.13636e-11
2.68999e-12
1.84864e-11
2.87718e-12
1.52473e-11
3.23913e-12
1.14133e-11
3.83409e-12
6.92232e-12
4.49097e-12
2.44548e-12
4.47687e-12
2.44549e-12
-2.33246e-12
4.65561e-12
-6.3913e-12
8.38448e-12
-9.90991e-12
7.88665e-12
-1.22201e-11
6.04663e-12
-1.35535e-11
4.48893e-12
-1.43197e-11
3.56647e-12
-1.48118e-11
3.10855e-12
-1.51828e-11
2.89182e-12
-1.54994e-11
2.77634e-12
-1.57873e-11
2.69566e-12
-1.60554e-11
2.62371e-12
-1.63067e-11
2.55125e-12
-1.65431e-11
2.47648e-12
-1.67654e-11
2.39811e-12
-1.69742e-11
2.31627e-12
-1.71703e-11
2.23073e-12
-1.73541e-11
2.14151e-12
-1.75259e-11
2.04841e-12
-1.76868e-11
1.95165e-12
-1.78358e-11
1.85013e-12
-1.79729e-11
1.74443e-12
-1.80974e-11
1.63387e-12
-1.82107e-11
1.51979e-12
-1.83121e-11
1.40072e-12
-1.84006e-11
1.27661e-12
-1.84746e-11
1.14706e-12
-1.85341e-11
1.01271e-12
-1.85781e-11
8.73154e-13
-1.86057e-11
7.28301e-13
-1.86157e-11
5.78014e-13
-1.86075e-11
4.22556e-13
-1.85819e-11
2.62873e-13
-1.85365e-11
9.77111e-14
-1.84699e-11
-7.19986e-14
-1.83806e-11
-2.46747e-13
-1.82678e-11
-4.23842e-13
-1.81291e-11
-6.04174e-13
-1.79617e-11
-7.87611e-13
-1.77634e-11
-9.73593e-13
-1.75343e-11
-1.16053e-12
-1.72708e-11
-1.35026e-12
-1.69705e-11
-1.54165e-12
-1.6632e-11
-1.73363e-12
-1.62541e-11
-1.92564e-12
-1.58355e-11
-2.11692e-12
-1.53773e-11
-2.30575e-12
-1.4877e-11
-2.4932e-12
-1.43343e-11
-2.67767e-12
-1.37501e-11
-2.85727e-12
-1.31239e-11
-3.03232e-12
-1.24566e-11
-3.20146e-12
-1.17489e-11
-3.36364e-12
-1.10022e-11
-3.51803e-12
-1.02191e-11
-3.66299e-12
-9.4006e-12
-3.7989e-12
-8.54931e-12
-3.92393e-12
-7.66808e-12
-4.03757e-12
-6.75995e-12
-4.13906e-12
-5.82817e-12
-4.2277e-12
-4.87595e-12
-4.3033e-12
-3.9072e-12
-4.36488e-12
-2.92615e-12
-4.4116e-12
-1.93729e-12
-4.44196e-12
-9.45626e-13
-4.45373e-12
4.48029e-14
-4.44736e-12
1.03049e-12
-4.4247e-12
2.00828e-12
-4.3881e-12
2.9746e-12
-4.33843e-12
3.92655e-12
-4.27655e-12
4.86117e-12
-4.20265e-12
5.77567e-12
-4.11687e-12
6.66733e-12
-4.01942e-12
7.5338e-12
-3.91088e-12
8.37254e-12
-3.7916e-12
9.18105e-12
-3.66197e-12
9.95858e-12
-3.52374e-12
1.07038e-11
-3.37715e-12
1.14144e-11
-3.22231e-12
1.20893e-11
-3.06018e-12
1.27274e-11
-2.89182e-12
1.33282e-11
-2.71807e-12
1.38917e-11
-2.54003e-12
1.44175e-11
-2.35802e-12
1.49057e-11
-2.17304e-12
1.53566e-11
-1.98571e-12
1.57705e-11
-1.79696e-12
1.61493e-11
-1.60798e-12
1.64942e-11
-1.41863e-12
1.68048e-11
-1.22859e-12
1.7082e-11
-1.03886e-12
1.73272e-11
-8.50169e-13
1.75418e-11
-6.62807e-13
1.77278e-11
-4.77314e-13
1.78876e-11
-2.94543e-13
1.80226e-11
-1.1469e-13
1.81321e-11
6.3543e-14
1.82216e-11
2.32806e-13
1.82893e-11
3.9787e-13
1.83358e-11
5.57511e-13
1.83626e-11
7.11207e-13
1.83716e-11
8.59148e-13
1.83627e-11
1.00191e-12
1.83368e-11
1.1395e-12
1.82948e-11
1.27189e-12
1.82374e-11
1.39964e-12
1.81649e-11
1.52286e-12
1.80787e-11
1.64094e-12
1.79779e-11
1.75514e-12
1.78629e-11
1.8649e-12
1.77335e-11
1.97069e-12
1.75893e-11
2.07242e-12
1.74312e-11
2.16971e-12
1.72581e-11
2.26356e-12
1.70695e-11
2.35372e-12
1.68647e-11
2.44012e-12
1.66425e-11
2.52407e-12
1.64027e-11
2.60353e-12
1.61438e-11
2.68016e-12
1.58625e-11
2.75658e-12
1.55497e-11
2.84183e-12
1.518e-11
2.96173e-12
1.46864e-11
3.18368e-12
1.39136e-11
3.64998e-12
1.2564e-11
4.5888e-12
1.02169e-11
6.18121e-12
6.62383e-12
8.08406e-12
2.44323e-12
8.65751e-12
4.88873e-12
-2.06694e-12
6.72257e-12
-5.27521e-12
1.15928e-11
-7.61226e-12
1.02237e-11
-8.60042e-12
7.03481e-12
-8.56265e-12
4.4512e-12
-7.94429e-12
2.94813e-12
-7.05367e-12
2.21796e-12
-6.05214e-12
1.89031e-12
-5.00925e-12
1.73348e-12
-3.95407e-12
1.64051e-12
-2.89857e-12
1.56824e-12
-1.85045e-12
1.50316e-12
-8.12648e-13
1.43871e-12
2.10466e-13
1.37502e-12
1.21555e-12
1.31121e-12
2.19921e-12
1.2471e-12
3.15835e-12
1.1824e-12
4.08992e-12
1.11687e-12
4.99135e-12
1.05025e-12
5.85939e-12
9.82119e-13
6.69162e-12
9.12229e-13
7.48516e-12
8.40365e-13
8.23857e-12
7.66403e-13
8.9494e-12
6.89922e-13
9.61547e-12
6.10572e-13
1.02345e-11
5.28041e-13
1.08051e-11
4.42164e-13
1.13254e-11
3.52906e-13
1.17934e-11
2.60332e-13
1.22079e-11
1.63555e-13
1.25671e-11
6.33519e-14
1.28702e-11
-4.0164e-14
1.31151e-11
-1.47231e-13
1.33015e-11
-2.5835e-13
1.34284e-11
-3.736e-13
1.34974e-11
-4.92804e-13
1.35093e-11
-6.16056e-13
1.3465e-11
-7.43298e-13
1.33654e-11
-8.739e-13
1.32136e-11
-1.00872e-12
1.30098e-11
-1.14645e-12
1.27547e-11
-1.28646e-12
1.24513e-11
-1.43019e-12
1.21006e-11
-1.57489e-12
1.17042e-11
-1.7205e-12
1.12653e-11
-1.8668e-12
1.07849e-11
-2.01283e-12
1.02653e-11
-2.158e-12
9.70919e-12
-2.30112e-12
9.117e-12
-2.44009e-12
8.49303e-12
-2.57744e-12
7.83792e-12
-2.70849e-12
7.15531e-12
-2.83539e-12
6.4476e-12
-2.95524e-12
5.7151e-12
-3.06636e-12
4.96217e-12
-3.17096e-12
4.18996e-12
-3.26532e-12
3.40064e-12
-3.3497e-12
2.59626e-12
-3.42328e-12
1.77835e-12
-3.48535e-12
9.49861e-13
-3.53636e-12
1.12526e-13
-3.57423e-12
-7.30764e-13
-3.59863e-12
-1.57563e-12
-3.60883e-12
-2.41784e-12
-3.60511e-12
-3.2534e-12
-3.5891e-12
-4.07923e-12
-3.56223e-12
-4.89235e-12
-3.52527e-12
-5.69032e-12
-3.47855e-12
-6.4707e-12
-3.42224e-12
-7.23103e-12
-3.35651e-12
-7.96874e-12
-3.28166e-12
-8.68152e-12
-3.19806e-12
-9.36695e-12
-3.10614e-12
-1.00224e-11
-3.00647e-12
-1.06464e-11
-2.89974e-12
-1.1236e-11
-2.7875e-12
-1.17889e-11
-2.66942e-12
-1.23029e-11
-2.54611e-12
-1.27764e-11
-2.41823e-12
-1.32077e-11
-2.28678e-12
-1.35952e-11
-2.15251e-12
-1.39375e-11
-2.01568e-12
-1.42324e-11
-1.8781e-12
-1.44789e-11
-1.73917e-12
-1.46763e-11
-1.59951e-12
-1.48239e-11
-1.46031e-12
-1.49214e-11
-1.32112e-12
-1.49667e-11
-1.18326e-12
-1.49593e-11
-1.04625e-12
-1.48987e-11
-9.10751e-13
-1.47841e-11
-7.77354e-13
-1.46151e-11
-6.46318e-13
-1.43912e-11
-5.18311e-13
-1.41121e-11
-3.93765e-13
-1.3775e-11
-2.73513e-13
-1.33846e-11
-1.57602e-13
-1.29408e-11
-4.59031e-14
-1.24443e-11
6.10176e-14
-1.18979e-11
1.64897e-13
-1.13027e-11
2.63942e-13
-1.06609e-11
3.60113e-13
-9.97358e-12
4.52254e-13
-9.24201e-12
5.40356e-13
-8.46911e-12
6.26775e-13
-7.6573e-12
7.11087e-13
-6.80722e-12
7.90904e-13
-5.92317e-12
8.71118e-13
-5.00552e-12
9.47283e-13
-4.05906e-12
1.02426e-12
-3.08543e-12
1.09882e-12
-2.08748e-12
1.1718e-12
-1.06883e-12
1.24495e-12
-3.26865e-14
1.31761e-12
1.01751e-12
1.38996e-12
2.0823e-12
1.45932e-12
3.15323e-12
1.53263e-12
4.22723e-12
1.60619e-12
5.29836e-12
1.6855e-12
6.35419e-12
1.78604e-12
7.36571e-12
1.95025e-12
8.26222e-12
2.2872e-12
8.8815e-12
3.03073e-12
8.91121e-12
4.55913e-12
7.89527e-12
7.19718e-12
5.49379e-12
1.04856e-11
2.17398e-12
1.19774e-11
7.06271e-12
-2.02543e-12
8.74803e-12
-5.04228e-12
1.46097e-11
-7.06865e-12
1.22501e-11
-7.69197e-12
7.65817e-12
-7.2727e-12
4.03195e-12
-6.2697e-12
1.94516e-12
-4.99702e-12
9.45313e-13
-3.61697e-12
5.10287e-13
-2.20043e-12
3.16962e-13
-7.72529e-13
2.12634e-13
6.46863e-13
1.48878e-13
2.05265e-12
9.7405e-14
3.44632e-12
4.50625e-14
4.81782e-12
3.5525e-15
6.16241e-12
-3.33551e-14
7.47623e-12
-6.66869e-14
8.7555e-12
-9.68484e-14
9.99659e-12
-1.2419e-13
1.11959e-11
-1.49074e-13
1.235e-11
-1.71945e-13
1.34555e-11
-1.93189e-13
1.45091e-11
-2.13216e-13
1.55079e-11
-2.32419e-13
1.64492e-11
-2.51259e-13
1.73299e-11
-2.70177e-13
1.81476e-11
-2.89588e-13
1.88996e-11
-3.09838e-13
1.95838e-11
-3.31247e-13
2.01983e-11
-3.54109e-13
2.07406e-11
-3.78704e-13
2.12091e-11
-4.05182e-13
2.16027e-11
-4.33702e-13
2.192e-11
-4.64544e-13
2.21601e-11
-4.98425e-13
2.23223e-11
-5.35681e-13
2.2406e-11
-5.76484e-13
2.24112e-11
-6.21221e-13
2.23383e-11
-6.70352e-13
2.21883e-11
-7.2388e-13
2.19596e-11
-7.80025e-13
2.1654e-11
-8.40857e-13
2.12735e-11
-9.05842e-13
2.08186e-11
-9.75263e-13
2.02895e-11
-1.04577e-12
1.96891e-11
-1.12003e-12
1.90191e-11
-1.19682e-12
1.82821e-11
-1.27582e-12
1.74817e-11
-1.35757e-12
1.66192e-11
-1.43853e-12
1.56969e-11
-1.51777e-12
1.47165e-11
-1.59699e-12
1.36834e-11
-1.67535e-12
1.26e-11
-1.75196e-12
1.1472e-11
-1.82722e-12
1.03017e-11
-1.89602e-12
9.08934e-12
-1.95857e-12
7.84121e-12
-2.01716e-12
6.56114e-12
-2.06959e-12
5.25334e-12
-2.11544e-12
3.92281e-12
-2.15479e-12
2.57231e-12
-2.18582e-12
1.20613e-12
-2.20801e-12
-1.70218e-13
-2.22224e-12
-1.5502e-12
-2.22881e-12
-2.92747e-12
-2.2278e-12
-4.29573e-12
-2.22081e-12
-5.64927e-12
-2.20865e-12
-6.98303e-12
-2.19147e-12
-8.29233e-12
-2.16922e-12
-9.57266e-12
-2.14187e-12
-1.08196e-11
-2.10951e-12
-1.20289e-11
-2.07238e-12
-1.31962e-11
-2.03066e-12
-1.43182e-11
-1.98411e-12
-1.53909e-11
-1.9338e-12
-1.64102e-11
-1.88034e-12
-1.73735e-11
-1.82421e-12
-1.82774e-11
-1.7654e-12
-1.91178e-11
-1.70577e-12
-1.98946e-11
-1.64131e-12
-2.06047e-11
-1.57663e-12
-2.12456e-11
-1.5116e-12
-2.18135e-11
-1.44773e-12
-2.23103e-11
-1.38129e-12
-2.27317e-11
-1.31774e-12
-2.30798e-11
-1.25141e-12
-2.33514e-11
-1.18866e-12
-2.3547e-11
-1.12541e-12
-2.36658e-11
-1.06444e-12
-2.37086e-11
-1.00345e-12
-2.36747e-11
-9.44638e-13
-2.35644e-11
-8.876e-13
-2.3378e-11
-8.32676e-13
-2.31161e-11
-7.802e-13
-2.2779e-11
-7.30816e-13
-2.23677e-11
-6.84755e-13
-2.18835e-11
-6.41725e-13
-2.13278e-11
-6.01645e-13
-2.07024e-11
-5.64292e-13
-2.00082e-11
-5.29225e-13
-1.92481e-11
-4.96202e-13
-1.84232e-11
-4.64715e-13
-1.75365e-11
-4.34444e-13
-1.65911e-11
-4.0494e-13
-1.55887e-11
-3.75596e-13
-1.45316e-11
-3.46029e-13
-1.34247e-11
-3.15938e-13
-1.22689e-11
-2.8466e-13
-1.10696e-11
-2.51962e-13
-9.82805e-12
-2.1727e-13
-8.54883e-12
-1.80374e-13
-7.23605e-12
-1.40935e-13
-5.89254e-12
-9.85286e-14
-4.52199e-12
-5.29011e-14
-3.12837e-12
-3.63147e-15
-1.72174e-12
5.27301e-14
-2.9703e-13
1.07958e-13
1.13136e-12
1.77841e-13
2.56551e-12
2.5138e-13
3.9856e-12
3.65984e-13
5.36683e-12
5.69061e-13
6.63607e-12
1.018e-12
7.6271e-12
2.03972e-12
8.0301e-12
4.15617e-12
7.37005e-12
7.85727e-12
5.26966e-12
1.2586e-11
2.1355e-12
1.51116e-11
9.19822e-12
-2.09886e-12
1.08469e-11
-5.19207e-12
1.77029e-11
-7.2405e-12
1.42986e-11
-7.82858e-12
8.24627e-12
-7.3412e-12
3.5446e-12
-6.2567e-12
8.60692e-13
-4.89283e-12
-4.1853e-13
-3.41764e-12
-9.64885e-13
-1.90506e-12
-1.19558e-12
-3.89289e-13
-1.30311e-12
1.12202e-12
-1.36241e-12
2.6211e-12
-1.40164e-12
4.09539e-12
-1.42921e-12
5.54573e-12
-1.44676e-12
6.96792e-12
-1.45552e-12
8.3575e-12
-1.45624e-12
9.71021e-12
-1.44952e-12
1.1022e-11
-1.43593e-12
1.22889e-11
-1.41601e-12
1.35074e-11
-1.39034e-12
1.46737e-11
-1.3595e-12
1.57846e-11
-1.32406e-12
1.68368e-11
-1.28462e-12
1.78274e-11
-1.24179e-12
1.87534e-11
-1.19617e-12
1.96122e-11
-1.14836e-12
2.04013e-11
-1.09891e-12
2.11185e-11
-1.04837e-12
2.17616e-11
-9.97273e-13
2.23291e-11
-9.46093e-13
2.28192e-11
-8.9529e-13
2.32308e-11
-8.45304e-13
2.35629e-11
-7.96574e-13
2.38142e-11
-7.49736e-13
2.39846e-11
-7.06034e-13
2.40733e-11
-6.65098e-13
2.408e-11
-6.27908e-13
2.40043e-11
-5.94672e-13
2.38459e-11
-5.65366e-13
2.36061e-11
-5.40219e-13
2.32854e-11
-5.20157e-13
2.28835e-11
-5.03894e-13
2.24014e-11
-4.93086e-13
2.18434e-11
-4.87802e-13
2.12084e-11
-4.85003e-13
2.04992e-11
-4.87572e-13
1.97182e-11
-4.94777e-13
1.88688e-11
-5.08176e-13
1.79525e-11
-5.22153e-13
1.69725e-11
-5.37706e-13
1.59321e-11
-5.56581e-13
1.48345e-11
-5.77746e-13
1.36832e-11
-6.00622e-13
1.24808e-11
-6.24738e-13
1.12322e-11
-6.47398e-13
9.94323e-12
-6.69554e-13
8.61599e-12
-6.89886e-13
7.25329e-12
-7.06852e-13
5.86019e-12
-7.22308e-13
4.44043e-12
-7.34984e-13
2.9991e-12
-7.44456e-13
1.54191e-12
-7.50783e-13
7.42831e-14
-7.54578e-13
-1.3978e-12
-7.56696e-13
-2.86734e-12
-7.58215e-13
-4.32803e-12
-7.60089e-13
-5.77391e-12
-7.62728e-13
-7.1994e-12
-7.65946e-13
-8.59926e-12
-7.69326e-13
-9.96853e-12
-7.7256e-13
-1.13024e-11
-7.75623e-13
-1.25954e-11
-7.79295e-13
-1.38414e-11
-7.84654e-13
-1.50417e-11
-7.83813e-13
-1.619e-11
-7.8543e-13
-1.72817e-11
-7.88588e-13
-1.83102e-11
-7.95689e-13
-1.92795e-11
-7.96065e-13
-2.01807e-11
-8.04479e-13
-2.10147e-11
-8.07274e-13
-2.17734e-11
-8.17977e-13
-2.24599e-11
-8.24995e-13
-2.30726e-11
-8.35043e-13
-2.3605e-11
-8.4879e-13
-2.4061e-11
-8.61728e-13
-2.44356e-11
-8.7678e-13
-2.4732e-11
-8.92207e-13
-2.49469e-11
-9.10459e-13
-2.50813e-11
-9.30045e-13
-2.51339e-11
-9.50789e-13
-2.51055e-11
-9.73049e-13
-2.49966e-11
-9.96397e-13
-2.4808e-11
-1.02131e-12
-2.45402e-11
-1.04793e-12
-2.41938e-11
-1.07713e-12
-2.377e-11
-1.10862e-12
-2.32695e-11
-1.1421e-12
-2.26938e-11
-1.17734e-12
-2.20442e-11
-1.21384e-12
-2.13224e-11
-1.251e-12
-2.05304e-11
-1.28822e-12
-1.96702e-11
-1.32485e-12
-1.87444e-11
-1.36024e-12
-1.77555e-11
-1.39374e-12
-1.67064e-11
-1.4247e-12
-1.55999e-11
-1.4525e-12
-1.44392e-11
-1.47652e-12
-1.32277e-11
-1.49617e-12
-1.19688e-11
-1.51087e-12
-1.06659e-11
-1.52007e-12
-9.32298e-12
-1.52327e-12
-7.94389e-12
-1.51999e-12
-6.53264e-12
-1.50974e-12
-5.09343e-12
-1.49207e-12
-3.6305e-12
-1.46652e-12
-2.14525e-12
-1.43249e-12
-6.47663e-13
-1.38959e-12
8.64664e-13
-1.33445e-12
2.37575e-12
-1.25967e-12
3.8794e-12
-1.13763e-12
5.34095e-12
-8.92458e-13
6.68734e-12
-3.28359e-13
7.75279e-12
9.74308e-13
8.20283e-12
3.70616e-12
7.5639e-12
8.49624e-12
5.43206e-12
1.47179e-11
2.21256e-12
1.83311e-11
1.14108e-11
-2.20214e-12
1.30491e-11
-5.44428e-12
2.09451e-11
-7.59448e-12
1.64488e-11
-8.22093e-12
8.87274e-12
-7.72329e-12
3.04699e-12
-6.59957e-12
-2.62999e-13
-5.19032e-12
-1.82775e-12
-3.66634e-12
-2.48884e-12
-2.10495e-12
-2.75695e-12
-5.37466e-13
-2.87057e-12
1.02279e-12
-2.92264e-12
2.56739e-12
-2.94621e-12
4.09021e-12
-2.95201e-12
5.58682e-12
-2.94334e-12
7.05286e-12
-2.92153e-12
8.48401e-12
-2.88736e-12
9.87604e-12
-2.84153e-12
1.12249e-11
-2.78473e-12
1.25265e-11
-2.71764e-12
1.37772e-11
-2.64101e-12
1.49733e-11
-2.55557e-12
1.61114e-11
-2.46211e-12
1.71882e-11
-2.36139e-12
1.82006e-11
-2.25422e-12
1.91459e-11
-2.1414e-12
2.00213e-11
-2.02372e-12
2.08244e-11
-1.90198e-12
2.1553e-11
-1.77695e-12
2.22051e-11
-1.64941e-12
2.27792e-11
-1.52009e-12
2.32736e-11
-1.38973e-12
2.36874e-11
-1.25902e-12
2.40194e-11
-1.12861e-12
2.4269e-11
-9.99281e-13
2.44357e-11
-8.72676e-13
2.4519e-11
-7.4839e-13
2.45191e-11
-6.28009e-13
2.44353e-11
-5.10767e-13
2.42683e-11
-3.98396e-13
2.40186e-11
-2.90482e-13
2.36873e-11
-1.88847e-13
2.32744e-11
-9.08965e-14
2.27812e-11
1.71883e-16
2.22088e-11
8.46352e-14
2.15614e-11
1.62402e-13
2.08403e-11
2.33507e-13
2.00476e-11
2.9796e-13
1.91836e-11
3.55882e-13
1.82536e-11
4.07918e-13
1.72616e-11
4.5429e-13
1.621e-11
4.95076e-13
1.51017e-11
5.30602e-13
1.39398e-11
5.6131e-13
1.27273e-11
5.87769e-13
1.14693e-11
6.10701e-13
1.01691e-11
6.30597e-13
8.83125e-12
6.48043e-13
7.46086e-12
6.63577e-13
6.06112e-12
6.77463e-13
4.63615e-12
6.90027e-13
3.19041e-12
7.01315e-13
1.72875e-12
7.10921e-13
2.56309e-13
7.17896e-13
-1.22082e-12
7.20472e-13
-2.69634e-12
7.1734e-13
-4.16394e-12
7.07545e-13
-5.61749e-12
6.90858e-13
-7.05123e-12
6.67829e-13
-8.45978e-12
6.39262e-13
-9.83808e-12
6.05782e-13
-1.11814e-11
5.67732e-13
-1.24859e-11
5.25258e-13
-1.37491e-11
4.78559e-13
-1.4961e-11
4.28178e-13
-1.612e-11
3.73579e-13
-1.72232e-11
3.14657e-13
-1.82704e-11
2.5149e-13
-1.92511e-11
1.84711e-13
-2.01693e-11
1.13741e-13
-2.10157e-11
3.91353e-14
-2.17936e-11
-3.99801e-14
-2.24951e-11
-1.23446e-13
-2.31219e-11
-2.08229e-13
-2.367e-11
-3.00662e-13
-2.41425e-11
-3.89154e-13
-2.45341e-11
-4.85171e-13
-2.48419e-11
-5.84328e-13
-2.50704e-11
-6.81973e-13
-2.52162e-11
-7.84241e-13
-2.52805e-11
-8.86377e-13
-2.52631e-11
-9.9041e-13
-2.51637e-11
-1.09579e-12
-2.49828e-11
-1.20222e-12
-2.47207e-11
-1.30995e-12
-2.43783e-11
-1.41951e-12
-2.39562e-11
-1.53067e-12
-2.34554e-11
-1.64284e-12
-2.28771e-11
-1.75559e-12
-2.22228e-11
-1.86816e-12
-2.1494e-11
-1.97972e-12
-2.06928e-11
-2.08939e-12
-1.98214e-11
-2.19627e-12
-1.88821e-11
-2.2995e-12
-1.78776e-11
-2.39821e-12
-1.68107e-11
-2.49157e-12
-1.56844e-11
-2.57874e-12
-1.45019e-11
-2.65894e-12
-1.32667e-11
-2.73139e-12
-1.19822e-11
-2.79535e-12
-1.06521e-11
-2.85014e-12
-9.28021e-12
-2.89509e-12
-7.87058e-12
-2.92958e-12
-6.42726e-12
-2.95302e-12
-4.95441e-12
-2.96488e-12
-3.45627e-12
-2.96462e-12
-1.93709e-12
-2.95163e-12
-4.0189e-13
-2.92475e-12
1.1443e-12
-2.8806e-12
2.6934e-12
-2.80873e-12
4.23201e-12
-2.6762e-12
5.72778e-12
-2.38819e-12
7.10543e-12
-1.70597e-12
8.18995e-12
-1.10169e-13
8.64118e-12
3.25496e-12
7.94798e-12
9.18948e-12
5.69962e-12
1.69663e-11
2.32066e-12
2.17101e-11
1.37314e-11
-2.32328e-12
1.53724e-11
-5.74552e-12
2.43673e-11
-8.02227e-12
1.87256e-11
-8.70502e-12
9.55552e-12
-8.20475e-12
2.54674e-12
-7.04167e-12
-1.42605e-12
-5.5766e-12
-3.29279e-12
-3.9916e-12
-4.07382e-12
-2.36713e-12
-4.38139e-12
-7.37566e-13
-4.50011e-12
8.83111e-13
-4.54329e-12
2.48669e-12
-4.54976e-12
4.06724e-12
-4.53253e-12
5.61972e-12
-4.4958e-12
7.13946e-12
-4.44123e-12
8.62191e-12
-4.36979e-12
1.00627e-11
-4.2823e-12
1.14576e-11
-4.1796e-12
1.28025e-11
-4.06255e-12
1.40936e-11
-3.93205e-12
1.53271e-11
-3.78904e-12
1.64995e-11
-3.63447e-12
1.76075e-11
-3.46934e-12
1.86479e-11
-3.29464e-12
1.96179e-11
-3.1114e-12
2.05149e-11
-2.92065e-12
2.13364e-11
-2.72341e-12
2.20802e-11
-2.52072e-12
2.27444e-11
-2.3136e-12
2.33274e-11
-2.10306e-12
2.38278e-11
-1.89009e-12
2.42444e-11
-1.67566e-12
2.45765e-11
-1.46068e-12
2.48232e-11
-1.24586e-12
2.49846e-11
-1.03404e-12
2.50603e-11
-8.24104e-13
2.50501e-11
-6.17778e-13
2.49557e-11
-4.16365e-13
2.47767e-11
-2.19333e-13
2.45123e-11
-2.61028e-14
2.41629e-11
1.60662e-13
2.37324e-11
3.39587e-13
2.32218e-11
5.10774e-13
2.26328e-11
6.73668e-13
2.19674e-11
8.27859e-13
2.12279e-11
9.73073e-13
2.04167e-11
1.10915e-12
1.95366e-11
1.23603e-12
1.85908e-11
1.35382e-12
1.75825e-11
1.4626e-12
1.6515e-11
1.56254e-12
1.53918e-11
1.65385e-12
1.42163e-11
1.73686e-12
1.29921e-11
1.81197e-12
1.17232e-11
1.87965e-12
1.04135e-11
1.94036e-12
9.06699e-12
1.99459e-12
7.68782e-12
2.04278e-12
6.28e-12
2.08532e-12
4.84766e-12
2.12241e-12
3.39512e-12
2.15389e-12
1.92701e-12
2.17907e-12
4.48437e-13
2.1965e-12
-1.03497e-12
2.20392e-12
-2.51719e-12
2.19959e-12
-3.99206e-12
2.18245e-12
-5.45352e-12
2.15235e-12
-6.89585e-12
2.1102e-12
-8.31372e-12
2.05717e-12
-9.70214e-12
1.99424e-12
-1.10564e-11
1.92205e-12
-1.23721e-11
1.84099e-12
-1.36449e-11
1.75138e-12
-1.48702e-11
1.65348e-12
-1.6044e-11
1.54748e-12
-1.71629e-11
1.43356e-12
-1.82233e-11
1.31198e-12
-1.92216e-11
1.18304e-12
-2.01548e-11
1.04698e-12
-2.10198e-11
9.04113e-13
-2.18144e-11
7.54697e-13
-2.2537e-11
5.99157e-13
-2.31833e-11
4.38101e-13
-2.37556e-11
2.71709e-13
-2.42458e-11
1.01047e-13
-2.46532e-11
-7.77143e-14
-2.49823e-11
-2.55149e-13
-2.52252e-11
-4.39011e-13
-2.53881e-11
-6.21301e-13
-2.54673e-11
-8.0723e-13
-2.54631e-11
-9.9455e-13
-2.53751e-11
-1.18376e-12
-2.52038e-11
-1.37349e-12
-2.49491e-11
-1.56458e-12
-2.46113e-11
-1.75725e-12
-2.41912e-11
-1.95079e-12
-2.36895e-11
-2.14442e-12
-2.31076e-11
-2.33744e-12
-2.24469e-11
-2.52885e-12
-2.17091e-11
-2.71753e-12
-2.08961e-11
-2.90235e-12
-2.00101e-11
-3.08219e-12
-1.90537e-11
-3.25592e-12
-1.80293e-11
-3.42248e-12
-1.69401e-11
-3.58081e-12
-1.57889e-11
-3.72987e-12
-1.45791e-11
-3.86868e-12
-1.33142e-11
-3.99629e-12
-1.19977e-11
-4.11178e-12
-1.06335e-11
-4.21431e-12
-9.22552e-12
-4.30304e-12
-7.77783e-12
-4.37723e-12
-6.29465e-12
-4.43616e-12
-4.78032e-12
-4.47917e-12
-3.23928e-12
-4.50562e-12
-1.67612e-12
-4.51475e-12
-9.57369e-14
-4.5051e-12
1.49602e-12
-4.47232e-12
3.09152e-12
-4.40419e-12
4.6758e-12
-4.26044e-12
6.21629e-12
-3.92865e-12
7.63049e-12
-3.12013e-12
8.737e-12
-1.21664e-12
9.17347e-12
2.81852e-12
8.41073e-12
9.95226e-12
6.01904e-12
1.9358e-11
2.44756e-12
2.52816e-11
1.6179e-11
-2.46533e-12
1.78377e-11
-6.09785e-12
2.79999e-11
-8.52355e-12
2.11513e-11
-9.25659e-12
1.02886e-11
-8.7473e-12
2.03747e-12
-7.53341e-12
-2.63991e-12
-5.99732e-12
-4.82886e-12
-4.33302e-12
-5.73809e-12
-2.62717e-12
-6.08721e-12
-9.15704e-13
-6.21155e-12
7.85533e-13
-6.2445e-12
2.46769e-12
-6.2319e-12
4.12469e-12
-6.1895e-12
5.75123e-12
-6.12232e-12
7.34238e-12
-6.03235e-12
8.89336e-12
-5.92075e-12
1.03996e-11
-5.78852e-12
1.18567e-11
-5.63665e-12
1.32604e-11
-5.4662e-12
1.46066e-11
-5.27824e-12
1.58915e-11
-5.07393e-12
1.71115e-11
-4.85442e-12
1.82631e-11
-4.62092e-12
1.93431e-11
-4.37467e-12
2.03487e-11
-4.11694e-12
2.12771e-11
-3.84899e-12
2.21258e-11
-3.57211e-12
2.28927e-11
-3.2876e-12
2.35759e-11
-2.99676e-12
2.41737e-11
-2.70087e-12
2.46849e-11
-2.40122e-12
2.51083e-11
-2.09906e-12
2.54432e-11
-1.79555e-12
2.56891e-11
-1.49178e-12
2.5846e-11
-1.19082e-12
2.5914e-11
-8.92115e-13
2.58933e-11
-5.97036e-13
2.57842e-11
-3.07208e-13
2.55868e-11
-2.19195e-14
2.53028e-11
2.57874e-13
2.49341e-11
5.29411e-13
2.44815e-11
7.92245e-13
2.39468e-11
1.04545e-12
2.33323e-11
1.28822e-12
2.26403e-11
1.5199e-12
2.18734e-11
1.73999e-12
2.10345e-11
1.94811e-12
2.01265e-11
2.14403e-12
1.91528e-11
2.3276e-12
1.81166e-11
2.49878e-12
1.70216e-11
2.65762e-12
1.58712e-11
2.80425e-12
1.46692e-11
2.9389e-12
1.34194e-11
3.06188e-12
1.21255e-11
3.17357e-12
1.07915e-11
3.27439e-12
9.42132e-12
3.36478e-12
8.01895e-12
3.44519e-12
6.58834e-12
3.51597e-12
5.13351e-12
3.57727e-12
3.65867e-12
3.62877e-12
2.16834e-12
3.66943e-12
6.67459e-13
3.69742e-12
-8.38445e-13
3.70986e-12
-2.34335e-12
3.70454e-12
-3.84111e-12
3.68024e-12
-5.32565e-12
3.63693e-12
-6.79125e-12
3.57583e-12
-8.23259e-12
3.49854e-12
-9.64474e-12
3.40643e-12
-1.1023e-11
3.30039e-12
-1.2363e-11
3.18101e-12
-1.36604e-11
3.04877e-12
-1.49109e-11
2.90405e-12
-1.61107e-11
2.74725e-12
-1.72558e-11
2.57876e-12
-1.83428e-11
2.39899e-12
-1.93681e-11
2.20841e-12
-2.03286e-11
2.00749e-12
-2.12212e-11
1.79672e-12
-2.20431e-11
1.57666e-12
-2.27918e-11
1.3479e-12
-2.34647e-11
1.11107e-12
-2.40598e-11
8.66807e-13
-2.45745e-11
6.15812e-13
-2.50108e-11
3.58664e-13
-2.53627e-11
9.67016e-14
-2.5631e-11
-1.7065e-13
-2.58105e-11
-4.41777e-13
-2.59072e-11
-7.10453e-13
-2.59172e-11
-9.84498e-13
-2.58422e-11
-1.2587e-12
-2.56806e-11
-1.53512e-12
-2.54325e-11
-1.81258e-12
-2.50976e-11
-2.09209e-12
-2.46768e-11
-2.37157e-12
-2.41709e-11
-2.65026e-12
-2.35812e-11
-2.92718e-12
-2.29089e-11
-3.20104e-12
-2.2156e-11
-3.47044e-12
-2.13243e-11
-3.73399e-12
-2.04162e-11
-3.99031e-12
-1.9434e-11
-4.23804e-12
-1.83806e-11
-4.47586e-12
-1.72589e-11
-4.7025e-12
-1.6072e-11
-4.91671e-12
-1.48233e-11
-5.1173e-12
-1.35165e-11
-5.30311e-12
-1.21551e-11
-5.47305e-12
-1.07433e-11
-5.62609e-12
-9.28509e-12
-5.76124e-12
-7.7847e-12
-5.87758e-12
-6.24654e-12
-5.97428e-12
-4.67515e-12
-6.05053e-12
-3.07518e-12
-6.10555e-12
-1.45148e-12
-6.13841e-12
1.9083e-13
-6.14737e-12
1.84632e-12
-6.12777e-12
3.50519e-12
-6.06301e-12
5.15354e-12
-5.90875e-12
6.75432e-12
-5.52939e-12
8.22145e-12
-4.58722e-12
9.35983e-12
-2.35498e-12
9.78434e-12
2.39405e-12
8.94114e-12
1.07955e-11
6.38727e-12
2.19119e-11
2.59403e-12
2.90749e-11
1.87731e-11
-2.62804e-12
2.04658e-11
-6.49983e-12
3.18717e-11
-9.09181e-12
2.37433e-11
-9.88846e-12
1.10853e-11
-9.3522e-12
1.50123e-12
-8.07279e-12
-3.9193e-12
-6.44661e-12
-6.45502e-12
-4.68211e-12
-7.50257e-12
-2.8729e-12
-7.8964e-12
-1.05807e-12
-8.02635e-12
7.44461e-13
-8.04701e-12
2.52604e-12
-8.01345e-12
4.27998e-12
-7.94342e-12
6.00062e-12
-7.84293e-12
7.68266e-12
-7.71438e-12
9.32109e-12
-7.55916e-12
1.09111e-11
-7.37846e-12
1.24479e-11
-7.17348e-12
1.39272e-11
-6.94545e-12
1.53447e-11
-6.69569e-12
1.66963e-11
-6.42552e-12
1.79783e-11
-6.13637e-12
1.91871e-11
-5.82968e-12
2.03193e-11
-5.50693e-12
2.13721e-11
-5.16965e-12
2.23425e-11
-4.81938e-12
2.32281e-11
-4.45768e-12
2.40266e-11
-4.08614e-12
2.47363e-11
-3.70635e-12
2.53553e-11
-3.31989e-12
2.58825e-11
-2.92835e-12
2.63167e-11
-2.53329e-12
2.66574e-11
-2.1362e-12
2.69037e-11
-1.73807e-12
2.70566e-11
-1.34363e-12
2.71157e-11
-9.5123e-13
2.7082e-11
-5.63354e-13
2.69567e-11
-1.81824e-13
2.67389e-11
1.95863e-13
2.6432e-11
5.64855e-13
2.60367e-11
9.2475e-13
2.55547e-11
1.27421e-12
2.49883e-11
1.61194e-12
2.43397e-11
1.93681e-12
2.36118e-11
2.24789e-12
2.28073e-11
2.54445e-12
2.19296e-11
2.8259e-12
2.09818e-11
3.09181e-12
1.99676e-11
3.34188e-12
1.88905e-11
3.57594e-12
1.77542e-11
3.79394e-12
1.65625e-11
3.99594e-12
1.53194e-11
4.18209e-12
1.40286e-11
4.35268e-12
1.26941e-11
4.50806e-12
1.13199e-11
4.64863e-12
9.90987e-12
4.77488e-12
8.46783e-12
4.88726e-12
6.9977e-12
4.98614e-12
5.50338e-12
5.07162e-12
3.98894e-12
5.14324e-12
2.45878e-12
5.19962e-12
9.17884e-13
5.23835e-12
-6.28202e-13
5.25598e-12
-2.17341e-12
5.24978e-12
-3.71142e-12
5.21829e-12
-5.23603e-12
5.16158e-12
-6.74145e-12
5.08128e-12
-8.22238e-12
4.97951e-12
-9.67394e-12
4.85802e-12
-1.10915e-11
4.71801e-12
-1.24707e-11
4.56025e-12
-1.38073e-11
4.38536e-12
-1.50971e-11
4.19387e-12
-1.63361e-11
3.9863e-12
-1.75205e-11
3.7632e-12
-1.86466e-11
3.52513e-12
-1.97108e-11
3.27271e-12
-2.07099e-11
3.00658e-12
-2.16405e-11
2.72742e-12
-2.24998e-11
2.43597e-12
-2.32849e-11
2.13301e-12
-2.39931e-11
1.81937e-12
-2.46222e-11
1.49592e-12
-2.517e-11
1.1636e-12
-2.56347e-11
8.23418e-13
-2.60144e-11
4.76471e-13
-2.63087e-11
1.23686e-13
-2.65159e-11
-2.34565e-13
-2.66324e-11
-5.93892e-13
-2.66614e-11
-9.55491e-13
-2.65998e-11
-1.32027e-12
-2.64478e-11
-1.68709e-12
-2.62047e-11
-2.05555e-12
-2.58711e-11
-2.42572e-12
-2.54469e-11
-2.79566e-12
-2.49332e-11
-3.16397e-12
-2.4331e-11
-3.52937e-12
-2.36417e-11
-3.89024e-12
-2.28672e-11
-4.24492e-12
-2.20095e-11
-4.59171e-12
-2.10708e-11
-4.92896e-12
-2.00537e-11
-5.25507e-12
-1.8961e-11
-5.56847e-12
-1.77959e-11
-5.86762e-12
-1.65615e-11
-6.15107e-12
-1.52614e-11
-6.41738e-12
-1.38992e-11
-6.66521e-12
-1.2479e-11
-6.89325e-12
-1.10048e-11
-7.10027e-12
-9.48083e-12
-7.28513e-12
-7.91165e-12
-7.44672e-12
-6.30185e-12
-7.58404e-12
-4.6562e-12
-7.69614e-12
-2.97961e-12
-7.7821e-12
-1.2772e-12
-7.84078e-12
4.45553e-13
-7.87008e-12
2.18145e-12
-7.86363e-12
3.92419e-12
-7.80571e-12
5.65408e-12
-7.63861e-12
7.33284e-12
-7.2081e-12
8.867e-12
-6.12134e-12
1.00475e-11
-3.53539e-12
1.04719e-11
1.96967e-12
9.55579e-12
1.17116e-11
6.8134e-12
2.46544e-11
2.7648e-12
3.31235e-11
2.15379e-11
-2.81374e-12
2.32796e-11
-6.95592e-12
3.60139e-11
-9.72943e-12
2.65168e-11
-1.05903e-11
1.19461e-11
-1.00323e-11
9.43312e-13
-8.6655e-12
-5.2861e-12
-6.92663e-12
-8.19386e-12
-5.03886e-12
-9.39033e-12
-3.10344e-12
-9.8318e-12
-1.16291e-12
-9.96686e-12
7.64693e-13
-9.9746e-12
2.66842e-12
-9.91715e-12
4.5413e-12
-9.81628e-12
6.37735e-12
-9.67897e-12
8.171e-12
-9.508e-12
9.91689e-12
-9.30502e-12
1.16099e-11
-9.07143e-12
1.32451e-11
-8.80863e-12
1.48177e-11
-8.51807e-12
1.63233e-11
-8.20128e-12
1.77577e-11
-7.85985e-12