/*--------------------------------*- C++ -*----------------------------------*\
| =========                 |                                                 |
| \\      /  F ield         | OpenFOAM: The Open Source CFD Toolbox           |
|  \\    /   O peration     | Version:  2212                                  |
|   \\  /    A nd           | Website:  www.openfoam.com                      |
|    \\/     M anipulation  |                                                 |
\*---------------------------------------------------------------------------*/
FoamFile
{
    version     2.0;
    format      ascii;
    arch        "LSB;label=64;scalar=64";
    class       volVectorField;
    location    "0.28";
    object      U;
}
// * * * * * * * * * * * * * * * * * * * * * * * * * * * * * * * * * * * * * //

dimensions      [0 1 -1 0 0 0 0];

internalField   nonuniform List<vector> 
32768
(
(-5.90095e-06 1.73441e-05 0)
(-3.44808e-05 3.29997e-05 0)
(-7.11367e-05 3.56933e-05 0)
(-0.000104149 3.37527e-05 0)
(-0.000131495 3.14721e-05 0)
(-0.000154943 2.99474e-05 0)
(-0.000176361 2.90451e-05 0)
(-0.000196795 2.84457e-05 0)
(-0.000216675 2.79375e-05 0)
(-0.000236133 2.74209e-05 0)
(-0.000255185 2.68594e-05 0)
(-0.000273809 2.62416e-05 0)
(-0.000291972 2.55664e-05 0)
(-0.000309639 2.48356e-05 0)
(-0.000326775 2.40509e-05 0)
(-0.000343346 2.32119e-05 0)
(-0.000359319 2.23199e-05 0)
(-0.000374661 2.13754e-05 0)
(-0.000389334 2.03753e-05 0)
(-0.000403305 1.93294e-05 0)
(-0.000416544 1.82332e-05 0)
(-0.000429016 1.70889e-05 0)
(-0.000440686 1.58896e-05 0)
(-0.000451514 1.46435e-05 0)
(-0.000461469 1.3352e-05 0)
(-0.000470518 1.20184e-05 0)
(-0.000478629 1.06376e-05 0)
(-0.000485765 9.21112e-06 0)
(-0.00049189 7.74123e-06 0)
(-0.000496971 6.22823e-06 0)
(-0.000500974 4.67182e-06 0)
(-0.000503859 3.06909e-06 0)
(-0.000505592 1.43867e-06 0)
(-0.000506152 -2.23215e-07 0)
(-0.0005055 -1.90832e-06 0)
(-0.000503625 -3.60313e-06 0)
(-0.000500522 -5.29821e-06 0)
(-0.000496183 -6.98679e-06 0)
(-0.000490603 -8.66793e-06 0)
(-0.000483775 -1.03486e-05 0)
(-0.000475702 -1.20116e-05 0)
(-0.000466392 -1.36549e-05 0)
(-0.000455845 -1.52771e-05 0)
(-0.000444071 -1.68765e-05 0)
(-0.000431087 -1.84475e-05 0)
(-0.0004169 -1.99896e-05 0)
(-0.000401534 -2.14869e-05 0)
(-0.000385021 -2.29398e-05 0)
(-0.000367384 -2.43425e-05 0)
(-0.000348657 -2.56882e-05 0)
(-0.000328889 -2.69766e-05 0)
(-0.000308121 -2.81959e-05 0)
(-0.000286403 -2.93459e-05 0)
(-0.000263787 -3.04236e-05 0)
(-0.000240335 -3.14164e-05 0)
(-0.000216112 -3.23239e-05 0)
(-0.000191184 -3.31437e-05 0)
(-0.000165622 -3.38716e-05 0)
(-0.000139503 -3.45036e-05 0)
(-0.000112903 -3.50369e-05 0)
(-8.58988e-05 -3.54704e-05 0)
(-5.85733e-05 -3.58011e-05 0)
(-3.10235e-05 -3.60184e-05 0)
(-3.35213e-06 -3.61046e-05 0)
(2.43568e-05 -3.60535e-05 0)
(5.19523e-05 -3.58784e-05 0)
(7.93643e-05 -3.55967e-05 0)
(0.000106506 -3.52184e-05 0)
(0.000133305 -3.4745e-05 0)
(0.000159688 -3.41788e-05 0)
(0.000185581 -3.35197e-05 0)
(0.000210912 -3.27686e-05 0)
(0.000235611 -3.1927e-05 0)
(0.00025961 -3.09997e-05 0)
(0.000282847 -2.99898e-05 0)
(0.000305261 -2.8898e-05 0)
(0.000326782 -2.77329e-05 0)
(0.00034736 -2.65003e-05 0)
(0.000366953 -2.5201e-05 0)
(0.000385516 -2.38412e-05 0)
(0.000403006 -2.24272e-05 0)
(0.000419385 -2.09639e-05 0)
(0.000434624 -1.94557e-05 0)
(0.000448696 -1.79074e-05 0)
(0.00046158 -1.63252e-05 0)
(0.000473259 -1.4717e-05 0)
(0.000483709 -1.30822e-05 0)
(0.000492916 -1.14213e-05 0)
(0.000500879 -9.74501e-06 0)
(0.000507598 -8.05633e-06 0)
(0.000513064 -6.35719e-06 0)
(0.000517276 -4.64899e-06 0)
(0.000520233 -2.93333e-06 0)
(0.000521939 -1.21381e-06 0)
(0.0005224 5.00221e-07 0)
(0.000521614 2.19338e-06 0)
(0.000519624 3.85806e-06 0)
(0.000516465 5.47229e-06 0)
(0.00051218 7.0415e-06 0)
(0.000506807 8.56753e-06 0)
(0.00050038 1.00523e-05 0)
(0.000492934 1.14848e-05 0)
(0.000484504 1.28687e-05 0)
(0.000475121 1.42088e-05 0)
(0.000464821 1.55065e-05 0)
(0.000453643 1.67602e-05 0)
(0.000441617 1.79703e-05 0)
(0.000428776 1.91279e-05 0)
(0.000415155 2.0236e-05 0)
(0.000400787 2.12936e-05 0)
(0.000385706 2.23003e-05 0)
(0.000369943 2.32591e-05 0)
(0.00035353 2.41643e-05 0)
(0.000336505 2.50153e-05 0)
(0.000318901 2.58115e-05 0)
(0.000300748 2.65571e-05 0)
(0.000282083 2.72435e-05 0)
(0.000262941 2.78717e-05 0)
(0.000243357 2.84442e-05 0)
(0.000223352 2.89714e-05 0)
(0.00020291 2.94901e-05 0)
(0.000181899 3.01014e-05 0)
(0.000159882 3.10213e-05 0)
(0.000135802 3.2578e-05 0)
(0.000107748 3.49222e-05 0)
(7.38633e-05 3.69755e-05 0)
(3.61209e-05 3.43749e-05 0)
(6.34626e-06 1.83681e-05 0)
(-4.56194e-06 5.81308e-05 0)
(-3.5259e-05 0.000107928 0)
(-6.74805e-05 0.000106551 0)
(-9.07303e-05 8.78286e-05 0)
(-0.000104515 7.1119e-05 0)
(-0.000112201 6.1007e-05 0)
(-0.000116818 5.58651e-05 0)
(-0.000120079 5.32986e-05 0)
(-0.000122755 5.17805e-05 0)
(-0.00012514 5.05896e-05 0)
(-0.000127347 4.94429e-05 0)
(-0.000129415 4.8243e-05 0)
(-0.00013136 4.69709e-05 0)
(-0.000133188 4.56165e-05 0)
(-0.000134906 4.41821e-05 0)
(-0.000136521 4.26645e-05 0)
(-0.00013804 4.1063e-05 0)
(-0.000139476 3.93775e-05 0)
(-0.0001408 3.76069e-05 0)
(-0.00014202 3.57493e-05 0)
(-0.00014316 3.38037e-05 0)
(-0.000144227 3.17694e-05 0)
(-0.000145199 2.96459e-05 0)
(-0.000146048 2.74316e-05 0)
(-0.000146782 2.51248e-05 0)
(-0.000147416 2.27237e-05 0)
(-0.000147952 2.02273e-05 0)
(-0.000148362 1.76344e-05 0)
(-0.000148644 1.49437e-05 0)
(-0.000148801 1.21535e-05 0)
(-0.000148842 9.26487e-06 0)
(-0.000148712 6.28158e-06 0)
(-0.000148399 3.20822e-06 0)
(-0.00014794 5.3507e-08 0)
(-0.000147319 -3.16535e-06 0)
(-0.000146517 -6.43162e-06 0)
(-0.000145517 -9.73328e-06 0)
(-0.000144306 -1.30619e-05 0)
(-0.000142879 -1.64121e-05 0)
(-0.000141177 -1.97813e-05 0)
(-0.000139181 -2.31633e-05 0)
(-0.00013692 -2.65484e-05 0)
(-0.000134369 -2.99281e-05 0)
(-0.000131513 -3.32929e-05 0)
(-0.000128359 -3.66296e-05 0)
(-0.000124859 -3.99248e-05 0)
(-0.000121012 -4.31673e-05 0)
(-0.000116855 -4.63411e-05 0)
(-0.000112346 -4.94301e-05 0)
(-0.000107499 -5.24232e-05 0)
(-0.000102326 -5.53061e-05 0)
(-9.68288e-05 -5.80617e-05 0)
(-9.10275e-05 -6.06765e-05 0)
(-8.49044e-05 -6.31353e-05 0)
(-7.84822e-05 -6.54243e-05 0)
(-7.1807e-05 -6.75313e-05 0)
(-6.4882e-05 -6.94428e-05 0)
(-5.77207e-05 -7.11487e-05 0)
(-5.03566e-05 -7.26405e-05 0)
(-4.28205e-05 -7.39097e-05 0)
(-3.51362e-05 -7.49484e-05 0)
(-2.73328e-05 -7.57404e-05 0)
(-1.94515e-05 -7.62568e-05 0)
(-1.15379e-05 -7.64577e-05 0)
(-3.61351e-06 -7.63391e-05 0)
(4.29762e-06 -7.59329e-05 0)
(1.21552e-05 -7.52828e-05 0)
(1.99289e-05 -7.44147e-05 0)
(2.76006e-05 -7.33391e-05 0)
(3.51463e-05 -7.20596e-05 0)
(4.25429e-05 -7.05772e-05 0)
(4.97687e-05 -6.88954e-05 0)
(5.67974e-05 -6.70196e-05 0)
(6.36138e-05 -6.49581e-05 0)
(7.02214e-05 -6.27218e-05 0)
(7.65892e-05 -6.03239e-05 0)
(8.26675e-05 -5.77766e-05 0)
(8.84641e-05 -5.50883e-05 0)
(9.39951e-05 -5.22719e-05 0)
(9.92432e-05 -4.93421e-05 0)
(0.000104196 -4.63129e-05 0)
(0.000108851 -4.31976e-05 0)
(0.000113206 -4.00095e-05 0)
(0.000117261 -3.67618e-05 0)
(0.000121022 -3.34666e-05 0)
(0.000124504 -3.01367e-05 0)
(0.000127696 -2.67826e-05 0)
(0.000130571 -2.34093e-05 0)
(0.000133158 -2.00252e-05 0)
(0.000135493 -1.66382e-05 0)
(0.000137574 -1.32543e-05 0)
(0.000139407 -9.87805e-06 0)
(0.000141004 -6.51512e-06 0)
(0.00014238 -3.17563e-06 0)
(0.000143557 1.21591e-07 0)
(0.000144579 3.34898e-06 0)
(0.00014537 6.4845e-06 0)
(0.00014596 9.51602e-06 0)
(0.000146412 1.244e-05 0)
(0.000146721 1.52589e-05 0)
(0.000146865 1.79748e-05 0)
(0.000146851 2.05912e-05 0)
(0.000146711 2.31106e-05 0)
(0.000146442 2.55371e-05 0)
(0.000146045 2.78755e-05 0)
(0.000145538 3.01257e-05 0)
(0.000144906 3.22863e-05 0)
(0.00014415 3.43603e-05 0)
(0.000143289 3.63473e-05 0)
(0.000142316 3.825e-05 0)
(0.000141242 4.00674e-05 0)
(0.000140044 4.18002e-05 0)
(0.000138713 4.34511e-05 0)
(0.000137266 4.50195e-05 0)
(0.000135706 4.65044e-05 0)
(0.000134006 4.79205e-05 0)
(0.000132154 4.9244e-05 0)
(0.000130166 5.04923e-05 0)
(0.00012802 5.16921e-05 0)
(0.000125675 5.29356e-05 0)
(0.000123024 5.4507e-05 0)
(0.000119764 5.71347e-05 0)
(0.00011512 6.23747e-05 0)
(0.000107358 7.2677e-05 0)
(9.33901e-05 8.97793e-05 0)
(6.97293e-05 0.000109213 0)
(3.67574e-05 0.000111413 0)
(4.92802e-06 6.10157e-05 0)
(-4.39603e-06 9.14898e-05 0)
(-3.0729e-05 0.000161133 0)
(-5.43646e-05 0.000146782 0)
(-6.72888e-05 0.000106812 0)
(-7.01486e-05 7.37273e-05 0)
(-6.67529e-05 5.42989e-05 0)
(-6.02831e-05 4.47664e-05 0)
(-5.25123e-05 4.03884e-05 0)
(-4.42422e-05 3.81928e-05 0)
(-3.58107e-05 3.67784e-05 0)
(-2.73587e-05 3.56007e-05 0)
(-1.89297e-05 3.44672e-05 0)
(-1.05652e-05 3.33143e-05 0)
(-2.30491e-06 3.21357e-05 0)
(5.82672e-06 3.0925e-05 0)
(1.37951e-05 2.96779e-05 0)
(2.15783e-05 2.83909e-05 0)
(2.91515e-05 2.70626e-05 0)
(3.64944e-05 2.5694e-05 0)
(4.35832e-05 2.42695e-05 0)
(5.03937e-05 2.27922e-05 0)
(5.69053e-05 2.12581e-05 0)
(6.31009e-05 1.96747e-05 0)
(6.89658e-05 1.80291e-05 0)
(7.44813e-05 1.63164e-05 0)
(7.96291e-05 1.453e-05 0)
(8.43936e-05 1.2675e-05 0)
(8.87628e-05 1.07491e-05 0)
(9.27218e-05 8.74872e-06 0)
(9.62572e-05 6.67405e-06 0)
(9.9356e-05 4.52765e-06 0)
(0.000102009 2.31912e-06 0)
(0.000104205 3.14452e-08 0)
(0.000105935 -2.32364e-06 0)
(0.000107184 -4.74068e-06 0)
(0.000107966 -7.22165e-06 0)
(0.000108288 -9.76695e-06 0)
(0.000108155 -1.23744e-05 0)
(0.000107575 -1.50369e-05 0)
(0.000106565 -1.77407e-05 0)
(0.000105138 -2.04989e-05 0)
(0.000103298 -2.32983e-05 0)
(0.000101058 -2.61242e-05 0)
(9.84345e-05 -2.89661e-05 0)
(9.54382e-05 -3.18119e-05 0)
(9.20896e-05 -3.46419e-05 0)
(8.84048e-05 -3.74606e-05 0)
(8.43961e-05 -4.02426e-05 0)
(8.00842e-05 -4.29689e-05 0)
(7.54817e-05 -4.56326e-05 0)
(7.06067e-05 -4.8212e-05 0)
(6.54794e-05 -5.06975e-05 0)
(6.01176e-05 -5.30686e-05 0)
(5.45444e-05 -5.5307e-05 0)
(4.87734e-05 -5.7404e-05 0)
(4.28198e-05 -5.93381e-05 0)
(3.67062e-05 -6.10961e-05 0)
(3.04488e-05 -6.26694e-05 0)
(2.40614e-05 -6.40475e-05 0)
(1.75591e-05 -6.52174e-05 0)
(1.09613e-05 -6.61669e-05 0)
(4.28011e-06 -6.68846e-05 0)
(-2.46257e-06 -6.73512e-05 0)
(-9.23558e-06 -6.75393e-05 0)
(-1.60021e-05 -6.74544e-05 0)
(-2.27224e-05 -6.7126e-05 0)
(-2.93783e-05 -6.65854e-05 0)
(-3.59484e-05 -6.58486e-05 0)
(-4.24076e-05 -6.49243e-05 0)
(-4.87345e-05 -6.38157e-05 0)
(-5.49101e-05 -6.25262e-05 0)
(-6.09147e-05 -6.10609e-05 0)
(-6.67291e-05 -5.94271e-05 0)
(-7.23341e-05 -5.76308e-05 0)
(-7.7709e-05 -5.56855e-05 0)
(-8.28372e-05 -5.36104e-05 0)
(-8.77023e-05 -5.14117e-05 0)
(-9.22831e-05 -4.90922e-05 0)
(-9.65597e-05 -4.66697e-05 0)
(-0.000100518 -4.41578e-05 0)
(-0.000104146 -4.15718e-05 0)
(-0.000107429 -3.89255e-05 0)
(-0.000110355 -3.62308e-05 0)
(-0.00011291 -3.34971e-05 0)
(-0.000115081 -3.07372e-05 0)
(-0.000116861 -2.79623e-05 0)
(-0.000118245 -2.51903e-05 0)
(-0.000119229 -2.24232e-05 0)
(-0.000119804 -1.96588e-05 0)
(-0.000119959 -1.69094e-05 0)
(-0.000119689 -1.41855e-05 0)
(-0.000118989 -1.14942e-05 0)
(-0.000117856 -8.8438e-06 0)
(-0.000116287 -6.24431e-06 0)
(-0.000114277 -3.70654e-06 0)
(-0.000111812 -1.23908e-06 0)
(-0.000108895 1.14661e-06 0)
(-0.000105553 3.46622e-06 0)
(-0.000101787 5.70776e-06 0)
(-9.76104e-05 7.86659e-06 0)
(-9.30385e-05 9.94127e-06 0)
(-8.8085e-05 1.1945e-05 0)
(-8.27618e-05 1.38774e-05 0)
(-7.70795e-05 1.57395e-05 0)
(-7.10548e-05 1.75352e-05 0)
(-6.47072e-05 1.92681e-05 0)
(-5.80514e-05 2.09382e-05 0)
(-5.11061e-05 2.25564e-05 0)
(-4.38894e-05 2.41225e-05 0)
(-3.64232e-05 2.56391e-05 0)
(-2.87313e-05 2.71094e-05 0)
(-2.08337e-05 2.85317e-05 0)
(-1.27561e-05 2.99164e-05 0)
(-4.52349e-06 3.12651e-05 0)
(3.86962e-06 3.25791e-05 0)
(1.23452e-05 3.38565e-05 0)
(2.08697e-05 3.5102e-05 0)
(2.94651e-05 3.63366e-05 0)
(3.80663e-05 3.76083e-05 0)
(4.66118e-05 3.91137e-05 0)
(5.49662e-05 4.14072e-05 0)
(6.28015e-05 4.58976e-05 0)
(6.93089e-05 5.56017e-05 0)
(7.26914e-05 7.53686e-05 0)
(6.97174e-05 0.00010917 0)
(5.64603e-05 0.000150453 0)
(3.21624e-05 0.000166391 0)
(4.75633e-06 9.60758e-05 0)
(-4.42058e-06 0.000123745 0)
(-2.99581e-05 0.000209727 0)
(-5.14372e-05 0.000180143 0)
(-6.15576e-05 0.000118079 0)
(-6.13852e-05 6.84911e-05 0)
(-5.49101e-05 3.98255e-05 0)
(-4.53559e-05 2.59842e-05 0)
(-3.45316e-05 1.98459e-05 0)
(-2.3259e-05 1.70269e-05 0)
(-1.18436e-05 1.54628e-05 0)
(-4.25775e-07 1.43345e-05 0)
(1.08983e-05 1.33822e-05 0)
(2.21125e-05 1.25032e-05 0)
(3.3188e-05 1.16626e-05 0)
(4.40665e-05 1.08467e-05 0)
(5.47136e-05 1.00527e-05 0)
(6.50989e-05 9.27677e-06 0)
(7.51928e-05 8.51445e-06 0)
(8.49666e-05 7.76114e-06 0)
(9.43921e-05 7.01027e-06 0)
(0.000103441 6.25718e-06 0)
(0.000112088 5.49639e-06 0)
(0.000120307 4.72327e-06 0)
(0.000128077 3.93127e-06 0)
(0.000135374 3.11475e-06 0)
(0.000142176 2.26844e-06 0)
(0.000148462 1.38866e-06 0)
(0.000154214 4.71413e-07 0)
(0.000159415 -4.86638e-07 0)
(0.000164047 -1.48734e-06 0)
(0.000168096 -2.53275e-06 0)
(0.000171549 -3.6241e-06 0)
(0.000174395 -4.76478e-06 0)
(0.000176627 -5.9578e-06 0)
(0.000178237 -7.20923e-06 0)
(0.000179221 -8.52371e-06 0)
(0.000179576 -9.90401e-06 0)
(0.000179305 -1.13501e-05 0)
(0.000178411 -1.28601e-05 0)
(0.000176893 -1.44314e-05 0)
(0.000174753 -1.60622e-05 0)
(0.000172004 -1.77461e-05 0)
(0.000168657 -1.94776e-05 0)
(0.000164715 -2.12516e-05 0)
(0.00016019 -2.30562e-05 0)
(0.0001551 -2.48824e-05 0)
(0.000149464 -2.67228e-05 0)
(0.000143304 -2.85655e-05 0)
(0.000136643 -3.03968e-05 0)
(0.000129492 -3.22056e-05 0)
(0.00012187 -3.39768e-05 0)
(0.000113803 -3.56969e-05 0)
(0.000105323 -3.73508e-05 0)
(9.64647e-05 -3.89251e-05 0)
(8.72568e-05 -4.04092e-05 0)
(7.77115e-05 -4.17868e-05 0)
(6.78547e-05 -4.30409e-05 0)
(5.7725e-05 -4.41588e-05 0)
(4.73572e-05 -4.51309e-05 0)
(3.67868e-05 -4.59471e-05 0)
(2.60452e-05 -4.66013e-05 0)
(1.51587e-05 -4.70887e-05 0)
(4.16207e-06 -4.74015e-05 0)
(-6.89336e-06 -4.75401e-05 0)
(-1.79427e-05 -4.75112e-05 0)
(-2.89378e-05 -4.73338e-05 0)
(-3.98401e-05 -4.70231e-05 0)
(-5.06087e-05 -4.6586e-05 0)
(-6.12003e-05 -4.60246e-05 0)
(-7.15764e-05 -4.53405e-05 0)
(-8.17023e-05 -4.4537e-05 0)
(-9.15433e-05 -4.36191e-05 0)
(-0.000101065 -4.25914e-05 0)
(-0.000110238 -4.1456e-05 0)
(-0.000119031 -4.02266e-05 0)
(-0.000127412 -3.8914e-05 0)
(-0.000135355 -3.75254e-05 0)
(-0.000142836 -3.60639e-05 0)
(-0.000149824 -3.45472e-05 0)
(-0.000156303 -3.29829e-05 0)
(-0.00016226 -3.13829e-05 0)
(-0.000167672 -2.97492e-05 0)
(-0.000172515 -2.80931e-05 0)
(-0.00017678 -2.6425e-05 0)
(-0.000180458 -2.47489e-05 0)
(-0.000183541 -2.30747e-05 0)
(-0.000186023 -2.14066e-05 0)
(-0.000187895 -1.97515e-05 0)
(-0.000189155 -1.81123e-05 0)
(-0.000189803 -1.64942e-05 0)
(-0.000189839 -1.49015e-05 0)
(-0.000189262 -1.33391e-05 0)
(-0.000188075 -1.18148e-05 0)
(-0.000186281 -1.03371e-05 0)
(-0.000183883 -8.91295e-06 0)
(-0.000180887 -7.54644e-06 0)
(-0.000177301 -6.24076e-06 0)
(-0.000173137 -4.99043e-06 0)
(-0.000168408 -3.79395e-06 0)
(-0.000163124 -2.65016e-06 0)
(-0.0001573 -1.55535e-06 0)
(-0.000150953 -5.04564e-07 0)
(-0.000144099 5.07973e-07 0)
(-0.000136762 1.48769e-06 0)
(-0.000128962 2.4392e-06 0)
(-0.000120715 3.36916e-06 0)
(-0.000112048 4.28428e-06 0)
(-0.000102987 5.18951e-06 0)
(-9.35558e-05 6.09142e-06 0)
(-8.37804e-05 6.99391e-06 0)
(-7.36854e-05 7.90353e-06 0)
(-6.33047e-05 8.82445e-06 0)
(-5.26666e-05 9.76073e-06 0)
(-4.17968e-05 1.07164e-05 0)
(-3.07262e-05 1.16948e-05 0)
(-1.95103e-05 1.26849e-05 0)
(-8.16865e-06 1.37268e-05 0)
(3.26523e-06 1.48303e-05 0)
(1.47423e-05 1.60965e-05 0)
(2.62072e-05 1.77993e-05 0)
(3.75012e-05 2.07641e-05 0)
(4.83004e-05 2.70705e-05 0)
(5.77936e-05 4.11675e-05 0)
(6.41772e-05 7.0332e-05 0)
(6.41685e-05 0.000120942 0)
(5.36388e-05 0.000184886 0)
(3.1434e-05 0.000216795 0)
(4.7874e-06 0.000130055 0)
(-4.63302e-06 0.00015657 0)
(-3.09724e-05 0.000258225 0)
(-5.28445e-05 0.000212272 0)
(-6.28768e-05 0.000127285 0)
(-6.225e-05 6.07656e-05 0)
(-5.51426e-05 2.26993e-05 0)
(-4.48927e-05 4.52377e-06 0)
(-3.33228e-05 -3.34565e-06 0)
(-2.12802e-05 -6.7513e-06 0)
(-9.13824e-06 -8.42333e-06 0)
(3.00254e-06 -9.44581e-06 0)
(1.5079e-05 -1.01858e-05 0)
(2.69892e-05 -1.0763e-05 0)
(3.87031e-05 -1.12288e-05 0)
(5.02078e-05 -1.15984e-05 0)
(6.1469e-05 -1.18794e-05 0)
(7.24517e-05 -1.20779e-05 0)
(8.31226e-05 -1.22007e-05 0)
(9.34501e-05 -1.22547e-05 0)
(0.000103404 -1.22475e-05 0)
(0.000112954 -1.21869e-05 0)
(0.000122074 -1.20805e-05 0)
(0.000130737 -1.19363e-05 0)
(0.000138917 -1.17626e-05 0)
(0.000146593 -1.15676e-05 0)
(0.000153741 -1.1359e-05 0)
(0.00016034 -1.11444e-05 0)
(0.000166372 -1.09303e-05 0)
(0.000171819 -1.07232e-05 0)
(0.000176667 -1.05291e-05 0)
(0.000180902 -1.0353e-05 0)
(0.000184513 -1.01997e-05 0)
(0.00018749 -1.00761e-05 0)
(0.000189825 -9.98996e-06 0)
(0.000191514 -9.9499e-06 0)
(0.000192552 -9.96334e-06 0)
(0.000192934 -1.0035e-05 0)
(0.000192657 -1.01675e-05 0)
(0.000191719 -1.03647e-05 0)
(0.000190124 -1.06295e-05 0)
(0.000187879 -1.09612e-05 0)
(0.000184984 -1.13581e-05 0)
(0.000181442 -1.18212e-05 0)
(0.000177276 -1.23493e-05 0)
(0.000172496 -1.29379e-05 0)
(0.000167112 -1.35786e-05 0)
(0.000161142 -1.4264e-05 0)
(0.00015461 -1.49869e-05 0)
(0.000147537 -1.57459e-05 0)
(0.00013994 -1.65318e-05 0)
(0.000131846 -1.73304e-05 0)
(0.000123282 -1.81278e-05 0)
(0.000114272 -1.89129e-05 0)
(0.000104842 -1.96756e-05 0)
(9.50233e-05 -2.04102e-05 0)
(8.48571e-05 -2.11058e-05 0)
(7.43759e-05 -2.17469e-05 0)
(6.36e-05 -2.23211e-05 0)
(5.25593e-05 -2.28158e-05 0)
(4.12889e-05 -2.32231e-05 0)
(2.98271e-05 -2.35407e-05 0)
(1.82187e-05 -2.37689e-05 0)
(6.49434e-06 -2.3913e-05 0)
(-5.30387e-06 -2.39846e-05 0)
(-1.70932e-05 -2.39982e-05 0)
(-2.88272e-05 -2.39686e-05 0)
(-4.04693e-05 -2.39026e-05 0)
(-5.19756e-05 -2.37991e-05 0)
(-6.32979e-05 -2.36534e-05 0)
(-7.43934e-05 -2.34623e-05 0)
(-8.52237e-05 -2.32254e-05 0)
(-9.5748e-05 -2.29446e-05 0)
(-0.000105921 -2.26253e-05 0)
(-0.000115722 -2.22765e-05 0)
(-0.000125131 -2.18966e-05 0)
(-0.000134105 -2.14883e-05 0)
(-0.000142599 -2.1058e-05 0)
(-0.000150603 -2.06165e-05 0)
(-0.000158096 -2.01632e-05 0)
(-0.000165048 -1.97105e-05 0)
(-0.000171428 -1.9256e-05 0)
(-0.000177218 -1.88072e-05 0)
(-0.000182421 -1.83638e-05 0)
(-0.000187009 -1.7933e-05 0)
(-0.000190968 -1.75141e-05 0)
(-0.000194295 -1.71172e-05 0)
(-0.000196983 -1.67394e-05 0)
(-0.000199031 -1.63774e-05 0)
(-0.000200431 -1.60346e-05 0)
(-0.00020118 -1.57109e-05 0)
(-0.000201277 -1.54071e-05 0)
(-0.000200728 -1.51263e-05 0)
(-0.000199537 -1.48728e-05 0)
(-0.000197709 -1.46526e-05 0)
(-0.000195251 -1.44714e-05 0)
(-0.000192167 -1.43327e-05 0)
(-0.000188467 -1.42365e-05 0)
(-0.000184158 -1.41786e-05 0)
(-0.000179252 -1.4153e-05 0)
(-0.00017376 -1.41516e-05 0)
(-0.000167698 -1.4167e-05 0)
(-0.000161082 -1.41905e-05 0)
(-0.00015393 -1.42143e-05 0)
(-0.000146262 -1.42294e-05 0)
(-0.000138101 -1.42259e-05 0)
(-0.000129469 -1.41957e-05 0)
(-0.00012039 -1.41317e-05 0)
(-0.00011089 -1.4024e-05 0)
(-0.000100996 -1.38661e-05 0)
(-9.07372e-05 -1.36492e-05 0)
(-8.01413e-05 -1.33678e-05 0)
(-6.92401e-05 -1.30157e-05 0)
(-5.80652e-05 -1.25861e-05 0)
(-4.66494e-05 -1.20742e-05 0)
(-3.50261e-05 -1.14761e-05 0)
(-2.32184e-05 -1.07861e-05 0)
(-1.12705e-05 -9.98077e-06 0)
(7.92051e-07 -9.03046e-06 0)
(1.29135e-05 -7.80349e-06 0)
(2.50128e-05 -5.9317e-06 0)
(3.69636e-05 -2.32658e-06 0)
(4.84102e-05 5.77794e-06 0)
(5.85222e-05 2.42966e-05 0)
(6.54192e-05 6.30115e-05 0)
(6.57215e-05 0.000130852 0)
(5.51795e-05 0.000218266 0)
(3.25056e-05 0.000267238 0)
(5.00434e-06 0.000164669 0)
(-4.86981e-06 0.000190924 0)
(-3.24784e-05 0.000308817 0)
(-5.54028e-05 0.000245776 0)
(-6.59745e-05 0.000136981 0)
(-6.54189e-05 5.29178e-05 0)
(-5.80794e-05 5.11773e-06 0)
(-4.74622e-05 -1.75252e-05 0)
(-3.55063e-05 -2.71572e-05 0)
(-2.30723e-05 -3.11447e-05 0)
(-1.05127e-05 -3.29202e-05 0)
(2.02928e-06 -3.38216e-05 0)
(1.44727e-05 -3.43363e-05 0)
(2.67596e-05 -3.46168e-05 0)
(3.88532e-05 -3.47026e-05 0)
(5.07189e-05 -3.46137e-05 0)
(6.23223e-05 -3.43628e-05 0)
(7.36291e-05 -3.396e-05 0)
(8.46061e-05 -3.34152e-05 0)
(9.52209e-05 -3.27386e-05 0)
(0.000105443 -3.19403e-05 0)
(0.000115242 -3.10309e-05 0)
(0.00012459 -3.00212e-05 0)
(0.00013346 -2.89221e-05 0)
(0.000141826 -2.77446e-05 0)
(0.000149666 -2.65e-05 0)
(0.000156958 -2.51991e-05 0)
(0.000163679 -2.38529e-05 0)
(0.000169813 -2.24718e-05 0)
(0.000175342 -2.10661e-05 0)
(0.000180252 -1.96457e-05 0)
(0.000184531 -1.82202e-05 0)
(0.000188168 -1.67988e-05 0)
(0.000191153 -1.53914e-05 0)
(0.00019348 -1.40082e-05 0)
(0.000195147 -1.26603e-05 0)
(0.000196149 -1.13578e-05 0)
(0.000196482 -1.0109e-05 0)
(0.000196147 -8.92109e-06 0)
(0.000195142 -7.79801e-06 0)
(0.000193472 -6.74438e-06 0)
(0.000191144 -5.76943e-06 0)
(0.000188163 -4.88259e-06 0)
(0.000184532 -4.08315e-06 0)
(0.000180263 -3.37019e-06 0)
(0.000175376 -2.74648e-06 0)
(0.000169894 -2.20877e-06 0)
(0.000163829 -1.75368e-06 0)
(0.000157192 -1.37729e-06 0)
(0.000150005 -1.07701e-06 0)
(0.000142304 -8.46172e-07 0)
(0.000134118 -6.77465e-07 0)
(0.000125465 -5.63521e-07 0)
(0.00011637 -4.96265e-07 0)
(0.000106858 -4.66664e-07 0)
(9.69598e-05 -4.64116e-07 0)
(8.67109e-05 -4.79673e-07 0)
(7.61425e-05 -5.07565e-07 0)
(6.52925e-05 -5.39031e-07 0)
(5.41943e-05 -5.6299e-07 0)
(4.28766e-05 -5.72109e-07 0)
(3.13744e-05 -5.62815e-07 0)
(1.97265e-05 -5.39608e-07 0)
(7.96742e-06 -5.1723e-07 0)
(-3.86739e-06 -5.14707e-07 0)
(-1.57008e-05 -5.52593e-07 0)
(-2.74862e-05 -6.47036e-07 0)
(-3.91867e-05 -8.02559e-07 0)
(-5.07573e-05 -1.01247e-06 0)
(-6.2148e-05 -1.26652e-06 0)
(-7.33147e-05 -1.5568e-06 0)
(-8.42191e-05 -1.87913e-06 0)
(-9.48282e-05 -2.23223e-06 0)
(-0.000105116 -2.61827e-06 0)
(-0.000115032 -3.04305e-06 0)
(-0.000124531 -3.50145e-06 0)
(-0.000133595 -3.99235e-06 0)
(-0.000142209 -4.51783e-06 0)
(-0.000150334 -5.08494e-06 0)
(-0.000157941 -5.68693e-06 0)
(-0.00016501 -6.32723e-06 0)
(-0.000171518 -7.0032e-06 0)
(-0.000177444 -7.72268e-06 0)
(-0.000182766 -8.4843e-06 0)
(-0.000187472 -9.28315e-06 0)
(-0.000191561 -1.01283e-05 0)
(-0.000195023 -1.10095e-05 0)
(-0.000197825 -1.1921e-05 0)
(-0.000199974 -1.28621e-05 0)
(-0.000201472 -1.38222e-05 0)
(-0.000202315 -1.48017e-05 0)
(-0.000202503 -1.57983e-05 0)
(-0.000202036 -1.68127e-05 0)
(-0.000200914 -1.78467e-05 0)
(-0.00019914 -1.89045e-05 0)
(-0.000196721 -1.999e-05 0)
(-0.000193661 -2.11047e-05 0)
(-0.000189966 -2.22459e-05 0)
(-0.000185645 -2.34064e-05 0)
(-0.000180709 -2.45762e-05 0)
(-0.000175171 -2.57436e-05 0)
(-0.000169044 -2.68965e-05 0)
(-0.000162346 -2.80228e-05 0)
(-0.000155095 -2.91103e-05 0)
(-0.000147311 -3.0147e-05 0)
(-0.000139016 -3.11209e-05 0)
(-0.000130233 -3.20205e-05 0)
(-0.000120987 -3.28348e-05 0)
(-0.000111305 -3.35527e-05 0)
(-0.000101214 -3.4164e-05 0)
(-9.07428e-05 -3.46586e-05 0)
(-7.99219e-05 -3.50273e-05 0)
(-6.87824e-05 -3.52613e-05 0)
(-5.73565e-05 -3.53522e-05 0)
(-4.56773e-05 -3.52921e-05 0)
(-3.37783e-05 -3.50729e-05 0)
(-2.16932e-05 -3.46849e-05 0)
(-9.45842e-06 -3.4116e-05 0)
(2.89047e-06 -3.33123e-05 0)
(1.52998e-05 -3.21318e-05 0)
(2.76934e-05 -3.00917e-05 0)
(3.99331e-05 -2.58326e-05 0)
(5.16501e-05 -1.58925e-05 0)
(6.19798e-05 7.18428e-06 0)
(6.8989e-05 5.57708e-05 0)
(6.91176e-05 0.000141452 0)
(5.79156e-05 0.000253209 0)
(3.40851e-05 0.000319921 0)
(5.24887e-06 0.000200876 0)
(-5.13952e-06 0.000227087 0)
(-3.42574e-05 0.000362073 0)
(-5.8479e-05 0.000281161 0)
(-6.97598e-05 0.000147429 0)
(-6.93644e-05 4.49785e-05 0)
(-6.18152e-05 -1.30344e-05 0)
(-5.07951e-05 -4.03904e-05 0)
(-3.8358e-05 -5.18977e-05 0)
(-2.54252e-05 -5.64986e-05 0)
(-1.23653e-05 -5.83635e-05 0)
(6.745e-07 -5.91369e-05 0)
(1.35978e-05 -5.93916e-05 0)
(2.63521e-05 -5.93162e-05 0)
(3.89008e-05 -5.89708e-05 0)
(5.12055e-05 -5.83788e-05 0)
(6.32294e-05 -5.75543e-05 0)
(7.4937e-05 -5.65094e-05 0)
(8.62938e-05 -5.52561e-05 0)
(9.72666e-05 -5.38069e-05 0)
(0.000107824 -5.21748e-05 0)
(0.000117934 -5.03731e-05 0)
(0.000127569 -4.84155e-05 0)
(0.000136701 -4.63162e-05 0)
(0.000145305 -4.40894e-05 0)
(0.000153357 -4.17497e-05 0)
(0.000160833 -3.93115e-05 0)
(0.000167715 -3.67894e-05 0)
(0.000173983 -3.41976e-05 0)
(0.000179621 -3.15506e-05 0)
(0.000184616 -2.88624e-05 0)
(0.000188954 -2.61467e-05 0)
(0.000192626 -2.34173e-05 0)
(0.000195623 -2.06876e-05 0)
(0.000197938 -1.79713e-05 0)
(0.000199572 -1.52821e-05 0)
(0.000200521 -1.26335e-05 0)
(0.000200783 -1.00363e-05 0)
(0.000200364 -7.50078e-06 0)
(0.000199268 -5.03616e-06 0)
(0.000197491 -2.65472e-06 0)
(0.000195031 -3.67812e-07 0)
(0.000191906 1.81464e-06 0)
(0.000188136 3.88562e-06 0)
(0.00018373 5.84029e-06 0)
(0.000178704 7.67654e-06 0)
(0.000173075 9.3897e-06 0)
(0.000166862 1.09779e-05 0)
(0.000160086 1.24418e-05 0)
(0.00015277 1.37873e-05 0)
(0.000144941 1.50171e-05 0)
(0.000136625 1.61326e-05 0)
(0.000127849 1.71381e-05 0)
(0.00011864 1.80395e-05 0)
(0.000109026 1.88446e-05 0)
(9.90375e-05 1.95628e-05 0)
(8.87066e-05 2.02018e-05 0)
(7.80649e-05 2.07702e-05 0)
(6.7145e-05 2.12759e-05 0)
(5.59791e-05 2.17236e-05 0)
(4.4599e-05 2.21172e-05 0)
(3.30404e-05 2.24558e-05 0)
(2.13425e-05 2.27308e-05 0)
(9.53486e-06 2.2923e-05 0)
(-2.35456e-06 2.30017e-05 0)
(-1.42422e-05 2.29422e-05 0)
(-2.60825e-05 2.27279e-05 0)
(-3.78433e-05 2.23559e-05 0)
(-4.94805e-05 2.18377e-05 0)
(-6.09435e-05 2.11889e-05 0)
(-7.21883e-05 2.04221e-05 0)
(-8.31774e-05 1.9545e-05 0)
(-9.38751e-05 1.8562e-05 0)
(-0.000104246 1.74777e-05 0)
(-0.000114255 1.62991e-05 0)
(-0.000123867 1.50227e-05 0)
(-0.000133053 1.36488e-05 0)
(-0.000141784 1.21804e-05 0)
(-0.000150032 1.0626e-05 0)
(-0.00015777 8.98253e-06 0)
(-0.000164974 7.25815e-06 0)
(-0.000171623 5.45147e-06 0)
(-0.000177701 3.57049e-06 0)
(-0.000183185 1.61422e-06 0)
(-0.000188068 -4.1092e-07 0)
(-0.000192324 -2.5021e-06 0)
(-0.000195921 -4.64533e-06 0)
(-0.000198872 -6.84192e-06 0)
(-0.000201164 -9.08574e-06 0)
(-0.00020279 -1.13652e-05 0)
(-0.00020376 -1.36658e-05 0)
(-0.000204061 -1.59842e-05 0)
(-0.000203693 -1.83164e-05 0)
(-0.000202656 -2.06651e-05 0)
(-0.000200951 -2.30323e-05 0)
(-0.000198579 -2.54192e-05 0)
(-0.000195546 -2.78238e-05 0)
(-0.000191855 -3.02397e-05 0)
(-0.000187517 -3.26561e-05 0)
(-0.000182541 -3.50587e-05 0)
(-0.00017694 -3.74319e-05 0)
(-0.00017073 -3.97595e-05 0)
(-0.000163927 -4.20254e-05 0)
(-0.000156548 -4.42138e-05 0)
(-0.000148616 -4.63093e-05 0)
(-0.000140152 -4.82967e-05 0)
(-0.00013118 -5.01612e-05 0)
(-0.000121724 -5.18886e-05 0)
(-0.000111814 -5.34654e-05 0)
(-0.000101476 -5.48783e-05 0)
(-9.074e-05 -5.61149e-05 0)
(-7.96376e-05 -5.71635e-05 0)
(-6.82007e-05 -5.80132e-05 0)
(-5.64627e-05 -5.86537e-05 0)
(-4.44575e-05 -5.90753e-05 0)
(-3.22203e-05 -5.92688e-05 0)
(-1.9787e-05 -5.92231e-05 0)
(-7.19415e-06 -5.89176e-05 0)
(5.51945e-06 -5.82908e-05 0)
(1.82981e-05 -5.71618e-05 0)
(3.10681e-05 -5.49479e-05 0)
(4.36677e-05 -4.99964e-05 0)
(5.57212e-05 -3.81016e-05 0)
(6.63171e-05 -1.02088e-05 0)
(7.33928e-05 4.8761e-05 0)
(7.32347e-05 0.000153117 0)
(6.11995e-05 0.000290296 0)
(3.59522e-05 0.000375464 0)
(5.52842e-06 0.00023898 0)
(-5.45774e-06 0.000265353 0)
(-3.63436e-05 0.000418453 0)
(-6.20808e-05 0.00031876 0)
(-7.41352e-05 0.000158765 0)
(-7.38462e-05 3.6895e-05 0)
(-6.60024e-05 -3.19169e-05 0)
(-5.4464e-05 -6.42612e-05 0)
(-4.14106e-05 -7.77482e-05 0)
(-2.78237e-05 -8.29952e-05 0)
(-1.41083e-05 -8.49468e-05 0)
(-4.2314e-07 -8.5569e-05 0)
(1.3139e-05 -8.55371e-05 0)
(2.65146e-05 -8.50793e-05 0)
(3.96661e-05 -8.42694e-05 0)
(5.25535e-05 -8.3136e-05 0)
(6.51379e-05 -8.16961e-05 0)
(7.73821e-05 -7.99644e-05 0)
(8.92501e-05 -7.79553e-05 0)
(0.000100707 -7.56842e-05 0)
(0.00011172 -7.31667e-05 0)
(0.000122257 -7.04193e-05 0)
(0.000132289 -6.7459e-05 0)
(0.000141787 -6.43034e-05 0)
(0.000150724 -6.09701e-05 0)
(0.000159076 -5.74773e-05 0)
(0.000166821 -5.38435e-05 0)
(0.000173937 -5.0087e-05 0)
(0.000180407 -4.62264e-05 0)
(0.000186214 -4.228e-05 0)
(0.000191344 -3.82664e-05 0)
(0.000195785 -3.42037e-05 0)
(0.000199527 -3.01101e-05 0)
(0.000202562 -2.60033e-05 0)
(0.000204885 -2.19012e-05 0)
(0.000206498 -1.7822e-05 0)
(0.000207398 -1.37833e-05 0)
(0.000207586 -9.79999e-06 0)
(0.000207065 -5.88446e-06 0)
(0.000205836 -2.04977e-06 0)
(0.000203907 1.68634e-06 0)
(0.000201291 5.31184e-06 0)
(0.000198 8.8156e-06 0)
(0.000194044 1.21825e-05 0)
(0.000189439 1.54012e-05 0)
(0.000184204 1.84632e-05 0)
(0.000178358 2.13622e-05 0)
(0.000171924 2.40941e-05 0)
(0.000164925 2.66564e-05 0)
(0.000157386 2.90486e-05 0)
(0.000149333 3.12711e-05 0)
(0.000140795 3.33256e-05 0)
(0.000131798 3.52148e-05 0)
(0.000122374 3.69431e-05 0)
(0.000112551 3.85161e-05 0)
(0.000102359 3.99402e-05 0)
(9.18312e-05 4.12226e-05 0)
(8.09974e-05 4.23704e-05 0)
(6.98899e-05 4.33908e-05 0)
(5.85397e-05 4.42896e-05 0)
(4.6978e-05 4.50695e-05 0)
(3.524e-05 4.57265e-05 0)
(2.33658e-05 4.62472e-05 0)
(1.13813e-05 4.6606e-05 0)
(-6.92572e-07 4.67629e-05 0)
(-1.27632e-05 4.66871e-05 0)
(-2.47848e-05 4.63587e-05 0)
(-3.67292e-05 4.57763e-05 0)
(-4.85525e-05 4.49563e-05 0)
(-6.02032e-05 4.39211e-05 0)
(-7.16373e-05 4.26889e-05 0)
(-8.28178e-05 4.1272e-05 0)
(-9.37091e-05 3.96784e-05 0)
(-0.000104276 3.7914e-05 0)
(-0.000114484 3.59845e-05 0)
(-0.000124302 3.38944e-05 0)
(-0.000133696 3.16484e-05 0)
(-0.000142639 2.9252e-05 0)
(-0.000151102 2.67114e-05 0)
(-0.000159058 2.40322e-05 0)
(-0.000166483 2.1221e-05 0)
(-0.000173352 1.82843e-05 0)
(-0.000179644 1.52304e-05 0)
(-0.00018534 1.20694e-05 0)
(-0.00019042 8.8083e-06 0)
(-0.000194867 5.46275e-06 0)
(-0.000198677 2.03696e-06 0)
(-0.000201836 -1.46292e-06 0)
(-0.000204321 -5.01882e-06 0)
(-0.000206116 -8.6266e-06 0)
(-0.000207223 -1.22701e-05 0)
(-0.000207652 -1.59368e-05 0)
(-0.000207393 -1.9624e-05 0)
(-0.000206447 -2.33299e-05 0)
(-0.000204808 -2.70524e-05 0)
(-0.000202475 -3.07883e-05 0)
(-0.00019945 -3.45319e-05 0)
(-0.00019574 -3.82728e-05 0)
(-0.000191352 -4.19957e-05 0)
(-0.000186299 -4.56818e-05 0)
(-0.000180592 -4.93111e-05 0)
(-0.000174246 -5.28632e-05 0)
(-0.000167279 -5.63182e-05 0)
(-0.000159709 -5.96565e-05 0)
(-0.000151557 -6.28588e-05 0)
(-0.000142846 -6.59066e-05 0)
(-0.0001336 -6.87817e-05 0)
(-0.000123846 -7.14668e-05 0)
(-0.000113612 -7.39451e-05 0)
(-0.000102926 -7.62007e-05 0)
(-9.18202e-05 -7.82184e-05 0)