/*--------------------------------*- C++ -*----------------------------------*\
| =========                 |                                                 |
| \\      /  F ield         | OpenFOAM: The Open Source CFD Toolbox           |
|  \\    /   O peration     | Version:  2212                                  |
|   \\  /    A nd           | Website:  www.openfoam.com                      |
|    \\/     M anipulation  |                                                 |
\*---------------------------------------------------------------------------*/
FoamFile
{
    version     2.0;
    format      ascii;
    arch        "LSB;label=64;scalar=64";
    class       volScalarField;
    location    "0.49";
    object      alpha.air;
}
// * * * * * * * * * * * * * * * * * * * * * * * * * * * * * * * * * * * * * //

dimensions      [0 0 0 0 0 0 0];

internalField   nonuniform List<scalar> 
32768
(
7.84945e-119
1.07133e-115
3.82064e-113
6.8294e-111
7.91823e-109
6.78315e-107
4.6092e-105
2.58499e-103
1.22402e-101
4.95964e-100
1.73412e-98
5.26019e-97
1.38885e-95
3.19735e-94
6.41998e-93
1.12312e-91
1.70763e-90
2.24761e-89
2.54648e-88
2.46438e-87
2.01649e-86
1.37662e-85
7.70456e-85
3.45249e-84
1.19873e-83
3.08174e-83
5.51744e-83
6.25122e-83
3.77018e-83
8.6807e-84
6.84753e-85
3.94465e-86
3.60397e-86
2.9504e-85
2.17822e-84
9.58477e-85
1.97608e-85
3.16263e-86
4.51234e-87
5.98382e-88
7.51948e-89
9.07999e-90
1.07272e-90
1.26171e-91
1.51347e-92
1.90513e-93
2.64728e-94
4.57697e-95
1.3259e-95
1.00655e-95
1.96056e-95
7.24269e-95
4.20809e-94
3.21232e-93
2.72321e-92
2.23124e-91
1.74069e-90
5.4195e-89
7.91793e-87
9.57934e-85
6.47558e-83
6.41332e-82
3.39337e-81
6.73721e-81
9.52069e-81
6.33652e-81
1.77009e-81
4.36922e-82
1.36163e-83
1.85248e-85
2.13518e-87
2.29336e-88
1.11025e-88
4.30053e-89
1.56684e-89
5.77948e-90
2.32019e-90
1.06494e-90
5.8575e-91
3.98888e-91
3.56311e-91
4.70958e-91
1.0948e-90
4.3504e-90
2.41559e-89
1.61221e-88
1.20236e-87
9.71103e-87
8.40571e-86
7.80225e-85
7.62383e-84
7.13857e-83
5.31456e-82
2.3507e-81
2.79529e-81
9.74558e-83
6.46253e-84
5.64494e-83
3.20891e-82
7.03977e-82
7.86872e-82
5.32389e-82
2.42297e-82
7.99243e-83
2.01126e-83
4.00462e-84
6.48031e-85
8.69496e-86
9.82338e-87
9.4566e-88
7.82801e-89
5.61052e-90
3.49921e-91
1.90558e-92
9.07868e-94
3.7865e-95
1.38165e-96
4.40199e-98
1.22036e-99
2.92788e-101
6.02851e-103
1.05102e-104
1.51658e-106
1.74027e-108
1.47827e-110
8.15039e-113
2.24878e-115
1.61057e-118
9.10882e-115
9.55839e-112
2.90342e-109
4.62807e-107
4.95183e-105
4.03876e-103
2.69222e-101
1.52366e-99
7.47106e-98
3.2076e-96
1.21234e-94
4.04436e-93
1.19204e-91
3.10373e-90
7.13064e-89
1.4424e-87
2.5604e-86
3.96982e-85
5.34256e-84
6.19017e-83
6.11084e-82
5.07138e-81
3.47857e-80
1.92952e-79
8.40083e-79
2.75096e-78
6.3923e-78
9.73539e-78
8.67421e-78
3.90599e-78
7.5056e-79
6.65102e-80
6.24116e-81
1.39519e-80
2.17593e-80
4.99167e-81
7.55039e-82
1.00926e-82
1.28836e-83
1.59381e-84
1.92406e-85
2.28671e-86
2.71625e-87
3.27449e-88
4.10031e-89
5.49843e-90
8.39375e-91
1.68832e-91
6.16046e-92
5.70542e-92
1.20025e-91
4.51697e-91
2.60945e-90
1.95074e-89
1.60521e-88
1.27e-87
9.30427e-87
2.49862e-85
3.70964e-83
4.60515e-81
3.14263e-79
3.05759e-78
1.55891e-77
3.03306e-77
4.27862e-77
2.88248e-77
8.362e-78
2.1032e-78
6.53082e-80
8.86591e-82
1.02991e-83
1.17816e-84
5.88748e-85
2.33469e-85
8.69752e-86
3.27268e-86
1.33525e-86
6.20554e-87
3.44089e-87
2.34692e-87
2.06737e-87
2.57893e-87
5.30753e-87
1.8376e-86
9.16447e-86
5.66823e-85
4.01613e-84
3.15484e-83
2.72598e-82
2.61272e-81
2.76945e-80
3.01868e-79
2.89451e-78
1.98857e-77
7.33615e-77
3.68845e-77
9.04401e-78
4.28753e-77
1.14661e-76
1.55342e-76
1.20867e-76
6.05093e-77
2.11546e-77
5.48057e-78
1.09944e-78
1.76547e-79
2.32754e-80
2.56918e-81
2.41073e-82
1.94576e-83
1.3633e-84
8.35047e-86
4.4955e-87
2.13559e-88
8.97714e-90
3.34502e-91
1.1057e-92
3.24172e-94
8.4189e-96
1.93119e-97
3.89076e-99
6.81044e-101
1.01453e-102
1.23732e-104
1.15109e-106
7.18148e-109
2.34385e-111
2.20167e-114
3.05028e-112
3.188e-109
9.67308e-107
1.54431e-104
1.66353e-102
1.37821e-100
9.45316e-99
5.59369e-97
2.91822e-95
1.35604e-93
5.63408e-92
2.09406e-90
6.95528e-89
2.06069e-87
5.43304e-86
1.27065e-84
2.62495e-83
4.76428e-82
7.54763e-81
1.03515e-79
1.21629e-78
1.20817e-77
9.97317e-77
6.69277e-76
3.54629e-75
1.42663e-74
4.13118e-74
8.00191e-74
9.35607e-74
5.74844e-74
1.61818e-74
2.57174e-75
7.67678e-76
3.14773e-76
8.16606e-77
1.1285e-77
1.32117e-78
1.5202e-79
1.76973e-80
2.06815e-81
2.42061e-82
2.85107e-83
3.42012e-84
4.23378e-85
5.53623e-86
7.91303e-87
1.33144e-87
3.131e-88
1.41236e-88
1.52463e-88
3.3941e-88
1.29366e-87
7.41296e-87
5.42122e-86
4.32951e-85
3.30877e-84
2.26649e-83
4.91822e-82
7.5568e-80
9.90795e-78
6.97123e-76
6.66659e-75
3.2756e-74
6.24354e-74
8.79038e-74
5.9884e-74
1.80503e-74
4.62943e-75
1.43396e-76
1.94552e-78
2.27372e-80
2.75774e-81
1.42048e-81
5.75995e-82
2.19128e-82
8.40035e-83
3.47866e-83
1.63471e-83
9.12558e-84
6.23036e-84
5.42862e-84
6.48559e-84
1.21218e-83
3.7149e-83
1.67045e-82
9.56051e-82
6.40257e-81
4.84527e-80
4.11285e-79
3.97011e-78
4.40319e-77
5.31534e-76
6.0753e-75
5.52362e-74
3.38309e-73
1.13533e-72
1.22919e-72
7.50641e-73
1.31034e-72
1.30566e-72
7.81298e-73
3.08157e-73
8.61368e-74
1.80441e-74
2.95596e-75
3.90786e-76
4.27203e-77
3.93773e-78
3.10605e-79
2.12152e-80
1.2662e-81
6.65032e-83
3.09085e-84
1.27679e-85
4.7036e-87
1.54956e-88
4.57536e-90
1.21268e-91
2.88683e-93
6.16722e-95
1.1779e-96
1.99127e-98
2.91552e-100
3.54585e-102
3.32335e-104
2.10142e-106
6.97057e-109
6.66683e-112
1.36457e-109
1.43728e-106
4.37794e-104
7.00685e-102
7.56361e-100
6.28192e-98
4.32726e-96
2.58207e-94
1.36747e-92
6.50444e-91
2.7899e-89
1.07894e-87
3.75382e-86
1.17147e-84
3.26939e-83
8.13e-82
1.79345e-80
3.49233e-79
5.96365e-78
8.85954e-77
1.13385e-75
1.23484e-74
1.12719e-73
8.45534e-73
5.07514e-72
2.3516e-71
8.03123e-71
1.90215e-70
2.87702e-70
2.53434e-70
1.22144e-70
3.21013e-71
6.05061e-72
1.28072e-72
1.62217e-73
1.64349e-74
1.62048e-75
1.6867e-76
1.84984e-77
2.08916e-78
2.4125e-79
2.85413e-80
3.49126e-81
4.46833e-82
6.13666e-83
9.4096e-84
1.76117e-84
4.87867e-85
2.67055e-85
3.25855e-85
7.60034e-85
2.93155e-84
1.66687e-83
1.19204e-82
9.228e-82
6.80463e-81
4.43525e-80
8.42996e-79
1.29154e-76
1.71936e-74
1.2161e-72
1.13953e-71
5.38669e-71
1.00515e-70
1.412e-70
9.71682e-71
3.04331e-71
7.96762e-72
2.49897e-73
3.51563e-75
4.21269e-77
5.04915e-78
2.65831e-78
1.10085e-78
4.26894e-79
1.66361e-79
6.97338e-80
3.30288e-80
1.84961e-80
1.25965e-80
1.08397e-80
1.24734e-80
2.14749e-80
5.8776e-80
2.37877e-79
1.25027e-78
7.82063e-78
5.60889e-77
4.57145e-76
4.30308e-75
4.77499e-74
6.02094e-73
7.5742e-72
8.00569e-71
6.10626e-70
2.93082e-69
7.5846e-69
9.39916e-69
5.37506e-69
2.78067e-69
1.35605e-69
4.56157e-70
1.1151e-70
2.07422e-71
3.04899e-72
3.64777e-73
3.6367e-74
3.07663e-75
2.24053e-76
1.42016e-77
7.90038e-79
3.88358e-80
1.69664e-81
6.61794e-83
2.31394e-84
7.27831e-86
2.06519e-87
5.29528e-89
1.22866e-90
2.57927e-92
4.87759e-94
8.21087e-96
1.2007e-97
1.45954e-99
1.36663e-101
8.62559e-104
2.8515e-106
2.70678e-109
7.37084e-107
7.61484e-104
2.28703e-101
3.61998e-99
3.87047e-97
3.18524e-95
2.17323e-93
1.28398e-91
6.73806e-90
3.18312e-88
1.36053e-86
5.26258e-85
1.83793e-83
5.77972e-82
1.63167e-80
4.12007e-79
9.26922e-78
1.84849e-76
3.24863e-75
4.99292e-74
6.65162e-73
7.58971e-72
7.31074e-71
5.84126e-70
3.78128e-69
1.92117e-68
7.34617e-68
2.00615e-67
3.62917e-67
3.91437e-67
2.25085e-67
6.97721e-68
1.53035e-68
2.04138e-69
2.00213e-70
1.74161e-71
1.57669e-72
1.5686e-73
1.68274e-74
1.88729e-75
2.19642e-76
2.65242e-77
3.34815e-78
4.47272e-79
6.50977e-80
1.0816e-80
2.279e-81
7.47902e-82
4.86899e-82
6.56845e-82
1.5959e-81
6.22996e-81
3.51758e-80
2.46025e-79
1.84543e-78
1.31221e-77
8.20919e-77
1.46155e-75
2.18113e-73
2.85494e-71
1.98729e-69
1.81918e-68
8.25927e-68
1.50751e-67
2.11187e-67
1.46602e-67
4.76997e-68
1.27534e-68
4.04319e-70
5.90933e-72
7.32152e-74
8.53863e-75
4.57314e-75
1.92891e-75
7.60088e-76
3.00065e-76
1.26817e-76
6.02675e-77
3.36862e-77
2.27655e-77
1.92671e-77
2.13697e-77
3.41527e-77
8.39396e-77
3.04669e-76
1.45663e-75
8.39338e-75
5.60202e-74
4.28129e-73
3.80656e-72
4.04714e-71
5.04599e-70
6.53837e-69
7.36353e-68
6.10703e-67
3.23696e-66
9.41715e-66
1.39267e-65
1.111e-65
5.29347e-66
1.64507e-66
3.80372e-67
7.78197e-68
1.31763e-68
1.79757e-69
2.02365e-70
1.91746e-71
1.55592e-72
1.09535e-73
6.75125e-75
3.66955e-76
1.77043e-77
7.61865e-79
2.93881e-80
1.01971e-81
3.19374e-83
9.05537e-85
2.32869e-86
5.43878e-88
1.15308e-89
2.20812e-91
3.76969e-93
5.59299e-95
6.89938e-97
6.55989e-99
4.21017e-101
1.41902e-103
1.3799e-106
3.26401e-104
3.2991e-101
9.72593e-99
1.51372e-96
1.5924e-94
1.28909e-92
8.64487e-91
5.01594e-89
2.58433e-87
1.19957e-85
5.04721e-84
1.92673e-82
6.66027e-81
2.0793e-79
5.8458e-78
1.47502e-76
3.32799e-75
6.68133e-74
1.18705e-72
1.85449e-71
2.52633e-70
2.96833e-69
2.96817e-68
2.48368e-67
1.70029e-66
9.24705e-66
3.83604e-65
1.1526e-64
2.33856e-64
2.96376e-64
2.09452e-64
8.28003e-65
1.64073e-65
1.94054e-66
1.7421e-67
1.43735e-68
1.27815e-69
1.2743e-70
1.38304e-71
1.58146e-72
1.89355e-73
2.37095e-74
3.12657e-75
4.40726e-76
6.87213e-77
1.25208e-77
3.00709e-78
1.17071e-78
8.88001e-79
1.30344e-78
3.28705e-78
1.29897e-77
7.28814e-77
4.98794e-76
3.62675e-75
2.48741e-74
1.49835e-73
2.56925e-72
3.70581e-70
4.70723e-68
3.19534e-66
2.85044e-65
1.24113e-64
2.21407e-64
3.09141e-64
2.1611e-64
7.3019e-65
1.99455e-65
6.37958e-67
9.67283e-69
1.23749e-70
1.39686e-71
7.58056e-72
3.24505e-72
1.29423e-72
5.15379e-73
2.18593e-73
1.03696e-73
5.75255e-74
3.83507e-74
3.17506e-74
3.38724e-74
5.04269e-74
1.11645e-73
3.61884e-73
1.55854e-72
8.16046e-72
4.97981e-71
3.48989e-70
2.84713e-69
2.79182e-68
3.29027e-67
4.19205e-66
4.78422e-65
4.04321e-64
2.15807e-63
6.1635e-63
8.90306e-63
7.04969e-63
3.41456e-63
1.10847e-63
2.58525e-64
4.56517e-65
6.37284e-66
7.52083e-67
7.7789e-68
6.96548e-69
5.46633e-70
3.76755e-71
2.28884e-72
1.23263e-73
5.91872e-75
2.54551e-76
9.84687e-78
3.43684e-79
1.08564e-80
3.11199e-82
8.10754e-84
1.9222e-85
4.14363e-87
8.07359e-89
1.40256e-90
2.11784e-92
2.66004e-94
2.57759e-96
1.68866e-98
5.82444e-101
5.81966e-104
1.09459e-101
1.07878e-98
3.10803e-96
4.73439e-94
4.87879e-92
3.87056e-90
2.54413e-88
1.44667e-86
7.3039e-85
3.32356e-83
1.37257e-81
5.15266e-80
1.75571e-78
5.41682e-77
1.50933e-75
3.78683e-74
8.52395e-73
1.71381e-71
3.06164e-70
4.83052e-69
6.67505e-68
7.99853e-67
8.20927e-66
7.10262e-65
5.07382e-64
2.91407e-63
1.30138e-62
4.30931e-62
9.89758e-62
1.47482e-61
1.28372e-61
5.46372e-62
1.11208e-62
1.30406e-63
1.16161e-64
9.67784e-66
8.86601e-67
9.18605e-68
1.03676e-68
1.23603e-69
1.54991e-70
2.04042e-71
2.84454e-72
4.28018e-73
7.23329e-74
1.46328e-74
4.04978e-75
1.86365e-75
1.61545e-75
2.55079e-75
6.66181e-75
2.66571e-74
1.48714e-73
9.96517e-73
7.02834e-72
4.65215e-71
2.70165e-70
4.50052e-69
6.26355e-67
7.69161e-65
5.07634e-63
4.40189e-62
1.83574e-61
3.19822e-61
4.44854e-61
3.12587e-61
1.09629e-61
3.06133e-62
9.86207e-64
1.5491e-65
2.04382e-67
2.2203e-68
1.21574e-68
5.26246e-69
2.11569e-69
8.46148e-70
3.5849e-70
1.68884e-70
9.2469e-71
6.0459e-71
4.86969e-71
4.98254e-71
6.92407e-71
1.38601e-70
4.00613e-70
1.54451e-69
7.28048e-69
4.01199e-68
2.53885e-67
1.86406e-66
1.64199e-65
1.76513e-64
2.12765e-63
2.37217e-62
1.96334e-61
1.00627e-60
2.67081e-60
3.56286e-60
2.6398e-60
1.21718e-60
3.82423e-61
8.76596e-62
1.54267e-62
2.16656e-63
2.50084e-64
2.42743e-65
2.02468e-66
1.4937e-67
9.83673e-69
5.81956e-70
3.08115e-71
1.46376e-72
6.2758e-74
2.43684e-75
8.57757e-77
2.7418e-78
7.97439e-80
2.11271e-81
5.10306e-83
1.12195e-84
2.23051e-86
3.95339e-88
6.09063e-90
7.80894e-92
7.73182e-94
5.1837e-96
1.83379e-98
1.8852e-101
2.87696e-99
2.7518e-96
7.71027e-94
1.14411e-91
1.14997e-89
8.90733e-88
5.72041e-86
3.17941e-84
1.56934e-82
6.98502e-81
2.82458e-79
1.04003e-77
3.48375e-76
1.05916e-74
2.91569e-73
7.24733e-72
1.62133e-70
3.25185e-69
5.81812e-68
9.23385e-67
1.29065e-65
1.5748e-64
1.65836e-63
1.48571e-62
1.11071e-61
6.75498e-61
3.23352e-60
1.16725e-59
3.0619e-59
5.21292e-59
5.08061e-59
2.44865e-59
5.45834e-60
6.704e-61
6.21922e-62
5.46337e-63
5.34085e-64
5.91491e-65
7.09593e-66
8.98625e-67
1.19765e-67
1.67832e-68
2.50234e-69
4.06632e-70
7.53436e-71
1.71291e-71
5.50705e-72
2.97154e-72
2.89399e-72
4.87619e-72
1.31699e-71
5.33726e-71
2.96181e-70
1.944e-69
1.33072e-68
8.50491e-68
4.76409e-67
7.73153e-66
1.03814e-63
1.23112e-61
7.89087e-60
6.63217e-59
2.6456e-58
4.49835e-58
6.23081e-58
4.39215e-58
1.59824e-58
4.56734e-59
1.48006e-60
2.40587e-62
3.27033e-64
3.39922e-65
1.86997e-65
8.15689e-66
3.29316e-66
1.31746e-66
5.55172e-67
2.58514e-67
1.3899e-67
8.86516e-68
6.91145e-68
6.76092e-68
8.77901e-68
1.59444e-67
4.11045e-67
1.41335e-66
5.96225e-66
2.94254e-65
1.66401e-64
1.08566e-63
8.44992e-63
8.07936e-62
8.93304e-61
9.44949e-60
7.43534e-59
3.53932e-58
8.45758e-58
1.01677e-57
6.9052e-58
2.97298e-58
8.86897e-59
1.95771e-59
3.35937e-60
4.65155e-61
5.34712e-62
5.21179e-63
4.3767e-64
3.20416e-65
2.06352e-66
1.18379e-67
6.12948e-69
2.87138e-70
1.22452e-71
4.75119e-73
1.67719e-74
5.39414e-76
1.58349e-77
4.25183e-79
1.04474e-80
2.3428e-82
4.75767e-84
8.62111e-86
1.35888e-87
1.78417e-89
1.8112e-91
1.247e-93
4.54035e-96
4.81807e-99
6.16646e-97
5.69319e-94
1.54343e-91
2.22053e-89
2.16754e-87
1.63272e-85
1.02075e-83
5.52612e-82
2.65761e-80
1.15313e-78
4.55254e-77
1.64034e-75
5.39142e-74
1.61305e-72
4.38349e-71
1.0793e-69
2.40012e-68
4.80423e-67
8.61893e-66
1.37791e-64
1.95052e-63
2.42401e-62
2.61489e-61
2.41618e-60
1.87943e-59
1.20336e-58
6.22689e-58
2.46597e-57
7.01562e-57
1.31969e-56
1.45982e-56
8.14993e-57
2.06389e-57
2.74758e-58
2.74566e-59
2.62727e-60
2.81839e-61
3.41127e-62
4.42732e-63
6.04718e-64
8.67356e-65
1.30877e-65
2.11085e-66
3.74677e-67
7.69626e-68
1.98832e-68
7.4574e-69
4.66643e-69
5.03392e-69
8.99911e-69
2.51111e-68
1.03067e-67
5.68982e-67
3.65841e-66
2.43133e-65
1.50072e-64
8.10979e-64
1.28406e-62
1.66341e-60
1.90371e-58
1.18404e-56
9.61268e-56
3.66294e-55
6.07508e-55
8.37776e-55
5.91198e-55
2.2312e-55
6.53559e-56
2.12897e-57
3.57916e-59
5.00989e-61
4.95277e-62
2.72598e-62
1.19462e-62
4.82727e-63
1.92493e-63
8.03794e-64
3.68438e-64
1.93654e-64
1.19933e-64
9.00922e-65
8.39988e-65
1.01946e-64
1.6852e-64
3.87971e-64
1.18727e-63
4.46572e-63
1.96349e-62
9.8528e-62
5.6628e-61
3.85276e-60
3.22133e-59
3.18762e-58
3.11327e-57
2.27012e-56
9.78218e-56
2.06334e-55
2.20791e-55
1.36225e-55
5.43613e-56
1.52905e-56
3.229e-57
5.3664e-58
7.27306e-59
8.25505e-60
8.00522e-61
6.73166e-62
4.96412e-63
3.23786e-64
1.8801e-65
9.7659e-67
4.55669e-68
1.93238e-69
7.47329e-71
2.64183e-72
8.5673e-74
2.54907e-75
6.95146e-77
1.73474e-78
3.95261e-80
8.17278e-82
1.51223e-83
2.44086e-85
3.28975e-87
3.4356e-89
2.43879e-91
9.17924e-94
1.01013e-96
1.11041e-94
9.84731e-92
2.57102e-89
3.57019e-87
3.36974e-85
2.45807e-83
1.49016e-81
7.8317e-80
3.66066e-78
1.54645e-76
5.95875e-75
2.10111e-73
6.77814e-72
1.99687e-70
5.35993e-69
1.3074e-67
2.88984e-66
5.76812e-65
1.03511e-63
1.66232e-62
2.37492e-61
2.99511e-60
3.30196e-59
3.14997e-58
2.56814e-57
1.73677e-56
9.45225e-56
3.97906e-55
1.22584e-54
2.55568e-54
3.22269e-54
2.10784e-54
6.21895e-55
9.19244e-56
1.01576e-56
1.08775e-57
1.31015e-58
1.76293e-59
2.51118e-60
3.7457e-61
5.84745e-62
9.60664e-63
1.69451e-63
3.32064e-64
7.64202e-65
2.26466e-65
9.9099e-66
7.10165e-66
8.38911e-66
1.58464e-65
4.56446e-65
1.89684e-64
1.04137e-63
6.5574e-63
4.23091e-62
2.52173e-61
1.31439e-60
2.03305e-59
2.54012e-57
2.80303e-55
1.69025e-53
1.32006e-52
4.79836e-52
7.75928e-52
1.06525e-51
7.50889e-52
2.93805e-52
8.84039e-53
2.89512e-54
5.0338e-56
7.25577e-58
6.7815e-59
3.719e-59
1.63329e-59
6.58714e-60
2.61045e-60
1.07683e-60
4.84223e-61
2.4788e-61
1.48475e-61
1.07044e-61
9.48556e-62
1.0759e-61
1.62314e-61
3.34348e-61
9.09796e-61
3.04456e-60
1.18892e-59
5.27134e-59
2.65305e-58
1.5636e-57
1.12671e-56
9.75871e-56
8.60079e-55
5.69628e-54
2.17782e-53
4.002e-53
3.78753e-53
2.11508e-53
7.80193e-54
2.06447e-54
4.16212e-55
6.68505e-56
8.84396e-57
9.88213e-58
9.50237e-59
7.97266e-60
5.89833e-61
3.87835e-62
2.28001e-63
1.20398e-64
5.73383e-66
2.47001e-67
9.64858e-69
3.43767e-70
1.12509e-71
3.37919e-73
9.3357e-75
2.37149e-76
5.51051e-78
1.16285e-79
2.19993e-81
3.64098e-83
5.04762e-85
5.43826e-87
3.99398e-89
1.56012e-91
1.78807e-94
1.71077e-92
1.45123e-89
3.63488e-87
4.85397e-85
4.41462e-83
3.10873e-81
1.82271e-79
9.28411e-78
4.21609e-76
1.73499e-74
6.52704e-73
2.25177e-71
7.12328e-70
2.0628e-68
5.45664e-67
1.31556e-65
2.88281e-64
5.72511e-63
1.02636e-61
1.65399e-60
2.38729e-59
3.07048e-58
3.4701e-57
3.40134e-56
2.84716e-55
1.9943e-54
1.13764e-53
5.09157e-53
1.69814e-52
3.92258e-52
5.64366e-52
4.34737e-52
1.52233e-52
2.54714e-53
3.18321e-54
3.9065e-55
5.38306e-56
8.15598e-57
1.29056e-57
2.1249e-58
3.64868e-59
6.5963e-60
1.28556e-60
2.8088e-61
7.31398e-62
2.50385e-62
1.27344e-62
1.03199e-62
1.32299e-62
2.63227e-62
7.81943e-62
3.2878e-61
1.79359e-60
1.10522e-59
6.91983e-59
3.98027e-58
1.99999e-57
3.02574e-56
3.64349e-54
3.8718e-52
2.26103e-50
1.69051e-49
5.85315e-49
9.2259e-49
1.26107e-48
8.85842e-49
3.59233e-49
1.11344e-49
3.66982e-51
6.6039e-53
9.80941e-55
8.61498e-56
4.6883e-56
2.0594e-56
8.2715e-57
3.25014e-57
1.32129e-57
5.81308e-58
2.88955e-58
1.66856e-58
1.15078e-58
9.66775e-59
1.02453e-58
1.41398e-58
2.61206e-58
6.31987e-58
1.87859e-57
6.50105e-57
2.53862e-56
1.11357e-55
5.64117e-55
3.46201e-54
2.57744e-53
2.00951e-52
1.18935e-51
3.968e-51
6.29835e-51
5.25592e-51
2.6538e-51
9.04591e-52
2.25192e-52
4.33364e-53
6.72359e-54
8.67852e-55
9.54022e-56
9.08791e-57
7.59923e-58
5.63223e-59
3.72687e-60
2.21399e-61
1.18592e-62
5.74931e-64
2.52977e-65
1.01279e-66
3.69544e-68
1.22961e-69
3.75191e-71
1.05323e-72
2.71885e-74
6.44388e-76
1.39085e-77
2.69753e-79
4.59014e-81
6.56385e-83
7.318e-85
5.57898e-87
2.26973e-89
2.71967e-92
2.28844e-90
1.8499e-87
4.42937e-85
5.66944e-83
4.95385e-81
3.35946e-79
1.90201e-77
9.3834e-76
4.13911e-74
1.65811e-72
6.07987e-71
2.04757e-69
6.33804e-68
1.80118e-66
4.691e-65
1.11709e-63
2.42692e-62
4.80667e-61
8.6422e-60
1.40033e-58
2.03405e-57
2.6307e-56
3.00428e-55
2.9963e-54
2.57249e-53
1.86564e-52
1.11427e-51
5.29575e-51
1.90921e-50
4.87756e-50
7.99525e-50
7.26779e-50
3.06147e-50
5.89983e-51
8.51927e-52
1.22331e-52
1.95766e-53
3.37181e-54
5.98819e-55
1.09931e-55
2.09743e-56
4.21379e-57
9.15733e-58
2.25123e-58
6.6936e-59
2.65789e-59
1.56019e-59
1.41302e-59
1.952e-59
4.08038e-59
1.24852e-58
5.30492e-58
2.87163e-57
1.72935e-56
1.04964e-55
5.82001e-55
2.81648e-54
4.17228e-53
4.8363e-51
4.94065e-49
2.79016e-47
1.98603e-46
6.53897e-46
1.00458e-45
1.36748e-45
9.54882e-46
4.01217e-46
1.28538e-46
4.27387e-48
7.97246e-50
1.2222e-51
1.00247e-52
5.39143e-53
2.36571e-53
9.4485e-54
3.67518e-54
1.47003e-54
6.31552e-55
3.04155e-55
1.68903e-55
1.1115e-55
8.83461e-56
8.74368e-56
1.10614e-55
1.8368e-55
3.95255e-55
1.04246e-54
3.1923e-54
1.09597e-53
4.17934e-53
1.80939e-52
9.36129e-52
5.89674e-51
3.99448e-50
2.08329e-49
5.97923e-49
8.15288e-49
5.99389e-49
2.7383e-49
8.63521e-50
2.02451e-50
3.7224e-51
5.58339e-52
7.03561e-53
7.61186e-54
7.18469e-55
5.98738e-56
4.44456e-57
2.95853e-58
1.77493e-59
9.63666e-61
4.75133e-62
2.13304e-63
8.73985e-65
3.2739e-66
1.12198e-67
3.51093e-69
1.00433e-70
2.64504e-72
6.40629e-74
1.4172e-75
2.82634e-77
4.96129e-79
7.34142e-81
8.49474e-83
6.74155e-85
2.8648e-87
3.59986e-90
2.67898e-88
2.05782e-85
4.69783e-83
5.74959e-81
4.81627e-79
3.13973e-77
1.7141e-75
8.18061e-74
3.50091e-72
1.36315e-70
4.86564e-69
1.59889e-67
4.84229e-66
1.3515e-64
3.47743e-63
8.21023e-62
1.76943e-60
3.47195e-59
6.18336e-58
9.96083e-57
1.44494e-55
1.87606e-54
2.16346e-53
2.19346e-52
1.9294e-51
1.44668e-50
9.03311e-50
4.54979e-49
1.76869e-48
4.98378e-48
9.28209e-48
9.9501e-48
5.08964e-48
1.14967e-48
1.95907e-49
3.35092e-50
6.29724e-51
1.24256e-51
2.50134e-52
5.16981e-53
1.10621e-53
2.4912e-54
6.08761e-55
1.69878e-55
5.8131e-56
2.67896e-56
1.79845e-56
1.80123e-56
2.6665e-56
5.84204e-56
1.83813e-55
7.8781e-55
4.22231e-54
2.48022e-53
1.457e-52
7.77389e-52
3.61768e-51
5.25201e-50
5.84967e-48
5.73185e-46
3.12443e-44
2.10389e-43
6.57441e-43
9.84609e-43
1.33523e-42
9.24343e-43
4.02357e-43
1.33774e-43
4.50502e-45
8.73453e-47
1.38531e-48
1.0549e-49
5.58268e-50
2.44565e-50
9.70591e-51
3.73411e-51
1.46833e-51
6.15345e-52
2.8671e-52
1.52843e-52
9.57857e-53
7.19172e-53
6.64532e-53
7.71953e-53
1.1552e-52
2.21279e-52
5.17479e-52
1.40081e-51
4.2237e-51
1.39871e-50
5.1586e-50
2.23185e-49
1.1724e-48
6.7806e-48
3.07622e-47
7.50248e-47
8.76129e-47
5.67916e-47
2.35178e-47
6.87443e-48
1.5207e-48
2.67606e-49
3.88644e-50
4.78697e-51
5.10241e-52
4.7759e-53
3.96885e-54
2.95205e-55
1.97727e-56
1.19814e-57
6.5932e-59
3.30545e-60
1.5136e-61
6.34459e-63
2.43859e-64
8.60092e-66
2.77915e-67
8.17143e-69
2.20302e-70
5.46847e-72
1.24355e-73
2.55833e-75
4.64673e-77
7.13423e-79
8.5883e-81
7.1117e-83
3.16418e-85
4.18051e-88
2.7599e-86
2.01013e-83
4.36692e-81
5.10114e-79
4.08938e-77
2.55851e-75
1.34489e-73
6.20164e-72
2.57205e-70
9.72943e-69
3.38359e-67
1.08763e-65
3.24307e-64
8.89453e-63
2.24131e-61
5.18313e-60
1.0978e-58
2.12413e-57
3.74404e-56
5.99287e-55
8.67481e-54
1.12947e-52
1.31356e-51
1.35183e-50
1.21613e-49
9.41039e-49
6.12944e-48
3.26373e-47
1.36414e-46
4.22489e-46
8.90722e-46
1.12309e-45
7.0161e-46
1.89311e-46
3.88513e-47
8.03235e-48
1.78694e-48
4.07111e-49
9.37882e-50
2.20272e-50
5.32935e-51
1.35589e-51
3.75656e-52
1.20035e-52
4.75458e-53
2.53572e-53
1.9271e-53
2.11521e-53
3.34019e-53
7.6509e-53
2.46956e-52
1.06481e-51
5.63351e-51
3.21883e-50
1.82584e-49
9.35084e-49
4.17551e-48
5.94238e-47
6.34367e-45
5.9447e-43
3.11989e-41
1.97369e-40
5.83909e-40
8.52846e-40
1.15266e-39
7.88904e-40
3.55774e-40
1.23307e-40
4.23125e-42
8.56083e-44
1.40953e-45
9.90931e-47
5.13649e-47
2.24714e-47
8.86307e-48
3.37249e-48
1.30365e-48
5.328e-49
2.40021e-49
1.22723e-49
7.31579e-50
5.18293e-50
4.47063e-50
4.77677e-50
6.45877e-50
1.1028e-49
2.2861e-49
5.46584e-49
1.44625e-48
4.15725e-48
1.30495e-47
4.69439e-47
2.02974e-46
9.84719e-46
3.83778e-45
7.87324e-45
7.86605e-45
4.50491e-45
1.69545e-45
4.60608e-46
9.63725e-47
1.62674e-47
2.29201e-48
2.76415e-49
2.90678e-50
2.70139e-51
2.24087e-52
1.67144e-53
1.12719e-54
6.90238e-56
3.85104e-57
1.96359e-58
9.17224e-60
3.93337e-61
1.55112e-62
5.62959e-64
1.87776e-65
5.72015e-67
1.58169e-68
4.03869e-70
9.4714e-72
2.01551e-73
3.79704e-75
6.06221e-77
7.6085e-79
6.58723e-81
3.07478e-83
4.28028e-86
2.51559e-84
1.73347e-81
3.57687e-79
3.98121e-77
3.04979e-75
1.82885e-73
9.2457e-72
4.11514e-70
1.65306e-68
6.07921e-67
2.06604e-65
6.52276e-64
1.88829e-62
5.03613e-61
1.23843e-59
2.80429e-58
5.83514e-57
1.11278e-55
1.93983e-54
3.08225e-53
4.44686e-52
5.79781e-51
6.7886e-50
7.07851e-49
6.49973e-48
5.17841e-47
3.50954e-46
1.96974e-45
8.82167e-45
2.99105e-44
7.10574e-44
1.04971e-43
8.02777e-44
2.64018e-44
6.64676e-45
1.67863e-45
4.45025e-46
1.18142e-46
3.14531e-47
8.46612e-48
2.33373e-48
6.76098e-49
2.1426e-49
7.904e-50
3.6345e-50
2.23e-50
1.89908e-50
2.26691e-50
3.80336e-50
9.08153e-50
2.99774e-49
1.29567e-48
6.73918e-48
3.73193e-47
2.03746e-46
9.98135e-46
4.26391e-45
5.94598e-44
6.06338e-42
5.41349e-40
2.72574e-38
1.60832e-37
4.4899e-37
6.40041e-37
8.6245e-37
5.81957e-37
2.72041e-37
9.87404e-38
3.48279e-39
7.39394e-41
1.26974e-42
8.2025e-44
4.14242e-44
1.81184e-44
7.10904e-45
2.67773e-45
1.0185e-45
4.06245e-46
1.77004e-46
8.67906e-47
4.91928e-47
3.28688e-47
2.64688e-47
2.60543e-47
3.19146e-47
4.86577e-47
8.94137e-47
1.88656e-46
4.37616e-46
1.09122e-45
2.91636e-45
8.69723e-45
3.06121e-44
1.22398e-43
4.04624e-43
6.92737e-43
5.92614e-43
3.00779e-43
1.0323e-43
2.61473e-44
5.18964e-45
8.4242e-46
1.15407e-46
1.36549e-47
1.41915e-48
1.31141e-49
1.08724e-50
8.14072e-52
5.53256e-53
3.42596e-54
1.93909e-55
1.00599e-56
4.79506e-58
2.10417e-59
8.51489e-61
3.18032e-62
1.09505e-63
3.45539e-65
9.86146e-67
2.59724e-68
6.29718e-70
1.38917e-71
2.71986e-73
4.52381e-75
5.92911e-77
5.37518e-79
2.63622e-81
3.87298e-84
2.02854e-82
1.32118e-79
2.58717e-77
2.74166e-75
2.00524e-73
1.15138e-71
5.59158e-70
2.39952e-68
9.32946e-67
3.33638e-65
1.11266e-63
3.39249e-62
9.51349e-61
2.46677e-59
5.91752e-58
1.3114e-56
2.67905e-55
5.03195e-54
8.66801e-53
1.36566e-51
1.9611e-50
2.55629e-49
3.00774e-48
3.17067e-47
2.96455e-46
2.42554e-45
1.70552e-44
1.00564e-43
4.80729e-43
1.77648e-42
4.73139e-42
8.14509e-42
7.61951e-42
3.1156e-42
9.75924e-43
3.03452e-43
9.66064e-44
3.02097e-44
9.38328e-45
2.91851e-45
9.24188e-46
3.07564e-46
1.12593e-46
4.82824e-47
2.57584e-47
1.804e-47
1.70521e-47
2.19926e-47
3.90574e-47
9.68664e-47
3.25622e-46
1.40411e-45
7.14239e-45
3.81529e-44
1.99631e-43
9.3125e-43
3.79063e-42
5.17137e-41
5.01512e-39
4.24506e-37
2.04035e-35
1.11518e-34
2.92417e-34
4.0729e-34
5.47216e-34
3.63126e-34
1.76188e-34
6.72303e-35
2.46762e-36
5.53849e-38
9.93801e-40
5.8902e-41
2.88661e-41
1.265e-41
4.94794e-42
1.8484e-42
6.93128e-43
2.70296e-43
1.14048e-43
5.36651e-44
2.89308e-44
1.82316e-44
1.37113e-44
1.24527e-44
1.38541e-44
1.88971e-44
3.0788e-44
5.72713e-44
1.16309e-43
2.51254e-43
5.71883e-43
1.41257e-42
4.01509e-42
1.30097e-41
3.59992e-41
5.11695e-41
3.75733e-41
1.6967e-41
5.33134e-42
1.2636e-42
2.38682e-43
3.73677e-44
4.99026e-45
5.8056e-46
5.97472e-47
5.49906e-48
4.56295e-49
3.43369e-50
2.35395e-51
1.47525e-52
8.47627e-54
4.47662e-55
2.17826e-56
9.78456e-58
4.06415e-59
1.56247e-60
5.55442e-62
1.81566e-63
5.37522e-65
1.46175e-66
3.67151e-68
8.4125e-70
1.71487e-71
2.97639e-73
4.08003e-75
3.87856e-77
2.00129e-79
3.10728e-82
1.45193e-80
8.92659e-78
1.65725e-75
1.67061e-73
1.16565e-71
6.40321e-70
2.98457e-68
1.23394e-66
4.64527e-65
1.61658e-63
5.22555e-62
1.53705e-60
4.17411e-59
1.0518e-57
2.46021e-56
5.33313e-55
1.06894e-53
1.97594e-52
3.36039e-51
5.24355e-50
7.48411e-49
9.73579e-48
1.14872e-46
1.22132e-45
1.15967e-44
9.71576e-44
7.06484e-43
4.36048e-42
2.21564e-41
8.87944e-41
2.63567e-40
5.25424e-40
5.99049e-40
3.09589e-40
1.21768e-40
4.69839e-41
1.81258e-41
6.75726e-42
2.4728e-42
8.96704e-43
3.29454e-43
1.27279e-43
5.43677e-44
2.72171e-44
1.67864e-44
1.33041e-44
1.38414e-44
1.91806e-44
3.59164e-44
9.20973e-44
3.13582e-43
1.34082e-42
6.62554e-42
3.39382e-41
1.69257e-40
7.47464e-40
2.88403e-39
3.83721e-38
3.51884e-36
2.806e-34
1.27815e-32
6.43609e-32
1.5744e-31
2.14581e-31
2.87329e-31
1.87193e-31
9.45193e-32
3.79885e-32
1.47337e-33
3.50809e-35
6.60288e-37
3.61256e-38
1.71223e-38
7.54281e-39
2.95086e-39
1.09657e-39
4.06629e-40
1.55469e-40
6.3669e-41
2.87959e-41
1.47807e-41
8.7902e-42
6.17752e-42
5.18363e-42
5.25001e-42
6.4194e-42
9.27444e-42
1.51913e-41
2.69616e-41
5.03558e-41
9.75334e-41
1.99515e-40
4.55834e-40
1.17982e-39
2.69566e-39
3.17383e-39
2.00831e-39
8.10724e-40
2.34277e-40
5.21696e-41
9.41207e-42
1.42568e-42
1.86111e-43
2.13404e-44
2.17923e-45
2.00122e-46
1.6644e-47
1.26036e-48
8.72471e-50
5.53855e-51
3.23266e-52
1.73902e-53
8.64196e-55
3.97501e-56
1.6952e-57
6.70992e-59
2.46312e-60
8.34185e-62
2.56893e-63
7.22127e-65
1.88252e-66
4.48676e-68
9.53464e-70
1.72884e-71
2.48097e-73
2.47491e-75
1.34438e-77
2.20731e-80
9.20802e-79
5.3412e-76
9.39785e-74
9.00934e-72
5.99508e-70
3.14941e-68
1.40804e-66
5.60266e-65
2.0391e-63
6.91898e-62
2.14825e-60
6.09461e-59
1.60226e-57
3.92186e-56
8.93986e-55
1.89452e-53
3.72319e-52
6.76801e-51
1.13525e-49
1.75238e-48
2.48246e-47
3.21703e-46
3.7981e-45
4.06239e-44
3.90614e-43
3.34035e-42
2.50291e-41
1.61058e-40
8.65895e-40
3.74307e-39
1.23031e-38
2.81895e-38
3.89287e-38
2.5693e-38
1.27665e-38
6.16529e-39
2.91315e-39
1.31057e-39
5.7099e-40
2.44004e-40
1.05251e-40
4.77831e-41
2.40331e-41
1.40648e-41
9.97373e-42
8.8726e-42
1.00895e-41
1.49492e-41
2.93855e-41
7.74595e-41
2.65308e-40
1.11617e-39
5.31327e-39
2.59084e-38
1.22313e-37
5.07567e-37
1.84402e-36
2.38042e-35
2.04927e-33
1.52695e-31
6.52305e-30
3.01957e-29
6.82013e-29
9.11294e-29
1.21439e-28
7.77122e-29
4.10392e-29
1.7316e-29
7.21967e-31
1.83844e-32
3.65441e-34
1.86173e-35
8.50847e-36
3.78524e-36
1.48799e-36
5.5236e-37
2.03391e-37
7.65452e-38
3.05281e-38
1.3303e-38
6.51285e-39
3.65933e-39
2.40499e-39
1.8667e-39
1.72446e-39
1.89353e-39
2.42609e-39
3.49307e-39
5.40518e-39
8.70542e-39
1.43185e-38
2.4244e-38
4.44413e-38
9.09087e-38
1.69292e-37
1.65235e-37
9.05817e-38
3.28686e-38
8.77901e-39
1.84499e-39
3.19159e-40
4.6933e-41
6.00657e-42
6.80571e-43
6.91075e-44
6.34355e-45
5.29636e-46
4.04088e-47
2.82742e-48
1.81956e-49
1.07956e-50
5.91864e-52
3.00504e-53
1.41581e-54
6.20093e-56
2.52756e-57
9.58251e-59
3.36258e-60
1.07713e-61
3.13761e-63
8.50309e-65
2.11087e-66
4.68161e-68
8.87657e-70
1.33455e-71
1.39797e-73
7.99988e-76
1.39019e-78
5.17679e-77
2.8322e-74
4.72225e-72
4.30463e-70
2.73117e-68
1.37156e-66
5.87808e-65
2.24902e-63
7.89695e-62
2.60071e-60
7.75516e-59
2.12177e-57
5.3987e-56
1.28316e-54
2.84907e-53
5.89876e-52
1.13587e-50
2.02902e-49
3.35377e-48
5.11553e-47
7.1823e-46
9.25579e-45
1.09102e-43
1.17088e-42
1.13666e-41
9.88671e-41
7.60446e-40
5.07958e-39
2.87506e-38
1.33273e-37
4.81637e-37
1.25775e-36
2.08586e-36
1.76384e-36
1.11149e-36
6.78102e-37
3.96566e-37
2.17814e-37
1.14289e-37
5.83332e-38
2.9955e-38
1.61965e-38
9.65806e-39
6.6017e-39
5.35515e-39
5.31212e-39
6.56732e-39
1.03582e-38
2.12659e-38
5.72049e-38
1.95419e-37
8.01094e-37
3.63601e-36
1.67303e-35
7.41251e-35
2.86404e-34
9.71501e-34
1.20743e-32
9.67079e-31
6.66277e-29
2.62931e-27
1.12318e-26
2.30495e-26
3.02635e-26
4.00181e-26
2.52838e-26
1.40883e-26
6.15497e-27
2.83051e-28
7.79489e-30
1.65062e-31
7.91969e-33
3.48132e-33
1.57344e-33
6.25311e-34
2.33163e-34
8.57137e-35
3.19175e-35
1.24525e-35
5.24537e-36
2.45521e-36
1.30529e-36
8.02965e-37
5.76993e-37
4.86821e-37
4.80665e-37
5.46015e-37
6.89323e-37
9.27143e-37
1.28378e-36
1.78822e-36
2.5037e-36
3.68059e-36
5.91393e-36
8.88087e-36
7.2132e-36
3.44833e-36
1.13186e-36
2.80979e-37
5.59958e-38
9.32669e-39
1.3363e-39
1.68188e-40
1.88795e-41
1.91051e-42
1.75619e-43
1.4742e-44
1.13465e-45
8.03285e-47
5.2446e-48
3.16499e-49
1.76919e-50
9.18053e-52
4.43164e-53
1.99376e-54
8.37012e-56
3.27758e-57
1.1917e-58
3.97053e-60
1.20071e-61
3.3863e-63
8.76312e-65
2.02979e-66
4.0264e-68
6.34417e-70
6.97973e-72
4.20827e-74
7.74161e-77
2.57364e-75
1.328e-72
2.09862e-70
1.81951e-68
1.10095e-66
5.28579e-65
2.17176e-63
7.99008e-62
2.70385e-60
8.59981e-59