/*--------------------------------*- C++ -*----------------------------------*\
| =========                 |                                                 |
| \\      /  F ield         | OpenFOAM: The Open Source CFD Toolbox           |
|  \\    /   O peration     | Version:  2212                                  |
|   \\  /    A nd           | Website:  www.openfoam.com                      |
|    \\/     M anipulation  |                                                 |
\*---------------------------------------------------------------------------*/
FoamFile
{
    version     2.0;
    format      ascii;
    arch        "LSB;label=64;scalar=64";
    class       volScalarField;
    location    "390";
    object      p;
}
// * * * * * * * * * * * * * * * * * * * * * * * * * * * * * * * * * * * * * //

dimensions      [0 2 -2 0 0 0 0];

internalField   nonuniform List<scalar> 
1024
(
0
-4.68454e-06
-9.95204e-06
-1.3438e-05
-1.53055e-05
-1.69811e-05
-1.87836e-05
-1.87849e-05
-1.27134e-05
5.96415e-06
4.6326e-05
0.000120502
0.000243263
0.00042491
0.000651624
0.000865817
0.000978407
0.000973087
0.000914155
0.000891985
0.000876843
0.00086489
0.000845007
0.000811139
0.000765728
0.000717691
0.00067606
0.000644973
0.000625574
0.000617758
0.000619922
0.000626198
-0.0928181
-0.0928233
-0.0928289
-0.0928331
-0.0928367
-0.0928406
-0.0928448
-0.0928472
-0.0928435
-0.0928275
-0.09279
-0.092719
-0.0925999
-0.0924224
-0.0921996
-0.0919881
-0.0918756
-0.0918767
-0.0919296
-0.0919502
-0.0919656
-0.0919786
-0.0919992
-0.0920323
-0.0920752
-0.0921194
-0.0921564
-0.0921824
-0.0921971
-0.0922019
-0.0921982
-0.092191
-0.199452
-0.199459
-0.199466
-0.199473
-0.19948
-0.199489
-0.199498
-0.199506
-0.199508
-0.199498
-0.199466
-0.199402
-0.19929
-0.19912
-0.198903
-0.198696
-0.198583
-0.198576
-0.198618
-0.198635
-0.19865
-0.198665
-0.198686
-0.198718
-0.198757
-0.198795
-0.198825
-0.198843
-0.19885
-0.19885
-0.198842
-0.198833
-0.321965
-0.321975
-0.321986
-0.321997
-0.322011
-0.322028
-0.322046
-0.322063
-0.322075
-0.322074
-0.322052
-0.321997
-0.321896
-0.321736
-0.321528
-0.321326
-0.321211
-0.321193
-0.321218
-0.321229
-0.321244
-0.32126
-0.321281
-0.321311
-0.321345
-0.321376
-0.321398
-0.321407
-0.321405
-0.321397
-0.321385
-0.321372
-0.462734
-0.462747
-0.462763
-0.462781
-0.462804
-0.462833
-0.462864
-0.462894
-0.462919
-0.462931
-0.462922
-0.462881
-0.462793
-0.462646
-0.462446
-0.462248
-0.462131
-0.462098
-0.462103
-0.462108
-0.462122
-0.462138
-0.462159
-0.462186
-0.462215
-0.462238
-0.46225
-0.46225
-0.462238
-0.462222
-0.462205
-0.46219
-0.624496
-0.624512
-0.624533
-0.624559
-0.624594
-0.624636
-0.624682
-0.624727
-0.624767
-0.624794
-0.624801
-0.624776
-0.624703
-0.624567
-0.624374
-0.624178
-0.624057
-0.624012
-0.623997
-0.623995
-0.624005
-0.62402
-0.62404
-0.624064
-0.624087
-0.624103
-0.624107
-0.624097
-0.624077
-0.624054
-0.624034
-0.624019
-0.810395
-0.810411
-0.810437
-0.810471
-0.810517
-0.810572
-0.810632
-0.810692
-0.810747
-0.810789
-0.810811
-0.810801
-0.810741
-0.810612
-0.810423
-0.810228
-0.810103
-0.810046
-0.810017
-0.810009
-0.810015
-0.810029
-0.810046
-0.810065
-0.810082
-0.810091
-0.810089
-0.810072
-0.810047
-0.81002
-0.809998
-0.809984
-1.02403
-1.02405
-1.02408
-1.02412
-1.02417
-1.02424
-1.02431
-1.02438
-1.02444
-1.0245
-1.02453
-1.02453
-1.02448
-1.02435
-1.02416
-1.02397
-1.02384
-1.02378
-1.02374
-1.02373
-1.02373
-1.02374
-1.02375
-1.02377
-1.02378
-1.02378
-1.02377
-1.02375
-1.02373
-1.0237
-1.02368
-1.02367
-1.26954
-1.26955
-1.26958
-1.26962
-1.26967
-1.26974
-1.26982
-1.26989
-1.26996
-1.27002
-1.27006
-1.27007
-1.27002
-1.2699
-1.2697
-1.2695
-1.26937
-1.26931
-1.26927
-1.26925
-1.26925
-1.26926
-1.26927
-1.26927
-1.26928
-1.26928
-1.26927
-1.26925
-1.26922
-1.2692
-1.26918
-1.26918
-1.55162
-1.55163
-1.55165
-1.55169
-1.55174
-1.55181
-1.55188
-1.55195
-1.55202
-1.55208
-1.55212
-1.55213
-1.55208
-1.55195
-1.55175
-1.55155
-1.55142
-1.55135
-1.55132
-1.5513
-1.5513
-1.5513
-1.55131
-1.55131
-1.55131
-1.55131
-1.5513
-1.55128
-1.55125
-1.55124
-1.55122
-1.55122
-1.87569
-1.87569
-1.87571
-1.87575
-1.87579
-1.87585
-1.87591
-1.87597
-1.87604
-1.87609
-1.87613
-1.87614
-1.87608
-1.87595
-1.87574
-1.87554
-1.87541
-1.87534
-1.87531
-1.8753
-1.8753
-1.87529
-1.87529
-1.87529
-1.87529
-1.87528
-1.87527
-1.87526
-1.87524
-1.87522
-1.87521
-1.87521
-2.24794
-2.24794
-2.24796
-2.24798
-2.24802
-2.24807
-2.24813
-2.24818
-2.24823
-2.24827
-2.24831
-2.24831
-2.24825
-2.24811
-2.2479
-2.24771
-2.24757
-2.24751
-2.24749
-2.24748
-2.24747
-2.24746
-2.24746
-2.24745
-2.24745
-2.24744
-2.24743
-2.24742
-2.2474
-2.24739
-2.24739
-2.24739
-2.6755
-2.6755
-2.67551
-2.67553
-2.67557
-2.67562
-2.67566
-2.67571
-2.67574
-2.67578
-2.6758
-2.6758
-2.67573
-2.67558
-2.67538
-2.67519
-2.67507
-2.67502
-2.675
-2.675
-2.67499
-2.67498
-2.67497
-2.67496
-2.67496
-2.67495
-2.67494
-2.67493
-2.67492
-2.67491
-2.6749
-2.6749
-3.16655
-3.16655
-3.16655
-3.16657
-3.16661
-3.16665
-3.1667
-3.16675
-3.16678
-3.16681
-3.16682
-3.1668
-3.16672
-3.16657
-3.16639
-3.16622
-3.16613
-3.1661
-3.1661
-3.16609
-3.16609
-3.16608
-3.16607
-3.16606
-3.16605
-3.16604
-3.16603
-3.16602
-3.166
-3.166
-3.16599
-3.16599
-3.73047
-3.73047
-3.73047
-3.73048
-3.73052
-3.73057
-3.73062
-3.73068
-3.73072
-3.73075
-3.73075
-3.73072
-3.73064
-3.7305
-3.73034
-3.73023
-3.7302
-3.73021
-3.73022
-3.73022
-3.73022
-3.73021
-3.7302
-3.73019
-3.73018
-3.73017
-3.73015
-3.73012
-3.73011
-3.73009
-3.73009
-3.73009
-4.37808
-4.37807
-4.37807
-4.37808
-4.3781
-4.37815
-4.37821
-4.37827
-4.37833
-4.37836
-4.37837
-4.37834
-4.37826
-4.37816
-4.37807
-4.37806
-4.37811
-4.37817
-4.37821
-4.37824
-4.37824
-4.37823
-4.37822
-4.3782
-4.37817
-4.37813
-4.37809
-4.37804
-4.37801
-4.378
-4.378
-4.378
-5.07036
-5.07035
-5.07035
-5.07035
-5.07036
-5.0704
-5.07044
-5.0705
-5.07055
-5.07059
-5.0706
-5.07058
-5.07054
-5.07051
-5.07054
-5.07066
-5.0708
-5.07091
-5.07097
-5.071
-5.07099
-5.07098
-5.07094
-5.07088
-5.0708
-5.07071
-5.07063
-5.07057
-5.07053
-5.07052
-5.07052
-5.07052
-5.71786
-5.71785
-5.71785
-5.71784
-5.71785
-5.71787
-5.71789
-5.71792
-5.71796
-5.71798
-5.71799
-5.718
-5.71801
-5.71807
-5.71819
-5.71839
-5.7186
-5.71873
-5.7188
-5.71881
-5.71877
-5.71869
-5.71857
-5.71843
-5.71828
-5.71815
-5.71806
-5.71801
-5.71799
-5.71799
-5.71799
-5.718
-6.2817
-6.2817
-6.28169
-6.28169
-6.28169
-6.28169
-6.2817
-6.2817
-6.28171
-6.28171
-6.28173
-6.28176
-6.28182
-6.28192
-6.2821
-6.28232
-6.28252
-6.28265
-6.28271
-6.28269
-6.28262
-6.28247
-6.28229
-6.28208
-6.28189
-6.28174
-6.28165
-6.28162
-6.28162
-6.28163
-6.28165
-6.28165
-6.77271
-6.77271
-6.7727
-6.7727
-6.7727
-6.7727
-6.77269
-6.77267
-6.77266
-6.77265
-6.77266
-6.77272
-6.77282
-6.77296
-6.77313
-6.77333
-6.77351
-6.77366
-6.77375
-6.77377
-6.77372
-6.7736
-6.77342
-6.77321
-6.77301
-6.77284
-6.77274
-6.7727
-6.7727
-6.77272
-6.77273
-6.77274
-7.20022
-7.20022
-7.20022
-7.20022
-7.20022
-7.20021
-7.20021
-7.20019
-7.20018
-7.20018
-7.20021
-7.20028
-7.20037
-7.2005
-7.20066
-7.20084
-7.20104
-7.20123
-7.20138
-7.20147
-7.20149
-7.20143
-7.20129
-7.20112
-7.20092
-7.20075
-7.20061
-7.20053
-7.20049
-7.20049
-7.2005
-7.20052
-7.57241
-7.57241
-7.57241
-7.57242
-7.57242
-7.57242
-7.57241
-7.57241
-7.57241
-7.57243
-7.57246
-7.57252
-7.57261
-7.57274
-7.57289
-7.57307
-7.57328
-7.5735
-7.57369
-7.57383
-7.57389
-7.57387
-7.57378
-7.57364
-7.57346
-7.57328
-7.57312
-7.573
-7.57292
-7.5729
-7.5729
-7.57292
-7.89644
-7.89644
-7.89644
-7.89645
-7.89645
-7.89645
-7.89645
-7.89646
-7.89647
-7.89649
-7.89653
-7.89659
-7.89668
-7.8968
-7.89695
-7.89713
-7.89734
-7.89758
-7.89781
-7.89797
-7.89805
-7.89805
-7.89799
-7.89787
-7.89771
-7.89753
-7.89735
-7.8972
-7.8971
-7.89705
-7.89704
-7.89706
-8.17854
-8.17854
-8.17854
-8.17854
-8.17855
-8.17855
-8.17855
-8.17856
-8.17857
-8.17859
-8.17864
-8.1787
-8.1788
-8.17892
-8.17906
-8.17924
-8.17946
-8.17971
-8.17994
-8.18012
-8.1802
-8.18021
-8.18014
-8.18003
-8.17987
-8.1797
-8.17951
-8.17933
-8.1792
-8.17912
-8.1791
-8.17912
-8.42413
-8.42413
-8.42413
-8.42413
-8.42413
-8.42413
-8.42413
-8.42414
-8.42415
-8.42418
-8.42422
-8.42429
-8.42439
-8.42451
-8.42466
-8.42484
-8.42506
-8.42531
-8.42555
-8.42572
-8.4258
-8.4258
-8.42572
-8.42559
-8.42542
-8.42521
-8.42501
-8.42481
-8.42464
-8.42453
-8.4245
-8.4245
-8.63794
-8.63794
-8.63794
-8.63794
-8.63794
-8.63793
-8.63792
-8.63793
-8.63794
-8.63796
-8.63801
-8.63808
-8.63818
-8.63831
-8.63846
-8.63864
-8.63887
-8.63912
-8.63935
-8.63952
-8.6396
-8.63958
-8.63948
-8.63932
-8.63911
-8.63886
-8.63861
-8.63837
-8.63816
-8.63801
-8.63794
-8.63793
-8.82409
-8.82409
-8.82409
-8.82408
-8.82406
-8.82405
-8.82404
-8.82403
-8.82404
-8.82407
-8.82412
-8.82419
-8.8243
-8.82442
-8.82458
-8.82477
-8.825
-8.82525
-8.82548
-8.82564
-8.82571
-8.82568
-8.82556
-8.82536
-8.82511
-8.82481
-8.82448
-8.82417
-8.8239
-8.82368
-8.82356
-8.82352
-8.98616
-8.98616
-8.98615
-8.98613
-8.9861
-8.98607
-8.98605
-8.98604
-8.98605
-8.98608
-8.98613
-8.98621
-8.98632
-8.98645
-8.98661
-8.9868
-8.98703
-8.98728
-8.98751
-8.98766
-8.98772
-8.98768
-8.98754
-8.98732
-8.98702
-8.98666
-8.98626
-8.98586
-8.98548
-8.98517
-8.98496
-8.98486
-9.12731
-9.12729
-9.12725
-9.1272
-9.12715
-9.12712
-9.12709
-9.12708
-9.12709
-9.12712
-9.12717
-9.12725
-9.12736
-9.1275
-9.12766
-9.12785
-9.12808
-9.12833
-9.12856
-9.12871
-9.12877
-9.12871
-9.12856
-9.12832
-9.12799
-9.12758
-9.12711
-9.12661
-9.1261
-9.12563
-9.12527
-9.12505
-9.25028
-9.25021
-9.2501
-9.25001
-9.24994
-9.24989
-9.24986
-9.24985
-9.24986
-9.24989
-9.24995
-9.25003
-9.25015
-9.25028
-9.25045
-9.25065
-9.25088
-9.25113
-9.25135
-9.25151
-9.25155
-9.25149
-9.25133
-9.25108
-9.25072
-9.25028
-9.24976
-9.24918
-9.24853
-9.24785
-9.24722
-9.24667
-9.35767
-9.35727
-9.35703
-9.35689
-9.3568
-9.35675
-9.35673
-9.35672
-9.35673
-9.35677
-9.35683
-9.35692
-9.35703
-9.35718
-9.35734
-9.35754
-9.35778
-9.35803
-9.35825
-9.3584
-9.35845
-9.35839
-9.35822
-9.35796
-9.3576
-9.35714
-9.3566
-9.35596
-9.3552
-9.35428
-9.35318
-9.35192
-9.45174
-9.4505
-9.45003
-9.44989
-9.44981
-9.44977
-9.44975
-9.44975
-9.44977
-9.44981
-9.44988
-9.44997
-9.45009
-9.45023
-9.4504
-9.4506
-9.45084
-9.45109
-9.45131
-9.45146
-9.45151
-9.45145
-9.45129
-9.45102
-9.45066
-9.4502
-9.44965
-9.44898
-9.44815
-9.44705
-9.44544
-9.44319
)
;

boundaryField
{
    movingWall
    {
        type            calculated;
        value           nonuniform List<scalar> 
32
(
-9.49505
-9.49381
-9.49334
-9.4932
-9.49312
-9.49308
-9.49306
-9.49306
-9.49308
-9.49312
-9.49319
-9.49328
-9.4934
-9.49354
-9.49371
-9.49391
-9.49415
-9.4944
-9.49463
-9.49478
-9.49482
-9.49476
-9.4946
-9.49434
-9.49397
-9.49352
-9.49296
-9.4923
-9.49146
-9.49036
-9.48875
-9.4865
)
;
    }
    fixedWalls
    {
        type            calculated;
        value           nonuniform List<scalar> 
64
(
6.93889e-18
-0.0928181
-0.199452
-0.321965
-0.462734
-0.624496
-0.810395
-1.02403
-1.26954
-1.55162
-1.87569
-2.24794
-2.6755
-3.16655
-3.73047
-4.37808
-5.07036
-5.71786
-6.2817
-6.77271
-7.20022
-7.57241
-7.89644
-8.17854
-8.42413
-8.63794
-8.82409
-8.98616
-9.12731
-9.25028
-9.35767
-9.45174
0.000626198
-0.092191
-0.198833
-0.321372
-0.46219
-0.624019
-0.809984
-1.02367
-1.26918
-1.55122
-1.87521
-2.24739
-2.6749
-3.16599
-3.73009
-4.378
-5.07052
-5.718
-6.28165
-6.77274
-7.20052
-7.57292
-7.89706
-8.17912
-8.4245
-8.63793
-8.82352
-8.98486
-9.12505
-9.24667
-9.35192
-9.44319
)
;
    }
    floor
    {
        type            calculated;
        value           nonuniform List<scalar> 
32
(
0.0431966
0.043192
0.0431869
0.0431837
0.0431822
0.043181
0.0431796
0.04318
0.0431865
0.0432056
0.0432464
0.043321
0.0434443
0.0436266
0.0438539
0.0440685
0.0441811
0.044175
0.0441151
0.0440926
0.0440775
0.0440657
0.0440459
0.0440119
0.0439661
0.0439175
0.0438753
0.0438436
0.0438235
0.0438152
0.0438171
0.0438232
)
;
    }
    frontAndBack
    {
        type            empty;
    }
}


// ************************************************************************* //
