/*--------------------------------*- C++ -*----------------------------------*\
| =========                 |                                                 |
| \\      /  F ield         | OpenFOAM: The Open Source CFD Toolbox           |
|  \\    /   O peration     | Version:  2212                                  |
|   \\  /    A nd           | Website:  www.openfoam.com                      |
|    \\/     M anipulation  |                                                 |
\*---------------------------------------------------------------------------*/
FoamFile
{
    version     2.0;
    format      ascii;
    arch        "LSB;label=64;scalar=64";
    class       volScalarField;
    location    "390";
    object      p_rgh;
}
// * * * * * * * * * * * * * * * * * * * * * * * * * * * * * * * * * * * * * //

dimensions      [0 2 -2 0 0 0 0];

internalField   nonuniform List<scalar> 
1024
(
0.0431966
0.043192
0.0431869
0.0431837
0.0431822
0.043181
0.0431796
0.04318
0.0431865
0.0432056
0.0432464
0.043321
0.0434443
0.0436266
0.0438539
0.0440685
0.0441811
0.044175
0.0441151
0.0440926
0.0440775
0.0440657
0.0440459
0.0440119
0.0439661
0.0439175
0.0438753
0.0438436
0.0438235
0.0438152
0.0438171
0.0438232
0.0432118
0.0432072
0.0432033
0.043202
0.0432021
0.0432023
0.0432022
0.0432039
0.0432115
0.0432318
0.0432737
0.0433494
0.0434739
0.0436576
0.0438861
0.0441012
0.0442133
0.0442053
0.0441426
0.0441193
0.044104
0.0440923
0.0440726
0.0440383
0.0439918
0.0439422
0.0438992
0.0438668
0.0438458
0.043836
0.0438364
0.0438424
0.0432422
0.043237
0.043235
0.0432379
0.0432427
0.043247
0.0432503
0.043255
0.0432657
0.0432892
0.0433345
0.0434138
0.0435423
0.0437307
0.043963
0.0441801
0.0442917
0.0442796
0.0442096
0.0441842
0.0441689
0.0441581
0.0441392
0.0441042
0.0440546
0.044
0.0439513
0.0439124
0.0438846
0.0438686
0.0438655
0.0438714
0.0432844
0.0432786
0.0432803
0.0432912
0.0433052
0.0433174
0.0433272
0.0433376
0.0433539
0.0433831
0.0434345
0.0435202
0.0436551
0.0438496
0.0440861
0.0443053
0.0444171
0.0444027
0.0443249
0.0442966
0.0442814
0.0442719
0.0442539
0.0442174
0.0441621
0.0440971
0.0440345
0.0439793
0.0439348
0.0439047
0.0438935
0.0438977
0.0433267
0.0433217
0.0433311
0.0433557
0.043385
0.0434108
0.0434315
0.0434511
0.0434758
0.0435133
0.0435723
0.0436648
0.0438051
0.0440002
0.0442369
0.0444563
0.0445704
0.044562
0.0444864
0.0444565
0.0444413
0.0444322
0.0444142
0.0443753
0.0443123
0.044232
0.0441459
0.0440618
0.0439876
0.0439324
0.0439058
0.0439052
0.0433476
0.0433459
0.0433685
0.0434146
0.0434676
0.0435144
0.0435522
0.0435853
0.0436209
0.0436666
0.043731
0.0438248
0.0439617
0.0441481
0.0443788
0.0445968
0.0447181
0.0447277
0.0446725
0.0446462
0.0446316
0.0446216
0.0446023
0.0445607
0.0444896
0.044391
0.0442729
0.0441471
0.0440287
0.0439363
0.043887
0.0438785
0.043319
0.0433233
0.0433651
0.0434419
0.0435291
0.0436066
0.0436685
0.0437191
0.0437659
0.0438163
0.0438784
0.0439623
0.0440827
0.0442528
0.0444747
0.0446931
0.0448275
0.0448653
0.0448457
0.0448307
0.0448192
0.0448087
0.0447886
0.0447453
0.0446678
0.0445507
0.0443951
0.0442173
0.0440425
0.043903
0.0438258
0.0438079
0.0432164
0.0432283
0.043294
0.0434103
0.0435429
0.0436617
0.043755
0.0438258
0.0438815
0.0439297
0.0439791
0.0440418
0.0441368
0.0442899
0.0445066
0.044731
0.0448834
0.0449524
0.0449719
0.044974
0.0449697
0.0449621
0.044944
0.0449017
0.0448204
0.0446859
0.0444912
0.0442558
0.0440178
0.0438269
0.043721
0.0436937
0.043028
0.0430479
0.043139
0.0433007
0.0434888
0.0436588
0.0437902
0.0438823
0.0439431
0.043982
0.0440104
0.0440461
0.0441165
0.0442589
0.0444798
0.0447177
0.0448903
0.0449873
0.045038
0.0450581
0.0450652
0.0450653
0.0450533
0.0450153
0.0449319
0.0447805
0.044547
0.0442531
0.043951
0.0437105
0.0435794
0.0435445
0.0427603
0.0427869
0.0429006
0.0431085
0.0433581
0.0435875
0.0437623
0.0438768
0.04394
0.043965
0.0439695
0.0439795
0.0440323
0.0441741
0.044411
0.0446703
0.0448646
0.0449834
0.0450522
0.0450886
0.0451098
0.0451216
0.0451193
0.0450875
0.0450015
0.0448317
0.0445592
0.0442081
0.0438462
0.0435635
0.0434138
0.0433738
0.042434
0.0424646
0.0425942
0.0428423
0.0431539
0.0434477
0.043671
0.0438102
0.0438758
0.0438869
0.043869
0.0438574
0.0438996
0.0440511
0.0443172
0.0446059
0.0448233
0.0449546
0.045034
0.045084
0.0451196
0.0451451
0.0451545
0.0451288
0.0450383
0.0448461
0.0445323
0.0441254
0.043711
0.0433968
0.043236
0.0431936
0.042078
0.0421097
0.0422445
0.0425189
0.0428851
0.0432452
0.043523
0.043693
0.0437651
0.0437659
0.0437286
0.0436971
0.0437317
0.0439046
0.0442142
0.0445394
0.0447738
0.0449129
0.0450004
0.0450623
0.0451117
0.045151
0.045172
0.0451517
0.0450533
0.0448335
0.0444736
0.0440123
0.0435545
0.0432199
0.0430549
0.0430119
0.0417305
0.0417596
0.0418847
0.0421567
0.042559
0.0429806
0.0433214
0.0435355
0.0436265
0.0436262
0.043574
0.0435204
0.0435438
0.0437571
0.0441246
0.0444799
0.0447245
0.0448677
0.0449627
0.0450359
0.0450979
0.0451495
0.0451799
0.045162
0.0450526
0.0447997
0.0443886
0.0438741
0.0433819
0.0430372
0.0428734
0.0428316
0.0414398
0.0414647
0.041572
0.0418142
0.0421921
0.0426311
0.0430354
0.0433239
0.0434601
0.0434801
0.0434246
0.0433387
0.0433636
0.0436543
0.0440707
0.0444471
0.0446878
0.0448269
0.0449281
0.0450127
0.0450864
0.0451472
0.0451831
0.0451622
0.0450346
0.044739
0.044269
0.0437024
0.0431872
0.0428455
0.0426899
0.0426503
0.0412681
0.0412864
0.0413678
0.0415601
0.0418764
0.0422714
0.0426664
0.0429865
0.0431845
0.043258
0.043229
0.0431524
0.0432575
0.0436346
0.0441102
0.0444803
0.0446824
0.0447992
0.0449038
0.0450003
0.0450851
0.045152
0.0451825
0.0451363
0.0449595
0.0445959
0.0440519
0.0434435
0.0429551
0.0426487
0.0425107
0.0424749
0.0413063
0.0413106
0.041353
0.0414753
0.0416983
0.042
0.0423259
0.0426141
0.0428178
0.0429197
0.0429377
0.0429856
0.0432937
0.0438254
0.0443335
0.0446245
0.0447271
0.0447938
0.0448954
0.0449912
0.0450704
0.0451298
0.0451056
0.0449423
0.0445935
0.0441414
0.0436257
0.0431232
0.042731
0.0424903
0.0423813
0.0423509
0.0418247
0.0417852
0.0417416
0.0417453
0.0418316
0.0419996
0.0422155
0.0424323
0.0426084
0.0427286
0.0428344
0.0431407
0.0437417
0.0443943
0.0448115
0.0448882
0.0448109
0.044796
0.0448678
0.0448922
0.044806
0.0446493
0.0444804
0.0442707
0.0439987
0.0436656
0.0433012
0.0429582
0.0426941
0.042533
0.0424585
0.0424352
0.0434578
0.0433225
0.0430859
0.0428309
0.0426442
0.042569
0.0425995
0.0427038
0.0428555
0.0430599
0.0434033
0.044049
0.0447849
0.045284
0.0453703
0.0451101
0.0447881
0.0445472
0.0443431
0.0441672
0.0440431
0.0439653
0.0438972
0.0438175
0.0437034
0.0435425
0.0433468
0.0431516
0.0429997
0.0429117
0.0428772
0.0428691
0.0457543
0.0456074
0.0452886
0.0448351
0.0443533
0.0439632
0.0437369
0.0436942
0.0438407
0.0442104
0.0448413
0.0454867
0.0458978
0.0459457
0.0456061
0.0451692
0.04475
0.0444408
0.0442572
0.0441737
0.0441884
0.0443049
0.0444713
0.04462
0.044713
0.0447301
0.0446705
0.0445599
0.0444389
0.0443438
0.0442946
0.0442815
0.0469751
0.0469108
0.0467432
0.0464346
0.045999
0.0455364
0.0451901
0.045072
0.0452333
0.0456811
0.0462468
0.0464856
0.0464041
0.046231
0.046053
0.0459106
0.0458517
0.0459016
0.0460665
0.0463422
0.0466797
0.0470123
0.0473068
0.0475752
0.0477983
0.0479482
0.0480066
0.0479705
0.0478519
0.0476765
0.0475
0.047393
0.047373
0.0473365
0.0472451
0.0470792
0.0468269
0.0465203
0.0462498
0.046134
0.046244
0.04653
0.0467857
0.0468566
0.0468256
0.04677
0.0467081
0.0466641
0.0466919
0.046828
0.0470366
0.0472623
0.0474503
0.0475888
0.0477368
0.0479011
0.0480673
0.0482145
0.0483233
0.0483845
0.0484003
0.0483803
0.0483387
0.0483008
0.0475287
0.0475009
0.0474377
0.0473303
0.0471754
0.0469919
0.0468263
0.0467454
0.0467927
0.0469268
0.0470438
0.0470947
0.0471085
0.047106
0.0470933
0.0470885
0.0471397
0.0472684
0.047423
0.0475458
0.0476055
0.0476299
0.04768
0.0477668
0.0478837
0.0480125
0.0481349
0.0482322
0.0482945
0.0483234
0.048327
0.048318
0.0476143
0.0475904
0.04754
0.0474597
0.0473528
0.0472336
0.0471305
0.0470781
0.0470975
0.0471665
0.0472381
0.0472917
0.0473291
0.0473479
0.0473473
0.0473373
0.0473629
0.0474503
0.0475563
0.0476326
0.0476529
0.0476324
0.047632
0.0476704
0.0477477
0.0478525
0.0479725
0.0480853
0.0481709
0.0482196
0.0482354
0.048233
0.0476711
0.0476491
0.0476047
0.0475394
0.0474602
0.0473773
0.0473124
0.0472828
0.0472993
0.0473479
0.0474076
0.0474636
0.0475095
0.0475336
0.0475297
0.0474977
0.0474759
0.0475047
0.0475654
0.0476133
0.0476363
0.047627
0.0476273
0.0476574
0.0477241
0.0478196
0.047938
0.0480623
0.0481684
0.0482355
0.0482603
0.0482612
0.0477075
0.0476859
0.0476462
0.0475923
0.0475314
0.0474759
0.0474392
0.0474302
0.0474529
0.0474967
0.0475539
0.0476101
0.0476562
0.0476777
0.0476663
0.0476157
0.0475521
0.0475138
0.0475025
0.047503
0.0475174
0.0475466
0.0475944
0.0476687
0.0477729
0.0478993
0.0480331
0.0481755
0.048308
0.0484006
0.0484392
0.0484463
0.0477266
0.0477053
0.0476695
0.0476273
0.047585
0.0475539
0.0475401
0.0475481
0.0475785
0.0476248
0.0476813
0.0477306
0.0477652
0.0477757
0.0477523
0.0476876
0.0475918
0.0474948
0.0474197
0.0473768
0.0473792
0.0474329
0.0475275
0.0476617
0.0478296
0.0480215
0.0482176
0.0484102
0.0485806
0.048713
0.0487779
0.0487987
0.0477278
0.0477072
0.0476779
0.0476504
0.04763
0.0476208
0.0476267
0.0476488
0.0476857
0.0477321
0.04778
0.0478151
0.0478325
0.0478254
0.0477862
0.0477091
0.0475904
0.0474517
0.0473313
0.0472573
0.0472505
0.0473182
0.0474487
0.0476376
0.047874
0.048147
0.0484333
0.0487103
0.0489542
0.0491551
0.0492694
0.0493176
0.0477035
0.047687
0.0476712
0.0476657
0.0476706
0.0476834
0.0477064
0.0477391
0.0477768
0.0478145
0.0478475
0.0478628
0.0478588
0.0478302
0.0477735
0.0476841
0.0475497
0.0473861
0.0472382
0.0471458
0.0471352
0.0472137
0.0473715
0.0476044
0.0479019
0.0482531
0.0486354
0.0490215
0.0493816
0.049685
0.0498921
0.0499966
0.0476323
0.0476342
0.0476489
0.0476786
0.0477127
0.0477458
0.0477805
0.0478167
0.0478472
0.0478721
0.0478856
0.0478779
0.0478508
0.0478012
0.0477283
0.0476271
0.0474827
0.0473062
0.047145
0.047045
0.0470357
0.0471238
0.0473018
0.0475664
0.0479106
0.0483253
0.0487934
0.0492931
0.0497968
0.0502629
0.050621
0.0508532
0.0474628
0.0475313
0.0476192
0.0476995
0.0477616
0.0478112
0.0478492
0.0478798
0.0478992
0.047908
0.0479005
0.0478715
0.0478239
0.0477574
0.0476713
0.0475605
0.0474103
0.0472283
0.0470627
0.0469617
0.046956
0.0470515
0.0472425
0.0475268
0.0479003
0.0483568
0.0488876
0.0494843
0.0501378
0.0508219
0.0514587
0.0520133
0.0469919
0.047381
0.0476202
0.047754
0.0478319
0.047884
0.0479162
0.0479346
0.0479393
0.0479303
0.0479043
0.0478596
0.0477972
0.0477184
0.0476233
0.0475063
0.0473535
0.0471699
0.0470039
0.046904
0.0469009
0.0469997
0.0471967
0.0474897
0.0478758
0.0483517
0.0489155
0.049574
0.0503482
0.0512751
0.0523913
0.0536552
0.0459869
0.0472265
0.0476932
0.0478307
0.047903
0.0479482
0.0479683
0.0479735
0.0479657
0.0479443
0.0479074
0.0478537
0.0477829
0.0476971
0.0475979
0.0474786
0.0473248
0.0471411
0.0469755
0.0468762
0.0468736
0.0469727
0.0471703
0.0474645
0.0478521
0.0483314
0.0489048
0.0495903
0.0504386
0.0515599
0.0531794
0.0554502
)
;

boundaryField
{
    movingWall
    {
        type            fixedFluxPressure;
        gradient        uniform 0;
        value           nonuniform List<scalar> 
32
(
0.0459869
0.0472265
0.0476932
0.0478307
0.047903
0.0479482
0.0479683
0.0479735
0.0479657
0.0479443
0.0479074
0.0478537
0.0477829
0.0476971
0.0475979
0.0474786
0.0473248
0.0471411
0.0469755
0.0468762
0.0468736
0.0469727
0.0471703
0.0474645
0.0478521
0.0483314
0.0489048
0.0495903
0.0504386
0.0515599
0.0531794
0.0554502
)
;
    }
    fixedWalls
    {
        type            fixedFluxPressure;
        gradient        uniform 0;
        value           nonuniform List<scalar> 
64
(
0.0431966
0.0432118
0.0432422
0.0432844
0.0433267
0.0433476
0.043319
0.0432164
0.043028
0.0427603
0.042434
0.042078
0.0417305
0.0414398
0.0412681
0.0413063
0.0418247
0.0434578
0.0457543
0.0469751
0.047373
0.0475287
0.0476143
0.0476711
0.0477075
0.0477266
0.0477278
0.0477035
0.0476323
0.0474628
0.0469919
0.0459869
0.0438232
0.0438424
0.0438714
0.0438977
0.0439052
0.0438785
0.0438079
0.0436937
0.0435445
0.0433738
0.0431936
0.0430119
0.0428316
0.0426503
0.0424749
0.0423509
0.0424352
0.0428691
0.0442815
0.047393
0.0483008
0.048318
0.048233
0.0482612
0.0484463
0.0487987
0.0493176
0.0499966
0.0508532
0.0520133
0.0536552
0.0554502
)
;
    }
    floor
    {
        type            fixedFluxPressure;
        gradient        uniform 0;
        value           nonuniform List<scalar> 
32
(
0.0431966
0.043192
0.0431869
0.0431837
0.0431822
0.043181
0.0431796
0.04318
0.0431865
0.0432056
0.0432464
0.043321
0.0434443
0.0436266
0.0438539
0.0440685
0.0441811
0.044175
0.0441151
0.0440926
0.0440775
0.0440657
0.0440459
0.0440119
0.0439661
0.0439175
0.0438753
0.0438436
0.0438235
0.0438152
0.0438171
0.0438232
)
;
    }
    frontAndBack
    {
        type            empty;
    }
}


// ************************************************************************* //
