/*--------------------------------*- C++ -*----------------------------------*\
| =========                 |                                                 |
| \\      /  F ield         | OpenFOAM: The Open Source CFD Toolbox           |
|  \\    /   O peration     | Version:  2212                                  |
|   \\  /    A nd           | Website:  www.openfoam.com                      |
|    \\/     M anipulation  |                                                 |
\*---------------------------------------------------------------------------*/
FoamFile
{
    version     2.0;
    format      ascii;
    arch        "LSB;label=64;scalar=64";
    class       volScalarField;
    location    "390";
    object      Sch4;
}
// * * * * * * * * * * * * * * * * * * * * * * * * * * * * * * * * * * * * * //

dimensions      [1 -3 0 0 0 0 0];

internalField   nonuniform List<scalar> 
1024
(
0.0373253
0.0373282
0.0373351
0.0373473
0.0373659
0.0373911
0.0374219
0.0374563
0.0374914
0.0375245
0.0375543
0.037579
0.0375958
0.0375999
0.0375824
0.0375292
0.0374309
0.0373099
0.037192
0.0370875
0.0369989
0.0369254
0.0368647
0.0368141
0.0367709
0.0367339
0.0367031
0.0366786
0.0366607
0.0366489
0.0366422
0.0366395
0.0373262
0.0373292
0.0373363
0.037349
0.0373682
0.0373941
0.0374256
0.0374604
0.0374956
0.0375288
0.0375587
0.0375836
0.0376008
0.0376054
0.0375884
0.0375355
0.0374367
0.037315
0.0371963
0.0370914
0.0370025
0.0369288
0.0368679
0.036817
0.0367736
0.0367364
0.0367051
0.0366802
0.0366618
0.0366496
0.0366426
0.0366397
0.0373281
0.0373312
0.0373389
0.0373525
0.037373
0.0374003
0.0374331
0.0374687
0.0375044
0.0375379
0.0375682
0.037594
0.0376126
0.037619
0.037604
0.0375521
0.037452
0.0373277
0.0372068
0.0371005
0.0370106
0.036936
0.0368742
0.0368226
0.0367785
0.0367406
0.0367086
0.0366828
0.0366636
0.0366507
0.0366433
0.0366402
0.0373311
0.0373346
0.037343
0.037358
0.0373803
0.0374096
0.0374441
0.0374808
0.0375173
0.0375517
0.0375834
0.0376114
0.0376333
0.0376443
0.037634
0.0375845
0.0374816
0.0373515
0.0372256
0.0371162
0.0370239
0.0369472
0.0368835
0.0368303
0.0367848
0.0367458
0.0367128
0.036686
0.0366658
0.0366521
0.0366443
0.036641
0.0373354
0.0373392
0.0373485
0.0373651
0.0373896
0.0374212
0.0374577
0.037496
0.0375338
0.03757
0.0376046
0.037637
0.0376654
0.0376847
0.0376832
0.0376385
0.0375309
0.0373908
0.0372558
0.0371404
0.0370435
0.0369628
0.0368955
0.0368392
0.0367915
0.0367508
0.0367166
0.0366887
0.0366677
0.0366534
0.0366452
0.0366417
0.0373406
0.0373447
0.037355
0.0373732
0.0373998
0.0374338
0.0374725
0.0375127
0.0375528
0.0375921
0.0376315
0.0376713
0.0377101
0.0377428
0.0377554
0.037719
0.0376051
0.0374503
0.0373012
0.0371754
0.0370704
0.0369827
0.0369094
0.0368484
0.0367973
0.0367544
0.0367189
0.0366903
0.0366687
0.0366541
0.0366457
0.0366422
0.0373463
0.0373506
0.0373616
0.0373811
0.0374096
0.0374457
0.0374866
0.0375293
0.0375725
0.0376164
0.0376627
0.0377127
0.0377659
0.0378174
0.0378508
0.0378278
0.0377074
0.0375338
0.0373653
0.0372238
0.0371059
0.0370073
0.036925
0.0368571
0.0368012
0.0367557
0.0367189
0.0366898
0.0366682
0.0366537
0.0366453
0.0366418
0.0373518
0.0373563
0.0373677
0.0373879
0.0374175
0.0374551
0.037498
0.0375433
0.0375902
0.0376396
0.0376942
0.0377563
0.0378269
0.0379022
0.0379637
0.0379614
0.037837
0.0376425
0.0374503
0.0372872
0.0371508
0.0370367
0.0369419
0.0368647
0.0368028
0.036754
0.0367161
0.036687
0.0366659
0.0366518
0.0366437
0.0366402
0.0373564
0.037361
0.0373723
0.0373925
0.0374223
0.0374605
0.0375045
0.0375519
0.037602
0.0376564
0.0377187
0.0377926
0.0378817
0.0379847
0.0380823
0.0381104
0.0379875
0.0377733
0.037555
0.0373651
0.0372047
0.0370704
0.0369597
0.0368709
0.0368019
0.0367495
0.0367104
0.0366817
0.0366614
0.036648
0.0366402
0.0366368
0.0373594
0.0373638
0.0373748
0.0373942
0.037423
0.0374603
0.0375039
0.0375516
0.0376029
0.0376596
0.0377264
0.0378092
0.0379151
0.0380484
0.0381918
0.038262
0.0381481
0.0379171
0.0376726
0.037453
0.0372647
0.0371066
0.0369773
0.0368756
0.0367986
0.0367424
0.0367023
0.0366741
0.0366547
0.036642
0.0366346
0.0366313
0.0373598
0.0373641
0.0373743
0.0373922
0.0374187
0.0374533
0.037494
0.0375389
0.0375875
0.0376418
0.0377076
0.0377936
0.0379131
0.0380807
0.0382827
0.0384071
0.0383069
0.0380605
0.03779
0.0375404
0.0373232
0.0371404
0.0369919
0.0368771
0.0367924
0.0367327
0.0366918
0.0366641
0.0366456
0.0366335
0.0366264
0.0366231
0.0373562
0.0373602
0.0373694
0.0373851
0.0374081
0.0374379
0.0374729
0.0375111
0.037552
0.0375979
0.0376561
0.0377396
0.0378713
0.0380821
0.0383609
0.0385484
0.0384572
0.0381885
0.037889
0.0376103
0.0373667
0.0371619
0.0369972
0.0368718
0.0367814
0.0367195
0.0366785
0.0366515
0.0366338
0.0366222
0.0366152
0.0366119
0.0373479
0.0373518
0.0373602
0.0373736
0.037392
0.037415
0.0374409
0.0374681
0.0374962
0.0375285
0.0375742
0.0376527
0.0378017
0.0380758
0.0384546
0.0387044
0.0385996
0.0382866
0.0379473
0.037639
0.0373743
0.0371551
0.0369816
0.0368521
0.036761
0.0367002
0.0366608
0.0366353
0.0366185
0.0366073
0.0366004
0.036597
0.0373277
0.0373312
0.0373382
0.0373484
0.0373616
0.0373771
0.0373934
0.037409
0.0374235
0.037441
0.0374741
0.0375523
0.0377381
0.0381124
0.038614
0.0389025
0.0387347
0.0383366
0.0379369
0.0375954
0.0373172
0.0370962
0.0369276
0.0368059
0.0367232
0.0366696
0.0366357
0.0366136
0.0365985
0.0365879
0.0365809
0.0365773
0.0373045
0.0373086
0.0373162
0.037326
0.0373364
0.0373458
0.0373526
0.0373554
0.0373546
0.0373558
0.0373794
0.037475
0.0377418
0.038271
0.0389007
0.0391623
0.0388491
0.0383097
0.0378242
0.0374459
0.0371634
0.0369573
0.0368127
0.0367167
0.0366559
0.0366179
0.0365937
0.0365773
0.0365654
0.0365565
0.0365502
0.0365468
0.0372352
0.0372377
0.0372434
0.0372525
0.0372639
0.0372748
0.0372812
0.0372799
0.0372718
0.0372696
0.0373115
0.0374847
0.0379258
0.0386743
0.0393805
0.0394782
0.0389098
0.0381819
0.0376013
0.0371924
0.0369169
0.0367384
0.0366325
0.0365797
0.0365598
0.0365541
0.0365507
0.0365444
0.0365349
0.0365247
0.0365167
0.0365125
0.037306
0.0372921
0.0372657
0.0372323
0.0371994
0.0371733
0.0371575
0.0371541
0.0371707
0.0372332
0.0374051
0.0378018
0.0385318
0.0394605
0.0400383
0.0397916
0.0389454
0.0380967
0.0374855
0.0370708
0.0367917
0.0366104
0.0364985
0.0364343
0.0364007
0.0363838
0.0363769
0.0363783
0.0363889
0.0364069
0.0364258
0.0364377
0.0380872
0.0380574
0.0379941
0.0379008
0.0377903
0.0376823
0.0375992
0.037564
0.0376048
0.0377688
0.0381307
0.03877
0.0396597
0.0404698
0.0406857
0.0401947
0.0394315
0.0388097
0.0383813
0.0380586
0.0377857
0.0375394
0.0373201
0.0371386
0.0370129
0.0369578
0.0369772
0.037063
0.0371918
0.0373283
0.0374359
0.0374914
0.039249
0.0392223
0.0391599
0.0390579
0.038923
0.0387763
0.0386524
0.0385961
0.0386586
0.038901
0.0393753
0.0400698
0.0408307
0.0413536
0.0414439
0.041279
0.04116
0.0412309
0.0414457
0.0417022
0.0419363
0.0421119
0.0422206
0.0422612
0.0422511
0.0422151
0.0421708
0.0421329
0.0421095
0.0421015
0.0421041
0.0421089
0.0402307
0.0402135
0.0401711
0.0400978
0.0399946
0.0398769
0.0397786
0.0397513
0.039856
0.0401497
0.0406463
0.0412651
0.0418433
0.0422647
0.0425728
0.0429616
0.0436044
0.0445136
0.0455505
0.046576
0.0474965
0.0482591
0.0488597
0.0492816
0.0495249
0.0495971
0.0495087
0.0492876
0.0489851
0.0486762
0.0484399
0.048323
0.0409175
0.040906
0.0408791
0.0408343
0.0407737
0.040709
0.0406673
0.0406919
0.0408338
0.0411314
0.0415788
0.0421072
0.0426252
0.0431047
0.0436232
0.0443445
0.0454081
0.0467514
0.0481499
0.0494375
0.0505236
0.0513828
0.0520521
0.052552
0.0528978
0.0530952
0.0531451
0.0530557
0.0528557
0.0526026
0.0523772
0.0522513
0.0414238
0.0414142
0.0413946
0.0413666
0.0413361
0.041315
0.0413249
0.0413977
0.0415693
0.0418644
0.0422775
0.0427664
0.043282
0.0438161
0.0444255
0.0452386
0.0463774
0.0477598
0.0491295
0.0503124
0.0512384
0.0519324
0.0524662
0.0528953
0.0532508
0.0535386
0.053749
0.05387
0.0538993
0.0538535
0.0537733
0.0537131
0.0418692
0.041858
0.0418383
0.0418162
0.0418015
0.0418087
0.0418566
0.0419688
0.0421697
0.0424751
0.0428825
0.0433667
0.0438969
0.0444628
0.0450908
0.045867
0.0468919
0.04811
0.0493004
0.0503105
0.0510914
0.0516873
0.0521745
0.0526118
0.0530249
0.0534062
0.0537296
0.05397
0.0541166
0.054178
0.0541805
0.0541635
0.0423447
0.0423281
0.0423015
0.0422763
0.0422681
0.0422943
0.042373
0.0425219
0.0427565
0.0430855
0.0435076
0.0440058
0.0445568
0.0451436
0.0457665
0.0464706
0.0473267
0.0483184
0.0492977
0.0501498
0.0508369
0.0513946
0.051882
0.0523478
0.0528136
0.0532694
0.053681
0.0540098
0.0542325
0.0543508
0.0543897
0.0543889
0.0429231
0.0428968
0.0428573
0.0428246
0.0428212
0.0428679
0.0429813
0.0431728
0.0434492
0.0438126
0.0442603
0.0447785
0.0453475
0.0459455
0.0465564
0.0471934
0.0478945
0.0486713
0.0494505
0.0501619
0.0507723
0.0512983
0.0517781
0.0522474
0.0527252
0.0532067
0.0536626
0.0540498
0.0543315
0.0544961
0.054562
0.0545704
0.043664
0.0436237
0.0435693
0.0435328
0.0435444
0.0436255
0.0437874
0.0440322
0.0443576
0.0447587
0.0452303
0.0457601
0.046332
0.0469233
0.0475108
0.0480883
0.0486664
0.0492676
0.0498738
0.050453
0.0509787
0.0514542
0.0519006
0.0523417
0.052793
0.053255
0.0537081
0.0541141
0.0544299
0.0546297
0.0547193
0.0547363
0.0446141
0.044558
0.0444949
0.0444719
0.0445219
0.0446595
0.0448846
0.0451882
0.0455586
0.0459861
0.0464644
0.0469833
0.0475309
0.048088
0.048631
0.0491456
0.0496238
0.0500872
0.050549
0.0510042
0.0514353
0.0518394
0.0522269
0.0526122
0.0530074
0.0534166
0.0538295
0.0542169
0.0545374
0.0547559
0.054864
0.0548895
0.0458105
0.0457424
0.0456917
0.0457141
0.0458316
0.0460415
0.04633
0.0466784
0.0470704
0.0474958
0.0479494
0.0484251
0.0489154
0.0494067
0.0498797
0.0503188
0.0507066
0.0510589
0.0514012
0.051744
0.0520778
0.0523988
0.0527111
0.053023
0.0533434
0.053678
0.0540239
0.0543629
0.0546604
0.0548782
0.0549965
0.0550295
0.0472892
0.0472247
0.0472248
0.047327
0.0475244
0.0477949
0.0481172
0.0484709
0.0488427
0.0492255
0.0496173
0.0500159
0.0504183
0.0508163
0.0511965
0.0515455
0.0518441
0.0521019
0.052345
0.0525892
0.052831
0.0530671
0.053299
0.0535313
0.0537698
0.05402
0.0542838
0.0545529
0.0548032
0.0550002
0.0551174
0.0551554
0.0490982
0.0490717
0.0491625
0.0493461
0.049589
0.0498671
0.0501649
0.0504685
0.0507715
0.0510712
0.0513682
0.0516631
0.051956
0.0522427
0.0525152
0.052764
0.0529728
0.0531468
0.0533066
0.0534664
0.0536259
0.0537829
0.0539378
0.0540931
0.0542522
0.0544192
0.0545974
0.0547853
0.05497
0.0551266
0.0552288
0.0552671
0.0513144
0.0513661
0.0515247
0.0517141
0.0519174
0.0521258
0.0523336
0.0525355
0.0527299
0.0529169
0.0530981
0.0532751
0.0534488
0.0536177
0.0537778
0.0539235
0.0540446
0.0541433
0.0542322
0.0543206
0.054409
0.0544963
0.0545825
0.0546688
0.0547569
0.0548491
0.0549479
0.0550542
0.0551634
0.0552629
0.0553345
0.0553654
0.0540285
0.0540697
0.0541504
0.0542308
0.0543098
0.0543869
0.0544611
0.0545313
0.0545977
0.0546605
0.0547206
0.0547788
0.0548355
0.0548904
0.0549424
0.0549896
0.0550287
0.0550602
0.0550884
0.0551162
0.0551441
0.0551716
0.0551987
0.0552258
0.0552534
0.0552821
0.0553128
0.0553461
0.0553809
0.0554142
0.0554402
0.0554529
)
;

boundaryField
{
    movingWall
    {
        type            fixedValue;
        value           uniform 0.0555;
    }
    fixedWalls
    {
        type            zeroGradient;
    }
    floor
    {
        type            zeroGradient;
    }
    frontAndBack
    {
        type            empty;
    }
}


// ************************************************************************* //
