/*--------------------------------*- C++ -*----------------------------------*\
| =========                 |                                                 |
| \\      /  F ield         | OpenFOAM: The Open Source CFD Toolbox           |
|  \\    /   O peration     | Version:  2212                                  |
|   \\  /    A nd           | Website:  www.openfoam.com                      |
|    \\/     M anipulation  |                                                 |
\*---------------------------------------------------------------------------*/
FoamFile
{
    version     2.0;
    format      ascii;
    arch        "LSB;label=64;scalar=64";
    class       volVectorField;
    location    "390";
    object      U;
}
// * * * * * * * * * * * * * * * * * * * * * * * * * * * * * * * * * * * * * //

dimensions      [0 1 -1 0 0 0 0];

internalField   nonuniform List<vector> 
1024
(
(1.91518e-05 -2.19143e-05 0)
(-6.51984e-05 1.30144e-05 0)
(-0.000345378 4.3789e-05 0)
(-0.000751341 4.55029e-05 0)
(-0.0011886 3.66031e-05 0)
(-0.0016287 3.25849e-05 0)
(-0.00210329 3.53178e-05 0)
(-0.00264906 4.03376e-05 0)
(-0.00327633 4.39638e-05 0)
(-0.00396785 4.48834e-05 0)
(-0.00468455 4.28201e-05 0)
(-0.00535809 3.70377e-05 0)
(-0.00585603 2.49111e-05 0)
(-0.00595827 3.64978e-06 0)
(-0.00534341 -2.66069e-05 0)
(-0.0038323 -4.93987e-05 0)
(-0.00175347 -5.35159e-05 0)
(4.30228e-05 -3.61231e-05 0)
(0.000721939 1.108e-06 0)
(0.000818573 -3.94496e-06 0)
(0.00105566 -8.93798e-06 0)
(0.00142117 -2.30615e-05 0)
(0.00195354 -3.73199e-05 0)
(0.00252084 -3.97788e-05 0)
(0.00292851 -2.27442e-05 0)
(0.00304496 6.66449e-06 0)
(0.00286269 4.05999e-05 0)
(0.00240033 7.66325e-05 0)
(0.00172211 0.000109445 0)
(0.000953146 0.000122474 0)
(0.000315746 8.36519e-05 0)
(8.74473e-06 5.4204e-06 0)
(-2.42684e-05 6.67723e-05 0)
(-0.000442984 0.00036515 0)
(-0.00132226 0.000585951 0)
(-0.00251566 0.000620772 0)
(-0.00381954 0.000562387 0)
(-0.00516574 0.000512388 0)
(-0.00659318 0.00049736 0)
(-0.0081503 0.00049541 0)
(-0.00983504 0.000481819 0)
(-0.0115856 0.000444985 0)
(-0.0132856 0.000380458 0)
(-0.0147455 0.000281334 0)
(-0.0156459 0.000134605 0)
(-0.0155263 -7.31689e-05 0)
(-0.0137107 -0.000317801 0)
(-0.00991357 -0.000501926 0)
(-0.00480666 -0.000543991 0)
(-0.000297465 -0.000383288 0)
(0.0016869 -0.00010616 0)
(0.00221915 -8.47523e-05 0)
(0.00298618 -0.000141088 0)
(0.0039927 -0.000246568 0)
(0.00529118 -0.000343412 0)
(0.00659296 -0.000344122 0)
(0.0075073 -0.000201302 0)
(0.00777001 5.16313e-05 0)
(0.00733443 0.000370321 0)
(0.00622668 0.000724922 0)
(0.00459188 0.0010436 0)
(0.00271455 0.00117738 0)
(0.00107642 0.000934482 0)
(0.000109962 0.00033344 0)
(-9.29099e-05 0.000468225 0)
(-0.00097985 0.0013689 0)
(-0.00256033 0.00190306 0)
(-0.00458617 0.00197492 0)
(-0.00677775 0.00181737 0)
(-0.0090387 0.00165496 0)
(-0.0113784 0.00155216 0)
(-0.0138106 0.00146982 0)
(-0.0162964 0.00135794 0)
(-0.0187298 0.0011905 0)
(-0.020934 0.00095627 0)
(-0.022638 0.000641063 0)
(-0.0234224 0.000221644 0)
(-0.0227146 -0.000326831 0)
(-0.019748 -0.000929556 0)
(-0.0143409 -0.00137583 0)
(-0.00732196 -0.00148321 0)
(-0.00108418 -0.00108922 0)
(0.00216963 -0.000405724 0)
(0.00333621 -0.000310754 0)
(0.0046679 -0.000442948 0)
(0.00619708 -0.000687179 0)
(0.00797083 -0.000898498 0)
(0.00966353 -0.000878863 0)
(0.0108462 -0.000519515 0)
(0.0112001 0.000128599 0)
(0.0106025 0.00097258 0)
(0.00908026 0.00192611 0)
(0.00681577 0.00279874 0)
(0.0041704 0.00323311 0)
(0.00176593 0.002763 0)
(0.000210011 0.00120605 0)
(-0.000169787 0.00134783 0)
(-0.00156858 0.00332394 0)
(-0.00387871 0.0042905 0)
(-0.0067187 0.00435115 0)
(-0.00972955 0.00399404 0)
(-0.0127837 0.00359918 0)
(-0.0158453 0.00327675 0)
(-0.018878 0.00297846 0)
(-0.0218053 0.00263459 0)
(-0.0244934 0.00220502 0)
(-0.02674 0.00167002 0)
(-0.0282469 0.00100654 0)
(-0.0285683 0.000179983 0)
(-0.0270973 -0.000836742 0)
(-0.0232152 -0.00189269 0)
(-0.0168813 -0.00265264 0)
(-0.00902248 -0.00282154 0)
(-0.0021591 -0.00215984 0)
(0.00214196 -0.000980134 0)
(0.00402894 -0.000747099 0)
(0.00588559 -0.000950935 0)
(0.00777102 -0.00134218 0)
(0.00974506 -0.00166657 0)
(0.0115444 -0.001603 0)
(0.0128007 -0.000958507 0)
(0.0131897 0.000229939 0)
(0.0125029 0.00182392 0)
(0.0107569 0.00364514 0)
(0.00813924 0.00533962 0)
(0.00504381 0.00627365 0)
(0.0021746 0.00557496 0)
(0.000264398 0.00262584 0)
(-0.000236099 0.00282542 0)
(-0.00206777 0.00642746 0)
(-0.00498604 0.00792522 0)
(-0.00848223 0.00787163 0)
(-0.0121155 0.00715208 0)
(-0.0157181 0.0063425 0)
(-0.0192103 0.00561186 0)
(-0.0225159 0.00491657 0)
(-0.0255359 0.00417739 0)
(-0.0281329 0.0033428 0)
(-0.0301138 0.00238228 0)
(-0.0311979 0.00125992 0)
(-0.0309637 -7.42922e-05 0)
(-0.0288237 -0.00162359 0)
(-0.0243882 -0.00316238 0)
(-0.017686 -0.00423114 0)
(-0.00976967 -0.00441222 0)
(-0.00313195 -0.00350178 0)
(0.00170145 -0.00186587 0)
(0.00426478 -0.00143911 0)
(0.0065231 -0.00167031 0)
(0.00858628 -0.00216793 0)
(0.0105485 -0.0025675 0)
(0.0122537 -0.00243103 0)
(0.0134328 -0.00146005 0)
(0.0137895 0.000367583 0)
(0.0130545 0.00288782 0)
(0.0112219 0.00579827 0)
(0.00847253 0.00853422 0)
(0.00522249 0.0101123 0)
(0.00222441 0.00914023 0)
(0.000259501 0.00443487 0)
(-0.00026444 0.00489055 0)
(-0.00231806 0.0106631 0)
(-0.00557679 0.0128012 0)
(-0.00944809 0.0125213 0)
(-0.0134189 0.0112427 0)
(-0.0172761 0.00979829 0)
(-0.0209044 0.00844395 0)
(-0.0242056 0.00715779 0)
(-0.027078 0.00586051 0)
(-0.0294009 0.00449161 0)
(-0.0310141 0.00300608 0)
(-0.0316779 0.00134893 0)
(-0.0310041 -0.000548079 0)
(-0.0285182 -0.00265444 0)
(-0.0238585 -0.00468643 0)
(-0.0171274 -0.00603228 0)
(-0.00956487 -0.0061376 0)
(-0.00356914 -0.00499224 0)
(0.00119348 -0.00303035 0)
(0.00419979 -0.00239184 0)
(0.00665781 -0.00258069 0)
(0.00872264 -0.00311279 0)
(0.0105226 -0.00352802 0)
(0.0120041 -0.00328341 0)
(0.0129965 -0.00195748 0)
(0.0132477 0.000575583 0)
(0.012475 0.00415326 0)
(0.0106456 0.00832065 0)
(0.00793561 0.012241 0)
(0.00478401 0.0144955 0)
(0.00195943 0.0131073 0)
(0.000205309 0.00638018 0)
(-0.000239481 0.00734555 0)
(-0.00223734 0.0157447 0)
(-0.00550277 0.0186943 0)
(-0.00942416 0.0181354 0)
(-0.0134367 0.0161231 0)
(-0.0172813 0.0138309 0)
(-0.0208163 0.0116488 0)
(-0.0239385 0.00959814 0)
(-0.0265603 0.00760779 0)
(-0.0285924 0.00560878 0)
(-0.0299178 0.00353511 0)
(-0.0303386 0.00130284 0)
(-0.0294817 -0.00118026 0)
(-0.0269223 -0.00388081 0)
(-0.0222166 -0.00644219 0)
(-0.0155828 -0.00802892 0)
(-0.0084977 -0.00794523 0)
(-0.00321335 -0.00653197 0)
(0.00108261 -0.00437819 0)
(0.00414301 -0.00354445 0)
(0.00654906 -0.00362244 0)
(0.00844102 -0.00410957 0)
(0.00996386 -0.00447441 0)
(0.0111368 -0.00408165 0)
(0.0118668 -0.00237561 0)
(0.0119459 0.000906811 0)
(0.0111243 0.00562704 0)
(0.00934829 0.0111489 0)
(0.00679837 0.0162884 0)
(0.00393546 0.019108 0)
(0.00150453 0.0170624 0)
(0.000128983 0.00818573 0)
(-0.000172933 0.0098537 0)
(-0.00187035 0.0211764 0)
(-0.00483668 0.025203 0)
(-0.00851641 0.0244309 0)
(-0.012323 0.0215878 0)
(-0.0159547 0.0182864 0)
(-0.0192508 0.0151188 0)
(-0.0221163 0.0121783 0)
(-0.0244895 0.0094092 0)
(-0.0263179 0.00672968 0)
(-0.0275206 0.00403981 0)
(-0.0279141 0.0012077 0)
(-0.0270892 -0.00190289 0)
(-0.0245666 -0.00528439 0)
(-0.0198471 -0.00844885 0)
(-0.0133238 -0.010237 0)
(-0.00671439 -0.00983611 0)
(-0.00203554 -0.00807114 0)
(0.00163402 -0.0057846 0)
(0.00439339 -0.00477684 0)
(0.00650539 -0.00469301 0)
(0.00806342 -0.0050641 0)
(0.00921359 -0.00531718 0)
(0.0100178 -0.0047371 0)
(0.0104351 -0.00262769 0)
(0.0102928 0.00143299 0)
(0.00939984 0.00733204 0)
(0.00769707 0.0142193 0)
(0.00538072 0.020484 0)
(0.00292497 0.0236136 0)
(0.00100469 0.0206174 0)
(5.83696e-05 0.00963673 0)
(-9.26026e-05 0.0120569 0)
(-0.00134454 0.0263741 0)
(-0.00379351 0.0318213 0)
(-0.00701662 0.0310538 0)
(-0.0104445 0.0274021 0)
(-0.0137379 0.023014 0)
(-0.0167201 0.0187723 0)
(-0.01931 0.0148815 0)
(-0.0214764 0.011306 0)
(-0.0231983 0.00793839 0)
(-0.0244115 0.00462245 0)
(-0.0249067 0.00115037 0)
(-0.0241829 -0.0026847 0)
(-0.0216738 -0.00689175 0)
(-0.0169067 -0.0107558 0)
(-0.0105162 -0.0126865 0)
(-0.00439163 -0.0118267 0)
(-0.000171147 -0.00955594 0)
(0.00278815 -0.00717933 0)
(0.00508956 -0.00596054 0)
(0.00673835 -0.00566681 0)
(0.00784274 -0.00585924 0)
(0.00854864 -0.00594739 0)
(0.00894227 -0.00514658 0)
(0.00901584 -0.002616 0)
(0.00862485 0.00223914 0)
(0.00763871 0.00930343 0)
(0.00601235 0.017473 0)
(0.00396493 0.0246387 0)
(0.00196595 0.0277142 0)
(0.000573027 0.0234975 0)
(9.50237e-06 0.0106348 0)
(-2.24891e-05 0.0136839 0)
(-0.000793482 0.0307886 0)
(-0.00260913 0.0380155 0)
(-0.00524372 0.0376248 0)
(-0.00819329 0.0333298 0)
(-0.0110873 0.0278761 0)
(-0.0137263 0.0225436 0)
(-0.0160376 0.0177016 0)
(-0.0180151 0.0133394 0)
(-0.0196604 0.00930329 0)
(-0.0209102 0.00535025 0)
(-0.0215044 0.00116614 0)
(-0.0208181 -0.00354798 0)
(-0.0182353 -0.00876577 0)
(-0.0134029 -0.0134158 0)
(-0.00725629 -0.0153805 0)
(-0.0016837 -0.0138865 0)
(0.00203618 -0.0110202 0)
(0.0044363 -0.00846681 0)
(0.00620027 -0.00698502 0)
(0.00731003 -0.00642002 0)
(0.00790215 -0.00637021 0)
(0.00812849 -0.00624371 0)
(0.00809154 -0.00519439 0)
(0.00780505 -0.00223374 0)
(0.00715683 0.00341583 0)
(0.00606502 0.0115806 0)
(0.00451428 0.0208567 0)
(0.00274429 0.0285903 0)
(0.00119328 0.0312036 0)
(0.000265254 0.0255936 0)
(-1.563e-05 0.0112006 0)
(2.67374e-05 0.0145933 0)
(-0.000304468 0.0339823 0)
(-0.00145051 0.0432716 0)
(-0.00342395 0.0437621 0)
(-0.00584595 0.0391477 0)
(-0.00832474 0.03275 0)
(-0.0106191 0.0263622 0)
(-0.0126418 0.0205983 0)
(-0.0143957 0.0154891 0)
(-0.0158989 0.0108129 0)
(-0.0170957 0.00620777 0)
(-0.0176827 0.00122149 0)
(-0.0168864 -0.00456582 0)
(-0.014132 -0.0109905 0)
(-0.00929187 -0.0164477 0)
(-0.00360746 -0.0182421 0)
(0.00127845 -0.0159107 0)
(0.00435311 -0.0125151 0)
(0.00635106 -0.00960944 0)
(0.00757986 -0.00776894 0)
(0.00815604 -0.00684934 0)
(0.00824263 -0.00648274 0)
(0.00799989 -0.00608571 0)
(0.00754176 -0.00476079 0)
(0.00689156 -0.00137464 0)
(0.00598429 0.00504636 0)
(0.00478501 0.0141955 0)
(0.00331146 0.024323 0)
(0.00180863 0.0322251 0)
(0.000653338 0.0340009 0)
(8.33007e-05 0.0269605 0)
(-2.30509e-05 0.0114337 0)
(5.12702e-05 0.0147444 0)
(8.02339e-05 0.0355861 0)
(-0.000393573 0.0470663 0)
(-0.00163256 0.0490507 0)
(-0.00347806 0.044634 0)
(-0.00554849 0.0375327 0)
(-0.00752683 0.0301529 0)
(-0.00926208 0.0234728 0)
(-0.0107313 0.0176247 0)
(-0.0119665 0.0123156 0)
(-0.0129503 0.00703938 0)
(-0.0133704 0.00117343 0)
(-0.0122318 -0.00586313 0)
(-0.00924264 -0.0136484 0)
(-0.00456998 -0.0197764 0)
(0.000369188 -0.0210484 0)
(0.00422227 -0.0179359 0)
(0.00678686 -0.0139227 0)
(0.00831397 -0.0105574 0)
(0.00903635 -0.00825267 0)
(0.00913334 -0.00688316 0)
(0.0087756 -0.00611176 0)
(0.00811949 -0.00536991 0)
(0.00727754 -0.00371783 0)
(0.00627061 0.000152538 0)
(0.00511916 0.00724868 0)
(0.00381756 0.0171886 0)
(0.00241923 0.027842 0)
(0.00115545 0.0354963 0)
(0.000318632 0.036148 0)
(-4.30391e-06 0.0277565 0)
(-1.98161e-05 0.0114573 0)
(7.55101e-05 0.0141582 0)
(0.000398926 0.0354105 0)
(0.000556526 0.0486414 0)
(0.000184907 0.0528207 0)
(-0.00090985 0.0494792 0)
(-0.00251997 0.0421276 0)
(-0.00426022 0.0338378 0)
(-0.0058028 0.0261776 0)
(-0.00700623 0.0195305 0)
(-0.0078991 0.0135836 0)
(-0.00850951 0.0076948 0)
(-0.00851884 0.000986697 0)
(-0.00669366 -0.00768223 0)
(-0.00355064 -0.0167743 0)
(0.000646321 -0.023127 0)
(0.00433337 -0.0236156 0)
(0.00720794 -0.0198084 0)
(0.00911067 -0.0151506 0)
(0.010071 -0.0112307 0)
(0.0103148 -0.00838721 0)
(0.0100214 -0.00649537 0)
(0.00933349 -0.00523558 0)
(0.00837433 -0.00405618 0)
(0.00722019 -0.00199517 0)
(0.00590762 0.00243441 0)
(0.00451939 0.0100998 0)
(0.00310536 0.0206037 0)
(0.00175679 0.0314244 0)
(0.000688285 0.038429 0)
(0.000100647 0.0377551 0)
(-5.49081e-05 0.0281438 0)
(-1.86432e-05 0.0113613 0)
(9.67937e-05 0.0126866 0)
(0.000686229 0.0330521 0)
(0.00143268 0.0472779 0)
(0.0019585 0.0536422 0)
(0.0019058 0.0526028 0)
(0.00117916 0.046504 0)
(-5.22679e-05 0.0379305 0)
(-0.00143334 0.028928 0)
(-0.00255715 0.0210729 0)
(-0.00326711 0.0141646 0)
(-0.00351098 0.00749148 0)
(-0.00258604 -0.000279818 0)
(-0.000239798 -0.0106722 0)
(0.00275297 -0.0202566 0)
(0.00579298 -0.0258782 0)
(0.00818636 -0.0257815 0)
(0.00991223 -0.0212919 0)
(0.0108847 -0.0159918 0)
(0.0111622 -0.0115089 0)
(0.0109567 -0.00813056 0)
(0.0104067 -0.0057137 0)
(0.00957772 -0.0039338 0)
(0.00850005 -0.0022041 0)
(0.00716037 0.000576436 0)
(0.00560294 0.00559219 0)
(0.00396073 0.0137534 0)
(0.00236912 0.0245686 0)
(0.00101092 0.0351421 0)
(0.000134277 0.0410219 0)
(-0.000176017 0.0387586 0)
(-0.000140981 0.0281225 0)
(-2.52162e-05 0.011119 0)
(0.000106355 0.0102511 0)
(0.000900875 0.0280692 0)
(0.00216824 0.0421239 0)
(0.00356708 0.0502267 0)
(0.00467691 0.0518225 0)
(0.0052253 0.0480926 0)
(0.00514703 0.0409601 0)
(0.00457959 0.0322428 0)
(0.00384103 0.0234076 0)
(0.00331781 0.0149341 0)
(0.00324727 0.0064574 0)
(0.00467644 -0.00304256 0)
(0.00671886 -0.0134375 0)
(0.00887771 -0.0227371 0)
(0.0106443 -0.0279256 0)
(0.0114045 -0.027099 0)
(0.0115065 -0.0219553 0)
(0.0112039 -0.0161358 0)
(0.0106513 -0.0112635 0)
(0.0100163 -0.00749508 0)
(0.00936116 -0.00461268 0)
(0.00864539 -0.00229494 0)
(0.00772658 0.000127695 0)
(0.00633844 0.0036434 0)
(0.00441666 0.00946929 0)
(0.00224687 0.0184128 0)
(0.000423983 0.0295082 0)
(-0.000664357 0.0391092 0)
(-0.000967201 0.0426401 0)
(-0.000755999 0.0385108 0)
(-0.000362697 0.027114 0)
(-4.98124e-05 0.0104491 0)
(0.000100094 0.00693999 0)
(0.00097702 0.0203461 0)
(0.00257532 0.0325771 0)
(0.00464391 0.0413811 0)
(0.00677213 0.0453594 0)
(0.00861068 0.0445591 0)
(0.00994493 0.0399932 0)
(0.0107216 0.0329601 0)
(0.0110636 0.0246403 0)
(0.011238 0.0157111 0)
(0.0115539 0.00622529 0)
(0.0124719 -0.0042934 0)
(0.0135768 -0.0152225 0)
(0.0144039 -0.0241922 0)
(0.0142744 -0.0284682 0)
(0.0125358 -0.0266846 0)
(0.0102816 -0.021052 0)
(0.00821154 -0.0150657 0)
(0.00663209 -0.0103445 0)
(0.00558502 -0.00689737 0)
(0.00493351 -0.00421193 0)
(0.00389195 -0.00154767 0)
(0.00208559 0.00204719 0)
(0.000213126 0.00764651 0)
(-0.00180603 0.0163079 0)
(-0.00331894 0.0255351 0)
(-0.00401362 0.0342035 0)
(-0.00381156 0.0400521 0)
(-0.00294177 0.0405133 0)
(-0.0017934 0.0346664 0)
(-0.000756104 0.0233394 0)
(-9.64175e-05 0.00857043 0)
(7.47689e-05 0.00350357 0)
(0.000860283 0.0115178 0)
(0.00245916 0.0204417 0)
(0.0047575 0.0285173 0)
(0.00740996 0.0338991 0)
(0.0100499 0.0356794 0)
(0.012384 0.0339433 0)
(0.0142369 0.0293287 0)
(0.0155778 0.0226204 0)
(0.0165253 0.0144309 0)
(0.0173896 0.00502165 0)
(0.0181582 -0.00549856 0)
(0.018331 -0.0157329 0)
(0.0171129 -0.0233324 0)
(0.0140428 -0.0260418 0)
(0.00846997 -0.0230938 0)
(0.00291962 -0.0173075 0)
(-0.0017325 -0.0114229 0)
(-0.00488535 -0.00729109 0)
(-0.00701895 -0.00398629 0)
(-0.00910165 -0.000345011 0)
(-0.0107803 0.00351739 0)
(-0.0116954 0.00789636 0)
(-0.0121752 0.0133867 0)
(-0.0119414 0.0199108 0)
(-0.0110183 0.0264393 0)
(-0.00943163 0.0316424 0)
(-0.00732212 0.0338869 0)
(-0.00497965 0.0318018 0)
(-0.00277336 0.0252784 0)
(-0.0010768 0.0156652 0)
(-0.000120745 0.00514849 0)
(4.26885e-05 0.000956344 0)
(0.00059184 0.0043164 0)
(0.00185251 0.00953734 0)
(0.00387644 0.0158171 0)
(0.00644899 0.0214853 0)
(0.00922711 0.0250292 0)
(0.0118777 0.0257179 0)
(0.0141585 0.0235183 0)
(0.0159588 0.0187746 0)
(0.0173167 0.0119267 0)
(0.0184742 0.00341468 0)
(0.0188134 -0.0058109 0)
(0.0175551 -0.0139136 0)
(0.0132291 -0.018988 0)
(0.00610955 -0.0194693 0)
(-0.00466641 -0.0149576 0)
(-0.013112 -0.0100019 0)
(-0.0191623 -0.00609883 0)
(-0.0234214 -0.00319861 0)
(-0.0263195 -0.000867257 0)
(-0.0276039 0.00128194 0)
(-0.0273367 0.00369847 0)
(-0.0260814 0.00678625 0)
(-0.0238268 0.0105918 0)
(-0.0206985 0.0147507 0)
(-0.0169502 0.0184933 0)
(-0.0129057 0.0208231 0)
(-0.00893217 0.0207152 0)
(-0.00539849 0.0176132 0)
(-0.00262985 0.0121057 0)
(-0.000854965 0.00599895 0)
(-6.42076e-05 0.00130334 0)
(1.17286e-05 -0.000271465 0)
(0.000242485 0.000379067 0)
(0.000893686 0.0027082 0)
(0.00215854 0.00676941 0)
(0.00404896 0.0116919 0)
(0.00633698 0.015952 0)
(0.00869219 0.0182362 0)
(0.0108409 0.0178741 0)
(0.0126332 0.0147491 0)
(0.0140163 0.00913312 0)
(0.0147732 0.00189991 0)
(0.0138675 -0.0047551 0)
(0.0102683 -0.00934481 0)
(0.00145935 -0.0109706 0)
(-0.0106409 -0.00908845 0)
(-0.0205877 -0.0065066 0)
(-0.0291806 -0.00370239 0)
(-0.0356469 -0.00100013 0)
(-0.0395989 0.000718772 0)
(-0.0414068 0.00155024 0)
(-0.041414 0.00188802 0)
(-0.0398287 0.00200497 0)
(-0.0366839 0.00213514 0)
(-0.0321258 0.0025281 0)
(-0.026485 0.00321655 0)
(-0.0202562 0.0040178 0)
(-0.0140507 0.0045986 0)
(-0.00849809 0.00456859 0)
(-0.00415345 0.0036859 0)
(-0.00139648 0.00216934 0)
(-0.000184004 0.000735253 0)
(4.70911e-05 -4.30686e-07 0)
(-1.02604e-05 -0.000428249 0)
(-5.60266e-05 -0.000491895 0)
(-4.39661e-05 0.000503991 0)
(0.00020256 0.00286611 0)
(0.000903858 0.00650142 0)
(0.00211742 0.0104854 0)
(0.00362421 0.0133876 0)
(0.00507287 0.014098 0)
(0.0061135 0.0122158 0)
(0.0062648 0.00814964 0)
(0.00455833 0.00341534 0)
(0.000393418 -4.70022e-05 0)
(-0.00613519 -0.00126507 0)
(-0.0138086 -0.00142865 0)
(-0.0214672 -0.00129711 0)
(-0.0285436 -0.000457113 0)
(-0.0348733 0.00105858 0)
(-0.0397343 0.00218984 0)
(-0.0429376 0.0021957 0)
(-0.0445265 0.00101019 0)
(-0.0443625 -0.00121268 0)
(-0.0424949 -0.00415142 0)
(-0.0393004 -0.00744964 0)
(-0.0348872 -0.010812 0)
(-0.0294622 -0.0138578 0)
(-0.0233714 -0.0160794 0)
(-0.0170869 -0.0168477 0)
(-0.0111477 -0.0155366 0)
(-0.0060984 -0.0118934 0)
(-0.00245783 -0.00671549 0)
(-0.000531721 -0.00214058 0)
(1.72047e-05 6.45582e-05 0)
(-1.95798e-05 -3.30999e-05 0)
(-0.000221604 0.000433845 0)
(-0.000602916 0.00155086 0)
(-0.00107781 0.00340807 0)
(-0.00141916 0.00598895 0)
(-0.0013855 0.00896671 0)
(-0.000937736 0.011554 0)
(-0.000329434 0.0127838 0)
(-7.12809e-06 0.0121371 0)
(-0.000622121 0.0100396 0)
(-0.00282991 0.00772097 0)
(-0.00647308 0.00596195 0)
(-0.0108657 0.00461196 0)
(-0.0154595 0.00349421 0)
(-0.0200668 0.00288952 0)
(-0.0246462 0.00306674 0)
(-0.0290598 0.00402146 0)
(-0.0326645 0.00477698 0)
(-0.0350931 0.00428172 0)
(-0.0363927 0.00224186 0)
(-0.0364986 -0.00120289 0)
(-0.0355172 -0.00565261 0)
(-0.0337744 -0.0107599 0)
(-0.0312454 -0.0162889 0)
(-0.0279451 -0.0218204 0)
(-0.0239282 -0.0266631 0)
(-0.0193205 -0.0298412 0)
(-0.0143474 -0.0301946 0)
(-0.00935392 -0.0267292 0)
(-0.00486229 -0.0193031 0)
(-0.00161678 -0.00985851 0)
(-0.000113818 -0.00218425 0)
(-2.87328e-05 0.000518272 0)
(-0.000310603 0.00183756 0)
(-0.000860383 0.00345637 0)
(-0.00162821 0.00532643 0)
(-0.00244236 0.00741203 0)
(-0.00307696 0.00959595 0)
(-0.00337586 0.0115359 0)
(-0.00339906 0.0126984 0)
(-0.00345648 0.0127117 0)
(-0.00400142 0.0117232 0)
(-0.00532559 0.0102644 0)
(-0.00729144 0.00868637 0)
(-0.00962247 0.00714189 0)
(-0.0121314 0.0057967 0)
(-0.0147634 0.004982 0)
(-0.0174382 0.00497989 0)
(-0.0199937 0.00568535 0)
(-0.0219935 0.00610759 0)
(-0.0232847 0.0051693 0)
(-0.0240244 0.00248903 0)
(-0.0242705 -0.00166202 0)
(-0.0241537 -0.0066675 0)
(-0.0238868 -0.0124623 0)
(-0.0233242 -0.0190367 0)
(-0.0223055 -0.0261022 0)
(-0.0206312 -0.0330323 0)
(-0.0181167 -0.0387806 0)
(-0.0147114 -0.0418394 0)
(-0.0105703 -0.0405051 0)
(-0.00614967 -0.033263 0)
(-0.00234973 -0.0204113 0)
(-0.000204577 -0.00605176 0)
(-3.20269e-05 0.0010992 0)
(-0.000345015 0.00330523 0)
(-0.00095235 0.00547351 0)
(-0.00180849 0.00746957 0)
(-0.00275993 0.00926155 0)
(-0.0036114 0.0108577 0)
(-0.00419275 0.0121722 0)
(-0.00445748 0.0129774 0)
(-0.00454482 0.0130545 0)
(-0.0047103 0.0124175 0)
(-0.0051262 0.0112875 0)
(-0.00577614 0.00986758 0)
(-0.0065973 0.00833772 0)
(-0.00754784 0.00693577 0)
(-0.00858946 0.00601081 0)
(-0.00958196 0.00584286 0)
(-0.0103373 0.0063253 0)
(-0.010614 0.0065655 0)
(-0.010507 0.00560694 0)
(-0.0103351 0.00302465 0)
(-0.010326 -0.00104592 0)
(-0.0108543 -0.00597578 0)
(-0.0117201 -0.0117072 0)
(-0.0127553 -0.01846 0)
(-0.0137419 -0.026153 0)
(-0.0143537 -0.0344021 0)
(-0.0141686 -0.0423454 0)
(-0.0128515 -0.0483183 0)
(-0.0102807 -0.0501518 0)
(-0.00668738 -0.0449852 0)
(-0.00292816 -0.0308917 0)
(-0.000320289 -0.0104951 0)
(-3.49572e-05 0.00163434 0)
(-0.000372765 0.00464852 0)
(-0.00101407 0.00731407 0)
(-0.00189371 0.00943209 0)
(-0.00284548 0.0109901 0)
(-0.00368176 0.0120948 0)
(-0.00423652 0.012827 0)
(-0.00442208 0.0131606 0)
(-0.0042781 0.0130118 0)
(-0.00394469 0.012372 0)
(-0.00354818 0.0113266 0)
(-0.00314821 0.00999908 0)
(-0.0027936 0.00854393 0)
(-0.0025234 0.00717597 0)
(-0.00231219 0.006215 0)
(-0.00195356 0.00590829 0)
(-0.00119453 0.00617096 0)
(5.21813e-05 0.00626844 0)
(0.00147454 0.0052996 0)
(0.00249232 0.0029249 0)
(0.00301371 -0.000629861 0)
(0.00210637 -0.00481887 0)
(0.000565853 -0.00998477 0)
(-0.00149278 -0.016334 0)
(-0.00385363 -0.0237991 0)
(-0.00625377 -0.032374 0)
(-0.00825718 -0.0416861 0)
(-0.00924255 -0.0500879 0)
(-0.00873499 -0.0553604 0)
(-0.00655789 -0.0535292 0)
(-0.00335746 -0.0402983 0)
(-0.000447967 -0.0152811 0)
(-4.67606e-05 0.00216073 0)
(-0.000464343 0.0059303 0)
(-0.00119643 0.0089987 0)
(-0.00211473 0.0111363 0)
(-0.00300998 0.0124015 0)
(-0.00369499 0.0130167 0)
(-0.00402182 0.0131947 0)
(-0.00390347 0.0130443 0)
(-0.0033431 0.0125805 0)
(-0.00242747 0.0118078 0)
(-0.00125219 0.0107489 0)
(7.702e-05 0.00947348 0)
(0.00145107 0.00809866 0)
(0.00274813 0.0068312 0)
(0.00400505 0.00590179 0)
(0.00549084 0.00549274 0)
(0.00750432 0.00551987 0)
(0.00989198 0.00540436 0)
(0.0121587 0.00441651 0)
(0.0136783 0.00235277 0)
(0.014206 -0.000533428 0)
(0.0133421 -0.0040156 0)
(0.0116041 -0.00833793 0)
(0.00915514 -0.013702 0)
(0.00611617 -0.020256 0)
(0.00270398 -0.0281411 0)
(-0.00103893 -0.0379043 0)
(-0.00421753 -0.0478288 0)
(-0.00607334 -0.0562386 0)
(-0.00581178 -0.0584183 0)
(-0.00366901 -0.0478695 0)
(-0.000611863 -0.0201731 0)
(-8.34453e-05 0.00279917 0)
(-0.000712298 0.00735019 0)
(-0.00164911 0.0106711 0)
(-0.00264317 0.012617 0)
(-0.00342566 0.013433 0)
(-0.00382993 0.0134991 0)
(-0.00375499 0.0131365 0)
(-0.00314722 0.0125347 0)
(-0.00200794 0.0117625 0)
(-0.000394576 0.0108236 0)
(0.00164097 0.00969663 0)
(0.0038416 0.00849316 0)
(0.00612206 0.00725973 0)
(0.00836861 0.00613312 0)
(0.010606 0.00527027 0)
(0.013112 0.0047861 0)
(0.0161109 0.00461842 0)
(0.0192836 0.00436755 0)
(0.0220732 0.00349878 0)
(0.0238715 0.00186036 0)
(0.0244487 -0.000385291 0)
(0.023672 -0.00322481 0)
(0.0218578 -0.00683174 0)
(0.0191418 -0.0113858 0)
(0.0156393 -0.0170317 0)
(0.0115261 -0.0239244 0)
(0.00689927 -0.0323097 0)
(0.00205122 -0.0423038 0)
(-0.00225763 -0.0531638 0)
(-0.00437095 -0.0595439 0)
(-0.00383725 -0.0531663 0)
(-0.000838995 -0.0250532 0)
(-0.000180201 0.00376275 0)
(-0.0012557 0.00916929 0)
(-0.00251446 0.012455 0)
(-0.00355753 0.0138691 0)
(-0.00408934 0.014017 0)
(-0.00401914 0.0134626 0)
(-0.00332957 0.0125846 0)
(-0.00201664 0.011586 0)
(-7.1777e-05 0.0105313 0)
(0.00241756 0.00944448 0)
(0.0052813 0.00833818 0)
(0.00836633 0.00723766 0)
(0.0115652 0.00615564 0)
(0.014774 0.00517816 0)
(0.018001 0.00440488 0)
(0.0214897 0.00389902 0)
(0.025297 0.00362486 0)
(0.0290017 0.003326 0)
(0.0321134 0.0026215 0)
(0.0341071 0.0013778 0)
(0.0348371 -0.000332528 0)
(0.034205 -0.00254105 0)
(0.032398 -0.00538182 0)
(0.0294881 -0.00901761 0)
(0.0255416 -0.0136179 0)
(0.0206847 -0.0193941 0)
(0.0150884 -0.0266399 0)
(0.00902049 -0.0356652 0)
(0.00292652 -0.0465689 0)
(-0.00195947 -0.056871 0)
(-0.0037014 -0.0558386 0)
(-0.00113495 -0.0298032 0)
(-0.000402595 0.00538898 0)
(-0.00226831 0.0116086 0)
(-0.00383826 0.0143 0)
(-0.00469877 0.0147288 0)
(-0.00464899 0.0139982 0)
(-0.00376292 0.0127953 0)
(-0.00211821 0.0114609 0)
(0.000254157 0.0101134 0)
(0.00323561 0.00888424 0)
(0.00666837 0.00777411 0)
(0.0104683 0.00673768 0)
(0.0145081 0.00576707 0)
(0.0186758 0.00485145 0)
(0.022868 0.0040359 0)
(0.0270642 0.00337988 0)
(0.0314465 0.00291454 0)
(0.0358829 0.00262238 0)
(0.0399147 0.00234113 0)
(0.0431859 0.00180375 0)
(0.0452887 0.000895851 0)
(0.0461381 -0.000353492 0)
(0.0455887 -0.0019742 0)
(0.0437569 -0.00406791 0)
(0.0406669 -0.00676858 0)
(0.0363361 -0.0102389 0)
(0.0308294 -0.0147118 0)
(0.0242813 -0.0205446 0)
(0.0169316 -0.0282712 0)
(0.00921194 -0.0385091 0)
(0.00203254 -0.0504273 0)
(-0.002876 -0.0555419 0)
(-0.0014359 -0.0343072 0)
(-0.000826199 0.00821628 0)
(-0.00379928 0.0146458 0)
(-0.00524852 0.0157698 0)
(-0.0052388 0.0147634 0)
(-0.00390243 0.0130843 0)
(-0.00160446 0.0112938 0)
(0.0016351 0.00955697 0)
(0.00533467 0.00810016 0)
(0.00950841 0.00687575 0)
(0.0140453 0.00583886 0)
(0.01887 0.00493332 0)
(0.0238722 0.00413107 0)
(0.0289391 0.00340844 0)
(0.0339591 0.0027812 0)
(0.0388818 0.00227884 0)
(0.0438295 0.00191366 0)
(0.0485423 0.00167465 0)
(0.0525992 0.00145579 0)
(0.0557833 0.00107949 0)
(0.0577965 0.00045942 0)
(0.0585584 -0.000384879 0)
(0.0579182 -0.00146922 0)
(0.0559632 -0.0028683 0)
(0.0526972 -0.00467896 0)
(0.0481029 -0.00703157 0)
(0.0421772 -0.0101403 0)
(0.0349526 -0.0143821 0)
(0.0265439 -0.0204128 0)
(0.0172687 -0.0292266 0)
(0.00788637 -0.0413194 0)
(-0.000537636 -0.0517015 0)
(-0.00146191 -0.0381898 0)
(-0.00157133 0.0131512 0)
(-0.00525592 0.0176096 0)
(-0.00496988 0.0158582 0)
(-0.00249929 0.0132494 0)
(0.00148789 0.0107332 0)
(0.00604975 0.0086533 0)
(0.0110877 0.00694401 0)
(0.0163408 0.00560737 0)
(0.0217837 0.00454844 0)
(0.0273445 0.00370404 0)
(0.0329609 0.00301421 0)
(0.0385459 0.00244028 0)
(0.0440023 0.00195266 0)
(0.0492311 0.0015479 0)
(0.0541841 0.00123343 0)
(0.0589592 0.0010099 0)
(0.0632963 0.000865588 0)
(0.0668806 0.000731766 0)
(0.0695868 0.000505444 0)
(0.0711925 0.000136489 0)
(0.0715828 -0.000353587 0)
(0.0706868 -0.000971203 0)
(0.0685755 -0.00176616 0)
(0.0652468 -0.00279708 0)
(0.0606662 -0.00414839 0)
(0.0547753 -0.0059788 0)
(0.0474818 -0.00860964 0)
(0.0386713 -0.0126835 0)
(0.0283217 -0.0193718 0)
(0.0167438 -0.0301457 0)
(0.00450256 -0.0434325 0)
(-0.000143817 -0.0395647 0)
(-0.00121709 0.0182949 0)
(-0.00286987 0.0183062 0)
(0.00372547 0.0128661 0)
(0.0111302 0.00951736 0)
(0.0183879 0.00708821 0)
(0.0252868 0.00525258 0)
(0.0319051 0.00388296 0)
(0.0381667 0.00289543 0)
(0.0440883 0.0021777 0)
(0.0496809 0.00165405 0)
(0.054952 0.0012654 0)
(0.0598892 0.000970963 0)
(0.0644659 0.000741551 0)
(0.0686499 0.000564729 0)
(0.0724466 0.000435924 0)
(0.0759669 0.000350917 0)
(0.0790687 0.000299003 0)
(0.0815655 0.000243856 0)
(0.0833508 0.000141612 0)
(0.0842495 -2.31442e-05 0)
(0.0841276 -0.000233926 0)
(0.0830213 -0.000493156 0)
(0.0809775 -0.000826414 0)
(0.0779882 -0.00125967 0)
(0.0740136 -0.00183241 0)
(0.068969 -0.00263082 0)
(0.0626725 -0.00385717 0)
(0.0547694 -0.00597709 0)
(0.0446657 -0.00998107 0)
(0.0315824 -0.0175942 0)
(0.015464 -0.0297033 0)
(0.0063042 -0.0333861 0)
(0.0207815 0.0113336 0)
(0.0271796 0.00928717 0)
(0.0403241 0.00545002 0)
(0.0511097 0.00332086 0)
(0.059248 0.00207431 0)
(0.0656559 0.00128024 0)
(0.0708514 0.000778268 0)
(0.0750961 0.000474875 0)
(0.0786132 0.000293849 0)
(0.081578 0.000186663 0)
(0.0841192 0.00012242 0)
(0.0863217 8.27971e-05 0)
(0.0882369 5.68673e-05 0)
(0.0898971 3.98837e-05 0)
(0.0913428 2.94677e-05 0)
(0.0926538 2.45266e-05 0)
(0.0938126 2.25978e-05 0)
(0.0947368 1.64688e-05 0)
(0.0953246 2.49714e-07 0)
(0.0954612 -2.48775e-05 0)
(0.095104 -5.44144e-05 0)
(0.0942928 -8.91456e-05 0)
(0.0930453 -0.000134586 0)
(0.0913474 -0.000194377 0)
(0.089168 -0.000274438 0)
(0.0864371 -0.000390967 0)
(0.0829775 -0.000588203 0)
(0.0783611 -0.000981083 0)
(0.0716172 -0.00185359 0)
(0.0607013 -0.00395612 0)
(0.0431812 -0.00915857 0)
(0.0285619 -0.0144982 0)
)
;

boundaryField
{
    movingWall
    {
        type            fixedValue;
        value           uniform (0.1 0 0);
    }
    fixedWalls
    {
        type            noSlip;
    }
    floor
    {
        type            noSlip;
    }
    frontAndBack
    {
        type            empty;
    }
}


// ************************************************************************* //
