/*--------------------------------*- C++ -*----------------------------------*\
| =========                 |                                                 |
| \\      /  F ield         | OpenFOAM: The Open Source CFD Toolbox           |
|  \\    /   O peration     | Version:  2212                                  |
|   \\  /    A nd           | Website:  www.openfoam.com                      |
|    \\/     M anipulation  |                                                 |
\*---------------------------------------------------------------------------*/
FoamFile
{
    version     2.0;
    format      ascii;
    arch        "LSB;label=64;scalar=64";
    class       volScalarField;
    location    "390";
    object      Xli;
}
// * * * * * * * * * * * * * * * * * * * * * * * * * * * * * * * * * * * * * //

dimensions      [1 -3 0 0 0 0 0];

internalField   nonuniform List<scalar> 
1024
(
0.042575
0.0425752
0.0425756
0.0425763
0.0425774
0.0425788
0.0425807
0.0425827
0.0425847
0.0425866
0.0425883
0.0425897
0.0425905
0.0425905
0.0425892
0.0425857
0.0425793
0.0425716
0.0425641
0.0425574
0.0425517
0.042547
0.0425432
0.04254
0.0425373
0.0425349
0.042533
0.0425315
0.0425304
0.0425296
0.0425292
0.042529
0.042575
0.0425752
0.0425756
0.0425764
0.0425775
0.042579
0.0425809
0.0425829
0.042585
0.0425869
0.0425886
0.0425899
0.0425908
0.0425909
0.0425896
0.042586
0.0425797
0.0425719
0.0425643
0.0425576
0.0425519
0.0425472
0.0425434
0.0425402
0.0425374
0.0425351
0.0425331
0.0425316
0.0425304
0.0425297
0.0425292
0.0425291
0.0425751
0.0425753
0.0425758
0.0425766
0.0425778
0.0425794
0.0425813
0.0425834
0.0425855
0.0425874
0.0425892
0.0425906
0.0425915
0.0425917
0.0425905
0.042587
0.0425806
0.0425727
0.042565
0.0425582
0.0425524
0.0425477
0.0425437
0.0425405
0.0425377
0.0425353
0.0425333
0.0425317
0.0425305
0.0425297
0.0425293
0.0425291
0.0425753
0.0425755
0.042576
0.0425769
0.0425782
0.04258
0.042582
0.0425841
0.0425863
0.0425883
0.0425901
0.0425916
0.0425928
0.0425932
0.0425924
0.042589
0.0425824
0.0425741
0.0425661
0.0425591
0.0425532
0.0425483
0.0425443
0.0425409
0.0425381
0.0425356
0.0425336
0.0425319
0.0425307
0.0425298
0.0425293
0.0425291
0.0425756
0.0425758
0.0425764
0.0425773
0.0425788
0.0425807
0.0425828
0.0425851
0.0425873
0.0425894
0.0425914
0.0425932
0.0425948
0.0425957
0.0425954
0.0425923
0.0425854
0.0425765
0.0425679
0.0425606
0.0425544
0.0425493
0.042545
0.0425414
0.0425385
0.0425359
0.0425338
0.0425321
0.0425308
0.0425299
0.0425294
0.0425292
0.0425759
0.0425761
0.0425767
0.0425778
0.0425794
0.0425814
0.0425837
0.0425861
0.0425885
0.0425908
0.0425931
0.0425954
0.0425976
0.0425993
0.0425998
0.0425972
0.0425899
0.0425801
0.0425706
0.0425627
0.042556
0.0425504
0.0425458
0.042542
0.0425388
0.0425361
0.0425339
0.0425321
0.0425308
0.0425299
0.0425294
0.0425292
0.0425762
0.0425765
0.0425771
0.0425783
0.04258
0.0425822
0.0425846
0.0425871
0.0425897
0.0425923
0.042595
0.042598
0.0426011
0.042604
0.0426057
0.0426039
0.0425961
0.0425851
0.0425745
0.0425656
0.0425581
0.0425518
0.0425467
0.0425424
0.0425389
0.0425361
0.0425339
0.0425321
0.0425308
0.0425299
0.0425294
0.0425291
0.0425766
0.0425768
0.0425775
0.0425787
0.0425805
0.0425828
0.0425853
0.0425881
0.0425909
0.0425938
0.0425971
0.0426008
0.0426049
0.0426093
0.0426127
0.0426121
0.042604
0.0425917
0.0425796
0.0425693
0.0425607
0.0425535
0.0425476
0.0425427
0.0425389
0.0425359
0.0425336
0.0425319
0.0425306
0.0425297
0.0425292
0.042529
0.0425769
0.0425771
0.0425778
0.042579
0.0425808
0.0425831
0.0425858
0.0425887
0.0425917
0.042595
0.0425987
0.0426031
0.0426084
0.0426144
0.04262
0.0426211
0.0426131
0.0425996
0.0425859
0.042574
0.0425639
0.0425554
0.0425485
0.042543
0.0425387
0.0425355
0.0425332
0.0425315
0.0425303
0.0425295
0.042529
0.0425288
0.0425771
0.0425773
0.042578
0.0425792
0.0425809
0.0425832
0.0425858
0.0425888
0.0425919
0.0425953
0.0425994
0.0426043
0.0426106
0.0426185
0.0426267
0.0426303
0.0426227
0.0426082
0.0425929
0.0425791
0.0425673
0.0425574
0.0425494
0.0425431
0.0425384
0.042535
0.0425326
0.0425309
0.0425298
0.042529
0.0425286
0.0425284
0.0425771
0.0425774
0.042578
0.0425791
0.0425807
0.0425828
0.0425853
0.0425881
0.0425911
0.0425944
0.0425984
0.0426036
0.0426107
0.0426205
0.0426322
0.0426389
0.0426321
0.0426166
0.0425997
0.0425842
0.0425706
0.0425592
0.04255
0.042543
0.0425378
0.0425343
0.0425318
0.0425302
0.0425292
0.0425284
0.042528
0.0425278
0.0425769
0.0425772
0.0425777
0.0425787
0.0425801
0.042582
0.0425841
0.0425865
0.0425891
0.0425919
0.0425955
0.0426005
0.0426083
0.0426207
0.0426369
0.0426472
0.0426408
0.0426239
0.0426053
0.0425881
0.0425729
0.0425602
0.0425501
0.0425424
0.0425369
0.0425333
0.0425309
0.0425293
0.0425283
0.0425277
0.0425272
0.042527
0.0425765
0.0425767
0.0425772
0.0425781
0.0425792
0.0425806
0.0425823
0.042584
0.0425858
0.0425878
0.0425906
0.0425953
0.0426041
0.0426203
0.0426423
0.0426562
0.0426488
0.0426292
0.0426082
0.0425892
0.0425729
0.0425594
0.0425488
0.0425409
0.0425355
0.0425319
0.0425297
0.0425282
0.0425273
0.0425266
0.0425262
0.042526
0.0425753
0.0425755
0.042576
0.0425766
0.0425774
0.0425784
0.0425795
0.0425805
0.0425814
0.0425826
0.0425846
0.0425893
0.0426003
0.0426224
0.0426515
0.0426674
0.042656
0.0426312
0.0426067
0.0425858
0.0425688
0.0425553
0.0425451
0.0425378
0.0425329
0.0425298
0.0425279
0.0425267
0.0425259
0.0425253
0.0425249
0.0425247
0.042574
0.0425742
0.0425747
0.0425753
0.0425759
0.0425765
0.042577
0.0425773
0.0425773
0.0425774
0.0425788
0.0425846
0.0426004
0.0426316
0.0426681
0.0426819
0.0426615
0.0426283
0.0425988
0.0425758
0.0425587
0.0425463
0.0425376
0.042532
0.0425285
0.0425264
0.0425252
0.0425243
0.0425237
0.0425232
0.0425228
0.0425226
0.0425698
0.04257
0.0425703
0.0425709
0.0425716
0.0425722
0.0425727
0.0425726
0.0425722
0.0425721
0.0425746
0.042585
0.0426113
0.0426553
0.0426956
0.0426991
0.0426634
0.0426191
0.042584
0.0425595
0.042543
0.0425324
0.0425263
0.0425234
0.0425224
0.0425223
0.0425223
0.0425221
0.0425216
0.042521
0.0425205
0.0425203
0.0425743
0.0425734
0.0425718
0.0425698
0.0425678
0.0425662
0.0425652
0.042565
0.0425661
0.0425699
0.0425803
0.042604
0.0426472
0.0427011
0.0427329
0.0427155
0.0426635
0.0426124
0.0425759
0.0425513
0.042535
0.0425245
0.0425182
0.0425147
0.0425129
0.0425121
0.0425118
0.042512
0.0425126
0.0425137
0.0425148
0.0425154
0.0426218
0.04262
0.0426162
0.0426105
0.0426038
0.0425973
0.0425922
0.0425901
0.0425925
0.0426023
0.0426239
0.0426617
0.0427134
0.0427591
0.0427689
0.0427373
0.0426907
0.0426535
0.0426281
0.0426091
0.0425931
0.0425789
0.0425662
0.0425557
0.0425485
0.0425454
0.0425465
0.0425516
0.0425591
0.042567
0.0425733
0.0425765
0.0426919
0.0426903
0.0426866
0.0426804
0.0426722
0.0426634
0.0426558
0.0426524
0.0426559
0.0426701
0.0426978
0.0427379
0.042781
0.0428091
0.0428118
0.0428002
0.0427919
0.0427954
0.0428075
0.0428221
0.0428355
0.0428455
0.0428516
0.0428539
0.0428532
0.0428511
0.0428486
0.0428464
0.0428451
0.0428447
0.0428449
0.0428452
0.0427506
0.0427496
0.042747
0.0427426
0.0427363
0.0427292
0.0427231
0.0427212
0.042727
0.0427437
0.042772
0.0428069
0.0428389
0.0428615
0.0428778
0.0428992
0.0429356
0.0429879
0.0430476
0.0431066
0.0431594
0.0432029
0.0432371
0.043261
0.0432746
0.0432785
0.0432732
0.0432604
0.043243
0.0432253
0.0432117
0.043205
0.0427913
0.0427906
0.0427889
0.0427862
0.0427824
0.0427783
0.0427755
0.0427765
0.0427842
0.0428009
0.042826
0.0428556
0.0428843
0.0429109
0.04294
0.0429811
0.0430423
0.0431197
0.0432003
0.0432742
0.0433361
0.0433846
0.043422
0.0434496
0.0434684
0.0434789
0.0434812
0.0434758
0.0434643
0.0434499
0.0434371
0.04343
0.0428209
0.0428203
0.0428191
0.0428174
0.0428154
0.0428138
0.042814
0.0428177
0.0428271
0.0428435
0.0428666
0.042894
0.0429229
0.0429531
0.0429878
0.0430345
0.0431002
0.04318
0.0432589
0.0433266
0.0433791
0.0434178
0.0434469
0.0434697
0.0434883
0.0435032
0.0435141
0.0435203
0.0435217
0.0435191
0.0435147
0.0435114
0.0428468
0.0428461
0.0428449
0.0428435
0.0428424
0.0428425
0.0428449
0.0428509
0.0428619
0.0428789
0.0429018
0.042929
0.042959
0.0429911
0.043027
0.0430717
0.0431309
0.0432013
0.04327
0.0433278
0.0433719
0.0434049
0.0434312
0.0434543
0.0434757
0.0434955
0.0435122
0.0435246
0.0435323
0.0435355
0.0435358
0.0435349
0.042874
0.042873
0.0428714
0.0428699
0.0428692
0.0428705
0.0428746
0.0428828
0.0428957
0.0429141
0.0429378
0.0429659
0.0429971
0.0430304
0.043066
0.0431065
0.043156
0.0432134
0.0432699
0.0433187
0.0433575
0.0433884
0.0434148
0.0434395
0.0434639
0.0434877
0.043509
0.043526
0.0435376
0.0435438
0.0435459
0.043546
0.0429067
0.0429052
0.0429029
0.042901
0.0429007
0.0429031
0.0429093
0.0429198
0.0429352
0.0429555
0.0429806
0.0430098
0.043042
0.0430759
0.0431107
0.0431472
0.0431877
0.0432327
0.0432776
0.0433183
0.0433528
0.0433821
0.0434082
0.0434333
0.0434585
0.0434838
0.0435075
0.0435276
0.0435422
0.0435507
0.0435542
0.0435548
0.0429482
0.042946
0.0429429
0.0429408
0.0429413
0.0429457
0.0429546
0.0429681
0.0429862
0.0430087
0.0430351
0.0430649
0.0430971
0.0431306
0.0431639
0.0431969
0.0432302
0.0432649
0.0432999
0.043333
0.0433627
0.0433892
0.0434136
0.0434374
0.0434614
0.0434857
0.0435094
0.0435305
0.0435469
0.0435572
0.0435619
0.0435628
0.0430011
0.042998
0.0429945
0.0429931
0.0429958
0.0430034
0.0430158
0.0430326
0.0430532
0.0430771
0.0431038
0.0431329
0.0431637
0.0431951
0.0432258
0.043255
0.0432824
0.0433092
0.0433358
0.0433618
0.0433861
0.0434087
0.04343
0.0434508
0.043472
0.0434936
0.0435153
0.0435355
0.0435521
0.0435634
0.043569
0.0435703
0.0430674
0.0430637
0.0430608
0.043062
0.0430684
0.04308
0.0430959
0.0431152
0.043137
0.0431607
0.043186
0.0432126
0.0432401
0.0432677
0.0432943
0.0433192
0.0433413
0.0433616
0.0433813
0.0434008
0.0434197
0.0434376
0.0434549
0.0434718
0.0434891
0.0435068
0.0435251
0.0435427
0.0435581
0.0435694
0.0435755
0.0435772
0.0431491
0.0431455
0.0431455
0.0431511
0.0431619
0.0431768
0.0431946
0.0432142
0.0432348
0.043256
0.0432779
0.0433001
0.0433226
0.0433449
0.0433663
0.043386
0.043403
0.0434178
0.0434318
0.0434457
0.0434594
0.0434726
0.0434854
0.0434981
0.0435109
0.0435243
0.0435382
0.0435523
0.0435652
0.0435754
0.0435814
0.0435833
0.0432487
0.0432472
0.0432522
0.0432623
0.0432756
0.0432909
0.0433074
0.0433241
0.0433409
0.0433575
0.043374
0.0433905
0.0434068
0.0434229
0.0434382
0.0434522
0.043464
0.043474
0.0434832
0.0434923
0.0435013
0.0435101
0.0435187
0.0435272
0.0435358
0.0435447
0.0435542
0.043564
0.0435736
0.0435816
0.0435868
0.0435888
0.0433705
0.0433733
0.043382
0.0433924
0.0434036
0.043415
0.0434265
0.0434376
0.0434484
0.0434587
0.0434688
0.0434787
0.0434883
0.0434978
0.0435068
0.043515
0.0435218
0.0435275
0.0435326
0.0435376
0.0435426
0.0435475
0.0435523
0.043557
0.0435618
0.0435668
0.043572
0.0435776
0.0435832
0.0435884
0.043592
0.0435936
0.0435194
0.0435216
0.0435261
0.0435305
0.0435348
0.0435391
0.0435431
0.043547
0.0435507
0.0435542
0.0435575
0.0435607
0.0435639
0.043567
0.0435699
0.0435725
0.0435747
0.0435766
0.0435782
0.0435798
0.0435813
0.0435829
0.0435844
0.0435859
0.0435874
0.0435889
0.0435905
0.0435923
0.0435941
0.0435958
0.0435971
0.0435978
)
;

boundaryField
{
    movingWall
    {
        type            fixedValue;
        value           uniform 0.0436;
    }
    fixedWalls
    {
        type            zeroGradient;
    }
    floor
    {
        type            zeroGradient;
    }
    frontAndBack
    {
        type            empty;
    }
}


// ************************************************************************* //
