/*--------------------------------*- C++ -*----------------------------------*\
| =========                 |                                                 |
| \\      /  F ield         | OpenFOAM: The Open Source CFD Toolbox           |
|  \\    /   O peration     | Version:  2212                                  |
|   \\  /    A nd           | Website:  www.openfoam.com                      |
|    \\/     M anipulation  |                                                 |
\*---------------------------------------------------------------------------*/
FoamFile
{
    version     2.0;
    format      ascii;
    arch        "LSB;label=64;scalar=64";
    class       volScalarField;
    location    "390";
    object      Xpr;
}
// * * * * * * * * * * * * * * * * * * * * * * * * * * * * * * * * * * * * * //

dimensions      [1 -3 0 0 0 0 0];

internalField   nonuniform List<scalar> 
1024
(
0.0821835
0.0821838
0.0821846
0.082186
0.0821882
0.0821911
0.0821946
0.0821986
0.0822026
0.0822064
0.0822097
0.0822124
0.082214
0.0822141
0.0822115
0.0822045
0.082192
0.0821768
0.082162
0.0821489
0.0821377
0.0821285
0.0821209
0.0821146
0.0821093
0.0821047
0.0821009
0.0820979
0.0820957
0.0820942
0.0820934
0.0820931
0.0821836
0.0821839
0.0821848
0.0821862
0.0821884
0.0821914
0.0821951
0.0821991
0.0822031
0.0822069
0.0822102
0.0822129
0.0822146
0.0822147
0.0822122
0.0822052
0.0821927
0.0821774
0.0821625
0.0821493
0.0821382
0.0821289
0.0821213
0.082115
0.0821096
0.082105
0.0821011
0.0820981
0.0820958
0.0820943
0.0820935
0.0820931
0.0821838
0.0821842
0.0821851
0.0821866
0.082189
0.0821922
0.082196
0.0822001
0.0822042
0.082208
0.0822114
0.0822141
0.082216
0.0822164
0.082214
0.0822072
0.0821945
0.0821789
0.0821638
0.0821504
0.0821391
0.0821298
0.082122
0.0821156
0.0821102
0.0821055
0.0821015
0.0820984
0.082096
0.0820945
0.0820936
0.0820932
0.0821841
0.0821845
0.0821855
0.0821873
0.0821899
0.0821933
0.0821973
0.0822015
0.0822057
0.0822096
0.0822132
0.0822162
0.0822185
0.0822194
0.0822176
0.0822111
0.082198
0.0821817
0.082166
0.0821523
0.0821407
0.0821311
0.0821231
0.0821165
0.0821109
0.0821061
0.082102
0.0820987
0.0820963
0.0820946
0.0820937
0.0820933
0.0821846
0.0821851
0.0821862
0.0821881
0.082191
0.0821946
0.0821989
0.0822033
0.0822077
0.0822118
0.0822157
0.0822193
0.0822224
0.0822243
0.0822236
0.0822176
0.0822039
0.0821864
0.0821696
0.0821551
0.082143
0.0821329
0.0821245
0.0821175
0.0821116
0.0821066
0.0821024
0.0820991
0.0820965
0.0820948
0.0820938
0.0820933
0.0821853
0.0821857
0.0821869
0.0821891
0.0821922
0.0821961
0.0822007
0.0822053
0.08221
0.0822145
0.082219
0.0822236
0.0822279
0.0822314
0.0822323
0.0822273
0.0822128
0.0821935
0.0821749
0.0821593
0.0821461
0.0821352
0.0821261
0.0821185
0.0821122
0.082107
0.0821027
0.0820992
0.0820966
0.0820948
0.0820938
0.0820934
0.0821859
0.0821864
0.0821877
0.08219
0.0821934
0.0821976
0.0822024
0.0822074
0.0822124
0.0822176
0.0822229
0.0822287
0.0822348
0.0822405
0.0822439
0.0822403
0.082225
0.0822034
0.0821825
0.0821649
0.0821502
0.082138
0.0821277
0.0821194
0.0821125
0.082107
0.0821026
0.0820991
0.0820965
0.0820947
0.0820937
0.0820933
0.0821866
0.0821871
0.0821885
0.0821908
0.0821943
0.0821988
0.0822038
0.0822092
0.0822147
0.0822205
0.0822269
0.0822342
0.0822424
0.0822509
0.0822576
0.0822564
0.0822405
0.0822164
0.0821926
0.0821724
0.0821554
0.0821413
0.0821295
0.08212
0.0821125
0.0821066
0.0821021
0.0820986
0.0820961
0.0820944
0.0820935
0.082093
0.0821872
0.0821877
0.0821891
0.0821914
0.082195
0.0821995
0.0822047
0.0822104
0.0822164
0.0822228
0.0822302
0.0822389
0.0822493
0.0822611
0.082272
0.0822743
0.0822584
0.0822318
0.0822049
0.0821815
0.0821616
0.082145
0.0821314
0.0821205
0.0821122
0.0821059
0.0821013
0.0820979
0.0820955
0.0820939
0.082093
0.0820926
0.0821876
0.0821881
0.0821894
0.0821917
0.0821951
0.0821996
0.0822048
0.0822106
0.0822167
0.0822235
0.0822315
0.0822412
0.0822536
0.082269
0.0822852
0.0822923
0.0822774
0.0822487
0.0822187
0.0821916
0.0821684
0.082149
0.0821331
0.0821207
0.0821115
0.0821048
0.0821001
0.0820968
0.0820946
0.0820931
0.0820922
0.0820918
0.0821877
0.0821882
0.0821894
0.0821915
0.0821947
0.0821989
0.0822038
0.0822093
0.0822152
0.0822217
0.0822296
0.0822397
0.0822537
0.0822731
0.0822961
0.0823093
0.0822959
0.0822653
0.0822322
0.0822016
0.0821749
0.0821525
0.0821344
0.0821205
0.0821104
0.0821033
0.0820986
0.0820954
0.0820933
0.0820919
0.0820911
0.0820907
0.0821873
0.0821878
0.0821889
0.0821908
0.0821936
0.0821972
0.0822015
0.0822062
0.0822112
0.0822168
0.0822238
0.0822336
0.082249
0.0822734
0.0823052
0.0823256
0.0823129
0.0822797
0.0822432
0.0822092
0.0821795
0.0821545
0.0821345
0.0821194
0.0821087
0.0821014
0.0820967
0.0820937
0.0820917
0.0820904
0.0820896
0.0820892
0.0821864
0.0821869
0.0821879
0.0821895
0.0821918
0.0821946
0.0821978
0.0822012
0.0822047
0.0822087
0.0822142
0.0822234
0.0822408
0.0822726
0.082316
0.0823432
0.0823286
0.0822901
0.0822489
0.0822115
0.0821794
0.0821529
0.0821319
0.0821165
0.0821057
0.0820987
0.0820943
0.0820915
0.0820896
0.0820884
0.0820875
0.0820871
0.0821841
0.0821846
0.0821854
0.0821866
0.0821883
0.0821902
0.0821923
0.0821943
0.0821962
0.0821984
0.0822024
0.0822116
0.0822333
0.0822767
0.0823341
0.0823653
0.0823428
0.0822941
0.0822459
0.0822049
0.0821714
0.0821448
0.0821246
0.0821103
0.0821006
0.0820946
0.0820909
0.0820886
0.0820869
0.0820857
0.0820849
0.0820845
0.0821815
0.082182
0.0821829
0.0821841
0.0821854
0.0821866
0.0821875
0.0821879
0.082188
0.0821882
0.082191
0.0822023
0.0822335
0.0822949
0.0823667
0.0823938
0.0823538
0.0822884
0.0822303
0.0821852
0.0821515
0.082127
0.0821099
0.0820988
0.082092
0.0820879
0.0820855
0.0820838
0.0820826
0.0820816
0.0820809
0.0820805
0.0821733
0.0821736
0.0821743
0.0821754
0.0821768
0.0821781
0.0821789
0.0821789
0.082178
0.0821778
0.0821828
0.0822033
0.0822549
0.0823414
0.0824209
0.0824277
0.0823575
0.0822702
0.0822013
0.082153
0.0821206
0.0820998
0.0820877
0.0820819
0.0820801
0.0820799
0.0820799
0.0820794
0.0820784
0.0820773
0.0820763
0.0820758
0.0821821
0.0821804
0.0821772
0.0821732
0.0821693
0.0821661
0.0821643
0.0821639
0.0821659
0.0821734
0.0821939
0.0822406
0.0823255
0.0824316
0.0824942
0.08246
0.0823576
0.082257
0.0821852
0.0821369
0.0821047
0.0820841
0.0820717
0.0820648
0.0820614
0.0820598
0.0820593
0.0820595
0.0820608
0.0820629
0.082065
0.0820663
0.0822756
0.0822721
0.0822645
0.0822534
0.0822402
0.0822273
0.0822174
0.0822132
0.082218
0.0822373
0.0822797
0.082354
0.0824558
0.0825457
0.0825649
0.0825027
0.0824112
0.0823379
0.0822879
0.0822506
0.0822192
0.0821911
0.0821661
0.0821455
0.0821313
0.0821252
0.0821275
0.0821374
0.0821522
0.0821679
0.0821802
0.0821865
0.0824136
0.0824104
0.082403
0.0823909
0.0823748
0.0823574
0.0823426
0.0823357
0.0823427
0.0823707
0.0824251
0.082504
0.0825887
0.0826441
0.0826494
0.0826265
0.0826103
0.0826171
0.0826409
0.0826697
0.082696
0.0827156
0.0827278
0.0827322
0.0827309
0.0827267
0.0827217
0.0827175
0.0827149
0.0827141
0.0827145
0.0827151
0.082529
0.082527
0.0825219
0.0825132
0.0825009
0.0824868
0.0824749
0.0824711
0.0824825
0.0825154
0.082571
0.0826397
0.0827026
0.0827472
0.0827792
0.0828212
0.082893
0.0829958
0.0831133
0.0832293
0.0833332
0.0834189
0.0834861
0.083533
0.0835598
0.0835674
0.0835571
0.0835319
0.0834977
0.0834628
0.0834361
0.0834229
0.082609
0.0826076
0.0826043
0.0825989
0.0825915
0.0825835
0.082578
0.0825799
0.0825952
0.0826279
0.0826773
0.0827355
0.0827921
0.0828444
0.0829017
0.0829825
0.0831028
0.0832552
0.0834136
0.083559
0.0836808
0.0837763
0.0838499
0.0839041
0.0839411
0.0839617
0.0839662
0.0839556
0.083933
0.0839047
0.0838795
0.0838655
0.0826673
0.0826662
0.0826638
0.0826603
0.0826564
0.0826534
0.0826537
0.082661
0.0826794
0.0827117
0.0827572
0.0828111
0.082868
0.0829273
0.0829956
0.0830874
0.0832166
0.0833737
0.0835289
0.0836622
0.0837655
0.0838415
0.0838987
0.0839437
0.0839803
0.0840096
0.084031
0.0840432
0.0840459
0.0840409
0.0840322
0.0840258
0.0827181
0.0827168
0.0827144
0.0827117
0.0827096
0.0827098
0.0827145
0.0827263
0.082748
0.0827814
0.0828264
0.08288
0.0829389
0.0830021
0.0830728
0.0831606
0.0832772
0.0834157
0.0835507
0.0836645
0.0837513
0.0838162
0.0838679
0.0839133
0.0839555
0.0839943
0.0840272
0.0840517
0.0840667
0.0840732
0.0840736
0.084072
0.0827717
0.0827698
0.0827667
0.0827636
0.0827624
0.0827648
0.082773
0.082789
0.0828145
0.0828506
0.0828973
0.0829525
0.0830139
0.0830795
0.0831495
0.0832292
0.0833266
0.0834395
0.0835506
0.0836466
0.083723
0.0837838
0.0838357
0.0838843
0.0839323
0.083979
0.084021
0.0840545
0.0840772
0.0840894
0.0840936
0.0840937
0.0828361
0.0828331
0.0828286
0.0828248
0.0828242
0.082829
0.0828411
0.0828618
0.0828921
0.082932
0.0829815
0.0830389
0.0831022
0.0831689
0.0832374
0.0833093
0.0833889
0.0834774
0.0835658
0.0836459
0.0837138
0.0837712
0.0838226
0.083872
0.0839217
0.0839713
0.084018
0.0840575
0.0840862
0.0841031
0.08411
0.084111
0.0829178
0.0829133
0.0829073
0.0829031
0.0829041
0.0829128
0.0829303
0.082957
0.0829926
0.0830366
0.0830887
0.0831473
0.0832107
0.0832765
0.0833421
0.083407
0.0834724
0.0835408
0.0836096
0.0836747
0.0837332
0.0837852
0.0838333
0.0838801
0.0839273
0.0839752
0.0840218
0.0840633
0.0840955
0.0841158
0.084125
0.0841269
0.0830219
0.0830157
0.0830087
0.0830061
0.0830114
0.0830262
0.0830507
0.0830838
0.0831243
0.0831712
0.0832238
0.0832811
0.0833416
0.0834034
0.0834638
0.0835214
0.0835753
0.0836279
0.0836802
0.0837313
0.0837793
0.0838236
0.0838655
0.0839066
0.0839482
0.0839908
0.0840334
0.0840731
0.0841057
0.0841279
0.0841389
0.0841416
0.0831523
0.0831448
0.0831393
0.0831416
0.0831542
0.083177
0.0832083
0.0832463
0.0832891
0.0833357
0.0833855
0.0834378
0.0834919
0.0835462
0.0835987
0.0836476
0.0836911
0.083731
0.0837697
0.0838082
0.0838453
0.0838806
0.0839145
0.0839479
0.0839817
0.0840167
0.0840526
0.0840874
0.0841177
0.0841397
0.0841517
0.0841551
0.0833129
0.0833059
0.0833058
0.0833168
0.0833382
0.0833675
0.0834025
0.083441
0.0834815
0.0835233
0.0835662
0.08361
0.0836543
0.0836982
0.0837403
0.0837791
0.0838125
0.0838416
0.083869
0.0838964
0.0839233
0.0839493
0.0839745
0.0839995
0.0840248
0.0840511
0.0840785
0.0841061
0.0841316
0.0841516
0.0841634
0.0841672
0.0835089
0.083506
0.0835158
0.0835356
0.0835619
0.083592
0.0836243
0.0836573
0.0836903
0.083723
0.0837554
0.0837878
0.0838199
0.0838515
0.0838816
0.0839092
0.0839325
0.0839521
0.0839702
0.0839881
0.0840059
0.0840232
0.08404
0.0840568
0.0840737
0.0840913
0.0841098
0.0841292
0.084148
0.0841638
0.0841741
0.0841779
0.0837485
0.083754
0.0837711
0.0837916
0.0838136
0.0838361
0.0838587
0.0838806
0.0839017
0.0839221
0.0839419
0.0839613
0.0839803
0.0839989
0.0840166
0.0840327
0.0840462
0.0840573
0.0840674
0.0840773
0.0840871
0.0840968
0.0841062
0.0841155
0.0841249
0.0841346
0.0841449
0.0841559
0.084167
0.0841771
0.0841842
0.0841873
0.0840414
0.0840458
0.0840545
0.0840632
0.0840718
0.0840801
0.0840881
0.0840958
0.084103
0.0841098
0.0841164
0.0841227
0.084129
0.084135
0.0841407
0.084146
0.0841503
0.0841539
0.084157
0.0841602
0.0841633
0.0841663
0.0841693
0.0841722
0.0841752
0.0841782
0.0841814
0.0841848
0.0841884
0.0841917
0.0841943
0.0841956
)
;

boundaryField
{
    movingWall
    {
        type            fixedValue;
        value           uniform 0.0842;
    }
    fixedWalls
    {
        type            zeroGradient;
    }
    floor
    {
        type            zeroGradient;
    }
    frontAndBack
    {
        type            empty;
    }
}


// ************************************************************************* //
