/*--------------------------------*- C++ -*----------------------------------*\
| =========                 |                                                 |
| \\      /  F ield         | OpenFOAM: The Open Source CFD Toolbox           |
|  \\    /   O peration     | Version:  2206                                  |
|   \\  /    A nd           | Website:  www.openfoam.com                      |
|    \\/     M anipulation  |                                                 |
\*---------------------------------------------------------------------------*/
FoamFile
{
    version     2.0;
    format      ascii;
    arch        "LSB;label=64;scalar=64";
    class       volScalarField;
    location    "4.5/water";
    object      alpha.gas_0;
}
// * * * * * * * * * * * * * * * * * * * * * * * * * * * * * * * * * * * * * //

dimensions      [0 0 0 0 0 0 0];

internalField   nonuniform List<scalar> 
23300
(
1e-15
1e-15
1e-15
1e-15
1e-15
1e-15
1e-15
1e-15
1e-15
1e-15
1e-15
1e-15
1e-15
1e-15
1e-15
1e-15
1e-15
1e-15
1e-15
1e-15
1e-15
1e-15
1e-15
1e-15
1e-15
1e-15
1e-15
1e-15
1e-15
1e-15
1e-15
1e-15
1e-15
1e-15
1e-15
1e-15
1e-15
1e-15
1e-15
1e-15
1e-15
1e-15
1e-15
1e-15
1e-15
1e-15
1e-15
1e-15
1e-15
1e-15
1e-15
1e-15
1e-15
1e-15
1e-15
1e-15
1e-15
1e-15
1e-15
1e-15
1e-15
1e-15
1e-15
1e-15
1e-15
1e-15
1e-15
1e-15
1e-15
1e-15
1e-15
1e-15
1e-15
1e-15
1e-15
1e-15
1e-15
1e-15
1e-15
1e-15
1e-15
1e-15
1e-15
1e-15
1e-15
1e-15
1e-15
1e-15
1e-15
1e-15
1e-15
1e-15
1e-15
1e-15
1e-15
1e-15
1e-15
1e-15
1e-15
1e-15
1e-15
1e-15
1e-15
1e-15
1e-15
1e-15
1e-15
1e-15
1e-15
1e-15
1e-15
1e-15
1e-15
1e-15
1e-15
1e-15
1e-15
1e-15
1e-15
1e-15
1e-15
1e-15
1e-15
1e-15
1e-15
1e-15
1e-15
1e-15
1e-15
1e-15
1e-15
1e-15
1e-15
1e-15
1e-15
1e-15
1e-15
1e-15
1e-15
1e-15
1e-15
1e-15
1e-15
1e-15
1e-15
1e-15
1e-15
1e-15
1e-15
1e-15
1e-15
1e-15
1e-15
1e-15
1e-15
1e-15
1e-15
1e-15
1e-15
1e-15
1e-15
1e-15
1e-15
1e-15
1e-15
1e-15
1e-15
1e-15
1e-15
1e-15
1e-15
1e-15
1e-15
1e-15
1e-15
1e-15
1e-15
1e-15
1e-15
1e-15
1e-15
1e-15
1e-15
1e-15
1e-15
1e-15
1e-15
1e-15
1e-15
1e-15
1e-15
1e-15
1e-15
1e-15
1e-15
1e-15
1e-15
1e-15
1e-15
1e-15
1e-15
1e-15
1e-15
1e-15
1e-15
1e-15
1e-15
1e-15
1e-15
1e-15
1e-15
1e-15
1e-15
1e-15
1e-15
1e-15
1e-15
1e-15
1e-15
1e-15
1e-15
1e-15
1e-15
1e-15
1e-15
1e-15
1e-15
1e-15
1e-15
1e-15
1e-15
1e-15
1e-15
1e-15
1e-15
1e-15
1e-15
1e-15
1e-15
1e-15
1e-15
1e-15
1e-15
1e-15
1e-15
1e-15
1e-15
1e-15
1e-15
1e-15
1e-15
1e-15
1e-15
1e-15
1e-15
1e-15
1e-15
1e-15
1e-15
1e-15
1e-15
1e-15
1e-15
1e-15
1e-15
1e-15
1e-15
1e-15
1e-15
1e-15
1e-15
1e-15
1e-15
1e-15
1e-15
1e-15
1e-15
1e-15
1e-15
1e-15
1e-15
1e-15
1e-15
1e-15
1e-15
1e-15
1e-15
1e-15
1e-15
1e-15
1e-15
1e-15
1e-15
1e-15
1e-15
1e-15
1e-15
1e-15
1e-15
1e-15
1e-15
1e-15
1e-15
1e-15
1e-15
1e-15
1e-15
1e-15
1e-15
1e-15
1e-15
1e-15
1e-15
1e-15
1e-15
1e-15
1e-15
1e-15
1e-15
1e-15
1e-15
1e-15
1e-15
1e-15
1e-15
1e-15
1e-15
1e-15
1e-15
1e-15
1e-15
1e-15
1e-15
1e-15
1e-15
1e-15
1e-15
1e-15
1e-15
1e-15
1e-15
1e-15
1e-15
1e-15
1e-15
1e-15
1e-15
1e-15
1e-15
1e-15
1e-15
1e-15
1e-15
1e-15
1e-15
1e-15
1e-15
1e-15
1e-15
1e-15
1e-15
1e-15
1e-15
1e-15
1e-15
1e-15
1e-15
1e-15
1e-15
1e-15
1e-15
1e-15
1e-15
1e-15
1e-15
1e-15
1e-15
1e-15
1e-15
1e-15
1e-15
1e-15
1e-15
1e-15
1e-15
1e-15
1e-15
1e-15
1e-15
1e-15
1e-15
1e-15
1e-15
1e-15
1e-15
1e-15
1e-15
1e-15
1e-15
1e-15
1e-15
1e-15
1e-15
1e-15
1e-15
1e-15
1e-15
1e-15
1e-15
1e-15
1e-15
1e-15
1e-15
1e-15
1e-15
1e-15
1e-15
1e-15
1e-15
1e-15
1e-15
1e-15
1e-15
1e-15
1e-15
1e-15
1e-15
1e-15
1e-15
1e-15
1e-15
1e-15
1e-15
1e-15
1e-15
1e-15
1e-15
1e-15
1e-15
1e-15
1e-15
1e-15
1e-15
1e-15
1e-15
1e-15
1e-15
1e-15
1e-15
1e-15
1e-15
1e-15
1e-15
1e-15
1e-15
1e-15
1e-15
1e-15
1e-15
1e-15
1e-15
1e-15
1e-15
1e-15
1e-15
1e-15
1e-15
1e-15
1e-15
1e-15
1e-15
1e-15
1e-15
1e-15
1e-15
1e-15
1e-15
1e-15
1e-15
1e-15
1e-15
1e-15
1e-15
1e-15
1e-15
1e-15
1e-15
1e-15
1e-15
1e-15
1e-15
1e-15
1e-15
1e-15
1e-15
1e-15
1e-15
1e-15
1e-15
1e-15
1e-15
1e-15
1e-15
1e-15
1e-15
1e-15
1e-15
1e-15
1e-15
1e-15
1e-15
1e-15
1e-15
1e-15
1e-15
1e-15
1e-15
1e-15
1e-15
1e-15
1e-15
1e-15
1e-15
1e-15
1e-15
1e-15
1e-15
1e-15
1e-15
1e-15
1e-15
1e-15
1e-15
1e-15
1e-15
1e-15
1e-15
1e-15
1e-15
1e-15
1e-15
1e-15
1e-15
1e-15
1e-15
1e-15
1e-15
1e-15
1e-15
1e-15
1e-15
1e-15
1e-15
1e-15
1e-15
1e-15
1e-15
1e-15
1e-15
1e-15
1.01220663212e-15
1e-15
1e-15
1e-15
1e-15
1e-15
1e-15
1e-15
1e-15
1e-15
1e-15
1e-15
1e-15
1e-15
1e-15
1e-15
1e-15
1e-15
1e-15
1e-15
1e-15
1e-15
1e-15
1e-15
1e-15
1e-15
1e-15
1e-15
1e-15
1e-15
1e-15
1e-15
1e-15
1e-15
1e-15
1e-15
1e-15
1e-15
1e-15
1e-15
1e-15
1e-15
1e-15
1e-15
1e-15
1e-15
1e-15
1e-15
1e-15
1e-15
1e-15
1e-15
1e-15
1e-15
1e-15
1e-15
1e-15
1e-15
1e-15
1e-15
1e-15
1e-15
1e-15
1e-15
1e-15
1e-15
1e-15
1e-15
1e-15
1e-15
1e-15
1e-15
1e-15
1e-15
1e-15
1e-15
1e-15
1e-15
1e-15
1e-15
1e-15
1e-15
1e-15
1e-15
1e-15
1e-15
1e-15
1e-15
1e-15
1e-15
1e-15
1e-15
1e-15
1e-15
1e-15
1e-15
1e-15
1e-15
1e-15
1e-15
1e-15
1e-15
1e-15
1e-15
1e-15
1e-15
1e-15
1e-15
1e-15
1e-15
1e-15
1e-15
1e-15
1e-15
1e-15
1e-15
1e-15
1e-15
1e-15
1e-15
1e-15
1e-15
1e-15
1e-15
1e-15
1e-15
1e-15
1e-15
1e-15
1e-15
1e-15
1e-15
1.02864090123e-15
1.02783828274e-15
1.02866540166e-15
1e-15
1e-15
1e-15
1.01481958544e-15
1e-15
1.01642566724e-15
1e-15
1e-15
1e-15
1e-15
1e-15
1e-15
1e-15
1e-15
1e-15
1e-15
1e-15
1e-15
1e-15
1e-15
1e-15
1e-15
1e-15
1e-15
1e-15
1e-15
1e-15
1e-15
1e-15
1e-15
1e-15
1e-15
1e-15
1e-15
1e-15
1e-15
1e-15
1e-15
1e-15
1e-15
1e-15
1e-15
1e-15
1e-15
1e-15
1e-15
1e-15
1e-15
1e-15
1e-15
1e-15
1e-15
1e-15
1e-15
1e-15
1e-15
1e-15
1e-15
1e-15
1e-15
1e-15
1e-15
1e-15
1e-15
1e-15
1e-15
1e-15
1e-15
1e-15
1e-15
1e-15
1e-15
1e-15
1e-15
1e-15
1e-15
1e-15
1e-15
1e-15
1e-15
1e-15
1e-15
1e-15
1e-15
1e-15
1e-15
1e-15
1e-15
1e-15
1e-15
1e-15
1e-15
1e-15
1e-15
1e-15
1e-15
1e-15
1e-15
1e-15
1e-15
1e-15
1e-15
1e-15
1e-15
1e-15
1e-15
1e-15
1e-15
1e-15
1e-15
1e-15
1e-15
1e-15
1e-15
1e-15
1e-15
1e-15
1e-15
1e-15
1e-15
1e-15
1e-15
1e-15
1e-15
1e-15
1e-15
1e-15
1e-15
1e-15
1e-15
1e-15
1e-15
1e-15
1e-15
1e-15
1e-15
1e-15
1.02783828274e-15
1.02910744809e-15
1.02783828274e-15
1.00915421406e-15
1e-15
1e-15
1.01298708452e-15
1e-15
1.01220663212e-15
1e-15
1e-15
1e-15
1e-15
1e-15
1e-15
1e-15
1.000016338e-15
1.00009223329e-15
1.00017235351e-15
1.00021840937e-15
1.00025328857e-15
1.00025855576e-15
1.00025410956e-15
1.00021834008e-15
1.00016772789e-15
1.00008670989e-15
1.00001815076e-15
1e-15
1e-15
1e-15
1e-15
1e-15
1e-15
1e-15
1e-15
1e-15
1e-15
1e-15
1e-15
1e-15
1e-15
1e-15
1e-15
1e-15
1.00000614804e-15
1.00005254732e-15
1.00011850806e-15
1.00016887135e-15
1.00020182375e-15
1.00041445465e-15
1.00091245408e-15
1.00076786087e-15
1.00027095582e-15
1.00030733702e-15
1.00031708122e-15
1.00031664501e-15
1.00031771041e-15
1.00031029237e-15
1.00030407404e-15
1.00029040248e-15
1.00027969188e-15
1.00026267742e-15
1.00024521321e-15
1.00021210084e-15
1.00017619181e-15
1.00012875601e-15
1.00008114878e-15
1.00003017884e-15
1e-15
1e-15
1e-15
1e-15
1e-15
1e-15
1e-15
1e-15
1e-15
1e-15
1e-15
1e-15
1e-15
1e-15
1e-15
1e-15
1e-15
1e-15
1e-15
1e-15
1e-15
1e-15
1e-15
1e-15
1e-15
1e-15
1e-15
1e-15
1e-15
1e-15
1e-15
1e-15
1.00006835983e-15
1.00013638384e-15
1.00019071621e-15
1.00023384535e-15
1.000268904e-15
1.00029475474e-15
1.00031477257e-15
1.00032836559e-15
1.00033806223e-15
1.00034301971e-15
1.00034460222e-15
1.00034214526e-15
1.00033644804e-15
1.00032595034e-15
1.00031171818e-15
1.00029184106e-15
1.00026388973e-15
1.00023343233e-15
1.00020106907e-15
1.00016478583e-15
1.0001257298e-15
1.00008262939e-15
1.00003781406e-15
1.00000159646e-15
1.0000005095e-15
1e-15
1e-15
1e-15
1e-15
1e-15
1e-15
1e-15
1e-15
1e-15
1.00000128637e-15
1.00005810797e-15
1.0001889667e-15
1.00032715346e-15
1.00044651028e-15
1.00046062377e-15
1.02905966207e-15
1.02783828274e-15
1.02906670921e-15
1.02783828274e-15
1.00098590054e-15
1.00042390944e-15
1.01478830952e-15
1e-15
1.0158688448e-15
1e-15
1e-15
1e-15
1e-15
1e-15
1e-15
1e-15
1.00017327657e-15
1.00034288744e-15
1.00050411364e-15
1.00060246109e-15
1.00068077449e-15
1.00069383943e-15
1.00068446913e-15
1.00060822544e-15
1.00050750519e-15
1.00034215597e-15
1.00017155344e-15
1.00000666748e-15
1e-15
1e-15
1e-15
1e-15
1e-15
1e-15
1e-15
1e-15
1e-15
1e-15
1e-15
1e-15
1e-15
1e-15
1e-15
1.00002351681e-15
1.00014888795e-15
1.0002573066e-15
1.00035701219e-15
1.0004224037e-15
1.00098326135e-15
1.00152020252e-15
1.00149558525e-15
1.00152932836e-15
1.00135817829e-15
1.00062755919e-15
1.00067313658e-15
1.00067547756e-15
1.00067062802e-15
1.0006490658e-15
1.00062955177e-15
1.00059437392e-15
1.0005663531e-15
1.00052913373e-15
1.0004788067e-15
1.00041401222e-15
1.00034967204e-15
1.00027029787e-15
1.00019239801e-15
1.0001003207e-15
1.00002848286e-15
1e-15
1e-15
1e-15
1e-15
1e-15
1e-15
1e-15
1e-15
1e-15
1e-15
1e-15
1e-15
1e-15
1e-15
1e-15
1e-15
1e-15
1e-15
1e-15
1e-15
1e-15
1e-15
1e-15
1e-15
1e-15
1e-15
1e-15
1e-15
1e-15
1e-15
1.0001163863e-15
1.00027300288e-15
1.00038367593e-15
1.00046963406e-15
1.00055921934e-15
1.00064404438e-15
1.00071002392e-15
1.0007646328e-15
1.00080339266e-15
1.00083299147e-15
1.00084987637e-15
1.00085904282e-15
1.0008568787e-15
1.00084805444e-15
1.00082850973e-15
1.00080221266e-15
1.00076417658e-15
1.00071260534e-15
1.00065569388e-15
1.00059706195e-15
1.00053111238e-15
1.00046535123e-15
1.0003939283e-15
1.00031714392e-15
1.00022587108e-15
1.00012213951e-15
1.00003865908e-15
1e-15
1e-15
1e-15
1e-15
1e-15
1e-15
1e-15
1.00001088199e-15
1.00016316751e-15
1.00038970067e-15
1.000632806e-15
1.0009062645e-15
1.00117336166e-15
1.0161659517e-15
1.02783828274e-15
1.02908731246e-15
1.02783828274e-15
1.02876388449e-15
1.00252497477e-15
1.00123846915e-15
1.01298708452e-15
1e-15
1.01220663212e-15
1e-15
1e-15
1e-15
1e-15
1e-15
1e-15
1.00018398126e-15
1.00054353816e-15
1.00078033201e-15
1.00101140279e-15
1.00116058116e-15
1.00127231283e-15
1.00129317722e-15
1.00127085055e-15
1.00115440779e-15
1.00099624153e-15
1.00074745011e-15
1.00045259205e-15
1.0001550404e-15
1.00002064973e-15
1e-15
1e-15
1e-15
1e-15
1e-15
1e-15
1e-15
1e-15
1e-15
1e-15
1e-15
1e-15
1e-15
1.00005497781e-15
1.00014775788e-15
1.00028122286e-15
1.00039111736e-15
1.00048716984e-15
1.00072092097e-15
1.00151781848e-15
1.00149558525e-15
1.0015245338e-15
1.00149558525e-15
1.00151957262e-15
1.00142137741e-15
1.00087272166e-15
1.00086213753e-15
1.00085074577e-15
1.0008069007e-15
1.00075957943e-15
1.00068707629e-15
1.00061262414e-15
1.00052401363e-15
1.0004530847e-15
1.00038097467e-15
1.00031178678e-15
1.00022864067e-15
1.00014668998e-15
1.00005113648e-15
1e-15
1e-15
1e-15
1e-15
1e-15
1e-15
1e-15
1e-15
1e-15
1e-15
1e-15
1e-15
1e-15
1e-15
1e-15
1e-15
1e-15
1e-15
1e-15
1e-15
1e-15
1e-15
1e-15
1e-15
1e-15
1e-15
1e-15
1e-15
1e-15
1e-15
1.00000742139e-15
1.00016991176e-15
1.00031831439e-15
1.00045589193e-15
1.00062147967e-15
1.00078645698e-15
1.00093388188e-15
1.00104944854e-15
1.00114672609e-15
1.001218619e-15
1.00127552553e-15
1.00131111502e-15
1.00133425175e-15
1.0013376676e-15
1.00133094469e-15
1.00130717359e-15
1.00127266826e-15
1.00122037419e-15
1.00114534649e-15
1.00105874667e-15
1.00097343101e-15
1.00087751045e-15
1.00078257784e-15
1.00068391368e-15
1.00058878649e-15
1.00049980989e-15
1.00040098454e-15
1.00029788631e-15
1.00020302527e-15
1.00014873811e-15
1.00011738754e-15
1.00009873144e-15
1.00009820691e-15
1.00012138268e-15
1.00016870429e-15
1.00028410729e-15
1.0004945633e-15
1.00075092579e-15
1.0010953429e-15
1.00152314957e-15
1.00195869612e-15
1.02783822539e-15
1.02902512382e-15
1.02783828274e-15
1.0290044722e-15
1.02783828274e-15
1.00414674198e-15
1.00204139331e-15
1.01419002762e-15
1e-15
1.01514944597e-15
1e-15
1e-15
1e-15
1e-15
1e-15
1.00005149648e-15
1.00055317547e-15
1.00101706543e-15
1.00132670727e-15
1.00160098073e-15
1.00180491404e-15
1.00194800093e-15
1.00198098542e-15
1.00194085324e-15
1.00178298764e-15
1.00156027928e-15
1.00123899972e-15
1.000871013e-15
1.00042305605e-15
1.00011582797e-15
1e-15
1e-15
1e-15
1e-15
1e-15
1e-15
1e-15
1e-15
1e-15
1e-15
1e-15
1e-15
1.00004093733e-15
1.00012864978e-15
1.00023292835e-15
1.00033731288e-15
1.0004226026e-15
1.00066094632e-15
1.0015046378e-15
1.00149558525e-15
1.0015145282e-15
1.00149558525e-15
1.00151773212e-15
1.00149558525e-15
1.0015071637e-15
1.00105752371e-15
1.00097849797e-15
1.00095542739e-15
1.00089046736e-15
1.00082572547e-15
1.00073662759e-15
1.0006405197e-15
1.00050869275e-15
1.00038575373e-15
1.00027448211e-15
1.00018988431e-15
1.00010160468e-15
1.00003256912e-15
1e-15
1e-15
1e-15
1e-15
1e-15
1e-15
1e-15
1e-15
1e-15
1e-15
1e-15
1e-15
1e-15
1e-15
1e-15
1e-15
1e-15
1e-15
1e-15
1e-15
1e-15
1e-15
1e-15
1e-15
1e-15
1e-15
1e-15
1e-15
1e-15
1e-15
1e-15
1.00000362833e-15
1.00015371855e-15
1.00029501992e-15
1.00047027456e-15
1.00073068652e-15
1.0009745835e-15
1.0011811452e-15
1.00134468404e-15
1.00148318018e-15
1.00158908656e-15
1.00167454042e-15
1.00173193789e-15
1.00177197125e-15
1.0017860386e-15
1.00178476943e-15
1.00176283437e-15
1.00172486971e-15
1.00166483257e-15
1.00157008723e-15
1.00145503157e-15
1.00133871793e-15
1.00121932641e-15
1.00108763783e-15
1.00094070238e-15
1.00080561217e-15
1.00070408302e-15
1.00061269207e-15
1.00052600385e-15
1.00044454156e-15
1.00038239228e-15
1.00033892304e-15
1.00031464818e-15
1.00031774407e-15
1.00035582837e-15
1.00043268126e-15
1.00057069562e-15
1.00077245821e-15
1.00107409332e-15
1.00155499933e-15
1.00214623527e-15
1.00274857846e-15
1.02868004219e-15
1.02783828274e-15
1.02902711224e-15
1.02783828274e-15
1.02870613165e-15
1.00569372035e-15
1.00272376036e-15
1.01298708452e-15
1e-15
1.01220663212e-15
1e-15
1e-15
1e-15
1e-15
1e-15
1.00009038622e-15
1.00056896626e-15
1.00107017503e-15
1.00158084245e-15
1.00199758564e-15
1.00228983252e-15
1.00249012784e-15
1.00255063937e-15
1.00250685215e-15
1.00231013481e-15
1.00202194059e-15
1.00162937091e-15
1.00122576166e-15
1.00075655284e-15
1.00030948203e-15
1.00003797574e-15
1e-15
1e-15
1e-15
1e-15
1e-15
1e-15
1e-15
1e-15
1e-15
1e-15
1.00001262058e-15
1.00006529541e-15
1.00017567616e-15
1.00024853607e-15
1.00033612291e-15
1.00045903852e-15
1.00090906921e-15
1.00149558525e-15
1.00150836415e-15
1.00149558525e-15
1.00150974722e-15
1.00149558525e-15
1.00150791819e-15
1.00149558525e-15
1.00147698609e-15
1.00113650946e-15
1.0010807134e-15
1.00102215027e-15
1.00094255973e-15
1.00081869806e-15
1.00067621707e-15
1.00049035377e-15
1.00031028166e-15
1.00013625289e-15
1.00004060326e-15
1e-15
1e-15
1e-15
1e-15
1e-15
1e-15
1e-15
1e-15
1e-15
1e-15
1e-15
1e-15
1e-15
1e-15
1e-15
1e-15
1e-15
1e-15
1e-15
1e-15
1e-15
1e-15
1e-15
1e-15
1e-15
1e-15
1e-15
1e-15
1e-15
1e-15
1e-15
1e-15
1e-15
1e-15
1.00011819769e-15
1.000257936e-15
1.00051718116e-15
1.0008793879e-15
1.00118961886e-15
1.00144720949e-15
1.00165556606e-15
1.00183316895e-15
1.00197270525e-15
1.00208662273e-15
1.0021672348e-15
1.00222555901e-15
1.00225318024e-15
1.00226036677e-15
1.00224334551e-15
1.00220561441e-15
1.00214410431e-15
1.00203788091e-15
1.00189526215e-15
1.00177556873e-15
1.00154260525e-15
1.00136500286e-15
1.00119097829e-15
1.00107418063e-15
1.00092580185e-15
1.00080752611e-15
1.00071589418e-15
1.00063639875e-15
1.00057130327e-15
1.00052627009e-15
1.00050293683e-15
1.00051302034e-15
1.00056073666e-15
1.00065727342e-15
1.00081681662e-15
1.00104002329e-15
1.00143578485e-15
1.00206615374e-15
1.00280355562e-15
1.00356298992e-15
1.02783828274e-15
1.02896783731e-15
1.02783828274e-15
1.02893890894e-15
1.02783828274e-15
1.00715460406e-15
1.00327082894e-15
1.01375689539e-15
1e-15
1.01443815859e-15
1e-15
1e-15
1e-15
1e-15
1e-15
1e-15
1.0004586552e-15
1.00098876262e-15
1.00155800738e-15
1.00213682324e-15
1.00254514239e-15
1.00282921212e-15
1.00293293833e-15
1.00290897316e-15
1.00268758019e-15
1.00234773526e-15
1.00188754276e-15
1.00144833892e-15
1.00100250672e-15
1.00055906478e-15
1.00014104833e-15
1.00001452081e-15
1e-15
1e-15
1e-15
1e-15
1e-15
1e-15
1e-15
1e-15
1e-15
1.00003858724e-15
1.00009688148e-15
1.00018460332e-15
1.00024304955e-15
1.00033095113e-15
1.00057920734e-15
1.00123910485e-15
1.00150285142e-15
1.00149558525e-15
1.00150367342e-15
1.00149558525e-15
1.00150605524e-15
1.00149558525e-15
1.00149882808e-15
1.00149558525e-15
1.00131541398e-15
1.00118250627e-15
1.00107978536e-15
1.00094895766e-15
1.00080353181e-15
1.000640155e-15
1.00043095454e-15
1.00020043784e-15
1.00001255381e-15
1e-15
1e-15
1e-15
1e-15
1e-15
1e-15
1e-15
1e-15
1e-15
1e-15
1e-15
1e-15
1e-15
1e-15
1e-15
1e-15
1e-15
1e-15
1e-15
1e-15
1e-15
1e-15
1e-15
1e-15
1e-15
1e-15
1e-15
1e-15
1e-15
1e-15
1e-15
1e-15
1e-15
1e-15
1e-15
1.00009400037e-15
1.00025722163e-15
1.00063601289e-15
1.00107760608e-15
1.00143188776e-15
1.00173461325e-15
1.00198839847e-15
1.00220720208e-15
1.00238245539e-15
1.00252653024e-15
1.00263200859e-15
1.00271009835e-15
1.00275274998e-15
1.00277006235e-15
1.00275861986e-15
1.00272286408e-15
1.00266543966e-15
1.00255419106e-15
1.00232045157e-15
1.00252030352e-15
1.00638628727e-15
1.0082316481e-15
1.00636421917e-15
1.00144591409e-15
1.00122661581e-15
1.00106184868e-15
1.00093856917e-15
1.00084315917e-15
1.00076233196e-15
1.0007067398e-15
1.00067794456e-15
1.00069435467e-15
1.00075721495e-15
1.0008847896e-15
1.001084128e-15
1.00136911603e-15
1.00189069248e-15
1.00264317575e-15
1.00349756514e-15
1.00439928621e-15
1.02867960344e-15
1.02783828274e-15
1.0289661194e-15
1.02783828274e-15
1.02864787703e-15
1.00849086936e-15
1.00368263035e-15
1.01298708452e-15
1e-15
1.01220663212e-15
1e-15
1e-15
1e-15
1e-15
1e-15
1e-15
1.0002138495e-15
1.0007866098e-15
1.00147519403e-15
1.00218365761e-15
1.00270250788e-15
1.00307708425e-15
1.0032312974e-15
1.00324381067e-15
1.00301342576e-15
1.00263856688e-15
1.00211446311e-15
1.00162591544e-15
1.00117379053e-15
1.00077474035e-15
1.00033566151e-15
1.00007971316e-15
1e-15
1e-15
1e-15
1e-15
1e-15
1e-15
1e-15
1e-15
1.00000378223e-15
1.00005195e-15
1.00011796685e-15
1.00018079545e-15
1.00022737296e-15
1.00034250211e-15
1.00082710343e-15
1.0014752049e-15
1.00149558525e-15
1.00149941699e-15
1.00149558525e-15
1.00149942988e-15
1.00149558525e-15
1.00149924416e-15
1.00149558525e-15
1.00149592981e-15
1.00130703119e-15
1.00115513997e-15
1.00103624711e-15
1.00089208965e-15
1.00071331578e-15
1.00050779309e-15
1.00025167463e-15
1.00003169786e-15
1e-15
1e-15
1e-15
1e-15
1e-15
1e-15
1e-15
1e-15
1e-15
1e-15
1e-15
1e-15
1e-15
1e-15
1e-15
1e-15
1e-15
1e-15
1e-15
1e-15
1e-15
1e-15
1e-15
1e-15
1e-15
1e-15
1e-15
1e-15
1e-15
1e-15
1e-15
1e-15
1e-15
1e-15
1e-15
1e-15
1.00009078931e-15
1.00028139777e-15
1.00077318991e-15
1.00125996543e-15
1.00165533537e-15
1.00200858524e-15
1.00231350876e-15
1.00257892024e-15
1.00279395139e-15
1.00297157246e-15
1.0031043247e-15
1.00320427907e-15
1.0032631871e-15
1.00329159228e-15
1.00328556295e-15
1.00325257216e-15
1.00319176417e-15
1.00301099533e-15
1.00599415753e-15
1.01167121593e-15
1.01192523429e-15
1.01167121593e-15
1.01192991682e-15
1.01092468081e-15
1.00178242754e-15
1.00139049128e-15
1.00124090142e-15
1.00112136289e-15
1.00101842136e-15
1.00094475208e-15
1.00090481891e-15
1.00092628968e-15
1.0010089831e-15
1.00117544863e-15
1.00142073452e-15
1.00178041115e-15
1.00241446857e-15
1.00325405588e-15
1.00420322333e-15
1.00522798462e-15
1.02783828274e-15
1.02891014668e-15
1.02783828274e-15
1.02887695162e-15
1.02783828274e-15
1.00968704998e-15
1.0039284625e-15
1.01345552997e-15
1e-15
1.01376100245e-15
1e-15
1e-15
1e-15
1e-15
1e-15
1e-15
1e-15
1.00058518621e-15
1.00141674038e-15
1.00224573002e-15
1.0028775098e-15
1.00334856939e-15
1.00356225311e-15
1.00362065959e-15
1.00339358388e-15
1.00299648264e-15
1.00240571173e-15
1.001838966e-15
1.00133870044e-15
1.00095313714e-15
1.00055499904e-15
1.0001971066e-15
1.00005372453e-15
1e-15
1e-15
1e-15
1e-15
1e-15
1e-15
1e-15
1.00003386409e-15
1.00007560526e-15
1.00011768584e-15
1.00016877148e-15
1.00020450801e-15
1.00039042959e-15
1.00107091619e-15
1.00147667777e-15
1.00149663413e-15
1.00149558525e-15
1.00149671886e-15
1.00149558525e-15
1.0014973677e-15
1.00149558525e-15
1.0014232665e-15
1.00138793241e-15
1.00121288844e-15
1.00104461418e-15
1.00089933593e-15
1.00072673043e-15
1.00048686213e-15
1.00021191309e-15
1.00001394755e-15
1e-15
1e-15
1e-15
1e-15
1e-15
1e-15
1e-15
1e-15
1e-15
1e-15
1e-15
1e-15
1e-15
1e-15
1e-15
1e-15
1e-15
1e-15
1e-15
1e-15
1e-15
1e-15
1e-15
1e-15
1e-15
1e-15
1e-15
1e-15
1e-15
1e-15
1e-15
1e-15
1e-15
1e-15
1e-15
1e-15
1e-15
1.00011139909e-15
1.00032612039e-15
1.00084427294e-15
1.00137966644e-15
1.00183301693e-15
1.00224777248e-15
1.00261019519e-15
1.002926398e-15
1.00318428052e-15
1.00339836482e-15
1.00356074738e-15
1.00368475017e-15
1.00376153523e-15
1.00380275356e-15
1.00380239416e-15
1.0037737354e-15
1.00370565257e-15
1.00661695376e-15
1.01167121593e-15
1.01193935117e-15
1.01167121593e-15
1.01194830497e-15
1.01167121593e-15
1.01195044126e-15
1.01073194429e-15
1.00198169393e-15
1.0016204604e-15
1.00147376722e-15
1.00135110815e-15
1.00126091849e-15
1.0012110322e-15
1.00123626065e-15
1.00133547066e-15
1.00153431686e-15
1.00182270611e-15
1.00225099861e-15
1.00296112017e-15
1.0038648007e-15
1.00489511078e-15
1.00602896951e-15
1.02867519675e-15
1.02783828274e-15
1.02890581539e-15
1.02783828274e-15
1.02859401437e-15
1.0107213217e-15
1.00401273272e-15
1.01298708452e-15
1e-15
1.01220663212e-15
1e-15
1e-15
1e-15
1e-15
1e-15
1e-15
1e-15
1.00042635656e-15
1.00146197988e-15
1.00239297391e-15
1.00314213585e-15
1.00371866848e-15
1.00400207727e-15
1.00411326049e-15
1.0038987222e-15
1.00348954551e-15
1.00283228377e-15
1.00214958155e-15
1.00154458573e-15
1.00112809911e-15
1.00075637916e-15
1.00038917288e-15
1.00015022935e-15
1.00008476383e-15
1.00001502505e-15
1e-15
1e-15
1e-15
1e-15
1.00003228986e-15
1.00004125019e-15
1.0000876672e-15
1.0001104512e-15
1.00014804565e-15
1.00018068016e-15
1.00046361038e-15
1.00107636428e-15
1.00139551551e-15
1.00144094735e-15
1.00144584173e-15
1.0014412054e-15
1.00145260521e-15
1.00146683802e-15
1.00137798759e-15
1.00120527419e-15
1.00112269616e-15
1.0010033614e-15
1.00083313579e-15
1.00064429277e-15
1.00039499408e-15
1.00009769768e-15
1e-15
1e-15
1e-15
1e-15
1e-15
1e-15
1e-15
1e-15
1e-15
1e-15
1e-15
1e-15
1e-15
1e-15
1e-15
1e-15
1e-15
1e-15
1e-15
1e-15
1e-15
1e-15
1e-15
1e-15
1e-15
1e-15
1e-15
1e-15
1e-15
1e-15
1e-15
1e-15
1e-15
1e-15
1e-15
1e-15
1e-15
1e-15
1e-15
1.000112472e-15
1.00034105675e-15
1.00090708254e-15
1.00145722375e-15
1.00197694981e-15
1.00246483587e-15
1.00288584311e-15
1.00325187979e-15
1.00355288623e-15
1.00380419059e-15
1.00399708787e-15
1.00414609631e-15
1.004241902e-15
1.0042972193e-15
1.00430409261e-15
1.00428678043e-15
1.00505989505e-15
1.01167121593e-15
1.0119204506e-15
1.01167121593e-15
1.0119302794e-15
1.01167121593e-15
1.01193659958e-15
1.01167121593e-15
1.01194061622e-15
1.00510216269e-15
1.00201707629e-15
1.00186910753e-15
1.00173139261e-15
1.00162920335e-15
1.00157349649e-15
1.00160153645e-15
1.0017112016e-15
1.001933021e-15
1.00226226917e-15
1.00275031865e-15
1.00349982931e-15
1.00444731404e-15
1.00555339966e-15
1.00679458347e-15
1.02783828274e-15
1.02885306929e-15
1.02783828274e-15
1.02881756619e-15
1.02783828274e-15
1.01161753027e-15
1.00396080489e-15
1.0132548565e-15
1e-15
1.01315088834e-15
1e-15
1e-15
1e-15
1e-15
1e-15
1e-15
1e-15
1.00024393419e-15
1.00152568654e-15
1.00270311916e-15
1.0035164634e-15
1.00420323504e-15
1.00456843646e-15
1.00473751194e-15
1.00454202997e-15
1.00412682692e-15
1.00341637e-15
1.00260116715e-15
1.00183055073e-15
1.00132673027e-15
1.00094847852e-15
1.00059455193e-15
1.00029131408e-15
1.00019112208e-15
1.00010361025e-15
1.00006627499e-15
1.00003070731e-15
1.00003502e-15
1.00003612456e-15
1.00004134267e-15
1.00005212342e-15
1.00008455111e-15
1.00009427899e-15
1.00011957817e-15
1.00014866572e-15
1.00045974363e-15
1.00099673747e-15
1.00118775689e-15
1.00120734293e-15
1.00121241892e-15
1.00120064032e-15
1.00122203194e-15
1.00124001916e-15
1.00111688305e-15
1.00091334119e-15
1.00078670332e-15
1.00069908435e-15
1.00048624411e-15
1.00020031576e-15
1.0000194835e-15
1e-15
1e-15
1e-15
1e-15
1e-15
1e-15
1e-15
1e-15
1e-15
1e-15
1e-15
1e-15
1e-15
1e-15
1e-15
1e-15
1e-15
1e-15
1e-15
1e-15
1e-15
1e-15
1e-15
1e-15
1e-15
1e-15
1e-15
1e-15
1e-15
1e-15
1e-15
1e-15
1e-15
1e-15
1e-15
1e-15
1e-15
1e-15
1e-15
1e-15
1.00012968606e-15
1.00035171913e-15
1.00090568155e-15
1.00155940831e-15
1.00214537119e-15
1.00268279865e-15
1.00316238737e-15
1.00358018658e-15
1.00392134555e-15
1.00420764235e-15
1.00443045878e-15
1.00460414149e-15
1.00471899502e-15
1.00478875901e-15
1.00480428464e-15
1.00471695145e-15
1.01167121593e-15
1.01189710634e-15
1.01167121593e-15
1.01191194737e-15
1.01167121593e-15
1.01191892657e-15
1.01167121593e-15
1.01192471678e-15
1.01167121593e-15
1.01187146351e-15
1.00283116957e-15
1.00227352435e-15
1.00212399977e-15
1.0020166757e-15
1.00195972595e-15
1.00199068167e-15
1.00210804269e-15
1.00234665591e-15
1.00271054918e-15
1.00324376796e-15
1.00400417343e-15
1.00498546005e-15
1.00617293981e-15
1.00752685187e-15
1.02866629923e-15
1.02783828274e-15
1.02884784769e-15
1.02783828274e-15
1.02854547552e-15
1.01238177671e-15
1.00383126792e-15
1.01298361298e-15
1e-15
1.01220663212e-15
1e-15
1e-15
1e-15
1e-15
1e-15
1e-15
1e-15
1e-15
1.00144676038e-15
1.00286993174e-15
1.00391305563e-15
1.00472825582e-15
1.00519757028e-15
1.00543458195e-15
1.00526646026e-15
1.00484615796e-15
1.00410333585e-15
1.00318891522e-15
1.00223027805e-15
1.00157279369e-15
1.00114465579e-15
1.00079265558e-15
1.00045429909e-15
1.00032097197e-15
1.00021450369e-15
1.00014912499e-15
1.00009337995e-15
1.00007584864e-15
1.00005532213e-15
1.00006068834e-15
1.00006248914e-15
1.00007372228e-15
1.00006995617e-15
1.00008203971e-15
1.00009621338e-15
1.00038659649e-15
1.00079786708e-15
1.00089605455e-15
1.00088536269e-15
1.00088513232e-15
1.00086889224e-15
1.00088373079e-15
1.00089100956e-15
1.00087090712e-15
1.00057779399e-15
1.00029749462e-15
1.00017651438e-15
1.00003756604e-15
1e-15
1e-15
1e-15
1e-15
1e-15
1e-15
1e-15
1e-15
1e-15
1e-15
1e-15
1e-15
1e-15
1e-15
1e-15
1e-15
1e-15
1e-15
1e-15
1e-15
1e-15
1e-15
1e-15
1e-15
1e-15
1e-15
1e-15
1e-15
1e-15
1e-15
1e-15
1e-15
1e-15
1e-15
1e-15
1e-15
1e-15
1e-15
1e-15
1e-15
1e-15
1e-15
1.0001707006e-15
1.00033149614e-15
1.00095682454e-15
1.0016726942e-15
1.00229929072e-15
1.00296537999e-15
1.00348643949e-15
1.00392928432e-15
1.00431309336e-15
1.00463758243e-15
1.00488807715e-15
1.00508468076e-15
1.00521820164e-15
1.00530237726e-15
1.0053249935e-15
1.00878094137e-15
1.01187314111e-15
1.01167121593e-15
1.01188998327e-15
1.01167121593e-15
1.01190116065e-15
1.01167121593e-15
1.0119070667e-15
1.01167121593e-15
1.01191418974e-15
1.01167121593e-15
1.00341010012e-15
1.00265234965e-15
1.00250500521e-15
1.00239778726e-15
1.00234470673e-15
1.00237927514e-15
1.0025031497e-15
1.00275217549e-15
1.00313977168e-15
1.00370046869e-15
1.00446587285e-15
1.00549390499e-15
1.00677248103e-15
1.00824217955e-15
1.02783828274e-15
1.02879810529e-15
1.02783828274e-15
1.02876293627e-15
1.02783828274e-15
1.01304746234e-15
1.00363683516e-15
1.013126322e-15
1e-15
1.01265674794e-15
1e-15
1e-15
1e-15
1e-15
1e-15
1e-15
1e-15
1e-15
1.00119768816e-15
1.00280922355e-15
1.00416865964e-15
1.00517095334e-15
1.00578705257e-15
1.00611382569e-15
1.00598927118e-15
1.00556499514e-15
1.00480105425e-15
1.00384812146e-15
1.00275155614e-15
1.00189399006e-15
1.00135764148e-15
1.00098998734e-15
1.00062763308e-15
1.00044263972e-15
1.00033034896e-15
1.00025452798e-15
1.00017472714e-15
1.00013643589e-15
1.00009265628e-15
1.00008608104e-15
1.00006069045e-15
1.00005601315e-15
1.00004123649e-15
1.00004155079e-15
1.0000386283e-15
1.000180942e-15
1.00043893925e-15
1.00047507025e-15
1.00044537713e-15
1.00043085729e-15
1.00040310789e-15
1.00041371166e-15
1.00045873583e-15
1.00047394393e-15
1.00017108078e-15
1e-15
1e-15
1e-15
1e-15
1e-15
1e-15
1e-15
1e-15
1e-15
1e-15
1e-15
1e-15
1e-15
1e-15
1e-15
1e-15
1e-15
1e-15
1e-15
1e-15
1e-15
1e-15
1e-15
1e-15
1e-15
1e-15
1e-15
1e-15
1e-15
1e-15
1e-15
1e-15
1e-15
1e-15
1e-15
1e-15
1e-15
1e-15
1e-15
1e-15
1e-15
1e-15
1e-15
1e-15
1.00001257149e-15
1.0001713793e-15
1.00037061545e-15
1.00107216988e-15
1.00180438657e-15
1.00252777441e-15
1.00325531287e-15
1.0038144003e-15
1.00434950202e-15
1.00475854152e-15
1.00510101801e-15
1.00538421987e-15
1.00560762408e-15
1.00575850768e-15
1.00585669327e-15
1.00585362707e-15
1.01183037502e-15
1.01167121593e-15
1.01186591602e-15
1.01167121593e-15
1.01188119608e-15
1.01167121593e-15
1.01188990563e-15
1.01167121593e-15
1.01189580638e-15
1.01167121593e-15
1.01190201088e-15
1.0104056775e-15
1.00314535766e-15
1.00286419842e-15
1.00275820701e-15
1.00270916725e-15
1.00274708143e-15
1.00287648483e-15
1.00313316704e-15
1.00353946935e-15
1.00412034005e-15
1.00491102271e-15
1.00601156124e-15
1.00738234729e-15
1.00896042035e-15
1.0286523383e-15
1.02783828274e-15
1.02879267614e-15
1.02783828274e-15
1.02850257829e-15
1.01362191868e-15
1.00339945078e-15
1.01298137998e-15
1e-15
1.01220575349e-15
1e-15
1e-15
1e-15
1e-15
1e-15
1e-15
1e-15
1e-15
1.0007471415e-15
1.00261409524e-15
1.00420745403e-15
1.00548639844e-15
1.00629708029e-15
1.00674100724e-15
1.00668196954e-15
1.00626008531e-15
1.0054708583e-15
1.00451161256e-15
1.00336234179e-15
1.00231575794e-15
1.00160749506e-15
1.00118825796e-15
1.00080176801e-15
1.0005657109e-15
1.00043376664e-15
1.00034347096e-15
1.00025036582e-15
1.00019268763e-15
1.0001293214e-15
1.00009720533e-15
1.00005297533e-15
1.00003631839e-15
1.0000201545e-15
1.00001472569e-15
1.00000380754e-15
1.00001829844e-15
1.00006952717e-15
1.00006759197e-15
1.00004320614e-15
1.00002885484e-15
1.00000593039e-15
1.00000140481e-15
1.00001422987e-15
1.00001882983e-15
1e-15
1e-15
1e-15
1e-15
1e-15
1e-15
1e-15
1e-15
1e-15
1e-15
1e-15
1e-15
1e-15
1e-15
1e-15
1e-15
1e-15
1e-15
1e-15
1e-15
1e-15
1e-15
1e-15
1e-15
1e-15
1e-15
1e-15
1e-15
1e-15
1e-15
1e-15
1e-15
1e-15
1e-15
1e-15
1e-15
1e-15
1e-15
1e-15
1e-15
1e-15
1e-15
1e-15
1e-15
1e-15
1.00002364485e-15
1.00017233788e-15
1.00043615943e-15
1.00121726071e-15
1.00202387641e-15
1.00281204733e-15
1.00354316068e-15
1.00415121813e-15
1.00474500586e-15
1.00521951958e-15
1.00562790154e-15
1.00592122844e-15
1.00615844954e-15
1.00633411193e-15
1.00644477471e-15
1.00926713427e-15
1.01167121593e-15
1.0118432908e-15
1.01167121593e-15
1.01185699225e-15
1.01167121593e-15
1.01187147554e-15