/*--------------------------------*- C++ -*----------------------------------*\
| =========                 |                                                 |
| \\      /  F ield         | OpenFOAM: The Open Source CFD Toolbox           |
|  \\    /   O peration     | Version:  2206                                  |
|   \\  /    A nd           | Website:  www.openfoam.com                      |
|    \\/     M anipulation  |                                                 |
\*---------------------------------------------------------------------------*/
FoamFile
{
    version     2.0;
    format      ascii;
    arch        "LSB;label=64;scalar=64";
    class       volScalarField;
    location    "4.5/water";
    object      Ct2;
}
// * * * * * * * * * * * * * * * * * * * * * * * * * * * * * * * * * * * * * //

dimensions      [0 0 0 0 0 0 0];

internalField   nonuniform List<scalar> 
23300
(
8.96884260025
8.96897549917
8.96913383122
8.96932639821
8.96954777578
8.9697924807
8.9700558596
8.97033363822
8.97062192182
8.97091686827
8.97121486279
8.97151234739
8.97180606325
8.97209295898
8.97237041024
8.97263614409
8.97288838812
8.97312577839
8.97334743168
8.97355283615
8.9737418675
8.97391467809
8.9740716849
8.97421347341
8.97434077851
8.97445441172
8.9745552454
8.97464416376
8.97472205257
8.97478976938
8.97484813692
8.97489792723
8.97493985655
8.97497457932
8.97500268352
8.97502469216
8.97504105858
8.97505217356
8.97505835975
8.97505988235
8.97505694086
8.97504968046
8.9750381778
8.97502252915
8.97500276802
8.97497888144
8.97495080133
8.97491842465
8.97488159718
8.97484013271
8.97479379319
8.97474230878
8.97468535518
8.97462257541
8.97455355495
8.97447784632
8.9743949427
8.97430430703
8.97420534544
8.97409744348
8.9739799417
8.97385218319
8.97371349543
8.9735632555
8.97340088512
8.97322594363
8.97303814728
8.97283750576
8.97262438521
8.9723997187
8.9721651596
8.97192345071
8.97167881691
8.97143775904
8.97121013225
8.97101103588
8.9708631264
8.97079557506
8.97081640371
8.97090374837
8.9710369631
8.97120110386
8.97138537233
8.97158184809
8.97178453526
8.97198889576
8.97219142548
8.97238948518
8.97258106623
8.97276472261
8.97293941544
8.97310448346
8.97325952776
8.97340439816
8.97353910263
8.97366380202
8.97377873835
8.97388423579
8.97398064492
8.97406834879
8.97414772021
8.97421913136
8.97428292078
8.97433940456
8.97438884986
8.97443148528
8.97446747692
8.97449693322
8.97451987267
8.9745363025
8.97454615178
8.9745492635
8.97454537571
8.97453412057
8.97451500006
8.97448737754
8.97445044824
8.97440322447
8.97434450271
8.97427284679
8.97418655923
8.97408367518
8.97396195707
8.97381892685
8.97365192017
8.97345820172
8.97323512801
8.97298039212
8.97269232466
8.9723702623
8.97201492348
8.97162875857
8.97121617249
8.97078356671
8.97033914551
8.96989260523
8.96945506599
8.96904018086
8.9686668367
8.96837756159
8.96444537234
8.964547558
8.96472307627
8.96495842202
8.96524385283
8.96557097229
8.96593234688
8.96632117445
8.96673110389
8.96715606653
8.96759026143
8.96802814949
8.96846453402
8.96889463026
8.96931415404
8.96971939129
8.97010723648
8.97047522221
8.9708214921
8.9711447879
8.97144437273
8.97171999476
8.97197178749
8.97220023183
8.97240605539
8.97259020665
8.97275376423
8.97289792691
8.97302393439
8.9731330709
8.97322659489
8.97330575294
8.9733717165
8.973425605
8.9734684295
8.97350112518
8.97352450189
8.97353928521
8.97354607222
8.97354537865
8.97353759688
8.97352304678
8.9735019346
8.97347446071
8.97344073273
8.97340080224
8.97335462344
8.97330211015
8.97324308928
8.97317735615
8.9731046242
8.97302458026
8.97293683181
8.97284096372
8.97273648415
8.97262288443
8.97249958508
8.97236600106
8.97222149002
8.97206542618
8.97189715411
8.97171607615
8.97152161686
8.97131333128
8.97109088827
8.97085421075
8.97060349028
8.97033937579
8.97006303874
8.96977643718
8.96948246871
8.96918536647
8.9688910178
8.96860757572
8.96834594597
8.96812027906
8.96794729808
8.96784284441
8.96781347619
8.96785330729
8.96795113703
8.96809514312
8.96827442052
8.9684795865
8.9687027199
8.9689373115
8.96917799562
8.96942045062
8.9696611643
8.96989737156
8.97012687568
8.97034801828
8.97055954035
8.970760568
8.97095049866
8.97112899402
8.97129588519
8.97145117113
8.97159494064
8.97172737602
8.97184868991
8.9719591332
8.97205894378
8.97214835675
8.97222756155
8.97229671173
8.97235588635
8.97240509595
8.97244424442
8.97247317772
8.97249164918
8.97249929195
8.97249558533
8.97247985157
8.97245122054
8.97240862157
8.97235074738
8.97227604555
8.97218268967
8.97206858315
8.97193135548
8.97176840357
8.97157694486
8.97135413461
8.9710972183
8.97080376614
8.97047195595
8.97010093347
8.96969119472
8.96924498246
8.96876660208
8.96826259943
8.96774166543
8.96721417264
8.9666911911
8.96618284141
8.96569562121
8.965227631
8.96475837116
8.96422631015
8.96670846077
8.96675698657
8.96685700406
8.96700187264
8.96718605999
8.96740438753
8.96765193134
8.9679239332
8.96821574281
8.96852279987
8.96884063859
8.96916493469
8.96949155579
8.9698166403
8.97013665253
8.9704484522
8.97074932106
8.97103699932
8.97130967302
8.97156597634
8.97180494799
8.97202601193
8.97222891851
8.97241371822
8.97258070073
8.97273037113
8.97286339335
8.97298057181
8.97308279994
8.97317104653
8.97324630812
8.9733095995
8.97336191043
8.97340420184
8.97343736905
8.97346224595
8.97347957647
8.97349002741
8.97349416745
8.97349248715
8.97348538336
8.97347318415
8.97345613628
8.97343440745
8.97340811632
8.97337733253
8.97334206103
8.97330226754
8.97325786314
8.97320872869
8.97315469783
8.97309558068
8.97303114616
8.97296114572
8.97288529595
8.97280330353
8.97271484924
8.97261961552
8.97251727349
8.97240751502
8.9722900448
8.97216461963
8.97203104855
8.97188924285
8.97173922856
8.97158121216
8.9714156106
8.97124313836
8.97106486031
8.97088230438
8.97069753952
8.97051331328
8.97033314598
8.97016146296
8.97000362117
8.96986583416
8.96975469056
8.96967597825
8.96963303947
8.96962580911
8.96965151121
8.96970607302
8.96978492497
8.96988352541
8.96999760985
8.97012334283
8.97025733571
8.97039666222
8.97053880912
8.97068165985
8.97082343743
8.97096268587
8.97109821745
8.97122909518
8.97135458454
8.97147413708
8.97158734698
8.97169393683
8.97179372005
8.97188658988
8.9719724878
8.97205139569
8.97212330957
8.97218823405
8.97224615984
8.97229705935
8.97234086652
8.97237747291
8.97240671041
8.97242833518
8.97244203496
8.97244741012
8.97244395335
8.97243104119
8.97240791565
8.97237367751
8.9723272731
8.9722674956
8.97219298608
8.97210225571
8.97199371764
8.97186575016
8.97171678217
8.97154542049
8.9713506088
8.9711318308
8.97088933867
8.97062440388
8.97033955383
8.97003876806
8.96972757571
8.96941300603
8.96910332063
8.96880747194
8.96853422614
8.96829091971
8.96808183125
8.96790604651
8.9677525593
8.96761816189
8.96735301589
8.96739313391
8.96747297122
8.96758994126
8.96774066692
8.96792138718
8.96812817834
8.96835704336
8.96860397341
8.96886499277
8.96913620675
8.96941385202
8.96969434941
8.96997435761
8.97025081853
8.97052099803
8.97078250925
8.97103333016
8.9712718007
8.97149661831
8.97170681503
8.97190173928
8.97208102287
8.97224455799
8.97239246176
8.97252505368
8.97264282074
8.97274639597
8.97283652359
8.97291403774
8.97297982702
8.97303481385
8.97307992054
8.97311605244
8.97314406944
8.97316477676
8.97317890479
8.97318710921
8.97318995945
8.97318794686
8.97318147977
8.97317089724
8.97315646833
8.97313833873
8.97311661614
8.97309136457
8.97306259839
8.9730302961
8.97299439625
8.97295481062
8.97291141923
8.97286408285
8.97281263758
8.97275690726
8.97269669835
8.97263181301
8.97256204518
8.97248719539
8.97240706901
8.97232149405
8.97223032307
8.97213345534
8.97203084415
8.97192252542
8.97180863251
8.9716894336
8.97156535629
8.97143703556
8.97130534875
8.97117147247
8.97103692222
8.97090360642
8.97077384911
8.97065040442
8.97053640053
8.97043521404
8.9703501869
8.97028417532
8.97023902132
8.97021543389
8.97021278607
8.97022948781
8.9702634549
8.97031233535
8.97037371103
8.97044523804
8.97052471627
8.97061013904
8.9706997015
8.97079181182
8.9708850777
8.97097830402
8.97107047203
8.97116073129
8.97124837605
8.97133283467
8.97141364567
8.97149044676
8.97156295236
8.97163094363
8.97169424832
8.9717527323
8.9718062818
8.97185479617
8.97189817215
8.97193629753
8.97196903717
8.97199622786
8.97201766686
8.97203306686
8.97204207554
8.97204427035
8.9720391443
8.97202609946
8.97200443693
8.9719733559
8.97193195286
8.97187923371
8.97181413201
8.97173554652
8.97164239309
8.97153368362
8.97140862724
8.9712667635
8.97110811928
8.97093339174
8.97074414026
8.97054297693
8.97033372557
8.97012152408
8.96991282918
8.9697152918
8.96953746642
8.96938833873
8.96927667596
8.96921026997
8.96919525443
8.96923569619
8.96932904313
8.96948289654
8.96800991111
8.96804303761
8.96810834965
8.96820431336
8.96832865413
8.96847859576
8.96865106596
8.96884281251
8.96905049172
8.96927074346
8.96950025408
8.96973581505
8.96997437313
8.97021307693
8.97044931219
8.97068073174
8.97090527179
8.97112116321
8.97132692968
8.97152138358
8.97170361163
8.97187296197
8.97202902378
8.9721716112
8.97230074108
8.97241661583
8.97251959992
8.97261020069
8.97268904216
8.97275684281
8.97281438643
8.97286249832
8.97290201617
8.9729337688
8.97295855187
8.97297711358
8.97299013859
8.97299824281
8.97300196597
8.97300177449
8.97299806075
8.97299115127
8.97298131099
8.97296867196
8.97295332036
8.97293530647
8.97291464265
8.97289131144
8.97286526649
8.97283644016
8.97280474379
8.9727700747
8.97273231604
8.97269134358
8.97264702569
8.97259923044
8.97254782636
8.97249269045
8.97243371046
8.9723707946
8.97230387606
8.97223292521
8.97215795735
8.97207904824
8.97199634589
8.97191009039
8.97182063015
8.97172844599
8.97163417077
8.97153861472
8.97144278256
8.97134789014
8.97125536369
8.9711668259
8.97108404764
8.97100886595
8.97094304676
8.97088811551
8.97084511613
8.97081462409
8.97079676082
8.97079099952
8.97079644716
8.9708120093
8.97083645302
8.97086849636
8.97090686404
8.97095033109
8.97099774649
8.97104805193
8.97110028754
8.97115359756
8.97120722663
8.97126051843
8.97131290684
8.97136391073
8.97141312279
8.97146020265
8.97150486497
8.97154687225
8.97158602323
8.97162214587
8.97165508642
8.97168470277
8.9717108543
8.97173339576
8.97175216813
8.97176699379
8.9717776693
8.97178390561
8.97178535261
8.97178160465
8.97177219224
8.97175657875
8.97173415779
8.97170425782
8.97166615104
8.97161907362
8.97156225564
8.97149496801
8.97141658529
8.97132667093
8.97122508264
8.97111210109
8.9709885754
8.97085608179
8.97071708106
8.97057506149
8.97043464328
8.97030162187
8.97018292102
8.97008643271
8.97002072363
8.96999460449
8.97001657601
8.97009420581
8.97023356057
8.97043887624
8.97071069928
8.97105248426
8.96852879599
8.96855667455
8.96861159009
8.96869241714
8.96879741956
8.96892441342
8.96907090896
8.96923421013
8.96941150078
8.96959992185
8.96979663731
8.96999889366
8.97020406783
8.97040970876
8.97061356725
8.97081361922
8.97100807802
8.97119540165
8.97137429116
8.97154368666
8.97170275763
8.97185089325
8.97198768947
8.97211293725
8.97222660826
8.9723288414
8.97241992601
8.97250028488
8.97257045325
8.97263105734
8.97268278939
8.97272638369
8.97276259121
8.97279215763
8.97281580239
8.97283420317
8.97284798266
8.97285770136
8.97286385262
8.97286686282
8.97286709265
8.97286484206
8.97286035843
8.97285377257
8.97284514523
8.97283450966
8.97282187023
8.97280720773
8.97279048231
8.97277163806
8.97275060544
8.97272730525
8.9727016507
8.97267355098
8.97264291338
8.9726096468
8.97257366438
8.97253488743
8.9724932489
8.9724486982
8.97240120602
8.97235077036
8.97229742308
8.97224123756
8.97218233718
8.97212090467
8.97205719235
8.97199153265
8.97192434869
8.97185616358
8.97178760736
8.97171941926
8.97165244279
8.97158761046
8.9715259148
8.971468363
8.97141591468
8.97136940709
8.9713294771
8.9712964729
8.97127061682
8.97125191575
8.97124002336
8.97123445903
8.97123465053
8.97123995489
8.97124969468
8.97126318612
8.97127975943
8.97129877465
8.97131963179
8.97134177782
8.97136470981
8.97138797644
8.97141117659
8.97143395747
8.97145601065
8.97147706823
8.97149689757
8.97151529651
8.97153208745
8.97154711218
8.97156022567
8.97157129086
8.97158017243
8.97158673192
8.97159082208
8.97159228311
8.97159093869
8.97158652959
8.97157873975
8.97156721024
8.97155153544
8.97153126337
8.97150589889
8.97147491317
8.97143775964
8.97139390015
8.97134284231
8.97128419176
8.97121772012
8.97114345139
8.97106176562
8.97097351932
8.97088017693
8.97078394711
8.97068791118
8.9705961298
8.97051370783
8.97044679678
8.97040251074
8.97038873494
8.9704138087
8.97048607467
8.97061329623
8.97080196727
8.9710565845
8.97137904781
8.9717676719
8.97221907323
8.96896714976
8.96899101768
8.96903808336
8.96910741102
8.96919758395
8.96930679525
8.96943295842
8.96957378881
8.9697268791
8.96988977187
8.97006002197
8.97023525241
8.97041319899
8.9705917472
8.97076895786
8.97094308585
8.9711125894
8.97127613455
8.97143259328
8.97158103933
8.9717207409
8.97185115282
8.97197190752
8.97208280598
8.97218380762
8.9722750192
8.97235668191
8.97242915621
8.97249290433
8.9725484703
8.97259645861
8.97263751174
8.97267228844
8.97270144319
8.97272560854
8.97274538033
8.97276130707
8.97277388245
8.97278354195
8.97279066192
8.97279556164
8.97279850637
8.97279971482
8.97279933091
8.97279739309
8.97279391441
8.97278888978
8.97278229605
8.97277409573
8.97276423975
8.97275267065
8.97273932466
8.9727241345
8.972707031
8.97268794575
8.97266681266
8.97264357072
8.97261816573
8.97259055353
8.97256070204
8.97252859524
8.97249423578
8.97245764975
8.97241888998
8.97237804164
8.97233522608
8.97229060689
8.97224439376
8.97219684798
8.97214828484
8.97209907638
8.97204964941
8.97200048177
8.97195209161
8.9719050226
8.97185982055
8.97181700571
8.9717770396
8.97174029776
8.97170702069
8.97167730775
8.97165129773
8.97162899557
8.97161020059
8.97159466999
8.97158211948
8.97157222961
8.97156466014
8.97155906435
8.97155509853
8.97155243044
8.97155074464
8.97154974678
8.9715491656
8.97154875438
8.97154829055
8.97154757519
8.97154643123
8.97154470154
8.97154224623
8.9715389399
8.97153466833
8.97152932519
8.97152280837
8.97151501655
8.97150584569
8.97149518598
8.97148291953
8.97146891908
8.97145298145
8.97143484982
8.97141423616
8.97139082084
8.97136425626
8.9713341745
8.97130020074
8.97126197402
8.97121917749
8.9711715798
8.9711190898
8.97106182552
8.9710001984
8.97093501153
8.97086756975
8.97079979607
8.97073434709
8.97067471607
8.97062530981
8.97059148163
8.97057950091
8.97059643656
8.97064993233
8.97074785193
8.97089777661
8.97110634347
8.97137842608
8.97171619513
8.97211820485
8.97257851698
8.9730869199
8.96933941046
8.96936016952
8.9694012367
8.96946173778
8.96954045667
8.96963583633
8.96974606999
8.96986917145
8.9700030421
8.97014553706
8.97029452225
8.97044792655
8.97060378167
8.97076025514
8.97091567172
8.97106852857
8.97121750148
8.97136144712
8.97149939996
8.97163056754
8.97175432359
8.97187020105
8.97197788455
8.97207720269
8.97216812001
8.97225072735
8.97232523128
8.97239194061
8.97245125169
8.97250363062
8.9725495953
8.97258969559
8.97262449525
8.97265455394
8.97268041282
8.97270258149
8.97272152964
8.97273768015
8.97275140679
8.97276303279
8.97277283313
8.97278103683
8.97278782782
8.97279336314
8.97279767861
8.97280076402
8.97280260473
8.97280317276
8.97280243072
8.97280033347
8.97279683121
8.97279187037
8.97278539632
8.97277735383
8.97276768958
8.97275635244
8.97274329602
8.97272847893
8.9727118675
8.97269343617
8.97267317058
8.97265106808
8.97262714127
8.97260141873
8.97257394881
8.9725448005
8.97251406721
8.97248186739
8.97244834773
8.97241368269
8.97237807604
8.97234175809
8.97230498396
8.97226802685
8.97223117151
8.9721947024
8.97215889228
8.97212398696
8.97209019224
8.97205766811
8.97202648633
8.9719966564
8.97196830554
8.97194146339
8.9719160282
8.97189189132
8.97186892924
8.9718470018
8.97182595835
8.97180564387
8.9717859045
8.97176659
8.97174755757
8.97172867306
8.97170981295
8.97169086444
8.97167172617
8.97165230736
8.97163252757
8.97161231518
8.97159160642
8.97157034326
8.97154847196
8.97152594066
8.97150269776
8.97147868969
8.97145385976
8.97142814722
8.97140148839
8.97137375629
8.97134477022
8.97131432959
8.9712822158
8.97124819864
8.97121204719
8.97117354626
8.97113252028
8.97108886597
8.97104259553
8.97099389159
8.97094317472
8.97089118334
8.97083906465
8.97078847349
8.97074167367
8.97070163421
8.97067210982
8.97065769237
8.97066381709
8.97069670433
8.97076321495
8.97087059489
8.97102608272
8.97123635371
8.97150677649
8.97184046711
8.97223715539
8.97269198481
8.97319447413
8.97372817864
8.96966122277
8.96967954219
8.96971597557
8.96976963538
8.96983943486
8.96992398432
8.97002167183
8.97013072707
8.97024928162
8.9703754312
8.97050728796
8.9706430285
8.97078092943
8.97091939643
8.97105698144
8.97119239442
8.97132450621
8.97145234838
8.97157510813
8.97169212238
8.97180287023
8.97190696567
8.97200415038
8.9720942865
8.97217734945
8.97225341948
8.97232267269
8.97238536945
8.9724418423
8.97249248084
8.97253771719
8.97257800937
8.97261382684
8.97264563547
8.97267388616
8.97269900385
8.97272138105
8.97274137172
8.9727592898
8.9727754075
8.9727899576
8.97280313492
8.97281509784
8.97282598487
8.97283586355
8.97284470585
8.97285248572
8.97285916957
8.97286471893
8.97286909079
8.97287224027
8.97287412059
8.97287468547
8.97287388877
8.97287168666
8.9728680371
8.97286290199
8.97285624651
8.97284804141
8.9728382623
8.97282689217
8.97281392062
8.9727993466
8.9727831777
8.97276543295
8.97274614212
8.97272534836
8.97270310739
8.97267948965
8.97265457893
8.97262847366
8.97260128439
8.97257313364
8.97254415172
8.97251447461
8.97248423784
8.97245357249
8.97242259787
8.97239141755
8.97236011161
8.97232874152
8.97229730642
8.9722657845
8.972234293
8.97220289388
8.97217154805
8.97214021795
8.9721088657
8.97207744758
8.97204591663
8.97201422408
8.97198232204
8.97195016505
8.97191771085
8.97188492209
8.97185176619
8.97181821646
8.97178425149
8.97174985568
8.97171501821
8.97167973302
8.97164399749
8.97160781199
8.97157117849
8.97153409992
8.97149657918
8.97145861912
8.97142022298
8.9713813976
8.97134210605
8.97130225299
8.97126173438
8.97122044079
8.97117826587
8.9711351196
8.97109094681
8.97104575292
8.97099963771
8.97095283884
8.97090578551
8.97085916293
8.97081398672
8.97077168566
8.97073418912
8.97070401396
8.97068434322
8.97067908668
8.97069291068
8.97073122188
8.97080008672
8.97090606469
8.97105592994
8.97125625118
8.97151279625
8.97182972527
8.97220853962
8.97264677501
8.97313652203
8.97366307558
8.97420430288
8.96994390889
8.96996029606
8.96999312898
8.97004145781
8.97010427714
8.97018030907
8.97026807601
8.97036596184
8.97047226932
8.97058527904
8.97070329803
8.97082470487
8.9709479807
8.97107173458
8.97119471626
8.97131582425
8.97143410502
8.97154874997
8.97165908772
8.97176457642
8.97186479476
8.97195943388
8.97204828975
8.972131256
8.97220831735
8.97227954216
8.97234507511
8.9724051277
8.9724599689
8.972509913
8.97255530859
8.97259652518
8.97263394228
8.97266793717
8.97269887627
8.972727106
8.97275294781
8.97277669281
8.97279860065
8.97281889755
8.97283777825
8.97285540634
8.97287191786
8.97288743428
8.97290205956
8.97291575271
8.97292847965
8.97294020164
8.97295087887
8.97296046944
8.97296893166
8.97297622335
8.97298230395
8.97298713345
8.97299067432
8.97299289033
8.97299374842
8.97299321745
8.97299127013
8.9729878817
8.97298303197
8.97297670396
8.97296888603
8.97295957057
8.97294875609
8.97293644587
8.97292265006
8.97290738418
8.972890671
8.97287253877
8.97285302271
8.97283216283
8.97281000478
8.97278659705
8.9727619911
8.97273623795
8.97270938755
8.97268148509
8.97265257023
8.97262267397
8.97259181672
8.97256001196
8.97252723071
8.97249343737
8.97245871602
8.97242316843
8.97238679398
8.97234958253
8.97231154032
8.9722726682
8.97223297394
8.97219246255
8.97215114201
8.97210902274
8.97206611878
8.97202244762
8.9719780313
8.9719328959
8.97188707233
8.97184059564
8.97179350546
8.97174584519
8.97169766218
8.97164900695
8.97159993342
8.97155049857
8.97150076345
8.97145079442
8.97140066835
8.97135044626
8.97130012013
8.97124968503
8.97119914249
8.97114851046
8.97109783827
8.97104722634
8.97099685293
8.9709470081
8.97089813641
8.97085088843
8.97080618124
8.97076526686
8.97072980656
8.97070194733
8.97068439539
8.97068047934
8.97069419345
8.97073020956
8.97079384307
8.97089095581
8.97102777458
8.97121059941
8.97144536895
8.97173704299
8.97208875283
8.97250066387
8.97296850023
8.97348175612
8.97402189619
8.97456139507
8.97019647923
8.97021132268
8.97024134524
8.97028550055
8.97034283149
8.97041213138
8.97049201317
8.97058097016
8.97067743137
8.97077981991
8.97088659896
8.97099631378
8.97110761888
8.97121929945
8.9713302795
8.97143962598
8.97154654382
8.97165036962
8.97175056095
8.97184668641
8.97193841485
8.9720255062
8.97210780328
8.97218522462
8.97225775861
8.97232545719
8.97238843052
8.97244683975
8.97250089063
8.97255082445
8.97259691039
8.97263943534
8.97267869603
8.97271498939
8.97274860618
8.97277982327
8.97280889987
8.97283607257
8.97286155441
8.97288553249
8.97290816945
8.97292960299
8.97294994872
8.97296929653
8.97298780148
8.97300543133
8.97302213169
8.97303786154
8.97305257981
8.9730662451
8.97307881786
8.9730902592
8.97310053265
8.97310960266
8.97311743621
8.97312400125
8.97312926831
8.97313320886
8.973135797
8.97313700781
8.97313681906
8.97313520959
8.97313216108
8.97312765637
8.9731216813
8.97311422304
8.97310527189
8.97309481957
8.97308286096
8.97306939229
8.97305441277
8.97303792264
8.97301992459
8.97300042167
8.97297941848
8.97295691892
8.97293292717
8.97290744543
8.97288047479
8.9728520131
8.97282205598
8.97279059333
8.9727576142
8.97272308112
8.97268695056
8.97264924037
8.97261010889
8.97256956928
8.97252760205
8.97248424703
8.972439522
8.97239345385
8.97234607258
8.97229741033
8.97224750456
8.97219639674
8.97214413364
8.97209076703
8.97203635463
8.97198095963
8.97192465155
8.97186750578
8.97180960426
8.97175103522
8.971691894
8.97163228331
8.97157231484
8.97151211092
8.97145181148
8.97139157616
8.97133148124
8.97127161827
8.97121209587
8.97115305157
8.97109466759
8.97103719145
8.97098096299
8.97092644784
8.97087427873
8.97082530421
8.97078064495
8.97074175599
8.97071049296
8.97068917852
8.97068066386
8.97068837836
8.97071635865
8.97076924626
8.97085224042
8.97097099015
8.97113140517
8.97133935983
8.9716002556
8.97191839565
8.97229610759
8.97273252931
8.97322195444
8.97375167923
8.97429961425
8.97483290118
8.97042613005
8.97043972706
8.97046754418
8.97050841312
8.97056139999
8.97062534063
8.97069890618
8.97078066528
8.97086914056
8.9709628662
8.97106043214
8.97116052403
8.97126194613
8.97136363872
8.97146468141
8.97156429277
8.97166182102
8.97175673404
8.97184860542
8.97193710207
8.9720219716
8.97210303205
8.97218016328
8.97225330004
8.97232242711
8.97238757455
8.97244881459
8.97250625696
8.97256004556
8.97261035238
8.9726573731
8.97270131962
8.97274241498
8.97278088565
8.97281695696
8.97285084645
8.97288276084
8.97291289129
8.97294141244
8.97296847962
8.97299422996
8.97301878156
8.97304223694
8.97306467088
8.97308619727
8.97310688362
8.97312665236
8.9731454545
8.97316324576
8.97317998423
8.97319563162
8.97321015137
8.9732235101
8.97323567571
8.97324661877
8.97325631063
8.97326472485
8.97327183531
8.97327761779
8.97328204799
8.97328510326
8.97328676061
8.97328699849
8.97328579481
8.97328312876
8.9732789789
8.97327332491
8.97326614578
8.97325742148
8.97324713124
8.97323525516
8.97322177248
8.97320666322
8.97318990645
8.97317148186
8.97315136813
8.97312954438
8.97310598866
8.97308067932
8.9730535936
8.97302470878
8.97299400072
8.97296144387
8.97292701047
8.97289066632
8.97285235492
8.97281203129
8.97276988322
8.97272591199
8.97268012271
8.97263254586
8.97258320408
8.97253212382
8.97247934278
8.97242490087
8.97236884338
8.97231122278
8.97225209786
8.97219153526
8.97212960926
8.97206640301
8.97200200845
8.97193652755
8.97187007248
8.97180276713
8.9717347478
8.97166616541
8.97159718739
8.97152800074
8.97145885688
8.97138991643
8.9713213568
8.97125338574
8.97118625096
8.97112025713
8.97105578693
8.97099332795
8.97093350529
8.97087712103
8.97082520004
8.97077904194
8.97074027753
8.97071092762
8.9706934604
8.9706908427
8.97070657838
8.97074472607
8.97080988602
8.97090714419
8.97104195843
8.97121996773
8.97144669873
8.97172713332
8.97206508399
8.97246229682
8.9729171616
8.97342285875
8.97396477766
8.97451740769
8.97504248079
8.970638763
8.97065133832
8.97067740748
8.97071566075
8.97076516975
8.97082479037
8.970893228
8.97096910244
8.97105100519
8.97113755845
8.97122745816
8.97131951103
8.97141265381
8.97150596613
8.97159866861
8.97169011775
8.97177979191
8.97186727737
8.97195225112
8.97203446595
8.97211373616
8.97218992645
8.97226294318
8.97233272816
8.97239925519
8.97246252726
8.97252257592
8.97257945941
8.97263326223
8.97268409209
8.9727320781
8.97277736592
8.97282011463
8.97286049066
8.97289866439
8.97293480422
8.97296907394
8.97300162791
8.97303260995
8.97306215009
8.97309036512
8.97311735701
8.97314321473
8.97316801123
8.97319182903
8.97321479776
8.97323684088
8.97325790462
8.97327794153
8.97329690912
8.97331476986
8.97333148891
8.97334703533
8.97336137983
8.97337449608
8.97338635846
8.97339694342
8.97340622739
8.97341418824
8.97342080323
8.97342605058
8.97342990742
8.97343235148
8.97343335908
8.97343290683
8.97343096971
8.97342752273
8.97342253913
8.97341599207
8.97340785283
8.97339809254
8.9733866805
8.97337358591
8.97335877624
8.97334221899
8.97332388022
8.97330372623
8.97328172223
8.97325783395
8.97323202633
8.97320426503
8.97317451497
8.97314274139
8.97310890827
8.97307297558
8.97303491548
8.97299464953
8.97295213181
8.97290744277
8.97286065386
8.97281178106
8.97276080887
8.97270777817
8.97265270544
8.9725956205
8.9725365614
8.97247557141
8.9724127024
8.97234801582
8.97228158267
8.97221348526
8.97214381767
8.97207268746
8.97200021645
8.97192654285
8.97185182275
8.97177623312
8.97169997489
8.97162327499
8.97154641966
8.97146968825
8.97139332671
8.97131762739
8.97124293445
8.97116966111
8.9710983106
8.97102950246
8.97096400403
8.97090276796
8.9708469751
8.97079808241
8.97075787405
8.97072851367
8.97071259403
8.97071317965
8.97073383625
8.97077863975
8.97085215567
8.97095937791
8.97110561321
8.97129629284
8.97153668614
8.97183147737
8.9721841457
8.97259605015
8.9730650596
8.97358347963
8.97413498114
8.974690659
8.97520672844
8.97083933681
8.97085105518
8.97087571219
8.97091184167
8.9709585066
8.97101456746
8.97107874633
8.97114969572
8.97122605936
8.97130653163
8.97138989968
8.9714750784
8.97156112521
8.9716472479
8.97173279741
8.97181725736
8.97190022517
8.97198139415
8.97206053287
8.9721374681
8.97221206901
8.97228423567
8.97235389072
8.9724209743
8.9724854425
8.97254726684
8.97260643644
8.97266295889
8.97271686272
8.97276819696
8.97281703169
8.97286345512
8.97290757202
8.9729494988
8.97298936077
8.97302728663
8.97306340591
8.97309784399
8.97313072069
8.9731621465
8.97319222261
8.9732210385
8.97324867307
8.97327519341
8.97330064904
8.97332522734
8.97334887953
8.97337152943
8.97339313054
8.97341364023
8.97343302148
8.97345124083
8.97346826934
8.97348408024
8.97349864993
8.97351195568
8.9735239768
8.97353469243
8.97354408292
8.9735521277
8.97355880681
8.97356409878
8.97356798229
8.97357043415
8.97357143092
8.97357094701
8.97356895637
8.97356543058
8.97356034062
8.97355365509
8.97354534188
8.97353536658
8.97352369416
8.97351028747
8.97349510895
8.97347811922
8.97345927878
8.97343854674
8.97341588243
8.97339124415
8.9733645907
8.97333588003
8.9733050705
8.97327211927
8.97323698453
8.9731996189
8.97315997553
8.97311799542
8.97307361887
8.97302679256
8.97297768142
8.97292626171
8.9728725287
8.97281649723
8.97275818412
8.97269760209
8.97263478107
8.9725697577
8.9725025775
8.97243329779
8.97236198891
8.97228873509
8.97221363693
8.97213681278
8.97205840149
8.97197856463
8.97189749019
8.97181539638
8.9717325373
8.9716492195
8.97156582422
8.97148265384
8.97140007065
8.97131850033
8.97123844894
8.97116052376
8.97108545898
8.97101414604
8.97094766936
8.97088734641
8.97083477214
8.97079186528
8.97076091512
8.97074462463
8.97074614629
8.97076910451
8.97081759838
8.97089617617
8.97100977179
8.97116359016
8.97136292407
8.97161287668
8.97191794902
8.97228142453
8.97270443384
8.97318449794
8.9737132147
8.97427264675
8.97483046275
8.97533730101
8.97103214269
8.97104311804
8.97106659321
8.97110093516
8.97114518904
8.97119820781
8.97125871818
8.97132539403
8.97139691967
8.97147205156
8.97154965982
8.97162875976
8.97170852248
8.97178827709
8.97186749761
8.97194578684
8.97202285251
8.97209848514
8.9721725344
8.97224488999
8.97231546496
8.97238418417
8.97245097704
8.97251577416
8.972578508
8.97263911514
8.97269754127
8.97275374485
8.97280770228
8.97285940965
8.9729088853
8.97295616831
8.97300131802
8.97304440975
8.97308553246
8.97312478331
8.97316226493
8.97319808029
8.97323233083
8.97326511235
8.97329651452
8.97332661829
8.97335549705
8.97338321679
8.97340981843
8.97343541814
8.97346010962
8.97348379146
8.973506409
8.97352791655
8.97354827647
8.97356745601
8.97358542776
8.97360216705
8.97361765275
8.9736318648
8.97364478529
8.97365639612
8.97366668031
8.97367561982
8.97368319701
8.97368939252
8.97369418691
8.97369755857
8.97369948543
8.97369994298
8.97369890598
8.97369634658
8.97369223605
8.97368654303
8.97367923522
8.97367027775
8.97365963489
8.97364726852
8.97363313982
8.97361720786
8.97359943127
8.97357976691
8.97355817143
8.97353460004
8.97350900794
8.97348134904
8.97345157717
8.97341964484
8.97338550381
8.97334910414
8.97331039395
8.9732693137
8.97322581914
8.97317981998
8.97313125497
8.97308016045
8.97302660189
8.97297056937
8.97291203072
8.9728510137
8.97278751845
8.97272155489
8.97265315156
8.97258234555
8.97250918691
8.97243374156
8.97235609356
8.97227634704
8.97219462984
8.97211109628
8.97202593159
8.97193935618
8.97185163206
8.97176307687
8.97167415101
8.97158520017
8.97149664239
8.97140896807
8.97132275885
8.97123870799
8.97115764577
8.97108056882
8.9710086743
8.97094339768
8.97088645395
8.97083988017
8.97080607752
8.9707878494
8.97078843184
8.97081151083
8.97086122079
8.97094211634
8.97105910837
8.97121735217
8.97142207061
8.97167828599
8.97199041728
8.9723616669