/*--------------------------------*- C++ -*----------------------------------*\
| =========                 |                                                 |
| \\      /  F ield         | OpenFOAM: The Open Source CFD Toolbox           |
|  \\    /   O peration     | Version:  2206                                  |
|   \\  /    A nd           | Website:  www.openfoam.com                      |
|    \\/     M anipulation  |                                                 |
\*---------------------------------------------------------------------------*/
FoamFile
{
    version     2.0;
    format      ascii;
    arch        "LSB;label=64;scalar=64";
    class       surfaceScalarField;
    location    "4.5/water";
    object      phi;
}
// * * * * * * * * * * * * * * * * * * * * * * * * * * * * * * * * * * * * * //

dimensions      [0 3 -1 0 0 0 0];

oriented        oriented;

internalField   nonuniform List<scalar> 
46280
(
-3.47360546253e-10
3.47277329027e-10
-7.05358358114e-10
3.57943300496e-10
-1.07643992394e-09
3.70963506488e-10
-1.46481972849e-09
3.88330867398e-10
-1.87537707179e-09
4.10433703704e-10
-2.31270082051e-09
4.3728001379e-10
-2.7816070548e-09
4.68768190732e-10
-3.28643133218e-09
5.04784474141e-10
-3.83171301e-09
5.45141390723e-10
-4.42136200095e-09
5.89617477088e-10
-5.05936596409e-09
6.37870972974e-10
-5.74886996106e-09
6.89481904354e-10
-6.49286260091e-09
7.43870452342e-10
-7.2932240485e-09
8.00346979782e-10
-8.15138201486e-09
8.58045322176e-10
-9.06737598266e-09
9.15983533657e-10
-1.00404998094e-08
9.73017895737e-10
-1.1068426984e-08
1.02791772537e-09
-1.21478721982e-08
1.07934381182e-09
-1.32738202626e-08
1.12593796739e-09
-1.44402422077e-08
1.16632403506e-09
-1.56394599611e-08
1.19920647391e-09
-1.68629388501e-08
1.22338427245e-09
-1.81007968079e-08
1.23784558741e-09
-1.93426663035e-08
1.24177839006e-09
-2.05773235201e-08
1.23464401775e-09
-2.17935780594e-08
1.21616727982e-09
-2.2979966753e-08
1.18637490631e-09
-2.4125605336e-08
1.14555546865e-09
-2.52198801355e-08
1.09426051354e-09
-2.62531981982e-08
1.03323929807e-09
-2.72166285024e-08
9.63415468132e-10
-2.81025170995e-08
8.85814281592e-10
-2.89040677581e-08
8.01535086519e-10
-2.96158271668e-08
7.11689556096e-10
-3.0233228382e-08
6.17384645593e-10
-3.07529742526e-08
5.1968043186e-10
-3.11725785785e-08
4.19586470306e-10
-3.1490676885e-08
3.18037203207e-10
-3.17065930563e-08
2.15896765596e-10
-3.18205956393e-08
1.13945723841e-10
-3.18335067622e-08
1.28899683129e-11
-3.17469389485e-08
-8.66205132609e-11
-3.15629483204e-08
-1.84013646524e-10
-3.12842094431e-08
-2.78787494453e-10
-3.09137454831e-08
-3.70488843622e-10
-3.04550818184e-08
-4.58708259197e-10
-2.99120307127e-08
-5.43077748025e-10
-2.92888041574e-08
-6.23267180522e-10
-2.85898487519e-08
-6.98983581709e-10
-2.78199203341e-08
-7.69965125756e-10
-2.69839664681e-08
-8.35983273271e-10
-2.60871637501e-08
-8.96835583472e-10
-2.51348429055e-08
-9.52351109269e-10
-2.41324894306e-08
-1.00238260431e-09
-2.30857051273e-08
-1.04681503679e-09
-2.20001732416e-08
-1.08555743949e-09
-2.0881649927e-08
-1.11855412717e-09
-1.97358958818e-08
-1.14577624452e-09
-1.85686913362e-08
-1.16723510455e-09
-1.73857371097e-08
-1.18297336411e-09
-1.61926873695e-08
-1.19307977533e-09
-1.49950239892e-08
-1.19767981194e-09
-1.37981022725e-08
-1.19695106465e-09
-1.26070032535e-08
-1.19111315545e-09
-1.14265886935e-08
-1.18044315188e-09
-1.02613361473e-08
-1.16526483109e-09
-9.11540007595e-09
-1.14596395714e-09
-7.99243317248e-09
-1.12297779099e-09
-6.89564838304e-09
-1.09681210497e-09
-5.82762191074e-09
-1.0680363995e-09
-4.79033447172e-09
-1.03731442292e-09
-3.78491503129e-09
-1.00542881969e-09
-2.81157563755e-09
-9.73366349549e-10
-1.86915192126e-09
-9.42432929334e-10
-9.54730359663e-10
-9.14448868492e-10
-6.29101614338e-11
-8.91829583693e-10
8.13904806289e-10
-8.76843038407e-10
1.68381027013e-09
-8.6991530071e-10
2.55303530686e-09
-8.69254212221e-10
3.4254901165e-09
-8.7246524809e-10
4.30315934688e-09
-8.77699628224e-10
5.18676514391e-09
-8.83616864107e-10
6.07595584363e-09
-8.89222281329e-10
6.96967150606e-09
-8.93727321439e-10
7.866126625e-09
-8.96487736034e-10
8.76306079752e-09
-8.96946354604e-10
9.65765127906e-09
-8.9462393837e-10
1.05467312777e-08
-8.89092622799e-10
1.14266830717e-08
-8.79985852728e-10
1.22936529939e-08
-8.66982904714e-10
1.31434440693e-08
-8.49825497127e-10
1.39717358461e-08
-8.28305042237e-10
1.47739808905e-08
-8.02279586018e-10
1.55456271067e-08
-7.71659699423e-10
1.62820157344e-08
-7.36423070575e-10
1.69786001973e-08
-6.96598113076e-10
1.76308420749e-08
-6.52276017729e-10
1.82344211283e-08
-6.03592832945e-10
1.87851272505e-08
-5.50739788816e-10
1.92790583859e-08
-4.93945019703e-10
1.97125083828e-08
-4.3348303819e-10
2.0082151419e-08
-3.69657009947e-10
2.03849269916e-08
-3.02807865739e-10
2.06182103373e-08
-2.33297399301e-10
2.07796955123e-08
-1.61516611552e-10
2.0867549907e-08
-8.7868521899e-11
2.08802931556e-08
-1.27737435577e-11
2.08169404666e-08
6.33384920241e-11
2.06768815087e-08
1.40029476008e-10
2.04600225245e-08
2.16844717003e-10
2.01666916815e-08
2.93302422001e-10
1.97977768615e-08
3.68900475798e-10
1.93546448808e-08
4.43104650064e-10
1.88392762045e-08
5.1535423868e-10
1.82542015282e-08
5.85048437852e-10
1.76026379454e-08
6.51549021572e-10
1.68884462637e-08
7.14166512845e-10
1.61162682945e-08
7.72163237654e-10
1.52914991104e-08
8.24745031153e-10
1.44204107807e-08
8.71073367331e-10
1.3510113247e-08
9.10274328113e-10
1.25686244157e-08
9.41473581329e-10
1.16047662167e-08
9.63835860908e-10
1.06281193149e-08
9.76631317766e-10
9.64879382652e-09
9.79303939284e-10
8.67722499285e-09
9.71552868959e-10
7.7238075201e-09
9.5339660336e-10
6.79856817963e-09
9.25222881134e-10
5.91074931555e-09
8.87798546297e-10
5.06848380011e-09
8.4224848521e-10
4.2784673161e-09
7.89996726275e-10
3.54575449574e-09
7.32695349744e-10
2.87357920291e-09
6.721562607e-10
2.26323531472e-09
6.10326019287e-10
1.71387710098e-09
5.49340209917e-10
1.22213663694e-09
4.91724087841e-10
7.81298215888e-10
4.40822814416e-10
3.79742272097e-10
4.01539887105e-10
3.79737718732e-10
-3.77770616815e-10
7.24962685949e-10
-7.59730147036e-10
7.39827169072e-10
-1.15314720259e-09
7.64274615913e-10
-1.5635238705e-09
7.98637268119e-10
-1.99616078727e-09
8.42962784938e-10
-2.45599427408e-09
8.97048035222e-10
-2.94792607757e-09
9.60589249872e-10
-3.47643411012e-09
1.03323182046e-09
-4.04593382757e-09
1.11453369498e-09
-4.66030761639e-09
1.20393742761e-09
-5.32324762145e-09
1.30071075321e-09
-6.03773045545e-09
1.40391941569e-09
-6.80633339758e-09
1.51238204743e-09
-7.63068742658e-09
1.62466227053e-09
-8.51177403042e-09
1.73904768814e-09
-9.44939303162e-09
1.85356749131e-09
-1.04424584189e-08
1.96600362444e-09
-1.14885142348e-08
2.07393984187e-09
-1.25840570923e-08
2.17480979469e-09
-1.37241312643e-08
2.26597857541e-09
-1.49027056717e-08
2.34482363996e-09
-1.61123718089e-08
2.40883888969e-09
-1.73447921126e-08
2.45573180816e-09
-1.85905079908e-08
2.48352777467e-09
-1.98394559803e-08
2.49065596767e-09
-2.10808695796e-08
2.47602428202e-09
-2.23038343151e-08
2.43906430675e-09
-2.34972436736e-08
2.37975155272e-09
-2.46503444131e-08
2.29859150734e-09
-2.57526944498e-08
2.19657859584e-09
-2.67946458071e-08
2.07512911698e-09
-2.77672590944e-08
1.93599754523e-09
-2.86626874825e-08
1.78118435282e-09
-2.94740261502e-08
1.61284315835e-09
-3.01955881983e-08
1.43319644814e-09
-3.0822695504e-08
1.24446175887e-09
-3.13518621381e-08
1.04879496656e-09
-3.178055174e-08
8.48246050059e-10
-3.21072955821e-08
6.44731855358e-10
-3.23314461918e-08
4.40017302106e-10
-3.24532569697e-08
2.35710089415e-10
-3.24736580836e-08
3.32607908447e-11
-3.23942886103e-08
-1.66033741327e-10
-3.22172874427e-08
-3.61045423889e-10
-3.19453588362e-08
-5.50757280396e-10
-3.15816105811e-08
-7.34268038771e-10
-3.11295822408e-08
-9.10775252974e-10
-3.05931244905e-08
-1.07956669546e-09
-2.99764190251e-08
-1.2400087859e-09
-2.92838926872e-08
-1.39154121443e-09
-2.85202236029e-08
-1.53366782513e-09
-2.76902841745e-08
-1.66595387868e-09
-2.67991310508e-08
-1.78801978493e-09
-2.58519716574e-08
-1.89954130713e-09
-2.48541365e-08
-2.00024629964e-09
-2.38110639775e-08
-2.08991773621e-09
-2.27282542486e-08
-2.16839320568e-09
-2.16112673786e-08
-2.23557031413e-09
-2.04656588267e-08
-2.29140841793e-09
-1.92969864989e-08
-2.33593571545e-09
-1.81107287313e-08
-2.36925249455e-09
-1.69122965725e-08
-2.39153908193e-09
-1.57069358902e-08
-2.40305981342e-09
-1.44997419073e-08
-2.40417105063e-09
-1.32955473369e-08
-2.39532528628e-09
-1.20989365624e-08
-2.37707886464e-09
-1.0914121208e-08
-2.3500963114e-09
-9.74495076317e-09
-2.31515844482e-09
-8.59477479674e-09
-2.273168811e-09
-7.4664438876e-09
-2.2251663994e-09
-6.36215169421e-09
-2.1723429334e-09
-5.28341262139e-09
-2.11607651983e-09
-4.23086959107e-09
-2.05798583992e-09
-3.20424231862e-09
-2.00001661242e-09
-2.20214329212e-09
-1.9445459292e-09
-1.22218113408e-09
-1.89443431777e-09
-2.61243225819e-10
-1.85278175437e-09
6.83947712769e-10
-1.82205787273e-09
1.61697598101e-09
-1.8029583473e-09
2.54157718088e-09
-1.79388013799e-09
3.46111537024e-09
-1.79201886872e-09
4.37799887442e-09
-1.79460878966e-09
5.29363642222e-09
-1.79927052365e-09
6.20842568406e-09
-1.80403812185e-09
7.12196615286e-09
-1.80728455391e-09
8.03309678178e-09
-1.80764577311e-09
8.94009202399e-09
-1.80395893188e-09
9.8406633174e-09
-1.79522332904e-09
1.07321245988e-08
-1.78057171946e-09
1.16113683956e-08
-1.75925826474e-09
1.24750164668e-08
-1.73064916096e-09
1.33193857751e-08
-1.69422375836e-09
1.41406345426e-08
-1.64957226745e-09
1.49347254967e-08
-1.59639965053e-09
1.56975697932e-08
-1.53452262688e-09
1.64249886955e-08
-1.46387107271e-09
1.7112853484e-08
-1.38448162861e-09
1.77570442596e-08
-1.29649572921e-09
1.8353583053e-08
-1.20015037607e-09
1.88985886505e-08
-1.09577402508e-09
1.938840108e-08
-9.83776171436e-10
1.98195325051e-08
-8.64642689597e-10
2.01887825557e-08
-7.38925707031e-10
2.04931864502e-08
-6.0723947596e-10
2.07301217316e-08
-4.702512194e-10
2.08972556447e-08
-3.28677645504e-10
2.09926451217e-08
-1.8327639595e-10
2.10146879932e-08
-3.48430700529e-11
2.09622089106e-08
1.15799341086e-10
2.08344091097e-08
2.67803546166e-10
2.06309664716e-08
4.20269306077e-10
2.03520041578e-08
5.72239771121e-10
1.99981867452e-08
7.22700029387e-10
1.95706982816e-08
8.70568938686e-10
1.90713410609e-08
1.01469378802e-09
1.8502525586e-08
1.15384052896e-09
1.78673688797e-08
1.28668821971e-09
1.71696903423e-08
1.41182243285e-09
1.64140988668e-08
1.52773732592e-09
1.56059783514e-08
1.63284364401e-09
1.4751540964e-08
1.72549342694e-09
1.38577738607e-08
1.80402017461e-09
1.29324264346e-08
1.86680367723e-09
1.19838863665e-08
1.91235524419e-09
1.10210753317e-08
1.93942496817e-09
1.00532414153e-08
1.94711766629e-09
9.08976902651e-09
1.93500774964e-09
8.13991404573e-09
1.90323177335e-09
7.21257358209e-09
1.85254557338e-09
6.31602109144e-09
1.78433145314e-09
5.45769448674e-09
1.70055696681e-09
4.64397809797e-09
1.60369372016e-09
3.88003284473e-09
1.49662219236e-09
3.16961466879e-09
1.38255551548e-09
2.51489295561e-09
1.2650291319e-09
1.91620372308e-09
1.14801109075e-09
1.37170513862e-09
1.03620583925e-09
8.76877909289e-10
9.3563406364e-10
4.24047417027e-10
8.54354123454e-10
8.03780525077e-10
-4.1169610604e-10
1.13656073195e-09
-8.25644543039e-10
1.15368927576e-09
-1.24992103162e-09
1.18843636745e-09
-1.69092257561e-09
1.23956139218e-09
-2.15451939939e-09
1.30644799166e-09
-2.64602963488e-09
1.3884894876e-09
-3.17058532477e-09
1.48503877782e-09
-3.73280184372e-09
1.59538843006e-09
-4.33708635895e-09
1.71871706848e-09
-4.9872248965e-09
1.85402491978e-09
-5.68667153828e-09
2.00006451809e-09
-6.43808700054e-09
2.15529080556e-09
-7.24360623257e-09
2.31781594729e-09
-8.10437233722e-09
2.48538941482e-09
-9.02079354937e-09
2.65538920763e-09
-9.99210199063e-09
2.82483957841e-09
-1.10166194317e-08
2.99044491343e-09
-1.20913669354e-08
3.14865170728e-09
-1.32123602877e-08
3.29572922136e-09
-1.43742928948e-08
3.42787544268e-09
-1.5570879366e-08
3.54133798094e-09
-1.67946262736e-08
3.63254987982e-09
-1.80372332849e-08
3.69826862648e-09
-1.92894535303e-08
3.73571224802e-09
-2.05415463009e-08
3.74268084981e-09
-2.17832113564e-08
3.71765407777e-09
-2.30040686981e-08
3.65985644313e-09
-2.41936339443e-08
3.56928234898e-09
-2.53417856769e-08
3.44668099268e-09
-2.64387394428e-08
3.29349884811e-09
-2.74754598817e-08
3.11179041215e-09
-2.84435959604e-08
2.90410103732e-09
-2.93358072563e-08
2.67333962608e-09
-3.01456417809e-08
2.42264588001e-09
-3.0867768075e-08
2.15526976401e-09
-3.14978002748e-08
1.87446272941e-09
-3.203244865e-08
1.58339326864e-09
-3.24693130775e-08
1.28507958e-09
-3.28069755253e-08
9.82346975376e-10
-3.30447877847e-08
6.77798775909e-10
-3.31829287316e-08
3.73806299562e-10
-3.32222039008e-08
7.25051147265e-11
-3.31640816111e-08
-2.24198302575e-10
-3.30105127923e-08
-5.14645248809e-10
-3.2763954422e-08
-7.97355548179e-10
-3.24272349654e-08
-1.07101868004e-09
-3.20035749268e-08
-1.33447286579e-09
-3.1496483552e-08
-1.586689371e-09
-3.0909771575e-08
-1.82675602605e-09
-3.02474781152e-08
-2.05386594405e-09
-2.95138730879e-08
-2.26730579073e-09
-2.87134090815e-08
-2.46644893011e-09
-2.78507107751e-08
-2.65074868383e-09
-2.69305466688e-08
-2.81973600014e-09
-2.5957803671e-08
-2.9730175367e-09
-2.49374738442e-08
-3.11027746792e-09
-2.38746131559e-08
-3.23127980586e-09
-2.27743388662e-08
-3.33587362198e-09
-2.16417722307e-08
-3.42399871615e-09
-2.04820426667e-08
-3.49569327329e-09
-1.93002149226e-08
-3.55110179179e-09
-1.81012968296e-08
-3.59048406989e-09
-1.68901520115e-08
-3.61422428089e-09
-1.56715085503e-08
-3.62284033052e-09
-1.44498585002e-08
-3.61699334693e-09
-1.32294651269e-08
-3.59749707818e-09
-1.20142502033e-08
-3.56532792121e-09
-1.08077975532e-08
-3.52163514648e-09
-9.61322892127e-09
-3.46775314741e-09
-8.43320305504e-09
-3.40521576831e-09
-7.26978447343e-09
-3.3357765896e-09
-6.12444771776e-09
-3.26143652245e-09
-4.99796601977e-09
-3.18448232293e-09
-3.89047854361e-09
-3.10752737107e-09
-2.8015140496e-09
-3.03352523016e-09
-1.73030350399e-09
-2.96566846308e-09
-6.76073678018e-10
-2.90702666684e-09
3.61624617408e-10
-2.85978030157e-09
1.38336623858e-09
-2.82471552147e-09
2.39041603697e-09
-2.80095476058e-09
3.38452723965e-09
-2.78614619892e-09
4.36729855677e-09
-2.77740568834e-09
5.33990961443e-09
-2.77189832112e-09
6.30289813253e-09
-2.76705297868e-09
7.2561990226e-09
-2.76060277339e-09
8.19910091523e-09
-2.75057468445e-09
9.13037997022e-09
-2.73525584515e-09
1.00482895476e-08
-2.71316049486e-09
1.09507030896e-08
-2.68300356279e-09
1.1835100012e-08
-2.64368319706e-09
1.26987025011e-08
-2.59427030058e-09
1.35384541935e-08
-2.53400373349e-09
1.43511506523e-08
-2.4622876304e-09
1.51334126002e-08
-2.37868999492e-09
1.58818106449e-08
-2.28293974196e-09
1.65928340996e-08
-2.174922896e-09
1.72630094429e-08
-2.05467612929e-09
1.78888649718e-08
-1.92237946085e-09
1.84670421987e-08
-1.77834678169e-09
1.89942567184e-08
-1.6230164675e-09
1.94674021885e-08
-1.45694078622e-09
1.98835083342e-08
-1.28077637142e-09
2.02398378699e-08
-1.09527430893e-09
2.05338432452e-08
-9.01271914727e-10
2.07632575977e-08
-6.99684520878e-10
2.09260524782e-08
-4.91499035556e-10
2.10205246219e-08
-2.77767338992e-10
2.10452561546e-08
-5.96004939382e-11
2.09991974508e-08
1.61839424812e-10
2.08816344353e-08
3.85341348314e-10
2.06922712377e-08
6.09614084152e-10
2.04312079472e-08
8.33278565225e-10
2.0099027639e-08
1.05486213099e-09
1.96967829365e-08
1.27278988743e-09
1.92260827207e-08
1.48537600753e-09
1.86890851201e-08
1.69081511816e-09
1.80885784422e-08
1.88717709067e-09
1.74279717617e-08
2.07240681914e-09
1.67113575106e-08
2.24433391359e-09
1.59434838652e-08
2.40069565725e-09
1.51297806643e-08
2.53917904453e-09
1.42762947726e-08
2.65748502116e-09
1.33896628573e-08
2.75341802008e-09
1.24769989785e-08
2.8249985877e-09
1.15458126384e-08
2.87059369006e-09
1.06038577666e-08
2.88905242396e-09
9.65901599603e-09
2.87983176966e-09
8.71913387585e-09
2.84309407465e-09
7.79190001575e-09
2.77976139819e-09
6.88469380078e-09
2.69151797452e-09
6.0044686163e-09
2.58076369703e-09
5.15760902152e-09
2.45053374041e-09
4.34979971058e-09
2.30441268867e-09
3.5858526979e-09
2.14648316027e-09
2.86950201341e-09
1.98136080542e-09
2.20311098854e-09
1.81438324871e-09
1.58725335475e-09
1.65204605584e-09
1.02002790374e-09
1.50284302549e-09
4.9546010756e-10
1.3789051175e-09
1.29923590647e-09
-4.44852135037e-10
1.58130324729e-09
-8.93388090124e-10
1.60212983073e-09
-1.35248672148e-09
1.64741132471e-09
-1.82873654363e-09
1.71572612022e-09
-2.32834992532e-09
1.80594573788e-09
-2.85693375086e-09
1.91700367641e-09
-3.41982247001e-09
2.04781971356e-09
-4.02172945716e-09
2.19723775024e-09
-4.66705214052e-09
2.36394258106e-09
-5.35945082479e-09
2.5463747855e-09
-6.10212503483e-09
2.74264918156e-09
-6.89736723929e-09
2.95049156688e-09
-7.74683038064e-09
3.16719637081e-09
-8.65108644228e-09
3.38960834352e-09
-9.60990110747e-09
3.61412593379e-09
-1.06218284266e-08
3.83673156338e-09
-1.16845051047e-08
4.05304653916e-09
-1.27943024013e-08
4.25841388714e-09
-1.39466534682e-08
4.44800708337e-09
-1.51357761723e-08
4.61696267575e-09
-1.63550427292e-08
4.76053297597e-09
-1.75967788618e-08
4.87425029911e-09
-1.885267643e-08
4.95409654211e-09
-2.01136635757e-08
4.99666383613e-09
-2.13703491885e-08
4.9992991553e-09
-2.26129460959e-08
4.96021600078e-09
-2.38317233547e-08
4.87856913251e-09
-2.50169534503e-08
4.75447832529e-09
-2.61593396531e-08
4.58900564028e-09
-2.72499541962e-08
4.38408026442e-09
-2.82806088123e-08
4.14238661262e-09
-2.92437579147e-08
3.86721797146e-09
-3.01327922312e-08
3.5623186687e-09
-3.09418968211e-08
3.23171910644e-09
-3.16662649777e-08
2.87958568839e-09
-3.23019179417e-08
2.51008490432e-09
-3.28458509221e-08
2.12727690517e-09
-3.3295832403e-08
1.73503059596e-09
-3.3650500978e-08
1.33696891872e-09
-3.39091644094e-08
9.36431837851e-10
-3.40718642813e-08
5.36462089643e-10
-3.41391901091e-08
1.39800493398e-10
-3.41123254658e-08
-2.51104610959e-10
-3.39928925691e-08
-6.34108775054e-10
-3.37829656029e-08
-1.00732185601e-09
-3.34849469836e-08
-1.3690681299e-09
-3.31015958769e-08
-1.71786104514e-09
-3.26359330699e-08
-2.05238314601e-09
-3.20912584212e-08
-2.37146549289e-09
-3.14710831476e-08
-2.67407218324e-09
-3.07791357784e-08
-2.95928571166e-09
-3.00193180164e-08
-3.22629746209e-09
-2.91956972652e-08
-3.4743997027e-09
-2.83124815029e-08
-3.70298211575e-09
-2.737399699e-08
-3.91153002799e-09
-2.63846778365e-08
-4.0996263401e-09
-2.53490282441e-08
-4.26695511779e-09
-2.42716228439e-08
-4.41330791864e-09
-2.31570535406e-08
-4.53859156011e-09
-2.20099371762e-08
-4.64283758065e-09
-2.08348476788e-08
-4.72621279346e-09
-1.96363281904e-08
-4.78903048922e-09
-1.84188097639e-08
-4.83176237862e-09
-1.7186625725e-08
-4.85505031157e-09
-1.59439185765e-08
-4.85971859664e-09
-1.46946551095e-08
-4.84678560408e-09
-1.34425236938e-08
-4.81747617424e-09
-1.21909500083e-08
-4.77323318591e-09
-1.09429887335e-08
-4.71573033122e-09
-9.70134430578e-09
-4.64688407921e-09
-8.46826915791e-09
-4.56886705635e-09
-7.24560999176e-09
-4.48411936614e-09
-6.03475145937e-09
-4.39535590963e-09
-4.83674924451e-09
-4.30555332421e-09
-3.6524030398e-09
-4.21788650915e-09
-2.48254278135e-09
-4.135552756e-09
-1.32816797821e-09
-4.06141679426e-09
-1.90473136908e-10
-3.99749965507e-09
9.29184562137e-10
-3.94438895432e-09
2.02997097199e-09
-3.90176627531e-09
3.11195219714e-09
-3.86814366293e-09
4.17536763091e-09
-3.84084687415e-09
5.22053004658e-09
-3.81707751866e-09
6.24749989346e-09
-3.79404921955e-09
7.25605067451e-09
-3.76917087014e-09
8.24554112148e-09
-3.74009210841e-09
9.21498500807e-09
-3.70471753149e-09
1.01629963626e-08
-3.66119930966e-09
1.1087900503e-08
-3.60792591686e-09
1.19877010499e-08
-3.54351156354e-09
1.28602010312e-08
-3.46678882546e-09
1.37029728596e-08
-3.37680360467e-09
1.451347784e-08
-3.27281140126e-09
1.52890331009e-08
-3.15427338486e-09
1.60269256459e-08
-3.02085124281e-09
1.67243749925e-08
-2.87240032612e-09
1.73786406786e-08
-2.70896086583e-09
1.79869810115e-08
-2.53074771088e-09
1.85467539327e-08
-2.33813878465e-09
1.90553729101e-08
-2.13166308678e-09
1.95104015255e-08
-1.91198846373e-09
1.99095078699e-08
-1.67990998694e-09
2.0250553554e-08
-1.43633899059e-09
2.05315482618e-08
-1.18229343793e-09
2.07507342539e-08
-9.18889408696e-10
2.09065430113e-08
-6.4733407771e-10
2.09976764439e-08
-3.68919530742e-10
2.10230673462e-08
-8.50170840165e-11
2.09819586394e-08
2.02929539277e-10
2.08738684771e-08
4.9340647685e-10
2.06986656428e-08
7.84798517918e-10
2.04565432275e-08
1.07537664296e-09
2.01480972847e-08
1.36328987801e-09
1.97743076323e-08
1.64655592199e-09
1.93366133977e-08
1.92305225071e-09
1.88368962864e-08
2.19050933205e-09
1.82775467656e-08
2.4465088011e-09
1.76614417092e-08
2.68848966944e-09
1.6991991103e-08
2.91376684359e-09
1.62730990281e-08
3.11956615843e-09
1.55091801322e-08
3.30308032687e-09
1.47050955286e-08
3.46154860233e-09
1.38661351108e-08
3.59236081622e-09
1.29979307683e-08
3.69318237665e-09
1.21064143547e-08
3.7620924067e-09
1.11977242453e-08
3.79772235593e-09
1.02781588083e-08
3.79937935022e-09
9.3540949066e-09
3.76713805195e-09
8.43194966708e-09
3.70188845919e-09
7.5181130293e-09
3.60533475359e-09
6.61890672334e-09
3.47995136995e-09
5.74050522741e-09
3.32891534793e-09
4.88885161855e-09
3.15604721034e-09
4.06950936838e-09
2.96580580342e-09
3.28745176098e-09
2.76339893963e-09
2.54671920234e-09
2.55509654721e-09
1.84986767943e-09
2.34887981071e-09
1.1970347684e-09
2.15565895619e-09
5.84228665982e-10
1.9916939648e-09
1.88345975455e-09
-4.78269979822e-10
2.05945345987e-09
-9.61299118917e-10
2.08505483586e-09
-1.45594929382e-09
2.14192899163e-09
-1.96881785721e-09
2.2285065238e-09
-2.50630670715e-09
2.34331264366e-09
-3.07420484046e-09
2.48482895691e-09
-3.67797788806e-09
2.65148541428e-09
-4.32239086352e-09
2.84159264042e-09
-5.01179099175e-09
3.05324464675e-09
-5.7496753393e-09
3.28421259321e-09
-6.53896880337e-09
3.53185447039e-09
-7.38157025895e-09
3.79305318415e-09
-8.27863427649e-09
4.0641790146e-09
-9.23014529113e-09
4.34108346302e-09
-1.02352166993e-08
4.61912030094e-09
-1.12917151764e-08
4.89319560796e-09
-1.23965899097e-08
5.15784673435e-09
-1.35455601639e-08
5.40734969412e-09
-1.47334807414e-08
5.63585475649e-09
-1.59540979222e-08
5.8375449505e-09
-1.72004510739e-08
6.00681478518e-09
-1.84646935917e-08
6.1384576475e-09
-1.97385228615e-08
6.22785638808e-09
-2.10130540128e-08
6.27116000212e-09
-2.22792617614e-08
6.26543987218e-09
-2.35278864354e-08
6.20880630112e-09
-2.47498637597e-08
6.10048222572e-09
-2.59362376096e-08
5.94081870247e-09
-2.70785515063e-08
5.73125837348e-09
-2.81687445739e-08
5.4742408679e-09
-2.91994841696e-08
5.17306822667e-09
-3.01640311097e-08
4.83173340435e-09
-3.10565044302e-08
4.45473717111e-09
-3.18717146843e-08
4.04689863427e-09
-3.26053637821e-08
3.6131830177e-09
-3.32538555697e-08
3.15854650172e-09
-3.3814441662e-08
2.68781410869e-09
-3.42850237686e-08
2.20558278537e-09
-3.4664259183e-08
1.71615813949e-09
-3.4951369376e-08
1.22351215355e-09
-3.51462170095e-08
7.31266055009e-10
-3.52491310509e-08
2.42684520525e-10
-3.52609634379e-08
-2.39313501267e-10
-3.51829626868e-08
-7.12139774005e-10
-3.50167754965e-08
-1.17354802571e-09
-3.47643358864e-08
-1.62153823865e-09
-3.44279025164e-08
-2.05433115135e-09
-3.40099704033e-08
-2.47034594204e-09
-3.35132936357e-08
-2.86817676867e-09
-3.29408226018e-08
-3.24657394225e-09
-3.22957136517e-08
-3.60442693166e-09
-3.15812888976e-08
-3.94075279084e-09
-3.08010315555e-08
-4.25468706071e-09
-2.99585644407e-08
-4.54547943617e-09
-2.9057630239e-08
-4.81249199106e-09
-2.81020849543e-08
-5.05520124945e-09
-2.70958629846e-08
-5.27320262919e-09
-2.60429820914e-08
-5.46621767485e-09
-2.49474937777e-08
-5.63410328148e-09
-2.38134967709e-08
-5.77686256576e-09
-2.26450737761e-08
-5.89465720698e-09
-2.14463110285e-08
-5.98782027672e-09
-2.02212230554e-08
-6.05686998673e-09
-1.8973776602e-08
-6.1025228928e-09
-1.77078057035e-08
-6.12570760608e-09
-1.64270394427e-08
-6.12757718164e-09
-1.51350107619e-08
-6.10952174302e-09
-1.38350896147e-08
-6.07317900922e-09
-1.2530391606e-08
-6.02044432951e-09
-1.12238231198e-08
-5.95347681734e-09
-9.91800346319e-09
-5.87470213122e-09
-8.61534134739e-09
-5.78680555377e-09
-7.31800169176e-09
-5.69271072055e-09
-6.02805221507e-09
-5.59552692957e-09
-4.74751056636e-09
-5.49844331866e-09
-3.4785534835e-09
-5.40453423198e-09
-2.22352769637e-09
-5.31645795828e-09
-9.8498421566e-10
-5.23606794777e-09
2.34684523476e-10
-5.16407343623e-09
1.43296736201e-09
-5.10007444201e-09
2.60806232563e-09
-5.04325482039e-09
3.75903396243e-09
-4.99184439513e-09
4.88510934781e-09
-4.9431695905e-09
5.98558973969e-09
-4.89455604924e-09
7.0597640711e-09
-4.8433623782e-09
8.1067544724e-09
-4.78710944981e-09
9.12554378506e-09
-4.72352447421e-09
1.0114882678e-08
-4.6505655601e-09
1.10733694487e-08
-4.5664307105e-09
1.19993910873e-08
-4.46956086637e-09
1.289122404e-08
-4.35864012199e-09
1.37469868501e-08
-4.23259426582e-09
1.45647450068e-08
-4.09058814666e-09
1.53424649307e-08
-3.93202122186e-09
1.60781160656e-08
-3.7565211386e-09
1.67696230021e-08
-3.56393511893e-09
1.74149626741e-08
-3.35431940381e-09
1.80121144579e-08
-3.12792718192e-09
1.85591522304e-08
-2.88519546988e-09
1.90541933702e-08
-2.6267316446e-09
1.94954860352e-08
-2.35330003794e-09
1.9881358284e-08
-2.06580929362e-09
2.02103011314e-08
-1.76530070084e-09
2.04809191284e-08
-1.45293805231e-09
2.069200991e-08
-1.12999896805e-09
2.08425176582e-08
-7.97867929366e-10
2.09316099602e-08
-4.58030490715e-10
2.09586355717e-08
-1.12068220384e-10
2.09231995347e-08
2.38347071061e-10
2.08251213435e-08
5.91459779604e-10
2.06645020339e-08
9.45399500791e-10
2.04416913393e-08
1.29816312633e-09
2.01573572363e-08
1.64760584722e-09
1.98124576407e-08
1.99143200664e-09
1.94083044323e-08
2.3271875165e-09
1.89465351815e-08
2.65225576937e-09
1.84291661808e-08
2.96386002575e-09
1.78585581477e-08
3.25907555449e-09
1.72374517439e-08
3.53485558591e-09
1.65689214481e-08
3.78807490623e-09
1.58563895893e-08
4.01559456328e-09
1.51035678008e-08
4.21434935957e-09
1.43144536084e-08
4.38145734987e-09
1.3493268632e-08
4.51434675055e-09
1.26444516203e-08
4.61089165581e-09
1.17726096206e-08
4.66954410056e-09
1.08825231032e-08
4.68944792289e-09
9.97912068652e-09
4.67052043002e-09
9.06749880735e-09
4.61349203834e-09
8.1529116173e-09
4.51990192603e-09
7.24078558735e-09
4.39205856986e-09
6.3366939347e-09
4.23298699656e-09
5.44632347235e-09
4.04639835159e-09
4.5753759612e-09
3.83673332234e-09
3.72940511281e-09
3.60935011541e-09
2.91352160175e-09
3.37096042679e-09
2.13190686167e-09
3.13047634632e-09
1.38699284502e-09
2.90055567455e-09
6.78179149288e-10
2.70049004572e-09
2.56163401565e-09
-5.10578314723e-10
2.5699049332e-09
-1.02692933645e-09
2.60129731544e-09
-1.55611573043e-09
2.67097717542e-09
-2.10491893554e-09
2.77721496975e-09
-2.67992012756e-09
2.91818901646e-09
-3.28707133693e-09
3.09190648135e-09
-3.93194993775e-09
3.29625176011e-09
-4.61934188394e-09
3.52892678084e-09
-5.35353118156e-09
3.78733684101e-09
-6.13784375858e-09
4.06847802692e-09
-6.97492166501e-09
4.36884420637e-09
-7.86627500269e-09
4.68436730436e-09
-8.8125736431e-09
5.0103963743e-09
-9.81323541936e-09
5.3417100244e-09
-1.08667532049e-08
5.6725611342e-09
-1.19703440043e-08
5.99675255781e-09
-1.31203148969e-08
6.30774311266e-09
-1.43117808118e-08
6.59878169013e-09
-1.55390679441e-08
6.86306896611e-09
-1.67954968894e-08
7.09393951789e-09
-1.80738152207e-08
7.2850617602e-09
-1.93660343777e-08
7.43064220244e-09
-2.0663876237e-08
7.52562884947e-09
-2.19586455345e-08
7.56589493073e-09
-2.32416695879e-08
7.54839697696e-09
-2.45041839012e-08
7.47128690265e-09
-2.57377418576e-08
7.33397609277e-09
-2.69340920063e-08
7.13713606567e-09
-2.80855382775e-08
6.88264367356e-09
-2.91847948538e-08
6.57346567157e-09
-3.02252869629e-08
6.21350258277e-09
-3.12009803437e-08
5.80739594794e-09
-3.21066231865e-08
5.36032544635e-09
-3.29375564197e-08
4.87780177003e-09
-3.36899040775e-08
4.36547916544e-09
-3.43603749916e-08
3.8289877962e-09
-3.49464110813e-08
3.27380156634e-09
-3.54459915623e-08
2.7051338524e-09
-3.58577482539e-08
2.12786888594e-09
-3.61807820105e-08
1.54651646538e-09
-3.64147526877e-08
9.65193302495e-10
-3.65597149298e-08
3.87617113415e-10
-3.66161807045e-08
-1.82888774642e-10
-3.65850211024e-08
-7.43329319164e-10
-3.64674554518e-08
-1.29115243107e-09
-3.62649557254e-08
-1.82406821162e-09
-3.5979291223e-08
-2.34003216848e-09
-3.56124444465e-08
-2.83722319479e-09
-3.516663901e-08
-3.31401649427e-09
-3.4644281572e-08
-3.76896193932e-09
-3.40479751979e-08
-4.20076536003e-09
-3.3380483137e-08
-4.6082752979e-09
-3.26447269291e-08
-4.99047307515e-09
-3.18437688147e-08
-5.34646766642e-09
-3.09807944894e-08
-5.67549387986e-09
-3.00591109343e-08
-5.97691438121e-09
-2.90821142223e-08
-6.25022470305e-09
-2.80532997845e-08
-6.49506097587e-09
-2.69762162123e-08
-6.71121010624e-09
-2.58544853512e-08
-6.89862145914e-09
-2.46917435597e-08
-7.05742029204e-09
-2.34916695578e-08
-7.18792143173e-09
-2.22579151536e-08
-7.29064393362e-09
-2.09941395697e-08
-7.3663247773e-09
-1.97039324169e-08
-7.41593280944e-09
-1.83908545329e-08
-7.44068061217e-09
-1.70583573185e-08
-7.4420358121e-09
-1.570983237e-08
-7.42172890929e-09
-1.43485338155e-08
-7.38175885899e-09
-1.29776430763e-08
-7.3243921149e-09
-1.1600205829e-08
-7.25215478915e-09
-1.02192252789e-08
-7.16781049063e-09
-8.83763211876e-09
-7.0743190219e-09
-7.45842194483e-09
-6.9747615332e-09
-6.08466093731e-09
-6.87221945307e-09
-4.7196303243e-09
-6.76958950106e-09
-3.36676783314e-09
-6.66933576318e-09
-2.02965023133e-09
-6.57321057062e-09
-7.11712739116e-10
-6.48202657245e-09
5.83653468241e-10
-6.3954661203e-09
1.85314099435e-09
-6.31275840528e-09
3.09425636337e-09
-6.23298571852e-09
4.30530139305e-09
-6.15423113431e-09
5.48472193236e-09
-6.07400302234e-09
6.63118582497e-09
-5.98984324562e-09
7.74339677178e-09
-5.89934726802e-09
8.82011610332e-09
-5.80026121301e-09
9.86004435933e-09
-5.69052104989e-09
1.08618799919e-08
-5.56828413217e-09
1.18242371298e-08
-5.43194550337e-09
1.27457267587e-08
-5.28014785763e-09