/*--------------------------------*- C++ -*----------------------------------*\
| =========                 |                                                 |
| \\      /  F ield         | OpenFOAM: The Open Source CFD Toolbox           |
|  \\    /   O peration     | Version:  2206                                  |
|   \\  /    A nd           | Website:  www.openfoam.com                      |
|    \\/     M anipulation  |                                                 |
\*---------------------------------------------------------------------------*/
FoamFile
{
    version     2.0;
    format      ascii;
    arch        "LSB;label=64;scalar=64";
    class       volScalarField;
    location    "4.5/water";
    object      reactingEulerHtcModel(T.liquid);
}
// * * * * * * * * * * * * * * * * * * * * * * * * * * * * * * * * * * * * * //

dimensions      [1 0 -3 -1 0 0 0];

internalField   uniform 0;

boundaryField
{
    maxY
    {
        type            calculated;
        value           uniform 0;
    }
    symmetric
    {
        type            symmetry;
    }
    maxX
    {
        type            calculated;
        value           uniform 0;
    }
    minY
    {
        type            calculated;
        value           uniform 0;
    }
    emptyPatch
    {
        type            empty;
    }
    water_to_solid
    {
        type            calculated;
        value           nonuniform List<scalar> 
70
(
-81.6119869521
-81.8639826255
-82.0908522898
-82.3047483742
-83.2845578659
-87.8761265313
-96.6838637431
-113.691097627
-169.714422002
-222.447579935
-240.58535609
-239.176276435
-237.726466627
-236.587689225
-236.881946751
-240.415174867
-242.879983013
-208.258808533
-205.921331927
-200.455348733
-204.824933363
-196.403238752
-204.297361026
-195.533927058
-203.622857316
-195.058385905
-203.687168051
-196.504300195
-203.903625205
-197.796558767
-204.409195553
-200.415293197
-204.842150361
-204.150373116
-207.021901588
-228.035775087
-244.241498494
-245.376397823
-241.79220931
-239.388512925
-240.009633656
-245.113280216
-195.075952822
-116.856011734
-107.061107784
-113.343171722
-104.35733128
-112.029165668
-104.315913176
-111.45940394
-105.182020702
-111.119994902
-106.481198581
-110.830733432
-107.862879147
-110.535712505
-109.162581422
-110.251632882
-110.059011439
-228.797433427
-229.712572979
-230.1953076
-230.666675815
-231.090893528
-231.392123004
-231.765128705
-232.738895706
-232.063874278
-137.037984039
-204.787793442
)
;
    }
}


// ************************************************************************* //
