/*--------------------------------*- C++ -*----------------------------------*\
| =========                 |                                                 |
| \\      /  F ield         | OpenFOAM: The Open Source CFD Toolbox           |
|  \\    /   O peration     | Version:  2212                                  |
|   \\  /    A nd           | Website:  www.openfoam.com                      |
|    \\/     M anipulation  |                                                 |
\*---------------------------------------------------------------------------*/
FoamFile
{
    version     2.0;
    format      ascii;
    arch        "LSB;label=64;scalar=64";
    class       volScalarField;
    location    "1740";
    object      Gch4;
}
// * * * * * * * * * * * * * * * * * * * * * * * * * * * * * * * * * * * * * //

dimensions      [1 -3 0 0 0 0 0];

internalField   nonuniform List<scalar> 
1024
(
1.9
1.89982
1.8994
1.89862
1.89735
1.89546
1.8928
1.88925
1.88476
1.87938
1.87326
1.86671
1.86008
1.85378
1.84816
1.84357
1.84077
1.84022
1.84159
1.84446
1.84842
1.85312
1.85815
1.86309
1.86755
1.87128
1.87419
1.8763
1.87773
1.87862
1.87911
1.87931
1.89994
1.89977
1.89934
1.89855
1.89727
1.89536
1.89267
1.8891
1.88457
1.87916
1.87302
1.86645
1.85982
1.85352
1.8479
1.84331
1.8405
1.83994
1.84131
1.84418
1.84815
1.85285
1.8579
1.86287
1.86737
1.87114
1.87407
1.87621
1.87766
1.87857
1.87906
1.87926
1.8998
1.89963
1.89919
1.89838
1.89707
1.89512
1.89238
1.88873
1.88414
1.87865
1.87246
1.86587
1.85922
1.85292
1.84729
1.84269
1.83985
1.83925
1.84062
1.84352
1.84754
1.8523
1.85739
1.86242
1.86699
1.87083
1.87383
1.87602
1.87751
1.87843
1.87893
1.87913
1.89956
1.89937
1.89892
1.89809
1.89673
1.89471
1.89188
1.88812
1.88341
1.87781
1.87153
1.86488
1.8582
1.85188
1.84622
1.84157
1.83865
1.83799
1.83938
1.84238
1.84654
1.85142
1.85663
1.86176
1.86643
1.87037
1.87346
1.87571
1.87724
1.87819
1.8787
1.87891
1.89917
1.89898
1.8985
1.89763
1.89622
1.8941
1.89113
1.88721
1.88233
1.87657
1.87015
1.8634
1.85667
1.8503
1.84458
1.83981
1.83674
1.83596
1.8374
1.84061
1.84505
1.8502
1.85562
1.86092
1.86572
1.86978
1.87296
1.87528
1.87685
1.87782
1.87834
1.87855
1.8986
1.8984
1.89791
1.89698
1.89548
1.89324
1.8901
1.88597
1.88085
1.87487
1.86827
1.86138
1.85454
1.84807
1.84221
1.83723
1.83389
1.83296
1.83448
1.83803
1.84295
1.84858
1.85437
1.85992
1.86491
1.86909
1.87235
1.87472
1.87631
1.87729
1.87781
1.87801
1.89782
1.89762
1.89709
1.89611
1.89451
1.89211
1.88875
1.88436
1.87894
1.87267
1.86581
1.85872
1.85171
1.84506
1.83897
1.83365
1.82992
1.82875
1.8304
1.83445
1.84007
1.84641
1.85278
1.85873
1.86396
1.86827
1.87159
1.87398
1.87556
1.87651
1.87701
1.8772
1.89681
1.89659
1.89603
1.89499
1.89327
1.89069
1.88708
1.88236
1.87659
1.86995
1.86276
1.85537
1.84811
1.84117
1.83471
1.82891
1.82465
1.82318
1.82496
1.82957
1.83609
1.84341
1.85061
1.85714
1.8627
1.86717
1.87053
1.87288
1.8744
1.87529
1.87574
1.87591
1.89553
1.8953
1.89471
1.89359
1.89175
1.88896
1.88506
1.87998
1.87378
1.86669
1.85907
1.8513
1.84366
1.83633
1.82939
1.82297
1.81806
1.81616
1.81792
1.82301
1.83044
1.83891
1.84722
1.85458
1.86063
1.86532
1.86871
1.87101
1.87243
1.87321
1.87358
1.8737
1.89396
1.89373
1.89311
1.89192
1.88994
1.88694
1.88272
1.87722
1.87053
1.86291
1.85477
1.84651
1.83842
1.8306
1.82308
1.81597
1.81029
1.80771
1.80907
1.81418
1.82217
1.83167
1.84121
1.84968
1.8565
1.86159
1.86513
1.86739
1.8687
1.86936
1.86963
1.86969
1.89211
1.89187
1.89122
1.88997
1.88785
1.88463
1.88008
1.87414
1.86691
1.8587
1.84997
1.84116
1.83255
1.82424
1.81617
1.80839
1.80183
1.79816
1.79837
1.80253
1.8101
1.81988
1.83031
1.83996
1.84787
1.85374
1.8577
1.86012
1.86143
1.86202
1.8622
1.86222
1.88999
1.88974
1.88907
1.88775
1.88551
1.88207
1.8772
1.87082
1.86305
1.85424
1.84493
1.83559
1.82655
1.81787
1.80946
1.80119
1.79373
1.78848
1.78651
1.78825
1.79367
1.80204
1.81203
1.82214
1.83109
1.83811
1.84302
1.84607
1.84773
1.84848
1.84872
1.84874
1.88763
1.88737
1.88668
1.88531
1.88298
1.87937
1.87423
1.86748
1.85924
1.84993
1.84014
1.83046
1.82123
1.81255
1.80425
1.79598
1.78788
1.78079
1.77576
1.77363
1.77491
1.77951
1.78669
1.79529
1.80403
1.81177
1.81783
1.82202
1.82456
1.82589
1.82645
1.8266
1.88512
1.88486
1.88417
1.88278
1.88041
1.87671
1.87144
1.86447
1.85597
1.84639
1.83642
1.82672
1.81777
1.8097
1.80227
1.79489
1.78698
1.77849
1.77037
1.76378
1.75973
1.75873
1.76072
1.76518
1.7712
1.77773
1.78379
1.78867
1.79211
1.79421
1.79528
1.79566
1.88265
1.8824
1.88171
1.88036
1.87803
1.8744
1.8692
1.86231
1.85389
1.84444
1.83469
1.82547
1.81738
1.81066
1.80508
1.79981
1.79342
1.78478
1.77454
1.76416
1.75509
1.74831
1.74432
1.74309
1.74426
1.74714
1.7509
1.75468
1.75785
1.76008
1.76137
1.7619
1.88051
1.88027
1.87962
1.87835
1.87619
1.87283
1.868
1.86158
1.8537
1.84486
1.83584
1.82755
1.82079
1.81598
1.81299
1.81083
1.80736
1.80007
1.78912
1.77612
1.76297
1.75123
1.74185
1.73523
1.73132
1.72975
1.72993
1.73116
1.73273
1.73414
1.73509
1.73553
1.8792
1.87896
1.87837
1.87723
1.87532
1.87239
1.86817
1.86254
1.8556
1.84777
1.8398
1.83264
1.82722
1.82415
1.82349
1.82438
1.82426
1.81952
1.80939
1.79515
1.77891
1.76284
1.74863
1.73724
1.729
1.72369
1.72083
1.71973
1.7197
1.72014
1.7206
1.72086
1.8789
1.87868
1.87813
1.87712
1.87546
1.87294
1.86936
1.86458
1.85866
1.85193
1.84505
1.83889
1.83441
1.83232
1.83287
1.83539
1.83739
1.83498
1.82669
1.81298
1.79544
1.77634
1.75801
1.74221
1.72988
1.72118
1.71574
1.71283
1.71165
1.71144
1.71161
1.71177
1.87938
1.87916
1.87865
1.87773
1.87627
1.87411
1.87106
1.86703
1.86203
1.85632
1.85043
1.84512
1.84124
1.83953
1.84031
1.84309
1.84557
1.84414
1.83724
1.82475
1.80756
1.78743
1.76672
1.74767
1.73186
1.72001
1.71204
1.70736
1.70509
1.70431
1.70425
1.70437
1.88032
1.88012
1.87964
1.87881
1.87751
1.87562
1.87302
1.86961
1.8654
1.8606
1.8556
1.85103
1.84761
1.84595
1.84636
1.84841
1.85006
1.84831
1.84185
1.83033
1.81412
1.79439
1.773
1.75218
1.73393
1.7195
1.70924
1.70281
1.6994
1.698
1.6977
1.69776
1.88133
1.88116
1.88075
1.88003
1.87889
1.87726
1.87503
1.87214
1.86861
1.86459
1.86039
1.85646
1.85335
1.85149
1.85107
1.85162
1.85146
1.84845
1.84166
1.83066
1.81551
1.79687
1.77606
1.75491
1.73542
1.71918
1.70702
1.69897
1.6944
1.69235
1.69177
1.69177
1.88176
1.88165
1.88139
1.88087
1.88001
1.87869
1.87685
1.87443
1.87148
1.86811
1.86453
1.86103
1.85794
1.8555
1.85373
1.85214
1.84955
1.84476
1.83726
1.82658
1.8125
1.79529
1.77581
1.75545
1.73587
1.71871
1.70518
1.69572
1.69004
1.68729
1.68639
1.68632
1.88067
1.8807
1.8807
1.88056
1.88015
1.87933
1.87797
1.87605
1.87358
1.87064
1.86735
1.86384
1.86025
1.85667
1.85302
1.84888
1.84365
1.83705
1.82885
1.81854
1.80568
1.79019
1.77251
1.75366
1.73492
1.71775
1.70347
1.69293
1.68623
1.68277
1.68152
1.68137
1.877
1.87723
1.87764
1.87808
1.87834
1.87818
1.87743
1.87598
1.87381
1.87093
1.86738
1.86322
1.8585
1.85326
1.84745
1.84078
1.83321
1.82519
1.81662
1.80688
1.79543
1.78191
1.76643
1.74958
1.73237
1.71597
1.70164
1.69044
1.68289
1.67874
1.67712
1.67686
1.86977
1.87028
1.8712
1.87232
1.8733
1.87383
1.8736
1.87241
1.87015
1.86682
1.86244
1.85708
1.85083
1.84378
1.836
1.82734
1.8182
1.80942
1.80094
1.79207
1.78218
1.77078
1.75771
1.74327
1.72808
1.71307
1.69935
1.68803
1.67992
1.67517
1.67316
1.67277
1.85832
1.85915
1.86057
1.8622
1.86364
1.86448
1.86434
1.86293
1.86011
1.8559
1.85038
1.8437
1.83605
1.82763
1.81858
1.80888
1.79915
1.79038
1.78249
1.77473
1.76647
1.75719
1.74661
1.73475
1.72195
1.70885
1.69633
1.68544
1.67717
1.67198
1.66961
1.66908
1.8423
1.84343
1.84511
1.84676
1.84794
1.84833
1.8476
1.84545
1.84179
1.83665
1.83021
1.82268
1.81434
1.80542
1.79611
1.78645
1.77711
1.76904
1.76211
1.75563
1.74899
1.74172
1.7335
1.72422
1.71399
1.70316
1.69235
1.68245
1.67446
1.6691
1.66644
1.66577
1.82153
1.82285
1.82427
1.82509
1.8251
1.82424
1.82238
1.81931
1.81495
1.80937
1.80271
1.79522
1.78714
1.77874
1.77018
1.76151
1.75334
1.74647
1.74077
1.73562
1.73052
1.72507
1.71899
1.71209
1.70438
1.69598
1.68725
1.67883
1.67161
1.66643
1.66363
1.66282
1.79576
1.79694
1.79731
1.79648
1.79475
1.79239
1.78945
1.7858
1.78136
1.7761
1.77012
1.76358
1.75669
1.74966
1.74262
1.7356
1.72911
1.72374
1.71938
1.71554
1.71185
1.70799
1.70374
1.69894
1.69351
1.68748
1.681
1.67443
1.66844
1.66383
1.66113
1.66023
1.76433
1.76478
1.76339
1.76079
1.75771
1.75451
1.75125
1.74781
1.74404
1.73987
1.73529
1.73039
1.72531
1.72017
1.71509
1.71008
1.70549
1.70174
1.69874
1.69614
1.69369
1.69119
1.68846
1.6854
1.68193
1.67804
1.67374
1.6692
1.66482
1.66118
1.65886
1.65798
1.72592
1.72499
1.7223
1.71929
1.71636
1.71364
1.71112
1.70871
1.70626
1.70366
1.70087
1.69794
1.69492
1.69188
1.6889
1.68598
1.68332
1.68116
1.67944
1.67797
1.6766
1.67523
1.67375
1.6721
1.67023
1.66813
1.66578
1.66323
1.66065
1.65835
1.65673
1.65604
1.67894
1.67821
1.67682
1.6755
1.6743
1.67323
1.67229
1.67143
1.67059
1.66973
1.66881
1.66785
1.66687
1.66588
1.66491
1.66397
1.66311
1.66242
1.66187
1.6614
1.66097
1.66054
1.66008
1.65957
1.65899
1.65834
1.65762
1.65682
1.656
1.65523
1.65465
1.65436
)
;

boundaryField
{
    movingWall
    {
        type            fixedValue;
        value           uniform 1.6535;
    }
    fixedWalls
    {
        type            zeroGradient;
    }
    floor
    {
        type            zeroGradient;
    }
    frontAndBack
    {
        type            empty;
    }
}


// ************************************************************************* //
