/*--------------------------------*- C++ -*----------------------------------*\
| =========                 |                                                 |
| \\      /  F ield         | OpenFOAM: The Open Source CFD Toolbox           |
|  \\    /   O peration     | Version:  2212                                  |
|   \\  /    A nd           | Website:  www.openfoam.com                      |
|    \\/     M anipulation  |                                                 |
\*---------------------------------------------------------------------------*/
FoamFile
{
    version     2.0;
    format      ascii;
    arch        "LSB;label=64;scalar=64";
    class       volScalarField;
    location    "1740";
    object      Sch4;
}
// * * * * * * * * * * * * * * * * * * * * * * * * * * * * * * * * * * * * * //

dimensions      [1 -3 0 0 0 0 0];

internalField   nonuniform List<scalar> 
1024
(
0.0371069
0.0371195
0.0371504
0.0372071
0.0372987
0.0374357
0.0376285
0.037886
0.038212
0.0386037
0.0390489
0.0395269
0.0400113
0.0404743
0.0408894
0.0412296
0.04144
0.0414853
0.0413876
0.0411793
0.0408901
0.0405469
0.0401791
0.0398182
0.0394922
0.0392197
0.0390077
0.0388536
0.0387491
0.0386841
0.0386485
0.038634
0.037111
0.0371237
0.0371549
0.0372121
0.0373047
0.0374431
0.0376378
0.0378975
0.0382259
0.0386198
0.0390666
0.0395457
0.0400306
0.0404936
0.0409086
0.041249
0.04146
0.0415061
0.0414087
0.0412002
0.0409104
0.0405665
0.0401975
0.0398346
0.039506
0.0392307
0.0390161
0.03886
0.0387542
0.0386884
0.0386524
0.0386378
0.0371209
0.0371338
0.0371657
0.0372242
0.0373188
0.0374603
0.0376592
0.0379238
0.0382575
0.0386562
0.0391069
0.0395885
0.0400746
0.040538
0.0409535
0.0412952
0.0415087
0.0415571
0.0414598
0.0412487
0.0409554
0.0406078
0.040235
0.0398677
0.0395339
0.0392533
0.0390339
0.0388741
0.0387658
0.0386986
0.0386619
0.0386471
0.0371388
0.0371521
0.037185
0.0372455
0.0373434
0.0374899
0.0376955
0.0379683
0.0383107
0.0387176
0.0391749
0.0396609
0.0401494
0.0406143
0.0410319
0.0413777
0.0415972
0.0416504
0.041552
0.0413335
0.0410299
0.0406725
0.0402914
0.0399164
0.039575
0.039287
0.0390614
0.0388968
0.0387853
0.0387162
0.0386788
0.0386636
0.037167
0.0371809
0.0372152
0.0372784
0.0373811
0.0375346
0.0377499
0.0380343
0.0383894
0.0388084
0.0392756
0.0397686
0.0402617
0.0407304
0.0411532
0.0415077
0.0417391
0.0418006
0.0416988
0.0414651
0.0411405
0.0407631
0.040366
0.0399786
0.039627
0.0393304
0.0390979
0.0389284
0.0388139
0.0387433
0.0387052
0.0386899
0.0372081
0.0372226
0.0372586
0.0373254
0.0374342
0.037597
0.0378249
0.0381248
0.0384969
0.0389324
0.0394136
0.0399172
0.0404182
0.0408945
0.0413279
0.0416985
0.0419496
0.0420236
0.0419155
0.0416563
0.0412962
0.040884
0.0404595
0.0400526
0.0396876
0.0393818
0.0391431
0.03897
0.0388538
0.0387826
0.0387447
0.0387296
0.0372644
0.0372796
0.0373177
0.0373888
0.037505
0.0376792
0.0379227
0.0382422
0.0386359
0.0390928
0.039593
0.0401119
0.0406259
0.0411158
0.0415673
0.0419634
0.0422439
0.042335
0.0422177
0.0419228
0.0415104
0.0410451
0.0405777
0.0401414
0.0397583
0.0394426
0.0391995
0.0390253
0.0389098
0.0388403
0.0388038
0.0387897
0.0373382
0.0373542
0.0373945
0.0374703
0.037595
0.0377826
0.0380447
0.0383875
0.0388077
0.0392916
0.0398166
0.0403572
0.040891
0.0414023
0.0418812
0.0423135
0.0426335
0.0427476
0.0426215
0.0422847
0.0418065
0.0412687
0.0407395
0.0402599
0.0398518
0.0395246
0.0392786
0.0391064
0.0389952
0.0389301
0.0388973
0.0388851
0.0374312
0.0374478
0.0374905
0.0375715
0.0377055
0.0379079
0.0381912
0.0385611
0.0390127
0.0395296
0.0400863
0.040656
0.0412174
0.0417587
0.0422742
0.0427525
0.0431216
0.0432683
0.0431432
0.0427719
0.0422262
0.041603
0.0409919
0.0404509
0.0400062
0.0396623
0.039413
0.0392451
0.0391412
0.0390838
0.0390568
0.0390479
0.0375445
0.0375618
0.0376067
0.0376929
0.0378368
0.0380551
0.0383615
0.0387619
0.0392496
0.0398053
0.0404007
0.0410067
0.041603
0.042181
0.0427393
0.0432695
0.0436966
0.043894
0.0437989
0.0434261
0.0428393
0.04214
0.0414374
0.0408138
0.0403122
0.0399379
0.0396783
0.0395122
0.0394162
0.0393679
0.0393485
0.0393437
0.0376786
0.0376965
0.0377435
0.0378348
0.0379885
0.0382231
0.0385539
0.0389867
0.039514
0.0401132
0.0407522
0.0413993
0.0420337
0.0426493
0.0432488
0.0438296
0.0443221
0.0446005
0.0445911
0.0442886
0.0437329
0.0430129
0.0422443
0.0415334
0.0409502
0.0405184
0.0402271
0.0400489
0.0399526
0.0399095
0.0398959
0.0398947
0.0378328
0.0378512
0.0379001
0.037996
0.0381587
0.0384089
0.0387633
0.0392285
0.0397956
0.0404389
0.0411216
0.0418078
0.0424748
0.0431177
0.0437439
0.0443613
0.0449207
0.045317
0.0454699
0.0453463
0.0449489
0.0443329
0.0435961
0.0428503
0.0421897
0.0416719
0.0413104
0.0410855
0.0409632
0.040908
0.0408904
0.0408886
0.0380042
0.0380229
0.0380732
0.0381726
0.0383425
0.0386053
0.0389795
0.0394722
0.0400734
0.0407538
0.0414712
0.0421837
0.0428646
0.0435083
0.044127
0.0447452
0.0453523
0.0458857
0.0462654
0.0464296
0.0463391
0.0460015
0.0454716
0.0448361
0.0441906
0.0436181
0.0431705
0.0428611
0.0426729
0.0425746
0.0425332
0.042522
0.0381858
0.0382046
0.0382554
0.0383562
0.0385293
0.0387983
0.0391829
0.039691
0.0403115
0.0410116
0.041743
0.0424561
0.0431169
0.0437161
0.0442697
0.0448225
0.0454173
0.0460551
0.046665
0.0471607
0.0474664
0.047544
0.0473977
0.0470683
0.0466223
0.046138
0.0456889
0.0453269
0.0450718
0.0449162
0.0448373
0.0448091
0.0383646
0.0383832
0.0384331
0.0385319
0.0387014
0.0389657
0.0393449
0.0398474
0.0404618
0.0411529
0.0418667
0.0425446
0.0431417
0.0436404
0.044057
0.0444544
0.0449361
0.045587
0.0463556
0.0471344
0.047815
0.0483225
0.0486223
0.0487145
0.0486276
0.0484125
0.0481323
0.0478502
0.0476143
0.0474479
0.0473516
0.0473122
0.038519
0.038537
0.0385843
0.0386766
0.0388339
0.0390788
0.0394307
0.039899
0.0404732
0.0411188
0.0417789
0.0423868
0.0428845
0.043241
0.043466
0.0436314
0.0438974
0.0444481
0.0452715
0.046247
0.0472326
0.0481125
0.0488149
0.0493104
0.0496023
0.0497184
0.0497032
0.0496103
0.0494914
0.0493856
0.049314
0.0492809
0.0386132
0.0386303
0.0386738
0.0387566
0.0388954
0.0391095
0.0394168
0.0398268
0.0403323
0.0409028
0.0414842
0.0420074
0.042405
0.0426311
0.0426813
0.0426202
0.0426365
0.0429977
0.0437602
0.0448282
0.0460458
0.0472505
0.0483161
0.0491694
0.0497873
0.0501838
0.0503971
0.0504774
0.0504777
0.0504439
0.0504083
0.0503881
0.0386328
0.0386491
0.0386891
0.038763
0.0388838
0.039067
0.0393278
0.0396756
0.0401063
0.0405955
0.0410964
0.0415444
0.0418711
0.0420229
0.0419826
0.0417989
0.0416563
0.0418437
0.0424692
0.043498
0.0448132
0.0462446
0.0476186
0.0488033
0.049728
0.0503796
0.0507873
0.0510039
0.0510908
0.0511053
0.0510921
0.051079
0.0385965
0.0386121
0.0386495
0.0387163
0.0388226
0.0389804
0.0392016
0.0394946
0.0398576
0.0402722
0.0407
0.0410855
0.0413662
0.0414886
0.0414297
0.041226
0.0410476
0.0411615
0.0416829
0.0426202
0.0439092
0.0454169
0.0469691
0.0483979
0.0495838
0.0504729
0.0510701
0.0514206
0.0515902
0.0516474
0.0516511
0.051642
0.0385264
0.0385411
0.0385757
0.0386365
0.0387311
0.0388685
0.0390578
0.0393053
0.0396101
0.0399585
0.0403203
0.0406509
0.040898
0.0410158
0.0409835
0.0408331
0.0407159
0.0408529
0.0413411
0.0422061
0.0434205
0.0448989
0.0465021
0.0480627
0.0494316
0.0505149
0.0512845
0.0517669
0.0520227
0.0521263
0.0521483
0.0521431
0.0384521
0.0384646
0.0384943
0.0385469
0.0386291
0.0387479
0.03891
0.0391196
0.0393753
0.0396664
0.0399702
0.0402534
0.0404778
0.0406105
0.0406398
0.0406002
0.0406162
0.0408466
0.0413589
0.0421843
0.0433199
0.0447161
0.046275
0.0478602
0.0493229
0.0505419
0.0514545
0.0520591
0.0524017
0.0525552
0.052598
0.0525974
0.0384217
0.0384291
0.0384483
0.0384855
0.038548
0.0386432
0.0387768
0.0389516
0.0391652
0.0394092
0.0396681
0.0399206
0.040144
0.0403206
0.0404502
0.0405693
0.0407661
0.0411277
0.0416919
0.0424929
0.0435474
0.0448368
0.0462957
0.0478219
0.0492913
0.0505795
0.0515958
0.0523062
0.0527331
0.0529392
0.0530056
0.0530104
0.0385046
0.0385022
0.0385016
0.0385105
0.0385391
0.0385981
0.0386954
0.0388341
0.0390127
0.0392257
0.0394645
0.0397195
0.039981
0.0402435
0.0405128
0.0408216
0.0412142
0.04171
0.042325
0.043098
0.044061
0.0452212
0.046545
0.0479586
0.049364
0.0506532
0.051726
0.0525182
0.053022
0.0532819
0.0533747
0.0533861
0.0387805
0.0387626
0.0387315
0.0386977
0.0386767
0.0386856
0.0387383
0.0388427
0.0390004
0.03921
0.0394686
0.0397733
0.0401204
0.0405074
0.0409383
0.0414358
0.0420014
0.0426027
0.0432451
0.043974
0.0448314
0.0458436
0.0470035
0.048266
0.0495575
0.0507888
0.0518658
0.0527075
0.053275
0.0535868
0.0537083
0.0537276
0.0393215
0.039283
0.0392135
0.0391295
0.0390541
0.0390124
0.0390268
0.0391128
0.0392776
0.039522
0.0398441
0.0402398
0.0407024
0.0412245
0.0418029
0.0424485
0.0431313
0.043788
0.0444225
0.0450863
0.045827
0.0466807
0.047659
0.048742
0.0498814
0.0510079
0.0520392
0.0528906
0.0535004
0.0538577
0.0540086
0.0540373
0.040178
0.0401157
0.0400092
0.0398861
0.0397773
0.039713
0.039721
0.0398237
0.040031
0.0403423
0.040751
0.0412463
0.041814
0.0424397
0.0431128
0.043836
0.0445624
0.0452178
0.0458083
0.0463888
0.0470071
0.0477017
0.0484944
0.0493833
0.0503431
0.0513267
0.0522676
0.0530863
0.0537092
0.0540994
0.0542777
0.0543172
0.0413761
0.0412912
0.0411651
0.0410409
0.0409515
0.0409215
0.040974
0.0411321
0.0414038
0.0417846
0.0422631
0.0428226
0.0434436
0.0441074
0.0448001
0.0455203
0.0462175
0.0468205
0.0473383
0.0478235
0.0483202
0.0488641
0.0494796
0.0501753
0.0509428
0.051756
0.0525685
0.053313
0.0539143
0.0543176
0.0545176
0.0545685
0.0429286
0.0428303
0.0427238
0.0426613
0.0426599
0.0427232
0.0428608
0.0430891
0.0434129
0.0438281
0.0443234
0.0448813
0.0454824
0.0461084
0.0467459
0.0473922
0.0480019
0.048515
0.0489412
0.0493265
0.049708
0.0501155
0.0505713
0.0510879
0.0516667
0.0522972
0.0529533
0.0535867
0.0541301
0.0545203
0.0547308
0.054792
0.0448557
0.0447673
0.0447395
0.0448011
0.0449305
0.0451062
0.045325
0.0455967
0.0459274
0.0463189
0.0467646
0.0472517
0.0477646
0.0482891
0.0488139
0.0493367
0.0498214
0.0502221
0.0505479
0.0508347
0.0511111
0.0513996
0.051718
0.052078
0.052485
0.0529374
0.0534246
0.0539186
0.0543694
0.0547169
0.0549209
0.0549884
0.0472072
0.0471731
0.0472772
0.0474715
0.047701
0.0479398
0.0481833
0.0484401
0.0487204
0.0490316
0.0493731
0.0497382
0.0501172
0.0505
0.050879
0.0512522
0.0515944
0.0518744
0.052099
0.0522931
0.0524762
0.0526636
0.0528677
0.0530971
0.0533571
0.0536496
0.0539724
0.0543134
0.0546435
0.0549174
0.0550931
0.0551591
0.0500807
0.0501497
0.0503515
0.0505765
0.0507953
0.0509987
0.0511864
0.0513666
0.0515495
0.0517434
0.0519509
0.0521697
0.0523948
0.052621
0.0528435
0.0530612
0.0532596
0.053421
0.0535495
0.0536592
0.0537613
0.0538642
0.0539749
0.0540985
0.0542384
0.0543963
0.0545728
0.0547645
0.054959
0.0551322
0.0552542
0.0553063
0.0535959
0.0536502
0.0537545
0.0538535
0.0539431
0.0540226
0.0540928
0.0541571
0.0542198
0.0542845
0.0543528
0.0544244
0.0544977
0.0545712
0.0546433
0.0547136
0.0547776
0.0548294
0.0548706
0.0549055
0.0549377
0.05497
0.0550045
0.0550427
0.0550859
0.0551345
0.055189
0.0552488
0.0553108
0.0553687
0.0554128
0.0554341
)
;

boundaryField
{
    movingWall
    {
        type            fixedValue;
        value           uniform 0.0555;
    }
    fixedWalls
    {
        type            zeroGradient;
    }
    floor
    {
        type            zeroGradient;
    }
    frontAndBack
    {
        type            empty;
    }
}


// ************************************************************************* //
