/*--------------------------------*- C++ -*----------------------------------*\
| =========                 |                                                 |
| \\      /  F ield         | OpenFOAM: The Open Source CFD Toolbox           |
|  \\    /   O peration     | Version:  2212                                  |
|   \\  /    A nd           | Website:  www.openfoam.com                      |
|    \\/     M anipulation  |                                                 |
\*---------------------------------------------------------------------------*/
FoamFile
{
    version     2.0;
    format      ascii;
    arch        "LSB;label=64;scalar=64";
    class       volScalarField;
    location    "1740";
    object      Sco2;
}
// * * * * * * * * * * * * * * * * * * * * * * * * * * * * * * * * * * * * * //

dimensions      [1 -3 0 0 0 0 0];

internalField   nonuniform List<scalar> 
1024
(
0.00595599
0.00595835
0.00596417
0.00597485
0.0059921
0.0060179
0.00605423
0.00610271
0.00616411
0.00623787
0.00632171
0.00641173
0.00650297
0.00659016
0.00666834
0.00673242
0.00677203
0.00678054
0.00676213
0.00672288
0.00666838
0.00660373
0.00653445
0.00646645
0.00640504
0.00635371
0.00631377
0.00628473
0.00626505
0.00625279
0.00624609
0.00624336
0.00595675
0.00595914
0.00596502
0.0059758
0.00599324
0.0060193
0.00605598
0.00610488
0.00616673
0.0062409
0.00632505
0.00641527
0.00650659
0.00659379
0.00667195
0.00673607
0.0067758
0.00678446
0.00676611
0.00672681
0.00667222
0.00660743
0.00653791
0.00646953
0.00640763
0.00635577
0.00631535
0.00628594
0.00626601
0.00625361
0.00624683
0.00624408
0.00595862
0.00596106
0.00596706
0.00597807
0.0059959
0.00602254
0.00606
0.00610984
0.00617268
0.00624777
0.00633265
0.00642334
0.00651488
0.00660216
0.00668041
0.00674477
0.00678497
0.00679407
0.00677572
0.00673595
0.00668068
0.0066152
0.00654497
0.00647577
0.0064129
0.00636002
0.0063187
0.00628859
0.0062682
0.00625552
0.00624862
0.00624582
0.00596199
0.00596451
0.00597069
0.00598208
0.00600053
0.00602812
0.00606685
0.00611822
0.0061827
0.00625934
0.00634546
0.00643698
0.00652898
0.00661654
0.00669518
0.0067603
0.00680164
0.00681165
0.00679308
0.00675192
0.00669472
0.0066274
0.0065556
0.00648495
0.00642064
0.00636639
0.00632387
0.00629286
0.00627187
0.00625885
0.00625179
0.00624894
0.00596731
0.00596992
0.00597638
0.00598829
0.00600763
0.00603655
0.00607708
0.00613065
0.00619752
0.00627643
0.00636442
0.00645727
0.00655013
0.0066384
0.00671803
0.00678481
0.00682837
0.00683993
0.00682075
0.0067767
0.00671555
0.00664445
0.00656965
0.00649666
0.00643043
0.00637455
0.00633075
0.00629882
0.00627726
0.00626395
0.00625677
0.00625389
0.00597505
0.00597778
0.00598457
0.00599715
0.00601763
0.0060483
0.00609121
0.0061477
0.00621778
0.00629979
0.00639042
0.00648526
0.00657962
0.00666933
0.00675095
0.00682075
0.00686804
0.00688194
0.00686156
0.00681272
0.00674486
0.00666721
0.00658725
0.0065106
0.00644184
0.00638422
0.00633927
0.00630665
0.00628476
0.00627136
0.0062642
0.00626137
0.00598567
0.00598853
0.0059957
0.00600908
0.00603096
0.00606377
0.00610965
0.0061698
0.00624396
0.00633001
0.0064242
0.00652194
0.00661874
0.00671102
0.00679606
0.00687067
0.00692348
0.00694061
0.00691849
0.00686289
0.00678521
0.00669754
0.00660951
0.00652731
0.00645515
0.00639568
0.00634988
0.00631706
0.00629531
0.00628221
0.00627534
0.00627268
0.00599957
0.00600257
0.00601016
0.00602445
0.00604793
0.00608325
0.00613262
0.00619719
0.00627633
0.00636746
0.00646634
0.00656816
0.00666869
0.006765
0.0068552
0.00693663
0.00699687
0.00701833
0.00699453
0.00693105
0.00684094
0.00673964
0.00663995
0.00654961
0.00647274
0.0064111
0.00636477
0.00633233
0.00631138
0.00629912
0.00629293
0.00629064
0.00601708
0.00602022
0.00602825
0.0060435
0.00606874
0.00610686
0.00616022
0.00622989
0.00631496
0.0064123
0.00651715
0.00662445
0.0067302
0.00683216
0.00692926
0.00701934
0.00708883
0.00711642
0.00709281
0.00702281
0.00691998
0.00680258
0.00668746
0.00658556
0.00650179
0.00643701
0.00639006
0.00635843
0.00633887
0.00632804
0.00632296
0.00632128
0.00603843
0.00604169
0.00605015
0.00606639
0.00609348
0.0061346
0.00619232
0.00626772
0.00635958
0.00646426
0.0065764
0.00669055
0.00680288
0.00691175
0.0070169
0.00711677
0.00719716
0.00723429
0.0072163
0.00714602
0.00703543
0.00690367
0.00677132
0.00665386
0.00655938
0.00648889
0.00643999
0.00640871
0.00639063
0.00638153
0.00637788
0.00637698
0.0060637
0.00606707
0.00607593
0.00609313
0.00612206
0.00616626
0.00622856
0.0063101
0.00640941
0.00652229
0.00664266
0.00676455
0.00688405
0.00700001
0.00711293
0.00722232
0.00731504
0.00736741
0.00736555
0.00730849
0.00720374
0.00706807
0.00692326
0.00678934
0.0066795
0.00659817
0.00654331
0.00650975
0.00649162
0.0064835
0.00648094
0.00648072
0.00609276
0.00609621
0.00610543
0.00612349
0.00615415
0.00620128
0.00626804
0.00635568
0.0064625
0.00658369
0.00671229
0.00684154
0.00696719
0.00708831
0.00720625
0.00732251
0.00742784
0.00750243
0.00753113
0.00750776
0.00743281
0.0073167
0.00717787
0.00703736
0.00691291
0.00681538
0.0067473
0.00670494
0.00668191
0.00667153
0.00666822
0.00666788
0.00612505
0.00612857
0.00613805
0.00615678
0.00618879
0.0062383
0.00630879
0.00640161
0.00651487
0.00664306
0.0067782
0.00691243
0.00704069
0.00716195
0.00727847
0.0073949
0.00750922
0.00760962
0.00768105
0.00771189
0.00769475
0.00763108
0.0075312
0.00741144
0.00728982
0.00718197
0.00709765
0.00703938
0.00700395
0.00698543
0.00697764
0.00697554
0.00615929
0.00616283
0.00617241
0.0061914
0.006224
0.00627469
0.00634715
0.00644288
0.00655978
0.00669168
0.00682947
0.00696381
0.00708829
0.00720116
0.00730545
0.00740954
0.00752154
0.00764162
0.00775642
0.00784972
0.00790722
0.00792175
0.00789413
0.00783203
0.00774797
0.00765673
0.00757211
0.00750391
0.00745586
0.00742655
0.00741169
0.00740638
0.006193
0.00619651
0.00620591
0.00622452
0.00625647
0.00630626
0.00637771
0.00647239
0.00658815
0.00671837
0.00685285
0.00698056
0.00709304
0.00718699
0.00726547
0.00734029
0.00743098
0.00755353
0.00769823
0.00784485
0.00797297
0.00806851
0.00812492
0.00814223
0.00812584
0.00808528
0.00803249
0.00797934
0.00793489
0.00790355
0.0078854
0.00787797
0.00622213
0.00622552
0.00623443
0.00625182
0.00628146
0.00632759
0.00639392
0.00648215
0.00659036
0.00671201
0.00683638
0.0069509
0.00704468
0.00711185
0.00715422
0.00718534
0.00723541
0.00733907
0.00749408
0.00767775
0.00786333
0.00802899
0.00816124
0.00825452
0.00830948
0.00833132
0.00832846
0.00831095
0.00828854
0.00826862
0.00825512
0.0082489
0.0062399
0.00624312
0.00625132
0.00626692
0.00629308
0.00633343
0.00639133
0.00646859
0.00656385
0.00667136
0.00678092
0.00687951
0.00695442
0.00699702
0.00700648
0.00699495
0.00699798
0.00706595
0.00720949
0.00741057
0.00763982
0.00786665
0.00806728
0.00822796
0.0083443
0.00841896
0.00845912
0.00847426
0.0084743
0.00846793
0.00846124
0.00845744
0.00624363
0.0062467
0.00625424
0.00626816
0.00629092
0.00632545
0.0063746
0.00644014
0.0065213
0.0066135
0.00670789
0.00679233
0.0068539
0.00688251
0.00687492
0.00684031
0.00681342
0.00684865
0.00696639
0.00716007
0.0074077
0.00767722
0.00793593
0.008159
0.00833312
0.00845583
0.00853259
0.00857338
0.00858975
0.00859248
0.00858999
0.00858753
0.0062368
0.00623975
0.00624679
0.00625938
0.00627942
0.00630914
0.00635084
0.00640606
0.00647447
0.0065526
0.00663323
0.0067059
0.00675879
0.00678188
0.0067708
0.00673243
0.0066988
0.00672019
0.00681834
0.00699479
0.00723748
0.00752135
0.00781361
0.00808265
0.00830596
0.00847338
0.00858583
0.00865184
0.00868377
0.00869455
0.00869525
0.00869354
0.00622361
0.00622639
0.00623291
0.00624436
0.00626219
0.00628808
0.00632375
0.0063704
0.00642786
0.00649351
0.00656171
0.00662402
0.0066706
0.00669283
0.00668674
0.00665843
0.00663632
0.00666208
0.00675396
0.00691679
0.00714545
0.0074238
0.00772567
0.00801953
0.00827729
0.00848127
0.0086262
0.00871705
0.00876522
0.00878472
0.00878887
0.00878789
0.00620961
0.00621197
0.00621757
0.00622749
0.00624297
0.00626537
0.00629591
0.00633541
0.00638362
0.00643847
0.00649574
0.00654913
0.00659143
0.00661646
0.00662199
0.00661451
0.00661752
0.00666086
0.00675728
0.00691269
0.00712648
0.00738937
0.00768291
0.0079814
0.00825681
0.00848637
0.00865821
0.00877206
0.00883659
0.00886548
0.00887355
0.00887343
0.00620389
0.00620528
0.0062089
0.0062159
0.00622768
0.00624563
0.00627082
0.00630376
0.00634403
0.00639002
0.00643882
0.00648641
0.0065285
0.0065618
0.00658622
0.00660864
0.00664567
0.00671375
0.00681996
0.00697077
0.00716932
0.00741209
0.00768679
0.00797418
0.00825087
0.00849344
0.00868482
0.00881859
0.00889897
0.00893778
0.0089503
0.0089512
0.00621947
0.00621902
0.00621892
0.0062206
0.00622601
0.00623713
0.00625547
0.00628162
0.00631529
0.00635541
0.00640043
0.00644848
0.00649776
0.00654721
0.00659793
0.00665609
0.00673
0.00682335
0.00693915
0.0070847
0.00726601
0.00748448
0.00773373
0.00799992
0.00826456
0.00850732
0.00870933
0.00885851
0.00895338
0.00900232
0.00901981
0.00902195
0.0062714
0.00626805
0.00626219
0.00625582
0.00625188
0.00625357
0.00626352
0.00628319
0.00631293
0.00635241
0.00640115
0.00645855
0.00652394
0.00659683
0.00667799
0.00677167
0.00687819
0.00699142
0.00711237
0.00724962
0.00741107
0.00760167
0.00782007
0.00805781
0.008301
0.00853286
0.00873567
0.00889417
0.00900102
0.00905973
0.00908261
0.00908624
0.00637326
0.00636602
0.00635294
0.00633713
0.00632293
0.00631508
0.00631781
0.00633403
0.00636508
0.00641113
0.00647181
0.00654634
0.00663347
0.00673182
0.00684075
0.00696232
0.00709092
0.00721459
0.00733405
0.00745907
0.00759854
0.00775929
0.00794351
0.00814744
0.00836198
0.00857412
0.0087683
0.00892864
0.00904347
0.00911076
0.00913916
0.00914457
0.00653455
0.00652282
0.00650276
0.00647957
0.00645909
0.00644699
0.0064485
0.00646786
0.00650692
0.00656555
0.00664253
0.00673582
0.00684275
0.0069606
0.00708737
0.00722357
0.00736037
0.00748379
0.00759501
0.00770432
0.00782075
0.00795155
0.00810081
0.0082682
0.00844892
0.00863414
0.00881133
0.00896548
0.00908278
0.00915626
0.00918984
0.00919727
0.00676016
0.00674417
0.00672042
0.00669703
0.0066802
0.00667455
0.00668444
0.00671423
0.0067654
0.00683713
0.00692726
0.00703264
0.00714959
0.00727462
0.00740508
0.00754072
0.00767202
0.00778559
0.0078831
0.00797447
0.00806802
0.00817043
0.00828632
0.00841734
0.00856187
0.00871499
0.00886798
0.00900819
0.00912141
0.00919735
0.00923501
0.00924459
0.00705252
0.00703401
0.00701395
0.00700217
0.00700191
0.00701383
0.00703974
0.00708274
0.00714372
0.00722194
0.00731522
0.00742031
0.00753351
0.00765141
0.00777147
0.00789321
0.00800804
0.00810465
0.00818493
0.00825748
0.00832934
0.00840608
0.00849191
0.00858918
0.00869817
0.0088169
0.00894045
0.00905972
0.00916204
0.00923552
0.00927516
0.00928667
0.00741545
0.00739879
0.00739355
0.00740515
0.00742951
0.0074626
0.0075038
0.00755497
0.00761726
0.00769099
0.00777493
0.00786667
0.00796329
0.00806206
0.0081609
0.00825937
0.00835066
0.00842612
0.00848748
0.00854149
0.00859355
0.00864788
0.00870783
0.00877563
0.00885226
0.00893745
0.0090292
0.00912222
0.0092071
0.00927253
0.00931096
0.00932367
0.00785828
0.00785186
0.00787147
0.00790804
0.00795126
0.00799623
0.00804208
0.00809045
0.00814324
0.00820185
0.00826617
0.00833494
0.00840631
0.00847841
0.00854979
0.00862008
0.00868453
0.00873726
0.00877956
0.00881611
0.0088506
0.0088859
0.00892432
0.00896752
0.00901648
0.00907156
0.00913234
0.00919656
0.00925872
0.0093103
0.00934338
0.00935581
0.00839942
0.00841242
0.00845043
0.00849278
0.00853399
0.0085723
0.00860764
0.00864158
0.00867603
0.00871255
0.00875162
0.00879283
0.00883524
0.00887783
0.00891974
0.00896074
0.00899811
0.00902851
0.00905271
0.00907337
0.00909258
0.00911196
0.00913281
0.00915609
0.00918243
0.00921217
0.00924541
0.0092815
0.00931813
0.00935075
0.00937371
0.00938353
0.00906142
0.00907165
0.00909129
0.00910993
0.00912679
0.00914178
0.00915499
0.0091671
0.00917891
0.0091911
0.00920396
0.00921744
0.00923126
0.00924509
0.00925867
0.00927192
0.00928395
0.00929372
0.00930147
0.00930805
0.00931412
0.0093202
0.00932669
0.00933389
0.00934202
0.00935118
0.00936144
0.00937269
0.00938438
0.00939527
0.00940357
0.00940759
)
;

boundaryField
{
    movingWall
    {
        type            fixedValue;
        value           uniform 0.00942;
    }
    fixedWalls
    {
        type            zeroGradient;
    }
    floor
    {
        type            zeroGradient;
    }
    frontAndBack
    {
        type            empty;
    }
}


// ************************************************************************* //
