/*--------------------------------*- C++ -*----------------------------------*\
| =========                 |                                                 |
| \\      /  F ield         | OpenFOAM: The Open Source CFD Toolbox           |
|  \\    /   O peration     | Version:  2212                                  |
|   \\  /    A nd           | Website:  www.openfoam.com                      |
|    \\/     M anipulation  |                                                 |
\*---------------------------------------------------------------------------*/
FoamFile
{
    version     2.0;
    format      ascii;
    arch        "LSB;label=64;scalar=64";
    class       volScalarField;
    location    "1740";
    object      Xli;
}
// * * * * * * * * * * * * * * * * * * * * * * * * * * * * * * * * * * * * * //

dimensions      [1 -3 0 0 0 0 0];

internalField   nonuniform List<scalar> 
1024
(
0.0424948
0.0424957
0.0424979
0.0425019
0.0425084
0.0425181
0.0425317
0.0425499
0.0425728
0.0426001
0.042631
0.0426637
0.0426964
0.042727
0.0427536
0.0427747
0.0427868
0.0427882
0.0427805
0.0427659
0.0427461
0.0427228
0.0426979
0.0426734
0.0426513
0.0426327
0.0426182
0.0426077
0.0426005
0.0425961
0.0425937
0.0425927
0.0424951
0.042496
0.0424982
0.0425022
0.0425088
0.0425186
0.0425324
0.0425507
0.0425737
0.0426012
0.0426322
0.042665
0.0426977
0.0427282
0.0427549
0.0427759
0.042788
0.0427895
0.0427818
0.0427672
0.0427474
0.0427241
0.0426991
0.0426745
0.0426522
0.0426334
0.0426188
0.0426081
0.0426009
0.0425964
0.0425939
0.0425929
0.0424958
0.0424967
0.0424989
0.0425031
0.0425098
0.0425198
0.0425339
0.0425525
0.0425759
0.0426038
0.0426349
0.0426679
0.0427006
0.0427311
0.0427577
0.0427788
0.0427911
0.0427927
0.042785
0.0427702
0.0427502
0.0427267
0.0427015
0.0426766
0.042654
0.0426349
0.0426199
0.042609
0.0426016
0.042597
0.0425945
0.0425935
0.042497
0.042498
0.0425003
0.0425046
0.0425115
0.0425219
0.0425364
0.0425556
0.0425796
0.042608
0.0426396
0.0426728
0.0427056
0.0427361
0.0427628
0.0427841
0.0427967
0.0427985
0.0427908
0.0427755
0.0427549
0.0427308
0.0427051
0.0426798
0.0426567
0.0426371
0.0426217
0.0426105
0.0426029
0.0425982
0.0425956
0.0425946
0.042499
0.0425
0.0425024
0.0425069
0.0425142
0.042525
0.0425402
0.0425602
0.0425851
0.0426142
0.0426464
0.04268
0.042713
0.0427437
0.0427706
0.0427923
0.0428056
0.0428079
0.0427999
0.0427837
0.0427617
0.0427364
0.0427098
0.0426837
0.04266
0.0426399
0.0426241
0.0426126
0.0426047
0.0425999
0.0425973
0.0425963
0.0425019
0.042503
0.0425055
0.0425102
0.0425179
0.0425294
0.0425455
0.0425665
0.0425925
0.0426227
0.0426558
0.0426899
0.0427233
0.0427544
0.0427818
0.0428044
0.0428189
0.0428218
0.0428134
0.0427955
0.0427713
0.0427438
0.0427155
0.0426883
0.0426638
0.0426431
0.042627
0.0426152
0.0426073
0.0426024
0.0425999
0.0425988
0.0425059
0.042507
0.0425097
0.0425147
0.0425229
0.0425352
0.0425523
0.0425746
0.0426021
0.0426337
0.0426679
0.042703
0.042737
0.0427688
0.0427972
0.0428213
0.0428374
0.0428413
0.0428322
0.0428119
0.0427844
0.0427536
0.0427227
0.0426937
0.0426681
0.0426469
0.0426305
0.0426187
0.0426109
0.0426061
0.0426036
0.0426027
0.0425111
0.0425123
0.0425151
0.0425205
0.0425292
0.0425424
0.0425608
0.0425847
0.0426139
0.0426472
0.042683
0.0427194
0.0427545
0.0427874
0.0428174
0.0428436
0.042862
0.0428672
0.0428573
0.0428343
0.0428026
0.0427672
0.0427324
0.0427008
0.0426737
0.0426519
0.0426354
0.0426238
0.0426163
0.0426118
0.0426096
0.0426088
0.0425177
0.0425189
0.0425219
0.0425276
0.042537
0.0425512
0.042571
0.0425967
0.042628
0.0426634
0.0427012
0.0427393
0.042776
0.0428106
0.0428426
0.0428715
0.0428928
0.0428999
0.0428899
0.0428646
0.0428286
0.0427878
0.0427479
0.0427124
0.0426831
0.0426604
0.0426438
0.0426325
0.0426256
0.0426217
0.0426198
0.0426192
0.0425257
0.0425269
0.0425301
0.0425361
0.0425462
0.0425614
0.0425828
0.0426105
0.0426442
0.0426822
0.0427224
0.0427626
0.0428013
0.042838
0.0428725
0.0429044
0.0429292
0.0429392
0.042931
0.0429055
0.0428669
0.0428213
0.0427756
0.042735
0.0427023
0.0426777
0.0426606
0.0426496
0.0426432
0.0426399
0.0426386
0.0426382
0.0425352
0.0425364
0.0425397
0.0425461
0.0425568
0.0425731
0.0425961
0.042626
0.0426623
0.042703
0.042746
0.0427887
0.0428297
0.0428685
0.0429053
0.0429402
0.0429688
0.0429837
0.0429808
0.0429598
0.0429231
0.0428763
0.0428265
0.0427805
0.0427428
0.0427147
0.0426957
0.042684
0.0426777
0.0426748
0.0426739
0.0426738
0.0425461
0.0425473
0.0425507
0.0425574
0.0425687
0.0425861
0.0426106
0.0426427
0.0426815
0.0427251
0.0427708
0.0428159
0.0428587
0.0428991
0.0429374
0.0429743
0.0430068
0.043029
0.0430362
0.0430264
0.0429997
0.0429597
0.0429122
0.0428643
0.0428218
0.0427885
0.0427652
0.0427507
0.0427427
0.0427392
0.042738
0.0427379
0.0425581
0.0425594
0.0425629
0.0425698
0.0425816
0.0425998
0.0426256
0.0426595
0.0427005
0.0427466
0.0427944
0.0428411
0.0428847
0.0429249
0.0429625
0.0429992
0.0430345
0.043065
0.0430862
0.0430943
0.043087
0.0430647
0.0430306
0.0429901
0.042949
0.0429126
0.0428841
0.0428644
0.0428524
0.0428462
0.0428435
0.0428428
0.042571
0.0425723
0.0425758
0.0425828
0.0425947
0.0426133
0.0426398
0.0426747
0.042717
0.0427643
0.0428131
0.0428598
0.042902
0.0429393
0.0429727
0.0430051
0.0430393
0.043076
0.0431111
0.0431395
0.0431568
0.0431604
0.0431505
0.0431296
0.0431016
0.0430714
0.0430433
0.0430207
0.0430048
0.042995
0.0429901
0.0429884
0.0425837
0.042585
0.0425885
0.0425953
0.042607
0.0426252
0.0426513
0.0426858
0.0427277
0.0427745
0.0428223
0.0428668
0.0429052
0.0429362
0.042961
0.0429835
0.0430104
0.0430475
0.0430918
0.0431371
0.0431768
0.0432065
0.043224
0.0432293
0.043224
0.043211
0.0431941
0.0431771
0.0431628
0.0431527
0.0431469
0.0431445
0.0425949
0.0425962
0.0425994
0.0426057
0.0426166
0.0426335
0.0426578
0.04269
0.0427293
0.0427733
0.0428178
0.0428582
0.0428906
0.042913
0.0429259
0.0429341
0.0429476
0.0429782
0.0430254
0.0430821
0.0431396
0.0431911
0.0432323
0.0432616
0.0432791
0.0432864
0.0432861
0.0432811
0.0432745
0.0432685
0.0432645
0.0432626
0.0426021
0.0426033
0.0426062
0.0426119
0.0426215
0.0426363
0.0426576
0.0426859
0.0427208
0.04276
0.0427998
0.0428352
0.0428618
0.0428764
0.042879
0.0428734
0.0428717
0.0428907
0.0429342
0.0429962
0.0430672
0.0431376
0.0431998
0.0432497
0.043286
0.0433095
0.0433226
0.0433279
0.0433285
0.0433271
0.0433253
0.0433243
0.0426042
0.0426053
0.042608
0.0426131
0.0426214
0.0426341
0.0426522
0.0426764
0.0427064
0.0427404
0.0427751
0.0428062
0.0428287
0.0428393
0.0428367
0.042824
0.0428128
0.0428213
0.0428565
0.0429162
0.042993
0.0430768
0.043157
0.0432261
0.04328
0.0433181
0.0433422
0.0433552
0.0433608
0.0433621
0.0433617
0.0433611
0.0426023
0.0426034
0.0426059
0.0426105
0.0426179
0.0426288
0.0426442
0.0426647
0.0426902
0.0427193
0.0427494
0.0427766
0.0427966
0.0428058
0.0428025
0.0427889
0.0427758
0.0427799
0.0428089
0.0428631
0.0429385
0.0430269
0.0431176
0.043201
0.04327
0.0433216
0.0433565
0.0433771
0.0433873
0.043391
0.0433916
0.0433912
0.042598
0.042599
0.0426014
0.0426056
0.0426121
0.0426217
0.0426349
0.0426523
0.0426738
0.0426985
0.0427242
0.0427479
0.0427659
0.0427751
0.0427738
0.0427638
0.0427546
0.0427604
0.0427875
0.0428375
0.0429086
0.0429954
0.0430892
0.0431803
0.0432599
0.0433227
0.0433673
0.0433954
0.0434105
0.0434168
0.0434184
0.0434182
0.0425931
0.042594
0.042596
0.0425997
0.0426055
0.0426138
0.0426252
0.04264
0.0426581
0.0426789
0.0427007
0.0427212
0.0427377
0.0427478
0.0427504
0.0427475
0.0427468
0.0427585
0.0427873
0.0428351
0.0429017
0.0429837
0.043075
0.0431676
0.0432526
0.0433232
0.0433759
0.0434109
0.0434308
0.04344
0.0434427
0.0434428
0.0425907
0.0425912
0.0425927
0.0425954
0.0425999
0.0426067
0.0426162
0.0426286
0.0426439
0.0426613
0.04268
0.0426982
0.0427143
0.0427269
0.0427357
0.0427427
0.0427533
0.0427733
0.0428055
0.0428522
0.042914
0.0429899
0.0430754
0.0431646
0.04325
0.0433245
0.0433831
0.043424
0.0434487
0.0434608
0.0434648
0.0434653
0.042595
0.042595
0.0425952
0.0425962
0.0425986
0.0426032
0.0426103
0.0426203
0.0426331
0.0426483
0.0426652
0.0426831
0.0427011
0.0427187
0.0427359
0.0427545
0.0427773
0.0428058
0.0428414
0.0428867
0.0429433
0.0430115
0.0430892
0.0431718
0.0432535
0.0433281
0.0433898
0.0434354
0.0434643
0.0434794
0.0434849
0.0434857
0.0426109
0.04261
0.0426084
0.0426068
0.0426062
0.0426076
0.0426119
0.0426196
0.0426309
0.0426454
0.042663
0.0426834
0.0427061
0.0427309
0.0427578
0.0427879
0.0428214
0.0428566
0.0428942
0.042937
0.0429875
0.0430471
0.0431152
0.043189
0.0432641
0.0433353
0.0433972
0.0434455
0.043478
0.0434959
0.043503
0.0435043
0.0426428
0.0426406
0.0426367
0.042632
0.0426281
0.0426264
0.0426283
0.0426347
0.042646
0.0426622
0.0426832
0.0427085
0.0427378
0.0427704
0.042806
0.0428451
0.0428858
0.0429247
0.0429621
0.0430012
0.0430449
0.0430952
0.0431526
0.0432159
0.0432822
0.0433473
0.0434066
0.0434554
0.0434902
0.0435107
0.0435194
0.0435211
0.0426935
0.0426899
0.0426837
0.0426767
0.0426707
0.0426676
0.0426689
0.042676
0.0426896
0.0427094
0.0427352
0.0427661
0.0428013
0.0428398
0.0428809
0.0429247
0.0429682
0.0430072
0.0430421
0.0430764
0.0431129
0.0431539
0.0432004
0.0432524
0.0433082
0.0433651
0.0434192
0.0434661
0.0435016
0.0435238
0.043534
0.0435364
0.0427646
0.0427597
0.0427523
0.0427452
0.0427402
0.042739
0.0427428
0.042753
0.0427701
0.0427938
0.0428233
0.0428577
0.0428958
0.0429363
0.0429784
0.043022
0.0430638
0.0430998
0.0431305
0.0431593
0.0431886
0.0432207
0.0432568
0.0432975
0.0433422
0.0433892
0.0434359
0.0434785
0.0435128
0.0435357
0.0435471
0.04355
0.0428568
0.042851
0.0428448
0.0428412
0.0428415
0.0428456
0.0428543
0.0428685
0.0428884
0.0429138
0.0429441
0.0429781
0.0430147
0.0430527
0.0430914
0.0431304
0.0431671
0.0431977
0.0432231
0.043246
0.0432685
0.0432926
0.0433193
0.0433495
0.0433832
0.0434197
0.0434575
0.0434937
0.0435246
0.0435467
0.0435586
0.0435621
0.042971
0.0429658
0.0429642
0.042968
0.0429759
0.0429866
0.0429999
0.0430165
0.0430366
0.0430604
0.0430874
0.043117
0.0431481
0.0431799
0.0432116
0.0432432
0.0432723
0.0432963
0.0433158
0.0433328
0.0433492
0.0433662
0.0433849
0.043406
0.0434297
0.0434559
0.0434839
0.0435122
0.0435378
0.0435574
0.0435689
0.0435728
0.0431102
0.0431082
0.0431144
0.043126
0.0431397
0.0431541
0.0431687
0.0431842
0.0432012
0.04322
0.0432406
0.0432627
0.0432857
0.0433088
0.0433318
0.0433543
0.0433749
0.0433916
0.0434051
0.0434166
0.0434275
0.0434385
0.0434505
0.0434639
0.0434791
0.043496
0.0435146
0.0435341
0.0435529
0.0435684
0.0435782
0.0435819
0.0432801
0.0432842
0.0432962
0.0433095
0.0433225
0.0433347
0.0433459
0.0433567
0.0433677
0.0433794
0.043392
0.0434052
0.0434188
0.0434325
0.0434459
0.0434591
0.043471
0.0434807
0.0434884
0.0434949
0.043501
0.043507
0.0435135
0.0435208
0.0435289
0.0435381
0.0435483
0.0435592
0.0435703
0.0435801
0.0435869
0.0435898
0.0434877
0.0434909
0.0434971
0.0435029
0.0435083
0.043513
0.0435172
0.043521
0.0435248
0.0435287
0.0435328
0.0435372
0.0435416
0.043546
0.0435504
0.0435546
0.0435585
0.0435616
0.0435641
0.0435661
0.043568
0.04357
0.043572
0.0435742
0.0435767
0.0435796
0.0435827
0.0435861
0.0435897
0.0435929
0.0435954
0.0435966
)
;

boundaryField
{
    movingWall
    {
        type            fixedValue;
        value           uniform 0.0436;
    }
    fixedWalls
    {
        type            zeroGradient;
    }
    floor
    {
        type            zeroGradient;
    }
    frontAndBack
    {
        type            empty;
    }
}


// ************************************************************************* //
