/*--------------------------------*- C++ -*----------------------------------*\
| =========                 |                                                 |
| \\      /  F ield         | OpenFOAM: The Open Source CFD Toolbox           |
|  \\    /   O peration     | Version:  2212                                  |
|   \\  /    A nd           | Website:  www.openfoam.com                      |
|    \\/     M anipulation  |                                                 |
\*---------------------------------------------------------------------------*/
FoamFile
{
    version     2.0;
    format      ascii;
    arch        "LSB;label=64;scalar=64";
    class       volVectorField;
    location    "0.34";
    object      U;
}
// * * * * * * * * * * * * * * * * * * * * * * * * * * * * * * * * * * * * * //

dimensions      [0 1 -1 0 0 0 0];

internalField   nonuniform List<vector> 
32768
(
(-2.5819e-06 8.71859e-06 0)
(-2.16447e-05 2.02416e-05 0)
(-5.06119e-05 2.42284e-05 0)
(-7.95152e-05 2.40425e-05 0)
(-0.000104881 2.26493e-05 0)
(-0.000126885 2.14132e-05 0)
(-0.000146728 2.06067e-05 0)
(-0.000165387 2.01007e-05 0)
(-0.000183394 1.97256e-05 0)
(-0.000200968 1.93741e-05 0)
(-0.000218166 1.89966e-05 0)
(-0.000234981 1.85756e-05 0)
(-0.000251384 1.8108e-05 0)
(-0.000267339 1.75949e-05 0)
(-0.000282809 1.70384e-05 0)
(-0.000297761 1.64401e-05 0)
(-0.00031216 1.58014e-05 0)
(-0.000325973 1.51236e-05 0)
(-0.000339169 1.44078e-05 0)
(-0.000351714 1.36557e-05 0)
(-0.000363579 1.28679e-05 0)
(-0.000374733 1.20452e-05 0)
(-0.000385144 1.11881e-05 0)
(-0.000394784 1.02981e-05 0)
(-0.000403621 9.37644e-06 0)
(-0.000411628 8.42405e-06 0)
(-0.000418776 7.44092e-06 0)
(-0.000425035 6.42796e-06 0)
(-0.000430378 5.38599e-06 0)
(-0.000434776 4.31583e-06 0)
(-0.000438202 3.21831e-06 0)
(-0.00044063 2.09491e-06 0)
(-0.000442035 9.49307e-07 0)
(-0.000442395 -2.15234e-07 0)
(-0.000441683 -1.39244e-06 0)
(-0.000439898 -2.5732e-06 0)
(-0.000437034 -3.75132e-06 0)
(-0.000433086 -4.92331e-06 0)
(-0.000428055 -6.08802e-06 0)
(-0.000421938 -7.24536e-06 0)
(-0.000414741 -8.39078e-06 0)
(-0.000406469 -9.522e-06 0)
(-0.000397129 -1.06372e-05 0)
(-0.000386731 -1.17345e-05 0)
(-0.000375288 -1.28099e-05 0)
(-0.000362818 -1.38606e-05 0)
(-0.00034934 -1.48825e-05 0)
(-0.00033488 -1.58722e-05 0)
(-0.000319466 -1.68258e-05 0)
(-0.000303129 -1.77408e-05 0)
(-0.000285907 -1.86139e-05 0)
(-0.000267838 -1.94411e-05 0)
(-0.000248968 -2.02196e-05 0)
(-0.000229342 -2.09464e-05 0)
(-0.000209013 -2.16179e-05 0)
(-0.000188035 -2.22319e-05 0)
(-0.000166465 -2.27855e-05 0)
(-0.000144364 -2.32771e-05 0)
(-0.000121795 -2.37044e-05 0)
(-9.88236e-05 -2.40657e-05 0)
(-7.55163e-05 -2.43593e-05 0)
(-5.1945e-05 -2.45825e-05 0)
(-2.81905e-05 -2.47276e-05 0)
(-4.32386e-06 -2.47846e-05 0)
(1.95638e-05 -2.47519e-05 0)
(4.33586e-05 -2.46367e-05 0)
(6.70088e-05 -2.44488e-05 0)
(9.04409e-05 -2.41951e-05 0)
(0.000113589 -2.38778e-05 0)
(0.000136392 -2.34978e-05 0)
(0.000158788 -2.30555e-05 0)
(0.000180716 -2.25515e-05 0)
(0.000202117 -2.19868e-05 0)
(0.000222932 -2.13634e-05 0)
(0.000243107 -2.06835e-05 0)
(0.000262589 -1.99497e-05 0)
(0.000281327 -1.91648e-05 0)
(0.000299272 -1.83321e-05 0)
(0.000316385 -1.74536e-05 0)
(0.000332624 -1.65328e-05 0)
(0.000347952 -1.55736e-05 0)
(0.000362337 -1.45787e-05 0)
(0.000375748 -1.35522e-05 0)
(0.000388161 -1.24967e-05 0)
(0.000399555 -1.14161e-05 0)
(0.00040991 -1.03143e-05 0)
(0.000419211 -9.19325e-06 0)
(0.000427442 -8.05433e-06 0)
(0.000434595 -6.90069e-06 0)
(0.000440663 -5.73421e-06 0)
(0.000445638 -4.55794e-06 0)
(0.000449515 -3.37246e-06 0)
(0.000452291 -2.17879e-06 0)
(0.000453968 -9.79272e-07 0)
(0.000454555 2.18288e-07 0)
(0.000454042 1.39969e-06 0)
(0.00045246 2.56088e-06 0)
(0.00044984 3.69602e-06 0)
(0.00044621 4.80283e-06 0)
(0.000441596 5.88143e-06 0)
(0.000436029 6.93055e-06 0)
(0.000429536 7.94851e-06 0)
(0.000422147 8.93547e-06 0)
(0.000413889 9.89227e-06 0)
(0.000404792 1.08192e-05 0)
(0.000394883 1.17154e-05 0)
(0.000384193 1.25795e-05 0)
(0.00037275 1.34094e-05 0)
(0.000360585 1.42042e-05 0)
(0.000347727 1.49634e-05 0)
(0.000334207 1.56858e-05 0)
(0.000320057 1.63708e-05 0)
(0.000305309 1.70172e-05 0)
(0.000289996 1.76229e-05 0)
(0.000274151 1.81866e-05 0)
(0.000257809 1.8707e-05 0)
(0.000241006 1.91814e-05 0)
(0.000223778 1.96087e-05 0)
(0.000206156 1.99924e-05 0)
(0.000188146 2.03498e-05 0)
(0.000169692 2.0731e-05 0)
(0.000150572 2.1245e-05 0)
(0.000130248 2.20659e-05 0)
(0.000107721 2.33298e-05 0)
(8.17502e-05 2.47694e-05 0)
(5.21119e-05 2.49992e-05 0)
(2.23254e-05 2.09403e-05 0)
(2.64859e-06 9.02281e-06 0)
(-2.5597e-06 3.71854e-05 0)
(-2.69616e-05 8.35126e-05 0)
(-5.90359e-05 9.47528e-05 0)
(-8.77051e-05 8.64219e-05 0)
(-0.00010941 7.37972e-05 0)
(-0.000125241 6.39945e-05 0)
(-0.00013742 5.80752e-05 0)
(-0.000147665 5.48399e-05 0)
(-0.000156937 5.29722e-05 0)
(-0.000165682 5.16434e-05 0)
(-0.000174079 5.04506e-05 0)
(-0.000182188 4.92306e-05 0)
(-0.000190021 4.79298e-05 0)
(-0.000197576 4.65331e-05 0)
(-0.000204845 4.50384e-05 0)
(-0.000211819 4.34465e-05 0)
(-0.000218488 4.17588e-05 0)
(-0.00022484 3.9978e-05 0)
(-0.000230861 3.81055e-05 0)
(-0.000236538 3.61414e-05 0)
(-0.000241867 3.40861e-05 0)
(-0.000246837 3.19407e-05 0)
(-0.000251429 2.97073e-05 0)
(-0.000255626 2.73856e-05 0)
(-0.000259418 2.49759e-05 0)
(-0.000262796 2.24784e-05 0)
(-0.000265748 1.98934e-05 0)
(-0.000268258 1.72233e-05 0)
(-0.000270313 1.44671e-05 0)
(-0.000271905 1.16255e-05 0)
(-0.00027302 8.70105e-06 0)
(-0.000273639 5.69694e-06 0)
(-0.000273752 2.61799e-06 0)
(-0.000273345 -5.25597e-07 0)
(-0.00027242 -3.71627e-06 0)
(-0.000270961 -6.93644e-06 0)
(-0.000268959 -1.01773e-05 0)
(-0.000266402 -1.34306e-05 0)
(-0.000263281 -1.66917e-05 0)
(-0.000259573 -1.9962e-05 0)
(-0.000255271 -2.32227e-05 0)
(-0.000250379 -2.6472e-05 0)
(-0.000244891 -2.97035e-05 0)
(-0.000238801 -3.29103e-05 0)
(-0.000232111 -3.60735e-05 0)
(-0.000224817 -3.91846e-05 0)
(-0.000216925 -4.22355e-05 0)
(-0.000208448 -4.52115e-05 0)
(-0.000199393 -4.80964e-05 0)
(-0.000189774 -5.08821e-05 0)
(-0.000179609 -5.35564e-05 0)
(-0.00016892 -5.6105e-05 0)
(-0.000157729 -5.85159e-05 0)
(-0.000146058 -6.07764e-05 0)
(-0.000133938 -6.28761e-05 0)
(-0.000121406 -6.48075e-05 0)
(-0.000108493 -6.65535e-05 0)
(-9.52369e-05 -6.81086e-05 0)
(-8.1679e-05 -6.94656e-05 0)
(-6.78625e-05 -7.06169e-05 0)
(-5.38311e-05 -7.15529e-05 0)
(-3.96316e-05 -7.22599e-05 0)
(-2.53161e-05 -7.27164e-05 0)
(-1.09376e-05 -7.29007e-05 0)
(3.46345e-06 -7.28081e-05 0)
(1.78262e-05 -7.24606e-05 0)
(3.21095e-05 -7.18889e-05 0)
(4.62706e-05 -7.11125e-05 0)
(6.02692e-05 -7.01415e-05 0)
(7.40666e-05 -6.89801e-05 0)
(8.76245e-05 -6.76306e-05 0)
(0.000100905 -6.60961e-05 0)
(0.000113873 -6.43816e-05 0)
(0.000126494 -6.2493e-05 0)
(0.00013874 -6.04385e-05 0)
(0.000150576 -5.82299e-05 0)
(0.000161966 -5.58702e-05 0)
(0.000172888 -5.33789e-05 0)
(0.000183325 -5.07614e-05 0)
(0.000193254 -4.80289e-05 0)
(0.000202657 -4.51955e-05 0)
(0.000211515 -4.22647e-05 0)
(0.000219813 -3.92605e-05 0)
(0.000227544 -3.6187e-05 0)
(0.000234699 -3.30556e-05 0)
(0.000241272 -2.98772e-05 0)
(0.000247256 -2.66621e-05 0)
(0.00025264 -2.34146e-05 0)
(0.00025743 -2.0146e-05 0)
(0.000261629 -1.68534e-05 0)
(0.00026524 -1.35578e-05 0)
(0.000268268 -1.02569e-05 0)
(0.000270719 -6.9576e-06 0)
(0.000272602 -3.66863e-06 0)
(0.000273926 -4.06041e-07 0)
(0.000274712 2.80478e-06 0)
(0.000274941 5.94502e-06 0)
(0.000274639 9.00051e-06 0)
(0.000273827 1.19658e-05 0)
(0.000272519 1.48456e-05 0)
(0.000270718 1.76339e-05 0)
(0.000268441 2.03329e-05 0)
(0.000265704 2.29459e-05 0)
(0.000262521 2.54728e-05 0)
(0.000258904 2.79151e-05 0)
(0.000254866 3.02714e-05 0)
(0.000250418 3.25419e-05 0)
(0.000245571 3.47244e-05 0)
(0.000240341 3.68185e-05 0)
(0.000234738 3.88266e-05 0)
(0.000228775 4.07416e-05 0)
(0.000222461 4.25651e-05 0)
(0.000215804 4.42988e-05 0)
(0.000208817 4.59359e-05 0)
(0.000201516 4.74763e-05 0)
(0.000193905 4.89195e-05 0)
(0.000185992 5.02647e-05 0)
(0.000177785 5.15271e-05 0)
(0.000169269 5.27621e-05 0)
(0.000160386 5.41331e-05 0)
(0.000150957 5.60471e-05 0)
(0.000140532 5.9346e-05 0)
(0.000128134 6.5377e-05 0)
(0.000112018 7.53927e-05 0)
(8.98983e-05 8.83811e-05 0)
(6.0608e-05 9.71431e-05 0)
(2.77224e-05 8.59047e-05 0)
(2.59388e-06 3.82782e-05 0)
(-2.38486e-06 6.24734e-05 0)
(-2.36543e-05 0.000133867 0)
(-4.90851e-05 0.000144398 0)
(-6.91798e-05 0.000122867 0)
(-8.13706e-05 9.61591e-05 0)
(-8.72918e-05 7.63057e-05 0)
(-8.94222e-05 6.45932e-05 0)
(-8.95976e-05 5.84224e-05 0)
(-8.88465e-05 5.51435e-05 0)
(-8.76596e-05 5.31043e-05 0)
(-8.62481e-05 5.14939e-05 0)
(-8.46952e-05 4.99738e-05 0)
(-8.30389e-05 4.84236e-05 0)
(-8.13032e-05 4.68043e-05 0)
(-7.95027e-05 4.51042e-05 0)
(-7.76493e-05 4.3321e-05 0)
(-7.57508e-05 4.14541e-05 0)
(-7.38154e-05 3.95035e-05 0)
(-7.1855e-05 3.7473e-05 0)
(-6.98796e-05 3.53582e-05 0)
(-6.78966e-05 3.31593e-05 0)
(-6.59111e-05 3.08752e-05 0)
(-6.39314e-05 2.85118e-05 0)
(-6.19655e-05 2.60649e-05 0)
(-6.00186e-05 2.35334e-05 0)
(-5.80983e-05 2.09176e-05 0)
(-5.6206e-05 1.82196e-05 0)
(-5.43487e-05 1.54405e-05 0)
(-5.25366e-05 1.25818e-05 0)
(-5.07722e-05 9.64525e-06 0)
(-4.90622e-05 6.63433e-06 0)
(-4.74124e-05 3.55416e-06 0)
(-4.58253e-05 4.07181e-07 0)
(-4.4323e-05 -2.79755e-06 0)
(-4.29057e-05 -6.05327e-06 0)
(-4.15604e-05 -9.35723e-06 0)
(-4.02793e-05 -1.27062e-05 0)
(-3.90549e-05 -1.60954e-05 0)
(-3.78965e-05 -1.95178e-05 0)
(-3.67675e-05 -2.29657e-05 0)
(-3.56594e-05 -2.64337e-05 0)
(-3.45985e-05 -2.9912e-05 0)
(-3.35716e-05 -3.33887e-05 0)
(-3.25505e-05 -3.68517e-05 0)
(-3.15294e-05 -4.02875e-05 0)
(-3.05252e-05 -4.36824e-05 0)
(-2.95223e-05 -4.70248e-05 0)
(-2.85021e-05 -5.02988e-05 0)
(-2.74714e-05 -5.34883e-05 0)
(-2.64351e-05 -5.65791e-05 0)
(-2.53794e-05 -5.95555e-05 0)
(-2.43015e-05 -6.24021e-05 0)
(-2.32008e-05 -6.51026e-05 0)
(-2.20758e-05 -6.76415e-05 0)
(-2.09356e-05 -7.00049e-05 0)
(-1.9765e-05 -7.2178e-05 0)
(-1.85646e-05 -7.41471e-05 0)
(-1.73526e-05 -7.59009e-05 0)
(-1.6127e-05 -7.74289e-05 0)
(-1.48912e-05 -7.87201e-05 0)
(-1.36507e-05 -7.97634e-05 0)
(-1.24089e-05 -8.05462e-05 0)
(-1.11672e-05 -8.10526e-05 0)
(-9.92436e-06 -8.12692e-05 0)
(-8.66982e-06 -8.11979e-05 0)
(-7.39447e-06 -8.0858e-05 0)
(-6.09481e-06 -8.02739e-05 0)
(-4.77029e-06 -7.94621e-05 0)
(-3.42068e-06 -7.84317e-05 0)
(-2.04664e-06 -7.71873e-05 0)
(-6.49767e-07 -7.57329e-05 0)
(7.6835e-07 -7.40734e-05 0)
(2.20846e-06 -7.22153e-05 0)
(3.67141e-06 -7.01667e-05 0)
(5.15211e-06 -6.79381e-05 0)
(6.6633e-06 -6.5542e-05 0)
(8.18855e-06 -6.29884e-05 0)
(9.72675e-06 -6.02876e-05 0)
(1.13012e-05 -5.74524e-05 0)
(1.28966e-05 -5.44967e-05 0)
(1.4528e-05 -5.1434e-05 0)
(1.61746e-05 -4.82772e-05 0)
(1.78357e-05 -4.50393e-05 0)
(1.95367e-05 -4.17322e-05 0)
(2.12638e-05 -3.83683e-05 0)
(2.30162e-05 -3.49598e-05 0)
(2.47996e-05 -3.15187e-05 0)
(2.6607e-05 -2.80533e-05 0)
(2.8454e-05 -2.45708e-05 0)
(3.03205e-05 -2.10807e-05 0)
(3.22033e-05 -1.75932e-05 0)
(3.41338e-05 -1.41175e-05 0)
(3.60999e-05 -1.06639e-05 0)
(3.81055e-05 -7.24359e-06 0)
(4.0153e-05 -3.86784e-06 0)
(4.22622e-05 -5.44256e-07 0)
(4.44338e-05 2.71593e-06 0)
(4.66337e-05 5.90401e-06 0)
(4.88745e-05 9.01362e-06 0)
(5.11387e-05 1.2041e-05 0)
(5.34109e-05 1.49839e-05 0)
(5.5704e-05 1.78447e-05 0)
(5.80092e-05 2.06231e-05 0)
(6.03183e-05 2.33189e-05 0)
(6.26256e-05 2.59326e-05 0)
(6.4926e-05 2.84641e-05 0)
(6.72113e-05 3.09135e-05 0)
(6.94726e-05 3.32844e-05 0)
(7.17136e-05 3.55723e-05 0)
(7.3912e-05 3.77796e-05 0)
(7.60588e-05 3.9905e-05 0)
(7.81636e-05 4.19499e-05 0)
(8.02011e-05 4.39129e-05 0)
(8.21613e-05 4.57921e-05 0)
(8.40478e-05 4.75864e-05 0)
(8.58393e-05 4.92971e-05 0)
(8.75213e-05 5.0936e-05 0)
(8.90803e-05 5.25431e-05 0)
(9.04764e-05 5.42381e-05 0)
(9.16225e-05 5.63616e-05 0)
(9.23076e-05 5.97339e-05 0)
(9.20393e-05 6.60317e-05 0)
(8.97781e-05 7.79618e-05 0)
(8.36587e-05 9.8225e-05 0)
(7.11432e-05 0.000125635 0)
(5.05212e-05 0.000148029 0)
(2.43691e-05 0.000137676 0)
(2.41646e-06 6.42547e-05 0)
(-2.30708e-06 8.59164e-05 0)
(-2.24175e-05 0.000178721 0)
(-4.53747e-05 0.000185993 0)
(-6.22265e-05 0.00015001 0)
(-7.08269e-05 0.000108824 0)
(-7.30569e-05 7.89127e-05 0)
(-7.14986e-05 6.15098e-05 0)
(-6.80228e-05 5.25156e-05 0)
(-6.36657e-05 4.79323e-05 0)
(-5.8917e-05 4.52918e-05 0)
(-5.39924e-05 4.33851e-05 0)
(-4.89797e-05 4.17079e-05 0)
(-4.39208e-05 4.00713e-05 0)
(-3.88504e-05 3.8408e-05 0)
(-3.37915e-05 3.67041e-05 0)
(-2.87629e-05 3.49518e-05 0)
(-2.37842e-05 3.31461e-05 0)
(-1.88639e-05 3.12859e-05 0)
(-1.40222e-05 2.93699e-05 0)
(-9.28185e-06 2.73982e-05 0)
(-4.65758e-06 2.53687e-05 0)
(-1.55305e-07 2.32819e-05 0)
(4.20862e-06 2.11369e-05 0)
(8.41254e-06 1.89316e-05 0)
(1.24493e-05 1.66647e-05 0)
(1.63062e-05 1.4336e-05 0)
(1.99705e-05 1.19463e-05 0)
(2.34313e-05 9.49462e-06 0)
(2.66773e-05 6.98386e-06 0)
(2.96966e-05 4.41623e-06 0)
(3.24815e-05 1.79411e-06 0)
(3.50235e-05 -8.79913e-07 0)
(3.73089e-05 -3.6028e-06 0)
(3.93342e-05 -6.37314e-06 0)
(4.10964e-05 -9.19288e-06 0)
(4.25924e-05 -1.20637e-05 0)
(4.38203e-05 -1.49823e-05 0)
(4.47796e-05 -1.79462e-05 0)
(4.54689e-05 -2.09494e-05 0)
(4.58916e-05 -2.39786e-05 0)
(4.60491e-05 -2.70401e-05 0)
(4.59405e-05 -3.01191e-05 0)
(4.55706e-05 -3.32041e-05 0)
(4.49457e-05 -3.62816e-05 0)
(4.40709e-05 -3.93482e-05 0)
(4.29505e-05 -4.23887e-05 0)
(4.15937e-05 -4.53872e-05 0)
(4.00111e-05 -4.83319e-05 0)
(3.82101e-05 -5.12121e-05 0)
(3.61971e-05 -5.40096e-05 0)
(3.39823e-05 -5.67084e-05 0)
(3.15766e-05 -5.92945e-05 0)
(2.89921e-05 -6.17519e-05 0)
(2.62417e-05 -6.40662e-05 0)
(2.33357e-05 -6.62221e-05 0)
(2.02852e-05 -6.82009e-05 0)
(1.71013e-05 -6.99951e-05 0)
(1.37952e-05 -7.15883e-05 0)
(1.03809e-05 -7.29685e-05 0)
(6.87145e-06 -7.41259e-05 0)
(3.27952e-06 -7.50528e-05 0)
(-3.81619e-07 -7.57425e-05 0)
(-4.09397e-06 -7.61914e-05 0)
(-7.83234e-06 -7.6398e-05 0)
(-1.15646e-05 -7.63685e-05 0)
(-1.52618e-05 -7.61175e-05 0)
(-1.89001e-05 -7.56588e-05 0)
(-2.24579e-05 -7.50012e-05 0)
(-2.59151e-05 -7.41491e-05 0)
(-2.92541e-05 -7.31049e-05 0)
(-3.24595e-05 -7.18722e-05 0)
(-3.55159e-05 -7.04557e-05 0)
(-3.84083e-05 -6.88612e-05 0)
(-4.11229e-05 -6.70961e-05 0)
(-4.36468e-05 -6.51703e-05 0)
(-4.59667e-05 -6.30919e-05 0)
(-4.80727e-05 -6.0877e-05 0)
(-4.99547e-05 -5.85253e-05 0)
(-5.16011e-05 -5.60542e-05 0)
(-5.30055e-05 -5.34756e-05 0)
(-5.41611e-05 -5.07984e-05 0)
(-5.50638e-05 -4.80408e-05 0)
(-5.57081e-05 -4.52011e-05 0)
(-5.60882e-05 -4.22976e-05 0)
(-5.62035e-05 -3.93396e-05 0)
(-5.6054e-05 -3.63369e-05 0)
(-5.56391e-05 -3.32977e-05 0)
(-5.49602e-05 -3.02335e-05 0)
(-5.40181e-05 -2.71482e-05 0)
(-5.28186e-05 -2.40603e-05 0)
(-5.13656e-05 -2.0963e-05 0)
(-4.96592e-05 -1.78741e-05 0)
(-4.7704e-05 -1.48039e-05 0)
(-4.55044e-05 -1.17648e-05 0)
(-4.30649e-05 -8.76734e-06 0)
(-4.0389e-05 -5.81826e-06 0)
(-3.74837e-05 -2.92324e-06 0)
(-3.4352e-05 -8.33816e-08 0)
(-3.10037e-05 2.6978e-06 0)
(-2.74527e-05 5.41223e-06 0)
(-2.37091e-05 8.06658e-06 0)
(-1.97792e-05 1.06594e-05 0)
(-1.56759e-05 1.31895e-05 0)
(-1.14108e-05 1.56584e-05 0)
(-6.99676e-06 1.8065e-05 0)
(-2.44605e-06 2.04124e-05 0)
(2.23204e-06 2.27011e-05 0)
(7.01367e-06 2.49346e-05 0)
(1.18869e-05 2.71125e-05 0)
(1.68422e-05 2.92336e-05 0)
(2.18629e-05 3.1309e-05 0)
(2.69325e-05 3.33246e-05 0)
(3.20263e-05 3.52913e-05 0)
(3.71325e-05 3.72006e-05 0)
(4.22375e-05 3.90578e-05 0)
(4.73222e-05 4.08678e-05 0)
(5.23683e-05 4.26511e-05 0)
(5.73422e-05 4.44696e-05 0)
(6.21979e-05 4.65116e-05 0)
(6.68506e-05 4.92861e-05 0)
(7.10835e-05 5.4016e-05 0)
(7.44018e-05 6.32052e-05 0)
(7.57627e-05 8.09332e-05 0)
(7.32727e-05 0.000111446 0)
(6.42926e-05 0.000153653 0)
(4.68668e-05 0.000190906 0)
(2.31549e-05 0.000183969 0)
(2.34066e-06 8.84035e-05 0)
(-2.41999e-06 0.000109267 0)
(-2.29621e-05 0.000222621 0)
(-4.60677e-05 0.000225568 0)
(-6.26719e-05 0.000174332 0)
(-7.07036e-05 0.000118244 0)
(-7.21823e-05 7.81116e-05 0)
(-6.97956e-05 5.49898e-05 0)
(-6.54648e-05 4.31979e-05 0)
(-6.02514e-05 3.7353e-05 0)
(-5.46604e-05 3.41609e-05 0)
(-4.89045e-05 3.20127e-05 0)
(-4.30753e-05 3.0234e-05 0)
(-3.72296e-05 2.85726e-05 0)
(-3.13855e-05 2.69373e-05 0)
(-2.55624e-05 2.53025e-05 0)
(-1.97996e-05 2.36581e-05 0)
(-1.41103e-05 2.20004e-05 0)
(-8.50685e-06 2.03271e-05 0)
(-3.00714e-06 1.86343e-05 0)
(2.3686e-06 1.6917e-05 0)
(7.60272e-06 1.51777e-05 0)
(1.26824e-05 1.34151e-05 0)
(1.7587e-05 1.16216e-05 0)
(2.22995e-05 9.79802e-06 0)
(2.68076e-05 7.94183e-06 0)
(3.10986e-05 6.05085e-06 0)
(3.51602e-05 4.12324e-06 0)
(3.89807e-05 2.15885e-06 0)
(4.25486e-05 1.56554e-07 0)
(4.58539e-05 -1.88262e-06 0)
(4.88852e-05 -3.95718e-06 0)
(5.16347e-05 -6.06737e-06 0)
(5.40985e-05 -8.21381e-06 0)
(5.62717e-05 -1.03983e-05 0)
(5.81492e-05 -1.26228e-05 0)
(5.97258e-05 -1.48883e-05 0)
(6.09971e-05 -1.71938e-05 0)
(6.19589e-05 -1.95372e-05 0)
(6.26085e-05 -2.19155e-05 0)
(6.29451e-05 -2.43242e-05 0)
(6.29687e-05 -2.67601e-05 0)
(6.26793e-05 -2.92167e-05 0)
(6.20794e-05 -3.16871e-05 0)
(6.11742e-05 -3.41625e-05 0)
(5.99688e-05 -3.66351e-05 0)
(5.84688e-05 -3.90945e-05 0)
(5.6682e-05 -4.15286e-05 0)
(5.46175e-05 -4.39263e-05 0)
(5.22844e-05 -4.62773e-05 0)
(4.96929e-05 -4.85688e-05 0)
(4.68548e-05 -5.07859e-05 0)
(4.37821e-05 -5.29132e-05 0)
(4.04862e-05 -5.49372e-05 0)
(3.69803e-05 -5.6845e-05 0)
(3.32794e-05 -5.86237e-05 0)
(2.93999e-05 -6.0259e-05 0)
(2.53565e-05 -6.17377e-05 0)
(2.11619e-05 -6.30469e-05 0)
(1.68305e-05 -6.4175e-05 0)
(1.23784e-05 -6.51133e-05 0)
(7.8241e-06 -6.5857e-05 0)
(3.18785e-06 -6.64057e-05 0)
(-1.50941e-06 -6.6764e-05 0)
(-6.24126e-06 -6.69409e-05 0)
(-1.09704e-05 -6.6947e-05 0)
(-1.56656e-05 -6.67953e-05 0)
(-2.02997e-05 -6.64936e-05 0)
(-2.48461e-05 -6.6044e-05 0)
(-2.92786e-05 -6.54453e-05 0)
(-3.35741e-05 -6.46955e-05 0)
(-3.77127e-05 -6.37943e-05 0)
(-4.16744e-05 -6.27462e-05 0)
(-4.54394e-05 -6.15563e-05 0)
(-4.89933e-05 -6.023e-05 0)
(-5.23224e-05 -5.87734e-05 0)
(-5.541e-05 -5.71932e-05 0)
(-5.82399e-05 -5.54977e-05 0)
(-6.08024e-05 -5.36935e-05 0)
(-6.30879e-05 -5.17898e-05 0)
(-6.50852e-05 -4.97954e-05 0)
(-6.67845e-05 -4.77181e-05 0)
(-6.81803e-05 -4.55666e-05 0)
(-6.92696e-05 -4.33476e-05 0)
(-7.0047e-05 -4.10694e-05 0)
(-7.05095e-05 -3.87398e-05 0)
(-7.06571e-05 -3.63665e-05 0)
(-7.04906e-05 -3.39556e-05 0)
(-7.0012e-05 -3.15129e-05 0)
(-6.92236e-05 -2.90441e-05 0)
(-6.81287e-05 -2.65564e-05 0)
(-6.6732e-05 -2.40552e-05 0)
(-6.50392e-05 -2.15496e-05 0)
(-6.30565e-05 -1.90498e-05 0)
(-6.07906e-05 -1.6567e-05 0)
(-5.82479e-05 -1.41118e-05 0)
(-5.54351e-05 -1.16925e-05 0)
(-5.23591e-05 -9.31487e-06 0)
(-4.90269e-05 -6.98033e-06 0)
(-4.54446e-05 -4.68914e-06 0)
(-4.16175e-05 -2.44124e-06 0)
(-3.7557e-05 -2.33235e-07 0)
(-3.3276e-05 1.93544e-06 0)
(-2.87862e-05 4.06656e-06 0)
(-2.41042e-05 6.16229e-06 0)
(-1.92419e-05 8.22589e-06 0)
(-1.42091e-05 1.02598e-05 0)
(-9.02223e-06 1.22664e-05 0)
(-3.70003e-06 1.42466e-05 0)
(1.74402e-06 1.62078e-05 0)
(7.30107e-06 1.81509e-05 0)
(1.29277e-05 2.00714e-05 0)
(1.86258e-05 2.19701e-05 0)
(2.43729e-05 2.38571e-05 0)
(3.01385e-05 2.57261e-05 0)
(3.59338e-05 2.7581e-05 0)
(4.17211e-05 2.94328e-05 0)
(4.7476e-05 3.13073e-05 0)
(5.31741e-05 3.32883e-05 0)
(5.87667e-05 3.56302e-05 0)
(6.41622e-05 3.90152e-05 0)
(6.91484e-05 4.507e-05 0)
(7.32207e-05 5.71323e-05 0)
(7.53095e-05 8.06878e-05 0)
(7.34641e-05 0.000121605 0)
(6.49455e-05 0.000179019 0)
(4.7675e-05 0.000231903 0)
(2.37438e-05 0.000229409 0)
(2.45638e-06 0.0001125 0)
(-2.54885e-06 0.000133649 0)
(-2.40552e-05 0.0002682 0)
(-4.81719e-05 0.000266463 0)
(-6.54712e-05 0.000199314 0)
(-7.3819e-05 0.000127766 0)
(-7.5339e-05 7.70709e-05 0)
(-7.2839e-05 4.80652e-05 0)
(-6.83256e-05 3.34151e-05 0)
(-6.29057e-05 2.62949e-05 0)
(-5.70978e-05 2.25575e-05 0)
(-5.11295e-05 2.01786e-05 0)
(-4.5094e-05 1.83079e-05 0)
(-3.90435e-05 1.66305e-05 0)
(-3.30078e-05 1.5041e-05 0)
(-2.70045e-05 1.34902e-05 0)
(-2.10605e-05 1.19752e-05 0)
(-1.51944e-05 1.04859e-05 0)
(-9.41996e-06 9.02143e-06 0)
(-3.76732e-06 7.57314e-06 0)
(1.74844e-06 6.14008e-06 0)
(7.1198e-06 4.72184e-06 0)
(1.23207e-05 3.3078e-06 0)
(1.73362e-05 1.89339e-06 0)
(2.21518e-05 4.76267e-07 0)
(2.67516e-05 -9.46693e-07 0)
(3.11224e-05 -2.37884e-06 0)
(3.52524e-05 -3.82339e-06 0)
(3.91295e-05 -5.28325e-06 0)
(4.27433e-05 -6.76113e-06 0)
(4.60864e-05 -8.25906e-06 0)
(4.91501e-05 -9.7789e-06 0)
(5.19276e-05 -1.13211e-05 0)
(5.4413e-05 -1.28876e-05 0)
(5.66016e-05 -1.44809e-05 0)
(5.84894e-05 -1.6104e-05 0)
(6.00722e-05 -1.77588e-05 0)
(6.13465e-05 -1.9446e-05 0)
(6.23095e-05 -2.11651e-05 0)
(6.29593e-05 -2.29143e-05 0)
(6.32952e-05 -2.4692e-05 0)
(6.33178e-05 -2.64968e-05 0)
(6.30287e-05 -2.83262e-05 0)
(6.24318e-05 -3.01758e-05 0)
(6.15307e-05 -3.20409e-05 0)
(6.03303e-05 -3.39153e-05 0)
(5.88402e-05 -3.57903e-05 0)
(5.70682e-05 -3.76578e-05 0)
(5.50196e-05 -3.95086e-05 0)
(5.27044e-05 -4.13313e-05 0)
(5.01375e-05 -4.31132e-05 0)
(4.73338e-05 -4.48443e-05 0)
(4.43023e-05 -4.65126e-05 0)
(4.1051e-05 -4.81059e-05 0)
(3.75938e-05 -4.96113e-05 0)
(3.39468e-05 -5.10151e-05 0)
(3.01254e-05 -5.23027e-05 0)
(2.61433e-05 -5.3462e-05 0)
(2.20159e-05 -5.44836e-05 0)
(1.7759e-05 -5.53578e-05 0)
(1.33882e-05 -5.60772e-05 0)
(8.92026e-06 -5.66394e-05 0)
(4.37465e-06 -5.70482e-05 0)
(-2.28476e-07 -5.73147e-05 0)
(-4.86519e-06 -5.74558e-05 0)
(-9.50421e-06 -5.74862e-05 0)
(-1.41176e-05 -5.74186e-05 0)
(-1.86767e-05 -5.72585e-05 0)
(-2.31545e-05 -5.70041e-05 0)
(-2.7522e-05 -5.66498e-05 0)
(-3.17539e-05 -5.61904e-05 0)
(-3.5835e-05 -5.56222e-05 0)
(-3.97489e-05 -5.49457e-05 0)
(-4.34736e-05 -5.41633e-05 0)
(-4.69907e-05 -5.32786e-05 0)
(-5.02845e-05 -5.22949e-05 0)
(-5.33413e-05 -5.12154e-05 0)
(-5.61479e-05 -5.0046e-05 0)
(-5.86924e-05 -4.87922e-05 0)
(-6.09656e-05 -4.74593e-05 0)
(-6.29562e-05 -4.60524e-05 0)
(-6.46559e-05 -4.45761e-05 0)
(-6.60578e-05 -4.30368e-05 0)
(-6.71552e-05 -4.14397e-05 0)
(-6.79446e-05 -3.97897e-05 0)
(-6.84248e-05 -3.8093e-05 0)
(-6.85936e-05 -3.63533e-05 0)
(-6.84481e-05 -3.45744e-05 0)
(-6.799e-05 -3.27596e-05 0)
(-6.7223e-05 -3.0912e-05 0)
(-6.61504e-05 -2.90356e-05 0)
(-6.47761e-05 -2.71362e-05 0)
(-6.31044e-05 -2.52211e-05 0)
(-6.11398e-05 -2.33001e-05 0)
(-5.88876e-05 -2.13835e-05 0)
(-5.63532e-05 -1.94818e-05 0)
(-5.35425e-05 -1.76029e-05 0)
(-5.04614e-05 -1.57514e-05 0)
(-4.71166e-05 -1.39282e-05 0)
(-4.35155e-05 -1.21318e-05 0)
(-3.96664e-05 -1.03597e-05 0)
(-3.55795e-05 -8.60936e-06 0)
(-3.12662e-05 -6.87626e-06 0)
(-2.67382e-05 -5.15684e-06 0)
(-2.2006e-05 -3.44669e-06 0)
(-1.70839e-05 -1.74017e-06 0)
(-1.19883e-05 -3.43002e-08 0)
(-6.73308e-06 1.67366e-06 0)
(-1.33317e-06 3.39664e-06 0)
(4.19786e-06 5.12238e-06 0)
(9.8261e-06 6.86072e-06 0)
(1.5534e-05 8.60986e-06 0)
(2.13307e-05 1.03842e-05 0)
(2.71747e-05 1.21734e-05 0)
(3.30398e-05 1.39971e-05 0)
(3.89313e-05 1.58485e-05 0)
(4.48208e-05 1.77391e-05 0)
(5.06785e-05 1.97033e-05 0)
(5.6476e-05 2.18461e-05 0)
(6.2174e-05 2.44902e-05 0)
(6.76811e-05 2.84867e-05 0)
(7.27619e-05 3.58834e-05 0)
(7.68907e-05 5.08817e-05 0)
(7.89623e-05 8.04294e-05 0)
(7.69516e-05 0.000132085 0)
(6.79995e-05 0.000205247 0)
(4.99239e-05 0.000274397 0)
(2.48917e-05 0.000276653 0)
(2.58828e-06 0.000137676 0)
(-2.6926e-06 0.000159333 0)
(-2.53872e-05 0.000316155 0)
(-5.0841e-05 0.000309504 0)
(-6.9147e-05 0.000225678 0)
(-7.80528e-05 0.000137939 0)
(-7.97741e-05 7.6181e-05 0)
(-7.72634e-05 4.1011e-05 0)
(-7.26419e-05 2.33684e-05 0)
(-6.70654e-05 1.49221e-05 0)
(-6.10809e-05 1.06284e-05 0)
(-5.49372e-05 8.02715e-06 0)
(-4.87283e-05 6.0893e-06 0)
(-4.24988e-05 4.42106e-06 0)
(-3.62986e-05 2.89049e-06 0)
(-3.01387e-05 1.44913e-06 0)
(-2.40425e-05 8.20356e-08 0)
(-1.80366e-05 -1.21903e-06 0)
(-1.21344e-05 -2.46084e-06 0)
(-6.35813e-06 -3.6492e-06 0)
(-7.14818e-07 -4.79338e-06 0)
(4.76038e-06 -5.88559e-06 0)
(1.00473e-05 -6.9394e-06 0)
(1.51407e-05 -7.96116e-06 0)
(2.00253e-05 -8.95687e-06 0)
(2.46863e-05 -9.93174e-06 0)
(2.91103e-05 -1.08909e-05 0)
(3.32847e-05 -1.18391e-05 0)
(3.71985e-05 -1.27815e-05 0)
(4.08417e-05 -1.3722e-05 0)
(4.42057e-05 -1.46653e-05 0)
(4.7283e-05 -1.56155e-05 0)
(5.00673e-05 -1.65764e-05 0)
(5.25532e-05 -1.7552e-05 0)
(5.47366e-05 -1.85462e-05 0)
(5.66149e-05 -1.95628e-05 0)
(5.81857e-05 -2.06051e-05 0)
(5.9447e-05 -2.1675e-05 0)
(6.03986e-05 -2.27734e-05 0)
(6.10406e-05 -2.39005e-05 0)
(6.13726e-05 -2.5057e-05 0)
(6.13958e-05 -2.62441e-05 0)
(6.11138e-05 -2.74621e-05 0)
(6.05305e-05 -2.87096e-05 0)
(5.96513e-05 -2.99837e-05 0)
(5.84856e-05 -3.12802e-05 0)
(5.70402e-05 -3.25931e-05 0)
(5.53226e-05 -3.39165e-05 0)
(5.33464e-05 -3.52424e-05 0)
(5.11256e-05 -3.65617e-05 0)
(4.86666e-05 -3.78652e-05 0)
(4.59784e-05 -3.91407e-05 0)
(4.30758e-05 -4.03806e-05 0)
(3.99712e-05 -4.15695e-05 0)
(3.66795e-05 -4.26959e-05 0)
(3.32193e-05 -4.37477e-05 0)
(2.96033e-05 -4.47135e-05 0)
(2.5837e-05 -4.55801e-05 0)
(2.19319e-05 -4.63365e-05 0)
(1.79051e-05 -4.69739e-05 0)
(1.37722e-05 -4.74876e-05 0)
(9.54976e-06 -4.78781e-05 0)
(5.25627e-06 -4.81533e-05 0)
(9.09543e-07 -4.83286e-05 0)
(-3.46874e-06 -4.84296e-05 0)
(-7.84857e-06 -4.84796e-05 0)
(-1.22059e-05 -4.84908e-05 0)
(-1.65168e-05 -4.84645e-05 0)
(-2.07553e-05 -4.83958e-05 0)
(-2.4894e-05 -4.82739e-05 0)
(-2.89062e-05 -4.80895e-05 0)
(-3.27735e-05 -4.78383e-05 0)
(-3.64807e-05 -4.75149e-05 0)
(-4.00086e-05 -4.71163e-05 0)
(-4.33423e-05 -4.6648e-05 0)
(-4.6466e-05 -4.61082e-05 0)
(-4.93671e-05 -4.55034e-05 0)
(-5.2034e-05 -4.48337e-05 0)
(-5.44548e-05 -4.41018e-05 0)
(-5.66189e-05 -4.33103e-05 0)
(-5.85134e-05 -4.24625e-05 0)
(-6.01305e-05 -4.15605e-05 0)
(-6.14659e-05 -4.06075e-05 0)
(-6.25131e-05 -3.96078e-05 0)
(-6.32682e-05 -3.85633e-05 0)
(-6.37261e-05 -3.74764e-05 0)
(-6.38816e-05 -3.63482e-05 0)
(-6.37351e-05 -3.51809e-05 0)
(-6.32858e-05 -3.39769e-05 0)
(-6.25345e-05 -3.27373e-05 0)
(-6.14845e-05 -3.14631e-05 0)
(-6.01375e-05 -3.01582e-05 0)
(-5.84956e-05 -2.88295e-05 0)
(-5.6562e-05 -2.74862e-05 0)
(-5.43398e-05 -2.61386e-05 0)
(-5.18328e-05 -2.47961e-05 0)
(-4.90453e-05 -2.34655e-05 0)
(-4.59827e-05 -2.215e-05 0)
(-4.26514e-05 -2.0849e-05 0)
(-3.90592e-05 -1.95591e-05 0)
(-3.52147e-05 -1.82751e-05 0)
(-3.11278e-05 -1.6991e-05 0)
(-2.68096e-05 -1.57006e-05 0)
(-2.22719e-05 -1.43978e-05 0)
(-1.75277e-05 -1.30764e-05 0)
(-1.25912e-05 -1.17321e-05 0)
(-7.4775e-06 -1.03589e-05 0)
(-2.18307e-06 -8.95081e-06 0)
(3.2434e-06 -7.50113e-06 0)
(8.78348e-06 -6.01243e-06 0)
(1.44509e-05 -4.47351e-06 0)
(2.021e-05 -2.88634e-06 0)
(2.60447e-05 -1.24144e-06 0)
(3.19433e-05 4.56564e-07 0)
(3.78792e-05 2.22241e-06 0)
(4.38281e-05 4.05674e-06 0)
(4.97714e-05 5.9715e-06 0)
(5.56762e-05 8.00831e-06 0)
(6.15265e-05 1.03091e-05 0)
(6.72717e-05 1.32581e-05 0)
(7.28115e-05 1.78962e-05 0)
(7.79115e-05 2.66985e-05 0)
(8.20137e-05 4.47748e-05 0)
(8.39538e-05 8.05988e-05 0)
(8.15991e-05 0.000143495 0)
(7.19571e-05 0.000233122 0)
(5.27543e-05 0.000319262 0)
(2.62851e-05 0.000326436 0)
(2.73541e-06 0.000164215 0)
(-2.85741e-06 0.00018652 0)
(-2.69337e-05 0.000366919 0)
(-5.39518e-05 0.000355129 0)
(-7.34287e-05 0.000253749 0)
(-8.29751e-05 0.000148947 0)
(-8.4925e-05 7.55173e-05 0)
(-8.23882e-05 3.38345e-05 0)
(-7.76097e-05 1.30263e-05 0)
(-7.18109e-05 3.19935e-06 0)
(-6.5569e-05 -1.66068e-06 0)
(-5.91552e-05 -4.47927e-06 0)
(-5.26897e-05 -6.48176e-06 0)
(-4.62283e-05 -8.13167e-06 0)
(-3.97951e-05 -9.59297e-06 0)
(-3.34126e-05 -1.09148e-05 0)
(-2.71046e-05 -1.2124e-05 0)
(-2.08953e-05 -1.32248e-05 0)
(-1.47971e-05 -1.42324e-05 0)
(-8.84825e-06 -1.51418e-05 0)
(-3.04169e-06 -1.59695e-05 0)
(2.60778e-06 -1.67268e-05 0)
(8.04829e-06 -1.74031e-05 0)
(1.32794e-05 -1.80145e-05 0)
(1.82878e-05 -1.8569e-05 0)
(2.30594e-05 -1.90745e-05 0)
(2.75809e-05 -1.95383e-05 0)
(3.18403e-05 -1.99681e-05 0)
(3.58267e-05 -2.03709e-05 0)
(3.95304e-05 -2.07539e-05 0)
(4.29431e-05 -2.11238e-05 0)
(4.60578e-05 -2.14873e-05 0)
(4.88685e-05 -2.18507e-05 0)
(5.13704e-05 -2.22203e-05 0)
(5.35605e-05 -2.26021e-05 0)
(5.54375e-05 -2.30022e-05 0)
(5.70002e-05 -2.34259e-05 0)
(5.82486e-05 -2.38767e-05 0)
(5.91834e-05 -2.43566e-05 0)
(5.98071e-05 -2.48674e-05 0)
(6.01215e-05 -2.54114e-05 0)
(6.01301e-05 -2.59917e-05 0)
(5.98388e-05 -2.66104e-05 0)
(5.92549e-05 -2.72706e-05 0)
(5.83838e-05 -2.79729e-05 0)
(5.72336e-05 -2.8714e-05 0)
(5.58144e-05 -2.94907e-05 0)
(5.41358e-05 -3.02978e-05 0)
(5.22078e-05 -3.11282e-05 0)
(5.00409e-05 -3.19751e-05 0)
(4.76548e-05 -3.28311e-05 0)
(4.50594e-05 -3.3686e-05 0)
(4.22681e-05 -3.4529e-05 0)
(3.92952e-05 -3.53471e-05 0)
(3.61469e-05 -3.61279e-05 0)
(3.28374e-05 -3.68564e-05 0)
(2.9383e-05 -3.75283e-05 0)
(2.57978e-05 -3.81334e-05 0)
(2.20908e-05 -3.86517e-05 0)
(1.8273e-05 -3.9074e-05 0)
(1.4357e-05 -3.93988e-05 0)
(1.03589e-05 -3.96294e-05 0)
(6.29879e-06 -3.97787e-05 0)
(2.18786e-06 -3.98703e-05 0)
(-1.96247e-06 -3.99337e-05 0)
(-6.11949e-06 -3.99977e-05 0)
(-1.02495e-05 -4.00788e-05 0)
(-1.43336e-05 -4.01799e-05 0)
(-1.83503e-05 -4.02889e-05 0)
(-2.22701e-05 -4.03871e-05 0)
(-2.6073e-05 -4.04596e-05 0)
(-2.97406e-05 -4.05013e-05 0)
(-3.32504e-05 -4.05016e-05 0)
(-3.65969e-05 -4.04625e-05 0)
(-3.97623e-05 -4.03814e-05 0)
(-4.27323e-05 -4.02584e-05 0)
(-4.54973e-05 -4.0094e-05 0)
(-4.80362e-05 -3.98888e-05 0)
(-5.03426e-05 -3.96438e-05 0)
(-5.24083e-05 -3.9359e-05 0)
(-5.42203e-05 -3.90356e-05 0)
(-5.57704e-05 -3.86773e-05 0)
(-5.70553e-05 -3.82841e-05 0)
(-5.80648e-05 -3.78546e-05 0)
(-5.87915e-05 -3.739e-05 0)
(-5.9232e-05 -3.68884e-05 0)
(-5.93834e-05 -3.63517e-05 0)
(-5.92443e-05 -3.57793e-05 0)
(-5.88121e-05 -3.51694e-05 0)
(-5.80832e-05 -3.4522e-05 0)
(-5.7058e-05 -3.3838e-05 0)
(-5.57389e-05 -3.31204e-05 0)
(-5.41267e-05 -3.23758e-05 0)
(-5.22221e-05 -3.16128e-05 0)
(-5.00255e-05 -3.08403e-05 0)
(-4.75385e-05 -3.00657e-05 0)
(-4.47644e-05 -2.92938e-05 0)
(-4.17078e-05 -2.85255e-05 0)
(-3.83752e-05 -2.7758e-05 0)
(-3.47742e-05 -2.69853e-05 0)
(-3.09135e-05 -2.61997e-05 0)
(-2.68031e-05 -2.53931e-05 0)
(-2.24539e-05 -2.45572e-05 0)
(-1.78781e-05 -2.36838e-05 0)
(-1.30886e-05 -2.27652e-05 0)
(-8.09933e-06 -2.17937e-05 0)
(-2.9234e-06 -2.07616e-05 0)
(2.42784e-06 -1.96606e-05 0)
(7.92351e-06 -1.84942e-05 0)
(1.35613e-05 -1.72424e-05 0)
(1.93081e-05 -1.59088e-05 0)