/*--------------------------------*- C++ -*----------------------------------*\
| =========                 |                                                 |
| \\      /  F ield         | OpenFOAM: The Open Source CFD Toolbox           |
|  \\    /   O peration     | Version:  2212                                  |
|   \\  /    A nd           | Website:  www.openfoam.com                      |
|    \\/     M anipulation  |                                                 |
\*---------------------------------------------------------------------------*/
FoamFile
{
    version     2.0;
    format      ascii;
    arch        "LSB;label=64;scalar=64";
    class       volScalarField;
    location    "590";
    object      Gh2;
}
// * * * * * * * * * * * * * * * * * * * * * * * * * * * * * * * * * * * * * //

dimensions      [1 -3 0 0 0 0 0];

internalField   nonuniform List<scalar> 
1024
(
1.27559e-05
1.27554e-05
1.27544e-05
1.27526e-05
1.27498e-05
1.27459e-05
1.2741e-05
1.27354e-05
1.27294e-05
1.27234e-05
1.27178e-05
1.27127e-05
1.27083e-05
1.27049e-05
1.27036e-05
1.27061e-05
1.27141e-05
1.27255e-05
1.27372e-05
1.27482e-05
1.27583e-05
1.27675e-05
1.27759e-05
1.27836e-05
1.27907e-05
1.2797e-05
1.28024e-05
1.28066e-05
1.28097e-05
1.28116e-05
1.28128e-05
1.28132e-05
1.27557e-05
1.27553e-05
1.27543e-05
1.27524e-05
1.27495e-05
1.27456e-05
1.27406e-05
1.27348e-05
1.27288e-05
1.27228e-05
1.27172e-05
1.27121e-05
1.27076e-05
1.27042e-05
1.27028e-05
1.27052e-05
1.27133e-05
1.27248e-05
1.27365e-05
1.27476e-05
1.27577e-05
1.27669e-05
1.27754e-05
1.27831e-05
1.27903e-05
1.27966e-05
1.2802e-05
1.28063e-05
1.28095e-05
1.28115e-05
1.28127e-05
1.28131e-05
1.27555e-05
1.2755e-05
1.27539e-05
1.27519e-05
1.27489e-05
1.27447e-05
1.27396e-05
1.27337e-05
1.27276e-05
1.27216e-05
1.2716e-05
1.27107e-05
1.27061e-05
1.27024e-05
1.27007e-05
1.2703e-05
1.27113e-05
1.27231e-05
1.27351e-05
1.27463e-05
1.27566e-05
1.27659e-05
1.27744e-05
1.27822e-05
1.27894e-05
1.27958e-05
1.28014e-05
1.28059e-05
1.28091e-05
1.28113e-05
1.28125e-05
1.2813e-05
1.2755e-05
1.27545e-05
1.27533e-05
1.27512e-05
1.27479e-05
1.27435e-05
1.27381e-05
1.2732e-05
1.27258e-05
1.27198e-05
1.27141e-05
1.27086e-05
1.27035e-05
1.26993e-05
1.26969e-05
1.26989e-05
1.27075e-05
1.272e-05
1.27327e-05
1.27443e-05
1.27548e-05
1.27643e-05
1.27729e-05
1.27808e-05
1.27881e-05
1.27948e-05
1.28005e-05
1.28052e-05
1.28086e-05
1.28109e-05
1.28122e-05
1.28127e-05
1.27544e-05
1.27539e-05
1.27526e-05
1.27502e-05
1.27467e-05
1.27419e-05
1.27362e-05
1.273e-05
1.27237e-05
1.27176e-05
1.27116e-05
1.27057e-05
1.26998e-05
1.26945e-05
1.26909e-05
1.26922e-05
1.27014e-05
1.27153e-05
1.2729e-05
1.27414e-05
1.27524e-05
1.27622e-05
1.27711e-05
1.27793e-05
1.27868e-05
1.27936e-05
1.27995e-05
1.28044e-05
1.2808e-05
1.28105e-05
1.28118e-05
1.28124e-05
1.27536e-05
1.27531e-05
1.27516e-05
1.27491e-05
1.27452e-05
1.27402e-05
1.27342e-05
1.27279e-05
1.27214e-05
1.2715e-05
1.27086e-05
1.27019e-05
1.26949e-05
1.26878e-05
1.26824e-05
1.26824e-05
1.26926e-05
1.27084e-05
1.27238e-05
1.27374e-05
1.27493e-05
1.27598e-05
1.27692e-05
1.27776e-05
1.27854e-05
1.27925e-05
1.27986e-05
1.28037e-05
1.28075e-05
1.281e-05
1.28114e-05
1.2812e-05
1.27528e-05
1.27522e-05
1.27507e-05
1.27479e-05
1.27439e-05
1.27386e-05
1.27324e-05
1.27259e-05
1.27192e-05
1.27125e-05
1.27055e-05
1.26977e-05
1.26889e-05
1.26794e-05
1.26711e-05
1.26694e-05
1.26808e-05
1.26992e-05
1.27169e-05
1.27323e-05
1.27455e-05
1.2757e-05
1.27671e-05
1.27761e-05
1.27843e-05
1.27916e-05
1.2798e-05
1.28031e-05
1.2807e-05
1.28096e-05
1.2811e-05
1.28116e-05
1.2752e-05
1.27513e-05
1.27498e-05
1.2747e-05
1.27428e-05
1.27374e-05
1.27311e-05
1.27244e-05
1.27175e-05
1.27104e-05
1.27025e-05
1.26934e-05
1.26825e-05
1.26698e-05
1.26576e-05
1.26534e-05
1.26661e-05
1.26875e-05
1.27082e-05
1.2726e-05
1.2741e-05
1.27539e-05
1.27651e-05
1.27748e-05
1.27835e-05
1.27911e-05
1.27976e-05
1.28029e-05
1.28067e-05
1.28093e-05
1.28107e-05
1.28113e-05
1.27513e-05
1.27507e-05
1.27491e-05
1.27463e-05
1.27422e-05
1.27368e-05
1.27305e-05
1.27237e-05
1.27167e-05
1.27092e-05
1.27006e-05
1.269e-05
1.26766e-05
1.26599e-05
1.26426e-05
1.26349e-05
1.26489e-05
1.26739e-05
1.26981e-05
1.27187e-05
1.27361e-05
1.27507e-05
1.27632e-05
1.27739e-05
1.27832e-05
1.27911e-05
1.27977e-05
1.28029e-05
1.28067e-05
1.28092e-05
1.28106e-05
1.28112e-05
1.27509e-05
1.27503e-05
1.27488e-05
1.27462e-05
1.27422e-05
1.2737e-05
1.27309e-05
1.27243e-05
1.27173e-05
1.27096e-05
1.27005e-05
1.26887e-05
1.26726e-05
1.26511e-05
1.2627e-05
1.26146e-05
1.26299e-05
1.26589e-05
1.26871e-05
1.27112e-05
1.27312e-05
1.27479e-05
1.27618e-05
1.27735e-05
1.27834e-05
1.27916e-05
1.27982e-05
1.28033e-05
1.2807e-05
1.28094e-05
1.28107e-05
1.28113e-05
1.2751e-05
1.27504e-05
1.2749e-05
1.27466e-05
1.2743e-05
1.27382e-05
1.27326e-05
1.27264e-05
1.27198e-05
1.27125e-05
1.27033e-05
1.26906e-05
1.26715e-05
1.26438e-05
1.26105e-05
1.25922e-05
1.26092e-05
1.26432e-05
1.26762e-05
1.27042e-05
1.27272e-05
1.2746e-05
1.27613e-05
1.2774e-05
1.27843e-05
1.27926e-05
1.27991e-05
1.28041e-05
1.28076e-05
1.28098e-05
1.28111e-05
1.28117e-05
1.27518e-05
1.27512e-05
1.27499e-05
1.27478e-05
1.27446e-05
1.27405e-05
1.27357e-05
1.27304e-05
1.27247e-05
1.27182e-05
1.27095e-05
1.2696e-05
1.26734e-05
1.26371e-05
1.25915e-05
1.25665e-05
1.25864e-05
1.26272e-05
1.26664e-05
1.26991e-05
1.27253e-05
1.27461e-05
1.27627e-05
1.27758e-05
1.27862e-05
1.27944e-05
1.28007e-05
1.28053e-05
1.28086e-05
1.28107e-05
1.28119e-05
1.28124e-05
1.27534e-05
1.27528e-05
1.27516e-05
1.27498e-05
1.27472e-05
1.27439e-05
1.27402e-05
1.27362e-05
1.27319e-05
1.27268e-05
1.27189e-05
1.27045e-05
1.26768e-05
1.26281e-05
1.25665e-05
1.25346e-05
1.256e-05
1.26101e-05
1.26574e-05
1.2696e-05
1.27261e-05
1.27492e-05
1.27667e-05
1.27799e-05
1.27899e-05
1.27974e-05
1.28031e-05
1.28073e-05
1.28102e-05
1.28121e-05
1.28132e-05
1.28137e-05
1.27565e-05
1.2756e-05
1.27549e-05
1.27534e-05
1.27514e-05
1.27491e-05
1.27465e-05
1.27439e-05
1.27411e-05
1.27375e-05
1.27303e-05
1.27142e-05
1.26784e-05
1.26118e-05
1.25303e-05
1.24927e-05
1.25263e-05
1.25879e-05
1.26449e-05
1.26915e-05
1.27277e-05
1.27547e-05
1.2774e-05
1.27872e-05
1.27963e-05
1.28026e-05
1.28072e-05
1.28106e-05
1.2813e-05
1.28146e-05
1.28157e-05
1.28161e-05
1.27609e-05
1.27602e-05
1.27591e-05
1.27575e-05
1.27558e-05
1.27541e-05
1.27526e-05
1.27515e-05
1.27505e-05
1.27485e-05
1.27418e-05
1.27218e-05
1.26723e-05
1.258e-05
1.24757e-05
1.24342e-05
1.24756e-05
1.25456e-05
1.26114e-05
1.26688e-05
1.27166e-05
1.27538e-05
1.27798e-05
1.27959e-05
1.28051e-05
1.28104e-05
1.28137e-05
1.28161e-05
1.28178e-05
1.28189e-05
1.28195e-05
1.28197e-05
1.2771e-05
1.27705e-05
1.27696e-05
1.27681e-05
1.27664e-05
1.27646e-05
1.27633e-05
1.27626e-05
1.27625e-05
1.27607e-05
1.27516e-05
1.27214e-05
1.26475e-05
1.25204e-05
1.23922e-05
1.2344e-05
1.23787e-05
1.24382e-05
1.25006e-05
1.25658e-05
1.26304e-05
1.26894e-05
1.27382e-05
1.27739e-05
1.2798e-05
1.2812e-05
1.28182e-05
1.28187e-05
1.28158e-05
1.28116e-05
1.28078e-05
1.28057e-05
1.27684e-05
1.27695e-05
1.27714e-05
1.27738e-05
1.2776e-05
1.27775e-05
1.27783e-05
1.27782e-05
1.27763e-05
1.27695e-05
1.27487e-05
1.26955e-05
1.25854e-05
1.24206e-05
1.2269e-05
1.21937e-05
1.2175e-05
1.21719e-05
1.21856e-05
1.22175e-05
1.22635e-05
1.23179e-05
1.23748e-05
1.24288e-05
1.24771e-05
1.25163e-05
1.25445e-05
1.25618e-05
1.25694e-05
1.25707e-05
1.25691e-05
1.25675e-05
1.27114e-05
1.27143e-05
1.27204e-05
1.2729e-05
1.2739e-05
1.27488e-05
1.27567e-05
1.27607e-05
1.27583e-05
1.27442e-05
1.27065e-05
1.26259e-05
1.24835e-05
1.22927e-05
1.21145e-05
1.19821e-05
1.18738e-05
1.17818e-05
1.17168e-05
1.16755e-05
1.16551e-05
1.16526e-05
1.16655e-05
1.16912e-05
1.17272e-05
1.177e-05
1.18163e-05
1.18617e-05
1.19011e-05
1.19307e-05
1.19486e-05
1.19561e-05
1.26214e-05
1.2625e-05
1.26327e-05
1.26447e-05
1.26601e-05
1.26769e-05
1.26918e-05
1.2701e-05
1.26994e-05
1.26789e-05
1.26264e-05
1.25262e-05
1.23752e-05
1.2195e-05
1.20194e-05
1.18561e-05
1.17006e-05
1.15724e-05
1.14809e-05
1.14139e-05
1.13632e-05
1.13244e-05
1.12964e-05
1.12797e-05
1.12756e-05
1.12845e-05
1.13058e-05
1.13367e-05
1.13717e-05
1.14039e-05
1.1427e-05
1.14382e-05
1.25347e-05
1.25379e-05
1.25451e-05
1.2557e-05
1.25731e-05
1.25918e-05
1.26095e-05
1.26213e-05
1.26203e-05
1.25978e-05
1.25428e-05
1.24472e-05
1.2314e-05
1.21565e-05
1.19914e-05
1.18237e-05
1.16633e-05
1.15393e-05
1.14587e-05
1.14049e-05
1.13636e-05
1.13271e-05
1.12928e-05
1.1261e-05
1.12337e-05
1.12131e-05
1.12012e-05
1.11985e-05
1.12038e-05
1.12137e-05
1.12236e-05
1.12295e-05
1.24639e-05
1.24666e-05
1.24729e-05
1.24831e-05
1.24974e-05
1.25143e-05
1.25309e-05
1.2542e-05
1.25407e-05
1.25188e-05
1.24683e-05
1.23855e-05
1.22738e-05
1.21405e-05
1.19941e-05
1.18389e-05
1.16897e-05
1.15769e-05
1.15055e-05
1.14585e-05
1.14208e-05
1.13838e-05
1.13445e-05
1.13036e-05
1.12643e-05
1.12302e-05
1.12039e-05
1.11864e-05
1.11772e-05
1.11744e-05
1.11752e-05
1.11767e-05
1.24055e-05
1.2408e-05
1.24135e-05
1.24224e-05
1.24346e-05
1.24489e-05
1.24628e-05
1.24716e-05
1.24692e-05
1.24487e-05
1.24044e-05
1.23347e-05
1.22423e-05
1.2131e-05
1.20054e-05
1.18683e-05
1.17344e-05
1.1631e-05
1.1562e-05
1.15135e-05
1.14727e-05
1.14317e-05
1.13867e-05
1.13379e-05
1.12887e-05
1.12436e-05
1.12068e-05
1.11806e-05
1.11648e-05
1.11573e-05
1.11552e-05
1.11554e-05
1.23515e-05
1.23541e-05
1.23595e-05
1.23679e-05
1.23789e-05
1.23911e-05
1.24023e-05
1.24086e-05
1.24047e-05
1.23852e-05
1.23459e-05
1.22865e-05
1.2209e-05
1.21157e-05
1.20087e-05
1.18895e-05
1.17705e-05
1.16741e-05
1.16043e-05
1.15514e-05
1.15058e-05
1.14608e-05
1.14126e-05
1.13604e-05
1.13063e-05
1.12545e-05
1.12098e-05
1.1176e-05
1.11542e-05
1.11428e-05
1.11388e-05
1.11384e-05
1.22944e-05
1.22973e-05
1.23033e-05
1.2312e-05
1.23225e-05
1.23331e-05
1.23418e-05
1.23452e-05
1.23392e-05
1.23193e-05
1.22827e-05
1.22299e-05
1.21628e-05
1.20828e-05
1.19907e-05
1.18869e-05
1.17808e-05
1.16906e-05
1.16207e-05
1.15645e-05
1.15154e-05
1.14681e-05
1.14191e-05
1.13669e-05
1.13124e-05
1.12586e-05
1.12099e-05
1.11709e-05
1.11441e-05
1.11292e-05
1.11234e-05
1.11225e-05
1.2228e-05
1.22317e-05
1.22387e-05
1.22478e-05
1.22575e-05
1.2266e-05
1.22713e-05
1.22708e-05
1.22612e-05
1.22392e-05
1.2203e-05
1.21536e-05
1.20933e-05
1.20229e-05
1.19426e-05
1.18518e-05
1.17574e-05
1.16743e-05
1.16068e-05
1.15507e-05
1.15013e-05
1.14545e-05
1.14073e-05
1.1358e-05
1.13064e-05
1.12544e-05
1.12055e-05
1.11643e-05
1.11343e-05
1.11165e-05
1.11089e-05
1.11075e-05
1.21478e-05
1.21526e-05
1.21605e-05
1.21693e-05
1.21767e-05
1.2181e-05
1.21807e-05
1.21745e-05
1.21598e-05
1.21343e-05
1.20971e-05
1.20499e-05
1.19945e-05
1.19319e-05
1.18616e-05
1.17827e-05
1.17002e-05
1.1626e-05
1.15643e-05
1.1512e-05
1.14657e-05
1.14224e-05
1.13796e-05
1.13355e-05
1.12894e-05
1.12421e-05
1.11963e-05
1.11558e-05
1.11245e-05
1.11047e-05
1.10955e-05
1.10935e-05
1.20505e-05
1.20564e-05
1.20643e-05
1.20706e-05
1.20728e-05
1.20701e-05
1.20622e-05
1.20487e-05
1.20283e-05
1.19995e-05
1.19621e-05
1.19173e-05
1.18672e-05
1.18122e-05
1.17519e-05
1.1685e-05
1.16153e-05
1.15521e-05
1.14988e-05
1.14533e-05
1.14128e-05
1.13754e-05
1.13388e-05
1.13016e-05
1.12628e-05
1.12224e-05
1.11821e-05
1.11447e-05
1.11142e-05
1.10936e-05
1.10833e-05
1.10807e-05
1.19331e-05
1.19397e-05
1.19455e-05
1.1946e-05
1.19401e-05
1.19284e-05
1.19121e-05
1.18919e-05
1.18673e-05
1.18373e-05
1.18018e-05
1.17615e-05
1.17181e-05
1.16718e-05
1.16222e-05
1.1568e-05
1.15119e-05
1.1461e-05
1.14179e-05
1.13808e-05
1.13479e-05
1.13175e-05
1.12882e-05
1.12587e-05
1.12281e-05
1.11959e-05
1.11628e-05
1.11308e-05
1.11031e-05
1.10831e-05
1.10723e-05
1.10692e-05
1.17923e-05
1.17982e-05
1.17984e-05
1.17901e-05
1.1775e-05
1.17553e-05
1.17332e-05
1.17096e-05
1.16842e-05
1.16564e-05
1.16256e-05
1.15924e-05
1.15574e-05
1.15211e-05
1.14829e-05
1.14418e-05
1.13996e-05
1.13613e-05
1.13289e-05
1.13008e-05
1.12761e-05
1.12533e-05
1.12316e-05
1.12098e-05
1.11874e-05
1.11637e-05
1.11388e-05
1.11137e-05
1.10907e-05
1.10729e-05
1.10624e-05
1.10589e-05
1.16231e-05
1.16253e-05
1.16166e-05
1.16e-05
1.15792e-05
1.15567e-05
1.15342e-05
1.15122e-05
1.14905e-05
1.14683e-05
1.1445e-05
1.14207e-05
1.13956e-05
1.13699e-05
1.13434e-05
1.13151e-05
1.12864e-05
1.12604e-05
1.12383e-05
1.12192e-05
1.12023e-05
1.1187e-05
1.11724e-05
1.11579e-05
1.11431e-05
1.11275e-05
1.11107e-05
1.10933e-05
1.10764e-05
1.10624e-05
1.10534e-05
1.105e-05
1.14178e-05
1.14128e-05
1.13978e-05
1.13803e-05
1.13622e-05
1.13446e-05
1.1328e-05
1.13127e-05
1.12984e-05
1.12844e-05
1.12703e-05
1.12557e-05
1.1241e-05
1.12261e-05
1.12108e-05
1.11947e-05
1.11783e-05
1.11636e-05
1.1151e-05
1.11402e-05
1.11307e-05
1.11221e-05
1.11139e-05
1.11059e-05
1.10977e-05
1.10891e-05
1.10799e-05
1.107e-05
1.10601e-05
1.10512e-05
1.10449e-05
1.10423e-05
1.11674e-05
1.11635e-05
1.1156e-05
1.11485e-05
1.11414e-05
1.11347e-05
1.11287e-05
1.11232e-05
1.11183e-05
1.11135e-05
1.11089e-05
1.11041e-05
1.10993e-05
1.10945e-05
1.10896e-05
1.10844e-05
1.10792e-05
1.10745e-05
1.10705e-05
1.10671e-05
1.1064e-05
1.10613e-05
1.10587e-05
1.10562e-05
1.10536e-05
1.1051e-05
1.10481e-05
1.1045e-05
1.10418e-05
1.10389e-05
1.10366e-05
1.10355e-05
)
;

boundaryField
{
    movingWall
    {
        type            fixedValue;
        value           uniform 1.1032e-05;
    }
    fixedWalls
    {
        type            zeroGradient;
    }
    floor
    {
        type            zeroGradient;
    }
    frontAndBack
    {
        type            empty;
    }
}


// ************************************************************************* //
