/*--------------------------------*- C++ -*----------------------------------*\
| =========                 |                                                 |
| \\      /  F ield         | OpenFOAM: The Open Source CFD Toolbox           |
|  \\    /   O peration     | Version:  2212                                  |
|   \\  /    A nd           | Website:  www.openfoam.com                      |
|    \\/     M anipulation  |                                                 |
\*---------------------------------------------------------------------------*/
FoamFile
{
    version     2.0;
    format      ascii;
    arch        "LSB;label=64;scalar=64";
    class       volScalarField;
    location    "590";
    object      Sco2;
}
// * * * * * * * * * * * * * * * * * * * * * * * * * * * * * * * * * * * * * //

dimensions      [1 -3 0 0 0 0 0];

internalField   nonuniform List<scalar> 
1024
(
0.00549922
0.00550011
0.00550224
0.00550603
0.00551188
0.00552002
0.00553032
0.00554226
0.005555
0.00556767
0.00557972
0.00559082
0.00560061
0.00560819
0.00561159
0.00560716
0.00559123
0.00556813
0.00554436
0.00552199
0.00550155
0.00548297
0.00546602
0.00545047
0.00543625
0.00542361
0.00541294
0.00540453
0.00539845
0.00539449
0.00539227
0.00539136
0.00549948
0.00550038
0.00550256
0.00550647
0.00551249
0.00552083
0.00553134
0.00554343
0.00555625
0.00556894
0.00558102
0.00559217
0.00560207
0.00560981
0.00561338
0.00560905
0.005593
0.00556967
0.00554572
0.00552323
0.0055027
0.00548408
0.00546709
0.0054515
0.00543721
0.00542446
0.00541363
0.00540506
0.00539882
0.00539474
0.00539245
0.00539151
0.00550004
0.00550099
0.00550331
0.00550745
0.00551382
0.00552256
0.00553345
0.00554581
0.00555878
0.00557154
0.00558369
0.00559504
0.0056053
0.00561358
0.00561778
0.00561381
0.00559739
0.00557333
0.0055488
0.00552592
0.00550513
0.00548633
0.00546921
0.0054535
0.00543906
0.00542609
0.00541496
0.00540606
0.00539954
0.00539525
0.00539284
0.00539185
0.00550097
0.005502
0.00550451
0.005509
0.00551587
0.00552518
0.00553658
0.00554931
0.00556246
0.00557535
0.00558773
0.00559956
0.00561066
0.00562019
0.00562581
0.00562265
0.0056055
0.00557988
0.00555405
0.00553031
0.00550893
0.00548972
0.00547229
0.00545631
0.00544159
0.00542829
0.00541677
0.00540746
0.00540056
0.00539601
0.00539345
0.00539239
0.00550228
0.00550339
0.00550614
0.00551106
0.00551852
0.00552849
0.00554047
0.00555358
0.00556697
0.00558011
0.00559299
0.00560578
0.00561848
0.0056303
0.00563852
0.00563691
0.00561852
0.00559018
0.00556205
0.0055367
0.0055142
0.00549417
0.00547613
0.00545966
0.00544452
0.00543078
0.00541881
0.00540904
0.00540177
0.00539694
0.00539422
0.00539311
0.00550389
0.00550509
0.00550809
0.00551344
0.00552148
0.00553209
0.00554462
0.00555812
0.00557183
0.00558543
0.00559919
0.00561359
0.00562887
0.00564433
0.00565672
0.00565767
0.00563748
0.00560509
0.00557339
0.00554543
0.00552105
0.00549962
0.00548052
0.00546325
0.00544746
0.0054332
0.00542076
0.00541058
0.00540298
0.00539793
0.00539509
0.00539394
0.00550566
0.00550693
0.00551011
0.00551581
0.00552432
0.00553544
0.00554843
0.00556231
0.00557642
0.00559073
0.00560581
0.00562249
0.00564141
0.00566207
0.00568053
0.00568539
0.00566293
0.0056252
0.00558855
0.00555681
0.00552957
0.00550599
0.00548525
0.00546676
0.00545009
0.00543519
0.00542231
0.00541182
0.005404
0.00539883
0.00539593
0.00539475
0.00550736
0.00550866
0.00551194
0.00551782
0.00552658
0.00553798
0.00555124
0.00556543
0.00558
0.00559517
0.00561187
0.00563137
0.00565487
0.00568232
0.0057091
0.0057196
0.00569465
0.00565054
0.00560769
0.00557089
0.00553973
0.00551314
0.00549012
0.00546995
0.00545213
0.00543652
0.00542323
0.00541256
0.00540469
0.00539951
0.00539661
0.00539543
0.00550873
0.00551003
0.0055133
0.00551913
0.00552784
0.0055392
0.00555246
0.00556674
0.00558164
0.00559757
0.00561585
0.00563832
0.00566704
0.0057029
0.00574072
0.00575906
0.00573177
0.00568047
0.00563029
0.00558725
0.00555115
0.00552075
0.00549484
0.00547259
0.0054534
0.00543702
0.00542342
0.00541271
0.00540492
0.00539983
0.005397
0.00539584
0.00550947
0.00551075
0.00551389
0.00551946
0.00552778
0.00553869
0.00555151
0.00556546
0.00558024
0.00559644
0.00561577
0.00564088
0.00567521
0.00572139
0.00577385
0.00580267
0.00577319
0.00571372
0.00565505
0.00560472
0.00556285
0.00552803
0.00549886
0.00547434
0.00545374
0.00543664
0.00542283
0.00541222
0.00540463
0.00539973
0.00539699
0.00539586
0.00550928
0.00551051
0.00551343
0.00551854
0.00552614
0.00553612
0.00554793
0.00556088
0.00557475
0.00559029
0.0056097
0.00563678
0.00567723
0.00573666
0.00580878
0.00585084
0.00581854
0.0057489
0.00568004
0.00562131
0.00557304
0.00553355
0.00550115
0.00547454
0.00545277
0.0054352
0.00542141
0.00541105
0.00540377
0.00539909
0.00539647
0.00539538
0.00550772
0.0055089
0.00551157
0.00551607
0.00552265
0.00553123
0.00554137
0.00555248
0.0055644
0.00557813
0.0055965
0.00562506
0.005673
0.0057506
0.00584921
0.00590669
0.00586899
0.00578535
0.00570349
0.00563473
0.00557938
0.00553521
0.0055
0.00547197
0.00544972
0.00543226
0.00541888
0.00540902
0.00540217
0.00539777
0.00539528
0.00539422
0.00550431
0.00550546
0.0055079
0.00551178
0.00551717
0.00552397
0.0055318
0.00554021
0.0055492
0.00556009
0.00557667
0.00560701
0.00566561
0.00576931
0.00590267
0.00597608
0.00592792
0.00582475
0.00572579
0.00564425
0.00558021
0.00553086
0.00549325
0.00546478
0.00544317
0.00542679
0.00541451
0.00540559
0.0053994
0.00539537
0.00539303
0.00539201
0.00549778
0.00549887
0.00550103
0.00550421
0.00550831
0.0055132
0.00551855
0.00552405
0.00552983
0.00553763
0.00555259
0.0055866
0.00566209
0.0058038
0.00598036
0.00606759
0.00600299
0.00587572
0.00575579
0.00565691
0.00557958
0.00552157
0.00547983
0.00545086
0.00543089
0.00541684
0.00540674
0.00539945
0.0053943
0.00539082
0.00538871
0.00538776
0.00548865
0.00548992
0.00549233
0.00549554
0.00549915
0.00550272
0.00550583
0.00550822
0.00551029
0.00551455
0.00552859
0.00557067
0.00567514
0.00587172
0.0060982
0.00619551
0.00611497
0.00596932
0.00583026
0.00570805
0.00560554
0.00552536
0.00546887
0.00543357
0.00541324
0.00540158
0.00539417
0.00538891
0.00538519
0.00538291
0.00538182
0.00538149
0.00546772
0.00546862
0.00547053
0.00547343
0.005477
0.00548061
0.0054834
0.00548474
0.00548527
0.00548907
0.00550842
0.0055719
0.00572806
0.00599959
0.00627906
0.00639168
0.00632485
0.00620111
0.00606901
0.00592977
0.00579089
0.00566369
0.00555834
0.00548117
0.00542913
0.00539868
0.00538539
0.00538438
0.00539078
0.00540003
0.00540829
0.00541292
0.00547488
0.00547257
0.00546838
0.00546326
0.00545847
0.00545497
0.00545318
0.00545336
0.00545729
0.0054719
0.00551594
0.00562817
0.00586194
0.00621531
0.00654627
0.00671639
0.00676261
0.00677312
0.00674664
0.00668011
0.00658225
0.00646545
0.00634271
0.00622582
0.00612129
0.00603666
0.00597567
0.00593883
0.00592264
0.00592027
0.00592407
0.00592772
0.00559532
0.00558916
0.0055766
0.00555862
0.00553765
0.00551711
0.00550069
0.00549227
0.00549726
0.00552737
0.00560728
0.00577859
0.00608249
0.00649369
0.00688189
0.00717307
0.0074127
0.00761743
0.00776456
0.00785996
0.00790936
0.00791874
0.00789374
0.00783958
0.00776221
0.00766912
0.00756793
0.00746864
0.0073822
0.00731752
0.0072783
0.00726193
0.00578282
0.0057755
0.00575956
0.00573481
0.00570306
0.00566856
0.00563775
0.00561897
0.00562304
0.00566731
0.00577988
0.00599425
0.00631832
0.00670703
0.0070881
0.00744442
0.00778588
0.00807078
0.008278
0.00843297
0.0085532
0.00864689
0.00871598
0.00875866
0.00877202
0.00875467
0.0087082
0.00863949
0.00856115
0.00848905
0.00843711
0.008412
0.00596297
0.00595641
0.00594153
0.00591729
0.00588436
0.00584628
0.0058102
0.0057869
0.00579048
0.00583987
0.00595832
0.00616353
0.00645001
0.00678986
0.00714726
0.00751134
0.00786184
0.00813606
0.00831825
0.00844462
0.00854568
0.00863736
0.00872474
0.00880591
0.00887548
0.0089275
0.00895766
0.00896492
0.00895273
0.0089293
0.00890581
0.00889193
0.00611039
0.00610484
0.00609215
0.00607121
0.00604222
0.00600787
0.00597462
0.00595328
0.00595822
0.00600679
0.00611617
0.00629449
0.00653511
0.00682284
0.00713908
0.00747521
0.00779956
0.00804708
0.00820709
0.00831646
0.00840835
0.0085013
0.0086015
0.0087059
0.00880607
0.00889282
0.00895931
0.00900293
0.00902525
0.0090313
0.00902844
0.00902439
0.0062336
0.00622855
0.00621722
0.00619892
0.00617408
0.00614513
0.00611764
0.00610119
0.00610866
0.00615451
0.00625102
0.00640176
0.00660141
0.0068417
0.00711302
0.00740942
0.00769963
0.00792564
0.00807902
0.00819016
0.00828743
0.00838848
0.0085011
0.008624
0.00874851
0.00886278
0.0089559
0.00902208
0.0090616
0.00907964
0.00908408
0.00908319
0.00634995
0.00634463
0.00633319
0.00631561
0.00629301
0.00626812
0.00624602
0.00623483
0.00624546
0.00628948
0.00637556
0.00650478
0.00667273
0.00687475
0.00710624
0.00736405
0.0076223
0.00783302
0.00798769
0.00810793
0.00821494
0.00832358
0.00844218
0.00857216
0.00870793
0.00883869
0.00895162
0.00903716
0.0090922
0.00912033
0.00912973
0.00913029
0.00647602
0.0064696
0.00645662
0.00643807
0.00641616
0.00639427
0.00637724
0.00637188
0.00638717
0.00643232
0.00651314
0.00662884
0.00677513
0.00694911
0.00714911
0.00737449
0.00760551
0.0078034
0.00795876
0.00808605
0.00820016
0.00831281
0.00843185
0.00856042
0.00869619
0.00883135
0.00895413
0.0090528
0.00912047
0.00915781
0.00917203
0.00917389
0.00662538
0.00661707
0.00660163
0.00658174
0.00656105
0.00654363
0.00653384
0.00653703
0.00656018
0.00661049
0.00669133
0.00680031
0.00693292
0.00708707
0.00726272
0.00746112
0.00766768
0.007851
0.00800135
0.00812841
0.00824263
0.00835301
0.00846651
0.00858713
0.00871475
0.00884454
0.0089673
0.00907148
0.00914755
0.00919255
0.00921139
0.00921468
0.00680836
0.00679755
0.00677982
0.00676051
0.00674475
0.00673655
0.00673896
0.00675516
0.00678997
0.00684852
0.00693218
0.00703763
0.00716038
0.00729878
0.00745354
0.00762713
0.00780879
0.00797313
0.00811115
0.00822966
0.00833625
0.00843776
0.00854001
0.00864711
0.00876043
0.00887778
0.00899265
0.00909499
0.00917436
0.00922467
0.00924763
0.00925246
0.00703275
0.00701926
0.00700136
0.00698758
0.00698342
0.00699115
0.00701106
0.00704373
0.00709173
0.00715816
0.00724327
0.00734392
0.00745612
0.00757858
0.00771232
0.00786031
0.00801467
0.00815529
0.00827468
0.00837799
0.00847083
0.00855833
0.00864515
0.00873495
0.00882985
0.00892961
0.00903046
0.00912461
0.00920197
0.00925449
0.0092806
0.00928703
0.00730526
0.00729004
0.00727697
0.00727634
0.00729104
0.00731937
0.00735837
0.00740637
0.00746426
0.00753374
0.00761514
0.0077063
0.00780422
0.00790799
0.00801869
0.0081392
0.00826389
0.00837752
0.0084744
0.0085585
0.00863395
0.00870452
0.0087737
0.00884448
0.00891904
0.0089983
0.00908079
0.0091614
0.00923161
0.00928265
0.00931033
0.0093182
0.00763375
0.00762008
0.00761993
0.00763966
0.00767575
0.00772239
0.00777483
0.00783071
0.00789031
0.00795502
0.00802576
0.00810162
0.00818077
0.00826269
0.00834832
0.00844009
0.00853416
0.00861968
0.0086927
0.00875614
0.0088129
0.00886564
0.00891684
0.0089687
0.00902305
0.00908118
0.00914308
0.00920624
0.0092646
0.00931015
0.0093371
0.00934591
0.00802991
0.00802486
0.00804538
0.00808466
0.00813378
0.00818677
0.00823996
0.00829185
0.00834293
0.00839469
0.00844844
0.00850426
0.00856128
0.00861929
0.00867901
0.0087422
0.00880641
0.00886464
0.00891438
0.00895755
0.00899606
0.00903163
0.00906588
0.00910024
0.00913602
0.00917431
0.00921571
0.00925946
0.00930225
0.00933821
0.00936151
0.00937023
0.00851203
0.00852379
0.00855903
0.00860027
0.00864287
0.00868447
0.00872348
0.00875953
0.00879328
0.00882597
0.00885877
0.00889209
0.00892569
0.00895949
0.00899395
0.00903008
0.00906658
0.00909962
0.00912782
0.00915227
0.00917401
0.009194
0.00921311
0.00923213
0.0092518
0.00927277
0.00929557
0.00932023
0.00934546
0.00936823
0.00938446
0.00939143
0.00910099
0.00911011
0.0091279
0.00914549
0.00916227
0.00917798
0.00919225
0.00920507
0.00921674
0.00922778
0.00923865
0.00924956
0.00926049
0.00927142
0.00928252
0.00929409
0.00930575
0.00931628
0.00932528
0.00933306
0.00933997
0.0093463
0.00935233
0.0093583
0.00936444
0.00937094
0.00937801
0.0093857
0.00939376
0.00940136
0.00940724
0.00941011
)
;

boundaryField
{
    movingWall
    {
        type            fixedValue;
        value           uniform 0.00942;
    }
    fixedWalls
    {
        type            zeroGradient;
    }
    floor
    {
        type            zeroGradient;
    }
    frontAndBack
    {
        type            empty;
    }
}


// ************************************************************************* //
