/*--------------------------------*- C++ -*----------------------------------*\
| =========                 |                                                 |
| \\      /  F ield         | OpenFOAM: The Open Source CFD Toolbox           |
|  \\    /   O peration     | Version:  2206                                  |
|   \\  /    A nd           | Website:  www.openfoam.com                      |
|    \\/     M anipulation  |                                                 |
\*---------------------------------------------------------------------------*/
FoamFile
{
    version     2.0;
    format      ascii;
    arch        "LSB;label=64;scalar=64";
    class       volVectorField;
    location    "583200";
    object      U;
}
// * * * * * * * * * * * * * * * * * * * * * * * * * * * * * * * * * * * * * //

dimensions      [0 1 -1 0 0 0 0];

internalField   nonuniform List<vector> 
16
(
(7.14827e-08 -9.64913e-08 0)
(2.13714e-07 -3.05943e-08 0)
(1.92471e-07 4.76463e-08 0)
(4.84871e-08 7.92185e-08 0)
(-1.09325e-08 -1.88623e-07 0)
(4.22641e-08 -8.9961e-08 0)
(3.46627e-08 1.21279e-07 0)
(-2.16827e-08 1.57202e-07 0)
(-3.39089e-08 -1.31569e-07 0)
(-1.07741e-07 -7.78365e-08 0)
(-1.03812e-07 1.12189e-07 0)
(-2.92412e-08 9.63198e-08 0)
(-2.58229e-08 -4.37594e-08 0)
(-1.49007e-07 -2.03444e-08 0)
(-1.23131e-07 4.21747e-08 0)
(1.92939e-09 2.24932e-08 0)
)
;

boundaryField
{
    movingWall
    {
        type            noSlip;
    }
    fixedWalls
    {
        type            noSlip;
    }
    frontAndBack
    {
        type            empty;
    }
}


// ************************************************************************* //
