/*--------------------------------*- C++ -*----------------------------------*\
| =========                 |                                                 |
| \\      /  F ield         | OpenFOAM: The Open Source CFD Toolbox           |
|  \\    /   O peration     | Version:  2212                                  |
|   \\  /    A nd           | Website:  www.openfoam.com                      |
|    \\/     M anipulation  |                                                 |
\*---------------------------------------------------------------------------*/
FoamFile
{
    version     2.0;
    format      ascii;
    arch        "LSB;label=64;scalar=64";
    class       volScalarField::Internal;
    location    "760";
    object      dGco2;
}
// * * * * * * * * * * * * * * * * * * * * * * * * * * * * * * * * * * * * * //

dimensions      [1 -3 -1 0 0 0 0];

value           nonuniform List<scalar> 
1024
(
0.000145996
0.000146023
0.000146092
0.000146218
0.000146415
0.000146692
0.000147048
0.000147471
0.000147936
0.00014842
0.000148904
0.000149375
0.000149814
0.000150173
0.000150355
0.000150217
0.00014973
0.000149056
0.000148338
0.000147625
0.000146934
0.000146271
0.000145637
0.000145043
0.000144503
0.000144036
0.000143657
0.00014337
0.000143169
0.000143041
0.00014297
0.000142941
0.000145998
0.000146026
0.000146098
0.000146227
0.000146428
0.000146711
0.000147073
0.000147499
0.000147966
0.00014845
0.000148933
0.000149405
0.000149846
0.000150209
0.000150395
0.000150256
0.000149766
0.00014909
0.000148371
0.000147657
0.000146967
0.000146304
0.000145671
0.000145076
0.000144533
0.000144062
0.000143677
0.000143385
0.000143179
0.000143049
0.000142976
0.000142947
0.000146003
0.000146034
0.000146109
0.000146245
0.000146456
0.000146748
0.000147119
0.000147551
0.000148019
0.000148503
0.000148987
0.000149463
0.000149914
0.000150293
0.000150491
0.000150349
0.000149848
0.000149164
0.00014844
0.000147724
0.000147033
0.000146371
0.000145738
0.000145141
0.000144593
0.000144113
0.000143718
0.000143416
0.000143202
0.000143066
0.00014299
0.000142959
0.000146013
0.000146046
0.000146126
0.00014627
0.000146492
0.000146796
0.000147177
0.000147614
0.000148083
0.000148566
0.000149053
0.000149543
0.000150021
0.000150437
0.000150663
0.000150516
0.000149989
0.000149282
0.000148544
0.00014782
0.000147127
0.000146465
0.000145833
0.000145234
0.00014468
0.000144188
0.000143779
0.000143463
0.000143238
0.000143093
0.000143014
0.000142981
0.000146025
0.00014606
0.000146145
0.000146297
0.000146528
0.000146843
0.00014723
0.000147669
0.000148137
0.00014862
0.000149117
0.000149634
0.000150165
0.00015065
0.00015093
0.000150775
0.0001502
0.000149448
0.00014868
0.000147939
0.000147238
0.000146575
0.000145944
0.000145344
0.000144783
0.00014428
0.000143855
0.000143522
0.000143284
0.000143131
0.000143046
0.000143011
0.000146033
0.00014607
0.000146158
0.000146315
0.000146552
0.00014687
0.000147257
0.000147693
0.000148156
0.000148641
0.000149157
0.000149722
0.000150338
0.000150936
0.000151303
0.000151142
0.00015049
0.000149663
0.00014884
0.000148066
0.000147349
0.00014668
0.00014605
0.00014545
0.000144886
0.000144373
0.000143935
0.000143587
0.000143336
0.000143174
0.000143085
0.000143048
0.00014603
0.000146067
0.000146156
0.000146312
0.000146546
0.000146858
0.000147236
0.000147659
0.000148113
0.000148601
0.000149146
0.000149784
0.000150526
0.000151289
0.000151782
0.000151621
0.000150863
0.000149919
0.000149012
0.000148183
0.000147436
0.000146756
0.000146125
0.000145529
0.000144966
0.00014445
0.000144004
0.000143647
0.000143387
0.000143219
0.000143125
0.000143088
0.000146004
0.000146041
0.000146127
0.000146275
0.000146496
0.000146789
0.000147144
0.000147544
0.000147982
0.000148473
0.000149057
0.00014979
0.000150704
0.000151691
0.000152357
0.000152205
0.000151306
0.000150201
0.000149171
0.000148262
0.00014747
0.000146772
0.00014614
0.000145552
0.000144998
0.000144488
0.000144045
0.000143687
0.000143425
0.000143255
0.000143161
0.000143122
0.000145942
0.000145977
0.000146057
0.000146191
0.000146389
0.00014665
0.000146967
0.00014733
0.000147743
0.000148233
0.000148864
0.000149721
0.000150858
0.000152132
0.000153012
0.000152869
0.000151791
0.000150475
0.000149283
0.000148269
0.000147417
0.000146696
0.000146065
0.000145491
0.000144957
0.000144468
0.00014404
0.000143694
0.00014344
0.000143274
0.000143181
0.000143143
0.000145826
0.000145859
0.000145931
0.000146047
0.000146214
0.000146432
0.000146698
0.000147013
0.00014739
0.000147878
0.000148569
0.000149588
0.000151014
0.000152638
0.000153753
0.000153589
0.000152271
0.000150689
0.000149299
0.000148158
0.000147239
0.000146494
0.000145871
0.000145324
0.000144825
0.000144372
0.000143977
0.000143656
0.00014342
0.000143264
0.000143175
0.000143139
0.000145645
0.000145674
0.000145735
0.000145831
0.000145964
0.000146134
0.000146345
0.000146605
0.000146948
0.000147449
0.000148236
0.000149485
0.000151282
0.0001533
0.000154619
0.000154342
0.00015269
0.000150778
0.000149158
0.000147878
0.000146893
0.000146135
0.000145534
0.000145032
0.000144588
0.00014419
0.000143843
0.000143562
0.000143352
0.000143212
0.000143131
0.000143096
0.000145434
0.000145452
0.000145492
0.000145558
0.000145653
0.00014578
0.000145945
0.000146173
0.000146518
0.00014709
0.000148066
0.000149654
0.000151898
0.000154294
0.00015569
0.00015512
0.000152997
0.000150687
0.000148813
0.000147392
0.00014635
0.000145596
0.00014504
0.000144606
0.000144238
0.000143914
0.000143632
0.000143401
0.000143225
0.000143104
0.000143031
0.000142998
0.000145478
0.000145468
0.000145458
0.000145461
0.000145494
0.000145573
0.000145722
0.000145983
0.000146434
0.000147215
0.000148533
0.000150573
0.000153264
0.00015587
0.000157055
0.000155923
0.00015319
0.000150446
0.000148307
0.000146738
0.000145636
0.000144892
0.000144396
0.000144048
0.000143775
0.000143539
0.000143333
0.000143158
0.000143019
0.000142918
0.000142853
0.000142822
0.000146825
0.000146782
0.000146706
0.000146618
0.000146558
0.000146575
0.000146729
0.000147094
0.000147769
0.00014889
0.000150624
0.000153054
0.000155926
0.000158276
0.000158765
0.0001568
0.000153468
0.000150373
0.000147986
0.000146211
0.000144962
0.000144153
0.000143672
0.000143394
0.000143216
0.000143073
0.000142942
0.00014282
0.000142713
0.000142629
0.000142572
0.000142545
0.000151288
0.000151258
0.000151198
0.000151124
0.000151074
0.000151106
0.000151299
0.000151746
0.00015254
0.000153792
0.000155588
0.000157873
0.000160202
0.000161521
0.000160852
0.00015818
0.000154766
0.000151695
0.000149097
0.00014691
0.000145194
0.000143977
0.000143202
0.000142763
0.000142528
0.000142395
0.000142309
0.000142254
0.000142232
0.00014224
0.000142263
0.000142282
0.000159055
0.000159085
0.000159141
0.000159221
0.00015933
0.000159495
0.000159763
0.000160195
0.000160848
0.000161793
0.000163046
0.000164441
0.000165482
0.000165449
0.0001642
0.000162248
0.000160232
0.00015814
0.000155791
0.000153241
0.000150694
0.000148399
0.000146452
0.00014496
0.000143971
0.000143466
0.00014338
0.000143611
0.000144023
0.000144466
0.000144819
0.000145006
0.000166124
0.000166181
0.000166293
0.000166452
0.000166656
0.00016691
0.000167233
0.000167661
0.000168228
0.000168971
0.000169881
0.000170855
0.000171759
0.000172571
0.000173539
0.000174878
0.000176427
0.000177498
0.000177707
0.000177122
0.000175887
0.000174223
0.000172261
0.00017022
0.000168295
0.000166655
0.000165422
0.000164654
0.000164324
0.000164305
0.00016443
0.000164542
0.000169955
0.000170006
0.000170122
0.000170316
0.000170611
0.000171035
0.000171618
0.000172395
0.000173396
0.000174658
0.000176231
0.000178171
0.000180561
0.000183533
0.000187286
0.000191965
0.000197189
0.000201933
0.000205659
0.000208466
0.000210401
0.000211491
0.000211765
0.000211281
0.000210116
0.000208403
0.000206331
0.000204167
0.000202223
0.000200761
0.00019989
0.000199541
0.000171873
0.000171921
0.000172046
0.000172285
0.000172683
0.000173288
0.000174143
0.000175287
0.000176747
0.000178557
0.000180772
0.000183476
0.00018678
0.00019081
0.000195672
0.000201394
0.000207435
0.000212759
0.000217056
0.000220636
0.000223678
0.000226227
0.000228248
0.000229664
0.000230387
0.000230372
0.000229658
0.000228402
0.000226889
0.000225479
0.000224469
0.000223988
0.000172984
0.000173032
0.000173161
0.000173419
0.000173861
0.00017455
0.000175541
0.000176875
0.000178577
0.000180665
0.000183172
0.000186155
0.000189694
0.000193859
0.000198669
0.000204036
0.000209319
0.000213628
0.000216971
0.00021984
0.000222526
0.000225139
0.000227663
0.00022999
0.000231968
0.000233457
0.00023437
0.000234708
0.000234573
0.000234162
0.000233725
0.000233464
0.000173714
0.000173758
0.000173878
0.000174125
0.000174557
0.000175242
0.000176243
0.000177605
0.00017935
0.000181483
0.000184009
0.000186952
0.000190349
0.000194235
0.000198589
0.000203285
0.000207713
0.000211182
0.000213878
0.000216336
0.000218887
0.000221672
0.000224668
0.00022771
0.000230547
0.00023294
0.000234729
0.000235878
0.000236457
0.000236617
0.000236555
0.000236463
0.000174336
0.000174365
0.000174457
0.00017466
0.000175039
0.000175661
0.000176593
0.000177882
0.00017955
0.000181592
0.000183999
0.000186766
0.000189905
0.000193431
0.000197322
0.000201477
0.000205387
0.000208513
0.000211052
0.000213458
0.000216035
0.000218947
0.000222221
0.000225724
0.00022919
0.0002323
0.000234788
0.000236527
0.000237547
0.000238
0.000238101
0.000238071
0.00017515
0.000175148
0.000175179
0.000175299
0.000175578
0.000176093
0.000176914
0.00017809
0.000179641
0.000181562
0.000183832
0.000186433
0.000189361
0.000192618
0.000196197
0.000200041
0.000203756
0.000206887
0.000209541
0.000212058
0.000214697
0.00021763
0.000220932
0.000224544
0.000228267
0.000231791
0.000234786
0.000237024
0.000238445
0.000239158
0.000239386
0.000239392
0.00017651
0.000176453
0.000176382
0.00017637
0.000176508
0.000176889
0.000177594
0.000178678
0.000180156
0.000182017
0.000184233
0.000186773
0.000189617
0.000192758
0.000196194
0.000199915
0.000203614
0.000206859
0.000209659
0.000212274
0.000214922
0.000217775
0.000220934
0.000224403
0.000228063
0.000231674
0.000234917
0.000237494
0.000239244
0.000240198
0.000240553
0.000240593
0.000178778
0.000178639
0.000178428
0.000178251
0.000178235
0.000178503
0.00017915
0.00018023
0.000181749
0.000183674
0.00018596
0.00018856
0.000191435
0.000194566
0.000197951
0.000201612
0.000205297
0.000208582
0.000211413
0.000214003
0.000216545
0.0002192
0.000222086
0.000225246
0.000228624
0.000232059
0.000235289
0.000238011
0.000239984
0.000241142
0.00024162
0.000241699
0.000182259
0.000182018
0.000181655
0.000181336
0.000181233
0.00018149
0.000182209
0.000183427
0.000185116
0.000187213
0.000189647
0.000192352
0.000195276
0.000198391
0.000201694
0.000205223
0.000208766
0.00021192
0.000214612
0.000217027
0.000219337
0.000221688
0.000224196
0.000226927
0.000229876
0.000232952
0.000235962
0.000238635
0.0002407
0.000242001
0.000242591
0.000242711
0.000187163
0.000186815
0.000186352
0.000186014
0.000185995
0.000186425
0.000187377
0.000188848
0.000190764
0.000193034
0.000195571
0.000198301
0.000201171
0.000204151
0.000207238
0.00021048
0.000213698
0.000216535
0.000218929
0.000221042
0.000223023
0.000224997
0.000227066
0.000229302
0.000231732
0.000234322
0.000236953
0.000239411
0.000241426
0.00024279
0.000243466
0.00024363
0.000193619
0.000193197
0.00019278
0.000192652
0.000192952
0.000193733
0.000195006
0.000196717
0.000198769
0.00020107
0.000203538
0.000206109
0.000208739
0.000211404
0.000214106
0.000216891
0.000219617
0.000221996
0.000223981
0.000225711
0.000227307
0.000228869
0.000230481
0.000232208
0.000234088
0.000236127
0.000238269
0.000240371
0.000242201
0.000243531
0.000244251
0.000244454
0.000201742
0.000201346
0.000201223
0.000201558
0.000202329
0.00020348
0.000204974
0.000206741
0.000208704
0.000210797
0.000212963
0.000215157
0.000217351
0.000219531
0.000221701
0.000223902
0.000226028
0.000227865
0.000229387
0.0002307
0.000231894
0.000233047
0.000234219
0.000235463
0.000236815
0.000238297
0.000239897
0.000241541
0.000243063
0.000244252
0.000244955
0.000245184
0.000211735
0.000211566
0.000211983
0.000212833
0.000213941
0.000215223
0.00021665
0.000218181
0.000219784
0.000221426
0.000223079
0.000224719
0.00022633
0.000227909
0.000229459
0.000231011
0.000232495
0.000233768
0.000234817
0.000235715
0.000236524
0.000237294
0.000238069
0.000238882
0.000239762
0.00024073
0.000241795
0.000242932
0.000244047
0.000244987
0.000245596
0.000245824
0.00022399
0.000224267
0.000225103
0.000226062
0.000227054
0.000228056
0.000229071
0.000230092
0.000231117
0.000232139
0.000233148
0.000234136
0.000235096
0.000236028
0.000236935
0.000237836
0.00023869
0.00023942
0.000240019
0.00024053
0.000240986
0.000241416
0.000241845
0.000242291
0.000242771
0.000243297
0.000243882
0.000244521
0.000245178
0.000245773
0.000246198
0.000246381
0.000238998
0.000239224
0.00023966
0.000240079
0.000240475
0.000240853
0.000241218
0.000241573
0.000241922
0.000242264
0.000242598
0.000242923
0.000243237
0.00024354
0.000243834
0.000244124
0.000244399
0.000244633
0.000244824
0.000244987
0.000245132
0.000245268
0.000245403
0.000245542
0.000245691
0.000245854
0.000246034
0.000246233
0.000246443
0.000246642
0.000246796
0.000246871
)
;


// ************************************************************************* //
