/*--------------------------------*- C++ -*----------------------------------*\
| =========                 |                                                 |
| \\      /  F ield         | OpenFOAM: The Open Source CFD Toolbox           |
|  \\    /   O peration     | Version:  2212                                  |
|   \\  /    A nd           | Website:  www.openfoam.com                      |
|    \\/     M anipulation  |                                                 |
\*---------------------------------------------------------------------------*/
FoamFile
{
    version     2.0;
    format      ascii;
    arch        "LSB;label=64;scalar=64";
    class       volScalarField;
    location    "760";
    object      Sch4;
}
// * * * * * * * * * * * * * * * * * * * * * * * * * * * * * * * * * * * * * //

dimensions      [1 -3 0 0 0 0 0];

internalField   nonuniform List<scalar> 
1024
(
0.0350216
0.0350276
0.035042
0.0350678
0.0351079
0.0351641
0.0352363
0.0353218
0.035416
0.0355139
0.0356118
0.0357071
0.0357958
0.0358685
0.0359054
0.0358776
0.0357792
0.0356429
0.0354977
0.0353533
0.0352136
0.0350794
0.0349513
0.034831
0.0347217
0.0346272
0.0345504
0.0344923
0.0344516
0.0344257
0.0344114
0.0344055
0.0350224
0.0350284
0.0350432
0.0350696
0.0351107
0.035168
0.0352413
0.0353276
0.0354221
0.0355199
0.0356178
0.0357132
0.0358024
0.0358759
0.0359135
0.0358855
0.0357864
0.0356498
0.0355043
0.0353599
0.0352202
0.0350862
0.0349581
0.0348376
0.0347277
0.0346323
0.0345545
0.0344953
0.0344537
0.0344273
0.0344126
0.0344066
0.035024
0.0350303
0.0350457
0.0350734
0.0351162
0.0351756
0.0352506
0.035338
0.0354329
0.0355306
0.0356286
0.0357249
0.0358162
0.0358928
0.035933
0.0359044
0.0358031
0.0356646
0.0355182
0.0353733
0.0352336
0.0350997
0.0349717
0.0348508
0.0347399
0.0346428
0.0345628
0.0345015
0.0344583
0.0344307
0.0344154
0.0344092
0.0350263
0.035033
0.0350494
0.0350787
0.0351236
0.0351853
0.0352623
0.0353508
0.0354458
0.0355434
0.035642
0.035741
0.0358377
0.0359218
0.0359678
0.0359381
0.0358315
0.0356886
0.0355392
0.0353928
0.0352526
0.0351187
0.0349909
0.0348697
0.0347574
0.034658
0.0345751
0.034511
0.0344655
0.0344363
0.0344201
0.0344135
0.035029
0.0350361
0.0350534
0.0350842
0.0351311
0.0351948
0.0352731
0.035362
0.0354567
0.0355543
0.0356549
0.0357595
0.0358668
0.035965
0.0360217
0.0359906
0.0358742
0.0357222
0.0355668
0.0354169
0.035275
0.0351409
0.0350132
0.0348918
0.0347782
0.0346764
0.0345904
0.0345231
0.0344748
0.0344438
0.0344266
0.0344196
0.0350309
0.0350382
0.0350562
0.0350879
0.0351359
0.0352003
0.0352787
0.0353668
0.0354606
0.0355586
0.035663
0.0357773
0.0359019
0.0360229
0.0360971
0.0360648
0.035933
0.0357656
0.0355993
0.0354427
0.0352974
0.0351622
0.0350346
0.0349133
0.034799
0.0346953
0.0346065
0.0345362
0.0344854
0.0344526
0.0344344
0.0344271
0.0350304
0.0350378
0.0350558
0.0350874
0.0351348
0.035198
0.0352744
0.03536
0.0354519
0.0355506
0.0356609
0.0357897
0.0359398
0.0360941
0.0361941
0.0361618
0.0360084
0.0358176
0.0356339
0.0354663
0.0353151
0.0351775
0.0350498
0.0349292
0.0348152
0.0347108
0.0346205
0.0345482
0.0344956
0.0344615
0.0344427
0.034435
0.0350252
0.0350326
0.0350499
0.03508
0.0351247
0.0351841
0.0352559
0.0353368
0.0354255
0.0355247
0.0356428
0.0357911
0.0359758
0.0361753
0.0363103
0.0362799
0.0360982
0.0358748
0.0356663
0.0354823
0.035322
0.0351807
0.0350528
0.0349337
0.0348216
0.0347185
0.0346287
0.0345563
0.0345034
0.0344689
0.0344498
0.034442
0.0350126
0.0350197
0.0350358
0.0350631
0.0351031
0.0351559
0.0352201
0.0352937
0.0353771
0.0354762
0.0356037
0.035777
0.0360068
0.0362646
0.0364429
0.0364145
0.0361966
0.0359304
0.0356892
0.0354838
0.0353114
0.0351653
0.0350375
0.0349214
0.0348134
0.0347143
0.0346278
0.0345578
0.0345063
0.0344727
0.0344539
0.0344462
0.0349893
0.034996
0.0350104
0.035034
0.0350677
0.0351119
0.0351658
0.0352294
0.0353057
0.0354044
0.0355441
0.03575
0.0360381
0.0363667
0.0365927
0.0365602
0.036294
0.035974
0.0356926
0.0354615
0.0352753
0.0351245
0.0349983
0.0348876
0.0347867
0.0346949
0.0346149
0.03455
0.0345021
0.0344706
0.0344527
0.0344453
0.0349527
0.0349586
0.034971
0.0349904
0.0350172
0.0350517
0.0350943
0.035147
0.0352164
0.0353174
0.0354765
0.0357288
0.036092
0.0365006
0.0367681
0.036713
0.0363792
0.0359924
0.0356645
0.0354052
0.0352055
0.0350519
0.0349303
0.0348286
0.0347387
0.034658
0.0345879
0.0345309
0.0344885
0.0344601
0.0344437
0.0344366
0.0349099
0.0349136
0.0349217
0.0349351
0.0349544
0.0349799
0.0350134
0.0350594
0.0351291
0.0352445
0.0354417
0.0357626
0.0362163
0.0367014
0.036985
0.0368711
0.0364421
0.0359748
0.0355953
0.0353074
0.035096
0.0349431
0.0348305
0.0347424
0.0346678
0.0346022
0.0345452
0.0344984
0.0344628
0.0344383
0.0344234
0.0344167
0.0349184
0.0349165
0.0349145
0.0349151
0.0349217
0.0349377
0.0349678
0.0350204
0.0351115
0.0352692
0.0355353
0.0359476
0.0364921
0.0370201
0.0372619
0.0370346
0.0364825
0.0359271
0.0354938
0.0351757
0.034952
0.034801
0.0347002
0.0346296
0.0345741
0.0345263
0.0344845
0.0344492
0.0344211
0.0344006
0.0343874
0.034381
0.0351901
0.0351814
0.0351659
0.0351482
0.035136
0.0351394
0.0351703
0.0352439
0.0353801
0.0356064
0.0359568
0.0364484
0.0370301
0.0375074
0.0376092
0.037214
0.0365408
0.0359143
0.0354303
0.0350701
0.0348164
0.0346518
0.0345538
0.0344973
0.034461
0.034432
0.0344055
0.0343808
0.0343591
0.034342
0.0343306
0.0343251
0.0360921
0.0360859
0.0360736
0.0360585
0.036048
0.0360542
0.036093
0.0361833
0.0363434
0.0365965
0.0369598
0.0374229
0.0378959
0.0381658
0.0380339
0.0374961
0.0368065
0.0361851
0.0356584
0.0352144
0.0348653
0.0346175
0.0344596
0.0343698
0.0343219
0.0342947
0.0342772
0.0342661
0.0342617
0.0342634
0.0342682
0.034272
0.0376634
0.0376694
0.0376806
0.0376964
0.0377182
0.0377513
0.0378051
0.0378923
0.0380244
0.0382159
0.0384703
0.0387544
0.0389678
0.0389647
0.0387155
0.0383235
0.037918
0.0374959
0.0370204
0.0365033
0.0359863
0.0355198
0.035124
0.0348205
0.0346191
0.0345159
0.0344979
0.0345444
0.0346276
0.0347174
0.0347889
0.0348268
0.0390944
0.0391059
0.0391283
0.0391604
0.0392014
0.0392525
0.0393179
0.0394046
0.03952
0.0396717
0.0398579
0.0400577
0.0402437
0.0404114
0.0406109
0.0408857
0.0412029
0.0414223
0.0414661
0.0413484
0.0410986
0.040761
0.0403632
0.0399488
0.0395578
0.0392243
0.0389731
0.0388163
0.0387483
0.0387437
0.0387684
0.038791
0.0398701
0.0398804
0.0399036
0.0399429
0.0400024
0.0400878
0.0402059
0.0403634
0.0405667
0.0408236
0.041144
0.0415391
0.0420256
0.04263
0.0433927
0.0443429
0.0454027
0.0463644
0.0471195
0.0476882
0.0480802
0.0483011
0.0483568
0.0482587
0.0480228
0.0476756
0.0472556
0.0468169
0.0464226
0.0461261
0.0459494
0.0458786
0.0402589
0.0402686
0.0402938
0.040342
0.0404223
0.0405444
0.0407174
0.0409489
0.0412451
0.0416125
0.0420624
0.0426115
0.0432825
0.0441005
0.0450866
0.0462463
0.0474694
0.0485465
0.049415
0.0501389
0.0507543
0.0512701
0.0516795
0.0519665
0.0521135
0.0521113
0.0519675
0.0517138
0.0514082
0.0511231
0.0509188
0.0508215
0.0404845
0.040494
0.0405201
0.040572
0.0406614
0.0408005
0.0410008
0.0412708
0.0416155
0.0420387
0.0425473
0.0431527
0.0438706
0.0447153
0.0456904
0.0467774
0.0478462
0.048717
0.0493924
0.0499723
0.0505155
0.0510445
0.0515559
0.0520276
0.0524287
0.0527307
0.0529161
0.0529852
0.0529583
0.0528757
0.0527874
0.0527347
0.0406329
0.0406415
0.0406658
0.0407155
0.0408028
0.0409412
0.0411435
0.041419
0.0417723
0.0422043
0.0427165
0.0433132
0.0440022
0.0447899
0.0456723
0.0466232
0.047519
0.04822
0.0487647
0.0492616
0.049778
0.050342
0.0509491
0.0515656
0.0521407
0.0526256
0.0529885
0.0532214
0.0533388
0.0533713
0.053359
0.0533405
0.0407593
0.0407651
0.0407836
0.0408246
0.0409009
0.0410265
0.0412149
0.0414756
0.0418131
0.0422268
0.0427144
0.0432752
0.0439117
0.0446262
0.0454146
0.0462562
0.0470471
0.0476792
0.0481925
0.0486793
0.049201
0.0497907
0.0504539
0.0511637
0.0518659
0.052496
0.0530002
0.0533527
0.0535595
0.0536512
0.0536717
0.0536656
0.0409248
0.0409243
0.0409305
0.0409546
0.0410108
0.0411147
0.0412805
0.0415183
0.0418322
0.042221
0.0426808
0.0432078
0.043801
0.0444612
0.0451861
0.0459647
0.0467166
0.0473501
0.047887
0.0483965
0.0489307
0.0495247
0.0501934
0.0509252
0.0516793
0.0523932
0.053
0.0534533
0.0537412
0.0538857
0.053932
0.0539331
0.0412009
0.0411892
0.0411748
0.0411721
0.0411997
0.0412765
0.0414191
0.041638
0.041937
0.0423136
0.0427622
0.0432766
0.0438526
0.044489
0.0451851
0.0459388
0.0466876
0.0473444
0.0479112
0.0484405
0.0489768
0.0495545
0.0501944
0.050897
0.0516384
0.0523696
0.0530265
0.0535486
0.053903
0.0540963
0.0541682
0.0541764
0.0416607
0.0416325
0.0415897
0.0415537
0.0415502
0.0416041
0.0417347
0.0419531
0.0422601
0.0426496
0.0431124
0.0436386
0.0442208
0.0448549
0.0455406
0.046282
0.0470283
0.0476934
0.0482667
0.0487911
0.0493058
0.0498436
0.050428
0.0510679
0.0517522
0.0524478
0.053102
0.0536534
0.054053
0.0542874
0.0543843
0.0544002
0.0423661
0.0423171
0.0422436
0.042179
0.0421579
0.0422097
0.0423548
0.0426009
0.0429425
0.0433667
0.0438592
0.0444067
0.0449987
0.0456295
0.0462983
0.0470131
0.0477308
0.0483694
0.0489146
0.0494036
0.0498714
0.0503477
0.0508556
0.0514086
0.0520059
0.0526287
0.0532383
0.0537798
0.0541979
0.0544614
0.0545808
0.0546052
0.0433594
0.0432888
0.043195
0.0431265
0.0431225
0.0432094
0.0434019
0.0436993
0.0440868
0.0445459
0.0450591
0.0456117
0.0461926
0.0467959
0.047421
0.0480776
0.0487294
0.0493041
0.049789
0.050217
0.0506181
0.0510178
0.0514369
0.0518897
0.0523817
0.0529062
0.0534392
0.0539368
0.0543449
0.0546212
0.054758
0.0547912
0.0446665
0.0445811
0.0444966
0.0444707
0.0445316
0.0446895
0.0449468
0.0452929
0.0457081
0.0461734
0.0466727
0.047193
0.0477253
0.0482649
0.0488119
0.049376
0.0499282
0.0504099
0.0508121
0.0511625
0.0514857
0.051802
0.0521285
0.0524782
0.0528589
0.0532718
0.0537056
0.0541312
0.0545019
0.0547712
0.0549169
0.0549581
0.0463112
0.0462311
0.0462063
0.046274
0.0464301
0.0466632
0.0469653
0.0473227
0.0477199
0.0481433
0.0485814
0.0490255
0.0494695
0.0499108
0.0503502
0.0507958
0.0512265
0.0515986
0.0519069
0.0521727
0.0524147
0.0526481
0.0528856
0.0531374
0.0534112
0.0537113
0.0540354
0.0543682
0.0546764
0.0549171
0.0550595
0.055106
0.0483344
0.0483001
0.0483845
0.0485566
0.048781
0.0490406
0.0493293
0.0496392
0.0499634
0.0502956
0.0506299
0.0509617
0.0512879
0.0516074
0.0519213
0.0522356
0.0525361
0.0527941
0.0530065
0.0531883
0.0533521
0.0535082
0.053665
0.0538297
0.0540079
0.054204
0.0544197
0.0546498
0.0548757
0.055066
0.0551893
0.0552355
0.0508153
0.0508714
0.0510407
0.0512348
0.0514356
0.0516387
0.0518439
0.0520506
0.0522579
0.0524647
0.0526688
0.0528687
0.0530631
0.0532517
0.0534354
0.0536176
0.0537907
0.0539386
0.05406
0.0541633
0.0542557
0.0543429
0.0544297
0.05452
0.0546171
0.0547238
0.0548422
0.0549716
0.0551048
0.0552252
0.0553112
0.0553482
0.0538535
0.0538993
0.0539876
0.0540724
0.0541527
0.0542292
0.0543031
0.0543749
0.0544454
0.0545146
0.0545823
0.054648
0.0547116
0.0547729
0.0548324
0.0548912
0.0549468
0.0549942
0.055033
0.0550659
0.0550953
0.0551228
0.0551501
0.0551783
0.0552085
0.0552415
0.055278
0.0553184
0.0553608
0.0554011
0.0554323
0.0554475
)
;

boundaryField
{
    movingWall
    {
        type            fixedValue;
        value           uniform 0.0555;
    }
    fixedWalls
    {
        type            zeroGradient;
    }
    floor
    {
        type            zeroGradient;
    }
    frontAndBack
    {
        type            empty;
    }
}


// ************************************************************************* //
