/*--------------------------------*- C++ -*----------------------------------*\
| =========                 |                                                 |
| \\      /  F ield         | OpenFOAM: The Open Source CFD Toolbox           |
|  \\    /   O peration     | Version:  2212                                  |
|   \\  /    A nd           | Website:  www.openfoam.com                      |
|    \\/     M anipulation  |                                                 |
\*---------------------------------------------------------------------------*/
FoamFile
{
    version     2.0;
    format      ascii;
    arch        "LSB;label=64;scalar=64";
    class       volScalarField;
    location    "760";
    object      Sco2;
}
// * * * * * * * * * * * * * * * * * * * * * * * * * * * * * * * * * * * * * //

dimensions      [1 -3 0 0 0 0 0];

internalField   nonuniform List<scalar> 
1024
(
0.005565
0.00556605
0.00556867
0.00557346
0.00558096
0.00559152
0.00560511
0.00562121
0.00563896
0.00565739
0.00567585
0.00569381
0.00571052
0.00572421
0.00573115
0.00572589
0.00570733
0.00568165
0.00565429
0.00562709
0.00560076
0.00557547
0.00555134
0.00552869
0.00550811
0.00549031
0.00547585
0.0054649
0.00545724
0.00545236
0.00544967
0.00544856
0.00556507
0.00556617
0.00556887
0.0055738
0.00558149
0.00559226
0.00560605
0.00562229
0.0056401
0.00565853
0.00567697
0.00569495
0.00571176
0.0057256
0.00573267
0.00572737
0.0057087
0.00568294
0.00565554
0.00562833
0.00560201
0.00557675
0.00555262
0.00552993
0.00550924
0.00549127
0.00547661
0.00546546
0.00545764
0.00545266
0.0054499
0.00544877
0.00556528
0.00556645
0.00556932
0.0055745
0.00558253
0.00559368
0.0056078
0.00562426
0.00564214
0.00566055
0.005679
0.00569715
0.00571436
0.0057288
0.00573634
0.00573094
0.00571184
0.00568575
0.00565815
0.00563086
0.00560453
0.0055793
0.00555518
0.00553242
0.00551153
0.00549324
0.00547818
0.00546664
0.00545851
0.00545331
0.00545044
0.00544926
0.00556566
0.00556691
0.00556997
0.00557547
0.00558391
0.00559551
0.00561001
0.00562666
0.00564456
0.00566295
0.00568153
0.00570019
0.00571842
0.00573427
0.00574291
0.0057373
0.0057172
0.00569026
0.00566212
0.00563454
0.00560811
0.00558289
0.0055588
0.00553597
0.00551483
0.0054961
0.0054805
0.00546844
0.00545986
0.00545436
0.00545132
0.00545008
0.00556611
0.00556744
0.00557069
0.00557648
0.0055853
0.00559728
0.00561204
0.00562877
0.00564661
0.00566501
0.00568396
0.00570369
0.0057239
0.0057424
0.00575307
0.00574717
0.00572524
0.0056966
0.00566731
0.00563907
0.00561234
0.00558707
0.00556301
0.00554014
0.00551876
0.00549958
0.00548339
0.00547071
0.00546163
0.00545578
0.00545255
0.00545124
0.00556643
0.00556782
0.00557119
0.00557716
0.00558619
0.00559832
0.00561308
0.00562967
0.00564734
0.00566581
0.00568548
0.00570704
0.00573053
0.00575332
0.00576729
0.00576115
0.00573631
0.00570477
0.00567343
0.00564393
0.00561657
0.00559109
0.00556705
0.0055442
0.00552268
0.00550315
0.00548643
0.00547319
0.00546363
0.00545745
0.00545403
0.00545265
0.00556631
0.00556772
0.00557111
0.00557705
0.00558597
0.00559787
0.00561226
0.00562839
0.0056457
0.0056643
0.00568509
0.00570939
0.00573767
0.00576675
0.00578556
0.00577943
0.00575051
0.00571456
0.00567995
0.00564837
0.00561989
0.00559398
0.00556992
0.0055472
0.00552574
0.00550607
0.00548906
0.00547546
0.00546556
0.00545914
0.00545558
0.00545415
0.00556533
0.00556672
0.00556998
0.00557565
0.00558407
0.00559524
0.00560876
0.00562401
0.00564071
0.00565941
0.00568167
0.00570964
0.00574446
0.00578208
0.00580745
0.00580166
0.00576741
0.0057253
0.00568603
0.00565138
0.0056212
0.00559459
0.00557049
0.00554807
0.00552696
0.00550754
0.00549062
0.00547699
0.00546702
0.00546053
0.00545693
0.00545547
0.00556294
0.00556428
0.00556731
0.00557245
0.00557998
0.00558993
0.00560202
0.00561587
0.00563159
0.00565027
0.00567432
0.00570699
0.00575034
0.00579891
0.00583244
0.005827
0.0057859
0.00573574
0.00569032
0.00565163
0.00561919
0.00559168
0.00556762
0.00554576
0.00552542
0.00550676
0.00549045
0.00547727
0.00546758
0.00546125
0.00545771
0.00545626
0.00555853
0.00555979
0.00556252
0.00556696
0.0055733
0.00558161
0.00559178
0.00560376
0.00561814
0.00563674
0.00566309
0.00570193
0.00575626
0.00581818
0.00586067
0.00585442
0.0058042
0.0057439
0.00569092
0.00564741
0.00561237
0.00558398
0.00556023
0.00553938
0.00552039
0.0055031
0.00548803
0.00547581
0.0054668
0.00546086
0.00545749
0.00545609
0.00555164
0.00555274
0.00555507
0.00555872
0.00556377
0.00557027
0.00557829
0.00558822
0.00560131
0.00562037
0.0056504
0.00569799
0.00576648
0.00584343
0.0058937
0.00588313
0.00582015
0.00574728
0.00568554
0.00563676
0.00559918
0.00557029
0.00554741
0.00552827
0.00551134
0.00549615
0.00548295
0.00547222
0.00546424
0.00545889
0.00545579
0.00545445
0.00554358
0.00554427
0.0055458
0.00554833
0.00555194
0.00555676
0.00556307
0.00557175
0.0055849
0.00560669
0.00564391
0.00570445
0.00578999
0.0058813
0.00593451
0.00591279
0.00583185
0.00574383
0.00567239
0.00561823
0.00557849
0.00554975
0.00552858
0.00551202
0.005498
0.00548564
0.00547491
0.00546609
0.0054594
0.00545478
0.00545198
0.00545071
0.00554525
0.00554489
0.00554451
0.00554463
0.00554586
0.00554888
0.00555456
0.0055645
0.00558169
0.00561147
0.00566172
0.00573948
0.00584206
0.00594137
0.00598656
0.00594339
0.00583922
0.00573461
0.0056531
0.00559331
0.00555129
0.00552293
0.00550403
0.00549077
0.00548033
0.00547135
0.00546348
0.00545682
0.00545154
0.00544768
0.00544519
0.005444
0.0055966
0.00559497
0.00559205
0.00558873
0.00558644
0.00558709
0.00559296
0.00560687
0.00563259
0.00567532
0.00574141
0.00583406
0.00594353
0.00603309
0.00605174
0.00597685
0.00584982
0.00573185
0.00564084
0.0055732
0.0055256
0.00549476
0.00547641
0.00546584
0.00545903
0.0054536
0.00544861
0.00544395
0.00543987
0.00543666
0.00543451
0.00543347
0.00576673
0.00576557
0.00576329
0.00576048
0.00575855
0.00575977
0.00576714
0.0057842
0.00581444
0.00586216
0.00593062
0.00601774
0.0061065
0.00615677
0.00613128
0.00602943
0.00589928
0.00578223
0.0056832
0.00559985
0.00553442
0.00548804
0.00545852
0.00544176
0.00543283
0.00542776
0.00542447
0.00542238
0.00542154
0.00542184
0.00542272
0.00542344
0.00606278
0.00606393
0.00606607
0.00606909
0.00607327
0.00607957
0.00608976
0.00610623
0.00613111
0.00616715
0.00621491
0.0062681
0.00630778
0.00630651
0.00625891
0.00618447
0.00610764
0.0060279
0.00593836
0.00584118
0.00574408
0.00565661
0.00558237
0.00552552
0.00548782
0.00546857
0.00546531
0.00547411
0.0054898
0.0055067
0.00552015
0.00552728
0.00633225
0.00633442
0.00633867
0.00634475
0.00635252
0.00636219
0.00637451
0.00639081
0.00641242
0.00644076
0.00647544
0.00651257
0.00654702
0.00657798
0.00661487
0.00666591
0.00672497
0.00676577
0.00677375
0.00675144
0.00670437
0.00664094
0.00656617
0.00648835
0.00641498
0.00635248
0.00630546
0.0062762
0.00626363
0.00626292
0.00626766
0.00627195
0.00647826
0.00648022
0.00648461
0.00649203
0.00650328
0.00651941
0.00654165
0.00657127
0.00660942
0.00665754
0.0067175
0.00679144
0.00688254
0.00699582
0.00713887
0.00731724
0.00751635
0.00769717
0.00783923
0.00794621
0.00801995
0.0080615
0.00807196
0.00805349
0.00800912
0.0079438
0.00786481
0.00778233
0.00770822
0.0076525
0.00761933
0.00760602
0.00655137
0.00655321
0.00655797
0.00656708
0.00658225
0.0066053
0.00663791
0.00668149
0.00673716
0.00680616
0.00689059
0.00699364
0.0071196
0.00727322
0.00745855
0.00767665
0.0079069
0.00810986
0.00827362
0.00841009
0.00852607
0.00862321
0.00870026
0.00875421
0.00878177
0.00878122
0.00875399
0.0087061
0.00864845
0.0085947
0.00855621
0.00853788
0.00659374
0.00659555
0.00660047
0.00661029
0.00662716
0.00665341
0.00669118
0.00674203
0.00680691
0.00688649
0.00698205
0.00709578
0.00723066
0.00738942
0.00757279
0.00777735
0.00797873
0.00814297
0.0082704
0.00837977
0.00848213
0.00858173
0.00867794
0.00876665
0.00884205
0.00889879
0.00893359
0.00894648
0.00894132
0.00892569
0.00890902
0.00889906
0.00662157
0.00662321
0.00662781
0.0066372
0.00665368
0.0066798
0.00671794
0.00676986
0.00683638
0.00691766
0.00701397
0.00712613
0.00725565
0.00740375
0.00756971
0.00774871
0.00791751
0.00804974
0.00815249
0.00824617
0.00834343
0.00844957
0.00856379
0.00867974
0.00878789
0.00887908
0.0089473
0.0089911
0.00901315
0.00901924
0.0090169
0.0090134
0.00664526
0.00664636
0.00664986
0.00665762
0.00667203
0.00669575
0.00673127
0.00678042
0.00684399
0.00692185
0.00701358
0.00711905
0.00723872
0.0073731
0.00752141
0.00767982
0.00782883
0.00794799
0.00804477
0.00813648
0.00823473
0.00834572
0.0084705
0.00860404
0.00873614
0.00885469
0.00894953
0.00901583
0.00905472
0.00907197
0.00907581
0.00907466
0.0066763
0.00667621
0.0066774
0.00668197
0.0066926
0.00671223
0.00674351
0.00678834
0.00684748
0.00692069
0.00700722
0.00710637
0.00721795
0.00734213
0.00747853
0.00762508
0.00776668
0.00788604
0.00798718
0.00808314
0.00818373
0.00829552
0.00842136
0.00855907
0.00870098
0.0088353
0.00894948
0.00903477
0.00908892
0.0091161
0.00912481
0.00912502
0.00672814
0.00672595
0.00672325
0.00672279
0.00672803
0.00674256
0.00676946
0.00681074
0.00686709
0.00693803
0.0070225
0.00711931
0.00722771
0.00734745
0.00747844
0.00762027
0.00776126
0.00788495
0.00799168
0.00809134
0.00819229
0.00830103
0.00842146
0.0085537
0.00869321
0.00883083
0.00895444
0.00905269
0.00911938
0.00915575
0.00916928
0.00917082
0.00681458
0.00680929
0.00680123
0.00679449
0.00679389
0.00680409
0.00682875
0.00686993
0.0069278
0.0070012
0.00708835
0.00718744
0.00729702
0.00741636
0.0075454
0.00768494
0.00782542
0.00795062
0.00805855
0.00815727
0.00825415
0.00835538
0.00846537
0.0085858
0.00871459
0.0088455
0.00896864
0.00907241
0.00914761
0.00919173
0.00920996
0.00921296
0.00694728
0.00693806
0.00692424
0.0069121
0.00690816
0.00691797
0.00694535
0.00699177
0.00705616
0.0071361
0.00722887
0.00733199
0.00744345
0.00756218
0.00768806
0.00782258
0.00795766
0.00807785
0.00818047
0.00827252
0.00836057
0.00845021
0.00854581
0.0086499
0.00876231
0.00887954
0.00899428
0.00909619
0.00917488
0.00922449
0.00924695
0.00925155
0.00713421
0.00712093
0.00710326
0.00709038
0.00708966
0.00710606
0.00714235
0.00719842
0.00727145
0.00735798
0.00745467
0.00755875
0.00766815
0.00778172
0.0078994
0.00802296
0.00814563
0.00825379
0.00834505
0.00842559
0.00850109
0.00857633
0.0086552
0.00874043
0.00883303
0.00893176
0.00903208
0.00912574
0.00920256
0.00925457
0.00928032
0.00928657
0.00738027
0.00736419
0.00734828
0.0073434
0.00735486
0.00738463
0.00743313
0.00749835
0.00757659
0.00766428
0.00775835
0.00785637
0.00795661
0.0080582
0.00816119
0.00826735
0.00837127
0.00846192
0.00853761
0.00860355
0.00866438
0.00872392
0.00878537
0.00885119
0.00892285
0.00900056
0.00908223
0.00916233
0.00923211
0.0092828
0.00931023
0.00931799
0.0076899
0.00767483
0.00767013
0.00768289
0.00771227
0.00775617
0.00781308
0.00788044
0.00795529
0.00803506
0.00811761
0.00820126
0.00828489
0.00836798
0.00845071
0.00853458
0.00861562
0.00868566
0.00874367
0.00879369
0.00883924
0.00888316
0.00892787
0.00897527
0.00902681
0.00908329
0.00914429
0.00920694
0.00926496
0.00931028
0.00933708
0.00934582
0.00807083
0.00806436
0.00808025
0.00811265
0.00815489
0.00820377
0.00825815
0.00831653
0.00837763
0.00844022
0.0085032
0.00856571
0.00862716
0.00868732
0.00874643
0.00880558
0.00886214
0.00891067
0.00895066
0.00898487
0.00901569
0.00904506
0.00907459
0.00910559
0.00913913
0.00917604
0.00921664
0.00925995
0.00930248
0.00933829
0.00936151
0.0093702
0.00853795
0.00854851
0.00858038
0.00861692
0.00865472
0.00869295
0.00873161
0.00877054
0.00880961
0.00884856
0.00888702
0.00892468
0.00896129
0.00899681
0.00903139
0.0090657
0.00909827
0.0091261
0.00914895
0.00916839
0.00918577
0.00920218
0.00921852
0.00923553
0.00925381
0.00927389
0.00929617
0.00932053
0.0093456
0.00936827
0.00938446
0.00939142
0.00910999
0.00911862
0.00913523
0.00915121
0.00916631
0.00918072
0.00919463
0.00920817
0.00922145
0.00923449
0.00924724
0.00925962
0.00927159
0.00928315
0.00929434
0.0093054
0.00931587
0.00932479
0.00933209
0.00933829
0.00934381
0.009349
0.00935413
0.00935945
0.00936512
0.00937133
0.00937822
0.00938581
0.0093938
0.00940138
0.00940725
0.00941011
)
;

boundaryField
{
    movingWall
    {
        type            fixedValue;
        value           uniform 0.00942;
    }
    fixedWalls
    {
        type            zeroGradient;
    }
    floor
    {
        type            zeroGradient;
    }
    frontAndBack
    {
        type            empty;
    }
}


// ************************************************************************* //
