/*--------------------------------*- C++ -*----------------------------------*\
| =========                 |                                                 |
| \\      /  F ield         | OpenFOAM: The Open Source CFD Toolbox           |
|  \\    /   O peration     | Version:  2212                                  |
|   \\  /    A nd           | Website:  www.openfoam.com                      |
|    \\/     M anipulation  |                                                 |
\*---------------------------------------------------------------------------*/
FoamFile
{
    version     2.0;
    format      ascii;
    arch        "LSB;label=64;scalar=64";
    class       volScalarField;
    location    "760";
    object      Xch;
}
// * * * * * * * * * * * * * * * * * * * * * * * * * * * * * * * * * * * * * //

dimensions      [1 -3 0 0 0 0 0];

internalField   nonuniform List<scalar> 
1024
(
0.0199187
0.0199189
0.0199193
0.0199201
0.0199214
0.0199232
0.0199255
0.0199282
0.0199311
0.0199342
0.0199372
0.0199402
0.0199429
0.0199451
0.0199461
0.0199451
0.0199418
0.0199373
0.0199325
0.0199278
0.0199233
0.0199189
0.0199147
0.0199108
0.0199072
0.0199041
0.0199016
0.0198997
0.0198984
0.0198976
0.0198971
0.0198969
0.0199187
0.0199189
0.0199194
0.0199202
0.0199215
0.0199233
0.0199256
0.0199283
0.0199313
0.0199344
0.0199374
0.0199404
0.0199431
0.0199453
0.0199464
0.0199453
0.019942
0.0199375
0.0199328
0.019928
0.0199235
0.0199191
0.0199149
0.019911
0.0199074
0.0199043
0.0199018
0.0198998
0.0198985
0.0198976
0.0198971
0.0198969
0.0199188
0.019919
0.0199194
0.0199203
0.0199217
0.0199235
0.0199259
0.0199287
0.0199316
0.0199347
0.0199378
0.0199407
0.0199435
0.0199458
0.019947
0.0199459
0.0199425
0.019938
0.0199332
0.0199285
0.0199239
0.0199195
0.0199154
0.0199114
0.0199078
0.0199046
0.019902
0.0199
0.0198986
0.0198977
0.0198972
0.019897
0.0199188
0.019919
0.0199196
0.0199205
0.0199219
0.0199238
0.0199263
0.0199291
0.0199321
0.0199351
0.0199382
0.0199412
0.0199442
0.0199467
0.019948
0.0199469
0.0199434
0.0199387
0.0199338
0.0199291
0.0199245
0.0199201
0.019916
0.019912
0.0199084
0.0199051
0.0199024
0.0199003
0.0198989
0.0198979
0.0198974
0.0198972
0.0199189
0.0199191
0.0199197
0.0199206
0.0199221
0.0199241
0.0199266
0.0199294
0.0199324
0.0199355
0.0199386
0.0199418
0.0199451
0.0199481
0.0199497
0.0199485
0.0199447
0.0199397
0.0199347
0.0199298
0.0199252
0.0199208
0.0199167
0.0199127
0.019909
0.0199057
0.0199029
0.0199007
0.0198992
0.0198982
0.0198976
0.0198974
0.019919
0.0199192
0.0199198
0.0199208
0.0199223
0.0199243
0.0199268
0.0199296
0.0199325
0.0199356
0.0199388
0.0199424
0.0199462
0.0199499
0.019952
0.0199508
0.0199464
0.019941
0.0199356
0.0199305
0.0199258
0.0199215
0.0199173
0.0199134
0.0199097
0.0199063
0.0199034
0.0199012
0.0198995
0.0198984
0.0198978
0.0198976
0.0199189
0.0199192
0.0199197
0.0199207
0.0199222
0.0199242
0.0199267
0.0199294
0.0199323
0.0199353
0.0199388
0.0199428
0.0199474
0.0199521
0.019955
0.0199537
0.0199487
0.0199425
0.0199366
0.0199312
0.0199263
0.0199219
0.0199178
0.0199139
0.0199102
0.0199068
0.0199039
0.0199015
0.0198998
0.0198987
0.0198981
0.0198979
0.0199188
0.019919
0.0199196
0.0199205
0.0199219
0.0199238
0.0199261
0.0199286
0.0199314
0.0199345
0.0199382
0.0199428
0.0199485
0.0199546
0.0199585
0.0199573
0.0199513
0.0199441
0.0199374
0.0199315
0.0199264
0.0199219
0.0199178
0.0199139
0.0199103
0.019907
0.0199041
0.0199018
0.0199001
0.0198989
0.0198983
0.0198981
0.0199184
0.0199186
0.0199191
0.01992
0.0199212
0.0199229
0.019925
0.0199273
0.0199299
0.019933
0.019937
0.0199424
0.0199495
0.0199574
0.0199626
0.0199613
0.0199541
0.0199456
0.0199379
0.0199313
0.0199259
0.0199212
0.0199172
0.0199135
0.01991
0.0199068
0.019904
0.0199018
0.0199001
0.019899
0.0198984
0.0198982
0.0199176
0.0199178
0.0199183
0.0199191
0.0199201
0.0199215
0.0199232
0.0199253
0.0199277
0.0199308
0.0199351
0.0199416
0.0199505
0.0199605
0.0199671
0.0199656
0.0199569
0.0199466
0.0199377
0.0199303
0.0199245
0.0199197
0.0199157
0.0199122
0.0199091
0.0199061
0.0199036
0.0199015
0.0199
0.0198989
0.0198984
0.0198981
0.0199165
0.0199167
0.0199171
0.0199177
0.0199185
0.0199196
0.019921
0.0199226
0.0199248
0.019928
0.019933
0.0199409
0.0199521
0.0199646
0.0199724
0.01997
0.0199591
0.0199467
0.0199364
0.0199282
0.0199219
0.0199172
0.0199134
0.0199102
0.0199074
0.0199049
0.0199027
0.0199008
0.0198995
0.0198986
0.019898
0.0198978
0.0199151
0.0199152
0.0199155
0.0199159
0.0199165
0.0199173
0.0199184
0.0199199
0.0199221
0.0199257
0.0199319
0.019942
0.019956
0.0199707
0.0199788
0.0199745
0.0199605
0.0199456
0.0199337
0.0199247
0.0199181
0.0199134
0.01991
0.0199073
0.019905
0.019903
0.0199012
0.0198997
0.0198986
0.0198978
0.0198973
0.0198971
0.0199154
0.0199154
0.0199153
0.0199153
0.0199155
0.019916
0.019917
0.0199187
0.0199215
0.0199265
0.0199349
0.0199477
0.0199645
0.0199804
0.019987
0.0199789
0.019961
0.0199435
0.0199299
0.0199201
0.0199132
0.0199086
0.0199056
0.0199035
0.0199019
0.0199004
0.0198992
0.0198981
0.0198972
0.0198965
0.0198961
0.0198959
0.0199241
0.0199238
0.0199233
0.0199228
0.0199224
0.0199225
0.0199235
0.0199258
0.0199301
0.0199372
0.0199481
0.0199633
0.019981
0.019995
0.019997
0.0199836
0.0199619
0.0199422
0.0199272
0.0199162
0.0199085
0.0199036
0.0199008
0.0198992
0.0198982
0.0198973
0.0198966
0.0198958
0.0198951
0.0198946
0.0198942
0.019894
0.0199528
0.0199526
0.0199522
0.0199517
0.0199514
0.0199515
0.0199527
0.0199555
0.0199604
0.0199682
0.0199794
0.0199933
0.0200072
0.0200144
0.0200089
0.019991
0.019969
0.0199496
0.0199335
0.01992
0.0199096
0.0199022
0.0198976
0.019895
0.0198937
0.0198929
0.0198924
0.019892
0.0198919
0.0198919
0.019892
0.0198921
0.0200024
0.0200026
0.0200029
0.0200033
0.020004
0.0200049
0.0200064
0.0200089
0.0200127
0.0200182
0.0200255
0.0200334
0.0200387
0.0200372
0.0200281
0.020015
0.0200019
0.0199887
0.0199741
0.0199584
0.0199429
0.019929
0.0199172
0.0199081
0.0199022
0.0198991
0.0198986
0.0199
0.0199024
0.0199051
0.0199072
0.0199083
0.0200469
0.0200472
0.0200479
0.0200487
0.0200498
0.0200511
0.0200527
0.0200548
0.0200577
0.0200614
0.020066
0.0200709
0.0200754
0.0200794
0.0200845
0.0200919
0.0201007
0.0201066
0.0201074
0.0201034
0.0200956
0.0200853
0.0200733
0.0200609
0.0200493
0.0200393
0.0200319
0.0200273
0.0200253
0.0200252
0.0200259
0.0200266
0.0200707
0.0200709
0.0200715
0.0200726
0.0200741
0.0200762
0.0200793
0.0200834
0.0200887
0.0200956
0.0201045
0.0201155
0.0201294
0.0201468
0.0201691
0.0201968
0.0202277
0.0202554
0.0202769
0.0202929
0.0203036
0.0203094
0.0203104
0.020307
0.0202998
0.0202894
0.020277
0.0202641
0.0202526
0.0202439
0.0202388
0.0202367
0.0200827
0.020083
0.0200836
0.0200849
0.0200871
0.0200903
0.020095
0.0201014
0.0201097
0.02012
0.0201329
0.0201489
0.0201685
0.0201926
0.0202218
0.0202559
0.0202917
0.0203227
0.0203472
0.0203672
0.0203838
0.0203974
0.0204081
0.0204153
0.0204188
0.0204182
0.0204137
0.0204063
0.0203975
0.0203893
0.0203835
0.0203807
0.02009
0.0200902
0.0200909
0.0200923
0.0200948
0.0200986
0.0201042
0.0201118
0.0201217
0.0201339
0.0201487
0.0201665
0.0201878
0.0202129
0.0202419
0.0202741
0.0203056
0.0203306
0.0203495
0.020365
0.0203791
0.0203925
0.0204053
0.0204171
0.0204271
0.0204346
0.0204393
0.020441
0.0204402
0.0204379
0.0204356
0.0204341
0.0200949
0.0200951
0.0200958
0.0200971
0.0200995
0.0201034
0.0201092
0.0201171
0.0201273
0.0201399
0.020155
0.0201727
0.0201932
0.0202168
0.0202432
0.0202715
0.0202979
0.0203182
0.0203333
0.0203465
0.0203598
0.0203741
0.0203893
0.0204047
0.020419
0.0204311
0.0204403
0.0204462
0.0204492
0.0204501
0.0204499
0.0204495
0.0200991
0.0200992
0.0200997
0.0201008
0.0201029
0.0201065
0.0201119
0.0201194
0.0201293
0.0201414
0.0201559
0.0201726
0.0201916
0.020213
0.0202366
0.0202617
0.0202851
0.0203033
0.0203176
0.0203307
0.0203442
0.0203593
0.0203761
0.020394
0.0204116
0.0204274
0.0204401
0.0204489
0.0204541
0.0204565
0.0204572
0.0204571
0.0201042
0.0201041
0.0201043
0.0201049
0.0201065
0.0201095
0.0201143
0.0201212
0.0201304
0.0201418
0.0201555
0.0201711
0.0201888
0.0202085
0.0202302
0.0202533
0.0202753
0.0202935
0.0203085
0.0203223
0.0203364
0.0203517
0.0203689
0.0203874
0.0204065
0.0204244
0.0204397
0.020451
0.0204583
0.0204619
0.0204632
0.0204633
0.0201122
0.0201118
0.0201114
0.0201114
0.0201122
0.0201144
0.0201185
0.0201249
0.0201337
0.0201447
0.0201579
0.0201731
0.0201901
0.0202089
0.0202295
0.0202516
0.0202733
0.0202921
0.0203079
0.0203223
0.0203366
0.0203517
0.0203683
0.0203862
0.020405
0.0204235
0.02044
0.0204531
0.020462
0.0204668
0.0204687
0.020469
0.0201251
0.0201243
0.0201231
0.0201221
0.0201221
0.0201237
0.0201275
0.0201338
0.0201427
0.020154
0.0201674
0.0201828
0.0201997
0.0202182
0.0202382
0.0202597
0.0202812
0.0203
0.020316
0.0203304
0.0203442
0.0203584
0.0203736
0.0203901
0.0204076
0.0204252
0.0204416
0.0204555
0.0204655
0.0204713
0.0204738
0.0204742
0.0201446
0.0201432
0.0201412
0.0201395
0.020139
0.0201405
0.0201446
0.0201517
0.0201614
0.0201735
0.0201876
0.0202033
0.0202203
0.0202385
0.0202578
0.0202783
0.0202988
0.0203168
0.020332
0.0203454
0.0203581
0.0203707
0.020384
0.0203983
0.0204136
0.0204295
0.0204448
0.0204584
0.0204689
0.0204754
0.0204784
0.0204791
0.0201718
0.0201698
0.0201673
0.0201654
0.0201654
0.0201679
0.0201733
0.0201816
0.0201925
0.0202055
0.02022
0.0202356
0.0202521
0.0202693
0.0202871
0.0203059
0.0203243
0.0203405
0.020354
0.0203658
0.0203767
0.0203874
0.0203984
0.0204102
0.0204228
0.0204362
0.0204497
0.0204621
0.0204723
0.0204792
0.0204826
0.0204835
0.0202074
0.0202051
0.0202028
0.0202021
0.0202038
0.0202082
0.0202153
0.0202249
0.0202364
0.0202494
0.0202634
0.020278
0.020293
0.0203082
0.0203237
0.0203397
0.0203553
0.0203688
0.02038
0.0203897
0.0203985
0.020407
0.0204156
0.0204248
0.0204346
0.0204451
0.0204561
0.0204668
0.0204761
0.0204827
0.0204864
0.0204874
0.020252
0.0202498
0.0202492
0.020251
0.0202553
0.0202617
0.02027
0.0202798
0.0202908
0.0203025
0.0203147
0.0203271
0.0203395
0.0203519
0.0203643
0.0203769
0.020389
0.0203995
0.020408
0.0204154
0.020422
0.0204283
0.0204346
0.0204412
0.0204483
0.020456
0.0204642
0.0204726
0.0204803
0.0204862
0.0204897
0.0204909
0.0203068
0.0203058
0.0203081
0.0203128
0.0203189
0.0203259
0.0203338
0.0203423
0.0203512
0.0203604
0.0203697
0.0203789
0.020388
0.0203969
0.0204058
0.0204146
0.0204231
0.0204303
0.0204362
0.0204413
0.0204457
0.02045
0.0204541
0.0204585
0.0204631
0.0204681
0.0204736
0.0204794
0.020485
0.0204897
0.0204928
0.0204939
0.0203738
0.0203753
0.0203799
0.0203851
0.0203905
0.0203961
0.0204016
0.0204073
0.020413
0.0204187
0.0204243
0.0204298
0.0204353
0.0204405
0.0204457
0.0204508
0.0204557
0.0204598
0.0204632
0.0204661
0.0204686
0.020471
0.0204733
0.0204757
0.0204782
0.0204809
0.020484
0.0204872
0.0204905
0.0204935
0.0204956
0.0204965
0.0204557
0.0204569
0.0204593
0.0204616
0.0204638
0.0204658
0.0204678
0.0204698
0.0204717
0.0204736
0.0204755
0.0204773
0.0204791
0.0204808
0.0204825
0.0204841
0.0204857
0.020487
0.0204881
0.020489
0.0204898
0.0204906
0.0204913
0.020492
0.0204928
0.0204937
0.0204946
0.0204956
0.0204967
0.0204977
0.0204984
0.0204988
)
;

boundaryField
{
    movingWall
    {
        type            fixedValue;
        value           uniform 0.0205;
    }
    fixedWalls
    {
        type            zeroGradient;
    }
    floor
    {
        type            zeroGradient;
    }
    frontAndBack
    {
        type            empty;
    }
}


// ************************************************************************* //
