/*--------------------------------*- C++ -*----------------------------------*\
| =========                 |                                                 |
| \\      /  F ield         | OpenFOAM: The Open Source CFD Toolbox           |
|  \\    /   O peration     | Version:  2212                                  |
|   \\  /    A nd           | Website:  www.openfoam.com                      |
|    \\/     M anipulation  |                                                 |
\*---------------------------------------------------------------------------*/
FoamFile
{
    version     2.0;
    format      ascii;
    arch        "LSB;label=64;scalar=64";
    class       volScalarField;
    location    "0.08";
    object      alpha.air;
}
// * * * * * * * * * * * * * * * * * * * * * * * * * * * * * * * * * * * * * //

dimensions      [0 0 0 0 0 0 0];

internalField   nonuniform List<scalar> 
32768
(
9.49913e-156
2.95944e-142
2.83169e-137
4.61863e-134
2.54417e-131
9.23973e-129
2.59429e-126
5.93864e-124
1.13837e-121
1.85978e-119
2.61912e-117
3.20533e-115
3.42729e-113
3.21167e-111
2.64051e-109
1.90309e-107
1.19911e-105
6.57518e-104
3.11724e-102
1.26682e-100
4.36525e-99
1.25818e-97
2.98225e-96
5.68994e-95
8.50162e-94
9.59631e-93
7.79792e-92
4.26781e-91
1.42943e-90
2.53238e-90
1.8713e-90
3.86885e-91
1.5576e-92
3.13832e-94
6.31873e-96
1.26447e-97
2.49484e-99
4.8209e-101
9.08213e-103
1.66295e-104
2.95197e-106
5.06781e-108
8.39157e-110
1.33629e-111
2.03984e-113
2.97459e-115
4.12844e-117
5.43175e-119
6.74537e-121
7.86874e-123
8.57644e-125
8.68085e-127
8.10253e-129
6.91707e-131
5.34878e-133
3.70292e-135
2.2623e-137
1.19777e-139
5.3661e-142
1.96854e-144
5.63373e-147
1.16204e-149
1.47979e-152
7.39459e-156
7.56102e-155
7.56115e-152
4.31448e-149
1.71707e-146
5.23581e-144
1.29244e-141
2.67827e-139
4.78167e-137
7.5002e-135
1.04953e-132
1.32659e-130
1.53035e-128
1.62545e-126
1.60176e-124
1.47426e-122
1.27502e-120
1.04177e-118
8.08119e-117
5.97798e-115
4.23402e-113
2.88157e-111
1.89048e-109
1.19898e-107
7.36974e-106
4.40059e-104
2.55821e-102
1.45077e-100
8.03909e-99
4.35677e-97
2.30917e-95
1.1965e-93
6.07422e-92
1.08853e-90
4.04103e-90
4.61088e-90
2.31026e-90
6.30278e-91
1.07153e-91
1.24242e-92
1.04692e-93
6.71523e-95
3.39441e-96
1.38835e-97
4.68987e-99
1.3297e-100
3.20515e-102
6.63547e-104
1.18933e-105
1.85685e-107
2.53588e-109
3.03691e-111
3.1915e-113
2.94047e-115
2.36774e-117
1.65712e-119
9.99867e-122
5.13995e-124
2.21278e-126
7.76625e-129
2.1075e-131
3.77243e-134
2.27752e-137
2.35561e-142
7.51333e-156
4.56203e-152
7.36411e-139
6.19153e-134
9.816e-131
5.36896e-128
1.94665e-125
5.47054e-123
1.25601e-120
2.41983e-118
3.98159e-116
5.65989e-114
7.00789e-112
7.59971e-110
7.242e-108
6.07218e-106
4.47728e-104
2.89611e-102
1.63653e-100
8.02955e-99
3.39312e-97
1.22226e-95
3.70501e-94
9.30038e-93
1.89463e-91
3.05246e-90
3.76056e-89
3.38701e-88
2.09664e-87
8.16653e-87
1.75194e-86
1.66979e-86
4.92634e-87
3.0891e-88
8.4096e-90
2.26712e-91
6.02878e-93
1.57321e-94
4.01058e-96
9.95292e-98
2.3969e-99
5.58407e-101
1.25449e-102
2.70883e-104
5.60388e-106
1.1071e-107
2.08193e-109
3.71428e-111
6.26421e-113
9.94821e-115
1.48119e-116
2.05728e-118
2.6503e-120
3.14558e-122
3.41258e-124
3.35243e-126
2.94853e-128
2.28957e-130
1.54218e-132
8.80496e-135
4.12851e-137
1.51791e-139
4.06132e-142
6.8582e-145
4.94086e-148
2.596e-147
2.23185e-144
1.05644e-141
3.43715e-139
8.49814e-137
1.69165e-134
2.81556e-132
4.02455e-130
5.04066e-128
5.61939e-126
5.64705e-124
5.16942e-122
4.34919e-120
3.38879e-118
2.46183e-116
1.67733e-114
1.07751e-112
6.5572e-111
3.79622e-109
2.09876e-107
1.11175e-105
5.6592e-104
2.77525e-102
1.31391e-100
6.01548e-99
2.66645e-97
1.145e-95
4.76227e-94
1.91693e-92
7.46306e-91
2.8162e-89
1.01674e-87
1.2317e-86
3.32257e-86
2.99859e-86
1.25547e-86
2.96808e-87
4.48585e-88
4.7122e-89
3.65009e-90
2.1772e-91
1.03306e-92
3.99745e-94
1.28606e-95
3.49286e-97
8.10625e-99
1.62318e-100
2.82552e-102
4.30012e-104
5.74377e-106
6.74823e-108
6.97686e-110
6.34028e-112
5.04771e-114
3.50079e-116
2.09767e-118
1.07309e-120
4.60656e-123
1.61549e-125
4.39147e-128
7.91627e-131
4.91523e-134
5.77614e-139
3.51941e-152
8.76326e-149
7.65291e-136
5.71351e-131
8.84307e-128
4.81287e-125
1.74385e-122
4.90664e-120
1.12985e-117
2.18705e-115
3.62237e-113
5.1939e-111
6.5007e-109
7.14266e-107
6.91347e-105
5.90389e-103
4.44692e-101
2.94805e-99
1.71355e-97
8.68303e-96
3.80661e-94
1.42972e-92
4.54465e-91
1.20413e-89
2.60906e-88
4.51188e-87
6.0334e-86
5.98171e-85
4.15079e-84
1.85728e-83
4.7381e-83
5.65214e-83
2.24248e-83
1.86878e-84
5.44171e-86
1.56964e-87
4.47201e-89
1.25175e-90
3.42303e-92
9.10033e-94
2.34263e-95
5.81946e-97
1.39096e-98
3.19017e-100
7.00207e-102
1.46683e-103
2.92437e-105
5.5314e-107
9.89202e-109
1.66604e-110
2.63088e-112
3.87532e-114
5.29346e-116
6.65914e-118
7.65345e-120
7.96034e-122
7.40776e-124
6.08198e-126
4.32865e-128
2.6099e-130
1.29182e-132
5.0135e-135
1.41683e-137
2.53303e-140
1.95255e-143
9.21569e-143
7.63002e-140
3.45534e-137
1.07228e-134
2.52354e-132
4.77401e-130
7.54108e-128
1.02177e-125
1.21175e-123
1.2778e-121
1.21352e-119
1.04897e-117
8.32756e-116
6.11908e-114
4.19016e-112
2.69018e-110
1.62814e-108
9.33421e-107
5.09132e-105
2.6524e-103
1.3243e-101
6.35563e-100
2.93924e-98
1.3125e-96
5.66801e-95
2.36964e-93
9.59502e-92
3.76185e-90
1.42672e-88
5.22986e-87
1.85586e-85
5.77942e-84
5.20556e-83
1.06268e-82
7.75573e-83
2.75172e-83
5.69272e-84
7.70486e-85
7.37481e-86
5.27582e-87
2.9378e-88
1.31285e-89
4.81998e-91
1.4806e-92
3.8607e-94
8.64418e-96
1.67718e-97
2.83999e-99
4.21925e-101
5.51919e-103
6.36872e-105
6.48428e-107
5.81713e-109
4.58219e-111
3.15097e-113
1.87576e-115
9.55106e-118
4.0882e-120
1.43195e-122
3.89516e-125
7.05591e-128
4.48624e-131
5.92936e-136
6.62941e-149
1.02193e-145
4.93705e-133
3.28699e-128
4.9707e-125
2.69205e-122
9.74593e-120
2.74484e-117
6.33699e-115
1.23197e-112
2.05304e-110
2.96771e-108
3.75246e-106
4.17465e-104
4.10122e-102
3.56419e-100
2.73998e-98
1.85985e-96
1.1108e-94
5.80655e-93
2.63758e-91
1.03153e-89
3.43335e-88
9.5864e-87
2.20527e-85
4.085e-84
5.91499e-83
6.43673e-82
4.98911e-81
2.55275e-80
7.69633e-80
1.13926e-79
6.02555e-80
6.84469e-81
2.13008e-82
6.58528e-84
2.01361e-85
6.04449e-87
1.76874e-88
5.01968e-90
1.37687e-91
3.64058e-93
9.25743e-95
2.25848e-96
5.27292e-98
1.17491e-99
2.49105e-101
5.00898e-103
9.51735e-105
1.70175e-106
2.85019e-108
4.44798e-110
6.42917e-112
8.54772e-114
1.03697e-115
1.13709e-117
1.11436e-119
9.6259e-122
7.20207e-124
4.56224e-126
2.37167e-128
9.66699e-131
2.87076e-133
5.40271e-136
4.41452e-139
1.9293e-138
1.53755e-135
6.67438e-133
1.98145e-130
4.45483e-128
8.04106e-126
1.21048e-123
1.56116e-121
1.76008e-119
1.76214e-117
1.5867e-115
1.29859e-113
9.74716e-112
6.76227e-110
4.36623e-108
2.63997e-106
1.50313e-104
8.1005e-103
4.15104e-101
2.0312e-99
9.52611e-98
4.29589e-96
1.86785e-94
7.84735e-93
3.19072e-91
1.2568e-89
4.79712e-88
1.77343e-86
6.34185e-85
2.19087e-83
7.31962e-82
1.9955e-80
1.30886e-79
2.03631e-79
1.21028e-79
3.65802e-80
6.64889e-81
8.08445e-82
7.06931e-83
4.68093e-84
2.43796e-85
1.02781e-86
3.58564e-88
1.05309e-89
2.63962e-91
5.70847e-93
1.07434e-94
1.77137e-96
2.5713e-98
3.29662e-100
3.73895e-102
3.75136e-104
3.32425e-106
2.59221e-108
1.76825e-110
1.04621e-112
5.3042e-115
2.26446e-117
7.92365e-120
2.15715e-122
3.92643e-125
2.55435e-128
3.78114e-133
7.59481e-146
8.46953e-143
2.28687e-130
1.36031e-125
2.01035e-122
1.08326e-119
3.91737e-117
1.10402e-114
2.55462e-112
4.98606e-110
8.35668e-108
1.21724e-105
1.55408e-103
1.74958e-101
1.74345e-99
1.54086e-97
1.20807e-95
8.38924e-94
5.1439e-92
2.77124e-90
1.303e-88
5.30046e-87
1.84514e-85
5.42229e-84
1.32248e-82
2.62001e-81
4.10069e-80
4.88787e-79
4.22129e-78
2.46216e-77
8.73748e-77
1.5966e-76
1.12153e-76
1.79942e-77
6.39749e-79
2.13543e-80
7.03578e-82
2.27656e-83
7.18824e-85
2.20356e-86
6.53319e-88
1.86747e-89
5.13144e-91
1.35152e-92
3.4019e-94
8.15871e-96
1.85843e-97
4.00712e-99
8.14866e-101
1.55654e-102
2.78033e-104
4.62059e-106
7.10324e-108
1.00343e-109
1.29251e-111
1.50426e-113
1.56449e-115
1.43446e-117
1.13979e-119
7.67381e-122
4.24458e-124
1.84357e-126
5.84573e-129
1.17853e-131
1.04048e-134
4.12189e-134
3.11383e-131
1.27726e-128
3.5803e-126
7.59919e-124
1.29496e-121
1.84038e-119
2.2406e-117
2.38398e-115
2.25149e-113
1.91112e-111
1.47311e-109
1.04017e-107
6.77924e-106
4.10544e-104
2.32404e-102
1.23656e-100
6.21534e-99
2.96509e-97
1.34843e-95
5.86912e-94
2.45377e-92
9.88467e-91
3.84655e-89
1.44878e-87
5.28796e-86
1.87116e-84
6.41568e-83
2.12838e-81
6.82006e-80
2.11238e-78
4.89952e-77
2.285e-76
2.71954e-76
1.32244e-76
3.41756e-77
5.47356e-78
5.99316e-79
4.79713e-80
2.94505e-81
1.4368e-82
5.72213e-84
1.89916e-85
5.33893e-87
1.28774e-88
2.69243e-90
4.91957e-92
7.9047e-94
1.12198e-95
1.41086e-97
1.5738e-99
1.55695e-101
1.36355e-103
1.0531e-105
7.12917e-108
4.19399e-110
2.11793e-112
9.02113e-115
3.15438e-117
8.59676e-120
1.57257e-122
1.04653e-125
1.73184e-130
6.18889e-143
5.39503e-140
8.1871e-128
4.35484e-123
6.28957e-120
3.37121e-117
1.21746e-114
3.43237e-112
7.95747e-110
1.55866e-107
2.62616e-105
3.8528e-103
4.96425e-101
5.65225e-99
5.70968e-97
5.12834e-95
4.09754e-93
2.90876e-91
1.82942e-89
1.01482e-87
4.93406e-86
2.08547e-84
7.58418e-83
2.34285e-81
6.05018e-80
1.28003e-78
2.16191e-77
2.8171e-76
2.70446e-75
1.793e-74
7.46157e-74
1.67502e-73
1.55593e-73
3.62025e-74
1.52932e-75
5.58627e-77
2.02195e-78
7.2032e-80
2.50501e-81
8.44773e-83
2.74895e-84
8.59801e-86
2.57632e-87
7.37378e-89
2.01037e-90
5.20725e-92
1.27798e-93
2.96347e-95
6.47304e-97
1.32728e-98
2.54487e-100
4.54219e-102
7.50726e-104
1.1419e-105
1.58674e-107
1.99648e-109
2.2501e-111
2.2411e-113
1.93906e-115
1.4249e-117
8.62152e-120
4.10501e-122
1.43012e-124
3.17749e-127
3.117e-130
1.07538e-129
7.48801e-127
2.82149e-124
7.26272e-122
1.41663e-119
2.22152e-117
2.91047e-115
3.27288e-113
3.22297e-111
2.82269e-109
2.22585e-107
1.59629e-105
1.0499e-103
6.37807e-102
3.60099e-100
1.89988e-98
9.41355e-97
4.40034e-95
1.94885e-93
8.21056e-92
3.30304e-90
1.27329e-88
4.71835e-87
1.68539e-85
5.81594e-84
1.94188e-82
6.27814e-81
1.96481e-79
5.94409e-78
1.73509e-76
4.88993e-75
9.11275e-74
2.9768e-73
2.72265e-73
1.08813e-73
2.41285e-74
3.41465e-75
3.37447e-76
2.47724e-77
1.41239e-78
6.46407e-80
2.43507e-81
7.69817e-83
2.07374e-84
4.81811e-86
9.7488e-88
1.73094e-89
2.71264e-91
3.76776e-93
4.65019e-95
5.10506e-97
4.98271e-99
4.31506e-101
3.30235e-103
2.21965e-105
1.29887e-107
6.53575e-110
2.77841e-112
9.71125e-115
2.65021e-117
4.87305e-120
3.31748e-123
6.1319e-128
3.87812e-140
2.76588e-137
2.36702e-125
1.12633e-120
1.58954e-117
8.4731e-115
3.05487e-112
8.61297e-110
1.99992e-107
3.92972e-105
6.65322e-103
9.82628e-101
1.27706e-98
1.46971e-96
1.50402e-94
1.3719e-92
1.11622e-90
8.09323e-89
5.21637e-87
2.97652e-85
1.4949e-83
6.55774e-82
2.4884e-80
8.07e-79
2.20343e-77
4.9706e-76
9.04303e-75
1.28554e-73
1.36851e-72
1.02814e-71
4.99772e-71
1.37104e-70
1.67373e-70
5.72019e-71
3.07243e-72
1.25745e-73
5.10839e-75
2.03735e-76
7.88984e-78
2.94418e-79
1.05354e-80
3.60375e-82
1.17574e-83
3.65244e-85
1.07886e-86
3.02617e-88
8.04952e-90
2.02719e-91
4.82374e-93
1.08166e-94
2.27791e-96
4.48567e-98
8.21486e-100
1.38979e-101
2.1545e-103
3.03073e-105
3.82317e-107
4.26294e-109
4.12649e-111
3.38797e-113
2.28621e-115
1.21158e-117
4.68948e-120
1.15679e-122
1.26643e-125
3.91238e-125
2.48821e-122
8.49542e-120
1.97207e-117
3.45669e-115
4.85827e-113
5.69444e-111
5.72408e-109
5.03945e-107
3.95043e-105
2.79419e-103
1.80279e-101
1.0706e-99
5.89616e-98
3.03037e-96
1.46117e-94
6.63932e-93
2.8539e-91
1.16443e-89
4.52351e-88
1.6778e-86
5.95718e-85
2.02962e-83
6.64951e-82
2.09863e-80
6.38873e-79
1.87708e-77
5.32091e-76
1.45301e-74
3.81403e-73
9.62681e-72
1.32287e-70
3.01106e-70
2.12917e-70
7.02848e-71
1.34235e-71
1.68357e-72
1.50529e-73
1.01556e-74
5.38684e-76
2.31638e-77
8.26548e-79
2.49214e-80
6.44063e-82
1.44303e-83
2.82847e-85
4.88476e-87
7.47283e-89
1.01652e-90
1.23229e-92
1.3323e-94
1.28374e-96
1.09995e-98
8.34585e-101
5.57223e-103
3.24482e-105
1.62756e-107
6.90785e-110
2.41428e-112
6.59939e-115
1.22003e-117
8.49782e-121
1.75364e-125
1.95654e-137
1.17588e-134
5.68819e-123
2.42168e-118
3.33881e-115
1.76955e-112
6.36751e-110
1.79476e-107
4.17237e-105
8.22099e-103
1.39795e-100
2.07744e-98
2.72175e-96
3.16407e-94
3.27794e-92
3.03421e-90
2.51188e-88
1.85851e-86
1.22639e-84
7.19074e-83
3.72625e-81
1.69442e-79
6.70005e-78
2.27788e-76
6.56578e-75
1.57654e-73
3.08357e-72
4.77147e-71
5.61733e-70
4.76641e-69
2.69461e-68
8.98016e-68
1.42919e-67
7.17885e-68
5.45918e-69
2.5429e-70
1.16719e-71
5.20566e-73
2.23202e-74
9.14921e-76
3.57747e-77
1.33383e-78
4.74429e-80
1.6113e-81
5.2299e-83
1.62305e-84
4.81432e-86
1.36284e-87
3.67109e-89
9.36911e-91
2.25268e-92
5.06831e-94
1.0589e-95
2.03696e-97
3.5741e-99
5.66031e-101
7.99408e-103
9.92532e-105
1.06444e-106
9.63952e-109
7.14823e-111
4.1511e-113
1.75758e-115
4.74356e-118
5.72092e-121
1.66473e-120
9.84139e-118
3.0997e-115
6.60525e-113
1.05796e-110
1.35222e-108
1.43393e-106
1.29682e-104
1.02121e-102
7.11806e-101
4.45131e-99
2.52632e-97
1.31446e-95
6.32686e-94
2.84036e-92
1.19819e-90
4.78093e-89
1.8147e-87
6.58299e-86
2.29039e-84
7.66198e-83
2.46821e-81
7.66262e-80
2.29318e-78
6.61482e-77
1.83839e-75
4.91858e-74
1.26495e-72
3.11925e-71
7.35071e-70
1.65376e-68
1.52204e-67
2.42186e-67
1.33403e-67
3.65771e-68
6.0419e-69
6.7376e-70
5.4648e-71
3.39589e-72
1.67906e-73
6.79529e-75
2.3003e-76
6.62405e-78
1.64447e-79
3.55725e-81
6.76194e-83
1.13702e-84
1.69961e-86
2.26619e-88
2.70051e-90
2.87745e-92
2.73894e-94
2.32333e-96
1.74869e-98
1.16035e-100
6.72715e-103
3.36493e-105
1.42643e-107
4.98667e-110
1.36574e-112
2.53921e-115
1.8099e-118
4.16932e-123
8.18787e-135
4.23217e-132
1.15928e-120
4.41575e-116
5.94618e-113
3.13251e-110
1.12466e-107
3.16802e-105
7.37076e-103
1.45564e-100
2.4849e-98
3.71352e-96
4.90164e-94
5.75211e-92
6.02832e-90
5.65802e-88
4.76164e-86
3.59169e-84
2.42392e-82
1.45872e-80
7.78975e-79
3.66691e-77
1.50876e-75
5.36905e-74
1.63095e-72
4.1605e-71
8.72984e-70
1.46673e-68
1.90394e-67
1.8179e-66
1.18953e-65
4.78394e-65
9.82997e-65
7.19273e-65
8.69408e-66
4.58295e-67
2.34794e-68
1.15615e-69
5.44168e-71
2.44823e-72
1.05606e-73
4.38476e-75
1.75816e-76
6.81884e-78
2.556e-79
9.23047e-81
3.19502e-82
1.05333e-83
3.28493e-85
9.62438e-87
2.6313e-88
6.66846e-90
1.55597e-91
3.31895e-93
6.42123e-95
1.11675e-96
1.72743e-98
2.34584e-100
2.75103e-102
2.72638e-104
2.21625e-106
1.41449e-108
6.60615e-111
1.97736e-113
2.67575e-116
7.20097e-116
3.90726e-113
1.12662e-110
2.19849e-108
3.22715e-106
3.78245e-104
3.67847e-102
3.04904e-100
2.1973e-98
1.398e-96
7.94966e-95
4.08142e-93
1.90831e-91
8.18787e-90
3.2465e-88
1.19755e-86
4.1373e-85
1.34803e-83
4.17256e-82
1.23619e-80
3.53115e-79
9.78718e-78
2.64398e-76
6.97518e-75
1.79556e-73
4.49635e-72
1.09036e-70
2.54691e-69
5.69667e-68
1.21255e-66
2.44655e-65
1.3997e-64
1.57233e-64
6.80722e-65
1.56001e-65
2.239e-66
2.22798e-67
1.64412e-68
9.43365e-70
4.35712e-71
1.66272e-72
5.34865e-74
1.47327e-75
3.51838e-77
7.35763e-79
1.35799e-80
2.22575e-82
3.25416e-84
4.25702e-86
4.99087e-88
5.24504e-90
4.93551e-92
4.14742e-94
3.09842e-96
2.04442e-98
1.18061e-100
5.89171e-103
2.49551e-105
8.72952e-108
2.39623e-110
4.48173e-113
3.26997e-116
8.40859e-121
2.90164e-132
1.30897e-129
2.03339e-118
6.92907e-114
9.11044e-111
4.76929e-108
1.70792e-105
4.80624e-103
1.11867e-100
2.21331e-98
3.79101e-96
5.69405e-94
7.56716e-92
8.95775e-90
9.48942e-88
9.02312e-86
7.71214e-84
5.92434e-82
4.08431e-80
2.51965e-78
1.38472e-76
6.73799e-75
2.88025e-73
1.07099e-71
3.42214e-70
9.25514e-69
2.0784e-67
3.78119e-66
5.39431e-65
5.77234e-64
4.3488e-63
2.0951e-62
5.49685e-62
5.76843e-62
1.19434e-62
7.00065e-64
3.95511e-65
2.15241e-66
1.13419e-67
5.82993e-69
2.93631e-70
1.44754e-71
6.94261e-73
3.21204e-74
1.42127e-75
5.97072e-77
2.36756e-78
8.82087e-80
3.07617e-81
1.00071e-82
3.0262e-84
8.47507e-86
2.18847e-87
5.18325e-89
1.11871e-90
2.18265e-92
3.81069e-94
5.87722e-96
7.87474e-98
8.96549e-100
8.41272e-102
6.22303e-104
3.3801e-106
1.18083e-108
1.87975e-111
4.43799e-111
2.10172e-108
5.26612e-106
8.92926e-104
1.14106e-101
1.16811e-99
9.9652e-98
7.28301e-96
4.65359e-94
2.64021e-92
1.34615e-90
6.22723e-89
2.63371e-87
1.02476e-85
3.68744e-84
1.23257e-82
3.84265e-81
1.12164e-79
3.07744e-78
7.97157e-77
1.95945e-75
4.59858e-74
1.03792e-72
2.27129e-71
4.85768e-70
1.02185e-68
2.11984e-67
4.32559e-66
8.60919e-65
1.64986e-63
3.00568e-62
1.03376e-61
8.31888e-62
2.85971e-62
5.5157e-63
6.91348e-64
6.16309e-65
4.1512e-66
2.20527e-67
9.53686e-69
3.43873e-70
1.05311e-71
2.77934e-73
6.39478e-75
1.29462e-76
2.3231e-78
3.71578e-80
5.31948e-82
6.83424e-84
7.89005e-86
8.18512e-88
7.61988e-90
6.34766e-92
4.70992e-94
3.09205e-96
1.77953e-98
8.86418e-101
3.75304e-103
1.31417e-105
3.61678e-108
6.80706e-111
5.08551e-114
1.45986e-118
8.83896e-130
3.51817e-127
3.10377e-116
9.46069e-112
1.21417e-108
6.31427e-106
2.25462e-103
6.3361e-101
1.47469e-98
2.92165e-96
5.01834e-94
7.57094e-92
1.01232e-89
1.20791e-87
1.29236e-85
1.24379e-83
1.07858e-81
8.42852e-80
5.92869e-78
3.74425e-76
2.11455e-74
1.06192e-72
4.70781e-71
1.82572e-69
6.12385e-68
1.75185e-66
4.19954e-65
8.24809e-64
1.28858e-62
1.53852e-61
1.32689e-60
7.59663e-60
2.51399e-59
3.70875e-59
1.33799e-59
8.65693e-61
5.50152e-62
3.4982e-63
2.23811e-64
1.42414e-65
8.83437e-67
5.24917e-68
2.95477e-69
1.56763e-70
7.82746e-72
3.67968e-73
1.63007e-74
6.80884e-76
2.68106e-77
9.93688e-79
3.45625e-80
1.12302e-81
3.38798e-83
9.41838e-85
2.39106e-86
5.48571e-88
1.12356e-89
2.0247e-91
3.1535e-93
4.14963e-95
4.4742e-97
3.78219e-99
2.33686e-101
9.26094e-104
1.67826e-106
3.77512e-106
1.59845e-103
3.54451e-101
5.27896e-99
5.88335e-97
5.21629e-95
3.82855e-93
2.3929e-91
1.30118e-89
6.26174e-88
2.70479e-86
1.06137e-84
3.82275e-83
1.27491e-81
3.96617e-80
1.15768e-78
3.18448e-77
8.28006e-76
2.03898e-74
4.76079e-73
1.05483e-71
2.21955e-70
4.44031e-69
8.45953e-68
1.53856e-66
2.68054e-65
4.49683e-64
7.32187e-63
1.17072e-61
1.86265e-60
2.96305e-59
6.14949e-59
3.60909e-59
9.96215e-60
1.62942e-60
1.7935e-61
1.43855e-62
8.8753e-64
4.37828e-65
1.77738e-66
6.06914e-68
1.77308e-69
4.49181e-71
9.97374e-73
1.95777e-74
3.42032e-76
5.34579e-78
7.50241e-80
9.4764e-82
1.0784e-83
1.10531e-85
1.01884e-87
8.42005e-90
6.20938e-92
4.05839e-94
2.32905e-96
1.15859e-98
4.90566e-101
1.72021e-103
4.7483e-106
8.99584e-109
6.88406e-112
2.20632e-116
2.34051e-127
8.28793e-125
4.15838e-114
1.13364e-109
1.41963e-106
7.33181e-104
2.60942e-101
7.32033e-99
1.70293e-96
3.37664e-94
5.81278e-92
8.80265e-90
1.18338e-87
1.42214e-85
1.53536e-83
1.49415e-81
1.31312e-79
1.04261e-77
7.47284e-76
4.82447e-74
2.79544e-72
1.44636e-70
6.63773e-69
2.67923e-67
9.41238e-66
2.841e-64
7.2495e-63
1.53211e-61
2.61101e-60
3.46176e-59
3.39666e-58
2.29117e-57
9.43911e-57
1.91369e-56
1.17356e-56
8.80146e-58
7.09354e-59
5.934e-60
4.84504e-61
3.72542e-62
2.67013e-63
1.7883e-64
1.12712e-65
6.73676e-67
3.84164e-68
2.09653e-69
1.09445e-70
5.44486e-72
2.56602e-73
1.13735e-74
4.70571e-76
1.80395e-77
6.36107e-79
2.04807e-80
5.97411e-82
1.56504e-83
3.64457e-85
7.45037e-87
1.31577e-88
1.96549e-90
2.41189e-92
2.32909e-94
1.65188e-96
7.56272e-99
1.60169e-101
3.48661e-101
1.29355e-98
2.50854e-96
3.27124e-94
3.19766e-92
2.49014e-90
1.60625e-88
8.81762e-87
4.20214e-85
1.76524e-83
6.61696e-82
2.23592e-80
6.87179e-79
1.93673e-77
5.04582e-76
1.22513e-74
2.79549e-73
6.04539e-72
1.24887e-70
2.48043e-69
4.75534e-68
8.808e-67
1.5731e-65
2.69798e-64
4.41995e-63
6.87605e-62
1.00928e-60
1.38721e-59
1.76913e-58
2.08229e-57
2.29269e-56
2.95166e-56
1.28895e-56
2.89151e-57
4.0433e-58
3.93166e-59
2.85071e-60
1.61718e-61
7.43209e-63
2.8401e-64
9.20658e-66
2.57148e-67
6.2656e-69
1.34506e-70
2.56421e-72
4.36815e-74
6.6805e-76
9.20274e-78
1.14415e-79
1.28476e-81
1.30229e-83
1.18961e-85
9.76127e-88
7.15962e-90
4.66183e-92
2.66937e-94
1.32681e-96
5.62094e-99
1.97469e-101
5.469e-104
1.04335e-106
8.1813e-110
2.92786e-114
5.43386e-125
1.72278e-122
4.92364e-112
1.20033e-107
1.46618e-104
7.51742e-102
2.66576e-99
7.46218e-97
1.73425e-94
3.43973e-92
5.93091e-90
9.0093e-88
1.21678e-85
1.47148e-83
1.60152e-81
1.57426e-79
1.40054e-77
1.12843e-75
8.22967e-74
5.4229e-72
3.21842e-70
1.71245e-68
8.11884e-67
3.40325e-65
1.24918e-63
3.96752e-62
1.07437e-60
2.43462e-59
4.50699e-58
6.60135e-57
7.32039e-56
5.7651e-55
2.91628e-54
7.9324e-54
7.90349e-54
9.23943e-55
1.03507e-55
1.05489e-56
9.73979e-58
8.28318e-59
6.62914e-60
5.0859e-61
3.78254e-62
2.73288e-63
1.90791e-64
1.27551e-65
8.09089e-67
4.83244e-68
2.70188e-69
1.40782e-70
6.80961e-72
3.04565e-73
1.25386e-74
4.72509e-76
1.61864e-77
4.99706e-79
1.37539e-80
3.33e-82
6.97188e-84
1.23446e-85
1.79342e-87
2.04629e-89
1.71078e-91
9.21581e-94
2.30235e-96
4.53437e-96
1.45621e-93
2.42417e-91
2.7006e-89
2.24762e-87
1.48698e-85
8.14042e-84
3.7935e-82
1.53691e-80
5.50263e-79
1.76377e-77
5.11422e-76
1.35275e-74
3.28594e-73
7.36956e-72
1.53278e-70
2.96817e-69
5.37349e-68
9.14092e-67
1.4713e-65
2.26205e-64
3.36109e-63
4.88429e-62
6.9972e-61
9.8807e-60
1.36224e-58
1.80346e-57
2.24605e-56
2.57031e-55
2.63599e-54
1.37803e-53
1.14445e-53
3.79842e-54
7.01375e-55
8.45759e-56
7.3121e-57
4.81688e-58
2.52295e-59
1.08396e-60
3.91101e-62
1.20678e-63
3.23019e-65
7.58631e-67
1.57762e-68
2.92617e-70
4.86848e-72
7.29655e-74
9.87949e-76
1.21049e-77
1.34274e-79
1.34743e-81
1.22091e-83
9.95521e-86
7.26813e-88
4.71799e-90
2.69721e-92
1.34034e-94
5.68417e-97
2.00153e-99
5.56418e-102
1.06932e-104
8.59523e-108
3.43514e-112
1.11361e-122
3.17679e-120
5.18049e-110
1.12928e-105
1.34498e-102
6.84374e-100
2.4171e-97
6.7485e-95
1.56608e-92
3.10527e-90
5.35938e-88
8.16028e-86
1.10631e-83
1.34511e-81
1.47437e-79
1.46228e-77
1.31529e-75
1.07391e-73
7.9574e-72
5.34304e-70
3.24206e-68
1.77043e-66
8.6525e-65
3.75762e-63
1.43728e-61
4.78943e-60
1.37178e-58
3.32046e-57
6.64716e-56
1.06968e-54
1.33124e-53
1.21245e-52
7.42458e-52
2.64417e-51
4.06715e-51
1.13819e-51
1.36229e-52
1.48709e-53
1.53514e-54
1.5471e-55
1.54075e-56
1.50484e-57
1.41939e-58
1.27642e-59
1.08642e-60
8.72341e-62
6.59675e-63
4.68971e-64
3.12569e-65
1.94566e-66
1.12574e-67
6.02125e-69
2.95925e-70
1.32747e-71
5.39467e-73
1.96903e-74
6.38879e-76
1.81951e-77
4.47566e-79
9.30862e-81
1.58968e-82
2.13559e-84
2.10749e-86
1.34522e-88
4.01559e-91
8.12058e-91
2.23235e-88
3.16767e-86
3.0041e-84
2.12688e-82
1.19603e-80
5.5585e-79
2.19483e-77
7.51465e-76
2.26607e-74
6.09402e-73
1.47657e-71
3.25183e-70
6.55949e-69
1.22044e-67
2.10788e-66
3.39902e-65
5.14247e-64
7.32712e-63
9.85653e-62
1.25385e-60
1.51137e-59
1.73448e-58
1.91544e-57
2.07277e-56
2.24436e-55
2.45492e-54
2.67069e-53
2.77855e-52
2.63384e-51
6.41144e-51
3.58703e-51
9.24851e-52
1.42437e-52
1.49471e-53
1.15682e-54
6.96104e-56
3.3813e-57
1.36321e-58
4.65915e-60
1.37234e-61
3.52932e-63
8.008e-65
1.6166e-66
2.92294e-68
4.75797e-70
6.99925e-72
9.32838e-74
1.12789e-75
1.23741e-77
1.23063e-79
1.1072e-81
8.97952e-84
6.53092e-86
4.22965e-88
2.41581e-90
1.20096e-92
5.10116e-95
1.80128e-97
5.02848e-100
9.73861e-103
8.02759e-106
3.58326e-110
2.0255e-120
5.21914e-118
4.86583e-108
9.48386e-104
1.10094e-100
5.55746e-98
1.9541e-95
5.43909e-93
1.25969e-90
2.4955e-88
4.30814e-86
6.57001e-84
8.93342e-82
1.09097e-79
1.20302e-77
1.20244e-75
1.0921e-73
9.02306e-72
6.78201e-70
4.63214e-68
2.86811e-66
1.60403e-64
8.06207e-63
3.61805e-61
1.43803e-59
5.01181e-58
1.51292e-56
3.89583e-55
8.39337e-54
1.47535e-52
2.04549e-51
2.13324e-50
1.55861e-49
7.09276e-49
1.59992e-48
9.77986e-49
1.25813e-49
1.63529e-50
2.20252e-51
2.96326e-52
3.82482e-53
4.65999e-54
5.36072e-55
5.84847e-56
6.0624e-57
5.95856e-58
5.52773e-59
4.81437e-60
3.91664e-61
2.96262e-62
2.07465e-63
1.33899e-64
7.92521e-66
4.27665e-67
2.08936e-68
9.16318e-70
3.57011e-71
1.21981e-72
3.59532e-74
8.94649e-76
1.82489e-77
2.92338e-79
3.4356e-81
2.61083e-83
9.31515e-86
1.82786e-85
4.27198e-83
5.12216e-81
4.09073e-79
2.43237e-77
1.14599e-75
4.45256e-74
1.46696e-72
4.18367e-71
1.04932e-69
2.3439e-68
4.71062e-67
8.58985e-66
1.43131e-64
2.1926e-63
3.10481e-62
4.08541e-61
5.02295e-60
5.80663e-59
6.35698e-58
6.6407e-57
6.66035e-56
6.42799e-55
5.9485e-54
5.23606e-53
4.3579e-52
3.45969e-51
2.71735e-50
2.21437e-49
1.8543e-48
2.3093e-48
9.09161e-49
1.86159e-49
2.42413e-50
2.23491e-51
1.55956e-52
8.62142e-54
3.90215e-55
1.48218e-56
4.81528e-58
1.35809e-59
3.36496e-61
7.39471e-63
1.4524e-64
2.56516e-66
4.09292e-68
5.91978e-70
7.77802e-72
9.2934e-74
1.0097e-75
9.96363e-78
8.91044e-80
7.19463e-82
5.21752e-84
3.37395e-86
1.92669e-88
9.5879e-91
4.08136e-93
1.44598e-95
4.05536e-98
7.91821e-101
6.6963e-104
3.3386e-108
3.28417e-118
7.66661e-116
4.09557e-106
7.13749e-102
8.07281e-99
4.04115e-96
1.41402e-93
3.92184e-91
9.05966e-89
1.792e-86
3.09223e-84
4.71929e-82
6.42999e-80
7.87919e-78
8.73099e-76
8.78376e-74
8.04426e-72
6.71527e-70
5.11142e-68
3.54457e-66
2.23495e-64
1.27721e-62
6.58545e-61
3.04564e-59
1.25408e-57
4.55588e-56
1.44401e-54
3.93857e-53
9.08584e-52
1.7338e-50
2.65741e-49
3.14128e-48
2.69855e-47
1.53215e-46
4.82936e-46
5.59097e-46
9.22368e-47
1.75255e-47
3.21507e-48
5.39714e-49
8.46877e-50
1.27485e-50
1.85679e-51
2.60016e-52
3.46195e-53
4.34006e-54
5.08827e-55
5.55308e-56
5.62163e-57
5.26235e-58
4.53992e-59
3.59617e-60
2.60391e-61
1.71425e-62
1.01939e-63
5.43146e-65
2.56714e-66
1.0628e-67
3.79218e-69
1.1415e-70
2.81495e-72
5.44931e-74
7.73762e-76
7.10889e-78
3.07928e-80
5.87852e-80
1.16008e-77
1.16752e-75
7.80117e-74
3.87116e-72
1.51867e-70
4.90239e-69
1.33899e-67
3.15844e-66
6.53604e-65
1.20137e-63
1.98103e-62
2.95464e-61
4.0131e-60
4.99253e-59
5.71732e-58
6.05372e-57
5.95106e-56
5.45369e-55
4.68091e-54
3.78621e-53
2.91305e-52
2.1613e-51
1.5721e-50
1.13326e-49
8.0224e-49
5.37565e-48
3.22887e-47
1.69199e-46
9.0608e-46
6.45313e-46
1.86401e-46
3.09815e-47
3.45874e-48
2.82923e-49
1.79353e-50
9.16373e-52
3.88406e-53
1.3959e-54
4.32671e-56
1.1723e-57
2.80665e-59
5.98945e-61
1.14731e-62
1.98366e-64
3.10861e-66
4.42856e-68
5.74577e-70
6.79433e-72
7.32029e-74
7.17635e-76
6.38648e-78
5.1393e-80
3.71966e-82
2.40378e-84
1.37346e-86
6.84662e-89
2.92256e-91
1.03945e-93
2.93017e-96
5.77059e-99
5.00877e-102
2.78938e-106
4.7643e-116
1.00992e-113
3.0994e-104
4.83006e-100
5.32071e-97
2.64023e-94
9.18912e-92
2.53827e-89
5.84506e-87
1.15359e-84
1.98816e-82
3.03395e-80
4.13813e-78
5.08262e-76
5.65297e-74
5.71677e-72
5.2715e-70
4.43916e-68
3.41572e-66
2.40023e-64
1.53783e-62
8.95855e-61
4.72611e-59
2.24594e-57
9.54991e-56
3.6034e-54
1.19437e-52
3.43476e-51
8.43888e-50
1.73701e-48
2.91978e-47
3.87145e-46
3.8535e-45
2.6673e-44
1.12395e-43
2.17549e-43
7.02289e-44
1.821e-44
4.00585e-45
8.39044e-46
1.73453e-46
3.50004e-47
6.76862e-48
1.239e-48
2.13022e-49
3.42127e-50
5.11113e-51
7.07821e-52
9.05986e-53
1.06874e-53
1.15834e-54
1.14937e-55
1.03963e-56
8.52746e-58
6.30211e-59
4.1633e-60
2.43441e-61
1.2444e-62
5.47267e-64
2.02743e-65
6.14596e-67
1.46132e-68
2.54772e-70
2.87574e-72
1.5366e-74
2.8254e-74
4.61957e-72
3.83119e-70
2.10333e-68
8.55513e-67
2.7447e-65
7.22884e-64
1.60688e-62
3.0765e-61
5.15241e-60
7.64035e-59
1.01294e-57
1.21023e-56
1.31159e-55
1.29648e-54
1.17442e-53
9.79039e-53
7.54114e-52
5.38946e-51
3.59064e-50
2.24254e-49
1.32159e-48
7.40593e-48
3.98709e-47
2.09822e-46
1.10981e-45
6.02768e-45
3.24923e-44
1.52614e-43
3.12235e-43
1.40348e-43
3.09257e-44
4.26267e-45
4.13726e-46
3.03321e-47
1.7605e-48
8.36624e-50
3.33826e-51
1.14028e-52
3.38536e-54
8.84244e-56
2.05197e-57
4.26432e-59
7.98693e-61
1.35497e-62
2.08987e-64
2.93813e-66
3.77079e-68
4.41991e-70
4.72918e-72
4.61197e-74
4.08926e-76
3.28321e-78
2.37398e-80
1.53455e-82
8.78029e-85
4.38767e-87
1.87937e-89
6.71415e-92
1.90334e-94
3.78247e-97
3.37113e-100
2.09693e-104
6.20286e-114
1.19602e-111
2.11498e-102
2.94787e-98
3.16157e-95
1.55447e-92
5.37883e-90
1.47892e-87
3.39274e-85
6.67627e-83
1.14829e-80
1.75049e-78
2.38768e-76
2.93616e-74
3.27366e-72
3.32328e-70
3.08082e-68
2.6127e-66
2.02846e-64
1.44142e-62
9.36282e-61
5.546e-59
2.98523e-57
1.45323e-55
6.35931e-54
2.48281e-52
8.56948e-51
2.58581e-49
6.7283e-48
1.48389e-46
2.71305e-45
3.99258e-44
4.53793e-43
3.7452e-42
2.02694e-41
5.93927e-41
5.26042e-41
1.40303e-41
3.98046e-42
1.15259e-42
3.25609e-43
8.89412e-44
2.33026e-44
5.77105e-45
1.33258e-45
2.84369e-46
5.58229e-47
1.00572e-47
1.66047e-48
2.50857e-49
3.46105e-50
4.34926e-51
4.96022e-52
5.11051e-53
4.72884e-54
3.90073e-55
2.84156e-56
1.80623e-57
9.86354e-59
4.53241e-60
1.70299e-61
5.01723e-63
1.08403e-64
1.51801e-66
1.01054e-68
1.81548e-68
2.42941e-66
1.64195e-64
7.33159e-63
2.42172e-61
6.30035e-60
1.34344e-58
2.41333e-57
3.72602e-56
5.01948e-55
5.9695e-54
6.32545e-53
6.01624e-52
5.1668e-51
4.02607e-50
2.85774e-49
1.85385e-48
1.10225e-47
6.02339e-47
3.03507e-46
1.417e-45
6.18074e-45
2.55382e-44
1.01864e-43
3.98491e-43
1.52939e-42
5.72675e-42
2.17753e-41
9.0096e-41
7.73923e-41
2.3837e-41
4.15352e-42
4.84757e-43
4.1481e-44
2.75397e-45
1.47534e-46
6.56403e-48
2.47931e-49
8.08727e-51
2.30932e-52
5.83621e-54
1.31707e-55
2.67339e-57
4.90906e-59
8.19163e-61
1.24628e-62
1.7326e-64
2.20362e-66
2.56465e-68
2.72934e-70
2.6515e-72
2.34534e-74
1.88096e-76
1.3602e-78
8.8031e-81
5.04835e-83
2.53093e-85
1.08855e-87
3.90873e-90
1.11489e-92
2.23682e-95
2.04787e-98
1.42264e-102
7.267e-112
1.27615e-109
1.30477e-100
1.627e-96
1.69828e-93
8.26997e-91
2.84356e-88
7.77787e-86
1.77636e-83
3.48262e-81
5.97262e-79
9.08671e-77
1.23815e-74
1.52258e-72
1.69953e-70
1.72937e-68
1.6092e-66
1.37191e-64
1.07263e-62
7.6912e-61
5.0528e-59
3.03529e-57
1.66211e-55
8.26172e-54
3.70733e-52
1.4917e-50
5.33743e-49
1.68134e-47
4.60614e-46
1.08093e-44
2.13156e-43
3.44436e-42
4.40631e-41
4.24497e-40
2.84614e-39
1.16731e-38
2.0595e-38
7.98927e-39
3.36011e-39
1.32892e-39
5.14967e-40
1.97137e-40
7.28175e-41
2.52823e-41
8.10196e-42
2.37178e-42
6.31128e-43
1.52354e-43
3.3341e-44
6.6117e-45
1.18723e-45
1.92766e-46
2.82345e-47
3.71762e-48
4.37895e-49
4.58398e-50
4.22788e-51
3.39676e-52
2.34168e-53
1.35733e-54
6.43049e-56
2.38853e-57
6.50824e-59
1.15052e-60
9.70418e-63
1.52263e-62
1.63625e-60
8.8536e-59
3.1624e-57
8.35395e-56
1.73787e-54
2.96239e-53
4.25191e-52
5.24004e-51
5.62591e-50
5.31991e-49
4.46742e-48
3.3523e-47
2.25808e-46
1.36977e-45
7.49915e-45
3.71076e-44
1.66144e-43
6.74038e-43
2.48427e-42
8.36255e-42
2.59708e-41
7.57222e-41