/*--------------------------------*- C++ -*----------------------------------*\
| =========                 |                                                 |
| \\      /  F ield         | OpenFOAM: The Open Source CFD Toolbox           |
|  \\    /   O peration     | Version:  2212                                  |
|   \\  /    A nd           | Website:  www.openfoam.com                      |
|    \\/     M anipulation  |                                                 |
\*---------------------------------------------------------------------------*/
FoamFile
{
    version     2.0;
    format      ascii;
    arch        "LSB;label=64;scalar=64";
    class       volScalarField;
    location    "1630";
    object      Gch4;
}
// * * * * * * * * * * * * * * * * * * * * * * * * * * * * * * * * * * * * * //

dimensions      [1 -3 0 0 0 0 0];

internalField   nonuniform List<scalar> 
1024
(
1.9356
1.93549
1.93524
1.93479
1.93405
1.93295
1.9314
1.92933
1.92669
1.92342
1.91946
1.91469
1.90898
1.90235
1.89524
1.88869
1.88448
1.88349
1.88494
1.88809
1.89238
1.89735
1.90254
1.90749
1.91185
1.91543
1.91817
1.92014
1.92147
1.9223
1.92275
1.92293
1.93553
1.93543
1.93518
1.93472
1.93397
1.93286
1.9313
1.92921
1.92655
1.92326
1.91928
1.9145
1.90876
1.9021
1.89497
1.88839
1.88418
1.88319
1.88466
1.88781
1.89211
1.8971
1.90231
1.90729
1.91169
1.9153
1.91807
1.92007
1.92142
1.92225
1.92271
1.9229
1.93539
1.93528
1.93502
1.93455
1.93379
1.93265
1.93105
1.92892
1.92621
1.92288
1.91886
1.91404
1.90825
1.90152
1.89431
1.88767
1.88343
1.88247
1.88398
1.8872
1.89154
1.89657
1.90183
1.90687
1.91134
1.91503
1.91787
1.91991
1.92129
1.92215
1.92262
1.92281
1.93512
1.93501
1.93475
1.93426
1.93347
1.93228
1.93062
1.92841
1.92562
1.9222
1.9181
1.9132
1.90733
1.90048
1.89312
1.88634
1.88204
1.88115
1.8828
1.88617
1.89064
1.89576
1.90111
1.90625
1.91083
1.91462
1.91755
1.91966
1.92109
1.92197
1.92245
1.92265
1.93468
1.93457
1.9343
1.93379
1.93295
1.9317
1.92995
1.92762
1.92468
1.92111
1.91688
1.91186
1.90584
1.89879
1.89118
1.88417
1.87979
1.87903
1.88095
1.88463
1.88937
1.8947
1.90019
1.90547
1.91017
1.91409
1.91712
1.91931
1.92079
1.92171
1.9222
1.9224
1.93402
1.93391
1.93362
1.93308
1.93219
1.93085
1.92895
1.92644
1.92329
1.91949
1.91505
1.90983
1.90359
1.89625
1.88827
1.88091
1.87642
1.87589
1.87828
1.88251
1.88773
1.8934
1.89914
1.90459
1.90945
1.91349
1.91662
1.91888
1.92041
1.92134
1.92185
1.92205
1.93306
1.93294
1.93263
1.93206
1.93109
1.92963
1.92755
1.92478
1.92132
1.91719
1.91242
1.90689
1.90032
1.89255
1.88407
1.87627
1.87167
1.87151
1.87461
1.87968
1.88566
1.8919
1.89801
1.90372
1.90873
1.91288
1.91608
1.91838
1.91992
1.92086
1.92136
1.92156
1.9317
1.93158
1.93125
1.93062
1.92956
1.92794
1.92561
1.9225
1.91861
1.91402
1.90877
1.90277
1.8957
1.88736
1.87826
1.86998
1.86535
1.86571
1.86979
1.87603
1.8831
1.89017
1.89685
1.90287
1.90806
1.91228
1.91549
1.91778
1.91929
1.9202
1.92068
1.92086
1.92982
1.92969
1.92934
1.92865
1.92747
1.92564
1.92299
1.91944
1.915
1.90976
1.90384
1.89716
1.88939
1.88032
1.87054
1.86184
1.85728
1.85829
1.86353
1.87122
1.87973
1.88798
1.89545
1.90193
1.90732
1.91157
1.91473
1.91693
1.91834
1.91916
1.91957
1.91973
1.92728
1.92714
1.92676
1.92599
1.92466
1.92257
1.91953
1.91542
1.91026
1.90419
1.89736
1.88974
1.88104
1.87113
1.86072
1.85174
1.84731
1.84892
1.85524
1.86445
1.87466
1.88447
1.89307
1.90022
1.90592
1.91023
1.91329
1.91532
1.91655
1.91722
1.91752
1.91762
1.92392
1.92377
1.92334
1.92248
1.92097
1.91856
1.91503
1.91024
1.90419
1.89708
1.88909
1.88027
1.87047
1.85969
1.8488
1.83968
1.83523
1.83691
1.84371
1.85397
1.86578
1.8774
1.88761
1.89589
1.9022
1.90673
1.90977
1.91163
1.91263
1.91308
1.91322
1.91323
1.91964
1.91947
1.91899
1.91801
1.91626
1.91347
1.90936
1.90376
1.89668
1.88833
1.87899
1.86882
1.85786
1.84633
1.83512
1.82582
1.82077
1.82135
1.82715
1.83701
1.84933
1.86232
1.87436
1.88441
1.89207
1.89743
1.90083
1.90274
1.90363
1.9039
1.90388
1.9038
1.91441
1.91422
1.91368
1.91256
1.91055
1.90733
1.90257
1.89607
1.88787
1.87821
1.86748
1.85602
1.84408
1.83203
1.82061
1.81083
1.80426
1.80211
1.80467
1.8115
1.82172
1.83394
1.84658
1.85825
1.86793
1.87515
1.87998
1.88279
1.88414
1.8846
1.88462
1.88454
1.90841
1.9082
1.9076
1.90634
1.90408
1.90044
1.89505
1.88771
1.87846
1.86761
1.85571
1.84327
1.83074
1.81854
1.80711
1.79679
1.78827
1.78239
1.7798
1.78079
1.78534
1.79295
1.80268
1.81335
1.82374
1.83279
1.83986
1.84475
1.84769
1.84919
1.84978
1.84991
1.90202
1.9018
1.90116
1.89982
1.89739
1.89346
1.88765
1.87974
1.86979
1.85819
1.8456
1.83275
1.82027
1.80858
1.7979
1.78805
1.77887
1.77035
1.76296
1.7574
1.75438
1.75429
1.75711
1.7624
1.7694
1.7771
1.78445
1.7906
1.79511
1.79795
1.79942
1.79996
1.89582
1.8956
1.89497
1.89363
1.89122
1.88732
1.88152
1.8736
1.86359
1.85194
1.8394
1.8269
1.81527
1.80509
1.79655
1.78929
1.78236
1.77426
1.76483
1.75494
1.74579
1.7384
1.7334
1.73104
1.73119
1.7334
1.73694
1.74092
1.74454
1.74727
1.74892
1.74963
1.89088
1.89067
1.89008
1.88886
1.88667
1.88312
1.87783
1.87053
1.86125
1.85036
1.83866
1.82718
1.81698
1.80889
1.80329
1.79987
1.79708
1.79192
1.78319
1.77168
1.75898
1.74667
1.73596
1.72758
1.72177
1.71845
1.7172
1.71744
1.71848
1.71967
1.72059
1.72105
1.88779
1.88759
1.88705
1.88597
1.88407
1.88101
1.87643
1.87007
1.86189
1.8522
1.8417
1.83143
1.82255
1.81606
1.81253
1.81179
1.81213
1.80984
1.80287
1.79137
1.77675
1.76098
1.74594
1.73304
1.72302
1.71602
1.71172
1.70955
1.70883
1.70889
1.7092
1.70942
1.88617
1.88598
1.8855
1.88455
1.88291
1.8803
1.87642
1.871
1.86397
1.85555
1.84633
1.83723
1.82938
1.82381
1.8212
1.82149
1.82298
1.82203
1.81649
1.80591
1.79109
1.77365
1.75565
1.7391
1.7254
1.71515
1.70831
1.70434
1.70246
1.70188
1.70189
1.70203
1.88546
1.88529
1.88486
1.88403
1.88262
1.88041
1.87713
1.87256
1.86661
1.85942
1.85145
1.84349
1.8365
1.83144
1.82897
1.82904
1.83009
1.82896
1.82381
1.81404
1.79989
1.7824
1.76325
1.74455
1.72812
1.71512
1.7059
1.70014
1.6971
1.6959
1.69566
1.69574
1.88507
1.88494
1.88458
1.8839
1.88274
1.88089
1.87815
1.87433
1.86933
1.86327
1.85648
1.84957
1.84331
1.83847
1.83558
1.83454
1.83399
1.83157
1.82592
1.81645
1.80308
1.78635
1.76743
1.74807
1.73014
1.71519
1.704
1.69659
1.69241
1.69055
1.69003
1.69005
1.88424
1.88418
1.88398
1.88354
1.88269
1.88126
1.87905
1.87591
1.87175
1.86666
1.86087
1.8548
1.84901
1.84403
1.84021
1.83735
1.83447
1.83016
1.82356
1.8141
1.80149
1.78587
1.76801
1.74919
1.73099
1.71501
1.70239
1.69358
1.68829
1.68574
1.68493
1.68487
1.88202
1.88208
1.88215
1.88208
1.88171
1.88082
1.8792
1.8767
1.87325
1.86887
1.86372
1.85807
1.85226
1.84664
1.84139
1.83629
1.83084
1.82456
1.81702
1.80762
1.79589
1.78168
1.76537
1.74784
1.73035
1.71426
1.70086
1.69097
1.68468
1.68144
1.68029
1.68015
1.87737
1.87762
1.87807
1.87854
1.87879
1.87855
1.87755
1.87558
1.87257
1.86849
1.86344
1.85761
1.85121
1.84448
1.83753
1.8302
1.82247
1.81464
1.80651
1.79742
1.78681
1.77429
1.7599
1.74418
1.72806
1.71265
1.69916
1.68862
1.68151
1.67761
1.67609
1.67585
1.86938
1.86989
1.8708
1.87186
1.87274
1.87306
1.87249
1.87076
1.86774
1.86343
1.85792
1.85138
1.84402
1.83605
1.82759
1.81855
1.80931
1.80064
1.79245
1.78402
1.77472
1.76406
1.75186
1.73833
1.72407
1.70995
1.69702
1.68634
1.67868
1.6742
1.67231
1.67195
1.85742
1.85824
1.85958
1.86106
1.86224
1.86269
1.86207
1.86006
1.85655
1.85158
1.8453
1.83793
1.82971
1.82086
1.81152
1.80166
1.7919
1.78321
1.77549
1.76802
1.76017
1.75143
1.7415
1.73036
1.71832
1.70598
1.69417
1.68389
1.67606
1.67116
1.66892
1.66843
1.84115
1.84225
1.84381
1.84522
1.84601
1.84587
1.84453
1.84175
1.83747
1.8318
1.82494
1.81712
1.80861
1.79961
1.7903
1.78065
1.77133
1.76332
1.7565
1.75021
1.74385
1.73696
1.72921
1.72046
1.71082
1.70061
1.6904
1.68104
1.67348
1.66841
1.6659
1.66526
1.82035
1.82162
1.8229
1.82346
1.82304
1.82161
1.81912
1.81543
1.81056
1.80462
1.79778
1.79025
1.78225
1.77398
1.76556
1.75699
1.74888
1.74207
1.73644
1.73141
1.72649
1.7213
1.71554
1.70903
1.70175
1.69382
1.68557
1.6776
1.67077
1.66586
1.66321
1.66244
1.79469
1.79584
1.79609
1.79503
1.79292
1.79007
1.78658
1.78241
1.77757
1.77208
1.76603
1.75957
1.75285
1.74601
1.73915
1.73227
1.72584
1.72052
1.71621
1.71245
1.70887
1.70518
1.70114
1.69659
1.69147
1.68577
1.67964
1.67343
1.66776
1.66338
1.66081
1.65996
1.76346
1.7639
1.76244
1.7597
1.75637
1.75283
1.74917
1.74535
1.7413
1.73696
1.73236
1.72754
1.72261
1.71764
1.71272
1.70783
1.7033
1.69958
1.69661
1.69406
1.69168
1.68927
1.68668
1.68378
1.6805
1.67681
1.67275
1.66846
1.6643
1.66085
1.65864
1.65781
1.72534
1.72442
1.72171
1.71864
1.71559
1.71268
1.70994
1.7073
1.70467
1.70197
1.69917
1.69629
1.69336
1.69044
1.68755
1.6847
1.68208
1.67994
1.67824
1.67679
1.67547
1.67414
1.67273
1.67116
1.6694
1.66741
1.66519
1.66277
1.66032
1.65814
1.65661
1.65595
1.67874
1.67802
1.67663
1.67529
1.67406
1.67294
1.67193
1.67099
1.67009
1.66919
1.66826
1.66732
1.66637
1.66542
1.66448
1.66356
1.66272
1.66203
1.66149
1.66103
1.66061
1.66019
1.65975
1.65927
1.65872
1.65811
1.65742
1.65667
1.65589
1.65516
1.6546
1.65433
)
;

boundaryField
{
    movingWall
    {
        type            fixedValue;
        value           uniform 1.6535;
    }
    fixedWalls
    {
        type            zeroGradient;
    }
    floor
    {
        type            zeroGradient;
    }
    frontAndBack
    {
        type            empty;
    }
}


// ************************************************************************* //
