/*--------------------------------*- C++ -*----------------------------------*\
| =========                 |                                                 |
| \\      /  F ield         | OpenFOAM: The Open Source CFD Toolbox           |
|  \\    /   O peration     | Version:  2212                                  |
|   \\  /    A nd           | Website:  www.openfoam.com                      |
|    \\/     M anipulation  |                                                 |
\*---------------------------------------------------------------------------*/
FoamFile
{
    version     2.0;
    format      ascii;
    arch        "LSB;label=64;scalar=64";
    class       volScalarField;
    location    "1630";
    object      Saa;
}
// * * * * * * * * * * * * * * * * * * * * * * * * * * * * * * * * * * * * * //

dimensions      [1 -3 0 0 0 0 0];

internalField   nonuniform List<scalar> 
1024
(
0.00546358
0.0054636
0.00546365
0.00546374
0.00546389
0.00546412
0.00546445
0.00546488
0.00546542
0.00546609
0.0054669
0.00546784
0.00546895
0.00547021
0.0054715
0.00547263
0.00547328
0.00547334
0.00547297
0.0054723
0.00547144
0.00547044
0.00546939
0.00546838
0.00546749
0.00546675
0.00546618
0.00546577
0.00546549
0.00546532
0.00546522
0.00546519
0.00546359
0.00546361
0.00546366
0.00546376
0.00546391
0.00546414
0.00546447
0.0054649
0.00546545
0.00546613
0.00546693
0.00546788
0.005469
0.00547025
0.00547155
0.00547268
0.00547333
0.00547338
0.00547301
0.00547235
0.00547148
0.00547048
0.00546943
0.00546842
0.00546752
0.00546677
0.0054662
0.00546578
0.0054655
0.00546533
0.00546523
0.00546519
0.00546362
0.00546364
0.00546369
0.00546379
0.00546395
0.00546418
0.00546452
0.00546496
0.00546552
0.0054662
0.00546701
0.00546797
0.00546909
0.00547036
0.00547167
0.00547281
0.00547346
0.0054735
0.00547312
0.00547245
0.00547158
0.00547057
0.00546952
0.0054685
0.00546758
0.00546682
0.00546624
0.00546581
0.00546552
0.00546534
0.00546525
0.00546521
0.00546367
0.0054637
0.00546375
0.00546385
0.00546402
0.00546426
0.00546461
0.00546506
0.00546564
0.00546634
0.00546716
0.00546813
0.00546927
0.00547055
0.00547188
0.00547304
0.00547369
0.00547371
0.00547331
0.00547261
0.00547172
0.00547071
0.00546964
0.00546861
0.00546768
0.0054669
0.0054663
0.00546586
0.00546556
0.00546538
0.00546528
0.00546524
0.00546376
0.00546379
0.00546384
0.00546395
0.00546412
0.00546438
0.00546475
0.00546523
0.00546583
0.00546656
0.00546741
0.00546839
0.00546955
0.00547086
0.00547222
0.00547341
0.00547406
0.00547405
0.0054736
0.00547285
0.00547192
0.00547088
0.0054698
0.00546874
0.00546779
0.00546699
0.00546637
0.00546592
0.00546561
0.00546542
0.00546532
0.00546528
0.0054639
0.00546393
0.00546399
0.0054641
0.00546428
0.00546456
0.00546495
0.00546547
0.00546611
0.00546688
0.00546777
0.00546879
0.00546997
0.00547133
0.00547274
0.00547397
0.00547461
0.00547455
0.005474
0.00547317
0.00547216
0.00547108
0.00546996
0.00546888
0.00546791
0.00546709
0.00546646
0.00546599
0.00546568
0.00546548
0.00546538
0.00546533
0.00546411
0.00546413
0.00546419
0.00546431
0.00546451
0.00546482
0.00546524
0.00546581
0.00546651
0.00546734
0.00546828
0.00546935
0.00547059
0.005472
0.00547348
0.00547475
0.00547538
0.00547523
0.00547455
0.00547357
0.00547245
0.00547128
0.00547011
0.005469
0.00546801
0.00546719
0.00546654
0.00546607
0.00546575
0.00546556
0.00546545
0.00546541
0.00546439
0.00546442
0.00546449
0.00546462
0.00546483
0.00546517
0.00546564
0.00546627
0.00546706
0.00546797
0.005469
0.00547014
0.00547145
0.00547294
0.0054745
0.00547581
0.0054764
0.00547613
0.00547526
0.00547408
0.00547279
0.00547149
0.00547024
0.0054691
0.00546809
0.00546726
0.00546662
0.00546615
0.00546585
0.00546566
0.00546556
0.00546552
0.00546479
0.00546482
0.00546489
0.00546503
0.00546527
0.00546564
0.00546618
0.0054669
0.00546778
0.00546881
0.00546995
0.00547121
0.00547262
0.00547421
0.00547584
0.00547717
0.0054777
0.00547727
0.00547618
0.00547475
0.00547322
0.00547174
0.00547038
0.00546918
0.00546815
0.00546733
0.00546671
0.00546627
0.00546598
0.00546581
0.00546573
0.00546569
0.00546533
0.00546536
0.00546544
0.00546559
0.00546586
0.00546628
0.00546689
0.00546771
0.00546873
0.00546991
0.0054712
0.00547261
0.00547416
0.00547585
0.00547754
0.00547885
0.00547928
0.00547871
0.00547741
0.00547571
0.0054739
0.00547218
0.00547065
0.00546935
0.0054683
0.00546749
0.0054669
0.0054665
0.00546625
0.00546611
0.00546605
0.00546602
0.00546604
0.00546607
0.00546616
0.00546633
0.00546663
0.00546711
0.00546781
0.00546875
0.00546993
0.00547129
0.00547278
0.00547437
0.00547608
0.00547787
0.00547957
0.00548084
0.00548121
0.00548058
0.00547918
0.00547729
0.0054752
0.00547319
0.00547141
0.00546995
0.00546882
0.00546799
0.00546743
0.00546707
0.00546687
0.00546678
0.00546674
0.00546674
0.00546694
0.00546698
0.00546707
0.00546726
0.00546761
0.00546816
0.00546896
0.00547005
0.00547141
0.00547298
0.00547469
0.00547649
0.00547835
0.00548021
0.0054819
0.00548313
0.00548355
0.00548306
0.0054818
0.00547995
0.00547777
0.00547553
0.00547347
0.00547174
0.00547042
0.00546948
0.00546887
0.00546852
0.00546835
0.00546829
0.00546829
0.0054683
0.00546804
0.00546808
0.00546818
0.0054684
0.00546879
0.00546941
0.00547033
0.00547158
0.00547313
0.00547492
0.00547685
0.00547885
0.00548083
0.00548272
0.00548439
0.00548565
0.00548629
0.00548621
0.00548543
0.00548405
0.0054822
0.00548008
0.00547794
0.00547597
0.00547435
0.00547313
0.00547231
0.00547183
0.0054716
0.00547152
0.00547151
0.00547152
0.0054693
0.00546934
0.00546945
0.00546969
0.00547012
0.00547082
0.00547185
0.00547324
0.00547497
0.00547695
0.00547908
0.00548121
0.00548326
0.00548515
0.00548679
0.00548812
0.00548906
0.00548953
0.00548952
0.00548901
0.00548802
0.00548663
0.00548497
0.0054832
0.0054815
0.00548003
0.00547888
0.0054781
0.00547762
0.00547738
0.00547729
0.00547727
0.00547065
0.00547068
0.0054708
0.00547105
0.00547151
0.00547225
0.00547335
0.00547484
0.00547669
0.0054788
0.00548104
0.00548324
0.00548529
0.0054871
0.00548864
0.00548991
0.00549094
0.00549177
0.0054924
0.0054928
0.00549288
0.00549262
0.005492
0.00549108
0.00548996
0.00548876
0.00548763
0.0054867
0.00548601
0.00548559
0.00548536
0.00548528
0.00547197
0.00547201
0.00547213
0.00547237
0.00547282
0.00547355
0.00547465
0.00547613
0.00547799
0.00548013
0.00548238
0.00548456
0.00548651
0.00548814
0.0054894
0.00549033
0.00549103
0.00549175
0.00549257
0.00549343
0.00549423
0.00549487
0.00549528
0.00549542
0.00549529
0.00549494
0.00549445
0.00549391
0.00549343
0.00549307
0.00549285
0.00549276
0.00547308
0.00547312
0.00547322
0.00547344
0.00547385
0.00547451
0.00547551
0.00547689
0.00547863
0.00548066
0.00548282
0.00548489
0.00548669
0.00548808
0.00548898
0.00548943
0.00548961
0.00548993
0.0054906
0.00549156
0.00549266
0.00549374
0.00549469
0.00549545
0.00549599
0.00549633
0.00549647
0.00549648
0.0054964
0.0054963
0.00549622
0.00549618
0.00547384
0.00547387
0.00547397
0.00547416
0.00547451
0.00547508
0.00547595
0.00547716
0.00547872
0.00548057
0.00548255
0.00548449
0.00548615
0.00548738
0.00548806
0.00548822
0.00548805
0.00548807
0.00548855
0.00548951
0.00549079
0.00549218
0.0054935
0.00549463
0.00549551
0.00549615
0.00549656
0.00549681
0.00549693
0.00549697
0.00549698
0.00549698
0.00547431
0.00547434
0.00547442
0.00547459
0.00547488
0.00547537
0.00547611
0.00547715
0.00547851
0.00548014
0.00548194
0.00548372
0.00548527
0.00548641
0.00548703
0.0054871
0.00548684
0.00548673
0.00548709
0.00548798
0.00548929
0.00549086
0.00549246
0.00549392
0.00549511
0.00549601
0.00549662
0.00549699
0.0054972
0.00549729
0.00549733
0.00549734
0.00547459
0.00547462
0.00547469
0.00547483
0.00547508
0.00547549
0.00547612
0.005477
0.00547817
0.00547959
0.00548117
0.00548278
0.00548422
0.00548531
0.00548594
0.00548607
0.0054859
0.00548585
0.0054862
0.00548703
0.00548831
0.00548991
0.00549164
0.00549329
0.00549473
0.00549585
0.00549665
0.00549716
0.00549745
0.00549759
0.00549764
0.00549765
0.00547477
0.00547479
0.00547485
0.00547497
0.00547518
0.00547553
0.00547605
0.00547679
0.00547778
0.005479
0.00548037
0.0054818
0.00548311
0.00548417
0.00548485
0.00548515
0.0054852
0.00548533
0.00548578
0.00548662
0.00548786
0.00548941
0.00549114
0.00549287
0.00549444
0.00549572
0.00549667
0.00549731
0.00549768
0.00549787
0.00549794
0.00549796
0.00547496
0.00547497
0.00547501
0.0054751
0.00547526
0.00547554
0.00547597
0.00547659
0.00547742
0.00547845
0.00547963
0.00548088
0.00548208
0.00548312
0.00548391
0.00548443
0.00548478
0.00548518
0.00548578
0.00548666
0.00548785
0.00548932
0.00549097
0.00549267
0.00549427
0.00549564
0.00549671
0.00549745
0.0054979
0.00549813
0.00549823
0.00549825
0.00547528
0.00547528
0.00547528
0.00547533
0.00547543
0.00547563
0.00547596
0.00547647
0.00547716
0.00547804
0.00547907
0.00548019
0.00548132
0.00548238
0.00548331
0.0054841
0.00548477
0.00548543
0.00548617
0.00548709
0.00548822
0.00548958
0.0054911
0.0054927
0.00549424
0.00549562
0.00549675
0.00549757
0.00549809
0.00549837
0.00549849
0.00549852
0.00547585
0.00547583
0.00547579
0.00547577
0.00547579
0.00547591
0.00547615
0.00547656
0.00547716
0.00547793
0.00547887
0.00547993
0.00548105
0.00548218
0.00548327
0.0054843
0.00548525
0.00548611
0.00548696
0.00548788
0.00548893
0.00549014
0.00549149
0.00549293
0.00549436
0.00549569
0.00549682
0.00549769
0.00549827
0.00549859
0.00549873
0.00549877
0.00547678
0.00547673
0.00547664
0.00547655
0.0054765
0.00547654
0.00547671
0.00547707
0.00547761
0.00547835
0.00547927
0.00548032
0.00548148
0.00548269
0.0054839
0.00548511
0.00548624
0.00548722
0.0054881
0.00548897
0.00548991
0.00549095
0.00549211
0.00549336
0.00549463
0.00549585
0.00549693
0.00549781
0.00549843
0.00549879
0.00549895
0.00549899
0.00547813
0.00547805
0.00547791
0.00547777
0.00547768
0.0054777
0.00547786
0.00547821
0.00547877
0.00547952
0.00548046
0.00548153
0.00548272
0.00548396
0.00548523
0.0054865
0.00548768
0.00548868
0.00548953
0.00549032
0.00549112
0.00549199
0.00549294
0.00549397
0.00549505
0.00549612
0.00549711
0.00549795
0.00549858
0.00549897
0.00549915
0.0054992
0.00547994
0.00547982
0.00547966
0.00547953
0.00547948
0.00547954
0.00547977
0.00548018
0.00548078
0.00548156
0.0054825
0.00548356
0.00548471
0.00548591
0.00548713
0.00548835
0.00548947
0.0054904
0.00549116
0.00549184
0.00549249
0.00549318
0.00549393
0.00549475
0.00549562
0.00549651
0.00549737
0.00549813
0.00549873
0.00549913
0.00549933
0.00549938
0.00548222
0.00548208
0.00548195
0.00548191
0.00548198
0.00548218
0.00548251
0.00548299
0.00548361
0.00548438
0.00548526
0.00548624
0.00548728
0.00548834
0.00548942
0.00549049
0.00549147
0.00549226
0.0054929
0.00549344
0.00549396
0.00549448
0.00549504
0.00549566
0.00549632
0.00549701
0.00549771
0.00549836
0.0054989
0.00549928
0.00549948
0.00549954
0.005485
0.00548488
0.00548486
0.00548498
0.00548523
0.00548557
0.00548599
0.00548649
0.00548709
0.00548776
0.00548852
0.00548933
0.00549018
0.00549104
0.00549191
0.00549276
0.00549354
0.00549416
0.00549465
0.00549506
0.00549544
0.00549582
0.00549621
0.00549664
0.00549711
0.00549761
0.00549814
0.00549864
0.00549909
0.00549942
0.00549962
0.00549968
0.00548835
0.00548831
0.00548847
0.00548877
0.00548914
0.00548954
0.00548996
0.0054904
0.00549089
0.00549141
0.00549197
0.00549256
0.00549318
0.0054938
0.00549441
0.00549502
0.00549556
0.005496
0.00549634
0.00549662
0.00549688
0.00549713
0.00549738
0.00549766
0.00549796
0.00549829
0.00549863
0.00549899
0.00549931
0.00549957
0.00549974
0.0054998
0.00549241
0.00549251
0.0054928
0.00549313
0.00549347
0.00549379
0.0054941
0.0054944
0.0054947
0.00549503
0.00549536
0.00549572
0.00549608
0.00549644
0.0054968
0.00549715
0.00549747
0.00549772
0.00549792
0.00549808
0.00549822
0.00549836
0.0054985
0.00549865
0.00549881
0.00549899
0.00549918
0.00549938
0.00549957
0.00549974
0.00549985
0.00549989
0.00549734
0.00549742
0.00549757
0.00549771
0.00549785
0.00549797
0.00549808
0.00549819
0.00549829
0.0054984
0.00549851
0.00549862
0.00549874
0.00549886
0.00549898
0.00549909
0.00549919
0.00549927
0.00549934
0.00549939
0.00549943
0.00549948
0.00549952
0.00549957
0.00549962
0.00549967
0.00549973
0.00549979
0.00549985
0.00549991
0.00549995
0.00549997
)
;

boundaryField
{
    movingWall
    {
        type            fixedValue;
        value           uniform 0.0055;
    }
    fixedWalls
    {
        type            zeroGradient;
    }
    floor
    {
        type            zeroGradient;
    }
    frontAndBack
    {
        type            empty;
    }
}


// ************************************************************************* //
