/*--------------------------------*- C++ -*----------------------------------*\
| =========                 |                                                 |
| \\      /  F ield         | OpenFOAM: The Open Source CFD Toolbox           |
|  \\    /   O peration     | Version:  2212                                  |
|   \\  /    A nd           | Website:  www.openfoam.com                      |
|    \\/     M anipulation  |                                                 |
\*---------------------------------------------------------------------------*/
FoamFile
{
    version     2.0;
    format      ascii;
    arch        "LSB;label=64;scalar=64";
    class       volScalarField;
    location    "1630";
    object      Sch4;
}
// * * * * * * * * * * * * * * * * * * * * * * * * * * * * * * * * * * * * * //

dimensions      [1 -3 0 0 0 0 0];

internalField   nonuniform List<scalar> 
1024
(
0.034587
0.0345942
0.0346121
0.0346449
0.034698
0.0347773
0.0348889
0.0350381
0.0352291
0.0354653
0.0357517
0.0360969
0.0365109
0.0369925
0.0375096
0.0379886
0.038298
0.0383731
0.03827
0.0380431
0.0377328
0.0373729
0.0369978
0.0366398
0.0363247
0.0360666
0.0358687
0.0357261
0.0356301
0.0355704
0.0355378
0.0355246
0.0345912
0.0345986
0.0346166
0.0346498
0.0347035
0.0347837
0.0348964
0.035047
0.0352393
0.0354768
0.0357643
0.0361107
0.0365263
0.0370101
0.0375295
0.0380102
0.0383201
0.0383948
0.0382908
0.0380632
0.0377521
0.0373913
0.0370146
0.0366545
0.0363366
0.0360758
0.0358755
0.0357312
0.035634
0.0355736
0.0355407
0.0355273
0.0346018
0.0346093
0.0346277
0.0346616
0.0347166
0.0347987
0.0349141
0.0350678
0.0352635
0.0355042
0.0357947
0.036144
0.0365635
0.0370524
0.0375776
0.0380631
0.0383749
0.0384478
0.0383401
0.0381083
0.0377937
0.0374299
0.0370496
0.0366848
0.0363616
0.0360954
0.0358904
0.0357426
0.035643
0.0355812
0.0355476
0.035534
0.0346211
0.0346288
0.0346478
0.0346829
0.0347399
0.0348253
0.0349451
0.0351044
0.0353065
0.0355536
0.0358497
0.0362045
0.0366305
0.0371286
0.0376648
0.0381605
0.0384762
0.0385446
0.0384271
0.038184
0.0378599
0.0374889
0.037102
0.0367301
0.0363991
0.0361253
0.0359138
0.035761
0.035658
0.0355943
0.0355597
0.0355456
0.0346524
0.0346604
0.0346801
0.0347169
0.0347769
0.0348671
0.0349938
0.035162
0.0353744
0.0356321
0.0359381
0.036302
0.0367386
0.0372511
0.0378057
0.0383187
0.038641
0.0387002
0.0385628
0.0382967
0.0379529
0.0375673
0.0371692
0.0367873
0.0364468
0.036164
0.0359449
0.0357864
0.0356796
0.0356137
0.035578
0.0355636
0.0347
0.0347082
0.034729
0.034768
0.0348321
0.0349289
0.0350655
0.0352469
0.035475
0.0357492
0.0360708
0.0364493
0.0369021
0.0374365
0.0380185
0.0385571
0.0388881
0.0389309
0.0387595
0.0384533
0.0380745
0.0376629
0.0372467
0.0368514
0.0364998
0.0362079
0.0359816
0.0358179
0.0357079
0.0356403
0.0356038
0.0355892
0.0347692
0.0347778
0.0347997
0.0348415
0.034911
0.0350169
0.035167
0.0353669
0.0356174
0.035916
0.0362614
0.0366625
0.03714
0.0377055
0.0383249
0.0388965
0.0392359
0.0392525
0.0390293
0.0386615
0.0382269
0.0377737
0.0373296
0.0369161
0.0365527
0.0362528
0.0360214
0.0358548
0.0357435
0.0356756
0.0356393
0.035625
0.034867
0.034876
0.0348995
0.0349448
0.0350213
0.0351388
0.035307
0.0355316
0.0358129
0.0361457
0.036526
0.0369615
0.0374755
0.0380834
0.0387488
0.0393563
0.0397
0.0396788
0.0393849
0.0389317
0.038417
0.0379018
0.0374167
0.0369789
0.0366026
0.0362972
0.0360645
0.035899
0.03579
0.0357244
0.03569
0.0356767
0.0350023
0.0350118
0.0350372
0.035087
0.0351721
0.0353047
0.0354958
0.0357526
0.0360746
0.0364539
0.0368834
0.0373691
0.0379348
0.0385965
0.0393123
0.0399518
0.040292
0.0402241
0.0398459
0.0392869
0.0386668
0.0380653
0.0375216
0.0370502
0.0366588
0.0363501
0.036121
0.0359621
0.0358601
0.0358009
0.035771
0.03576
0.0351855
0.0351957
0.0352234
0.0352789
0.0353749
0.0355261
0.0357462
0.0360436
0.0364175
0.0368577
0.0373536
0.0379083
0.0385425
0.0392669
0.04003
0.0406914
0.041023
0.0409134
0.0404561
0.039786
0.0390414
0.038326
0.0376987
0.0371774
0.0367632
0.0364503
0.0362279
0.0360807
0.0359916
0.0359436
0.0359218
0.035915
0.0354274
0.0354385
0.0354694
0.0355319
0.0356416
0.0358159
0.0360714
0.0364186
0.0368567
0.0373732
0.0379538
0.0385961
0.0393123
0.0401012
0.0409014
0.0415749
0.0419095
0.0417954
0.0413042
0.0405578
0.0396961
0.0388472
0.0381019
0.0374982
0.0370379
0.0367077
0.0364871
0.0363523
0.0362796
0.0362473
0.0362373
0.0362367
0.0357364
0.0357487
0.0357834
0.0358548
0.0359811
0.0361833
0.0364812
0.0368874
0.0374011
0.0380078
0.0386877
0.0394291
0.0402307
0.0410764
0.0419013
0.0425901
0.0429701
0.0429371
0.0425201
0.0418036
0.0409044
0.0399558
0.0390758
0.0383411
0.0377815
0.0373906
0.0371424
0.0370033
0.0369391
0.0369197
0.0369212
0.036927
0.0361134
0.036127
0.0361663
0.0362478
0.0363932
0.0366271
0.0369725
0.0374437
0.0380397
0.0387425
0.0395243
0.0403611
0.0412352
0.0421202
0.0429617
0.0436866
0.0441791
0.044347
0.0441688
0.0436746
0.0429302
0.0420378
0.0411131
0.0402596
0.0395512
0.0390227
0.0386698
0.0384645
0.0383659
0.0383324
0.0383306
0.0383368
0.0365462
0.0365612
0.0366048
0.0366963
0.0368605
0.0371252
0.0375163
0.0380494
0.0387221
0.0395112
0.0403795
0.0412883
0.042206
0.043103
0.0439459
0.044711
0.0453472
0.0457903
0.0459905
0.0459268
0.0455992
0.0450454
0.0443342
0.0435528
0.0427913
0.0421276
0.0416092
0.0412508
0.0410348
0.040925
0.040882
0.0408725
0.037007
0.0370229
0.0370694
0.0371675
0.0373439
0.0376291
0.0380508
0.0386256
0.0393496
0.0401944
0.0411125
0.0420511
0.0429659
0.0438252
0.044613
0.045343
0.0460274
0.0466659
0.0472215
0.047642
0.0478734
0.0478867
0.0476841
0.0472977
0.0467842
0.0462179
0.0456773
0.045225
0.0448936
0.0446847
0.0445761
0.0445366
0.0374533
0.0374694
0.0375158
0.0376132
0.0377884
0.0380721
0.0384931
0.0390691
0.0397965
0.0406447
0.0415583
0.0424708
0.0433219
0.0440696
0.0446983
0.0452369
0.0457558
0.0463639
0.0470728
0.0478166
0.0485041
0.0490598
0.0494364
0.0496157
0.0496069
0.0494444
0.0491832
0.0488883
0.0486203
0.0484187
0.0482958
0.0482435
0.0378079
0.0378233
0.0378666
0.0379558
0.0381152
0.038373
0.0387575
0.0392873
0.039962
0.0407535
0.0416051
0.0424412
0.0431853
0.0437771
0.0441875
0.0444411
0.0446525
0.0450438
0.0457018
0.0465681
0.0475235
0.0484487
0.0492532
0.0498828
0.050318
0.0505669
0.0506595
0.0506408
0.0505629
0.0504729
0.0504035
0.0503689
0.0380285
0.038043
0.0380822
0.038161
0.0382995
0.0385223
0.0388549
0.0393165
0.0399103
0.0406142
0.0413767
0.0421225
0.042768
0.0432402
0.0434961
0.0435493
0.0435277
0.0437045
0.0442309
0.045097
0.0461959
0.0473811
0.0485115
0.0494808
0.0502334
0.0507592
0.0510814
0.0512431
0.051296
0.0512903
0.0512662
0.0512489
0.0381421
0.0381557
0.0381912
0.0382605
0.0383798
0.0385695
0.0388517
0.0392447
0.0397544
0.0403651
0.041034
0.0416933
0.0422619
0.0426643
0.042851
0.0428272
0.0427189
0.0427944
0.0432146
0.0440106
0.0451241
0.0464336
0.0477856
0.0490295
0.05006
0.05083
0.0513439
0.0516419
0.0517818
0.0518246
0.0518226
0.051812
0.0381902
0.0382026
0.0382342
0.0382947
0.0383971
0.0385582
0.0387962
0.0391275
0.0395588
0.0400797
0.0406566
0.0412328
0.0417376
0.0421017
0.0422776
0.0422686
0.0421923
0.042281
0.0426703
0.0434052
0.0444674
0.0457807
0.0472187
0.0486241
0.0498591
0.0508366
0.05153
0.0519628
0.0521902
0.05228
0.052297
0.0522908
0.0382158
0.0382257
0.0382513
0.038301
0.038386
0.0385204
0.0387194
0.0389965
0.039358
0.0397969
0.040288
0.0407873
0.0412387
0.0415864
0.041793
0.0418663
0.0419077
0.042092
0.0425174
0.0432293
0.0442324
0.0454879
0.046908
0.0483625
0.0497097
0.0508343
0.0516762
0.0522332
0.0525476
0.0526871
0.0527247
0.0527231
0.038275
0.0382796
0.038294
0.0383263
0.0383877
0.0384916
0.0386517
0.0388793
0.0391798
0.0395483
0.039967
0.0404052
0.0408234
0.0411826
0.0414589
0.0416668
0.0418807
0.0422048
0.0426998
0.0434096
0.0443558
0.0455271
0.0468672
0.0482806
0.0496484
0.0508506
0.0517999
0.0524631
0.052861
0.0530522
0.053113
0.0531166
0.038439
0.0384342
0.0384292
0.0384332
0.0384595
0.0385235
0.0386401
0.0388208
0.0390708
0.0393877
0.0397605
0.0401698
0.0405908
0.0409993
0.0413824
0.0417574
0.0421624
0.0426316
0.0431961
0.0439007
0.0447795
0.0458445
0.0470685
0.0483842
0.0496991
0.0509091
0.0519172
0.052662
0.0531352
0.0533788
0.0534651
0.0534751
0.0387848
0.0387655
0.038732
0.0386963
0.0386761
0.038692
0.0387635
0.0389049
0.0391237
0.0394198
0.0397867
0.0402118
0.0406789
0.0411715
0.0416816
0.0422233
0.0427973
0.0433814
0.0439893
0.0446694
0.0454644
0.0464027
0.0474816
0.0486613
0.049873
0.0510316
0.0520468
0.0528408
0.053376
0.0536697
0.0537836
0.0538013
0.0393797
0.0393411
0.039273
0.0391933
0.039127
0.039101
0.0391407
0.0392657
0.0394855
0.0398005
0.0402038
0.0406833
0.0412239
0.0418106
0.0424346
0.0431044
0.043791
0.0444368
0.0450486
0.045679
0.0463749
0.0471733
0.0480882
0.0491036
0.0501747
0.0512364
0.0522098
0.0530144
0.0535909
0.0539286
0.0540707
0.0540974
0.0402706
0.04021
0.0401092
0.0399982
0.0399096
0.0398739
0.0399182
0.0400648
0.0403226
0.0406881
0.0411503
0.0416936
0.0423002
0.0429542
0.0436448
0.0443755
0.045101
0.0457488
0.0463247
0.0468827
0.0474697
0.0481242
0.0488691
0.049705
0.0506089
0.0515369
0.0524259
0.0532003
0.05379
0.0541595
0.0543281
0.0543651
0.0414841
0.0414022
0.0412854
0.0411798
0.0411198
0.0411291
0.0412269
0.0414322
0.0417484
0.0421674
0.0426749
0.0432531
0.0438831
0.0445489
0.0452392
0.0459553
0.0466477
0.0472447
0.0477528
0.048223
0.0486984
0.0492141
0.049795
0.0504509
0.0511749
0.0519429
0.0527112
0.0534159
0.0539857
0.0543681
0.0545576
0.0546056
0.0430363
0.0429415
0.0428456
0.0428037
0.0428346
0.0429402
0.0431248
0.0433983
0.043759
0.0441993
0.0447064
0.0452646
0.0458574
0.0464709
0.0470955
0.0477315
0.0483343
0.048842
0.0492617
0.0496371
0.0500044
0.0503928
0.0508246
0.0513128
0.0518596
0.0524556
0.0530764
0.0536763
0.0541915
0.0545619
0.0547618
0.0548196
0.044952
0.0448665
0.0448473
0.0449262
0.0450833
0.0452956
0.0455548
0.0458646
0.0462242
0.046632
0.0470812
0.047561
0.0480597
0.0485673
0.0490765
0.0495876
0.0500651
0.0504613
0.0507827
0.0510631
0.0513304
0.0516065
0.0519091
0.05225
0.0526349
0.0530629
0.0535241
0.0539922
0.0544198
0.0547499
0.0549439
0.0550079
0.0472841
0.0472516
0.0473601
0.047565
0.047813
0.0480771
0.0483495
0.0486342
0.0489355
0.0492578
0.0496003
0.049958
0.0503243
0.0506927
0.0510585
0.0514219
0.0517582
0.0520349
0.0522565
0.0524467
0.0526244
0.0528043
0.0529987
0.0532163
0.0534624
0.0537393
0.054045
0.0543682
0.0546815
0.0549418
0.055109
0.0551717
0.0501317
0.0502004
0.0504028
0.0506321
0.0508601
0.051077
0.0512811
0.0514778
0.0516736
0.0518745
0.0520827
0.052297
0.0525144
0.0527315
0.0529458
0.0531574
0.0533521
0.0535115
0.0536383
0.053746
0.0538452
0.0539442
0.0540498
0.0541672
0.0542997
0.0544493
0.0546165
0.0547981
0.0549828
0.0551474
0.0552636
0.0553132
0.053614
0.0536678
0.0537716
0.0538715
0.0539635
0.0540471
0.0541225
0.0541922
0.0542592
0.0543264
0.0543951
0.0544653
0.0545361
0.0546067
0.054676
0.0547443
0.054807
0.0548582
0.0548989
0.0549332
0.0549645
0.0549956
0.0550285
0.0550648
0.0551057
0.0551518
0.0552034
0.0552601
0.055319
0.055374
0.055416
0.0554363
)
;

boundaryField
{
    movingWall
    {
        type            fixedValue;
        value           uniform 0.0555;
    }
    fixedWalls
    {
        type            zeroGradient;
    }
    floor
    {
        type            zeroGradient;
    }
    frontAndBack
    {
        type            empty;
    }
}


// ************************************************************************* //
