/*--------------------------------*- C++ -*----------------------------------*\
| =========                 |                                                 |
| \\      /  F ield         | OpenFOAM: The Open Source CFD Toolbox           |
|  \\    /   O peration     | Version:  2212                                  |
|   \\  /    A nd           | Website:  www.openfoam.com                      |
|    \\/     M anipulation  |                                                 |
\*---------------------------------------------------------------------------*/
FoamFile
{
    version     2.0;
    format      ascii;
    arch        "LSB;label=64;scalar=64";
    class       volScalarField;
    location    "1630";
    object      SIC;
}
// * * * * * * * * * * * * * * * * * * * * * * * * * * * * * * * * * * * * * //

dimensions      [1 -3 0 0 0 0 0];

internalField   nonuniform List<scalar> 
1024
(
0.0911624
0.0911637
0.091167
0.0911731
0.0911831
0.091198
0.091219
0.091247
0.091283
0.0913275
0.0913814
0.0914464
0.0915243
0.091615
0.0917124
0.0918026
0.0918609
0.091875
0.0918556
0.0918129
0.0917544
0.0916867
0.091616
0.0915486
0.0914893
0.0914407
0.0914034
0.0913766
0.0913585
0.0913472
0.0913411
0.0913386
0.0911631
0.0911644
0.0911678
0.091174
0.0911841
0.0911992
0.0912204
0.0912487
0.0912849
0.0913296
0.0913838
0.091449
0.0915273
0.0916184
0.0917162
0.0918067
0.091865
0.0918791
0.0918595
0.0918166
0.0917581
0.0916901
0.0916192
0.0915514
0.0914915
0.0914424
0.0914047
0.0913775
0.0913592
0.0913479
0.0913417
0.0913391
0.091165
0.0911664
0.0911699
0.0911762
0.0911866
0.091202
0.0912237
0.0912526
0.0912895
0.0913348
0.0913895
0.0914553
0.0915342
0.0916263
0.0917252
0.0918166
0.0918753
0.0918891
0.0918688
0.0918251
0.0917659
0.0916974
0.0916258
0.0915571
0.0914962
0.0914461
0.0914075
0.0913797
0.0913609
0.0913493
0.0913429
0.0913404
0.0911686
0.0911701
0.0911736
0.0911802
0.0911909
0.091207
0.0912295
0.0912595
0.0912976
0.0913441
0.0913999
0.0914667
0.0915469
0.0916407
0.0917416
0.091835
0.0918944
0.0919073
0.0918852
0.0918394
0.0917784
0.0917085
0.0916356
0.0915656
0.0915033
0.0914517
0.0914119
0.0913831
0.0913637
0.0913517
0.0913452
0.0913426
0.0911745
0.091176
0.0911797
0.0911866
0.0911979
0.0912149
0.0912387
0.0912704
0.0913104
0.0913589
0.0914165
0.091485
0.0915672
0.0916637
0.0917682
0.0918647
0.0919254
0.0919366
0.0919107
0.0918606
0.0917959
0.0917233
0.0916483
0.0915764
0.0915123
0.091459
0.0914178
0.0913879
0.0913678
0.0913554
0.0913487
0.091346
0.0911834
0.091185
0.0911889
0.0911962
0.0912083
0.0912265
0.0912522
0.0912864
0.0913293
0.0913809
0.0914415
0.0915127
0.091598
0.0916986
0.0918082
0.0919096
0.091972
0.09198
0.0919477
0.0918901
0.0918188
0.0917413
0.0916629
0.0915884
0.0915223
0.0914673
0.0914247
0.0913938
0.0913731
0.0913604
0.0913535
0.0913508
0.0911964
0.091198
0.0912022
0.09121
0.0912231
0.0912431
0.0912713
0.0913089
0.0913561
0.0914123
0.0914774
0.0915529
0.0916428
0.0917493
0.0918659
0.0919735
0.0920375
0.0920406
0.0919986
0.0919293
0.0918475
0.0917621
0.0916785
0.0916006
0.0915322
0.0914757
0.0914322
0.0914008
0.0913798
0.091367
0.0913602
0.0913575
0.0912148
0.0912165
0.091221
0.0912295
0.0912439
0.091266
0.0912977
0.09134
0.0913929
0.0914556
0.0915272
0.0916092
0.091706
0.0918204
0.0919457
0.0920601
0.0921249
0.0921209
0.0920655
0.0919802
0.0918833
0.0917863
0.0916949
0.0916125
0.0915416
0.0914841
0.0914403
0.0914091
0.0913886
0.0913762
0.0913698
0.0913673
0.0912403
0.0912421
0.0912469
0.0912562
0.0912723
0.0912972
0.0913332
0.0913816
0.0914422
0.0915136
0.0915945
0.0916859
0.0917925
0.0919171
0.0920518
0.0921723
0.0922363
0.0922235
0.0921523
0.0920471
0.0919303
0.091817
0.0917147
0.0916259
0.0915522
0.0914941
0.0914509
0.091421
0.0914018
0.0913906
0.091385
0.0913829
0.0912748
0.0912767
0.0912819
0.0912924
0.0913105
0.0913389
0.0913804
0.0914364
0.0915068
0.0915897
0.091683
0.0917875
0.0919069
0.0920433
0.092187
0.0923115
0.092374
0.0923533
0.0922672
0.0921411
0.0920008
0.0918661
0.091748
0.0916498
0.0915718
0.0915129
0.091471
0.0914433
0.0914266
0.0914175
0.0914134
0.0914121
0.0913203
0.0913224
0.0913282
0.09134
0.0913607
0.0913935
0.0914416
0.091507
0.0915895
0.0916867
0.0917961
0.091917
0.0920518
0.0922004
0.0923511
0.0924779
0.0925409
0.0925194
0.0924269
0.0922864
0.0921241
0.0919643
0.0918239
0.0917102
0.0916236
0.0915614
0.0915198
0.0914945
0.0914808
0.0914747
0.0914728
0.0914727
0.0913785
0.0913808
0.0913874
0.0914008
0.0914246
0.0914627
0.0915188
0.0915952
0.091692
0.0918062
0.0919342
0.0920738
0.0922248
0.092384
0.0925394
0.0926691
0.0927406
0.0927344
0.0926559
0.092521
0.0923516
0.092173
0.0920073
0.091869
0.0917636
0.09169
0.0916433
0.0916171
0.091605
0.0916013
0.0916016
0.0916027
0.0914495
0.0914521
0.0914595
0.0914748
0.0915022
0.0915462
0.0916113
0.0917
0.0918122
0.0919446
0.0920918
0.0922493
0.0924139
0.0925806
0.092739
0.0928755
0.0929683
0.0929999
0.0929663
0.0928733
0.0927331
0.0925651
0.0923909
0.0922302
0.0920968
0.0919973
0.0919309
0.0918922
0.0918736
0.0918673
0.091867
0.0918682
0.091531
0.0915338
0.091542
0.0915593
0.0915902
0.09164
0.0917137
0.091814
0.0919407
0.0920893
0.0922528
0.0924239
0.0925967
0.0927656
0.0929244
0.0930684
0.0931882
0.0932717
0.0933094
0.0932974
0.0932357
0.0931314
0.0929975
0.0928503
0.0927069
0.092582
0.0924844
0.0924169
0.0923762
0.0923555
0.0923474
0.0923456
0.0916178
0.0916208
0.0916295
0.091648
0.0916812
0.0917349
0.0918143
0.0919226
0.0920589
0.0922179
0.0923908
0.0925676
0.0927398
0.0929016
0.09305
0.0931874
0.0933163
0.0934365
0.0935412
0.0936203
0.0936639
0.0936664
0.0936283
0.0935555
0.0934588
0.0933522
0.0932504
0.0931652
0.0931028
0.0930635
0.093043
0.0930356
0.0917018
0.0917048
0.0917136
0.0917319
0.0917649
0.0918183
0.0918976
0.0920061
0.092143
0.0923027
0.0924748
0.0926466
0.0928069
0.0929477
0.093066
0.0931675
0.0932652
0.0933797
0.0935132
0.0936532
0.0937827
0.0938873
0.0939582
0.093992
0.0939903
0.0939597
0.0939105
0.093855
0.0938046
0.0937666
0.0937435
0.0937336
0.0917686
0.0917715
0.0917796
0.0917964
0.0918264
0.091875
0.0919474
0.0920471
0.0921742
0.0923232
0.0924836
0.092641
0.0927811
0.0928926
0.0929699
0.0930176
0.0930574
0.0931311
0.093255
0.0934181
0.093598
0.0937722
0.0939237
0.0940423
0.0941242
0.0941711
0.0941885
0.094185
0.0941703
0.0941534
0.0941403
0.0941338
0.0918101
0.0918128
0.0918202
0.0918351
0.0918611
0.0919031
0.0919657
0.0920526
0.0921645
0.092297
0.0924406
0.092581
0.0927026
0.0927915
0.0928397
0.0928497
0.0928456
0.0928789
0.092978
0.0931411
0.093348
0.0935712
0.0937841
0.0939666
0.0941083
0.0942073
0.094268
0.0942984
0.0943084
0.0943073
0.0943028
0.0942995
0.0918315
0.0918341
0.0918408
0.0918538
0.0918763
0.091912
0.0919651
0.0920391
0.0921351
0.0922501
0.0923761
0.0925002
0.0926073
0.092683
0.0927182
0.0927137
0.0926933
0.0927075
0.0927867
0.0929365
0.0931462
0.0933928
0.0936474
0.0938816
0.0940757
0.0942206
0.0943174
0.0943735
0.0943999
0.0944079
0.0944075
0.0944056
0.0918406
0.0918429
0.0918489
0.0918602
0.0918795
0.0919099
0.0919547
0.0920171
0.0920983
0.0921964
0.092305
0.0924135
0.0925085
0.0925771
0.0926102
0.0926085
0.0925942
0.0926109
0.0926842
0.0928226
0.0930226
0.0932699
0.0935406
0.0938053
0.0940378
0.0942219
0.0943524
0.0944339
0.0944768
0.0944937
0.0944969
0.0944957
0.0918454
0.0918472
0.0918521
0.0918614
0.0918774
0.0919027
0.0919402
0.0919924
0.0920605
0.0921431
0.0922356
0.0923296
0.0924146
0.0924801
0.092519
0.0925328
0.0925406
0.0925753
0.0926554
0.0927894
0.0929783
0.0932147
0.0934821
0.093756
0.0940097
0.0942215
0.09438
0.0944849
0.0945441
0.0945703
0.0945774
0.0945771
0.0918565
0.0918574
0.0918601
0.0918662
0.0918778
0.0918973
0.0919275
0.0919703
0.0920269
0.0920963
0.0921751
0.0922577
0.0923364
0.092404
0.0924561
0.0924952
0.0925355
0.0925965
0.0926897
0.0928234
0.0930015
0.0932221
0.0934744
0.0937406
0.0939981
0.0942245
0.0944033
0.0945282
0.0946031
0.0946391
0.0946505
0.0946512
0.0918874
0.0918865
0.0918856
0.0918863
0.0918913
0.0919033
0.0919253
0.0919593
0.0920064
0.0920661
0.0921362
0.0922133
0.0922926
0.0923695
0.0924417
0.0925123
0.0925885
0.0926769
0.0927832
0.0929159
0.0930813
0.0932819
0.0935123
0.0937601
0.0940077
0.0942355
0.0944254
0.0945656
0.0946547
0.0947006
0.0947168
0.0947187
0.0919525
0.0919489
0.0919426
0.0919359
0.0919321
0.0919351
0.0919485
0.0919751
0.0920163
0.0920721
0.0921412
0.0922212
0.0923092
0.0924019
0.092498
0.0926
0.0927081
0.0928181
0.0929325
0.0930606
0.0932103
0.093387
0.0935901
0.0938123
0.0940404
0.0942586
0.0944498
0.0945993
0.0947001
0.0947554
0.0947768
0.0947801
0.0920645
0.0920573
0.0920444
0.0920294
0.0920169
0.0920121
0.0920195
0.0920431
0.0920845
0.0921438
0.0922197
0.09231
0.0924118
0.0925223
0.0926398
0.0927659
0.0928952
0.0930168
0.093132
0.0932507
0.0933817
0.0935321
0.0937044
0.0938955
0.0940973
0.0942972
0.0944805
0.094632
0.0947405
0.0948041
0.0948309
0.0948359
0.0922323
0.0922209
0.0922019
0.092181
0.0921643
0.0921576
0.0921659
0.0921935
0.0922421
0.0923109
0.0923979
0.0925002
0.0926145
0.0927376
0.0928677
0.0930053
0.0931419
0.0932639
0.0933723
0.0934774
0.0935879
0.0937111
0.0938514
0.0940088
0.094179
0.0943537
0.0945212
0.094667
0.094778
0.0948476
0.0948793
0.0948863
0.0924608
0.0924454
0.0924234
0.0924035
0.0923922
0.0923939
0.0924124
0.092451
0.0925106
0.0925895
0.092685
0.0927939
0.0929125
0.0930379
0.0931679
0.0933027
0.0934331
0.0935455
0.0936412
0.0937297
0.0938193
0.0939164
0.0940257
0.0941493
0.0942856
0.0944302
0.0945749
0.0947076
0.0948149
0.0948869
0.0949226
0.0949316
0.0927531
0.0927352
0.0927172
0.0927093
0.0927151
0.092735
0.0927698
0.0928213
0.0928892
0.0929721
0.0930676
0.0931727
0.0932843
0.0933998
0.0935174
0.0936372
0.0937507
0.0938463
0.0939253
0.093996
0.0940652
0.0941383
0.0942196
0.0943116
0.0944145
0.0945267
0.0946436
0.0947566
0.0948536
0.0949234
0.094961
0.0949719
0.0931138
0.0930977
0.0930941
0.0931089
0.0931385
0.0931785
0.0932273
0.0932857
0.0933534
0.0934302
0.0935147
0.0936051
0.093699
0.0937946
0.0938905
0.0939867
0.0940766
0.0941512
0.0942117
0.0942645
0.0943149
0.0943669
0.0944238
0.094488
0.0945605
0.0946411
0.0947279
0.0948161
0.0948966
0.0949588
0.0949953
0.0950073
0.093553
0.0935468
0.0935673
0.0936058
0.0936525
0.0937023
0.0937536
0.0938072
0.0938639
0.0939246
0.0939891
0.0940564
0.0941254
0.0941948
0.0942637
0.0943321
0.0943954
0.0944475
0.0944893
0.0945251
0.0945585
0.0945924
0.094629
0.09467
0.0947163
0.0947685
0.094826
0.0948869
0.0949459
0.0949949
0.0950264
0.0950382
0.0940891
0.0941021
0.0941402
0.0941834
0.0942263
0.0942672
0.0943056
0.0943426
0.0943795
0.0944173
0.0944565
0.0944969
0.0945378
0.0945787
0.094619
0.0946589
0.0946956
0.0947256
0.0947495
0.0947697
0.0947884
0.094807
0.0948269
0.094849
0.094874
0.0949021
0.0949336
0.0949678
0.0950026
0.0950336
0.0950555
0.0950648
0.0947449
0.094755
0.0947746
0.0947934
0.0948107
0.0948264
0.0948406
0.0948537
0.0948664
0.094879
0.094892
0.0949052
0.0949185
0.0949318
0.0949448
0.0949577
0.0949695
0.0949792
0.0949868
0.0949933
0.0949992
0.095005
0.0950112
0.0950181
0.0950258
0.0950344
0.0950442
0.0950548
0.0950659
0.0950763
0.0950842
0.095088
)
;

boundaryField
{
    movingWall
    {
        type            fixedValue;
        value           uniform 0.0951;
    }
    fixedWalls
    {
        type            zeroGradient;
    }
    floor
    {
        type            zeroGradient;
    }
    frontAndBack
    {
        type            empty;
    }
}


// ************************************************************************* //
