/*--------------------------------*- C++ -*----------------------------------*\
| =========                 |                                                 |
| \\      /  F ield         | OpenFOAM: The Open Source CFD Toolbox           |
|  \\    /   O peration     | Version:  2212                                  |
|   \\  /    A nd           | Website:  www.openfoam.com                      |
|    \\/     M anipulation  |                                                 |
\*---------------------------------------------------------------------------*/
FoamFile
{
    version     2.0;
    format      ascii;
    arch        "LSB;label=64;scalar=64";
    class       volScalarField;
    location    "1630";
    object      Xch;
}
// * * * * * * * * * * * * * * * * * * * * * * * * * * * * * * * * * * * * * //

dimensions      [1 -3 0 0 0 0 0];

internalField   nonuniform List<scalar> 
1024
(
0.0198997
0.0198999
0.0199005
0.0199016
0.0199033
0.019906
0.0199097
0.0199147
0.019921
0.0199289
0.0199383
0.0199496
0.0199631
0.0199786
0.0199951
0.02001
0.0200194
0.0200213
0.0200175
0.0200099
0.0199997
0.0199879
0.0199755
0.0199637
0.0199532
0.0199447
0.0199381
0.0199333
0.0199301
0.0199281
0.019927
0.0199266
0.0198998
0.0199
0.0199006
0.0199017
0.0199035
0.0199062
0.0199099
0.019915
0.0199214
0.0199292
0.0199387
0.0199501
0.0199636
0.0199792
0.0199957
0.0200107
0.0200201
0.0200219
0.0200182
0.0200106
0.0200003
0.0199885
0.019976
0.0199641
0.0199536
0.019945
0.0199383
0.0199335
0.0199302
0.0199282
0.0199271
0.0199267
0.0199001
0.0199004
0.019901
0.0199021
0.0199039
0.0199067
0.0199105
0.0199157
0.0199222
0.0199301
0.0199397
0.0199512
0.0199648
0.0199805
0.0199972
0.0200124
0.0200218
0.0200235
0.0200197
0.0200119
0.0200016
0.0199897
0.0199772
0.0199651
0.0199544
0.0199456
0.0199388
0.0199338
0.0199305
0.0199285
0.0199273
0.0199269
0.0199008
0.019901
0.0199017
0.0199028
0.0199047
0.0199076
0.0199116
0.0199169
0.0199236
0.0199318
0.0199415
0.0199531
0.019967
0.019983
0.02
0.0200154
0.0200249
0.0200265
0.0200223
0.0200142
0.0200036
0.0199915
0.0199788
0.0199665
0.0199556
0.0199465
0.0199395
0.0199344
0.019931
0.0199289
0.0199277
0.0199273
0.0199018
0.0199021
0.0199027
0.019904
0.019906
0.019909
0.0199132
0.0199188
0.0199258
0.0199344
0.0199444
0.0199563
0.0199704
0.0199869
0.0200044
0.0200203
0.02003
0.0200312
0.0200264
0.0200176
0.0200064
0.0199939
0.0199809
0.0199683
0.0199571
0.0199478
0.0199405
0.0199352
0.0199317
0.0199295
0.0199283
0.0199278
0.0199034
0.0199037
0.0199044
0.0199057
0.0199078
0.019911
0.0199156
0.0199216
0.0199292
0.0199382
0.0199488
0.0199611
0.0199757
0.0199928
0.0200111
0.0200278
0.0200376
0.0200383
0.0200323
0.0200223
0.0200101
0.0199967
0.0199832
0.0199703
0.0199587
0.0199491
0.0199416
0.0199362
0.0199326
0.0199303
0.0199291
0.0199286
0.0199057
0.019906
0.0199067
0.0199081
0.0199104
0.019914
0.0199189
0.0199256
0.0199338
0.0199437
0.019955
0.019968
0.0199834
0.0200013
0.0200208
0.0200383
0.0200482
0.020048
0.0200404
0.0200285
0.0200145
0.02
0.0199856
0.0199722
0.0199603
0.0199505
0.0199428
0.0199373
0.0199336
0.0199314
0.0199302
0.0199297
0.019909
0.0199093
0.0199101
0.0199116
0.0199141
0.019918
0.0199236
0.019931
0.0199403
0.0199512
0.0199636
0.0199777
0.0199941
0.0200133
0.0200341
0.0200526
0.0200624
0.0200609
0.020051
0.0200364
0.02002
0.0200036
0.0199881
0.0199739
0.0199617
0.0199517
0.0199441
0.0199386
0.019935
0.0199328
0.0199317
0.0199313
0.0199136
0.0199139
0.0199147
0.0199164
0.0199192
0.0199236
0.0199299
0.0199383
0.0199489
0.0199613
0.0199752
0.0199908
0.0200088
0.0200296
0.0200517
0.020071
0.0200805
0.0200773
0.0200647
0.0200468
0.0200272
0.0200082
0.0199909
0.0199758
0.0199632
0.0199532
0.0199457
0.0199405
0.0199371
0.0199351
0.0199341
0.0199338
0.0199197
0.01992
0.019921
0.0199228
0.0199259
0.0199309
0.0199382
0.0199479
0.0199602
0.0199745
0.0199905
0.0200082
0.0200282
0.0200508
0.0200741
0.0200938
0.0201028
0.0200981
0.0200829
0.0200615
0.0200381
0.0200156
0.0199958
0.0199793
0.019966
0.019956
0.0199488
0.019944
0.019941
0.0199394
0.0199387
0.0199385
0.0199278
0.0199282
0.0199292
0.0199312
0.0199348
0.0199406
0.0199489
0.0199603
0.0199745
0.0199912
0.0200099
0.0200302
0.0200527
0.020077
0.0201013
0.020121
0.0201298
0.0201248
0.0201085
0.0200846
0.0200575
0.020031
0.0200076
0.0199887
0.0199741
0.0199636
0.0199565
0.0199522
0.0199498
0.0199487
0.0199484
0.0199483
0.0199382
0.0199386
0.0199397
0.019942
0.0199462
0.0199528
0.0199625
0.0199757
0.0199923
0.0200118
0.0200335
0.0200569
0.0200818
0.0201076
0.0201324
0.0201523
0.0201622
0.0201595
0.0201454
0.0201224
0.0200941
0.0200645
0.0200371
0.0200142
0.0199967
0.0199844
0.0199766
0.0199721
0.0199701
0.0199694
0.0199694
0.0199696
0.0199508
0.0199512
0.0199525
0.0199551
0.0199599
0.0199675
0.0199787
0.0199939
0.0200131
0.0200356
0.0200604
0.0200866
0.0201136
0.0201404
0.0201654
0.0201862
0.0201995
0.0202028
0.0201958
0.0201795
0.0201559
0.020128
0.0200993
0.0200729
0.0200509
0.0200346
0.0200236
0.0200172
0.0200141
0.0200131
0.020013
0.0200132
0.0199652
0.0199657
0.0199671
0.0199701
0.0199754
0.0199839
0.0199966
0.0200138
0.0200354
0.0200605
0.0200879
0.0201162
0.0201444
0.0201715
0.0201964
0.0202184
0.020236
0.0202475
0.0202518
0.0202484
0.0202373
0.0202197
0.0201975
0.0201734
0.0201501
0.0201297
0.0201139
0.0201029
0.0200963
0.020093
0.0200917
0.0200914
0.0199807
0.0199812
0.0199827
0.0199858
0.0199915
0.0200007
0.0200143
0.0200327
0.0200559
0.0200828
0.0201117
0.020141
0.0201691
0.020195
0.0202183
0.0202393
0.0202583
0.0202755
0.0202901
0.0203008
0.0203062
0.0203054
0.0202985
0.0202865
0.0202708
0.0202537
0.0202374
0.0202238
0.0202139
0.0202076
0.0202044
0.0202032
0.0199957
0.0199962
0.0199977
0.0200008
0.0200064
0.0200155
0.0200291
0.0200476
0.0200709
0.0200979
0.0201268
0.0201554
0.0201817
0.0202045
0.0202232
0.0202386
0.0202527
0.0202688
0.0202875
0.0203071
0.0203253
0.0203399
0.0203497
0.0203542
0.0203535
0.0203486
0.0203409
0.0203324
0.0203246
0.0203188
0.0203152
0.0203137
0.0200079
0.0200083
0.0200097
0.0200125
0.0200176
0.0200259
0.0200383
0.0200553
0.020077
0.0201024
0.0201296
0.0201561
0.0201795
0.0201979
0.0202104
0.0202177
0.020223
0.0202328
0.0202498
0.0202724
0.0202976
0.020322
0.0203433
0.02036
0.0203717
0.0203784
0.0203811
0.0203807
0.0203787
0.0203763
0.0203745
0.0203736
0.0200157
0.0200162
0.0200174
0.0200199
0.0200243
0.0200314
0.0200421
0.0200571
0.0200762
0.020099
0.0201235
0.0201475
0.0201682
0.0201834
0.0201917
0.0201934
0.0201923
0.0201961
0.0202095
0.0202322
0.0202612
0.0202925
0.0203224
0.020348
0.0203679
0.0203819
0.0203905
0.020395
0.0203967
0.0203967
0.0203962
0.0203959
0.0200201
0.0200205
0.0200216
0.0200238
0.0200275
0.0200336
0.0200427
0.0200554
0.020072
0.0200918
0.0201136
0.0201351
0.0201537
0.020167
0.0201735
0.0201732
0.0201698
0.020171
0.0201816
0.0202024
0.0202319
0.0202666
0.0203024
0.0203353
0.0203625
0.0203828
0.0203964
0.0204044
0.0204083
0.0204096
0.0204097
0.0204095
0.0200222
0.0200226
0.0200236
0.0200255
0.0200287
0.0200339
0.0200415
0.0200523
0.0200664
0.0200834
0.0201023
0.0201213
0.020138
0.0201503
0.0201566
0.020157
0.0201546
0.0201563
0.0201661
0.0201855
0.0202137
0.0202486
0.0202868
0.020324
0.0203566
0.0203823
0.0204005
0.020412
0.0204181
0.0204206
0.0204212
0.0204211
0.0200235
0.0200238
0.0200246
0.0200262
0.0200289
0.0200332
0.0200396
0.0200486
0.0200604
0.0200749
0.0200911
0.0201076
0.0201227
0.0201345
0.0201417
0.0201445
0.0201456
0.0201501
0.0201611
0.02018
0.0202067
0.0202402
0.020278
0.0203166
0.0203521
0.0203817
0.0204038
0.0204185
0.0204268
0.0204306
0.0204317
0.0204317
0.0200255
0.0200257
0.0200262
0.0200272
0.0200292
0.0200326
0.0200378
0.0200452
0.0200551
0.0200673
0.0200811
0.0200956
0.0201096
0.0201215
0.0201307
0.0201373
0.0201433
0.0201519
0.0201651
0.020184
0.0202094
0.0202407
0.0202765
0.020314
0.0203501
0.0203817
0.0204066
0.020424
0.0204344
0.0204395
0.0204412
0.0204414
0.0200304
0.0200303
0.0200302
0.0200304
0.0200314
0.0200336
0.0200375
0.0200435
0.0200517
0.0200621
0.0200743
0.0200877
0.0201014
0.0201146
0.0201266
0.0201379
0.0201494
0.0201622
0.0201774
0.0201964
0.0202201
0.0202487
0.0202814
0.0203163
0.0203511
0.0203829
0.0204093
0.0204288
0.0204411
0.0204476
0.0204499
0.0204502
0.0200402
0.0200397
0.0200388
0.0200379
0.0200376
0.0200384
0.0200409
0.0200457
0.0200528
0.0200624
0.0200741
0.0200876
0.0201022
0.0201175
0.0201329
0.0201488
0.0201651
0.0201812
0.0201978
0.0202163
0.0202378
0.020263
0.0202919
0.0203233
0.0203553
0.0203858
0.0204124
0.0204331
0.0204471
0.0204547
0.0204578
0.0204583
0.0200568
0.0200558
0.0200539
0.0200519
0.0200502
0.0200498
0.0200514
0.0200555
0.0200625
0.0200723
0.0200847
0.0200994
0.0201158
0.0201334
0.0201518
0.0201712
0.0201906
0.0202086
0.0202254
0.0202426
0.0202615
0.020283
0.0203076
0.0203346
0.020363
0.0203909
0.0204164
0.0204374
0.0204523
0.0204611
0.0204649
0.0204656
0.0200816
0.0200799
0.0200772
0.0200742
0.020072
0.0200712
0.0200729
0.0200775
0.0200853
0.0200963
0.0201101
0.0201262
0.0201441
0.0201633
0.0201834
0.0202044
0.0202249
0.020243
0.0202589
0.0202741
0.0202901
0.0203078
0.0203278
0.0203501
0.0203741
0.0203985
0.0204218
0.020442
0.0204573
0.0204668
0.0204712
0.0204722
0.0201152
0.020113
0.0201098
0.0201069
0.0201054
0.0201059
0.0201089
0.020115
0.0201243
0.0201366
0.0201513
0.0201682
0.0201865
0.0202057
0.0202256
0.0202461
0.0202656
0.0202823
0.0202964
0.0203093
0.0203223
0.0203363
0.0203519
0.0203694
0.0203886
0.0204089
0.020429
0.0204473
0.0204621
0.020472
0.0204769
0.0204782
0.0201581
0.0201555
0.0201528
0.0201518
0.0201527
0.0201558
0.0201611
0.020169
0.0201794
0.020192
0.0202066
0.0202226
0.0202396
0.0202572
0.0202751
0.0202932
0.0203103
0.0203245
0.0203361
0.0203465
0.0203565
0.0203671
0.0203787
0.0203918
0.0204063
0.020422
0.0204383
0.0204539
0.0204672
0.0204768
0.0204819
0.0204835
0.0202108
0.0202085
0.020208
0.0202102
0.0202146
0.0202206
0.0202279
0.0202366
0.0202468
0.0202584
0.0202712
0.0202849
0.0202991
0.0203136
0.0203281
0.0203426
0.0203561
0.0203672
0.0203762
0.0203839
0.0203913
0.0203988
0.0204069
0.0204161
0.0204263
0.0204376
0.0204497
0.0204619
0.020473
0.0204815
0.0204864
0.0204881
0.0202749
0.020274
0.020277
0.0202827
0.0202895
0.0202969
0.0203045
0.0203125
0.0203209
0.02033
0.0203397
0.0203499
0.0203603
0.0203708
0.0203812
0.0203915
0.020401
0.0204088
0.020415
0.0204202
0.0204251
0.02043
0.0204353
0.0204411
0.0204476
0.020455
0.020463
0.0204714
0.0204795
0.0204862
0.0204905
0.0204921
0.020353
0.0203549
0.0203605
0.0203668
0.0203731
0.0203791
0.0203847
0.0203902
0.0203957
0.0204013
0.0204072
0.0204133
0.0204195
0.0204256
0.0204317
0.0204377
0.0204432
0.0204477
0.0204513
0.0204542
0.020457
0.0204597
0.0204625
0.0204657
0.0204692
0.0204732
0.0204776
0.0204823
0.0204871
0.0204913
0.0204943
0.0204955
0.0204484
0.0204499
0.0204527
0.0204555
0.020458
0.0204603
0.0204624
0.0204643
0.0204662
0.0204681
0.02047
0.020472
0.020474
0.020476
0.020478
0.0204799
0.0204817
0.0204832
0.0204843
0.0204852
0.0204861
0.020487
0.0204878
0.0204888
0.0204899
0.0204911
0.0204925
0.020494
0.0204955
0.0204969
0.020498
0.0204985
)
;

boundaryField
{
    movingWall
    {
        type            fixedValue;
        value           uniform 0.0205;
    }
    fixedWalls
    {
        type            zeroGradient;
    }
    floor
    {
        type            zeroGradient;
    }
    frontAndBack
    {
        type            empty;
    }
}


// ************************************************************************* //
