/*--------------------------------*- C++ -*----------------------------------*\
| =========                 |                                                 |
| \\      /  F ield         | OpenFOAM: The Open Source CFD Toolbox           |
|  \\    /   O peration     | Version:  2212                                  |
|   \\  /    A nd           | Website:  www.openfoam.com                      |
|    \\/     M anipulation  |                                                 |
\*---------------------------------------------------------------------------*/
FoamFile
{
    version     2.0;
    format      ascii;
    arch        "LSB;label=64;scalar=64";
    class       volScalarField::Internal;
    location    "860";
    object      dGch4;
}
// * * * * * * * * * * * * * * * * * * * * * * * * * * * * * * * * * * * * * //

dimensions      [1 -3 -1 0 0 0 0];

value           nonuniform List<scalar> 
1024
(
0.000968338
0.000968835
0.000970042
0.000972178
0.000975407
0.000979752
0.000985046
0.00099094
0.000997003
0.00100281
0.00100797
0.00101206
0.00101485
0.00101609
0.00101548
0.00101261
0.0010074
0.00100081
0.000993727
0.00098633
0.00097859
0.000970453
0.000962016
0.000953622
0.000945781
0.000938963
0.000933451
0.000929314
0.00092644
0.00092462
0.000923615
0.000923203
0.000968405
0.000968917
0.00097016
0.000972357
0.000975667
0.000980099
0.000985465
0.00099141
0.000997508
0.00100335
0.00100855
0.00101264
0.00101542
0.00101663
0.00101599
0.00101308
0.00100786
0.00100126
0.000994184
0.000986804
0.000979091
0.000970981
0.000962556
0.000954144
0.000946251
0.000939356
0.000933762
0.000929551
0.000926622
0.000924767
0.000923743
0.000923326
0.000968555
0.000969091
0.000970392
0.000972689
0.000976132
0.000980712
0.000986216
0.000992286
0.000998523
0.00100454
0.00100992
0.0010141
0.00101684
0.00101796
0.00101718
0.00101415
0.00100882
0.00100217
0.000995103
0.000987762
0.000980116
0.00097208
0.0009637
0.000955269
0.000947281
0.000940232
0.000934464
0.000930096
0.000927047
0.000925114
0.00092405
0.000923616
0.00096878
0.00096934
0.000970704
0.000973109
0.000976705
0.000981465
0.000987172
0.000993483
0.00100004
0.00100649
0.0010123
0.00101673
0.00101946
0.00102037
0.00101927
0.00101589
0.0010103
0.00100351
0.000996415
0.000989127
0.000981594
0.000973696
0.000965422
0.000957003
0.000948902
0.000941639
0.000935613
0.000931001
0.000927763
0.000925707
0.000924576
0.000924117
0.000969048
0.000969626
0.000971036
0.000973529
0.00097726
0.000982214
0.00098819
0.000994895
0.00100203
0.00100924
0.00101585
0.00102077
0.00102354
0.0010241
0.00102242
0.00101839
0.00101225
0.00100516
0.000997958
0.000990716
0.000983336
0.000975648
0.000967565
0.000959225
0.000951039
0.000943541
0.000937199
0.000932276
0.000928789
0.000926567
0.000925347
0.000924853
0.000969311
0.000969894
0.000971321
0.000973857
0.000977682
0.00098282
0.00098913
0.000996394
0.00100438
0.00101272
0.00102051
0.00102623
0.00102916
0.00102926
0.00102669
0.00102159
0.00101453
0.00100688
0.000999456
0.000992226
0.000985024
0.000977615
0.000969816
0.000961656
0.000953464
0.000945769
0.000939112
0.000933851
0.000930082
0.000927669
0.000926345
0.000925813
0.000969516
0.00097009
0.000971499
0.000974022
0.000977881
0.000983173
0.000989857
0.000997823
0.00100692
0.00101673
0.00102604
0.00103287
0.0010361
0.00103562
0.00103184
0.00102523
0.0010168
0.0010083
0.0010005
0.000993232
0.000986225
0.000979152
0.000971732
0.000963869
0.000955793
0.000948007
0.000941107
0.000935551
0.000931521
0.000928925
0.000927502
0.000926934
0.000969624
0.000970176
0.000971534
0.000973987
0.000977813
0.000983208
0.000990271
0.00099903
0.00100942
0.00102096
0.00103206
0.00104021
0.00104378
0.00104258
0.00103725
0.00102865
0.00101841
0.00100878
0.00100049
0.00099317
0.000986397
0.000979734
0.000972787
0.000965345
0.000957535
0.00094982
0.000942829
0.000937102
0.000932899
0.000930177
0.000928684
0.000928089
0.000969636
0.000970155
0.000971435
0.000973774
0.000977504
0.000982943
0.000990364
0.000999978
0.00101183
0.0010253
0.00103832
0.00104776
0.00105148
0.00104922
0.00104191
0.00103085
0.00101839
0.00100743
0.000998629
0.000991331
0.000984909
0.00097878
0.000972433
0.000965551
0.00095818
0.00095074
0.000943878
0.000938181
0.000933963
0.000931216
0.000929703
0.000929098
0.00096967
0.000970144
0.000971327
0.000973529
0.000977134
0.000982589
0.000990378
0.00100095
0.00101446
0.00103003
0.00104489
0.00105525
0.00105858
0.00105463
0.0010447
0.00103062
0.00101555
0.00100317
0.000993973
0.000986909
0.000981077
0.000975701
0.000970144
0.000964005
0.000957277
0.00095036
0.000943894
0.000938479
0.000934445
0.000931802
0.000930332
0.000929736
0.000970117
0.000970537
0.000971619
0.000973701
0.000977232
0.000982796
0.000991108
0.00100287
0.00101826
0.00103591
0.00105223
0.00106276
0.00106476
0.00105822
0.00104489
0.0010271
0.00100894
0.000995064
0.000985686
0.000979191
0.000974301
0.000969996
0.000965494
0.000960334
0.000954499
0.000948383
0.000942607
0.000937743
0.000934097
0.00093168
0.000930309
0.000929735
0.000971911
0.000972279
0.000973289
0.000975338
0.000978979
0.000984952
0.000994165
0.00100745
0.0010248
0.00104411
0.00106098
0.00107054
0.00107012
0.00106013
0.00104273
0.00102057
0.000998696
0.000983047
0.000973593
0.00096795
0.000964341
0.000961426
0.00095826
0.000954342
0.000949674
0.000944649
0.000939844
0.000935763
0.000932662
0.000930556
0.000929313
0.000928767
0.000976691
0.000977041
0.00097807
0.000980268
0.000984326
0.000991144
0.00100173
0.00101678
0.00103572
0.00105564
0.00107162
0.00107885
0.0010752
0.00106153
0.00104008
0.00101334
0.00098708
0.000968872
0.00095893
0.000954008
0.000951695
0.00095027
0.000948588
0.000946096
0.000942804
0.00093909
0.00093545
0.000932282
0.000929791
0.000928011
0.000926895
0.000926374
0.00098638
0.000986777
0.000987968
0.000990556
0.000995364
0.00100339
0.00101554
0.00103205
0.00105155
0.00107047
0.00108396
0.00108801
0.00108138
0.00106522
0.00104112
0.00101072
0.000979845
0.000957649
0.000945549
0.000940021
0.000938065
0.00093757
0.000937147
0.000936088
0.000934273
0.000931936
0.000929426
0.000927056
0.000925042
0.000923504
0.000922492
0.000922005
0.00100184
0.00100234
0.00100381
0.00100694
0.00101262
0.00102181
0.0010351
0.00105207
0.00107067
0.00108715
0.00109743
0.00109896
0.00109159
0.00107616
0.00105288
0.00102175
0.000987514
0.00096007
0.000942755
0.000933012
0.000927999
0.000925565
0.000924281
0.000923248
0.000922056
0.000920654
0.00091921
0.000917958
0.00091706
0.000916542
0.000916315
0.00091625
0.00102142
0.00102202
0.00102376
0.00102736
0.00103369
0.0010435
0.001057
0.00107323
0.00108982
0.00110353
0.00111176
0.0011137
0.00110996
0.00110074
0.00108475
0.00106018
0.00102909
0.000999785
0.000976975
0.000959848
0.000947174
0.000937531
0.000930433
0.000925583
0.000922828
0.000922038
0.000922976
0.000925212
0.000928097
0.00093089
0.000932988
0.000934058
0.00103921
0.00103988
0.00104174
0.00104548
0.00105187
0.00106143
0.00107408
0.0010887
0.00110323
0.00111543
0.00112414
0.00112979
0.00113362
0.00113602
0.0011357
0.0011304
0.00111934
0.0011063
0.00109498
0.00108557
0.00107771
0.00107053
0.00106392
0.00105788
0.00105265
0.00104857
0.00104596
0.00104497
0.00104535
0.00104653
0.00104782
0.00104861
0.00104965
0.00105027
0.00105195
0.00105527
0.00106082
0.00106899
0.00107967
0.00109202
0.00110457
0.00111578
0.00112498
0.00113295
0.00114152
0.00115229
0.00116575
0.0011812
0.00119658
0.00121027
0.00122278
0.00123421
0.00124399
0.00125142
0.00125593
0.00125717
0.00125512
0.00125014
0.00124306
0.00123512
0.00122777
0.00122222
0.00121896
0.00121767
0.00105484
0.00105539
0.00105686
0.00105969
0.00106436
0.00107117
0.00108006
0.00109036
0.00110095
0.0011106
0.00111867
0.00112578
0.00113371
0.00114477
0.00116095
0.00118356
0.00121091
0.00123803
0.00126251
0.00128449
0.00130391
0.00132053
0.00133398
0.0013438
0.00134964
0.00135139
0.00134941
0.00134461
0.00133848
0.0013327
0.00132859
0.00132665
0.00105701
0.00105751
0.00105879
0.0010612
0.00106511
0.00107077
0.00107814
0.00108673
0.00109564
0.00110382
0.00111065
0.00111641
0.00112251
0.00113115
0.00114475
0.00116555
0.0011931
0.00122217
0.00124883
0.0012728
0.00129446
0.00131421
0.00133209
0.00134769
0.0013604
0.00136967
0.00137528
0.00137748
0.00137706
0.00137517
0.00137314
0.00137194
0.00105745
0.0010579
0.00105903
0.00106109
0.00106437
0.00106909
0.00107521
0.0010824
0.00108995
0.00109703
0.00110305
0.00110812
0.00111326
0.00112025
0.00113129
0.00114861
0.00117245
0.00119872
0.00122379
0.00124736
0.00126995
0.00129223
0.00131416
0.00133499
0.00135351
0.00136856
0.0013795
0.00138633
0.00138965
0.0013905
0.00139011
0.00138958
0.00105712
0.0010575
0.00105845
0.00106018
0.00106293
0.00106685
0.00107197
0.00107804
0.00108457
0.00109099
0.00109687
0.00110225
0.00110783
0.00111497
0.00112532
0.00114061
0.00116107
0.0011838
0.00120619
0.00122818
0.00125041
0.00127361
0.00129781
0.00132213
0.00134508
0.00136493
0.00138037
0.00139094
0.00139702
0.00139965
0.0014002
0.0014
0.00105728
0.00105751
0.00105814
0.00105941
0.00106157
0.00106477
0.00106907
0.00107434
0.00108033
0.00108672
0.00109328
0.00110006
0.0011075
0.00111645
0.00112798
0.00114312
0.00116168
0.00118158
0.00120133
0.00122127
0.0012421
0.00126448
0.00128859
0.00131381
0.00133878
0.00136159
0.00138044
0.00139423
0.00140284
0.00140711
0.00140845
0.00140847
0.0010599
0.00105979
0.00105981
0.0010603
0.00106162
0.00106405
0.00106773
0.00107267
0.00107882
0.0010861
0.00109438
0.00110363
0.00111399
0.00112581
0.00113957
0.0011557
0.00117353
0.00119143
0.00120883
0.0012265
0.00124523
0.00126568
0.00128806
0.00131207
0.00133669
0.0013603
0.00138098
0.00139707
0.00140783
0.00141364
0.00141579
0.00141603
0.00106752
0.00106685
0.00106586
0.00106515
0.00106534
0.00106696
0.00107033
0.00107565
0.00108296
0.00109221
0.0011032
0.00111564
0.00112931
0.00114414
0.00116017
0.00117743
0.0011949
0.00121123
0.00122649
0.00124175
0.00125792
0.00127569
0.00129538
0.00131688
0.00133951
0.00136205
0.00138283
0.00140003
0.00141233
0.00141947
0.00142241
0.00142291
0.00108276
0.0010813
0.00107904
0.00107693
0.00107599
0.0010771
0.00108083
0.00108742
0.00109685
0.00110883
0.00112287
0.00113838
0.00115482
0.00117186
0.0011893
0.001207
0.0012238
0.00123857
0.00125174
0.00126455
0.00127796
0.00129268
0.00130911
0.00132731
0.00134691
0.0013671
0.00138656
0.00140359
0.00141659
0.00142472
0.00142839
0.00142915
0.00110757
0.00110526
0.00110189
0.00109888
0.00109757
0.00109908
0.00110406
0.00111262
0.00112445
0.00113893
0.00115528
0.00117267
0.00119045
0.0012082
0.00122564
0.00124263
0.00125808
0.00127102
0.00128209
0.0012925
0.00130318
0.00131481
0.00132782
0.00134237
0.00135836
0.00137533
0.00139239
0.00140813
0.00142091
0.0014295
0.00143375
0.00143479
0.00114298
0.00114007
0.00113652
0.00113406
0.0011339
0.001137
0.0011438
0.00115414
0.00116749
0.00118306
0.00119993
0.00121728
0.00123449
0.00125118
0.00126711
0.0012822
0.00129553
0.00130633
0.00131524
0.00132336
0.00133151
0.00134026
0.00135001
0.00136097
0.00137319
0.0013865
0.0014004
0.00141391
0.00142558
0.00143399
0.00143854
0.00143983
0.0011895
0.00118668
0.00118471
0.00118474
0.00118715
0.00119233
0.00120042
0.00121122
0.00122423
0.00123873
0.00125395
0.00126921
0.00128401
0.00129807
0.00131124
0.00132348
0.00133407
0.00134247
0.00134922
0.00135521
0.00136107
0.00136728
0.00137413
0.00138184
0.00139051
0.00140013
0.00141052
0.00142111
0.00143084
0.00143838
0.00144283
0.00144429
0.00124785
0.00124644
0.00124786
0.00125126
0.00125602
0.00126222
0.00126999
0.0012793
0.00128989
0.0013013
0.00131302
0.00132458
0.00133563
0.001346
0.00135558
0.00136439
0.00137191
0.00137779
0.00138243
0.00138647
0.00139034
0.00139436
0.00139877
0.00140372
0.00140929
0.00141554
0.00142244
0.00142977
0.00143691
0.00144288
0.00144673
0.00144817
0.00131986
0.00132127
0.0013256
0.00133029
0.00133505
0.00134008
0.00134558
0.0013517
0.00135839
0.00136545
0.0013726
0.0013796
0.00138624
0.00139242
0.0013981
0.00140327
0.00140766
0.00141106
0.00141372
0.001416
0.00141815
0.00142035
0.00142275
0.00142542
0.00142843
0.00143181
0.00143559
0.00143972
0.00144393
0.00144771
0.00145039
0.00145154
0.00140818
0.00140945
0.00141185
0.00141402
0.001416
0.00141792
0.00141989
0.00142199
0.00142424
0.00142658
0.00142895
0.00143125
0.00143343
0.00143545
0.0014373
0.00143898
0.00144039
0.00144149
0.00144234
0.00144307
0.00144375
0.00144444
0.00144518
0.00144601
0.00144694
0.00144798
0.00144915
0.00145044
0.00145178
0.00145304
0.00145401
0.00145449
)
;


// ************************************************************************* //
