/*--------------------------------*- C++ -*----------------------------------*\
| =========                 |                                                 |
| \\      /  F ield         | OpenFOAM: The Open Source CFD Toolbox           |
|  \\    /   O peration     | Version:  2212                                  |
|   \\  /    A nd           | Website:  www.openfoam.com                      |
|    \\/     M anipulation  |                                                 |
\*---------------------------------------------------------------------------*/
FoamFile
{
    version     2.0;
    format      ascii;
    arch        "LSB;label=64;scalar=64";
    class       volScalarField;
    location    "860";
    object      Gch4;
}
// * * * * * * * * * * * * * * * * * * * * * * * * * * * * * * * * * * * * * //

dimensions      [1 -3 0 0 0 0 0];

internalField   nonuniform List<scalar> 
1024
(
1.90358
1.90332
1.90269
1.90157
1.89988
1.8976
1.89484
1.89175
1.88858
1.88555
1.88286
1.88072
1.87927
1.87863
1.87896
1.88048
1.88322
1.88669
1.89042
1.89431
1.89838
1.90266
1.9071
1.91152
1.91565
1.91925
1.92215
1.92433
1.92585
1.92681
1.92734
1.92755
1.90354
1.90328
1.90263
1.90148
1.89974
1.89742
1.89462
1.89151
1.88832
1.88527
1.88256
1.88042
1.87898
1.87835
1.87869
1.88023
1.88298
1.88646
1.89018
1.89406
1.89812
1.90238
1.90682
1.91125
1.91541
1.91904
1.92199
1.92421
1.92575
1.92673
1.92727
1.92749
1.90347
1.90319
1.9025
1.9013
1.8995
1.89711
1.89423
1.89105
1.8878
1.88465
1.88185
1.87967
1.87824
1.87766
1.87808
1.87968
1.88249
1.88598
1.8897
1.89356
1.89758
1.90181
1.90622
1.91066
1.91487
1.91858
1.92162
1.92392
1.92553
1.92655
1.92711
1.92734
1.90335
1.90306
1.90234
1.90108
1.8992
1.89671
1.89373
1.89043
1.88701
1.88365
1.88061
1.8783
1.87688
1.87641
1.877
1.87878
1.88172
1.88529
1.88902
1.89285
1.89681
1.90096
1.90532
1.90975
1.91402
1.91784
1.92102
1.92344
1.92515
1.92623
1.92683
1.92707
1.90321
1.90291
1.90217
1.90087
1.89892
1.89633
1.8932
1.8897
1.88598
1.88222
1.87878
1.87621
1.87477
1.87449
1.87537
1.8775
1.88072
1.88445
1.88823
1.89203
1.8959
1.89994
1.9042
1.90858
1.91289
1.91684
1.92018
1.92277
1.92461
1.92578
1.92642
1.92668
1.90308
1.90277
1.90202
1.9007
1.8987
1.89602
1.89272
1.88893
1.88477
1.88043
1.87637
1.87339
1.87187
1.87183
1.87318
1.87586
1.87956
1.88357
1.88746
1.89125
1.89503
1.89892
1.90302
1.90731
1.91162
1.91567
1.91918
1.92195
1.92393
1.9252
1.9259
1.92618
1.90297
1.90267
1.90194
1.90062
1.8986
1.89584
1.89235
1.8882
1.88347
1.87836
1.87351
1.86996
1.86829
1.86855
1.87054
1.87401
1.87843
1.88287
1.88695
1.89075
1.89442
1.89813
1.90202
1.90615
1.9104
1.9145
1.91813
1.92105
1.92317
1.92454
1.92529
1.92559
1.90292
1.90263
1.90192
1.90064
1.89865
1.89583
1.89215
1.88759
1.88219
1.87618
1.87041
1.86617
1.86433
1.86498
1.86778
1.87229
1.87765
1.88268
1.887
1.89082
1.89436
1.89784
1.90148
1.90539
1.90949
1.91355
1.91722
1.92024
1.92245
1.92388
1.92467
1.92498
1.90292
1.90265
1.90198
1.90076
1.89882
1.89599
1.89212
1.88712
1.88096
1.87395
1.86718
1.86228
1.86037
1.86159
1.86544
1.87124
1.87775
1.88346
1.88804
1.89183
1.89517
1.89837
1.90169
1.90529
1.90916
1.91307
1.91668
1.91967
1.92189
1.92334
1.92413
1.92445
1.90292
1.90267
1.90205
1.9009
1.89903
1.89619
1.89214
1.88664
1.87962
1.87152
1.86379
1.85843
1.85674
1.85886
1.86409
1.87148
1.87934
1.88578
1.89055
1.8942
1.89723
1.90002
1.90291
1.90612
1.90965
1.91328
1.91667
1.91952
1.92164
1.92303
1.9238
1.92412
1.90269
1.90248
1.90191
1.90083
1.89899
1.8961
1.89177
1.88566
1.87766
1.86848
1.86001
1.85457
1.8536
1.85709
1.86412
1.87345
1.88292
1.89012
1.89496
1.89831
1.90082
1.90304
1.90538
1.90807
1.91112
1.91432
1.91736
1.91991
1.92183
1.9231
1.92382
1.92412
1.90177
1.90158
1.90105
1.89998
1.89809
1.89498
1.89019
1.88328
1.87426
1.86423
1.85548
1.85057
1.8509
1.85622
1.86539
1.87701
1.8884
1.8965
1.90137
1.90425
1.90608
1.90757
1.9092
1.91123
1.91367
1.9163
1.91881
1.92096
1.92259
1.92369
1.92435
1.92463
1.89927
1.89909
1.89855
1.89741
1.8953
1.89175
1.88625
1.87842
1.86858
1.85824
1.84998
1.84631
1.84835
1.85562
1.86693
1.88093
1.89459
1.904
1.9091
1.9116
1.91274
1.91344
1.91429
1.91557
1.91728
1.91922
1.92113
1.92279
1.9241
1.92504
1.92562
1.9259
1.89419
1.89399
1.89337
1.89202
1.88952
1.88535
1.87903
1.87044
1.86032
1.85051
1.84358
1.84161
1.84524
1.85383
1.86653
1.88245
1.8985
1.90996
1.91616
1.91895
1.9199
1.92011
1.9203
1.92083
1.92177
1.92299
1.92431
1.92555
1.92661
1.92742
1.92795
1.92821
1.88608
1.88582
1.88505
1.88343
1.88047
1.87569
1.86879
1.85997
1.85033
1.84183
1.8366
1.83597
1.84001
1.84824
1.86055
1.87685
1.89466
1.90884
1.91772
1.92269
1.92522
1.92643
1.92706
1.92757
1.92818
1.92891
1.92967
1.93034
1.93082
1.9311
1.93123
1.93127
1.8758
1.87548
1.87458
1.87271
1.86942
1.86432
1.85732
1.8489
1.84033
1.83329
1.82914
1.82831
1.83047
1.83549
1.84402
1.85697
1.87319
1.88837
1.90013
1.90894
1.91545
1.92041
1.92405
1.92655
1.92797
1.92838
1.9279
1.92675
1.92527
1.92383
1.92275
1.9222
1.86644
1.8661
1.86513
1.86318
1.85987
1.8549
1.84834
1.84076
1.83326
1.82699
1.82258
1.81979
1.81798
1.81695
1.81737
1.82036
1.82627
1.8331
1.83898
1.84385
1.84792
1.85163
1.85504
1.85816
1.86086
1.86298
1.86432
1.86484
1.86464
1.86402
1.86336
1.86295
1.86093
1.86061
1.85974
1.85802
1.85513
1.85088
1.84533
1.83892
1.83242
1.82663
1.82191
1.81785
1.81352
1.80807
1.80129
1.79351
1.78577
1.77883
1.77244
1.76659
1.76158
1.75778
1.75548
1.75487
1.75595
1.75854
1.76221
1.76632
1.77011
1.77298
1.77467
1.77534
1.85818
1.85789
1.85713
1.85566
1.85323
1.84968
1.84505
1.83969
1.83418
1.82918
1.825
1.82134
1.81727
1.81161
1.80334
1.7918
1.77784
1.76399
1.75147
1.74023
1.73031
1.72184
1.71499
1.71
1.70705
1.70619
1.70723
1.70972
1.71288
1.71586
1.71798
1.71898
1.857
1.85674
1.85607
1.85482
1.85279
1.84983
1.84599
1.84151
1.83686
1.83259
1.82904
1.82605
1.82289
1.81844
1.81146
1.8008
1.7867
1.77184
1.75823
1.74601
1.735
1.72497
1.7159
1.708
1.70156
1.69686
1.69402
1.6929
1.69312
1.69408
1.69512
1.69573
1.85673
1.85649
1.85591
1.85484
1.85313
1.85067
1.84746
1.84371
1.83976
1.83605
1.8329
1.83025
1.82758
1.82397
1.8183
1.80941
1.7972
1.78377
1.77097
1.75897
1.74749
1.73619
1.72506
1.71451
1.70513
1.6975
1.69195
1.68849
1.68679
1.68635
1.68654
1.6868
1.85687
1.85667
1.85618
1.85528
1.85385
1.8518
1.84912
1.84594
1.84251
1.83914
1.83607
1.83326
1.83036
1.82668
1.82136
1.81353
1.80305
1.79142
1.77999
1.76879
1.75749
1.7457
1.73342
1.72108
1.70944
1.69939
1.69156
1.6862
1.68312
1.68177
1.68149
1.68158
1.85677
1.85665
1.85632
1.85566
1.85453
1.85285
1.8506
1.84784
1.8447
1.84135
1.83793
1.83441
1.83056
1.82596
1.82005
1.8123
1.8028
1.79262
1.78254
1.77237
1.76177
1.75039
1.73814
1.72534
1.71267
1.70111
1.69156
1.68458
1.68021
1.67804
1.67736
1.67734
1.85543
1.85548
1.85546
1.8552
1.8545
1.85322
1.8513
1.84871
1.8455
1.84171
1.83741
1.83262
1.82729
1.82123
1.81418
1.80593
1.79682
1.78767
1.77878
1.76977
1.76023
1.74982
1.73845
1.72626
1.71376
1.70179
1.69131
1.68316
1.67771
1.67477
1.67368
1.67355
1.85153
1.85187
1.85237
1.85271
1.85259
1.85174
1.84997
1.8472
1.84341
1.83862
1.83295
1.82655
1.81953
1.81193
1.80373
1.79491
1.78599
1.77764
1.76985
1.76207
1.75382
1.74478
1.73476
1.72384
1.71236
1.70093
1.69039
1.68168
1.67546
1.67185
1.67035
1.6701
1.84375
1.84449
1.84563
1.8467
1.84716
1.84656
1.84461
1.8412
1.83634
1.83017
1.82295
1.815
1.80658
1.79785
1.78894
1.7799
1.77132
1.76378
1.75705
1.75052
1.74368
1.73618
1.72782
1.71858
1.70863
1.69839
1.68853
1.6799
1.67333
1.66921
1.66736
1.66696
1.83109
1.83226
1.83397
1.8355
1.83615
1.83535
1.83277
1.82836
1.82229
1.81485
1.80648
1.79757
1.78847
1.7794
1.77048
1.76181
1.75392
1.74731
1.74166
1.73635
1.7309
1.72497
1.71836
1.71096
1.70284
1.69423
1.68559
1.67762
1.67116
1.66681
1.66467
1.66413
1.81303
1.81451
1.81631
1.81755
1.81762
1.81601
1.81251
1.80721
1.80036
1.79239
1.78376
1.77488
1.76608
1.75756
1.74942
1.74171
1.73491
1.7294
1.72485
1.7207
1.71655
1.71209
1.70713
1.70155
1.69535
1.6886
1.68155
1.67471
1.66881
1.66456
1.66226
1.6616
1.78931
1.79075
1.79175
1.79172
1.79047
1.78781
1.78366
1.77813
1.77147
1.76405
1.75627
1.74848
1.74091
1.73373
1.72701
1.72076
1.71535
1.71106
1.70761
1.70456
1.70156
1.69841
1.69492
1.691
1.68659
1.68171
1.67645
1.67109
1.66617
1.66236
1.66011
1.65937
1.75957
1.76028
1.75956
1.75782
1.75538
1.7522
1.74823
1.74346
1.73805
1.73221
1.72623
1.72032
1.71467
1.70938
1.70448
1.69999
1.69615
1.69315
1.69078
1.68872
1.68674
1.68469
1.68245
1.67993
1.6771
1.67393
1.67043
1.66672
1.66311
1.6601
1.65815
1.65743
1.72287
1.72215
1.71994
1.71755
1.71511
1.71254
1.70973
1.7066
1.70318
1.69958
1.69592
1.69235
1.68895
1.6858
1.6829
1.68026
1.67802
1.67628
1.67492
1.67376
1.67266
1.67154
1.67032
1.66896
1.66743
1.66572
1.6638
1.66171
1.65958
1.65767
1.65632
1.65574
1.67787
1.67722
1.676
1.67489
1.67388
1.6729
1.67189
1.67082
1.66967
1.66847
1.66726
1.66609
1.66498
1.66394
1.663
1.66214
1.66142
1.66086
1.66043
1.66006
1.65971
1.65936
1.65898
1.65856
1.65808
1.65755
1.65696
1.65631
1.65563
1.65499
1.6545
1.65427
)
;

boundaryField
{
    movingWall
    {
        type            fixedValue;
        value           uniform 1.6535;
    }
    fixedWalls
    {
        type            zeroGradient;
    }
    floor
    {
        type            zeroGradient;
    }
    frontAndBack
    {
        type            empty;
    }
}


// ************************************************************************* //
