/*--------------------------------*- C++ -*----------------------------------*\
| =========                 |                                                 |
| \\      /  F ield         | OpenFOAM: The Open Source CFD Toolbox           |
|  \\    /   O peration     | Version:  2212                                  |
|   \\  /    A nd           | Website:  www.openfoam.com                      |
|    \\/     M anipulation  |                                                 |
\*---------------------------------------------------------------------------*/
FoamFile
{
    version     2.0;
    format      ascii;
    arch        "LSB;label=64;scalar=64";
    class       surfaceScalarField;
    location    "860";
    object      phi;
}
// * * * * * * * * * * * * * * * * * * * * * * * * * * * * * * * * * * * * * //

dimensions      [0 3 -1 0 0 0 0];

oriented        oriented;

internalField   nonuniform List<scalar> 
1984
(
-4.93817e-09
4.93793e-09
-3.30226e-08
2.80845e-08
-8.23383e-08
4.93157e-08
-1.4207e-07
5.9732e-08
-2.03255e-07
6.11852e-08
-2.59093e-07
5.58373e-08
-3.006e-07
4.15075e-08
-3.12283e-07
1.16823e-08
-2.66976e-07
-4.53066e-08
-1.43048e-07
-1.23928e-07
5.11479e-08
-1.94196e-07
2.28683e-07
-1.77535e-07
3.56502e-07
-1.27819e-07
4.30747e-07
-7.4245e-08
4.58605e-07
-2.78581e-08
4.45863e-07
1.2741e-08
4.02717e-07
4.31464e-08
3.47124e-07
5.55928e-08
2.88646e-07
5.84779e-08
2.33172e-07
5.54741e-08
1.83722e-07
4.94496e-08
1.41712e-07
4.20103e-08
1.07627e-07
3.40853e-08
8.1113e-08
2.65137e-08
6.0956e-08
2.01571e-08
4.50351e-08
1.59209e-08
3.10511e-08
1.3984e-08
1.80187e-08
1.30324e-08
7.08387e-09
1.09349e-08
4.32728e-10
6.65109e-09
-1.2124e-09
1.64509e-09
-1.21244e-09
-3.30116e-08
3.79496e-08
-1.29324e-07
1.24397e-07
-2.75718e-07
1.9571e-07
-4.46458e-07
2.30472e-07
-6.15672e-07
2.30399e-07
-7.59834e-07
2e-07
-8.51582e-07
1.33256e-07
-8.5233e-07
1.24302e-08
-7.04735e-07
-1.92902e-07
-3.59567e-07
-4.69097e-07
1.62523e-07
-7.16285e-07
6.58976e-07
-6.73988e-07
1.03414e-06
-5.02981e-07
1.28085e-06
-3.20962e-07
1.40249e-06
-1.49493e-07
1.40493e-06
1.02963e-08
1.30902e-06
1.39065e-07
1.16316e-06
2.01452e-07
9.97008e-07
2.24626e-07
8.30265e-07
2.22218e-07
6.74566e-07
2.05149e-07
5.365e-07
1.80076e-07
4.19353e-07
1.51233e-07
3.23511e-07
1.22355e-07
2.46501e-07
9.71672e-08
1.83318e-07
7.91037e-08
1.28607e-07
6.86941e-08
8.01394e-08
6.15003e-08
4.03805e-08
5.06936e-08
1.37682e-08
3.32633e-08
1.82967e-09
1.35835e-08
6.17404e-10
-6.9625e-08
1.07575e-07
-2.44785e-07
2.99557e-07
-4.90817e-07
4.41742e-07
-7.65584e-07
5.05239e-07
-1.02721e-06
4.92026e-07
-1.23554e-06
4.08333e-07
-1.34687e-06
2.44583e-07
-1.30496e-06
-2.94856e-08
-1.04068e-06
-4.57175e-07
-4.96798e-07
-1.01298e-06
2.89816e-07
-1.5029e-06
1.05904e-06
-1.44321e-06
1.67971e-06
-1.12365e-06
2.13264e-06
-7.73892e-07
2.40367e-06
-4.20522e-07
2.48057e-06
-6.66091e-08
2.37788e-06
2.41761e-07
2.17219e-06
4.07142e-07
1.91413e-06
4.82688e-07
1.63874e-06
4.97609e-07
1.36871e-06
4.75172e-07
1.11846e-06
4.30329e-07
8.96506e-07
3.73186e-07
7.0622e-07
3.12641e-07
5.46015e-07
2.57372e-07
4.10287e-07
2.14832e-07
2.9246e-07
1.86521e-07
1.89543e-07
1.64417e-07
1.04492e-07
1.35745e-07
4.3426e-08
9.43292e-08
9.62217e-09
4.73874e-08
1.02397e-08
-1.0021e-07
2.07784e-07
-3.4314e-07
5.42487e-07
-6.73786e-07
7.72388e-07
-1.03242e-06
8.6387e-07
-1.36147e-06
8.21078e-07
-1.60611e-06
6.52979e-07
-1.70991e-06
3.4838e-07
-1.60805e-06
-1.31345e-07
-1.23275e-06
-8.32483e-07
-5.32352e-07
-1.71337e-06
4.25047e-07
-2.4603e-06
1.38414e-06
-2.40231e-06
2.21792e-06
-1.95743e-06
2.88374e-06
-1.43971e-06
3.34749e-06
-8.84272e-07
3.5657e-06
-2.8482e-07
3.5214e-06
2.86063e-07
3.30741e-06
6.21129e-07
2.99628e-06
7.93818e-07
2.63755e-06
8.5634e-07
2.26514e-06
8.47587e-07
1.90234e-06
7.93129e-07
1.56458e-06
7.10942e-07
1.2604e-06
6.16821e-07
9.91895e-07
5.25879e-07
7.56098e-07
4.50629e-07
5.47945e-07
3.94673e-07
3.64892e-07
3.47469e-07
2.10566e-07
2.90071e-07
9.3933e-08
2.10962e-07
2.32942e-08
1.18026e-07
3.35339e-08
-1.12336e-07
3.20121e-07
-3.89101e-07
8.19253e-07
-7.69394e-07
1.15268e-06
-1.18087e-06
1.27534e-06
-1.55075e-06
1.19096e-06
-1.81047e-06
9.12696e-07
-1.89417e-06
4.32088e-07
-1.73666e-06
-2.88854e-07
-1.27593e-06
-1.29322e-06
-4.70592e-07
-2.51871e-06
5.65171e-07
-3.49606e-06
1.62779e-06
-3.46493e-06
2.616e-06
-2.94563e-06
3.46415e-06
-2.28787e-06
4.12571e-06
-1.54583e-06
4.53203e-06
-6.91143e-07
4.61273e-06
2.05364e-07
4.45098e-06
7.82875e-07
4.14093e-06
1.10387e-06
3.74377e-06
1.25351e-06
3.30242e-06
1.28894e-06
2.8479e-06
1.24764e-06
2.40237e-06
1.15647e-06
1.98038e-06
1.03882e-06
1.58964e-06
9.16619e-07
1.23257e-06
8.07697e-07
9.08563e-07
7.1868e-07
6.17922e-07
6.3811e-07
3.66909e-07
5.41084e-07
1.69915e-07
4.07956e-07
4.42795e-08
2.43662e-07
7.78134e-08
-1.0005e-07
4.2017e-07
-3.63553e-07
1.08276e-06
-7.45106e-07
1.53423e-06
-1.17169e-06
1.70192e-06
-1.55864e-06
1.57791e-06
-1.82395e-06
1.17801e-06
-1.89344e-06
5.01574e-07
-1.70179e-06
-4.80508e-07
-1.1881e-06
-1.80691e-06
-3.27306e-07
-3.3795e-06
7.17008e-07
-4.54037e-06
1.81596e-06
-4.56388e-06
2.89019e-06
-4.01986e-06
3.86233e-06
-3.26001e-06
4.68371e-06
-2.36721e-06
5.27951e-06
-1.28694e-06
5.52409e-06
-3.92119e-08
5.46413e-06
8.42835e-07
5.20821e-06
1.35979e-06
4.82409e-06
1.63762e-06
4.35969e-06
1.75334e-06
3.85067e-06
1.75667e-06
3.32402e-06
1.68312e-06
2.79957e-06
1.56327e-06
2.29092e-06
1.42527e-06
1.8069e-06
1.29171e-06
1.35322e-06
1.17236e-06
9.35742e-07
1.05558e-06
5.6655e-07
9.10277e-07
2.68685e-07
7.05821e-07
7.21867e-08
4.40161e-07
1.5e-07
-6.63889e-08
4.86559e-07
-2.69101e-07
1.28547e-06
-5.97817e-07
1.86295e-06
-9.96871e-07
2.10098e-06
-1.37854e-06
1.95958e-06
-1.64831e-06
1.44778e-06
-1.72001e-06
5.73281e-07
-1.51986e-06
-6.80666e-07
-9.80442e-07
-2.34632e-06
-1.10193e-07
-4.24975e-06
8.9179e-07
-5.54236e-06
1.97646e-06
-5.64855e-06
3.07137e-06
-5.11477e-06
4.10109e-06
-4.28973e-06
5.02104e-06
-3.28716e-06
5.76072e-06
-2.02662e-06
6.16114e-06
-4.39631e-07
6.22725e-06
7.76726e-07
6.06064e-06
1.5264e-06
5.73133e-06
1.96693e-06
5.28752e-06
2.19715e-06
4.76538e-06
2.27881e-06
4.19374e-06
2.25476e-06
3.59582e-06
2.16119e-06
2.99012e-06
2.03097e-06
2.39143e-06
1.8904e-06
1.81232e-06
1.75148e-06
1.26637e-06
1.60153e-06
7.74728e-07
1.40192e-06
3.71857e-07
1.10869e-06
1.01529e-07
7.10489e-07
2.51529e-07
-2.13304e-08
5.0789e-07
-1.25874e-07
1.39001e-06
-3.47297e-07
2.08437e-06
-6.68701e-07
2.42238e-06
-1.01591e-06
2.30679e-06
-1.28685e-06
1.71872e-06
-1.37536e-06
6.61788e-07
-1.18512e-06
-8.70907e-07
-6.38215e-07
-2.89323e-06
1.84378e-07
-5.07234e-06
1.09625e-06
-6.45423e-06
2.11699e-06
-6.66929e-06
3.16814e-06
-6.16592e-06
4.19002e-06
-5.31162e-06
5.14611e-06
-4.24324e-06
5.97168e-06
-2.8522e-06
6.48958e-06
-9.57534e-07
6.66852e-06
5.9779e-07
6.59611e-06
1.5988e-06
6.34083e-06
2.22221e-06
5.94641e-06
2.59157e-06
5.44484e-06
2.78037e-06
4.86315e-06
2.83645e-06
4.22532e-06
2.79902e-06
3.55294e-06
2.70335e-06
2.86566e-06
2.57767e-06
2.18291e-06
2.43423e-06
1.52775e-06
2.2567e-06
9.33319e-07
1.99635e-06
4.4677e-07
1.59524e-06
1.21789e-07
1.03547e-06
3.73318e-07
2.37805e-08
4.84109e-07
3.30095e-08
1.38078e-06
-3.63302e-08
2.15371e-06
-2.16206e-07
2.60226e-06
-4.7743e-07
2.56802e-06
-7.28848e-07
1.97014e-06
-8.35631e-07
7.68571e-07
-6.62284e-07
-1.04425e-06
-1.34549e-07
-3.42096e-06
5.60573e-07
-5.76747e-06
1.33625e-06
-7.22991e-06
2.22079e-06
-7.55383e-06
3.1519e-06
-7.09703e-06
4.09604e-06
-6.25577e-06
5.02885e-06
-5.17605e-06
5.89165e-06
-3.715e-06
6.48677e-06
-1.55265e-06
6.74431e-06
3.40246e-07
6.7451e-06
1.59802e-06
6.56043e-06
2.40688e-06
6.22635e-06
2.92565e-06
5.76675e-06
3.23998e-06
5.20328e-06
3.39992e-06
4.55792e-06
3.44439e-06
3.85309e-06
3.40819e-06
3.11212e-06
3.31864e-06
2.36148e-06
3.18486e-06
1.63572e-06
2.98246e-06
9.82471e-07
2.6496e-06
4.60085e-07
2.11763e-06
1.2235e-07
1.3732e-06
4.95669e-07
5.87466e-08
4.25363e-07
1.71436e-07
1.26809e-06
2.67102e-07
2.05805e-06
2.78688e-07
2.59067e-06
1.81802e-07
2.6649e-06
2.74555e-08
2.12448e-06
-4.92548e-08
8.45281e-07
1.11068e-07
-1.20457e-06
5.09902e-07
-3.8198e-06
1.01411e-06
-6.27167e-06
1.58934e-06
-7.80514e-06
2.24037e-06
-8.20486e-06
2.95478e-06
-7.81143e-06
3.73805e-06
-7.03904e-06
4.58191e-06
-6.01991e-06
5.43844e-06
-4.57153e-06
6.08307e-06
-2.19727e-06
6.38709e-06
3.62173e-08
6.43483e-06
1.55029e-06
6.31073e-06
2.53098e-06
6.04013e-06
3.19625e-06
5.63695e-06
3.64315e-06
5.11548e-06
3.92139e-06
4.4934e-06
4.06646e-06
3.79221e-06
4.10938e-06
3.03821e-06
4.07264e-06
2.26632e-06
3.95675e-06
1.52565e-06
3.72313e-06
8.79577e-07
3.29567e-06
3.91162e-07
2.60604e-06
9.78409e-08
1.66653e-06
5.93509e-07
7.70699e-08
3.48293e-07
2.60798e-07
1.08437e-06
4.88854e-07
1.82999e-06
6.87305e-07
2.39222e-06
8.06142e-07
2.54607e-06
8.50604e-07
2.08002e-06
8.78619e-07
8.17266e-07
1.01539e-06
-1.34135e-06
1.25317e-06
-4.05757e-06
1.51722e-06
-6.53573e-06
1.7808e-06
-8.06871e-06
2.07753e-06
-8.5016e-06
2.46192e-06
-8.19583e-06
2.98716e-06
-7.56427e-06
3.66106e-06
-6.69382e-06
4.4555e-06
-5.36597e-06
5.12385e-06
-2.86562e-06
5.45443e-06
-2.9436e-07
5.55688e-06
1.44783e-06
5.49975e-06
2.58811e-06
5.30332e-06
3.39267e-06
4.97416e-06
3.97231e-06
4.51948e-06
4.37607e-06
3.95194e-06
4.63401e-06
3.29179e-06
4.76952e-06
2.56993e-06
4.7945e-06
1.83424e-06
4.69244e-06
1.15368e-06
4.40369e-06
6.03985e-07
3.84537e-06
2.36437e-07
2.97359e-06
5.01164e-08
1.85285e-06
6.43626e-07
7.57879e-08
2.72505e-07
2.80665e-07
8.79488e-07
5.75979e-07
1.53468e-06
8.97874e-07
2.07033e-06
1.18848e-06
2.25546e-06
1.42696e-06
1.84155e-06
1.63438e-06
6.09839e-07
1.82824e-06
-1.5352e-06
1.93767e-06
-4.167e-06
1.8983e-06
-6.49636e-06
1.72859e-06
-7.899e-06
1.54695e-06
-8.31995e-06
1.49241e-06
-8.14128e-06
1.65999e-06
-7.73186e-06
2.06509e-06
-7.09892e-06
2.70943e-06
-6.0103e-06
3.38167e-06
-3.53787e-06
3.77753e-06
-6.90221e-07
3.95321e-06
1.27215e-06
3.98984e-06
2.55149e-06
3.89345e-06
3.48906e-06
3.66538e-06
4.20038e-06
3.30628e-06
4.73517e-06
2.82566e-06
5.11463e-06
2.24675e-06
5.34843e-06
1.61251e-06
5.42875e-06
9.9464e-07
5.3103e-06
4.90514e-07
4.90782e-06
1.63732e-07
4.17215e-06
1.54172e-08
3.12191e-06
-1.24184e-08
1.88068e-06
6.31207e-07
5.71994e-08
2.15305e-07
2.29388e-07
7.073e-07
5.07038e-07
1.25703e-06
8.53267e-07
1.7241e-06
1.2248e-06
1.88392e-06
1.59904e-06
1.46731e-06
1.96729e-06
2.41589e-07
2.22476e-06
-1.79268e-06
2.19593e-06
-4.13817e-06
1.78674e-06
-6.08717e-06
1.08536e-06
-7.19762e-06
3.34227e-07
-7.56882e-06
-2.2001e-07
-7.58705e-06
-4.89828e-07
-7.46204e-06
-4.67983e-07
-7.12077e-06
-1.37443e-07
-6.34084e-06
4.13608e-07
-4.08892e-06
9.79132e-07
-1.25574e-06
1.33844e-06
9.12843e-07
1.50688e-06
2.38305e-06
1.5494e-06
3.44654e-06
1.45521e-06
4.29457e-06
1.22075e-06
4.96963e-06
8.66107e-07
5.46927e-06
4.41328e-07
5.77321e-06
2.54961e-08
5.84458e-06
-2.92289e-07
5.62809e-06
-4.32897e-07
5.04843e-06
-3.93006e-07
4.13226e-06
-2.40559e-07
2.96946e-06
-7.91351e-08
1.71926e-06
5.52072e-07
3.03595e-08
1.84946e-07
1.33306e-07
6.04353e-07
3.20875e-07
1.06946e-06
5.90014e-07
1.45496e-06
9.28459e-07
1.54548e-06
1.32262e-06
1.07315e-06
1.71214e-06
-1.47938e-07
1.87179e-06
-1.95232e-06
1.55149e-06
-3.81787e-06
6.30549e-07
-5.16622e-06
-6.62983e-07
-5.90409e-06
-1.95712e-06
-6.27468e-06
-3.01755e-06
-6.52661e-06
-3.79229e-06
-6.6873e-06
-4.24953e-06
-6.66353e-06
-4.33793e-06
-6.25243e-06
-4.03034e-06
-4.39651e-06
-3.49744e-06
-1.78865e-06
-3.00205e-06
4.17453e-07
-2.63374e-06
2.01475e-06
-2.38721e-06
3.20001e-06
-2.26214e-06
4.1695e-06
-2.23995e-06
4.94744e-06
-2.27305e-06
5.50238e-06
-2.28656e-06
5.78671e-06
-2.19456e-06
5.75259e-06
-1.93198e-06
5.3655e-06
-1.51181e-06
4.62827e-06
-9.98555e-07
3.619e-06
-5.02875e-07
2.47378e-06
-1.41987e-07
1.35837e-06
4.10085e-07
-1.24682e-09
1.86193e-07
9.46649e-09
5.9364e-07
5.48815e-08
1.02404e-06
1.60195e-07
1.34964e-06
3.40409e-07
1.36526e-06
5.68434e-07
8.45129e-07
6.94823e-07
-2.74326e-07
3.96145e-07
-1.65365e-06
-5.70054e-07
-2.85167e-06
-2.11996e-06
-3.61632e-06
-3.92457e-06
-4.09948e-06
-5.69236e-06
-4.5069e-06
-7.30458e-06
-4.91439e-06
-8.69389e-06
-5.298e-06
-9.79409e-06
-5.56333e-06
-1.05142e-05
-5.53236e-06
-1.0693e-05
-4.2177e-06
-1.04168e-05
-2.06481e-06
-9.90425e-06
-9.5118e-08
-9.28235e-06
1.39285e-06
-8.63665e-06
2.55431e-06
-7.9677e-06
3.50055e-06
-7.26274e-06
4.24248e-06
-6.49816e-06
4.73779e-06
-5.6442e-06
4.93275e-06
-4.68096e-06
4.78935e-06
-3.62214e-06
4.30668e-06
-2.53282e-06
3.53894e-06
-1.51769e-06
2.60387e-06
-6.99982e-07
1.65607e-06
-1.80293e-07
8.3868e-07
2.29793e-07
-3.83172e-08
2.24511e-07
-1.46158e-07
7.0148e-07
-3.03758e-07
1.18164e-06
-4.78748e-07
1.52463e-06
-6.65059e-07
1.55157e-06
-9.5381e-07
1.13388e-06
-1.58404e-06
3.55901e-07
-2.75878e-06
-4.78903e-07
-4.50467e-06
-1.10578e-06
-6.594e-06
-1.52699e-06
-8.80836e-06
-1.88512e-06
-1.104e-05
-2.27523e-06
-1.32358e-05
-2.71861e-06
-1.53275e-05
-3.20626e-06
-1.7232e-05
-3.65892e-06
-1.88362e-05
-3.92814e-06
-1.97767e-05
-3.2772e-06
-1.98935e-05
-1.94801e-06
-1.92653e-05
-7.23245e-07
-1.81985e-05
3.25991e-07
-1.67319e-05
1.08773e-06
-1.495e-05
1.71864e-06
-1.2928e-05
2.22052e-06
-1.0763e-05
2.57275e-06
-8.56783e-06
2.73761e-06
-6.45839e-06
2.67991e-06
-4.53928e-06
2.38757e-06
-2.89418e-06
1.89384e-06
-1.58763e-06
1.29731e-06
-6.74939e-07
7.43386e-07
-1.61345e-07
3.25086e-07
6.84474e-08
-8.26937e-08
3.07204e-07
-3.16475e-07
9.35262e-07
-6.96023e-07
1.56119e-06
-1.21657e-06
2.04518e-06
-1.90466e-06
2.23966e-06
-2.85913e-06
2.08836e-06
-4.21118e-06
1.70795e-06
-5.97705e-06
1.28697e-06
-8.01661e-06
9.33775e-07
-1.01949e-05
6.51297e-07
-1.24418e-05
3.61815e-07
-1.47196e-05
2.55497e-09
-1.70176e-05
-4.20606e-07
-1.93334e-05
-8.90487e-07
-2.16444e-05
-1.34791e-06
-2.386e-05
-1.71256e-06
-2.54769e-05
-1.66031e-06
-2.61215e-05
-1.30336e-06
-2.57722e-05
-1.07256e-06
-2.44628e-05
-9.83392e-07
-2.23853e-05
-9.89745e-07
-1.96436e-05
-1.02309e-06
-1.64057e-05
-1.01741e-06
-1.29013e-05
-9.31657e-07
-9.40813e-06
-7.55544e-07
-6.22244e-06
-5.05788e-07
-3.61134e-06
-2.23524e-07
-1.74928e-06
3.17748e-08
-6.50198e-07
1.98237e-07
-1.46925e-07
2.40113e-07
-7.00755e-10
1.78862e-07
6.77466e-08
-6.12286e-08
3.68433e-07
-2.49131e-07
1.12316e-06
-5.79714e-07
1.89177e-06
-1.06811e-06
2.53357e-06
-1.7345e-06
2.90606e-06
-2.6046e-06
2.95845e-06
-3.68741e-06
2.79076e-06
-4.97199e-06
2.57155e-06
-6.43709e-06
2.39887e-06
-8.04969e-06
2.2639e-06
-9.79266e-06
2.10479e-06
-1.16596e-05
1.86945e-06
-1.3614e-05
1.5338e-06
-1.5638e-05
1.13356e-06
-1.77085e-05
7.22626e-07
-1.97875e-05
3.66396e-07
-2.14679e-05
2.00709e-08
-2.24341e-05
-3.37142e-07
-2.2655e-05
-8.51678e-07
-2.21334e-05
-1.50501e-06
-2.08796e-05
-2.24355e-06
-1.89448e-05
-2.95788e-06
-1.64284e-05
-3.53383e-06
-1.34885e-05
-3.87146e-06
-1.03454e-05
-3.89874e-06
-7.26546e-06
-3.58568e-06
-4.53309e-06
-2.95589e-06
-2.39893e-06
-2.10239e-06
-9.99996e-07
-1.2007e-06
-2.80676e-07
-4.79207e-07
-2.6984e-08
-7.48301e-08
4.07624e-08
-3.02162e-08
3.98648e-07
-1.36078e-07
1.22903e-06
-3.47964e-07
2.10366e-06
-6.97711e-07
2.88332e-06
-1.20743e-06
3.41577e-06
-1.87587e-06
3.62689e-06
-2.67121e-06
3.5861e-06
-3.54712e-06
3.44746e-06
-4.47017e-06
3.32192e-06
-5.42694e-06
3.22066e-06
-6.41484e-06
3.09269e-06
-7.43345e-06
2.88806e-06
-8.49438e-06
2.59473e-06
-9.61994e-06
2.25912e-06
-1.08688e-05
1.97148e-06
-1.23248e-05
1.82237e-06
-1.38254e-05
1.52071e-06
-1.49821e-05
8.19581e-07
-1.56533e-05
-1.80537e-07
-1.5849e-05
-1.30928e-06
-1.55976e-05
-2.49495e-06
-1.48925e-05
-3.66296e-06
-1.37381e-05
-4.68829e-06
-1.2166e-05
-5.44356e-06
-1.02487e-05
-5.81597e-06
-8.10033e-06
-5.73408e-06
-5.87674e-06
-5.17948e-06
-3.77172e-06
-4.20741e-06
-2.00864e-06
-2.96378e-06
-7.90873e-07
-1.69697e-06
-1.66767e-07
-6.98936e-07
-1.26005e-07
-2.20693e-09
4.00855e-07
-2.88268e-08
1.25565e-06
-1.14331e-07
2.18917e-06
-3.02142e-07
3.07113e-06
-6.27838e-07
3.74147e-06
-1.0903e-06
4.08935e-06
-1.6473e-06
4.1431e-06
-2.23928e-06
4.03944e-06
-2.8237e-06
3.90634e-06
-3.38686e-06
3.78382e-06
-3.93205e-06
3.63788e-06
-4.46233e-06
3.41834e-06
-4.97449e-06
3.1069e-06
-5.46346e-06
2.74808e-06
-5.94698e-06
2.455e-06
-6.49466e-06
2.37004e-06
-7.17043e-06
2.19649e-06
-7.95318e-06
1.60233e-06
-8.74416e-06
6.10449e-07
-9.37142e-06
-6.82021e-07
-9.78618e-06
-2.08019e-06
-9.9743e-06
-3.47484e-06
-9.87502e-06
-4.78757e-06
-9.41761e-06
-5.90097e-06
-8.56539e-06
-6.6682e-06
-7.32376e-06
-6.97571e-06
-5.76436e-06
-6.73888e-06
-4.03414e-06
-5.93763e-06
-2.36119e-06
-4.63673e-06
-1.02326e-06
-3.0349e-06
-2.34252e-07
-1.48795e-06
-3.60257e-07
1.81589e-08
3.82697e-07
5.20615e-08
1.22174e-06
6.98964e-08
2.17133e-06
2.66803e-08
3.11435e-06
-1.22518e-07
3.89067e-06
-3.94396e-07
4.36123e-06
-7.56088e-07
4.5048e-06
-1.13593e-06
4.41928e-06
-1.48195e-06
4.25236e-06
-1.77617e-06
4.07804e-06
-2.02711e-06
3.88881e-06
-2.25096e-06
3.64219e-06
-2.45521e-06
3.31115e-06
-2.63063e-06
2.9235e-06
-2.75667e-06
2.58105e-06
-2.82511e-06
2.43848e-06
-2.87683e-06
2.24821e-06
-3.03189e-06
1.75738e-06
-3.42167e-06
1.00023e-06
-4.0053e-06
-9.83829e-08
-4.64411e-06
-1.44138e-06
-5.29703e-06
-2.82193e-06
-5.86394e-06
-4.22065e-06
-6.19749e-06
-5.56742e-06
-6.20072e-06
-6.66496e-06
-5.79098e-06
-7.38545e-06
-4.95662e-06
-7.57324e-06
-3.7679e-06
-7.12636e-06
-2.40015e-06
-6.00447e-06
-1.1326e-06
-4.30245e-06
-2.80376e-07
-2.34017e-06
-6.40633e-07
2.95168e-08
3.5318e-07
1.00462e-07
1.1508e-06
1.86726e-07
2.08507e-06
2.49363e-07
3.05171e-06
2.45886e-07
3.89415e-06
1.47479e-07
4.45964e-06
-3.21137e-08
4.68439e-06
-2.3437e-07
4.62154e-06
-3.9904e-07
4.41703e-06
-4.97307e-07
4.17631e-06
-5.37226e-07
3.92873e-06
-5.45778e-07
3.65074e-06
-5.48858e-07
3.31423e-06
-5.54753e-07
2.92939e-06
-5.44535e-07
2.57083e-06
-4.80175e-07
2.37412e-06
-3.45502e-07
2.11354e-06
-2.17643e-07
1.62952e-06
-2.05102e-07
9.87687e-07
-4.43918e-07
1.40433e-07
-9.49805e-07
-9.35494e-07
-1.64337e-06
-2.12836e-06
-2.44704e-06
-3.41698e-06
-3.19435e-06
-4.82011e-06
-3.76822e-06
-6.09109e-06
-4.00903e-06
-7.14465e-06
-3.8296e-06
-7.75267e-06
-3.2092e-06
-7.74676e-06
-2.24182e-06
-6.97185e-06
-1.1581e-06
-5.38616e-06
-3.11109e-07
-3.18716e-06
-9.51742e-07
3.18153e-08
3.21365e-07
1.16039e-07
1.06658e-06
2.3538e-07
1.96573e-06
3.60644e-07
2.92645e-06
4.58327e-07
3.79646e-06
5.03409e-07
4.41455e-06
4.96852e-07
4.69095e-06
4.66495e-07
4.6519e-06
4.62978e-07
4.42055e-06
5.17761e-07
4.12153e-06
6.28402e-07
3.81809e-06
7.67297e-07
3.51185e-06
8.99582e-07
3.18194e-06
1.0014e-06
2.82758e-06
1.07597e-06
2.49625e-06
1.16684e-06
2.28325e-06
1.31649e-06
1.96389e-06
1.47846e-06
1.46755e-06
1.56451e-06
9.01638e-07
1.50456e-06
2.00387e-07
1.224e-06
-6.54935e-07
7.33862e-07
-1.63822e-06
4.73133e-08
-2.73043e-06
-7.64983e-07
-4.00781e-06
-1.59746e-06
-5.25861e-06
-2.25724e-06
-6.48487e-06
-2.6013e-06
-7.40861e-06
-2.5043e-06
-7.84376e-06
-1.96362e-06
-7.51253e-06
-1.12879e-06
-6.22099e-06
-3.35899e-07
-3.98006e-06
-1.28764e-06
2.58435e-08
2.95522e-07
1.00416e-07
9.92003e-07
2.19146e-07
1.847e-06
3.6845e-07
2.77714e-06
5.29699e-07
3.63521e-06
6.85827e-07
4.25843e-06
8.29762e-07
4.54701e-06
9.67466e-07
4.51419e-06
1.11992e-06
4.2681e-06
1.30585e-06
3.9356e-06
1.52561e-06
3.59833e-06
1.75887e-06
3.27859e-06
1.97545e-06
2.96537e-06
2.15038e-06
2.65265e-06
2.27973e-06
2.3669e-06
2.39936e-06
2.16362e-06
2.54621e-06
1.81704e-06
2.68605e-06
1.32771e-06
2.75888e-06
8.28815e-07
2.71436e-06
2.44907e-07
2.51677e-06
-4.57351e-07
2.16655e-06
-1.288e-06
1.68205e-06
-2.24594e-06
1.00458e-06
-3.33034e-06
2.01479e-07
-4.45551e-06
-6.50082e-07
-5.63331e-06
-1.36654e-06
-6.69216e-06
-1.72262e-06
-7.48768e-06
-1.60561e-06
-7.62954e-06
-1.06029e-06
-6.76631e-06
-3.61981e-07
-4.67836e-06
-1.64962e-06
9.86629e-09
2.85655e-07
4.98845e-08
9.51985e-07
1.37379e-07
1.7595e-06
2.81535e-07
2.63299e-06
4.81054e-07
3.4357e-06
7.26937e-07
4.01254e-06
1.00367e-06
4.27028e-06
1.2935e-06
4.22437e-06
1.58807e-06
3.97352e-06
1.88799e-06
3.63568e-06
2.19202e-06
3.2943e-06
2.48918e-06
2.98142e-06
2.76096e-06
2.6936e-06
2.99077e-06
2.42283e-06
3.17684e-06
2.18083e-06
3.34735e-06
1.9931e-06
3.5201e-06
1.64429e-06
3.6636e-06
1.18421e-06
3.73956e-06
7.52854e-07
3.71271e-06
2.71752e-07
3.56121e-06
-3.05852e-07
3.27642e-06
-1.00321e-06
2.85321e-06
-1.82273e-06
2.27718e-06
-2.7543e-06
1.57632e-06
-3.75466e-06
7.34452e-07
-4.79144e-06
-1.45855e-07
-5.81185e-06
-8.80299e-07
-6.75323e-06
-1.17504e-06
-7.3348e-06
-9.52528e-07
-6.98882e-06
-3.90964e-07
-5.23993e-06
-2.04059e-06
-2.10012e-08
3.06656e-07
-4.47846e-08
9.75768e-07
-1.4591e-08
1.72931e-06
1.1151e-07
2.50688e-06
3.42404e-07
3.2048e-06
6.69957e-07
3.68499e-06
1.06577e-06
3.87446e-06
1.48716e-06
3.80298e-06
1.9024e-06
3.55828e-06
2.2984e-06
3.23968e-06
2.67288e-06
2.91983e-06
3.02386e-06
2.63044e-06
3.34554e-06
2.37192e-06
3.63207e-06
2.13631e-06
3.88611e-06
1.92679e-06
4.12848e-06
1.75073e-06
4.35382e-06
1.41895e-06
4.52906e-06
1.00897e-06
4.6331e-06
6.48815e-07
4.64303e-06
2.6182e-07
4.54044e-06
-2.03258e-07
4.30893e-06
-7.71698e-07
3.93207e-06
-1.44587e-06
3.39713e-06
-2.21937e-06
2.71116e-06
-3.06869e-06
1.88918e-06
-3.96946e-06
9.73092e-07
-4.89576e-06
3.97869e-08
-5.81993e-06
-6.56284e-07
-6.63873e-06
-7.89824e-07
-6.85528e-06
-4.14956e-07
-5.6148e-06
-2.45554e-06
-7.74167e-08
3.84073e-07
-1.94026e-07
1.09238e-06
-2.33142e-07
1.76842e-06
-1.18453e-07
2.3922e-06
1.55994e-07
2.93035e-06
5.71264e-07
3.26972e-06
1.07629e-06
3.36943e-06
1.60822e-06
3.27105e-06
2.12303e-06
3.04346e-06
2.60245e-06
2.76025e-06
3.04578e-06
2.4765e-06
3.45798e-06
2.21824e-06
3.84224e-06
1.98766e-06
4.19973e-06
1.77882e-06
4.53465e-06
1.59187e-06
4.85902e-06
1.42636e-06
5.14556e-06
1.13241e-06
5.36154e-06
7.92988e-07
5.50122e-06
5.09128e-07
5.5519e-06
2.11142e-07
5.49571e-06
-1.47068e-07
5.31058e-06
-5.86562e-07
4.97409e-06
-1.10938e-06
4.46846e-06
-1.71373e-06
3.78988e-06
-2.39011e-06
2.95029e-06
-3.12987e-06
1.9838e-06
-3.92927e-06
9.5533e-07
-4.79146e-06
2.48884e-10
-5.68365e-06
-5.38722e-07
-6.31631e-06
-4.15188e-07
-5.73833e-06
-2.87073e-06
-1.73363e-07
5.57436e-07
-3.97348e-07
1.31636e-06
-4.80333e-07
1.85141e-06
-3.46901e-07
2.25876e-06
2.49618e-09
2.58096e-06
5.18944e-07
2.75327e-06
1.12669e-06
2.76168e-06
1.75434e-06
2.6434e-06
2.35781e-06
2.44e-06
2.92006e-06
2.198e-06
3.44186e-06
1.9547e-06
3.93027e-06
1.72983e-06
4.39078e-06
1.52714e-06
4.82557e-06
1.34403e-06
5.23678e-06
1.18066e-06
5.62806e-06
1.03508e-06
5.95786e-06
8.02611e-07
6.19959e-06
5.51265e-07
6.36117e-06
3.47544e-07
6.43753e-06
1.34787e-07
6.41123e-06
-1.20773e-07
6.25818e-06
-4.33507e-07
5.95488e-06
-8.06077e-07
5.48045e-06
-1.2393e-06
4.82255e-06
-1.73221e-06
3.98197e-06
-2.2893e-06
2.97908e-06
-2.92637e-06
1.86107e-06
-3.67346e-06
7.28603e-07
-4.55118e-06
-1.5837e-07
-5.42934e-06
-3.63862e-07
-5.53284e-06
-3.23459e-06
-3.06913e-07
8.64349e-07
-6.10984e-07
1.62043e-06
-6.56034e-07
1.89646e-06
-4.28068e-07
2.0308e-06
4.19814e-08
2.11091e-06
6.79829e-07
2.11543e-06
1.38738e-06
2.05414e-06
2.10459e-06
1.92619e-06
2.79444e-06
1.75015e-06
3.44108e-06
1.55135e-06
4.04275e-06
1.35303e-06
4.60301e-06
1.16957e-06
5.12458e-06
1.00557e-06
5.60788e-06
8.60737e-07
6.05334e-06
7.35201e-07
6.46115e-06
6.27268e-07
6.78896e-06
4.74802e-07
7.0216e-06
3.18626e-07
7.17617e-06
1.92974e-07
7.2514e-06
5.95598e-08
7.23155e-06
-1.00926e-07
7.0946e-06
-2.96558e-07
6.81929e-06
-5.30765e-07
6.38467e-06
-8.04681e-07
5.77311e-06
-1.12065e-06
4.97317e-06
-1.48936e-06
3.98462e-06
-1.93782e-06
2.82818e-06
-2.51702e-06
1.57115e-06
-3.29414e-06
3.99192e-07
-4.25739e-06
-2.19187e-07
-4.91446e-06
-3.45378e-06
-4.46058e-07
1.31041e-06
-6.67754e-07
1.84213e-06
-4.85544e-07
1.71425e-06
-2.3814e-08
1.56907e-06
6.24307e-07
1.46279e-06
1.37252e-06
1.36721e-06
2.16332e-06
1.26334e-06
2.9485e-06
1.14102e-06
3.69582e-06
1.00283e-06
4.38804e-06
8.59139e-07
5.01893e-06
7.22137e-07
5.5883e-06
6.00202e-07
6.09785e-06
4.96021e-07
6.54971e-06
4.08881e-07
6.94739e-06
3.37522e-07
7.29451e-06
2.80141e-07
7.56133e-06
2.07979e-07
7.74408e-06
1.3588e-07
7.86097e-06
7.60853e-08
7.91057e-06
9.95837e-09
7.88e-06
-7.03499e-08
7.75196e-06
-1.68521e-07
7.50866e-06
-2.87465e-07
7.13157e-06
-4.2759e-07
6.6021e-06
-5.91184e-07
5.90085e-06
-7.88108e-07
5.00715e-06
-1.04411e-06
3.90259e-06
-1.41246e-06
2.59184e-06
-1.98339e-06
1.18749e-06
-2.85303e-06
1.15176e-07
-3.84215e-06
-3.3386e-06
-3.90638e-07
1.70105e-06
-5.77865e-09
1.45727e-06
7.17703e-07
9.90766e-07
1.48348e-06
8.0329e-07
2.27305e-06
6.73224e-07
3.07465e-06
5.65604e-07
3.86027e-06
4.77721e-07
4.60157e-06
3.99713e-07
5.27711e-06
3.27283e-07
5.87467e-06
2.61586e-07
6.39141e-06
2.0539e-07
6.83146e-06
1.60152e-07
7.20233e-06
1.25151e-07
7.51266e-06
9.85555e-08
7.77158e-06
7.86004e-08
7.98766e-06
6.40645e-08
8.14823e-06
4.74108e-08
8.25423e-06
2.98717e-08
8.31676e-06
1.35563e-08
8.33229e-06
-5.57058e-09
8.29131e-06
-2.9369e-08
8.18209e-06
-5.92993e-08
7.99093e-06
-9.63072e-08
7.7037e-06
-1.40362e-07
7.30503e-06
-1.92512e-07
6.77466e-06
-2.57737e-07
6.08078e-06
-3.50235e-07
5.17145e-06
-5.03132e-07
3.97083e-06
-7.82772e-07
2.41902e-06
-1.30122e-06
7.4612e-07
-2.16926e-06
-2.59248e-06
1.70105e-06
3.15832e-06
4.14908e-06
4.95237e-06
5.6256e-06
6.1912e-06
6.66892e-06
7.06863e-06
7.39592e-06
7.6575e-06
7.86289e-06
8.02304e-06
8.1482e-06
8.24675e-06
8.32535e-06
8.38942e-06
8.43683e-06
8.4667e-06
8.48026e-06
8.47468e-06
8.44532e-06
8.38602e-06
8.28971e-06
8.14935e-06
7.95684e-06
7.6991e-06
7.34886e-06
6.84573e-06
6.06296e-06
4.76174e-06
2.59248e-06
)
;

boundaryField
{
    movingWall
    {
        type            calculated;
        value           uniform 0;
    }
    fixedWalls
    {
        type            calculated;
        value           uniform 0;
    }
    floor
    {
        type            calculated;
        value           uniform 0;
    }
    frontAndBack
    {
        type            empty;
        value           nonuniform List<scalar> 0();
    }
}


// ************************************************************************* //
