/*--------------------------------*- C++ -*----------------------------------*\
| =========                 |                                                 |
| \\      /  F ield         | OpenFOAM: The Open Source CFD Toolbox           |
|  \\    /   O peration     | Version:  2212                                  |
|   \\  /    A nd           | Website:  www.openfoam.com                      |
|    \\/     M anipulation  |                                                 |
\*---------------------------------------------------------------------------*/
FoamFile
{
    version     2.0;
    format      ascii;
    arch        "LSB;label=64;scalar=64";
    class       volScalarField;
    location    "860";
    object      Saa;
}
// * * * * * * * * * * * * * * * * * * * * * * * * * * * * * * * * * * * * * //

dimensions      [1 -3 0 0 0 0 0];

internalField   nonuniform List<scalar> 
1024
(
0.00546942
0.00546947
0.00546959
0.0054698
0.00547011
0.00547054
0.00547105
0.00547162
0.00547221
0.00547276
0.00547324
0.00547361
0.00547386
0.00547395
0.00547385
0.00547352
0.00547296
0.00547226
0.00547152
0.00547076
0.00546995
0.0054691
0.00546822
0.00546733
0.00546649
0.00546576
0.00546517
0.00546473
0.00546442
0.00546422
0.00546411
0.00546407
0.00546942
0.00546947
0.0054696
0.00546981
0.00547014
0.00547057
0.00547109
0.00547167
0.00547225
0.00547281
0.00547329
0.00547367
0.00547391
0.005474
0.00547389
0.00547356
0.005473
0.0054723
0.00547157
0.0054708
0.00547
0.00546916
0.00546827
0.00546738
0.00546654
0.0054658
0.0054652
0.00546475
0.00546444
0.00546424
0.00546413
0.00546408
0.00546944
0.00546949
0.00546962
0.00546984
0.00547018
0.00547063
0.00547116
0.00547175
0.00547234
0.00547291
0.00547341
0.00547379
0.00547403
0.00547411
0.00547399
0.00547365
0.00547308
0.00547238
0.00547165
0.00547089
0.0054701
0.00546926
0.00546839
0.0054675
0.00546665
0.00546589
0.00546528
0.00546481
0.00546448
0.00546427
0.00546416
0.00546411
0.00546946
0.00546951
0.00546965
0.00546988
0.00547024
0.0054707
0.00547125
0.00547186
0.00547248
0.00547308
0.00547362
0.00547402
0.00547425
0.00547431
0.00547416
0.00547379
0.00547319
0.00547249
0.00547176
0.00547101
0.00547024
0.00546942
0.00546856
0.00546767
0.00546681
0.00546604
0.0054654
0.0054649
0.00546456
0.00546433
0.00546421
0.00546416
0.00546948
0.00546954
0.00546968
0.00546992
0.00547029
0.00547077
0.00547134
0.00547198
0.00547265
0.00547332
0.00547393
0.00547437
0.0054746
0.00547461
0.00547441
0.00547397
0.00547333
0.00547261
0.00547188
0.00547114
0.00547039
0.0054696
0.00546877
0.0054679
0.00546703
0.00546624
0.00546556
0.00546504
0.00546466
0.00546442
0.00546429
0.00546424
0.00546951
0.00546956
0.0054697
0.00546995
0.00547032
0.00547082
0.00547142
0.00547211
0.00547286
0.00547363
0.00547433
0.00547484
0.00547507
0.00547503
0.00547473
0.00547419
0.00547347
0.00547271
0.00547197
0.00547125
0.00547053
0.00546978
0.00546898
0.00546814
0.00546728
0.00546647
0.00546576
0.0054652
0.0054648
0.00546454
0.0054644
0.00546434
0.00546952
0.00546958
0.00546972
0.00546996
0.00547034
0.00547084
0.00547148
0.00547223
0.00547308
0.00547397
0.00547481
0.0054754
0.00547564
0.00547552
0.0054751
0.00547441
0.00547357
0.00547274
0.00547198
0.00547128
0.00547059
0.00546989
0.00546915
0.00546834
0.00546751
0.00546669
0.00546596
0.00546537
0.00546495
0.00546467
0.00546452
0.00546446
0.00546953
0.00546958
0.00546972
0.00546995
0.00547032
0.00547084
0.0054715
0.00547232
0.00547329
0.00547433
0.00547532
0.005476
0.00547624
0.00547603
0.00547544
0.00547455
0.00547355
0.00547263
0.00547185
0.00547117
0.00547053
0.00546989
0.00546921
0.00546847
0.00546767
0.00546687
0.00546613
0.00546553
0.00546509
0.0054648
0.00546464
0.00546458
0.00546952
0.00546957
0.0054697
0.00546992
0.00547028
0.0054708
0.0054715
0.00547239
0.00547348
0.0054747
0.00547584
0.00547661
0.00547682
0.00547647
0.00547565
0.00547452
0.00547332
0.0054723
0.0054715
0.00547085
0.00547028
0.00546972
0.00546912
0.00546844
0.0054677
0.00546694
0.00546623
0.00546563
0.00546519
0.0054649
0.00546474
0.00546468
0.00546952
0.00546956
0.00546968
0.00546989
0.00547023
0.00547075
0.00547148
0.00547246
0.0054737
0.0054751
0.00547638
0.00547719
0.00547731
0.00547674
0.00547564
0.0054742
0.00547276
0.00547164
0.00547085
0.00547026
0.00546977
0.00546931
0.00546881
0.00546823
0.00546757
0.00546687
0.00546621
0.00546565
0.00546523
0.00546495
0.0054648
0.00546474
0.00546955
0.00546959
0.0054697
0.0054699
0.00547023
0.00547076
0.00547153
0.00547263
0.00547403
0.00547561
0.00547699
0.00547775
0.00547767
0.0054768
0.00547533
0.00547353
0.00547182
0.00547059
0.00546982
0.00546932
0.00546896
0.00546864
0.00546826
0.0054678
0.00546724
0.00546664
0.00546606
0.00546556
0.00546518
0.00546493
0.00546478
0.00546472
0.00546972
0.00546975
0.00546985
0.00547004
0.00547039
0.00547095
0.00547181
0.00547304
0.00547462
0.00547632
0.0054777
0.00547831
0.00547792
0.00547666
0.00547477
0.00547256
0.00547052
0.00546918
0.00546844
0.00546806
0.00546785
0.00546768
0.00546746
0.00546713
0.0054667
0.00546622
0.00546574
0.00546533
0.00546501
0.00546479
0.00546466
0.00546461
0.00547018
0.00547021
0.00547031
0.00547052
0.0054709
0.00547154
0.00547253
0.00547391
0.00547562
0.00547733
0.00547856
0.00547887
0.00547812
0.00547646
0.00547417
0.00547154
0.00546913
0.0054676
0.00546685
0.00546657
0.0054665
0.00546649
0.00546643
0.00546625
0.00546596
0.00546562
0.00546526
0.00546494
0.00546469
0.00546451
0.00546439
0.00546433
0.00547114
0.00547117
0.00547128
0.00547152
0.00547197
0.00547272
0.00547385
0.00547535
0.00547706
0.00547862
0.00547955
0.00547949
0.0054784
0.00547647
0.00547394
0.00547099
0.0054682
0.00546634
0.00546544
0.00546512
0.00546511
0.00546519
0.00546524
0.0054652
0.00546506
0.00546485
0.00546461
0.00546437
0.00546416
0.005464
0.00546389
0.00546384
0.00547267
0.00547272
0.00547285
0.00547314
0.00547366
0.00547451
0.00547572
0.00547723
0.0054788
0.00548006
0.00548062
0.00548027
0.00547908
0.0054772
0.00547473
0.00547173
0.00546865
0.00546635
0.00546499
0.00546431
0.00546403
0.00546394
0.00546392
0.00546388
0.0054638
0.00546367
0.00546353
0.00546338
0.00546327
0.00546319
0.00546315
0.00546313
0.00547463
0.00547469
0.00547484
0.00547517
0.00547574
0.00547662
0.00547782
0.00547921
0.00548055
0.0054815
0.00548182
0.00548149
0.00548062
0.00547928
0.00547743
0.00547494
0.00547208
0.00546955
0.00546767
0.0054663
0.00546532
0.00546459
0.00546406
0.00546369
0.00546347
0.0054634
0.00546346
0.00546361
0.00546382
0.00546402
0.00546418
0.00546426
0.00547645
0.00547651
0.00547667
0.005477
0.00547757
0.00547842
0.00547952
0.00548075
0.00548189
0.0054827
0.00548309
0.00548312
0.00548293
0.00548259
0.00548202
0.00548106
0.00547974
0.00547842
0.00547735
0.00547649
0.0054758
0.00547518
0.00547463
0.00547413
0.00547371
0.00547338
0.00547318
0.0054731
0.00547313
0.00547323
0.00547333
0.0054734
0.00547759
0.00547764
0.00547779
0.00547808
0.00547858
0.00547931
0.00548026
0.00548132
0.00548234
0.00548316
0.00548369
0.00548401
0.00548429
0.00548468
0.00548522
0.00548588
0.00548658
0.00548725
0.00548793
0.00548858
0.00548914
0.00548955
0.00548977
0.00548977
0.00548955
0.00548914
0.0054886
0.005488
0.00548746
0.00548705
0.00548682
0.00548672
0.00547824
0.00547828
0.00547841
0.00547866
0.00547909
0.00547971
0.00548053
0.00548145
0.00548237
0.00548314
0.00548369
0.00548407
0.00548441
0.00548491
0.00548573
0.00548695
0.00548852
0.00549013
0.0054916
0.0054929
0.00549402
0.00549494
0.00549566
0.00549615
0.00549641
0.00549644
0.00549625
0.0054959
0.00549548
0.00549509
0.00549482
0.00549469
0.00547859
0.00547863
0.00547874
0.00547896
0.00547932
0.00547985
0.00548055
0.00548136
0.00548219
0.00548291
0.00548345
0.00548381
0.00548411
0.00548451
0.00548519
0.00548632
0.00548791
0.00548963
0.0054912
0.00549256
0.00549373
0.00549473
0.00549559
0.00549632
0.0054969
0.00549733
0.0054976
0.0054977
0.00549769
0.0054976
0.0054975
0.00549744
0.00547875
0.00547879
0.00547889
0.00547908
0.00547939
0.00547984
0.00548044
0.00548115
0.00548189
0.00548256
0.0054831
0.00548348
0.00548376
0.0054841
0.00548463
0.00548554
0.00548687
0.00548839
0.00548985
0.00549117
0.00549237
0.0054935
0.00549456
0.00549553
0.00549638
0.00549707
0.00549757
0.0054979
0.00549808
0.00549815
0.00549816
0.00549815
0.00547882
0.00547885
0.00547894
0.0054791
0.00547936
0.00547975
0.00548026
0.00548087
0.00548154
0.00548217
0.00548271
0.00548315
0.0054835
0.00548387
0.00548438
0.00548516
0.00548626
0.00548755
0.00548882
0.00549005
0.00549124
0.00549244
0.00549364
0.0054948
0.00549587
0.00549677
0.00549747
0.00549795
0.00549824
0.00549838
0.00549843
0.00549844
0.00547887
0.00547889
0.00547896
0.00547909
0.0054793
0.00547962
0.00548006
0.0054806
0.0054812
0.00548181
0.00548239
0.00548292
0.00548341
0.00548391
0.00548451
0.00548529
0.00548627
0.00548736
0.00548847
0.00548957
0.0054907
0.00549187
0.00549308
0.00549431
0.00549548
0.00549652
0.00549737
0.00549798
0.00549837
0.00549857
0.00549866
0.00549868
0.00547902
0.00547903
0.00547906
0.00547914
0.0054793
0.00547956
0.00547993
0.00548041
0.00548098
0.00548161
0.00548227
0.00548294
0.00548361
0.0054843
0.00548505
0.0054859
0.00548684
0.00548781
0.00548877
0.00548974
0.00549075
0.00549182
0.00549296
0.00549414
0.00549531
0.00549639
0.00549731
0.00549802
0.00549849
0.00549875
0.00549886
0.00549889
0.00547944
0.00547942
0.00547939
0.00547939
0.00547948
0.00547967
0.00548
0.00548046
0.00548106
0.00548176
0.00548255
0.00548338
0.00548424
0.00548511
0.00548601
0.00548695
0.00548788
0.00548876
0.00548959
0.00549042
0.00549129
0.00549222
0.00549323
0.00549428
0.00549536
0.0054964
0.00549733
0.00549808
0.00549861
0.00549892
0.00549906
0.00549909
0.00548027
0.0054802
0.0054801
0.00548002
0.00548003
0.00548018
0.0054805
0.005481
0.00548167
0.00548248
0.0054834
0.00548438
0.00548539
0.00548639
0.00548739
0.00548836
0.00548927
0.00549007
0.00549078
0.00549147
0.00549219
0.00549296
0.0054938
0.0054947
0.00549563
0.00549657
0.00549744
0.00549818
0.00549873
0.00549907
0.00549923
0.00549928
0.00548161
0.00548149
0.00548133
0.0054812
0.00548118
0.00548133
0.00548169
0.00548226
0.00548303
0.00548394
0.00548495
0.00548601
0.00548708
0.00548811
0.00548911
0.00549006
0.00549091
0.00549161
0.0054922
0.00549276
0.00549333
0.00549394
0.0054946
0.00549532
0.00549609
0.00549687
0.00549764
0.00549832
0.00549886
0.00549921
0.00549939
0.00549944
0.00548351
0.00548336
0.00548318
0.00548308
0.00548311
0.00548333
0.00548376
0.0054844
0.00548521
0.00548615
0.00548716
0.00548819
0.0054892
0.00549018
0.00549109
0.00549194
0.00549267
0.00549326
0.00549374
0.00549418
0.00549461
0.00549507
0.00549556
0.0054961
0.00549669
0.00549731
0.00549793
0.00549852
0.005499
0.00549935
0.00549953
0.00549959
0.00548599
0.00548585
0.00548575
0.00548577
0.00548593
0.00548624
0.00548673
0.00548736
0.00548813
0.00548898
0.00548987
0.00549076
0.00549162
0.00549244
0.00549319
0.00549388
0.00549447
0.00549493
0.0054953
0.00549562
0.00549593
0.00549625
0.0054966
0.00549698
0.0054974
0.00549785
0.00549831
0.00549877
0.00549918
0.00549948
0.00549965
0.00549971
0.00548909
0.00548902
0.0054891
0.00548929
0.00548956
0.00548991
0.00549036
0.00549089
0.0054915
0.00549216
0.00549284
0.00549351
0.00549415
0.00549475
0.0054953
0.0054958
0.00549622
0.00549654
0.00549679
0.00549701
0.00549721
0.00549742
0.00549765
0.00549789
0.00549816
0.00549845
0.00549876
0.00549908
0.00549938
0.00549962
0.00549976
0.00549982
0.00549288
0.00549296
0.00549319
0.00549344
0.0054937
0.00549398
0.00549429
0.00549464
0.00549502
0.00549542
0.00549583
0.00549624
0.00549662
0.00549698
0.00549731
0.0054976
0.00549784
0.00549803
0.00549818
0.0054983
0.00549841
0.00549853
0.00549865
0.00549878
0.00549893
0.00549909
0.00549926
0.00549944
0.00549961
0.00549976
0.00549986
0.0054999
0.00549751
0.00549758
0.0054977
0.00549782
0.00549793
0.00549803
0.00549814
0.00549826
0.00549839
0.00549852
0.00549866
0.00549879
0.00549891
0.00549903
0.00549914
0.00549923
0.00549931
0.00549937
0.00549942
0.00549946
0.00549949
0.00549953
0.00549957
0.00549961
0.00549965
0.0054997
0.00549976
0.00549981
0.00549987
0.00549992
0.00549995
0.00549997
)
;

boundaryField
{
    movingWall
    {
        type            fixedValue;
        value           uniform 0.0055;
    }
    fixedWalls
    {
        type            zeroGradient;
    }
    floor
    {
        type            zeroGradient;
    }
    frontAndBack
    {
        type            empty;
    }
}


// ************************************************************************* //
