/*--------------------------------*- C++ -*----------------------------------*\
| =========                 |                                                 |
| \\      /  F ield         | OpenFOAM: The Open Source CFD Toolbox           |
|  \\    /   O peration     | Version:  2212                                  |
|   \\  /    A nd           | Website:  www.openfoam.com                      |
|    \\/     M anipulation  |                                                 |
\*---------------------------------------------------------------------------*/
FoamFile
{
    version     2.0;
    format      ascii;
    arch        "LSB;label=64;scalar=64";
    class       volScalarField;
    location    "860";
    object      Sch4;
}
// * * * * * * * * * * * * * * * * * * * * * * * * * * * * * * * * * * * * * //

dimensions      [1 -3 0 0 0 0 0];

internalField   nonuniform List<scalar> 
1024
(
0.0369178
0.0369367
0.0369826
0.0370639
0.0371867
0.037352
0.0375533
0.0377775
0.0380081
0.0382292
0.0384253
0.0385811
0.0386873
0.0387349
0.0387117
0.0386024
0.0384042
0.0381529
0.0378833
0.0376014
0.0373065
0.0369965
0.0366751
0.0363553
0.0360567
0.035797
0.0355871
0.0354295
0.0353201
0.0352508
0.0352125
0.0351969
0.0369203
0.0369398
0.0369871
0.0370707
0.0371966
0.0373651
0.0375693
0.0377953
0.0380273
0.0382496
0.0384472
0.0386033
0.0387089
0.0387554
0.038731
0.0386206
0.0384215
0.03817
0.0379006
0.0376195
0.0373256
0.0370166
0.0366957
0.0363752
0.0360746
0.035812
0.0355989
0.0354386
0.035327
0.0352564
0.0352174
0.0352015
0.036926
0.0369464
0.0369959
0.0370832
0.0372142
0.0373884
0.0375977
0.0378285
0.0380657
0.0382946
0.0384991
0.0386584
0.0387631
0.0388058
0.0387763
0.0386608
0.038458
0.0382049
0.0379355
0.0376559
0.0373646
0.0370584
0.0367392
0.036418
0.0361137
0.0358453
0.0356257
0.0354593
0.0353432
0.0352696
0.0352291
0.0352126
0.0369345
0.0369558
0.0370077
0.0370992
0.0372359
0.0374169
0.0376339
0.0378738
0.0381231
0.0383682
0.0385895
0.0387581
0.0388622
0.038897
0.0388554
0.038727
0.038514
0.0382557
0.0379854
0.0377078
0.0374208
0.0371199
0.0368047
0.036484
0.0361754
0.0358988
0.0356693
0.0354937
0.0353705
0.0352922
0.0352491
0.0352316
0.0369446
0.0369666
0.0370202
0.037115
0.0372569
0.0374452
0.0376723
0.0379271
0.0381981
0.0384721
0.0387236
0.0389109
0.0390168
0.0390385
0.0389749
0.0388216
0.038588
0.0383181
0.0380439
0.0377681
0.037487
0.0371942
0.0368863
0.0365686
0.0362568
0.0359712
0.0357297
0.0355423
0.0354095
0.0353249
0.0352785
0.0352597
0.0369545
0.0369767
0.0370309
0.0371273
0.0372727
0.0374679
0.0377076
0.0379834
0.0382868
0.0386037
0.0388999
0.0391179
0.0392299
0.039234
0.0391367
0.0389429
0.0386743
0.0383833
0.0381007
0.0378255
0.0375512
0.037269
0.036972
0.0366611
0.0363491
0.036056
0.0358025
0.0356022
0.0354588
0.0353669
0.0353165
0.0352962
0.0369621
0.0369839
0.0370375
0.0371333
0.0372799
0.0374809
0.0377346
0.0380369
0.0383821
0.0387547
0.0391089
0.0393692
0.0394926
0.039475
0.0393318
0.0390803
0.0387598
0.0384366
0.0381399
0.0378635
0.0375968
0.0373275
0.0370449
0.0367454
0.0364378
0.0361412
0.0358785
0.035667
0.0355135
0.0354147
0.0353605
0.0353389
0.0369659
0.0369869
0.0370385
0.0371316
0.0372769
0.0374816
0.0377495
0.0380818
0.038476
0.0389143
0.0393365
0.039647
0.0397837
0.0397385
0.0395363
0.0392096
0.0388203
0.0384543
0.0381391
0.0378609
0.0376032
0.0373496
0.037085
0.0368016
0.0365041
0.0362103
0.0359441
0.035726
0.035566
0.0354624
0.0354056
0.0353829
0.0369659
0.0369857
0.0370342
0.037123
0.0372645
0.0374707
0.0377521
0.0381166
0.038566
0.0390778
0.0395729
0.0399326
0.0400753
0.0399899
0.039712
0.0392918
0.0388185
0.0384023
0.0380678
0.0377905
0.0375464
0.0373131
0.0370715
0.0368095
0.0365287
0.0362454
0.0359841
0.0357672
0.0356066
0.035502
0.0354444
0.0354214
0.0369666
0.0369846
0.0370295
0.037113
0.0372496
0.0374564
0.0377514
0.038152
0.0386645
0.0392558
0.0398213
0.0402163
0.0403438
0.040194
0.0398167
0.0392813
0.038709
0.0382391
0.03789
0.0376218
0.0374003
0.0371959
0.0369844
0.0367506
0.0364944
0.036231
0.0359848
0.0357786
0.035625
0.0355244
0.0354684
0.0354458
0.036983
0.0369989
0.0370399
0.0371188
0.0372525
0.0374633
0.0377781
0.0382238
0.0388079
0.0394783
0.0400991
0.0405007
0.0405778
0.0403292
0.0398221
0.0391456
0.038456
0.0379296
0.037574
0.0373277
0.0371421
0.0369786
0.0368073
0.0366109
0.0363887
0.0361558
0.0359359
0.0357507
0.0356118
0.0355198
0.0354676
0.0354458
0.0370505
0.0370645
0.0371027
0.0371803
0.0373182
0.0375444
0.0378934
0.0383973
0.0390555
0.0397893
0.0404314
0.0407959
0.0407805
0.0404002
0.0397376
0.0388947
0.0380642
0.0374711
0.0371131
0.0368995
0.0367629
0.0366523
0.036532
0.0363829
0.0362051
0.0360137
0.0358308
0.0356754
0.0355573
0.0354771
0.0354298
0.035409
0.0372321
0.0372453
0.0372843
0.0373675
0.0375212
0.0377796
0.0381808
0.0387517
0.0394706
0.0402277
0.0408358
0.0411117
0.0409725
0.0404515
0.0396339
0.0386164
0.0376196
0.0369301
0.0365543
0.0363685
0.0362814
0.0362277
0.0361639
0.0360691
0.0359437
0.0358023
0.0356636
0.035543
0.0354481
0.0353804
0.0353379
0.0353181
0.0376011
0.0376161
0.0376613
0.0377593
0.0379416
0.0382457
0.0387065
0.0393331
0.0400734
0.0407926
0.041306
0.0414597
0.0412065
0.0405895
0.0396703
0.0385126
0.0373404
0.0365004
0.0360436
0.0358355
0.0357624
0.0357442
0.0357284
0.0356881
0.035619
0.03553
0.0354344
0.0353441
0.0352675
0.0352089
0.0351704
0.0351519
0.0381903
0.0382093
0.0382651
0.0383839
0.0385995
0.0389478
0.0394519
0.0400961
0.0408023
0.0414283
0.0418189
0.0418765
0.041594
0.0410035
0.0401136
0.0389271
0.0376265
0.0365876
0.0359337
0.0355667
0.0353782
0.0352869
0.0352388
0.0351998
0.0351545
0.0351011
0.035046
0.0349981
0.0349638
0.0349438
0.0349351
0.0349325
0.0389368
0.0389598
0.0390258
0.0391624
0.0394024
0.0397746
0.0402868
0.0409028
0.0415326
0.0420535
0.0423662
0.0424388
0.0422937
0.0419384
0.0413246
0.0403853
0.0392018
0.038091
0.0372279
0.0365806
0.0361012
0.0357363
0.0354676
0.0352839
0.0351795
0.0351496
0.0351852
0.0352701
0.0353796
0.0354856
0.0355652
0.0356058
0.0396151
0.0396404
0.039711
0.0398533
0.0400957
0.0404587
0.0409388
0.041494
0.0420462
0.0425104
0.0428418
0.0430568
0.0432015
0.0432895
0.0432718
0.0430642
0.0426397
0.0421445
0.0417164
0.0413611
0.0410641
0.0407925
0.040542
0.0403131
0.0401146
0.0399595
0.0398605
0.0398225
0.0398369
0.039882
0.0399307
0.039961
0.0400127
0.0400361
0.0400999
0.0402259
0.0404368
0.0407473
0.0411529
0.0416221
0.0420995
0.0425272
0.0428791
0.0431848
0.043513
0.0439244
0.0444355
0.0450205
0.0456023
0.0461225
0.0465996
0.0470359
0.0474096
0.0476932
0.0478654
0.0479129
0.0478347
0.0476448
0.0473747
0.0470717
0.0467913
0.0465797
0.046455
0.0464059
0.0402099
0.0402309
0.0402866
0.0403941
0.0405713
0.0408303
0.0411678
0.0415596
0.0419626
0.0423305
0.04264
0.0429138
0.0432199
0.0436451
0.0442647
0.0451266
0.0461672
0.0471988
0.0481304
0.0489671
0.0497065
0.0503393
0.0508509
0.0512246
0.0514465
0.0515127
0.0514364
0.051253
0.0510187
0.0507979
0.0506408
0.0505669
0.0402923
0.0403114
0.0403601
0.0404515
0.0405999
0.0408149
0.0410949
0.0414214
0.0417603
0.0420725
0.042334
0.0425562
0.0427927
0.0431268
0.0436501
0.0444462
0.0454972
0.0466035
0.0476173
0.0485285
0.0493514
0.0501023
0.050782
0.0513754
0.0518589
0.0522116
0.0524249
0.0525086
0.0524919
0.0524199
0.0523424
0.0522965
0.0403088
0.0403261
0.0403689
0.0404472
0.0405719
0.0407508
0.0409835
0.0412565
0.0415437
0.0418135
0.0420441
0.0422395
0.0424384
0.0427094
0.0431351
0.0437995
0.0447108
0.045712
0.0466656
0.0475609
0.0484189
0.0492653
0.0500994
0.0508914
0.0515961
0.0521692
0.0525856
0.0528455
0.052972
0.0530044
0.0529894
0.0529693
0.0402962
0.0403109
0.0403469
0.0404126
0.0405168
0.0406658
0.0408601
0.0410907
0.0413394
0.041584
0.0418086
0.042015
0.0422304
0.0425059
0.0429045
0.0434911
0.0442738
0.045141
0.0459934
0.0468293
0.0476739
0.0485558
0.049476
0.0504014
0.0512751
0.0520305
0.0526184
0.0530209
0.0532525
0.0533528
0.0533736
0.0533659
0.0403029
0.0403114
0.0403353
0.0403836
0.0404653
0.040587
0.0407503
0.0409508
0.0411787
0.0414221
0.0416727
0.041932
0.0422172
0.0425609
0.0430031
0.0435831
0.0442931
0.0450528
0.0458055
0.0465644
0.0473562
0.0482075
0.0491246
0.0500842
0.0510348
0.0519033
0.0526211
0.0531461
0.0534741
0.0536366
0.0536878
0.0536886
0.040403
0.0403988
0.0403994
0.040418
0.0404682
0.0405604
0.0407001
0.040888
0.0411225
0.0413999
0.0417161
0.0420694
0.0424651
0.0429171
0.0434432
0.0440601
0.0447415
0.0454249
0.0460886
0.0467615
0.0474744
0.0482523
0.049104
0.0500176
0.0509551
0.0518541
0.0526415
0.0532544
0.0536643
0.0538855
0.0539673
0.0539766
0.0406942
0.0406684
0.0406308
0.0406036
0.0406108
0.0406723
0.0408008
0.0410032
0.041282
0.041635
0.042054
0.0425284
0.0430499
0.0436159
0.0442276
0.0448865
0.0455537
0.046177
0.046759
0.0473405
0.0479563
0.0486327
0.0493824
0.0502008
0.0510622
0.0519207
0.0527122
0.0533673
0.0538354
0.0541075
0.0542196
0.0542384
0.0412754
0.0412199
0.0411338
0.0410534
0.0410177
0.0410602
0.0412026
0.041454
0.0418135
0.0422705
0.0428056
0.0433964
0.0440231
0.0446727
0.0453374
0.0460122
0.0466534
0.0472168
0.0477194
0.0482077
0.0487186
0.0492793
0.0499049
0.0505978
0.0513442
0.0521131
0.0528541
0.0535028
0.0539978
0.0543073
0.0544472
0.0544764
0.042221
0.0421334
0.0420051
0.0418905
0.0418408
0.0418989
0.0420893
0.0424158
0.0428669
0.0434191
0.0440418
0.0447043
0.0453818
0.0460577
0.0467221
0.0473696
0.0479585
0.0484523
0.0488745
0.0492715
0.0496787
0.0501219
0.0506173
0.0511714
0.0517802
0.0524266
0.0530763
0.0536757
0.0541624
0.0544896
0.0546513
0.0546912
0.0435709
0.0434599
0.043325
0.0432317
0.0432261
0.0433448
0.0436044
0.043999
0.0445081
0.0451013
0.045744
0.0464048
0.0470602
0.0476955
0.0483023
0.0488773
0.0493851
0.0497969
0.050137
0.0504468
0.0507573
0.0510907
0.0514621
0.0518796
0.052345
0.0528518
0.0533814
0.053896
0.0543402
0.0546608
0.0548338
0.0548833
0.0453437
0.0452362
0.0451612
0.045163
0.0452552
0.0454533
0.0457623
0.0461744
0.0466704
0.0472229
0.0478026
0.0483835
0.048947
0.0494822
0.0499837
0.0504498
0.0508535
0.0511736
0.0514312
0.0516596
0.0518833
0.0521196
0.0523808
0.0526746
0.0530048
0.0533712
0.0537667
0.05417
0.0545405
0.0548279
0.0549972
0.0550529
0.047567
0.0475136
0.0475677
0.0476977
0.0478796
0.0481164
0.0484128
0.0487679
0.0491715
0.0496065
0.0500529
0.0504929
0.0509138
0.0513083
0.0516733
0.0520085
0.0522952
0.0525193
0.0526964
0.0528503
0.0529979
0.0531513
0.0533193
0.0535076
0.0537198
0.0539578
0.0542207
0.0544998
0.0547719
0.0549993
0.0551459
0.0552009
0.0503114
0.0503651
0.05053
0.0507091
0.0508908
0.0510826
0.0512926
0.0515259
0.0517809
0.0520499
0.0523225
0.0525889
0.0528417
0.053077
0.0532931
0.0534901
0.0536573
0.0537869
0.0538883
0.0539751
0.0540571
0.0541413
0.0542326
0.0543344
0.0544489
0.0545777
0.0547218
0.0548788
0.0550393
0.0551833
0.0552854
0.0553292
0.0536767
0.0537254
0.0538166
0.0538995
0.0539751
0.0540483
0.0541234
0.0542035
0.0542891
0.0543786
0.0544687
0.0545564
0.0546393
0.0547162
0.0547865
0.0548504
0.0549045
0.0549463
0.0549788
0.0550064
0.0550323
0.0550586
0.055087
0.0551186
0.055154
0.0551937
0.0552382
0.0552872
0.0553384
0.0553864
0.0554234
0.0554414
)
;

boundaryField
{
    movingWall
    {
        type            fixedValue;
        value           uniform 0.0555;
    }
    fixedWalls
    {
        type            zeroGradient;
    }
    floor
    {
        type            zeroGradient;
    }
    frontAndBack
    {
        type            empty;
    }
}


// ************************************************************************* //
