/*--------------------------------*- C++ -*----------------------------------*\
| =========                 |                                                 |
| \\      /  F ield         | OpenFOAM: The Open Source CFD Toolbox           |
|  \\    /   O peration     | Version:  2212                                  |
|   \\  /    A nd           | Website:  www.openfoam.com                      |
|    \\/     M anipulation  |                                                 |
\*---------------------------------------------------------------------------*/
FoamFile
{
    version     2.0;
    format      ascii;
    arch        "LSB;label=64;scalar=64";
    class       volScalarField;
    location    "860";
    object      SIC;
}
// * * * * * * * * * * * * * * * * * * * * * * * * * * * * * * * * * * * * * //

dimensions      [1 -3 0 0 0 0 0];

internalField   nonuniform List<scalar> 
1024
(
0.091601
0.0916045
0.0916132
0.0916285
0.0916516
0.0916827
0.0917206
0.0917629
0.0918063
0.0918479
0.0918848
0.0919142
0.0919342
0.0919431
0.0919387
0.0919182
0.0918808
0.0918335
0.0917828
0.0917297
0.0916742
0.0916158
0.0915553
0.0914951
0.0914388
0.0913899
0.0913504
0.0913208
0.0913002
0.0912871
0.0912799
0.0912769
0.0916014
0.0916051
0.091614
0.0916297
0.0916535
0.0916852
0.0917236
0.0917662
0.0918099
0.0918517
0.0918889
0.0919183
0.0919382
0.091947
0.0919424
0.0919216
0.0918841
0.0918368
0.091786
0.0917331
0.0916778
0.0916196
0.0915591
0.0914988
0.0914422
0.0913928
0.0913526
0.0913225
0.0913015
0.0912882
0.0912808
0.0912778
0.0916025
0.0916063
0.0916157
0.0916321
0.0916568
0.0916896
0.091729
0.0917725
0.0918171
0.0918602
0.0918987
0.0919287
0.0919484
0.0919565
0.0919509
0.0919292
0.091891
0.0918433
0.0917926
0.0917399
0.0916851
0.0916275
0.0915673
0.0915069
0.0914496
0.091399
0.0913577
0.0913264
0.0913045
0.0912906
0.091283
0.0912799
0.0916041
0.0916081
0.0916179
0.0916351
0.0916609
0.0916949
0.0917358
0.091781
0.0918279
0.0918741
0.0919157
0.0919475
0.0919671
0.0919736
0.0919658
0.0919416
0.0919015
0.0918529
0.091802
0.0917497
0.0916957
0.091639
0.0915797
0.0915193
0.0914612
0.0914091
0.0913659
0.0913328
0.0913096
0.0912949
0.0912868
0.0912835
0.091606
0.0916101
0.0916202
0.0916381
0.0916648
0.0917003
0.091743
0.091791
0.091842
0.0918936
0.091941
0.0919763
0.0919962
0.0920003
0.0919883
0.0919594
0.0919155
0.0918646
0.091813
0.0917611
0.0917082
0.091653
0.091595
0.0915352
0.0914765
0.0914227
0.0913773
0.091342
0.091317
0.091301
0.0912923
0.0912888
0.0916079
0.091612
0.0916223
0.0916404
0.0916678
0.0917045
0.0917497
0.0918016
0.0918587
0.0919184
0.0919742
0.0920152
0.0920363
0.0920371
0.0920188
0.0919823
0.0919317
0.0918769
0.0918237
0.0917719
0.0917202
0.0916671
0.0916112
0.0915526
0.0914939
0.0914387
0.091391
0.0913533
0.0913262
0.0913089
0.0912995
0.0912956
0.0916093
0.0916134
0.0916235
0.0916415
0.0916691
0.091707
0.0917548
0.0918117
0.0918767
0.0919468
0.0920135
0.0920626
0.0920858
0.0920825
0.0920555
0.0920082
0.0919478
0.0918869
0.0918311
0.091779
0.0917288
0.0916781
0.0916249
0.0915685
0.0915106
0.0914547
0.0914053
0.0913654
0.0913366
0.0913179
0.0913077
0.0913037
0.09161
0.091614
0.0916237
0.0916412
0.0916686
0.0917071
0.0917576
0.0918201
0.0918944
0.0919769
0.0920564
0.0921149
0.0921406
0.0921321
0.092094
0.0920325
0.0919592
0.0918903
0.0918309
0.0917785
0.09173
0.0916823
0.0916325
0.0915791
0.0915231
0.0914677
0.0914176
0.0913766
0.0913464
0.0913269
0.0913162
0.091312
0.09161
0.0916137
0.0916229
0.0916396
0.0916662
0.0917051
0.091758
0.0918267
0.0919113
0.0920077
0.0921009
0.0921686
0.0921955
0.0921794
0.0921271
0.092048
0.0919589
0.0918805
0.0918175
0.0917653
0.0917193
0.0916754
0.0916299
0.0915806
0.0915277
0.0914744
0.0914252
0.0913843
0.0913541
0.0913344
0.0913235
0.0913192
0.0916102
0.0916135
0.091622
0.0916377
0.0916634
0.0917024
0.0917579
0.0918333
0.0919299
0.0920412
0.0921477
0.0922221
0.0922461
0.0922179
0.0921468
0.092046
0.0919383
0.0918498
0.091784
0.0917335
0.0916918
0.0916533
0.0916135
0.0915695
0.0915212
0.0914716
0.0914253
0.0913865
0.0913575
0.0913386
0.0913281
0.0913238
0.0916132
0.0916162
0.091624
0.0916388
0.091664
0.0917037
0.0917629
0.0918469
0.0919569
0.0920831
0.0922
0.0922756
0.0922901
0.0922433
0.0921478
0.0920205
0.0918906
0.0917915
0.0917245
0.0916781
0.0916432
0.0916124
0.0915802
0.0915432
0.0915013
0.0914575
0.0914161
0.0913812
0.0913551
0.0913377
0.0913279
0.0913238
0.0916259
0.0916286
0.0916358
0.0916504
0.0916764
0.0917189
0.0917847
0.0918796
0.0920035
0.0921417
0.0922626
0.0923312
0.0923283
0.0922567
0.0921319
0.0919732
0.0918168
0.0917051
0.0916377
0.0915975
0.0915718
0.091551
0.0915283
0.0915002
0.0914668
0.0914307
0.0913963
0.091367
0.0913448
0.0913297
0.0913208
0.0913169
0.0916601
0.0916626
0.09167
0.0916856
0.0917146
0.0917632
0.0918388
0.0919463
0.0920817
0.0922242
0.0923387
0.0923907
0.0923645
0.0922664
0.0921124
0.0919208
0.0917331
0.0916033
0.0915325
0.0914975
0.0914811
0.091471
0.091459
0.0914411
0.0914175
0.0913909
0.0913648
0.0913421
0.0913242
0.0913115
0.0913035
0.0912997
0.0917296
0.0917325
0.091741
0.0917594
0.0917937
0.091851
0.0919378
0.0920558
0.0921952
0.0923306
0.0924273
0.0924562
0.0924085
0.0922923
0.0921193
0.0919013
0.0916805
0.0915224
0.0914363
0.0913972
0.0913834
0.09138
0.091377
0.0913694
0.0913564
0.0913396
0.0913216
0.0913046
0.0912902
0.0912792
0.0912719
0.0912684
0.0918406
0.0918441
0.0918547
0.091877
0.0919176
0.0919832
0.0920781
0.0921994
0.0923324
0.0924503
0.0925239
0.0925347
0.0924815
0.0923703
0.0922027
0.0919793
0.0917344
0.0915388
0.0914157
0.0913465
0.091311
0.0912939
0.0912848
0.0912775
0.0912689
0.0912589
0.0912485
0.0912395
0.091233
0.0912293
0.0912276
0.0912271
0.0919811
0.0919855
0.0919979
0.0920236
0.0920688
0.0921389
0.0922353
0.0923513
0.0924699
0.092568
0.0926269
0.0926406
0.0926132
0.0925463
0.0924308
0.0922539
0.092031
0.0918219
0.0916594
0.0915375
0.0914472
0.0913785
0.0913279
0.0912933
0.0912736
0.091268
0.0912747
0.0912907
0.0913113
0.0913313
0.0913463
0.0913539
0.0921089
0.0921136
0.0921269
0.0921537
0.0921994
0.0922677
0.0923581
0.0924627
0.0925667
0.0926541
0.0927165
0.0927569
0.0927842
0.0928008
0.0927974
0.0927583
0.0926784
0.0925852
0.0925045
0.0924376
0.0923817
0.0923306
0.0922834
0.0922403
0.0922029
0.0921737
0.0921551
0.0921479
0.0921506
0.0921591
0.0921683
0.092174
0.0921837
0.0921881
0.0922002
0.0922239
0.0922636
0.0923221
0.0923984
0.0924868
0.0925767
0.0926572
0.0927235
0.092781
0.0928429
0.0929203
0.0930166
0.0931267
0.0932363
0.0933342
0.0934241
0.0935062
0.0935766
0.09363
0.0936624
0.0936714
0.0936566
0.0936209
0.09357
0.093513
0.0934602
0.0934203
0.0933968
0.0933876
0.0922209
0.0922248
0.0922353
0.0922555
0.0922889
0.0923377
0.0924012
0.092475
0.0925509
0.0926202
0.0926785
0.09273
0.0927877
0.0928677
0.0929844
0.0931467
0.0933426
0.0935369
0.0937123
0.0938699
0.0940091
0.0941282
0.0942246
0.0942949
0.0943367
0.0943492
0.0943348
0.0943003
0.0942562
0.0942146
0.094185
0.0941711
0.0922364
0.09224
0.0922491
0.0922664
0.0922943
0.0923348
0.0923875
0.092449
0.0925128
0.0925716
0.0926208
0.0926627
0.0927072
0.0927701
0.0928687
0.0930186
0.0932165
0.0934248
0.0936157
0.0937873
0.0939422
0.0940836
0.0942116
0.0943233
0.0944144
0.0944808
0.094521
0.0945367
0.0945336
0.09452
0.0945054
0.0944968
0.0922395
0.0922428
0.0922508
0.0922656
0.092289
0.0923227
0.0923665
0.0924179
0.092472
0.0925228
0.0925663
0.092603
0.0926405
0.0926915
0.0927717
0.0928968
0.0930684
0.0932569
0.0934365
0.0936051
0.0937666
0.093926
0.0940831
0.0942322
0.0943649
0.0944728
0.0945512
0.0946002
0.094624
0.0946301
0.0946273
0.0946235
0.0922371
0.0922399
0.0922467
0.092259
0.0922787
0.0923067
0.0923433
0.0923867
0.0924336
0.0924796
0.0925219
0.0925608
0.0926013
0.0926532
0.0927283
0.0928387
0.0929861
0.0931494
0.0933099
0.0934673
0.0936263
0.0937924
0.0939657
0.0941399
0.0943044
0.0944467
0.0945574
0.0946332
0.0946768
0.0946957
0.0946996
0.0946982
0.0922384
0.09224
0.0922445
0.0922536
0.092269
0.0922919
0.0923226
0.0923604
0.0924033
0.0924491
0.0924963
0.0925451
0.0925989
0.0926636
0.0927468
0.092856
0.0929897
0.0931328
0.0932745
0.0934174
0.0935665
0.0937268
0.0938995
0.0940802
0.0942592
0.0944227
0.0945579
0.0946568
0.0947185
0.0947491
0.0947588
0.0947589
0.0922572
0.0922564
0.0922566
0.0922601
0.0922695
0.0922869
0.0923132
0.0923486
0.0923927
0.092445
0.0925045
0.092571
0.0926455
0.0927306
0.0928297
0.0929459
0.0930742
0.0932029
0.0933278
0.0934545
0.0935888
0.0937352
0.0938956
0.0940677
0.0942442
0.0944135
0.0945618
0.0946772
0.0947543
0.094796
0.0948114
0.0948132
0.0923121
0.0923072
0.0923001
0.092295
0.0922964
0.0923079
0.0923321
0.0923703
0.0924228
0.0924892
0.0925681
0.0926575
0.0927556
0.0928622
0.0929774
0.0931015
0.0932271
0.0933445
0.0934541
0.0935636
0.0936795
0.0938069
0.093948
0.0941022
0.0942644
0.094426
0.0945751
0.0946984
0.0947866
0.0948378
0.0948589
0.0948625
0.0924215
0.0924111
0.0923948
0.0923797
0.092373
0.092381
0.0924078
0.0924551
0.0925228
0.0926089
0.0927097
0.0928209
0.0929389
0.0930612
0.0931864
0.0933135
0.0934342
0.0935403
0.0936349
0.0937269
0.0938231
0.0939286
0.0940464
0.0941769
0.0943175
0.0944622
0.0946018
0.0947239
0.0948171
0.0948754
0.0949018
0.0949073
0.0925996
0.0925831
0.0925589
0.0925373
0.092528
0.0925389
0.0925748
0.0926362
0.0927212
0.0928252
0.0929424
0.0930672
0.0931947
0.093322
0.0934471
0.0935691
0.0936799
0.0937729
0.0938524
0.0939272
0.0940038
0.0940873
0.0941806
0.0942849
0.0943996
0.0945213
0.0946436
0.0947565
0.0948481
0.0949098
0.0949402
0.0949477
0.0928538
0.0928328
0.0928074
0.0927899
0.0927888
0.0928112
0.0928601
0.0929344
0.0930302
0.0931419
0.0932629
0.0933874
0.0935108
0.0936304
0.0937447
0.093853
0.0939486
0.0940261
0.0940901
0.0941485
0.0942069
0.0942697
0.0943397
0.0944183
0.0945059
0.0946013
0.0947011
0.094798
0.0948816
0.094942
0.0949746
0.0949839
0.0931876
0.0931673
0.0931532
0.0931535
0.0931709
0.0932082
0.0932664
0.093344
0.0934374
0.0935414
0.0936506
0.09376
0.0938661
0.0939669
0.0940613
0.0941491
0.0942251
0.0942853
0.0943338
0.0943769
0.094419
0.0944635
0.0945127
0.094568
0.0946302
0.0946991
0.0947736
0.0948496
0.0949193
0.0949735
0.0950053
0.0950158
0.0936062
0.0935962
0.0936063
0.0936308
0.0936651
0.0937097
0.0937655
0.0938323
0.0939083
0.0939903
0.0940743
0.0941572
0.0942364
0.0943107
0.0943794
0.0944426
0.0944965
0.0945387
0.0945721
0.0946011
0.0946288
0.0946577
0.0946894
0.0947248
0.0947648
0.0948096
0.0948591
0.0949117
0.0949629
0.0950057
0.0950333
0.0950437
0.094123
0.0941331
0.0941641
0.0941979
0.0942321
0.0942682
0.0943077
0.0943517
0.0943997
0.0944503
0.0945017
0.0945518
0.0945994
0.0946437
0.0946844
0.0947215
0.094753
0.0947774
0.0947965
0.0948129
0.0948283
0.0948442
0.0948613
0.0948805
0.0949021
0.0949263
0.0949535
0.094983
0.0950133
0.0950404
0.0950596
0.0950678
0.0947567
0.0947658
0.094783
0.0947986
0.0948129
0.0948266
0.0948408
0.0948559
0.094872
0.0948888
0.0949058
0.0949223
0.0949379
0.0949524
0.0949657
0.0949777
0.0949879
0.0949957
0.0950018
0.0950071
0.0950119
0.0950169
0.0950222
0.0950282
0.0950348
0.0950423
0.0950507
0.0950599
0.0950696
0.0950786
0.0950856
0.095089
)
;

boundaryField
{
    movingWall
    {
        type            fixedValue;
        value           uniform 0.0951;
    }
    fixedWalls
    {
        type            zeroGradient;
    }
    floor
    {
        type            zeroGradient;
    }
    frontAndBack
    {
        type            empty;
    }
}


// ************************************************************************* //
