/*--------------------------------*- C++ -*----------------------------------*\
| =========                 |                                                 |
| \\      /  F ield         | OpenFOAM: The Open Source CFD Toolbox           |
|  \\    /   O peration     | Version:  2212                                  |
|   \\  /    A nd           | Website:  www.openfoam.com                      |
|    \\/     M anipulation  |                                                 |
\*---------------------------------------------------------------------------*/
FoamFile
{
    version     2.0;
    format      ascii;
    arch        "LSB;label=64;scalar=64";
    class       volVectorField;
    location    "860";
    object      U;
}
// * * * * * * * * * * * * * * * * * * * * * * * * * * * * * * * * * * * * * //

dimensions      [0 1 -1 0 0 0 0];

internalField   nonuniform List<vector> 
1024
(
(7.77606e-06 -9.89913e-06 0)
(-0.00016897 4.41951e-05 0)
(-0.000614059 8.4065e-05 0)
(-0.00124307 9.21799e-05 0)
(-0.00193143 8.64246e-05 0)
(-0.00259384 7.61696e-05 0)
(-0.00315083 5.99239e-05 0)
(-0.00346426 3.13453e-05 0)
(-0.00330783 -1.94662e-05 0)
(-0.00239489 -7.69058e-05 0)
(-0.000530956 -0.000115975 0)
(0.00170839 -8.46835e-05 0)
(0.00335148 -4.8817e-05 0)
(0.00446281 -1.81109e-05 0)
(0.00500467 -4.6472e-07 0)
(0.00506714 9.90409e-06 0)
(0.00473751 1.71268e-05 0)
(0.00417212 2.14155e-05 0)
(0.00352667 2.33767e-05 0)
(0.00288706 2.34315e-05 0)
(0.00230104 2.22454e-05 0)
(0.00179161 2.00963e-05 0)
(0.00136876 1.70935e-05 0)
(0.00103349 1.35548e-05 0)
(0.000777626 1.00615e-05 0)
(0.000582053 7.92934e-06 0)
(0.000419737 8.45451e-06 0)
(0.000269752 1.08617e-05 0)
(0.000133175 1.14385e-05 0)
(3.15085e-05 6.22098e-06 0)
(-1.40209e-05 -3.68238e-06 0)
(-9.87338e-06 -1.00427e-05 0)
(-5.87575e-05 0.000178629 0)
(-0.000689631 0.000615224 0)
(-0.00189892 0.000896462 0)
(-0.00349625 0.00094404 0)
(-0.00518731 0.000841949 0)
(-0.00673756 0.000662879 0)
(-0.00791704 0.000419922 0)
(-0.00840297 9.26926e-05 0)
(-0.00774325 -0.000348442 0)
(-0.00542761 -0.000820539 0)
(-0.00101697 -0.00111713 0)
(0.00435028 -0.000899026 0)
(0.00842027 -0.000561871 0)
(0.0114201 -0.000289314 0)
(0.0131611 -9.62505e-05 0)
(0.0137107 3.43808e-05 0)
(0.0132006 0.000127068 0)
(0.0119847 0.000191151 0)
(0.0104415 0.000233529 0)
(0.0088107 0.000256514 0)
(0.00723988 0.000264289 0)
(0.00581333 0.000259247 0)
(0.00457721 0.000242841 0)
(0.00354988 0.00021825 0)
(0.0027223 0.000192016 0)
(0.00205661 0.00017508 0)
(0.0014965 0.000175361 0)
(0.000998496 0.000184391 0)
(0.000563754 0.000175355 0)
(0.000234362 0.000124572 0)
(4.97493e-05 4.29232e-05 0)
(-4.18936e-06 -1.56509e-05 0)
(-0.000131522 0.000752874 0)
(-0.00120115 0.00193063 0)
(-0.00302927 0.00255191 0)
(-0.00531565 0.00258424 0)
(-0.00764269 0.00222788 0)
(-0.00966933 0.00165511 0)
(-0.0110608 0.000923953 0)
(-0.011399 1.80721e-05 0)
(-0.0101228 -0.00109917 0)
(-0.00681785 -0.00224572 0)
(-0.000930714 -0.00296109 0)
(0.00611888 -0.00244247 0)
(0.0117947 -0.00160397 0)
(0.0163319 -0.000913372 0)
(0.0193602 -0.000388143 0)
(0.0207944 -1.08948e-06 0)
(0.020578 0.000279669 0)
(0.0192108 0.000482072 0)
(0.0172079 0.000628954 0)
(0.0149289 0.000724475 0)
(0.0126129 0.000776886 0)
(0.0104112 0.0007912 0)
(0.00841823 0.000770882 0)
(0.00668473 0.000724052 0)
(0.00521922 0.000667798 0)
(0.00398895 0.000628734 0)
(0.00293485 0.000624914 0)
(0.00200776 0.000636037 0)
(0.00120583 0.000600181 0)
(0.00057771 0.000462345 0)
(0.000180662 0.000240348 0)
(9.83326e-06 3.86576e-05 0)
(-0.000170043 0.00171976 0)
(-0.00148972 0.00399869 0)
(-0.00366494 0.00502318 0)
(-0.00630632 0.00493803 0)
(-0.00890837 0.00413388 0)
(-0.0110636 0.00292369 0)
(-0.0123837 0.00144176 0)
(-0.0124155 -0.000301592 0)
(-0.0106267 -0.00230972 0)
(-0.00680022 -0.00428952 0)
(-0.000380604 -0.00546709 0)
(0.0069754 -0.00459952 0)
(0.0134156 -0.0031775 0)
(0.0189523 -0.00195816 0)
(0.0231069 -0.000975085 0)
(0.0256342 -0.000191852 0)
(0.0261392 0.000398957 0)
(0.0251028 0.000835081 0)
(0.0231205 0.00116884 0)
(0.0206255 0.00140956 0)
(0.0179207 0.00156916 0)
(0.015211 0.00165443 0)
(0.0126359 0.00167023 0)
(0.0102836 0.00162979 0)
(0.00819347 0.00156217 0)
(0.00635976 0.00151147 0)
(0.00474591 0.00150817 0)
(0.0033148 0.00152072 0)
(0.00206531 0.0014451 0)
(0.0010527 0.00117642 0)
(0.000366495 0.000717644 0)
(2.96674e-05 0.000210648 0)
(-0.000159395 0.00293176 0)
(-0.00145808 0.00657058 0)
(-0.00363722 0.00806461 0)
(-0.00629233 0.00778587 0)
(-0.00887551 0.00636943 0)
(-0.0109375 0.00431527 0)
(-0.0120686 0.00187373 0)
(-0.0118164 -0.000881082 0)
(-0.00977649 -0.0038844 0)
(-0.00585108 -0.00674409 0)
(0.000407773 -0.00829741 0)
(0.00718413 -0.00709952 0)
(0.0136713 -0.00514347 0)
(0.0195791 -0.00338157 0)
(0.0244301 -0.00189388 0)
(0.0279128 -0.000629899 0)
(0.0293691 0.000381985 0)
(0.0290018 0.0011477 0)
(0.0274387 0.00175405 0)
(0.0251413 0.0022234 0)
(0.0224399 0.00257232 0)
(0.0195663 0.00280838 0)
(0.016687 0.00293651 0)
(0.013919 0.00297307 0)
(0.0113329 0.00295625 0)
(0.00895856 0.00294332 0)
(0.00679619 0.00297549 0)
(0.00483618 0.00301256 0)
(0.00309055 0.00290393 0)
(0.00163156 0.0024662 0)
(0.000597128 0.00164014 0)
(5.49567e-05 0.000574364 0)
(-0.000108629 0.00414072 0)
(-0.00114474 0.00924282 0)
(-0.00301387 0.0113237 0)
(-0.00539127 0.0108817 0)
(-0.00774832 0.00878227 0)
(-0.00961446 0.005754 0)
(-0.0105709 0.00221558 0)
(-0.0101824 -0.00164777 0)
(-0.00815039 -0.00569649 0)
(-0.00441324 -0.00943036 0)
(0.0012458 -0.0112102 0)
(0.00708725 -0.00973774 0)
(0.0131239 -0.00734581 0)
(0.0188528 -0.00508205 0)
(0.0238672 -0.00310526 0)
(0.0278878 -0.00134552 0)
(0.030193 0.000153891 0)
(0.0305965 0.0013253 0)
(0.0296683 0.00227824 0)
(0.027853 0.00305503 0)
(0.0254732 0.00367971 0)
(0.0227575 0.004161 0)
(0.0198762 0.00450296 0)
(0.016958 0.00472273 0)
(0.0140951 0.00486266 0)
(0.0113474 0.00498584 0)
(0.0087506 0.00513777 0)
(0.00632872 0.005267 0)
(0.00411939 0.00516691 0)
(0.00222418 0.004537 0)
(0.000838355 0.00318637 0)
(8.27545e-05 0.00121559 0)
(-4.28301e-05 0.00508456 0)
(-0.000677974 0.0115509 0)
(-0.00201806 0.0143746 0)
(-0.00389992 0.0139461 0)
(-0.00589039 0.0112423 0)
(-0.00752545 0.00722495 0)
(-0.00837495 0.00253164 0)
(-0.00800662 -0.00249566 0)
(-0.00614314 -0.00764026 0)
(-0.00274268 -0.0122083 0)
(0.00204374 -0.0140571 0)
(0.00690206 -0.0123885 0)
(0.0121947 -0.00964816 0)
(0.0173691 -0.00693991 0)
(0.0221063 -0.00451887 0)
(0.0261971 -0.00229639 0)
(0.0289469 -0.000314942 0)
(0.0300156 0.00130812 0)
(0.0297306 0.00265872 0)
(0.0284993 0.00380347 0)
(0.0266124 0.00477897 0)
(0.0242705 0.00559734 0)
(0.021626 0.00626177 0)
(0.0188025 0.00678801 0)
(0.0158998 0.00721784 0)
(0.0129961 0.0076131 0)
(0.0101538 0.00801442 0)
(0.00742713 0.00834814 0)
(0.00488562 0.00833154 0)
(0.00266707 0.00750197 0)
(0.00101884 0.00546026 0)
(0.000103867 0.00218809 0)
(1.39142e-05 0.00557336 0)
(-0.000202315 0.0130731 0)
(-0.000909543 0.0167601 0)
(-0.00214504 0.0166505 0)
(-0.00365396 0.0136008 0)
(-0.0050261 0.00872631 0)
(-0.00581559 0.00290087 0)
(-0.00555483 -0.0033354 0)
(-0.00391919 -0.009643 0)
(-0.000933899 -0.0149435 0)
(0.0027681 -0.0167101 0)
(0.00669178 -0.0149449 0)
(0.0110637 -0.011924 0)
(0.0154544 -0.00883832 0)
(0.0196327 -0.00603369 0)
(0.0234524 -0.0034016 0)
(0.0262678 -0.000974688 0)
(0.0277377 0.00109528 0)
(0.0279302 0.00286176 0)
(0.0272134 0.00440594 0)
(0.0258346 0.00578291 0)
(0.0239497 0.00701253 0)
(0.021676 0.00809775 0)
(0.0191174 0.00905095 0)
(0.0163687 0.00990888 0)
(0.013515 0.0107256 0)
(0.0106344 0.0115258 0)
(0.00780675 0.0121933 0)
(0.00513487 0.0123371 0)
(0.00279329 0.011287 0)
(0.00106057 0.00838393 0)
(0.000106824 0.0034506 0)
(4.76148e-05 0.00554891 0)
(0.000167523 0.0135209 0)
(7.59874e-05 0.0180338 0)
(-0.000424991 0.0185978 0)
(-0.00132174 0.015628 0)
(-0.00234597 0.0101966 0)
(-0.0030557 0.0033664 0)
(-0.00290758 -0.00410019 0)
(-0.00151916 -0.0116208 0)
(0.000864509 -0.0174127 0)
(0.00347562 -0.0190613 0)
(0.00642086 -0.0172642 0)
(0.00973945 -0.0140288 0)
(0.013192 -0.0106568 0)
(0.0166407 -0.00755536 0)
(0.0199907 -0.00458688 0)
(0.0226516 -0.00176171 0)
(0.0242724 0.000731214 0)
(0.0247219 0.00290694 0)
(0.0243594 0.00485083 0)
(0.0234019 0.00664817 0)
(0.0219559 0.0083342 0)
(0.0200942 0.00991365 0)
(0.0178917 0.0113938 0)
(0.0154285 0.0128022 0)
(0.0127869 0.0141776 0)
(0.0100533 0.0155129 0)
(0.00732938 0.0166187 0)
(0.00475192 0.016951 0)
(0.00252673 0.0155983 0)
(0.000929184 0.0116546 0)
(8.70029e-05 0.00483773 0)
(6.12687e-05 0.00507245 0)
(0.000386495 0.0128967 0)
(0.000744806 0.0178927 0)
(0.000912109 0.0192622 0)
(0.000734929 0.0169659 0)
(0.00027524 0.0116154 0)
(-0.000173867 0.0040024 0)
(-7.15281e-05 -0.00474842 0)
(0.000997056 -0.0134279 0)
(0.00251616 -0.0192741 0)
(0.00413152 -0.0209442 0)
(0.00598717 -0.0191346 0)
(0.00813934 -0.0157747 0)
(0.0105356 -0.0122514 0)
(0.0131368 -0.0089839 0)
(0.0158908 -0.00579098 0)
(0.0182964 -0.00263148 0)
(0.0199132 0.000286334 0)
(0.0204639 0.00284879 0)
(0.0203127 0.00516309 0)
(0.0196755 0.00736698 0)
(0.0186148 0.0095205 0)
(0.0171585 0.0116334 0)
(0.0153503 0.0137071 0)
(0.0132513 0.0157556 0)
(0.0109358 0.0177921 0)
(0.0084954 0.0197538 0)
(0.00605418 0.0213323 0)
(0.00378404 0.0217789 0)
(0.00190791 0.0199425 0)
(0.000651269 0.0147853 0)
(5.00672e-05 0.00609305 0)
(5.66948e-05 0.00428065 0)
(0.000452987 0.0113736 0)
(0.0010508 0.0164263 0)
(0.00166074 0.0184017 0)
(0.00208 0.016841 0)
(0.00224934 0.0119463 0)
(0.00233326 0.00431109 0)
(0.00261083 -0.00517026 0)
(0.00321729 -0.0143376 0)
(0.0039364 -0.02042 0)
(0.00455101 -0.0220973 0)
(0.00521373 -0.0202789 0)
(0.00611839 -0.0169284 0)
(0.00738427 -0.0134469 0)
(0.00905316 -0.0101954 0)
(0.0111024 -0.00694286 0)
(0.0131873 -0.00354716 0)
(0.0146667 -0.000224002 0)
(0.0153425 0.00270601 0)
(0.0153524 0.00534975 0)
(0.0149838 0.00792729 0)
(0.014271 0.0105323 0)
(0.013205 0.0131846 0)
(0.0118033 0.0158811 0)
(0.0101097 0.0186179 0)
(0.00819165 0.0213668 0)
(0.00615123 0.0239696 0)
(0.00414406 0.0259346 0)
(0.00237551 0.0262692 0)
(0.00105275 0.0236644 0)
(0.000292429 0.0171901 0)
(7.55482e-06 0.00694075 0)
(4.15206e-05 0.00339066 0)
(0.000394606 0.00937881 0)
(0.00101725 0.0140635 0)
(0.00178998 0.0163312 0)
(0.00253017 0.0153988 0)
(0.00313696 0.0110783 0)
(0.00369203 0.00371943 0)
(0.00423731 -0.00578589 0)
(0.00465888 -0.014904 0)
(0.00474641 -0.0207445 0)
(0.00435357 -0.0222086 0)
(0.00380091 -0.0203933 0)
(0.00346355 -0.0172436 0)
(0.00360817 -0.0140566 0)
(0.00430553 -0.0110436 0)
(0.00554603 -0.00794268 0)
(0.00718607 -0.00448074 0)
(0.00859518 -0.000799467 0)
(0.0094643 0.00245628 0)
(0.00962849 0.00537573 0)
(0.00952707 0.00828205 0)
(0.00915427 0.0113037 0)
(0.00846862 0.0144758 0)
(0.00747043 0.0177917 0)
(0.00619644 0.021221 0)
(0.00472044 0.0246644 0)
(0.00317456 0.0277999 0)
(0.0017677 0.0298782 0)
(0.000715172 0.0296817 0)
(0.000126824 0.0259718 0)
(-5.6736e-05 0.0182576 0)
(-2.64642e-05 0.00714985 0)
(2.28729e-05 0.0026239 0)
(0.000262966 0.00746067 0)
(0.000742531 0.0114942 0)
(0.00142218 0.0136926 0)
(0.00218956 0.0130975 0)
(0.00296809 0.00920791 0)
(0.00379758 0.00217792 0)
(0.00450536 -0.00689413 0)
(0.00479336 -0.0151561 0)
(0.00431976 -0.0200683 0)
(0.00298302 -0.0209895 0)
(0.00133674 -0.0192216 0)
(-8.77248e-05 -0.0165241 0)
(-0.000935017 -0.0139128 0)
(-0.00118465 -0.011375 0)
(-0.000837715 -0.0086604 0)
(0.000157218 -0.00539698 0)
(0.00132539 -0.00153501 0)
(0.00270012 0.00205724 0)
(0.00303262 0.0051954 0)
(0.003236 0.00835036 0)
(0.00320387 0.0117297 0)
(0.00287929 0.0153944 0)
(0.00226982 0.0193239 0)
(0.0014423 0.0234215 0)
(0.000512167 0.0274323 0)
(-0.000311384 0.030767 0)
(-0.000809708 0.0322529 0)
(-0.000929904 0.0309185 0)
(-0.000714254 0.0260404 0)
(-0.000352407 0.0176685 0)
(-5.30273e-05 0.00666036 0)
(8.41011e-06 0.00212571 0)
(0.000122512 0.00607796 0)
(0.000385123 0.00942304 0)
(0.000815164 0.0112648 0)
(0.00138744 0.0106153 0)
(0.00207951 0.00681202 0)
(0.00287061 9.17518e-06 0)
(0.00342459 -0.00806398 0)
(0.00330196 -0.0147098 0)
(0.00214096 -0.0180457 0)
(-9.80669e-05 -0.0181689 0)
(-0.00257679 -0.0166065 0)
(-0.00471905 -0.0147669 0)
(-0.0063861 -0.0129217 0)
(-0.00751911 -0.0109817 0)
(-0.00806453 -0.00875546 0)
(-0.00792477 -0.00594524 0)
(-0.00716161 -0.00252832 0)
(-0.00574868 0.00114413 0)
(-0.0050671 0.00459194 0)
(-0.00454409 0.00802086 0)
(-0.00419143 0.0117959 0)
(-0.00404706 0.0159674 0)
(-0.00406292 0.0204033 0)
(-0.00412534 0.0248035 0)
(-0.00408584 0.0286608 0)
(-0.00379239 0.0312229 0)
(-0.00318405 0.0315548 0)
(-0.00232518 0.0289904 0)
(-0.00137231 0.0233335 0)
(-0.000560416 0.0151129 0)
(-6.70447e-05 0.00540673 0)
(-3.04418e-06 0.00196794 0)
(-2.96236e-06 0.00552822 0)
(3.42062e-05 0.00842377 0)
(0.000153816 0.00984356 0)
(0.000395006 0.00886981 0)
(0.000766468 0.00492933 0)
(0.00113996 -0.00146196 0)
(0.00108737 -0.0080327 0)
(3.80331e-05 -0.0126314 0)
(-0.00212935 -0.0141017 0)
(-0.00490571 -0.0137599 0)
(-0.00777509 -0.0128985 0)
(-0.0104598 -0.0119495 0)
(-0.0128454 -0.0109346 0)
(-0.0148418 -0.00974263 0)
(-0.016328 -0.00819644 0)
(-0.0171142 -0.00599824 0)
(-0.0170342 -0.00305739 0)
(-0.0162099 0.000336837 0)
(-0.0151915 0.00382945 0)
(-0.0142255 0.00737857 0)
(-0.0131682 0.0112631 0)
(-0.0120657 0.0154609 0)
(-0.0109003 0.0197262 0)
(-0.00962833 0.0236244 0)
(-0.00820462 0.0265596 0)
(-0.00661249 0.0278465 0)
(-0.00490433 0.026875 0)
(-0.00320889 0.0234044 0)
(-0.00171456 0.0177469 0)
(-0.000632574 0.0107833 0)
(-6.13637e-05 0.00358669 0)
(-1.07601e-05 0.00214541 0)
(-0.000117596 0.00588135 0)
(-0.000305428 0.00869159 0)
(-0.000534774 0.00976597 0)
(-0.000756532 0.00837037 0)
(-0.00102335 0.00435055 0)
(-0.00161394 -0.00112647 0)
(-0.002837 -0.00559458 0)
(-0.00498856 -0.00772791 0)
(-0.00772478 -0.00828358 0)
(-0.0107298 -0.00825255 0)
(-0.0138074 -0.00813298 0)
(-0.0168648 -0.00801153 0)
(-0.0198356 -0.00780478 0)
(-0.0226285 -0.00737841 0)
(-0.025087 -0.00657767 0)
(-0.0269263 -0.00517504 0)
(-0.0276925 -0.00311366 0)
(-0.0273426 -0.000623973 0)
(-0.025967 0.00217825 0)
(-0.0242141 0.00511695 0)
(-0.021933 0.00825257 0)
(-0.0192674 0.0115307 0)
(-0.0163506 0.0147079 0)
(-0.0133323 0.0173725 0)
(-0.0103647 0.0190016 0)
(-0.00758485 0.0190795 0)
(-0.00510851 0.0173036 0)
(-0.00303811 0.0138311 0)
(-0.0014759 0.00937152 0)
(-0.000493805 0.00494118 0)
(-4.50857e-05 0.00134581 0)
(-2.65624e-05 0.00288976 0)
(-0.000244798 0.00772876 0)
(-0.000664269 0.0112293 0)
(-0.00127848 0.0126317 0)
(-0.00207812 0.0115572 0)
(-0.00316921 0.00848107 0)
(-0.00480051 0.00480671 0)
(-0.00703035 0.00176166 0)
(-0.00969518 -0.00029965 0)
(-0.0126373 -0.00152306 0)
(-0.0157021 -0.0023479 0)
(-0.0188205 -0.00300085 0)
(-0.0219569 -0.00350274 0)
(-0.0251462 -0.00389998 0)
(-0.0283836 -0.00410658 0)
(-0.0315471 -0.00400894 0)
(-0.0343065 -0.00349372 0)
(-0.0359538 -0.00260632 0)
(-0.0361707 -0.00156964 0)
(-0.0349936 -0.000435714 0)
(-0.0325687 0.000814373 0)
(-0.0291708 0.00215478 0)
(-0.0249681 0.00362285 0)
(-0.020248 0.0051917 0)
(-0.0153739 0.00671609 0)
(-0.0107406 0.00791144 0)
(-0.00671434 0.00837694 0)
(-0.00358578 0.00773039 0)
(-0.00151598 0.00598301 0)
(-0.000423911 0.00386171 0)
(-2.65024e-05 0.00194768 0)
(2.28629e-05 0.000510432 0)
(-1.8089e-05 0.00376311 0)
(-0.00020958 0.00995768 0)
(-0.000611429 0.0144948 0)
(-0.00125888 0.016676 0)
(-0.00216778 0.0162847 0)
(-0.00338144 0.0139368 0)
(-0.00494969 0.0109166 0)
(-0.00685815 0.00831849 0)
(-0.00905939 0.00644922 0)
(-0.0115116 0.0050619 0)
(-0.0141763 0.00383513 0)
(-0.0170351 0.00261327 0)
(-0.0200746 0.00137399 0)
(-0.0232379 0.000307558 0)
(-0.0265118 -0.000512205 0)
(-0.0298156 -0.00105254 0)
(-0.0328965 -0.00137213 0)
(-0.0350879 -0.00174457 0)
(-0.036055 -0.00244081 0)
(-0.0358068 -0.00360198 0)
(-0.0343606 -0.00521259 0)
(-0.0317755 -0.00711317 0)
(-0.0281824 -0.00904908 0)
(-0.0238 -0.0106662 0)
(-0.0189394 -0.0115429 0)
(-0.013984 -0.0112546 0)
(-0.00934413 -0.00949853 0)
(-0.00541324 -0.00632948 0)
(-0.00252483 -0.0025251 0)
(-0.000836373 0.000376524 0)
(-0.000129053 0.00151439 0)
(1.87025e-05 0.000956344 0)
(-7.62517e-06 0.00428057 0)
(-0.000119093 0.0114162 0)
(-0.000394733 0.01685 0)
(-0.000902719 0.0198424 0)
(-0.00168935 0.020124 0)
(-0.00277569 0.0182424 0)
(-0.00413344 0.0153992 0)
(-0.00567886 0.0126887 0)
(-0.00733053 0.0105361 0)
(-0.00904976 0.00882871 0)
(-0.0108242 0.00732525 0)
(-0.0126489 0.00590102 0)
(-0.0145242 0.00456197 0)
(-0.0164779 0.00337917 0)
(-0.0186069 0.00243446 0)
(-0.0210411 0.00176456 0)
(-0.023822 0.00122143 0)
(-0.026424 0.000353563 0)
(-0.0281801 -0.00110407 0)
(-0.0289036 -0.00326245 0)
(-0.0288287 -0.00621102 0)
(-0.0279289 -0.00985084 0)
(-0.026209 -0.0138928 0)
(-0.0237079 -0.0178753 0)
(-0.0205211 -0.021164 0)
(-0.0168099 -0.0230195 0)
(-0.0128052 -0.0227192 0)
(-0.00880703 -0.0198109 0)
(-0.00518978 -0.0145158 0)
(-0.00238471 -0.0081645 0)
(-0.000704441 -0.00290157 0)
(-4.12639e-05 -0.000157148 0)
(3.70036e-06 0.00445283 0)
(-1.10711e-05 0.0120476 0)
(-0.000110823 0.0181116 0)
(-0.000386388 0.0218426 0)
(-0.000926564 0.0228128 0)
(-0.00177061 0.0213798 0)
(-0.00286763 0.0186363 0)
(-0.00409504 0.0157296 0)
(-0.00533682 0.0132456 0)
(-0.006539 0.0111992 0)
(-0.00769764 0.00938839 0)
(-0.00882074 0.00767573 0)
(-0.0099012 0.00606573 0)
(-0.0109204 0.0046757 0)
(-0.0118894 0.00365493 0)
(-0.0129065 0.00307793 0)
(-0.0142004 0.00275425 0)
(-0.0157902 0.00200744 0)
(-0.0175303 0.000275464 0)
(-0.0191484 -0.00243408 0)
(-0.0201521 -0.00604611 0)
(-0.0207771 -0.0105956 0)
(-0.0208752 -0.0159354 0)
(-0.020303 -0.0216821 0)
(-0.0189507 -0.0271693 0)
(-0.0167726 -0.0315205 0)
(-0.0138382 -0.0336835 0)
(-0.0103595 -0.0326346 0)
(-0.00670858 -0.0277414 0)
(-0.00342588 -0.0194805 0)
(-0.00113024 -0.0100966 0)
(-7.87552e-05 -0.00251053 0)
(1.42993e-05 0.00435719 0)
(9.29785e-05 0.0119913 0)
(0.00017323 0.0183672 0)
(0.000161542 0.0226756 0)
(-6.29156e-05 0.0243487 0)
(-0.000587685 0.0234328 0)
(-0.00138475 0.0208348 0)
(-0.00230796 0.0177406 0)
(-0.00319441 0.0149144 0)
(-0.00396256 0.0125351 0)
(-0.00461032 0.0104663 0)
(-0.00517263 0.00855694 0)
(-0.00567596 0.00677401 0)
(-0.00611298 0.00521385 0)
(-0.00644694 0.00404273 0)
(-0.00664473 0.00339644 0)
(-0.00681259 0.00320984 0)
(-0.00708533 0.00288857 0)
(-0.00761958 0.00172386 0)
(-0.0089716 -0.000694174 0)
(-0.0104019 -0.0042727 0)
(-0.0119778 -0.00894935 0)
(-0.0134731 -0.0147757 0)
(-0.0145778 -0.0215551 0)
(-0.0150258 -0.0287074 0)
(-0.0145756 -0.035389 0)
(-0.0131071 -0.0403428 0)
(-0.0106699 -0.0420795 0)
(-0.00752837 -0.0390961 0)
(-0.00421354 -0.0306485 0)
(-0.00152976 -0.0181155 0)
(-0.000128491 -0.00537607 0)
(2.15753e-05 0.00408083 0)
(0.000175152 0.0114578 0)
(0.000409292 0.0178958 0)
(0.000636941 0.0225703 0)
(0.000730724 0.0248117 0)
(0.000581383 0.0244826 0)
(0.000171075 0.0221975 0)
(-0.000397786 0.018975 0)
(-0.000927131 0.0158314 0)
(-0.00128905 0.013138 0)
(-0.001467 0.0108543 0)
(-0.0015161 0.00883035 0)
(-0.00151169 0.00698543 0)
(-0.00150397 0.00536023 0)
(-0.00149325 0.00408819 0)
(-0.00139668 0.00331492 0)
(-0.0011662 0.00303541 0)
(-0.000808197 0.00278421 0)
(-0.00052223 0.00200011 0)
(-0.000702979 0.000282659 0)
(-0.00181814 -0.00260198 0)
(-0.00351594 -0.00671311 0)
(-0.00561869 -0.0122256 0)
(-0.00779788 -0.0192314 0)
(-0.00968319 -0.0272329 0)
(-0.0108669 -0.0356199 0)
(-0.0110179 -0.0430843 0)
(-0.00995659 -0.0478829 0)
(-0.00773752 -0.0477716 0)
(-0.00477053 -0.040693 0)
(-0.00191524 -0.0264074 0)
(-0.000183549 -0.00866594 0)
(2.37235e-05 0.00372582 0)
(0.000218164 0.0106712 0)
(0.000555263 0.0169837 0)
(0.000967136 0.0218365 0)
(0.00133707 0.0244755 0)
(0.00155948 0.0246088 0)
(0.00159511 0.0226487 0)
(0.00150122 0.0195081 0)
(0.00142512 0.0161754 0)
(0.00150617 0.0132164 0)
(0.00178452 0.0107464 0)
(0.00220457 0.0086589 0)
(0.00266207 0.00684268 0)
(0.00305998 0.00527779 0)
(0.00334951 0.00403448 0)
(0.00358862 0.00321427 0)
(0.00390163 0.00280762 0)
(0.00437407 0.00245566 0)
(0.00479919 0.00173666 0)
(0.00494379 0.000386833 0)
(0.0044056 -0.00175399 0)
(0.00320071 -0.0049138 0)
(0.00143531 -0.00939566 0)
(-0.00104349 -0.0160691 0)
(-0.00371195 -0.0240287 0)
(-0.00615198 -0.0332588 0)
(-0.00784984 -0.0425371 0)
(-0.00834957 -0.0501623 0)
(-0.00738098 -0.0533659 0)
(-0.00511002 -0.0488752 0)
(-0.00231511 -0.0343958 0)
(-0.000254851 -0.012243 0)
(1.94326e-05 0.00338792 0)
(0.000203865 0.00985921 0)
(0.000563642 0.0159272 0)
(0.00107407 0.0207814 0)
(0.00165796 0.0236167 0)
(0.00223596 0.024036 0)
(0.00276374 0.0223211 0)
(0.00325149 0.0192996 0)
(0.00376552 0.0159282 0)
(0.00438583 0.012853 0)
(0.00514258 0.010296 0)
(0.0059928 0.00820782 0)
(0.00683917 0.00647218 0)
(0.0075757 0.00502577 0)
(0.0081357 0.00388212 0)
(0.00855894 0.00308496 0)
(0.00897543 0.00261354 0)
(0.00947621 0.0022124 0)
(0.00988561 0.00157309 0)
(0.010002 0.000471346 0)
(0.00956331 -0.00131482 0)
(0.00859417 -0.00399848 0)
(0.00711862 -0.0078229 0)
(0.00503664 -0.0131505 0)
(0.00239574 -0.0201183 0)
(-0.000737631 -0.02934 0)
(-0.00370237 -0.0395066 0)
(-0.00582934 -0.04934 0)
(-0.00640808 -0.0558505 0)
(-0.00520116 -0.0547991 0)
(-0.00275737 -0.0416871 0)
(-0.000360304 -0.0160943 0)
(2.86022e-06 0.00315915 0)
(9.04105e-05 0.00924344 0)
(0.000351473 0.0150047 0)
(0.000851413 0.0196682 0)
(0.0015897 0.0224493 0)
(0.00252668 0.0229224 0)
(0.00361148 0.0213194 0)
(0.0047883 0.0184205 0)
(0.00601318 0.0151322 0)
(0.00726981 0.0120984 0)
(0.00855111 0.00958162 0)
(0.009828 0.00757184 0)
(0.0110369 0.00595921 0)
(0.0121004 0.00465617 0)
(0.0129674 0.00363549 0)
(0.0136824 0.00289339 0)
(0.0143403 0.00240564 0)
(0.0149801 0.00200241 0)
(0.0154567 0.00145123 0)
(0.0156049 0.000556467 0)
(0.0152297 -0.000896625 0)
(0.0143503 -0.00314178 0)
(0.0129177 -0.00643551 0)
(0.0108838 -0.0110706 0)
(0.0082654 -0.0171807 0)
(0.00507008 -0.024986 0)
(0.0014092 -0.0346513 0)
(-0.00223969 -0.0458544 0)
(-0.00463506 -0.055289 0)
(-0.00492284 -0.0581723 0)
(-0.00323159 -0.0478966 0)
(-0.000528457 -0.0202577 0)
(-3.8425e-05 0.00316904 0)
(-0.000206339 0.00907364 0)
(-0.000227049 0.0144406 0)
(0.00015122 0.018679 0)
(0.00104101 0.0211003 0)
(0.0024027 0.0213588 0)
(0.00414886 0.019721 0)
(0.00612672 0.0169455 0)
(0.00815952 0.0138495 0)
(0.0101309 0.011004 0)
(0.0119973 0.00865288 0)
(0.013749 0.00679939 0)
(0.0153709 0.00534401 0)
(0.0168347 0.00419185 0)
(0.0181226 0.00329358 0)
(0.0192908 0.0026167 0)
(0.0203631 0.00214056 0)
(0.021299 0.00176043 0)
(0.0219834 0.00129733 0)
(0.0222885 0.000581806 0)
(0.0220714 -0.000584801 0)
(0.0213065 -0.00242312 0)
(0.0198993 -0.00516231 0)
(0.0177748 -0.00905391 0)
(0.0149091 -0.0143 0)
(0.0113384 -0.0211192 0)
(0.0071668 -0.0296706 0)
(0.0026115 -0.0400838 0)
(-0.00175647 -0.0517331 0)
(-0.00402621 -0.0587037 0)
(-0.00363737 -0.0525752 0)
(-0.000785854 -0.0247335 0)
(-0.000143663 0.00364574 0)
(-0.000842227 0.0096986 0)
(-0.00131926 0.0144868 0)
(-0.001119 0.0178205 0)
(-1.58644e-05 0.0195399 0)
(0.00195289 0.0193519 0)
(0.00452047 0.0175809 0)
(0.00742106 0.0149614 0)
(0.0103496 0.0121608 0)
(0.0131203 0.00962258 0)
(0.0156762 0.00753392 0)
(0.0180344 0.00589424 0)
(0.0202259 0.00461743 0)
(0.0222665 0.00361555 0)
(0.0241629 0.00283431 0)
(0.0259697 0.00223074 0)
(0.0276069 0.00179097 0)
(0.0289555 0.00145297 0)
(0.0299455 0.0010768 0)
(0.0304901 0.000518066 0)
(0.0304982 -0.000395118 0)
(0.029874 -0.00184737 0)
(0.0284947 -0.0040256 0)
(0.0262448 -0.00714448 0)
(0.0230551 -0.0114206 0)
(0.0189344 -0.0171005 0)
(0.0139888 -0.0244712 0)
(0.00844048 -0.0338792 0)
(0.00265749 -0.0453062 0)
(-0.00208412 -0.0560655 0)
(-0.0037274 -0.0551852 0)
(-0.00112571 -0.0293987 0)
(-0.000389441 0.00495394 0)
(-0.00203101 0.0113557 0)
(-0.00302424 0.0150938 0)
(-0.00284379 0.0170188 0)
(-0.00132278 0.0176408 0)
(0.00159104 0.0168339 0)
(0.00520032 0.0149308 0)
(0.00917502 0.0125445 0)
(0.0131277 0.0101305 0)
(0.0168501 0.0079802 0)
(0.0202904 0.00621386 0)
(0.0234826 0.00482413 0)
(0.0264775 0.00374264 0)
(0.0293051 0.00289799 0)
(0.031972 0.00224157 0)
(0.0345138 0.0017319 0)
(0.0367429 0.00135917 0)
(0.0384987 0.00108306 0)
(0.0397795 0.000794835 0)
(0.0405457 0.000376751 0)
(0.0407465 -0.000304693 0)
(0.040222 -0.00138663 0)
(0.0388387 -0.00301126 0)
(0.036452 -0.00534893 0)
(0.0329484 -0.00859681 0)
(0.0282817 -0.0130122 0)
(0.0225031 -0.0189608 0)
(0.0157928 -0.0269824 0)
(0.00853733 -0.0376366 0)
(0.00163379 -0.0499388 0)
(-0.00304453 -0.0551322 0)
(-0.00146297 -0.0340359 0)
(-0.000862122 0.00769666 0)
(-0.00383172 0.0140523 0)
(-0.00498373 0.0158132 0)
(-0.00424463 0.0158417 0)
(-0.00168977 0.0151507 0)
(0.00261888 0.0136731 0)
(0.00753979 0.0117722 0)
(0.0127972 0.00972781 0)
(0.0179768 0.00777248 0)
(0.0228712 0.00606148 0)
(0.0274193 0.00465936 0)
(0.0316377 0.00355607 0)
(0.0355603 0.00270219 0)
(0.0392041 0.00204433 0)
(0.0425664 0.00154223 0)
(0.0456708 0.00116024 0)
(0.0482752 0.000887313 0)
(0.050243 0.000691165 0)
(0.0516496 0.000492632 0)
(0.0524993 0.0002049 0)
(0.0527517 -0.000260851 0)
(0.0522252 -0.000994372 0)
(0.0507875 -0.00209542 0)
(0.0482812 -0.00368441 0)
(0.0445605 -0.00591494 0)
(0.0395148 -0.0090169 0)
(0.033093 -0.0133724 0)
(0.0253509 -0.0196317 0)
(0.0165682 -0.0287484 0)
(0.0074946 -0.0411185 0)
(-0.000738169 -0.0516055 0)
(-0.00149964 -0.0381215 0)
(-0.00165552 0.0127654 0)
(-0.00553318 0.0170344 0)
(-0.00526642 0.0155736 0)
(-0.00249862 0.0135427 0)
(0.0024075 0.0116145 0)
(0.0083713 0.00982008 0)
(0.0148598 0.00812846 0)
(0.0215262 0.00653686 0)
(0.0279928 0.00510386 0)
(0.0340406 0.00388446 0)
(0.0395739 0.00290199 0)
(0.0445744 0.00214316 0)
(0.0490591 0.00157141 0)
(0.0530507 0.00114639 0)
(0.0565703 0.000834912 0)
(0.0596681 0.000608605 0)
(0.0621484 0.00045372 0)
(0.0639521 0.00034388 0)
(0.0652 0.00023081 0)
(0.0659168 6.21966e-05 0)
(0.0660416 -0.000209044 0)
(0.0654215 -0.000633428 0)
(0.0639281 -0.00127162 0)
(0.0614066 -0.00219499 0)
(0.0576996 -0.00350167 0)
(0.0526492 -0.00535874 0)
(0.0460881 -0.00808802 0)
(0.0378543 -0.0123224 0)
(0.0279035 -0.0192028 0)
(0.0165515 -0.0301424 0)
(0.00440502 -0.043504 0)
(-0.000171024 -0.0396204 0)
(-0.00129101 0.0181286 0)
(-0.00318708 0.017971 0)
(0.00316964 0.0125814 0)
(0.01053 0.00945447 0)
(0.0181582 0.00727543 0)
(0.025852 0.00561084 0)
(0.0335036 0.00431547 0)
(0.0408825 0.00326657 0)
(0.0477208 0.00241113 0)
(0.0538415 0.00173258 0)
(0.0591722 0.00121855 0)
(0.0637274 0.000846501 0)
(0.0675743 0.000585568 0)
(0.0707992 0.000405679 0)
(0.073488 0.00028314 0)
(0.0757396 0.000200493 0)
(0.0774737 0.000146974 0)
(0.0786975 0.000107425 0)
(0.0795046 6.17769e-05 0)
(0.0799061 -1.04429e-05 0)
(0.0798133 -0.000127411 0)
(0.0791293 -0.000310724 0)
(0.0777356 -0.000587796 0)
(0.0754969 -0.000989458 0)
(0.0722722 -0.00156126 0)
(0.0678966 -0.00239232 0)
(0.0621319 -0.00368276 0)
(0.0545943 -0.00588902 0)
(0.0446891 -0.00998199 0)
(0.0316649 -0.0176598 0)
(0.0155167 -0.0297922 0)
(0.00631681 -0.0334596 0)
(0.0207601 0.0113001 0)
(0.0270391 0.00920113 0)
(0.0400111 0.00536033 0)
(0.0506506 0.00326371 0)
(0.058827 0.0020578 0)
(0.0655163 0.00129645 0)
(0.0711815 0.000814458 0)
(0.0759762 0.000506957 0)
(0.0799525 0.000308782 0)
(0.0831631 0.000182559 0)
(0.0856954 0.00010533 0)
(0.0876669 6.05323e-05 0)
(0.0892005 3.55483e-05 0)
(0.0904022 2.18003e-05 0)
(0.0913537 1.41667e-05 0)
(0.0921239 1.01028e-05 0)
(0.09271 7.85049e-06 0)
(0.0931176 4.96461e-06 0)
(0.0933599 -5.5954e-07 0)
(0.0934165 -1.04482e-05 0)
(0.0932374 -2.72302e-05 0)
(0.0927671 -5.40878e-05 0)
(0.091933 -9.52907e-05 0)
(0.0906567 -0.000155136 0)
(0.0888568 -0.000240656 0)
(0.0864246 -0.000368256 0)
(0.0831595 -0.000581107 0)
(0.0786287 -0.000991631 0)
(0.0718773 -0.00187995 0)
(0.0608954 -0.00399247 0)
(0.0432892 -0.00919744 0)
(0.0285945 -0.0145333 0)
)
;

boundaryField
{
    movingWall
    {
        type            fixedValue;
        value           uniform (0.1 0 0);
    }
    fixedWalls
    {
        type            noSlip;
    }
    floor
    {
        type            noSlip;
    }
    frontAndBack
    {
        type            empty;
    }
}


// ************************************************************************* //
