/*--------------------------------*- C++ -*----------------------------------*\
| =========                 |                                                 |
| \\      /  F ield         | OpenFOAM: The Open Source CFD Toolbox           |
|  \\    /   O peration     | Version:  2212                                  |
|   \\  /    A nd           | Website:  www.openfoam.com                      |
|    \\/     M anipulation  |                                                 |
\*---------------------------------------------------------------------------*/
FoamFile
{
    version     2.0;
    format      ascii;
    arch        "LSB;label=64;scalar=64";
    class       volScalarField::Internal;
    location    "1610";
    object      dGch4;
}
// * * * * * * * * * * * * * * * * * * * * * * * * * * * * * * * * * * * * * //

dimensions      [1 -3 -1 0 0 0 0];

value           nonuniform List<scalar> 
1024
(
0.000907562
0.000907753
0.00090822
0.000909075
0.00091045
0.000912484
0.000915302
0.000918982
0.000923532
0.000928897
0.000935025
0.00094199
0.000950092
0.000959742
0.000970922
0.000982391
0.000990658
0.000993171
0.00099092
0.000985292
0.000977369
0.000968083
0.000958359
0.00094907
0.000940891
0.000934193
0.00092906
0.000925364
0.000922874
0.000921327
0.000920482
0.000920138
0.000907674
0.000907867
0.000908339
0.000909205
0.000910598
0.000912658
0.00091551
0.000919228
0.000923815
0.00092921
0.000935358
0.000942334
0.000950451
0.000960136
0.000971375
0.00098291
0.000991214
0.00099373
0.000991462
0.000985816
0.000977875
0.000968566
0.000958802
0.000949454
0.000941203
0.000934434
0.000929239
0.000925497
0.000922976
0.000921411
0.000920557
0.00092021
0.000907949
0.000908145
0.000908629
0.000909516
0.000910946
0.000913063
0.000915992
0.000919801
0.000924485
0.000929968
0.000936179
0.000943191
0.000951346
0.000961112
0.000972495
0.000984199
0.000992603
0.000995099
0.000992742
0.000986993
0.000978967
0.000969581
0.000959724
0.000950253
0.00094186
0.000934949
0.000929631
0.000925795
0.000923212
0.00092161
0.000920737
0.000920383
0.000908452
0.000908653
0.000909153
0.000910074
0.000911564
0.000913775
0.000916834
0.000920809
0.000925677
0.000931339
0.00093769
0.000944789
0.000953021
0.000962932
0.000974576
0.000986603
0.000995189
0.000997608
0.000995006
0.000988973
0.000980711
0.000971143
0.000961116
0.000951457
0.000942857
0.000935742
0.000930249
0.00092628
0.000923606
0.000921951
0.000921051
0.000920687
0.000909268
0.000909476
0.000909996
0.000910964
0.00091254
0.000914889
0.00091815
0.000922388
0.000927565
0.00093354
0.00094015
0.000947426
0.000955801
0.000965951
0.00097802
0.00099057
0.000999431
0.00100166
0.000998547
0.000991921
0.000983162
0.000973227
0.000962914
0.000952993
0.000944134
0.000936776
0.000931075
0.000926951
0.000924173
0.000922457
0.000921528
0.000921153
0.000910508
0.000910723
0.00091127
0.000912299
0.000913991
0.000916533
0.000920082
0.000924712
0.000930362
0.000936833
0.000943877
0.000951471
0.000960113
0.000970645
0.000983346
0.000996646
0.00100585
0.00100769
0.00100368
0.000996011
0.000986355
0.000975769
0.000964996
0.000954722
0.000945569
0.000937958
0.000932056
0.000927785
0.000924914
0.000923147
0.000922194
0.000921812
0.000912322
0.000912546
0.000913124
0.00091423
0.000916073
0.000918873
0.000922819
0.000927998
0.000934326
0.000941524
0.000949237
0.000957373
0.000966487
0.00097762
0.0009912
0.00100545
0.00101499
0.00101614
0.00101072
0.00100141
0.000990323
0.000978684
0.000967207
0.000956469
0.000946998
0.000939166
0.000933113
0.00092875
0.000925832
0.000924048
0.000923095
0.000922716
0.00091491
0.000915144
0.000915762
0.000916965
0.000919
0.000922134
0.000926601
0.000932511
0.000939754
0.000947958
0.000956642
0.000965639
0.000975553
0.000987599
0.00100231
0.00101759
0.00102729
0.00102735
0.00101994
0.00100833
0.000995151
0.000981946
0.000969448
0.000958103
0.000948304
0.000940318
0.000934217
0.000929867
0.000926992
0.000925258
0.000924347
0.000923992
0.000918535
0.000918782
0.00091945
0.000920774
0.00092305
0.000926606
0.000931732
0.000938573
0.000946991
0.000956515
0.000966538
0.000976821
0.000987995
0.00100135
0.00101738
0.00103356
0.0010431
0.00104165
0.00103174
0.00101719
0.00100123
0.000985851
0.000971921
0.000959772
0.000949619
0.000941565
0.000935555
0.000931368
0.000928669
0.000927089
0.000926289
0.00092599
0.000923518
0.000923785
0.000924519
0.000925998
0.000928576
0.000932652
0.000938587
0.000946568
0.000956433
0.000967617
0.0009794
0.000991478
0.00100446
0.00101953
0.00103692
0.00105369
0.0010627
0.00105962
0.00104713
0.00102932
0.00100999
0.000991719
0.000975775
0.000962468
0.000951827
0.000943733
0.000937938
0.000934076
0.000931716
0.000930429
0.000929836
0.000929644
0.000930204
0.000930499
0.000931323
0.000933003
0.000935962
0.000940677
0.000947591
0.000956931
0.00096852
0.000981712
0.000995689
0.00101007
0.00102534
0.0010424
0.00106102
0.00107801
0.00108654
0.00108257
0.00106844
0.001048
0.00102522
0.00100337
0.000984525
0.000969332
0.000957723
0.000949359
0.000943739
0.000940283
0.000938401
0.00093755
0.00093728
0.000937255
0.000938856
0.00093919
0.000940133
0.000942073
0.00094551
0.00095101
0.000959092
0.00097002
0.00098359
0.000999081
0.00101558
0.00103261
0.00105041
0.00106945
0.00108907
0.00110629
0.00111535
0.00111268
0.00109962
0.00107905
0.00105446
0.00102944
0.00100689
0.00098846
0.00097458
0.000964978
0.000958928
0.000955577
0.000954074
0.000953665
0.000953755
0.000953926
0.000949463
0.000949844
0.000950928
0.000953172
0.000957161
0.00096355
0.000972921
0.000985558
0.00100123
0.00101915
0.0010383
0.001058
0.00107818
0.0010989
0.00111939
0.00113749
0.00114915
0.00115135
0.00114395
0.0011283
0.00110661
0.00108189
0.00105723
0.00103517
0.00101734
0.00100439
0.000995989
0.000991303
0.000989216
0.000988662
0.000988798
0.000989038
0.000961582
0.000962006
0.000963225
0.000965763
0.000970287
0.000977529
0.000988126
0.00100237
0.00102001
0.00104017
0.00106169
0.00108364
0.00110559
0.00112738
0.00114849
0.00116801
0.00118385
0.00119377
0.00119658
0.00119205
0.00118061
0.00116363
0.00114321
0.00112172
0.00110152
0.00108443
0.00107148
0.00106283
0.00105783
0.00105545
0.00105463
0.00105452
0.000974317
0.000974768
0.000976073
0.0009788
0.00098367
0.000991475
0.00100289
0.00101824
0.00103724
0.00105895
0.00108203
0.00110524
0.00112779
0.00114935
0.00116973
0.00118912
0.00120731
0.00122368
0.00123705
0.00124618
0.00124993
0.00124782
0.00124018
0.00122805
0.00121307
0.00119723
0.00118258
0.00117063
0.00116207
0.0011568
0.00115414
0.00115321
0.000986448
0.000986902
0.000988205
0.000990915
0.000995753
0.00100352
0.00101493
0.00103034
0.00104952
0.0010715
0.00109478
0.00111775
0.00113916
0.00115831
0.00117503
0.00119002
0.00120478
0.0012215
0.00124011
0.0012589
0.0012757
0.00128872
0.00129691
0.00129991
0.00129805
0.00129235
0.0012843
0.00127568
0.00126809
0.0012625
0.00125915
0.00125775
0.000995916
0.000996349
0.00099756
0.00100004
0.00100444
0.00101151
0.00102195
0.00103617
0.00105405
0.00107471
0.00109662
0.00111786
0.00113669
0.00115185
0.00116281
0.00117027
0.00117704
0.00118841
0.00120618
0.00122869
0.00125299
0.00127619
0.00129615
0.00131157
0.00132199
0.00132764
0.00132929
0.00132815
0.00132559
0.00132288
0.00132087
0.00131988
0.0010017
0.0010021
0.0010032
0.00100539
0.00100921
0.00101532
0.00102437
0.0010368
0.0010526
0.00107108
0.00109081
0.00110985
0.00112618
0.00113812
0.00114477
0.0011466
0.00114688
0.00115248
0.00116697
0.0011898
0.00121815
0.00124835
0.00127694
0.00130133
0.00132019
0.00133331
0.00134127
0.00134516
0.00134631
0.001346
0.00134528
0.00134479
0.00100459
0.00100498
0.00100597
0.00100789
0.00101118
0.00101639
0.00102407
0.00103468
0.00104828
0.00106438
0.00108177
0.00109867
0.00111306
0.00112313
0.00112778
0.00112726
0.00112489
0.00112756
0.00113919
0.00116033
0.00118936
0.00122314
0.00125778
0.00128949
0.00131568
0.0013352
0.00134819
0.00135568
0.00135916
0.00136018
0.00136008
0.00135979
0.00100572
0.00100607
0.00100695
0.00100863
0.00101147
0.00101589
0.00102237
0.00103132
0.00104286
0.00105663
0.00107169
0.00108652
0.00109933
0.00110842
0.00111271
0.0011124
0.00111061
0.00111336
0.00112397
0.00114345
0.00117122
0.00120531
0.00124241
0.00127855
0.00131023
0.00133526
0.001353
0.00136405
0.00136983
0.00137209
0.0013725
0.00137233
0.00100617
0.00100646
0.00100719
0.00100859
0.00101095
0.00101466
0.00102009
0.00102759
0.00103727
0.0010489
0.00106176
0.00107466
0.00108617
0.00109491
0.0011
0.00110176
0.0011029
0.00110795
0.00111931
0.00113806
0.00116427
0.00119691
0.00123369
0.00127128
0.00130604
0.00133503
0.00135671
0.00137105
0.00137913
0.0013827
0.00138365
0.0013836
0.00100741
0.00100755
0.001008
0.00100895
0.0010107
0.00101361
0.00101801
0.00102419
0.00103226
0.00104204
0.00105302
0.0010644
0.00107513
0.00108425
0.00109121
0.00109647
0.00110204
0.00111059
0.00112363
0.00114223
0.00116691
0.00119736
0.00123212
0.00126874
0.00130416
0.00133527
0.00135983
0.00137699
0.00138727
0.00139221
0.00139377
0.00139386
0.00101128
0.00101118
0.00101112
0.00101133
0.00101218
0.00101405
0.00101732
0.00102227
0.001029
0.00103743
0.00104724
0.00105791
0.0010688
0.00107929
0.00108911
0.00109875
0.00110926
0.00112151
0.00113627
0.00115466
0.00117756
0.00120524
0.00123702
0.00127115
0.00130525
0.00133665
0.0013628
0.00138213
0.0013944
0.00140071
0.00140295
0.0014032
0.00101984
0.00101936
0.00101855
0.00101772
0.00101734
0.00101796
0.00102005
0.00102397
0.00102989
0.00103779
0.00104748
0.00105862
0.00107079
0.00108356
0.00109676
0.00111078
0.00112568
0.00114088
0.00115672
0.00117444
0.00119513
0.00121953
0.00124755
0.00127818
0.00130964
0.00133974
0.00136612
0.00138675
0.00140066
0.00140829
0.00141125
0.00141171
0.00103494
0.00103394
0.0010322
0.00103019
0.00102858
0.00102806
0.00102931
0.0010328
0.00103876
0.00104718
0.00105787
0.0010705
0.00108466
0.00109997
0.0011162
0.0011336
0.00115144
0.00116823
0.00118415
0.00120056
0.00121866
0.00123943
0.00126321
0.00128958
0.00131742
0.00134501
0.00137033
0.00139126
0.00140626
0.00141504
0.00141874
0.00141943
0.00105785
0.00105627
0.00105364
0.00105076
0.0010485
0.00104767
0.00104899
0.00105304
0.00106001
0.00106979
0.00108208
0.00109644
0.00111239
0.00112952
0.00114755
0.00116658
0.00118545
0.00120229
0.00121727
0.00123178
0.00124706
0.00126408
0.00128345
0.00130518
0.00132868
0.00135281
0.00137594
0.00139609
0.00141144
0.00142106
0.00142545
0.00142641
0.00108933
0.00108718
0.00108409
0.00108129
0.0010797
0.00107997
0.00108264
0.0010882
0.00109671
0.00110792
0.00112144
0.00113676
0.00115338
0.00117086
0.00118893
0.00120761
0.00122564
0.00124117
0.00125438
0.00126661
0.00127898
0.0012924
0.00130751
0.00132457
0.0013434
0.00136337
0.00138336
0.00140171
0.00141654
0.0014265
0.00143144
0.00143268
0.0011298
0.00112729
0.00112472
0.00112354
0.00112427
0.001127
0.00113189
0.00113921
0.00114886
0.00116064
0.00117416
0.00118898
0.00120465
0.00122079
0.00123716
0.00125378
0.00126949
0.0012827
0.00129362
0.00130339
0.00131295
0.00132306
0.0013343
0.001347
0.00136122
0.00137672
0.00139288
0.00140849
0.00142191
0.00143156
0.00143676
0.00143827
0.00117987
0.00117761
0.00117704
0.001179
0.00118301
0.0011885
0.00119531
0.00120353
0.00121312
0.00122401
0.00123599
0.00124875
0.00126195
0.00127533
0.00128869
0.00130206
0.00131452
0.00132484
0.0013332
0.0013405
0.00134746
0.00135464
0.00136252
0.00137139
0.0013814
0.00139254
0.00140454
0.00141673
0.00142786
0.00143646
0.00144151
0.00144318
0.0012409
0.00124003
0.00124282
0.0012481
0.0012545
0.00126135
0.00126848
0.001276
0.00128401
0.0012926
0.00130174
0.00131126
0.00132096
0.00133068
0.00134029
0.00134981
0.00135859
0.00136579
0.00137156
0.00137651
0.00138114
0.00138582
0.00139089
0.00139655
0.00140295
0.00141016
0.00141811
0.00142653
0.00143468
0.00144147
0.00144582
0.00144745
0.00131545
0.00131724
0.00132251
0.00132846
0.00133438
0.00134002
0.00134535
0.00135053
0.00135572
0.00136107
0.00136662
0.00137233
0.00137809
0.00138382
0.00138946
0.001395
0.00140009
0.00140424
0.00140754
0.00141034
0.00141293
0.0014155
0.00141825
0.00142131
0.00142476
0.00142865
0.001433
0.00143773
0.00144254
0.00144683
0.00144985
0.00145115
0.00140664
0.00140804
0.00141075
0.00141335
0.00141574
0.00141792
0.00141988
0.00142172
0.00142349
0.00142528
0.00142711
0.00142898
0.00143086
0.00143272
0.00143455
0.00143634
0.00143797
0.00143931
0.00144037
0.00144126
0.00144208
0.00144289
0.00144374
0.00144469
0.00144575
0.00144695
0.0014483
0.00144977
0.0014513
0.00145274
0.00145383
0.00145436
)
;


// ************************************************************************* //
