/*--------------------------------*- C++ -*----------------------------------*\
| =========                 |                                                 |
| \\      /  F ield         | OpenFOAM: The Open Source CFD Toolbox           |
|  \\    /   O peration     | Version:  2212                                  |
|   \\  /    A nd           | Website:  www.openfoam.com                      |
|    \\/     M anipulation  |                                                 |
\*---------------------------------------------------------------------------*/
FoamFile
{
    version     2.0;
    format      ascii;
    arch        "LSB;label=64;scalar=64";
    class       volScalarField;
    location    "1610";
    object      Gco2;
}
// * * * * * * * * * * * * * * * * * * * * * * * * * * * * * * * * * * * * * //

dimensions      [1 -3 0 0 0 0 0];

internalField   nonuniform List<scalar> 
1024
(
0.0592061
0.0591901
0.059151
0.0590795
0.0589644
0.0587942
0.0585584
0.0582505
0.0578697
0.0574206
0.0569074
0.0563241
0.0556454
0.0548372
0.0539013
0.0529423
0.0522522
0.0520433
0.0522325
0.0527036
0.0533666
0.0541435
0.0549571
0.0557344
0.0564188
0.0569793
0.057409
0.0577183
0.0579268
0.0580562
0.0581269
0.0581557
0.0591967
0.0591806
0.059141
0.0590686
0.0589521
0.0587797
0.0585411
0.0582299
0.0578461
0.0573944
0.0568796
0.0562954
0.0556154
0.0548042
0.0538635
0.052899
0.0522057
0.0519967
0.0521872
0.05266
0.0533244
0.0541032
0.0549201
0.0557023
0.0563927
0.0569592
0.057394
0.0577072
0.0579182
0.0580492
0.0581207
0.0581497
0.0591737
0.0591573
0.0591168
0.0590426
0.0589229
0.0587458
0.0585008
0.058182
0.05779
0.0573311
0.056811
0.0562237
0.0555406
0.0547226
0.0537699
0.0527913
0.0520897
0.0518823
0.0520803
0.0525617
0.0532332
0.0540184
0.0548431
0.0556355
0.0563378
0.0569162
0.0573612
0.0576823
0.0578985
0.0580326
0.0581056
0.0581353
0.0591316
0.0591147
0.059073
0.0589959
0.0588712
0.0586862
0.0584303
0.0580977
0.0576903
0.0572164
0.0566847
0.0560901
0.0554005
0.0545705
0.0535959
0.0525904
0.0518737
0.0516728
0.0518913
0.0523964
0.0530875
0.0538879
0.0547268
0.0555349
0.0562544
0.0568498
0.0573096
0.0576418
0.0578656
0.0580041
0.0580794
0.0581099
0.0590633
0.0590459
0.0590024
0.0589214
0.0587895
0.058593
0.0583202
0.0579657
0.0575324
0.0570324
0.056479
0.0558698
0.0551681
0.0543181
0.053308
0.0522589
0.0515195
0.0513347
0.0515958
0.0521503
0.052883
0.053714
0.0545766
0.0554066
0.0561478
0.0567635
0.0572406
0.0575857
0.0578182
0.0579618
0.0580396
0.058071
0.0589595
0.0589415
0.0588958
0.0588097
0.0586681
0.0584555
0.0581586
0.0577713
0.0572985
0.0567571
0.0561676
0.0555316
0.0548078
0.0539257
0.0528629
0.0517513
0.0509832
0.050831
0.0511674
0.0518091
0.0526166
0.0535019
0.0544029
0.0552623
0.056028
0.0566648
0.0571587
0.0575161
0.0577563
0.0579042
0.057984
0.058016
0.0588076
0.0587889
0.0587405
0.058648
0.0584939
0.0582596
0.0579296
0.0574965
0.0569671
0.0563649
0.0557196
0.0550384
0.0542751
0.0533429
0.0522067
0.0510161
0.0502206
0.0501263
0.0505804
0.0513585
0.0522857
0.0532589
0.0542186
0.0551166
0.0559088
0.056564
0.0570704
0.0574355
0.0576797
0.057829
0.0579088
0.0579405
0.058591
0.0585715
0.0585198
0.0584192
0.058249
0.0579868
0.0576132
0.057119
0.0565132
0.0558271
0.0551006
0.0543476
0.0535175
0.0525091
0.0512788
0.0500025
0.0491935
0.0491907
0.0498113
0.050782
0.0518833
0.0529871
0.054032
0.0549806
0.0558001
0.0564681
0.0569784
0.0573424
0.0575829
0.057728
0.0578042
0.057834
0.0582877
0.058267
0.0582111
0.0581004
0.05791
0.0576127
0.057184
0.0566119
0.055908
0.0551117
0.0542734
0.0534131
0.0524779
0.0513601
0.05002
0.0486684
0.047874
0.0479972
0.0488264
0.0500426
0.0513762
0.0526618
0.0538261
0.0548418
0.0556908
0.0563643
0.056867
0.0572172
0.057443
0.0575752
0.0576422
0.0576672
0.0578707
0.0578484
0.057787
0.0576633
0.0574477
0.0571069
0.0566106
0.0559433
0.0551185
0.0541836
0.0531983
0.0521882
0.0511025
0.0498414
0.0483878
0.0469883
0.0462383
0.0464976
0.0475428
0.0490308
0.0506458
0.0521727
0.0535051
0.0546173
0.0555069
0.0561836
0.0566682
0.0569913
0.0571887
0.0572965
0.057346
0.0573621
0.0573112
0.0572866
0.0572177
0.0570772
0.0568299
0.0564356
0.0558576
0.0550767
0.054108
0.0530053
0.0518368
0.0506344
0.0493577
0.0479312
0.0463757
0.0449584
0.0442487
0.0445829
0.0457647
0.047472
0.0493751
0.0512005
0.052775
0.0540447
0.0550149
0.0557141
0.056184
0.056473
0.0566305
0.0567017
0.0567244
0.0567265
0.0565875
0.0565595
0.0564807
0.0563185
0.0560313
0.0555714
0.0548959
0.0539824
0.0528482
0.0515534
0.050174
0.0487511
0.0472635
0.0456722
0.0440342
0.0425985
0.0418446
0.0420696
0.0431617
0.0448802
0.0469341
0.0490233
0.0509073
0.0524472
0.0536071
0.0544095
0.0549153
0.0551955
0.0553213
0.0553556
0.0553481
0.0553339
0.0557002
0.0556684
0.0555778
0.0553903
0.0550568
0.0545228
0.0537397
0.0526835
0.0513739
0.0498765
0.0482759
0.0466294
0.0449435
0.0432131
0.0415035
0.0399943
0.0390235
0.0388426
0.0394618
0.0407696
0.0425803
0.0446444
0.0467041
0.0485459
0.0500359
0.0511173
0.0518196
0.0522113
0.0523859
0.0524323
0.0524211
0.0524011
0.0546865
0.0546511
0.0545493
0.0543372
0.0539592
0.0533539
0.0524684
0.0512777
0.0498041
0.0481196
0.0463212
0.0444876
0.042654
0.0408353
0.0390742
0.0374469
0.0361281
0.0353024
0.0350699
0.0354498
0.0364056
0.0378226
0.0395275
0.0413212
0.0430079
0.0444342
0.045516
0.0462385
0.0466563
0.0468553
0.0469236
0.0469331
0.0536212
0.0535835
0.0534746
0.0532468
0.0528398
0.0521877
0.0512335
0.0499508
0.048363
0.0465489
0.0446207
0.0426826
0.0407993
0.0390001
0.0372998
0.0356837
0.0341691
0.0328067
0.0316946
0.0309354
0.0306247
0.0308015
0.0314393
0.0324512
0.0337014
0.0350226
0.0362446
0.0372424
0.0379565
0.038396
0.0386183
0.0386963
0.0526062
0.0525682
0.0524595
0.0522331
0.0518289
0.0511798
0.0502265
0.0489385
0.0473359
0.045499
0.043554
0.0416355
0.0398476
0.0382491
0.0368547
0.0356055
0.0343779
0.0329868
0.0314394
0.029876
0.028479
0.0273953
0.026714
0.0264646
0.0266191
0.0270948
0.0277652
0.0284833
0.0291159
0.0295817
0.029861
0.0299781
0.0518135
0.0517773
0.0516762
0.051469
0.0511013
0.0505108
0.0496387
0.0484501
0.0469561
0.0452291
0.0433986
0.0416232
0.0400502
0.0387841
0.0378695
0.0372478
0.0366857
0.0357414
0.0342651
0.0323932
0.0303722
0.0284417
0.0267812
0.0254981
0.0246309
0.0241609
0.0240228
0.0241174
0.0243295
0.0245546
0.0247225
0.0248047
0.0513289
0.0512949
0.0512035
0.0510207
0.0507012
0.0501907
0.0494347
0.0483958
0.0470752
0.0455307
0.0438813
0.0422892
0.0409245
0.0399262
0.0393702
0.0392176
0.0391959
0.0387322
0.0375276
0.03563
0.033272
0.0307596
0.0283822
0.0263535
0.0247843
0.023693
0.0230303
0.0227057
0.0226097
0.0226347
0.0226942
0.0227349
0.0510854
0.0510535
0.0509708
0.0508103
0.0505352
0.0501004
0.0494581
0.0485718
0.0474346
0.0460888
0.0446347
0.0432212
0.0420177
0.0411748
0.0407853
0.0408275
0.0410262
0.0408063
0.0398396
0.0380826
0.0356681
0.0328579
0.0299771
0.0273393
0.025161
0.0235376
0.022457
0.0218333
0.0215435
0.0214581
0.021466
0.0214901
0.0509904
0.0509612
0.0508873
0.0507468
0.0505103
0.0501409
0.0495987
0.0488507
0.0478863
0.0467348
0.0454756
0.0442346
0.0431628
0.0424014
0.0420414
0.0420666
0.0422163
0.0419892
0.0411074
0.039488
0.0371774
0.0343424
0.0312557
0.02825
0.0256153
0.0235332
0.0220582
0.0211392
0.0206581
0.0204697
0.0204355
0.0204497
0.0509512
0.0509274
0.0508665
0.0507498
0.050552
0.0502424
0.0497882
0.0491615
0.0483518
0.0473794
0.0463042
0.0452245
0.0442612
0.0435297
0.0431025
0.0429547
0.0428599
0.0424412
0.0414967
0.039937
0.0377568
0.0350417
0.031982
0.0288555
0.0259646
0.0235538
0.0217504
0.0205583
0.0198861
0.019589
0.0195095
0.0195137
0.0508477
0.0508352
0.0507984
0.050719
0.0505723
0.0503294
0.0499612
0.0494445
0.0487702
0.0479524
0.0470331
0.0460817
0.0451838
0.0444205
0.0438377
0.043398
0.0429348
0.0422231
0.0411386
0.0395915
0.0375382
0.035005
0.0321132
0.029067
0.0261217
0.023534
0.0214917
0.0200652
0.01921
0.0187994
0.0186694
0.0186619
0.0505245
0.0505327
0.0505378
0.0505195
0.0504488
0.0502923
0.0500187
0.049605
0.0490419
0.048337
0.0475167
0.0466243
0.045714
0.0448367
0.0440164
0.043212
0.0423368
0.041317
0.0400889
0.0385585
0.0366536
0.0343501
0.0317068
0.0288679
0.0260312
0.0234205
0.0212453
0.0196389
0.0186181
0.0180932
0.0179073
0.017886
0.0498107
0.0498507
0.0499185
0.0499874
0.0500182
0.0499666
0.0497914
0.0494632
0.0489682
0.048308
0.0474984
0.0465674
0.0455514
0.0444847
0.0433834
0.0422142
0.0409728
0.0397074
0.0383893
0.0369147
0.0351927
0.0331628
0.0308314
0.0282836
0.0256669
0.0231639
0.0209703
0.0192547
0.0180982
0.0174637
0.0172177
0.0171798
0.0485536
0.0486361
0.0487812
0.0489482
0.0490825
0.0491246
0.04902
0.0487282
0.0482301
0.0475269
0.0466345
0.0455804
0.0443988
0.0431219
0.0417682
0.0403179
0.0388315
0.0374334
0.0361085
0.034743
0.033236
0.0315084
0.02953
0.0273357
0.0250208
0.0227258
0.0206209
0.0188807
0.0176337
0.0169035
0.0165961
0.0165385
0.046645
0.0467769
0.0469956
0.0472352
0.0474233
0.047492
0.047381
0.0470431
0.0464613
0.0456453
0.0446207
0.0434231
0.0420924
0.0406643
0.0391618
0.0375761
0.036004
0.0346013
0.0333545
0.0321462
0.030875
0.0294582
0.0278466
0.0260392
0.0240848
0.0220779
0.0201547
0.0184792
0.017203
0.0164034
0.0160387
0.0159587
0.0440241
0.0442036
0.0444601
0.0446929
0.0448251
0.0448024
0.0445792
0.0441156
0.0434064
0.0424718
0.0413452
0.040068
0.0386827
0.0372255
0.0357202
0.0341638
0.0326618
0.0313686
0.0302683
0.0292501
0.0282204
0.0271037
0.0258464
0.0244274
0.0228614
0.0212002
0.0195379
0.0180126
0.0167794
0.0159517
0.0155414
0.0154377
0.0406552
0.0408636
0.0410773
0.0411753
0.0411144
0.0408868
0.040479
0.0398696
0.039065
0.0380841
0.0369574
0.0357225
0.0344169
0.0330716
0.0317076
0.0303233
0.0290145
0.027914
0.0270048
0.0261917
0.0253959
0.0245546
0.0236197
0.0225631
0.0213802
0.0200907
0.0187473
0.0174489
0.0163337
0.0155318
0.0150992
0.014974
0.0364867
0.0366751
0.0367225
0.0365586
0.0362246
0.0357672
0.0351999
0.0345154
0.0337165
0.0328091
0.0318112
0.0307486
0.0296486
0.0285339
0.0274204
0.0263069
0.0252692
0.0244099
0.0237135
0.0231059
0.0225267
0.0219285
0.0212732
0.0205351
0.0197022
0.018776
0.017778
0.0167648
0.0158392
0.0151246
0.0147047
0.014566
0.0314062
0.0314789
0.0312468
0.0308071
0.0302738
0.0297033
0.0291095
0.0284836
0.0278165
0.0271004
0.0263396
0.0255468
0.0247383
0.0239284
0.0231277
0.0223352
0.0216039
0.0210036
0.0205231
0.0201109
0.0197259
0.019336
0.0189149
0.0184437
0.0179109
0.0173117
0.0166503
0.0159507
0.0152726
0.0147089
0.014347
0.0142112
0.0252004
0.0250515
0.0246129
0.0241173
0.0236248
0.0231555
0.0227116
0.0222804
0.0218481
0.0214023
0.0209399
0.0204648
0.0199846
0.0195069
0.0190375
0.0185759
0.0181523
0.0178063
0.0175313
0.0172979
0.017083
0.0168685
0.0166396
0.0163853
0.0160985
0.0157748
0.015413
0.0150197
0.01462
0.0142636
0.0140122
0.0139047
0.0176107
0.0174936
0.0172679
0.0170515
0.0168524
0.0166715
0.0165078
0.0163553
0.0162074
0.0160584
0.0159059
0.0157503
0.0155937
0.0154385
0.0152865
0.0151375
0.0150011
0.0148899
0.0148018
0.0147274
0.0146595
0.0145921
0.0145208
0.0144421
0.0143536
0.0142538
0.0141421
0.0140196
0.013892
0.013773
0.0136821
0.013638
)
;

boundaryField
{
    movingWall
    {
        type            fixedValue;
        value           uniform 0.0135;
    }
    fixedWalls
    {
        type            zeroGradient;
    }
    floor
    {
        type            zeroGradient;
    }
    frontAndBack
    {
        type            empty;
    }
}


// ************************************************************************* //
