/*--------------------------------*- C++ -*----------------------------------*\
| =========                 |                                                 |
| \\      /  F ield         | OpenFOAM: The Open Source CFD Toolbox           |
|  \\    /   O peration     | Version:  2212                                  |
|   \\  /    A nd           | Website:  www.openfoam.com                      |
|    \\/     M anipulation  |                                                 |
\*---------------------------------------------------------------------------*/
FoamFile
{
    version     2.0;
    format      ascii;
    arch        "LSB;label=64;scalar=64";
    class       surfaceScalarField;
    location    "1610";
    object      phi;
}
// * * * * * * * * * * * * * * * * * * * * * * * * * * * * * * * * * * * * * //

dimensions      [0 3 -1 0 0 0 0];

oriented        oriented;

internalField   nonuniform List<scalar> 
1984
(
-3.58502e-10
3.58077e-10
-3.98215e-09
3.62383e-09
-1.17562e-08
7.77399e-09
-2.2664e-08
1.09078e-08
-3.45484e-08
1.18844e-08
-4.44972e-08
9.9488e-09
-4.91361e-08
4.63887e-09
-4.50774e-08
-4.05878e-09
-3.02253e-08
-1.48521e-08
-7.76915e-09
-2.24562e-08
1.1818e-08
-1.95871e-08
1.70729e-08
-5.25493e-09
8.3583e-09
8.71467e-09
-3.8011e-09
1.21594e-08
-3.43394e-11
-3.76677e-09
3.64526e-08
-3.6487e-08
9.69572e-08
-6.05046e-08
1.50406e-07
-5.34489e-08
1.7908e-07
-2.86734e-08
1.79041e-07
3.87128e-11
1.59947e-07
1.90935e-08
1.33458e-07
2.64894e-08
1.06893e-07
2.65654e-08
8.31111e-08
2.37815e-08
6.25791e-08
2.0532e-08
4.47812e-08
1.77979e-08
2.92728e-08
1.55083e-08
1.62496e-08
1.30232e-08
6.53648e-09
9.71318e-09
9.46872e-10
5.58965e-09
-6.56115e-10
1.60299e-09
-6.56161e-10
-3.70907e-09
4.06739e-09
-1.67044e-08
1.66189e-08
-3.99682e-08
3.10378e-08
-7.12887e-08
4.22284e-08
-1.05115e-07
4.57105e-08
-1.33241e-07
3.80747e-08
-1.45972e-07
1.73698e-08
-1.33902e-07
-1.61285e-08
-9.18058e-08
-5.69481e-08
-2.79697e-08
-8.62924e-08
2.95062e-08
-7.70629e-08
4.84668e-08
-2.42155e-08
2.67585e-08
3.04231e-08
-5.63174e-09
4.45497e-08
7.80633e-09
-1.72049e-08
1.20583e-07
-1.49263e-07
3.01428e-07
-2.4135e-07
4.61383e-07
-2.13404e-07
5.52377e-07
-1.19668e-07
5.62565e-07
-1.01499e-08
5.1517e-07
6.64892e-08
4.40867e-07
1.00792e-07
3.60966e-07
1.06466e-07
2.85699e-07
9.90481e-08
2.18309e-07
8.79225e-08
1.58866e-07
7.72407e-08
1.07121e-07
6.72536e-08
6.40235e-08
5.61207e-08
3.15271e-08
4.22096e-08
1.10309e-08
2.60859e-08
1.74809e-09
1.08856e-08
1.09195e-09
-8.36188e-09
1.24292e-08
-3.28124e-08
4.10695e-08
-7.30557e-08
7.12811e-08
-1.25248e-07
9.44208e-08
-1.80692e-07
1.01154e-07
-2.2622e-07
8.36028e-08
-2.4613e-07
3.72793e-08
-2.25674e-07
-3.65844e-08
-1.57714e-07
-1.24908e-07
-5.53649e-08
-1.88642e-07
3.9031e-08
-1.71459e-07
7.46766e-08
-5.98611e-08
4.42193e-08
6.08804e-08
-3.78723e-09
9.25562e-08
2.40559e-08
-4.50482e-08
2.17985e-07
-3.43193e-07
5.22278e-07
-5.45643e-07
7.94682e-07
-4.85807e-07
9.60955e-07
-2.85941e-07
9.97215e-07
-4.64098e-08
9.33881e-07
1.29824e-07
8.17627e-07
2.17046e-07
6.83296e-07
2.40798e-07
5.50174e-07
2.3217e-07
4.26587e-07
2.11509e-07
3.15284e-07
1.88544e-07
2.17592e-07
1.64946e-07
1.35701e-07
1.38012e-07
7.25177e-08
1.05393e-07
2.98503e-08
6.87532e-08
6.81159e-09
3.39243e-08
7.90351e-09
-1.275e-08
2.51792e-08
-4.86044e-08
7.69239e-08
-1.05644e-07
1.28321e-07
-1.77818e-07
1.66595e-07
-2.53251e-07
1.76587e-07
-3.14315e-07
1.44667e-07
-3.40122e-07
6.30858e-08
-3.11914e-07
-6.47922e-08
-2.22652e-07
-2.14169e-07
-9.08485e-08
-3.20446e-07
3.23548e-08
-2.94662e-07
8.4446e-08
-1.11952e-07
5.07587e-08
9.45677e-08
-4.7879e-09
1.48103e-07
4.26213e-08
-9.24574e-08
3.11174e-07
-6.11745e-07
7.26613e-07
-9.61081e-07
1.10881e-06
-8.68006e-07
1.36293e-06
-5.40057e-07
1.44604e-06
-1.29526e-07
1.38599e-06
1.89881e-07
1.24138e-06
3.6165e-07
1.05928e-06
4.22901e-07
8.68457e-07
4.22992e-07
6.84032e-07
3.95934e-07
5.13467e-07
3.59108e-07
3.61246e-07
3.17167e-07
2.31627e-07
2.67631e-07
1.2895e-07
2.08069e-07
5.62506e-08
1.41453e-07
1.39614e-08
7.62136e-08
2.18649e-08
-1.58659e-08
4.10451e-08
-6.05199e-08
1.21578e-07
-1.31153e-07
1.98954e-07
-2.19817e-07
2.55259e-07
-3.11791e-07
2.68561e-07
-3.85649e-07
2.18525e-07
-4.16413e-07
9.38499e-08
-3.83164e-07
-9.80408e-08
-2.81674e-07
-3.15659e-07
-1.37031e-07
-4.6509e-07
-4.07069e-09
-4.27622e-07
5.96803e-08
-1.75703e-07
2.85712e-08
1.25677e-07
-2.38789e-08
2.00553e-07
4.70799e-08
-1.63416e-07
3.6826e-07
-9.32926e-07
8.64201e-07
-1.45702e-06
1.34275e-06
-1.34656e-06
1.69418e-06
-8.91488e-07
1.84866e-06
-2.83998e-07
1.81726e-06
2.21278e-07
1.66478e-06
5.14125e-07
1.44975e-06
6.37936e-07
1.20998e-06
6.62765e-07
9.67901e-07
6.38009e-07
7.37003e-07
5.90007e-07
5.26353e-07
5.27816e-07
3.43517e-07
4.50467e-07
1.9538e-07
3.56207e-07
8.73812e-08
2.49452e-07
2.23419e-08
1.41253e-07
4.42068e-08
-1.69566e-08
5.80017e-08
-6.55793e-08
1.702e-07
-1.43455e-07
2.76829e-07
-2.42067e-07
3.53872e-07
-3.45055e-07
3.71549e-07
-4.28383e-07
3.01853e-07
-4.6444e-07
1.29907e-07
-4.3235e-07
-1.30131e-07
-3.33548e-07
-4.14461e-07
-1.99874e-07
-5.98764e-07
-8.12187e-08
-5.46277e-07
-2.5575e-08
-2.31347e-07
-4.96292e-08
1.49731e-07
-8.70948e-08
2.38019e-07
6.50499e-09
-2.57016e-07
3.39265e-07
-1.26569e-06
8.67343e-07
-1.9851e-06
1.41687e-06
-1.89608e-06
1.86912e-06
-1.34374e-06
2.12156e-06
-5.36444e-07
2.14929e-06
1.93555e-07
2.01416e-06
6.49256e-07
1.78788e-06
8.64215e-07
1.51657e-06
9.34074e-07
1.22954e-06
9.25038e-07
9.46654e-07
8.72894e-07
6.82596e-07
7.91874e-07
4.49513e-07
6.8355e-07
2.57987e-07
5.47733e-07
1.16462e-07
3.90978e-07
3.00874e-08
2.27627e-07
7.42943e-08
-1.57381e-08
7.37398e-08
-6.23898e-08
2.16852e-07
-1.39231e-07
3.5367e-07
-2.39065e-07
4.53706e-07
-3.4598e-07
4.78463e-07
-4.35399e-07
3.91271e-07
-4.79301e-07
1.73809e-07
-4.59394e-07
-1.50037e-07
-3.85131e-07
-4.88724e-07
-2.93831e-07
-6.90064e-07
-2.25575e-07
-6.14533e-07
-2.01998e-07
-2.54924e-07
-2.23609e-07
1.71341e-07
-2.37745e-07
2.52155e-07
-1.41681e-07
-3.5308e-07
1.54652e-07
-1.56202e-06
6.52381e-07
-2.48283e-06
1.23453e-06
-2.47823e-06
1.78146e-06
-1.89067e-06
2.15929e-06
-9.14277e-07
2.28229e-06
7.05564e-08
2.1929e-06
7.3865e-07
1.98284e-06
1.07427e-06
1.70533e-06
1.21159e-06
1.39581e-06
1.23456e-06
1.08054e-06
1.18817e-06
7.80497e-07
1.09191e-06
5.13358e-07
9.50689e-07
2.93707e-07
7.67384e-07
1.32065e-07
5.5262e-07
3.39756e-08
3.25716e-07
1.0827e-07
-1.26999e-08
8.64396e-08
-5.22852e-08
2.56437e-07
-1.2044e-07
4.21825e-07
-2.12952e-07
5.46218e-07
-3.1682e-07
5.82331e-07
-4.09942e-07
4.84393e-07
-4.67321e-07
2.31188e-07
-4.7647e-07
-1.40889e-07
-4.55924e-07
-5.0927e-07
-4.44264e-07
-7.01725e-07
-4.64255e-07
-5.94541e-07
-5.05508e-07
-2.13672e-07
-5.4181e-07
2.07643e-07
-5.43074e-07
2.5342e-07
-4.71901e-07
-4.24254e-07
-2.76075e-07
-1.75784e-06
1.23521e-07
-2.88243e-06
6.85783e-07
-3.04049e-06
1.30404e-06
-2.50893e-06
1.82629e-06
-1.43653e-06
2.0899e-06
-1.93052e-07
2.08601e-06
7.4254e-07
1.92886e-06
1.23141e-06
1.67947e-06
1.46099e-06
1.38045e-06
1.53358e-06
1.06512e-06
1.5035e-06
7.61438e-07
1.39559e-06
4.92763e-07
1.21936e-06
2.76276e-07
9.8387e-07
1.21488e-07
7.07409e-07
3.04938e-08
4.1671e-07
1.38764e-07
-9.15548e-09
9.55951e-08
-3.97407e-08
2.87023e-07
-9.56377e-08
4.77722e-07
-1.76256e-07
6.26836e-07
-2.73418e-07
6.79493e-07
-3.70926e-07
5.81901e-07
-4.51695e-07
3.11957e-07
-5.13873e-07
-7.87105e-08
-5.83389e-07
-4.39755e-07
-6.92537e-07
-5.92576e-07
-8.39133e-07
-4.47945e-07
-9.8225e-07
-7.05554e-08
-1.07122e-06
2.96611e-07
-1.10122e-06
2.83418e-07
-1.10489e-06
-4.20579e-07
-1.05759e-06
-1.80515e-06
-8.14199e-07
-3.12581e-06
-3.41585e-07
-3.51311e-06
2.90432e-07
-3.14094e-06
9.52639e-07
-2.09873e-06
1.42962e-06
-6.70036e-07
1.57633e-06
5.9583e-07
1.5238e-06
1.28395e-06
1.34868e-06
1.6361e-06
1.10595e-06
1.77631e-06
8.37667e-07
1.77178e-06
5.79213e-07
1.65405e-06
3.5792e-07
1.44066e-06
1.89676e-07
1.15211e-06
7.82211e-08
8.18864e-07
1.81894e-08
4.76742e-07
1.56953e-07
-6.97707e-09
1.02572e-07
-3.17602e-08
3.11806e-07
-7.95153e-08
5.25477e-07
-1.52566e-07
6.99887e-07
-2.4803e-07
7.74957e-07
-3.58478e-07
6.92349e-07
-4.80542e-07
4.34022e-07
-6.29482e-07
7.0229e-08
-8.34342e-07
-2.34895e-07
-1.1102e-06
-3.16717e-07
-1.42823e-06
-1.2992e-07
-1.71485e-06
2.16064e-07
-1.91145e-06
4.93211e-07
-2.04366e-06
4.15632e-07
-2.18913e-06
-2.75112e-07
-2.3277e-06
-1.66657e-06
-2.25421e-06
-3.1993e-06
-1.9009e-06
-3.86642e-06
-1.33658e-06
-3.70526e-06
-6.3021e-07
-2.8051e-06
1.16227e-07
-1.41647e-06
5.72738e-07
1.3932e-07
6.9494e-07
1.16175e-06
6.59914e-07
1.67113e-06
5.37342e-07
1.89889e-06
3.80664e-07
1.92846e-06
2.31666e-07
1.80304e-06
1.16852e-07
1.55547e-06
4.49392e-08
1.22403e-06
1.02473e-08
8.53556e-07
-1.34731e-10
4.87124e-07
1.56818e-07
-8.3235e-09
1.10896e-07
-3.7304e-08
3.40786e-07
-9.25981e-08
5.80771e-07
-1.78009e-07
7.85298e-07
-2.953e-07
8.92249e-07
-4.48016e-07
8.45064e-07
-6.51549e-07
6.37555e-07
-9.39576e-07
3.58256e-07
-1.34078e-06
1.66311e-07
-1.83871e-06
1.8121e-07
-2.36137e-06
3.92743e-07
-2.82327e-06
6.77963e-07
-3.19312e-06
8.63055e-07
-3.51175e-06
7.34263e-07
-3.85616e-06
6.93071e-08
-4.19781e-06
-1.32493e-06
-4.30945e-06
-3.08766e-06
-4.09341e-06
-4.08246e-06
-3.60282e-06
-4.19586e-06
-2.88957e-06
-3.51835e-06
-2.04558e-06
-2.26046e-06
-1.19414e-06
-7.12121e-07
-6.53794e-07
6.214e-07
-3.97051e-07
1.41438e-06
-2.88278e-07
1.79011e-06
-2.43188e-07
1.88337e-06
-2.12023e-07
1.77188e-06
-1.70702e-07
1.51415e-06
-1.16777e-07
1.1701e-06
-6.10135e-08
7.97793e-07
-1.79989e-08
4.44109e-07
1.38819e-07
-1.61699e-08
1.27065e-07
-6.83202e-08
3.92937e-07
-1.62763e-07
6.75214e-07
-3.04391e-07
9.26926e-07
-4.99678e-07
1.08754e-06
-7.64179e-07
1.10957e-06
-1.12943e-06
1.0028e-06
-1.63048e-06
8.59308e-07
-2.2677e-06
8.03529e-07
-2.98437e-06
8.97878e-07
-3.70336e-06
1.11173e-06
-4.37681e-06
1.35142e-06
-4.99351e-06
1.47975e-06
-5.57434e-06
1.3151e-06
-6.14222e-06
6.37187e-07
-6.66682e-06
-8.00334e-07
-6.96796e-06
-2.78652e-06
-6.91092e-06
-4.1395e-06
-6.51895e-06
-4.58782e-06
-5.814e-06
-4.22331e-06
-4.82855e-06
-3.24591e-06
-3.63237e-06
-1.9083e-06
-2.52499e-06
-4.85986e-07
-1.73937e-06
6.28772e-07
-1.24155e-06
1.29229e-06
-8.89956e-07
1.53177e-06
-6.25482e-07
1.5074e-06
-4.1264e-07
1.30131e-06
-2.39997e-07
9.97459e-07
-1.10096e-07
6.67892e-07
-2.89196e-08
3.62933e-07
1.099e-07
-3.03656e-08
1.57431e-07
-1.25008e-07
4.87579e-07
-2.9192e-07
8.42126e-07
-5.36843e-07
1.17185e-06
-8.67973e-07
1.41867e-06
-1.30343e-06
1.54502e-06
-1.87102e-06
1.57039e-06
-2.58728e-06
1.57557e-06
-3.43168e-06
1.64793e-06
-4.35253e-06
1.81873e-06
-5.295e-06
2.05421e-06
-6.22028e-06
2.2767e-06
-7.11011e-06
2.36957e-06
-7.96135e-06
2.16634e-06
-8.77078e-06
1.44662e-06
-9.49686e-06
-7.42576e-08
-9.9803e-06
-2.30308e-06
-1.00907e-05
-4.02905e-06
-9.82173e-06
-4.85683e-06
-9.15689e-06
-4.88816e-06
-8.09149e-06
-4.3113e-06
-6.66655e-06
-3.33324e-06
-4.99998e-06
-2.15256e-06
-3.43032e-06
-9.40886e-07
-2.21457e-06
7.65417e-08
-1.3763e-06
6.93502e-07
-8.35062e-07
9.66162e-07
-4.76145e-07
9.4239e-07
-2.40762e-07
7.62076e-07
-9.68954e-08
5.24025e-07
-2.23028e-08
2.88341e-07
8.7597e-08
-4.55826e-08
2.03014e-07
-1.86425e-07
6.28422e-07
-4.33733e-07
1.08943e-06
-7.95012e-07
1.53313e-06
-1.2772e-06
1.90085e-06
-1.89106e-06
2.15888e-06
-2.64827e-06
2.3276e-06
-3.54733e-06
2.47464e-06
-4.56432e-06
2.66492e-06
-5.66159e-06
2.916e-06
-6.80105e-06
3.19366e-06
-7.95053e-06
3.42618e-06
-9.0855e-06
3.50455e-06
-1.01867e-05
3.26752e-06
-1.12261e-05
2.48605e-06
-1.21549e-05
8.54491e-07
-1.27779e-05
-1.68006e-06
-1.30421e-05
-3.76481e-06
-1.29144e-05
-4.98455e-06
-1.23464e-05
-5.45616e-06
-1.13083e-05
-5.34946e-06
-9.82317e-06
-4.81832e-06
-7.98364e-06
-3.99209e-06
-5.93689e-06
-2.98764e-06
-3.93771e-06
-1.92264e-06
-2.32537e-06
-9.18835e-07
-1.19729e-06
-1.61914e-07
-5.25297e-07
2.70394e-07
-1.85138e-07
4.21917e-07
-4.31058e-08
3.81993e-07
-1.51863e-09
2.46753e-07
8.60784e-08
-5.07644e-08
2.53778e-07
-2.10147e-07
7.87804e-07
-4.9554e-07
1.37483e-06
-9.20817e-07
1.9584e-06
-1.49475e-06
2.47478e-06
-2.22019e-06
2.88432e-06
-3.09195e-06
3.19937e-06
-4.09424e-06
3.47693e-06
-5.20284e-06
3.77351e-06
-6.39109e-06
4.10425e-06
-7.63327e-06
4.43584e-06
-8.90432e-06
4.69723e-06
-1.01796e-05
4.77983e-06
-1.14343e-05
4.52226e-06
-1.2638e-05
3.68973e-06
-1.3745e-05
1.96143e-06
-1.45289e-05
-8.96062e-07
-1.49538e-05
-3.33998e-06
-1.50108e-05
-4.92752e-06
-1.46367e-05
-5.83027e-06
-1.37795e-05
-6.2067e-06
-1.24381e-05
-6.15969e-06
-1.06768e-05
-5.75334e-06
-8.62161e-06
-5.04287e-06
-6.44689e-06
-4.09735e-06
-4.34927e-06
-3.01645e-06
-2.57875e-06
-1.93243e-06
-1.31747e-06
-9.90887e-07
-5.57481e-07
-3.38076e-07
-1.73018e-07
-2.46979e-09
-2.67566e-08
1.00492e-07
5.93218e-08
-3.68642e-08
2.90642e-07
-1.60669e-07
9.11609e-07
-3.97276e-07
1.61143e-06
-7.72932e-07
2.33406e-06
-1.30712e-06
3.00897e-06
-2.00422e-06
3.58142e-06
-2.84965e-06
4.04479e-06
-3.81559e-06
4.44287e-06
-4.87308e-06
4.83101e-06
-6.00002e-06
5.23119e-06
-7.18061e-06
5.61642e-06
-8.40125e-06
5.91787e-06
-9.64925e-06
6.02784e-06
-1.09139e-05
5.78693e-06
-1.21853e-05
4.96107e-06
-1.34369e-05
3.21308e-06
-1.43691e-05
3.60992e-08
-1.49851e-05
-2.72396e-06
-1.5332e-05
-4.58059e-06
-1.5333e-05
-5.82931e-06
-1.48934e-05
-6.64635e-06
-1.39557e-05
-7.09736e-06
-1.25262e-05
-7.18281e-06
-1.06802e-05
-6.88883e-06
-8.5573e-06
-6.2203e-06
-6.34653e-06
-5.22723e-06
-4.26326e-06
-4.01571e-06
-2.50685e-06
-2.74729e-06
-1.23096e-06
-1.61397e-06
-4.61529e-07
-7.71897e-07
-9.45278e-08
-2.66509e-07
-3.52059e-08
-6.82947e-09
2.97472e-07
-4.42546e-08
9.49034e-07
-1.40186e-07
1.70736e-06
-3.29371e-07
2.52325e-06
-6.45217e-07
3.32482e-06
-1.10537e-06
4.04158e-06
-1.69692e-06
4.63633e-06
-2.38643e-06
5.13239e-06
-3.13712e-06
5.58169e-06
-3.92237e-06
6.01644e-06
-4.72752e-06
6.42158e-06
-5.54447e-06
6.73482e-06
-6.36897e-06
6.85234e-06
-7.2025e-06
6.62046e-06
-8.05759e-06
5.81617e-06
-8.96917e-06
4.12466e-06
-9.91025e-06
9.77187e-07
-1.06768e-05
-1.95746e-06
-1.13516e-05
-3.9057e-06
-1.18917e-05
-5.28929e-06
-1.21689e-05
-6.36913e-06
-1.20484e-05
-7.21782e-06
-1.1442e-05
-7.78926e-06
-1.03289e-05
-8.00188e-06
-8.7722e-06
-7.77702e-06
-6.91183e-06
-7.0876e-06
-4.94938e-06
-5.97816e-06
-3.1216e-06
-4.57506e-06
-1.64948e-06
-3.0861e-06
-6.60981e-07
-1.7604e-06
-1.45023e-07
-7.82467e-07
-1.80229e-07
1.72686e-08
2.80203e-07
5.31673e-08
9.13135e-07
8.4726e-08
1.67581e-06
7.88426e-08
2.52913e-06
-1.81529e-09
3.40547e-06
-1.85107e-07
4.22487e-06
-4.73935e-07
4.92516e-06
-8.41119e-07
5.49957e-06
-1.24373e-06
5.98431e-06
-1.64338e-06
6.41608e-06
-2.02039e-06
6.79859e-06
-2.36824e-06
7.08267e-06
-2.68694e-06
7.17103e-06
-2.9852e-06
6.91872e-06
-3.27552e-06
6.10648e-06
-3.61013e-06
4.45927e-06
-4.08124e-06
1.4483e-06
-4.67511e-06
-1.36359e-06
-5.4084e-06
-3.17241e-06
-6.23926e-06
-4.45843e-06
-7.05619e-06
-5.55221e-06
-7.68723e-06
-6.58678e-06
-7.97791e-06
-7.49858e-06
-7.8056e-06
-8.17419e-06
-7.13607e-06
-8.44655e-06
-6.02516e-06
-8.19851e-06
-4.6112e-06
-7.39212e-06
-3.10088e-06
-6.08538e-06
-1.73706e-06
-4.44992e-06
-7.29881e-07
-2.76758e-06
-1.6696e-07
-1.34539e-06
-3.47189e-07
2.94736e-08
2.5073e-07
1.05851e-07
8.36757e-07
2.12546e-07
1.56911e-06
3.21633e-07
2.42004e-06
3.98542e-07
3.32856e-06
4.12032e-07
4.21138e-06
3.46794e-07
4.9904e-06
2.18173e-07
5.62819e-06
6.65501e-08
6.13593e-06
-6.2781e-08
6.54541e-06
-1.40227e-07
6.87604e-06
-1.5641e-07
7.09886e-06
-1.17415e-07
7.13203e-06
-4.15942e-08
6.8429e-06
3.40465e-08
6.03084e-06
1.11267e-07
4.38205e-06
-3.88266e-08
1.5984e-06
-5.19881e-07
-8.82532e-07
-1.1773e-06
-2.515e-06
-1.98997e-06
-3.64576e-06
-2.94456e-06
-4.59762e-06
-3.92037e-06
-5.61097e-06
-4.76565e-06
-6.65329e-06
-5.27423e-06
-7.66561e-06
-5.32825e-06
-8.39253e-06
-4.89827e-06
-8.62849e-06
-4.04508e-06
-8.2453e-06
-2.91826e-06
-7.2122e-06
-1.74254e-06
-5.62564e-06
-7.715e-07
-3.73861e-06
-1.83891e-07
-1.933e-06
-5.31079e-07
3.20227e-08
2.18707e-07
1.22067e-07
7.46713e-07
2.61332e-07
1.42985e-06
4.29089e-07
2.25228e-06
5.95947e-07
3.16171e-06
7.32474e-07
4.07486e-06
8.20921e-07
4.90195e-06
8.67804e-07
5.58131e-06
9.04907e-07
6.09883e-06
9.74419e-07
6.4759e-06
1.11122e-06
6.73923e-06
1.32915e-06
6.88093e-06
1.61865e-06
6.84253e-06
1.94954e-06
6.51202e-06
2.26899e-06
5.71139e-06
2.48232e-06
4.16872e-06
2.39482e-06
1.68589e-06
1.98124e-06
-4.6895e-07
1.40104e-06
-1.9348e-06
7.00877e-07
-2.94559e-06
-1.43517e-07
-3.75323e-06
-1.13582e-06
-4.61866e-06
-2.18238e-06
-5.60674e-06
-3.07637e-06
-6.77162e-06
-3.63134e-06
-7.83756e-06
-3.74184e-06
-8.51799e-06
-3.38801e-06
-8.59914e-06
-2.64744e-06
-7.95277e-06
-1.69772e-06
-6.57536e-06
-7.97395e-07
-4.63894e-06
-1.9811e-07
-2.53228e-06
-7.2919e-07
2.87428e-08
1.89964e-07
1.14037e-07
6.61419e-07
2.54243e-07
1.28964e-06
4.37277e-07
2.06925e-06
6.41992e-07
2.95699e-06
8.45057e-07
3.87179e-06
1.0312e-06
4.71581e-06
1.20314e-06
5.40937e-06
1.38396e-06
5.918e-06
1.60762e-06
6.25224e-06
1.90399e-06
6.44287e-06
2.28385e-06
6.50108e-06
2.73262e-06
6.39375e-06
3.21033e-06
6.0343e-06
3.64679e-06
5.27494e-06
3.91712e-06
3.89839e-06
3.83879e-06
1.76422e-06
3.45304e-06
-8.3199e-08
2.88878e-06
-1.37053e-06
2.23102e-06
-2.28783e-06
1.51699e-06
-3.03919e-06
6.81444e-07
-3.78312e-06
-2.77938e-07
-4.64736e-06
-1.30152e-06
-5.74804e-06
-2.14698e-06
-6.9921e-06
-2.65059e-06
-8.01437e-06
-2.71393e-06
-8.5358e-06
-2.33628e-06
-8.33043e-06
-1.62881e-06
-7.28282e-06
-8.22104e-07
-5.44565e-06
-2.14946e-07
-3.13944e-06
-9.44136e-07
2.19071e-08
1.68057e-07
9.00891e-08
5.93237e-07
2.08522e-07
1.17121e-06
3.74396e-07
1.90338e-06
5.77658e-07
2.75373e-06
8.0516e-07
3.64429e-06
1.04812e-06
4.47285e-06
1.30893e-06
5.14856e-06
1.60255e-06
5.62438e-06
1.95026e-06
5.90453e-06
2.36967e-06
6.02346e-06
2.86323e-06
6.00751e-06
3.4112e-06
5.84579e-06
3.96835e-06
5.47716e-06
4.45754e-06
4.78574e-06
4.74944e-06
3.60649e-06
4.70456e-06
1.80909e-06
4.36332e-06
2.58043e-07
3.82371e-06
-8.30915e-07
3.18094e-06
-1.64507e-06
2.48756e-06
-2.34581e-06
1.7615e-06
-3.05706e-06
9.84959e-07
-3.87081e-06
8.41388e-08
-4.84722e-06
-8.63926e-07
-6.04403e-06
-1.62644e-06
-7.25185e-06
-2.02872e-06
-8.13352e-06
-1.98749e-06
-8.37166e-06
-1.53486e-06
-7.73545e-06
-8.46902e-07
-6.1336e-06
-2.37504e-07
-3.74884e-06
-1.18164e-06
1.20828e-08
1.55974e-07
5.30415e-08
5.52278e-07
1.31688e-07
1.09256e-06
2.56368e-07
1.7787e-06
4.31512e-07
2.57859e-06
6.56633e-07
3.41917e-06
9.31191e-07
4.19829e-06
1.25809e-06
4.82166e-06
1.64324e-06
5.23923e-06
2.0921e-06
5.45566e-06
2.60629e-06
5.50928e-06
3.17779e-06
5.436e-06
3.78267e-06
5.24091e-06
4.37538e-06
4.88445e-06
4.88078e-06
4.28034e-06
5.18094e-06
3.30633e-06
5.16678e-06
1.82325e-06
4.88594e-06
5.38889e-07
4.41783e-06
-3.62809e-07
3.84137e-06
-1.0686e-06
3.20297e-06
-1.70742e-06
2.53144e-06
-2.38554e-06
1.83616e-06
-3.17553e-06
1.10102e-06
-4.11208e-06
2.47084e-07
-5.1901e-06
-6.32147e-07
-6.37262e-06
-1.30411e-06
-7.46156e-06
-1.57841e-06
-8.09737e-06
-1.39777e-06
-7.91609e-06
-8.6281e-07
-6.66856e-06
-2.67393e-07
-4.34426e-06
-1.44903e-06
-2.11348e-09
1.58087e-07
-1.29971e-09
5.51464e-07
2.01807e-08
1.07108e-06
8.75909e-08
1.71129e-06
2.22992e-07
2.44318e-06
4.36169e-07
3.20599e-06
7.32269e-07
3.90219e-06
1.11344e-06
4.44049e-06
1.57473e-06
4.77794e-06
2.10424e-06
4.92615e-06
2.68787e-06
4.92565e-06
3.30856e-06
4.81531e-06
3.94061e-06
4.60886e-06
4.54232e-06
4.28274e-06
5.04727e-06
3.77539e-06
5.35733e-06
2.99628e-06
5.38714e-06
1.79344e-06
5.1856e-06
7.40434e-07
4.82173e-06
1.0556e-09
4.35438e-06
-6.01254e-07
3.81496e-06
-1.16799e-06
3.22589e-06
-1.79647e-06
2.59576e-06
-2.54539e-06
1.91875e-06
-3.43507e-06
1.1744e-06
-4.44576e-06
3.29249e-07
-5.52747e-06
-5.09233e-07
-6.62308e-06
-1.08085e-06
-7.52575e-06
-1.19423e-06
-7.80271e-06
-8.55873e-07
-7.00692e-06
-3.05088e-07
-4.89504e-06
-1.75412e-06
-2.32319e-08
1.81319e-07
-7.74031e-08
6.05636e-07
-1.28044e-07
1.12172e-06
-1.26394e-07
1.70964e-06
-3.06027e-08
2.34739e-06
1.77106e-07
2.99828e-06
4.97494e-07
3.58181e-06
9.28643e-07
4.00934e-06
1.45337e-06
4.25322e-06
2.04347e-06
4.33605e-06
2.67329e-06
4.29583e-06
3.32086e-06
4.16774e-06
3.96192e-06
3.96779e-06
4.56191e-06
3.68275e-06
5.06726e-06
3.27004e-06
5.40234e-06
2.6612e-06
5.49876e-06
1.69702e-06
5.40534e-06
8.3385e-07
5.16853e-06
2.37866e-07
4.82647e-06
-2.59197e-07
4.41041e-06
-7.51928e-07
3.92804e-06
-1.31411e-06
3.3762e-06
-1.99355e-06
2.74593e-06
-2.8048e-06
2.02884e-06
-3.72867e-06
1.22448e-06
-4.72311e-06
3.41315e-07
-5.73992e-06
-4.68112e-07
-6.71632e-06
-8.99992e-07
-7.37083e-06
-8.08786e-07
-7.09812e-06
-3.4777e-07
-5.35606e-06
-2.10189e-06
-5.81896e-08
2.39509e-07
-1.86244e-07
7.3369e-07
-3.15267e-07
1.25074e-06
-3.71932e-07
1.7663e-06
-3.03941e-07
2.2794e-06
-8.66209e-08
2.78096e-06
2.69754e-07
3.22543e-06
7.52143e-07
3.52695e-06
1.32942e-06
3.67594e-06
1.96244e-06
3.70303e-06
2.62102e-06
3.63725e-06
3.28321e-06
3.50555e-06
3.92915e-06
3.32186e-06
4.53297e-06
3.07893e-06
5.05501e-06
2.74799e-06
5.43948e-06
2.27674e-06
5.62336e-06
1.51313e-06
5.63936e-06
8.17855e-07
5.53132e-06
3.459e-07
5.32681e-06
-5.46803e-08
5.04271e-06
-4.67828e-07
4.6743e-06
-9.45705e-07
4.20758e-06
-1.52683e-06
3.62688e-06
-2.22409e-06
2.92395e-06
-3.02574e-06
2.10561e-06
-3.90477e-06
1.19771e-06
-4.83202e-06
2.56601e-07
-5.77521e-06
-4.87545e-07
-6.62668e-06
-6.98095e-07
-6.88757e-06
-3.85504e-07
-5.66865e-06
-2.4874e-06
-1.17183e-07
3.56692e-07
-3.37238e-07
9.53744e-07
-5.34761e-07
1.44827e-06
-6.19824e-07
1.85136e-06
-5.46252e-07
2.20583e-06
-3.01004e-07
2.53571e-06
1.05375e-07
2.81905e-06
6.4436e-07
2.98796e-06
1.26672e-06
3.05358e-06
1.93258e-06
3.03717e-06
2.61412e-06
2.95572e-06
3.29277e-06
2.82689e-06
3.95376e-06
2.66087e-06
4.57875e-06
2.45394e-06
5.13922e-06
2.18753e-06
5.59241e-06
1.82355e-06
5.87076e-06
1.23477e-06
5.99099e-06
6.97625e-07
5.99925e-06
3.37642e-07
5.91445e-06
3.01181e-08
5.74169e-06
-2.95062e-07
5.47077e-06
-6.74785e-07
5.08076e-06
-1.13682e-06
4.54995e-06
-1.69328e-06
3.86531e-06
-2.3411e-06
3.03081e-06
-3.07028e-06
2.07241e-06
-3.87361e-06
1.0464e-06
-4.74919e-06
7.88535e-08
-5.65914e-06
-4.89665e-07
-6.31906e-06
-3.98194e-07
-5.76012e-06
-2.88559e-06
-2.08838e-07
5.6553e-07
-5.21551e-07
1.26646e-06
-7.46006e-07
1.67272e-06
-8.03278e-07
1.90863e-06
-6.74704e-07
2.07726e-06
-3.66113e-07
2.22712e-06
1.11656e-07
2.34128e-06
7.11954e-07
2.38767e-06
1.37784e-06
2.38769e-06
2.07747e-06
2.33754e-06
2.78779e-06
2.2454e-06
3.49334e-06
2.12134e-06
4.1821e-06
1.97211e-06
4.83951e-06
1.79653e-06
5.44308e-06
1.58395e-06
5.95658e-06
1.31005e-06
6.30622e-06
8.85132e-07
6.49974e-06
5.04106e-07
6.58621e-06
2.51171e-07
6.58207e-06
3.42547e-08
6.48564e-06
-1.98628e-07
6.28364e-06
-4.7278e-07
5.95374e-06
-8.06928e-07
5.47153e-06
-1.21107e-06
4.81831e-06
-1.68788e-06
3.98883e-06
-2.2408e-06
2.99809e-06
-2.88287e-06
1.88956e-06
-3.64066e-06
7.61954e-07
-4.53154e-06
-1.34072e-07
-5.42303e-06
-3.5519e-07
-5.539e-06
-3.24078e-06
-3.26052e-07
8.91583e-07
-6.8728e-07
1.62768e-06
-8.39474e-07
1.82492e-06
-7.7242e-07
1.84158e-06
-5.16142e-07
1.82098e-06
-8.69784e-08
1.79796e-06
4.86304e-07
1.768e-06
1.14547e-06
1.7285e-06
1.85536e-06
1.67781e-06
2.58946e-06
1.60344e-06
3.3273e-06
1.50756e-06
4.05391e-06
1.39473e-06
4.75695e-06
1.26907e-06
5.42253e-06
1.13095e-06
6.0313e-06
9.75178e-07
6.55224e-06
7.89122e-07
6.91499e-06
5.22378e-07
7.12798e-06
2.91111e-07
7.24051e-06
1.38647e-07
7.26877e-06
5.9956e-09
7.20882e-06
-1.3868e-07
7.04654e-06
-3.10504e-07
6.76168e-06
-5.22062e-07
6.33037e-06
-7.79759e-07
5.73027e-06
-1.08778e-06
4.94537e-06
-1.4559e-06
3.9716e-06
-1.9091e-06
2.82703e-06
-2.49609e-06
1.57737e-06
-3.28187e-06
4.07219e-07
-4.25288e-06
-2.15765e-07
-4.91602e-06
-3.45654e-06
-4.43233e-07
1.33482e-06
-6.80926e-07
1.86538e-06
-5.58023e-07
1.70201e-06
-2.15094e-07
1.49865e-06
2.67358e-07
1.33853e-06
8.53934e-07
1.21138e-06
1.51245e-06
1.10949e-06
2.21692e-06
1.02403e-06
2.94618e-06
9.48541e-07
3.67822e-06
8.71402e-07
4.39501e-06
7.90765e-07
5.08231e-06
7.07436e-07
5.72844e-06
6.22931e-07
6.32199e-06
5.37404e-07
6.84895e-06
4.48223e-07
7.28786e-06
3.50209e-07
7.58705e-06
2.23188e-07
7.76053e-06
1.17629e-07
7.85187e-06
4.73113e-08
7.8729e-06
-1.50332e-08
7.8191e-06
-8.48773e-08
7.67935e-06
-1.70755e-07
7.43591e-06
-2.78622e-07
7.06757e-06
-4.11418e-07
6.55196e-06
-5.72177e-07
5.86614e-06
-7.70079e-07
4.98667e-06
-1.02963e-06
3.89334e-06
-1.40276e-06
2.5899e-06
-1.97843e-06
1.18887e-06
-2.85186e-06
1.16194e-07
-3.84334e-06
-3.34035e-06
-3.75097e-07
1.70991e-06
1.95733e-08
1.47071e-06
7.27624e-07
9.93963e-07
1.43718e-06
7.89092e-07
2.13465e-06
6.41065e-07
2.82617e-06
5.1986e-07
3.50642e-06
4.29236e-07
4.16885e-06
3.61598e-07
4.80793e-06
3.09468e-07
5.41377e-06
2.65562e-07
5.97749e-06
2.27044e-07
6.49229e-06
1.92631e-07
6.95355e-06
1.6167e-07
7.35761e-06
1.3335e-07
7.69966e-06
1.06166e-07
7.97129e-06
7.85839e-08
8.14773e-06
4.67495e-08
8.24395e-06
2.14097e-08
8.28751e-06
3.75216e-09
8.28511e-06
-1.26424e-08
8.23253e-06
-3.22897e-08
8.12e-06
-5.82331e-08
7.93332e-06
-9.19346e-08
7.65599e-06
-1.34094e-07
7.26973e-06
-1.85913e-07
6.75169e-06
-2.52042e-07
6.06824e-06
-3.4618e-07
5.16642e-06
-5.00937e-07
3.97018e-06
-7.82197e-07
2.42002e-06
-1.30169e-06
7.46889e-07
-2.17021e-06
-2.59346e-06
1.70991e-06
3.18062e-06
4.17458e-06
4.96367e-06
5.60474e-06
6.1246e-06
6.55384e-06
6.91543e-06
7.2249e-06
7.49047e-06
7.71751e-06
7.91014e-06
8.07181e-06
8.20516e-06
8.31133e-06
8.38991e-06
8.43666e-06
8.45807e-06
8.46182e-06
8.44918e-06
8.41689e-06
8.35866e-06
8.26672e-06
8.13263e-06
7.94672e-06
7.69467e-06
7.34849e-06
6.84756e-06
6.06536e-06
4.76367e-06
2.59346e-06
)
;

boundaryField
{
    movingWall
    {
        type            calculated;
        value           uniform 0;
    }
    fixedWalls
    {
        type            calculated;
        value           uniform 0;
    }
    floor
    {
        type            calculated;
        value           uniform 0;
    }
    frontAndBack
    {
        type            empty;
        value           nonuniform List<scalar> 0();
    }
}


// ************************************************************************* //
