/*--------------------------------*- C++ -*----------------------------------*\
| =========                 |                                                 |
| \\      /  F ield         | OpenFOAM: The Open Source CFD Toolbox           |
|  \\    /   O peration     | Version:  2212                                  |
|   \\  /    A nd           | Website:  www.openfoam.com                      |
|    \\/     M anipulation  |                                                 |
\*---------------------------------------------------------------------------*/
FoamFile
{
    version     2.0;
    format      ascii;
    arch        "LSB;label=64;scalar=64";
    class       volScalarField;
    location    "1610";
    object      Sch4;
}
// * * * * * * * * * * * * * * * * * * * * * * * * * * * * * * * * * * * * * //

dimensions      [1 -3 0 0 0 0 0];

internalField   nonuniform List<scalar> 
1024
(
0.034594
0.0346012
0.034619
0.0346516
0.034704
0.0347816
0.034889
0.0350293
0.0352027
0.0354074
0.0356412
0.0359071
0.0362165
0.0365851
0.0370121
0.0374498
0.037765
0.0378608
0.0377749
0.0375603
0.0372583
0.0369043
0.0365336
0.0361795
0.0358677
0.0356124
0.0354167
0.0352758
0.0351809
0.0351219
0.0350897
0.0350766
0.0345982
0.0346056
0.0346236
0.0346566
0.0347097
0.0347882
0.0348969
0.0350386
0.0352135
0.0354193
0.0356539
0.0359202
0.0362302
0.0366001
0.0370293
0.0374695
0.0377862
0.0378821
0.0377956
0.0375803
0.0372776
0.0369227
0.0365505
0.0361941
0.0358796
0.0356216
0.0354235
0.0352809
0.0351848
0.0351251
0.0350926
0.0350793
0.0346087
0.0346162
0.0346346
0.0346684
0.0347229
0.0348036
0.0349152
0.0350605
0.035239
0.0354482
0.0356852
0.0359529
0.0362643
0.0366374
0.037072
0.0375187
0.0378392
0.0379343
0.0378444
0.0376252
0.0373192
0.0369614
0.0365856
0.0362246
0.0359047
0.0356412
0.0354385
0.0352923
0.0351938
0.0351327
0.0350994
0.0350859
0.0346279
0.0346356
0.0346546
0.0346897
0.0347465
0.0348308
0.0349474
0.0350989
0.0352845
0.0355004
0.0357427
0.0360138
0.0363282
0.0367068
0.0371514
0.0376104
0.0379378
0.0380299
0.0379307
0.0377006
0.0373857
0.0370209
0.0366387
0.0362705
0.0359427
0.0356714
0.035462
0.0353107
0.0352088
0.0351457
0.0351114
0.0350975
0.034659
0.0346669
0.0346867
0.0347236
0.0347837
0.0348732
0.0349975
0.035159
0.0353564
0.0355843
0.0358365
0.0361142
0.0364342
0.0368219
0.0372827
0.0377617
0.0380995
0.0381843
0.0380656
0.037813
0.0374791
0.0371004
0.0367072
0.036329
0.0359913
0.0357108
0.0354935
0.0353363
0.0352304
0.035165
0.0351296
0.0351153
0.0347063
0.0347145
0.0347353
0.0347745
0.034839
0.0349359
0.0350712
0.0352476
0.035463
0.0357098
0.0359785
0.0362684
0.0365985
0.0370008
0.0374858
0.0379933
0.0383443
0.0384143
0.0382613
0.0379689
0.0376008
0.0371972
0.0367865
0.0363949
0.036046
0.0357559
0.0355309
0.0353681
0.0352586
0.0351913
0.035155
0.0351404
0.0347754
0.034784
0.034806
0.0348482
0.0349184
0.0350251
0.0351755
0.0353728
0.0356141
0.0358885
0.0361827
0.0364932
0.0368414
0.0372667
0.0377852
0.0383289
0.0386925
0.0387362
0.0385295
0.0381748
0.037752
0.0373083
0.0368708
0.0364615
0.0361005
0.0358019
0.0355712
0.0354049
0.0352936
0.0352256
0.0351893
0.0351749
0.0348741
0.034883
0.0349066
0.0349524
0.0350299
0.0351494
0.0353196
0.0355449
0.0358209
0.0361337
0.0364648
0.0368082
0.0371869
0.037647
0.0382086
0.0387915
0.0391615
0.0391635
0.0388809
0.0384383
0.037936
0.0374326
0.0369562
0.0365237
0.0361502
0.0358458
0.0356132
0.0354474
0.0353378
0.0352718
0.035237
0.0352235
0.0350123
0.0350217
0.0350471
0.0350976
0.0351844
0.0353198
0.0355152
0.0357759
0.0360967
0.0364598
0.036842
0.0372343
0.037661
0.0381712
0.0387831
0.0394005
0.039764
0.0397087
0.039331
0.0387763
0.038168
0.0375815
0.0370505
0.0365874
0.0362003
0.0358933
0.0356643
0.0355047
0.0354018
0.0353416
0.0353111
0.0352997
0.0352022
0.0352124
0.0352403
0.0352967
0.035395
0.0355503
0.0357765
0.0360806
0.0364566
0.0368828
0.0373321
0.037793
0.0382884
0.0388641
0.039528
0.0401675
0.040511
0.0403938
0.0399175
0.0392389
0.0385021
0.0378054
0.0371975
0.0366902
0.0362846
0.0359761
0.0357552
0.035608
0.035518
0.0354689
0.0354463
0.035439
0.035457
0.0354683
0.0354997
0.0355637
0.0356764
0.0358561
0.0361196
0.0364755
0.0369172
0.03742
0.037953
0.0385016
0.0390844
0.0397358
0.0404463
0.0410943
0.0414196
0.0412683
0.0407298
0.0399511
0.0390828
0.0382498
0.0375314
0.0369521
0.0365096
0.0361907
0.0359764
0.0358447
0.0357729
0.0357405
0.0357302
0.0357293
0.0357867
0.0357995
0.0358354
0.0359093
0.0360403
0.0362499
0.0365578
0.0369743
0.0374915
0.038082
0.0387112
0.0393606
0.0400398
0.0407666
0.0415151
0.0421717
0.0425174
0.0424161
0.0419187
0.0411349
0.0401978
0.0392444
0.0383846
0.0376819
0.0371526
0.0367865
0.0365558
0.036428
0.0363707
0.0363551
0.0363585
0.036365
0.0361909
0.0362054
0.0362467
0.0363322
0.0364842
0.0367277
0.0370848
0.0375663
0.0381636
0.0388466
0.0395769
0.0403284
0.0410982
0.0418888
0.0426701
0.0433605
0.0438053
0.0438895
0.0436081
0.043012
0.0421859
0.041244
0.0403039
0.0394632
0.0387832
0.0382896
0.0379691
0.0377903
0.0377107
0.0376895
0.0376946
0.0377038
0.0366527
0.0366688
0.0367153
0.036812
0.0369844
0.0372603
0.0376641
0.0382071
0.0388792
0.0396477
0.0404683
0.0413053
0.0421427
0.0429736
0.0437785
0.0445229
0.0451267
0.0455055
0.0456133
0.0454411
0.0450055
0.0443591
0.043581
0.0427621
0.0419921
0.0413409
0.0408469
0.0405171
0.0403263
0.0402354
0.0402042
0.0401999
0.037138
0.0371552
0.0372049
0.0373088
0.0374943
0.0377917
0.0382269
0.0388119
0.0395361
0.0403637
0.0412436
0.0421283
0.0429883
0.0438102
0.0445874
0.0453266
0.0460199
0.046644
0.0471539
0.0475024
0.0476456
0.0475659
0.0472752
0.0468134
0.0462425
0.0456391
0.0450809
0.0446251
0.0442989
0.0440981
0.0439965
0.0439609
0.0376003
0.0376176
0.0376672
0.0377705
0.0379548
0.0382508
0.0386856
0.039273
0.040004
0.0408419
0.0417293
0.0426049
0.0434212
0.0441513
0.0447885
0.0453599
0.0459221
0.0465596
0.0472688
0.0479854
0.0486257
0.0491225
0.049435
0.0495497
0.0494795
0.0492622
0.0489558
0.0486275
0.0483383
0.0481253
0.0479976
0.0479441
0.0379611
0.0379776
0.0380237
0.0381183
0.038286
0.0385553
0.038953
0.0394951
0.0401764
0.040964
0.041799
0.042609
0.0433269
0.0439048
0.0443225
0.0446068
0.0448646
0.0452979
0.0459749
0.046833
0.0477594
0.0486443
0.0494053
0.0499933
0.0503906
0.050606
0.0506691
0.0506258
0.0505286
0.0504254
0.0503485
0.0503108
0.0381814
0.0381969
0.0382387
0.038322
0.0384678
0.0387006
0.0390454
0.0395191
0.0401212
0.0408255
0.0415777
0.0423037
0.0429261
0.0433814
0.0436349
0.0437045
0.0437149
0.0439282
0.0444807
0.0453506
0.0464315
0.047583
0.0486728
0.0496026
0.0503218
0.0508219
0.0511255
0.0512741
0.0513179
0.0513063
0.0512789
0.0512601
0.0382918
0.0383064
0.0383442
0.0384174
0.0385429
0.0387412
0.0390341
0.0394382
0.0399567
0.0405702
0.0412331
0.0418774
0.042426
0.0428101
0.0429872
0.0429676
0.042877
0.0429785
0.043422
0.0442275
0.0453341
0.0466221
0.0479424
0.0491514
0.0501499
0.050894
0.0513893
0.051675
0.0518077
0.0518466
0.0518429
0.0518318
0.0383347
0.038348
0.0383817
0.0384458
0.0385537
0.0387222
0.0389694
0.0393105
0.0397501
0.0402749
0.0408488
0.0414144
0.0419027
0.0422494
0.0424129
0.0424009
0.0423327
0.0424373
0.0428419
0.0435842
0.0446431
0.0459424
0.047357
0.0487345
0.0499422
0.0508966
0.0515727
0.0519939
0.0522143
0.0523006
0.0523161
0.0523095
0.0383521
0.038363
0.0383908
0.038444
0.0385343
0.0386754
0.0388826
0.0391683
0.0395373
0.0399805
0.0404704
0.0409623
0.0414011
0.0417341
0.0419284
0.0419955
0.042039
0.0422312
0.0426643
0.0433792
0.0443783
0.0456224
0.0470246
0.0484575
0.0497825
0.0508876
0.0517143
0.0522608
0.0525688
0.0527049
0.0527413
0.0527393
0.0383992
0.0384049
0.0384216
0.0384579
0.0385247
0.0386354
0.0388033
0.0390389
0.0393461
0.0397188
0.0401377
0.0405712
0.0409802
0.0413279
0.0415934
0.041794
0.042006
0.0423322
0.0428292
0.0435382
0.044479
0.0456397
0.0469649
0.0483609
0.0497109
0.050897
0.0518333
0.0524872
0.0528793
0.0530674
0.0531269
0.0531303
0.0385469
0.0385432
0.0385407
0.038549
0.0385811
0.0386523
0.038777
0.0389655
0.0392222
0.0395434
0.0399173
0.040324
0.040739
0.0411391
0.0415134
0.0418809
0.0422814
0.0427484
0.043311
0.0440122
0.0448849
0.0459403
0.0471515
0.0484525
0.0497527
0.0509494
0.0519466
0.0526831
0.053151
0.0533916
0.0534768
0.0534865
0.0388735
0.0388552
0.0388241
0.0387924
0.0387781
0.0388014
0.0388811
0.0390306
0.0392563
0.0395573
0.0399266
0.0403513
0.0408149
0.0413019
0.0418049
0.0423395
0.0429075
0.0434868
0.0440905
0.044766
0.0455548
0.0464848
0.0475531
0.0487206
0.04992
0.0510673
0.0520729
0.0528595
0.0533897
0.0536806
0.0537933
0.0538106
0.0394489
0.0394111
0.0393446
0.0392681
0.0392064
0.0391868
0.0392343
0.0393673
0.0395945
0.0399155
0.0403229
0.0408043
0.041344
0.0419274
0.0425462
0.0432094
0.0438896
0.0445296
0.0451363
0.0457617
0.046452
0.0472434
0.0481499
0.0491554
0.0502164
0.0512684
0.0522333
0.0530312
0.0536029
0.0539378
0.0540786
0.054105
0.0403227
0.0402623
0.040162
0.0400523
0.039966
0.0399343
0.0399847
0.0401389
0.0404047
0.0407775
0.0412457
0.041793
0.0424013
0.0430541
0.0437412
0.0444665
0.0451859
0.045828
0.0463988
0.0469521
0.0475344
0.0481834
0.0489218
0.04975
0.0506457
0.0515656
0.0524473
0.0532155
0.0538006
0.0541673
0.0543345
0.0543712
0.0415225
0.0414404
0.0413229
0.0412162
0.0411555
0.0411657
0.0412676
0.0414795
0.0418037
0.042231
0.0427461
0.0433302
0.0439636
0.04463
0.0453185
0.0460305
0.0467178
0.0473098
0.0478135
0.0482797
0.0487513
0.0492629
0.0498389
0.0504891
0.0512068
0.0519682
0.0527303
0.0534296
0.0539951
0.0543746
0.0545628
0.0546103
0.043065
0.0429696
0.0428717
0.0428268
0.0428545
0.0429586
0.0431451
0.0434238
0.0437918
0.0442405
0.0447559
0.0453208
0.0459179
0.0465333
0.0471572
0.0477906
0.0483895
0.0488932
0.0493094
0.0496817
0.0500462
0.0504315
0.0508598
0.051344
0.0518861
0.0524771
0.0530929
0.0536882
0.0541996
0.0545674
0.0547658
0.0548232
0.0449737
0.0448874
0.0448657
0.0449407
0.0450936
0.0453029
0.0455625
0.0458757
0.0462412
0.0466564
0.047113
0.0475991
0.0481023
0.0486122
0.0491217
0.0496311
0.050106
0.0504993
0.0508181
0.0510962
0.0513615
0.0516355
0.0519357
0.0522739
0.0526556
0.0530801
0.0535376
0.0540021
0.0544266
0.0547543
0.0549469
0.0550105
0.0473001
0.0472668
0.0473731
0.0475744
0.0478185
0.0480797
0.0483515
0.048638
0.0489432
0.0492709
0.049619
0.0499818
0.0503517
0.0507222
0.0510886
0.0514511
0.0517858
0.0520605
0.0522805
0.0524692
0.0526455
0.0528241
0.053017
0.0532329
0.053477
0.0537517
0.0540549
0.0543756
0.0546866
0.0549451
0.0551111
0.0551734
0.0501418
0.05021
0.0504109
0.0506378
0.0508633
0.0510782
0.0512814
0.0514788
0.0516766
0.0518806
0.0520922
0.0523096
0.0525293
0.0527479
0.0529627
0.0531739
0.0533677
0.053526
0.0536519
0.0537588
0.0538572
0.0539554
0.0540603
0.0541768
0.0543082
0.0544566
0.0546224
0.0548027
0.054986
0.0551495
0.0552648
0.0553141
0.0536175
0.0536711
0.0537745
0.0538735
0.0539647
0.0540476
0.0541225
0.0541923
0.05426
0.0543282
0.054398
0.0544692
0.0545408
0.0546118
0.0546814
0.0547496
0.054812
0.0548629
0.0549032
0.0549372
0.0549684
0.0549992
0.0550319
0.0550679
0.0551085
0.0551542
0.0552054
0.0552616
0.0553201
0.0553747
0.0554164
0.0554366
)
;

boundaryField
{
    movingWall
    {
        type            fixedValue;
        value           uniform 0.0555;
    }
    fixedWalls
    {
        type            zeroGradient;
    }
    floor
    {
        type            zeroGradient;
    }
    frontAndBack
    {
        type            empty;
    }
}


// ************************************************************************* //
