/*--------------------------------*- C++ -*----------------------------------*\
| =========                 |                                                 |
| \\      /  F ield         | OpenFOAM: The Open Source CFD Toolbox           |
|  \\    /   O peration     | Version:  2212                                  |
|   \\  /    A nd           | Website:  www.openfoam.com                      |
|    \\/     M anipulation  |                                                 |
\*---------------------------------------------------------------------------*/
FoamFile
{
    version     2.0;
    format      ascii;
    arch        "LSB;label=64;scalar=64";
    class       volScalarField;
    location    "1610";
    object      SIC;
}
// * * * * * * * * * * * * * * * * * * * * * * * * * * * * * * * * * * * * * //

dimensions      [1 -3 0 0 0 0 0];

internalField   nonuniform List<scalar> 
1024
(
0.0911634
0.0911648
0.0911681
0.0911743
0.0911841
0.0911987
0.091219
0.0912454
0.091278
0.0913166
0.0913606
0.0914107
0.0914689
0.0915383
0.0916187
0.0917011
0.0917605
0.0917785
0.0917624
0.091722
0.0916651
0.0915984
0.0915286
0.0914619
0.0914032
0.0913552
0.0913183
0.0912918
0.0912739
0.0912628
0.0912567
0.0912543
0.0911642
0.0911656
0.091169
0.0911752
0.0911852
0.0912
0.0912204
0.0912471
0.0912801
0.0913188
0.091363
0.0914131
0.0914715
0.0915411
0.091622
0.0917049
0.0917645
0.0917825
0.0917662
0.0917257
0.0916687
0.0916019
0.0915318
0.0914647
0.0914055
0.0913569
0.0913196
0.0912927
0.0912746
0.0912634
0.0912573
0.0912548
0.0911662
0.0911676
0.0911711
0.0911774
0.0911877
0.0912029
0.0912239
0.0912512
0.0912849
0.0913242
0.0913689
0.0914193
0.0914779
0.0915482
0.09163
0.0917141
0.0917745
0.0917924
0.0917754
0.0917342
0.0916765
0.0916092
0.0915384
0.0914704
0.0914102
0.0913606
0.0913224
0.0912949
0.0912763
0.0912648
0.0912586
0.091256
0.0911698
0.0911712
0.0911748
0.0911814
0.0911921
0.091208
0.0912299
0.0912585
0.0912934
0.0913341
0.0913797
0.0914307
0.0914899
0.0915612
0.091645
0.0917314
0.091793
0.0918104
0.0917917
0.0917484
0.0916891
0.0916204
0.0915484
0.0914791
0.0914173
0.0913663
0.0913268
0.0912983
0.0912792
0.0912673
0.0912608
0.0912582
0.0911756
0.0911771
0.0911809
0.0911878
0.0911991
0.091216
0.0912394
0.0912698
0.091307
0.0913499
0.0913974
0.0914497
0.0915099
0.0915829
0.0916697
0.0917599
0.0918235
0.0918395
0.0918171
0.0917695
0.0917066
0.0916353
0.0915613
0.0914901
0.0914265
0.0913737
0.0913328
0.0913032
0.0912832
0.0912709
0.0912642
0.0912615
0.0911846
0.0911861
0.09119
0.0911974
0.0912095
0.0912278
0.0912533
0.0912865
0.091327
0.0913735
0.0914241
0.0914787
0.0915408
0.0916166
0.0917079
0.0918035
0.0918696
0.0918828
0.0918539
0.0917989
0.0917296
0.0916536
0.0915762
0.0915025
0.0914368
0.0913822
0.0913398
0.0913091
0.0912885
0.0912758
0.091269
0.0912663
0.0911976
0.0911992
0.0912033
0.0912113
0.0912245
0.0912446
0.0912729
0.0913101
0.0913555
0.0914072
0.0914625
0.091521
0.0915866
0.0916667
0.0917643
0.0918667
0.0919351
0.0919434
0.0919044
0.0918377
0.091758
0.0916745
0.0915921
0.091515
0.0914471
0.0913908
0.0913474
0.0913161
0.0912951
0.0912823
0.0912755
0.0912728
0.0912162
0.0912178
0.0912223
0.0912309
0.0912455
0.091268
0.0913
0.0913425
0.0913944
0.0914533
0.0915157
0.0915803
0.0916516
0.0917383
0.091844
0.0919538
0.0920235
0.0920238
0.0919706
0.0918873
0.0917927
0.0916979
0.0916082
0.0915268
0.0914564
0.0913991
0.0913553
0.0913241
0.0913034
0.091291
0.0912845
0.0912819
0.0912422
0.0912439
0.0912487
0.0912582
0.0912746
0.0913001
0.0913369
0.091386
0.0914464
0.0915147
0.0915867
0.0916606
0.0917409
0.091837
0.0919522
0.0920685
0.0921369
0.0921265
0.0920554
0.0919509
0.0918364
0.0917259
0.091626
0.0915387
0.0914659
0.091408
0.0913649
0.0913349
0.0913155
0.0913042
0.0912984
0.0912963
0.0912779
0.0912798
0.0912851
0.0912957
0.0913142
0.0913435
0.0913861
0.0914433
0.0915141
0.0915944
0.091679
0.0917658
0.0918591
0.0919675
0.0920925
0.0922129
0.0922776
0.0922555
0.0921658
0.092038
0.0918993
0.0917681
0.0916536
0.0915581
0.0914817
0.0914236
0.091382
0.0913543
0.0913374
0.0913281
0.0913239
0.0913225
0.0913259
0.091328
0.0913339
0.091346
0.0913672
0.0914011
0.0914507
0.0915177
0.0916009
0.0916955
0.0917959
0.0918992
0.0920089
0.0921316
0.0922654
0.0923874
0.0924487
0.0924202
0.0923188
0.0921721
0.0920086
0.0918518
0.0917165
0.0916074
0.0915241
0.091464
0.0914237
0.0913989
0.0913854
0.0913793
0.0913773
0.0913772
0.091388
0.0913904
0.0913972
0.0914111
0.0914357
0.0914752
0.0915332
0.0916116
0.091709
0.0918202
0.0919387
0.092061
0.0921888
0.0923257
0.0924666
0.0925903
0.0926554
0.0926363
0.0925426
0.092395
0.0922186
0.0920391
0.0918772
0.0917448
0.0916452
0.0915762
0.0915328
0.0915087
0.0914979
0.091495
0.0914956
0.0914969
0.0914641
0.0914668
0.0914746
0.0914907
0.0915193
0.0915652
0.0916324
0.0917231
0.0918355
0.0919642
0.0921017
0.0922432
0.0923881
0.092537
0.0926841
0.0928141
0.0928979
0.0929137
0.0928608
0.0927485
0.092593
0.0924156
0.0922386
0.0920803
0.0919522
0.0918593
0.0917989
0.0917653
0.0917503
0.0917463
0.0917472
0.091749
0.0915511
0.0915541
0.0915628
0.091581
0.0916135
0.0916655
0.0917415
0.0918437
0.0919703
0.092115
0.0922695
0.0924271
0.0925848
0.0927413
0.0928928
0.093033
0.0931467
0.093218
0.0932383
0.0932059
0.0931239
0.0930022
0.0928556
0.0927015
0.0925564
0.0924338
0.0923408
0.0922787
0.0922428
0.0922257
0.0922198
0.092219
0.0916424
0.0916457
0.091655
0.0916746
0.0917095
0.0917655
0.0918475
0.0919576
0.092094
0.0922498
0.0924155
0.0925821
0.092744
0.0928988
0.0930452
0.0931843
0.0933149
0.0934324
0.0935284
0.093594
0.093621
0.093606
0.0935513
0.0934643
0.0933568
0.0932432
0.0931381
0.0930523
0.0929908
0.092953
0.0929339
0.0929272
0.0917295
0.0917327
0.0917421
0.0917615
0.0917962
0.091852
0.0919338
0.0920445
0.0921821
0.0923399
0.092507
0.0926719
0.0928256
0.092963
0.093083
0.0931906
0.0932965
0.0934165
0.0935501
0.093685
0.0938056
0.0938991
0.093958
0.0939796
0.0939663
0.0939254
0.0938677
0.0938059
0.0937514
0.0937113
0.0936873
0.0936772
0.0917974
0.0918005
0.0918092
0.091827
0.0918586
0.0919093
0.0919842
0.0920863
0.0922146
0.0923629
0.0925201
0.0926726
0.0928078
0.0929166
0.0929953
0.0930488
0.0930974
0.0931789
0.0933064
0.093468
0.0936424
0.0938091
0.0939524
0.0940631
0.0941379
0.0941785
0.0941904
0.0941822
0.0941639
0.0941445
0.09413
0.0941229
0.0918389
0.0918418
0.0918497
0.0918654
0.0918928
0.0919367
0.0920016
0.0920908
0.0922042
0.0923368
0.0924784
0.0926151
0.0927323
0.0928181
0.0928658
0.0928789
0.0928809
0.092921
0.0930251
0.0931889
0.0933924
0.0936092
0.0938144
0.0939895
0.094125
0.0942191
0.0942763
0.0943043
0.0943125
0.0943103
0.0943052
0.0943016
0.0918597
0.0918624
0.0918696
0.0918833
0.091907
0.0919443
0.0919995
0.0920756
0.0921732
0.0922887
0.0924135
0.0925349
0.0926382
0.0927105
0.0927439
0.0927401
0.0927231
0.0927422
0.0928257
0.0929774
0.0931858
0.0934283
0.0936769
0.0939046
0.0940926
0.0942327
0.094326
0.0943798
0.0944047
0.0944121
0.0944114
0.0944093
0.0918678
0.0918703
0.0918766
0.0918887
0.091909
0.0919407
0.0919873
0.0920515
0.0921343
0.0922331
0.0923412
0.0924477
0.0925396
0.0926049
0.0926357
0.0926334
0.0926206
0.0926403
0.0927165
0.0928563
0.0930557
0.0933003
0.0935667
0.0938261
0.0940535
0.0942332
0.0943605
0.0944398
0.0944813
0.0944975
0.0945005
0.0944992
0.0918711
0.0918731
0.0918783
0.0918884
0.0919054
0.0919319
0.0919709
0.0920247
0.0920942
0.0921777
0.0922699
0.0923626
0.0924452
0.0925079
0.0925445
0.0925571
0.0925653
0.0926015
0.092683
0.0928176
0.0930058
0.09324
0.0935041
0.0937739
0.0940234
0.0942315
0.0943872
0.0944901
0.0945481
0.0945737
0.0945805
0.0945802
0.0918799
0.091881
0.0918841
0.091891
0.0919036
0.0919244
0.091956
0.0920004
0.0920582
0.0921284
0.0922073
0.0922889
0.0923659
0.0924314
0.0924814
0.0925192
0.0925591
0.0926205
0.0927141
0.0928476
0.0930247
0.0932433
0.0934928
0.0937557
0.0940099
0.0942333
0.0944096
0.0945327
0.0946065
0.0946419
0.0946532
0.0946538
0.0919077
0.091907
0.0919066
0.0919081
0.0919142
0.0919276
0.0919511
0.0919866
0.0920349
0.0920954
0.0921658
0.0922424
0.0923205
0.0923958
0.0924663
0.0925355
0.0926109
0.0926989
0.0928048
0.0929368
0.0931012
0.0932999
0.093528
0.093773
0.0940178
0.0942431
0.0944309
0.0945696
0.0946577
0.094703
0.094719
0.0947209
0.0919692
0.0919658
0.0919599
0.091954
0.0919513
0.0919557
0.0919707
0.0919988
0.0920413
0.092098
0.0921675
0.0922475
0.0923348
0.0924265
0.0925212
0.0926219
0.0927288
0.0928379
0.0929516
0.0930788
0.0932273
0.0934024
0.0936036
0.0938234
0.0940493
0.0942653
0.0944547
0.0946028
0.0947026
0.0947574
0.0947786
0.0947819
0.0920776
0.0920705
0.0920579
0.0920435
0.0920319
0.0920282
0.0920372
0.0920622
0.092105
0.0921654
0.0922422
0.0923328
0.0924344
0.0925443
0.0926608
0.0927857
0.0929138
0.0930343
0.0931485
0.0932663
0.0933963
0.0935453
0.093716
0.0939053
0.0941051
0.0943032
0.0944849
0.0946351
0.0947428
0.0948058
0.0948324
0.0948373
0.0922421
0.0922307
0.0922119
0.0921912
0.0921749
0.092169
0.0921785
0.0922075
0.0922575
0.0923277
0.0924159
0.092519
0.0926335
0.0927564
0.0928858
0.0930224
0.0931579
0.0932788
0.0933862
0.0934904
0.0936001
0.0937223
0.0938613
0.0940173
0.0941859
0.0943592
0.0945252
0.0946698
0.09478
0.094849
0.0948805
0.0948874
0.092468
0.0924526
0.0924304
0.0924104
0.0923989
0.0924009
0.09242
0.0924599
0.092521
0.0926014
0.0926984
0.0928084
0.0929277
0.0930532
0.0931828
0.0933169
0.0934463
0.0935578
0.0936526
0.0937404
0.0938292
0.0939255
0.094034
0.0941565
0.0942916
0.094435
0.0945785
0.0947101
0.0948166
0.0948881
0.0949235
0.0949325
0.0927585
0.0927405
0.0927221
0.0927136
0.0927189
0.0927384
0.0927736
0.0928261
0.0928953
0.0929798
0.0930769
0.0931832
0.0932957
0.0934116
0.0935291
0.0936483
0.0937611
0.0938559
0.0939343
0.0940044
0.094073
0.0941456
0.0942263
0.0943174
0.0944195
0.0945308
0.0946468
0.0947588
0.0948551
0.0949244
0.0949617
0.0949725
0.0931179
0.0931016
0.0930976
0.0931117
0.0931405
0.0931799
0.0932288
0.0932877
0.0933566
0.0934348
0.0935207
0.0936123
0.093707
0.093803
0.093899
0.0939949
0.0940843
0.0941584
0.0942184
0.0942708
0.0943207
0.0943723
0.0944288
0.0944925
0.0945644
0.0946443
0.0947305
0.0948179
0.0948979
0.0949596
0.0949958
0.0950078
0.093556
0.0935497
0.0935697
0.0936076
0.0936536
0.0937027
0.0937539
0.0938079
0.0938654
0.0939271
0.0939926
0.0940609
0.0941306
0.0942003
0.0942693
0.0943376
0.0944006
0.0944523
0.0944938
0.0945293
0.0945625
0.0945961
0.0946324
0.0946731
0.0947191
0.0947708
0.0948279
0.0948883
0.0949468
0.0949955
0.0950268
0.0950385
0.0940911
0.0941039
0.0941417
0.0941844
0.0942269
0.0942674
0.0943056
0.0943428
0.0943801
0.0944185
0.0944583
0.0944993
0.0945406
0.0945818
0.0946222
0.094662
0.0946985
0.0947283
0.094752
0.0947721
0.0947907
0.0948092
0.0948289
0.0948508
0.0948756
0.0949035
0.0949348
0.0949687
0.0950032
0.095034
0.0950557
0.095065
0.0947455
0.0947556
0.0947751
0.0947937
0.0948109
0.0948265
0.0948406
0.0948538
0.0948665
0.0948793
0.0948925
0.0949059
0.0949194
0.0949328
0.0949459
0.0949587
0.0949704
0.09498
0.0949876
0.094994
0.0949999
0.0950057
0.0950118
0.0950186
0.0950263
0.0950349
0.0950445
0.0950551
0.0950661
0.0950764
0.0950843
0.0950881
)
;

boundaryField
{
    movingWall
    {
        type            fixedValue;
        value           uniform 0.0951;
    }
    fixedWalls
    {
        type            zeroGradient;
    }
    floor
    {
        type            zeroGradient;
    }
    frontAndBack
    {
        type            empty;
    }
}


// ************************************************************************* //
