/*--------------------------------*- C++ -*----------------------------------*\
| =========                 |                                                 |
| \\      /  F ield         | OpenFOAM: The Open Source CFD Toolbox           |
|  \\    /   O peration     | Version:  2212                                  |
|   \\  /    A nd           | Website:  www.openfoam.com                      |
|    \\/     M anipulation  |                                                 |
\*---------------------------------------------------------------------------*/
FoamFile
{
    version     2.0;
    format      ascii;
    arch        "LSB;label=64;scalar=64";
    class       volScalarField::Internal;
    location    "1560";
    object      dGch4;
}
// * * * * * * * * * * * * * * * * * * * * * * * * * * * * * * * * * * * * * //

dimensions      [1 -3 -1 0 0 0 0];

value           nonuniform List<scalar> 
1024
(
0.000907264
0.000907475
0.000907991
0.000908932
0.000910434
0.00091263
0.000915615
0.000919404
0.000923893
0.000928855
0.000933983
0.000938984
0.000943734
0.000948351
0.000953118
0.000958082
0.00096187
0.000962354
0.000959357
0.000953551
0.000945774
0.000936903
0.000927827
0.000919334
0.000911985
0.000906047
0.000901542
0.000898321
0.00089616
0.000894822
0.000894092
0.000893795
0.000907361
0.000907574
0.000908097
0.000909051
0.000910576
0.000912806
0.000915833
0.000919668
0.000924202
0.000929203
0.000934354
0.000939362
0.000944106
0.000948722
0.000953503
0.000958505
0.000962341
0.00096285
0.000959857
0.000954045
0.000946253
0.000937356
0.000928236
0.000919683
0.000912267
0.000906265
0.000901706
0.000898445
0.000896259
0.000894906
0.000894168
0.000893869
0.000907594
0.000907812
0.000908349
0.000909332
0.000910904
0.000913204
0.000916324
0.000920269
0.000924922
0.000930033
0.000935267
0.000940308
0.00094505
0.000949663
0.00095448
0.000959575
0.000963514
0.000964058
0.00096103
0.000955155
0.000947298
0.000938326
0.000929107
0.000920429
0.000912874
0.000906741
0.000902071
0.00089873
0.000896489
0.000895105
0.000894352
0.000894046
0.000908019
0.000908244
0.0009088
0.000909824
0.000911469
0.000913881
0.000917157
0.0009213
0.00092618
0.000931522
0.000936942
0.000942077
0.000946832
0.000951448
0.000956335
0.000961597
0.000965707
0.000966262
0.000963093
0.000957023
0.000948986
0.000939852
0.00093046
0.000921587
0.000913825
0.000907497
0.000902665
0.000899203
0.000896883
0.000895452
0.000894676
0.000894361
0.000908703
0.000908935
0.000909516
0.000910594
0.000912339
0.000914911
0.000918422
0.000922878
0.000928138
0.000933886
0.000939653
0.000944985
0.000949799
0.000954443
0.000959455
0.000964986
0.000969336
0.000969828
0.000966315
0.000959806
0.000951384
0.000941938
0.000932271
0.000923126
0.000915097
0.000908524
0.000903492
0.000899882
0.000897466
0.000895979
0.000895175
0.000894851
0.000909735
0.000909974
0.000910583
0.000911728
0.000913601
0.000916391
0.000920234
0.000925152
0.000930994
0.000937377
0.000943708
0.000949402
0.00095437
0.000959111
0.000964343
0.000970274
0.00097492
0.000975196
0.000971013
0.000963684
0.000954545
0.000944552
0.000934461
0.000924959
0.000916615
0.000909773
0.000904527
0.000900767
0.000898255
0.000896716
0.000895889
0.000895558
0.000911242
0.000911489
0.000912129
0.000913354
0.000915388
0.00091846
0.000922752
0.000928313
0.000934978
0.000942274
0.000949437
0.000955723
0.00096102
0.000966003
0.000971618
0.000978107
0.000983063
0.000982862
0.000977539
0.000968849
0.000958517
0.000947637
0.000936913
0.000926951
0.00091826
0.000911157
0.000905727
0.000901848
0.000899272
0.000897705
0.000896872
0.000896542
0.000913407
0.000913661
0.000914337
0.000915656
0.000917889
0.000921321
0.000926194
0.000932602
0.000940359
0.000948868
0.000957167
0.000964339
0.000970245
0.000975735
0.000981985
0.000989205
0.000994399
0.00099333
0.000986262
0.000975531
0.000963389
0.000951164
0.00093953
0.000928981
0.000919927
0.000912612
0.000907073
0.000903156
0.000900586
0.000899045
0.00089824
0.000897927
0.00091649
0.000916754
0.000917474
0.000918909
0.000921386
0.000925265
0.000930866
0.000938335
0.000947455
0.00095748
0.000967226
0.000975626
0.000982528
0.000988936
0.000996178
0.00100429
0.00100954
0.00100712
0.000997651
0.000984142
0.000969463
0.000955323
0.000942416
0.000931117
0.000921684
0.000914236
0.000908713
0.000904888
0.000902439
0.000901015
0.000900298
0.000900033
0.000920852
0.000921132
0.000921911
0.000923495
0.000926278
0.000930705
0.000937189
0.00094593
0.000956666
0.00096848
0.000979978
0.000989975
0.000998348
0.0010062
0.00101487
0.00102401
0.0010291
0.00102497
0.00101265
0.000995776
0.000977825
0.00096107
0.000946393
0.000934072
0.000924188
0.000916668
0.000911296
0.00090773
0.000905562
0.000904388
0.000903852
0.000903681
0.000926944
0.00092725
0.000928115
0.000929901
0.000933075
0.000938178
0.000945714
0.00095593
0.0009685
0.000982334
0.000995856
0.00100782
0.00101818
0.00102807
0.00103861
0.00104892
0.00105393
0.00104841
0.00103362
0.00101341
0.000991738
0.000971555
0.0009543
0.000940371
0.000929699
0.00092199
0.000916812
0.000913638
0.000911924
0.000911161
0.000910931
0.000910918
0.000935227
0.000935575
0.000936569
0.000938635
0.000942326
0.000948279
0.000957075
0.000968973
0.000983559
0.000999583
0.00101534
0.00102961
0.00104242
0.00105485
0.00106766
0.00107955
0.0010854
0.00108029
0.00106518
0.00104341
0.00101881
0.000994828
0.000973867
0.00095705
0.000944524
0.000935898
0.000930515
0.000927598
0.000926357
0.000926095
0.000926258
0.000926456
0.000945947
0.000946358
0.000947537
0.000949991
0.000954373
0.000961411
0.000971733
0.000985546
0.00100228
0.00102052
0.00103853
0.00105521
0.00107073
0.00108603
0.00110151
0.00111585
0.00112471
0.00112373
0.00111287
0.00109418
0.00107049
0.00104503
0.00102072
0.000999731
0.000983323
0.00097168
0.000964404
0.000960577
0.000959086
0.000958917
0.000959271
0.000959605
0.000958697
0.000959174
0.000960546
0.000963403
0.000968485
0.000976585
0.000988329
0.00100384
0.00102247
0.00104276
0.00106305
0.00108234
0.00110073
0.00111893
0.00113727
0.00115498
0.00116913
0.00117626
0.00117529
0.00116664
0.00115139
0.0011314
0.00110898
0.00108655
0.00106633
0.00104979
0.00103774
0.00103007
0.00102593
0.00102421
0.00102381
0.00102389
0.000972342
0.000972859
0.000974355
0.000977472
0.000983007
0.000991792
0.00100446
0.00102113
0.00104113
0.00106309
0.00108537
0.00110687
0.00112743
0.00114752
0.00116744
0.00118723
0.00120565
0.00122092
0.00123183
0.00123761
0.00123757
0.00123166
0.00122052
0.00120544
0.0011882
0.00117093
0.00115555
0.00114339
0.00113497
0.00112999
0.00112759
0.00112681
0.000985375
0.000985898
0.000987396
0.000990506
0.000996023
0.00100479
0.00101748
0.00103427
0.00105462
0.00107724
0.00110045
0.00112284
0.00114371
0.00116301
0.00118088
0.00119777
0.00121421
0.00123134
0.00124905
0.00126602
0.00128044
0.0012908
0.0012962
0.00129643
0.00129195
0.00128387
0.00127386
0.00126377
0.00125522
0.00124909
0.0012455
0.00124404
0.000995522
0.000996016
0.000997401
0.00100024
0.00100525
0.00101323
0.00102487
0.00104046
0.00105964
0.00108131
0.00110375
0.0011252
0.00114428
0.00116021
0.00117267
0.00118213
0.00119059
0.00120251
0.0012197
0.00124086
0.00126339
0.00128471
0.00130285
0.00131661
0.00132554
0.00132983
0.00133026
0.00132805
0.00132464
0.00132133
0.00131895
0.00131782
0.00100173
0.00100219
0.00100343
0.00100592
0.00101025
0.00101713
0.00102723
0.00104092
0.00105803
0.00107768
0.00109829
0.00111795
0.00113486
0.00114767
0.00115562
0.00115899
0.00116044
0.00116632
0.00118025
0.00120184
0.00122851
0.00125685
0.00128362
0.00130645
0.00132409
0.00133631
0.00134364
0.00134708
0.00134791
0.00134738
0.00134652
0.00134597
0.0010049
0.00100532
0.00100643
0.00100859
0.00101229
0.00101812
0.00102668
0.00103837
0.00105318
0.00107045
0.00108886
0.00110659
0.00112172
0.00113267
0.00113842
0.00113911
0.00113756
0.00114028
0.00115135
0.00117144
0.00119907
0.00123127
0.00126427
0.00129449
0.00131944
0.00133803
0.00135039
0.00135749
0.00136075
0.00136166
0.00136151
0.0013612
0.00100617
0.00100655
0.00100753
0.0010094
0.00101256
0.00101747
0.00102466
0.00103451
0.00104708
0.00106194
0.00107801
0.00109374
0.00110737
0.00111733
0.0011226
0.0011233
0.00112213
0.00112485
0.0011349
0.00115343
0.00117999
0.0012127
0.00124837
0.00128317
0.00131371
0.00133787
0.001355
0.00136566
0.00137122
0.00137338
0.00137375
0.00137357
0.00100665
0.00100697
0.00100778
0.00100933
0.00101196
0.00101606
0.00102205
0.00103027
0.00104081
0.00105337
0.00106715
0.00108092
0.00109325
0.00110283
0.00110883
0.00111147
0.00111314
0.00111816
0.00112904
0.00114697
0.00117211
0.00120355
0.00123908
0.00127548
0.00130921
0.00133739
0.00135849
0.00137246
0.00138032
0.00138379
0.00138471
0.00138465
0.00100775
0.00100793
0.00100845
0.00100953
0.00101151
0.00101475
0.00101961
0.00102637
0.00103512
0.00104567
0.00105745
0.0010696
0.0010811
0.00109102
0.00109881
0.00110485
0.0011109
0.00111949
0.00113218
0.00115012
0.00117391
0.00120333
0.001237
0.00127258
0.00130707
0.00133744
0.00136144
0.00137823
0.0013883
0.00139313
0.00139465
0.00139473
0.00101135
0.00101127
0.00101127
0.0010116
0.00101264
0.0010148
0.00101845
0.00102388
0.00103117
0.00104022
0.00105068
0.00106203
0.00107361
0.00108484
0.00109541
0.00110575
0.00111671
0.00112907
0.00114363
0.00116156
0.00118377
0.00121061
0.00124147
0.00127468
0.00130796
0.00133866
0.00136429
0.00138324
0.0013953
0.00140149
0.00140368
0.00140393
0.00101955
0.00101907
0.00101829
0.00101753
0.0010173
0.00101814
0.00102054
0.00102485
0.00103123
0.00103963
0.00104988
0.00106163
0.00107444
0.0010879
0.00110179
0.00111645
0.00113179
0.00114716
0.00116292
0.00118036
0.00120057
0.00122432
0.0012516
0.00128146
0.00131219
0.00134165
0.00136752
0.00138778
0.00140145
0.00140896
0.00141186
0.0014123
0.00103427
0.00103327
0.00103151
0.00102949
0.00102791
0.00102751
0.00102897
0.00103276
0.00103909
0.00104796
0.00105918
0.00107239
0.00108719
0.00110316
0.00112005
0.00113804
0.00115632
0.00117332
0.00118927
0.00120553
0.00122333
0.00124364
0.00126685
0.0012926
0.00131981
0.00134683
0.00137166
0.00139222
0.00140696
0.0014156
0.00141924
0.00141991
0.00105692
0.0010553
0.00105259
0.0010496
0.00104722
0.00104634
0.00104774
0.00105199
0.00105928
0.00106951
0.00108233
0.00109731
0.00111392
0.00113171
0.00115036
0.00116994
0.00118923
0.00120631
0.00122138
0.00123586
0.00125096
0.00126769
0.00128665
0.00130789
0.00133088
0.00135451
0.0013772
0.00139699
0.00141208
0.00142154
0.00142586
0.0014268
0.00108828
0.00108606
0.00108284
0.00107982
0.00107797
0.00107803
0.00108064
0.00108632
0.00109512
0.00110678
0.00112086
0.00113683
0.00115411
0.00117223
0.00119088
0.00121007
0.00122848
0.00124425
0.00125759
0.00126984
0.00128214
0.00129538
0.00131021
0.00132692
0.00134535
0.00136492
0.00138452
0.00140254
0.00141712
0.00142691
0.00143176
0.00143299
0.00112878
0.0011262
0.00112345
0.00112199
0.00112237
0.0011248
0.00112955
0.00113692
0.00114683
0.00115904
0.00117311
0.00118855
0.00120483
0.00122156
0.00123846
0.00125551
0.00127156
0.00128499
0.00129603
0.00130585
0.00131539
0.00132541
0.00133647
0.00134893
0.00136286
0.00137806
0.0013939
0.00140923
0.00142241
0.0014319
0.00143702
0.00143849
0.00117898
0.00117665
0.00117592
0.00117761
0.00118129
0.00118647
0.00119312
0.00120134
0.00121113
0.00122239
0.00123484
0.00124812
0.00126184
0.00127571
0.0012895
0.00130323
0.00131595
0.00132645
0.00133492
0.00134227
0.00134924
0.00135638
0.00136416
0.00137288
0.0013827
0.00139361
0.00140538
0.00141735
0.00142828
0.00143673
0.0014417
0.00144334
0.00124022
0.0012393
0.00124197
0.00124706
0.00125322
0.00125983
0.00126681
0.0012743
0.00128244
0.00129129
0.00130077
0.00131067
0.00132076
0.00133084
0.00134076
0.00135053
0.00135951
0.00136684
0.00137269
0.00137769
0.00138233
0.001387
0.00139201
0.00139758
0.00140387
0.00141093
0.00141873
0.00142699
0.00143501
0.00144167
0.00144595
0.00144756
0.00131501
0.00131679
0.00132201
0.00132786
0.00133364
0.00133913
0.00134437
0.00134951
0.00135476
0.00136026
0.00136601
0.00137194
0.00137793
0.00138387
0.00138969
0.00139539
0.00140059
0.00140482
0.00140817
0.001411
0.0014136
0.00141617
0.00141889
0.00142191
0.00142529
0.00142911
0.00143338
0.00143802
0.00144274
0.00144696
0.00144993
0.0014512
0.00140648
0.00140789
0.00141059
0.00141316
0.00141551
0.00141764
0.00141957
0.00142139
0.00142318
0.00142501
0.00142691
0.00142885
0.0014308
0.00143273
0.00143462
0.00143646
0.00143813
0.00143949
0.00144057
0.00144147
0.00144229
0.0014431
0.00144395
0.00144488
0.00144593
0.0014471
0.00144842
0.00144987
0.00145137
0.00145278
0.00145386
0.00145438
)
;


// ************************************************************************* //
