/*--------------------------------*- C++ -*----------------------------------*\
| =========                 |                                                 |
| \\      /  F ield         | OpenFOAM: The Open Source CFD Toolbox           |
|  \\    /   O peration     | Version:  2212                                  |
|   \\  /    A nd           | Website:  www.openfoam.com                      |
|    \\/     M anipulation  |                                                 |
\*---------------------------------------------------------------------------*/
FoamFile
{
    version     2.0;
    format      ascii;
    arch        "LSB;label=64;scalar=64";
    class       volScalarField;
    location    "1560";
    object      Gh2;
}
// * * * * * * * * * * * * * * * * * * * * * * * * * * * * * * * * * * * * * //

dimensions      [1 -3 0 0 0 0 0];

internalField   nonuniform List<scalar> 
1024
(
1.28333e-05
1.28325e-05
1.28305e-05
1.28269e-05
1.28211e-05
1.28127e-05
1.28013e-05
1.27869e-05
1.27698e-05
1.27509e-05
1.27316e-05
1.27128e-05
1.26952e-05
1.26785e-05
1.26616e-05
1.26446e-05
1.26325e-05
1.26325e-05
1.26452e-05
1.2668e-05
1.26983e-05
1.27326e-05
1.27679e-05
1.2801e-05
1.28297e-05
1.28529e-05
1.28706e-05
1.28832e-05
1.28917e-05
1.2897e-05
1.28999e-05
1.2901e-05
1.28329e-05
1.28321e-05
1.28301e-05
1.28264e-05
1.28206e-05
1.28121e-05
1.28005e-05
1.27859e-05
1.27686e-05
1.27496e-05
1.27302e-05
1.27114e-05
1.26939e-05
1.26771e-05
1.26602e-05
1.26431e-05
1.26308e-05
1.26307e-05
1.26433e-05
1.26662e-05
1.26965e-05
1.2731e-05
1.27664e-05
1.27997e-05
1.28286e-05
1.28521e-05
1.287e-05
1.28828e-05
1.28914e-05
1.28967e-05
1.28996e-05
1.29008e-05
1.2832e-05
1.28312e-05
1.28291e-05
1.28254e-05
1.28193e-05
1.28105e-05
1.27986e-05
1.27836e-05
1.27659e-05
1.27465e-05
1.27268e-05
1.27079e-05
1.26904e-05
1.26737e-05
1.26567e-05
1.26392e-05
1.26266e-05
1.26264e-05
1.26391e-05
1.26622e-05
1.26927e-05
1.27274e-05
1.27631e-05
1.27969e-05
1.28263e-05
1.28503e-05
1.28686e-05
1.28817e-05
1.28905e-05
1.28959e-05
1.28989e-05
1.29001e-05
1.28304e-05
1.28295e-05
1.28274e-05
1.28235e-05
1.28172e-05
1.2808e-05
1.27955e-05
1.27797e-05
1.27612e-05
1.27409e-05
1.27205e-05
1.27013e-05
1.26838e-05
1.26671e-05
1.26499e-05
1.2632e-05
1.26187e-05
1.26185e-05
1.26318e-05
1.26555e-05
1.26866e-05
1.27218e-05
1.27581e-05
1.27925e-05
1.28228e-05
1.28475e-05
1.28664e-05
1.28799e-05
1.2889e-05
1.28947e-05
1.28977e-05
1.2899e-05
1.28278e-05
1.28269e-05
1.28246e-05
1.28205e-05
1.28139e-05
1.28041e-05
1.27907e-05
1.27737e-05
1.27538e-05
1.27321e-05
1.27104e-05
1.26905e-05
1.26728e-05
1.26562e-05
1.26386e-05
1.26198e-05
1.26058e-05
1.26059e-05
1.26204e-05
1.26457e-05
1.2678e-05
1.27142e-05
1.27515e-05
1.27869e-05
1.2818e-05
1.28436e-05
1.28633e-05
1.28774e-05
1.28869e-05
1.28927e-05
1.28959e-05
1.28972e-05
1.28238e-05
1.28229e-05
1.28206e-05
1.28162e-05
1.28091e-05
1.27984e-05
1.27838e-05
1.27651e-05
1.2743e-05
1.2719e-05
1.26953e-05
1.26741e-05
1.2656e-05
1.26391e-05
1.26209e-05
1.26008e-05
1.25859e-05
1.2587e-05
1.26039e-05
1.26321e-05
1.26669e-05
1.2705e-05
1.27436e-05
1.27802e-05
1.28125e-05
1.28391e-05
1.28595e-05
1.28742e-05
1.2884e-05
1.28901e-05
1.28933e-05
1.28946e-05
1.2818e-05
1.28171e-05
1.28146e-05
1.281e-05
1.28022e-05
1.27906e-05
1.27743e-05
1.27532e-05
1.27281e-05
1.27007e-05
1.26739e-05
1.26507e-05
1.26316e-05
1.2614e-05
1.25946e-05
1.25728e-05
1.25571e-05
1.25601e-05
1.25812e-05
1.26142e-05
1.26531e-05
1.26943e-05
1.2735e-05
1.27732e-05
1.28066e-05
1.28341e-05
1.28552e-05
1.28703e-05
1.28804e-05
1.28865e-05
1.28898e-05
1.28911e-05
1.28097e-05
1.28088e-05
1.28062e-05
1.28012e-05
1.27927e-05
1.27797e-05
1.27612e-05
1.2737e-05
1.27079e-05
1.2676e-05
1.26452e-05
1.26189e-05
1.25977e-05
1.25786e-05
1.25573e-05
1.25332e-05
1.25171e-05
1.25235e-05
1.25511e-05
1.25914e-05
1.26366e-05
1.26824e-05
1.27262e-05
1.27663e-05
1.2801e-05
1.28291e-05
1.28505e-05
1.28657e-05
1.28757e-05
1.28818e-05
1.28849e-05
1.28862e-05
1.27979e-05
1.27969e-05
1.27942e-05
1.27888e-05
1.27794e-05
1.27647e-05
1.27436e-05
1.27154e-05
1.26813e-05
1.26439e-05
1.26079e-05
1.25773e-05
1.25528e-05
1.25308e-05
1.25063e-05
1.24796e-05
1.24638e-05
1.24756e-05
1.25119e-05
1.25622e-05
1.26164e-05
1.26688e-05
1.27169e-05
1.27595e-05
1.27953e-05
1.28237e-05
1.2845e-05
1.28597e-05
1.28693e-05
1.28748e-05
1.28777e-05
1.28787e-05
1.27812e-05
1.27802e-05
1.27772e-05
1.27713e-05
1.27608e-05
1.27441e-05
1.27197e-05
1.26869e-05
1.26468e-05
1.2603e-05
1.25608e-05
1.25247e-05
1.24953e-05
1.24685e-05
1.24395e-05
1.24097e-05
1.23952e-05
1.24136e-05
1.24604e-05
1.25228e-05
1.25885e-05
1.265e-05
1.27043e-05
1.27502e-05
1.27873e-05
1.28158e-05
1.28363e-05
1.285e-05
1.28584e-05
1.2863e-05
1.28652e-05
1.28659e-05
1.27579e-05
1.27568e-05
1.27535e-05
1.27468e-05
1.27349e-05
1.27157e-05
1.26875e-05
1.26493e-05
1.26026e-05
1.25516e-05
1.25023e-05
1.24595e-05
1.24234e-05
1.23899e-05
1.23548e-05
1.23215e-05
1.23081e-05
1.2332e-05
1.2388e-05
1.24624e-05
1.25414e-05
1.26149e-05
1.2678e-05
1.27293e-05
1.27689e-05
1.27977e-05
1.28173e-05
1.28294e-05
1.2836e-05
1.28391e-05
1.28401e-05
1.28402e-05
1.27263e-05
1.2725e-05
1.27213e-05
1.27136e-05
1.26998e-05
1.26775e-05
1.26447e-05
1.26005e-05
1.25466e-05
1.24878e-05
1.24308e-05
1.23802e-05
1.23358e-05
1.22938e-05
1.22512e-05
1.2213e-05
1.21972e-05
1.22201e-05
1.22777e-05
1.23578e-05
1.24473e-05
1.25342e-05
1.26102e-05
1.26714e-05
1.27172e-05
1.27489e-05
1.27689e-05
1.27798e-05
1.27846e-05
1.27858e-05
1.27853e-05
1.27847e-05
1.26854e-05
1.26839e-05
1.26795e-05
1.26704e-05
1.26541e-05
1.2628e-05
1.25896e-05
1.25386e-05
1.24771e-05
1.24107e-05
1.2346e-05
1.22872e-05
1.22336e-05
1.21817e-05
1.21302e-05
1.20837e-05
1.20577e-05
1.20665e-05
1.21093e-05
1.21789e-05
1.22653e-05
1.23573e-05
1.24449e-05
1.25204e-05
1.25796e-05
1.26217e-05
1.26481e-05
1.2662e-05
1.26675e-05
1.26682e-05
1.2667e-05
1.26659e-05
1.26369e-05
1.26351e-05
1.26301e-05
1.26195e-05
1.26007e-05
1.25708e-05
1.25274e-05
1.24703e-05
1.24022e-05
1.23287e-05
1.22561e-05
1.21882e-05
1.21246e-05
1.20625e-05
1.2001e-05
1.19428e-05
1.18984e-05
1.18791e-05
1.18877e-05
1.19225e-05
1.19794e-05
1.20521e-05
1.21327e-05
1.22128e-05
1.22849e-05
1.23438e-05
1.23867e-05
1.2414e-05
1.24287e-05
1.24348e-05
1.24362e-05
1.24359e-05
1.25849e-05
1.2583e-05
1.25775e-05
1.25661e-05
1.25457e-05
1.25133e-05
1.24667e-05
1.24056e-05
1.23326e-05
1.22531e-05
1.21733e-05
1.20974e-05
1.20258e-05
1.19568e-05
1.18893e-05
1.18237e-05
1.17646e-05
1.17176e-05
1.16859e-05
1.16714e-05
1.16761e-05
1.17001e-05
1.17413e-05
1.17953e-05
1.18563e-05
1.19169e-05
1.19708e-05
1.20132e-05
1.20426e-05
1.206e-05
1.20683e-05
1.2071e-05
1.25349e-05
1.2533e-05
1.25276e-05
1.25162e-05
1.24959e-05
1.24637e-05
1.24171e-05
1.23555e-05
1.22811e-05
1.21989e-05
1.21153e-05
1.20355e-05
1.19619e-05
1.18948e-05
1.18337e-05
1.17777e-05
1.17255e-05
1.1673e-05
1.16197e-05
1.1569e-05
1.15263e-05
1.14962e-05
1.14816e-05
1.14834e-05
1.15001e-05
1.15283e-05
1.15626e-05
1.15968e-05
1.16258e-05
1.16465e-05
1.16586e-05
1.16635e-05
1.24953e-05
1.24935e-05
1.24885e-05
1.24782e-05
1.24598e-05
1.24305e-05
1.23876e-05
1.23302e-05
1.22598e-05
1.21804e-05
1.20987e-05
1.20211e-05
1.19526e-05
1.18959e-05
1.18523e-05
1.18207e-05
1.1795e-05
1.17604e-05
1.17101e-05
1.16475e-05
1.15806e-05
1.1517e-05
1.14627e-05
1.14213e-05
1.13944e-05
1.13814e-05
1.13802e-05
1.13872e-05
1.13978e-05
1.14082e-05
1.14156e-05
1.14192e-05
1.24702e-05
1.24685e-05
1.24641e-05
1.24551e-05
1.24392e-05
1.24139e-05
1.23766e-05
1.2326e-05
1.22627e-05
1.21901e-05
1.21142e-05
1.20418e-05
1.19797e-05
1.19326e-05
1.19032e-05
1.1891e-05
1.18878e-05
1.18724e-05
1.18324e-05
1.17687e-05
1.16895e-05
1.16051e-05
1.15253e-05
1.14573e-05
1.14045e-05
1.13677e-05
1.13452e-05
1.13342e-05
1.1331e-05
1.1332e-05
1.13342e-05
1.13356e-05
1.24564e-05
1.24549e-05
1.2451e-05
1.24432e-05
1.24297e-05
1.24082e-05
1.23765e-05
1.23331e-05
1.2278e-05
1.22137e-05
1.21451e-05
1.20789e-05
1.20222e-05
1.19806e-05
1.19579e-05
1.19539e-05
1.19598e-05
1.19539e-05
1.19225e-05
1.18632e-05
1.17807e-05
1.16843e-05
1.15856e-05
1.14954e-05
1.14211e-05
1.13656e-05
1.13286e-05
1.1307e-05
1.12967e-05
1.12934e-05
1.12933e-05
1.1294e-05
1.24498e-05
1.24485e-05
1.2445e-05
1.24383e-05
1.24268e-05
1.24087e-05
1.23821e-05
1.23454e-05
1.22983e-05
1.22426e-05
1.21822e-05
1.21228e-05
1.20709e-05
1.20323e-05
1.20108e-05
1.20063e-05
1.20105e-05
1.20041e-05
1.19754e-05
1.19203e-05
1.18406e-05
1.17423e-05
1.16353e-05
1.15313e-05
1.14403e-05
1.13684e-05
1.13174e-05
1.12854e-05
1.12685e-05
1.12615e-05
1.126e-05
1.12603e-05
1.24466e-05
1.24454e-05
1.24425e-05
1.24369e-05
1.24274e-05
1.24123e-05
1.239e-05
1.23593e-05
1.23198e-05
1.22724e-05
1.22202e-05
1.21678e-05
1.21205e-05
1.20832e-05
1.20592e-05
1.20482e-05
1.20428e-05
1.20285e-05
1.19965e-05
1.19427e-05
1.18669e-05
1.1772e-05
1.1665e-05
1.15559e-05
1.14553e-05
1.13715e-05
1.13088e-05
1.12673e-05
1.12437e-05
1.1233e-05
1.12299e-05
1.12298e-05
1.24418e-05
1.24412e-05
1.24393e-05
1.24352e-05
1.24279e-05
1.24159e-05
1.23978e-05
1.23724e-05
1.23394e-05
1.22995e-05
1.22548e-05
1.22085e-05
1.21646e-05
1.21266e-05
1.2097e-05
1.20749e-05
1.20551e-05
1.20288e-05
1.19905e-05
1.1936e-05
1.18638e-05
1.17746e-05
1.16729e-05
1.15661e-05
1.1463e-05
1.13727e-05
1.13015e-05
1.12517e-05
1.12218e-05
1.12072e-05
1.12024e-05
1.12019e-05
1.24295e-05
1.24297e-05
1.24295e-05
1.24279e-05
1.24237e-05
1.24154e-05
1.24015e-05
1.23811e-05
1.23536e-05
1.23195e-05
1.228e-05
1.22374e-05
1.21941e-05
1.21526e-05
1.21144e-05
1.20786e-05
1.20428e-05
1.2004e-05
1.19591e-05
1.19041e-05
1.18362e-05
1.17545e-05
1.16611e-05
1.15611e-05
1.14615e-05
1.13702e-05
1.12942e-05
1.12382e-05
1.12025e-05
1.1184e-05
1.11773e-05
1.11763e-05
1.24029e-05
1.24043e-05
1.24066e-05
1.24085e-05
1.24085e-05
1.24046e-05
1.23951e-05
1.23787e-05
1.23548e-05
1.23237e-05
1.22861e-05
1.22433e-05
1.21972e-05
1.21494e-05
1.21011e-05
1.20516e-05
1.20016e-05
1.19528e-05
1.19036e-05
1.18497e-05
1.17875e-05
1.1715e-05
1.16321e-05
1.15421e-05
1.145e-05
1.13623e-05
1.12856e-05
1.12258e-05
1.11855e-05
1.11633e-05
1.11545e-05
1.1153e-05
1.23558e-05
1.23589e-05
1.23643e-05
1.23703e-05
1.23746e-05
1.23748e-05
1.23686e-05
1.23543e-05
1.23313e-05
1.22996e-05
1.226e-05
1.22136e-05
1.21622e-05
1.21073e-05
1.205e-05
1.19902e-05
1.19308e-05
1.18765e-05
1.18264e-05
1.17757e-05
1.17207e-05
1.16585e-05
1.15878e-05
1.151e-05
1.14284e-05
1.13478e-05
1.12742e-05
1.12136e-05
1.11702e-05
1.11448e-05
1.11339e-05
1.11318e-05
1.22838e-05
1.22889e-05
1.22973e-05
1.23064e-05
1.23133e-05
1.23152e-05
1.23094e-05
1.22942e-05
1.22688e-05
1.22336e-05
1.21898e-05
1.21389e-05
1.20827e-05
1.20229e-05
1.19606e-05
1.18962e-05
1.18336e-05
1.1779e-05
1.17313e-05
1.16859e-05
1.16391e-05
1.15877e-05
1.15298e-05
1.14655e-05
1.13965e-05
1.13259e-05
1.12587e-05
1.12003e-05
1.1156e-05
1.11282e-05
1.11155e-05
1.11126e-05
1.21846e-05
1.21916e-05
1.22016e-05
1.22108e-05
1.22162e-05
1.22153e-05
1.2206e-05
1.21866e-05
1.2157e-05
1.21181e-05
1.20711e-05
1.2018e-05
1.19605e-05
1.19004e-05
1.18389e-05
1.1776e-05
1.17164e-05
1.16659e-05
1.16235e-05
1.1585e-05
1.15467e-05
1.15059e-05
1.14605e-05
1.14099e-05
1.13544e-05
1.1296e-05
1.12378e-05
1.11847e-05
1.11419e-05
1.11133e-05
1.1099e-05
1.10953e-05
1.2057e-05
1.2065e-05
1.20736e-05
1.20779e-05
1.20764e-05
1.20682e-05
1.20524e-05
1.20281e-05
1.19956e-05
1.19555e-05
1.19093e-05
1.18586e-05
1.1805e-05
1.17501e-05
1.16947e-05
1.1639e-05
1.15871e-05
1.1544e-05
1.15089e-05
1.14779e-05
1.14481e-05
1.14171e-05
1.13832e-05
1.13454e-05
1.13034e-05
1.12579e-05
1.12109e-05
1.11656e-05
1.1127e-05
1.10993e-05
1.10844e-05
1.108e-05
1.18991e-05
1.19064e-05
1.19086e-05
1.19031e-05
1.18913e-05
1.18746e-05
1.18532e-05
1.18266e-05
1.17948e-05
1.17583e-05
1.17178e-05
1.16745e-05
1.16297e-05
1.15844e-05
1.15393e-05
1.14946e-05
1.14535e-05
1.14198e-05
1.13927e-05
1.13695e-05
1.13477e-05
1.13255e-05
1.13016e-05
1.12751e-05
1.12454e-05
1.12127e-05
1.11777e-05
1.11424e-05
1.11104e-05
1.10858e-05
1.10714e-05
1.10666e-05
1.1707e-05
1.17098e-05
1.17014e-05
1.16853e-05
1.16658e-05
1.16448e-05
1.16225e-05
1.15985e-05
1.15724e-05
1.15438e-05
1.15132e-05
1.1481e-05
1.14482e-05
1.14154e-05
1.13831e-05
1.13513e-05
1.13223e-05
1.12987e-05
1.128e-05
1.12641e-05
1.12496e-05
1.1235e-05
1.12196e-05
1.12026e-05
1.11836e-05
1.11624e-05
1.11392e-05
1.11148e-05
1.10914e-05
1.1072e-05
1.10596e-05
1.1055e-05
1.14727e-05
1.14672e-05
1.14508e-05
1.14324e-05
1.14142e-05
1.13968e-05
1.13802e-05
1.13638e-05
1.1347e-05
1.13293e-05
1.13108e-05
1.12916e-05
1.12722e-05
1.12528e-05
1.12339e-05
1.12154e-05
1.11985e-05
1.11849e-05
1.11742e-05
1.11652e-05
1.1157e-05
1.1149e-05
1.11406e-05
1.11314e-05
1.11212e-05
1.11097e-05
1.1097e-05
1.10833e-05
1.10694e-05
1.10572e-05
1.10486e-05
1.1045e-05
1.11867e-05
1.11823e-05
1.11738e-05
1.11658e-05
1.11584e-05
1.11517e-05
1.11456e-05
1.11398e-05
1.11341e-05
1.11282e-05
1.11221e-05
1.11158e-05
1.11095e-05
1.11032e-05
1.1097e-05
1.10911e-05
1.10856e-05
1.10813e-05
1.10778e-05
1.1075e-05
1.10724e-05
1.10699e-05
1.10672e-05
1.10644e-05
1.10612e-05
1.10577e-05
1.10538e-05
1.10495e-05
1.10451e-05
1.1041e-05
1.10379e-05
1.10364e-05
)
;

boundaryField
{
    movingWall
    {
        type            fixedValue;
        value           uniform 1.1032e-05;
    }
    fixedWalls
    {
        type            zeroGradient;
    }
    floor
    {
        type            zeroGradient;
    }
    frontAndBack
    {
        type            empty;
    }
}


// ************************************************************************* //
