/*--------------------------------*- C++ -*----------------------------------*\
| =========                 |                                                 |
| \\      /  F ield         | OpenFOAM: The Open Source CFD Toolbox           |
|  \\    /   O peration     | Version:  2212                                  |
|   \\  /    A nd           | Website:  www.openfoam.com                      |
|    \\/     M anipulation  |                                                 |
\*---------------------------------------------------------------------------*/
FoamFile
{
    version     2.0;
    format      ascii;
    arch        "LSB;label=64;scalar=64";
    class       volScalarField;
    location    "1560";
    object      p_rgh;
}
// * * * * * * * * * * * * * * * * * * * * * * * * * * * * * * * * * * * * * //

dimensions      [0 2 -2 0 0 0 0];

internalField   nonuniform List<scalar> 
1024
(
0.0431944
0.0431932
0.0431921
0.0431922
0.0431945
0.0432
0.0432091
0.043222
0.0432376
0.0432513
0.0432562
0.043247
0.0432283
0.0432067
0.0431884
0.0431727
0.0431494
0.0431081
0.043057
0.0430107
0.0429783
0.0429589
0.0429483
0.0429427
0.0429399
0.0429385
0.042938
0.0429383
0.0429392
0.0429405
0.0429418
0.0429425
0.0431967
0.0431956
0.0431947
0.043195
0.0431975
0.0432027
0.0432115
0.0432241
0.0432393
0.0432526
0.0432575
0.0432487
0.0432303
0.0432089
0.0431905
0.0431744
0.0431509
0.0431096
0.0430588
0.0430128
0.0429807
0.0429615
0.0429509
0.0429453
0.0429424
0.0429409
0.0429402
0.0429403
0.042941
0.042942
0.0429431
0.0429438
0.0432005
0.0431992
0.0431984
0.0431991
0.0432019
0.0432073
0.0432163
0.043229
0.0432444
0.043258
0.043263
0.0432543
0.0432359
0.0432143
0.0431956
0.0431793
0.0431556
0.0431143
0.0430634
0.0430174
0.0429853
0.0429662
0.0429555
0.0429497
0.0429465
0.0429448
0.0429438
0.0429436
0.0429438
0.0429446
0.0429456
0.0429466
0.0432049
0.0432033
0.0432026
0.0432037
0.0432072
0.0432136
0.0432235
0.0432375
0.0432543
0.0432687
0.043274
0.0432651
0.0432461
0.0432239
0.0432049
0.0431886
0.0431651
0.0431235
0.0430719
0.043025
0.0429923
0.0429729
0.042962
0.0429559
0.0429523
0.0429501
0.0429486
0.0429477
0.0429475
0.042948
0.0429492
0.0429505
0.0432088
0.0432072
0.0432067
0.0432085
0.0432131
0.0432212
0.0432334
0.0432498
0.0432689
0.0432849
0.0432906
0.0432813
0.0432613
0.0432385
0.0432193
0.0432034
0.0431802
0.0431381
0.043085
0.0430361
0.043002
0.0429819
0.0429705
0.0429639
0.0429596
0.0429566
0.0429542
0.0429525
0.0429517
0.042952
0.0429533
0.042955
0.0432109
0.0432096
0.0432097
0.0432126
0.0432191
0.0432298
0.0432454
0.0432655
0.0432876
0.0433054
0.0433114
0.0433017
0.043281
0.0432579
0.0432391
0.0432241
0.0432012
0.0431582
0.0431026
0.0430505
0.0430141
0.0429926
0.0429804
0.0429729
0.0429677
0.0429634
0.0429598
0.0429571
0.0429555
0.0429553
0.0429566
0.0429585
0.0432108
0.04321
0.043211
0.0432154
0.0432243
0.0432386
0.0432586
0.0432832
0.0433088
0.0433281
0.0433341
0.0433243
0.0433035
0.043281
0.0432635
0.04325
0.0432273
0.0431825
0.0431235
0.0430671
0.0430269
0.0430037
0.0429902
0.0429814
0.0429747
0.0429688
0.0429636
0.0429595
0.0429569
0.0429561
0.0429571
0.042959
0.0432085
0.0432084
0.0432104
0.0432166
0.0432284
0.0432469
0.0432722
0.043302
0.0433311
0.0433516
0.0433569
0.0433467
0.0433267
0.0433059
0.0432909
0.0432792
0.0432559
0.043208
0.0431445
0.0430827
0.0430376
0.0430123
0.0429973
0.0429868
0.0429781
0.0429701
0.042963
0.0429572
0.0429534
0.0429519
0.0429524
0.0429539
0.0432058
0.0432062
0.0432092
0.0432171
0.043232
0.0432551
0.0432862
0.0433217
0.0433546
0.0433758
0.0433794
0.0433679
0.0433489
0.0433309
0.0433191
0.0433087
0.0432834
0.043231
0.0431621
0.0430935
0.043043
0.0430151
0.0429985
0.0429861
0.0429751
0.0429648
0.0429555
0.0429482
0.0429434
0.0429412
0.042941
0.0429419
0.0432047
0.0432056
0.0432095
0.0432191
0.0432371
0.0432651
0.0433024
0.0433441
0.043381
0.043402
0.0434029
0.0433891
0.0433703
0.0433549
0.0433456
0.0433352
0.0433066
0.0432501
0.0431765
0.0431004
0.043043
0.0430111
0.0429926
0.0429781
0.0429648
0.0429522
0.0429414
0.0429331
0.0429278
0.0429251
0.0429243
0.0429244
0.0432084
0.0432094
0.0432141
0.0432254
0.0432469
0.0432805
0.0433247
0.0433726
0.0434124
0.0434317
0.0434289
0.0434124
0.043393
0.0433783
0.0433691
0.043357
0.0433265
0.043269
0.0431938
0.0431152
0.04305
0.0430075
0.0429844
0.0429671
0.0429516
0.0429375
0.0429258
0.0429173
0.042912
0.0429094
0.0429082
0.0429078
0.0432192
0.0432204
0.0432258
0.0432397
0.0432659
0.0433067
0.0433591
0.0434124
0.0434499
0.043465
0.0434593
0.0434421
0.0434226
0.043406
0.0433927
0.0433783
0.0433504
0.0433003
0.0432342
0.0431619
0.0430931
0.0430348
0.0429937
0.0429697
0.0429504
0.0429341
0.0429211
0.0429122
0.042907
0.0429046
0.0429037
0.0429032
0.0432401
0.0432413
0.0432483
0.0432663
0.0433001
0.0433513
0.0434134
0.0434705
0.0435049
0.0435122
0.0435007
0.0434813
0.0434611
0.0434428
0.0434262
0.0434088
0.0433883
0.0433557
0.0433142
0.0432687
0.0432205
0.043167
0.0431051
0.0430429
0.0430029
0.0429733
0.0429517
0.0429386
0.0429321
0.0429302
0.0429303
0.0429306
0.0432611
0.0432624
0.0432711
0.0432933
0.0433337
0.0433918
0.0434574
0.0435133
0.0435456
0.0435533
0.0435442
0.0435271
0.0435079
0.0434893
0.0434713
0.0434532
0.0434378
0.0434263
0.0434183
0.0434154
0.0434146
0.0434079
0.0433842
0.0433325
0.0432485
0.0431606
0.0430955
0.0430602
0.0430425
0.0430363
0.0430361
0.0430373
0.0432613
0.0432629
0.0432726
0.0432972
0.0433412
0.0434025
0.0434696
0.0435261
0.043561
0.0435739
0.0435713
0.04356
0.0435441
0.0435256
0.0435054
0.0434845
0.0434686
0.0434672
0.0434811
0.0435094
0.0435478
0.0435886
0.0436212
0.0436352
0.0436223
0.0435776
0.0435023
0.0434149
0.0433464
0.0433084
0.0432934
0.0432895
0.043223
0.0432248
0.0432345
0.0432592
0.0433036
0.0433662
0.0434361
0.0434976
0.0435398
0.0435613
0.0435669
0.0435619
0.043549
0.0435295
0.0435042
0.0434762
0.043454
0.0434486
0.043463
0.0434946
0.0435401
0.043594
0.0436488
0.0436962
0.0437295
0.0437451
0.0437424
0.0437239
0.043695
0.0436627
0.0436387
0.0436278
0.0431514
0.0431532
0.043162
0.0431846
0.0432266
0.0432884
0.0433613
0.0434303
0.043483
0.0435152
0.04353
0.0435319
0.0435234
0.0435054
0.0434793
0.0434491
0.0434256
0.0434136
0.0434162
0.0434321
0.0434604
0.0434996
0.0435462
0.0435939
0.0436363
0.043668
0.0436871
0.0436946
0.0436939
0.0436884
0.0436816
0.0436763
0.0430841
0.0430857
0.043093
0.0431121
0.0431494
0.0432078
0.0432815
0.0433569
0.04342
0.0434636
0.0434884
0.043498
0.0434955
0.0434824
0.0434609
0.0434367
0.0434228
0.0434137
0.0434083
0.0434071
0.0434112
0.0434238
0.0434465
0.0434775
0.0435115
0.0435421
0.0435645
0.0435771
0.0435815
0.0435806
0.0435769
0.0435727
0.0430449
0.0430464
0.0430522
0.0430678
0.0430993
0.0431509
0.0432204
0.0432979
0.0433701
0.0434249
0.0434595
0.0434767
0.0434799
0.0434715
0.0434547
0.0434361
0.0434314
0.0434312
0.0434276
0.0434221
0.0434132
0.0434041
0.0434012
0.0434092
0.0434271
0.0434495
0.0434696
0.043483
0.0434888
0.0434887
0.0434848
0.04348
0.0430324
0.0430336
0.043038
0.0430504
0.0430768
0.0431219
0.0431859
0.0432617
0.0433371
0.0433996
0.043443
0.0434672
0.0434747
0.0434686
0.043453
0.0434351
0.0434285
0.0434334
0.0434404
0.0434447
0.0434396
0.0434234
0.0434054
0.0433944
0.0433963
0.0434087
0.0434248
0.0434377
0.0434442
0.0434443
0.0434397
0.0434339
0.0430385
0.0430392
0.0430423
0.0430519
0.0430738
0.0431133
0.0431718
0.0432443
0.0433201
0.0433865
0.0434352
0.0434637
0.0434733
0.0434668
0.0434492
0.0434282
0.043417
0.0434229
0.0434366
0.0434505
0.0434579
0.0434546
0.0434393
0.0434188
0.0434104
0.0434163
0.0434306
0.0434448
0.0434531
0.0434542
0.0434491
0.043442
0.0430553
0.0430555
0.0430572
0.0430645
0.043083
0.0431182
0.0431724
0.0432416
0.043316
0.0433829
0.0434331
0.0434624
0.0434709
0.0434616
0.0434395
0.0434133
0.0433973
0.0434019
0.0434203
0.0434425
0.0434619
0.0434734
0.0434744
0.0434676
0.0434575
0.0434636
0.0434823
0.0435034
0.0435177
0.0435219
0.0435171
0.0435085
0.0430768
0.0430763
0.0430768
0.0430823
0.0430987
0.0431316
0.0431836
0.0432506
0.0433227
0.0433873
0.0434349
0.0434608
0.0434649
0.0434501
0.0434221
0.0433898
0.0433692
0.0433721
0.0433934
0.0434221
0.0434523
0.0434793
0.0435002
0.0435158
0.0435285
0.0435459
0.0435763
0.0436125
0.0436403
0.0436524
0.0436496
0.04364
0.0430984
0.0430969
0.0430963
0.0431012
0.0431174
0.0431507
0.0432028
0.0432691
0.0433383
0.043398
0.0434391
0.0434576
0.0434539
0.0434314
0.0433959
0.0433573
0.0433324
0.0433334
0.0433559
0.0433899
0.0434299
0.0434724
0.0435156
0.04356
0.0436069
0.0436573
0.0437124
0.0437729
0.0438251
0.0438535
0.0438565
0.0438472
0.0431164
0.0431136
0.0431125
0.0431184
0.0431372
0.0431738
0.0432284
0.0432948
0.0433604
0.0434126
0.0434437
0.0434514
0.0434371
0.0434048
0.0433609
0.0433155
0.0432862
0.0432852
0.0433075
0.0433463
0.0433954
0.0434536
0.0435209
0.0435987
0.0436879
0.0437864
0.0438883
0.0439875
0.0440766
0.0441348
0.0441511
0.0441462
0.0431277
0.0431234
0.0431226
0.0431322
0.0431571
0.0431993
0.0432585
0.0433253
0.0433857
0.0434278
0.0434461
0.0434404
0.0434134
0.0433699
0.0433167
0.0432645
0.0432312
0.0432283
0.0432511
0.0432937
0.0433513
0.0434249
0.0435169
0.0436307
0.0437679
0.043925
0.0440919
0.0442537
0.0443962
0.0445041
0.0445493
0.0445573
0.0431264
0.043121
0.0431229
0.0431405
0.0431759
0.0432269
0.04329
0.0433564
0.0434095
0.0434391
0.0434426
0.043422
0.0433814
0.0433262
0.0432638
0.0432053
0.0431688
0.043165
0.043189
0.0432352
0.0433011
0.0433894
0.0435053
0.0436549
0.0438419
0.0440633
0.0443073
0.0445536
0.0447779
0.0449611
0.0450626
0.0451002
0.0430992
0.0430965
0.0431073
0.0431401
0.0431912
0.0432531
0.0433201
0.0433834
0.0434265
0.0434418
0.0434299
0.0433943
0.0433405
0.0432746
0.0432042
0.0431409
0.043103
0.0430995
0.0431254
0.0431758
0.0432498
0.0433514
0.0434887
0.0436706
0.0439039
0.0441884
0.0445143
0.044861
0.0451984
0.0454904
0.0456903
0.0457878
0.0430208
0.0430328
0.0430687
0.0431294
0.0432018
0.0432752
0.0433452
0.0434018
0.0434327
0.0434337
0.0434072
0.0433584
0.0432936
0.0432192
0.0431433
0.0430776
0.0430401
0.0430382
0.0430667
0.0431215
0.0432027
0.0433153
0.0434698
0.0436776
0.0439485
0.0442868
0.0446888
0.0451404
0.0456157
0.04607
0.0464241
0.0466516
0.0428367
0.0429107
0.0430128
0.043118
0.0432126
0.0432962
0.0433649
0.0434118
0.0434302
0.0434182
0.0433797
0.0433207
0.0432479
0.0431682
0.0430894
0.0430234
0.0429874
0.0429878
0.0430191
0.0430779
0.0431644
0.043285
0.0434511
0.0436764
0.043973
0.0443492
0.0448093
0.0453529
0.0459734
0.0466427
0.0472743
0.0478255
0.0423468
0.042738
0.0429819
0.0431345
0.0432416
0.0433254
0.0433864
0.0434218
0.0434282
0.0434054
0.0433578
0.0432917
0.0432138
0.0431311
0.0430511
0.0429856
0.0429513
0.0429536
0.042987
0.0430484
0.043138
0.0432627
0.0434348
0.0436687
0.0439778
0.0443733
0.0448661
0.0454702
0.0462095
0.0471184
0.0482262
0.0494847
0.0413283
0.0425648
0.0430311
0.0431833
0.0432831
0.0433602
0.0434114
0.0434362
0.0434335
0.0434033
0.0433497
0.0432792
0.0431984
0.0431139
0.0430332
0.0429679
0.0429343
0.0429375
0.0429719
0.0430342
0.0431248
0.0432506
0.0434242
0.04366
0.0439718
0.0443721
0.0448755
0.0455073
0.0463203
0.047422
0.0490305
0.0512929
)
;

boundaryField
{
    movingWall
    {
        type            fixedFluxPressure;
        gradient        uniform 0;
        value           nonuniform List<scalar> 
32
(
0.0413283
0.0425648
0.0430311
0.0431833
0.0432831
0.0433602
0.0434114
0.0434362
0.0434335
0.0434033
0.0433497
0.0432792
0.0431984
0.0431139
0.0430332
0.0429679
0.0429343
0.0429375
0.0429719
0.0430342
0.0431248
0.0432506
0.0434242
0.04366
0.0439718
0.0443721
0.0448755
0.0455073
0.0463203
0.047422
0.0490305
0.0512929
)
;
    }
    fixedWalls
    {
        type            fixedFluxPressure;
        gradient        uniform 0;
        value           nonuniform List<scalar> 
64
(
0.0431944
0.0431967
0.0432005
0.0432049
0.0432088
0.0432109
0.0432108
0.0432085
0.0432058
0.0432047
0.0432084
0.0432192
0.0432401
0.0432611
0.0432613
0.043223
0.0431514
0.0430841
0.0430449
0.0430324
0.0430385
0.0430553
0.0430768
0.0430984
0.0431164
0.0431277
0.0431264
0.0430992
0.0430208
0.0428367
0.0423468
0.0413283
0.0429425
0.0429438
0.0429466
0.0429505
0.042955
0.0429585
0.042959
0.0429539
0.0429419
0.0429244
0.0429078
0.0429032
0.0429306
0.0430373
0.0432895
0.0436278
0.0436763
0.0435727
0.04348
0.0434339
0.043442
0.0435085
0.04364
0.0438472
0.0441462
0.0445573
0.0451002
0.0457878
0.0466516
0.0478255
0.0494847
0.0512929
)
;
    }
    floor
    {
        type            fixedFluxPressure;
        gradient        uniform 0;
        value           nonuniform List<scalar> 
32
(
0.0431944
0.0431932
0.0431921
0.0431922
0.0431945
0.0432
0.0432091
0.043222
0.0432376
0.0432513
0.0432562
0.043247
0.0432283
0.0432067
0.0431884
0.0431727
0.0431494
0.0431081
0.043057
0.0430107
0.0429783
0.0429589
0.0429483
0.0429427
0.0429399
0.0429385
0.042938
0.0429383
0.0429392
0.0429405
0.0429418
0.0429425
)
;
    }
    frontAndBack
    {
        type            empty;
    }
}


// ************************************************************************* //
