/*--------------------------------*- C++ -*----------------------------------*\
| =========                 |                                                 |
| \\      /  F ield         | OpenFOAM: The Open Source CFD Toolbox           |
|  \\    /   O peration     | Version:  2212                                  |
|   \\  /    A nd           | Website:  www.openfoam.com                      |
|    \\/     M anipulation  |                                                 |
\*---------------------------------------------------------------------------*/
FoamFile
{
    version     2.0;
    format      ascii;
    arch        "LSB;label=64;scalar=64";
    class       volScalarField;
    location    "1560";
    object      SIC;
}
// * * * * * * * * * * * * * * * * * * * * * * * * * * * * * * * * * * * * * //

dimensions      [1 -3 0 0 0 0 0];

internalField   nonuniform List<scalar> 
1024
(
0.0911613
0.0911628
0.0911665
0.0911732
0.091184
0.0911998
0.0912212
0.0912484
0.0912806
0.0913162
0.091353
0.091389
0.0914231
0.0914563
0.0914906
0.0915264
0.0915537
0.0915572
0.0915357
0.0914941
0.0914382
0.0913746
0.0913094
0.0912484
0.0911956
0.091153
0.0911206
0.0910975
0.091082
0.0910724
0.0910671
0.091065
0.091162
0.0911635
0.0911672
0.0911741
0.091185
0.091201
0.0912228
0.0912503
0.0912828
0.0913187
0.0913557
0.0913917
0.0914258
0.091459
0.0914934
0.0915294
0.0915571
0.0915608
0.0915393
0.0914976
0.0914417
0.0913778
0.0913123
0.0912509
0.0911976
0.0911545
0.0911218
0.0910984
0.0910827
0.091073
0.0910677
0.0910655
0.0911636
0.0911652
0.0911691
0.0911761
0.0911874
0.0912039
0.0912263
0.0912546
0.091288
0.0913247
0.0913623
0.0913985
0.0914325
0.0914657
0.0915004
0.0915371
0.0915655
0.0915695
0.0915478
0.0915056
0.0914492
0.0913848
0.0913186
0.0912563
0.091202
0.091158
0.0911244
0.0911004
0.0910843
0.0910744
0.091069
0.0910668
0.0911667
0.0911683
0.0911723
0.0911797
0.0911915
0.0912088
0.0912323
0.091262
0.091297
0.0913354
0.0913743
0.0914111
0.0914453
0.0914785
0.0915137
0.0915516
0.0915812
0.0915853
0.0915626
0.091519
0.0914613
0.0913957
0.0913283
0.0912646
0.0912088
0.0911634
0.0911287
0.0911038
0.0910872
0.0910769
0.0910713
0.091069
0.0911716
0.0911733
0.0911774
0.0911852
0.0911977
0.0912162
0.0912414
0.0912733
0.0913111
0.0913523
0.0913937
0.091432
0.0914666
0.0915
0.0915361
0.0915759
0.0916073
0.0916109
0.0915857
0.091539
0.0914785
0.0914107
0.0913413
0.0912756
0.091218
0.0911708
0.0911346
0.0911087
0.0910913
0.0910807
0.0910749
0.0910726
0.091179
0.0911807
0.0911851
0.0911933
0.0912068
0.0912268
0.0912544
0.0912897
0.0913316
0.0913774
0.0914228
0.0914637
0.0914994
0.0915335
0.0915712
0.0916139
0.0916474
0.0916495
0.0916195
0.0915668
0.0915012
0.0914295
0.091357
0.0912888
0.0912289
0.0911797
0.0911421
0.091115
0.091097
0.091086
0.09108
0.0910776
0.0911899
0.0911916
0.0911962
0.091205
0.0912196
0.0912417
0.0912724
0.0913124
0.0913602
0.0914125
0.091464
0.0915091
0.0915472
0.091583
0.0916234
0.0916702
0.0917059
0.0917045
0.0916663
0.0916039
0.0915297
0.0914516
0.0913746
0.0913031
0.0912407
0.0911897
0.0911507
0.0911228
0.0911043
0.0910931
0.0910871
0.0910847
0.0912054
0.0912072
0.0912121
0.0912215
0.0912376
0.0912622
0.0912972
0.0913432
0.0913988
0.0914599
0.0915194
0.0915709
0.0916134
0.0916529
0.0916979
0.0917499
0.0917873
0.0917797
0.091729
0.0916519
0.0915647
0.0914769
0.0913934
0.0913176
0.0912526
0.0912001
0.0911603
0.0911322
0.0911137
0.0911027
0.0910969
0.0910946
0.0912276
0.0912295
0.0912346
0.0912449
0.0912627
0.0912905
0.0913307
0.0913843
0.0914498
0.0915217
0.0915917
0.091652
0.0917016
0.0917476
0.0917998
0.0918582
0.091896
0.0918787
0.0918107
0.0917137
0.0916083
0.0915068
0.0914141
0.091333
0.0912652
0.0912117
0.0911721
0.0911446
0.091127
0.0911168
0.0911117
0.0911098
0.0912589
0.0912609
0.0912665
0.0912779
0.0912978
0.0913296
0.0913761
0.0914389
0.0915159
0.0916007
0.0916832
0.091755
0.0918151
0.0918716
0.091934
0.0919998
0.0920365
0.0920069
0.0919184
0.0917973
0.0916684
0.091548
0.0914426
0.0913542
0.0912832
0.0912292
0.0911906
0.091165
0.0911494
0.091141
0.0911372
0.0911359
0.0913027
0.0913048
0.0913111
0.0913239
0.0913467
0.0913833
0.0914374
0.0915107
0.0916009
0.0917001
0.0917972
0.0918831
0.0919575
0.0920286
0.0921044
0.0921787
0.0922147
0.0921751
0.092069
0.0919239
0.0917682
0.0916233
0.0914994
0.0913994
0.0913227
0.0912674
0.0912302
0.0912074
0.0911951
0.0911896
0.091188
0.0911879
0.0913621
0.0913646
0.0913718
0.0913866
0.0914131
0.0914558
0.0915189
0.0916043
0.091709
0.091824
0.0919371
0.0920395
0.0921316
0.0922209
0.092313
0.0923985
0.0924405
0.0924039
0.0922955
0.0921392
0.0919626
0.0917904
0.0916399
0.0915191
0.0914292
0.0913672
0.0913286
0.0913076
0.0912987
0.0912968
0.091298
0.0912994
0.0914391
0.0914421
0.0914505
0.0914681
0.0914996
0.0915501
0.0916242
0.0917233
0.0918434
0.0919743
0.0921035
0.0922233
0.0923348
0.0924447
0.0925559
0.092659
0.0927226
0.0927156
0.0926377
0.0925036
0.0923336
0.0921508
0.0919763
0.0918256
0.0917078
0.0916242
0.0915719
0.0915444
0.0915337
0.0915325
0.091535
0.0915374
0.0915306
0.091534
0.0915439
0.0915644
0.0916009
0.091659
0.0917433
0.0918546
0.0919882
0.0921339
0.0922795
0.092418
0.09255
0.0926808
0.0928125
0.0929397
0.0930412
0.0930925
0.0930856
0.0930236
0.0929142
0.0927707
0.0926097
0.0924488
0.0923036
0.0921849
0.0920984
0.0920433
0.0920136
0.0920012
0.0919983
0.0919989
0.0916285
0.0916323
0.091643
0.0916654
0.0917051
0.0917681
0.091859
0.0919786
0.0921222
0.0922798
0.0924397
0.092594
0.0927416
0.0928858
0.0930288
0.0931708
0.093303
0.0934126
0.0934911
0.0935326
0.0935323
0.09349
0.0934101
0.0933019
0.0931782
0.0930543
0.0929439
0.0928566
0.0927962
0.0927604
0.0927432
0.0927376
0.0917221
0.0917258
0.0917366
0.0917589
0.0917985
0.0918614
0.0919524
0.0920729
0.092219
0.0923813
0.0925479
0.0927085
0.0928584
0.0929969
0.0931251
0.0932462
0.0933642
0.0934871
0.0936143
0.0937361
0.0938396
0.0939141
0.0939529
0.0939546
0.0939225
0.0938646
0.0937927
0.0937204
0.093659
0.093615
0.0935893
0.0935788
0.0917949
0.0917984
0.0918084
0.0918287
0.0918647
0.091922
0.0920055
0.0921173
0.092255
0.0924105
0.0925716
0.0927254
0.0928624
0.0929767
0.093066
0.0931338
0.0931945
0.09328
0.0934035
0.0935554
0.0937171
0.0938702
0.0940004
0.0940993
0.0941634
0.0941942
0.0941973
0.0941815
0.094157
0.0941332
0.0941162
0.0941081
0.0918394
0.0918427
0.0918516
0.0918694
0.0919005
0.0919499
0.0920224
0.0921206
0.0922434
0.0923844
0.0925323
0.0926734
0.0927947
0.0928866
0.0929436
0.0929677
0.0929781
0.0930203
0.0931203
0.0932753
0.0934668
0.0936702
0.0938624
0.0940263
0.094153
0.0942407
0.0942933
0.094318
0.094324
0.0943202
0.094314
0.0943101
0.0918621
0.0918651
0.0918731
0.0918886
0.0919151
0.091957
0.0920184
0.0921023
0.0922086
0.0923326
0.0924646
0.0925918
0.0927004
0.0927789
0.0928201
0.0928251
0.0928138
0.0928334
0.0929129
0.0930571
0.0932555
0.0934866
0.0937235
0.0939405
0.0941196
0.0942531
0.0943418
0.0943927
0.0944161
0.0944226
0.0944216
0.0944194
0.0918712
0.091874
0.091881
0.0918944
0.091917
0.0919523
0.0920039
0.0920746
0.0921648
0.0922714
0.0923867
0.0924996
0.0925974
0.0926688
0.0927066
0.0927115
0.0927032
0.0927227
0.0927948
0.0929279
0.0931185
0.0933534
0.0936094
0.0938592
0.0940785
0.0942519
0.0943748
0.0944514
0.0944913
0.0945068
0.0945094
0.0945081
0.0918746
0.0918769
0.0918827
0.0918939
0.0919127
0.0919422
0.0919852
0.0920441
0.0921198
0.0922099
0.0923088
0.0924076
0.0924961
0.0925648
0.0926078
0.0926267
0.0926387
0.0926747
0.0927528
0.0928815
0.093062
0.0932877
0.0935427
0.093804
0.0940461
0.0942484
0.0943999
0.0945002
0.0945566
0.0945815
0.0945881
0.0945877
0.0918825
0.0918838
0.0918875
0.0918953
0.0919095
0.0919327
0.0919676
0.0920161
0.092079
0.0921546
0.0922392
0.0923264
0.0924089
0.09248
0.0925359
0.0925792
0.0926226
0.0926843
0.0927754
0.0929042
0.093075
0.0932861
0.0935278
0.0937832
0.0940308
0.0942488
0.0944211
0.0945416
0.0946139
0.0946486
0.0946595
0.0946601
0.0919083
0.0919078
0.0919077
0.0919101
0.0919176
0.0919331
0.0919593
0.0919982
0.0920506
0.0921155
0.0921906
0.092272
0.0923551
0.0924357
0.0925115
0.0925857
0.0926644
0.0927531
0.0928576
0.0929863
0.0931457
0.0933384
0.0935599
0.0937983
0.0940372
0.0942576
0.0944416
0.0945776
0.0946641
0.0947086
0.0947243
0.0947261
0.0919671
0.0919637
0.0919581
0.0919527
0.091951
0.091957
0.0919743
0.0920052
0.092051
0.0921113
0.0921848
0.0922691
0.0923611
0.0924576
0.0925573
0.0926625
0.0927726
0.0928829
0.0929961
0.0931212
0.0932663
0.0934368
0.0936327
0.093847
0.0940676
0.0942791
0.0944647
0.0946102
0.0947083
0.0947621
0.094783
0.0947862
0.0920728
0.0920656
0.0920529
0.0920385
0.0920272
0.0920243
0.0920347
0.0920619
0.0921074
0.0921711
0.0922515
0.0923464
0.0924526
0.0925672
0.0926884
0.0928175
0.0929487
0.0930707
0.0931852
0.0933019
0.0934297
0.0935755
0.0937421
0.0939269
0.0941222
0.0943162
0.0944945
0.094642
0.0947479
0.0948099
0.0948359
0.0948408
0.0922354
0.0922237
0.0922043
0.0921828
0.0921657
0.0921594
0.0921694
0.0921999
0.0922523
0.0923257
0.0924177
0.0925252
0.0926444
0.0927721
0.092906
0.0930465
0.093185
0.0933076
0.0934157
0.0935196
0.0936281
0.0937481
0.0938842
0.0940367
0.0942017
0.0943714
0.0945342
0.0946763
0.0947846
0.0948525
0.0948835
0.0948902
0.0924604
0.0924445
0.0924213
0.0923997
0.0923864
0.0923868
0.0924056
0.0924464
0.0925095
0.0925932
0.0926943
0.0928089
0.0929329
0.093063
0.0931969
0.0933346
0.0934667
0.0935799
0.0936756
0.0937636
0.0938518
0.0939469
0.0940533
0.0941733
0.0943056
0.094446
0.0945868
0.0947161
0.0948207
0.094891
0.0949259
0.0949346
0.0927511
0.0927326
0.0927129
0.0927024
0.0927051
0.0927225
0.0927566
0.0928095
0.0928807
0.0929683
0.0930693
0.0931801
0.093297
0.0934171
0.0935383
0.0936608
0.0937759
0.0938723
0.0939516
0.0940221
0.0940906
0.0941624
0.0942418
0.0943313
0.0944313
0.0945404
0.0946541
0.0947641
0.0948588
0.0949268
0.0949636
0.0949742
0.0931115
0.0930947
0.0930894
0.0931016
0.093128
0.0931652
0.0932129
0.0932719
0.0933422
0.093423
0.0935124
0.0936077
0.0937062
0.0938057
0.0939047
0.0940032
0.0940946
0.0941699
0.0942307
0.0942835
0.0943335
0.0943848
0.0944406
0.0945032
0.0945737
0.094652
0.0947365
0.0948224
0.0949009
0.0949615
0.0949972
0.095009
0.093551
0.0935444
0.0935636
0.0936001
0.0936443
0.0936918
0.0937419
0.0937956
0.093854
0.0939176
0.0939856
0.0940567
0.0941291
0.0942014
0.0942727
0.0943428
0.0944072
0.0944599
0.0945019
0.0945377
0.094571
0.0946045
0.0946405
0.0946805
0.0947256
0.0947763
0.0948323
0.0948916
0.0949491
0.094997
0.0950277
0.0950393
0.0940878
0.0941006
0.0941381
0.0941801
0.0942215
0.094261
0.0942986
0.0943355
0.0943732
0.0944126
0.0944539
0.0944964
0.0945394
0.0945821
0.0946239
0.0946648
0.0947021
0.0947324
0.0947565
0.0947768
0.0947955
0.0948139
0.0948335
0.0948551
0.0948794
0.0949068
0.0949375
0.0949708
0.0950047
0.0950349
0.0950563
0.0950654
0.0947444
0.0947545
0.0947739
0.0947924
0.0948092
0.0948245
0.0948384
0.0948514
0.0948643
0.0948774
0.094891
0.0949049
0.094919
0.0949328
0.0949464
0.0949596
0.0949716
0.0949813
0.094989
0.0949955
0.0950014
0.0950072
0.0950133
0.09502
0.0950275
0.095036
0.0950454
0.0950558
0.0950666
0.0950767
0.0950844
0.0950882
)
;

boundaryField
{
    movingWall
    {
        type            fixedValue;
        value           uniform 0.0951;
    }
    fixedWalls
    {
        type            zeroGradient;
    }
    floor
    {
        type            zeroGradient;
    }
    frontAndBack
    {
        type            empty;
    }
}


// ************************************************************************* //
