/*--------------------------------*- C++ -*----------------------------------*\
| =========                 |                                                 |
| \\      /  F ield         | OpenFOAM: The Open Source CFD Toolbox           |
|  \\    /   O peration     | Version:  2212                                  |
|   \\  /    A nd           | Website:  www.openfoam.com                      |
|    \\/     M anipulation  |                                                 |
\*---------------------------------------------------------------------------*/
FoamFile
{
    version     2.0;
    format      ascii;
    arch        "LSB;label=64;scalar=64";
    class       volScalarField;
    location    "1560";
    object      Xch;
}
// * * * * * * * * * * * * * * * * * * * * * * * * * * * * * * * * * * * * * //

dimensions      [1 -3 0 0 0 0 0];

internalField   nonuniform List<scalar> 
1024
(
0.0198986
0.0198988
0.0198995
0.0199007
0.0199026
0.0199054
0.0199091
0.0199139
0.0199196
0.0199258
0.0199323
0.0199385
0.0199443
0.0199499
0.0199555
0.0199612
0.0199652
0.0199653
0.0199611
0.0199535
0.0199435
0.0199321
0.0199205
0.0199095
0.0199
0.0198923
0.0198865
0.0198823
0.0198795
0.0198777
0.0198768
0.0198764
0.0198987
0.019899
0.0198996
0.0199008
0.0199028
0.0199056
0.0199094
0.0199143
0.01992
0.0199263
0.0199327
0.0199389
0.0199448
0.0199503
0.019956
0.0199617
0.0199658
0.0199658
0.0199617
0.0199541
0.0199441
0.0199327
0.019921
0.0199099
0.0199004
0.0198926
0.0198867
0.0198824
0.0198796
0.0198778
0.0198769
0.0198765
0.019899
0.0198993
0.0198999
0.0199012
0.0199032
0.0199061
0.01991
0.019915
0.0199209
0.0199273
0.0199339
0.0199401
0.0199459
0.0199515
0.0199571
0.0199629
0.0199672
0.0199673
0.0199631
0.0199554
0.0199454
0.0199339
0.019922
0.0199109
0.0199011
0.0198932
0.0198871
0.0198828
0.0198799
0.0198781
0.0198771
0.0198767
0.0198995
0.0198998
0.0199005
0.0199018
0.0199039
0.0199069
0.0199111
0.0199163
0.0199225
0.0199292
0.0199359
0.0199423
0.0199481
0.0199537
0.0199594
0.0199654
0.0199698
0.0199699
0.0199655
0.0199577
0.0199474
0.0199357
0.0199237
0.0199123
0.0199023
0.0198941
0.0198879
0.0198834
0.0198804
0.0198785
0.0198775
0.0198771
0.0199004
0.0199007
0.0199014
0.0199028
0.019905
0.0199082
0.0199127
0.0199183
0.0199249
0.0199321
0.0199393
0.0199459
0.0199517
0.0199573
0.0199631
0.0199694
0.0199741
0.0199741
0.0199693
0.019961
0.0199502
0.0199382
0.0199259
0.0199142
0.0199039
0.0198954
0.0198889
0.0198842
0.0198811
0.0198792
0.0198781
0.0198777
0.0199017
0.019902
0.0199028
0.0199042
0.0199066
0.0199101
0.0199149
0.0199211
0.0199285
0.0199364
0.0199443
0.0199513
0.0199573
0.019963
0.019969
0.0199757
0.0199807
0.0199804
0.0199748
0.0199655
0.0199539
0.0199413
0.0199285
0.0199164
0.0199057
0.0198969
0.0198902
0.0198853
0.019882
0.01988
0.019879
0.0198785
0.0199036
0.0199039
0.0199047
0.0199063
0.0199088
0.0199127
0.0199181
0.0199251
0.0199334
0.0199425
0.0199514
0.0199591
0.0199655
0.0199713
0.0199778
0.0199851
0.0199903
0.0199893
0.0199824
0.0199714
0.0199585
0.0199449
0.0199314
0.0199187
0.0199077
0.0198986
0.0198916
0.0198866
0.0198833
0.0198812
0.0198801
0.0198797
0.0199064
0.0199067
0.0199075
0.0199092
0.019912
0.0199163
0.0199224
0.0199305
0.0199401
0.0199507
0.0199609
0.0199696
0.0199767
0.0199831
0.0199902
0.0199982
0.0200036
0.0200015
0.0199924
0.019979
0.019964
0.0199489
0.0199343
0.019921
0.0199096
0.0199002
0.0198931
0.0198881
0.0198848
0.0198828
0.0198818
0.0198813
0.0199103
0.0199106
0.0199115
0.0199133
0.0199164
0.0199213
0.0199283
0.0199376
0.019949
0.0199614
0.0199733
0.0199834
0.0199916
0.0199989
0.0200071
0.020016
0.0200213
0.0200175
0.0200054
0.0199888
0.0199708
0.0199534
0.0199374
0.0199233
0.0199115
0.019902
0.019895
0.0198901
0.0198869
0.0198851
0.0198842
0.0198838
0.0199158
0.0199161
0.0199171
0.0199191
0.0199226
0.0199281
0.0199362
0.0199471
0.0199604
0.0199749
0.0199889
0.0200009
0.0200107
0.0200197
0.0200293
0.0200393
0.0200442
0.0200381
0.0200226
0.0200019
0.0199801
0.0199597
0.0199417
0.0199264
0.0199141
0.0199047
0.0198979
0.0198934
0.0198906
0.019889
0.0198883
0.0198881
0.0199235
0.0199239
0.019925
0.0199272
0.0199312
0.0199375
0.0199469
0.0199595
0.019975
0.019992
0.0200084
0.0200226
0.0200346
0.0200458
0.0200575
0.0200686
0.0200732
0.0200653
0.0200467
0.020022
0.0199958
0.0199714
0.0199504
0.0199334
0.0199203
0.0199107
0.0199042
0.0199002
0.019898
0.019897
0.0198967
0.0198966
0.019934
0.0199344
0.0199357
0.0199382
0.0199428
0.0199502
0.0199611
0.0199757
0.0199936
0.0200131
0.0200321
0.0200489
0.0200637
0.0200777
0.0200919
0.0201047
0.02011
0.0201025
0.0200834
0.0200568
0.0200271
0.0199983
0.019973
0.0199527
0.0199375
0.0199269
0.0199203
0.0199167
0.0199151
0.0199147
0.0199149
0.0199151
0.0199475
0.019948
0.0199495
0.0199525
0.0199579
0.0199666
0.0199793
0.0199963
0.0200167
0.0200387
0.0200602
0.0200798
0.0200977
0.020115
0.0201322
0.0201477
0.0201564
0.0201536
0.0201394
0.0201164
0.0200877
0.0200571
0.020028
0.0200029
0.0199832
0.0199693
0.0199605
0.0199559
0.019954
0.0199538
0.0199542
0.0199546
0.0199636
0.0199642
0.0199659
0.0199694
0.0199756
0.0199856
0.02
0.0200189
0.0200415
0.020066
0.0200901
0.0201127
0.0201339
0.0201545
0.0201751
0.0201945
0.0202094
0.0202159
0.0202131
0.0202016
0.0201828
0.0201586
0.0201318
0.0201052
0.0200812
0.0200617
0.0200474
0.0200383
0.0200334
0.0200314
0.0200309
0.020031
0.0199809
0.0199815
0.0199833
0.0199871
0.0199939
0.0200046
0.0200201
0.0200404
0.0200646
0.020091
0.0201176
0.0201428
0.0201667
0.0201897
0.0202121
0.020234
0.0202538
0.0202695
0.0202802
0.0202851
0.0202836
0.0202757
0.0202621
0.0202441
0.0202238
0.0202037
0.0201857
0.0201716
0.0201618
0.0201561
0.0201533
0.0201524
0.0199974
0.019998
0.0199999
0.0200036
0.0200104
0.0200211
0.0200365
0.020057
0.0200817
0.020109
0.0201368
0.0201633
0.0201878
0.0202101
0.0202305
0.0202492
0.0202666
0.0202842
0.0203021
0.0203192
0.0203335
0.0203436
0.0203485
0.020348
0.0203425
0.0203331
0.0203217
0.0203103
0.0203006
0.0202937
0.0202897
0.020288
0.0200105
0.0200111
0.0200128
0.0200162
0.0200223
0.020032
0.0200463
0.0200653
0.0200887
0.0201151
0.0201422
0.020168
0.0201908
0.0202096
0.0202241
0.0202347
0.0202433
0.0202549
0.0202718
0.0202928
0.0203153
0.0203367
0.0203549
0.0203688
0.0203778
0.0203822
0.0203826
0.0203803
0.0203767
0.0203732
0.0203707
0.0203696
0.0200188
0.0200194
0.0200208
0.0200238
0.0200291
0.0200375
0.0200499
0.0200667
0.0200877
0.0201118
0.020137
0.020161
0.0201816
0.0201972
0.020207
0.020211
0.0202121
0.0202174
0.0202308
0.0202522
0.0202788
0.0203072
0.020334
0.0203568
0.0203745
0.0203869
0.0203944
0.0203981
0.0203992
0.0203988
0.0203981
0.0203976
0.0200234
0.0200239
0.0200252
0.0200278
0.0200322
0.0200394
0.0200499
0.0200643
0.0200826
0.0201039
0.0201267
0.0201486
0.0201674
0.0201812
0.0201887
0.02019
0.020188
0.02019
0.0202006
0.0202206
0.0202483
0.0202806
0.0203138
0.0203441
0.020369
0.0203876
0.0204001
0.0204073
0.0204108
0.0204119
0.0204119
0.0204117
0.0200255
0.020026
0.0200271
0.0200294
0.0200332
0.0200392
0.020048
0.0200602
0.0200758
0.0200942
0.0201143
0.020134
0.0201512
0.0201639
0.020171
0.0201725
0.0201711
0.0201733
0.020183
0.0202014
0.0202282
0.0202612
0.0202971
0.020332
0.0203626
0.0203868
0.0204039
0.0204146
0.0204203
0.0204226
0.0204231
0.020423
0.0200266
0.0200269
0.0200279
0.0200298
0.0200329
0.020038
0.0200453
0.0200555
0.0200686
0.0200843
0.0201016
0.020119
0.0201347
0.020147
0.0201549
0.0201586
0.0201604
0.0201652
0.0201759
0.020194
0.0202194
0.0202513
0.0202872
0.0203238
0.0203576
0.0203858
0.0204068
0.0204208
0.0204287
0.0204323
0.0204333
0.0204333
0.0200281
0.0200283
0.020029
0.0200303
0.0200327
0.0200367
0.0200427
0.0200511
0.0200621
0.0200753
0.0200901
0.0201055
0.02012
0.0201326
0.0201424
0.0201497
0.0201564
0.0201652
0.020178
0.0201963
0.0202205
0.0202504
0.0202846
0.0203204
0.020355
0.0203854
0.0204093
0.020426
0.0204361
0.020441
0.0204426
0.0204427
0.0200322
0.0200322
0.0200322
0.0200327
0.0200341
0.0200369
0.0200415
0.0200483
0.0200574
0.0200687
0.0200818
0.0200959
0.0201102
0.020124
0.0201367
0.0201486
0.0201606
0.0201736
0.0201886
0.0202071
0.0202298
0.0202572
0.0202886
0.0203221
0.0203556
0.0203862
0.0204118
0.0204306
0.0204426
0.0204488
0.020451
0.0204513
0.0200411
0.0200406
0.0200399
0.0200392
0.0200392
0.0200405
0.0200436
0.0200491
0.020057
0.0200673
0.0200798
0.020094
0.0201093
0.0201252
0.0201413
0.0201578
0.0201745
0.0201908
0.0202073
0.0202254
0.0202462
0.0202705
0.0202983
0.0203285
0.0203594
0.0203889
0.0204147
0.0204347
0.0204483
0.0204558
0.0204587
0.0204592
0.0200569
0.0200558
0.020054
0.020052
0.0200506
0.0200505
0.0200525
0.0200572
0.0200649
0.0200754
0.0200886
0.020104
0.0201211
0.0201394
0.0201585
0.0201785
0.0201983
0.0202165
0.0202333
0.0202502
0.0202687
0.0202895
0.0203132
0.0203393
0.0203667
0.0203938
0.0204185
0.0204389
0.0204534
0.020462
0.0204656
0.0204664
0.0200809
0.0200792
0.0200764
0.0200734
0.020071
0.0200704
0.0200723
0.0200774
0.0200858
0.0200975
0.0201121
0.0201291
0.0201478
0.0201678
0.0201885
0.0202101
0.020231
0.0202492
0.0202652
0.0202804
0.0202961
0.0203133
0.0203327
0.0203543
0.0203775
0.0204011
0.0204237
0.0204434
0.0204582
0.0204676
0.0204719
0.0204728
0.0201141
0.0201118
0.0201084
0.0201053
0.0201036
0.0201038
0.0201069
0.0201134
0.0201232
0.0201363
0.0201519
0.0201696
0.0201888
0.0202089
0.0202294
0.0202504
0.0202703
0.0202872
0.0203014
0.0203143
0.0203271
0.0203408
0.020356
0.020373
0.0203916
0.0204112
0.0204308
0.0204486
0.020463
0.0204726
0.0204774
0.0204786
0.0201569
0.0201542
0.0201513
0.0201498
0.0201503
0.0201531
0.0201583
0.0201664
0.0201773
0.0201907
0.0202061
0.0202231
0.0202409
0.0202593
0.0202778
0.0202964
0.0203137
0.0203281
0.0203399
0.0203503
0.0203602
0.0203706
0.020382
0.0203947
0.0204088
0.020424
0.0204398
0.020455
0.020468
0.0204773
0.0204823
0.0204838
0.0202097
0.0202073
0.0202065
0.0202083
0.0202123
0.0202179
0.020225
0.0202339
0.0202445
0.0202568
0.0202703
0.0202847
0.0202997
0.0203148
0.0203299
0.0203448
0.0203586
0.0203698
0.0203789
0.0203867
0.020394
0.0204014
0.0204094
0.0204183
0.0204282
0.0204392
0.020451
0.0204628
0.0204736
0.0204819
0.0204867
0.0204883
0.020274
0.0202731
0.0202759
0.0202813
0.0202878
0.0202948
0.0203023
0.0203103
0.020319
0.0203286
0.0203388
0.0203496
0.0203605
0.0203715
0.0203823
0.0203929
0.0204026
0.0204105
0.0204167
0.020422
0.0204269
0.0204318
0.0204369
0.0204426
0.020449
0.0204561
0.0204639
0.0204721
0.02048
0.0204865
0.0204907
0.0204922
0.0203524
0.0203543
0.0203598
0.0203659
0.020372
0.0203778
0.0203834
0.0203889
0.0203945
0.0204004
0.0204066
0.020413
0.0204195
0.020426
0.0204323
0.0204385
0.0204441
0.0204487
0.0204523
0.0204553
0.020458
0.0204607
0.0204635
0.0204666
0.02047
0.0204739
0.0204781
0.0204827
0.0204874
0.0204915
0.0204944
0.0204956
0.0204482
0.0204497
0.0204525
0.0204552
0.0204577
0.0204599
0.020462
0.0204639
0.0204658
0.0204678
0.0204698
0.0204719
0.020474
0.0204761
0.0204782
0.0204802
0.020482
0.0204835
0.0204846
0.0204856
0.0204864
0.0204873
0.0204882
0.0204891
0.0204902
0.0204914
0.0204927
0.0204941
0.0204956
0.020497
0.020498
0.0204985
)
;

boundaryField
{
    movingWall
    {
        type            fixedValue;
        value           uniform 0.0205;
    }
    fixedWalls
    {
        type            zeroGradient;
    }
    floor
    {
        type            zeroGradient;
    }
    frontAndBack
    {
        type            empty;
    }
}


// ************************************************************************* //
