/*--------------------------------*- C++ -*----------------------------------*\
| =========                 |                                                 |
| \\      /  F ield         | OpenFOAM: The Open Source CFD Toolbox           |
|  \\    /   O peration     | Version:  2212                                  |
|   \\  /    A nd           | Website:  www.openfoam.com                      |
|    \\/     M anipulation  |                                                 |
\*---------------------------------------------------------------------------*/
FoamFile
{
    version     2.0;
    format      ascii;
    arch        "LSB;label=64;scalar=64";
    class       volScalarField::Internal;
    location    "90";
    object      dGco2;
}
// * * * * * * * * * * * * * * * * * * * * * * * * * * * * * * * * * * * * * //

dimensions      [1 -3 -1 0 0 0 0];

value           nonuniform List<scalar> 
1024
(
0.000204648
0.000204658
0.00020468
0.00020472
0.000204786
0.00020489
0.000205056
0.000205337
0.000205855
0.000206846
0.000208528
0.000210668
0.000212399
0.000213084
0.000213068
0.000212937
0.00021278
0.000212647
0.000212446
0.000212204
0.000211945
0.000211679
0.000211407
0.000211119
0.000210805
0.000210463
0.000210112
0.000209786
0.000209519
0.000209329
0.000209217
0.00020917
0.00020465
0.00020466
0.000204683
0.000204726
0.000204796
0.000204906
0.00020508
0.000205376
0.000205922
0.000206966
0.000208711
0.000210861
0.000212512
0.000213103
0.000213053
0.000212921
0.000212767
0.000212647
0.00021245
0.00021221
0.000211955
0.000211695
0.000211429
0.000211149
0.000210842
0.000210506
0.000210155
0.000209823
0.000209547
0.000209349
0.000209231
0.000209181
0.000204653
0.000204664
0.000204689
0.000204737
0.000204816
0.00020494
0.000205135
0.000205465
0.000206071
0.000207206
0.00020904
0.000211173
0.000212674
0.000213117
0.000213018
0.000212888
0.000212739
0.000212641
0.000212444
0.000212203
0.000211954
0.000211704
0.000211451
0.000211187
0.000210898
0.000210576
0.00021023
0.000209892
0.000209602
0.000209388
0.00020926
0.000209205
0.000204657
0.000204669
0.000204699
0.000204754
0.000204847
0.000204993
0.000205225
0.000205613
0.000206305
0.000207549
0.000209452
0.000211516
0.00021282
0.000213102
0.000212962
0.000212835
0.000212694
0.000212627
0.000212419
0.000212166
0.000211916
0.000211677
0.000211444
0.000211204
0.000210941
0.000210644
0.000210312
0.000209974
0.00020967
0.00020944
0.0002093
0.00020924
0.000204663
0.000204676
0.000204711
0.000204776
0.000204888
0.000205066
0.00020535
0.000205815
0.000206609
0.00020795
0.000209871
0.000211807
0.000212899
0.000213043
0.000212879
0.000212758
0.00021264
0.000212613
0.000212369
0.000212081
0.000211819
0.000211588
0.000211376
0.000211167
0.000210939
0.000210676
0.000210369
0.00021004
0.000209733
0.000209492
0.000209343
0.00020928
0.000204669
0.000204685
0.000204725
0.000204803
0.000204937
0.000205156
0.000205502
0.000206052
0.000206945
0.00020835
0.000210227
0.000211989
0.000212882
0.000212929
0.000212763
0.000212656
0.000212593
0.000212615
0.000212297
0.000211935
0.00021164
0.000211411
0.000211223
0.00021105
0.000210864
0.000210643
0.000210372
0.000210066
0.000209768
0.000209529
0.000209378
0.000209314
0.000204675
0.000204694
0.00020474
0.000204831
0.000204991
0.000205251
0.000205659
0.000206289
0.000207256
0.000208678
0.000210455
0.000212024
0.000212753
0.000212752
0.000212607
0.00021253
0.000212583
0.00021266
0.000212215
0.000211724
0.000211366
0.00021113
0.000210967
0.000210835
0.000210699
0.000210528
0.000210303
0.000210033
0.000209761
0.000209537
0.000209393
0.000209331
0.00020468
0.000204701
0.000204754
0.000204857
0.000205038
0.000205332
0.000205789
0.000206474
0.000207478
0.000208869
0.00021051
0.000211892
0.000212507
0.000212506
0.000212411
0.000212393
0.000212641
0.00021278
0.000212137
0.000211447
0.00021099
0.000210736
0.000210599
0.000210516
0.000210437
0.000210326
0.000210156
0.000209936
0.000209704
0.000209509
0.00020938
0.000209323
0.000204679
0.000204702
0.000204759
0.000204871
0.000205063
0.000205373
0.00020585
0.000206552
0.000207547
0.000208865
0.000210358
0.000211587
0.000212146
0.000212199
0.000212183
0.000212262
0.000212802
0.000213
0.000212082
0.000211106
0.00021051
0.00021023
0.000210125
0.000210098
0.000210085
0.00021004
0.000209936
0.000209778
0.000209598
0.000209439
0.000209331
0.000209279
0.000204667
0.000204691
0.000204749
0.000204858
0.000205044
0.000205344
0.000205802
0.000206473
0.00020741
0.000208627
0.000209984
0.000211112
0.000211683
0.000211844
0.000211934
0.000212153
0.000213085
0.000213343
0.000212072
0.00021072
0.00020994
0.00020963
0.000209561
0.000209597
0.000209657
0.000209686
0.000209655
0.000209566
0.000209444
0.000209327
0.000209239
0.000209192
0.000204634
0.000204657
0.000204709
0.000204804
0.000204964
0.00020522
0.000205616
0.000206204
0.000207035
0.000208131
0.000209384
0.000210483
0.000211141
0.000211463
0.000211667
0.000212077
0.0002135
0.00021384
0.000212172
0.00021035
0.000209326
0.000208973
0.000208941
0.000209042
0.000209175
0.000209279
0.000209324
0.000209304
0.00020924
0.000209161
0.000209092
0.00020905
0.000204572
0.000204592
0.000204635
0.000204707
0.000204821
0.000205003
0.000205293
0.000205746
0.000206423
0.000207378
0.000208569
0.000209725
0.000210552
0.000211076
0.000211371
0.000212024
0.000214036
0.000214552
0.000212534
0.000210171
0.000208798
0.000208339
0.000208322
0.000208476
0.000208676
0.000208855
0.000208974
0.000209019
0.000209003
0.000208952
0.000208892
0.000208851
0.000204469
0.000204482
0.00020451
0.000204555
0.000204622
0.000204728
0.000204901
0.000205193
0.000205677
0.00020646
0.000207607
0.000208891
0.000209959
0.000210698
0.000211018
0.000211953
0.000214644
0.000215569
0.000213423
0.000210512
0.000208631
0.000207905
0.000207816
0.00020798
0.000208211
0.000208421
0.00020857
0.000208647
0.000208658
0.000208625
0.000208574
0.000208535
0.000204454
0.000204448
0.000204443
0.000204446
0.000204465
0.000204511
0.0002046
0.000204768
0.000205082
0.000205677
0.000206728
0.000208117
0.000209438
0.000210331
0.000210557
0.000211756
0.000215163
0.000216949
0.00021524
0.000211946
0.00020934
0.000208017
0.00020762
0.000207701
0.000207942
0.000208175
0.000208327
0.000208386
0.000208364
0.000208296
0.000208219
0.000208168
0.000204767
0.000204747
0.000204714
0.000204678
0.00020465
0.00020464
0.00020466
0.000204733
0.00020491
0.000205324
0.000206204
0.000207589
0.000209072
0.00020995
0.000209922
0.000211213
0.000215172
0.000218426
0.000218301
0.000215429
0.000212132
0.000209679
0.000208219
0.000207523
0.000207308
0.000207297
0.000207347
0.000207385
0.000207399
0.000207401
0.000207402
0.000207402
0.000205207
0.000205191
0.000205161
0.000205121
0.000205074
0.000205029
0.000204994
0.000204991
0.000205068
0.000205361
0.000206096
0.000207398
0.000208859
0.000209503
0.000209121
0.000210038
0.000213792
0.000218631
0.000221674
0.000221513
0.000219282
0.000216516
0.000213994
0.000211995
0.000210564
0.00020962
0.000209089
0.000208886
0.000208916
0.000209071
0.000209237
0.000209332
0.000205514
0.000205506
0.000205486
0.000205454
0.000205408
0.000205353
0.000205299
0.000205274
0.000205325
0.000205565
0.000206195
0.000207352
0.000208671
0.000209158
0.000208592
0.000208595
0.000210583
0.000214918
0.000220397
0.000224768
0.000226957
0.000227385
0.000226785
0.000225693
0.000224446
0.000223248
0.000222206
0.000221398
0.000220843
0.000220514
0.000220348
0.000220286
0.000205765
0.000205758
0.000205741
0.000205708
0.000205657
0.000205591
0.000205526
0.000205492
0.00020554
0.000205761
0.000206311
0.000207313
0.000208525
0.000209163
0.000208892
0.000208485
0.000208695
0.00021034
0.000213887
0.000218672
0.000223399
0.000227216
0.000229936
0.000231671
0.000232599
0.000232895
0.000232726
0.000232272
0.000231696
0.000231146
0.000230742
0.000230543
0.000206012
0.000206006
0.000205988
0.000205949
0.000205886
0.000205802
0.000205716
0.000205663
0.000205695
0.000205891
0.000206369
0.00020723
0.000208337
0.000209129
0.000209238
0.000208963
0.000208726
0.000209294
0.000211234
0.000214442
0.000218381
0.000222445
0.000226177
0.000229322
0.000231772
0.000233509
0.000234584
0.000235101
0.000235207
0.000235079
0.000234888
0.000234762
0.000206293
0.000206289
0.00020627
0.000206221
0.000206137
0.000206022
0.000205899
0.000205811
0.000205808
0.000205963
0.000206368
0.000207101
0.000208083
0.000208927
0.000209286
0.000209217
0.0002089
0.000208986
0.000210177
0.000212598
0.00021592
0.000219719
0.000223619
0.0002273
0.000230499
0.00023304
0.000234855
0.000235981
0.000236546
0.000236725
0.000236705
0.000236646
0.000206717
0.000206716
0.000206692
0.000206621
0.00020649
0.000206307
0.000206112
0.00020596
0.000205903
0.000206001
0.000206327
0.000206936
0.000207779
0.000208583
0.000209044
0.000209122
0.00020892
0.000209011
0.000209975
0.000211979
0.000214847
0.000218289
0.000222043
0.00022586
0.000229462
0.000232574
0.000234988
0.000236628
0.000237564
0.000237967
0.000238055
0.000238028
0.000207442
0.000207444
0.000207408
0.000207289
0.000207066
0.000206755
0.00020642
0.000206149
0.000206007
0.000206032
0.000206271
0.000206757
0.000207452
0.000208158
0.00020862
0.000208786
0.000208795
0.000209155
0.000210262
0.000212218
0.000214885
0.00021806
0.000221571
0.000225263
0.000228931
0.000232309
0.000235117
0.000237168
0.000238438
0.000239056
0.000239244
0.000239244
0.000208602
0.000208606
0.000208543
0.000208347
0.000207983
0.000207476
0.000206918
0.000206445
0.000206156
0.00020608
0.000206224
0.000206587
0.000207133
0.000207714
0.000208139
0.00020841
0.000208762
0.000209588
0.000211058
0.000213168
0.00021579
0.000218781
0.000222036
0.000225482
0.000229003
0.000232395
0.000235382
0.000237706
0.000239243
0.000240052
0.000240338
0.000240364
0.00021025
0.00021025
0.00021015
0.000209862
0.000209341
0.000208611
0.000207775
0.000207003
0.000206457
0.000206203
0.000206218
0.000206455
0.000206863
0.000207344
0.000207794
0.000208321
0.00020921
0.000210638
0.000212547
0.000214862
0.000217474
0.00022029
0.000223269
0.000226399
0.00022964
0.000232866
0.000235839
0.000238285
0.000240005
0.000240975
0.000241352
0.000241405
0.000212363
0.000212354
0.000212221
0.000211873
0.000211254
0.000210365
0.000209282
0.000208166
0.000207233
0.000206655
0.000206455
0.000206545
0.000206858
0.000207346
0.000208001
0.000209019
0.000210593
0.000212624
0.000214901
0.000217342
0.00021988
0.000222477
0.000225137
0.000227892
0.000230762
0.00023369
0.0002365
0.000238929
0.000240739
0.000241828
0.000242288
0.000242368
0.000214889
0.000214869
0.000214738
0.000214421
0.000213851
0.000212979
0.000211808
0.000210436
0.000209087
0.000208044
0.000207527
0.000207451
0.000207731
0.000208369
0.000209411
0.000211044
0.000213254
0.000215709
0.000218159
0.000220566
0.000222918
0.000225223
0.000227518
0.000229857
0.000232294
0.000234831
0.000237357
0.000239649
0.000241454
0.000242613
0.000243144
0.000243254
0.000217804
0.000217777
0.000217709
0.00021756
0.000217236
0.000216614
0.000215603
0.000214212
0.000212616
0.000211141
0.00021028
0.000210035
0.000210313
0.000211149
0.000212575
0.000214682
0.000217244
0.000219817
0.000222192
0.00022439
0.000226443
0.000228392
0.000230287
0.00023219
0.000234167
0.000236257
0.000238408
0.000240457
0.000242165
0.000243335
0.000243919
0.000244059
0.000221157
0.000221131
0.0002212
0.000221344
0.000221417
0.000221222
0.000220594
0.000219468
0.000217941
0.000216301
0.00021521
0.000214815
0.000215054
0.000215974
0.000217558
0.000219782
0.0002223
0.000224671
0.000226752
0.000228602
0.000230279
0.000231833
0.000233318
0.000234789
0.00023631
0.000237933
0.000239653
0.000241371
0.00024289
0.000244005
0.000244611
0.00024478
0.000225098
0.000225093
0.000225359
0.000225836
0.000226313
0.000226561
0.000226393
0.000225709
0.000224541
0.000223088
0.000221987
0.000221494
0.000221634
0.000222449
0.000223884
0.000225845
0.000227976
0.000229908
0.000231551
0.000232976
0.000234242
0.000235397
0.000236485
0.000237551
0.000238645
0.000239817
0.000241089
0.000242415
0.000243662
0.000244646
0.00024523
0.000245419
0.000229868
0.000229938
0.000230424
0.000231134
0.000231838
0.000232348
0.000232519
0.000232257
0.000231557
0.000230526
0.00022963
0.000229149
0.000229179
0.000229757
0.000230821
0.000232267
0.000233811
0.000235183
0.00023633
0.000237311
0.000238171
0.000238948
0.000239672
0.000240374
0.00024109
0.000241855
0.000242696
0.000243606
0.000244514
0.000245286
0.00024579
0.000245978
0.000235777
0.000236001
0.00023658
0.00023724
0.000237855
0.000238333
0.000238592
0.000238573
0.000238259
0.000237692
0.000237135
0.000236794
0.000236766
0.000237081
0.000237698
0.000238543
0.000239441
0.000240234
0.000240891
0.000241449
0.000241935
0.000242371
0.000242774
0.000243163
0.000243555
0.000243972
0.000244432
0.000244942
0.000245474
0.000245963
0.000246315
0.000246466
0.000243118
0.000243254
0.000243519
0.000243788
0.000244031
0.000244225
0.000244343
0.000244366
0.000244287
0.000244114
0.000243929
0.000243808
0.000243789
0.000243884
0.00024408
0.000244352
0.00024464
0.000244894
0.000245104
0.000245282
0.000245436
0.000245574
0.000245702
0.000245823
0.000245946
0.000246075
0.000246217
0.000246375
0.000246545
0.000246708
0.000246836
0.000246898
)
;


// ************************************************************************* //
