/*--------------------------------*- C++ -*----------------------------------*\
| =========                 |                                                 |
| \\      /  F ield         | OpenFOAM: The Open Source CFD Toolbox           |
|  \\    /   O peration     | Version:  2212                                  |
|   \\  /    A nd           | Website:  www.openfoam.com                      |
|    \\/     M anipulation  |                                                 |
\*---------------------------------------------------------------------------*/
FoamFile
{
    version     2.0;
    format      ascii;
    arch        "LSB;label=64;scalar=64";
    class       volScalarField;
    location    "90";
    object      Gch4;
}
// * * * * * * * * * * * * * * * * * * * * * * * * * * * * * * * * * * * * * //

dimensions      [1 -3 0 0 0 0 0];

internalField   nonuniform List<scalar> 
1024
(
1.76481
1.76479
1.76472
1.76461
1.76443
1.76413
1.76367
1.76288
1.76141
1.75864
1.75408
1.74852
1.74422
1.74265
1.74276
1.7431
1.7435
1.74382
1.74433
1.74496
1.74562
1.74631
1.74701
1.74776
1.74857
1.74946
1.75038
1.75122
1.75192
1.75241
1.7527
1.75283
1.76481
1.76478
1.76472
1.7646
1.7644
1.76409
1.7636
1.76277
1.76122
1.7583
1.75359
1.74802
1.74395
1.74261
1.7428
1.74315
1.74354
1.74383
1.74433
1.74494
1.7456
1.74627
1.74696
1.74768
1.74848
1.74935
1.75026
1.75113
1.75185
1.75236
1.75267
1.7528
1.7648
1.76477
1.7647
1.76456
1.76434
1.764
1.76344
1.76251
1.7608
1.75764
1.75271
1.74722
1.74356
1.7426
1.7429
1.74324
1.74361
1.74384
1.74434
1.74496
1.7456
1.74625
1.7469
1.74758
1.74833
1.74917
1.75007
1.75095
1.7517
1.75226
1.75259
1.75274
1.76479
1.76475
1.76467
1.76451
1.76425
1.76384
1.76319
1.7621
1.76015
1.7567
1.75162
1.74635
1.74323
1.74267
1.74306
1.74338
1.74372
1.74387
1.7444
1.74505
1.7457
1.74632
1.74692
1.74754
1.74822
1.74899
1.74985
1.75074
1.75153
1.75212
1.75249
1.75264
1.76477
1.76473
1.76463
1.76445
1.76414
1.76363
1.76284
1.76153
1.75931
1.75562
1.75052
1.74563
1.74306
1.74284
1.74329
1.74359
1.74386
1.7439
1.74453
1.74528
1.74596
1.74655
1.7471
1.74764
1.74823
1.74891
1.74971
1.75056
1.75136
1.75199
1.75238
1.75254
1.76475
1.76471
1.76459
1.76437
1.76399
1.76338
1.76241
1.76087
1.75839
1.75456
1.74961
1.7452
1.74315
1.74316
1.7436
1.74386
1.74397
1.74389
1.74471
1.74565
1.74642
1.74701
1.7475
1.74795
1.74842
1.749
1.7497
1.7505
1.75127
1.75189
1.75229
1.75245
1.76473
1.76468
1.76454
1.76429
1.76384
1.76311
1.76197
1.76021
1.75755
1.7537
1.74905
1.74515
1.74351
1.74363
1.74402
1.74419
1.74397
1.74375
1.74492
1.7462
1.74713
1.74775
1.74817
1.74851
1.74886
1.7493
1.74988
1.75058
1.75129
1.75187
1.75225
1.75241
1.76471
1.76465
1.7645
1.76421
1.7637
1.76287
1.7616
1.7597
1.75695
1.75321
1.74894
1.74553
1.74416
1.74427
1.74453
1.74454
1.74377
1.74341
1.74511
1.74693
1.74812
1.74878
1.74913
1.74934
1.74954
1.74983
1.75026
1.75083
1.75144
1.75195
1.75228
1.75243
1.76471
1.76464
1.76448
1.76416
1.76362
1.76275
1.76142
1.75948
1.75677
1.75324
1.74937
1.74635
1.74511
1.74507
1.74512
1.74485
1.74331
1.74282
1.74526
1.74782
1.74938
1.7501
1.75037
1.75043
1.75046
1.75057
1.75084
1.75125
1.75171
1.75213
1.75241
1.75254
1.76473
1.76467
1.7645
1.76419
1.76366
1.76281
1.76153
1.75968
1.75713
1.75389
1.75038
1.7476
1.7463
1.74598
1.74576
1.74509
1.74251
1.74191
1.7453
1.74885
1.75088
1.75168
1.75185
1.75174
1.75158
1.7515
1.75157
1.7518
1.75212
1.75242
1.75265
1.75277
1.76482
1.76475
1.7646
1.76433
1.76387
1.76314
1.76203
1.76039
1.75813
1.75521
1.75197
1.74925
1.7477
1.74696
1.74645
1.74523
1.74137
1.74059
1.74505
1.74984
1.7525
1.7534
1.75347
1.7532
1.75284
1.75256
1.75244
1.75248
1.75265
1.75285
1.75303
1.75314
1.76498
1.76492
1.7648
1.76459
1.76426
1.76373
1.7629
1.76163
1.75977
1.75721
1.75412
1.75123
1.74922
1.74796
1.7472
1.7453
1.7399
1.73872
1.74413
1.75033
1.75389
1.75506
1.75509
1.75468
1.75414
1.75367
1.75335
1.75323
1.75327
1.7534
1.75355
1.75366
1.76526
1.76522
1.76514
1.76501
1.76481
1.76449
1.76399
1.76316
1.76181
1.7597
1.75669
1.75342
1.75077
1.74895
1.7481
1.74541
1.73825
1.73602
1.7418
1.74945
1.75434
1.7562
1.75641
1.75597
1.75536
1.7548
1.7544
1.7542
1.75417
1.75425
1.75439
1.75449
1.76535
1.76536
1.76536
1.76534
1.76528
1.76514
1.76488
1.7644
1.76352
1.7619
1.7591
1.7555
1.75215
1.74992
1.74929
1.74585
1.73682
1.73234
1.73701
1.7457
1.75248
1.75591
1.75692
1.7567
1.75606
1.75544
1.75504
1.75489
1.75494
1.75512
1.75532
1.75545
1.76458
1.76463
1.76472
1.76481
1.76487
1.76489
1.76483
1.76461
1.76412
1.76298
1.76061
1.75697
1.75315
1.75094
1.75093
1.74724
1.73673
1.72835
1.7289
1.73653
1.74516
1.75155
1.75535
1.75716
1.75772
1.75774
1.75761
1.75751
1.75747
1.75747
1.75747
1.75747
1.76342
1.76346
1.76354
1.76365
1.76377
1.76389
1.76398
1.76398
1.76376
1.76297
1.76101
1.75757
1.75377
1.75213
1.75303
1.75035
1.74033
1.72766
1.71987
1.72045
1.72636
1.73362
1.74022
1.74545
1.74919
1.75167
1.75306
1.7536
1.75353
1.75313
1.7527
1.75245
1.76258
1.7626
1.76266
1.76274
1.76286
1.76301
1.76315
1.76322
1.76309
1.76247
1.76081
1.75776
1.75431
1.75305
1.75446
1.75428
1.74889
1.7374
1.72305
1.71171
1.70607
1.705
1.70659
1.70946
1.71273
1.71588
1.71862
1.72075
1.72221
1.72309
1.72353
1.7237
1.76191
1.76192
1.76197
1.76206
1.76219
1.76236
1.76254
1.76264
1.76253
1.76197
1.76053
1.7579
1.75472
1.75305
1.75372
1.7547
1.75406
1.74967
1.74031
1.72775
1.7154
1.70543
1.69832
1.69378
1.69134
1.69057
1.69101
1.6922
1.69371
1.69515
1.69621
1.69674
1.76125
1.76126
1.76131
1.76141
1.76158
1.7618
1.76203
1.76218
1.76211
1.76162
1.76038
1.75813
1.75522
1.75314
1.75282
1.75349
1.75406
1.75252
1.74742
1.73902
1.7287
1.71807
1.70829
1.70005
1.69362
1.68905
1.68622
1.68486
1.68456
1.68489
1.68539
1.68572
1.76049
1.7605
1.76055
1.76067
1.7609
1.76121
1.76153
1.76178
1.7618
1.76141
1.76037
1.75846
1.75587
1.75365
1.7527
1.75284
1.75364
1.75338
1.75026
1.74393
1.73523
1.72528
1.71506
1.70541
1.69701
1.69034
1.68557
1.6826
1.68111
1.68063
1.68067
1.68083
1.75933
1.75933
1.75939
1.75958
1.75993
1.76043
1.76096
1.76137
1.76154
1.76129
1.76046
1.75887
1.75665
1.75454
1.75332
1.75309
1.7536
1.75336
1.75085
1.74561
1.73811
1.72909
1.71924
1.70923
1.69977
1.6916
1.68525
1.68094
1.67847
1.6774
1.67716
1.67723
1.75735
1.75734
1.75744
1.75776
1.75836
1.75921
1.76012
1.76086
1.76125
1.7612
1.76058
1.75931
1.75749
1.75563
1.75441
1.75397
1.75395
1.75302
1.75014
1.74504
1.73806
1.72973
1.72052
1.71083
1.7012
1.69232
1.68494
1.67955
1.6762
1.67457
1.67407
1.67407
1.75422
1.75421
1.75437
1.7549
1.75589
1.75727
1.75878
1.76007
1.76085
1.76106
1.76069
1.75974
1.75831
1.75678
1.75566
1.75496
1.75405
1.75191
1.74809
1.74259
1.73572
1.72787
1.71932
1.71027
1.70102
1.69211
1.68426
1.67816
1.67411
1.67198
1.67122
1.67115
1.74981
1.74981
1.75008
1.75086
1.75227
1.75425
1.75651
1.75859
1.76006
1.76074
1.76071
1.76008
1.75901
1.75774
1.75657
1.7552
1.75291
1.7492
1.74422
1.73817
1.73133
1.72393
1.7161
1.70787
1.69936
1.69088
1.68307
1.67665
1.67213
1.66957
1.66858
1.66844
1.74421
1.74423
1.74459
1.74554
1.74722
1.74963
1.75254
1.75554
1.75803
1.75957
1.7601
1.75986
1.75903
1.75776
1.75605
1.7534
1.74931
1.74402
1.73808
1.73169
1.72503
1.7182
1.7112
1.70396
1.69641
1.68872
1.68134
1.67496
1.67021
1.66735
1.66614
1.66592
1.73755
1.73761
1.73797
1.73883
1.74039
1.74276
1.74592
1.74959
1.75319
1.75595
1.75733
1.75753
1.75679
1.75512
1.75239
1.74813
1.74236
1.73595
1.72954
1.72323
1.71706
1.711
1.70496
1.6988
1.69239
1.68572
1.67909
1.67308
1.66834
1.6653
1.6639
1.66361
1.72992
1.72999
1.73018
1.7306
1.73151
1.73323
1.73597
1.7397
1.74395
1.74787
1.75016
1.75081
1.75008
1.74788
1.74413
1.73861
1.73191
1.72518
1.71896
1.7132
1.7078
1.70268
1.69769
1.69268
1.68747
1.68198
1.67634
1.67096
1.66648
1.66341
1.66188
1.66151
1.72116
1.72122
1.72105
1.7207
1.72057
1.72115
1.72288
1.72592
1.73
1.73436
1.73727
1.73832
1.73769
1.73526
1.7311
1.72526
1.71865
1.71244
1.70699
1.70214
1.69773
1.69364
1.68973
1.68586
1.68185
1.67759
1.67307
1.66857
1.66458
1.66166
1.66007
1.65963
1.71089
1.7109
1.71021
1.70898
1.70777
1.70717
1.70768
1.70955
1.71269
1.71656
1.7195
1.72081
1.72045
1.71829
1.71451
1.70936
1.70376
1.6987
1.69439
1.69065
1.68732
1.68428
1.68142
1.67861
1.67573
1.67265
1.66931
1.66583
1.66257
1.65999
1.65846
1.65796
1.69846
1.69828
1.69701
1.69516
1.69335
1.69205
1.69165
1.69239
1.69429
1.69704
1.69944
1.70072
1.70065
1.69912
1.69631
1.6925
1.68845
1.68485
1.68184
1.67927
1.67701
1.67496
1.67306
1.67121
1.66932
1.66731
1.6651
1.66272
1.66034
1.65832
1.657
1.6565
1.68307
1.68249
1.68097
1.67926
1.67766
1.67643
1.67578
1.67587
1.67672
1.67824
1.67973
1.68065
1.68072
1.67989
1.67826
1.67603
1.67368
1.6716
1.66987
1.66841
1.66713
1.66598
1.66492
1.6639
1.66286
1.66177
1.66056
1.65922
1.65783
1.65655
1.65563
1.65523
1.66395
1.6636
1.6629
1.6622
1.66157
1.66107
1.66077
1.66072
1.66094
1.66141
1.6619
1.66222
1.66228
1.66202
1.66151
1.66079
1.66003
1.65937
1.65882
1.65835
1.65794
1.65758
1.65724
1.65692
1.6566
1.65626
1.65589
1.65547
1.65503
1.6546
1.65427
1.6541
)
;

boundaryField
{
    movingWall
    {
        type            fixedValue;
        value           uniform 1.6535;
    }
    fixedWalls
    {
        type            zeroGradient;
    }
    floor
    {
        type            zeroGradient;
    }
    frontAndBack
    {
        type            empty;
    }
}


// ************************************************************************* //
