/*--------------------------------*- C++ -*----------------------------------*\
| =========                 |                                                 |
| \\      /  F ield         | OpenFOAM: The Open Source CFD Toolbox           |
|  \\    /   O peration     | Version:  2212                                  |
|   \\  /    A nd           | Website:  www.openfoam.com                      |
|    \\/     M anipulation  |                                                 |
\*---------------------------------------------------------------------------*/
FoamFile
{
    version     2.0;
    format      ascii;
    arch        "LSB;label=64;scalar=64";
    class       volScalarField;
    location    "90";
    object      Gco2;
}
// * * * * * * * * * * * * * * * * * * * * * * * * * * * * * * * * * * * * * //

dimensions      [1 -3 0 0 0 0 0];

internalField   nonuniform List<scalar> 
1024
(
0.0322092
0.0322046
0.0321943
0.0321753
0.0321443
0.0320955
0.0320177
0.0318848
0.031639
0.0311758
0.0304134
0.0294817
0.0287629
0.0284988
0.0285165
0.0285734
0.0286401
0.0286936
0.0287793
0.0288838
0.0289957
0.0291106
0.0292287
0.0293536
0.0294905
0.0296395
0.0297926
0.0299348
0.0300513
0.030134
0.0301828
0.0302034
0.0322082
0.0322036
0.0321927
0.0321726
0.0321397
0.0320882
0.0320062
0.0318664
0.0316073
0.0311198
0.0303305
0.0293984
0.0287171
0.0284927
0.0285238
0.0285804
0.0286453
0.0286937
0.0287778
0.0288811
0.0289914
0.0291039
0.0292193
0.0293409
0.0294743
0.0296208
0.0297738
0.0299184
0.0300389
0.0301254
0.0301768
0.0301985
0.0322067
0.0322017
0.0321896
0.0321671
0.0321302
0.0320722
0.0319802
0.0318241
0.0315374
0.0310086
0.0301834
0.0292646
0.0286521
0.0284904
0.0285397
0.0285953
0.0286574
0.0286961
0.0287801
0.0288836
0.0289918
0.0291002
0.0292098
0.0293245
0.0294502
0.0295904
0.029741
0.0298884
0.0300151
0.0301083
0.0301643
0.030188
0.0322046
0.032199
0.032185
0.0321589
0.0321155
0.0320468
0.0319376
0.0317547
0.0314284
0.0308522
0.0300011
0.0291198
0.0285958
0.0285009
0.0285658
0.0286193
0.0286761
0.0287012
0.0287904
0.0288996
0.029008
0.0291116
0.0292131
0.0293174
0.0294313
0.0295607
0.0297052
0.0298529
0.0299853
0.0300855
0.0301468
0.0301727
0.0322018
0.0321954
0.0321791
0.0321481
0.0320958
0.0320119
0.0318785
0.0316601
0.0312882
0.030671
0.0298177
0.0289989
0.0285684
0.0285302
0.0286037
0.0286538
0.0286982
0.0287058
0.0288111
0.0289365
0.0290506
0.0291506
0.0292425
0.0293336
0.0294323
0.0295468
0.0296804
0.0298239
0.0299579
0.0300627
0.0301279
0.0301555
0.0321985
0.032191
0.0321719
0.0321351
0.0320718
0.0319691
0.031807
0.0315494
0.0311346
0.030493
0.0296654
0.0289267
0.0285817
0.0285825
0.028656
0.028699
0.0287154
0.0287023
0.0288409
0.0289993
0.0291283
0.0292278
0.0293094
0.0293848
0.0294652
0.0295612
0.0296792
0.0298126
0.0299424
0.0300467
0.0301126
0.0301407
0.0321949
0.0321863
0.0321641
0.0321208
0.0320456
0.0319234
0.0317326
0.0314395
0.0309934
0.030349
0.0295707
0.0289183
0.0286419
0.0286614
0.0287252
0.028753
0.0287151
0.0286789
0.0288753
0.0290908
0.0292475
0.0293507
0.0294216
0.0294787
0.0295375
0.0296115
0.0297094
0.0298268
0.0299455
0.0300432
0.0301058
0.030133
0.0321919
0.032182
0.0321568
0.0321076
0.0320221
0.0318839
0.0316711
0.0313537
0.0308936
0.0302676
0.0295529
0.0289815
0.0287516
0.0287686
0.0288109
0.0288103
0.0286823
0.0286224
0.0289079
0.0292118
0.029412
0.0295231
0.0295824
0.0296181
0.0296517
0.0297
0.0297735
0.0298691
0.0299702
0.0300556
0.0301116
0.0301367
0.0321912
0.0321803
0.0321529
0.0321001
0.0320091
0.0318631
0.031641
0.0313167
0.030863
0.0302726
0.0296251
0.0291189
0.0289094
0.0289019
0.0289095
0.0288624
0.0286037
0.028522
0.0289321
0.0293615
0.0296225
0.0297445
0.0297901
0.029801
0.0298057
0.0298246
0.0298694
0.0299383
0.0300168
0.0300858
0.0301331
0.0301557
0.0321958
0.0321844
0.0321568
0.0321046
0.0320158
0.0318744
0.0316603
0.0313504
0.0309239
0.0303807
0.0297937
0.0293284
0.02911
0.0290547
0.0290165
0.0289018
0.02847
0.0283689
0.0289379
0.0295333
0.029874
0.0300083
0.0300372
0.0300202
0.0299932
0.0299796
0.0299923
0.030031
0.0300838
0.030135
0.0301733
0.0301936
0.03221
0.032199
0.0321738
0.0321279
0.0320512
0.031929
0.0317426
0.0314698
0.0310908
0.0306019
0.03006
0.0296041
0.029344
0.0292186
0.0291305
0.0289247
0.028278
0.0281487
0.0288972
0.0296992
0.0301453
0.0302973
0.0303093
0.0302637
0.0302043
0.0301574
0.0301373
0.0301454
0.0301731
0.0302075
0.0302377
0.030256
0.0322374
0.0322275
0.0322068
0.032172
0.0321164
0.0320279
0.0318889
0.0316764
0.0313654
0.0309374
0.0304201
0.0299358
0.0295991
0.0293859
0.0292565
0.0289355
0.0280321
0.0278337
0.0287417
0.0297817
0.0303789
0.030576
0.030581
0.0305118
0.0304225
0.030343
0.0302905
0.0302701
0.0302767
0.0302991
0.0303251
0.0303431
0.032284
0.0322773
0.0322634
0.0322413
0.0322077
0.0321556
0.0320714
0.0319326
0.0317073
0.0313528
0.0308496
0.030303
0.0298571
0.029551
0.0294074
0.0289535
0.0277546
0.0273818
0.0283517
0.0296347
0.0304537
0.0307671
0.0308027
0.0307288
0.0306262
0.0305332
0.0304671
0.0304331
0.0304278
0.0304422
0.0304646
0.0304816
0.0322981
0.0323
0.0323009
0.0322976
0.0322866
0.0322634
0.0322198
0.0321398
0.0319931
0.0317208
0.031253
0.0306501
0.0300881
0.0297136
0.0296055
0.0290281
0.0275145
0.0267634
0.0275481
0.0290044
0.0301426
0.0307176
0.030888
0.0308506
0.0307439
0.0306412
0.0305736
0.0305478
0.0305568
0.0305867
0.0306206
0.0306427
0.0321699
0.0321787
0.0321929
0.032208
0.0322193
0.0322222
0.032211
0.0321753
0.0320923
0.031902
0.0315063
0.0308965
0.0302563
0.0298846
0.0298801
0.0292601
0.0274989
0.0260933
0.0261863
0.0274667
0.0289145
0.0299871
0.0306244
0.0309279
0.0310218
0.0310257
0.0310036
0.0309868
0.0309807
0.0309799
0.0309799
0.0309799
0.0319757
0.0319829
0.0319965
0.0320147
0.0320352
0.0320548
0.0320692
0.0320693
0.032033
0.0319008
0.0315726
0.0309974
0.0303601
0.0300844
0.0302324
0.0297826
0.0281018
0.0259774
0.0246701
0.0247687
0.0257603
0.0269774
0.0280849
0.0289629
0.0295915
0.0300069
0.0302406
0.0303309
0.0303185
0.0302512
0.030179
0.0301375
0.0318358
0.0318397
0.0318485
0.031863
0.0318833
0.0319078
0.0319316
0.0319433
0.0319214
0.0318173
0.0315397
0.0310289
0.03045
0.0302384
0.0304739
0.0304427
0.0295372
0.0276101
0.025203
0.0232995
0.0223537
0.0221738
0.0224411
0.022923
0.0234724
0.0240008
0.0244607
0.0248182
0.0250643
0.0252113
0.0252855
0.0253135
0.0317235
0.0317263
0.0317339
0.0317483
0.0317708
0.0317997
0.0318288
0.0318451
0.0318268
0.0317328
0.0314932
0.0310522
0.0305186
0.0302387
0.0303511
0.030516
0.0304077
0.0296685
0.0280969
0.0259901
0.0239162
0.0222427
0.0210496
0.0202873
0.0198789
0.0197486
0.0198228
0.0200231
0.0202774
0.0205201
0.0206988
0.020787
0.0316133
0.0316156
0.0316235
0.0316403
0.0316681
0.0317051
0.0317435
0.0317681
0.0317569
0.0316745
0.0314676
0.0310899
0.0306027
0.0302544
0.0302024
0.0303147
0.0304084
0.0301499
0.0292925
0.0278809
0.0261492
0.0243632
0.0227219
0.0213372
0.0202576
0.0194908
0.0190155
0.0187863
0.0187381
0.0187938
0.0188774
0.0189325
0.0314857
0.0314873
0.0314958
0.031517
0.0315545
0.0316061
0.0316611
0.0317015
0.031705
0.0316402
0.0314655
0.0311452
0.0307129
0.0303414
0.0301812
0.0302065
0.0303391
0.0302958
0.0297703
0.0287054
0.0272446
0.0255737
0.0238574
0.0222362
0.0208259
0.0197046
0.0189032
0.0184048
0.0181543
0.0180744
0.0180825
0.0181084
0.0312913
0.0312915
0.031302
0.0313337
0.031393
0.0314758
0.0315644
0.0316339
0.0316611
0.0316205
0.0314801
0.0312142
0.0308435
0.0304895
0.0302849
0.0302481
0.0303334
0.030292
0.0298692
0.0289892
0.0277283
0.0262131
0.0245598
0.0228778
0.021289
0.0199154
0.0188491
0.0181238
0.0177093
0.01753
0.0174908
0.0175025
0.0309595
0.0309579
0.0309741
0.0310277
0.0311294
0.0312714
0.0314244
0.031548
0.0316137
0.0316045
0.0315013
0.031289
0.0309834
0.0306725
0.0304678
0.0303947
0.0303912
0.0302347
0.0297505
0.0288927
0.0277198
0.0263211
0.0247735
0.0231457
0.0215275
0.0200364
0.0187959
0.017889
0.017327
0.0170531
0.016969
0.0169687
0.0304333
0.030431
0.0304592
0.0305484
0.0307143
0.0309454
0.0311997
0.0314151
0.0315468
0.0315821
0.03152
0.0313605
0.0311203
0.0308643
0.0306769
0.0305598
0.0304086
0.0300493
0.029407
0.0284811
0.0273269
0.0260085
0.0245723
0.0230517
0.021498
0.0200002
0.018681
0.0176541
0.0169743
0.0166156
0.0164885
0.0164766
0.029693
0.0296926
0.0297379
0.0298689
0.030106
0.0304383
0.0308179
0.0311671
0.0314136
0.0315278
0.0315221
0.0314176
0.0312373
0.0310258
0.0308289
0.0306008
0.0302151
0.0295923
0.0287566
0.0277396
0.0265892
0.0253461
0.0240306
0.0226483
0.0212171
0.0197932
0.0184803
0.0173999
0.0166396
0.0162104
0.016043
0.0160193
0.0287517
0.0287557
0.0288158
0.0289746
0.0292567
0.0296612
0.0301516
0.0306545
0.0310727
0.0313311
0.03142
0.0313799
0.0312418
0.0310276
0.0307411
0.0302972
0.0296101
0.0287218
0.027723
0.0266493
0.0255304
0.0243832
0.0232074
0.0219894
0.0207219
0.0194291
0.0181888
0.0171161
0.0163167
0.0158352
0.0156314
0.0155956
0.0276334
0.0276424
0.0277023
0.0278479
0.0281095
0.0285077
0.0290382
0.0296555
0.0302591
0.0307239
0.0309543
0.0309883
0.0308647
0.0305838
0.0301262
0.02941
0.0284414
0.0273648
0.0262885
0.0252285
0.0241908
0.0231718
0.0221568
0.0211222
0.0200451
0.0189249
0.0178101
0.0167986
0.0160016
0.0154896
0.0152548
0.0152062
0.0263496
0.0263617
0.0263934
0.0264647
0.0266177
0.0269053
0.0273657
0.0279927
0.028707
0.0293648
0.0297502
0.0298591
0.0297364
0.0293672
0.0287384
0.0278111
0.0266851
0.0255545
0.0245098
0.0235412
0.0226346
0.0217729
0.0209343
0.0200922
0.0192181
0.0182955
0.017346
0.016442
0.0156883
0.0151716
0.0149141
0.0148521
0.0248775
0.0248886
0.0248596
0.024801
0.0247776
0.0248754
0.025166
0.0256764
0.0263614
0.0270941
0.0275836
0.0277599
0.0276544
0.027247
0.0265467
0.0255655
0.0244564
0.0234131
0.0224972
0.0216814
0.020941
0.0202535
0.0195963
0.0189451
0.0182725
0.0175558
0.0167964
0.0160385
0.0153682
0.0148764
0.0146091
0.0145345
0.0231505
0.0231521
0.0230363
0.0228295
0.0226257
0.0225261
0.0226114
0.0229253
0.0234522
0.024102
0.0245972
0.0248179
0.0247562
0.0243943
0.0237587
0.0228924
0.0219527
0.0211021
0.0203783
0.0197497
0.0191906
0.0186798
0.018198
0.0177262
0.0172421
0.0167244
0.0161633
0.015578
0.0150281
0.0145943
0.0143366
0.0142532
0.0210615
0.0210302
0.0208174
0.0205069
0.0202016
0.0199833
0.019916
0.0200405
0.0203587
0.0208211
0.0212242
0.0214403
0.0214274
0.0211706
0.0206986
0.0200591
0.0193782
0.0187737
0.0182682
0.0178356
0.0174555
0.017112
0.0167912
0.0164803
0.0161638
0.0158258
0.0154545
0.015053
0.0146528
0.0143122
0.0140899
0.0140071
0.0184734
0.018375
0.0181209
0.0178321
0.0175637
0.0173567
0.0172473
0.0172614
0.0174057
0.0176605
0.0179111
0.0180647
0.0180776
0.0179375
0.0176637
0.0172897
0.0168934
0.0165441
0.0162544
0.0160082
0.0157935
0.0156008
0.015422
0.0152502
0.0150768
0.0148925
0.0146893
0.0144644
0.0142295
0.0140143
0.0138592
0.0137924
0.0152578
0.0151983
0.0150818
0.0149641
0.0148577
0.0147735
0.0147229
0.0147146
0.0147516
0.0148295
0.0149125
0.0149672
0.014976
0.0149335
0.0148463
0.0147263
0.014599
0.014487
0.0143944
0.014316
0.0142478
0.0141868
0.0141304
0.0140765
0.0140224
0.0139654
0.0139026
0.0138327
0.0137579
0.0136861
0.0136297
0.0136021
)
;

boundaryField
{
    movingWall
    {
        type            fixedValue;
        value           uniform 0.0135;
    }
    fixedWalls
    {
        type            zeroGradient;
    }
    floor
    {
        type            zeroGradient;
    }
    frontAndBack
    {
        type            empty;
    }
}


// ************************************************************************* //
