/*--------------------------------*- C++ -*----------------------------------*\
| =========                 |                                                 |
| \\      /  F ield         | OpenFOAM: The Open Source CFD Toolbox           |
|  \\    /   O peration     | Version:  2212                                  |
|   \\  /    A nd           | Website:  www.openfoam.com                      |
|    \\/     M anipulation  |                                                 |
\*---------------------------------------------------------------------------*/
FoamFile
{
    version     2.0;
    format      ascii;
    arch        "LSB;label=64;scalar=64";
    class       volScalarField;
    location    "90";
    object      Gh2;
}
// * * * * * * * * * * * * * * * * * * * * * * * * * * * * * * * * * * * * * //

dimensions      [1 -3 0 0 0 0 0];

internalField   nonuniform List<scalar> 
1024
(
1.15793e-05
1.15791e-05
1.15788e-05
1.15782e-05
1.15773e-05
1.15758e-05
1.15734e-05
1.15693e-05
1.15618e-05
1.15477e-05
1.15245e-05
1.14962e-05
1.14745e-05
1.14667e-05
1.14674e-05
1.14693e-05
1.14715e-05
1.14731e-05
1.14756e-05
1.14787e-05
1.1482e-05
1.14854e-05
1.1489e-05
1.14927e-05
1.14968e-05
1.15012e-05
1.15058e-05
1.15101e-05
1.15136e-05
1.15161e-05
1.15175e-05
1.15181e-05
1.15792e-05
1.15791e-05
1.15788e-05
1.15781e-05
1.15771e-05
1.15756e-05
1.15731e-05
1.15688e-05
1.15609e-05
1.1546e-05
1.1522e-05
1.14937e-05
1.14731e-05
1.14665e-05
1.14677e-05
1.14696e-05
1.14717e-05
1.14731e-05
1.14756e-05
1.14787e-05
1.14819e-05
1.14853e-05
1.14887e-05
1.14923e-05
1.14963e-05
1.15007e-05
1.15052e-05
1.15096e-05
1.15132e-05
1.15158e-05
1.15173e-05
1.1518e-05
1.15792e-05
1.1579e-05
1.15787e-05
1.1578e-05
1.15768e-05
1.15751e-05
1.15723e-05
1.15675e-05
1.15588e-05
1.15426e-05
1.15176e-05
1.14897e-05
1.14712e-05
1.14665e-05
1.14682e-05
1.14701e-05
1.14721e-05
1.14732e-05
1.14757e-05
1.14788e-05
1.1482e-05
1.14852e-05
1.14884e-05
1.14918e-05
1.14956e-05
1.14998e-05
1.15043e-05
1.15087e-05
1.15125e-05
1.15153e-05
1.1517e-05
1.15177e-05
1.15791e-05
1.1579e-05
1.15785e-05
1.15777e-05
1.15764e-05
1.15743e-05
1.1571e-05
1.15654e-05
1.15554e-05
1.15379e-05
1.1512e-05
1.14853e-05
1.14695e-05
1.14669e-05
1.14691e-05
1.14709e-05
1.14728e-05
1.14735e-05
1.14761e-05
1.14793e-05
1.14825e-05
1.14856e-05
1.14886e-05
1.14916e-05
1.1495e-05
1.14989e-05
1.15032e-05
1.15076e-05
1.15116e-05
1.15146e-05
1.15165e-05
1.15172e-05
1.1579e-05
1.15788e-05
1.15783e-05
1.15774e-05
1.15758e-05
1.15732e-05
1.15692e-05
1.15625e-05
1.15512e-05
1.15324e-05
1.15065e-05
1.14817e-05
1.14688e-05
1.14679e-05
1.14703e-05
1.14721e-05
1.14736e-05
1.14737e-05
1.14768e-05
1.14805e-05
1.14839e-05
1.14868e-05
1.14895e-05
1.14922e-05
1.14951e-05
1.14985e-05
1.15025e-05
1.15068e-05
1.15108e-05
1.15139e-05
1.15159e-05
1.15167e-05
1.15789e-05
1.15787e-05
1.15781e-05
1.1577e-05
1.15751e-05
1.15719e-05
1.1567e-05
1.15591e-05
1.15465e-05
1.1527e-05
1.15018e-05
1.14795e-05
1.14692e-05
1.14695e-05
1.14721e-05
1.14736e-05
1.14743e-05
1.14738e-05
1.14778e-05
1.14825e-05
1.14863e-05
1.14892e-05
1.14916e-05
1.14938e-05
1.14961e-05
1.1499e-05
1.15025e-05
1.15064e-05
1.15103e-05
1.15135e-05
1.15154e-05
1.15163e-05
1.15788e-05
1.15786e-05
1.15779e-05
1.15766e-05
1.15743e-05
1.15705e-05
1.15647e-05
1.15558e-05
1.15422e-05
1.15226e-05
1.1499e-05
1.14793e-05
1.14711e-05
1.1472e-05
1.14743e-05
1.14754e-05
1.14744e-05
1.14732e-05
1.1479e-05
1.14854e-05
1.149e-05
1.1493e-05
1.1495e-05
1.14966e-05
1.14983e-05
1.15005e-05
1.15034e-05
1.15069e-05
1.15104e-05
1.15134e-05
1.15152e-05
1.15161e-05
1.15788e-05
1.15784e-05
1.15777e-05
1.15762e-05
1.15736e-05
1.15693e-05
1.15628e-05
1.15532e-05
1.15391e-05
1.15201e-05
1.14984e-05
1.14812e-05
1.14745e-05
1.14753e-05
1.1477e-05
1.14773e-05
1.14736e-05
1.14716e-05
1.14801e-05
1.14891e-05
1.1495e-05
1.14982e-05
1.14999e-05
1.15009e-05
1.15018e-05
1.15032e-05
1.15054e-05
1.15082e-05
1.15112e-05
1.15137e-05
1.15154e-05
1.15162e-05
1.15787e-05
1.15784e-05
1.15776e-05
1.15759e-05
1.15732e-05
1.15687e-05
1.15619e-05
1.1552e-05
1.15382e-05
1.15203e-05
1.15006e-05
1.14854e-05
1.14793e-05
1.14794e-05
1.14801e-05
1.1479e-05
1.14713e-05
1.14687e-05
1.14809e-05
1.14937e-05
1.15014e-05
1.15049e-05
1.15062e-05
1.15064e-05
1.15065e-05
1.1507e-05
1.15083e-05
1.15103e-05
1.15126e-05
1.15147e-05
1.15161e-05
1.15168e-05
1.15789e-05
1.15785e-05
1.15777e-05
1.15761e-05
1.15734e-05
1.15691e-05
1.15625e-05
1.15531e-05
1.15401e-05
1.15236e-05
1.15058e-05
1.14917e-05
1.14854e-05
1.14841e-05
1.14834e-05
1.14804e-05
1.14674e-05
1.14642e-05
1.14811e-05
1.14989e-05
1.1509e-05
1.15129e-05
1.15137e-05
1.15131e-05
1.15122e-05
1.15117e-05
1.1512e-05
1.15131e-05
1.15146e-05
1.15162e-05
1.15173e-05
1.15179e-05
1.15793e-05
1.1579e-05
1.15782e-05
1.15768e-05
1.15745e-05
1.15707e-05
1.1565e-05
1.15567e-05
1.15452e-05
1.15303e-05
1.15138e-05
1.15001e-05
1.14924e-05
1.14891e-05
1.14869e-05
1.14812e-05
1.14617e-05
1.14576e-05
1.14799e-05
1.15039e-05
1.15171e-05
1.15216e-05
1.15219e-05
1.15204e-05
1.15185e-05
1.1517e-05
1.15164e-05
1.15165e-05
1.15173e-05
1.15184e-05
1.15193e-05
1.15198e-05
1.15802e-05
1.15799e-05
1.15792e-05
1.15782e-05
1.15765e-05
1.15738e-05
1.15695e-05
1.1563e-05
1.15535e-05
1.15405e-05
1.15248e-05
1.15102e-05
1.15002e-05
1.14942e-05
1.14908e-05
1.14816e-05
1.14545e-05
1.14483e-05
1.14753e-05
1.15063e-05
1.15241e-05
1.153e-05
1.153e-05
1.15279e-05
1.15251e-05
1.15226e-05
1.1521e-05
1.15203e-05
1.15205e-05
1.15211e-05
1.15219e-05
1.15224e-05
1.15816e-05
1.15814e-05
1.1581e-05
1.15803e-05
1.15793e-05
1.15777e-05
1.15751e-05
1.15709e-05
1.1564e-05
1.15532e-05
1.15379e-05
1.15213e-05
1.1508e-05
1.14992e-05
1.14955e-05
1.14823e-05
1.14462e-05
1.14349e-05
1.14637e-05
1.1502e-05
1.15264e-05
1.15357e-05
1.15367e-05
1.15344e-05
1.15312e-05
1.15283e-05
1.15263e-05
1.15252e-05
1.1525e-05
1.15255e-05
1.15261e-05
1.15266e-05
1.1582e-05
1.15821e-05
1.15821e-05
1.1582e-05
1.15817e-05
1.1581e-05
1.15797e-05
1.15772e-05
1.15727e-05
1.15644e-05
1.15502e-05
1.15319e-05
1.1515e-05
1.15041e-05
1.15015e-05
1.14846e-05
1.14392e-05
1.14165e-05
1.14398e-05
1.14832e-05
1.15171e-05
1.15342e-05
1.15392e-05
1.1538e-05
1.15347e-05
1.15316e-05
1.15295e-05
1.15287e-05
1.15289e-05
1.15298e-05
1.15309e-05
1.15315e-05
1.15781e-05
1.15783e-05
1.15788e-05
1.15793e-05
1.15796e-05
1.15797e-05
1.15794e-05
1.15783e-05
1.15757e-05
1.15699e-05
1.15579e-05
1.15394e-05
1.15201e-05
1.15093e-05
1.15097e-05
1.14915e-05
1.14389e-05
1.13967e-05
1.13994e-05
1.14375e-05
1.14806e-05
1.15125e-05
1.15314e-05
1.15403e-05
1.1543e-05
1.15431e-05
1.15424e-05
1.15419e-05
1.15417e-05
1.15417e-05
1.15417e-05
1.15417e-05
1.15721e-05
1.15723e-05
1.15727e-05
1.15733e-05
1.15739e-05
1.15745e-05
1.1575e-05
1.1575e-05
1.15739e-05
1.15699e-05
1.15599e-05
1.15425e-05
1.15233e-05
1.15153e-05
1.15202e-05
1.15071e-05
1.1457e-05
1.13936e-05
1.13545e-05
1.13574e-05
1.13869e-05
1.14231e-05
1.1456e-05
1.1482e-05
1.15007e-05
1.1513e-05
1.15199e-05
1.15226e-05
1.15222e-05
1.15202e-05
1.15181e-05
1.15168e-05
1.15677e-05
1.15679e-05
1.15681e-05
1.15686e-05
1.15692e-05
1.157e-05
1.15707e-05
1.15711e-05
1.15704e-05
1.15673e-05
1.15589e-05
1.15434e-05
1.1526e-05
1.15198e-05
1.15271e-05
1.15264e-05
1.14997e-05
1.14425e-05
1.13709e-05
1.13142e-05
1.12861e-05
1.12807e-05
1.12886e-05
1.13029e-05
1.13192e-05
1.13348e-05
1.13484e-05
1.13589e-05
1.13662e-05
1.13705e-05
1.13726e-05
1.13735e-05
1.15643e-05
1.15644e-05
1.15646e-05
1.15651e-05
1.15658e-05
1.15667e-05
1.15676e-05
1.15681e-05
1.15675e-05
1.15647e-05
1.15575e-05
1.15441e-05
1.1528e-05
1.15196e-05
1.1523e-05
1.1528e-05
1.15251e-05
1.15035e-05
1.14571e-05
1.13947e-05
1.13332e-05
1.12836e-05
1.12483e-05
1.12257e-05
1.12136e-05
1.12097e-05
1.12118e-05
1.12176e-05
1.1225e-05
1.12321e-05
1.12373e-05
1.12398e-05
1.15609e-05
1.1561e-05
1.15612e-05
1.15617e-05
1.15626e-05
1.15637e-05
1.15649e-05
1.15657e-05
1.15654e-05
1.15629e-05
1.15567e-05
1.15452e-05
1.15305e-05
1.15199e-05
1.15183e-05
1.15216e-05
1.15246e-05
1.15173e-05
1.14923e-05
1.14507e-05
1.13995e-05
1.13467e-05
1.12983e-05
1.12575e-05
1.12257e-05
1.12031e-05
1.11891e-05
1.11822e-05
1.11806e-05
1.11821e-05
1.11845e-05
1.1186e-05
1.1557e-05
1.15571e-05
1.15574e-05
1.1558e-05
1.15592e-05
1.15607e-05
1.15624e-05
1.15637e-05
1.15638e-05
1.15619e-05
1.15566e-05
1.15469e-05
1.15338e-05
1.15225e-05
1.15176e-05
1.15182e-05
1.15222e-05
1.15212e-05
1.15061e-05
1.14749e-05
1.14319e-05
1.13826e-05
1.1332e-05
1.12843e-05
1.12428e-05
1.12099e-05
1.11864e-05
1.11717e-05
1.11642e-05
1.11618e-05
1.11619e-05
1.11626e-05
1.15513e-05
1.15513e-05
1.15516e-05
1.15525e-05
1.15543e-05
1.15568e-05
1.15595e-05
1.15616e-05
1.15625e-05
1.15613e-05
1.1557e-05
1.1549e-05
1.15377e-05
1.1527e-05
1.15207e-05
1.15195e-05
1.1522e-05
1.15209e-05
1.15087e-05
1.14831e-05
1.14461e-05
1.14015e-05
1.13528e-05
1.13033e-05
1.12567e-05
1.12164e-05
1.11852e-05
1.11639e-05
1.11517e-05
1.11464e-05
1.11451e-05
1.11454e-05
1.15415e-05
1.15414e-05
1.15419e-05
1.15435e-05
1.15465e-05
1.15508e-05
1.15553e-05
1.1559e-05
1.1561e-05
1.15608e-05
1.15577e-05
1.15512e-05
1.15419e-05
1.15325e-05
1.15262e-05
1.15239e-05
1.15238e-05
1.15192e-05
1.15052e-05
1.14801e-05
1.14458e-05
1.14047e-05
1.13592e-05
1.13114e-05
1.12639e-05
1.12202e-05
1.11839e-05
1.11574e-05
1.11409e-05
1.11329e-05
1.11303e-05
1.11303e-05
1.1526e-05
1.15259e-05
1.15268e-05
1.15294e-05
1.15343e-05
1.15411e-05
1.15487e-05
1.15551e-05
1.1559e-05
1.15601e-05
1.15582e-05
1.15534e-05
1.15461e-05
1.15383e-05
1.15326e-05
1.1529e-05
1.15245e-05
1.15139e-05
1.14951e-05
1.1468e-05
1.14342e-05
1.13956e-05
1.13534e-05
1.13087e-05
1.12631e-05
1.12193e-05
1.11807e-05
1.11508e-05
1.11309e-05
1.11204e-05
1.11167e-05
1.11163e-05
1.15043e-05
1.15042e-05
1.15056e-05
1.15094e-05
1.15164e-05
1.15262e-05
1.15374e-05
1.15478e-05
1.15551e-05
1.15585e-05
1.15583e-05
1.15551e-05
1.15496e-05
1.15432e-05
1.15373e-05
1.15304e-05
1.1519e-05
1.15006e-05
1.14761e-05
1.14463e-05
1.14126e-05
1.13762e-05
1.13376e-05
1.1297e-05
1.12551e-05
1.12134e-05
1.1175e-05
1.11435e-05
1.11214e-05
1.11089e-05
1.1104e-05
1.11032e-05
1.14766e-05
1.14768e-05
1.14785e-05
1.14832e-05
1.14915e-05
1.15034e-05
1.15179e-05
1.15327e-05
1.1545e-05
1.15527e-05
1.15553e-05
1.1554e-05
1.15499e-05
1.15434e-05
1.15349e-05
1.15217e-05
1.15014e-05
1.14753e-05
1.14459e-05
1.14144e-05
1.13817e-05
1.1348e-05
1.13136e-05
1.12778e-05
1.12407e-05
1.12029e-05
1.11667e-05
1.11355e-05
1.11122e-05
1.10982e-05
1.10923e-05
1.10912e-05
1.14439e-05
1.14441e-05
1.14459e-05
1.14502e-05
1.14579e-05
1.14696e-05
1.14852e-05
1.15034e-05
1.15211e-05
1.15348e-05
1.15416e-05
1.15426e-05
1.15388e-05
1.15305e-05
1.1517e-05
1.14958e-05
1.14673e-05
1.14357e-05
1.1404e-05
1.1373e-05
1.13425e-05
1.13127e-05
1.12829e-05
1.12526e-05
1.12211e-05
1.11883e-05
1.11558e-05
1.11264e-05
1.11032e-05
1.10884e-05
1.10816e-05
1.10801e-05
1.14063e-05
1.14067e-05
1.14076e-05
1.14097e-05
1.14142e-05
1.14227e-05
1.14363e-05
1.14547e-05
1.14756e-05
1.1495e-05
1.15063e-05
1.15095e-05
1.15058e-05
1.14949e-05
1.14764e-05
1.14491e-05
1.1416e-05
1.13828e-05
1.13521e-05
1.13237e-05
1.12972e-05
1.12719e-05
1.12474e-05
1.12227e-05
1.11971e-05
1.11701e-05
1.11425e-05
1.11162e-05
1.10943e-05
1.10794e-05
1.10719e-05
1.10701e-05
1.13633e-05
1.13636e-05
1.13628e-05
1.13611e-05
1.13605e-05
1.13634e-05
1.13719e-05
1.13869e-05
1.1407e-05
1.14285e-05
1.14429e-05
1.1448e-05
1.14449e-05
1.14329e-05
1.14124e-05
1.13836e-05
1.1351e-05
1.13204e-05
1.12935e-05
1.12695e-05
1.12478e-05
1.12277e-05
1.12084e-05
1.11894e-05
1.11697e-05
1.11488e-05
1.11266e-05
1.11046e-05
1.10852e-05
1.1071e-05
1.10633e-05
1.10611e-05
1.13129e-05
1.13129e-05
1.13096e-05
1.13036e-05
1.12976e-05
1.12948e-05
1.12973e-05
1.13065e-05
1.1322e-05
1.1341e-05
1.13556e-05
1.1362e-05
1.13602e-05
1.13496e-05
1.13309e-05
1.13055e-05
1.1278e-05
1.1253e-05
1.12318e-05
1.12133e-05
1.11969e-05
1.1182e-05
1.11679e-05
1.1154e-05
1.11399e-05
1.11248e-05
1.11084e-05
1.10914e-05
1.10755e-05
1.1063e-05
1.10555e-05
1.10531e-05
1.1252e-05
1.12511e-05
1.12449e-05
1.12358e-05
1.1227e-05
1.12206e-05
1.12187e-05
1.12224e-05
1.12317e-05
1.12453e-05
1.12571e-05
1.12634e-05
1.1263e-05
1.12555e-05
1.12417e-05
1.12229e-05
1.12029e-05
1.11852e-05
1.11704e-05
1.11577e-05
1.11465e-05
1.11365e-05
1.11271e-05
1.1118e-05
1.11087e-05
1.10989e-05
1.1088e-05
1.10764e-05
1.10648e-05
1.1055e-05
1.10486e-05
1.10462e-05
1.11766e-05
1.11738e-05
1.11664e-05
1.1158e-05
1.11501e-05
1.11441e-05
1.1141e-05
1.11414e-05
1.11456e-05
1.11531e-05
1.11604e-05
1.11649e-05
1.11653e-05
1.11612e-05
1.11532e-05
1.11422e-05
1.11306e-05
1.11204e-05
1.11119e-05
1.11046e-05
1.10983e-05
1.10927e-05
1.10875e-05
1.10824e-05
1.10774e-05
1.1072e-05
1.10661e-05
1.10595e-05
1.10527e-05
1.10465e-05
1.10421e-05
1.10402e-05
1.10831e-05
1.10814e-05
1.1078e-05
1.10745e-05
1.10714e-05
1.1069e-05
1.10675e-05
1.10673e-05
1.10684e-05
1.10707e-05
1.10731e-05
1.10747e-05
1.1075e-05
1.10737e-05
1.10712e-05
1.10676e-05
1.10639e-05
1.10606e-05
1.10579e-05
1.10556e-05
1.10536e-05
1.10518e-05
1.10502e-05
1.10486e-05
1.1047e-05
1.10453e-05
1.10435e-05
1.10415e-05
1.10393e-05
1.10372e-05
1.10356e-05
1.10348e-05
)
;

boundaryField
{
    movingWall
    {
        type            fixedValue;
        value           uniform 1.1032e-05;
    }
    fixedWalls
    {
        type            zeroGradient;
    }
    floor
    {
        type            zeroGradient;
    }
    frontAndBack
    {
        type            empty;
    }
}


// ************************************************************************* //
