/*--------------------------------*- C++ -*----------------------------------*\
| =========                 |                                                 |
| \\      /  F ield         | OpenFOAM: The Open Source CFD Toolbox           |
|  \\    /   O peration     | Version:  2212                                  |
|   \\  /    A nd           | Website:  www.openfoam.com                      |
|    \\/     M anipulation  |                                                 |
\*---------------------------------------------------------------------------*/
FoamFile
{
    version     2.0;
    format      ascii;
    arch        "LSB;label=64;scalar=64";
    class       volScalarField;
    location    "90";
    object      p;
}
// * * * * * * * * * * * * * * * * * * * * * * * * * * * * * * * * * * * * * //

dimensions      [0 2 -2 0 0 0 0];

internalField   nonuniform List<scalar> 
1024
(
0
-6.38357e-06
-5.54469e-07
2.34226e-05
5.65208e-05
7.72452e-05
5.95413e-05
2.71059e-06
-4.49373e-05
-2.44535e-05
9.36884e-05
0.000331201
0.000753392
0.00140706
0.00219709
0.00275489
0.00274407
0.00215059
0.00142144
0.00073953
0.000258137
-3.1048e-05
-0.00018476
-0.000254195
-0.00027484
-0.000270116
-0.000255467
-0.000240485
-0.000229155
-0.000219843
-0.000209001
-0.000198893
-0.0928449
-0.0928541
-0.0928541
-0.0928396
-0.0928179
-0.092808
-0.0928315
-0.0928819
-0.0929121
-0.0928739
-0.0927554
-0.0925354
-0.0921371
-0.0915074
-0.090745
-0.0902115
-0.0902414
-0.0908206
-0.091529
-0.0921922
-0.092659
-0.0929356
-0.0930784
-0.0931384
-0.0931505
-0.0931379
-0.0931156
-0.093093
-0.0930748
-0.0930605
-0.0930467
-0.0930343
-0.19956
-0.199573
-0.199582
-0.199581
-0.199575
-0.199582
-0.199615
-0.199658
-0.199664
-0.199602
-0.19949
-0.199305
-0.198951
-0.198367
-0.197651
-0.197159
-0.197223
-0.197779
-0.198454
-0.199086
-0.199524
-0.199776
-0.199897
-0.199937
-0.199931
-0.1999
-0.19986
-0.19982
-0.199787
-0.19976
-0.199738
-0.19972
-0.322231
-0.322248
-0.322266
-0.322278
-0.32229
-0.322313
-0.322356
-0.322393
-0.322376
-0.322301
-0.32221
-0.322077
-0.321784
-0.32126
-0.320603
-0.32016
-0.320264
-0.320793
-0.321433
-0.322028
-0.322429
-0.322646
-0.322735
-0.322746
-0.322711
-0.322653
-0.322585
-0.322518
-0.322459
-0.322413
-0.322376
-0.322349
-0.463241
-0.46326
-0.463284
-0.463308
-0.463333
-0.463371
-0.463421
-0.463452
-0.463427
-0.463361
-0.463314
-0.463245
-0.46302
-0.46256
-0.461961
-0.461568
-0.461709
-0.462212
-0.462821
-0.463383
-0.46375
-0.46393
-0.463982
-0.463957
-0.463889
-0.463797
-0.463695
-0.463594
-0.463504
-0.463433
-0.463379
-0.463344
-0.625318
-0.625335
-0.625361
-0.62539
-0.625425
-0.625473
-0.625527
-0.625557
-0.625543
-0.625518
-0.625532
-0.625531
-0.625369
-0.624968
-0.624422
-0.624074
-0.624245
-0.624725
-0.625311
-0.625846
-0.626189
-0.626339
-0.626357
-0.6263
-0.626199
-0.626076
-0.625942
-0.625811
-0.625693
-0.625598
-0.62553
-0.625489
-0.811585
-0.8116
-0.811622
-0.811652
-0.811693
-0.811747
-0.811803
-0.811842
-0.811861
-0.811898
-0.811984
-0.812045
-0.811933
-0.811582
-0.811084
-0.810781
-0.810972
-0.811434
-0.812
-0.812516
-0.812842
-0.812973
-0.812967
-0.812886
-0.812763
-0.81262
-0.812467
-0.812316
-0.812181
-0.812073
-0.811998
-0.811956
-1.02564
-1.02565
-1.02567
-1.0257
-1.02574
-1.0258
-1.02586
-1.02592
-1.02598
-1.02608
-1.02624
-1.02635
-1.02628
-1.02597
-1.02552
-1.02526
-1.02547
-1.02591
-1.02646
-1.02696
-1.02728
-1.0274
-1.02738
-1.02728
-1.02715
-1.027
-1.02685
-1.0267
-1.02656
-1.02645
-1.02638
-1.02634
-1.27162
-1.27164
-1.27165
-1.27168
-1.27173
-1.27179
-1.27185
-1.27193
-1.27203
-1.27219
-1.2724
-1.27255
-1.27251
-1.27223
-1.27184
-1.27163
-1.27184
-1.27228
-1.27281
-1.27329
-1.2736
-1.27371
-1.27369
-1.27359
-1.27347
-1.27333
-1.27318
-1.27304
-1.27292
-1.27282
-1.27275
-1.27273
-1.5543
-1.55431
-1.55433
-1.55436
-1.5544
-1.55446
-1.55453
-1.55462
-1.55474
-1.55493
-1.55517
-1.55535
-1.55533
-1.5551
-1.55477
-1.55461
-1.55481
-1.55525
-1.55576
-1.55623
-1.55653
-1.55664
-1.55662
-1.55652
-1.55641
-1.55629
-1.55617
-1.55605
-1.55594
-1.55585
-1.5558
-1.55578
-1.87912
-1.87913
-1.87915
-1.87918
-1.87922
-1.87928
-1.87934
-1.87942
-1.87954
-1.87972
-1.87997
-1.88017
-1.88017
-1.87998
-1.87973
-1.87963
-1.87983
-1.88025
-1.88074
-1.88119
-1.88148
-1.8816
-1.88157
-1.88149
-1.88139
-1.88129
-1.88119
-1.88109
-1.88099
-1.88091
-1.88087
-1.88086
-2.2523
-2.2523
-2.25232
-2.25235
-2.25239
-2.25245
-2.2525
-2.25257
-2.25266
-2.2528
-2.25302
-2.25323
-2.25326
-2.25312
-2.25295
-2.25291
-2.25311
-2.25351
-2.25397
-2.25438
-2.25467
-2.25479
-2.25477
-2.2547
-2.25462
-2.25453
-2.25443
-2.25432
-2.25423
-2.25416
-2.25413
-2.25413
-2.68093
-2.68093
-2.68094
-2.68097
-2.68102
-2.68107
-2.68113
-2.68119
-2.68125
-2.68134
-2.68151
-2.68171
-2.68177
-2.6817
-2.68161
-2.68163
-2.68182
-2.68217
-2.68258
-2.68296
-2.68323
-2.68335
-2.68334
-2.68327
-2.68318
-2.68308
-2.68295
-2.68283
-2.68272
-2.68266
-2.68264
-2.68264
-3.17318
-3.17317
-3.17317
-3.1732
-3.17325
-3.17332
-3.17339
-3.17345
-3.17351
-3.17357
-3.17369
-3.17388
-3.17398
-3.17399
-3.17399
-3.17406
-3.17422
-3.17448
-3.17479
-3.17507
-3.17528
-3.17538
-3.17537
-3.17529
-3.17515
-3.175
-3.17484
-3.17469
-3.17459
-3.17454
-3.17453
-3.17454
-3.73858
-3.73857
-3.73857
-3.73858
-3.73862
-3.73868
-3.73876
-3.73885
-3.73893
-3.73901
-3.73911
-3.7393
-3.73946
-3.73957
-3.73964
-3.73973
-3.73983
-3.73995
-3.74007
-3.74016
-3.74019
-3.74017
-3.74008
-3.73994
-3.73975
-3.73957
-3.73942
-3.7393
-3.73923
-3.7392
-3.73921
-3.73922
-4.38821
-4.3882
-4.38819
-4.3882
-4.38823
-4.38828
-4.38835
-4.38844
-4.38854
-4.38865
-4.38879
-4.389
-4.38924
-4.38943
-4.38957
-4.38966
-4.38966
-4.38959
-4.38947
-4.3893
-4.38907
-4.38881
-4.38851
-4.38821
-4.38796
-4.38777
-4.38766
-4.38761
-4.3876
-4.38762
-4.38763
-4.38765
-5.08296
-5.08295
-5.08295
-5.08296
-5.08299
-5.08303
-5.0831
-5.08319
-5.0833
-5.08342
-5.0836
-5.08386
-5.08421
-5.0845
-5.08467
-5.08475
-5.08466
-5.08442
-5.08412
-5.08378
-5.08341
-5.08301
-5.08262
-5.08224
-5.08193
-5.08171
-5.08159
-5.08155
-5.08155
-5.08156
-5.08157
-5.08158
-5.73275
-5.73275
-5.73275
-5.73275
-5.73278
-5.73282
-5.73289
-5.73297
-5.73308
-5.73321
-5.73342
-5.73375
-5.73421
-5.73463
-5.73488
-5.73492
-5.73475
-5.73442
-5.73403
-5.73363
-5.73324
-5.73287
-5.73252
-5.7322
-5.73193
-5.73172
-5.73157
-5.7315
-5.73147
-5.73147
-5.73148
-5.73149
-6.29836
-6.29836
-6.29836
-6.29837
-6.29839
-6.29842
-6.29847
-6.29854
-6.29863
-6.29877
-6.29897
-6.29931
-6.29981
-6.30034
-6.3007
-6.30079
-6.30061
-6.30024
-6.29981
-6.2994
-6.29903
-6.29869
-6.29838
-6.29811
-6.29788
-6.29769
-6.29755
-6.29746
-6.29741
-6.2974
-6.29741
-6.29742
-6.79071
-6.7907
-6.79071
-6.79071
-6.79073
-6.79075
-6.79078
-6.79083
-6.7909
-6.791
-6.79117
-6.79147
-6.79195
-6.79252
-6.79297
-6.79316
-6.79303
-6.79269
-6.79228
-6.79189
-6.79152
-6.7912
-6.79093
-6.79069
-6.79049
-6.79031
-6.79018
-6.79008
-6.79002
-6.79
-6.79001
-6.79002
-7.21929
-7.21929
-7.21929
-7.21929
-7.21931
-7.21932
-7.21934
-7.21936
-7.21938
-7.21943
-7.21954
-7.21977
-7.22021
-7.22079
-7.22131
-7.22159
-7.22155
-7.22127
-7.22091
-7.22053
-7.22018
-7.21987
-7.21961
-7.21939
-7.2192
-7.21904
-7.21891
-7.21881
-7.21875
-7.21872
-7.21872
-7.21873
-7.59236
-7.59236
-7.59236
-7.59237
-7.59239
-7.5924
-7.59241
-7.59239
-7.59237
-7.59234
-7.59238
-7.59254
-7.59293
-7.5935
-7.59409
-7.59446
-7.59451
-7.5943
-7.59397
-7.59361
-7.59327
-7.59297
-7.59271
-7.59248
-7.5923
-7.59214
-7.59201
-7.59191
-7.59184
-7.59181
-7.5918
-7.59181
-7.91709
-7.9171
-7.9171
-7.91712
-7.91714
-7.91716
-7.91715
-7.9171
-7.91702
-7.91694
-7.9169
-7.917
-7.91734
-7.91792
-7.91855
-7.91901
-7.91914
-7.91899
-7.9187
-7.91837
-7.91803
-7.91772
-7.91744
-7.9172
-7.917
-7.91683
-7.9167
-7.91659
-7.91652
-7.91648
-7.91647
-7.91647
-8.19976
-8.19976
-8.19978
-8.1998
-8.19983
-8.19984
-8.19982
-8.19974
-8.19961
-8.19947
-8.19937
-8.19942
-8.19973
-8.20031
-8.20099
-8.20153
-8.20174
-8.20164
-8.20138
-8.20107
-8.20074
-8.20041
-8.20012
-8.19985
-8.19961
-8.19941
-8.19925
-8.19913
-8.19904
-8.199
-8.19898
-8.19899
-8.44581
-8.44582
-8.44584
-8.44587
-8.4459
-8.44591
-8.44587
-8.44576
-8.44559
-8.4454
-8.44526
-8.44527
-8.44556
-8.44615
-8.44688
-8.44748
-8.44775
-8.4477
-8.44748
-8.44718
-8.44685
-8.44652
-8.44619
-8.44589
-8.44561
-8.44537
-8.44517
-8.44501
-8.4449
-8.44483
-8.44481
-8.44481
-8.66001
-8.66003
-8.66006
-8.66009
-8.66011
-8.66011
-8.66006
-8.65992
-8.65971
-8.65949
-8.65931
-8.6593
-8.65959
-8.66019
-8.66095
-8.66161
-8.66193
-8.66193
-8.66173
-8.66145
-8.66112
-8.66077
-8.66043
-8.66009
-8.65977
-8.65947
-8.65921
-8.659
-8.65884
-8.65873
-8.65869
-8.65868
-8.84653
-8.84656
-8.84659
-8.84662
-8.84663
-8.84661
-8.84653
-8.84636
-8.84612
-8.84587
-8.84567
-8.84564
-8.84593
-8.84655
-8.84734
-8.84804
-8.84841
-8.84844
-8.84827
-8.84799
-8.84767
-8.84731
-8.84695
-8.84658
-8.84622
-8.84586
-8.84554
-8.84525
-8.84501
-8.84484
-8.84474
-8.84471
-9.00898
-9.00901
-9.00904
-9.00906
-9.00905
-9.009
-9.00889
-9.00869
-9.00842
-9.00814
-9.00793
-9.00789
-9.00819
-9.00882
-9.00963
-9.01037
-9.01077
-9.01082
-9.01067
-9.0104
-9.01008
-9.00972
-9.00935
-9.00896
-9.00856
-9.00815
-9.00775
-9.00737
-9.00703
-9.00675
-9.00657
-9.00648
-9.15053
-9.15054
-9.15055
-9.15054
-9.1505
-9.15042
-9.15027
-9.15004
-9.14974
-9.14944
-9.14921
-9.14917
-9.14948
-9.15012
-9.15095
-9.15171
-9.15213
-9.15221
-9.15206
-9.1518
-9.15148
-9.15113
-9.15074
-9.15034
-9.14991
-9.14947
-9.14901
-9.14853
-9.14806
-9.14762
-9.14729
-9.14707
-9.27391
-9.27386
-9.2738
-9.27374
-9.27367
-9.27356
-9.27338
-9.27313
-9.27281
-9.27248
-9.27223
-9.2722
-9.27251
-9.27316
-9.274
-9.27477
-9.27522
-9.2753
-9.27516
-9.27491
-9.27459
-9.27424
-9.27385
-9.27344
-9.273
-9.27253
-9.27202
-9.27147
-9.27086
-9.27021
-9.26959
-9.26905
-9.38164
-9.38127
-9.38107
-9.38096
-9.38087
-9.38075
-9.38057
-9.3803
-9.37997
-9.37963
-9.37937
-9.37933
-9.37964
-9.38029
-9.38114
-9.38192
-9.38238
-9.38247
-9.38234
-9.38209
-9.38178
-9.38142
-9.38104
-9.38062
-9.38018
-9.37969
-9.37916
-9.37855
-9.37783
-9.37694
-9.37585
-9.3746
-9.47598
-9.47477
-9.47435
-9.47425
-9.47417
-9.47405
-9.47387
-9.4736
-9.47327
-9.47292
-9.47266
-9.47262
-9.47292
-9.47357
-9.47442
-9.47521
-9.47567
-9.47577
-9.47565
-9.4754
-9.47509
-9.47474
-9.47435
-9.47394
-9.4735
-9.47301
-9.47247
-9.47183
-9.47104
-9.46996
-9.46837
-9.46612
)
;

boundaryField
{
    movingWall
    {
        type            calculated;
        value           nonuniform List<scalar> 
32
(
-9.51941
-9.5182
-9.51778
-9.51768
-9.5176
-9.51748
-9.51729
-9.51703
-9.5167
-9.51635
-9.51608
-9.51604
-9.51635
-9.517
-9.51784
-9.51863
-9.5191
-9.5192
-9.51907
-9.51883
-9.51852
-9.51817
-9.51778
-9.51737
-9.51693
-9.51644
-9.5159
-9.51527
-9.51447
-9.51339
-9.5118
-9.50955
)
;
    }
    fixedWalls
    {
        type            calculated;
        value           nonuniform List<scalar> 
64
(
6.93889e-18
-0.0928449
-0.19956
-0.322231
-0.463241
-0.625318
-0.811585
-1.02564
-1.27162
-1.5543
-1.87912
-2.2523
-2.68093
-3.17318
-3.73858
-4.38821
-5.08296
-5.73275
-6.29836
-6.79071
-7.21929
-7.59236
-7.91709
-8.19976
-8.44581
-8.66001
-8.84653
-9.00898
-9.15053
-9.27391
-9.38164
-9.47598
-0.000198893
-0.0930343
-0.19972
-0.322349
-0.463344
-0.625489
-0.811956
-1.02634
-1.27273
-1.55578
-1.88086
-2.25413
-2.68264
-3.17454
-3.73922
-4.38765
-5.08158
-5.73149
-6.29742
-6.79002
-7.21873
-7.59181
-7.91647
-8.19899
-8.44481
-8.65868
-8.84471
-9.00648
-9.14707
-9.26905
-9.3746
-9.46612
)
;
    }
    floor
    {
        type            calculated;
        value           nonuniform List<scalar> 
32
(
0.0432029
0.043197
0.043204
0.0432297
0.0432648
0.0432875
0.0432706
0.0432127
0.0431627
0.0431809
0.043299
0.0435391
0.0439652
0.0446231
0.0454183
0.0459805
0.045973
0.0453771
0.0446443
0.043959
0.043475
0.0431837
0.0430283
0.0429573
0.0429352
0.0429385
0.0429518
0.0429654
0.0429753
0.0429834
0.0429935
0.0430032
)
;
    }
    frontAndBack
    {
        type            empty;
    }
}


// ************************************************************************* //
