/*--------------------------------*- C++ -*----------------------------------*\
| =========                 |                                                 |
| \\      /  F ield         | OpenFOAM: The Open Source CFD Toolbox           |
|  \\    /   O peration     | Version:  2212                                  |
|   \\  /    A nd           | Website:  www.openfoam.com                      |
|    \\/     M anipulation  |                                                 |
\*---------------------------------------------------------------------------*/
FoamFile
{
    version     2.0;
    format      ascii;
    arch        "LSB;label=64;scalar=64";
    class       surfaceScalarField;
    location    "90";
    object      phi;
}
// * * * * * * * * * * * * * * * * * * * * * * * * * * * * * * * * * * * * * //

dimensions      [0 3 -1 0 0 0 0];

oriented        oriented;

internalField   nonuniform List<scalar> 
1984
(
-2.66481e-08
2.66473e-08
-9.93625e-08
7.2714e-08
-1.78239e-07
7.88762e-08
-2.17673e-07
3.94344e-08
-1.93694e-07
-2.39777e-08
-1.11102e-07
-8.25915e-08
-2.55722e-08
-8.55308e-08
-2.56395e-08
6.57763e-11
-1.75014e-07
1.49374e-07
-4.68507e-07
2.93492e-07
-8.17146e-07
3.48639e-07
-1.13635e-06
3.19208e-07
-1.33808e-06
2.01724e-07
-1.32658e-06
-1.14946e-08
-9.91285e-07
-3.35299e-07
-3.26996e-07
-6.64289e-07
4.78495e-07
-8.05491e-07
9.7285e-07
-4.94355e-07
1.16407e-06
-1.91217e-07
1.15623e-06
7.83458e-09
1.04765e-06
1.08581e-07
9.00283e-07
1.47368e-07
7.47504e-07
1.52779e-07
6.03658e-07
1.43846e-07
4.75128e-07
1.2853e-07
3.64933e-07
1.10195e-07
2.72741e-07
9.21922e-08
1.93258e-07
7.94833e-08
1.18669e-07
7.45884e-08
5.02042e-08
6.84639e-08
6.72264e-09
4.34817e-08
6.72278e-09
-9.04253e-08
1.17073e-07
-2.85672e-07
2.67961e-07
-4.85225e-07
2.78429e-07
-5.93024e-07
1.47234e-07
-5.59505e-07
-5.74972e-08
-4.03764e-07
-2.38333e-07
-2.40094e-07
-2.49201e-07
-2.77009e-07
3.69793e-08
-7.18332e-07
5.90698e-07
-1.54914e-06
1.1243e-06
-2.51037e-06
1.30987e-06
-3.31576e-06
1.12459e-06
-3.73769e-06
6.23659e-07
-3.58449e-06
-1.64693e-07
-2.68327e-06
-1.23652e-06
-9.96668e-07
-2.35089e-06
1.07971e-06
-2.88187e-06
2.45047e-06
-1.86511e-06
3.06548e-06
-8.06231e-07
3.20599e-06
-1.32673e-07
3.06156e-06
2.53005e-07
2.77131e-06
4.37625e-07
2.41706e-06
5.07026e-07
2.04546e-06
5.15449e-07
1.68293e-06
4.91058e-07
1.34451e-06
4.48613e-07
1.0357e-06
4.00999e-07
7.51891e-07
3.63295e-07
4.84831e-07
3.41648e-07
2.42539e-07
3.10756e-07
6.52892e-08
2.20732e-07
7.20115e-08
-1.44567e-07
2.61639e-07
-4.40503e-07
5.63897e-07
-7.37528e-07
5.75454e-07
-9.08881e-07
3.18588e-07
-8.97167e-07
-6.9211e-08
-7.55055e-07
-3.80445e-07
-6.53421e-07
-3.50834e-07
-8.74405e-07
2.57962e-07
-1.66704e-06
1.38334e-06
-2.95008e-06
2.40734e-06
-4.34273e-06
2.70252e-06
-5.41958e-06
2.20144e-06
-5.85739e-06
1.06147e-06
-5.41368e-06
-6.08403e-07
-3.95955e-06
-2.69065e-06
-1.51397e-06
-4.79647e-06
1.4147e-06
-5.81054e-06
3.45856e-06
-3.90897e-06
4.51373e-06
-1.8614e-06
4.92642e-06
-5.45358e-07
4.90584e-06
2.73583e-07
4.62267e-06
7.20791e-07
4.19192e-06
9.37777e-07
3.68423e-06
1.02314e-06
3.14335e-06
1.03193e-06
2.59638e-06
9.95584e-07
2.05792e-06
9.39456e-07
1.53257e-06
8.88651e-07
1.02249e-06
8.51726e-07
5.46479e-07
7.86765e-07
1.68193e-07
5.99018e-07
2.40204e-07
-1.71247e-07
4.32885e-07
-5.30241e-07
9.2289e-07
-9.01293e-07
9.46507e-07
-1.13957e-06
5.56866e-07
-1.19768e-06
-1.11009e-08
-1.17732e-06
-4.00803e-07
-1.30895e-06
-2.19207e-07
-1.87107e-06
8.20084e-07
-2.99853e-06
2.51079e-06
-4.53866e-06
3.94747e-06
-6.10141e-06
4.26527e-06
-7.20784e-06
3.30787e-06
-7.47504e-06
1.32867e-06
-6.66197e-06
-1.42147e-06
-4.73192e-06
-4.62069e-06
-1.78923e-06
-7.73917e-06
1.54795e-06
-9.14772e-06
3.98695e-06
-6.34797e-06
5.41012e-06
-3.28457e-06
6.11612e-06
-1.25135e-06
6.30341e-06
8.62953e-08
6.13286e-06
8.9134e-07
5.73712e-06
1.33351e-06
5.19771e-06
1.56255e-06
4.56619e-06
1.66345e-06
3.87572e-06
1.68605e-06
3.14757e-06
1.66761e-06
2.39608e-06
1.64014e-06
1.63646e-06
1.61135e-06
9.03701e-07
1.51952e-06
2.93732e-07
1.20899e-06
5.33937e-07
-1.70115e-07
6.02999e-07
-5.54595e-07
1.30737e-06
-9.82834e-07
1.37475e-06
-1.30934e-06
8.83375e-07
-1.51382e-06
1.93378e-07
-1.74224e-06
-1.7238e-07
-2.24629e-06
2.84841e-07
-3.1781e-06
1.75189e-06
-4.51475e-06
3.84744e-06
-6.10546e-06
5.53818e-06
-7.61828e-06
5.77808e-06
-8.57794e-06
4.26754e-06
-8.58162e-06
1.33235e-06
-7.43162e-06
-2.57147e-06
-5.16055e-06
-6.89176e-06
-1.93494e-06
-1.09648e-05
1.51623e-06
-1.25989e-05
4.16391e-06
-8.99566e-06
5.86331e-06
-4.98397e-06
6.79996e-06
-2.18801e-06
7.17098e-06
-2.84722e-07
7.13879e-06
9.2353e-07
6.82891e-06
1.64339e-06
6.32327e-06
2.0682e-06
5.67164e-06
2.31508e-06
4.90599e-06
2.45169e-06
4.04942e-06
2.52418e-06
3.12278e-06
2.56678e-06
2.15382e-06
2.5803e-06
1.19962e-06
2.47373e-06
3.95168e-07
2.01344e-06
9.29105e-07
-1.58323e-07
7.61321e-07
-5.52982e-07
1.70203e-06
-1.04237e-06
1.86413e-06
-1.50209e-06
1.34309e-06
-1.9475e-06
6.38788e-07
-2.5338e-06
4.13918e-07
-3.40597e-06
1.15702e-06
-4.57874e-06
2.92467e-06
-5.97142e-06
5.24011e-06
-7.46994e-06
7.0367e-06
-8.80944e-06
7.11759e-06
-9.55466e-06
5.01277e-06
-9.31748e-06
1.09516e-06
-7.93916e-06
-3.94979e-06
-5.46317e-06
-9.36775e-06
-2.11208e-06
-1.43159e-05
1.3061e-06
-1.60171e-05
4.0896e-06
-1.17792e-05
6.01652e-06
-6.91089e-06
7.12205e-06
-3.29353e-06
7.60515e-06
-7.67825e-07
7.66224e-06
8.66441e-07
7.41997e-06
1.88567e-06
6.95695e-06
2.53121e-06
6.31556e-06
2.95647e-06
5.52036e-06
3.24689e-06
4.59079e-06
3.45375e-06
3.55009e-06
3.60749e-06
2.43791e-06
3.69248e-06
1.33877e-06
3.57288e-06
4.29757e-07
2.92245e-06
1.35886e-06
-1.57996e-07
9.19318e-07
-5.80006e-07
2.12404e-06
-1.16178e-06
2.4459e-06
-1.81107e-06
1.99239e-06
-2.55284e-06
1.38056e-06
-3.47032e-06
1.3314e-06
-4.57995e-06
2.26665e-06
-5.8309e-06
4.17562e-06
-7.16051e-06
6.56972e-06
-8.49628e-06
8.37248e-06
-9.63863e-06
8.25994e-06
-1.02057e-05
5.57979e-06
-9.82851e-06
7.1802e-07
-8.34732e-06
-5.43098e-06
-5.78173e-06
-1.19333e-05
-2.43024e-06
-1.76674e-05
8.72029e-07
-1.93193e-05
3.7587e-06
-1.46658e-05
5.90639e-06
-9.05858e-06
7.17381e-06
-4.56096e-06
7.72396e-06
-1.31797e-06
7.80158e-06
7.88813e-07
7.57108e-06
2.11618e-06
7.11992e-06
2.98237e-06
6.48536e-06
3.59103e-06
5.68208e-06
4.05018e-06
4.72118e-06
4.41464e-06
3.62414e-06
4.70453e-06
2.44213e-06
4.87448e-06
1.29114e-06
4.72386e-06
3.86782e-07
3.82681e-06
1.74564e-06
-1.76052e-07
1.09537e-06
-6.55915e-07
2.6039e-06
-1.36524e-06
3.15523e-06
-2.22729e-06
2.85443e-06
-3.22841e-06
2.38169e-06
-4.35616e-06
2.45915e-06
-5.54976e-06
3.46025e-06
-6.74733e-06
5.37318e-06
-7.92543e-06
7.74782e-06
-9.07511e-06
9.52215e-06
-1.00699e-05
9.25475e-06
-1.05692e-05
6.07904e-06
-1.01885e-05
3.37374e-07
-8.72396e-06
-6.89554e-06
-6.18648e-06
-1.44708e-05
-2.9629e-06
-2.08909e-05
1.35907e-07
-2.24181e-05
3.07633e-06
-1.76063e-05
5.44495e-06
-1.14272e-05
6.9058e-06
-6.02181e-06
7.53349e-06
-1.94566e-06
7.60219e-06
7.20113e-07
7.34252e-06
2.37584e-06
6.87325e-06
3.45165e-06
6.23575e-06
4.22852e-06
5.43678e-06
4.84915e-06
4.47687e-06
5.37455e-06
3.3734e-06
5.808e-06
2.19088e-06
6.05701e-06
1.0807e-06
5.83404e-06
2.84214e-07
4.6233e-06
2.02986e-06
-1.9542e-07
1.29079e-06
-7.38851e-07
3.14733e-06
-1.58481e-06
4.0012e-06
-2.64586e-06
3.91548e-06
-3.83545e-06
3.57128e-06
-5.05457e-06
3.67826e-06
-6.20311e-06
4.6088e-06
-7.22912e-06
6.39919e-06
-8.16631e-06
8.685e-06
-9.11014e-06
1.0466e-05
-1.00384e-05
1.0183e-05
-1.06243e-05
6.66494e-06
-1.03997e-05
1.12824e-07
-9.08338e-06
-8.21189e-06
-6.72839e-06
-1.68258e-05
-3.78493e-06
-2.38344e-05
-9.60423e-07
-2.52426e-05
1.88525e-06
-2.04519e-05
4.44886e-06
-1.39908e-05
6.15109e-06
-7.72404e-06
6.92116e-06
-2.71572e-06
7.00546e-06
6.35812e-07
6.7259e-06
2.6554e-06
6.24896e-06
3.92858e-06
5.62444e-06
4.85305e-06
4.85287e-06
5.62072e-06
3.92485e-06
6.30258e-06
2.85688e-06
6.87597e-06
1.73558e-06
7.17831e-06
7.53245e-07
6.81637e-06
1.51289e-07
5.22525e-06
2.18115e-06
-1.80424e-07
1.47121e-06
-7.25571e-07
3.69248e-06
-1.65512e-06
4.93075e-06
-2.87312e-06
5.13349e-06
-4.2048e-06
4.90295e-06
-5.46344e-06
4.93691e-06
-6.50339e-06
5.64875e-06
-7.27005e-06
7.16585e-06
-7.8595e-06
9.27445e-06
-8.52917e-06
1.11356e-05
-9.44996e-06
1.11038e-05
-1.02977e-05
7.51268e-06
-1.04247e-05
2.39861e-07
-9.43301e-06
-9.20361e-06
-7.47909e-06
-1.87797e-05
-5.04003e-06
-2.62735e-05
-2.57055e-06
-2.77121e-05
-1.15951e-08
-2.30109e-05
2.65312e-06
-1.66555e-05
4.63442e-06
-9.70534e-06
5.68666e-06
-3.76796e-06
5.86109e-06
4.61381e-07
5.6341e-06
2.88238e-06
5.22305e-06
4.33964e-06
4.67174e-06
5.40435e-06
3.97065e-06
6.32181e-06
3.10549e-06
7.16774e-06
2.10636e-06
7.87509e-06
1.10631e-06
8.17837e-06
3.46433e-07
7.57625e-06
1.63399e-08
5.55534e-06
2.19749e-06
-9.83183e-08
1.56953e-06
-4.86253e-07
4.08041e-06
-1.31793e-06
5.76243e-06
-2.57209e-06
6.38765e-06
-4.01589e-06
6.34675e-06
-5.35776e-06
6.27877e-06
-6.35585e-06
6.64684e-06
-6.88853e-06
7.69853e-06
-7.06163e-06
9.44755e-06
-7.32364e-06
1.13977e-05
-8.22572e-06
1.20059e-05
-9.50568e-06
8.79264e-06
-1.0225e-05
9.59217e-07
-9.80276e-06
-9.62589e-06
-8.54167e-06
-2.00408e-05
-6.86831e-06
-2.79468e-05
-4.86719e-06
-2.97132e-05
-2.6681e-06
-2.521e-05
-3.12417e-07
-1.90112e-05
1.93706e-06
-1.19548e-05
3.50551e-06
-5.33641e-06
3.95666e-06
1.02339e-08
3.93557e-06
2.90347e-06
3.72746e-06
4.54776e-06
3.33669e-06
5.79512e-06
2.74735e-06
6.91114e-06
1.96163e-06
7.95347e-06
1.04868e-06
8.78804e-06
2.74545e-07
8.9525e-06
-1.19607e-07
7.9704e-06
-1.17216e-07
5.55295e-06
2.08027e-06
5.13126e-08
1.51822e-06
1.54434e-08
4.11628e-06
-3.86005e-07
6.16387e-06
-1.31929e-06
7.32094e-06
-2.67068e-06
7.69814e-06
-4.10818e-06
7.71627e-06
-5.24801e-06
7.78668e-06
-5.80295e-06
8.25346e-06
-5.72648e-06
9.37108e-06
-5.5339e-06
1.12051e-05
-6.38503e-06
1.2857e-05
-8.24048e-06
1.06481e-05
-9.80644e-06
2.52517e-06
-1.02657e-05
-9.16664e-06
-1.00531e-05
-2.02535e-05
-9.45342e-06
-2.85465e-05
-8.20677e-06
-3.09599e-05
-6.46057e-06
-2.69562e-05
-4.44667e-06
-2.10251e-05
-2.31585e-06
-1.40856e-05
-3.57153e-07
-7.29511e-06
9.79957e-07
-1.32688e-06
1.52143e-06
2.36199e-06
1.6256e-06
4.4436e-06
1.38435e-06
6.03637e-06
8.42782e-07
7.45271e-06
1.32303e-07
8.66395e-06
-5.14615e-07
9.43495e-06
-8.10527e-07
9.24842e-06
-6.59462e-07
7.81933e-06
-2.65701e-07
5.15919e-06
1.81457e-06
2.26344e-07
1.29188e-06
6.51291e-07
3.69134e-06
9.49432e-07
5.86573e-06
8.04742e-07
7.46562e-06
1.03588e-07
8.3993e-06
-9.97372e-07
8.81723e-06
-2.16788e-06
8.95719e-06
-3.00876e-06
9.09433e-06
-3.20348e-06
9.56581e-06
-3.04034e-06
1.10419e-05
-4.08126e-06
1.38979e-05
-6.65704e-06
1.32239e-05
-9.27088e-06
5.13901e-06
-1.09505e-05
-7.48706e-06
-1.21654e-05
-1.90385e-05
-1.29782e-05
-2.77336e-05
-1.28489e-05
-3.10893e-05
-1.18599e-05
-2.79452e-05
-1.02599e-05
-2.26251e-05
-8.22863e-06
-1.61169e-05
-6.06969e-06
-9.45405e-06
-3.90056e-06
-3.49601e-06
-2.5944e-06
1.05583e-06
-2.14586e-06
3.99506e-06
-2.20956e-06
6.10008e-06
-2.5321e-06
7.77525e-06
-2.80471e-06
8.93656e-06
-2.71428e-06
9.34453e-06
-2.17183e-06
8.70596e-06
-1.29547e-06
6.94298e-06
-4.26399e-07
4.29012e-06
1.38817e-06
3.52045e-07
9.39832e-07
1.1864e-06
2.85699e-06
2.20472e-06
4.84741e-06
3.05828e-06
6.61206e-06
3.49352e-06
7.96405e-06
3.42099e-06
8.88975e-06
2.90088e-06
9.4773e-06
2.11581e-06
9.8794e-06
1.27265e-06
1.0409e-05
3.45982e-07
1.19686e-05
-1.58338e-06
1.58272e-05
-5.05198e-06
1.66925e-05
-8.79872e-06
8.88575e-06
-1.20303e-05
-4.25552e-06
-1.49651e-05
-1.61037e-05
-1.75011e-05
-2.51976e-05
-1.88876e-05
-2.97028e-05
-1.90603e-05
-2.77725e-05
-1.82441e-05
-2.34413e-05
-1.66005e-05
-1.77605e-05
-1.43918e-05
-1.16627e-05
-1.20277e-05
-5.8601e-06
-1.01574e-05
-8.14552e-07
-9.02243e-06
2.86013e-06
-8.27617e-06
5.35382e-06
-7.58635e-06
7.08542e-06
-6.65445e-06
8.00466e-06
-5.32013e-06
8.01021e-06
-3.6524e-06
7.03824e-06
-1.92117e-06
5.21175e-06
-5.59346e-07
2.92829e-06
8.28823e-07
3.59512e-07
5.8032e-07
1.38251e-06
1.83399e-06
2.92442e-06
3.30551e-06
4.67458e-06
4.86191e-06
6.2818e-06
6.35682e-06
7.44853e-06
7.72303e-06
7.94665e-06
8.97917e-06
7.59722e-06
1.02288e-05
6.2499e-06
1.17563e-05
3.8982e-06
1.43203e-05
7.02293e-07
1.90232e-05
-3.66165e-06
2.10564e-05
-8.53246e-06
1.37566e-05
-1.34918e-05
7.03852e-07
-1.82328e-05
-1.13627e-05
-2.26209e-05
-2.08095e-05
-2.5804e-05
-2.65197e-05
-2.75319e-05
-2.60445e-05
-2.79935e-05
-2.29797e-05
-2.72696e-05
-1.84844e-05
-2.55003e-05
-1.3432e-05
-2.29571e-05
-8.40331e-06
-1.99915e-05
-3.78013e-06
-1.7411e-05
2.796e-07
-1.49836e-05
2.92643e-06
-1.2593e-05
4.69482e-06
-1.00106e-05
5.42221e-06
-7.25824e-06
5.25786e-06
-4.53007e-06
4.31007e-06
-2.16031e-06
2.84199e-06
-5.6079e-07
1.32877e-06
2.68034e-07
3.11395e-07
2.68925e-07
1.30798e-06
8.37399e-07
2.99595e-06
1.61754e-06
5.16092e-06
2.69693e-06
7.4151e-06
4.10265e-06
9.3076e-06
5.83053e-06
1.04122e-05
7.87457e-06
1.03752e-05
1.02658e-05
8.96117e-06
1.31703e-05
6.20386e-06
1.70776e-05
2.68543e-06
2.25416e-05
-1.9043e-06
2.56462e-05
-7.83003e-06
1.96823e-05
-1.44683e-05
7.34214e-06
-2.08951e-05
-4.93586e-06
-2.67954e-05
-1.49093e-05
-3.15981e-05
-2.1717e-05
-3.48552e-05
-2.27874e-05
-3.67078e-05
-2.11271e-05
-3.71289e-05
-1.80634e-05
-3.60542e-05
-1.45066e-05
-3.35173e-05
-1.09402e-05
-2.96897e-05
-7.60781e-06
-2.47745e-05
-4.63556e-06
-1.9722e-05
-2.12608e-06
-1.47569e-05
-2.70277e-07
-1.02285e-05
8.93808e-07
-6.34664e-06
1.37602e-06
-3.30374e-06
1.26716e-06
-1.25823e-06
7.96485e-07
-2.34443e-07
3.04976e-07
3.35904e-08
2.59103e-07
9.82175e-09
1.05739e-06
3.91097e-08
2.41571e-06
2.59227e-07
4.21003e-06
9.02608e-07
6.15285e-06
2.15983e-06
7.87499e-06
4.10839e-06
9.01094e-06
6.73863e-06
9.28608e-06
9.9907e-06
8.56449e-06
1.38919e-05
6.93097e-06
1.87111e-05
4.86093e-06
2.46116e-05
1.92319e-06
2.85839e-05
-3.31494e-06
2.49204e-05
-1.05687e-05
1.45959e-05
-1.73337e-05
1.82914e-06
-2.32085e-05
-9.03446e-06
-2.80602e-05
-1.68653e-05
-3.15113e-05
-1.93363e-05
-3.36789e-05
-1.89595e-05
-3.4596e-05
-1.71463e-05
-3.41789e-05
-1.49237e-05
-3.23737e-05
-1.27454e-05
-2.92193e-05
-1.07622e-05
-2.48803e-05
-8.97457e-06
-1.96854e-05
-7.32093e-06
-1.42233e-05
-5.73239e-06
-9.17466e-06
-4.15484e-06
-5.03979e-06
-2.75886e-06
-2.15989e-06
-1.61273e-06
-5.98801e-07
-7.64608e-07
-5.1663e-08
-2.42162e-07
-1.80729e-08
1.92913e-07
-1.83092e-07
7.41218e-07
-5.09197e-07
1.64786e-06
-6.47413e-07
2.86827e-06
-3.17798e-07
4.24811e-06
7.79987e-07
5.57554e-06
2.78096e-06
6.62879e-06
5.68538e-06
7.23922e-06
9.38027e-06
7.34698e-06
1.37841e-05
7.06191e-06
1.89962e-05
6.73822e-06
2.49353e-05
6.1291e-06
2.9193e-05
3.60143e-06
2.74481e-05
-1.28048e-06
1.94778e-05
-7.73492e-06
8.28358e-06
-1.30751e-05
-3.69423e-06
-1.6887e-05
-1.30535e-05
-1.97556e-05
-1.64677e-05
-2.15711e-05
-1.7144e-05
-2.25294e-05
-1.6188e-05
-2.26716e-05
-1.47814e-05
-2.20071e-05
-1.34099e-05
-2.05476e-05
-1.22217e-05
-1.8344e-05
-1.11782e-05
-1.55165e-05
-1.01484e-05
-1.22551e-05
-8.99381e-06
-8.78493e-06
-7.62499e-06
-5.52275e-06
-6.02103e-06
-2.881e-06
-4.25448e-06
-1.1177e-06
-2.52791e-06
-2.28888e-07
-1.13098e-06
-2.46961e-07
1.34472e-07
-3.17565e-07
5.00995e-07
-8.7572e-07
1.09881e-06
-1.24522e-06
1.94193e-06
-1.16092e-06
3.00305e-06
-2.81135e-07
4.12175e-06
1.66226e-06
5.15701e-06
4.65012e-06
6.00301e-06
8.53427e-06
6.64898e-06
1.31382e-05
7.22848e-06
1.84167e-05
8.02202e-06
2.41418e-05
8.83414e-06
2.83809e-05
8.53745e-06
2.77448e-05
6.54177e-06
2.14734e-05
2.61112e-06
1.22142e-05
-2.21834e-06
1.13523e-06
-6.16572e-06
-9.10611e-06
-9.08742e-06
-1.3546e-05
-1.10357e-05
-1.51957e-05
-1.22722e-05
-1.49516e-05
-1.29039e-05
-1.41497e-05
-1.30454e-05
-1.32684e-05
-1.27548e-05
-1.25123e-05
-1.2021e-05
-1.19119e-05
-1.08221e-05
-1.13473e-05
-9.18263e-06
-1.06333e-05
-7.19745e-06
-9.61017e-06
-5.05139e-06
-8.16709e-06
-3.00296e-06
-6.30291e-06
-1.34937e-06
-4.18151e-06
-3.30258e-07
-2.15009e-06
-5.77219e-07
9.29227e-08
-4.10488e-07
3.43551e-07
-1.12635e-06
7.497e-07
-1.65137e-06
1.32718e-06
-1.7384e-06
2.12147e-06
-1.07542e-06
3.06713e-06
7.16595e-07
4.04877e-06
3.66848e-06
4.9966e-06
7.58644e-06
5.93691e-06
1.21979e-05
7.01998e-06
1.73336e-05
8.48066e-06
2.26811e-05
1.01777e-05
2.66839e-05
1.12702e-05
2.66523e-05
1.10957e-05
2.16479e-05
9.85648e-06
1.34535e-05
7.1933e-06
3.79841e-06
3.5214e-06
-5.43422e-06
2.44651e-07
-1.02692e-05
-2.38558e-06
-1.25654e-05
-4.1478e-06
-1.31893e-05
-5.30874e-06
-1.29888e-05
-6.05483e-06
-1.25223e-05
-6.52755e-06
-1.20396e-05
-6.75641e-06
-1.1683e-05
-6.67604e-06
-1.14277e-05
-6.21302e-06
-1.10963e-05
-5.3286e-06
-1.04946e-05
-4.07612e-06
-9.41958e-06
-2.62871e-06
-7.75032e-06
-1.27412e-06
-5.5361e-06
-3.34768e-07
-3.08944e-06
-9.11987e-07
6.86267e-08
-4.79115e-07
2.37475e-07
-1.29519e-06
4.90331e-07
-1.90423e-06
8.39902e-07
-2.08797e-06
1.34489e-06
-1.58042e-06
2.08061e-06
-1.91236e-08
2.94285e-06
2.80624e-06
3.8941e-06
6.63519e-06
4.98384e-06
1.11081e-05
6.36062e-06
1.59569e-05
8.21981e-06
2.08219e-05
1.04583e-05
2.44454e-05
1.24134e-05
2.46972e-05
1.34052e-05
2.06561e-05
1.3283e-05
1.35757e-05
1.20077e-05
5.07374e-06
9.59241e-06
-3.01898e-06
6.95082e-06
-7.62763e-06
4.36746e-06
-9.98208e-06
2.18419e-06
-1.10061e-05
4.82046e-07
-1.12867e-05
-8.04208e-07
-1.12361e-05
-1.79423e-06
-1.10496e-05
-2.59888e-06
-1.08784e-05
-3.21117e-06
-1.08154e-05
-3.54849e-06
-1.0759e-05
-3.49438e-06
-1.05487e-05
-2.99445e-06
-9.9195e-06
-2.12473e-06
-8.62005e-06
-1.11737e-06
-6.54345e-06
-3.14531e-07
-3.89228e-06
-1.22652e-06
4.85495e-08
-5.27664e-07
1.39402e-07
-1.38605e-06
2.36074e-07
-2.0009e-06
3.41687e-07
-2.19358e-06
5.40543e-07
-1.77927e-06
1.00562e-06
-4.84199e-07
1.72516e-06
2.0867e-06
2.64329e-06
5.71706e-06
3.81558e-06
9.93584e-06
5.37578e-06
1.43967e-05
7.47975e-06
1.87179e-05
1.00431e-05
2.18821e-05
1.25185e-05
2.22218e-05
1.42456e-05
1.89289e-05
1.49226e-05
1.28988e-05
1.44603e-05
5.536e-06
1.29028e-05
-1.46144e-06
1.08655e-05
-5.59033e-06
8.65313e-06
-7.76977e-06
6.52801e-06
-8.88094e-06
4.64578e-06
-9.40443e-06
3.03522e-06
-9.6255e-06
1.68315e-06
-9.69753e-06
5.29044e-07
-9.72427e-06
-4.84623e-07
-9.80176e-06
-1.32928e-06
-9.91434e-06
-1.86793e-06
-1.00101e-05
-1.96971e-06
-9.81772e-06
-1.60867e-06
-8.98108e-06
-9.39184e-07
-7.21294e-06
-2.85935e-07
-4.54553e-06
-1.51245e-06
2.28334e-08
-5.50498e-07
2.08573e-08
-1.38407e-06
-5.35338e-08
-1.92651e-06
-1.89613e-07
-2.0575e-06
-2.95551e-07
-1.67334e-06
-1.76607e-07
-6.03143e-07
3.86388e-07
1.5237e-06
1.33735e-06
4.76609e-06
2.57199e-06
8.70121e-06
4.249e-06
1.27197e-05
6.49994e-06
1.6467e-05
9.24226e-06
1.91398e-05
1.20016e-05
1.94625e-05
1.41588e-05
1.67717e-05
1.53424e-05
1.17151e-05
1.541e-05
5.4684e-06
1.44209e-05
-4.72246e-07
1.28654e-05
-4.03492e-06
1.10325e-05
-5.93687e-06
9.12977e-06
-6.97817e-06
7.29286e-06
-7.56753e-06
5.59517e-06
-7.92781e-06
4.07442e-06
-8.17677e-06
2.7328e-06
-8.38265e-06
1.52137e-06
-8.59033e-06
4.252e-07
-8.81817e-06
-4.96216e-07
-9.08864e-06
-1.06474e-06
-9.24919e-06
-1.13582e-06
-8.91e-06
-7.74308e-07
-7.57446e-06
-2.62165e-07
-5.05767e-06
-1.77462e-06
-2.39663e-08
-5.26531e-07
-1.56573e-07
-1.25147e-06
-4.22629e-07
-1.66045e-06
-7.75739e-07
-1.70439e-06
-1.10868e-06
-1.3404e-06
-1.25943e-06
-4.52394e-07
-9.17615e-07
1.18189e-06
3.99743e-08
3.8085e-06
1.39679e-06
7.34439e-06
3.13768e-06
1.09788e-05
5.46222e-06
1.41425e-05
8.27568e-06
1.63263e-05
1.11482e-05
1.659e-05
1.35143e-05
1.44056e-05
1.49868e-05
1.02425e-05
1.53958e-05
5.05944e-06
1.47935e-05
1.30037e-07
1.36086e-05
-2.84998e-06
1.21128e-05
-4.44113e-06
1.04802e-05
-5.34555e-06
8.81957e-06
-5.9069e-06
7.19856e-06
-6.30679e-06
5.66087e-06
-6.63908e-06
4.23025e-06
-6.95202e-06
2.91108e-06
-7.27116e-06
1.7045e-06
-7.6116e-06
6.0292e-07
-7.98705e-06
-2.81487e-07
-8.36479e-06
-7.21362e-07
-8.47012e-06
-6.38682e-07
-7.65714e-06
-2.53718e-07
-5.44263e-06
-2.02834e-06
-1.00293e-07
-4.26238e-07
-4.04212e-07
-9.47547e-07
-8.76849e-07
-1.18782e-06
-1.42253e-06
-1.15872e-06
-1.90918e-06
-8.53744e-07
-2.17803e-06
-1.8354e-07
-1.9957e-06
9.99557e-07
-1.16294e-06
2.97575e-06
3.11167e-07
5.87028e-06
2.1402e-06
9.14973e-06
4.47991e-06
1.18027e-05
7.28167e-06
1.35245e-05
1.01439e-05
1.37278e-05
1.2563e-05
1.19866e-05
1.41688e-05
8.63674e-06
1.4786e-05
4.44224e-06
1.44625e-05
4.53487e-07
1.35653e-05
-1.95281e-06
1.23662e-05
-3.24202e-06
1.10092e-05
-3.98851e-06
9.5782e-06
-4.47591e-06
8.12345e-06
-4.85204e-06
6.6787e-06
-5.19434e-06
5.26933e-06
-5.54265e-06
3.91543e-06
-5.91726e-06
2.63442e-06
-6.33059e-06
1.44335e-06
-6.79598e-06
3.87391e-07
-7.30882e-06
-3.51638e-07
-7.73109e-06
-5.30318e-07
-7.47846e-06
-2.66181e-07
-5.70677e-06
-2.29452e-06
-1.97528e-07
-2.28709e-07
-6.92187e-07
-4.52887e-07
-1.36084e-06
-5.19167e-07
-2.05485e-06
-4.64703e-07
-2.63255e-06
-2.76038e-07
-2.93501e-06
1.18922e-07
-2.80861e-06
8.73156e-07
-2.0771e-06
2.24424e-06
-6.24942e-07
4.41813e-06
1.28876e-06
7.23602e-06
3.61072e-06
9.48079e-06
6.33965e-06
1.07956e-05
9.10428e-06
1.09631e-05
1.14719e-05
9.61897e-06
1.31064e-05
7.00224e-06
1.38367e-05
3.71189e-06
1.37112e-05
5.79051e-07
1.30633e-05
-1.30494e-06
1.21325e-05
-2.31121e-06
1.10406e-05
-2.89662e-06
9.85225e-06
-3.28758e-06
8.60207e-06
-3.60186e-06
7.3112e-06
-3.90347e-06
5.9971e-06
-4.22855e-06
4.67914e-06
-4.5993e-06
3.38074e-06
-5.0322e-06
2.12977e-06
-5.54501e-06
9.7223e-07
-6.15128e-06
2.62357e-08
-6.7851e-06
-4.25891e-07
-7.02633e-06
-2.95706e-07
-5.83695e-06
-2.59022e-06
-3.14905e-07
8.61961e-08
-9.87365e-07
2.19572e-07
-1.7839e-06
2.77367e-07
-2.5294e-06
2.80795e-07
-3.10011e-06
2.94678e-07
-3.39087e-06
4.09684e-07
-3.29245e-06
7.74728e-07
-2.65222e-06
1.60401e-06
-1.32711e-06
3.09301e-06
5.92261e-07
5.31665e-06
2.89413e-06
7.17892e-06
5.49943e-06
8.19031e-06
8.10867e-06
8.3539e-06
1.03626e-05
7.36502e-06
1.19666e-05
5.3983e-06
1.27643e-05
2.91411e-06
1.27964e-05
5.47019e-07
1.23596e-05
-8.68212e-07
1.16622e-05
-1.61377e-06
1.08069e-05
-2.04131e-06
9.8453e-06
-2.326e-06
8.80229e-06
-2.55885e-06
7.68972e-06
-2.7909e-06
6.51548e-06
-3.0543e-06
5.29e-06
-3.37382e-06
4.03086e-06
-3.77306e-06
2.76492e-06
-4.27907e-06
1.53435e-06
-4.92071e-06
4.34384e-07
-5.68513e-06
-2.82113e-07
-6.30983e-06
-3.22883e-07
-5.79618e-06
-2.91311e-06
-4.03846e-07
4.90043e-07
-1.12697e-06
9.42699e-07
-1.8864e-06
1.0368e-06
-2.55156e-06
9.45953e-07
-3.05504e-06
7.98156e-07
-3.33067e-06
6.85322e-07
-3.28221e-06
7.26268e-07
-2.77257e-06
1.09437e-06
-1.65479e-06
1.97523e-06
1.54549e-07
3.50731e-06
2.39813e-06
4.93534e-06
4.82774e-06
5.7607e-06
7.24737e-06
5.93426e-06
9.35798e-06
5.25442e-06
1.09048e-05
3.85148e-06
1.17469e-05
2.07204e-06
1.19048e-05
3.89043e-07
1.16342e-05
-5.97574e-07
1.11202e-05
-1.09976e-06
1.0455e-05
-1.37613e-06
9.68463e-06
-1.55561e-06
8.82986e-06
-1.70407e-06
7.8976e-06
-1.85865e-06
6.88801e-06
-2.04471e-06
5.8e-06
-2.28581e-06
4.63686e-06
-2.60992e-06
3.41201e-06
-3.05422e-06
2.15713e-06
-3.66583e-06
9.47913e-07
-4.47591e-06
-1.23437e-08
-5.34958e-06
-3.08721e-07
-5.49981e-06
-3.22183e-06
-4.41654e-07
9.31698e-07
-1.06251e-06
1.56355e-06
-1.59353e-06
1.56782e-06
-2.00941e-06
1.36183e-06
-2.31843e-06
1.10717e-06
-2.49652e-06
8.6341e-07
-2.47238e-06
7.02128e-07
-2.12175e-06
7.43748e-07
-1.27357e-06
1.12705e-06
2.64117e-07
1.96962e-06
2.29477e-06
2.90468e-06
4.48622e-06
3.56925e-06
6.68251e-06
3.73797e-06
8.62293e-06
3.314e-06
1.00803e-05
2.39415e-06
1.09199e-05
1.23238e-06
1.11411e-05
1.67824e-07
1.0968e-05
-4.24472e-07
1.05741e-05
-7.05865e-07
1.00473e-05
-8.49327e-07
9.43074e-06
-9.39014e-07
8.7426e-06
-1.01594e-06
7.98661e-06
-1.10265e-06
7.15737e-06
-1.21547e-06
6.24392e-06
-1.37236e-06
5.2331e-06
-1.59911e-06
4.11508e-06
-1.9362e-06
2.89399e-06
-2.44474e-06
1.61435e-06
-3.19627e-06
4.36898e-07
-4.17213e-06
-2.01803e-07
-4.8611e-06
-3.42363e-06
-4.63153e-07
1.39485e-06
-7.96761e-07
1.89716e-06
-8.67902e-07
1.63896e-06
-8.28602e-07
1.32253e-06
-7.61713e-07
1.04028e-06
-6.82582e-07
7.84279e-07
-5.60432e-07
5.79979e-07
-2.93228e-07
4.76544e-07
2.89413e-07
5.44413e-07
1.38687e-06
8.72165e-07
2.95131e-06
1.34024e-06
4.77797e-06
1.74258e-06
6.65337e-06
1.86258e-06
8.32943e-06
1.63793e-06
9.59017e-06
1.13341e-06
1.03082e-05
5.14339e-07
1.04862e-05
-1.02074e-08
1.03332e-05
-2.71417e-07
1.00083e-05
-3.80954e-07
9.58856e-06
-4.29607e-07
9.10874e-06
-4.59198e-07
8.58121e-06
-4.88408e-07
8.00552e-06
-5.26958e-07
7.37255e-06
-5.82502e-07
6.66555e-06
-6.65362e-07
5.85985e-06
-7.93407e-07
4.92306e-06
-9.99412e-07
3.81977e-06
-1.34145e-06
2.53411e-06
-1.91061e-06
1.15905e-06
-2.79707e-06
1.05255e-07
-3.80731e-06
-3.31838e-06
-3.41408e-07
1.73626e-06
5.89818e-08
1.49677e-06
7.04073e-07
9.93871e-07
1.27501e-06
7.51594e-07
1.75226e-06
5.63037e-07
2.13862e-06
3.97915e-07
2.44763e-06
2.70965e-07
2.73188e-06
1.92297e-07
3.10124e-06
1.75049e-07
3.73084e-06
2.42569e-07
4.70208e-06
3.68998e-07
5.9506e-06
4.94062e-07
7.28369e-06
5.29484e-07
8.47388e-06
4.47749e-07
9.33053e-06
2.76756e-07
9.76135e-06
8.35246e-08
9.80589e-06
-5.47467e-08
9.64253e-06
-1.08059e-07
9.38615e-06
-1.24574e-07
9.08569e-06
-1.29147e-07
8.75905e-06
-1.32564e-07
8.40943e-06
-1.38782e-07
8.03215e-06
-1.49684e-07
7.61687e-06
-1.67215e-07
7.14654e-06
-1.95037e-07
6.594e-06
-2.40869e-07
5.91589e-06
-3.21304e-07
5.04533e-06
-4.70888e-07
3.89025e-06
-7.55523e-07
2.37696e-06
-1.28378e-06
7.3061e-07
-2.16096e-06
-2.58777e-06
1.73626e-06
3.23303e-06
4.2269e-06
4.97849e-06
5.54153e-06
5.93945e-06
6.21041e-06
6.40271e-06
6.57776e-06
6.82033e-06
7.18932e-06
7.68339e-06
8.21287e-06
8.66062e-06
8.93737e-06
9.0209e-06
8.96615e-06
8.85809e-06
8.73352e-06
8.60437e-06
8.47181e-06
8.33303e-06
8.18334e-06
8.01613e-06
7.82109e-06
7.58022e-06
7.25892e-06
6.78803e-06
6.03251e-06
4.74873e-06
2.58777e-06
)
;

boundaryField
{
    movingWall
    {
        type            calculated;
        value           uniform 0;
    }
    fixedWalls
    {
        type            calculated;
        value           uniform 0;
    }
    floor
    {
        type            calculated;
        value           uniform 0;
    }
    frontAndBack
    {
        type            empty;
        value           nonuniform List<scalar> 0();
    }
}


// ************************************************************************* //
