/*--------------------------------*- C++ -*----------------------------------*\
| =========                 |                                                 |
| \\      /  F ield         | OpenFOAM: The Open Source CFD Toolbox           |
|  \\    /   O peration     | Version:  2212                                  |
|   \\  /    A nd           | Website:  www.openfoam.com                      |
|    \\/     M anipulation  |                                                 |
\*---------------------------------------------------------------------------*/
FoamFile
{
    version     2.0;
    format      ascii;
    arch        "LSB;label=64;scalar=64";
    class       volScalarField;
    location    "90";
    object      SIC;
}
// * * * * * * * * * * * * * * * * * * * * * * * * * * * * * * * * * * * * * //

dimensions      [1 -3 0 0 0 0 0];

internalField   nonuniform List<scalar> 
1024
(
0.0934785
0.0934789
0.0934798
0.0934814
0.0934841
0.0934884
0.0934951
0.0935066
0.0935279
0.093568
0.093634
0.0937147
0.093777
0.0937999
0.0937983
0.0937934
0.0937877
0.093783
0.0937756
0.0937665
0.0937568
0.0937469
0.0937366
0.0937258
0.093714
0.0937011
0.0936878
0.0936755
0.0936654
0.0936583
0.093654
0.0936523
0.0934786
0.093479
0.0934799
0.0934817
0.0934845
0.093489
0.0934961
0.0935082
0.0935307
0.0935729
0.0936412
0.0937219
0.0937809
0.0938004
0.0937977
0.0937928
0.0937872
0.093783
0.0937757
0.0937668
0.0937572
0.0937474
0.0937375
0.0937269
0.0937154
0.0937027
0.0936895
0.0936769
0.0936665
0.093659
0.0936546
0.0936527
0.0934788
0.0934792
0.0934802
0.0934822
0.0934854
0.0934904
0.0934984
0.0935119
0.0935367
0.0935825
0.0936539
0.0937335
0.0937866
0.0938006
0.0937963
0.0937915
0.0937862
0.0937828
0.0937755
0.0937665
0.0937572
0.0937478
0.0937383
0.0937284
0.0937175
0.0937053
0.0936923
0.0936795
0.0936686
0.0936605
0.0936556
0.0936536
0.0934789
0.0934794
0.0934806
0.0934829
0.0934866
0.0934926
0.093502
0.0935179
0.0935462
0.093596
0.0936697
0.0937461
0.0937914
0.0937997
0.0937941
0.0937894
0.0937845
0.0937824
0.0937746
0.0937652
0.0937558
0.0937468
0.093738
0.093729
0.0937191
0.0937079
0.0936954
0.0936826
0.0936711
0.0936625
0.0936572
0.0936549
0.0934792
0.0934797
0.0934811
0.0934838
0.0934883
0.0934956
0.0935072
0.0935261
0.0935583
0.0936117
0.0936856
0.0937565
0.0937938
0.0937971
0.0937908
0.0937865
0.0937826
0.093782
0.0937728
0.093762
0.0937521
0.0937434
0.0937355
0.0937276
0.093719
0.0937091
0.0936975
0.0936851
0.0936735
0.0936644
0.0936588
0.0936564
0.0934795
0.0934801
0.0934818
0.0934849
0.0934904
0.0934993
0.0935134
0.0935357
0.0935716
0.0936271
0.0936988
0.0937628
0.0937927
0.0937926
0.0937863
0.0937826
0.0937812
0.0937823
0.0937703
0.0937565
0.0937454
0.0937367
0.0937297
0.0937231
0.0937162
0.0937079
0.0936976
0.0936861
0.0936748
0.0936658
0.0936601
0.0936577
0.0934798
0.0934805
0.0934824
0.0934862
0.0934927
0.0935033
0.0935198
0.0935452
0.0935838
0.0936396
0.093707
0.0937635
0.0937875
0.0937858
0.0937803
0.0937779
0.0937812
0.0937843
0.0937673
0.0937486
0.093735
0.0937261
0.0937199
0.093715
0.0937099
0.0937035
0.093695
0.0936848
0.0936746
0.0936661
0.0936607
0.0936583
0.09348
0.0934809
0.093483
0.0934873
0.0934947
0.0935067
0.0935251
0.0935526
0.0935924
0.0936467
0.0937086
0.093758
0.093778
0.0937765
0.0937729
0.0937729
0.093784
0.0937892
0.0937645
0.0937382
0.0937208
0.0937112
0.093706
0.0937029
0.0937
0.0936958
0.0936895
0.0936812
0.0936724
0.093665
0.0936602
0.093658
0.0934801
0.093481
0.0934834
0.0934879
0.0934958
0.0935085
0.0935277
0.0935558
0.0935951
0.0936462
0.0937023
0.0937461
0.0937643
0.093765
0.0937643
0.0937684
0.0937909
0.0937979
0.0937624
0.0937252
0.0937026
0.093692
0.093688
0.0936871
0.0936867
0.093685
0.0936811
0.0936752
0.0936684
0.0936624
0.0936583
0.0936564
0.0934797
0.0934806
0.093483
0.0934876
0.0934952
0.0935075
0.093526
0.0935529
0.0935898
0.0936369
0.0936877
0.093728
0.0937469
0.0937517
0.0937551
0.093765
0.0938024
0.0938112
0.0937619
0.0937103
0.0936808
0.0936691
0.0936666
0.0936681
0.0936704
0.0936716
0.0936705
0.0936671
0.0936626
0.0936582
0.0936548
0.0936531
0.0934784
0.0934794
0.0934816
0.0934855
0.0934922
0.0935028
0.0935189
0.0935426
0.0935754
0.0936177
0.0936646
0.0937041
0.0937267
0.0937375
0.0937452
0.0937631
0.0938191
0.0938303
0.0937654
0.0936959
0.0936573
0.0936441
0.093643
0.093647
0.0936521
0.0936562
0.0936579
0.0936572
0.0936548
0.0936519
0.0936493
0.0936477
0.0934761
0.0934769
0.0934787
0.0934817
0.0934865
0.0934942
0.0935062
0.0935246
0.0935516
0.0935886
0.0936335
0.0936754
0.0937046
0.0937231
0.0937343
0.0937621
0.0938404
0.0938576
0.0937789
0.0936888
0.093637
0.0936199
0.0936195
0.0936255
0.0936332
0.0936401
0.0936447
0.0936464
0.0936459
0.0936439
0.0936417
0.0936401
0.093472
0.0934726
0.0934738
0.0934757
0.0934786
0.0934831
0.0934904
0.0935025
0.093522
0.0935527
0.0935963
0.0936436
0.0936822
0.0937088
0.0937212
0.0937606
0.0938644
0.0938967
0.0938127
0.0937015
0.0936305
0.0936034
0.0936003
0.0936067
0.0936156
0.0936236
0.0936294
0.0936323
0.0936328
0.0936315
0.0936296
0.0936281
0.0934708
0.0934706
0.0934706
0.0934708
0.0934718
0.0934738
0.0934776
0.0934845
0.0934972
0.0935208
0.0935613
0.0936135
0.0936622
0.0936947
0.0937041
0.0937541
0.0938852
0.0939503
0.0938823
0.0937561
0.0936575
0.0936077
0.0935929
0.0935961
0.0936054
0.0936143
0.0936201
0.0936224
0.0936216
0.093619
0.0936161
0.0936142
0.0934819
0.0934811
0.0934799
0.0934786
0.0934776
0.0934774
0.0934783
0.0934814
0.0934886
0.0935051
0.0935394
0.0935922
0.0936476
0.0936799
0.0936803
0.093734
0.0938866
0.0940084
0.0940003
0.0938894
0.0937639
0.093671
0.0936157
0.0935894
0.0935813
0.093581
0.0935829
0.0935843
0.0935849
0.0935849
0.0935849
0.0935849
0.0934987
0.0934981
0.0934969
0.0934953
0.0934936
0.0934919
0.0934906
0.0934906
0.0934937
0.0935052
0.0935336
0.0935835
0.0936387
0.0936626
0.0936498
0.0936888
0.0938344
0.0940184
0.0941317
0.0941231
0.0940372
0.0939318
0.0938358
0.0937597
0.0937053
0.0936693
0.093649
0.0936412
0.0936423
0.0936481
0.0936544
0.0936579
0.0935108
0.0935105
0.0935097
0.0935085
0.0935067
0.0935046
0.0935025
0.0935015
0.0935034
0.0935124
0.0935365
0.0935807
0.0936309
0.0936492
0.0936288
0.0936315
0.09371
0.093877
0.0940855
0.0942505
0.0943324
0.094348
0.0943248
0.0942831
0.0942355
0.0941897
0.0941498
0.0941188
0.0940975
0.0940848
0.0940783
0.0940759
0.0935206
0.0935203
0.0935196
0.0935184
0.0935164
0.0935139
0.0935114
0.09351
0.0935116
0.0935197
0.0935405
0.0935787
0.0936249
0.0936492
0.0936394
0.0936252
0.0936346
0.0936986
0.0938348
0.0940174
0.094197
0.0943421
0.0944454
0.0945115
0.0945469
0.0945582
0.0945517
0.0945344
0.0945123
0.0944913
0.0944758
0.0944682
0.0935301
0.0935299
0.0935292
0.0935277
0.0935253
0.0935221
0.0935188
0.0935167
0.0935177
0.0935248
0.0935427
0.0935754
0.0936176
0.0936478
0.0936523
0.0936426
0.0936345
0.0936569
0.0937312
0.0938535
0.0940036
0.0941583
0.0943006
0.0944205
0.0945141
0.0945806
0.0946217
0.0946416
0.0946458
0.0946409
0.0946337
0.0946289
0.0935411
0.093541
0.0935403
0.0935384
0.0935352
0.0935307
0.093526
0.0935224
0.0935221
0.0935278
0.0935429
0.0935706
0.0936081
0.0936403
0.0936541
0.0936519
0.0936405
0.0936442
0.0936898
0.0937821
0.0939087
0.0940535
0.0942022
0.0943427
0.0944649
0.0945621
0.0946315
0.0946747
0.0946964
0.0947033
0.0947026
0.0947004
0.093558
0.093558
0.0935571
0.0935543
0.0935492
0.093542
0.0935343
0.0935283
0.093526
0.0935295
0.0935416
0.0935647
0.0935968
0.0936274
0.0936452
0.0936483
0.0936409
0.0936445
0.0936812
0.0937575
0.0938667
0.0939981
0.0941413
0.0942871
0.0944248
0.0945438
0.0946362
0.0946991
0.094735
0.0947505
0.0947539
0.0947529
0.0935867
0.0935869
0.0935855
0.0935808
0.093572
0.0935597
0.0935465
0.0935358
0.0935301
0.0935309
0.0935398
0.0935582
0.0935847
0.0936116
0.0936293
0.0936356
0.0936359
0.0936495
0.0936915
0.0937658
0.0938675
0.0939887
0.0941228
0.0942639
0.0944041
0.0945333
0.0946408
0.0947194
0.0947681
0.0947919
0.0947992
0.0947992
0.0936323
0.0936325
0.0936301
0.0936224
0.093608
0.093588
0.0935659
0.0935473
0.0935359
0.0935328
0.0935382
0.093552
0.0935728
0.093595
0.0936112
0.0936213
0.0936344
0.0936656
0.0937212
0.0938015
0.0939015
0.0940158
0.0941402
0.094272
0.0944067
0.0945365
0.0946508
0.0947398
0.0947987
0.0948298
0.0948408
0.0948419
0.0936965
0.0936965
0.0936926
0.0936812
0.0936607
0.0936319
0.093599
0.0935687
0.0935474
0.0935375
0.093538
0.0935471
0.0935627
0.093581
0.093598
0.0936178
0.0936512
0.0937052
0.0937776
0.0938658
0.0939655
0.0940732
0.0941872
0.094307
0.094431
0.0945544
0.0946682
0.0947618
0.0948277
0.0948649
0.0948795
0.0948815
0.093778
0.0937777
0.0937725
0.0937587
0.0937343
0.0936992
0.0936567
0.0936132
0.0935769
0.0935546
0.0935469
0.0935503
0.0935623
0.0935808
0.0936057
0.0936441
0.0937037
0.0937806
0.0938672
0.0939603
0.0940572
0.0941567
0.0942586
0.0943641
0.0944739
0.094586
0.0946935
0.0947865
0.0948557
0.0948975
0.0949152
0.0949182
0.0938749
0.0938742
0.093869
0.0938564
0.0938337
0.0937992
0.0937532
0.0936997
0.0936474
0.0936072
0.0935872
0.0935843
0.093595
0.0936193
0.093659
0.093721
0.0938049
0.0938982
0.0939915
0.0940834
0.0941733
0.0942617
0.0943496
0.0944393
0.0945326
0.0946297
0.0947263
0.094814
0.0948831
0.0949275
0.0949478
0.094952
0.0939862
0.0939852
0.0939824
0.0939762
0.093963
0.0939381
0.0938982
0.0938439
0.093782
0.093725
0.0936916
0.0936821
0.0936928
0.0937247
0.0937792
0.0938596
0.0939572
0.0940552
0.0941457
0.0942296
0.0943082
0.0943829
0.0944556
0.0945285
0.0946043
0.0946843
0.0947666
0.0948449
0.0949103
0.094955
0.0949774
0.0949827
0.0941138
0.0941128
0.0941154
0.0941204
0.0941225
0.094114
0.0940888
0.0940446
0.0939852
0.0939218
0.0938793
0.0938641
0.0938732
0.0939085
0.0939692
0.0940542
0.0941503
0.0942408
0.0943201
0.0943908
0.094455
0.0945146
0.0945716
0.094628
0.0946863
0.0947484
0.0948142
0.0948799
0.094938
0.0949806
0.0950038
0.0950103
0.0942635
0.0942634
0.0942734
0.0942913
0.094309
0.0943176
0.0943102
0.094283
0.0942374
0.0941811
0.0941382
0.094119
0.0941244
0.0941557
0.0942108
0.0942859
0.0943673
0.0944411
0.0945038
0.0945583
0.0946067
0.094651
0.0946928
0.0947336
0.0947756
0.0948205
0.0948691
0.0949198
0.0949675
0.0950051
0.0950275
0.0950347
0.0944446
0.0944473
0.0944657
0.0944926
0.0945191
0.094538
0.0945439
0.0945331
0.0945055
0.0944654
0.0944305
0.0944118
0.0944129
0.0944351
0.0944761
0.0945315
0.0945905
0.0946429
0.0946867
0.0947242
0.0947571
0.0947869
0.0948147
0.0948416
0.0948691
0.0948984
0.0949306
0.0949654
0.095
0.0950296
0.0950488
0.095056
0.0946689
0.0946774
0.0946995
0.0947245
0.0947477
0.0947657
0.0947752
0.094774
0.0947615
0.0947394
0.0947177
0.0947044
0.0947032
0.0947154
0.0947391
0.0947715
0.0948059
0.0948361
0.0948612
0.0948826
0.0949012
0.0949179
0.0949334
0.0949483
0.0949633
0.0949793
0.0949969
0.0950164
0.0950368
0.0950554
0.0950689
0.0950746
0.0949476
0.0949528
0.0949629
0.0949731
0.0949823
0.0949896
0.094994
0.0949947
0.0949915
0.0949848
0.0949776
0.0949728
0.0949721
0.0949758
0.0949833
0.0949937
0.0950047
0.0950144
0.0950225
0.0950293
0.0950352
0.0950405
0.0950454
0.09505
0.0950547
0.0950597
0.0950651
0.0950712
0.0950776
0.0950839
0.0950887
0.0950911
)
;

boundaryField
{
    movingWall
    {
        type            fixedValue;
        value           uniform 0.0951;
    }
    fixedWalls
    {
        type            zeroGradient;
    }
    floor
    {
        type            zeroGradient;
    }
    frontAndBack
    {
        type            empty;
    }
}


// ************************************************************************* //
