/*--------------------------------*- C++ -*----------------------------------*\
| =========                 |                                                 |
| \\      /  F ield         | OpenFOAM: The Open Source CFD Toolbox           |
|  \\    /   O peration     | Version:  2212                                  |
|   \\  /    A nd           | Website:  www.openfoam.com                      |
|    \\/     M anipulation  |                                                 |
\*---------------------------------------------------------------------------*/
FoamFile
{
    version     2.0;
    format      ascii;
    arch        "LSB;label=64;scalar=64";
    class       volVectorField;
    location    "90";
    object      U;
}
// * * * * * * * * * * * * * * * * * * * * * * * * * * * * * * * * * * * * * //

dimensions      [0 1 -1 0 0 0 0];

internalField   nonuniform List<vector> 
1024
(
(-7.43937e-05 6.30556e-05 0)
(-0.000672396 0.000174257 0)
(-0.00158363 0.000171458 0)
(-0.00229113 6.97108e-05 0)
(-0.00237286 -5.19265e-05 0)
(-0.00174368 -0.000143273 0)
(-0.000693407 -0.000122034 0)
(-1.47979e-05 8.52657e-06 0)
(-0.000723881 0.000140335 0)
(-0.00332411 0.000223707 0)
(-0.00718707 0.00022512 0)
(-0.0111086 0.000199707 0)
(-0.0140877 0.000137991 0)
(-0.0151193 2.84447e-05 0)
(-0.0132841 -9.81679e-05 0)
(-0.00780476 -0.000192122 0)
(0.000634082 -0.000221765 0)
(0.00881951 -0.000128686 0)
(0.0120944 -2.974e-05 0)
(0.0130306 5.50612e-05 0)
(0.0123335 0.00011085 0)
(0.0108502 0.000130928 0)
(0.00914616 0.000133061 0)
(0.00748291 0.000127544 0)
(0.00596446 0.000116698 0)
(0.00463819 0.000100213 0)
(0.00352076 8.05021e-05 0)
(0.00258042 6.74781e-05 0)
(0.00172942 7.40633e-05 0)
(0.000911594 8.66236e-05 0)
(0.000254731 4.61027e-05 0)
(-2.63766e-05 -3.67814e-05 0)
(-0.00023292 0.000710324 0)
(-0.00178144 0.00149631 0)
(-0.0038541 0.00138545 0)
(-0.00544718 0.000624369 0)
(-0.00577237 -0.000270531 0)
(-0.00474789 -0.000894726 0)
(-0.00298052 -0.000849155 0)
(-0.001891 -2.76887e-05 0)
(-0.00382815 0.00115851 0)
(-0.0103599 0.00205364 0)
(-0.0198925 0.00215528 0)
(-0.0289734 0.00169122 0)
(-0.0350262 0.000909748 0)
(-0.0362432 -4.66582e-05 0)
(-0.0310918 -0.00105852 0)
(-0.018865 -0.00186007 0)
(-0.000271222 -0.00229231 0)
(0.018871 -0.00163858 0)
(0.0271295 -0.000719326 0)
(0.0307098 -2.70023e-06 0)
(0.0305504 0.000519008 0)
(0.0283238 0.000843725 0)
(0.0251123 0.0010336 0)
(0.0215524 0.00114169 0)
(0.0179808 0.00119266 0)
(0.0145864 0.00119527 0)
(0.0114693 0.00117016 0)
(0.00863182 0.00117291 0)
(0.00597907 0.00125242 0)
(0.00345885 0.00129777 0)
(0.00134885 0.000989687 0)
(0.000111359 0.00028401 0)
(-0.000322267 0.00203728 0)
(-0.00243335 0.00389641 0)
(-0.00514155 0.00347325 0)
(-0.00722661 0.00162075 0)
(-0.00782354 -0.000467481 0)
(-0.00699258 -0.00181217 0)
(-0.00568666 -0.00162617 0)
(-0.00559701 0.00034773 0)
(-0.00947848 0.00334809 0)
(-0.018791 0.00546251 0)
(-0.0312173 0.00549011 0)
(-0.0422709 0.0040156 0)
(-0.048719 0.00184253 0)
(-0.0485418 -0.000571137 0)
(-0.0401366 -0.00296002 0)
(-0.0241286 -0.0047969 0)
(-0.00133324 -0.00591081 0)
(0.0225565 -0.00445638 0)
(0.0339826 -0.00229216 0)
(0.0401762 -0.000579238 0)
(0.0417206 0.000740005 0)
(0.0402924 0.00167402 0)
(0.0371699 0.00233084 0)
(0.0331544 0.00280437 0)
(0.0287135 0.00314687 0)
(0.0241316 0.00338431 0)
(0.0195809 0.00356079 0)
(0.0151352 0.00377321 0)
(0.0107846 0.00409338 0)
(0.00655256 0.00428735 0)
(0.00283504 0.00362517 0)
(0.000332817 0.00154994 0)
(-0.000311899 0.00382973 0)
(-0.00253216 0.00710905 0)
(-0.00543879 0.00629292 0)
(-0.00776254 0.00308137 0)
(-0.00872143 -0.000409508 0)
(-0.00861978 -0.00238373 0)
(-0.00871932 -0.00168264 0)
(-0.0108436 0.00193541 0)
(-0.0168031 0.00694218 0)
(-0.0271276 0.0100557 0)
(-0.0396561 0.00964849 0)
(-0.0501012 0.00667376 0)
(-0.0551461 0.00257107 0)
(-0.0527898 -0.00176562 0)
(-0.042093 -0.00574982 0)
(-0.0246734 -0.00866569 0)
(-0.00171576 -0.0104327 0)
(0.0219428 -0.00816853 0)
(0.034709 -0.00465823 0)
(0.0425379 -0.00181712 0)
(0.0458563 0.000520878 0)
(0.0457777 0.00230119 0)
(0.0435864 0.0036671 0)
(0.0400967 0.00475827 0)
(0.035787 0.00566306 0)
(0.0309518 0.00643391 0)
(0.0257823 0.00714088 0)
(0.0203979 0.00790729 0)
(0.0148675 0.00879998 0)
(0.00929976 0.00942562 0)
(0.00421312 0.00845453 0)
(0.000555688 0.00414265 0)
(-0.00023627 0.00574465 0)
(-0.00223892 0.0107296 0)
(-0.00505802 0.00965574 0)
(-0.00752198 0.00510797 0)
(-0.0090425 0.000342172 0)
(-0.0101788 -0.00190913 0)
(-0.012284 -0.000215472 0)
(-0.0167598 0.00522164 0)
(-0.0238123 0.0115974 0)
(-0.0335699 0.015123 0)
(-0.0444783 0.013946 0)
(-0.05297 0.00916702 0)
(-0.0559744 0.00282776 0)
(-0.0517279 -0.00361805 0)
(-0.040204 -0.00916496 0)
(-0.0230451 -0.0130169 0)
(-0.00199672 -0.0152045 0)
(0.0192152 -0.0122746 0)
(0.0321356 -0.00755925 0)
(0.0405652 -0.00359185 0)
(0.0448358 -0.00020642 0)
(0.04585 0.00254112 0)
(0.0446503 0.00476511 0)
(0.0419948 0.00665921 0)
(0.0382987 0.00836145 0)
(0.033803 0.00996133 0)
(0.02867 0.0115561 0)
(0.0230265 0.0132806 0)
(0.0169882 0.0151616 0)
(0.010737 0.0165728 0)
(0.004909 0.015371 0)
(0.000654627 0.00803273 0)
(-0.000160745 0.00755973 0)
(-0.00185365 0.0144863 0)
(-0.00450033 0.0134962 0)
(-0.00715861 0.00794097 0)
(-0.00949934 0.00235104 0)
(-0.0121963 0.000320292 0)
(-0.0162396 0.00329104 0)
(-0.0218517 0.00983509 0)
(-0.0288278 0.0166897 0)
(-0.0371711 0.0200819 0)
(-0.0458625 0.0179064 0)
(-0.0521541 0.011206 0)
(-0.0534085 0.00254617 0)
(-0.0482124 -0.0059812 0)
(-0.0370578 -0.0129837 0)
(-0.0211357 -0.0176045 0)
(-0.00281123 -0.019962 0)
(0.0155643 -0.016597 0)
(0.0281293 -0.0108772 0)
(0.0366077 -0.00575459 0)
(0.0410859 -0.00128471 0)
(0.0425906 0.00245801 0)
(0.0419715 0.00559545 0)
(0.039962 0.00838871 0)
(0.0369038 0.0110455 0)
(0.0329558 0.0137061 0)
(0.0282206 0.0164962 0)
(0.0228005 0.0195462 0)
(0.0168292 0.022793 0)
(0.0105504 0.0252526 0)
(0.00470171 0.023736 0)
(0.000569011 0.0126831 0)
(-0.00012883 0.00928483 0)
(-0.00161358 0.0183817 0)
(-0.00417454 0.0179508 0)
(-0.00716376 0.0119701 0)
(-0.0104358 0.00619669 0)
(-0.0144439 0.00472536 0)
(-0.0193614 0.00829858 0)
(-0.0249736 0.0150279 0)
(-0.0311077 0.0217014 0)
(-0.0377913 0.0245909 0)
(-0.0444047 0.0213198 0)
(-0.0489272 0.0127479 0)
(-0.0491663 0.00185342 0)
(-0.0439722 -0.00864038 0)
(-0.0338724 -0.0170264 0)
(-0.0197391 -0.0222663 0)
(-0.00430425 -0.0245974 0)
(0.0113393 -0.0211043 0)
(0.0233531 -0.0145984 0)
(0.0317245 -0.0082487 0)
(0.036193 -0.00254853 0)
(0.037744 0.00223789 0)
(0.037257 0.00630357 0)
(0.0355455 0.0100157 0)
(0.0329328 0.0136878 0)
(0.0295096 0.0175361 0)
(0.0253095 0.0217225 0)
(0.0203896 0.0263561 0)
(0.0148799 0.0312138 0)
(0.00907518 0.0347794 0)
(0.00379176 0.0326016 0)
(0.000358074 0.0172791 0)
(-0.000131786 0.0111123 0)
(-0.00154144 0.0226795 0)
(-0.00412859 0.0233182 0)
(-0.00748458 0.0174845 0)
(-0.0114276 0.0118142 0)
(-0.0159696 0.0104956 0)
(-0.0208465 0.0139258 0)
(-0.0257616 0.020198 0)
(-0.0306698 0.0262874 0)
(-0.0357482 0.0285198 0)
(-0.040741 0.0242263 0)
(-0.0441878 0.0139673 0)
(-0.0441921 0.000996175 0)
(-0.0396686 -0.0113785 0)
(-0.0309986 -0.021121 0)
(-0.0190529 -0.02684 0)
(-0.00639195 -0.0290085 0)
(0.00654175 -0.0257486 0)
(0.0178286 -0.0187354 0)
(0.0260586 -0.0111136 0)
(0.0305902 -0.00397528 0)
(0.0321298 0.00201707 0)
(0.03158 0.00705773 0)
(0.029949 0.0116738 0)
(0.0276209 0.0163404 0)
(0.0246542 0.0213918 0)
(0.0210235 0.0270479 0)
(0.0167357 0.0333813 0)
(0.0119099 0.0399121 0)
(0.00689158 0.0443786 0)
(0.00255062 0.0409359 0)
(0.000126283 0.0210479 0)
(-0.000130777 0.0131884 0)
(-0.00147428 0.0276285 0)
(-0.00407863 0.0298378 0)
(-0.00767454 0.0245132 0)
(-0.0119007 0.0188086 0)
(-0.0163937 0.0170094 0)
(-0.0206999 0.0195723 0)
(-0.0245415 0.0248717 0)
(-0.0280181 0.0301656 0)
(-0.0315802 0.0318402 0)
(-0.0354019 0.0268324 0)
(-0.0384408 0.0151927 0)
(-0.038858 0.000287503 0)
(-0.0354501 -0.0139683 0)
(-0.0285122 -0.0250544 0)
(-0.0190998 -0.0311279 0)
(-0.00899023 -0.0330734 0)
(0.00108936 -0.0303994 0)
(0.0113958 -0.0232733 0)
(0.0194012 -0.0144353 0)
(0.0241599 -0.00565481 0)
(0.0259 0.00180286 0)
(0.0253518 0.00791163 0)
(0.0238178 0.0134116 0)
(0.0217802 0.0190051 0)
(0.0192771 0.0251973 0)
(0.0162351 0.0322991 0)
(0.012625 0.0403242 0)
(0.00857436 0.0484004 0)
(0.00450276 0.0532838 0)
(0.00130156 0.0478015 0)
(-5.26696e-05 0.0234801 0)
(-9.14125e-05 0.0153518 0)
(-0.00118867 0.0330388 0)
(-0.00358255 0.0374073 0)
(-0.00714757 0.0328654 0)
(-0.0113686 0.0267817 0)
(-0.0156044 0.0237911 0)
(-0.0192452 0.0247816 0)
(-0.0219617 0.0286164 0)
(-0.0239342 0.032995 0)
(-0.0259603 0.0344586 0)
(-0.0288364 0.0293789 0)
(-0.0319499 0.0168487 0)
(-0.0332729 0.000117479 0)
(-0.0313474 -0.0161164 0)
(-0.0264789 -0.0285203 0)
(-0.0198873 -0.0348634 0)
(-0.0123886 -0.036741 0)
(-0.00469414 -0.0347249 0)
(0.00389983 -0.0281014 0)
(0.011478 -0.0183051 0)
(0.0165929 -0.00777769 0)
(0.0189561 0.00146676 0)
(0.0186238 0.00873602 0)
(0.0173888 0.0150843 0)
(0.0158145 0.0215258 0)
(0.0138701 0.0287859 0)
(0.0114379 0.0372875 0)
(0.00848979 0.0469267 0)
(0.0052238 0.0562299 0)
(0.00218967 0.060762 0)
(0.000239045 0.0524294 0)
(-0.000149867 0.0243669 0)
(-9.09088e-06 0.0169878 0)
(-0.000565123 0.0378686 0)
(-0.00225855 0.0452061 0)
(-0.00528337 0.0421144 0)
(-0.00920962 0.0355696 0)
(-0.0132305 0.0307813 0)
(-0.0165135 0.0294451 0)
(-0.0184932 0.03117 0)
(-0.0192024 0.0343638 0)
(-0.019662 0.0360434 0)
(-0.0215365 0.0319664 0)
(-0.0249553 0.0193916 0)
(-0.0275349 0.000975777 0)
(-0.027433 -0.0174193 0)
(-0.0249972 -0.0310917 0)
(-0.0214153 -0.0377021 0)
(-0.0166088 -0.0398458 0)
(-0.0109019 -0.0384234 0)
(-0.00471306 -0.0329038 0)
(0.00208082 -0.0228076 0)
(0.00744851 -0.0107443 0)
(0.0110806 0.000819499 0)
(0.0113822 0.0092192 0)
(0.010754 0.0163117 0)
(0.00986843 0.0235595 0)
(0.00855777 0.0318956 0)
(0.0066942 0.0418098 0)
(0.00431579 0.0529448 0)
(0.00184163 0.0629072 0)
(1.65437e-05 0.0658873 0)
(-0.000597145 0.0540157 0)
(-0.000202392 0.0238482 0)
(8.07518e-05 0.0173207 0)
(0.0002502 0.0401636 0)
(-0.000203765 0.0510185 0)
(-0.00186093 0.0509287 0)
(-0.00477388 0.0449601 0)
(-0.0083291 0.0384949 0)
(-0.0115744 0.0342618 0)
(-0.0135825 0.0329562 0)
(-0.0138871 0.0341486 0)
(-0.01323 0.0360623 0)
(-0.014105 0.0344205 0)
(-0.0178883 0.023202 0)
(-0.0219002 0.00341217 0)
(-0.0238617 -0.0173608 0)
(-0.0241801 -0.0322331 0)
(-0.0236837 -0.039244 0)
(-0.0216687 -0.0420981 0)
(-0.0181581 -0.0415711 0)
(-0.0136921 -0.0366622 0)
(-0.00864105 -0.0276607 0)
(-0.00364064 -0.015621 0)
(0.00132046 -0.000959457 0)
(0.00376294 0.00893382 0)
(0.00396729 0.0165305 0)
(0.00374341 0.0246299 0)
(0.00282311 0.0343 0)
(0.00130781 0.0458918 0)
(-0.00044295 0.0584884 0)
(-0.00168384 0.0673939 0)
(-0.00195061 0.0671425 0)
(-0.0012856 0.052247 0)
(-0.000249962 0.0217691 0)
(0.000158117 0.0157985 0)
(0.000993018 0.0383725 0)
(0.00182452 0.0516526 0)
(0.00200589 0.0554994 0)
(0.0010899 0.0526644 0)
(-0.000899129 0.0467605 0)
(-0.00345657 0.0405556 0)
(-0.00565544 0.0359033 0)
(-0.00663701 0.0337754 0)
(-0.00620303 0.03485 0)
(-0.00708434 0.0368273 0)
(-0.0114025 0.0285752 0)
(-0.0168183 0.00790254 0)
(-0.0208697 -0.0153575 0)
(-0.0241026 -0.0313631 0)
(-0.0266143 -0.0390405 0)
(-0.0274558 -0.0430371 0)
(-0.0263818 -0.0437521 0)
(-0.0237367 -0.0399541 0)
(-0.019949 -0.0317714 0)
(-0.0154909 -0.0203215 0)
(-0.0106838 -0.00739329 0)
(-0.00566654 0.00503297 0)
(-0.00470865 0.015031 0)
(-0.00442893 0.025337 0)
(-0.00488773 0.0370519 0)
(-0.00556099 0.0496278 0)
(-0.00581617 0.0609696 0)
(-0.00521928 0.0669389 0)
(-0.00375522 0.0630991 0)
(-0.00187109 0.0462806 0)
(-0.000284816 0.0179542 0)
(0.000176551 0.0124382 0)
(0.00137143 0.0320151 0)
(0.00314282 0.0459288 0)
(0.00491529 0.0529046 0)
(0.00610475 0.053817 0)
(0.00640917 0.0508049 0)
(0.00582254 0.045885 0)
(0.00462548 0.0405694 0)
(0.00318739 0.0362701 0)
(0.00196543 0.035575 0)
(-0.000871762 0.0405748 0)
(-0.00614976 0.0358545 0)
(-0.0127266 0.014643 0)
(-0.0187165 -0.0109459 0)
(-0.0246908 -0.0279972 0)
(-0.029902 -0.0366637 0)
(-0.0335169 -0.0421267 0)
(-0.0350384 -0.0443679 0)
(-0.0345275 -0.0421296 0)
(-0.0323108 -0.0355464 0)
(-0.0287354 -0.0253427 0)
(-0.0243883 -0.0126633 0)
(-0.0198447 0.000915314 0)
(-0.0171159 0.0134206 0)
(-0.0156575 0.0254268 0)
(-0.0144208 0.0376212 0)
(-0.0129953 0.0489445 0)
(-0.0109706 0.057212 0)
(-0.0082518 0.05928 0)
(-0.00512038 0.0522989 0)
(-0.00221529 0.0354959 0)
(-0.000276826 0.0124374 0)
(0.000124511 0.0083005 0)
(0.00126382 0.0225254 0)
(0.00336844 0.034523 0)
(0.00607275 0.0427453 0)
(0.00879785 0.0467273 0)
(0.0110422 0.0472307 0)
(0.012416 0.0454651 0)
(0.0126292 0.0426691 0)
(0.0113995 0.0403398 0)
(0.00861749 0.0410795 0)
(0.00382153 0.0474889 0)
(-0.00250021 0.0451964 0)
(-0.00972864 0.023518 0)
(-0.0173708 -0.00355554 0)
(-0.0254377 -0.0219528 0)
(-0.0327005 -0.0318723 0)
(-0.038665 -0.0389117 0)
(-0.0426579 -0.042764 0)
(-0.0444762 -0.042313 0)
(-0.0443217 -0.0378009 0)
(-0.0423123 -0.0297234 0)
(-0.0387994 -0.0187135 0)
(-0.0343406 -0.00567111 0)
(-0.0293685 0.00807163 0)
(-0.0256095 0.0199573 0)
(-0.02185 0.0307287 0)
(-0.0179446 0.0392643 0)
(-0.0137371 0.0438124 0)
(-0.0093724 0.042396 0)
(-0.0052475 0.0339811 0)
(-0.001997 0.0201304 0)
(-0.00020274 0.00571511 0)
(7.96697e-05 0.00444445 0)
(0.000979511 0.0121713 0)
(0.00286511 0.0197507 0)
(0.00561081 0.026764 0)
(0.00875387 0.0325549 0)
(0.0117129 0.0369036 0)
(0.0138914 0.0400517 0)
(0.0147442 0.0425257 0)
(0.0138103 0.0452271 0)
(0.0109222 0.0498043 0)
(0.00613928 0.0574612 0)
(0.000456947 0.0560674 0)
(-0.00666654 0.034346 0)
(-0.015415 0.00671538 0)
(-0.0249456 -0.013551 0)
(-0.0331546 -0.0249315 0)
(-0.0404521 -0.0334618 0)
(-0.0461237 -0.0388156 0)
(-0.0497389 -0.0401976 0)
(-0.0514103 -0.0381587 0)
(-0.0510147 -0.0332977 0)
(-0.0485036 -0.026054 0)
(-0.0439953 -0.0167919 0)
(-0.0378063 -0.00591806 0)
(-0.0306267 0.00583766 0)
(-0.023689 0.0156533 0)
(-0.017203 0.0214259 0)
(-0.0114289 0.0232385 0)
(-0.00659344 0.0205017 0)
(-0.0029599 0.0137319 0)
(-0.000797242 0.00588869 0)
(-9.6378e-06 0.000729226 0)
(7.67981e-05 0.00140313 0)
(0.000806814 0.00374243 0)
(0.0023025 0.00707001 0)
(0.00452467 0.0121653 0)
(0.00717598 0.0189694 0)
(0.00980459 0.026802 0)
(0.0118916 0.0348184 0)
(0.0129612 0.0424229 0)
(0.0126812 0.0496334 0)
(0.0110099 0.0572921 0)
(0.00806513 0.0656413 0)
(0.004845 0.065693 0)
(-0.000541061 0.046269 0)
(-0.00933074 0.0186383 0)
(-0.0198761 -0.00274442 0)
(-0.0282964 -0.0168178 0)
(-0.0353925 -0.0267987 0)
(-0.041278 -0.0335417 0)
(-0.0452319 -0.0367441 0)
(-0.0474628 -0.0373508 0)
(-0.0478859 -0.036351 0)
(-0.046369 -0.0343171 0)
(-0.0428873 -0.0315182 0)
(-0.0375898 -0.0280074 0)
(-0.030873 -0.0236747 0)
(-0.0234274 -0.0182532 0)
(-0.0161236 -0.0114849 0)
(-0.00972858 -0.00556166 0)
(-0.00478447 -0.00163174 0)
(-0.0016395 0.000133943 0)
(-0.000236125 0.000492598 0)
(4.56262e-05 0.000262982 0)
(7.4362e-05 -0.00105516 0)
(0.000673314 -0.00259156 0)
(0.00182033 -0.00215525 0)
(0.0035237 0.00164783 0)
(0.00563567 0.00903341 0)
(0.00785774 0.018961 0)
(0.00984083 0.0300414 0)
(0.0112309 0.0409067 0)
(0.0118063 0.0509278 0)
(0.0116125 0.0603936 0)
(0.0108355 0.0689908 0)
(0.0101869 0.0699977 0)
(0.00791855 0.055517 0)
(0.00249052 0.0312869 0)
(-0.00681841 0.00666496 0)
(-0.0174498 -0.0099466 0)
(-0.0234632 -0.0210497 0)
(-0.029107 -0.0286667 0)
(-0.0329011 -0.0330696 0)
(-0.0351564 -0.0351276 0)
(-0.0360796 -0.0361485 0)
(-0.0356844 -0.0368553 0)
(-0.033989 -0.0375402 0)
(-0.0310508 -0.0381227 0)
(-0.0270135 -0.0382131 0)
(-0.022126 -0.0372043 0)
(-0.0167381 -0.0344084 0)
(-0.0113527 -0.0293089 0)
(-0.00658547 -0.0218889 0)
(-0.00298434 -0.0132502 0)
(-0.00086093 -0.00564562 0)
(-4.57622e-05 -0.000920421 0)
(6.07776e-05 -0.00281536 0)
(0.000527256 -0.00678643 0)
(0.00139566 -0.00810641 0)
(0.00270369 -0.00560541 0)
(0.00447615 0.00154625 0)
(0.00652646 0.0123471 0)
(0.00856025 0.0250307 0)
(0.0103196 0.0377794 0)
(0.011665 0.0494332 0)
(0.0127168 0.0598069 0)
(0.0137749 0.0682763 0)
(0.0153221 0.0697888 0)
(0.0158886 0.0585385 0)
(0.0139482 0.03822 0)
(0.00947477 0.0175709 0)
(4.68539e-05 -0.00186244 0)
(-0.00753539 -0.0163819 0)
(-0.0137719 -0.0244738 0)
(-0.0184365 -0.0299155 0)
(-0.0213569 -0.0330276 0)
(-0.0230744 -0.035269 0)
(-0.0237788 -0.0374734 0)
(-0.0236403 -0.0401128 0)
(-0.0227115 -0.0432301 0)
(-0.0209508 -0.0463675 0)
(-0.0183606 -0.048653 0)
(-0.0150475 -0.0489618 0)
(-0.0112519 -0.0460617 0)
(-0.00735597 -0.0390557 0)
(-0.00386776 -0.0281927 0)
(-0.00136129 -0.0156225 0)
(-0.000119178 -0.0044468 0)
(4.81301e-05 -0.00405226 0)
(0.000416734 -0.00972351 0)
(0.00109108 -0.0122896 0)
(0.00210411 -0.0107797 0)
(0.0035299 -0.00456407 0)
(0.00543893 0.00648978 0)
(0.00751257 0.0200211 0)
(0.00956479 0.0338418 0)
(0.0115144 0.0463481 0)
(0.0135542 0.0569759 0)
(0.01609 0.0649901 0)
(0.0194795 0.0666191 0)
(0.022502 0.0575241 0)
(0.023582 0.0400448 0)
(0.0221569 0.0211717 0)
(0.0193061 0.00459647 0)
(0.0117207 -0.00917788 0)
(0.00419722 -0.0187696 0)
(-0.00253432 -0.0257669 0)
(-0.0069248 -0.0299245 0)
(-0.00999366 -0.0330726 0)
(-0.0119934 -0.0360579 0)
(-0.0132372 -0.039467 0)
(-0.0139751 -0.0436859 0)
(-0.014158 -0.048565 0)
(-0.0136241 -0.0533046 0)
(-0.0122436 -0.0566312 0)
(-0.0100062 -0.0567738 0)
(-0.00712384 -0.051899 0)
(-0.00406875 -0.0409797 0)
(-0.00155704 -0.0252002 0)
(-0.000156618 -0.00817937 0)
(4.53873e-05 -0.00493919 0)
(0.000348028 -0.0117488 0)
(0.00084413 -0.0150932 0)
(0.00152609 -0.0142478 0)
(0.00248479 -0.00875905 0)
(0.00407287 0.0016982 0)
(0.00605713 0.015429 0)
(0.00827993 0.0297304 0)
(0.0107033 0.0425302 0)
(0.0135811 0.0529565 0)
(0.0173814 0.0602868 0)
(0.0223907 0.0617543 0)
(0.0275607 0.0541468 0)
(0.0312438 0.039041 0)
(0.0324082 0.0219436 0)
(0.0315323 0.00649069 0)
(0.0267516 -0.00546105 0)
(0.0203807 -0.0138942 0)
(0.0138053 -0.0203028 0)
(0.00787987 -0.0253385 0)
(0.00314283 -0.0293657 0)
(-0.000517949 -0.0331201 0)
(-0.00318403 -0.0369833 0)
(-0.00530183 -0.0415384 0)
(-0.00703098 -0.0471246 0)
(-0.00822414 -0.0532901 0)
(-0.00863478 -0.0589836 0)
(-0.00801403 -0.0622053 0)
(-0.00634665 -0.0603275 0)
(-0.00397297 -0.0509242 0)
(-0.00165082 -0.0336366 0)
(-0.000183811 -0.011789 0)
(4.6812e-05 -0.00560172 0)
(0.000271863 -0.0130458 0)
(0.000523848 -0.0166331 0)
(0.000743244 -0.0160121 0)
(0.00103505 -0.0111162 0)
(0.0019452 -0.00173346 0)
(0.00373581 0.0116162 0)
(0.0060672 0.0257735 0)
(0.008926 0.0383738 0)
(0.0126063 0.0482653 0)
(0.0175953 0.0547733 0)
(0.0241216 0.055918 0)
(0.0312319 0.0493994 0)
(0.0372094 0.0364119 0)
(0.0406903 0.0213373 0)
(0.0415366 0.00762865 0)
(0.0386233 -0.00279888 0)
(0.0333884 -0.0102281 0)
(0.0272586 -0.0159811 0)
(0.0210871 -0.0207118 0)
(0.0154378 -0.0248764 0)
(0.0105651 -0.0288712 0)
(0.00647555 -0.0330197 0)
(0.0030671 -0.0376705 0)
(5.1398e-05 -0.0434217 0)
(-0.00254801 -0.0501994 0)
(-0.00454599 -0.0574444 0)
(-0.00553122 -0.0633453 0)
(-0.00521312 -0.0647671 0)
(-0.00369859 -0.0579508 0)
(-0.00169372 -0.0406464 0)
(-0.000204899 -0.0151013 0)
(4.69789e-05 -0.00602529 0)
(0.000126271 -0.0135421 0)
(-7.59957e-06 -0.0168 0)
(-0.000425025 -0.0159171 0)
(-0.000962562 -0.0114218 0)
(-0.00111145 -0.00356667 0)
(0.000135114 0.00849919 0)
(0.00275106 0.0221435 0)
(0.0062059 0.0340308 0)
(0.0107231 0.0431411 0)
(0.0168906 0.0487558 0)
(0.0248916 0.0495133 0)
(0.033791 0.0438588 0)
(0.0417968 0.0327876 0)
(0.0473021 0.0197816 0)
(0.0496981 0.00784084 0)
(0.0481696 -0.00113041 0)
(0.0438621 -0.0074463 0)
(0.0382466 -0.0123306 0)
(0.0321663 -0.0164757 0)
(0.0261355 -0.0203313 0)
(0.020472 -0.0242287 0)
(0.0153434 -0.0284079 0)
(0.0108089 -0.0331022 0)
(0.00677945 -0.0385909 0)
(0.0031424 -0.0451517 0)
(-0.000179129 -0.0531484 0)
(-0.00268944 -0.0611172 0)
(-0.00382416 -0.0657889 0)
(-0.0033305 -0.0622722 0)
(-0.00174824 -0.0462467 0)
(-0.000229224 -0.0181049 0)
(2.56033e-05 -0.00606716 0)
(-0.000221689 -0.0129813 0)
(-0.00100097 -0.0153914 0)
(-0.00226328 -0.0140421 0)
(-0.00368896 -0.00979867 0)
(-0.0047185 -0.00306786 0)
(-0.00433067 0.00629429 0)
(-0.00182282 0.0179101 0)
(0.00265314 0.0295497 0)
(0.00817315 0.037746 0)
(0.0155177 0.0424423 0)
(0.024961 0.0428167 0)
(0.0355129 0.0379189 0)
(0.0452953 0.0286016 0)
(0.052532 0.0176081 0)
(0.056288 0.00744475 0)
(0.0558642 -0.000115165 0)
(0.0523187 -0.00532884 0)
(0.0472056 -0.00933323 0)
(0.0413708 -0.0127863 0)
(0.0352931 -0.0161065 0)
(0.0292698 -0.0195954 0)
(0.0234925 -0.0234831 0)
(0.0180795 -0.0279757 0)
(0.0130756 -0.0332867 0)
(0.00847982 -0.0396376 0)
(0.00425744 -0.0473067 0)
(0.000468215 -0.0562767 0)
(-0.00219588 -0.0639167 0)
(-0.00291109 -0.0641625 0)
(-0.00188512 -0.0505765 0)
(-0.000276692 -0.0209189 0)
(-4.94818e-05 -0.00542618 0)
(-0.000906415 -0.0109226 0)
(-0.00264567 -0.0122774 0)
(-0.00496082 -0.0106852 0)
(-0.00729905 -0.00708701 0)
(-0.00901341 -0.0018131 0)
(-0.00918639 0.00525802 0)
(-0.00689958 0.0142294 0)
(-0.00186712 0.0242883 0)
(0.00517724 0.0321552 0)
(0.0137212 0.036007 0)
(0.0245681 0.0360487 0)
(0.0366322 0.0318773 0)
(0.0479475 0.0241877 0)
(0.0566382 0.0151095 0)
(0.0615561 0.00668318 0)
(0.0620832 0.000488675 0)
(0.0591978 -0.00371053 0)
(0.0545942 -0.00690275 0)
(0.0491242 -0.00967145 0)
(0.0432309 -0.0123891 0)
(0.0371658 -0.015329 0)
(0.0310894 -0.0187136 0)
(0.0251174 -0.0227462 0)
(0.0193386 -0.0276336 0)
(0.013825 -0.0336113 0)
(0.00863608 -0.0409855 0)
(0.00385697 -0.0499603 0)
(-0.000227649 -0.0595535 0)
(-0.00240624 -0.0638212 0)
(-0.00215986 -0.0537537 0)
(-0.000383007 -0.0237556 0)
(-0.000186734 -0.00386097 0)
(-0.00197855 -0.00720448 0)
(-0.00496238 -0.00757143 0)
(-0.008452 -0.00616706 0)
(-0.0116587 -0.00366297 0)
(-0.013926 -0.000145452 0)
(-0.0142715 0.00458967 0)
(-0.0120783 0.0110123 0)
(-0.00683185 0.0188603 0)
(0.00172185 0.026266 0)
(0.0117303 0.029572 0)
(0.0239125 0.0293832 0)
(0.0373389 0.0259544 0)
(0.0499565 0.0197844 0)
(0.0598568 0.0124972 0)
(0.0657793 0.00571612 0)
(0.0670571 0.000788403 0)
(0.0648686 -0.0025048 0)
(0.0608674 -0.00497826 0)
(0.0558966 -0.00712104 0)
(0.0503708 -0.00924702 0)
(0.0444987 -0.0115911 0)
(0.0383974 -0.0143581 0)
(0.03215 -0.0177512 0)
(0.0258369 -0.0219935 0)
(0.0195543 -0.0273548 0)
(0.0134173 -0.0341945 0)
(0.00756611 -0.0429197 0)
(0.0022532 -0.0532712 0)
(-0.00161308 -0.0613012 0)
(-0.00254624 -0.0557573 0)
(-0.000595679 -0.0268406 0)
(-0.000437903 -0.00106869 0)
(-0.00350068 -0.00149232 0)
(-0.00779989 -0.00119617 0)
(-0.0122541 -0.000683416 0)
(-0.0159973 0.000119133 0)
(-0.0184335 0.00152347 0)
(-0.0189198 0.00403291 0)
(-0.0168053 0.00812887 0)
(-0.0114321 0.0137844 0)
(-0.00215269 0.020133 0)
(0.00981644 0.0231932 0)
(0.0232148 0.0229521 0)
(0.037839 0.0203018 0)
(0.0515577 0.0155439 0)
(0.0624907 0.00990129 0)
(0.0693395 0.00463842 0)
(0.0713763 0.000838168 0)
(0.0699291 -0.00166119 0)
(0.066604 -0.00351031 0)
(0.062218 -0.0050982 0)
(0.057165 -0.00667533 0)
(0.0516286 -0.00843183 0)
(0.0456947 -0.0105433 0)
(0.0394081 -0.0132 0)
(0.0328117 -0.0166345 0)
(0.0259748 -0.0211524 0)
(0.019011 -0.0271802 0)
(0.0120857 -0.0352864 0)
(0.00548946 -0.0457961 0)
(-6.19307e-05 -0.0564602 0)
(-0.00283408 -0.0563654 0)
(-0.000938217 -0.0303048 0)
(-0.000762534 0.00305878 0)
(-0.00492536 0.00564361 0)
(-0.0098081 0.00567608 0)
(-0.0144354 0.00462472 0)
(-0.0181871 0.00354765 0)
(-0.0206941 0.00305143 0)
(-0.0214262 0.00361776 0)
(-0.0196322 0.00565779 0)
(-0.0145252 0.00926964 0)
(-0.00538216 0.0140972 0)
(0.0085718 0.0168978 0)
(0.0229797 0.0168644 0)
(0.0386017 0.0150106 0)
(0.0532656 0.0115448 0)
(0.0651455 0.0073833 0)
(0.0729299 0.00348983 0)
(0.0757948 0.000692098 0)
(0.0751023 -0.00111688 0)
(0.0724249 -0.00242473 0)
(0.0685883 -0.00352533 0)
(0.0639995 -0.00460958 0)
(0.0588457 -0.00582273 0)
(0.0532006 -0.00730319 0)
(0.0470786 -0.00921183 0)
(0.0404707 -0.0117655 0)
(0.0333773 -0.0152795 0)
(0.0258422 -0.0202291 0)
(0.0179859 -0.0273149 0)
(0.0100797 -0.0373033 0)
(0.00280641 -0.0494245 0)
(-0.00246853 -0.0551193 0)
(-0.00131733 -0.0341208 0)
(-0.0010874 0.0078498 0)
(-0.00581314 0.0121698 0)
(-0.00999647 0.0111375 0)
(-0.0134212 0.00861968 0)
(-0.0160343 0.00616705 0)
(-0.0178177 0.0043036 0)
(-0.0184182 0.00337987 0)
(-0.0171168 0.00373584 0)
(-0.0129149 0.00551291 0)
(-0.00460885 0.00859599 0)
(0.00975376 0.0108407 0)
(0.0247459 0.0112174 0)
(0.0409983 0.0101229 0)
(0.0563819 0.0078124 0)
(0.0690577 0.00496595 0)
(0.0776351 0.00229793 0)
(0.0811563 0.000403099 0)
(0.0809742 -0.000789155 0)
(0.0787091 -0.00161825 0)
(0.075253 -0.00229416 0)
(0.0710485 -0.00295332 0)
(0.0662945 -0.00369728 0)
(0.061057 -0.00462309 0)
(0.0553234 -0.00584918 0)
(0.0490308 -0.00754936 0)
(0.0420884 -0.0100033 0)
(0.0344071 -0.0136784 0)
(0.0259537 -0.0193437 0)
(0.0168779 -0.0280909 0)
(0.0077608 -0.0404057 0)
(-0.000534605 -0.0510972 0)
(-0.00143837 -0.0378343 0)
(-0.00156427 0.0136914 0)
(-0.00600525 0.0171655 0)
(-0.00733256 0.014024 0)
(-0.00727214 0.0103069 0)
(-0.00671384 0.0071754 0)
(-0.00604455 0.00473058 0)
(-0.00520753 0.00307852 0)
(-0.00377105 0.00237553 0)
(-0.00052486 0.00274699 0)
(0.00626252 0.00420069 0)
(0.018008 0.00558203 0)
(0.0322596 0.00619586 0)
(0.0480805 0.00572729 0)
(0.0633105 0.00441431 0)
(0.0759326 0.00272742 0)
(0.0843979 0.00115853 0)
(0.0877697 8.29442e-05 0)
(0.0874855 -0.000558618 0)
(0.0852799 -0.000978423 0)
(0.0820642 -0.00130843 0)
(0.0782638 -0.0016322 0)
(0.0740494 -0.00200908 0)
(0.0694572 -0.00249511 0)
(0.0644422 -0.00316181 0)
(0.0588961 -0.00412319 0)
(0.0526479 -0.00558217 0)
(0.045461 -0.00791851 0)
(0.0370562 -0.0118419 0)
(0.0272412 -0.0185738 0)
(0.0161674 -0.0295611 0)
(0.00425582 -0.0430836 0)
(-0.000186458 -0.0393396 0)
(-0.00101457 0.0188486 0)
(-0.00257198 0.0186428 0)
(0.00346896 0.012563 0)
(0.00961802 0.00867608 0)
(0.0148002 0.0058817 0)
(0.018986 0.00378326 0)
(0.0223003 0.00232998 0)
(0.0250177 0.00147741 0)
(0.0278922 0.0011885 0)
(0.032292 0.00145029 0)
(0.0400336 0.00197873 0)
(0.0508936 0.00236191 0)
(0.0636866 0.00224373 0)
(0.0762274 0.00169751 0)
(0.0863859 0.000964758 0)
(0.0926719 0.000307268 0)
(0.0945884 -0.000105146 0)
(0.0936699 -0.000325102 0)
(0.0914858 -0.000455154 0)
(0.0887366 -0.000554712 0)
(0.0857013 -0.0006597 0)
(0.0824578 -0.000793753 0)
(0.0789881 -0.000979228 0)
(0.0752174 -0.00124703 0)
(0.0710171 -0.00165189 0)
(0.0661828 -0.00230268 0)
(0.0603884 -0.00342993 0)
(0.0531236 -0.00552761 0)
(0.0436467 -0.00960077 0)
(0.0310633 -0.0173531 0)
(0.0152504 -0.0295973 0)
(0.00626411 -0.0333319 0)
(0.0209431 0.0115928 0)
(0.0276598 0.00954121 0)
(0.0408756 0.00558095 0)
(0.0513221 0.00333571 0)
(0.0586288 0.00200818 0)
(0.0637747 0.00115513 0)
(0.0673293 0.000628186 0)
(0.0697438 0.000331328 0)
(0.0716 0.000188653 0)
(0.0736788 0.000155609 0)
(0.0769557 0.000191823 0)
(0.0817775 0.000239729 0)
(0.087637 0.000221652 0)
(0.0932672 0.000142564 0)
(0.0974155 4.44089e-05 0)
(0.0994018 -2.82492e-05 0)
(0.0993636 -5.81629e-05 0)
(0.0983198 -6.65372e-05 0)
(0.0969686 -6.90178e-05 0)
(0.0955443 -7.21159e-05 0)
(0.094097 -7.94869e-05 0)
(0.092607 -9.3157e-05 0)
(0.091029 -0.00011548 0)
(0.0893008 -0.00015072 0)
(0.087333 -0.000207919 0)
(0.0849793 -0.000307481 0)
(0.0819721 -0.000498189 0)
(0.0777896 -0.00089828 0)
(0.0713808 -0.00179158 0)
(0.0606593 -0.0039236 0)
(0.0432027 -0.00915407 0)
(0.0285797 -0.0145041 0)
)
;

boundaryField
{
    movingWall
    {
        type            fixedValue;
        value           uniform (0.1 0 0);
    }
    fixedWalls
    {
        type            noSlip;
    }
    floor
    {
        type            noSlip;
    }
    frontAndBack
    {
        type            empty;
    }
}


// ************************************************************************* //
