/*--------------------------------*- C++ -*----------------------------------*\
| =========                 |                                                 |
| \\      /  F ield         | OpenFOAM: The Open Source CFD Toolbox           |
|  \\    /   O peration     | Version:  2206                                  |
|   \\  /    A nd           | Website:  www.openfoam.com                      |
|    \\/     M anipulation  |                                                 |
\*---------------------------------------------------------------------------*/
FoamFile
{
    version     2.0;
    format      ascii;
    arch        "LSB;label=64;scalar=64";
    class       surfaceScalarField;
    location    "2";
    object      phi;
}
// * * * * * * * * * * * * * * * * * * * * * * * * * * * * * * * * * * * * * //

dimensions      [0 3 -1 0 0 0 0];

oriented        oriented;

internalField   nonuniform List<scalar> 
24
(
1.18965e-16
-1.22478e-16
4.51324e-17
7.241e-17
-2.24021e-17
6.72867e-17
-2.44551e-17
-1.15908e-16
-3.83161e-18
3.26201e-17
-7.2699e-17
6.42434e-17
3.89145e-17
3.95985e-17
-3.80757e-17
4.09776e-17
-6.15049e-18
-1.0317e-16
5.68777e-18
1.97337e-17
4.82543e-17
3.69693e-17
-6.50711e-17
-4.38488e-17
)
;

boundaryField
{
    movingWall
    {
        type            calculated;
        value           nonuniform List<scalar> 4(0 0 0 -4.93038e-32);
    }
    fixedWalls
    {
        type            calculated;
        value           uniform 0;
    }
    frontAndBack
    {
        type            empty;
        value           nonuniform List<scalar> 0();
    }
}


// ************************************************************************* //
