/*--------------------------------*- C++ -*----------------------------------*\
| =========                 |                                                 |
| \\      /  F ield         | OpenFOAM: The Open Source CFD Toolbox           |
|  \\    /   O peration     | Version:  2206                                  |
|   \\  /    A nd           | Website:  www.openfoam.com                      |
|    \\/     M anipulation  |                                                 |
\*---------------------------------------------------------------------------*/
FoamFile
{
    version     2.0;
    format      ascii;
    arch        "LSB;label=64;scalar=64";
    class       surfaceScalarField;
    location    "129600";
    object      phi;
}
// * * * * * * * * * * * * * * * * * * * * * * * * * * * * * * * * * * * * * //

dimensions      [0 3 -1 0 0 0 0];

oriented        oriented;

internalField   nonuniform List<scalar> 
24
(
1.44218e-10
-1.44218e-10
2.31027e-10
-8.68087e-11
2.67779e-10
-3.67518e-11
2.67779e-10
-4.20565e-11
-1.02162e-10
-1.14489e-10
-1.4376e-11
2.42681e-11
-1.75509e-10
2.92047e-10
-9.43162e-11
-7.84574e-12
-1.72809e-10
6.41164e-11
-1.84534e-10
-1.63784e-10
1.07513e-10
-7.84574e-12
5.62706e-11
-1.07513e-10
)
;

boundaryField
{
    movingWall
    {
        type            calculated;
        value           uniform 0;
    }
    fixedWalls
    {
        type            calculated;
        value           uniform 0;
    }
    frontAndBack
    {
        type            empty;
        value           nonuniform List<scalar> 0();
    }
}


// ************************************************************************* //
