/*--------------------------------*- C++ -*----------------------------------*\
| =========                 |                                                 |
| \\      /  F ield         | OpenFOAM: The Open Source CFD Toolbox           |
|  \\    /   O peration     | Version:  2212                                  |
|   \\  /    A nd           | Website:  www.openfoam.com                      |
|    \\/     M anipulation  |                                                 |
\*---------------------------------------------------------------------------*/
FoamFile
{
    version     2.0;
    format      ascii;
    arch        "LSB;label=64;scalar=64";
    class       volScalarField;
    location    "1090";
    object      p;
}
// * * * * * * * * * * * * * * * * * * * * * * * * * * * * * * * * * * * * * //

dimensions      [0 2 -2 0 0 0 0];

internalField   nonuniform List<scalar> 
1024
(
0
-2.56371e-06
-5.39298e-06
-6.52284e-06
-4.60041e-06
1.42816e-06
1.31895e-05
3.3558e-05
6.67253e-05
0.000116907
0.000182502
0.0002462
0.000283992
0.00027934
0.000233967
0.000164932
9.71461e-05
4.5385e-05
1.00833e-05
-1.31637e-05
-2.7994e-05
-3.70738e-05
-4.24588e-05
-4.57042e-05
-4.7901e-05
-4.96008e-05
-5.08299e-05
-5.13113e-05
-5.08293e-05
-4.95419e-05
-4.80179e-05
-4.70177e-05
-0.0928111
-0.0928138
-0.0928164
-0.0928174
-0.0928159
-0.0928108
-0.0928004
-0.0927818
-0.0927505
-0.0927025
-0.0926392
-0.0925775
-0.0925402
-0.0925431
-0.0925865
-0.0926537
-0.0927201
-0.092771
-0.0928056
-0.0928283
-0.0928426
-0.0928513
-0.0928563
-0.0928591
-0.0928609
-0.0928622
-0.092863
-0.0928632
-0.0928627
-0.0928616
-0.0928602
-0.0928592
-0.199427
-0.19943
-0.199433
-0.199434
-0.199434
-0.199431
-0.199423
-0.199407
-0.199379
-0.199334
-0.199274
-0.199215
-0.199178
-0.199179
-0.199219
-0.199283
-0.199347
-0.199396
-0.199429
-0.199451
-0.199464
-0.199472
-0.199476
-0.199478
-0.199479
-0.199479
-0.199479
-0.199479
-0.199478
-0.199477
-0.199476
-0.199474
-0.321903
-0.321907
-0.321911
-0.321914
-0.321915
-0.321915
-0.321911
-0.321899
-0.321876
-0.321835
-0.321778
-0.321722
-0.321686
-0.321683
-0.321719
-0.321779
-0.321839
-0.321885
-0.321916
-0.321936
-0.321947
-0.321953
-0.321956
-0.321956
-0.321956
-0.321955
-0.321954
-0.321953
-0.321952
-0.32195
-0.321948
-0.321946
-0.462604
-0.462609
-0.462614
-0.462618
-0.462623
-0.462626
-0.462627
-0.46262
-0.462602
-0.462565
-0.462512
-0.462459
-0.462424
-0.462417
-0.462449
-0.462503
-0.462558
-0.4626
-0.462628
-0.462644
-0.462653
-0.462657
-0.462657
-0.462655
-0.462653
-0.46265
-0.462647
-0.462645
-0.462643
-0.46264
-0.462638
-0.462635
-0.624244
-0.624249
-0.624254
-0.62426
-0.624268
-0.624276
-0.624282
-0.624281
-0.624267
-0.624235
-0.624186
-0.624136
-0.624101
-0.624092
-0.62412
-0.624168
-0.624216
-0.624252
-0.624275
-0.624288
-0.624294
-0.624294
-0.624291
-0.624286
-0.624281
-0.624275
-0.62427
-0.624266
-0.624263
-0.62426
-0.624256
-0.624253
-0.809937
-0.809941
-0.809946
-0.809953
-0.809964
-0.809976
-0.809987
-0.809991
-0.809982
-0.809954
-0.809909
-0.809862
-0.809828
-0.809819
-0.809843
-0.809885
-0.809926
-0.809956
-0.809974
-0.809983
-0.809985
-0.809981
-0.809974
-0.809965
-0.809956
-0.809947
-0.809939
-0.809932
-0.809928
-0.809923
-0.809919
-0.809915
-1.02326
-1.02326
-1.02326
-1.02327
-1.02328
-1.0233
-1.02331
-1.02332
-1.02332
-1.02329
-1.02325
-1.02321
-1.02318
-1.02317
-1.02319
-1.02323
-1.02326
-1.02329
-1.0233
-1.0233
-1.0233
-1.02329
-1.02328
-1.02327
-1.02326
-1.02324
-1.02323
-1.02322
-1.02322
-1.02321
-1.02321
-1.0232
-1.2683
-1.2683
-1.2683
-1.26831
-1.26832
-1.26833
-1.26835
-1.26836
-1.26836
-1.26834
-1.26831
-1.26827
-1.26825
-1.26825
-1.26827
-1.2683
-1.26833
-1.26835
-1.26836
-1.26836
-1.26835
-1.26834
-1.26833
-1.26831
-1.26829
-1.26828
-1.26826
-1.26825
-1.26824
-1.26824
-1.26823
-1.26823
-1.54977
-1.54977
-1.54977
-1.54977
-1.54978
-1.5498
-1.54981
-1.54983
-1.54983
-1.54982
-1.5498
-1.54977
-1.54976
-1.54976
-1.54979
-1.54982
-1.54985
-1.54986
-1.54987
-1.54987
-1.54986
-1.54984
-1.54983
-1.54981
-1.54979
-1.54977
-1.54975
-1.54974
-1.54973
-1.54972
-1.54971
-1.54971
-1.87308
-1.87308
-1.87308
-1.87308
-1.87309
-1.8731
-1.87311
-1.87312
-1.87313
-1.87313
-1.87313
-1.87312
-1.87312
-1.87314
-1.87317
-1.8732
-1.87322
-1.87324
-1.87324
-1.87324
-1.87323
-1.87321
-1.87319
-1.87317
-1.87315
-1.87312
-1.8731
-1.87309
-1.87308
-1.87307
-1.87307
-1.87307
-2.24446
-2.24446
-2.24446
-2.24446
-2.24446
-2.24447
-2.24448
-2.24449
-2.2445
-2.24451
-2.24453
-2.24454
-2.24456
-2.24459
-2.24462
-2.24465
-2.24468
-2.2447
-2.2447
-2.24469
-2.24468
-2.24466
-2.24464
-2.24462
-2.24459
-2.24456
-2.24454
-2.24452
-2.24451
-2.24451
-2.24451
-2.24451
-2.67108
-2.67107
-2.67107
-2.67107
-2.67107
-2.67107
-2.67108
-2.6711
-2.67112
-2.67114
-2.67116
-2.67119
-2.67122
-2.67126
-2.6713
-2.67133
-2.67136
-2.67138
-2.67138
-2.67138
-2.67136
-2.67133
-2.6713
-2.67127
-2.67124
-2.67121
-2.67119
-2.67117
-2.67116
-2.67116
-2.67116
-2.67116
-3.16116
-3.16116
-3.16116
-3.16116
-3.16116
-3.16116
-3.16117
-3.16119
-3.16121
-3.16123
-3.16126
-3.1613
-3.16134
-3.16138
-3.16142
-3.16146
-3.16148
-3.16149
-3.16149
-3.16148
-3.16145
-3.16141
-3.16137
-3.16133
-3.16129
-3.16127
-3.16124
-3.16123
-3.16122
-3.16122
-3.16122
-3.16123
-3.72416
-3.72416
-3.72416
-3.72416
-3.72417
-3.72417
-3.72419
-3.7242
-3.72422
-3.72424
-3.72427
-3.7243
-3.72434
-3.72438
-3.72442
-3.72446
-3.72448
-3.72448
-3.72446
-3.72442
-3.72437
-3.72431
-3.72425
-3.7242
-3.72416
-3.72414
-3.72413
-3.72412
-3.72412
-3.72413
-3.72413
-3.72413
-4.37089
-4.37089
-4.37089
-4.37089
-4.3709
-4.3709
-4.3709
-4.37091
-4.37093
-4.37096
-4.371
-4.37104
-4.37109
-4.37114
-4.37119
-4.37123
-4.37125
-4.37124
-4.3712
-4.37114
-4.37105
-4.37096
-4.37087
-4.3708
-4.37075
-4.37073
-4.37072
-4.37072
-4.37072
-4.37073
-4.37073
-4.37073
-5.0624
-5.0624
-5.0624
-5.06241
-5.06241
-5.06242
-5.06244
-5.06246
-5.06248
-5.06251
-5.06255
-5.06259
-5.06265
-5.06272
-5.06279
-5.06285
-5.0629
-5.06291
-5.06288
-5.06281
-5.06272
-5.06261
-5.0625
-5.0624
-5.06233
-5.06228
-5.06226
-5.06226
-5.06227
-5.06227
-5.06228
-5.06228
-5.70923
-5.70923
-5.70924
-5.70924
-5.70925
-5.70926
-5.70927
-5.70929
-5.70932
-5.70936
-5.70941
-5.70947
-5.70953
-5.70961
-5.7097
-5.70979
-5.70986
-5.7099
-5.70989
-5.70984
-5.70976
-5.70966
-5.70956
-5.70945
-5.70937
-5.7093
-5.70926
-5.70924
-5.70923
-5.70924
-5.70925
-5.70925
-6.27239
-6.27239
-6.27239
-6.2724
-6.2724
-6.27241
-6.27243
-6.27245
-6.27248
-6.27252
-6.27257
-6.27263
-6.2727
-6.27279
-6.27289
-6.273
-6.27309
-6.27313
-6.27313
-6.2731
-6.27304
-6.27297
-6.27288
-6.27278
-6.27269
-6.27261
-6.27255
-6.27251
-6.2725
-6.2725
-6.27251
-6.27252
-6.76265
-6.76265
-6.76265
-6.76266
-6.76266
-6.76267
-6.76269
-6.76271
-6.76274
-6.76278
-6.76283
-6.76289
-6.76297
-6.76306
-6.76316
-6.76328
-6.76337
-6.76342
-6.76343
-6.76341
-6.76337
-6.76331
-6.76324
-6.76315
-6.76307
-6.76298
-6.76291
-6.76286
-6.76284
-6.76284
-6.76284
-6.76285
-7.18944
-7.18944
-7.18944
-7.18944
-7.18945
-7.18946
-7.18947
-7.18949
-7.18952
-7.18956
-7.18961
-7.18967
-7.18975
-7.18984
-7.18995
-7.19007
-7.19017
-7.19022
-7.19023
-7.19021
-7.19017
-7.19012
-7.19006
-7.18999
-7.18991
-7.18983
-7.18975
-7.18969
-7.18966
-7.18965
-7.18965
-7.18967
-7.56097
-7.56097
-7.56097
-7.56097
-7.56097
-7.56098
-7.56099
-7.56101
-7.56104
-7.56107
-7.56112
-7.56119
-7.56127
-7.56136
-7.56148
-7.5616
-7.5617
-7.56175
-7.56176
-7.56174
-7.5617
-7.56164
-7.56158
-7.56151
-7.56144
-7.56135
-7.56127
-7.5612
-7.56116
-7.56114
-7.56114
-7.56115
-7.8844
-7.8844
-7.8844
-7.8844
-7.8844
-7.8844
-7.88441
-7.88442
-7.88445
-7.88448
-7.88453
-7.8846
-7.88468
-7.88478
-7.8849
-7.88502
-7.88513
-7.88518
-7.88519
-7.88516
-7.88511
-7.88505
-7.88498
-7.8849
-7.88481
-7.88472
-7.88463
-7.88454
-7.88448
-7.88446
-7.88445
-7.88447
-8.16596
-8.16596
-8.16596
-8.16595
-8.16595
-8.16595
-8.16595
-8.16596
-8.16598
-8.16601
-8.16606
-8.16613
-8.16622
-8.16632
-8.16645
-8.16658
-8.16668
-8.16674
-8.16674
-8.16671
-8.16665
-8.16658
-8.16649
-8.16639
-8.16628
-8.16617
-8.16605
-8.16595
-8.16586
-8.16582
-8.16581
-8.16582
-8.41106
-8.41107
-8.41106
-8.41106
-8.41105
-8.41105
-8.41104
-8.41104
-8.41106
-8.41109
-8.41114
-8.41121
-8.4113
-8.41142
-8.41154
-8.41168
-8.41178
-8.41184
-8.41184
-8.41181
-8.41175
-8.41166
-8.41155
-8.41142
-8.41128
-8.41113
-8.41097
-8.41083
-8.41072
-8.41064
-8.41062
-8.41062
-8.62445
-8.62445
-8.62445
-8.62444
-8.62443
-8.62441
-8.6244
-8.62439
-8.6244
-8.62443
-8.62449
-8.62456
-8.62466
-8.62478
-8.62491
-8.62505
-8.62516
-8.62521
-8.62522
-8.62518
-8.62511
-8.62501
-8.62489
-8.62473
-8.62454
-8.62434
-8.62413
-8.62393
-8.62376
-8.62364
-8.62359
-8.62358
-8.81022
-8.81022
-8.81022
-8.8102
-8.81017
-8.81015
-8.81013
-8.81011
-8.81012
-8.81016
-8.81021
-8.8103
-8.8104
-8.81052
-8.81066
-8.8108
-8.81091
-8.81097
-8.81097
-8.81093
-8.81086
-8.81075
-8.8106
-8.81041
-8.81019
-8.80993
-8.80965
-8.80937
-8.80913
-8.80893
-8.80883
-8.80879
-8.97196
-8.97196
-8.97195
-8.97192
-8.97188
-8.97184
-8.97181
-8.97179
-8.9718
-8.97184
-8.9719
-8.97199
-8.97209
-8.97222
-8.97236
-8.9725
-8.97261
-8.97267
-8.97268
-8.97264
-8.97256
-8.97244
-8.97228
-8.97206
-8.9718
-8.97148
-8.97113
-8.97076
-8.97041
-8.97011
-8.96991
-8.96981
-9.11282
-9.1128
-9.11277
-9.11271
-9.11265
-9.11259
-9.11256
-9.11254
-9.11255
-9.11259
-9.11266
-9.11274
-9.11285
-9.11298
-9.11313
-9.11327
-9.11339
-9.11345
-9.11345
-9.11341
-9.11333
-9.1132
-9.11302
-9.11279
-9.11249
-9.11213
-9.11171
-9.11125
-9.11076
-9.1103
-9.10995
-9.10972
-9.23555
-9.23548
-9.23538
-9.23527
-9.23519
-9.23512
-9.23508
-9.23506
-9.23508
-9.23512
-9.23519
-9.23528
-9.2354
-9.23553
-9.23567
-9.23582
-9.23593
-9.236
-9.236
-9.23596
-9.23587
-9.23574
-9.23556
-9.23531
-9.23499
-9.2346
-9.23413
-9.23358
-9.23295
-9.23228
-9.23165
-9.2311
-9.34273
-9.34234
-9.34209
-9.34194
-9.34184
-9.34177
-9.34173
-9.34172
-9.34174
-9.34179
-9.34186
-9.34196
-9.34207
-9.34221
-9.34235
-9.3425
-9.34262
-9.34268
-9.34269
-9.34265
-9.34256
-9.34243
-9.34224
-9.34199
-9.34166
-9.34125
-9.34075
-9.34014
-9.3394
-9.3385
-9.33739
-9.33614
-9.43663
-9.43539
-9.43492
-9.43477
-9.43467
-9.43461
-9.43457
-9.43457
-9.4346
-9.43465
-9.43472
-9.43482
-9.43494
-9.43508
-9.43523
-9.43537
-9.43549
-9.43556
-9.43557
-9.43552
-9.43544
-9.4353
-9.43512
-9.43486
-9.43453
-9.43412
-9.43361
-9.43298
-9.43217
-9.43107
-9.42947
-9.42721
)
;

boundaryField
{
    movingWall
    {
        type            calculated;
        value           nonuniform List<scalar> 
32
(
-9.47985
-9.47861
-9.47814
-9.47799
-9.4779
-9.47783
-9.4778
-9.4778
-9.47782
-9.47787
-9.47795
-9.47805
-9.47817
-9.4783
-9.47845
-9.4786
-9.47872
-9.47878
-9.47879
-9.47875
-9.47866
-9.47853
-9.47834
-9.47809
-9.47776
-9.47735
-9.47684
-9.4762
-9.47539
-9.4743
-9.47269
-9.47043
)
;
    }
    fixedWalls
    {
        type            calculated;
        value           nonuniform List<scalar> 
64
(
0
-0.0928111
-0.199427
-0.321903
-0.462604
-0.624244
-0.809937
-1.02326
-1.2683
-1.54977
-1.87308
-2.24446
-2.67108
-3.16116
-3.72416
-4.37089
-5.0624
-5.70923
-6.27239
-6.76265
-7.18944
-7.56097
-7.8844
-8.16596
-8.41106
-8.62445
-8.81022
-8.97196
-9.11282
-9.23555
-9.34273
-9.43663
-4.70177e-05
-0.0928592
-0.199474
-0.321946
-0.462635
-0.624253
-0.809915
-1.0232
-1.26823
-1.54971
-1.87307
-2.24451
-2.67116
-3.16123
-3.72413
-4.37073
-5.06228
-5.70925
-6.27252
-6.76285
-7.18967
-7.56115
-7.88447
-8.16582
-8.41062
-8.62358
-8.80879
-8.96981
-9.10972
-9.2311
-9.33614
-9.42721
)
;
    }
    floor
    {
        type            calculated;
        value           nonuniform List<scalar> 
32
(
0.0431947
0.0431922
0.0431894
0.0431883
0.0431903
0.0431965
0.0432084
0.0432289
0.0432623
0.0433126
0.0433784
0.0434423
0.0434801
0.0434754
0.0434298
0.0433606
0.0432926
0.0432407
0.0432053
0.043182
0.0431671
0.0431579
0.0431525
0.0431492
0.0431469
0.0431451
0.0431439
0.0431433
0.0431438
0.043145
0.0431466
0.0431475
)
;
    }
    frontAndBack
    {
        type            empty;
    }
}


// ************************************************************************* //
