/*--------------------------------*- C++ -*----------------------------------*\
| =========                 |                                                 |
| \\      /  F ield         | OpenFOAM: The Open Source CFD Toolbox           |
|  \\    /   O peration     | Version:  2212                                  |
|   \\  /    A nd           | Website:  www.openfoam.com                      |
|    \\/     M anipulation  |                                                 |
\*---------------------------------------------------------------------------*/
FoamFile
{
    version     2.0;
    format      ascii;
    arch        "LSB;label=64;scalar=64";
    class       volScalarField;
    location    "1090";
    object      p_rgh;
}
// * * * * * * * * * * * * * * * * * * * * * * * * * * * * * * * * * * * * * //

dimensions      [0 2 -2 0 0 0 0];

internalField   nonuniform List<scalar> 
1024
(
0.0431947
0.0431922
0.0431894
0.0431883
0.0431903
0.0431965
0.0432084
0.0432289
0.0432623
0.0433126
0.0433784
0.0434423
0.0434801
0.0434754
0.0434298
0.0433606
0.0432926
0.0432407
0.0432053
0.043182
0.0431671
0.0431579
0.0431525
0.0431492
0.0431469
0.0431451
0.0431439
0.0431433
0.0431438
0.043145
0.0431466
0.0431475
0.0431999
0.0431973
0.0431951
0.0431948
0.0431972
0.0432035
0.0432154
0.0432356
0.0432685
0.0433184
0.0433837
0.043447
0.0434848
0.0434806
0.0434355
0.0433664
0.0432982
0.0432461
0.0432105
0.043187
0.0431719
0.0431626
0.0431569
0.0431534
0.043151
0.0431491
0.0431477
0.043147
0.0431471
0.043148
0.0431493
0.0431503
0.0432086
0.0432056
0.0432037
0.0432043
0.0432079
0.043215
0.0432273
0.043248
0.0432812
0.0433318
0.0433977
0.0434613
0.0434994
0.0434957
0.0434504
0.0433806
0.0433116
0.0432586
0.0432223
0.0431981
0.0431824
0.0431726
0.0431664
0.0431624
0.0431594
0.043157
0.043155
0.0431537
0.0431533
0.0431537
0.0431549
0.0431563
0.0432181
0.0432146
0.043213
0.0432149
0.0432201
0.043229
0.0432431
0.0432652
0.0433
0.0433526
0.0434204
0.043485
0.043524
0.0435214
0.0434759
0.0434052
0.0433348
0.0432803
0.0432426
0.0432172
0.0432004
0.0431894
0.0431823
0.0431773
0.0431733
0.0431697
0.0431664
0.0431638
0.0431623
0.0431622
0.0431635
0.0431653
0.0432241
0.0432207
0.0432197
0.0432234
0.0432312
0.0432431
0.0432602
0.0432851
0.0433224
0.0433773
0.0434465
0.0435121
0.0435527
0.0435532
0.0435093
0.0434394
0.0433686
0.0433126
0.0432731
0.0432459
0.0432273
0.0432147
0.043206
0.0431994
0.0431937
0.043188
0.0431825
0.0431777
0.0431744
0.0431733
0.0431746
0.0431769
0.0432219
0.0432191
0.0432195
0.0432254
0.0432367
0.0432528
0.0432741
0.0433027
0.0433428
0.0433986
0.0434677
0.0435338
0.043577
0.0435825
0.0435438
0.0434786
0.0434104
0.0433545
0.0433137
0.0432847
0.043264
0.0432491
0.0432381
0.0432292
0.0432207
0.0432118
0.0432027
0.0431944
0.0431884
0.0431857
0.0431866
0.0431893
0.0432086
0.0432071
0.0432091
0.0432173
0.0432323
0.0432532
0.0432794
0.0433118
0.0433538
0.0434092
0.0434772
0.0435441
0.0435903
0.0436014
0.0435708
0.0435147
0.0434539
0.0434017
0.0433616
0.0433316
0.043309
0.0432917
0.0432778
0.0432654
0.0432529
0.0432394
0.0432251
0.0432116
0.0432015
0.0431963
0.0431962
0.0431989
0.0431869
0.0431867
0.04319
0.0431998
0.0432174
0.0432423
0.0432728
0.0433081
0.0433509
0.0434065
0.0434749
0.0435432
0.0435921
0.0436072
0.0435848
0.04354
0.0434905
0.0434468
0.0434107
0.0433819
0.0433584
0.0433388
0.0433215
0.0433047
0.0432868
0.0432666
0.043245
0.0432246
0.0432089
0.0432002
0.0431986
0.0432009
0.0431659
0.0431668
0.0431706
0.0431803
0.0431985
0.0432249
0.0432576
0.0432944
0.0433374
0.043397
0.0434681
0.0435379
0.0435875
0.0436032
0.0435859
0.0435514
0.0435143
0.0434818
0.0434532
0.0434283
0.0434058
0.0433847
0.0433638
0.0433415
0.0433163
0.0432874
0.0432563
0.0432271
0.0432045
0.0431916
0.043188
0.0431895
0.0431586
0.04316
0.0431637
0.0431725
0.0431892
0.043214
0.0432453
0.0432822
0.0433291
0.0433932
0.0434693
0.0435397
0.0435852
0.0435963
0.0435792
0.043551
0.0435245
0.0435028
0.0434835
0.0434647
0.0434447
0.0434228
0.0433981
0.0433692
0.0433347
0.0432948
0.0432523
0.0432131
0.0431835
0.0431666
0.0431609
0.0431613
0.0431785
0.0431796
0.0431821
0.043189
0.0432031
0.0432254
0.0432554
0.043294
0.0433493
0.0434212
0.0434976
0.0435605
0.0435935
0.043593
0.0435704
0.0435443
0.0435246
0.043511
0.0435002
0.0434875
0.0434702
0.0434474
0.0434182
0.0433812
0.0433356
0.043283
0.0432285
0.0431803
0.0431455
0.0431262
0.043119
0.0431184
0.0432424
0.0432424
0.0432431
0.0432475
0.0432592
0.0432809
0.0433144
0.0433642
0.0434303
0.0435017
0.0435654
0.043607
0.043616
0.0435965
0.0435639
0.0435358
0.0435186
0.043509
0.0435033
0.0434936
0.0434772
0.043452
0.043417
0.0433708
0.0433138
0.0432499
0.043187
0.0431345
0.0430991
0.0430803
0.0430731
0.0430716
0.0433804
0.0433801
0.0433806
0.043385
0.0433982
0.0434249
0.0434719
0.0435313
0.0435881
0.0436361
0.0436666
0.0436719
0.0436474
0.0436042
0.0435603
0.043527
0.043505
0.0434904
0.0434805
0.0434691
0.0434514
0.0434236
0.0433839
0.0433318
0.0432699
0.0432046
0.0431444
0.0430972
0.0430664
0.0430502
0.0430436
0.0430415
0.0436327
0.0436373
0.0436467
0.043662
0.0436847
0.0437136
0.0437401
0.043762
0.0437771
0.0437802
0.0437648
0.0437289
0.0436718
0.0436086
0.0435547
0.0435101
0.0434726
0.0434402
0.0434128
0.0433936
0.0433768
0.0433548
0.0433247
0.0432841
0.0432343
0.043181
0.0431322
0.0430948
0.0430712
0.0430593
0.0430545
0.0430526
0.0439098
0.0439145
0.0439217
0.0439293
0.0439347
0.0439356
0.0439301
0.043918
0.0438989
0.0438673
0.043816
0.0437507
0.043683
0.0436195
0.043557
0.0434985
0.0434522
0.0434238
0.0434035
0.043384
0.0433647
0.0433483
0.0433362
0.0433171
0.0432835
0.0432408
0.0431987
0.0431667
0.0431486
0.0431418
0.0431409
0.0431412
0.0441156
0.0441136
0.0441095
0.0441023
0.0440908
0.0440747
0.0440531
0.0440265
0.0439956
0.0439602
0.0439206
0.0438782
0.0438357
0.0437965
0.0437643
0.0437435
0.0437471
0.0437787
0.0438294
0.04388
0.0439238
0.0439494
0.0439414
0.0438957
0.0438174
0.0437151
0.0436073
0.0435201
0.0434776
0.0434637
0.0434632
0.0434659
0.0443041
0.0442998
0.044293
0.044283
0.0442685
0.0442493
0.0442284
0.0442094
0.0441951
0.0441858
0.0441796
0.0441748
0.0441713
0.0441708
0.044177
0.0441949
0.044234
0.0442833
0.0443351
0.0444055
0.0444907
0.044582
0.0446672
0.0447324
0.0447657
0.0447592
0.0447113
0.0446254
0.0445108
0.0444109
0.0443506
0.0443288
0.0443283
0.0443234
0.0443162
0.044308
0.0442994
0.0442913
0.0442853
0.0442833
0.0442865
0.0442953
0.0443085
0.0443245
0.0443411
0.0443564
0.0443684
0.0443768
0.0443884
0.0443993
0.0444104
0.0444439
0.0444979
0.0445677
0.0446463
0.0447236
0.0447897
0.0448372
0.0448631
0.044869
0.0448593
0.0448404
0.0448197
0.044805
0.0442884
0.0442844
0.0442781
0.0442713
0.044266
0.0442641
0.0442679
0.0442788
0.0442969
0.0443214
0.04435
0.0443798
0.0444074
0.0444287
0.0444393
0.0444355
0.0444258
0.0444152
0.0444043
0.0444071
0.0444244
0.0444563
0.0445022
0.0445589
0.044619
0.0446739
0.0447164
0.0447434
0.0447567
0.0447603
0.0447579
0.0447531
0.0442486
0.0442453
0.0442399
0.044234
0.0442301
0.0442312
0.0442399
0.0442577
0.0442843
0.0443178
0.0443551
0.0443924
0.0444249
0.044448
0.0444571
0.0444489
0.0444343
0.0444256
0.044414
0.044406
0.0444027
0.0444044
0.044416
0.0444417
0.0444803
0.0445255
0.0445681
0.0446002
0.0446193
0.0446275
0.0446278
0.0446239
0.0442247
0.0442218
0.0442169
0.0442113
0.0442081
0.0442106
0.0442217
0.0442428
0.0442734
0.044311
0.0443514
0.0443902
0.0444223
0.044443
0.0444484
0.0444367
0.0444182
0.0444103
0.0444109
0.0444111
0.04441
0.0444057
0.0444006
0.0444028
0.0444195
0.0444508
0.0444885
0.0445221
0.0445445
0.0445547
0.0445551
0.0445504
0.0442169
0.0442143
0.0442094
0.0442041
0.0442015
0.0442051
0.0442178
0.0442409
0.0442735
0.0443122
0.0443521
0.0443884
0.0444154
0.0444286
0.0444247
0.0444032
0.044374
0.0443611
0.0443703
0.0443873
0.0444057
0.0444198
0.0444254
0.044421
0.0444279
0.0444507
0.044486
0.0445227
0.04455
0.0445633
0.0445642
0.0445583
0.0442202
0.0442175
0.0442125
0.0442076
0.044206
0.0442116
0.0442268
0.0442523
0.044286
0.0443234
0.0443593
0.0443885
0.0444056
0.0444069
0.0443899
0.0443561
0.0443166
0.0442999
0.0443138
0.0443434
0.0443796
0.0444154
0.0444452
0.0444671
0.0444884
0.0445136
0.0445541
0.0446006
0.0446383
0.0446584
0.044661
0.0446543
0.0442287
0.0442254
0.0442204
0.0442163
0.0442172
0.0442263
0.0442457
0.0442743
0.0443086
0.044343
0.0443719
0.0443902
0.044394
0.0443805
0.0443487
0.0443016
0.044253
0.0442332
0.0442489
0.0442868
0.0443375
0.0443944
0.0444527
0.0445103
0.0445673
0.044625
0.044685
0.0447505
0.0448084
0.0448425
0.0448501
0.044844
0.0442371
0.044233
0.044228
0.0442263
0.0442316
0.0442467
0.0442718
0.0443045
0.0443387
0.0443679
0.0443871
0.0443923
0.0443807
0.0443508
0.0443031
0.0442424
0.0441855
0.0441621
0.0441769
0.0442211
0.0442836
0.0443603
0.0444479
0.044545
0.0446497
0.0447588
0.044866
0.0449676
0.0450582
0.0451191
0.0451387
0.0451367
0.0442413
0.0442359
0.0442319
0.0442349
0.0442478
0.0442709
0.0443034
0.0443399
0.0443725
0.0443945
0.0444019
0.0443923
0.0443642
0.0443174
0.0442536
0.0441794
0.0441144
0.044087
0.0441013
0.0441491
0.0442215
0.0443162
0.0444325
0.0445705
0.0447284
0.0449005
0.0450757
0.0452403
0.0453824
0.0454899
0.0455365
0.0455469
0.0442351
0.0442289
0.044228
0.0442396
0.0442643
0.0442981
0.0443379
0.0443772
0.0444062
0.0444188
0.0444129
0.0443876
0.0443427
0.0442791
0.0441998
0.044113
0.0440405
0.0440094
0.0440232
0.0440741
0.0441552
0.0442662
0.0444091
0.0445864
0.044798
0.0450382
0.0452937
0.0455446
0.0457687
0.0459492
0.0460505
0.0460895
0.0442056
0.0442024
0.0442108
0.0442384
0.04428
0.0443265
0.044373
0.0444125
0.0444351
0.0444365
0.0444165
0.0443756
0.0443148
0.0442359
0.0441428
0.0440453
0.0439668
0.0439331
0.043947
0.044001
0.0440902
0.0442154
0.0443811
0.0445926
0.0448528
0.0451586
0.0454983
0.0458513
0.0461893
0.0464791
0.0466773
0.046775
0.0441283
0.04414
0.0441744
0.0442308
0.0442949
0.0443548
0.0444061
0.0444423
0.044456
0.0444455
0.0444119
0.0443567
0.0442821
0.0441905
0.0440866
0.0439813
0.0438989
0.043864
0.0438788
0.0439364
0.0440325
0.0441688
0.0443521
0.0445901
0.0448888
0.0452493
0.0456661
0.0461252
0.046602
0.0470547
0.0474068
0.0476342
0.043948
0.0440221
0.0441238
0.044226
0.0443135
0.0443852
0.044437
0.0444665
0.04447
0.044448
0.0444023
0.0443354
0.0442502
0.0441494
0.0440381
0.0439279
0.0438436
0.0438087
0.0438249
0.0438856
0.0439866
0.0441304
0.0443253
0.0445805
0.0449046
0.0453029
0.045778
0.0463294
0.0469522
0.0476205
0.0482508
0.048802
0.043462
0.0438538
0.0440988
0.0442502
0.0443515
0.0444246
0.0444705
0.04449
0.0444831
0.0444505
0.0443951
0.0443197
0.044227
0.0441202
0.0440045
0.0438916
0.0438065
0.0437719
0.0437891
0.0438516
0.0439551
0.0441027
0.044303
0.0445664
0.0449024
0.0453196
0.045827
0.0464391
0.0471811
0.0480897
0.0491969
0.050456
0.0424449
0.0436828
0.0441518
0.0443042
0.0443992
0.0444665
0.0445032
0.044513
0.0444971
0.044457
0.0443951
0.0443143
0.0442173
0.0441072
0.0439893
0.0438749
0.0437893
0.0437547
0.0437722
0.0438353
0.0439394
0.0440877
0.0442891
0.0445541
0.0448924
0.045314
0.0458318
0.0464716
0.0472876
0.0483897
0.0499982
0.0522617
)
;

boundaryField
{
    movingWall
    {
        type            fixedFluxPressure;
        gradient        uniform 0;
        value           nonuniform List<scalar> 
32
(
0.0424449
0.0436828
0.0441518
0.0443042
0.0443992
0.0444665
0.0445032
0.044513
0.0444971
0.044457
0.0443951
0.0443143
0.0442173
0.0441072
0.0439893
0.0438749
0.0437893
0.0437547
0.0437722
0.0438353
0.0439394
0.0440877
0.0442891
0.0445541
0.0448924
0.045314
0.0458318
0.0464716
0.0472876
0.0483897
0.0499982
0.0522617
)
;
    }
    fixedWalls
    {
        type            fixedFluxPressure;
        gradient        uniform 0;
        value           nonuniform List<scalar> 
64
(
0.0431947
0.0431999
0.0432086
0.0432181
0.0432241
0.0432219
0.0432086
0.0431869
0.0431659
0.0431586
0.0431785
0.0432424
0.0433804
0.0436327
0.0439098
0.0441156
0.0443041
0.0443283
0.0442884
0.0442486
0.0442247
0.0442169
0.0442202
0.0442287
0.0442371
0.0442413
0.0442351
0.0442056
0.0441283
0.043948
0.043462
0.0424449
0.0431475
0.0431503
0.0431563
0.0431653
0.0431769
0.0431893
0.0431989
0.0432009
0.0431895
0.0431613
0.0431184
0.0430716
0.0430415
0.0430526
0.0431412
0.0434659
0.0443288
0.044805
0.0447531
0.0446239
0.0445504
0.0445583
0.0446543
0.044844
0.0451367
0.0455469
0.0460895
0.046775
0.0476342
0.048802
0.050456
0.0522617
)
;
    }
    floor
    {
        type            fixedFluxPressure;
        gradient        uniform 0;
        value           nonuniform List<scalar> 
32
(
0.0431947
0.0431922
0.0431894
0.0431883
0.0431903
0.0431965
0.0432084
0.0432289
0.0432623
0.0433126
0.0433784
0.0434423
0.0434801
0.0434754
0.0434298
0.0433606
0.0432926
0.0432407
0.0432053
0.043182
0.0431671
0.0431579
0.0431525
0.0431492
0.0431469
0.0431451
0.0431439
0.0431433
0.0431438
0.043145
0.0431466
0.0431475
)
;
    }
    frontAndBack
    {
        type            empty;
    }
}


// ************************************************************************* //
