/*--------------------------------*- C++ -*----------------------------------*\
| =========                 |                                                 |
| \\      /  F ield         | OpenFOAM: The Open Source CFD Toolbox           |
|  \\    /   O peration     | Version:  2212                                  |
|   \\  /    A nd           | Website:  www.openfoam.com                      |
|    \\/     M anipulation  |                                                 |
\*---------------------------------------------------------------------------*/
FoamFile
{
    version     2.0;
    format      ascii;
    arch        "LSB;label=64;scalar=64";
    class       volScalarField;
    location    "1090";
    object      Saa;
}
// * * * * * * * * * * * * * * * * * * * * * * * * * * * * * * * * * * * * * //

dimensions      [1 -3 0 0 0 0 0];

internalField   nonuniform List<scalar> 
1024
(
0.00546656
0.00546658
0.0054666
0.00546666
0.00546674
0.00546686
0.00546701
0.00546719
0.00546739
0.0054676
0.00546779
0.00546795
0.00546807
0.00546811
0.00546807
0.00546793
0.00546769
0.00546741
0.00546709
0.00546674
0.00546635
0.00546591
0.00546544
0.00546497
0.00546453
0.00546415
0.00546385
0.00546363
0.00546348
0.00546338
0.00546333
0.0054633
0.00546656
0.00546658
0.00546661
0.00546666
0.00546674
0.00546686
0.00546702
0.0054672
0.0054674
0.00546761
0.0054678
0.00546796
0.00546807
0.00546812
0.00546808
0.00546794
0.0054677
0.00546741
0.0054671
0.00546675
0.00546636
0.00546593
0.00546546
0.00546499
0.00546455
0.00546417
0.00546386
0.00546364
0.00546348
0.00546338
0.00546333
0.00546331
0.00546656
0.00546658
0.00546661
0.00546666
0.00546675
0.00546687
0.00546703
0.00546721
0.00546742
0.00546762
0.00546782
0.00546798
0.00546809
0.00546814
0.00546809
0.00546794
0.0054677
0.00546741
0.00546711
0.00546677
0.00546638
0.00546595
0.00546549
0.00546502
0.00546458
0.0054642
0.00546389
0.00546365
0.00546349
0.00546339
0.00546334
0.00546332
0.00546656
0.00546658
0.00546661
0.00546667
0.00546676
0.00546688
0.00546704
0.00546723
0.00546744
0.00546764
0.00546784
0.00546801
0.00546813
0.00546817
0.00546811
0.00546795
0.00546771
0.00546742
0.00546711
0.00546678
0.00546641
0.00546599
0.00546554
0.00546507
0.00546463
0.00546424
0.00546392
0.00546368
0.00546352
0.00546341
0.00546335
0.00546333
0.00546656
0.00546658
0.00546661
0.00546667
0.00546676
0.00546689
0.00546705
0.00546724
0.00546745
0.00546767
0.00546788
0.00546807
0.00546819
0.00546822
0.00546815
0.00546796
0.0054677
0.00546741
0.00546711
0.00546679
0.00546643
0.00546603
0.00546559
0.00546513
0.00546469
0.00546429
0.00546397
0.00546372
0.00546354
0.00546343
0.00546337
0.00546335
0.00546656
0.00546657
0.00546661
0.00546667
0.00546676
0.00546689
0.00546705
0.00546725
0.00546747
0.0054677
0.00546793
0.00546814
0.00546828
0.0054683
0.00546819
0.00546797
0.00546768
0.00546737
0.00546708
0.00546677
0.00546644
0.00546606
0.00546564
0.00546519
0.00546475
0.00546435
0.00546402
0.00546376
0.00546358
0.00546346
0.0054634
0.00546338
0.00546656
0.00546657
0.0054666
0.00546666
0.00546675
0.00546687
0.00546704
0.00546724
0.00546748
0.00546773
0.005468
0.00546825
0.0054684
0.0054684
0.00546824
0.00546796
0.00546763
0.0054673
0.005467
0.00546671
0.0054664
0.00546605
0.00546566
0.00546523
0.0054648
0.0054644
0.00546406
0.0054638
0.00546361
0.00546349
0.00546343
0.0054634
0.00546656
0.00546657
0.0054666
0.00546665
0.00546673
0.00546686
0.00546702
0.00546723
0.00546748
0.00546778
0.0054681
0.00546839
0.00546856
0.00546853
0.0054683
0.00546794
0.00546754
0.00546718
0.00546687
0.00546659
0.0054663
0.00546599
0.00546562
0.00546523
0.00546481
0.00546443
0.00546409
0.00546383
0.00546364
0.00546352
0.00546345
0.00546342
0.00546657
0.00546658
0.00546661
0.00546665
0.00546673
0.00546684
0.00546701
0.00546723
0.00546752
0.00546786
0.00546825
0.00546859
0.00546877
0.00546869
0.00546836
0.00546788
0.00546739
0.00546699
0.00546666
0.00546639
0.00546612
0.00546584
0.00546551
0.00546515
0.00546477
0.0054644
0.00546408
0.00546382
0.00546364
0.00546352
0.00546346
0.00546343
0.00546664
0.00546665
0.00546667
0.0054667
0.00546677
0.00546688
0.00546705
0.00546729
0.00546762
0.00546803
0.00546848
0.00546887
0.00546903
0.00546887
0.00546841
0.00546779
0.00546719
0.00546672
0.00546637
0.00546609
0.00546584
0.00546559
0.0054653
0.00546498
0.00546464
0.00546431
0.00546401
0.00546378
0.00546361
0.0054635
0.00546343
0.0054634
0.00546686
0.00546686
0.00546687
0.0054669
0.00546696
0.00546707
0.00546725
0.00546752
0.0054679
0.00546837
0.00546887
0.00546926
0.00546937
0.00546908
0.00546846
0.00546768
0.00546696
0.00546642
0.00546602
0.00546572
0.00546547
0.00546523
0.00546498
0.0054647
0.00546441
0.00546413
0.00546387
0.00546367
0.00546352
0.00546342
0.00546336
0.00546333
0.00546738
0.00546738
0.00546738
0.00546741
0.00546747
0.00546758
0.00546778
0.00546809
0.0054685
0.00546899
0.00546948
0.00546981
0.00546978
0.00546932
0.00546853
0.00546762
0.00546681
0.00546619
0.00546572
0.00546535
0.00546505
0.0054648
0.00546456
0.00546432
0.00546408
0.00546385
0.00546364
0.00546348
0.00546335
0.00546327
0.00546322
0.00546319
0.00546838
0.00546839
0.0054684
0.00546844
0.00546851
0.00546864
0.00546885
0.00546916
0.00546955
0.00546998
0.00547036
0.00547051
0.00547028
0.00546965
0.00546876
0.00546784
0.00546702
0.00546634
0.00546574
0.00546522
0.00546479
0.00546443
0.00546414
0.00546389
0.00546368
0.00546349
0.00546334
0.00546322
0.00546313
0.00546307
0.00546303
0.00546302
0.00546995
0.00546996
0.00546999
0.00547004
0.00547013
0.00547027
0.00547046
0.00547071
0.00547099
0.00547127
0.00547143
0.00547136
0.00547096
0.0054703
0.00546954
0.00546884
0.00546821
0.00546755
0.00546681
0.00546605
0.00546532
0.00546468
0.00546417
0.00546377
0.00546348
0.00546329
0.00546317
0.00546311
0.0054631
0.00546311
0.00546313
0.00546314
0.00547181
0.00547183
0.00547187
0.00547193
0.00547201
0.00547212
0.00547226
0.00547241
0.00547256
0.00547267
0.00547267
0.00547253
0.00547224
0.00547193
0.00547173
0.00547166
0.00547159
0.00547128
0.00547067
0.00546982
0.00546884
0.00546782
0.00546689
0.00546609
0.00546548
0.00546508
0.00546487
0.00546483
0.00546489
0.00546499
0.00546509
0.00546514
0.00547352
0.00547353
0.00547356
0.00547361
0.00547368
0.00547378
0.00547389
0.00547403
0.0054742
0.00547438
0.0054746
0.00547488
0.00547529
0.00547589
0.00547674
0.00547781
0.0054789
0.00547965
0.00547991
0.00547974
0.00547923
0.00547845
0.00547751
0.00547648
0.00547546
0.00547454
0.00547379
0.00547326
0.00547295
0.00547281
0.00547278
0.00547279
0.00547481
0.00547482
0.00547486
0.00547492
0.00547503
0.0054752
0.00547546
0.00547581
0.00547628
0.0054769
0.00547769
0.0054787
0.00547998
0.00548157
0.00548346
0.00548564
0.00548784
0.00548963
0.00549088
0.00549172
0.00549218
0.00549229
0.00549208
0.00549158
0.00549083
0.00548991
0.00548892
0.00548797
0.00548718
0.00548663
0.00548631
0.00548619
0.00547572
0.00547573
0.00547576
0.00547584
0.00547599
0.00547624
0.00547663
0.00547717
0.00547791
0.00547886
0.00548006
0.00548151
0.00548325
0.00548524
0.00548744
0.00548976
0.00549187
0.00549345
0.00549456
0.00549544
0.00549615
0.00549673
0.00549716
0.00549742
0.00549748
0.00549734
0.00549701
0.00549655
0.00549605
0.00549562
0.00549533
0.0054952
0.00547636
0.00547638
0.00547641
0.0054765
0.00547666
0.00547694
0.00547737
0.00547799
0.00547884
0.00547992
0.00548126
0.00548285
0.00548467
0.00548667
0.00548874
0.00549074
0.00549234
0.00549335
0.00549403
0.00549462
0.00549521
0.00549582
0.00549642
0.00549698
0.00549745
0.00549781
0.00549803
0.00549812
0.0054981
0.00549803
0.00549795
0.0054979
0.00547684
0.00547685
0.00547689
0.00547697
0.00547712
0.00547739
0.00547781
0.00547843
0.00547927
0.00548035
0.00548167
0.00548321
0.00548494
0.00548678
0.00548862
0.0054903
0.00549154
0.00549226
0.00549276
0.00549328
0.00549391
0.00549466
0.00549546
0.00549624
0.00549694
0.0054975
0.0054979
0.00549817
0.00549832
0.00549839
0.0054984
0.0054984
0.00547722
0.00547722
0.00547725
0.00547732
0.00547745
0.00547769
0.00547807
0.00547864
0.00547941
0.00548041
0.00548162
0.00548303
0.00548459
0.00548623
0.00548786
0.00548933
0.00549041
0.00549109
0.00549161
0.00549218
0.00549287
0.00549372
0.00549466
0.00549562
0.00549651
0.00549725
0.00549781
0.0054982
0.00549842
0.00549854
0.00549859
0.0054986
0.00547756
0.00547756
0.00547757
0.00547762
0.00547772
0.00547792
0.00547825
0.00547874
0.00547942
0.00548031
0.00548138
0.00548263
0.00548402
0.00548548
0.00548694
0.0054883
0.00548938
0.00549016
0.0054908
0.00549146
0.00549222
0.00549312
0.00549411
0.00549515
0.00549616
0.00549704
0.00549773
0.00549822
0.00549853
0.00549869
0.00549876
0.00549877
0.00547796
0.00547795
0.00547794
0.00547795
0.00547801
0.00547816
0.00547842
0.00547884
0.00547943
0.00548021
0.00548116
0.00548227
0.00548352
0.00548485
0.00548621
0.00548755
0.00548871
0.00548962
0.0054904
0.00549116
0.00549198
0.00549288
0.00549388
0.00549492
0.00549596
0.0054969
0.00549769
0.00549826
0.00549864
0.00549884
0.00549892
0.00549895
0.00547853
0.0054785
0.00547846
0.00547842
0.00547843
0.00547851
0.00547872
0.00547907
0.0054796
0.0054803
0.00548117
0.0054822
0.00548336
0.00548462
0.00548594
0.00548729
0.00548854
0.00548958
0.00549046
0.00549128
0.00549211
0.00549298
0.00549393
0.00549492
0.00549592
0.00549687
0.00549768
0.00549832
0.00549874
0.00549898
0.00549909
0.00549912
0.00547937
0.00547932
0.00547923
0.00547914
0.00547908
0.00547912
0.00547928
0.00547961
0.00548011
0.00548079
0.00548164
0.00548264
0.00548376
0.00548498
0.00548628
0.00548764
0.00548893
0.00549003
0.00549095
0.00549177
0.00549256
0.00549338
0.00549423
0.00549513
0.00549605
0.00549694
0.00549774
0.00549839
0.00549885
0.00549912
0.00549924
0.00549928
0.00548056
0.00548048
0.00548034
0.00548021
0.00548012
0.00548015
0.00548032
0.00548067
0.0054812
0.0054819
0.00548275
0.00548374
0.00548484
0.00548603
0.00548728
0.00548859
0.00548985
0.00549092
0.0054918
0.00549257
0.00549329
0.00549401
0.00549474
0.00549552
0.00549632
0.00549711
0.00549785
0.00549848
0.00549895
0.00549925
0.00549939
0.00549942
0.00548216
0.00548204
0.00548188
0.00548174
0.00548169
0.00548176
0.00548199
0.0054824
0.00548299
0.00548372
0.00548457
0.00548554
0.00548658
0.00548768
0.00548883
0.00549003
0.00549118
0.00549215
0.00549293
0.00549361
0.00549422
0.00549482
0.00549543
0.00549606
0.00549672
0.00549739
0.00549803
0.00549861
0.00549906
0.00549936
0.00549951
0.00549956
0.00548417
0.00548404
0.0054839
0.00548384
0.00548388
0.00548407
0.0054844
0.00548488
0.00548549
0.00548621
0.00548702
0.00548789
0.00548882
0.00548979
0.00549078
0.0054918
0.00549277
0.00549358
0.00549424
0.00549479
0.00549529
0.00549576
0.00549623
0.00549672
0.00549723
0.00549776
0.00549829
0.00549878
0.00549919
0.00549947
0.00549962
0.00549967
0.00548665
0.00548653
0.00548648
0.00548657
0.00548677
0.00548707
0.00548747
0.00548797
0.00548854
0.00548919
0.00548988
0.00549061
0.00549137
0.00549214
0.00549293
0.00549373
0.00549448
0.00549511
0.00549562
0.00549604
0.00549641
0.00549676
0.0054971
0.00549745
0.00549782
0.00549821
0.00549861
0.00549899
0.00549933
0.00549958
0.00549972
0.00549977
0.00548963
0.00548958
0.0054897
0.00548995
0.00549026
0.00549061
0.00549101
0.00549144
0.0054919
0.0054924
0.00549292
0.00549346
0.005494
0.00549455
0.00549511
0.00549567
0.0054962
0.00549664
0.00549699
0.00549727
0.00549753
0.00549776
0.00549799
0.00549822
0.00549846
0.00549871
0.00549898
0.00549925
0.00549949
0.00549969
0.00549981
0.00549986
0.00549325
0.00549333
0.00549358
0.00549386
0.00549414
0.00549442
0.00549471
0.005495
0.00549529
0.0054956
0.00549591
0.00549623
0.00549655
0.00549687
0.0054972
0.00549752
0.00549783
0.00549808
0.00549828
0.00549844
0.00549859
0.00549872
0.00549884
0.00549897
0.0054991
0.00549924
0.00549939
0.00549954
0.00549968
0.00549981
0.00549989
0.00549992
0.00549764
0.0054977
0.00549783
0.00549796
0.00549807
0.00549818
0.00549828
0.00549838
0.00549848
0.00549858
0.00549868
0.00549879
0.00549889
0.005499
0.0054991
0.00549921
0.0054993
0.00549939
0.00549945
0.0054995
0.00549955
0.00549959
0.00549963
0.00549967
0.00549971
0.00549975
0.0054998
0.00549985
0.00549989
0.00549993
0.00549996
0.00549998
)
;

boundaryField
{
    movingWall
    {
        type            fixedValue;
        value           uniform 0.0055;
    }
    fixedWalls
    {
        type            zeroGradient;
    }
    floor
    {
        type            zeroGradient;
    }
    frontAndBack
    {
        type            empty;
    }
}


// ************************************************************************* //
