/*--------------------------------*- C++ -*----------------------------------*\
| =========                 |                                                 |
| \\      /  F ield         | OpenFOAM: The Open Source CFD Toolbox           |
|  \\    /   O peration     | Version:  2212                                  |
|   \\  /    A nd           | Website:  www.openfoam.com                      |
|    \\/     M anipulation  |                                                 |
\*---------------------------------------------------------------------------*/
FoamFile
{
    version     2.0;
    format      ascii;
    arch        "LSB;label=64;scalar=64";
    class       volScalarField;
    location    "1090";
    object      Sch4;
}
// * * * * * * * * * * * * * * * * * * * * * * * * * * * * * * * * * * * * * //

dimensions      [1 -3 0 0 0 0 0];

internalField   nonuniform List<scalar> 
1024
(
0.0357519
0.035757
0.0357694
0.0357918
0.0358269
0.0358768
0.0359421
0.036021
0.0361093
0.0362009
0.0362902
0.0363705
0.0364338
0.0364704
0.0364716
0.0364296
0.0363444
0.0362339
0.036112
0.0359794
0.0358343
0.0356773
0.0355141
0.0353544
0.0352082
0.0350838
0.0349851
0.0349122
0.0348621
0.0348306
0.0348133
0.0348062
0.0357522
0.0357574
0.03577
0.0357927
0.0358284
0.0358791
0.0359452
0.0360247
0.0361133
0.0362052
0.0362946
0.0363752
0.0364386
0.036475
0.0364757
0.0364331
0.0363475
0.036237
0.0361155
0.0359835
0.0358392
0.0356831
0.0355204
0.0353605
0.0352137
0.0350883
0.0349887
0.0349148
0.0348641
0.0348322
0.0348146
0.0348074
0.0357527
0.035758
0.035771
0.0357945
0.0358312
0.0358831
0.0359505
0.0360311
0.0361205
0.0362132
0.0363038
0.0363859
0.0364503
0.0364863
0.0364853
0.0364408
0.0363537
0.0362429
0.036122
0.0359915
0.0358491
0.0356947
0.0355331
0.0353732
0.0352253
0.0350981
0.0349963
0.0349206
0.0348685
0.0348357
0.0348177
0.0348103
0.0357533
0.0357588
0.0357723
0.0357965
0.0358343
0.0358876
0.0359565
0.0360385
0.0361295
0.0362243
0.0363182
0.0364043
0.0364716
0.036507
0.0365026
0.0364534
0.0363629
0.0362508
0.0361305
0.036002
0.0358625
0.0357112
0.0355516
0.0353921
0.0352428
0.035113
0.0350083
0.0349299
0.0348757
0.0348416
0.0348228
0.0348152
0.0357538
0.0357594
0.0357731
0.0357979
0.0358366
0.035891
0.0359611
0.0360448
0.0361384
0.0362376
0.0363381
0.0364323
0.0365053
0.0365403
0.0365297
0.0364718
0.0363743
0.0362589
0.0361385
0.0360123
0.0358768
0.0357298
0.0355736
0.0354153
0.035265
0.0351324
0.0350242
0.0349425
0.0348858
0.0348499
0.0348302
0.0348222
0.0357537
0.0357593
0.035773
0.0357978
0.0358366
0.0358913
0.0359623
0.036048
0.0361458
0.0362525
0.0363644
0.0364721
0.0365546
0.0365893
0.0365687
0.0364961
0.0363862
0.0362642
0.0361423
0.0360182
0.0358874
0.0357461
0.0355947
0.0354391
0.0352887
0.0351539
0.0350423
0.0349573
0.0348978
0.0348602
0.0348396
0.0348312
0.035753
0.0357584
0.0357717
0.0357956
0.0358334
0.0358874
0.0359587
0.0360469
0.036151
0.0362696
0.036399
0.0365263
0.0366222
0.0366564
0.0366207
0.0365257
0.0363963
0.036263
0.0361371
0.0360141
0.0358881
0.0357534
0.0356085
0.0354575
0.0353088
0.0351732
0.0350595
0.0349719
0.0349103
0.0348711
0.0348496
0.0348409
0.0357532
0.035758
0.0357701
0.0357924
0.0358281
0.0358803
0.0359513
0.0360429
0.0361564
0.036292
0.0364457
0.0365987
0.036711
0.0367428
0.0366853
0.0365585
0.0364009
0.0362504
0.0361169
0.0359933
0.0358714
0.0357439
0.0356069
0.0354625
0.0353182
0.0351846
0.0350711
0.0349828
0.0349202
0.0348802
0.0348582
0.0348493
0.0357596
0.0357635
0.0357737
0.0357932
0.0358259
0.0358757
0.0359468
0.0360435
0.03617
0.0363288
0.0365135
0.0366963
0.0368246
0.0368489
0.0367606
0.0365915
0.0363964
0.036222
0.0360763
0.0359491
0.0358299
0.0357092
0.0355812
0.0354457
0.035309
0.035181
0.0350711
0.034985
0.0349235
0.034884
0.0348621
0.0348532
0.0357875
0.03579
0.0357974
0.0358135
0.0358427
0.0358904
0.0359631
0.0360682
0.036213
0.0364008
0.03662
0.0368315
0.036969
0.0369749
0.036844
0.0366222
0.0363819
0.0361771
0.0360136
0.0358779
0.0357579
0.0356424
0.0355235
0.0353991
0.0352734
0.0351553
0.0350534
0.0349731
0.0349153
0.0348779
0.0348568
0.034848
0.0358715
0.0358724
0.035877
0.0358896
0.035916
0.0359638
0.0360417
0.0361601
0.0363277
0.0365457
0.0367949
0.0370234
0.037153
0.037123
0.0369367
0.0366562
0.0363677
0.0361278
0.0359386
0.0357858
0.0356574
0.0355419
0.03543
0.0353173
0.0352058
0.0351019
0.0350123
0.0349415
0.0348901
0.0348562
0.0348367
0.0348283
0.0360745
0.0360747
0.0360782
0.0360899
0.0361171
0.0361691
0.0362569
0.0363913
0.0365796
0.0368175
0.0370765
0.0372944
0.0373872
0.0373006
0.0370533
0.0367218
0.0363949
0.0361189
0.0358922
0.0357045
0.03555
0.0354204
0.0353067
0.0352023
0.0351053
0.0350181
0.0349442
0.0348859
0.0348434
0.034815
0.0347984
0.0347912
0.0364747
0.0364768
0.0364839
0.0365012
0.0365358
0.0365971
0.0366953
0.0368394
0.0370317
0.0372614
0.0374924
0.0376589
0.0376841
0.0375338
0.0372474
0.0369055
0.0365751
0.0362722
0.0359913
0.0357362
0.0355172
0.0353376
0.0351943
0.0350802
0.0349883
0.0349145
0.0348569
0.0348144
0.0347857
0.0347684
0.0347596
0.0347564
0.0371078
0.037114
0.0371293
0.0371575
0.0372039
0.0372746
0.037376
0.0375125
0.037682
0.0378685
0.0380343
0.0381225
0.038082
0.037913
0.0376716
0.0374187
0.0371674
0.0368819
0.0365498
0.0361938
0.0358506
0.0355472
0.0353013
0.0351159
0.0349862
0.0349036
0.0348586
0.0348422
0.0348451
0.0348582
0.0348727
0.0348818
0.0378886
0.0378984
0.0379203
0.0379568
0.0380106
0.0380847
0.0381815
0.0383017
0.0384405
0.0385818
0.0386963
0.0387528
0.0387431
0.038701
0.038679
0.0386991
0.038706
0.0386007
0.0383494
0.0379803
0.0375399
0.0370789
0.0366501
0.0362848
0.0360054
0.0358232
0.0357339
0.0357196
0.035753
0.0358046
0.035851
0.0358773
0.0386353
0.0386457
0.0386695
0.0387104
0.0387722
0.0388588
0.0389728
0.0391145
0.0392805
0.0394637
0.039658
0.0398677
0.0401153
0.040437
0.0408642
0.0414003
0.0419559
0.0423676
0.0425575
0.0425476
0.0423611
0.0420393
0.0416277
0.0411647
0.0406958
0.0402675
0.039918
0.03967
0.039524
0.0394592
0.039444
0.0394479
0.0391998
0.0392104
0.0392374
0.0392885
0.0393732
0.039501
0.0396793
0.0399122
0.0402009
0.0405477
0.0409612
0.0414583
0.0420637
0.0428029
0.0436927
0.0447349
0.0458265
0.0467711
0.0474923
0.0480291
0.0483805
0.0485502
0.0485403
0.0483617
0.0480385
0.0476107
0.0471322
0.0466668
0.046275
0.0459963
0.0458368
0.0457742
0.0395503
0.0395608
0.0395895
0.0396468
0.0397459
0.039901
0.0401253
0.0404285
0.0408157
0.0412895
0.0418545
0.04252
0.0432972
0.0441913
0.0451935
0.0462767
0.0473218
0.0481918
0.0489105
0.0495574
0.0501466
0.050665
0.0510847
0.0513761
0.0515183
0.0515075
0.0513616
0.0511231
0.0508527
0.0506138
0.0504501
0.0503744
0.0397659
0.0397763
0.0398049
0.0398628
0.039964
0.0401244
0.0403599
0.0406833
0.0411015
0.041616
0.0422251
0.0429264
0.0437154
0.0445782
0.0454837
0.0463783
0.0471402
0.0477117
0.0482137
0.0487515
0.0493522
0.0499948
0.0506325
0.0512114
0.0516857
0.0520266
0.0522271
0.0523015
0.0522828
0.0522164
0.0521479
0.0521082
0.0398984
0.0399082
0.0399352
0.0399893
0.040084
0.0402351
0.0404588
0.0407689
0.041173
0.0416714
0.0422578
0.0429221
0.0436498
0.0444182
0.0451888
0.0459033
0.0464568
0.0468477
0.047229
0.0477139
0.0483405
0.0490903
0.0499042
0.0507022
0.0514087
0.0519701
0.0523659
0.052605
0.0527179
0.0527466
0.0527353
0.0527197
0.0399856
0.039994
0.0400171
0.0400641
0.0401472
0.0402812
0.0404814
0.0407609
0.0411274
0.0415803
0.0421121
0.0427091
0.0433543
0.0440247
0.0446865
0.0452918
0.045761
0.0461144
0.0464819
0.0469615
0.0475976
0.0483895
0.0492946
0.0502356
0.0511214
0.0518703
0.0524346
0.0528064
0.0530116
0.0530959
0.0531119
0.0531051
0.0400727
0.0400773
0.0400925
0.0401271
0.040193
0.0403041
0.0404748
0.0407169
0.0410373
0.0414357
0.041905
0.0424329
0.0430041
0.0436006
0.0441984
0.0447672
0.0452507
0.0456605
0.0460814
0.04659
0.0472307
0.048018
0.0489332
0.0499213
0.0508989
0.0517735
0.052473
0.0529649
0.0532589
0.053397
0.0534371
0.0534363
0.0402204
0.0402175
0.0402178
0.0402312
0.040271
0.0403524
0.0404895
0.040694
0.0409719
0.0413238
0.0417442
0.0422237
0.0427508
0.043313
0.0438964
0.0444867
0.0450418
0.045545
0.0460395
0.0465853
0.0472251
0.0479833
0.0488591
0.0498213
0.0508074
0.0517344
0.052519
0.0531042
0.0534774
0.0536682
0.0537336
0.0537391
0.0405024
0.0404869
0.0404632
0.0404445
0.0404485
0.0404942
0.0405984
0.0407735
0.0410257
0.0413553
0.0417579
0.0422253
0.0427482
0.0433173
0.0439247
0.0445676
0.0452073
0.0457958
0.0463472
0.0469124
0.0475326
0.048239
0.0490443
0.0499347
0.0508683
0.0517804
0.0525937
0.0532371
0.0536737
0.0539132
0.0540047
0.0540174
0.0409919
0.0409586
0.0409032
0.0408456
0.0408111
0.0408249
0.0409086
0.041076
0.0413319
0.0416743
0.0420959
0.0425867
0.0431363
0.0437357
0.0443796
0.0450712
0.0457699
0.0464051
0.046976
0.0475295
0.0481057
0.0487382
0.0494477
0.0502346
0.0510754
0.0519234
0.052714
0.0533757
0.0538535
0.0541342
0.0542515
0.0542723
0.0417469
0.0416919
0.0416039
0.0415143
0.0414572
0.0414631
0.041556
0.0417489
0.0420415
0.0424255
0.0428885
0.0434166
0.0439971
0.0446204
0.0452819
0.0459875
0.0466952
0.0473261
0.0478744
0.0483844
0.0488943
0.0494363
0.050034
0.0506969
0.0514167
0.0521646
0.0528913
0.0535319
0.0540239
0.0543335
0.0544743
0.0545043
0.0428041
0.0427275
0.0426196
0.0425272
0.0424882
0.0425298
0.0426711
0.0429188
0.0432644
0.0436935
0.0441897
0.044737
0.045322
0.0459353
0.0465731
0.0472426
0.0479039
0.0484821
0.0489719
0.0494139
0.0498422
0.0502852
0.0507656
0.0512968
0.0518804
0.0525032
0.0531331
0.0537173
0.0541936
0.0545149
0.0546741
0.0547136
0.0441849
0.0440942
0.0439994
0.0439559
0.0439895
0.0441099
0.0443242
0.0446294
0.0450119
0.0454567
0.045948
0.0464714
0.0470154
0.0475725
0.0481401
0.0487252
0.0492942
0.0497839
0.0501911
0.0505504
0.0508902
0.0512339
0.0516003
0.0520031
0.0524487
0.0529345
0.0534444
0.0539418
0.0543725
0.054684
0.0548523
0.0549005
0.0459112
0.0458277
0.0457989
0.0458594
0.0460001
0.0462083
0.04648
0.0468077
0.0471813
0.0475909
0.0480256
0.0484754
0.0489321
0.0493909
0.0498505
0.0503168
0.0507641
0.0511447
0.0514573
0.0517286
0.0519805
0.0522302
0.0524925
0.0527784
0.0530952
0.0534458
0.053825
0.054213
0.0545703
0.0548479
0.0550116
0.0550653
0.0480263
0.0479915
0.0480795
0.0482541
0.0484744
0.048722
0.048993
0.049284
0.0495926
0.0499156
0.0502481
0.0505847
0.0509207
0.0512536
0.0515829
0.051913
0.0522265
0.0524913
0.052707
0.0528921
0.0530613
0.0532266
0.0533978
0.0535827
0.0537871
0.0540148
0.0542664
0.0545342
0.0547958
0.0550148
0.0551562
0.0552091
0.0506151
0.0506746
0.050852
0.0510527
0.0512554
0.051455
0.0516523
0.0518491
0.0520476
0.0522489
0.0524518
0.0526543
0.0528544
0.0530508
0.0532436
0.0534353
0.0536162
0.0537684
0.0538917
0.0539967
0.0540918
0.0541836
0.0542776
0.0543783
0.054489
0.0546124
0.0547501
0.0549006
0.0550547
0.0551932
0.0552916
0.0553338
0.0537834
0.0538315
0.0539239
0.0540122
0.054094
0.0541703
0.0542421
0.054311
0.0543786
0.054446
0.0545131
0.0545796
0.0546449
0.0547088
0.0547712
0.054833
0.0548912
0.05494
0.0549795
0.0550129
0.0550431
0.055072
0.0551014
0.0551328
0.055167
0.0552051
0.0552477
0.0552945
0.0553437
0.0553899
0.0554255
0.0554429
)
;

boundaryField
{
    movingWall
    {
        type            fixedValue;
        value           uniform 0.0555;
    }
    fixedWalls
    {
        type            zeroGradient;
    }
    floor
    {
        type            zeroGradient;
    }
    frontAndBack
    {
        type            empty;
    }
}


// ************************************************************************* //
