/*--------------------------------*- C++ -*----------------------------------*\
| =========                 |                                                 |
| \\      /  F ield         | OpenFOAM: The Open Source CFD Toolbox           |
|  \\    /   O peration     | Version:  2212                                  |
|   \\  /    A nd           | Website:  www.openfoam.com                      |
|    \\/     M anipulation  |                                                 |
\*---------------------------------------------------------------------------*/
FoamFile
{
    version     2.0;
    format      ascii;
    arch        "LSB;label=64;scalar=64";
    class       volScalarField;
    location    "1090";
    object      Xch;
}
// * * * * * * * * * * * * * * * * * * * * * * * * * * * * * * * * * * * * * //

dimensions      [1 -3 0 0 0 0 0];

internalField   nonuniform List<scalar> 
1024
(
0.019937
0.0199371
0.0199375
0.0199382
0.0199393
0.0199409
0.0199429
0.0199454
0.0199481
0.0199509
0.0199536
0.019956
0.0199579
0.0199589
0.0199587
0.0199573
0.0199545
0.0199509
0.019947
0.0199427
0.019938
0.0199328
0.0199273
0.019922
0.019917
0.0199128
0.0199094
0.019907
0.0199053
0.0199042
0.0199036
0.0199033
0.019937
0.0199372
0.0199375
0.0199383
0.0199394
0.019941
0.019943
0.0199455
0.0199482
0.019951
0.0199538
0.0199562
0.019958
0.019959
0.0199588
0.0199573
0.0199545
0.019951
0.0199471
0.0199428
0.0199381
0.019933
0.0199275
0.0199222
0.0199172
0.019913
0.0199096
0.0199071
0.0199053
0.0199042
0.0199036
0.0199034
0.019937
0.0199372
0.0199376
0.0199383
0.0199395
0.0199411
0.0199432
0.0199457
0.0199484
0.0199513
0.019954
0.0199565
0.0199584
0.0199593
0.0199591
0.0199575
0.0199547
0.0199511
0.0199472
0.019943
0.0199384
0.0199333
0.0199279
0.0199226
0.0199176
0.0199133
0.0199098
0.0199072
0.0199055
0.0199044
0.0199037
0.0199035
0.019937
0.0199372
0.0199376
0.0199384
0.0199395
0.0199412
0.0199434
0.0199459
0.0199487
0.0199516
0.0199545
0.019957
0.019959
0.0199599
0.0199596
0.0199579
0.0199549
0.0199513
0.0199475
0.0199433
0.0199388
0.0199338
0.0199285
0.0199232
0.0199182
0.0199138
0.0199102
0.0199076
0.0199057
0.0199045
0.0199039
0.0199036
0.019937
0.0199372
0.0199376
0.0199384
0.0199396
0.0199413
0.0199435
0.0199461
0.019949
0.019952
0.019955
0.0199578
0.0199599
0.0199608
0.0199603
0.0199583
0.0199551
0.0199514
0.0199476
0.0199436
0.0199392
0.0199344
0.0199292
0.019924
0.0199189
0.0199144
0.0199108
0.019908
0.019906
0.0199048
0.0199042
0.0199039
0.019937
0.0199372
0.0199376
0.0199384
0.0199396
0.0199413
0.0199435
0.0199462
0.0199492
0.0199525
0.0199558
0.019959
0.0199614
0.0199622
0.0199613
0.0199589
0.0199553
0.0199514
0.0199476
0.0199436
0.0199395
0.0199349
0.0199299
0.0199247
0.0199197
0.0199151
0.0199114
0.0199085
0.0199064
0.0199052
0.0199045
0.0199042
0.019937
0.0199372
0.0199376
0.0199383
0.0199395
0.0199412
0.0199434
0.0199461
0.0199493
0.019953
0.0199569
0.0199606
0.0199633
0.0199641
0.0199627
0.0199595
0.0199553
0.0199511
0.0199472
0.0199433
0.0199393
0.019935
0.0199303
0.0199253
0.0199203
0.0199157
0.0199119
0.0199089
0.0199069
0.0199055
0.0199048
0.0199045
0.019937
0.0199371
0.0199375
0.0199382
0.0199393
0.019941
0.0199432
0.019946
0.0199495
0.0199536
0.0199583
0.0199628
0.0199659
0.0199665
0.0199643
0.0199601
0.0199551
0.0199503
0.0199462
0.0199424
0.0199386
0.0199345
0.0199301
0.0199254
0.0199206
0.0199161
0.0199123
0.0199093
0.0199072
0.0199058
0.0199051
0.0199048
0.0199372
0.0199373
0.0199376
0.0199382
0.0199393
0.0199408
0.019943
0.019946
0.0199499
0.0199548
0.0199603
0.0199657
0.0199692
0.0199694
0.0199662
0.0199606
0.0199544
0.019949
0.0199445
0.0199406
0.0199369
0.0199332
0.0199291
0.0199247
0.0199202
0.0199159
0.0199122
0.0199093
0.0199073
0.0199059
0.0199052
0.0199049
0.0199381
0.0199382
0.0199384
0.0199389
0.0199398
0.0199413
0.0199435
0.0199468
0.0199513
0.019957
0.0199636
0.0199698
0.0199734
0.0199729
0.0199682
0.0199609
0.0199533
0.0199469
0.0199419
0.0199379
0.0199343
0.0199307
0.019927
0.019923
0.0199189
0.019915
0.0199116
0.0199089
0.0199069
0.0199057
0.019905
0.0199047
0.0199408
0.0199408
0.0199409
0.0199413
0.0199421
0.0199436
0.0199461
0.0199497
0.0199549
0.0199615
0.019969
0.0199755
0.0199788
0.019977
0.0199704
0.0199612
0.019952
0.0199446
0.0199389
0.0199344
0.0199306
0.0199271
0.0199237
0.0199201
0.0199165
0.0199131
0.0199101
0.0199078
0.019906
0.0199049
0.0199042
0.0199039
0.0199473
0.0199473
0.0199474
0.0199477
0.0199486
0.0199502
0.0199529
0.019957
0.0199628
0.0199699
0.0199776
0.0199836
0.0199855
0.0199818
0.0199732
0.0199624
0.019952
0.0199435
0.0199367
0.0199311
0.0199266
0.0199227
0.0199193
0.0199161
0.019913
0.0199102
0.0199077
0.0199058
0.0199044
0.0199034
0.0199028
0.0199026
0.01996
0.0199601
0.0199603
0.0199608
0.0199619
0.0199637
0.0199667
0.0199711
0.0199768
0.0199836
0.0199901
0.0199944
0.019994
0.0199882
0.0199784
0.0199672
0.0199568
0.0199475
0.0199389
0.0199313
0.0199248
0.0199194
0.0199151
0.0199117
0.0199088
0.0199065
0.0199046
0.0199032
0.0199022
0.0199016
0.0199012
0.0199011
0.0199801
0.0199803
0.0199807
0.0199816
0.0199829
0.019985
0.019988
0.019992
0.0199968
0.020002
0.0200062
0.0200079
0.0200054
0.0199991
0.0199908
0.0199824
0.0199744
0.0199655
0.0199554
0.0199446
0.0199342
0.019925
0.0199176
0.019912
0.019908
0.0199054
0.019904
0.0199034
0.0199034
0.0199037
0.0199041
0.0199043
0.0200046
0.0200049
0.0200055
0.0200065
0.020008
0.0200101
0.0200128
0.020016
0.0200196
0.0200231
0.0200256
0.0200263
0.0200249
0.0200227
0.0200214
0.0200216
0.0200214
0.0200179
0.02001
0.0199986
0.019985
0.0199709
0.0199578
0.0199467
0.0199382
0.0199326
0.0199298
0.0199293
0.0199303
0.0199318
0.0199332
0.019934
0.0200277
0.020028
0.0200286
0.0200297
0.0200313
0.0200336
0.0200365
0.0200402
0.0200444
0.0200492
0.0200543
0.02006
0.020067
0.0200764
0.0200891
0.020105
0.0201215
0.0201334
0.0201386
0.0201377
0.0201315
0.0201214
0.0201087
0.0200945
0.0200802
0.0200672
0.0200566
0.0200491
0.0200447
0.0200427
0.0200422
0.0200424
0.0200452
0.0200454
0.0200462
0.0200475
0.0200498
0.0200533
0.0200582
0.0200647
0.0200729
0.0200829
0.020095
0.0201099
0.0201282
0.0201506
0.0201776
0.020209
0.0202415
0.0202692
0.0202899
0.0203049
0.0203144
0.0203185
0.0203175
0.0203115
0.0203015
0.0202885
0.0202741
0.0202602
0.0202485
0.0202403
0.0202355
0.0202337
0.0200564
0.0200567
0.0200575
0.020059
0.0200618
0.0200662
0.0200726
0.0200814
0.0200928
0.0201069
0.020124
0.0201443
0.0201681
0.0201956
0.0202262
0.020259
0.0202902
0.0203154
0.0203355
0.0203531
0.0203687
0.0203823
0.0203931
0.0204005
0.0204038
0.020403
0.0203985
0.0203915
0.0203836
0.0203767
0.020372
0.0203698
0.0200637
0.020064
0.0200648
0.0200664
0.0200692
0.0200738
0.0200807
0.0200902
0.0201027
0.0201182
0.0201369
0.0201585
0.020183
0.0202097
0.0202377
0.0202652
0.0202881
0.0203046
0.0203182
0.0203323
0.0203476
0.020364
0.0203803
0.0203951
0.0204073
0.0204161
0.0204213
0.0204233
0.0204228
0.0204211
0.0204193
0.0204182
0.0200685
0.0200688
0.0200695
0.020071
0.0200737
0.020078
0.0200846
0.0200938
0.020106
0.0201212
0.0201392
0.0201599
0.0201826
0.0202067
0.0202308
0.0202531
0.0202701
0.0202815
0.0202918
0.0203044
0.0203205
0.0203397
0.0203606
0.0203811
0.0203992
0.0204136
0.0204238
0.02043
0.0204331
0.020434
0.0204338
0.0204335
0.0200719
0.0200721
0.0200727
0.020074
0.0200764
0.0200803
0.0200861
0.0200945
0.0201056
0.0201194
0.0201359
0.0201545
0.0201748
0.020196
0.0202169
0.0202359
0.0202505
0.0202608
0.0202709
0.0202836
0.0203002
0.0203207
0.0203442
0.0203684
0.0203912
0.0204104
0.0204249
0.0204345
0.0204399
0.0204422
0.0204427
0.0204426
0.0200752
0.0200753
0.0200757
0.0200766
0.0200785
0.0200817
0.0200867
0.0200939
0.0201037
0.0201159
0.0201304
0.0201469
0.0201649
0.0201837
0.0202026
0.0202204
0.0202352
0.0202472
0.0202589
0.0202726
0.0202896
0.0203103
0.0203341
0.0203597
0.020385
0.0204074
0.0204254
0.020438
0.0204456
0.0204493
0.0204504
0.0204505
0.02008
0.0200799
0.0200799
0.0200802
0.0200813
0.0200837
0.0200877
0.0200938
0.0201023
0.020113
0.020126
0.0201409
0.0201573
0.0201749
0.0201931
0.0202113
0.020228
0.0202426
0.0202564
0.0202713
0.0202885
0.0203086
0.0203315
0.0203566
0.0203822
0.020406
0.0204262
0.0204412
0.0204508
0.0204557
0.0204575
0.0204577
0.0200884
0.020088
0.0200873
0.0200867
0.0200868
0.0200882
0.0200913
0.0200965
0.0201041
0.0201141
0.0201263
0.0201406
0.0201566
0.0201741
0.0201926
0.020212
0.0202308
0.0202478
0.0202633
0.0202789
0.0202956
0.0203145
0.0203358
0.0203591
0.0203833
0.0204069
0.0204278
0.0204443
0.0204555
0.0204616
0.020464
0.0204644
0.0201024
0.0201015
0.0200999
0.0200983
0.0200973
0.0200978
0.0201003
0.0201052
0.0201128
0.020123
0.0201355
0.0201502
0.0201667
0.0201846
0.0202038
0.0202243
0.0202446
0.0202628
0.0202789
0.0202942
0.0203099
0.0203269
0.0203457
0.0203664
0.0203883
0.0204103
0.0204306
0.0204476
0.0204598
0.0204669
0.02047
0.0204706
0.0201236
0.0201221
0.0201196
0.0201171
0.0201155
0.0201158
0.0201185
0.0201241
0.0201325
0.0201437
0.0201572
0.0201726
0.0201897
0.020208
0.0202274
0.0202479
0.0202684
0.0202864
0.0203018
0.020316
0.0203299
0.0203445
0.0203605
0.020378
0.0203968
0.0204162
0.0204349
0.0204513
0.0204639
0.0204718
0.0204754
0.0204762
0.0201529
0.0201508
0.0201478
0.0201452
0.0201442
0.0201454
0.0201494
0.0201564
0.0201663
0.0201785
0.0201927
0.0202085
0.0202254
0.0202431
0.0202616
0.0202809
0.0202999
0.0203163
0.0203301
0.0203424
0.0203542
0.0203662
0.0203791
0.0203931
0.0204084
0.0204246
0.0204409
0.0204558
0.020468
0.0204761
0.0204802
0.0204812
0.020191
0.0201885
0.0201859
0.0201847
0.0201856
0.0201889
0.0201949
0.0202035
0.0202142
0.0202268
0.0202407
0.0202556
0.0202711
0.0202871
0.0203034
0.0203202
0.0203364
0.0203503
0.0203618
0.0203718
0.0203812
0.0203905
0.0204004
0.0204111
0.0204228
0.0204354
0.0204486
0.0204614
0.0204723
0.0204802
0.0204845
0.0204857
0.0202384
0.0202361
0.0202353
0.0202369
0.0202408
0.0202465
0.020254
0.0202631
0.0202736
0.020285
0.0202972
0.02031
0.0203229
0.020336
0.0203491
0.0203624
0.0203752
0.020386
0.0203948
0.0204024
0.0204093
0.0204161
0.0204232
0.0204308
0.0204392
0.0204483
0.0204581
0.0204681
0.0204772
0.0204842
0.0204883
0.0204897
0.0202963
0.0202953
0.0202977
0.0203025
0.0203085
0.0203153
0.0203227
0.0203308
0.0203394
0.0203484
0.0203577
0.0203671
0.0203766
0.0203861
0.0203954
0.0204049
0.0204138
0.0204213
0.0204274
0.0204325
0.0204372
0.0204418
0.0204464
0.0204513
0.0204567
0.0204627
0.0204692
0.0204761
0.0204827
0.0204883
0.0204918
0.0204931
0.0203669
0.0203686
0.0203734
0.0203789
0.0203844
0.0203899
0.0203953
0.0204007
0.0204062
0.0204118
0.0204175
0.0204231
0.0204288
0.0204343
0.0204398
0.0204453
0.0204504
0.0204548
0.0204582
0.0204612
0.0204638
0.0204663
0.0204689
0.0204716
0.0204745
0.0204777
0.0204813
0.0204852
0.0204891
0.0204926
0.0204951
0.0204961
0.0204533
0.0204546
0.0204571
0.0204595
0.0204618
0.0204638
0.0204658
0.0204677
0.0204696
0.0204714
0.0204733
0.0204752
0.020477
0.0204788
0.0204806
0.0204824
0.020484
0.0204854
0.0204865
0.0204875
0.0204883
0.0204891
0.0204899
0.0204907
0.0204916
0.0204926
0.0204937
0.0204949
0.0204962
0.0204974
0.0204982
0.0204987
)
;

boundaryField
{
    movingWall
    {
        type            fixedValue;
        value           uniform 0.0205;
    }
    fixedWalls
    {
        type            zeroGradient;
    }
    floor
    {
        type            zeroGradient;
    }
    frontAndBack
    {
        type            empty;
    }
}


// ************************************************************************* //
