/*--------------------------------*- C++ -*----------------------------------*\
| =========                 |                                                 |
| \\      /  F ield         | OpenFOAM: The Open Source CFD Toolbox           |
|  \\    /   O peration     | Version:  2212                                  |
|   \\  /    A nd           | Website:  www.openfoam.com                      |
|    \\/     M anipulation  |                                                 |
\*---------------------------------------------------------------------------*/
FoamFile
{
    version     2.0;
    format      ascii;
    arch        "LSB;label=64;scalar=64";
    class       volScalarField;
    location    "1090";
    object      Xpr;
}
// * * * * * * * * * * * * * * * * * * * * * * * * * * * * * * * * * * * * * //

dimensions      [1 -3 0 0 0 0 0];

internalField   nonuniform List<scalar> 
1024
(
0.0817903
0.081791
0.0817926
0.0817956
0.0818003
0.081807
0.0818157
0.0818262
0.0818379
0.08185
0.0818616
0.0818718
0.0818797
0.0818839
0.0818834
0.0818771
0.0818651
0.0818498
0.0818331
0.0818147
0.0817945
0.0817723
0.081749
0.081726
0.0817049
0.0816868
0.0816725
0.0816618
0.0816545
0.0816499
0.0816474
0.0816463
0.0817903
0.081791
0.0817927
0.0817957
0.0818005
0.0818073
0.0818161
0.0818267
0.0818384
0.0818505
0.0818621
0.0818724
0.0818803
0.0818845
0.0818839
0.0818775
0.0818654
0.0818502
0.0818335
0.0818153
0.0817951
0.0817731
0.0817499
0.0817269
0.0817057
0.0816875
0.081673
0.0816622
0.0816548
0.0816501
0.0816476
0.0816465
0.0817904
0.0817911
0.0817928
0.081796
0.0818009
0.0818078
0.0818168
0.0818275
0.0818394
0.0818515
0.0818633
0.0818738
0.0818818
0.0818859
0.081885
0.0818783
0.0818661
0.0818508
0.0818342
0.0818162
0.0817964
0.0817747
0.0817516
0.0817287
0.0817073
0.0816889
0.0816741
0.081663
0.0816554
0.0816506
0.081648
0.0816469
0.0817904
0.0817912
0.081793
0.0817962
0.0818013
0.0818084
0.0818176
0.0818285
0.0818405
0.0818529
0.0818651
0.0818761
0.0818844
0.0818884
0.081887
0.0818797
0.081867
0.0818516
0.0818351
0.0818175
0.0817981
0.0817769
0.0817542
0.0817313
0.0817098
0.081691
0.0816758
0.0816644
0.0816565
0.0816515
0.0816487
0.0816476
0.0817905
0.0817912
0.0817931
0.0817964
0.0818016
0.0818088
0.0818182
0.0818293
0.0818417
0.0818546
0.0818676
0.0818796
0.0818886
0.0818924
0.0818901
0.0818816
0.081868
0.0818522
0.0818358
0.0818185
0.0817998
0.0817793
0.0817572
0.0817345
0.0817129
0.0816937
0.081678
0.0816662
0.0816579
0.0816527
0.0816498
0.0816486
0.0817904
0.0817912
0.081793
0.0817963
0.0818015
0.0818088
0.0818183
0.0818297
0.0818426
0.0818565
0.081871
0.0818846
0.0818946
0.0818982
0.0818945
0.0818839
0.0818687
0.0818521
0.0818356
0.0818188
0.0818009
0.0817812
0.0817599
0.0817378
0.0817162
0.0816967
0.0816806
0.0816683
0.0816596
0.0816541
0.0816511
0.0816499
0.0817903
0.081791
0.0817928
0.081796
0.0818011
0.0818083
0.0818178
0.0818295
0.0818432
0.0818587
0.0818754
0.0818914
0.081903
0.0819062
0.0819002
0.0818866
0.0818688
0.0818508
0.0818339
0.0818174
0.0818003
0.0817818
0.0817615
0.0817401
0.0817189
0.0816994
0.081683
0.0816703
0.0816614
0.0816557
0.0816525
0.0816513
0.0817903
0.081791
0.0817926
0.0817956
0.0818003
0.0818073
0.0818168
0.0818289
0.0818439
0.0818616
0.0818814
0.0819007
0.0819141
0.0819165
0.0819073
0.0818893
0.0818677
0.0818475
0.0818298
0.0818134
0.0817971
0.0817798
0.0817608
0.0817405
0.08172
0.0817009
0.0816845
0.0816718
0.0816627
0.0816569
0.0816537
0.0816524
0.0817912
0.0817917
0.081793
0.0817957
0.0818
0.0818067
0.0818161
0.081829
0.0818457
0.0818664
0.0818902
0.0819132
0.0819282
0.0819292
0.0819153
0.0818914
0.0818648
0.0818415
0.0818224
0.0818058
0.0817901
0.081774
0.0817565
0.0817376
0.0817183
0.0817001
0.0816844
0.081672
0.0816631
0.0816574
0.0816542
0.0816529
0.081795
0.0817953
0.0817963
0.0817984
0.0818023
0.0818087
0.0818184
0.0818323
0.0818515
0.081876
0.0819042
0.0819306
0.0819463
0.0819441
0.081924
0.0818927
0.08186
0.0818328
0.0818115
0.0817941
0.0817786
0.0817635
0.0817475
0.0817304
0.0817128
0.0816961
0.0816816
0.08167
0.0816617
0.0816563
0.0816533
0.081652
0.0818065
0.0818066
0.0818072
0.0818089
0.0818124
0.0818187
0.0818291
0.0818448
0.0818669
0.0818953
0.0819271
0.0819552
0.0819691
0.0819614
0.0819334
0.0818939
0.0818547
0.081823
0.0817986
0.0817791
0.0817628
0.081748
0.0817333
0.081718
0.0817026
0.081688
0.0816753
0.0816652
0.0816578
0.0816529
0.0816501
0.0816489
0.0818343
0.0818343
0.0818348
0.0818363
0.0818399
0.0818467
0.0818583
0.081876
0.0819007
0.0819313
0.0819639
0.0819898
0.0819981
0.0819821
0.0819455
0.081899
0.0818547
0.0818183
0.081789
0.0817652
0.0817457
0.0817293
0.0817146
0.0817008
0.0816876
0.0816755
0.0816651
0.0816568
0.0816507
0.0816465
0.0816441
0.081643
0.0818889
0.0818892
0.0818901
0.0818923
0.0818968
0.0819048
0.0819176
0.0819362
0.0819609
0.0819897
0.0820177
0.0820359
0.0820344
0.0820095
0.0819676
0.0819198
0.0818751
0.0818351
0.0817987
0.081766
0.0817381
0.0817152
0.0816968
0.081682
0.0816698
0.0816597
0.0816517
0.0816456
0.0816414
0.0816387
0.0816374
0.0816368
0.0819748
0.0819756
0.0819775
0.0819811
0.0819869
0.0819959
0.0820086
0.0820256
0.0820463
0.0820684
0.0820866
0.0820936
0.0820831
0.082056
0.0820205
0.0819848
0.0819505
0.0819125
0.081869
0.0818227
0.0817783
0.081739
0.0817073
0.0816832
0.0816662
0.0816552
0.081649
0.0816464
0.0816464
0.0816478
0.0816495
0.0816506
0.0820796
0.0820808
0.0820835
0.0820879
0.0820944
0.0821033
0.0821146
0.0821284
0.0821439
0.0821589
0.0821697
0.0821724
0.0821667
0.0821574
0.0821517
0.0821524
0.0821517
0.0821366
0.0821028
0.0820538
0.0819959
0.0819355
0.0818796
0.0818319
0.0817954
0.0817715
0.0817597
0.0817576
0.0817617
0.0817683
0.0817742
0.0817776
0.0821785
0.0821797
0.0821825
0.0821871
0.0821941
0.0822038
0.0822164
0.082232
0.0822503
0.0822705
0.0822923
0.0823167
0.0823467
0.0823869
0.0824412
0.0825095
0.0825799
0.082631
0.082653
0.0826493
0.082623
0.0825797
0.0825252
0.0824644
0.0824033
0.0823476
0.0823022
0.0822701
0.0822512
0.0822428
0.0822408
0.0822413
0.0822533
0.0822545
0.0822576
0.0822634
0.0822732
0.0822881
0.0823091
0.0823369
0.0823718
0.0824146
0.0824667
0.0825304
0.0826087
0.0827047
0.08282
0.0829544
0.0830937
0.0832122
0.0833007
0.0833651
0.0834056
0.0834233
0.0834187
0.0833934
0.0833505
0.0832949
0.0832333
0.0831738
0.0831238
0.0830883
0.083068
0.0830601
0.0823016
0.0823027
0.082306
0.0823127
0.0823245
0.0823433
0.0823707
0.0824083
0.082457
0.0825175
0.0825906
0.0826775
0.0827796
0.082897
0.0830281
0.0831686
0.083302
0.08341
0.083496
0.0835711
0.083638
0.0836961
0.0837425
0.083774
0.0837882
0.0837847
0.0837655
0.0837354
0.0837018
0.0836722
0.083652
0.0836427
0.0823327
0.0823339
0.0823372
0.0823441
0.0823563
0.082376
0.0824053
0.0824461
0.0824996
0.0825661
0.0826458
0.0827384
0.0828431
0.0829577
0.0830775
0.083195
0.0832933
0.0833638
0.0834221
0.0834821
0.0835479
0.0836181
0.0836877
0.083751
0.0838031
0.0838408
0.0838632
0.0838717
0.0838697
0.0838623
0.0838545
0.08385
0.0823533
0.0823544
0.0823575
0.0823639
0.0823754
0.082394
0.0824221
0.0824616
0.0825136
0.0825786
0.0826559
0.0827442
0.0828416
0.0829447
0.083048
0.0831433
0.083216
0.0832647
0.0833087
0.0833626
0.0834317
0.0835141
0.0836034
0.083691
0.0837684
0.0838301
0.0838738
0.0839006
0.0839137
0.0839175
0.0839168
0.0839154
0.0823679
0.0823688
0.0823714
0.0823769
0.0823869
0.0824035
0.0824287
0.0824644
0.0825119
0.0825712
0.0826416
0.0827213
0.0828082
0.0828987
0.0829882
0.0830698
0.083132
0.0831764
0.0832195
0.0832737
0.0833448
0.0834328
0.083533
0.0836368
0.0837343
0.0838166
0.0838786
0.0839197
0.0839426
0.0839525
0.0839548
0.0839544
0.0823818
0.0823823
0.0823839
0.0823879
0.0823958
0.0824096
0.0824311
0.0824621
0.0825036
0.0825559
0.0826182
0.0826888
0.0827657
0.0828463
0.082927
0.0830033
0.0830668
0.0831181
0.0831682
0.0832269
0.0832995
0.0833879
0.08349
0.0835996
0.0837076
0.0838039
0.0838807
0.0839348
0.0839673
0.0839829
0.0839878
0.083988
0.0824025
0.082402
0.0824019
0.0824033
0.0824081
0.0824181
0.0824355
0.0824617
0.0824977
0.0825438
0.0825993
0.0826631
0.0827334
0.0828086
0.0828863
0.0829642
0.0830357
0.0830982
0.0831575
0.0832213
0.0832947
0.0833806
0.083479
0.0835863
0.0836956
0.0837979
0.0838841
0.0839483
0.0839894
0.0840106
0.0840181
0.084019
0.0824384
0.0824365
0.0824335
0.0824312
0.0824316
0.0824374
0.0824506
0.082473
0.0825055
0.0825483
0.0826007
0.0826619
0.0827304
0.082805
0.0828842
0.0829672
0.083048
0.0831206
0.083187
0.0832535
0.0833254
0.0834061
0.0834971
0.0835968
0.0837007
0.0838015
0.083891
0.0839615
0.0840093
0.0840357
0.084046
0.0840477
0.0824984
0.0824943
0.0824876
0.0824807
0.0824766
0.0824785
0.0824892
0.0825104
0.0825428
0.0825864
0.0826401
0.0827029
0.0827733
0.0828501
0.0829323
0.0830199
0.083107
0.0831848
0.0832536
0.0833192
0.0833864
0.0834591
0.0835396
0.0836282
0.083722
0.0838159
0.083903
0.0839755
0.0840278
0.0840585
0.0840715
0.084074
0.082589
0.0825824
0.0825719
0.0825612
0.0825545
0.0825554
0.082567
0.082591
0.0826273
0.0826751
0.0827328
0.0827989
0.0828718
0.0829501
0.0830331
0.0831212
0.0832086
0.0832856
0.0833517
0.0834123
0.083472
0.0835346
0.0836028
0.0836777
0.0837582
0.0838413
0.0839214
0.0839916
0.0840453
0.0840791
0.0840946
0.084098
0.0827145
0.0827054
0.0826926
0.0826817
0.0826771
0.0826822
0.0826994
0.0827295
0.0827716
0.0828241
0.0828849
0.0829523
0.0830246
0.0831005
0.0831796
0.0832624
0.0833436
0.0834139
0.083473
0.0835256
0.083576
0.0836274
0.0836824
0.0837426
0.0838081
0.0838774
0.0839469
0.084011
0.084063
0.0840979
0.0841152
0.0841197
0.0828774
0.0828667
0.0828555
0.0828503
0.0828543
0.0828686
0.0828942
0.0829308
0.0829768
0.0830306
0.0830901
0.0831539
0.0832204
0.0832887
0.0833585
0.0834304
0.0834999
0.0835594
0.0836085
0.0836514
0.0836915
0.0837315
0.0837736
0.0838194
0.0838695
0.0839237
0.0839801
0.0840347
0.0840816
0.0841154
0.0841337
0.084139
0.0830802
0.0830704
0.083067
0.083074
0.0830905
0.0831151
0.0831473
0.0831862
0.0832308
0.0832799
0.0833322
0.0833866
0.083442
0.083498
0.0835542
0.0836112
0.0836658
0.083712
0.0837497
0.0837821
0.0838119
0.0838411
0.0838714
0.0839039
0.0839397
0.0839788
0.0840209
0.0840635
0.0841024
0.0841324
0.0841501
0.0841559
0.083328
0.0833239
0.0833341
0.0833545
0.0833803
0.0834094
0.0834413
0.0834758
0.0835124
0.083551
0.0835908
0.0836313
0.0836719
0.0837123
0.0837525
0.0837928
0.083831
0.0838631
0.0838891
0.0839113
0.0839314
0.0839507
0.0839705
0.0839917
0.0840148
0.0840403
0.0840682
0.0840976
0.0841261
0.0841498
0.084165
0.0841707
0.0836305
0.0836374
0.0836581
0.0836815
0.0837053
0.0837287
0.0837518
0.0837751
0.0837986
0.0838225
0.0838468
0.0838711
0.0838952
0.083919
0.0839425
0.0839658
0.0839879
0.0840063
0.0840212
0.0840338
0.0840451
0.0840559
0.0840668
0.0840783
0.0840909
0.0841047
0.08412
0.0841366
0.0841534
0.0841683
0.0841788
0.0841833
0.084
0.0840057
0.0840164
0.0840267
0.0840363
0.0840452
0.0840537
0.0840618
0.0840698
0.0840778
0.0840858
0.0840938
0.0841016
0.0841094
0.084117
0.0841245
0.0841316
0.0841375
0.0841423
0.0841463
0.0841499
0.0841533
0.0841567
0.0841603
0.0841642
0.0841684
0.0841732
0.0841783
0.0841837
0.0841887
0.0841925
0.0841943
)
;

boundaryField
{
    movingWall
    {
        type            fixedValue;
        value           uniform 0.0842;
    }
    fixedWalls
    {
        type            zeroGradient;
    }
    floor
    {
        type            zeroGradient;
    }
    frontAndBack
    {
        type            empty;
    }
}


// ************************************************************************* //
