/*--------------------------------*- C++ -*----------------------------------*\
| =========                 |                                                 |
| \\      /  F ield         | OpenFOAM: The Open Source CFD Toolbox           |
|  \\    /   O peration     | Version:  2206                                  |
|   \\  /    A nd           | Website:  www.openfoam.com                      |
|    \\/     M anipulation  |                                                 |
\*---------------------------------------------------------------------------*/
FoamFile
{
    version     2.0;
    format      ascii;
    arch        "LSB;label=64;scalar=64";
    class       volVectorField;
    location    "244800";
    object      U;
}
// * * * * * * * * * * * * * * * * * * * * * * * * * * * * * * * * * * * * * //

dimensions      [0 1 -1 0 0 0 0];

internalField   nonuniform List<vector> 
16
(
(1.52556e-07 -4.87061e-08 0)
(-3.36359e-08 7.07889e-08 0)
(-2.80132e-08 -4.74226e-08 0)
(1.51021e-07 2.37061e-08 0)
(7.98129e-09 -7.26501e-08 0)
(-1.00485e-08 1.16145e-07 0)
(5.58657e-08 -1.46825e-07 0)
(6.33905e-08 1.04563e-07 0)
(-8.66878e-08 -5.00294e-08 0)
(3.4268e-08 2.49133e-08 0)
(3.21327e-08 -1.20038e-07 0)
(-8.57307e-08 1.42136e-07 0)
(-7.2355e-08 -1.74455e-08 0)
(7.7795e-09 -5.476e-09 0)
(-5.83614e-08 -2.64364e-08 0)
(-1.30471e-07 5.18006e-08 0)
)
;

boundaryField
{
    movingWall
    {
        type            noSlip;
    }
    fixedWalls
    {
        type            noSlip;
    }
    frontAndBack
    {
        type            empty;
    }
}


// ************************************************************************* //
