/*--------------------------------*- C++ -*----------------------------------*\
| =========                 |                                                 |
| \\      /  F ield         | OpenFOAM: The Open Source CFD Toolbox           |
|  \\    /   O peration     | Version:  2206                                  |
|   \\  /    A nd           | Website:  www.openfoam.com                      |
|    \\/     M anipulation  |                                                 |
\*---------------------------------------------------------------------------*/
FoamFile
{
    version     2.0;
    format      ascii;
    arch        "LSB;label=64;scalar=64";
    class       volVectorField;
    location    "1";
    object      U;
}
// * * * * * * * * * * * * * * * * * * * * * * * * * * * * * * * * * * * * * //

dimensions      [0 1 -1 0 0 0 0];

internalField   nonuniform List<vector> 
16
(
(1.88726e-15 1.3483e-15 0)
(2.77832e-15 3.96538e-17 0)
(1.04248e-15 -6.93947e-16 0)
(1.54764e-16 6.94012e-16 0)
(5.81084e-16 1.77639e-15 0)
(1.27609e-15 -1.00154e-15 0)
(8.07358e-16 -1.38879e-15 0)
(1.13364e-16 1.04197e-15 0)
(1.27953e-19 4.26217e-16 0)
(6.93848e-16 -1.04182e-15 0)
(1.11312e-15 -1.38904e-15 0)
(4.18268e-16 1.1717e-16 0)
(1.0006e-19 1.43484e-19 0)
(3.46629e-16 -6.82466e-19 0)
(3.46161e-16 -6.93814e-16 0)
(-8.30798e-19 -2.29453e-16 0)
)
;

boundaryField
{
    movingWall
    {
        type            noSlip;
    }
    fixedWalls
    {
        type            noSlip;
    }
    frontAndBack
    {
        type            empty;
    }
}


// ************************************************************************* //
