/*--------------------------------*- C++ -*----------------------------------*\
| =========                 |                                                 |
| \\      /  F ield         | OpenFOAM: The Open Source CFD Toolbox           |
|  \\    /   O peration     | Version:  2212                                  |
|   \\  /    A nd           | Website:  www.openfoam.com                      |
|    \\/     M anipulation  |                                                 |
\*---------------------------------------------------------------------------*/
FoamFile
{
    version     2.0;
    format      ascii;
    arch        "LSB;label=64;scalar=64";
    class       volScalarField::Internal;
    location    "1670";
    object      dGco2;
}
// * * * * * * * * * * * * * * * * * * * * * * * * * * * * * * * * * * * * * //

dimensions      [1 -3 -1 0 0 0 0];

value           nonuniform List<scalar> 
1024
(
0.000145418
0.000145478
0.000145625
0.000145895
0.000146334
0.000146996
0.000147938
0.000149214
0.000150858
0.000152872
0.00015521
0.000157778
0.000160436
0.000163017
0.000165336
0.000167191
0.000168236
0.000168299
0.000167594
0.000166336
0.000164692
0.000162814
0.000160863
0.000159001
0.000157358
0.00015601
0.000154976
0.00015423
0.000153727
0.000153415
0.000153245
0.000153176
0.000145438
0.000145498
0.000145646
0.000145919
0.000146363
0.000147033
0.000147985
0.000149273
0.000150931
0.000152959
0.000155309
0.000157885
0.000160547
0.000163129
0.000165447
0.000167302
0.000168348
0.000168411
0.000167703
0.000166442
0.000164794
0.000162911
0.000160953
0.000159079
0.000157422
0.00015606
0.000155013
0.000154258
0.000153749
0.000153433
0.000153261
0.000153191
0.000145486
0.000145548
0.000145699
0.000145978
0.000146432
0.000147117
0.000148091
0.000149406
0.000151095
0.000153153
0.00015553
0.000158126
0.000160802
0.00016339
0.000165712
0.000167571
0.000168622
0.000168683
0.000167962
0.00016668
0.000165013
0.000163113
0.000161136
0.000159238
0.000157554
0.000156164
0.000155093
0.00015432
0.000153799
0.000153476
0.000153301
0.000153229
0.000145574
0.000145637
0.000145793
0.000146081
0.000146551
0.000147261
0.000148269
0.000149628
0.000151365
0.000153475
0.000155899
0.000158534
0.000161238
0.000163846
0.000166183
0.000168059
0.000169124
0.000169178
0.00016842
0.000167084
0.000165365
0.000163423
0.000161408
0.000159473
0.00015775
0.000156322
0.000155218
0.00015442
0.000153883
0.00015355
0.00015337
0.000153297
0.000145713
0.000145778
0.00014594
0.000146241
0.000146733
0.000147476
0.000148532
0.000149952
0.000151761
0.000153946
0.000156443
0.000159143
0.0001619
0.000164551
0.000166926
0.00016884
0.000169935
0.000169973
0.000169138
0.000167692
0.000165865
0.000163837
0.000161757
0.000159768
0.000157996
0.000156524
0.000155383
0.000154558
0.000154004
0.000153662
0.000153477
0.000153402
0.000145917
0.000145984
0.000146154
0.000146471
0.00014699
0.000147776
0.000148894
0.000150394
0.000152299
0.00015459
0.000157194
0.000159994
0.000162841
0.000165571
0.000168018
0.000170001
0.000171144
0.00017115
0.000170186
0.000168552
0.000166535
0.000164355
0.000162167
0.000160102
0.000158271
0.000156755
0.000155581
0.000154734
0.000154167
0.000153819
0.000153632
0.000153557
0.0001462
0.000146271
0.000146449
0.000146783
0.000147335
0.000148174
0.000149368
0.00015097
0.000152999
0.000155432
0.000158186
0.000161136
0.000164122
0.000166978
0.000169541
0.000171631
0.000172839
0.000172796
0.00017164
0.000169723
0.000167413
0.00016499
0.000162633
0.000160458
0.000158561
0.000157004
0.000155808
0.000154952
0.000154383
0.000154038
0.000153855
0.000153783
0.000146582
0.000146655
0.000146842
0.000147196
0.000147785
0.000148685
0.000149971
0.000151698
0.000153887
0.000156506
0.000159465
0.000162624
0.000165809
0.000168846
0.000171575
0.000173811
0.000175101
0.000174993
0.000173594
0.000171302
0.000168581
0.000165802
0.000163192
0.000160861
0.00015888
0.000157288
0.000156088
0.000155242
0.00015469
0.000154362
0.000154193
0.000154128
0.000147082
0.000147157
0.000147353
0.000147728
0.000148359
0.000149331
0.000150725
0.000152606
0.000154995
0.000157856
0.000161086
0.000164521
0.000167968
0.00017124
0.000174177
0.000176594
0.000177991
0.000177832
0.000176183
0.000173468
0.000170236
0.000166975
0.000163998
0.000161437
0.000159339
0.00015771
0.000156518
0.000155705
0.000155192
0.000154901
0.000154759
0.000154708
0.000147727
0.000147804
0.000148008
0.000148407
0.000149085
0.00015014
0.000151665
0.000153733
0.000156371
0.000159536
0.000163105
0.000166883
0.000170645
0.000174189
0.000177363
0.000179992
0.000181548
0.000181428
0.000179635
0.00017657
0.000172815
0.000168972
0.000165484
0.000162567
0.000160273
0.000158569
0.000157379
0.000156608
0.000156154
0.000155918
0.000155818
0.00015579
0.000148548
0.000148628
0.000148842
0.000149266
0.000149999
0.000151151
0.000152831
0.000155126
0.000158065
0.000161595
0.000165562
0.000169728
0.00017383
0.000177655
0.000181072
0.000183946
0.000185769
0.000185911
0.000184275
0.000181163
0.000177096
0.000172717
0.00016861
0.000165156
0.000162498
0.000160597
0.000159336
0.000158576
0.000158172
0.000157997
0.000157947
0.000157946
0.000149582
0.000149663
0.000149888
0.000150342
0.000151138
0.000152402
0.000154262
0.000156818
0.0001601
0.000164034
0.000168423
0.000172977
0.000177396
0.00018147
0.000185111
0.000188263
0.000190516
0.000191281
0.000190338
0.000187808
0.000184031
0.000179562
0.000175027
0.00017096
0.000167695
0.000165328
0.000163778
0.000162874
0.000162425
0.000162257
0.00016223
0.000162246
0.000150854
0.000150938
0.000151174
0.00015166
0.000152522
0.000153906
0.000155956
0.000158783
0.000162408
0.000166731
0.000171501
0.000176374
0.000181024
0.000185258
0.000189051
0.000192462
0.00019526
0.000197001
0.000197376
0.000196291
0.000193814
0.000190251
0.000186089
0.000181872
0.00017808
0.000175036
0.000172856
0.000171473
0.000170713
0.000170371
0.000170263
0.000170254
0.000152361
0.000152447
0.000152692
0.000153205
0.000154123
0.000155609
0.00015782
0.00016087
0.00016477
0.000169383
0.000174411
0.000179462
0.000184186
0.000188405
0.000192147
0.000195592
0.00019876
0.000201481
0.000203472
0.000204467
0.000204256
0.000202823
0.000200355
0.000197195
0.000193772
0.000190521
0.000187789
0.000185753
0.00018442
0.000183668
0.000183321
0.000183212
0.000154043
0.000154128
0.000154375
0.000154895
0.000155833
0.000157359
0.000159639
0.000162785
0.000166798
0.000171514
0.000176599
0.00018162
0.000186191
0.00019011
0.000193412
0.000196355
0.000199248
0.00020236
0.000205562
0.000208488
0.000210724
0.000211985
0.000212164
0.000211323
0.000209669
0.000207522
0.000205255
0.000203215
0.000201631
0.000200577
0.000199996
0.000199771
0.000155762
0.000155843
0.000156079
0.000156573
0.000157466
0.000158924
0.000161113
0.000164145
0.000168023
0.000172579
0.000177466
0.000182221
0.0001864
0.000189721
0.000192155
0.000193967
0.000195746
0.00019834
0.000201893
0.000205992
0.000210058
0.000213596
0.000216292
0.000218007
0.000218751
0.000218663
0.000217978
0.000216991
0.00021599
0.000215185
0.00021467
0.000214442
0.000157208
0.000157283
0.000157495
0.000157933
0.00015872
0.000160005
0.000161944
0.000164652
0.000168145
0.000172282
0.000176742
0.000181061
0.000184746
0.000187418
0.000188931
0.000189482
0.000189821
0.000191305
0.000194464
0.000198991
0.000204218
0.00020942
0.000214031
0.000217719
0.000220366
0.000222016
0.000222827
0.000223028
0.00022287
0.000222584
0.000222333
0.0002222
0.00015816
0.000158229
0.000158415
0.000158792
0.000159459
0.000160544
0.000162185
0.000164493
0.000167502
0.000171114
0.000175056
0.000178908
0.000182177
0.000184431
0.000185432
0.000185278
0.000184714
0.000185245
0.000187687
0.000192037
0.000197801
0.000204178
0.000210351
0.000215698
0.00021988
0.000222828
0.000224667
0.000225633
0.000226003
0.000226042
0.00022596
0.000225889
0.000158685
0.000158748
0.000158912
0.000159236
0.0001598
0.000160706
0.000162073
0.000164004
0.000166545
0.000169634
0.000173058
0.00017646
0.000179392
0.000181426
0.000182283
0.000181991
0.000181231
0.000181408
0.000183356
0.000187282
0.000192964
0.000199783
0.000206909
0.000213525
0.000219042
0.000223187
0.000225971
0.000227603
0.000228388
0.000228648
0.000228659
0.000228612
0.000158944
0.000159
0.000159142
0.000159418
0.000159892
0.000160649
0.000161784
0.000163388
0.00016551
0.000168112
0.000171038
0.000174
0.000176625
0.000178532
0.000179457
0.000179404
0.000178974
0.000179345
0.000181219
0.000184866
0.000190241
0.000196973
0.000204404
0.000211715
0.000218169
0.000223294
0.000226942
0.000229229
0.000230441
0.00023093
0.000231032
0.000231006
0.000159133
0.000159174
0.000159283
0.000159501
0.000159883
0.000160501
0.000161435
0.000162759
0.000164517
0.000166687
0.000169154
0.000171704
0.000174049
0.000175895
0.000177034
0.000177493
0.000177765
0.000178711
0.000180839
0.000184416
0.000189499
0.000195899
0.000203165
0.000210633
0.00021757
0.000223374
0.000227727
0.000230613
0.000232248
0.00023298
0.000233183
0.000233179
0.000159524
0.000159537
0.000159586
0.000159711
0.000159968
0.000160426
0.000161158
0.000162228
0.000163671
0.000165472
0.000167555
0.000169773
0.000171932
0.000173834
0.000175352
0.000176544
0.000177753
0.000179469
0.000182003
0.000185602
0.000190405
0.000196366
0.000203197
0.000210409
0.000217393
0.000223537
0.000228394
0.000231792
0.000233834
0.00023482
0.000235137
0.000235159
0.000160472
0.000160435
0.000160383
0.000160357
0.000160427
0.000160672
0.000161174
0.000161996
0.000163173
0.0001647
0.000166534
0.000168587
0.000170748
0.000172898
0.000174972
0.00017704
0.000179252
0.000181738
0.000184657
0.000188253
0.000192721
0.000198136
0.000204362
0.000211056
0.000217743
0.000223894
0.000229021
0.000232811
0.000235222
0.000236465
0.000236908
0.000236962
0.000162354
0.000162243
0.000162043
0.000161809
0.00016163
0.000161615
0.000161867
0.00016247
0.000163469
0.000164873
0.000166663
0.000168789
0.000171182
0.000173768
0.0001765
0.00017943
0.000182515
0.000185599
0.000188755
0.000192241
0.00019629
0.000201059
0.000206539
0.000212529
0.000218678
0.000224553
0.000229699
0.000233723
0.000236438
0.00023793
0.00023851
0.000238601
0.000165495
0.000165288
0.000164911
0.000164449
0.000164024
0.000163775
0.00016384
0.000164328
0.000165304
0.000166784
0.00016875
0.000171156
0.000173936
0.000177015
0.000180338
0.000183925
0.000187582
0.000190981
0.000194163
0.000197404
0.000200955
0.000205013
0.000209657
0.000214806
0.000220234
0.00022561
0.000230536
0.000234606
0.000237523
0.000239232
0.000239953
0.000240089
0.000170116
0.000169799
0.000169259
0.000168638
0.000168094
0.00016778
0.000167842
0.000168409
0.000169552
0.000171273
0.000173537
0.000176278
0.00017941
0.000182845
0.00018651
0.000190401
0.000194245
0.000197648
0.000200645
0.00020352
0.000206521
0.000209851
0.00021363
0.000217866
0.000222443
0.000227138
0.000231634
0.000235547
0.000238527
0.000240394
0.000241246
0.000241434
0.000176337
0.000175916
0.000175302
0.000174715
0.00017432
0.000174231
0.000174552
0.000175398
0.000176824
0.000178812
0.000181311
0.000184238
0.000187497
0.000190993
0.000194649
0.000198449
0.000202107
0.000205238
0.000207883
0.000210311
0.000212746
0.000215372
0.000218321
0.000221644
0.000225309
0.000229193
0.000233076
0.000236636
0.000239512
0.000241442
0.0002424
0.000242642
0.000184234
0.000183753
0.000183253
0.000183002
0.000183081
0.000183494
0.000184262
0.00018546
0.000187116
0.000189219
0.000191721
0.000194549
0.000197614
0.000200831
0.000204132
0.000207499
0.000210678
0.000213339
0.000215525
0.000217467
0.000219352
0.000221333
0.000223526
0.000226001
0.000228768
0.000231782
0.000234919
0.000237948
0.000240548
0.000242417
0.000243425
0.000243717
0.000193933
0.000193503
0.0001934
0.000193775
0.000194513
0.00019549
0.000196666
0.000198077
0.00019975
0.000201705
0.00020392
0.000206346
0.000208919
0.000211575
0.00021426
0.000216962
0.000219477
0.000221554
0.000223229
0.000224681
0.000226055
0.000227466
0.000229004
0.000230733
0.000232681
0.000234846
0.000237176
0.00023954
0.000241697
0.000243362
0.00024434
0.000244663
0.000205709
0.000205547
0.000206096
0.000207119
0.000208337
0.000209608
0.000210891
0.000212219
0.000213634
0.00021518
0.000216865
0.000218668
0.000220551
0.000222474
0.0002244
0.000226318
0.000228089
0.000229539
0.000230695
0.000231681
0.000232596
0.000233516
0.000234506
0.00023561
0.000236856
0.000238257
0.000239801
0.000241433
0.000243014
0.000244326
0.000245169
0.000245485
0.000220069
0.000220418
0.000221442
0.000222594
0.000223729
0.000224792
0.000225771
0.000226702
0.000227626
0.000228589
0.00022961
0.000230687
0.000231801
0.000232932
0.000234058
0.000235174
0.0002362
0.000237035
0.000237697
0.000238256
0.000238767
0.000239274
0.000239812
0.000240408
0.000241079
0.000241836
0.000242681
0.000243598
0.00024453
0.00024536
0.000245945
0.000246195
0.000237624
0.000237896
0.000238421
0.000238924
0.000239384
0.000239797
0.000240161
0.000240493
0.000240811
0.000241133
0.000241469
0.00024182
0.000242183
0.00024255
0.000242914
0.000243274
0.000243604
0.000243873
0.000244085
0.000244263
0.000244425
0.000244584
0.000244751
0.000244936
0.000245143
0.000245376
0.000245637
0.000245923
0.00024622
0.000246498
0.000246709
0.000246812
)
;


// ************************************************************************* //
