/*--------------------------------*- C++ -*----------------------------------*\
| =========                 |                                                 |
| \\      /  F ield         | OpenFOAM: The Open Source CFD Toolbox           |
|  \\    /   O peration     | Version:  2212                                  |
|   \\  /    A nd           | Website:  www.openfoam.com                      |
|    \\/     M anipulation  |                                                 |
\*---------------------------------------------------------------------------*/
FoamFile
{
    version     2.0;
    format      ascii;
    arch        "LSB;label=64;scalar=64";
    class       volScalarField;
    location    "1670";
    object      Gco2;
}
// * * * * * * * * * * * * * * * * * * * * * * * * * * * * * * * * * * * * * //

dimensions      [1 -3 0 0 0 0 0];

internalField   nonuniform List<scalar> 
1024
(
0.0585009
0.0584743
0.0584089
0.0582885
0.0580929
0.0577981
0.0573784
0.0568104
0.0560789
0.055183
0.0541436
0.053003
0.0518231
0.0506785
0.0496509
0.0488293
0.0483677
0.0483411
0.0486551
0.0492141
0.0499441
0.050778
0.0516442
0.0524712
0.0532008
0.0537995
0.0542592
0.0545905
0.0548137
0.0549524
0.0550281
0.0550589
0.0584921
0.0584653
0.0583992
0.0582776
0.0580798
0.0577817
0.0573576
0.056784
0.0560463
0.0551443
0.0540998
0.0529556
0.0517739
0.0506289
0.0496016
0.0487802
0.0483182
0.0482916
0.0486066
0.0491671
0.0498988
0.0507348
0.0516044
0.0524366
0.0531724
0.0537775
0.0542427
0.0545781
0.0548041
0.0549443
0.0550208
0.0550519
0.0584705
0.0584432
0.0583758
0.0582515
0.0580492
0.0577442
0.0573104
0.0567248
0.0559735
0.055058
0.0540015
0.0528484
0.0516609
0.050513
0.0494842
0.048661
0.0481967
0.048171
0.048492
0.0490613
0.0498015
0.0506451
0.0515232
0.0523658
0.0531138
0.0537312
0.0542071
0.0545505
0.0547819
0.0549253
0.0550034
0.055035
0.0584316
0.0584035
0.058334
0.0582056
0.0579962
0.0576802
0.0572312
0.0566263
0.055853
0.0549149
0.0538375
0.0526673
0.0514673
0.0503108
0.0492752
0.0484448
0.047974
0.0479515
0.0482891
0.0488822
0.0496456
0.050508
0.0514024
0.0522616
0.053027
0.0536613
0.0541517
0.0545062
0.0547449
0.0548925
0.0549726
0.0550051
0.0583699
0.0583408
0.0582685
0.0581345
0.0579154
0.0575843
0.057114
0.0564819
0.055677
0.0547053
0.0535956
0.0523967
0.0511733
0.0499979
0.0489457
0.0480985
0.0476147
0.0475995
0.0479709
0.0486129
0.0494241
0.0503246
0.0512477
0.0521308
0.0529179
0.0535718
0.0540783
0.0544447
0.0546911
0.0548431
0.0549252
0.0549583
0.0582794
0.0582491
0.0581735
0.0580325
0.0578012
0.0574509
0.0569531
0.0562853
0.0554377
0.0544192
0.0532621
0.0520186
0.0507556
0.0495456
0.0484616
0.047584
0.0470793
0.0470779
0.0475067
0.0482322
0.0491273
0.0500951
0.0510661
0.0519831
0.0527958
0.0534693
0.0539905
0.0543667
0.0546189
0.0547735
0.0548564
0.0548895
0.0581533
0.0581218
0.0580425
0.0578935
0.0576476
0.057274
0.0567424
0.0560294
0.0551264
0.0540449
0.0528211
0.0515117
0.0501873
0.0489217
0.0477865
0.0468617
0.0463281
0.0463487
0.0468621
0.0477132
0.0487385
0.0498137
0.0508598
0.0518252
0.0526677
0.053359
0.0538898
0.0542702
0.0545229
0.0546763
0.0547575
0.0547894
0.0579839
0.0579513
0.0578681
0.0577103
0.0574479
0.0570469
0.0564745
0.0557058
0.0547322
0.0535676
0.0522529
0.050851
0.0494387
0.0480931
0.0468851
0.0458959
0.0453259
0.0453752
0.0459966
0.0470137
0.0482208
0.0494539
0.0506125
0.0516471
0.0525263
0.0532329
0.0537661
0.0541417
0.0543869
0.0545325
0.0546077
0.0546363
0.0577619
0.0577283
0.0576413
0.057474
0.0571929
0.0567603
0.0561394
0.0553023
0.0542398
0.0529679
0.0515336
0.0500091
0.048481
0.0470319
0.0457317
0.0446625
0.0440454
0.0441173
0.0448495
0.0460541
0.0474877
0.0489345
0.0502554
0.0513919
0.0523228
0.0530461
0.0535752
0.0539365
0.054164
0.0542935
0.0543566
0.054379
0.0574757
0.0574413
0.0573503
0.0571727
0.0568707
0.0564013
0.0557224
0.054802
0.0536289
0.0522221
0.0506374
0.0489611
0.0472937
0.0457243
0.0443196
0.0431568
0.0424694
0.042524
0.0433199
0.0446793
0.0463442
0.0480489
0.0495965
0.0508909
0.0519087
0.0526653
0.0531935
0.0535356
0.0537373
0.0538419
0.0538863
0.0538988
0.0571112
0.0570759
0.0569807
0.0567915
0.0564653
0.0559528
0.0552049
0.054184
0.0528773
0.0513086
0.0495473
0.0476993
0.0458815
0.0441881
0.042676
0.0414049
0.0405992
0.0405379
0.0412639
0.0426435
0.0444466
0.0463884
0.0482099
0.0497421
0.0509216
0.0517655
0.0523249
0.0526625
0.0528418
0.0529196
0.052942
0.0529423
0.0566527
0.0566165
0.0565165
0.0563142
0.0559603
0.0553978
0.0545701
0.0534334
0.0519748
0.0502271
0.0482788
0.0462591
0.0443013
0.0424979
0.0408868
0.0394926
0.0384965
0.0381592
0.0385777
0.039699
0.0413728
0.0433539
0.045364
0.0471677
0.048616
0.0496661
0.0503543
0.0507554
0.0509548
0.0510298
0.0510419
0.0510345
0.0560886
0.0560514
0.0559463
0.0557299
0.0553464
0.0547309
0.053819
0.0525626
0.0509514
0.0490317
0.0469148
0.0447538
0.0426939
0.0408198
0.0391416
0.037633
0.0363958
0.0356266
0.0354615
0.0359422
0.0370395
0.0386177
0.0404616
0.0423306
0.0440115
0.0453614
0.0463283
0.046942
0.0472793
0.0474312
0.047479
0.0474832
0.0554202
0.0553822
0.0552729
0.0550449
0.0546365
0.053976
0.0529931
0.0516378
0.0499051
0.0478567
0.0456256
0.0433861
0.0412933
0.0394259
0.0377705
0.0362474
0.0348475
0.033645
0.032765
0.0323252
0.0324184
0.0330525
0.0341452
0.0355443
0.0370603
0.0385001
0.0397109
0.0406133
0.041204
0.0415376
0.0416915
0.0417397
0.0546745
0.0546366
0.0545266
0.0542954
0.0538783
0.0532001
0.0521873
0.0507895
0.049007
0.046913
0.0446568
0.0424305
0.0404056
0.0386709
0.0372107
0.0359105
0.034633
0.0332586
0.0318436
0.0305499
0.0295612
0.0290033
0.0289236
0.0292949
0.0300262
0.0309759
0.0319792
0.0328818
0.0335828
0.0340498
0.0343068
0.0344067
0.0539119
0.0538756
0.0537709
0.0535513
0.0531544
0.0525065
0.0515343
0.0501872
0.0484652
0.0464425
0.0442737
0.0421647
0.0403129
0.0388424
0.0377665
0.0369669
0.0361828
0.0350381
0.0334691
0.0316581
0.029861
0.0282967
0.0271044
0.0263456
0.0260157
0.026054
0.026356
0.0267915
0.0272335
0.0275893
0.0278167
0.0279176
0.0532699
0.0532365
0.0531425
0.052948
0.0525984
0.0520273
0.0511659
0.049963
0.0484118
0.0465749
0.0445954
0.0426791
0.041045
0.0398611
0.0391917
0.0389497
0.0388024
0.0381489
0.0367543
0.0347545
0.0324448
0.0301462
0.0281083
0.026478
0.025308
0.0245781
0.0242186
0.0241292
0.0241983
0.0243242
0.0244345
0.0244932
0.052847
0.0528165
0.0527338
0.0525666
0.0522701
0.0517881
0.0510595
0.0500344
0.0486976
0.0470939
0.0453434
0.0436335
0.0421829
0.0411832
0.0407395
0.0408081
0.0410593
0.0408268
0.0397491
0.037828
0.0352811
0.0324633
0.0297355
0.0273731
0.0255251
0.0242221
0.0234091
0.022982
0.022818
0.0228003
0.0228362
0.0228674
0.0526134
0.0525856
0.0525126
0.0523688
0.0521187
0.051716
0.0511088
0.0502511
0.0491224
0.0477509
0.0462301
0.0447194
0.0434173
0.042514
0.042133
0.0422619
0.042599
0.0425225
0.0416632
0.0399289
0.0374186
0.0344058
0.0312572
0.0283341
0.0258966
0.0240655
0.0228352
0.0221139
0.0217667
0.0216515
0.0216464
0.0216667
0.0524977
0.0524732
0.05241
0.0522875
0.052077
0.0517411
0.0512369
0.0505244
0.049582
0.048426
0.0471264
0.0458105
0.0446446
0.043797
0.0433853
0.0434078
0.0435983
0.0434353
0.0426083
0.0409974
0.0386222
0.0356478
0.0323646
0.0291343
0.0262832
0.0240191
0.0224078
0.0213973
0.0208617
0.0206454
0.0206
0.0206113
0.0524137
0.0523954
0.0523469
0.0522503
0.0520805
0.0518062
0.0513915
0.0508032
0.0500223
0.0490584
0.0479625
0.0468297
0.0457875
0.0449671
0.0444602
0.0442559
0.0441353
0.0437174
0.0427773
0.041197
0.0389508
0.0361228
0.0329125
0.0296129
0.0265484
0.0239848
0.0220622
0.0207874
0.0200647
0.0197413
0.0196513
0.0196529
0.0522399
0.0522342
0.0522123
0.0521569
0.0520427
0.0518393
0.051514
0.0510387
0.050398
0.0495975
0.0486723
0.0476869
0.0467277
0.0458823
0.0452079
0.0446786
0.0441432
0.0433845
0.0422648
0.040674
0.0385515
0.0359174
0.0328991
0.0297127
0.0266276
0.0239135
0.0217682
0.0202674
0.0193654
0.0189299
0.0187897
0.0187798
0.0518201
0.0518363
0.0518596
0.0518705
0.0518395
0.0517305
0.0515074
0.051142
0.0506192
0.0499407
0.0491264
0.0482143
0.047255
0.0463002
0.0453801
0.0444632
0.0434839
0.0423842
0.0410938
0.0395041
0.0375291
0.0351363
0.032385
0.0294273
0.0264735
0.0237566
0.0214922
0.0198184
0.0187536
0.0182044
0.0180084
0.0179847
0.0509873
0.0510363
0.0511248
0.0512281
0.0513069
0.0513134
0.0512008
0.0509329
0.0504894
0.0498659
0.0490717
0.0481282
0.0470663
0.0459195
0.0447084
0.04341
0.0420447
0.0406801
0.0392845
0.037743
0.0359531
0.0338456
0.0314239
0.0287772
0.0260609
0.023466
0.0211934
0.0194159
0.018217
0.0175584
0.017302
0.0172615
0.0495977
0.0496894
0.0498562
0.0500605
0.0502482
0.0503577
0.0503287
0.0501119
0.0496788
0.0490224
0.0481506
0.0470838
0.0458515
0.0444869
0.0430146
0.0414261
0.0398075
0.0383034
0.0368962
0.0354629
0.0338931
0.0320995
0.0300475
0.0277724
0.0253744
0.0229998
0.0208242
0.0190267
0.0177387
0.0169839
0.0166656
0.0166052
0.0475537
0.047694
0.0479329
0.0482076
0.0484481
0.0485866
0.0485591
0.0483078
0.0478014
0.0470386
0.0460355
0.0448211
0.0434336
0.0419122
0.0402886
0.0385658
0.0368644
0.035359
0.0340333
0.0327617
0.0314349
0.0299633
0.0282928
0.0264211
0.0243991
0.0223251
0.0203398
0.0186115
0.0172959
0.0164716
0.0160951
0.0160119
0.0448023
0.0449885
0.0452603
0.0455199
0.0456945
0.0457338
0.0455921
0.0452175
0.0445864
0.0437059
0.0425995
0.0413032
0.03986
0.0383119
0.0366928
0.0350106
0.0333918
0.0320064
0.0308361
0.0297623
0.0286856
0.0275246
0.0262216
0.0247529
0.0231339
0.0214182
0.0197033
0.0181312
0.0168611
0.016009
0.0155863
0.0154791
0.0413101
0.041523
0.041744
0.0418551
0.0418201
0.0416379
0.0412983
0.0407684
0.0400356
0.0391049
0.0379971
0.0367451
0.0353882
0.0339639
0.0325024
0.0310118
0.0296049
0.0284274
0.0274602
0.0266016
0.0257678
0.0248921
0.0239228
0.0228295
0.0216069
0.0202754
0.0188899
0.0175521
0.016404
0.0155791
0.0151341
0.015005
0.0370212
0.0372115
0.0372568
0.0370912
0.0367649
0.0363329
0.0358134
0.0351894
0.034449
0.0335842
0.032604
0.0315301
0.0303911
0.0292154
0.0280265
0.0268307
0.0257173
0.0247984
0.0240575
0.0234151
0.0228073
0.0221837
0.0215038
0.02074
0.0198791
0.0189229
0.0178936
0.0168498
0.0158971
0.0151623
0.0147307
0.014588
0.0318142
0.0318856
0.0316431
0.0311909
0.0306522
0.0300903
0.0295232
0.0289359
0.0283101
0.0276261
0.0268807
0.0260828
0.0252491
0.024398
0.0235455
0.0226963
0.0219124
0.0212708
0.0207593
0.0203232
0.0199186
0.0195117
0.0190744
0.0185866
0.0180358
0.0174171
0.0167349
0.0160141
0.0153163
0.0147368
0.014365
0.0142254
0.0254646
0.0253102
0.0248579
0.0243482
0.0238465
0.0233766
0.0229438
0.0225323
0.0221235
0.0216974
0.0212456
0.0207693
0.020276
0.0197755
0.0192769
0.0187829
0.0183291
0.0179594
0.0176665
0.0174194
0.0171934
0.0169692
0.0167314
0.016468
0.0161715
0.0158372
0.015464
0.0150588
0.0146475
0.0142811
0.0140229
0.0139125
0.0177031
0.0175828
0.0173507
0.0171283
0.0169249
0.0167424
0.0165812
0.0164345
0.0162941
0.0161517
0.0160029
0.0158474
0.0156869
0.0155246
0.0153632
0.0152039
0.0150578
0.014939
0.0148452
0.0147664
0.0146949
0.0146245
0.0145504
0.0144688
0.0143772
0.0142742
0.014159
0.0140327
0.0139014
0.0137791
0.0136857
0.0136405
)
;

boundaryField
{
    movingWall
    {
        type            fixedValue;
        value           uniform 0.0135;
    }
    fixedWalls
    {
        type            zeroGradient;
    }
    floor
    {
        type            zeroGradient;
    }
    frontAndBack
    {
        type            empty;
    }
}


// ************************************************************************* //
