/*--------------------------------*- C++ -*----------------------------------*\
| =========                 |                                                 |
| \\      /  F ield         | OpenFOAM: The Open Source CFD Toolbox           |
|  \\    /   O peration     | Version:  2212                                  |
|   \\  /    A nd           | Website:  www.openfoam.com                      |
|    \\/     M anipulation  |                                                 |
\*---------------------------------------------------------------------------*/
FoamFile
{
    version     2.0;
    format      ascii;
    arch        "LSB;label=64;scalar=64";
    class       volScalarField;
    location    "1670";
    object      p_rgh;
}
// * * * * * * * * * * * * * * * * * * * * * * * * * * * * * * * * * * * * * //

dimensions      [0 2 -2 0 0 0 0];

internalField   nonuniform List<scalar> 
1024
(
0.0431943
0.0431938
0.0431929
0.0431922
0.0431921
0.0431929
0.0431949
0.0431984
0.0432037
0.0432107
0.0432198
0.043231
0.0432441
0.0432592
0.043276
0.0432923
0.0432981
0.0432815
0.0432392
0.0431812
0.0431259
0.0430857
0.0430613
0.0430476
0.0430403
0.0430366
0.0430349
0.0430346
0.0430354
0.0430369
0.0430384
0.0430394
0.0431956
0.0431951
0.0431944
0.0431938
0.0431938
0.0431947
0.0431967
0.0432002
0.0432054
0.0432124
0.0432215
0.0432327
0.0432458
0.0432609
0.0432777
0.0432939
0.0432995
0.0432827
0.0432405
0.0431829
0.0431281
0.0430883
0.0430642
0.0430506
0.0430433
0.0430395
0.0430377
0.0430372
0.0430376
0.0430387
0.04304
0.043041
0.0431983
0.0431976
0.0431969
0.0431965
0.0431967
0.0431977
0.0431999
0.0432036
0.0432088
0.043216
0.0432253
0.0432367
0.0432501
0.0432655
0.0432826
0.043299
0.0433046
0.0432877
0.0432454
0.0431877
0.0431328
0.043093
0.043069
0.0430555
0.0430481
0.043044
0.0430419
0.0430409
0.0430409
0.0430416
0.0430429
0.0430441
0.0432024
0.0432014
0.0432005
0.0432002
0.0432006
0.043202
0.0432046
0.0432086
0.0432144
0.0432221
0.043232
0.0432439
0.043258
0.043274
0.0432917
0.0433088
0.0433148
0.0432978
0.0432551
0.0431965
0.0431404
0.0430997
0.0430754
0.0430618
0.0430541
0.0430496
0.0430469
0.0430454
0.0430448
0.0430452
0.0430465
0.0430482
0.0432076
0.0432063
0.0432053
0.043205
0.0432057
0.0432076
0.0432109
0.0432159
0.0432227
0.0432315
0.0432424
0.0432555
0.0432705
0.0432874
0.043306
0.0433239
0.0433302
0.0433128
0.0432692
0.0432091
0.0431507
0.043108
0.0430829
0.0430688
0.0430607
0.0430556
0.0430521
0.0430498
0.0430485
0.0430486
0.04305
0.043052
0.0432135
0.043212
0.0432108
0.0432106
0.0432118
0.0432146
0.0432192
0.0432257
0.0432343
0.0432449
0.0432576
0.0432723
0.0432886
0.0433064
0.0433256
0.0433439
0.0433501
0.043331
0.0432858
0.0432237
0.0431623
0.0431164
0.04309
0.0430753
0.0430664
0.0430604
0.0430559
0.0430526
0.0430506
0.0430503
0.0430515
0.0430536
0.0432194
0.0432177
0.0432164
0.0432165
0.0432185
0.0432227
0.0432293
0.0432384
0.0432497
0.0432631
0.0432784
0.043295
0.0433124
0.0433307
0.0433497
0.0433669
0.0433715
0.0433497
0.0433017
0.0432371
0.0431725
0.0431229
0.0430946
0.043079
0.0430691
0.0430619
0.0430561
0.0430517
0.0430489
0.0430479
0.0430488
0.0430505
0.0432243
0.0432225
0.0432213
0.0432218
0.043225
0.0432314
0.0432411
0.0432538
0.0432691
0.0432864
0.0433049
0.0433235
0.0433413
0.0433587
0.0433757
0.0433899
0.043391
0.0433657
0.0433146
0.0432471
0.0431791
0.0431253
0.0430943
0.0430776
0.0430665
0.0430578
0.0430507
0.0430451
0.0430414
0.0430398
0.04304
0.0430411
0.0432271
0.0432253
0.0432242
0.0432255
0.0432305
0.04324
0.0432539
0.0432719
0.0432926
0.0433147
0.0433366
0.0433567
0.0433738
0.0433878
0.0434005
0.0434096
0.0434059
0.0433773
0.0433239
0.0432551
0.0431838
0.0431244
0.0430896
0.0430708
0.0430581
0.0430478
0.0430393
0.0430328
0.0430285
0.0430263
0.0430258
0.0430261
0.0432268
0.043225
0.0432241
0.0432265
0.043234
0.0432476
0.0432674
0.0432922
0.0433196
0.0433471
0.0433721
0.0433923
0.0434065
0.0434152
0.0434211
0.0434239
0.0434159
0.0433862
0.0433339
0.0432659
0.0431935
0.0431308
0.0430877
0.0430634
0.0430481
0.043036
0.0430261
0.0430187
0.043014
0.0430114
0.0430103
0.04301
0.0432227
0.0432208
0.0432203
0.043224
0.0432345
0.0432535
0.0432807
0.0433138
0.0433488
0.0433817
0.0434086
0.043427
0.0434364
0.0434384
0.0434363
0.043433
0.0434227
0.043396
0.0433509
0.0432916
0.0432254
0.0431616
0.0431077
0.0430698
0.0430479
0.043032
0.0430198
0.0430112
0.0430058
0.0430028
0.0430014
0.0430007
0.0432136
0.0432116
0.0432114
0.0432167
0.043231
0.0432563
0.043292
0.0433343
0.0433772
0.0434144
0.0434415
0.0434567
0.0434609
0.0434567
0.0434479
0.0434383
0.0434281
0.043409
0.043379
0.0433398
0.0432944
0.0432447
0.0431907
0.0431344
0.0430869
0.0430573
0.0430368
0.0430235
0.043016
0.0430125
0.0430113
0.0430107
0.0431973
0.0431951
0.0431952
0.0432021
0.0432203
0.0432524
0.043297
0.0433483
0.043398
0.0434384
0.043465
0.0434771
0.0434769
0.043468
0.0434542
0.0434399
0.0434299
0.0434208
0.0434109
0.0434008
0.0433901
0.0433752
0.0433494
0.0433057
0.0432414
0.0431696
0.0431191
0.0430894
0.0430732
0.0430664
0.0430645
0.0430645
0.0431694
0.0431672
0.0431674
0.0431756
0.0431972
0.0432352
0.0432877
0.0433469
0.0434025
0.0434457
0.0434723
0.043483
0.0434807
0.0434691
0.0434518
0.0434328
0.0434199
0.0434177
0.0434247
0.0434406
0.0434634
0.0434875
0.0435045
0.0435048
0.043481
0.04343
0.043356
0.043284
0.0432361
0.0432129
0.0432037
0.0432014
0.0431253
0.043123
0.0431232
0.0431317
0.0431549
0.0431968
0.0432551
0.043321
0.0433821
0.0434289
0.0434575
0.0434688
0.0434659
0.0434523
0.0434315
0.043408
0.0433905
0.0433883
0.0434014
0.043428
0.0434659
0.0435101
0.0435534
0.0435878
0.0436066
0.043606
0.043586
0.0435501
0.0435059
0.0434665
0.0434428
0.0434337
0.0430648
0.0430626
0.0430622
0.0430696
0.0430919
0.0431342
0.0431953
0.0432661
0.0433334
0.0433861
0.0434194
0.0434341
0.043433
0.0434193
0.0433966
0.0433699
0.0433483
0.0433419
0.0433505
0.0433718
0.0434046
0.0434461
0.0434917
0.043535
0.0435702
0.0435935
0.0436042
0.0436039
0.0435962
0.0435852
0.0435749
0.0435681
0.0430023
0.043
0.0429986
0.0430035
0.0430221
0.0430609
0.0431207
0.043194
0.0432673
0.0433278
0.0433687
0.0433896
0.0433932
0.0433831
0.0433633
0.0433403
0.0433243
0.0433155
0.0433151
0.0433221
0.0433369
0.0433603
0.0433914
0.0434266
0.0434603
0.0434873
0.0435051
0.0435139
0.0435158
0.0435136
0.0435095
0.0435056
0.0429642
0.0429619
0.0429594
0.0429616
0.0429754
0.0430075
0.0430608
0.0431314
0.0432088
0.0432774
0.0433268
0.0433555
0.0433656
0.0433608
0.0433465
0.0433305
0.0433263
0.0433229
0.04332
0.0433175
0.0433148
0.0433158
0.0433247
0.0433422
0.043365
0.0433875
0.0434048
0.0434149
0.0434185
0.0434176
0.0434141
0.0434103
0.0429567
0.0429544
0.042951
0.0429508
0.0429601
0.0429855
0.0430313
0.0430961
0.0431713
0.043243
0.0432995
0.0433358
0.0433522
0.0433522
0.0433416
0.0433292
0.0433284
0.0433343
0.0433391
0.0433378
0.0433305
0.0433183
0.043308
0.0433064
0.0433144
0.0433284
0.0433423
0.0433517
0.0433555
0.0433547
0.0433508
0.0433462
0.042971
0.0429686
0.0429645
0.0429624
0.0429678
0.0429875
0.0430263
0.0430844
0.0431553
0.0432267
0.0432864
0.0433272
0.0433475
0.0433498
0.04334
0.043327
0.0433236
0.0433327
0.0433451
0.0433546
0.0433575
0.0433477
0.0433284
0.0433134
0.0433091
0.0433152
0.0433256
0.0433342
0.0433382
0.0433373
0.0433326
0.0433271
0.0429977
0.0429951
0.0429906
0.0429868
0.0429894
0.0430047
0.0430381
0.0430903
0.0431562
0.0432248
0.0432841
0.0433255
0.0433461
0.0433477
0.0433357
0.0433194
0.0433122
0.043322
0.0433402
0.0433592
0.0433731
0.0433763
0.0433679
0.0433488
0.0433384
0.0433411
0.0433517
0.0433624
0.0433682
0.043368
0.0433628
0.0433559
0.0430293
0.0430266
0.0430216
0.0430168
0.0430176
0.0430304
0.0430602
0.0431086
0.0431702
0.0432347
0.0432903
0.0433283
0.0433454
0.0433428
0.0433263
0.0433051
0.0432941
0.0433033
0.0433258
0.0433525
0.0433772
0.0433945
0.0434016
0.0433991
0.0433934
0.0433989
0.0434161
0.0434351
0.0434473
0.0434503
0.0434452
0.0434368
0.0430609
0.0430579
0.0430523
0.0430472
0.0430476
0.0430597
0.0430888
0.0431356
0.0431942
0.0432539
0.0433032
0.0433341
0.0433438
0.043334
0.0433107
0.0432839
0.043269
0.0432768
0.0433024
0.0433354
0.04337
0.0434017
0.0434275
0.0434477
0.043465
0.0434855
0.0435164
0.0435521
0.0435788
0.04359
0.0435869
0.0435773
0.0430885
0.0430848
0.043079
0.0430744
0.0430762
0.0430904
0.0431215
0.0431691
0.0432257
0.0432798
0.0433204
0.043341
0.0433403
0.0433209
0.0432892
0.0432558
0.043237
0.0432433
0.0432701
0.0433079
0.0433516
0.0433978
0.0434447
0.0434927
0.0435431
0.043597
0.0436546
0.0437161
0.0437682
0.0437962
0.0437989
0.0437895
0.0431096
0.0431048
0.0430989
0.0430964
0.0431022
0.0431216
0.0431573
0.0432073
0.0432622
0.0433096
0.0433395
0.0433474
0.0433339
0.043303
0.0432618
0.0432211
0.0431979
0.0432022
0.0432288
0.0432709
0.0433229
0.0433835
0.043453
0.043533
0.0436245
0.0437256
0.0438302
0.0439312
0.0440214
0.0440797
0.044096
0.044091
0.0431221
0.0431158
0.0431104
0.0431121
0.0431254
0.0431527
0.0431945
0.0432479
0.0433007
0.0433397
0.043357
0.0433507
0.0433232
0.0432797
0.0432282
0.0431799
0.0431522
0.0431544
0.0431811
0.0432264
0.043286
0.0433607
0.0434534
0.0435678
0.0437059
0.0438643
0.0440331
0.0441968
0.044341
0.0444498
0.0444952
0.0445032
0.0431201
0.0431128
0.0431101
0.0431199
0.0431447
0.0431834
0.0432319
0.043288
0.0433371
0.043366
0.0433695
0.0433481
0.0433062
0.04325
0.0431884
0.0431328
0.0431012
0.0431017
0.0431288
0.043177
0.0432439
0.0433322
0.0434474
0.0435962
0.0437824
0.0440037
0.0442486
0.0444964
0.0447224
0.044907
0.0450089
0.0450465
0.043091
0.0430862
0.0430921
0.0431172
0.0431589
0.0432114
0.0432672
0.0433239
0.043367
0.0433842
0.0433735
0.0433375
0.043282
0.0432141
0.0431434
0.0430819
0.0430477
0.0430476
0.0430757
0.0431271
0.0432011
0.0433016
0.0434369
0.0436167
0.0438478
0.044131
0.0444567
0.0448042
0.0451432
0.0454365
0.045637
0.0457345
0.0430092
0.0430191
0.0430501
0.0431036
0.0431681
0.0432351
0.0432981
0.0433525
0.0433871
0.0433922
0.0433682
0.0433193
0.0432521
0.0431749
0.0430973
0.0430321
0.0429967
0.0429971
0.0430268
0.0430818
0.0431619
0.0432725
0.0434239
0.0436285
0.0438963
0.0442324
0.0446333
0.045085
0.0455613
0.0460168
0.0463714
0.046599
0.0428216
0.0428938
0.0429914
0.0430906
0.0431789
0.0432584
0.0433255
0.0433743
0.0433989
0.0433927
0.0433573
0.043298
0.0432222
0.0431384
0.0430565
0.0429894
0.0429542
0.0429557
0.0429872
0.0430454
0.0431301
0.0432478
0.0434103
0.0436316
0.0439244
0.0442979
0.0447564
0.0452995
0.0459205
0.0465905
0.0472225
0.0477739
0.0423301
0.0427202
0.04296
0.0431075
0.0432101
0.043292
0.043355
0.0433952
0.0434095
0.0433935
0.043349
0.043282
0.0432001
0.0431121
0.0430277
0.0429599
0.0429252
0.0429277
0.0429606
0.0430207
0.043108
0.0432294
0.0433975
0.043627
0.0439321
0.0443245
0.0448153
0.0454187
0.046158
0.0470672
0.0481752
0.0494338
0.0413123
0.0425477
0.0430105
0.043158
0.0432542
0.0433309
0.0433856
0.0434167
0.0434225
0.0433992
0.0433486
0.0432766
0.043191
0.0431005
0.0430147
0.0429463
0.0429116
0.0429145
0.0429481
0.0430088
0.0430969
0.0432193
0.0433886
0.04362
0.0439276
0.0443247
0.0448259
0.0454567
0.0462695
0.0473713
0.0489799
0.0512424
)
;

boundaryField
{
    movingWall
    {
        type            fixedFluxPressure;
        gradient        uniform 0;
        value           nonuniform List<scalar> 
32
(
0.0413123
0.0425477
0.0430105
0.043158
0.0432542
0.0433309
0.0433856
0.0434167
0.0434225
0.0433992
0.0433486
0.0432766
0.043191
0.0431005
0.0430147
0.0429463
0.0429116
0.0429145
0.0429481
0.0430088
0.0430969
0.0432193
0.0433886
0.04362
0.0439276
0.0443247
0.0448259
0.0454567
0.0462695
0.0473713
0.0489799
0.0512424
)
;
    }
    fixedWalls
    {
        type            fixedFluxPressure;
        gradient        uniform 0;
        value           nonuniform List<scalar> 
64
(
0.0431943
0.0431956
0.0431983
0.0432024
0.0432076
0.0432135
0.0432194
0.0432243
0.0432271
0.0432268
0.0432227
0.0432136
0.0431973
0.0431694
0.0431253
0.0430648
0.0430023
0.0429642
0.0429567
0.042971
0.0429977
0.0430293
0.0430609
0.0430885
0.0431096
0.0431221
0.0431201
0.043091
0.0430092
0.0428216
0.0423301
0.0413123
0.0430394
0.043041
0.0430441
0.0430482
0.043052
0.0430536
0.0430505
0.0430411
0.0430261
0.04301
0.0430007
0.0430107
0.0430645
0.0432014
0.0434337
0.0435681
0.0435056
0.0434103
0.0433462
0.0433271
0.0433559
0.0434368
0.0435773
0.0437895
0.044091
0.0445032
0.0450465
0.0457345
0.046599
0.0477739
0.0494338
0.0512424
)
;
    }
    floor
    {
        type            fixedFluxPressure;
        gradient        uniform 0;
        value           nonuniform List<scalar> 
32
(
0.0431943
0.0431938
0.0431929
0.0431922
0.0431921
0.0431929
0.0431949
0.0431984
0.0432037
0.0432107
0.0432198
0.043231
0.0432441
0.0432592
0.043276
0.0432923
0.0432981
0.0432815
0.0432392
0.0431812
0.0431259
0.0430857
0.0430613
0.0430476
0.0430403
0.0430366
0.0430349
0.0430346
0.0430354
0.0430369
0.0430384
0.0430394
)
;
    }
    frontAndBack
    {
        type            empty;
    }
}


// ************************************************************************* //
