/*--------------------------------*- C++ -*----------------------------------*\
| =========                 |                                                 |
| \\      /  F ield         | OpenFOAM: The Open Source CFD Toolbox           |
|  \\    /   O peration     | Version:  2212                                  |
|   \\  /    A nd           | Website:  www.openfoam.com                      |
|    \\/     M anipulation  |                                                 |
\*---------------------------------------------------------------------------*/
FoamFile
{
    version     2.0;
    format      ascii;
    arch        "LSB;label=64;scalar=64";
    class       volScalarField;
    location    "1670";
    object      Xli;
}
// * * * * * * * * * * * * * * * * * * * * * * * * * * * * * * * * * * * * * //

dimensions      [1 -3 0 0 0 0 0];

internalField   nonuniform List<scalar> 
1024
(
0.0423201
0.042321
0.0423231
0.0423271
0.0423336
0.0423434
0.0423573
0.0423761
0.0424003
0.0424298
0.0424638
0.0425009
0.0425388
0.0425751
0.0426072
0.042632
0.0426451
0.0426446
0.0426337
0.0426155
0.042592
0.0425652
0.0425374
0.0425107
0.0424872
0.0424678
0.0424529
0.0424422
0.0424349
0.0424304
0.0424279
0.0424269
0.0423204
0.0423213
0.0423235
0.0423275
0.0423341
0.042344
0.042358
0.042377
0.0424014
0.042431
0.0424652
0.0425024
0.0425404
0.0425767
0.0426087
0.0426335
0.0426466
0.0426461
0.0426352
0.0426169
0.0425933
0.0425665
0.0425386
0.0425118
0.0424881
0.0424685
0.0424534
0.0424425
0.0424352
0.0424306
0.0424282
0.0424271
0.0423211
0.042322
0.0423242
0.0423284
0.0423351
0.0423452
0.0423596
0.042379
0.0424037
0.0424338
0.0424684
0.0425058
0.042544
0.0425803
0.0426123
0.0426371
0.0426502
0.0426497
0.0426386
0.0426201
0.0425963
0.0425693
0.0425411
0.042514
0.0424899
0.0424699
0.0424545
0.0424434
0.0424359
0.0424312
0.0424287
0.0424277
0.0423224
0.0423233
0.0423256
0.0423299
0.0423368
0.0423473
0.0423622
0.0423822
0.0424077
0.0424385
0.0424737
0.0425116
0.0425501
0.0425867
0.0426187
0.0426437
0.0426569
0.0426562
0.0426446
0.0426254
0.0426009
0.0425734
0.0425448
0.0425172
0.0424926
0.0424721
0.0424563
0.0424448
0.042437
0.0424322
0.0424296
0.0424286
0.0423244
0.0423254
0.0423278
0.0423322
0.0423395
0.0423505
0.042366
0.0423869
0.0424134
0.0424453
0.0424815
0.0425202
0.0425594
0.0425964
0.0426289
0.0426543
0.0426678
0.0426667
0.042654
0.0426333
0.0426075
0.0425788
0.0425494
0.0425212
0.0424959
0.0424749
0.0424585
0.0424467
0.0424387
0.0424337
0.0424311
0.04243
0.0423274
0.0423284
0.042331
0.0423356
0.0423433
0.0423549
0.0423713
0.0423934
0.0424212
0.0424545
0.0424922
0.0425323
0.0425726
0.0426105
0.0426438
0.0426699
0.0426838
0.0426822
0.0426677
0.0426444
0.0426161
0.0425855
0.0425548
0.0425256
0.0424996
0.0424779
0.0424612
0.042449
0.0424409
0.0424358
0.0424331
0.0424321
0.0423316
0.0423327
0.0423353
0.0423402
0.0423484
0.0423607
0.0423782
0.0424017
0.0424313
0.0424666
0.0425063
0.0425484
0.0425905
0.04263
0.0426646
0.0426918
0.0427064
0.0427039
0.0426866
0.0426595
0.0426273
0.0425936
0.0425606
0.0425301
0.0425033
0.0424812
0.0424641
0.0424519
0.0424437
0.0424388
0.0424361
0.0424351
0.0423373
0.0423383
0.0423411
0.0423463
0.042355
0.0423682
0.042387
0.0424123
0.0424441
0.042482
0.0425245
0.0425694
0.042614
0.0426557
0.0426923
0.0427211
0.0427364
0.0427327
0.0427121
0.0426798
0.0426421
0.0426037
0.0425675
0.042535
0.0425072
0.0424847
0.0424677
0.0424556
0.0424477
0.042443
0.0424406
0.0424397
0.0423446
0.0423457
0.0423486
0.0423541
0.0423634
0.0423776
0.042398
0.0424254
0.0424601
0.0425013
0.0425475
0.0425961
0.042644
0.0426886
0.0427276
0.0427585
0.0427748
0.0427701
0.0427458
0.0427078
0.0426632
0.0426184
0.0425775
0.042542
0.0425128
0.04249
0.0424732
0.0424616
0.0424543
0.0424502
0.0424481
0.0424474
0.0423541
0.0423553
0.0423582
0.0423641
0.042374
0.0423894
0.0424116
0.0424417
0.0424798
0.0425253
0.0425761
0.0426292
0.0426812
0.0427291
0.0427708
0.0428041
0.042822
0.0428175
0.0427911
0.0427482
0.0426966
0.0426441
0.0425964
0.0425564
0.0425247
0.042501
0.0424844
0.0424735
0.0424671
0.0424637
0.0424623
0.0424618
0.0423662
0.0423674
0.0423705
0.0423767
0.0423874
0.0424041
0.0424285
0.0424618
0.0425041
0.0425546
0.0426108
0.042669
0.0427253
0.0427766
0.0428211
0.0428571
0.0428783
0.0428769
0.0428524
0.0428087
0.0427529
0.0426932
0.0426374
0.0425903
0.0425539
0.0425278
0.0425104
0.0424998
0.0424941
0.0424916
0.0424909
0.0424908
0.0423814
0.0423826
0.0423859
0.0423925
0.042404
0.0424223
0.0424493
0.0424861
0.0425332
0.0425893
0.0426511
0.0427144
0.0427747
0.0428289
0.042876
0.0429153
0.0429419
0.0429485
0.0429329
0.0428969
0.0428448
0.042784
0.0427226
0.0426675
0.0426233
0.0425911
0.04257
0.0425576
0.0425514
0.0425491
0.0425487
0.0425489
0.0424001
0.0424013
0.0424047
0.0424118
0.0424242
0.0424442
0.0424738
0.0425144
0.0425662
0.0426276
0.0426945
0.0427619
0.042825
0.042881
0.0429299
0.0429724
0.043006
0.0430252
0.0430268
0.0430097
0.0429748
0.0429261
0.0428698
0.0428131
0.0427621
0.0427212
0.0426919
0.0426733
0.0426631
0.0426584
0.042657
0.0426569
0.0424223
0.0424235
0.042427
0.0424344
0.0424476
0.042469
0.0425008
0.0425445
0.0426001
0.0426654
0.0427358
0.0428054
0.0428694
0.0429251
0.0429732
0.0430162
0.0430544
0.0430862
0.0431084
0.0431181
0.0431128
0.0430921
0.0430584
0.043016
0.0429705
0.0429273
0.0428911
0.0428641
0.0428465
0.0428365
0.042832
0.0428305
0.0424471
0.0424483
0.0424518
0.0424593
0.0424727
0.0424946
0.0425273
0.0425723
0.0426294
0.0426961
0.0427673
0.0428367
0.0428987
0.0429507
0.0429932
0.0430297
0.0430642
0.0431006
0.0431378
0.0431717
0.0431972
0.043211
0.0432116
0.0431997
0.0431777
0.0431497
0.0431203
0.0430939
0.0430734
0.0430597
0.0430522
0.0430493
0.0424727
0.0424738
0.0424771
0.0424842
0.0424969
0.0425178
0.0425491
0.0425925
0.0426477
0.0427123
0.0427811
0.0428473
0.0429046
0.0429492
0.0429809
0.0430031
0.0430233
0.0430527
0.0430936
0.0431412
0.0431887
0.0432302
0.0432618
0.0432819
0.0432906
0.0432893
0.0432808
0.0432687
0.0432564
0.0432465
0.0432402
0.0432374
0.0424945
0.0424956
0.0424985
0.0425047
0.0425159
0.0425343
0.0425621
0.0426009
0.0426508
0.0427098
0.0427731
0.042834
0.0428855
0.0429225
0.042943
0.0429496
0.042952
0.0429676
0.0430033
0.0430557
0.0431166
0.0431773
0.0432312
0.0432745
0.0433058
0.0433255
0.0433356
0.0433385
0.0433371
0.0433341
0.0433314
0.0433299
0.0425095
0.0425104
0.042513
0.0425183
0.0425277
0.0425432
0.0425667
0.0425999
0.0426431
0.0426949
0.0427514
0.0428065
0.0428531
0.0428854
0.0429001
0.0428986
0.0428902
0.0428943
0.0429215
0.0429718
0.0430391
0.0431138
0.0431859
0.0432484
0.0432972
0.0433318
0.0433536
0.0433653
0.0433702
0.0433711
0.0433705
0.0433699
0.0425182
0.0425191
0.0425213
0.0425259
0.0425338
0.0425467
0.0425663
0.0425941
0.0426307
0.0426753
0.0427248
0.042774
0.0428166
0.0428466
0.0428601
0.0428573
0.042847
0.0428471
0.0428686
0.042914
0.0429805
0.0430605
0.043144
0.0432213
0.0432857
0.043334
0.0433666
0.0433859
0.0433954
0.0433989
0.0433993
0.043399
0.0425231
0.0425239
0.0425258
0.0425296
0.0425363
0.042547
0.0425633
0.0425864
0.0426171
0.0426549
0.0426974
0.0427407
0.0427793
0.0428079
0.0428226
0.0428233
0.0428175
0.0428204
0.0428414
0.0428837
0.0429469
0.0430261
0.0431133
0.0431989
0.0432742
0.0433338
0.0433762
0.043403
0.0434173
0.0434233
0.0434248
0.0434247
0.0425267
0.0425272
0.0425287
0.0425318
0.0425371
0.0425459
0.0425593
0.0425784
0.0426039
0.0426355
0.0426716
0.0427091
0.0427438
0.0427715
0.042789
0.0427965
0.0427998
0.0428103
0.0428347
0.0428766
0.0429366
0.0430122
0.0430977
0.0431852
0.0432661
0.0433336
0.0433841
0.0434176
0.0434368
0.0434455
0.0434481
0.0434483
0.0425324
0.0425326
0.0425333
0.0425352
0.0425389
0.0425455
0.0425561
0.0425716
0.0425926
0.0426189
0.0426494
0.042682
0.0427138
0.0427418
0.042764
0.0427807
0.042796
0.0428164
0.0428463
0.0428889
0.0429458
0.0430164
0.043097
0.0431816
0.0432632
0.0433346
0.0433908
0.0434302
0.0434539
0.0434655
0.0434694
0.0434698
0.0425447
0.0425443
0.0425438
0.0425438
0.0425451
0.0425489
0.0425564
0.0425685
0.0425856
0.0426079
0.0426345
0.0426643
0.0426953
0.0427259
0.0427547
0.0427823
0.0428102
0.0428405
0.0428755
0.0429185
0.0429717
0.043036
0.0431096
0.0431883
0.0432664
0.0433379
0.0433973
0.0434411
0.0434689
0.0434834
0.0434887
0.0434895
0.0425684
0.0425671
0.0425647
0.0425621
0.0425603
0.0425608
0.042565
0.042574
0.0425885
0.0426086
0.042634
0.0426638
0.042697
0.0427323
0.0427689
0.042807
0.0428459
0.0428838
0.0429221
0.042964
0.0430125
0.0430693
0.0431342
0.0432047
0.0432766
0.0433449
0.0434044
0.0434509
0.0434821
0.0434994
0.0435062
0.0435074
0.0426073
0.0426048
0.0426003
0.0425948
0.04259
0.0425875
0.0425893
0.0425966
0.0426104
0.0426308
0.0426577
0.0426902
0.0427274
0.0427682
0.0428115
0.0428575
0.0429035
0.0429455
0.0429843
0.0430235
0.0430662
0.0431146
0.0431697
0.0432304
0.0432939
0.0433565
0.0434135
0.0434604
0.0434939
0.0435136
0.043522
0.0435237
0.0426642
0.0426604
0.0426538
0.0426464
0.0426401
0.0426367
0.0426383
0.0426463
0.0426617
0.0426846
0.0427145
0.0427504
0.0427913
0.0428358
0.0428829
0.0429323
0.0429805
0.0430227
0.0430594
0.0430943
0.0431305
0.0431704
0.0432153
0.0432653
0.0433189
0.0433736
0.0434256
0.0434707
0.0435049
0.0435263
0.0435361
0.0435384
0.0427404
0.0427353
0.0427279
0.0427209
0.0427163
0.0427156
0.0427201
0.0427313
0.0427499
0.0427756
0.0428078
0.0428454
0.0428872
0.0429319
0.0429784
0.0430264
0.0430722
0.043111
0.0431436
0.0431732
0.0432026
0.0432341
0.0432692
0.0433085
0.0433515
0.0433968
0.0434417
0.0434827
0.0435157
0.0435378
0.0435487
0.0435516
0.0428369
0.042831
0.042825
0.042822
0.0428232
0.0428285
0.0428384
0.0428536
0.0428747
0.0429013
0.0429331
0.042969
0.0430079
0.0430487
0.0430904
0.0431329
0.0431726
0.0432056
0.0432326
0.0432563
0.0432792
0.043303
0.0433291
0.0433584
0.0433909
0.0434261
0.0434625
0.0434974
0.0435271
0.0435484
0.0435599
0.0435633
0.042955
0.0429498
0.0429486
0.0429532
0.0429623
0.0429744
0.0429891
0.0430067
0.0430277
0.0430522
0.0430801
0.0431106
0.0431431
0.0431766
0.0432104
0.0432444
0.0432758
0.0433016
0.0433223
0.0433401
0.0433568
0.0433738
0.0433922
0.0434127
0.0434356
0.0434609
0.0434879
0.0435152
0.0435398
0.0435588
0.0435699
0.0435736
0.0430981
0.0430962
0.0431029
0.0431153
0.0431302
0.0431458
0.0431616
0.0431781
0.0431957
0.0432149
0.043236
0.0432586
0.0432823
0.0433065
0.0433307
0.0433548
0.0433769
0.043395
0.0434092
0.0434214
0.0434325
0.0434436
0.0434554
0.0434685
0.0434832
0.0434996
0.0435175
0.0435364
0.0435545
0.0435694
0.0435789
0.0435825
0.0432723
0.0432766
0.043289
0.043303
0.0433168
0.0433298
0.0433418
0.0433533
0.0433647
0.0433767
0.0433894
0.0434029
0.0434169
0.0434311
0.0434452
0.0434593
0.0434721
0.0434825
0.0434907
0.0434975
0.0435038
0.0435099
0.0435163
0.0435234
0.0435313
0.0435402
0.04355
0.0435606
0.0435713
0.0435807
0.0435873
0.0435901
0.043485
0.0434883
0.0434946
0.0435008
0.0435064
0.0435114
0.0435158
0.0435199
0.0435238
0.0435278
0.043532
0.0435364
0.043541
0.0435456
0.0435502
0.0435547
0.0435588
0.0435621
0.0435648
0.043567
0.0435689
0.0435709
0.0435729
0.0435751
0.0435775
0.0435802
0.0435833
0.0435866
0.04359
0.0435931
0.0435955
0.0435967
)
;

boundaryField
{
    movingWall
    {
        type            fixedValue;
        value           uniform 0.0436;
    }
    fixedWalls
    {
        type            zeroGradient;
    }
    floor
    {
        type            zeroGradient;
    }
    frontAndBack
    {
        type            empty;
    }
}


// ************************************************************************* //
