/*--------------------------------*- C++ -*----------------------------------*\
| =========                 |                                                 |
| \\      /  F ield         | OpenFOAM: The Open Source CFD Toolbox           |
|  \\    /   O peration     | Version:  2212                                  |
|   \\  /    A nd           | Website:  www.openfoam.com                      |
|    \\/     M anipulation  |                                                 |
\*---------------------------------------------------------------------------*/
FoamFile
{
    version     2.0;
    format      ascii;
    arch        "LSB;label=64;scalar=64";
    class       volScalarField;
    location    "1670";
    object      Xpr;
}
// * * * * * * * * * * * * * * * * * * * * * * * * * * * * * * * * * * * * * //

dimensions      [1 -3 0 0 0 0 0];

internalField   nonuniform List<scalar> 
1024
(
0.081682
0.0816837
0.081688
0.0816959
0.0817087
0.0817279
0.0817553
0.0817923
0.0818398
0.0818978
0.0819647
0.0820376
0.0821123
0.0821838
0.0822468
0.0822957
0.0823214
0.0823204
0.0822991
0.0822631
0.0822169
0.0821643
0.0821095
0.0820571
0.0820108
0.0819726
0.0819433
0.0819222
0.0819079
0.081899
0.0818942
0.0818922
0.0816826
0.0816843
0.0816886
0.0816966
0.0817095
0.081729
0.0817567
0.081794
0.0818419
0.0819003
0.0819675
0.0820406
0.0821154
0.0821869
0.0822498
0.0822986
0.0823244
0.0823234
0.0823019
0.0822659
0.0822196
0.0821669
0.0821119
0.0820592
0.0820125
0.081974
0.0819443
0.0819229
0.0819085
0.0818995
0.0818946
0.0818926
0.081684
0.0816858
0.0816902
0.0816983
0.0817115
0.0817314
0.0817597
0.0817978
0.0818466
0.0819058
0.0819738
0.0820474
0.0821224
0.082194
0.0822569
0.0823057
0.0823315
0.0823305
0.0823087
0.0822721
0.0822254
0.0821722
0.0821169
0.0820636
0.0820161
0.0819768
0.0819465
0.0819246
0.0819098
0.0819007
0.0818957
0.0818936
0.0816865
0.0816884
0.0816929
0.0817013
0.081715
0.0817356
0.0817648
0.0818042
0.0818543
0.0819149
0.0819842
0.0820588
0.0821345
0.0822064
0.0822696
0.0823187
0.0823447
0.0823433
0.0823205
0.0822826
0.0822345
0.0821804
0.0821241
0.0820699
0.0820214
0.0819811
0.0819499
0.0819273
0.0819121
0.0819026
0.0818975
0.0818954
0.0816906
0.0816925
0.0816972
0.0817059
0.0817202
0.0817418
0.0817724
0.0818135
0.0818656
0.0819283
0.0819995
0.0820758
0.0821528
0.0822257
0.0822896
0.0823394
0.082366
0.082364
0.082339
0.0822982
0.0822474
0.0821911
0.0821332
0.0820777
0.0820279
0.0819865
0.0819543
0.081931
0.0819153
0.0819056
0.0819004
0.0818982
0.0816965
0.0816985
0.0817034
0.0817126
0.0817277
0.0817505
0.0817828
0.0818262
0.081881
0.0819465
0.0820206
0.0820995
0.0821787
0.0822534
0.0823189
0.0823702
0.0823976
0.0823945
0.0823659
0.0823201
0.0822643
0.0822042
0.0821437
0.0820863
0.0820351
0.0819926
0.0819595
0.0819356
0.0819196
0.0819097
0.0819044
0.0819023
0.0817047
0.0817068
0.0817119
0.0817216
0.0817376
0.0817619
0.0817964
0.0818426
0.0819009
0.0819703
0.0820484
0.0821312
0.0822139
0.0822916
0.0823597
0.0824133
0.082442
0.082437
0.0824032
0.0823498
0.0822864
0.08222
0.0821553
0.0820951
0.0820424
0.0819989
0.0819654
0.0819413
0.0819252
0.0819155
0.0819103
0.0819082
0.0817158
0.0817179
0.0817233
0.0817336
0.0817506
0.0817766
0.0818137
0.0818634
0.081926
0.0820006
0.0820842
0.0821725
0.0822602
0.0823423
0.0824142
0.082471
0.0825011
0.0824938
0.0824532
0.0823897
0.0823155
0.08224
0.0821688
0.0821048
0.0820501
0.0820059
0.0819724
0.0819487
0.0819331
0.0819239
0.0819191
0.0819172
0.0817303
0.0817325
0.0817381
0.081749
0.0817672
0.0817952
0.0818353
0.0818892
0.0819574
0.0820386
0.0821294
0.082225
0.0823193
0.0824071
0.0824838
0.0825445
0.0825765
0.0825673
0.0825196
0.0824447
0.082357
0.082269
0.0821884
0.0821187
0.0820612
0.0820162
0.0819832
0.0819605
0.0819461
0.0819379
0.0819339
0.0819324
0.081749
0.0817512
0.0817571
0.0817686
0.0817881
0.0818184
0.0818621
0.0819212
0.0819963
0.0820857
0.0821857
0.0822901
0.0823924
0.0824867
0.0825688
0.0826342
0.0826695
0.0826606
0.0826087
0.0825243
0.0824228
0.0823194
0.0822256
0.0821468
0.0820845
0.082038
0.0820052
0.0819839
0.0819712
0.0819646
0.0819617
0.0819609
0.0817728
0.081775
0.0817812
0.0817934
0.0818144
0.0818473
0.0818954
0.0819607
0.082044
0.0821434
0.0822539
0.0823685
0.0824792
0.0825801
0.0826677
0.0827386
0.0827802
0.0827775
0.0827292
0.0826434
0.0825335
0.0824161
0.0823062
0.0822136
0.0821421
0.0820907
0.0820564
0.0820356
0.0820244
0.0820195
0.082018
0.0820179
0.0818027
0.081805
0.0818114
0.0818244
0.0818471
0.0818832
0.0819362
0.0820087
0.0821013
0.0822116
0.0823333
0.0824578
0.0825763
0.082683
0.0827756
0.082853
0.0829052
0.0829183
0.0828877
0.0828168
0.0827144
0.0825947
0.0824739
0.0823656
0.0822785
0.0822152
0.0821737
0.0821493
0.0821372
0.0821325
0.0821317
0.0821321
0.0818395
0.0818418
0.0818485
0.0818624
0.0818869
0.0819262
0.0819844
0.0820643
0.0821663
0.0822869
0.0824187
0.0825513
0.0826753
0.0827856
0.0828816
0.0829654
0.0830313
0.0830693
0.0830723
0.0830386
0.08297
0.0828742
0.0827635
0.0826519
0.0825517
0.0824712
0.0824135
0.0823769
0.0823567
0.0823477
0.0823448
0.0823445
0.0818831
0.0818855
0.0818924
0.0819069
0.0819329
0.081975
0.0820375
0.0821235
0.0822328
0.0823613
0.0824998
0.0826369
0.0827626
0.0828723
0.0829669
0.0830514
0.0831266
0.0831891
0.0832329
0.083252
0.0832414
0.0832007
0.0831345
0.0830512
0.0829615
0.0828767
0.0828054
0.0827523
0.0827176
0.082698
0.082689
0.0826862
0.0819319
0.0819343
0.0819412
0.0819558
0.0819823
0.0820254
0.0820896
0.0821781
0.0822905
0.0824218
0.0825619
0.0826984
0.0828204
0.0829226
0.0830062
0.083078
0.0831459
0.0832175
0.0832907
0.0833573
0.0834076
0.0834347
0.0834358
0.0834124
0.0833693
0.0833141
0.0832562
0.0832043
0.0831639
0.0831371
0.0831224
0.0831166
0.0819822
0.0819844
0.081991
0.0820048
0.0820299
0.0820709
0.0821326
0.0822179
0.0823266
0.0824537
0.082589
0.0827192
0.0828319
0.0829197
0.082982
0.0830257
0.0830654
0.0831233
0.0832037
0.0832975
0.0833909
0.0834724
0.0835347
0.0835743
0.0835913
0.0835888
0.0835721
0.0835482
0.083524
0.0835045
0.0834921
0.0834866
0.0820252
0.0820273
0.0820331
0.0820453
0.0820673
0.0821035
0.0821581
0.0822344
0.0823327
0.0824487
0.0825732
0.082693
0.0827944
0.0828671
0.0829074
0.0829205
0.0829252
0.0829558
0.0830262
0.0831292
0.083249
0.0833685
0.0834745
0.0835597
0.0836212
0.08366
0.0836798
0.0836855
0.0836828
0.0836768
0.0836715
0.0836686
0.0820546
0.0820564
0.0820615
0.0820719
0.0820905
0.082121
0.0821672
0.0822324
0.0823175
0.0824194
0.0825306
0.0826389
0.0827307
0.0827942
0.0828231
0.0828201
0.0828036
0.0828117
0.0828652
0.0829642
0.0830966
0.0832434
0.0833854
0.0835082
0.0836043
0.0836723
0.0837152
0.0837383
0.0837479
0.0837497
0.0837486
0.0837473
0.0820718
0.0820735
0.082078
0.0820868
0.0821025
0.0821279
0.0821664
0.0822211
0.0822932
0.0823809
0.0824782
0.082575
0.0826588
0.0827178
0.0827443
0.082739
0.0827186
0.0827189
0.0827611
0.0828504
0.0829813
0.0831387
0.083303
0.0834551
0.0835816
0.0836767
0.0837408
0.0837787
0.0837975
0.0838043
0.0838052
0.0838045
0.0820814
0.0820829
0.0820867
0.0820943
0.0821074
0.0821285
0.0821605
0.0822059
0.0822663
0.0823406
0.0824244
0.0825095
0.0825854
0.0826416
0.0826706
0.082672
0.0826606
0.0826664
0.0827075
0.0827909
0.0829151
0.0830709
0.0832426
0.0834109
0.083559
0.0836763
0.0837598
0.0838124
0.0838406
0.0838525
0.0838554
0.0838552
0.0820884
0.0820895
0.0820925
0.0820985
0.082109
0.0821263
0.0821526
0.0821902
0.0822404
0.0823026
0.0823736
0.0824473
0.0825156
0.08257
0.0826046
0.0826192
0.0826257
0.0826463
0.0826944
0.0827769
0.0828949
0.0830435
0.0832118
0.0833839
0.0835432
0.0836759
0.0837753
0.0838412
0.0838789
0.0838961
0.0839013
0.0839015
0.0820997
0.0821001
0.0821015
0.0821052
0.0821125
0.0821255
0.0821463
0.0821768
0.0822181
0.0822698
0.0823299
0.082394
0.0824566
0.0825117
0.0825553
0.0825882
0.0826183
0.0826584
0.0827172
0.082801
0.082913
0.0830519
0.0832104
0.0833769
0.0835373
0.0836778
0.0837885
0.0838659
0.0839126
0.0839354
0.0839431
0.0839439
0.082124
0.0821232
0.0821221
0.082122
0.0821247
0.0821322
0.0821469
0.0821706
0.0822044
0.0822482
0.0823006
0.0823591
0.0824203
0.0824804
0.0825371
0.0825913
0.0826463
0.0827058
0.0827747
0.0828592
0.082964
0.0830905
0.0832353
0.0833901
0.0835438
0.0836844
0.0838012
0.0838873
0.0839421
0.0839706
0.0839811
0.0839826
0.0821705
0.0821679
0.0821633
0.0821581
0.0821546
0.0821556
0.0821639
0.0821816
0.0822101
0.0822497
0.0822995
0.0823582
0.0824236
0.0824931
0.082565
0.0826399
0.0827164
0.082791
0.0828663
0.0829488
0.0830442
0.0831559
0.0832836
0.0834222
0.0835637
0.0836981
0.0838153
0.0839066
0.0839681
0.084002
0.0840155
0.0840178
0.0822471
0.0822422
0.0822333
0.0822225
0.082213
0.0822082
0.0822116
0.082226
0.0822531
0.0822934
0.0823461
0.0824101
0.0824833
0.0825635
0.0826489
0.0827393
0.0828297
0.0829123
0.0829887
0.0830659
0.0831498
0.0832452
0.0833535
0.0834729
0.0835979
0.083721
0.0838331
0.0839254
0.0839913
0.08403
0.0840465
0.0840498
0.082359
0.0823514
0.0823386
0.082324
0.0823115
0.082305
0.082308
0.0823238
0.0823541
0.0823992
0.0824579
0.0825286
0.082609
0.0826965
0.0827893
0.0828865
0.0829813
0.0830642
0.0831365
0.0832052
0.0832764
0.0833548
0.0834432
0.0835415
0.083647
0.0837546
0.083857
0.0839457
0.0840129
0.084055
0.0840743
0.0840788
0.082509
0.0824989
0.0824843
0.0824705
0.0824615
0.0824602
0.0824691
0.0824911
0.0825276
0.0825781
0.0826414
0.0827154
0.0827976
0.0828856
0.0829772
0.0830716
0.0831617
0.0832381
0.0833021
0.0833603
0.0834182
0.0834802
0.0835493
0.0836265
0.0837111
0.0838002
0.0838887
0.0839693
0.0840342
0.0840776
0.0840991
0.0841047
0.0826987
0.0826872
0.0826753
0.0826695
0.0826718
0.0826823
0.0827016
0.0827316
0.082773
0.0828255
0.082888
0.0829586
0.0830351
0.0831154
0.0831975
0.083281
0.0833592
0.0834242
0.0834771
0.0835238
0.0835688
0.0836157
0.0836671
0.0837247
0.0837887
0.0838579
0.0839294
0.0839981
0.0840566
0.0840985
0.0841211
0.0841278
0.0829311
0.0829208
0.0829184
0.0829276
0.0829455
0.0829693
0.0829981
0.0830328
0.0830741
0.0831223
0.0831771
0.0832372
0.0833011
0.083367
0.0834336
0.0835004
0.0835623
0.083613
0.0836537
0.0836887
0.0837216
0.083755
0.0837912
0.0838315
0.0838765
0.0839263
0.0839795
0.0840331
0.0840817
0.0841189
0.0841407
0.084148
0.0832127
0.0832088
0.083222
0.0832465
0.0832758
0.0833065
0.0833376
0.0833699
0.0834045
0.0834425
0.0834839
0.0835284
0.0835749
0.0836225
0.0836702
0.0837176
0.0837612
0.0837966
0.0838247
0.0838485
0.0838705
0.0838923
0.0839156
0.0839414
0.0839703
0.0840025
0.0840378
0.0840748
0.0841104
0.0841397
0.0841585
0.0841655
0.0835554
0.0835637
0.0835882
0.0836157
0.0836429
0.0836685
0.0836921
0.0837146
0.0837371
0.0837607
0.0837858
0.0838122
0.0838397
0.0838677
0.0838956
0.0839231
0.0839483
0.0839688
0.0839849
0.0839984
0.0840107
0.0840227
0.0840354
0.0840493
0.0840649
0.0840823
0.0841017
0.0841225
0.0841435
0.084162
0.084175
0.0841805
0.0839737
0.0839802
0.0839927
0.0840048
0.0840158
0.0840257
0.0840344
0.0840425
0.0840502
0.084058
0.0840663
0.0840749
0.0840839
0.0840929
0.0841019
0.0841108
0.084119
0.0841255
0.0841307
0.084135
0.0841389
0.0841427
0.0841466
0.084151
0.0841558
0.0841611
0.0841671
0.0841736
0.0841803
0.0841865
0.0841912
0.0841934
)
;

boundaryField
{
    movingWall
    {
        type            fixedValue;
        value           uniform 0.0842;
    }
    fixedWalls
    {
        type            zeroGradient;
    }
    floor
    {
        type            zeroGradient;
    }
    frontAndBack
    {
        type            empty;
    }
}


// ************************************************************************* //
