/*--------------------------------*- C++ -*----------------------------------*\
| =========                 |                                                 |
| \\      /  F ield         | OpenFOAM: The Open Source CFD Toolbox           |
|  \\    /   O peration     | Version:  2212                                  |
|   \\  /    A nd           | Website:  www.openfoam.com                      |
|    \\/     M anipulation  |                                                 |
\*---------------------------------------------------------------------------*/
FoamFile
{
    version     2.0;
    format      ascii;
    arch        "LSB;label=64;scalar=64";
    class       volScalarField;
    location    "740";
    object      p;
}
// * * * * * * * * * * * * * * * * * * * * * * * * * * * * * * * * * * * * * //

dimensions      [0 2 -2 0 0 0 0];

internalField   nonuniform List<scalar> 
1024
(
0
-3.81627e-06
-8.33897e-06
-1.13285e-05
-1.18692e-05
-9.65378e-06
-3.33529e-06
1.05909e-05
3.81976e-05
8.81669e-05
0.000170964
0.000292413
0.000437988
0.000554606
0.000585034
0.000541261
0.000442432
0.000351693
0.000282571
0.000233803
0.000200052
0.000177081
0.000161911
0.00015214
0.000145765
0.0001413
0.000137987
0.00013587
0.000135441
0.000136889
0.000139457
0.00014162
-0.0928126
-0.0928167
-0.0928211
-0.0928242
-0.0928256
-0.0928249
-0.0928204
-0.0928085
-0.0927832
-0.0927359
-0.092656
-0.092538
-0.0923957
-0.0922818
-0.0922494
-0.0922888
-0.0923844
-0.0924729
-0.0925404
-0.0925878
-0.0926205
-0.0926425
-0.0926567
-0.0926656
-0.092671
-0.0926744
-0.0926767
-0.0926779
-0.0926779
-0.0926764
-0.0926739
-0.0926716
-0.199433
-0.199438
-0.199443
-0.199448
-0.199451
-0.199454
-0.199453
-0.199445
-0.199425
-0.199382
-0.199307
-0.199195
-0.199057
-0.198947
-0.198911
-0.198943
-0.199033
-0.199117
-0.199181
-0.199226
-0.199256
-0.199276
-0.199288
-0.199295
-0.199299
-0.1993
-0.1993
-0.1993
-0.199299
-0.199297
-0.199294
-0.199291
-0.32192
-0.321927
-0.321935
-0.321942
-0.321949
-0.321957
-0.321962
-0.321961
-0.321947
-0.321912
-0.321844
-0.321738
-0.321605
-0.3215
-0.321458
-0.321481
-0.321562
-0.32164
-0.321698
-0.321739
-0.321765
-0.321782
-0.321791
-0.321795
-0.321795
-0.321793
-0.32179
-0.321787
-0.321784
-0.321781
-0.321777
-0.321772
-0.462644
-0.462653
-0.462663
-0.462674
-0.462687
-0.462702
-0.462716
-0.462723
-0.462717
-0.462691
-0.462631
-0.462531
-0.462405
-0.462303
-0.462256
-0.462267
-0.462338
-0.462407
-0.462458
-0.462492
-0.462513
-0.462525
-0.462529
-0.462528
-0.462524
-0.462517
-0.46251
-0.462503
-0.462498
-0.462493
-0.462487
-0.462481
-0.624328
-0.624337
-0.62435
-0.624365
-0.624385
-0.624408
-0.62443
-0.624446
-0.62445
-0.624432
-0.62438
-0.624286
-0.624166
-0.624066
-0.624012
-0.624015
-0.624075
-0.624133
-0.624175
-0.624201
-0.624215
-0.624221
-0.624219
-0.624212
-0.624202
-0.624189
-0.624177
-0.624165
-0.624156
-0.624148
-0.624141
-0.624134
-0.810096
-0.810104
-0.810118
-0.810137
-0.810162
-0.810192
-0.810222
-0.810246
-0.810258
-0.810247
-0.810202
-0.810112
-0.809996
-0.809898
-0.809839
-0.809836
-0.809886
-0.809934
-0.809966
-0.809983
-0.80999
-0.809989
-0.809981
-0.809967
-0.80995
-0.809931
-0.809913
-0.809896
-0.809882
-0.809872
-0.809863
-0.809855
-1.02353
-1.02353
-1.02355
-1.02357
-1.0236
-1.02363
-1.02367
-1.0237
-1.02371
-1.02371
-1.02367
-1.02358
-1.02347
-1.02337
-1.02331
-1.0233
-1.02334
-1.02339
-1.02341
-1.02342
-1.02342
-1.02341
-1.02339
-1.02338
-1.02335
-1.02333
-1.0233
-1.02328
-1.02326
-1.02325
-1.02324
-1.02323
-1.26872
-1.26872
-1.26873
-1.26875
-1.26878
-1.26882
-1.26886
-1.26889
-1.26891
-1.26891
-1.26887
-1.26879
-1.26868
-1.26858
-1.26852
-1.26852
-1.26856
-1.26859
-1.26861
-1.26861
-1.2686
-1.26859
-1.26857
-1.26855
-1.26852
-1.26849
-1.26846
-1.26844
-1.26842
-1.2684
-1.26839
-1.26838
-1.55037
-1.55037
-1.55038
-1.55039
-1.55042
-1.55046
-1.5505
-1.55054
-1.55056
-1.55056
-1.55052
-1.55044
-1.55034
-1.55025
-1.5502
-1.5502
-1.55024
-1.55027
-1.55028
-1.55028
-1.55027
-1.55025
-1.55023
-1.5502
-1.55018
-1.55014
-1.55011
-1.55009
-1.55006
-1.55005
-1.55004
-1.55003
-1.87387
-1.87387
-1.87387
-1.87388
-1.87391
-1.87395
-1.87399
-1.87403
-1.87405
-1.87405
-1.87402
-1.87395
-1.87387
-1.87379
-1.87375
-1.87377
-1.8738
-1.87383
-1.87384
-1.87384
-1.87383
-1.87381
-1.87379
-1.87376
-1.87373
-1.8737
-1.87367
-1.87365
-1.87363
-1.87361
-1.8736
-1.8736
-2.24542
-2.24542
-2.24542
-2.24543
-2.24545
-2.24548
-2.24552
-2.24556
-2.24559
-2.2456
-2.24558
-2.24553
-2.24547
-2.24542
-2.24541
-2.24544
-2.24548
-2.24551
-2.24552
-2.24552
-2.24551
-2.24549
-2.24547
-2.24545
-2.24542
-2.24539
-2.24536
-2.24533
-2.24531
-2.2453
-2.24529
-2.24529
-2.67217
-2.67217
-2.67217
-2.67217
-2.67218
-2.6722
-2.67223
-2.67227
-2.6723
-2.67232
-2.67232
-2.67231
-2.67229
-2.67229
-2.67231
-2.67237
-2.67242
-2.67245
-2.67246
-2.67246
-2.67245
-2.67244
-2.67242
-2.6724
-2.67237
-2.67234
-2.67231
-2.67228
-2.67226
-2.67225
-2.67224
-2.67224
-3.16235
-3.16235
-3.16235
-3.16235
-3.16235
-3.16236
-3.16238
-3.16241
-3.16244
-3.16247
-3.16251
-3.16253
-3.16257
-3.16261
-3.16268
-3.16276
-3.16282
-3.16286
-3.16288
-3.16288
-3.16288
-3.16286
-3.16284
-3.16281
-3.16277
-3.16273
-3.16269
-3.16266
-3.16264
-3.16263
-3.16263
-3.16263
-3.72546
-3.72546
-3.72546
-3.72545
-3.72545
-3.72546
-3.72548
-3.7255
-3.72554
-3.72559
-3.72565
-3.72571
-3.72577
-3.72586
-3.72595
-3.72604
-3.72612
-3.72617
-3.72619
-3.7262
-3.72618
-3.72616
-3.72612
-3.72606
-3.72601
-3.72595
-3.7259
-3.72587
-3.72585
-3.72584
-3.72584
-3.72585
-4.37247
-4.37247
-4.37247
-4.37247
-4.37247
-4.37248
-4.3725
-4.37253
-4.37256
-4.37261
-4.37266
-4.37272
-4.37279
-4.37287
-4.37297
-4.37307
-4.37314
-4.37319
-4.37321
-4.37319
-4.37315
-4.37309
-4.37301
-4.37293
-4.37285
-4.37278
-4.37274
-4.37271
-4.3727
-4.3727
-4.3727
-4.37271
-5.06437
-5.06437
-5.06437
-5.06438
-5.06438
-5.06439
-5.06441
-5.06442
-5.06444
-5.06447
-5.0645
-5.06455
-5.06462
-5.0647
-5.06479
-5.06487
-5.06493
-5.06495
-5.06493
-5.06487
-5.06477
-5.06465
-5.06451
-5.06439
-5.06429
-5.06423
-5.06421
-5.0642
-5.06421
-5.06422
-5.06422
-5.06422
-5.7114
-5.71141
-5.71141
-5.71142
-5.71143
-5.71145
-5.71147
-5.71151
-5.71155
-5.71159
-5.71164
-5.71169
-5.71175
-5.71182
-5.71191
-5.71199
-5.71205
-5.71207
-5.71204
-5.71197
-5.71185
-5.7117
-5.71153
-5.71139
-5.71127
-5.71121
-5.71118
-5.71117
-5.71118
-5.71119
-5.7112
-5.7112
-6.27483
-6.27484
-6.27484
-6.27485
-6.27486
-6.27487
-6.27489
-6.27492
-6.27495
-6.275
-6.27505
-6.27512
-6.27519
-6.27527
-6.27536
-6.27546
-6.27555
-6.2756
-6.2756
-6.27556
-6.27547
-6.27534
-6.2752
-6.27505
-6.27492
-6.27482
-6.27475
-6.27473
-6.27472
-6.27473
-6.27474
-6.27475
-6.76537
-6.76537
-6.76538
-6.76538
-6.76539
-6.76541
-6.76543
-6.76546
-6.7655
-6.76554
-6.7656
-6.76566
-6.76574
-6.76583
-6.76593
-6.76604
-6.76614
-6.76621
-6.76624
-6.76622
-6.76617
-6.76608
-6.76596
-6.76583
-6.7657
-6.76558
-6.76549
-6.76544
-6.76541
-6.76541
-6.76542
-6.76543
-7.19244
-7.19245
-7.19245
-7.19245
-7.19246
-7.19248
-7.1925
-7.19252
-7.19256
-7.19261
-7.19266
-7.19272
-7.1928
-7.19289
-7.193
-7.19311
-7.19323
-7.19331
-7.19335
-7.19335
-7.19332
-7.19326
-7.19317
-7.19306
-7.19294
-7.19282
-7.19271
-7.19264
-7.1926
-7.19258
-7.19259
-7.19261
-7.56423
-7.56423
-7.56424
-7.56424
-7.56425
-7.56426
-7.56428
-7.5643
-7.56434
-7.56438
-7.56443
-7.5645
-7.56458
-7.56467
-7.56478
-7.5649
-7.56502
-7.56511
-7.56515
-7.56515
-7.56513
-7.56508
-7.56502
-7.56492
-7.56481
-7.56469
-7.56458
-7.56449
-7.56443
-7.56441
-7.56441
-7.56442
-7.88789
-7.88789
-7.88789
-7.88789
-7.8879
-7.8879
-7.88792
-7.88794
-7.88797
-7.88802
-7.88807
-7.88814
-7.88822
-7.88831
-7.88842
-7.88855
-7.88867
-7.88876
-7.8888
-7.8888
-7.88878
-7.88873
-7.88866
-7.88858
-7.88847
-7.88835
-7.88823
-7.88812
-7.88805
-7.88801
-7.88801
-7.88802
-8.16964
-8.16964
-8.16964
-8.16964
-8.16964
-8.16964
-8.16965
-8.16967
-8.1697
-8.16974
-8.1698
-8.16987
-8.16995
-8.17005
-8.17017
-8.1703
-8.17042
-8.17051
-8.17055
-8.17055
-8.17052
-8.17046
-8.17038
-8.17028
-8.17016
-8.17003
-8.1699
-8.16977
-8.16967
-8.16961
-8.1696
-8.16961
-8.41491
-8.41491
-8.41491
-8.41491
-8.4149
-8.4149
-8.41491
-8.41492
-8.41495
-8.41499
-8.41505
-8.41512
-8.41521
-8.41532
-8.41544
-8.41557
-8.4157
-8.41579
-8.41582
-8.41582
-8.41578
-8.41571
-8.41561
-8.41548
-8.41534
-8.41517
-8.41501
-8.41485
-8.41472
-8.41463
-8.41461
-8.41461
-8.62844
-8.62844
-8.62843
-8.62843
-8.62842
-8.62841
-8.6284
-8.62841
-8.62844
-8.62848
-8.62854
-8.62862
-8.62872
-8.62883
-8.62895
-8.62909
-8.62922
-8.62931
-8.62934
-8.62934
-8.62929
-8.62921
-8.62909
-8.62893
-8.62874
-8.62853
-8.62831
-8.6281
-8.62792
-8.62779
-8.62774
-8.62773
-8.81433
-8.81433
-8.81432
-8.81431
-8.81428
-8.81426
-8.81425
-8.81426
-8.81428
-8.81433
-8.8144
-8.81448
-8.81458
-8.8147
-8.81483
-8.81496
-8.81509
-8.81518
-8.81522
-8.81521
-8.81516
-8.81506
-8.81492
-8.81474
-8.8145
-8.81424
-8.81395
-8.81367
-8.81342
-8.81322
-8.81311
-8.81307
-8.97618
-8.97617
-8.97616
-8.97613
-8.97609
-8.97605
-8.97604
-8.97604
-8.97607
-8.97612
-8.97619
-8.97628
-8.97638
-8.9765
-8.97664
-8.97678
-8.97691
-8.977
-8.97704
-8.97702
-8.97697
-8.97686
-8.9767
-8.97649
-8.97622
-8.97589
-8.97553
-8.97516
-8.9748
-8.9745
-8.97429
-8.9742
-9.11712
-9.1171
-9.11706
-9.117
-9.11694
-9.1169
-9.11687
-9.11687
-9.1169
-9.11696
-9.11704
-9.11713
-9.11724
-9.11736
-9.1175
-9.11764
-9.11777
-9.11786
-9.1179
-9.11789
-9.11783
-9.11771
-9.11754
-9.11731
-9.117
-9.11663
-9.1162
-9.11573
-9.11525
-9.11479
-9.11443
-9.1142
-9.23993
-9.23985
-9.23974
-9.23964
-9.23955
-9.2395
-9.23947
-9.23947
-9.23951
-9.23957
-9.23965
-9.23975
-9.23986
-9.23999
-9.24012
-9.24027
-9.2404
-9.24049
-9.24053
-9.24052
-9.24045
-9.24033
-9.24015
-9.23991
-9.23958
-9.23918
-9.2387
-9.23814
-9.23752
-9.23685
-9.23622
-9.23567
-9.34717
-9.34677
-9.34652
-9.34637
-9.34627
-9.34621
-9.34619
-9.3462
-9.34624
-9.3463
-9.34639
-9.34649
-9.34661
-9.34674
-9.34688
-9.34702
-9.34716
-9.34725
-9.34729
-9.34727
-9.34721
-9.34709
-9.3469
-9.34665
-9.34632
-9.3459
-9.34539
-9.34478
-9.34404
-9.34313
-9.34202
-9.34077
-9.44112
-9.43988
-9.4394
-9.43925
-9.43916
-9.4391
-9.43909
-9.4391
-9.43915
-9.43922
-9.43931
-9.43942
-9.43954
-9.43967
-9.43981
-9.43996
-9.44009
-9.44019
-9.44023
-9.44021
-9.44015
-9.44002
-9.43984
-9.43959
-9.43925
-9.43883
-9.43831
-9.43767
-9.43686
-9.43576
-9.43416
-9.4319
)
;

boundaryField
{
    movingWall
    {
        type            calculated;
        value           nonuniform List<scalar> 
32
(
-9.48437
-9.48313
-9.48266
-9.4825
-9.48241
-9.48235
-9.48234
-9.48236
-9.4824
-9.48247
-9.48256
-9.48267
-9.48279
-9.48292
-9.48306
-9.48321
-9.48335
-9.48344
-9.48348
-9.48346
-9.4834
-9.48328
-9.4831
-9.48284
-9.48251
-9.48209
-9.48157
-9.48093
-9.48011
-9.47902
-9.47741
-9.47515
)
;
    }
    fixedWalls
    {
        type            calculated;
        value           nonuniform List<scalar> 
64
(
0
-0.0928126
-0.199433
-0.32192
-0.462644
-0.624328
-0.810096
-1.02353
-1.26872
-1.55037
-1.87387
-2.24542
-2.67217
-3.16235
-3.72546
-4.37247
-5.06437
-5.7114
-6.27483
-6.76537
-7.19244
-7.56423
-7.88789
-8.16964
-8.41491
-8.62844
-8.81433
-8.97618
-9.11712
-9.23993
-9.34717
-9.44112
0.00014162
-0.0926716
-0.199291
-0.321772
-0.462481
-0.624134
-0.809855
-1.02323
-1.26838
-1.55003
-1.8736
-2.24529
-2.67224
-3.16263
-3.72585
-4.37271
-5.06422
-5.7112
-6.27475
-6.76543
-7.19261
-7.56442
-7.88802
-8.16961
-8.41461
-8.62773
-8.81307
-8.9742
-9.1142
-9.23567
-9.34077
-9.4319
)
;
    }
    floor
    {
        type            calculated;
        value           nonuniform List<scalar> 
32
(
0.0431953
0.0431916
0.0431871
0.0431843
0.0431839
0.0431864
0.043193
0.0432071
0.043235
0.0432853
0.0433684
0.0434903
0.0436362
0.0437531
0.0437833
0.043739
0.0436398
0.0435487
0.0434793
0.0434303
0.0433964
0.0433733
0.043358
0.043348
0.0433415
0.0433369
0.0433334
0.0433312
0.0433306
0.043332
0.0433345
0.0433367
)
;
    }
    frontAndBack
    {
        type            empty;
    }
}


// ************************************************************************* //
