/*--------------------------------*- C++ -*----------------------------------*\
| =========                 |                                                 |
| \\      /  F ield         | OpenFOAM: The Open Source CFD Toolbox           |
|  \\    /   O peration     | Version:  2212                                  |
|   \\  /    A nd           | Website:  www.openfoam.com                      |
|    \\/     M anipulation  |                                                 |
\*---------------------------------------------------------------------------*/
FoamFile
{
    version     2.0;
    format      ascii;
    arch        "LSB;label=64;scalar=64";
    class       volScalarField;
    location    "740";
    object      Sch4;
}
// * * * * * * * * * * * * * * * * * * * * * * * * * * * * * * * * * * * * * //

dimensions      [1 -3 0 0 0 0 0];

internalField   nonuniform List<scalar> 
1024
(
0.0355952
0.0356012
0.0356156
0.0356415
0.0356816
0.0357374
0.0358087
0.0358926
0.0359849
0.036081
0.0361778
0.0362723
0.0363586
0.0364234
0.0364405
0.0363886
0.0362712
0.0361225
0.035971
0.0358256
0.0356889
0.035561
0.0354416
0.0353316
0.035233
0.0351488
0.0350811
0.0350302
0.0349947
0.0349722
0.0349598
0.0349547
0.0355959
0.035602
0.0356169
0.0356435
0.0356845
0.0357415
0.0358139
0.0358986
0.0359912
0.0360875
0.0361845
0.0362794
0.0363667
0.0364327
0.0364502
0.0363977
0.0362796
0.0361303
0.0359785
0.0358328
0.0356959
0.0355679
0.0354483
0.0353379
0.0352387
0.0351536
0.0350848
0.0350329
0.0349967
0.0349737
0.034961
0.0349558
0.0355975
0.0356039
0.0356194
0.0356473
0.0356901
0.0357491
0.0358233
0.0359092
0.0360023
0.0360989
0.0361968
0.0362938
0.0363847
0.0364548
0.0364737
0.0364191
0.0362982
0.0361468
0.0359937
0.0358472
0.03571
0.0355818
0.0354619
0.0353508
0.0352503
0.0351634
0.0350925
0.0350387
0.0350009
0.0349769
0.0349636
0.0349582
0.0355996
0.0356064
0.0356229
0.0356524
0.0356974
0.0357587
0.0358347
0.0359217
0.0360154
0.0361128
0.0362131
0.0363152
0.0364143
0.0364936
0.0365156
0.0364565
0.036329
0.0361725
0.0360163
0.0358681
0.03573
0.0356015
0.0354814
0.0353696
0.0352675
0.0351781
0.0351043
0.0350477
0.0350077
0.0349822
0.0349681
0.0349623
0.0356019
0.0356091
0.0356265
0.0356574
0.0357041
0.0357672
0.0358445
0.0359321
0.0360264
0.0361255
0.0362305
0.0363424
0.0364565
0.0365522
0.0365805
0.0365136
0.0363735
0.0362071
0.0360446
0.035893
0.0357534
0.0356245
0.0355043
0.035392
0.0352883
0.0351964
0.0351193
0.0350595
0.0350168
0.0349895
0.0349743
0.0349682
0.0356032
0.0356106
0.0356285
0.0356601
0.0357077
0.0357712
0.0358485
0.0359358
0.0360304
0.0361324
0.0362453
0.0363728
0.0365109
0.0366321
0.0366712
0.0365932
0.0364327
0.0362494
0.0360761
0.0359184
0.035776
0.0356464
0.0355265
0.0354143
0.0353097
0.0352157
0.0351357
0.0350727
0.0350274
0.0349982
0.0349821
0.0349755
0.0356018
0.0356093
0.0356271
0.0356582
0.0357048
0.0357668
0.0358421
0.0359276
0.0360221
0.036128
0.0362523
0.0364022
0.0365745
0.0367317
0.0367875
0.0366957
0.0365056
0.0362965
0.0361063
0.0359389
0.0357921
0.0356615
0.0355424
0.0354313
0.0353272
0.0352323
0.0351505
0.0350853
0.0350379
0.0350073
0.0349903
0.0349835
0.0355956
0.0356029
0.0356199
0.0356492
0.0356927
0.0357506
0.0358214
0.0359031
0.0359963
0.0361068
0.0362456
0.0364252
0.0366432
0.0368477
0.0369261
0.0368177
0.0365877
0.036343
0.0361289
0.0359478
0.0357947
0.0356629
0.0355453
0.0354369
0.0353352
0.0352417
0.0351602
0.0350945
0.0350464
0.0350151
0.0349978
0.0349908
0.0355818
0.0355888
0.0356044
0.0356306
0.0356692
0.0357204
0.0357838
0.0358591
0.0359495
0.0360645
0.0362213
0.0364391
0.0367159
0.0369785
0.0370825
0.0369513
0.03667
0.0363794
0.0361348
0.0359363
0.0357757
0.035643
0.0355287
0.0354252
0.0353286
0.0352395
0.0351611
0.0350974
0.0350505
0.0350198
0.0350026
0.0349957
0.0355574
0.0355639
0.0355778
0.0356002
0.0356324
0.035675
0.0357286
0.0357953
0.0358817
0.0360025
0.0361831
0.0364512
0.0368012
0.0371291
0.0372534
0.0370855
0.0367382
0.0363917
0.0361116
0.035894
0.0357263
0.0355947
0.0354863
0.0353911
0.0353032
0.035222
0.0351502
0.0350914
0.0350478
0.035019
0.0350027
0.0349959
0.0355207
0.0355262
0.0355379
0.0355562
0.0355817
0.0356153
0.0356588
0.0357171
0.0358015
0.0359346
0.0361519
0.0364887
0.0369254
0.0373159
0.0374397
0.0372077
0.0367741
0.0363623
0.0360444
0.0358093
0.0356379
0.0355115
0.0354135
0.035331
0.0352562
0.035187
0.0351254
0.0350745
0.0350362
0.0350104
0.0349954
0.0349889
0.0354814
0.0354846
0.035492
0.0355046
0.0355232
0.0355495
0.035587
0.0356442
0.0357386
0.0359025
0.0361812
0.0366085
0.0371358
0.0375649
0.0376436
0.037304
0.0367592
0.0362748
0.0359209
0.0356736
0.0355049
0.0353902
0.0353084
0.0352439
0.0351868
0.0351337
0.0350855
0.0350448
0.0350133
0.0349913
0.0349779
0.0349718
0.0355023
0.0355008
0.0354994
0.0355013
0.0355104
0.0355318
0.0355732
0.0356483
0.0357812
0.0360106
0.0363818
0.0369102
0.0375008
0.0379033
0.0378611
0.0373602
0.0366842
0.0361272
0.0357432
0.0354906
0.0353314
0.0352344
0.0351745
0.0351327
0.0350969
0.0350626
0.0350298
0.0350005
0.0349763
0.0349583
0.0349466
0.0349409
0.0357855
0.0357798
0.0357703
0.035762
0.0357631
0.0357855
0.0358446
0.0359608
0.0361612
0.0364796
0.0369429
0.0375276
0.0380834
0.0383337
0.0380735
0.0373767
0.0365806
0.0359671
0.0355589
0.0352996
0.0351463
0.0350647
0.0350258
0.0350064
0.0349918
0.0349756
0.0349573
0.0349384
0.0349208
0.0349062
0.034896
0.0348908
0.0366523
0.0366519
0.0366523
0.0366577
0.0366765
0.0367219
0.0368121
0.0369689
0.0372153
0.0375692
0.0380268
0.0385176
0.0388551
0.0388034
0.0382805
0.0374474
0.0366158
0.0359803
0.0355352
0.035233
0.0350432
0.0349402
0.0348967
0.0348854
0.0348836
0.0348786
0.0348677
0.0348539
0.0348419
0.0348343
0.0348311
0.0348305
0.0381422
0.038155
0.0381816
0.0382234
0.0382835
0.0383686
0.0384888
0.0386563
0.0388798
0.0391554
0.0394473
0.0396613
0.0396487
0.0393141
0.0387185
0.0380059
0.0373198
0.0367297
0.0362344
0.0358168
0.0354629
0.0351772
0.0349639
0.0348224
0.0347468
0.0347271
0.0347526
0.0348111
0.0348873
0.0349633
0.0350224
0.0350534
0.0395681
0.0395875
0.039628
0.0396912
0.0397791
0.0398935
0.0400357
0.0402027
0.0403835
0.0405537
0.0406749
0.0407053
0.0406259
0.0404619
0.0402637
0.0400677
0.0398881
0.0397041
0.0394934
0.0392493
0.0389638
0.0386589
0.0383591
0.0380912
0.0378805
0.0377401
0.0376754
0.0376834
0.0377458
0.0378319
0.0379085
0.0379517
0.0403896
0.04041
0.0404573
0.0405389
0.0406616
0.0408286
0.0410358
0.0412696
0.0415106
0.0417414
0.0419569
0.0421667
0.0423954
0.042678
0.0430516
0.0435505
0.0441592
0.0447705
0.0452948
0.0457103
0.0460072
0.0461801
0.046231
0.0461674
0.0460036
0.0457581
0.0454608
0.0451557
0.0448893
0.0446974
0.0445895
0.0445493
0.0407504
0.0407692
0.0408165
0.0409042
0.0410442
0.0412441
0.0415037
0.0418125
0.042154
0.0425136
0.0428903
0.0432995
0.0437702
0.0443376
0.0450386
0.0459117
0.0469242
0.0479272
0.0488166
0.0495856
0.0502407
0.0507731
0.0511722
0.051425
0.0515213
0.051462
0.0512645
0.0509689
0.050637
0.0503401
0.0501344
0.0500389
0.0409246
0.0409422
0.0409875
0.0410733
0.0412134
0.0414195
0.0416965
0.0420394
0.0424343
0.0428663
0.0433298
0.0438341
0.0444015
0.0450597
0.0458364
0.0467561
0.047762
0.0486997
0.0494967
0.0501838
0.0507913
0.0513363
0.0518235
0.052244
0.0525792
0.0528093
0.0529224
0.0529224
0.0528345
0.0527041
0.0525853
0.0525193
0.041011
0.0410271
0.0410686
0.0411475
0.0412777
0.0414722
0.0417392
0.0420782
0.042479
0.0429272
0.0434127
0.043937
0.0445138
0.0451631
0.045904
0.0467499
0.047635
0.0484245
0.049084
0.0496672
0.0502193
0.0507698
0.0513264
0.0518721
0.0523728
0.05279
0.0530974
0.0532874
0.0533722
0.0533803
0.0533517
0.0533254
0.0410669
0.0410798
0.0411142
0.0411814
0.0412949
0.0414681
0.0417106
0.0420247
0.042404
0.0428361
0.0433099
0.0438218
0.044379
0.0449949
0.0456839
0.0464547
0.0472456
0.047945
0.0485376
0.0490797
0.0496196
0.0501923
0.0508118
0.0514613
0.0520979
0.0526649
0.0531157
0.0534282
0.0536083
0.0536842
0.0536964
0.0536871
0.0411539
0.0411601
0.0411813
0.0412295
0.0413191
0.0414644
0.0416761
0.0419588
0.0423093
0.0427183
0.0431757
0.0436759
0.044221
0.0448188
0.0454793
0.0462102
0.046958
0.0476277
0.048207
0.0487439
0.0492827
0.0498596
0.0504947
0.051182
0.0518863
0.0525492
0.0531101
0.0535269
0.0537896
0.0539193
0.0539588
0.0539578
0.0413471
0.0413415
0.0413404
0.0413593
0.0414165
0.0415294
0.0417115
0.0419692
0.0423017
0.0427021
0.0431608
0.0436704
0.0442274
0.0448336
0.0454942
0.0462162
0.0469528
0.0476184
0.0481982
0.0487332
0.0492632
0.0498228
0.0504352
0.0511044
0.0518089
0.0525021
0.0531228
0.0536143
0.0539464
0.0541263
0.054192
0.0541984
0.0417281
0.0417043
0.0416715
0.0416522
0.0416724
0.0417559
0.0419201
0.0421729
0.0425131
0.0429324
0.0434188
0.0439606
0.0445488
0.0451789
0.0458511
0.0465721
0.0472995
0.0479538
0.0485201
0.0490355
0.0495368
0.0500563
0.0506181
0.0512322
0.0518885
0.0525554
0.053182
0.0537092
0.0540903
0.0543129
0.0544041
0.0544185
0.0423679
0.042321
0.0422523
0.0421967
0.0421899
0.0422626
0.0424349
0.0427125
0.0430888
0.0435498
0.0440782
0.0446577
0.0452744
0.0459194
0.04659
0.0472926
0.0479884
0.0486059
0.0491331
0.0496053
0.0500563
0.050515
0.0510043
0.0515376
0.052114
0.0527153
0.0533036
0.053826
0.054229
0.0544825
0.0545968
0.0546198
0.043316
0.0432447
0.0431495
0.0430806
0.0430801
0.0431782
0.0433917
0.043718
0.0441418
0.0446428
0.0451999
0.0457943
0.0464105
0.0470385
0.0476747
0.0483253
0.0489567
0.0495077
0.0499711
0.05038
0.0507641
0.0511479
0.0515519
0.0519897
0.0524663
0.0529749
0.0534918
0.0539744
0.0543703
0.0546382
0.0547705
0.0548024
0.0446002
0.0445116
0.0444204
0.0443862
0.0444416
0.0446031
0.0448762
0.0452479
0.0456983
0.046206
0.0467506
0.0473148
0.047885
0.0484528
0.0490152
0.0495782
0.0501142
0.0505747
0.0509571
0.0512899
0.0515979
0.051901
0.0522156
0.0525541
0.0529237
0.0533251
0.0537472
0.0541613
0.0545223
0.0547846
0.0549264
0.0549664
0.0462411
0.0461568
0.0461229
0.046179
0.0463258
0.0465583
0.0468714
0.0472496
0.0476772
0.0481376
0.0486156
0.0490987
0.0495769
0.0500444
0.0504995
0.0509473
0.0513668
0.0517228
0.0520153
0.0522671
0.0524971
0.0527203
0.052949
0.0531928
0.0534589
0.0537511
0.0540669
0.0543915
0.0546922
0.0549273
0.0550664
0.0551118
0.0482744
0.0482366
0.0483137
0.0484761
0.0486922
0.0489499
0.0492452
0.0495695
0.0499158
0.0502754
0.0506395
0.0510007
0.0513531
0.0516931
0.05202
0.0523375
0.0526315
0.0528787
0.0530803
0.0532524
0.0534079
0.0535569
0.0537078
0.0538672
0.0540404
0.0542314
0.0544418
0.0546665
0.0548872
0.0550733
0.055194
0.0552391
0.0507747
0.0508295
0.0509955
0.0511843
0.0513801
0.0515813
0.0517897
0.0520042
0.0522241
0.0524469
0.0526688
0.0528863
0.0530966
0.0532979
0.0534898
0.0536747
0.0538446
0.0539867
0.054102
0.0541997
0.0542874
0.0543706
0.054454
0.0545414
0.0546358
0.0547398
0.0548553
0.0549816
0.0551118
0.0552297
0.055314
0.0553502
0.0538392
0.0538849
0.0539725
0.0540559
0.0541345
0.0542103
0.0542849
0.0543591
0.0544336
0.0545079
0.0545814
0.0546529
0.0547217
0.0547872
0.0548495
0.0549092
0.0549639
0.0550095
0.0550464
0.0550776
0.0551054
0.0551317
0.0551579
0.0551852
0.0552145
0.0552466
0.0552823
0.0553217
0.0553633
0.0554026
0.0554332
0.0554481
)
;

boundaryField
{
    movingWall
    {
        type            fixedValue;
        value           uniform 0.0555;
    }
    fixedWalls
    {
        type            zeroGradient;
    }
    floor
    {
        type            zeroGradient;
    }
    frontAndBack
    {
        type            empty;
    }
}


// ************************************************************************* //
