/*--------------------------------*- C++ -*----------------------------------*\
| =========                 |                                                 |
| \\      /  F ield         | OpenFOAM: The Open Source CFD Toolbox           |
|  \\    /   O peration     | Version:  2212                                  |
|   \\  /    A nd           | Website:  www.openfoam.com                      |
|    \\/     M anipulation  |                                                 |
\*---------------------------------------------------------------------------*/
FoamFile
{
    version     2.0;
    format      ascii;
    arch        "LSB;label=64;scalar=64";
    class       volScalarField;
    location    "740";
    object      Xli;
}
// * * * * * * * * * * * * * * * * * * * * * * * * * * * * * * * * * * * * * //

dimensions      [1 -3 0 0 0 0 0];

internalField   nonuniform List<scalar> 
1024
(
0.0423776
0.042378
0.0423789
0.0423807
0.0423834
0.0423871
0.0423919
0.0423975
0.0424037
0.0424101
0.0424166
0.0424228
0.0424284
0.0424325
0.0424333
0.0424293
0.0424209
0.0424104
0.0423997
0.0423895
0.04238
0.0423711
0.0423629
0.0423553
0.0423485
0.0423428
0.0423381
0.0423346
0.0423322
0.0423307
0.0423298
0.0423295
0.0423776
0.042378
0.042379
0.0423808
0.0423836
0.0423874
0.0423923
0.0423979
0.0424042
0.0424106
0.042417
0.0424233
0.042429
0.0424331
0.0424339
0.0424299
0.0424215
0.0424109
0.0424002
0.04239
0.0423805
0.0423716
0.0423633
0.0423557
0.0423489
0.0423431
0.0423384
0.0423348
0.0423324
0.0423308
0.0423299
0.0423296
0.0423777
0.0423781
0.0423792
0.0423811
0.0423839
0.0423879
0.0423929
0.0423987
0.0424049
0.0424113
0.0424179
0.0424243
0.0424302
0.0424346
0.0424355
0.0424314
0.0424227
0.042412
0.0424012
0.042391
0.0423814
0.0423725
0.0423642
0.0423566
0.0423497
0.0423437
0.0423389
0.0423352
0.0423326
0.042331
0.0423301
0.0423297
0.0423779
0.0423783
0.0423794
0.0423814
0.0423844
0.0423886
0.0423937
0.0423995
0.0424058
0.0424123
0.042419
0.0424257
0.0424322
0.0424372
0.0424383
0.0424338
0.0424247
0.0424137
0.0424027
0.0423924
0.0423827
0.0423738
0.0423655
0.0423578
0.0423508
0.0423447
0.0423397
0.0423358
0.0423331
0.0423314
0.0423304
0.04233
0.042378
0.0423785
0.0423797
0.0423818
0.0423849
0.0423891
0.0423943
0.0424002
0.0424066
0.0424132
0.0424202
0.0424276
0.0424351
0.0424412
0.0424426
0.0424376
0.0424276
0.0424159
0.0424045
0.042394
0.0423843
0.0423753
0.042367
0.0423593
0.0423522
0.0423459
0.0423407
0.0423366
0.0423337
0.0423318
0.0423308
0.0423304
0.0423781
0.0423786
0.0423798
0.0423819
0.0423851
0.0423894
0.0423946
0.0424005
0.0424069
0.0424137
0.0424212
0.0424297
0.0424388
0.0424466
0.0424487
0.0424428
0.0424315
0.0424186
0.0424065
0.0423956
0.0423857
0.0423767
0.0423685
0.0423608
0.0423536
0.0423472
0.0423418
0.0423375
0.0423344
0.0423324
0.0423313
0.0423309
0.042378
0.0423785
0.0423797
0.0423818
0.042385
0.0423892
0.0423942
0.0424
0.0424064
0.0424135
0.0424218
0.0424318
0.0424431
0.0424533
0.0424564
0.0424495
0.0424361
0.0424215
0.0424083
0.0423967
0.0423866
0.0423776
0.0423694
0.0423618
0.0423547
0.0423483
0.0423427
0.0423383
0.0423351
0.042333
0.0423319
0.0423314
0.0423776
0.0423781
0.0423793
0.0423812
0.0423842
0.0423881
0.0423929
0.0423984
0.0424047
0.0424121
0.0424214
0.0424334
0.0424478
0.042461
0.0424656
0.0424574
0.0424413
0.0424243
0.0424095
0.042397
0.0423865
0.0423774
0.0423694
0.0423621
0.0423552
0.0423488
0.0423433
0.0423389
0.0423356
0.0423335
0.0423323
0.0423319
0.0423767
0.0423772
0.0423782
0.04238
0.0423826
0.0423861
0.0423904
0.0423955
0.0424016
0.0424094
0.0424199
0.0424345
0.0424528
0.0424698
0.0424758
0.042466
0.0424463
0.0424262
0.0424094
0.0423958
0.0423848
0.0423758
0.042368
0.0423611
0.0423546
0.0423486
0.0423433
0.042339
0.0423358
0.0423338
0.0423326
0.0423321
0.0423751
0.0423755
0.0423765
0.042378
0.0423802
0.0423831
0.0423867
0.0423912
0.0423971
0.0424053
0.0424175
0.0424354
0.0424585
0.0424798
0.042487
0.0424745
0.0424502
0.0424263
0.0424071
0.0423923
0.0423809
0.042372
0.0423648
0.0423585
0.0423526
0.0423472
0.0423424
0.0423385
0.0423356
0.0423336
0.0423325
0.0423321
0.0423726
0.042373
0.0423738
0.042375
0.0423768
0.0423791
0.042382
0.042386
0.0423918
0.0424008
0.0424154
0.042438
0.0424668
0.0424921
0.042499
0.0424819
0.0424518
0.0424235
0.0424018
0.0423858
0.0423743
0.0423659
0.0423594
0.042354
0.0423492
0.0423446
0.0423406
0.0423372
0.0423347
0.042333
0.042332
0.0423315
0.0423701
0.0423703
0.0423708
0.0423716
0.0423729
0.0423747
0.0423772
0.0423812
0.0423876
0.0423987
0.0424175
0.042446
0.0424808
0.0425083
0.0425119
0.0424874
0.0424497
0.0424166
0.0423925
0.0423759
0.0423646
0.0423571
0.0423519
0.0423478
0.0423442
0.0423408
0.0423377
0.0423351
0.042333
0.0423316
0.0423307
0.0423302
0.0423717
0.0423715
0.0423714
0.0423716
0.0423722
0.0423736
0.0423764
0.0423816
0.0423906
0.0424061
0.042431
0.0424662
0.0425049
0.0425302
0.0425253
0.0424899
0.0424434
0.0424055
0.0423797
0.0423628
0.0423523
0.0423461
0.0423424
0.0423399
0.0423378
0.0423358
0.0423338
0.0423319
0.0423304
0.0423292
0.0423284
0.042328
0.0423912
0.0423908
0.0423902
0.0423896
0.0423896
0.0423911
0.0423951
0.042403
0.0424165
0.0424379
0.0424688
0.0425073
0.0425431
0.0425577
0.0425379
0.0424894
0.0424351
0.0423937
0.0423664
0.0423493
0.0423394
0.0423343
0.0423321
0.0423312
0.0423306
0.0423297
0.0423287
0.0423276
0.0423264
0.0423255
0.0423248
0.0423244
0.0424504
0.0424504
0.0424504
0.0424507
0.0424519
0.0424549
0.0424609
0.0424713
0.0424877
0.042511
0.042541
0.0425725
0.042593
0.0425869
0.0425495
0.0424922
0.042436
0.0423935
0.0423642
0.0423445
0.0423323
0.0423259
0.0423235
0.0423231
0.0423232
0.0423231
0.0423225
0.0423217
0.0423209
0.0423204
0.0423202
0.0423201
0.0425513
0.0425521
0.0425538
0.0425566
0.0425604
0.0425659
0.0425737
0.0425844
0.0425987
0.042616
0.042634
0.0426461
0.0426427
0.0426178
0.0425761
0.0425273
0.0424812
0.0424421
0.0424096
0.0423824
0.0423596
0.0423413
0.0423277
0.0423188
0.042314
0.0423129
0.0423146
0.0423184
0.0423233
0.0423282
0.042332
0.042334
0.0426467
0.042648
0.0426506
0.0426546
0.04266
0.0426671
0.0426758
0.0426858
0.0426964
0.0427059
0.0427118
0.0427115
0.0427039
0.042691
0.0426761
0.0426616
0.0426485
0.0426356
0.0426212
0.0426049
0.0425862
0.0425663
0.0425469
0.0425296
0.0425161
0.0425071
0.042503
0.0425036
0.0425077
0.0425133
0.0425182
0.042521
0.0427012
0.0427024
0.0427053
0.0427104
0.0427179
0.042728
0.0427406
0.0427546
0.042769
0.0427824
0.0427948
0.0428067
0.0428199
0.0428365
0.042859
0.0428895
0.042927
0.0429646
0.0429967
0.0430219
0.0430396
0.0430496
0.0430521
0.0430474
0.0430366
0.0430208
0.0430019
0.0429826
0.0429658
0.0429537
0.0429469
0.0429444
0.0427255
0.0427267
0.0427296
0.042735
0.0427437
0.0427561
0.0427722
0.0427913
0.0428124
0.0428346
0.0428579
0.0428832
0.0429125
0.0429479
0.0429917
0.0430463
0.0431094
0.0431715
0.0432261
0.0432726
0.0433118
0.0433432
0.0433663
0.0433806
0.0433854
0.0433808
0.043368
0.0433494
0.0433287
0.0433102
0.0432974
0.0432915
0.0427378
0.0427389
0.0427417
0.0427471
0.0427558
0.0427688
0.0427862
0.0428078
0.0428328
0.0428601
0.0428894
0.0429214
0.0429573
0.042999
0.0430481
0.0431059
0.0431687
0.0432266
0.0432748
0.0433154
0.0433504
0.0433811
0.0434082
0.0434313
0.0434496
0.043462
0.043468
0.0434676
0.0434622
0.0434544
0.0434473
0.0434434
0.0427444
0.0427453
0.0427479
0.0427529
0.0427611
0.0427734
0.0427904
0.042812
0.0428376
0.0428663
0.0428974
0.042931
0.042968
0.0430094
0.0430565
0.04311
0.0431653
0.043214
0.0432536
0.0432876
0.0433188
0.0433493
0.0433797
0.0434093
0.0434365
0.0434592
0.043476
0.0434865
0.0434913
0.0434919
0.0434905
0.0434891
0.0427487
0.0427495
0.0427516
0.0427559
0.0427631
0.0427741
0.0427896
0.0428098
0.0428342
0.0428621
0.0428927
0.0429257
0.0429615
0.043001
0.0430449
0.0430936
0.0431432
0.0431862
0.0432218
0.0432534
0.0432841
0.0433159
0.04335
0.0433856
0.0434204
0.0434513
0.0434758
0.0434929
0.0435029
0.0435072
0.0435081
0.0435078
0.0427546
0.042755
0.0427564
0.0427594
0.0427652
0.0427745
0.0427881
0.0428064
0.042829
0.0428554
0.0428849
0.0429171
0.0429521
0.0429903
0.0430323
0.0430784
0.043125
0.0431662
0.043201
0.0432326
0.0432635
0.0432959
0.0433312
0.0433692
0.0434078
0.0434441
0.0434747
0.0434974
0.0435118
0.043519
0.0435214
0.0435214
0.0427666
0.0427663
0.0427663
0.0427677
0.0427714
0.0427788
0.0427905
0.0428071
0.0428285
0.0428542
0.0428835
0.0429161
0.0429515
0.0429899
0.0430315
0.0430768
0.0431225
0.0431633
0.0431982
0.0432298
0.0432605
0.0432923
0.0433267
0.0433638
0.0434027
0.0434408
0.0434747
0.0435015
0.0435196
0.0435295
0.0435332
0.0435337
0.0427896
0.0427882
0.0427864
0.0427854
0.042787
0.0427925
0.042803
0.0428191
0.0428407
0.0428672
0.0428979
0.042932
0.042969
0.0430084
0.0430504
0.0430953
0.0431401
0.0431801
0.0432142
0.0432448
0.043274
0.0433038
0.0433356
0.0433699
0.0434063
0.043443
0.0434774
0.0435061
0.0435268
0.043539
0.043544
0.0435449
0.0428278
0.0428251
0.0428211
0.0428179
0.0428178
0.0428226
0.0428335
0.0428509
0.0428744
0.042903
0.0429359
0.0429718
0.0430101
0.0430501
0.0430916
0.0431349
0.0431777
0.0432153
0.043247
0.0432752
0.0433016
0.0433281
0.0433559
0.0433859
0.043418
0.0434512
0.0434835
0.043512
0.0435339
0.0435477
0.0435539
0.0435552
0.0428841
0.0428799
0.0428743
0.0428704
0.0428706
0.0428768
0.04289
0.0429101
0.042936
0.0429668
0.0430009
0.0430374
0.0430753
0.0431138
0.0431529
0.0431929
0.0432315
0.043265
0.0432929
0.0433173
0.04334
0.0433622
0.0433853
0.0434101
0.0434367
0.0434649
0.0434933
0.0435197
0.0435412
0.0435556
0.0435628
0.0435646
0.04296
0.0429548
0.0429495
0.0429476
0.042951
0.0429609
0.0429774
0.043
0.0430273
0.0430581
0.0430912
0.0431255
0.0431603
0.043195
0.0432293
0.0432638
0.0432965
0.0433244
0.0433475
0.0433674
0.0433856
0.0434032
0.0434213
0.0434405
0.0434613
0.0434836
0.0435068
0.0435295
0.043549
0.0435632
0.0435708
0.043573
0.0430567
0.0430518
0.0430498
0.0430532
0.043062
0.0430759
0.0430947
0.0431174
0.0431431
0.0431709
0.0431998
0.043229
0.043258
0.0432865
0.0433142
0.0433415
0.043367
0.0433886
0.0434063
0.0434214
0.043435
0.0434481
0.0434612
0.0434751
0.0434901
0.0435064
0.0435238
0.0435416
0.0435579
0.0435705
0.043578
0.0435805
0.0431763
0.0431741
0.0431787
0.0431883
0.0432011
0.0432164
0.043234
0.0432534
0.0432741
0.0432957
0.0433176
0.0433394
0.0433607
0.0433813
0.0434012
0.0434205
0.0434384
0.0434534
0.0434656
0.0434759
0.0434851
0.0434939
0.0435026
0.0435117
0.0435215
0.0435322
0.0435438
0.0435561
0.0435681
0.0435781
0.0435845
0.0435869
0.0433231
0.0433264
0.0433361
0.0433472
0.0433588
0.0433707
0.0433831
0.0433958
0.043409
0.0434223
0.0434356
0.0434487
0.0434614
0.0434736
0.0434853
0.0434965
0.0435069
0.0435155
0.0435224
0.0435283
0.0435335
0.0435384
0.0435433
0.0435483
0.0435536
0.0435594
0.0435658
0.0435727
0.0435798
0.0435861
0.0435906
0.0435925
0.0435028
0.0435055
0.0435106
0.0435155
0.0435201
0.0435246
0.043529
0.0435334
0.0435379
0.0435423
0.0435467
0.043551
0.0435552
0.0435592
0.0435629
0.0435666
0.0435699
0.0435727
0.0435749
0.0435768
0.0435784
0.04358
0.0435815
0.0435831
0.0435847
0.0435865
0.0435885
0.0435907
0.0435929
0.043595
0.0435967
0.0435974
)
;

boundaryField
{
    movingWall
    {
        type            fixedValue;
        value           uniform 0.0436;
    }
    fixedWalls
    {
        type            zeroGradient;
    }
    floor
    {
        type            zeroGradient;
    }
    frontAndBack
    {
        type            empty;
    }
}


// ************************************************************************* //
