/*--------------------------------*- C++ -*----------------------------------*\
| =========                 |                                                 |
| \\      /  F ield         | OpenFOAM: The Open Source CFD Toolbox           |
|  \\    /   O peration     | Version:  2212                                  |
|   \\  /    A nd           | Website:  www.openfoam.com                      |
|    \\/     M anipulation  |                                                 |
\*---------------------------------------------------------------------------*/
FoamFile
{
    version     2.0;
    format      ascii;
    arch        "LSB;label=64;scalar=64";
    class       volVectorField;
    location    "0.51";
    object      U;
}
// * * * * * * * * * * * * * * * * * * * * * * * * * * * * * * * * * * * * * //

dimensions      [0 1 -1 0 0 0 0];

internalField   nonuniform List<vector> 
32768
(
(1.72529e-07 -1.36706e-07 0)
(-5.10788e-06 2.88822e-06 0)
(-1.63512e-05 5.48281e-06 0)
(-3.02881e-05 6.65843e-06 0)
(-4.43974e-05 6.73691e-06 0)
(-5.73547e-05 6.34045e-06 0)
(-6.88938e-05 5.8964e-06 0)
(-7.92872e-05 5.5741e-06 0)
(-8.89207e-05 5.38301e-06 0)
(-9.80925e-05 5.27495e-06 0)
(-0.000106975 5.20094e-06 0)
(-0.000115643 5.12941e-06 0)
(-0.000124117 5.0451e-06 0)
(-0.000132388 4.94287e-06 0)
(-0.000140439 4.82238e-06 0)
(-0.00014825 4.68498e-06 0)
(-0.0001558 4.53232e-06 0)
(-0.000163069 4.36581e-06 0)
(-0.000170038 4.18657e-06 0)
(-0.000176689 3.99544e-06 0)
(-0.000183006 3.7931e-06 0)
(-0.000188972 3.58011e-06 0)
(-0.00019457 3.35692e-06 0)
(-0.000199784 3.1239e-06 0)
(-0.000204598 2.88137e-06 0)
(-0.000208999 2.6296e-06 0)
(-0.00021297 2.36889e-06 0)
(-0.000216496 2.09955e-06 0)
(-0.000219565 1.82196e-06 0)
(-0.000222161 1.53658e-06 0)
(-0.000224271 1.24407e-06 0)
(-0.000225882 9.45379e-07 0)
(-0.000226984 6.41882e-07 0)
(-0.000227567 3.35454e-07 0)
(-0.000227622 2.70623e-08 0)
(-0.00022714 -2.85511e-07 0)
(-0.000226121 -6.0119e-07 0)
(-0.000224559 -9.18102e-07 0)
(-0.000222453 -1.235e-06 0)
(-0.000219803 -1.55106e-06 0)
(-0.000216608 -1.8656e-06 0)
(-0.000212871 -2.17789e-06 0)
(-0.000208593 -2.48714e-06 0)
(-0.00020378 -2.79251e-06 0)
(-0.000198438 -3.09307e-06 0)
(-0.000192573 -3.38786e-06 0)
(-0.000186196 -3.67591e-06 0)
(-0.000179319 -3.95618e-06 0)
(-0.000171955 -4.22764e-06 0)
(-0.000164119 -4.48924e-06 0)
(-0.000155829 -4.73992e-06 0)
(-0.000147105 -4.97862e-06 0)
(-0.000137969 -5.20429e-06 0)
(-0.000128443 -5.41594e-06 0)
(-0.000118553 -5.61265e-06 0)
(-0.000108327 -5.79355e-06 0)
(-9.7794e-05 -5.95786e-06 0)
(-8.69833e-05 -6.10483e-06 0)
(-7.59272e-05 -6.23376e-06 0)
(-6.4659e-05 -6.34383e-06 0)
(-5.32136e-05 -6.43405e-06 0)
(-4.16277e-05 -6.50313e-06 0)
(-2.99404e-05 -6.54956e-06 0)
(-1.81928e-05 -6.57174e-06 0)
(-6.42662e-06 -6.56819e-06 0)
(5.32518e-06 -6.54006e-06 0)
(1.70062e-05 -6.49086e-06 0)
(2.85904e-05 -6.42268e-06 0)
(4.00449e-05 -6.33645e-06 0)
(5.13372e-05 -6.23273e-06 0)
(6.24365e-05 -6.11185e-06 0)
(7.33128e-05 -5.97402e-06 0)
(8.39368e-05 -5.81959e-06 0)
(9.42798e-05 -5.64906e-06 0)
(0.000104314 -5.46306e-06 0)
(0.000114014 -5.26234e-06 0)
(0.000123354 -5.04768e-06 0)
(0.000132311 -4.8199e-06 0)
(0.000140862 -4.5799e-06 0)
(0.000148989 -4.32866e-06 0)
(0.000156672 -4.0672e-06 0)
(0.000163894 -3.79653e-06 0)
(0.000170642 -3.51764e-06 0)
(0.000176902 -3.23151e-06 0)
(0.000182663 -2.93912e-06 0)
(0.000187915 -2.64136e-06 0)
(0.00019265 -2.33901e-06 0)
(0.000196861 -2.03273e-06 0)
(0.000200543 -1.72311e-06 0)
(0.000203692 -1.41071e-06 0)
(0.000206304 -1.09615e-06 0)
(0.000208378 -7.8015e-07 0)
(0.000209912 -4.63702e-07 0)
(0.000210908 -1.48533e-07 0)
(0.00021137 1.62571e-07 0)
(0.0002113 4.67436e-07 0)
(0.000210708 7.68006e-07 0)
(0.000209607 1.0633e-06 0)
(0.000208011 1.35196e-06 0)
(0.000205931 1.6332e-06 0)
(0.000203381 1.90651e-06 0)
(0.000200377 2.17155e-06 0)
(0.000196932 2.42809e-06 0)
(0.000193062 2.67594e-06 0)
(0.000188779 2.91488e-06 0)
(0.000184101 3.14465e-06 0)
(0.00017904 3.36488e-06 0)
(0.000173613 3.57516e-06 0)
(0.000167835 3.775e-06 0)
(0.000161723 3.96386e-06 0)
(0.000155292 4.14104e-06 0)
(0.000148562 4.30567e-06 0)
(0.000141549 4.45662e-06 0)
(0.000134274 4.59244e-06 0)
(0.000126756 4.71142e-06 0)
(0.000119015 4.81219e-06 0)
(0.000111071 4.89506e-06 0)
(0.000102929 4.96524e-06 0)
(9.45702e-05 5.0382e-06 0)
(8.59175e-05 5.14616e-06 0)
(7.67953e-05 5.33928e-06 0)
(6.68986e-05 5.66758e-06 0)
(5.5831e-05 6.12334e-06 0)
(4.33071e-05 6.53781e-06 0)
(2.95824e-05 6.48309e-06 0)
(1.59744e-05 5.34062e-06 0)
(4.98397e-06 2.80141e-06 0)
(-1.77376e-07 -1.50593e-07 0)
(-7.31113e-07 9.90279e-06 0)
(-1.21627e-05 3.23056e-05 0)
(-3.18469e-05 4.68318e-05 0)
(-5.44391e-05 5.13099e-05 0)
(-7.59618e-05 4.89607e-05 0)
(-9.46471e-05 4.39814e-05 0)
(-0.000110383 3.91693e-05 0)
(-0.000123821 3.56106e-05 0)
(-0.000135726 3.33118e-05 0)
(-0.000146686 3.18786e-05 0)
(-0.000157059 3.09099e-05 0)
(-0.00016703 3.01305e-05 0)
(-0.000176679 2.93893e-05 0)
(-0.000186027 2.86162e-05 0)
(-0.000195076 2.77843e-05 0)
(-0.000203812 2.68863e-05 0)
(-0.00021222 2.59219e-05 0)
(-0.000220284 2.48932e-05 0)
(-0.000227986 2.38025e-05 0)
(-0.000235309 2.26516e-05 0)
(-0.000242237 2.14424e-05 0)
(-0.000248752 2.01761e-05 0)
(-0.000254838 1.88541e-05 0)
(-0.000260478 1.74775e-05 0)
(-0.000265657 1.60471e-05 0)
(-0.000270358 1.45638e-05 0)
(-0.000274565 1.30287e-05 0)
(-0.000278264 1.14425e-05 0)
(-0.00028144 9.80624e-06 0)
(-0.000284077 8.12127e-06 0)
(-0.000286161 6.38928e-06 0)
(-0.000287678 4.6129e-06 0)
(-0.000288615 2.79607e-06 0)
(-0.000288958 9.44753e-07 0)
(-0.00028869 -9.32995e-07 0)
(-0.000287808 -2.82949e-06 0)
(-0.000286309 -4.73825e-06 0)
(-0.000284187 -6.65492e-06 0)
(-0.000281438 -8.5762e-06 0)
(-0.000278058 -1.04987e-05 0)
(-0.000274045 -1.24186e-05 0)
(-0.000269399 -1.43316e-05 0)
(-0.00026412 -1.62327e-05 0)
(-0.000258211 -1.81162e-05 0)
(-0.000251677 -1.99759e-05 0)
(-0.000244525 -2.18054e-05 0)
(-0.000236764 -2.3598e-05 0)
(-0.000228405 -2.53466e-05 0)
(-0.000219465 -2.70441e-05 0)
(-0.000209959 -2.86833e-05 0)
(-0.000199907 -3.0257e-05 0)
(-0.000189332 -3.1758e-05 0)
(-0.000178258 -3.31791e-05 0)
(-0.000166713 -3.45136e-05 0)
(-0.000154728 -3.57549e-05 0)
(-0.000142334 -3.68968e-05 0)
(-0.000129567 -3.79337e-05 0)
(-0.000116463 -3.88602e-05 0)
(-0.000103061 -3.96711e-05 0)
(-8.94032e-05 -4.03608e-05 0)
(-7.55308e-05 -4.09235e-05 0)
(-6.14884e-05 -4.13525e-05 0)
(-4.73217e-05 -4.16415e-05 0)
(-3.30774e-05 -4.17859e-05 0)
(-1.88026e-05 -4.17845e-05 0)
(-4.53826e-06 -4.16393e-05 0)
(9.67436e-06 -4.1359e-05 0)
(2.37767e-05 -4.09561e-05 0)
(3.77405e-05 -4.0439e-05 0)
(5.15271e-05 -3.98122e-05 0)
(6.50994e-05 -3.90785e-05 0)
(7.84218e-05 -3.82398e-05 0)
(9.14595e-05 -3.72985e-05 0)
(0.000104179 -3.6258e-05 0)
(0.000116547 -3.51222e-05 0)
(0.000128534 -3.38959e-05 0)
(0.000140109 -3.25843e-05 0)
(0.000151246 -3.11928e-05 0)
(0.000161918 -2.97273e-05 0)
(0.000172103 -2.8194e-05 0)
(0.000181779 -2.65991e-05 0)
(0.000190927 -2.49489e-05 0)
(0.000199528 -2.32498e-05 0)
(0.000207569 -2.15079e-05 0)
(0.000215036 -1.97292e-05 0)
(0.000221918 -1.79193e-05 0)
(0.000228205 -1.60835e-05 0)
(0.000233889 -1.42264e-05 0)
(0.000238965 -1.23525e-05 0)
(0.000243429 -1.04657e-05 0)
(0.000247277 -8.57013e-06 0)
(0.00025051 -6.66998e-06 0)
(0.000253126 -4.77003e-06 0)
(0.000255127 -2.8762e-06 0)
(0.000256518 -9.96273e-07 0)
(0.000257305 8.60101e-07 0)
(0.000257486 2.6821e-06 0)
(0.000257079 4.45953e-06 0)
(0.000256101 6.18791e-06 0)
(0.000254568 7.8657e-06 0)
(0.000252493 9.49257e-06 0)
(0.000249894 1.10685e-05 0)
(0.000246784 1.25936e-05 0)
(0.000243181 1.40677e-05 0)
(0.000239097 1.54906e-05 0)
(0.00023455 1.68616e-05 0)
(0.000229554 1.81799e-05 0)
(0.000224124 1.94446e-05 0)
(0.000218278 2.06544e-05 0)
(0.000212029 2.18078e-05 0)
(0.000205395 2.2903e-05 0)
(0.000198392 2.3938e-05 0)
(0.000191036 2.49101e-05 0)
(0.000183343 2.58172e-05 0)
(0.000175329 2.66589e-05 0)
(0.000167004 2.74427e-05 0)
(0.000158371 2.81953e-05 0)
(0.000149404 2.89873e-05 0)
(0.000140024 2.99725e-05 0)
(0.000130043 3.14309e-05 0)
(0.000119097 3.3773e-05 0)
(0.000106587 3.7406e-05 0)
(9.17279e-05 4.23353e-05 0)
(7.38475e-05 4.74758e-05 0)
(5.30389e-05 5.00188e-05 0)
(3.10595e-05 4.57741e-05 0)
(1.18611e-05 3.15889e-05 0)
(7.04763e-07 9.66227e-06 0)
(-7.0264e-07 2.27691e-05 0)
(-1.17223e-05 6.45459e-05 0)
(-2.97505e-05 8.83651e-05 0)
(-4.94799e-05 9.30106e-05 0)
(-6.71056e-05 8.54484e-05 0)
(-8.11459e-05 7.37077e-05 0)
(-9.17501e-05 6.2964e-05 0)
(-9.9762e-05 5.51311e-05 0)
(-0.00010608 5.00932e-05 0)
(-0.00011138 4.6997e-05 0)
(-0.000116084 4.49991e-05 0)
(-0.00012042 4.35164e-05 0)
(-0.000124497 4.2219e-05 0)
(-0.000128366 4.09458e-05 0)
(-0.000132043 3.9627e-05 0)
(-0.000135537 3.82367e-05 0)
(-0.000138845 3.67667e-05 0)
(-0.000141967 3.52158e-05 0)
(-0.000144899 3.35849e-05 0)
(-0.000147637 3.18753e-05 0)
(-0.000150178 3.00882e-05 0)
(-0.000152516 2.82251e-05 0)
(-0.000154648 2.62871e-05 0)
(-0.000156569 2.42757e-05 0)
(-0.000158275 2.2192e-05 0)
(-0.000159763 2.00373e-05 0)
(-0.000161027 1.78132e-05 0)
(-0.000162064 1.55214e-05 0)
(-0.000162872 1.31635e-05 0)
(-0.000163447 1.07418e-05 0)
(-0.000163787 8.25867e-06 0)
(-0.000163891 5.71681e-06 0)
(-0.000163758 3.11983e-06 0)
(-0.000163385 4.73212e-07 0)
(-0.000162773 -2.2133e-06 0)
(-0.000161919 -4.9293e-06 0)
(-0.000160813 -7.6694e-06 0)
(-0.00015945 -1.04301e-05 0)
(-0.000157823 -1.32077e-05 0)
(-0.000155926 -1.59971e-05 0)
(-0.000153757 -1.87922e-05 0)
(-0.000151311 -2.15862e-05 0)
(-0.000148587 -2.4371e-05 0)
(-0.000145582 -2.71378e-05 0)
(-0.000142296 -2.98771e-05 0)
(-0.000138731 -3.25787e-05 0)
(-0.000134888 -3.52321e-05 0)
(-0.000130771 -3.78265e-05 0)
(-0.000126384 -4.03506e-05 0)
(-0.000121733 -4.27932e-05 0)
(-0.000116826 -4.51426e-05 0)
(-0.000111671 -4.73876e-05 0)
(-0.00010628 -4.95166e-05 0)
(-0.000100663 -5.15185e-05 0)
(-9.48346e-05 -5.33828e-05 0)
(-8.88096e-05 -5.50991e-05 0)
(-8.26045e-05 -5.66579e-05 0)
(-7.62372e-05 -5.80503e-05 0)
(-6.97269e-05 -5.92679e-05 0)
(-6.30936e-05 -6.03028e-05 0)
(-5.63576e-05 -6.11472e-05 0)
(-4.95392e-05 -6.17938e-05 0)
(-4.26576e-05 -6.22368e-05 0)
(-3.57308e-05 -6.24738e-05 0)
(-2.87755e-05 -6.25063e-05 0)
(-2.18065e-05 -6.23393e-05 0)
(-1.48373e-05 -6.19807e-05 0)
(-7.88331e-06 -6.14419e-05 0)
(-9.58666e-07 -6.07336e-05 0)
(5.91918e-06 -5.98619e-05 0)
(1.27309e-05 -5.8831e-05 0)
(1.94619e-05 -5.76445e-05 0)
(2.60964e-05 -5.63068e-05 0)
(3.26191e-05 -5.48229e-05 0)
(3.90159e-05 -5.31991e-05 0)
(4.52729e-05 -5.14424e-05 0)
(5.13768e-05 -4.95606e-05 0)
(5.73151e-05 -4.75617e-05 0)
(6.30764e-05 -4.54547e-05 0)
(6.86499e-05 -4.32483e-05 0)
(7.40253e-05 -4.09519e-05 0)
(7.91932e-05 -3.85746e-05 0)
(8.41449e-05 -3.61255e-05 0)
(8.88729e-05 -3.36137e-05 0)
(9.33701e-05 -3.10481e-05 0)
(9.76302e-05 -2.84368e-05 0)
(0.000101648 -2.57881e-05 0)
(0.000105418 -2.31092e-05 0)
(0.000108938 -2.04075e-05 0)
(0.000112203 -1.76898e-05 0)
(0.000115214 -1.49633e-05 0)
(0.000117969 -1.22353e-05 0)
(0.00012047 -9.51349e-06 0)
(0.000122719 -6.80557e-06 0)
(0.000124722 -4.1193e-06 0)
(0.000126482 -1.4633e-06 0)
(0.00012801 1.15007e-06 0)
(0.000129292 3.70844e-06 0)
(0.000130329 6.20338e-06 0)
(0.000131124 8.63094e-06 0)
(0.00013168 1.09911e-05 0)
(0.000131998 1.32838e-05 0)
(0.000132082 1.55089e-05 0)
(0.000131935 1.76659e-05 0)
(0.00013156 1.97544e-05 0)
(0.000130961 2.17738e-05 0)
(0.000130141 2.37232e-05 0)
(0.000129104 2.56015e-05 0)
(0.000127853 2.74076e-05 0)
(0.000126392 2.91401e-05 0)
(0.000124724 3.07973e-05 0)
(0.000122851 3.23777e-05 0)
(0.000120777 3.38798e-05 0)
(0.000118504 3.53044e-05 0)
(0.000116031 3.66587e-05 0)
(0.000113351 3.79687e-05 0)
(0.000110447 3.93039e-05 0)
(0.00010727 4.08275e-05 0)
(0.000103707 4.28743e-05 0)
(9.95281e-05 4.60377e-05 0)
(9.43061e-05 5.11799e-05 0)
(8.7352e-05 5.91797e-05 0)
(7.77492e-05 7.01761e-05 0)
(6.46309e-05 8.2258e-05 0)
(4.78278e-05 9.0227e-05 0)
(2.88085e-05 8.6063e-05 0)
(1.13487e-05 6.29301e-05 0)
(6.67532e-07 2.21554e-05 0)
(-5.65653e-07 3.35277e-05 0)
(-1.02557e-05 9.18232e-05 0)
(-2.59702e-05 0.000122749 0)
(-4.26065e-05 0.000125959 0)
(-5.6616e-05 0.000112165 0)
(-6.67424e-05 9.3115e-05 0)
(-7.32977e-05 7.6203e-05 0)
(-7.72232e-05 6.40382e-05 0)
(-7.94676e-05 5.63002e-05 0)
(-8.07324e-05 5.16341e-05 0)
(-8.14513e-05 4.8735e-05 0)
(-8.18614e-05 4.67051e-05 0)
(-8.2082e-05 4.50337e-05 0)
(-8.21704e-05 4.34672e-05 0)
(-8.2155e-05 4.18929e-05 0)
(-8.20508e-05 4.02658e-05 0)
(-8.18673e-05 3.85694e-05 0)
(-8.16111e-05 3.67988e-05 0)
(-8.12882e-05 3.49528e-05 0)
(-8.09035e-05 3.30319e-05 0)
(-8.04618e-05 3.10367e-05 0)
(-7.99672e-05 2.89681e-05 0)
(-7.94232e-05 2.68272e-05 0)
(-7.88337e-05 2.46149e-05 0)
(-7.82024e-05 2.23326e-05 0)
(-7.75329e-05 1.99816e-05 0)
(-7.68283e-05 1.75638e-05 0)
(-7.60922e-05 1.50815e-05 0)
(-7.53277e-05 1.25373e-05 0)
(-7.45386e-05 9.93414e-06 0)
(-7.37287e-05 7.27542e-06 0)
(-7.29022e-05 4.56482e-06 0)
(-7.20631e-05 1.80614e-06 0)
(-7.12118e-05 -9.96268e-07 0)
(-7.03571e-05 -3.83842e-06 0)
(-6.94923e-05 -6.71833e-06 0)
(-6.86156e-05 -9.63337e-06 0)
(-6.77252e-05 -1.25794e-05 0)
(-6.68184e-05 -1.5551e-05 0)
(-6.58926e-05 -1.8542e-05 0)
(-6.49464e-05 -2.15453e-05 0)
(-6.39779e-05 -2.45527e-05 0)
(-6.2985e-05 -2.75555e-05 0)
(-6.19656e-05 -3.05441e-05 0)
(-6.09178e-05 -3.35082e-05 0)
(-5.98396e-05 -3.64366e-05 0)
(-5.87294e-05 -3.93178e-05 0)
(-5.75855e-05 -4.21397e-05 0)
(-5.64065e-05 -4.48898e-05 0)
(-5.51914e-05 -4.75553e-05 0)
(-5.39398e-05 -5.01232e-05 0)
(-5.26511e-05 -5.25803e-05 0)
(-5.13259e-05 -5.49135e-05 0)
(-4.99647e-05 -5.71098e-05 0)
(-4.85692e-05 -5.91567e-05 0)
(-4.71411e-05 -6.1042e-05 0)
(-4.56831e-05 -6.27543e-05 0)
(-4.41983e-05 -6.4283e-05 0)
(-4.26903e-05 -6.56189e-05 0)
(-4.11623e-05 -6.67539e-05 0)
(-3.96172e-05 -6.76819e-05 0)
(-3.80563e-05 -6.83986e-05 0)
(-3.64787e-05 -6.89023e-05 0)
(-3.48812e-05 -6.91943e-05 0)
(-3.32585e-05 -6.92794e-05 0)
(-3.16041e-05 -6.91643e-05 0)
(-2.99121e-05 -6.88569e-05 0)
(-2.81775e-05 -6.83647e-05 0)
(-2.63976e-05 -6.76937e-05 0)
(-2.45712e-05 -6.68479e-05 0)
(-2.26982e-05 -6.58305e-05 0)
(-2.07789e-05 -6.46455e-05 0)
(-1.88143e-05 -6.32975e-05 0)
(-1.68054e-05 -6.17919e-05 0)
(-1.47534e-05 -6.01353e-05 0)
(-1.26596e-05 -5.8335e-05 0)
(-1.05258e-05 -5.63989e-05 0)
(-8.35375e-06 -5.43354e-05 0)
(-6.14557e-06 -5.21534e-05 0)
(-3.90362e-06 -4.98622e-05 0)
(-1.6305e-06 -4.7471e-05 0)
(6.70999e-07 -4.49891e-05 0)
(2.9974e-06 -4.24258e-05 0)
(5.34505e-06 -3.97904e-05 0)
(7.71067e-06 -3.70919e-05 0)
(1.00902e-05 -3.43389e-05 0)
(1.24794e-05 -3.15399e-05 0)
(1.48743e-05 -2.8703e-05 0)
(1.72708e-05 -2.58363e-05 0)
(1.96648e-05 -2.29481e-05 0)
(2.20529e-05 -2.00473e-05 0)
(2.44316e-05 -1.71432e-05 0)
(2.67985e-05 -1.42461e-05 0)
(2.91526e-05 -1.13661e-05 0)
(3.1493e-05 -8.51294e-06 0)
(3.38183e-05 -5.69439e-06 0)
(3.61271e-05 -2.91554e-06 0)
(3.8422e-05 -1.81193e-07 0)
(4.06951e-05 2.50192e-06 0)
(4.29378e-05 5.12823e-06 0)
(4.51482e-05 7.69381e-06 0)
(4.732e-05 1.01969e-05 0)
(4.94485e-05 1.26365e-05 0)
(5.15292e-05 1.5012e-05 0)
(5.35579e-05 1.73229e-05 0)
(5.55303e-05 1.95684e-05 0)
(5.74416e-05 2.17479e-05 0)
(5.92869e-05 2.38605e-05 0)
(6.10618e-05 2.59052e-05 0)
(6.27612e-05 2.78808e-05 0)
(6.43798e-05 2.97865e-05 0)
(6.59121e-05 3.16211e-05 0)
(6.73517e-05 3.33849e-05 0)
(6.86915e-05 3.5082e-05 0)
(6.99221e-05 3.67277e-05 0)
(7.10285e-05 3.83666e-05 0)
(7.19826e-05 4.01119e-05 0)
(7.27268e-05 4.22196e-05 0)
(7.31412e-05 4.5208e-05 0)
(7.29863e-05 4.99905e-05 0)
(7.18229e-05 5.78992e-05 0)
(6.8939e-05 7.03267e-05 0)
(6.33691e-05 8.7628e-05 0)
(5.41509e-05 0.000107199 0)
(4.09543e-05 0.000121612 0)
(2.50234e-05 0.000119135 0)
(9.87724e-06 8.92524e-05 0)
(5.29503e-07 3.25137e-05 0)
(-5.49824e-07 4.33106e-05 0)
(-9.90237e-06 0.00011668 0)
(-2.49314e-05 0.000153577 0)
(-4.05391e-05 0.000154499 0)
(-5.32472e-05 0.00013393 0)
(-6.18938e-05 0.000107302 0)
(-6.68773e-05 8.41402e-05 0)
(-6.92006e-05 6.76654e-05 0)
(-6.98475e-05 5.72948e-05 0)
(-6.95362e-05 5.11431e-05 0)
(-6.87075e-05 4.74338e-05 0)
(-6.76012e-05 4.49528e-05 0)
(-6.63385e-05 4.30101e-05 0)
(-6.49786e-05 4.12617e-05 0)
(-6.35521e-05 3.95534e-05 0)
(-6.2077e-05 3.78217e-05 0)
(-6.05657e-05 3.60424e-05 0)
(-5.90283e-05 3.42066e-05 0)
(-5.74738e-05 3.23116e-05 0)
(-5.59103e-05 3.03563e-05 0)
(-5.43458e-05 2.83407e-05 0)
(-5.27873e-05 2.62649e-05 0)
(-5.1242e-05 2.41294e-05 0)
(-4.97165e-05 2.19344e-05 0)
(-4.82172e-05 1.96807e-05 0)
(-4.67498e-05 1.73693e-05 0)
(-4.532e-05 1.50017e-05 0)
(-4.3933e-05 1.25797e-05 0)
(-4.2594e-05 1.01058e-05 0)
(-4.13075e-05 7.58256e-06 0)
(-4.00774e-05 5.01304e-06 0)
(-3.89075e-05 2.40022e-06 0)
(-3.78003e-05 -2.52926e-07 0)
(-3.67611e-05 -2.94364e-06 0)
(-3.579e-05 -5.67236e-06 0)
(-3.48875e-05 -8.43867e-06 0)
(-3.40552e-05 -1.12399e-05 0)
(-3.32947e-05 -1.4072e-05 0)
(-3.26066e-05 -1.69297e-05 0)
(-3.1991e-05 -1.98075e-05 0)
(-3.14479e-05 -2.2699e-05 0)
(-3.09771e-05 -2.5597e-05 0)
(-3.05777e-05 -2.84935e-05 0)
(-3.02478e-05 -3.13797e-05 0)
(-2.99852e-05 -3.42458e-05 0)
(-2.97874e-05 -3.70812e-05 0)
(-2.96518e-05 -3.98749e-05 0)
(-2.95751e-05 -4.2615e-05 0)
(-2.95542e-05 -4.52892e-05 0)
(-2.95856e-05 -4.78847e-05 0)
(-2.96657e-05 -5.03885e-05 0)
(-2.97909e-05 -5.27873e-05 0)
(-2.9958e-05 -5.50676e-05 0)
(-3.01636e-05 -5.72161e-05 0)
(-3.04044e-05 -5.92198e-05 0)
(-3.06774e-05 -6.10659e-05 0)
(-3.09797e-05 -6.27427e-05 0)
(-3.13084e-05 -6.42392e-05 0)
(-3.1661e-05 -6.55466e-05 0)
(-3.2034e-05 -6.66583e-05 0)
(-3.24231e-05 -6.75708e-05 0)
(-3.28221e-05 -6.8284e-05 0)
(-3.32227e-05 -6.88013e-05 0)
(-3.36139e-05 -6.91287e-05 0)
(-3.39827e-05 -6.92738e-05 0)
(-3.4315e-05 -6.9244e-05 0)
(-3.45972e-05 -6.90455e-05 0)
(-3.4817e-05 -6.86821e-05 0)
(-3.49639e-05 -6.81558e-05 0)
(-3.50289e-05 -6.74675e-05 0)
(-3.50048e-05 -6.66184e-05 0)
(-3.48852e-05 -6.56106e-05 0)
(-3.4665e-05 -6.44474e-05 0)
(-3.43395e-05 -6.31332e-05 0)
(-3.39048e-05 -6.16735e-05 0)
(-3.33576e-05 -6.00744e-05 0)
(-3.26952e-05 -5.83429e-05 0)
(-3.19157e-05 -5.64861e-05 0)
(-3.10176e-05 -5.45117e-05 0)
(-3.00005e-05 -5.24276e-05 0)
(-2.88642e-05 -5.0242e-05 0)
(-2.76096e-05 -4.7963e-05 0)
(-2.62382e-05 -4.55987e-05 0)
(-2.4752e-05 -4.3157e-05 0)
(-2.31536e-05 -4.06458e-05 0)
(-2.14466e-05 -3.80728e-05 0)
(-1.96346e-05 -3.54454e-05 0)
(-1.77222e-05 -3.27711e-05 0)
(-1.5714e-05 -3.00575e-05 0)
(-1.36152e-05 -2.73127e-05 0)
(-1.14308e-05 -2.45456e-05 0)
(-9.16605e-06 -2.17662e-05 0)
(-6.82582e-06 -1.89852e-05 0)
(-4.41464e-06 -1.62136e-05 0)
(-1.9367e-06 -1.34621e-05 0)
(6.03987e-07 -1.07396e-05 0)
(3.20263e-06 -8.05255e-06 0)
(5.856e-06 -5.40455e-06 0)
(8.56265e-06 -2.79784e-06 0)
(1.13186e-05 -2.33894e-07 0)
(1.41144e-05 2.28323e-06 0)
(1.69449e-05 4.75084e-06 0)
(1.98038e-05 7.16785e-06 0)
(2.26841e-05 9.53403e-06 0)
(2.55788e-05 1.1849e-05 0)
(2.84806e-05 1.41123e-05 0)
(3.13817e-05 1.63238e-05 0)
(3.42742e-05 1.84829e-05 0)
(3.71502e-05 2.05891e-05 0)
(4.00015e-05 2.26418e-05 0)
(4.28197e-05 2.46405e-05 0)
(4.55957e-05 2.65851e-05 0)
(4.83201e-05 2.84775e-05 0)
(5.09827e-05 3.03249e-05 0)
(5.35711e-05 3.21505e-05 0)
(5.60675e-05 3.40168e-05 0)
(5.84417e-05 3.60787e-05 0)
(6.06343e-05 3.86833e-05 0)
(6.2524e-05 4.25302e-05 0)
(6.38691e-05 4.88536e-05 0)
(6.42246e-05 5.9465e-05 0)
(6.28631e-05 7.62982e-05 0)
(5.87861e-05 9.99803e-05 0)
(5.09728e-05 0.000127298 0)
(3.90097e-05 0.000148682 0)
(2.40505e-05 0.000148724 0)
(9.54812e-06 0.000113201 0)
(5.15351e-07 4.19123e-05 0)
(-5.77619e-07 5.32001e-05 0)
(-1.0203e-05 0.000141664 0)
(-2.55654e-05 0.000184296 0)
(-4.13969e-05 0.000182553 0)
(-5.41371e-05 0.000154843 0)
(-6.263e-05 0.000120367 0)
(-6.73237e-05 9.08014e-05 0)
(-6.92766e-05 6.99502e-05 0)
(-6.95153e-05 5.69359e-05 0)
(-6.87845e-05 4.93159e-05 0)
(-6.7539e-05 4.48262e-05 0)
(-6.60252e-05 4.19284e-05 0)
(-6.43666e-05 3.97501e-05 0)
(-6.26237e-05 3.78566e-05 0)
(-6.08272e-05 3.60521e-05 0)
(-5.89954e-05 3.42555e-05 0)
(-5.71414e-05 3.2435e-05 0)
(-5.52758e-05 3.05786e-05 0)
(-5.34084e-05 2.86814e-05 0)
(-5.15485e-05 2.67415e-05 0)
(-4.97043e-05 2.47576e-05 0)
(-4.78837e-05 2.27292e-05 0)
(-4.60942e-05 2.06555e-05 0)
(-4.43433e-05 1.85363e-05 0)
(-4.26379e-05 1.63713e-05 0)
(-4.09839e-05 1.41609e-05 0)
(-3.93869e-05 1.19056e-05 0)
(-3.78524e-05 9.60618e-06 0)
(-3.63849e-05 7.26394e-06 0)
(-3.49886e-05 4.88062e-06 0)
(-3.3667e-05 2.45825e-06 0)
(-3.24228e-05 -1.44561e-09 0)
(-3.12577e-05 -2.4966e-06 0)
(-3.01735e-05 -5.0267e-06 0)
(-2.9172e-05 -7.59144e-06 0)
(-2.82546e-05 -1.01894e-05 0)
(-2.74234e-05 -1.28181e-05 0)
(-2.66801e-05 -1.54741e-05 0)
(-2.60256e-05 -1.81531e-05 0)
(-2.54607e-05 -2.08504e-05 0)
(-2.49858e-05 -2.35611e-05 0)
(-2.46003e-05 -2.62794e-05 0)
(-2.43029e-05 -2.89986e-05 0)
(-2.40919e-05 -3.1711e-05 0)
(-2.39647e-05 -3.44081e-05 0)
(-2.39189e-05 -3.70803e-05 0)
(-2.3951e-05 -3.97173e-05 0)
(-2.40574e-05 -4.23078e-05 0)
(-2.42339e-05 -4.484e-05 0)
(-2.44765e-05 -4.73014e-05 0)
(-2.47812e-05 -4.9679e-05 0)
(-2.51436e-05 -5.19601e-05 0)
(-2.55597e-05 -5.41311e-05 0)
(-2.60252e-05 -5.61784e-05 0)
(-2.65364e-05 -5.8089e-05 0)
(-2.70892e-05 -5.98499e-05 0)
(-2.76797e-05 -6.14493e-05 0)
(-2.83042e-05 -6.28767e-05 0)
(-2.89589e-05 -6.41236e-05 0)
(-2.96396e-05 -6.51853e-05 0)
(-3.03407e-05 -6.6061e-05 0)
(-3.10553e-05 -6.67546e-05 0)
(-3.17743e-05 -6.72739e-05 0)
(-3.24861e-05 -6.76296e-05 0)
(-3.31774e-05 -6.78321e-05 0)
(-3.38334e-05 -6.78898e-05 0)
(-3.44397e-05 -6.78077e-05 0)
(-3.49824e-05 -6.75869e-05 0)
(-3.54495e-05 -6.72259e-05 0)
(-3.58304e-05 -6.67224e-05 0)
(-3.61164e-05 -6.60748e-05 0)
(-3.63e-05 -6.52828e-05 0)
(-3.63747e-05 -6.43477e-05 0)
(-3.63348e-05 -6.32724e-05 0)
(-3.61756e-05 -6.20608e-05 0)
(-3.58931e-05 -6.07174e-05 0)
(-3.54839e-05 -5.92477e-05 0)
(-3.49456e-05 -5.76573e-05 0)
(-3.42761e-05 -5.59525e-05 0)
(-3.34744e-05 -5.41395e-05 0)
(-3.25399e-05 -5.2225e-05 0)
(-3.14729e-05 -5.02156e-05 0)
(-3.02744e-05 -4.8118e-05 0)
(-2.89458e-05 -4.59388e-05 0)
(-2.74896e-05 -4.36843e-05 0)
(-2.59085e-05 -4.13611e-05 0)
(-2.42062e-05 -3.89753e-05 0)
(-2.23867e-05 -3.65333e-05 0)
(-2.04545e-05 -3.40418e-05 0)
(-1.84146e-05 -3.15085e-05 0)
(-1.62719e-05 -2.89419e-05 0)
(-1.40314e-05 -2.63522e-05 0)
(-1.1698e-05 -2.37504e-05 0)
(-9.27645e-06 -2.11479e-05 0)
(-6.7712e-06 -1.85557e-05 0)
(-4.1865e-06 -1.59829e-05 0)
(-1.52638e-06 -1.34363e-05 0)
(1.20432e-06 -1.09207e-05 0)
(4.0005e-06 -8.43931e-06 0)
(6.8587e-06 -5.99393e-06 0)
(9.77374e-06 -3.58408e-06 0)
(1.27397e-05 -1.20938e-06 0)
(1.57499e-05 1.12982e-06 0)
(1.87967e-05 3.43312e-06 0)
(2.18727e-05 5.70044e-06 0)
(2.49703e-05 7.93228e-06 0)
(2.8081e-05 1.01289e-05 0)
(3.11961e-05 1.22903e-05 0)
(3.43072e-05 1.44164e-05 0)
(3.74051e-05 1.65072e-05 0)
(4.04804e-05 1.85627e-05 0)
(4.35234e-05 2.05837e-05 0)
(4.65241e-05 2.25733e-05 0)
(4.94714e-05 2.45419e-05 0)
(5.23525e-05 2.65197e-05 0)
(5.51496e-05 2.85867e-05 0)
(5.78319e-05 3.09391e-05 0)
(6.03396e-05 3.40155e-05 0)
(6.25491e-05 3.86994e-05 0)
(6.4213e-05 4.65528e-05 0)
(6.48729e-05 5.98818e-05 0)
(6.37764e-05 8.11872e-05 0)
(5.98847e-05 0.0001114 0)
(5.21245e-05 0.000146721 0)
(4.00371e-05 0.000175422 0)
(2.47758e-05 0.000178327 0)
(9.88199e-06 0.000137361 0)
(5.45116e-07 5.14485e-05 0)
(-6.15333e-07 6.35727e-05 0)
(-1.07446e-05 0.000167744 0)
(-2.68591e-05 0.00021624 0)
(-4.34275e-05 0.000211605 0)
(-5.67257e-05 0.000176378 0)
(-6.55577e-05 0.000133694 0)
(-7.04064e-05 9.74553e-05 0)
(-7.23888e-05 7.20634e-05 0)
(-7.25846e-05 5.63211e-05 0)
(-7.17755e-05 4.71995e-05 0)
(-7.04385e-05 4.19235e-05 0)
(-6.88312e-05 3.8616e-05 0)
(-6.70826e-05 3.62145e-05 0)
(-6.52547e-05 3.41901e-05 0)
(-6.33791e-05 3.23042e-05 0)
(-6.14738e-05 3.04575e-05 0)
(-5.95521e-05 2.86107e-05 0)
(-5.76245e-05 2.67483e-05 0)
(-5.57009e-05 2.48639e-05 0)
(-5.37902e-05 2.29542e-05 0)
(-5.1901e-05 2.10173e-05 0)
(-5.00412e-05 1.90514e-05 0)
(-4.82185e-05 1.7055e-05 0)
(-4.644e-05 1.50267e-05 0)
(-4.47121e-05 1.29656e-05 0)
(-4.30407e-05 1.08709e-05 0)
(-4.14314e-05 8.74177e-06 0)
(-3.98891e-05 6.57799e-06 0)
(-3.84178e-05 4.37952e-06 0)
(-3.70207e-05 2.14673e-06 0)
(-3.57006e-05 -1.19679e-07 0)
(-3.44597e-05 -2.41885e-06 0)
(-3.32997e-05 -4.75062e-06 0)
(-3.22216e-05 -7.11493e-06 0)
(-3.12262e-05 -9.51099e-06 0)
(-3.0314e-05 -1.19374e-05 0)
(-2.94859e-05 -1.4392e-05 0)
(-2.87424e-05 -1.68718e-05 0)
(-2.80837e-05 -1.93732e-05 0)
(-2.75093e-05 -2.18929e-05 0)
(-2.70188e-05 -2.44266e-05 0)
(-2.66109e-05 -2.69699e-05 0)
(-2.62836e-05 -2.95176e-05 0)
(-2.60344e-05 -3.20632e-05 0)
(-2.586e-05 -3.45996e-05 0)
(-2.57566e-05 -3.7118e-05 0)
(-2.57207e-05 -3.96085e-05 0)
(-2.57478e-05 -4.20605e-05 0)
(-2.5833e-05 -4.44626e-05 0)
(-2.5972e-05 -4.68024e-05 0)
(-2.61612e-05 -4.90672e-05 0)
(-2.6396e-05 -5.12438e-05 0)
(-2.66716e-05 -5.33185e-05 0)
(-2.69845e-05 -5.52775e-05 0)
(-2.73315e-05 -5.71075e-05 0)
(-2.77092e-05 -5.8795e-05 0)
(-2.81147e-05 -6.0328e-05 0)
(-2.85453e-05 -6.16961e-05 0)
(-2.89982e-05 -6.28913e-05 0)
(-2.94704e-05 -6.39103e-05 0)
(-2.99577e-05 -6.47548e-05 0)
(-3.04545e-05 -6.54323e-05 0)
(-3.09532e-05 -6.5955e-05 0)
(-3.1444e-05 -6.63377e-05 0)
(-3.1915e-05 -6.65941e-05 0)
(-3.2353e-05 -6.67342e-05 0)
(-3.27445e-05 -6.67622e-05 0)
(-3.30768e-05 -6.66769e-05 0)
(-3.33385e-05 -6.64738e-05 0)
(-3.35196e-05 -6.61475e-05 0)
(-3.36122e-05 -6.56933e-05 0)
(-3.36095e-05 -6.51083e-05 0)
(-3.35059e-05 -6.43919e-05 0)
(-3.32968e-05 -6.35451e-05 0)
(-3.29781e-05 -6.25704e-05 0)
(-3.25466e-05 -6.1471e-05 0)
(-3.19996e-05 -6.02508e-05 0)
(-3.1335e-05 -5.89143e-05 0)
(-3.0551e-05 -5.74663e-05 0)
(-2.96468e-05 -5.59118e-05 0)
(-2.86218e-05 -5.42561e-05 0)
(-2.74763e-05 -5.25045e-05 0)
(-2.62108e-05 -5.06625e-05 0)
(-2.48266e-05 -4.87353e-05 0)
(-2.33255e-05 -4.67283e-05 0)
(-2.17096e-05 -4.46466e-05 0)
(-1.99819e-05 -4.24953e-05 0)
(-1.81456e-05 -4.02798e-05 0)
(-1.62044e-05 -3.80062e-05 0)
(-1.41621e-05 -3.56817e-05 0)
(-1.20227e-05 -3.33148e-05 0)
(-9.78985e-06 -3.09159e-05 0)
(-7.46712e-06 -2.84962e-05 0)
(-5.05822e-06 -2.60672e-05 0)
(-2.56633e-06 -2.36404e-05 0)
(6.0251e-09 -2.12245e-05 0)
(2.65271e-06 -1.88267e-05 0)
(5.36945e-06 -1.64516e-05 0)
(8.15373e-06 -1.41009e-05 0)
(1.10001e-05 -1.17753e-05 0)
(1.39029e-05 -9.47442e-06 0)
(1.68561e-05 -7.19722e-06 0)
(1.9853e-05 -4.94252e-06 0)
(2.28874e-05 -2.70906e-06 0)
(2.59513e-05 -4.95086e-07 0)
(2.90365e-05 1.69999e-06 0)
(3.21344e-05 3.87666e-06 0)
(3.5237e-05 6.03556e-06 0)
(3.83353e-05 8.17747e-06 0)
(4.14202e-05 1.03027e-05 0)
(4.44823e-05 1.24116e-05 0)
(4.7512e-05 1.45059e-05 0)
(5.04993e-05 1.65897e-05 0)
(5.34334e-05 1.86763e-05 0)
(5.63015e-05 2.0803e-05 0)
(5.90855e-05 2.30675e-05 0)
(6.17545e-05 2.57086e-05 0)
(6.42469e-05 2.92594e-05 0)
(6.64344e-05 3.47948e-05 0)
(6.80588e-05 4.42189e-05 0)
(6.8641e-05 6.03547e-05 0)
(6.73933e-05 8.62973e-05 0)
(6.32262e-05 0.000123304 0)
(5.50113e-05 0.000166976 0)
(4.22601e-05 0.000203347 0)
(2.61721e-05 0.000209307 0)
(1.04602e-05 0.000162714 0)
(5.84741e-07 6.15031e-05 0)
(-6.55188e-07 7.45548e-05 0)
(-1.13917e-05 0.000195295 0)
(-2.84509e-05 0.000249945 0)
(-4.59806e-05 0.000242233 0)
(-6.00477e-05 0.000199071 0)
(-6.93938e-05 0.00014774 0)
(-7.45321e-05 0.000104481 0)
(-7.66445e-05 7.43179e-05 0)
(-7.68726e-05 5.57168e-05 0)
(-7.60441e-05 4.50299e-05 0)
(-7.46641e-05 3.8943e-05 0)
(-7.30056e-05 3.52211e-05 0)
(-7.12047e-05 3.26008e-05 0)
(-6.93272e-05 3.04532e-05 0)
(-6.7406e-05 2.84945e-05 0)
(-6.546e-05 2.66062e-05 0)
(-6.35023e-05 2.47413e-05 0)
(-6.15437e-05 2.2881e-05 0)
(-5.95935e-05 2.10172e-05 0)
(-5.76607e-05 1.91456e-05 0)
(-5.57538e-05 1.72632e-05 0)
(-5.38808e-05 1.53673e-05 0)
(-5.20491e-05 1.34556e-05 0)
(-5.02652e-05 1.15254e-05 0)
(-4.85356e-05 9.57464e-06 0)
(-4.68663e-05 7.60119e-06 0)
(-4.52623e-05 5.60319e-06 0)
(-4.37282e-05 3.57899e-06 0)
(-4.22675e-05 1.52742e-06 0)
(-4.08829e-05 -5.52607e-07 0)
(-3.95766e-05 -2.66189e-06 0)
(-3.83509e-05 -4.80142e-06 0)
(-3.72066e-05 -6.9718e-06 0)
(-3.61437e-05 -9.17336e-06 0)
(-3.5162e-05 -1.14059e-05 0)
(-3.4261e-05 -1.36688e-05 0)
(-3.34397e-05 -1.59604e-05 0)
(-3.26966e-05 -1.82781e-05 0)
(-3.20309e-05 -2.0619e-05 0)
(-3.14409e-05 -2.29802e-05 0)
(-3.0924e-05 -2.53587e-05 0)
(-3.04779e-05 -2.7751e-05 0)
(-3.00995e-05 -3.01532e-05 0)
(-2.97852e-05 -3.25602e-05 0)
(-2.95308e-05 -3.49656e-05 0)
(-2.93311e-05 -3.73614e-05 0)
(-2.91815e-05 -3.97383e-05 0)
(-2.90773e-05 -4.2086e-05 0)
(-2.90129e-05 -4.43931e-05 0)
(-2.89835e-05 -4.66471e-05 0)
(-2.89847e-05 -4.8835e-05 0)
(-2.90118e-05 -5.09427e-05 0)
(-2.90608e-05 -5.29562e-05 0)
(-2.91287e-05 -5.4861e-05 0)
(-2.92129e-05 -5.66425e-05 0)
(-2.93111e-05 -5.82867e-05 0)
(-2.94215e-05 -5.97808e-05 0)
(-2.95428e-05 -6.11138e-05 0)
(-2.96742e-05 -6.22781e-05 0)
(-2.98149e-05 -6.32714e-05 0)
(-2.99626e-05 -6.40979e-05 0)
(-3.01139e-05 -6.47684e-05 0)
(-3.02635e-05 -6.52995e-05 0)
(-3.04034e-05 -6.57105e-05 0)
(-3.05235e-05 -6.60186e-05 0)
(-3.06121e-05 -6.62355e-05 0)
(-3.06571e-05 -6.63651e-05 0)
(-3.06471e-05 -6.64044e-05 0)
(-3.05723e-05 -6.63457e-05 0)
(-3.04242e-05 -6.61801e-05 0)
(-3.01964e-05 -6.58999e-05 0)
(-2.98838e-05 -6.54998e-05 0)
(-2.94825e-05 -6.49773e-05 0)
(-2.89893e-05 -6.43318e-05 0)
(-2.84017e-05 -6.35645e-05 0)
(-2.77173e-05 -6.26776e-05 0)
(-2.69346e-05 -6.1674e-05 0)
(-2.60521e-05 -6.05572e-05 0)
(-2.50687e-05 -5.9331e-05 0)
(-2.39839e-05 -5.79997e-05 0)
(-2.27973e-05 -5.65676e-05 0)
(-2.15089e-05 -5.50391e-05 0)
(-2.01191e-05 -5.34187e-05 0)
(-1.86286e-05 -5.17107e-05 0)
(-1.70386e-05 -4.99194e-05 0)
(-1.53506e-05 -4.8049e-05 0)
(-1.35666e-05 -4.61037e-05 0)
(-1.16888e-05 -4.40883e-05 0)
(-9.71956e-06 -4.20086e-05 0)
(-7.66132e-06 -3.98715e-05 0)
(-5.51669e-06 -3.76854e-05 0)
(-3.28762e-06 -3.5462e-05 0)
(-9.74903e-07 -3.32122e-05 0)
(1.41806e-06 -3.09474e-05 0)
(3.88839e-06 -2.86786e-05 0)
(6.43559e-06 -2.64147e-05 0)
(9.05584e-06 -2.41617e-05 0)
(1.17451e-05 -2.19224e-05 0)
(1.4499e-05 -1.96981e-05 0)
(1.73125e-05 -1.74885e-05 0)
(2.01808e-05 -1.52919e-05 0)
(2.30975e-05 -1.31061e-05 0)
(2.60558e-05 -1.0929e-05 0)
(2.90484e-05 -8.75864e-06 0)
(3.2068e-05 -6.59321e-06 0)
(3.5107e-05 -4.43111e-06 0)
(3.81575e-05 -2.27064e-06 0)
(4.12108e-05 -1.10101e-07 0)