/*--------------------------------*- C++ -*----------------------------------*\
| =========                 |                                                 |
| \\      /  F ield         | OpenFOAM: The Open Source CFD Toolbox           |
|  \\    /   O peration     | Version:  2212                                  |
|   \\  /    A nd           | Website:  www.openfoam.com                      |
|    \\/     M anipulation  |                                                 |
\*---------------------------------------------------------------------------*/
FoamFile
{
    version     2.0;
    format      ascii;
    arch        "LSB;label=64;scalar=64";
    class       volScalarField::Internal;
    location    "1460";
    object      dGco2;
}
// * * * * * * * * * * * * * * * * * * * * * * * * * * * * * * * * * * * * * //

dimensions      [1 -3 -1 0 0 0 0];

value           nonuniform List<scalar> 
1024
(
0.000146675
0.000146713
0.000146813
0.000146997
0.00014729
0.000147717
0.000148291
0.000149009
0.000149842
0.000150738
0.000151624
0.000152423
0.000153066
0.000153503
0.000153693
0.000153593
0.000153151
0.000152395
0.000151411
0.000150241
0.00014894
0.000147581
0.000146254
0.000145044
0.000144008
0.000143176
0.000142545
0.000142094
0.000141792
0.000141604
0.000141501
0.000141459
0.000146683
0.000146724
0.000146827
0.000147014
0.000147312
0.000147745
0.000148327
0.000149053
0.000149894
0.000150796
0.000151687
0.000152488
0.000153129
0.000153564
0.00015375
0.000153646
0.000153203
0.000152447
0.000151464
0.000150295
0.000148993
0.000147633
0.000146301
0.000145084
0.000144041
0.000143202
0.000142565
0.000142109
0.000141802
0.000141613
0.000141509
0.000141467
0.000146712
0.000146754
0.00014686
0.000147052
0.000147359
0.000147804
0.000148402
0.000149146
0.000150007
0.00015093
0.00015184
0.000152649
0.000153289
0.000153715
0.000153889
0.000153776
0.000153325
0.000152565
0.00015158
0.00015041
0.000149108
0.000147743
0.000146403
0.000145172
0.000144113
0.000143258
0.000142607
0.000142141
0.000141828
0.000141634
0.000141528
0.000141485
0.000146765
0.000146809
0.000146917
0.000147116
0.000147435
0.000147898
0.00014852
0.000149295
0.000150194
0.000151161
0.000152114
0.000152949
0.000153591
0.000153999
0.000154148
0.000154009
0.000153539
0.000152765
0.000151769
0.000150594
0.000149287
0.000147914
0.00014656
0.00014531
0.000144227
0.000143348
0.000142677
0.000142195
0.000141871
0.00014167
0.000141561
0.000141517
0.00014685
0.000146895
0.000147006
0.000147213
0.000147545
0.00014803
0.000148686
0.000149509
0.000150472
0.000151517
0.000152548
0.000153435
0.000154085
0.000154465
0.000154569
0.000154383
0.000153871
0.000153062
0.00015204
0.000150847
0.000149528
0.000148142
0.000146769
0.000145492
0.000144379
0.00014347
0.000142772
0.00014227
0.000141933
0.000141724
0.000141611
0.000141565
0.000146978
0.000147023
0.000147137
0.00014735
0.000147696
0.000148208
0.000148908
0.0001498
0.00015086
0.000152027
0.000153183
0.000154157
0.000154828
0.00015517
0.000155204
0.000154939
0.000154354
0.000153478
0.0001524
0.000151167
0.000149819
0.00014841
0.000147012
0.000145705
0.000144558
0.000143616
0.00014289
0.000142366
0.000142014
0.000141797
0.000141679
0.000141631
0.000147169
0.000147213
0.000147327
0.000147545
0.000147905
0.000148447
0.000149204
0.000150189
0.000151385
0.000152724
0.000154056
0.000155155
0.000155866
0.000156165
0.000156103
0.000155725
0.000155025
0.000154036
0.000152858
0.000151547
0.000150144
0.000148695
0.000147262
0.000145922
0.000144743
0.00014377
0.000143018
0.000142476
0.000142111
0.000141886
0.000141765
0.000141717
0.000147455
0.000147497
0.00014761
0.00014783
0.000148204
0.000148781
0.000149607
0.00015071
0.000152082
0.000153644
0.000155199
0.000156462
0.000157232
0.000157486
0.000157312
0.00015679
0.000155929
0.000154769
0.000153429
0.000151984
0.000150483
0.000148965
0.000147485
0.00014611
0.000144903
0.000143909
0.000143142
0.00014259
0.00014222
0.000141994
0.000141873
0.000141824
0.000147893
0.000147933
0.000148043
0.000148266
0.000148655
0.000149272
0.00015018
0.000151426
0.000153011
0.000154834
0.000156645
0.000158096
0.000158941
0.000159155
0.000158865
0.000158185
0.000157128
0.000155733
0.000154153
0.000152498
0.000150835
0.000149206
0.000147656
0.00014624
0.000145015
0.000144015
0.000143252
0.000142707
0.000142346
0.000142128
0.000142013
0.000141968
0.000148575
0.000148613
0.000148723
0.000148951
0.00014936
0.000150026
0.000151032
0.000152444
0.000154266
0.00015637
0.000158445
0.000160083
0.000161005
0.000161194
0.000160812
0.000159994
0.000158734
0.000157053
0.000155146
0.000153182
0.000151272
0.000149465
0.000147804
0.000146335
0.000145096
0.00014411
0.000143374
0.000142861
0.000142531
0.000142338
0.000142241
0.000142205
0.000149636
0.000149675
0.000149789
0.00015003
0.000150472
0.000151206
0.00015233
0.000153926
0.000155992
0.000158364
0.000160674
0.000162471
0.000163465
0.000163664
0.000163266
0.000162402
0.000161001
0.000159037
0.000156741
0.000154361
0.000152083
0.000149992
0.000148141
0.000146571
0.000145304
0.000144339
0.000143654
0.000143203
0.000142934
0.000142792
0.000142731
0.000142714
0.000151235
0.000151278
0.000151405
0.000151676
0.000152173
0.000153
0.000154268
0.00015606
0.000158359
0.000160957
0.000163442
0.000165354
0.000166435
0.000166744
0.000166505
0.000165814
0.000164495
0.000162414
0.000159793
0.000156943
0.000154159
0.000151607
0.0001494
0.000147593
0.000146208
0.000145225
0.000144588
0.000144222
0.00014405
0.000143997
0.000144001
0.000144018
0.00015349
0.000153543
0.000153696
0.000154017
0.000154597
0.00015555
0.000156992
0.000158994
0.000161508
0.000164279
0.000166882
0.000168899
0.000170159
0.000170802
0.00017106
0.000170975
0.000170244
0.000168559
0.000166033
0.000162971
0.000159713
0.000156542
0.000153707
0.000151349
0.00014957
0.00014837
0.000147664
0.000147334
0.000147253
0.000147302
0.000147388
0.000147449
0.00015637
0.000156438
0.000156629
0.000157022
0.000157721
0.000158849
0.000160514
0.000162761
0.000165491
0.000168413
0.000171129
0.000173339
0.000175017
0.000176374
0.000177626
0.000178779
0.000179453
0.000179128
0.000177698
0.000175341
0.000172317
0.000168938
0.000165532
0.000162376
0.000159742
0.000157785
0.000156509
0.000155829
0.000155579
0.000155575
0.000155663
0.000155737
0.000159578
0.000159661
0.000159891
0.000160364
0.000161194
0.000162508
0.000164399
0.000166877
0.000169804
0.000172904
0.000175871
0.000178541
0.00018099
0.000183441
0.000186076
0.000188921
0.000191617
0.00019352
0.000194342
0.000194086
0.000192814
0.000190661
0.000187842
0.000184658
0.000181441
0.000178507
0.000176104
0.000174373
0.000173302
0.000172753
0.000172544
0.000172505
0.000162573
0.00016266
0.000162905
0.000163407
0.000164288
0.000165673
0.000167656
0.000170248
0.000173337
0.000176703
0.000180101
0.000183402
0.000186663
0.000190044
0.000193676
0.000197609
0.000201584
0.000205128
0.000208056
0.000210305
0.00021175
0.000212287
0.000211877
0.00021058
0.000208567
0.000206117
0.00020358
0.000201291
0.000199493
0.000198287
0.000197626
0.000197375
0.000164788
0.000164871
0.000165104
0.000165579
0.00016641
0.000167723
0.00016962
0.000172137
0.000175206
0.000178649
0.000182238
0.000185794
0.000189258
0.000192655
0.000196005
0.00019931
0.000202486
0.00020561
0.000208888
0.0002123
0.000215616
0.000218549
0.000220854
0.000222363
0.000223015
0.000222867
0.000222093
0.000220958
0.000219768
0.000218781
0.000218136
0.000217847
0.000166093
0.000166171
0.000166383
0.000166808
0.000167545
0.000168709
0.000170405
0.000172689
0.000175529
0.000178786
0.000182237
0.000185649
0.000188846
0.000191717
0.000194172
0.000196157
0.000197746
0.000199546
0.000202174
0.000205705
0.000209847
0.000214151
0.00021818
0.000221597
0.000224202
0.000225941
0.000226877
0.000227171
0.000227046
0.00022674
0.000226451
0.000226291
0.000166742
0.000166816
0.000167008
0.000167382
0.000168022
0.000169026
0.000170492
0.000172486
0.000175002
0.000177935
0.000181086
0.000184202
0.000187044
0.000189419
0.000191179
0.000192258
0.000192843
0.000193776
0.000195835
0.000199239
0.000203799
0.000209038
0.000214361
0.000219221
0.000223226
0.000226202
0.000228163
0.000229263
0.000229731
0.000229818
0.000229745
0.00022967
0.000166998
0.000167066
0.000167239
0.000167567
0.000168118
0.000168975
0.000170224
0.000171928
0.000174097
0.000176659
0.000179444
0.000182217
0.000184727
0.000186758
0.000188152
0.000188863
0.000189148
0.000189847
0.000191648
0.000194832
0.000199362
0.000204916
0.000210951
0.000216838
0.000222004
0.000226087
0.000228972
0.000230756
0.000231672
0.000232011
0.000232052
0.00023201
0.000167088
0.000167145
0.000167289
0.000167565
0.000168029
0.000168751
0.000169802
0.000171239
0.000173079
0.000175268
0.000177677
0.000180107
0.00018234
0.000184178
0.000185492
0.000186277
0.00018681
0.000187773
0.000189666
0.000192754
0.000197095
0.000202536
0.000208702
0.000215039
0.000220919
0.000225838
0.000229522
0.000231954
0.000233318
0.00023391
0.000234058
0.000234041
0.000167284
0.000167317
0.000167411
0.000167607
0.00016796
0.000168535
0.000169394
0.000170587
0.000172129
0.000173985
0.000176059
0.000178207
0.00018026
0.000182073
0.000183558
0.000184756
0.0001859
0.000187414
0.000189606
0.000192712
0.000196848
0.000201982
0.000207898
0.000214187
0.000220307
0.000225707
0.000229982
0.00023297
0.000234759
0.000235612
0.000235876
0.000235886
0.000167928
0.000167917
0.000167922
0.000167989
0.000168182
0.000168573
0.000169229
0.000170196
0.000171494
0.0001731
0.000174953
0.000176956
0.000178998
0.000180979
0.000182853
0.000184683
0.000186599
0.000188739
0.000191261
0.000194384
0.000198273
0.000202993
0.000208451
0.000214364
0.000220319
0.000225833
0.000230444
0.000233857
0.000236026
0.000237138
0.000237528
0.000237569
0.000169395
0.000169316
0.000169188
0.000169071
0.000169052
0.000169225
0.000169675
0.000170462
0.000171611
0.000173114
0.000174928
0.000176989
0.000179215
0.000181537
0.000183925
0.00018644
0.000189079
0.000191738
0.000194482
0.000197536
0.000201097
0.000205299
0.00021015
0.000215487
0.000221008
0.000226322
0.000231
0.000234669
0.000237145
0.000238503
0.000239026
0.000239104
0.000172024
0.000171853
0.000171559
0.000171234
0.000170998
0.000170978
0.000171287
0.000172005
0.000173163
0.00017475
0.000176723
0.000179017
0.000181557
0.000184279
0.000187148
0.00019021
0.000193346
0.000196295
0.000199082
0.000201944
0.000205095
0.000208703
0.000212845
0.00021746
0.000222358
0.000227241
0.000231741
0.000235472
0.000238151
0.00023972
0.000240379
0.0002405
0.000176057
0.000175779
0.000175325
0.000174842
0.000174492
0.000174421
0.000174754
0.00017558
0.00017692
0.000178741
0.000180978
0.000183552
0.000186381
0.000189393
0.000192549
0.000195876
0.000199189
0.000202157
0.000204797
0.000207351
0.000210032
0.000213013
0.000216404
0.000220219
0.000224361
0.000228635
0.000232748
0.000236343
0.000239087
0.000240808
0.000241593
0.000241763
0.000181631
0.000181249
0.00018071
0.000180236
0.000180001
0.000180124
0.000180701
0.0001818
0.000183412
0.000185479
0.000187922
0.00019065
0.000193579
0.00019664
0.000199791
0.000203051
0.000206216
0.000208957
0.000211296
0.000213461
0.000215647
0.00021801
0.000220668
0.00022367
0.000226993
0.000230531
0.000234085
0.000237358
0.00024001
0.000241793
0.000242676
0.000242898
0.000188829
0.000188382
0.000187929
0.000187735
0.000187904
0.000188457
0.000189423
0.000190828
0.000192638
0.000194797
0.000197233
0.000199866
0.000202622
0.000205445
0.000208299
0.000211197
0.000213955
0.000216289
0.000218226
0.00021996
0.000221657
0.000223445
0.000225428
0.000227669
0.000230181
0.000232927
0.000235798
0.000238583
0.000240981
0.000242708
0.00024364
0.000243909
0.00019776
0.000197354
0.000197252
0.000197612
0.000198354
0.000199385
0.000200675
0.000202225
0.00020401
0.000206005
0.000208162
0.000210429
0.000212753
0.000215092
0.000217422
0.000219754
0.00022194
0.000223763
0.000225247
0.000226545
0.000227783
0.000229059
0.000230453
0.00023202
0.00023379
0.000235763
0.000237895
0.000240066
0.000242056
0.000243595
0.000244501
0.000244799
0.000208662
0.000208504
0.000208999
0.000209945
0.000211104
0.00021236
0.000213685
0.000215086
0.000216571
0.000218145
0.000219792
0.000221487
0.000223197
0.000224899
0.000226575
0.000228235
0.000229774
0.000231047
0.000232071
0.000232952
0.000233776
0.000234609
0.000235507
0.000236509
0.000237642
0.000238918
0.00024033
0.000241829
0.000243286
0.0002445
0.000245281
0.000245574
0.00022199
0.000222308
0.000223247
0.000224311
0.000225375
0.000226398
0.000227378
0.000228337
0.000229297
0.000230278
0.000231281
0.000232299
0.000233316
0.000234321
0.000235304
0.000236271
0.000237162
0.000237895
0.000238481
0.00023898
0.00023944
0.000239899
0.000240387
0.000240928
0.000241539
0.000242228
0.000243
0.000243842
0.000244701
0.000245468
0.000246011
0.000246243
0.000238296
0.000238547
0.000239031
0.000239496
0.000239924
0.000240317
0.000240677
0.000241015
0.000241343
0.000241671
0.000242003
0.000242336
0.000242668
0.000242995
0.000243314
0.000243626
0.000243913
0.000244148
0.000244336
0.000244495
0.00024464
0.000244784
0.000244936
0.000245104
0.000245292
0.000245505
0.000245743
0.000246005
0.000246279
0.000246536
0.000246732
0.000246827
)
;


// ************************************************************************* //
