/*--------------------------------*- C++ -*----------------------------------*\
| =========                 |                                                 |
| \\      /  F ield         | OpenFOAM: The Open Source CFD Toolbox           |
|  \\    /   O peration     | Version:  2212                                  |
|   \\  /    A nd           | Website:  www.openfoam.com                      |
|    \\/     M anipulation  |                                                 |
\*---------------------------------------------------------------------------*/
FoamFile
{
    version     2.0;
    format      ascii;
    arch        "LSB;label=64;scalar=64";
    class       volScalarField;
    location    "1460";
    object      Xch;
}
// * * * * * * * * * * * * * * * * * * * * * * * * * * * * * * * * * * * * * //

dimensions      [1 -3 0 0 0 0 0];

internalField   nonuniform List<scalar> 
1024
(
0.0199173
0.0199175
0.0199182
0.0199194
0.0199214
0.0199242
0.0199281
0.0199329
0.0199384
0.0199444
0.0199502
0.0199555
0.0199597
0.0199625
0.0199635
0.0199626
0.0199593
0.0199539
0.019947
0.0199389
0.0199298
0.0199204
0.0199111
0.0199026
0.0198954
0.0198895
0.0198851
0.0198819
0.0198798
0.0198784
0.0198777
0.0198774
0.0199173
0.0199176
0.0199183
0.0199195
0.0199215
0.0199244
0.0199283
0.0199332
0.0199388
0.0199448
0.0199507
0.0199559
0.0199601
0.0199628
0.0199639
0.0199629
0.0199596
0.0199542
0.0199474
0.0199392
0.0199302
0.0199207
0.0199114
0.0199029
0.0198956
0.0198897
0.0198852
0.019882
0.0198798
0.0198785
0.0198778
0.0198775
0.0199175
0.0199178
0.0199185
0.0199198
0.0199218
0.0199248
0.0199288
0.0199338
0.0199395
0.0199456
0.0199516
0.019957
0.0199611
0.0199638
0.0199648
0.0199637
0.0199604
0.019955
0.0199481
0.01994
0.019931
0.0199215
0.0199121
0.0199035
0.0198961
0.0198901
0.0198855
0.0198822
0.01988
0.0198786
0.0198779
0.0198776
0.0199179
0.0199182
0.0199189
0.0199202
0.0199224
0.0199254
0.0199296
0.0199348
0.0199407
0.0199471
0.0199534
0.0199589
0.019963
0.0199656
0.0199664
0.0199652
0.0199617
0.0199562
0.0199493
0.0199412
0.0199321
0.0199226
0.0199132
0.0199044
0.0198969
0.0198907
0.019886
0.0198826
0.0198803
0.0198789
0.0198781
0.0198778
0.0199184
0.0199187
0.0199195
0.0199209
0.0199231
0.0199263
0.0199307
0.0199362
0.0199426
0.0199495
0.0199562
0.019962
0.0199662
0.0199686
0.019969
0.0199675
0.0199638
0.0199581
0.019951
0.0199428
0.0199337
0.0199241
0.0199146
0.0199057
0.0198979
0.0198915
0.0198866
0.0198831
0.0198807
0.0198792
0.0198784
0.0198781
0.0199193
0.0199196
0.0199204
0.0199218
0.0199241
0.0199275
0.0199322
0.0199381
0.0199451
0.0199528
0.0199603
0.0199667
0.019971
0.019973
0.019973
0.0199709
0.0199667
0.0199606
0.0199532
0.0199447
0.0199355
0.0199258
0.0199161
0.019907
0.0198991
0.0198925
0.0198874
0.0198837
0.0198812
0.0198797
0.0198789
0.0198785
0.0199206
0.0199209
0.0199216
0.0199231
0.0199255
0.0199291
0.0199341
0.0199406
0.0199485
0.0199573
0.019966
0.0199731
0.0199776
0.0199793
0.0199786
0.0199758
0.0199708
0.0199639
0.0199559
0.019947
0.0199374
0.0199275
0.0199177
0.0199084
0.0199002
0.0198934
0.0198882
0.0198844
0.0198818
0.0198803
0.0198794
0.0198791
0.0199225
0.0199228
0.0199235
0.019925
0.0199275
0.0199313
0.0199368
0.019944
0.0199531
0.0199633
0.0199734
0.0199815
0.0199863
0.0199876
0.0199861
0.0199822
0.0199761
0.0199682
0.0199592
0.0199495
0.0199394
0.0199291
0.019919
0.0199095
0.0199012
0.0198943
0.019889
0.0198851
0.0198825
0.0198809
0.0198801
0.0198797
0.0199254
0.0199257
0.0199264
0.0199279
0.0199305
0.0199346
0.0199405
0.0199487
0.0199591
0.019971
0.0199827
0.0199919
0.0199971
0.019998
0.0199956
0.0199906
0.0199832
0.0199737
0.0199632
0.0199523
0.0199412
0.0199303
0.0199198
0.0199101
0.0199017
0.0198948
0.0198895
0.0198858
0.0198832
0.0198817
0.0198809
0.0198806
0.01993
0.0199302
0.019931
0.0199325
0.0199352
0.0199396
0.0199462
0.0199554
0.0199673
0.0199809
0.0199942
0.0200045
0.02001
0.0200106
0.0200075
0.0200015
0.0199926
0.0199813
0.0199688
0.0199559
0.0199433
0.0199313
0.0199202
0.0199103
0.0199019
0.0198952
0.0198901
0.0198866
0.0198843
0.0198829
0.0198822
0.0198819
0.0199371
0.0199374
0.0199381
0.0199397
0.0199426
0.0199474
0.0199548
0.0199652
0.0199786
0.0199938
0.0200085
0.0200196
0.0200253
0.0200258
0.0200224
0.0200159
0.020006
0.0199929
0.0199778
0.0199624
0.0199476
0.0199339
0.0199217
0.0199113
0.0199028
0.0198963
0.0198916
0.0198885
0.0198866
0.0198856
0.0198851
0.019885
0.0199478
0.0199481
0.0199489
0.0199507
0.0199539
0.0199593
0.0199675
0.0199791
0.0199939
0.0200105
0.0200261
0.0200377
0.0200438
0.0200447
0.0200421
0.0200365
0.0200271
0.0200131
0.019996
0.0199776
0.0199596
0.0199431
0.0199288
0.019917
0.0199079
0.0199014
0.0198971
0.0198946
0.0198933
0.0198929
0.0198929
0.0198929
0.0199629
0.0199632
0.0199642
0.0199662
0.01997
0.0199761
0.0199854
0.0199983
0.0200143
0.0200317
0.0200478
0.0200599
0.0200669
0.0200698
0.0200701
0.0200683
0.0200625
0.0200509
0.0200342
0.0200144
0.0199935
0.0199732
0.019955
0.0199399
0.0199285
0.0199207
0.019916
0.0199138
0.0199132
0.0199135
0.019914
0.0199143
0.019982
0.0199824
0.0199837
0.0199862
0.0199906
0.0199978
0.0200084
0.0200227
0.0200399
0.020058
0.0200746
0.0200877
0.0200972
0.0201046
0.0201112
0.0201172
0.0201201
0.0201168
0.0201069
0.0200914
0.0200719
0.0200503
0.0200287
0.0200086
0.019992
0.0199796
0.0199715
0.0199671
0.0199655
0.0199654
0.019966
0.0199664
0.0200033
0.0200038
0.0200052
0.0200082
0.0200135
0.0200218
0.0200337
0.0200492
0.0200675
0.0200867
0.0201047
0.0201207
0.0201352
0.0201496
0.020165
0.0201816
0.0201971
0.0202075
0.0202113
0.0202086
0.0201997
0.0201857
0.0201677
0.0201476
0.0201274
0.0201091
0.0200941
0.0200833
0.0200766
0.0200732
0.0200719
0.0200717
0.0200232
0.0200237
0.0200253
0.0200284
0.0200339
0.0200426
0.020055
0.0200713
0.0200906
0.0201114
0.0201323
0.0201525
0.0201723
0.0201928
0.0202147
0.0202382
0.0202614
0.0202816
0.0202979
0.02031
0.0203173
0.0203194
0.020316
0.0203074
0.0202947
0.0202796
0.020264
0.02025
0.020239
0.0202317
0.0202277
0.0202262
0.0200382
0.0200387
0.0200401
0.0200431
0.0200483
0.0200565
0.0200684
0.0200842
0.0201035
0.020125
0.0201474
0.0201695
0.020191
0.020212
0.0202325
0.0202524
0.0202708
0.0202881
0.0203059
0.0203241
0.0203418
0.0203574
0.0203695
0.0203774
0.0203806
0.0203793
0.0203746
0.0203679
0.0203609
0.0203552
0.0203514
0.0203497
0.0200474
0.0200479
0.0200492
0.0200518
0.0200564
0.0200637
0.0200743
0.0200888
0.0201067
0.0201273
0.0201491
0.0201706
0.0201908
0.020209
0.0202244
0.0202366
0.0202458
0.0202554
0.0202691
0.0202877
0.0203095
0.0203322
0.0203535
0.0203716
0.0203855
0.0203948
0.0203999
0.0204016
0.0204011
0.0203995
0.020398
0.0203972
0.0200524
0.0200528
0.020054
0.0200563
0.0200602
0.0200665
0.0200758
0.0200884
0.0201044
0.0201231
0.0201432
0.0201632
0.0201814
0.0201968
0.0202083
0.0202154
0.0202189
0.0202236
0.0202342
0.0202522
0.0202763
0.0203041
0.0203323
0.020358
0.0203792
0.020395
0.0204054
0.0204114
0.0204141
0.0204147
0.0204145
0.0204142
0.0200548
0.0200552
0.0200562
0.0200582
0.0200616
0.020067
0.0200749
0.0200857
0.0200996
0.020116
0.020134
0.0201519
0.0201683
0.0201817
0.0201911
0.0201961
0.0201979
0.0202015
0.0202108
0.0202277
0.0202519
0.0202815
0.0203136
0.0203448
0.0203721
0.0203937
0.0204089
0.0204184
0.0204234
0.0204253
0.0204257
0.0204255
0.020056
0.0200563
0.0200572
0.0200589
0.0200617
0.0200662
0.0200729
0.020082
0.0200938
0.020108
0.0201236
0.0201395
0.0201542
0.0201664
0.0201754
0.0201808
0.0201841
0.0201892
0.0201992
0.0202157
0.020239
0.0202682
0.0203011
0.0203347
0.0203659
0.0203918
0.0204112
0.0204241
0.0204313
0.0204346
0.0204355
0.0204355
0.0200576
0.0200578
0.0200584
0.0200596
0.0200618
0.0200654
0.0200708
0.0200785
0.0200884
0.0201004
0.0201139
0.020128
0.0201415
0.0201535
0.0201633
0.020171
0.0201778
0.0201861
0.020198
0.0202147
0.020237
0.0202646
0.0202963
0.0203298
0.0203622
0.0203907
0.0204132
0.0204289
0.0204384
0.0204429
0.0204444
0.0204446
0.0200616
0.0200615
0.0200616
0.0200621
0.0200633
0.0200659
0.0200701
0.0200763
0.0200847
0.0200951
0.0201071
0.02012
0.0201332
0.0201459
0.0201578
0.020169
0.0201802
0.0201921
0.020206
0.020223
0.020244
0.0202695
0.0202988
0.0203303
0.0203619
0.020391
0.0204153
0.0204332
0.0204446
0.0204505
0.0204526
0.0204529
0.0200701
0.0200696
0.020069
0.0200684
0.0200685
0.0200697
0.0200727
0.0200778
0.0200851
0.0200947
0.0201062
0.0201192
0.0201332
0.0201476
0.0201622
0.0201771
0.0201923
0.0202073
0.0202225
0.0202392
0.0202586
0.0202813
0.0203074
0.0203359
0.0203653
0.0203933
0.0204179
0.0204371
0.0204501
0.0204572
0.02046
0.0204605
0.0200849
0.020084
0.0200824
0.0200807
0.0200795
0.0200796
0.0200818
0.0200864
0.0200936
0.0201034
0.0201155
0.0201295
0.020145
0.0201614
0.0201785
0.0201964
0.0202144
0.020231
0.0202465
0.0202622
0.0202794
0.020299
0.0203213
0.020346
0.0203721
0.0203979
0.0204215
0.0204411
0.020455
0.0204632
0.0204667
0.0204674
0.0201075
0.020106
0.0201035
0.0201009
0.0200991
0.0200989
0.0201011
0.0201062
0.0201142
0.0201251
0.0201385
0.0201538
0.0201706
0.0201884
0.0202069
0.0202261
0.0202451
0.0202618
0.0202765
0.0202906
0.0203053
0.0203215
0.0203398
0.0203603
0.0203823
0.0204049
0.0204266
0.0204454
0.0204597
0.0204686
0.0204727
0.0204737
0.0201386
0.0201365
0.0201335
0.020131
0.0201298
0.0201306
0.0201341
0.0201406
0.02015
0.0201621
0.0201764
0.0201923
0.0202094
0.0202272
0.0202455
0.0202643
0.0202823
0.0202977
0.0203108
0.0203228
0.0203348
0.0203477
0.0203621
0.0203782
0.0203959
0.0204147
0.0204334
0.0204505
0.0204643
0.0204735
0.0204781
0.0204793
0.0201786
0.0201761
0.0201736
0.0201726
0.0201736
0.0201768
0.0201824
0.0201904
0.0202008
0.0202133
0.0202273
0.0202425
0.0202584
0.0202747
0.0202911
0.0203078
0.0203234
0.0203366
0.0203475
0.0203571
0.0203665
0.0203762
0.020387
0.020399
0.0204124
0.020427
0.0204421
0.0204567
0.0204691
0.0204781
0.0204829
0.0204843
0.020228
0.0202258
0.0202252
0.0202272
0.0202314
0.0202372
0.0202445
0.0202533
0.0202634
0.0202748
0.0202871
0.0203001
0.0203134
0.0203268
0.0203402
0.0203536
0.020366
0.0203763
0.0203846
0.0203918
0.0203987
0.0204057
0.0204132
0.0204217
0.0204311
0.0204416
0.0204528
0.0204642
0.0204745
0.0204825
0.0204871
0.0204887
0.0202882
0.0202873
0.0202901
0.0202953
0.0203018
0.0203088
0.0203162
0.0203241
0.0203324
0.0203414
0.0203507
0.0203604
0.0203701
0.0203799
0.0203895
0.020399
0.0204077
0.0204149
0.0204207
0.0204256
0.0204302
0.0204347
0.0204396
0.020445
0.0204511
0.0204578
0.0204653
0.0204731
0.0204807
0.020487
0.020491
0.0204925
0.0203617
0.0203634
0.0203686
0.0203745
0.0203804
0.0203861
0.0203915
0.0203969
0.0204023
0.0204078
0.0204135
0.0204193
0.0204251
0.0204308
0.0204365
0.020442
0.0204471
0.0204512
0.0204545
0.0204573
0.0204598
0.0204624
0.020465
0.0204679
0.0204712
0.0204749
0.020479
0.0204834
0.0204878
0.0204918
0.0204946
0.0204957
0.0204514
0.0204528
0.0204555
0.020458
0.0204604
0.0204626
0.0204646
0.0204665
0.0204683
0.0204702
0.0204721
0.0204739
0.0204758
0.0204777
0.0204795
0.0204813
0.0204829
0.0204843
0.0204853
0.0204862
0.020487
0.0204878
0.0204886
0.0204896
0.0204906
0.0204917
0.020493
0.0204943
0.0204958
0.0204971
0.0204981
0.0204986
)
;

boundaryField
{
    movingWall
    {
        type            fixedValue;
        value           uniform 0.0205;
    }
    fixedWalls
    {
        type            zeroGradient;
    }
    floor
    {
        type            zeroGradient;
    }
    frontAndBack
    {
        type            empty;
    }
}


// ************************************************************************* //
