/*--------------------------------*- C++ -*----------------------------------*\
| =========                 |                                                 |
| \\      /  F ield         | OpenFOAM: The Open Source CFD Toolbox           |
|  \\    /   O peration     | Version:  2212                                  |
|   \\  /    A nd           | Website:  www.openfoam.com                      |
|    \\/     M anipulation  |                                                 |
\*---------------------------------------------------------------------------*/
FoamFile
{
    version     2.0;
    format      ascii;
    arch        "LSB;label=64;scalar=64";
    class       volScalarField;
    location    "690";
    object      Gco2;
}
// * * * * * * * * * * * * * * * * * * * * * * * * * * * * * * * * * * * * * //

dimensions      [1 -3 0 0 0 0 0];

internalField   nonuniform List<scalar> 
1024
(
0.0535844
0.0535658
0.0535211
0.0534422
0.053323
0.0531627
0.0529671
0.0527482
0.0525194
0.0522928
0.052077
0.0518839
0.051736
0.0516547
0.0516595
0.0517704
0.0519879
0.0522643
0.0525592
0.0528648
0.0531835
0.0535211
0.0538784
0.054245
0.0546005
0.054921
0.0551882
0.0553937
0.0555388
0.0556317
0.0556833
0.0557045
0.0535826
0.0535636
0.0535175
0.0534363
0.0533142
0.0531508
0.0529531
0.0527331
0.0525042
0.0522775
0.0520607
0.0518659
0.0517173
0.0516367
0.051643
0.0517556
0.0519739
0.0522503
0.0525444
0.0528486
0.0531654
0.0535007
0.053856
0.054222
0.0545786
0.0549018
0.0551727
0.0553818
0.0555299
0.0556248
0.0556774
0.055699
0.0535792
0.0535592
0.0535109
0.0534259
0.0532991
0.0531312
0.0529301
0.0527084
0.0524782
0.0522488
0.0520265
0.0518242
0.0516713
0.0515924
0.0516042
0.0517232
0.0519459
0.0522233
0.0525163
0.0528177
0.05313
0.05346
0.0538106
0.0541743
0.0545325
0.0548609
0.0551391
0.0553556
0.0555098
0.0556087
0.0556636
0.0556861
0.053575
0.053554
0.0535032
0.0534145
0.0532829
0.0531106
0.0529061
0.0526818
0.0524477
0.0522101
0.0519733
0.0517526
0.0515886
0.0515122
0.0515365
0.0516712
0.0519054
0.0521874
0.0524798
0.052777
0.0530823
0.0534034
0.0537456
0.0541044
0.0544633
0.0547982
0.0550865
0.0553138
0.0554769
0.055582
0.0556403
0.055664
0.0535722
0.0535504
0.053498
0.0534067
0.0532723
0.0530973
0.0528904
0.0526624
0.0524202
0.0521659
0.0519019
0.0516479
0.0514622
0.0513883
0.0514348
0.0515994
0.0518568
0.0521499
0.0524441
0.0527366
0.0530324
0.0533409
0.0536703
0.0540199
0.0543769
0.0547177
0.0550173
0.0552574
0.0554316
0.0555443
0.0556068
0.0556321
0.0535742
0.0535522
0.0534996
0.0534085
0.0532746
0.0531001
0.0528925
0.0526597
0.0524042
0.0521232
0.0518164
0.0515112
0.0512906
0.051218
0.051299
0.0515121
0.0518093
0.0521232
0.0524232
0.0527114
0.0529958
0.0532881
0.0535997
0.0539351
0.0542856
0.0546291
0.0549383
0.0551909
0.0553766
0.0554975
0.0555644
0.0555914
0.0535855
0.0535638
0.0535129
0.0534251
0.053296
0.0531263
0.0529208
0.052683
0.0524094
0.0520911
0.0517247
0.0513496
0.0510802
0.0510086
0.0511385
0.0514224
0.0517794
0.0521261
0.052437
0.0527217
0.0529927
0.0532651
0.0535544
0.0538697
0.0542074
0.0545476
0.0548616
0.0551233
0.0553182
0.0554459
0.0555167
0.055545
0.0536119
0.0535909
0.053543
0.0534616
0.0533416
0.0531816
0.0529821
0.0527403
0.0524448
0.0520784
0.0516344
0.0511706
0.0508424
0.0507771
0.0509759
0.0513564
0.0517944
0.052186
0.0525123
0.0527932
0.0530478
0.0532957
0.053557
0.0538458
0.0541633
0.054492
0.0548028
0.0550666
0.0552655
0.0553967
0.0554695
0.0554986
0.0536599
0.05364
0.053596
0.0535229
0.0534155
0.0532697
0.0530801
0.0528357
0.0525141
0.0520864
0.0515434
0.0509735
0.0505857
0.050546
0.0508451
0.051354
0.0518943
0.05234
0.0526829
0.0529563
0.0531882
0.0534046
0.0536307
0.0538853
0.0541738
0.0544809
0.0547779
0.055034
0.0552291
0.0553587
0.0554309
0.05546
0.0537369
0.0537183
0.0536784
0.053614
0.0535205
0.0533907
0.0532127
0.0529638
0.0526063
0.0520956
0.0514272
0.0507391
0.0503082
0.0503352
0.0507848
0.0514636
0.0521279
0.0526318
0.0529864
0.0532433
0.0534416
0.0536153
0.0537958
0.0540063
0.0542552
0.0545292
0.0548
0.0550369
0.0552192
0.0553413
0.0554102
0.0554384
0.0538453
0.0538285
0.0537931
0.0537365
0.0536541
0.0535362
0.0533627
0.0530961
0.0526783
0.0520497
0.0512286
0.0504257
0.0499948
0.0501577
0.0508282
0.0517288
0.0525393
0.0531001
0.0534556
0.0536812
0.0538299
0.0539457
0.0540668
0.0542209
0.054418
0.054646
0.0548779
0.0550842
0.055245
0.0553544
0.0554176
0.0554443
0.0539616
0.0539483
0.0539185
0.053868
0.0537895
0.0536684
0.0534746
0.053154
0.052629
0.0518391
0.0508533
0.0499746
0.0496268
0.0500213
0.0509918
0.0521646
0.0531413
0.0537553
0.0540986
0.0542767
0.0543586
0.0544002
0.0544474
0.0545317
0.0546645
0.0548344
0.055016
0.0551824
0.0553154
0.0554088
0.055465
0.0554901
0.0539855
0.0539768
0.053953
0.0539048
0.0538171
0.0536644
0.0534031
0.0529648
0.0522691
0.0512891
0.0501775
0.0493301
0.0491983
0.0499287
0.0512527
0.0527174
0.0538692
0.0545391
0.0548677
0.0549918
0.0549987
0.0549573
0.0549218
0.0549275
0.0549872
0.0550906
0.0552152
0.0553371
0.0554404
0.0555175
0.0555674
0.0555913
0.0536879
0.0536803
0.0536549
0.0535943
0.0534714
0.0532455
0.0528589
0.0522416
0.0513444
0.0502176
0.049115
0.0484841
0.0487196
0.0498394
0.0514844
0.0531888
0.0545063
0.0552606
0.0556078
0.0557061
0.0556586
0.0555483
0.055441
0.055378
0.0553733
0.055417
0.0554888
0.0555697
0.0556461
0.0557093
0.0557539
0.0557766
0.0527867
0.0527715
0.0527256
0.0526236
0.0524278
0.052087
0.0515419
0.0507471
0.0497176
0.0485995
0.0477206
0.047489
0.0481382
0.0495332
0.0513073
0.0531026
0.0545613
0.055483
0.055967
0.0561555
0.0561528
0.0560446
0.055906
0.0557936
0.0557379
0.0557415
0.0557896
0.0558605
0.055934
0.0559951
0.0560363
0.0560561
0.0512158
0.0511856
0.0511036
0.0509377
0.0506454
0.0501775
0.0494945
0.0485979
0.0475762
0.0466441
0.046118
0.0462481
0.0470516
0.0483335
0.0498688
0.0514991
0.0530142
0.0541989
0.055043
0.0556269
0.0560321
0.0563015
0.056469
0.0565635
0.0566062
0.0566078
0.056572
0.0565021
0.0564086
0.0563109
0.0562323
0.0561902
0.0494329
0.0493877
0.0492683
0.0490359
0.0486453
0.0480565
0.0472591
0.0463061
0.0453401
0.0445711
0.0441795
0.0442081
0.0445674
0.0451464
0.0458902
0.0467858
0.0477697
0.0486989
0.0495137
0.0502348
0.0508839
0.0514624
0.0519479
0.0523198
0.0525589
0.0526527
0.0526023
0.0524303
0.0521845
0.0519311
0.0517334
0.0516304
0.0481092
0.0480505
0.0478968
0.0476028
0.0471216
0.0464227
0.0455192
0.0444895
0.0434692
0.0425937
0.0419175
0.0413941
0.0409343
0.0404758
0.039994
0.0394672
0.0388991
0.0383233
0.0377865
0.0373153
0.0369377
0.0366914
0.0365882
0.0366357
0.0368281
0.0371413
0.0375319
0.0379369
0.0382871
0.0385318
0.0386611
0.0387048
0.0475216
0.0474636
0.0473141
0.0470313
0.0465718
0.0459049
0.0450323
0.0440034
0.0429089
0.0418421
0.0408416
0.0398665
0.0388319
0.0376637
0.0363108
0.0347178
0.0329284
0.0311256
0.0294425
0.0278991
0.0265314
0.0253856
0.0245053
0.0239305
0.0236876
0.0237778
0.0241643
0.0247612
0.0254362
0.0260388
0.0264533
0.0266436
0.0473379
0.0472826
0.0471448
0.0468899
0.0464803
0.0458857
0.0450978
0.0441439
0.0430855
0.0419926
0.0409024
0.0397899
0.0385803
0.037189
0.0355471
0.0335975
0.0314426
0.0293653
0.0275166
0.0258668
0.0243917
0.0230809
0.0219385
0.0209853
0.0202558
0.019784
0.019586
0.0196425
0.0198884
0.0202149
0.0204988
0.020652
0.0473676
0.0473161
0.0471916
0.0469669
0.0466117
0.0460989
0.0454162
0.0445769
0.0436218
0.0426036
0.0415561
0.0404662
0.0392729
0.0378934
0.0362532
0.0343012
0.0321739
0.0301864
0.028468
0.0269438
0.0255357
0.0241882
0.0228824
0.0216432
0.0205328
0.0196229
0.0189641
0.0185694
0.0184095
0.0184171
0.0184994
0.018567
0.0474751
0.047431
0.0473247
0.0471337
0.046833
0.0463996
0.0458209
0.0451019
0.0442677
0.0433533
0.0423829
0.0413466
0.0401951
0.0388569
0.0372649
0.0353779
0.0333429
0.0314687
0.0298557
0.0284063
0.0270163
0.0256034
0.0241319
0.0226287
0.0211832
0.0199125
0.0189113
0.0182226
0.0178301
0.0176694
0.0176488
0.0176729
0.0475119
0.047484
0.0474099
0.0472664
0.0470282
0.0466732
0.0461881
0.0455717
0.0448353
0.0439966
0.0430669
0.0420354
0.0408653
0.0395049
0.037907
0.0360462
0.034071
0.0322649
0.0307061
0.029295
0.027924
0.0265016
0.0249767
0.0233583
0.0217256
0.0202079
0.0189358
0.0179973
0.0174094
0.017121
0.0170347
0.017038
0.0472896
0.0472922
0.0472748
0.0472052
0.0470488
0.046776
0.0463674
0.0458146
0.0451175
0.0442814
0.0433102
0.042198
0.0409268
0.0394714
0.0378112
0.0359385
0.034
0.0322481
0.0307398
0.0293756
0.0280535
0.0266854
0.0252121
0.0236236
0.0219709
0.0203605
0.0189311
0.0178078
0.0170527
0.0166454
0.0164971
0.0164828
0.0465946
0.0466452
0.0467124
0.0467454
0.0466882
0.0464927
0.0461267
0.045574
0.0448308
0.0439033
0.0428024
0.0415386
0.0401176
0.0385412
0.0368126
0.0349366
0.033054
0.0313838
0.0299605
0.0286839
0.0274584
0.0262018
0.0248539
0.0233926
0.021844
0.0202815
0.0188234
0.0176053
0.0167294
0.0162191
0.0160102
0.015977
0.0452316
0.0453449
0.0455127
0.0456531
0.0456809
0.0455241
0.0451371
0.0445041
0.0436327
0.042546
0.0412753
0.0398521
0.0383035
0.0366502
0.0349089
0.0330888
0.0313179
0.0297806
0.0284897
0.0273466
0.026263
0.0251652
0.0239964
0.0227271
0.0213621
0.0199464
0.0185691
0.0173531
0.0164191
0.015833
0.0155688
0.0155151
0.0430641
0.043244
0.043493
0.0436898
0.043728
0.0435249
0.0430359
0.0422623
0.0412341
0.0399974
0.0386022
0.0370952
0.0355136
0.0338851
0.0322288
0.0305519
0.0289639
0.027614
0.0264979
0.0255235
0.0246127
0.0237021
0.0227421
0.021701
0.0205698
0.0193679
0.0181527
0.0170237
0.0161013
0.0154786
0.0151709
0.0150961
0.0400209
0.0402488
0.040502
0.0406346
0.0405567
0.0402097
0.0395727
0.03867
0.0375474
0.036261
0.0348663
0.033411
0.0319312
0.0304515
0.0289871
0.0275409
0.026201
0.0250818
0.0241694
0.0233834
0.022659
0.0219449
0.0212006
0.020397
0.0195189
0.018568
0.0175724
0.0166002
0.0157561
0.0151444
0.0148138
0.0147201
0.0360621
0.0362819
0.0364004
0.0363194
0.0360234
0.0355036
0.034765
0.033837
0.0327593
0.031579
0.0303416
0.0290854
0.0278381
0.0266173
0.0254328
0.0242841
0.023237
0.0223741
0.0216787
0.0210866
0.020548
0.0200245
0.0194854
0.0189075
0.0182753
0.0175822
0.0168355
0.0160718
0.0153668
0.0148175
0.014493
0.0143868
0.0311178
0.0312218
0.0310636
0.0307138
0.0302372
0.0296473
0.0289477
0.028151
0.0272766
0.0263521
0.0254062
0.0244638
0.023543
0.0226547
0.0218039
0.0209891
0.0202547
0.0196552
0.0191761
0.018772
0.0184086
0.0180599
0.017705
0.0173278
0.0169164
0.0164629
0.0159648
0.0154353
0.0149172
0.0144821
0.0142005
0.014095
0.0250222
0.0248951
0.0245076
0.0240743
0.0236273
0.0231613
0.0226675
0.0221424
0.0215886
0.0210166
0.0204401
0.0198722
0.0193225
0.0187967
0.018297
0.017822
0.0173969
0.017052
0.0167778
0.016548
0.0163433
0.0161488
0.0159528
0.0157462
0.0155222
0.0152753
0.0150016
0.0147034
0.0143976
0.0141219
0.0139254
0.013841
0.0175488
0.0174389
0.0172302
0.0170352
0.0168534
0.0166771
0.0165005
0.0163195
0.0161327
0.0159422
0.0157516
0.015565
0.0153852
0.0152139
0.0150518
0.0148982
0.0147613
0.0146505
0.0145626
0.0144893
0.0144243
0.0143628
0.0143013
0.0142369
0.0141673
0.0140909
0.0140063
0.0139133
0.0138157
0.0137236
0.0136524
0.0136177
)
;

boundaryField
{
    movingWall
    {
        type            fixedValue;
        value           uniform 0.0135;
    }
    fixedWalls
    {
        type            zeroGradient;
    }
    floor
    {
        type            zeroGradient;
    }
    frontAndBack
    {
        type            empty;
    }
}


// ************************************************************************* //
