/*--------------------------------*- C++ -*----------------------------------*\
| =========                 |                                                 |
| \\      /  F ield         | OpenFOAM: The Open Source CFD Toolbox           |
|  \\    /   O peration     | Version:  2212                                  |
|   \\  /    A nd           | Website:  www.openfoam.com                      |
|    \\/     M anipulation  |                                                 |
\*---------------------------------------------------------------------------*/
FoamFile
{
    version     2.0;
    format      ascii;
    arch        "LSB;label=64;scalar=64";
    class       volScalarField;
    location    "690";
    object      Gh2;
}
// * * * * * * * * * * * * * * * * * * * * * * * * * * * * * * * * * * * * * //

dimensions      [1 -3 0 0 0 0 0];

internalField   nonuniform List<scalar> 
1024
(
1.25559e-05
1.25551e-05
1.25533e-05
1.255e-05
1.25451e-05
1.25385e-05
1.25305e-05
1.25215e-05
1.25122e-05
1.2503e-05
1.24943e-05
1.24866e-05
1.24808e-05
1.24778e-05
1.24783e-05
1.24832e-05
1.24924e-05
1.25041e-05
1.25166e-05
1.25295e-05
1.25431e-05
1.25575e-05
1.25729e-05
1.25888e-05
1.26043e-05
1.26183e-05
1.263e-05
1.26391e-05
1.26454e-05
1.26495e-05
1.26518e-05
1.26527e-05
1.25558e-05
1.2555e-05
1.25531e-05
1.25498e-05
1.25448e-05
1.2538e-05
1.25299e-05
1.25209e-05
1.25116e-05
1.25024e-05
1.24937e-05
1.24859e-05
1.24801e-05
1.24771e-05
1.24777e-05
1.24826e-05
1.24919e-05
1.25036e-05
1.2516e-05
1.25289e-05
1.25423e-05
1.25567e-05
1.2572e-05
1.25878e-05
1.26034e-05
1.26175e-05
1.26294e-05
1.26385e-05
1.26451e-05
1.26492e-05
1.26515e-05
1.26525e-05
1.25557e-05
1.25549e-05
1.25529e-05
1.25494e-05
1.25441e-05
1.25372e-05
1.2529e-05
1.25199e-05
1.25106e-05
1.25013e-05
1.24924e-05
1.24843e-05
1.24784e-05
1.24754e-05
1.24762e-05
1.24814e-05
1.24909e-05
1.25026e-05
1.2515e-05
1.25277e-05
1.25409e-05
1.2555e-05
1.25701e-05
1.25858e-05
1.26014e-05
1.26157e-05
1.26279e-05
1.26374e-05
1.26442e-05
1.26485e-05
1.26509e-05
1.26519e-05
1.25555e-05
1.25547e-05
1.25526e-05
1.25489e-05
1.25435e-05
1.25364e-05
1.2528e-05
1.25189e-05
1.25094e-05
1.24998e-05
1.24903e-05
1.24816e-05
1.24752e-05
1.24724e-05
1.24737e-05
1.24796e-05
1.24895e-05
1.25014e-05
1.25137e-05
1.25262e-05
1.2539e-05
1.25527e-05
1.25674e-05
1.25828e-05
1.25984e-05
1.2613e-05
1.26256e-05
1.26356e-05
1.26428e-05
1.26474e-05
1.26499e-05
1.2651e-05
1.25554e-05
1.25545e-05
1.25524e-05
1.25486e-05
1.25431e-05
1.25359e-05
1.25274e-05
1.25182e-05
1.25084e-05
1.24981e-05
1.24876e-05
1.24776e-05
1.24704e-05
1.24678e-05
1.24701e-05
1.24772e-05
1.2488e-05
1.25002e-05
1.25125e-05
1.25248e-05
1.25372e-05
1.25502e-05
1.25643e-05
1.25793e-05
1.25948e-05
1.26096e-05
1.26227e-05
1.26332e-05
1.26408e-05
1.26457e-05
1.26485e-05
1.26496e-05
1.25555e-05
1.25546e-05
1.25525e-05
1.25487e-05
1.25432e-05
1.25361e-05
1.25276e-05
1.25181e-05
1.25078e-05
1.24966e-05
1.24844e-05
1.24723e-05
1.24639e-05
1.24615e-05
1.24653e-05
1.24744e-05
1.24868e-05
1.24998e-05
1.25122e-05
1.25242e-05
1.2536e-05
1.25483e-05
1.25615e-05
1.25758e-05
1.25909e-05
1.26058e-05
1.26193e-05
1.26303e-05
1.26384e-05
1.26437e-05
1.26466e-05
1.26478e-05
1.2556e-05
1.25551e-05
1.2553e-05
1.25494e-05
1.25441e-05
1.25372e-05
1.25288e-05
1.25192e-05
1.25082e-05
1.24955e-05
1.24809e-05
1.24662e-05
1.24559e-05
1.24538e-05
1.24598e-05
1.24719e-05
1.24867e-05
1.2501e-05
1.25137e-05
1.25254e-05
1.25365e-05
1.25478e-05
1.25599e-05
1.25733e-05
1.25877e-05
1.26024e-05
1.2616e-05
1.26274e-05
1.26359e-05
1.26415e-05
1.26446e-05
1.26458e-05
1.25572e-05
1.25563e-05
1.25543e-05
1.2551e-05
1.25461e-05
1.25396e-05
1.25315e-05
1.25217e-05
1.25098e-05
1.24951e-05
1.24775e-05
1.24593e-05
1.2447e-05
1.24454e-05
1.24546e-05
1.24707e-05
1.24889e-05
1.25049e-05
1.25181e-05
1.25294e-05
1.25397e-05
1.25498e-05
1.25605e-05
1.25726e-05
1.25861e-05
1.26002e-05
1.26136e-05
1.2625e-05
1.26337e-05
1.26394e-05
1.26426e-05
1.26439e-05
1.25592e-05
1.25584e-05
1.25566e-05
1.25536e-05
1.25492e-05
1.25433e-05
1.25356e-05
1.25257e-05
1.25128e-05
1.24957e-05
1.24741e-05
1.24518e-05
1.24374e-05
1.24374e-05
1.2451e-05
1.24727e-05
1.24951e-05
1.25132e-05
1.25268e-05
1.25376e-05
1.25467e-05
1.25553e-05
1.25643e-05
1.25748e-05
1.25869e-05
1.26e-05
1.26127e-05
1.26238e-05
1.26322e-05
1.26378e-05
1.2641e-05
1.26422e-05
1.25625e-05
1.25617e-05
1.25601e-05
1.25574e-05
1.25536e-05
1.25483e-05
1.25411e-05
1.25311e-05
1.25167e-05
1.24962e-05
1.24696e-05
1.24427e-05
1.24271e-05
1.24304e-05
1.24508e-05
1.24798e-05
1.25073e-05
1.25276e-05
1.25416e-05
1.25514e-05
1.25588e-05
1.25653e-05
1.25722e-05
1.25806e-05
1.25909e-05
1.26024e-05
1.26139e-05
1.26241e-05
1.26319e-05
1.26372e-05
1.26402e-05
1.26414e-05
1.25671e-05
1.25664e-05
1.25649e-05
1.25626e-05
1.25592e-05
1.25544e-05
1.25474e-05
1.25366e-05
1.25198e-05
1.24945e-05
1.24618e-05
1.24306e-05
1.24155e-05
1.24251e-05
1.24551e-05
1.24937e-05
1.25273e-05
1.25498e-05
1.25635e-05
1.25717e-05
1.25768e-05
1.25806e-05
1.25848e-05
1.25905e-05
1.25984e-05
1.26078e-05
1.26176e-05
1.26263e-05
1.26332e-05
1.26379e-05
1.26406e-05
1.26418e-05
1.25721e-05
1.25715e-05
1.25703e-05
1.25682e-05
1.2565e-05
1.256e-05
1.25522e-05
1.25391e-05
1.25178e-05
1.2486e-05
1.24468e-05
1.2413e-05
1.24019e-05
1.24218e-05
1.24648e-05
1.25148e-05
1.25554e-05
1.25799e-05
1.25928e-05
1.25988e-05
1.26008e-05
1.26012e-05
1.2602e-05
1.26046e-05
1.26096e-05
1.26164e-05
1.26239e-05
1.26308e-05
1.26365e-05
1.26405e-05
1.26429e-05
1.2644e-05
1.25732e-05
1.25729e-05
1.25719e-05
1.25699e-05
1.25663e-05
1.256e-05
1.25494e-05
1.25315e-05
1.25032e-05
1.24637e-05
1.24197e-05
1.23878e-05
1.23864e-05
1.24206e-05
1.24785e-05
1.25408e-05
1.25885e-05
1.26151e-05
1.26272e-05
1.26307e-05
1.26293e-05
1.2626e-05
1.26231e-05
1.26223e-05
1.2624e-05
1.26278e-05
1.26328e-05
1.26378e-05
1.26422e-05
1.26455e-05
1.26476e-05
1.26486e-05
1.25609e-05
1.25606e-05
1.25596e-05
1.25571e-05
1.2552e-05
1.25428e-05
1.2527e-05
1.25018e-05
1.24655e-05
1.24204e-05
1.23774e-05
1.23552e-05
1.23694e-05
1.24199e-05
1.24909e-05
1.25629e-05
1.26172e-05
1.26471e-05
1.26598e-05
1.2662e-05
1.26581e-05
1.26518e-05
1.26458e-05
1.2642e-05
1.2641e-05
1.26422e-05
1.2645e-05
1.26482e-05
1.26514e-05
1.26541e-05
1.26561e-05
1.2657e-05
1.25232e-05
1.25226e-05
1.25207e-05
1.25166e-05
1.25086e-05
1.24947e-05
1.24725e-05
1.24404e-05
1.23991e-05
1.23552e-05
1.23223e-05
1.23172e-05
1.23485e-05
1.241e-05
1.24857e-05
1.25609e-05
1.26206e-05
1.26572e-05
1.26753e-05
1.26811e-05
1.26791e-05
1.26729e-05
1.26657e-05
1.266e-05
1.26569e-05
1.26566e-05
1.26584e-05
1.26613e-05
1.26644e-05
1.2667e-05
1.26689e-05
1.26698e-05
1.24574e-05
1.24562e-05
1.24529e-05
1.24462e-05
1.24345e-05
1.24156e-05
1.23882e-05
1.23526e-05
1.23126e-05
1.22772e-05
1.22596e-05
1.22693e-05
1.23064e-05
1.23622e-05
1.24273e-05
1.24951e-05
1.25569e-05
1.26043e-05
1.26373e-05
1.26595e-05
1.26744e-05
1.2684e-05
1.26897e-05
1.26927e-05
1.26939e-05
1.26938e-05
1.26923e-05
1.26897e-05
1.26862e-05
1.26825e-05
1.26795e-05
1.26779e-05
1.2383e-05
1.23812e-05
1.23765e-05
1.23673e-05
1.23518e-05
1.23284e-05
1.2297e-05
1.22598e-05
1.22229e-05
1.21947e-05
1.21823e-05
1.2187e-05
1.22048e-05
1.2231e-05
1.22634e-05
1.23014e-05
1.23423e-05
1.23803e-05
1.24132e-05
1.2442e-05
1.24679e-05
1.24908e-05
1.25101e-05
1.25248e-05
1.25342e-05
1.2538e-05
1.2536e-05
1.25292e-05
1.25194e-05
1.25094e-05
1.25015e-05
1.24974e-05
1.23278e-05
1.23255e-05
1.23195e-05
1.23079e-05
1.22889e-05
1.22614e-05
1.22259e-05
1.21858e-05
1.21465e-05
1.21135e-05
1.20886e-05
1.20698e-05
1.20535e-05
1.20372e-05
1.202e-05
1.2001e-05
1.19804e-05
1.19593e-05
1.19394e-05
1.19219e-05
1.1908e-05
1.18991e-05
1.18957e-05
1.18982e-05
1.19062e-05
1.19188e-05
1.19343e-05
1.19503e-05
1.19641e-05
1.19737e-05
1.19788e-05
1.19805e-05
1.23025e-05
1.23003e-05
1.22944e-05
1.22833e-05
1.22651e-05
1.22387e-05
1.22042e-05
1.21636e-05
1.21207e-05
1.20791e-05
1.20403e-05
1.20025e-05
1.19624e-05
1.1917e-05
1.18646e-05
1.18031e-05
1.17342e-05
1.1665e-05
1.16008e-05
1.15422e-05
1.14907e-05
1.14478e-05
1.14152e-05
1.13943e-05
1.13861e-05
1.13905e-05
1.14061e-05
1.14296e-05
1.1456e-05
1.14795e-05
1.14956e-05
1.1503e-05
1.22937e-05
1.22915e-05
1.22861e-05
1.2276e-05
1.22598e-05
1.22361e-05
1.22047e-05
1.21668e-05
1.21247e-05
1.20814e-05
1.20382e-05
1.19942e-05
1.19464e-05
1.18916e-05
1.18271e-05
1.1751e-05
1.16674e-05
1.15877e-05
1.15176e-05
1.1456e-05
1.14018e-05
1.13544e-05
1.13136e-05
1.12799e-05
1.12543e-05
1.1238e-05
1.12314e-05
1.1234e-05
1.12434e-05
1.12557e-05
1.12664e-05
1.12721e-05
1.22936e-05
1.22916e-05
1.22867e-05
1.22778e-05
1.22637e-05
1.22432e-05
1.22158e-05
1.21821e-05
1.21438e-05
1.2103e-05
1.20611e-05
1.20176e-05
1.19701e-05
1.19154e-05
1.18506e-05
1.1774e-05
1.1691e-05
1.16145e-05
1.15494e-05
1.14929e-05
1.14418e-05
1.13939e-05
1.13481e-05
1.13049e-05
1.12663e-05
1.12346e-05
1.12115e-05
1.11976e-05
1.11918e-05
1.11918e-05
1.11945e-05
1.11968e-05
1.2297e-05
1.22953e-05
1.22911e-05
1.22835e-05
1.22715e-05
1.22541e-05
1.22308e-05
1.22018e-05
1.21681e-05
1.21312e-05
1.20922e-05
1.20507e-05
1.20048e-05
1.19517e-05
1.18888e-05
1.18146e-05
1.17351e-05
1.16626e-05
1.16012e-05
1.15472e-05
1.14965e-05
1.1446e-05
1.13941e-05
1.13414e-05
1.12909e-05
1.12465e-05
1.12116e-05
1.11875e-05
1.11736e-05
1.11676e-05
1.11666e-05
1.11672e-05
1.22981e-05
1.2297e-05
1.2294e-05
1.22882e-05
1.22786e-05
1.22643e-05
1.22447e-05
1.22198e-05
1.219e-05
1.21562e-05
1.21189e-05
1.20777e-05
1.20313e-05
1.19776e-05
1.19148e-05
1.18418e-05
1.17646e-05
1.16946e-05
1.1635e-05
1.1582e-05
1.15316e-05
1.14802e-05
1.14259e-05
1.13687e-05
1.13113e-05
1.12582e-05
1.12138e-05
1.11811e-05
1.11605e-05
1.11502e-05
1.11469e-05
1.11468e-05
1.22897e-05
1.22897e-05
1.22888e-05
1.22859e-05
1.22794e-05
1.22683e-05
1.22518e-05
1.22295e-05
1.22015e-05
1.21681e-05
1.21295e-05
1.20856e-05
1.20357e-05
1.19787e-05
1.19139e-05
1.18408e-05
1.17652e-05
1.16973e-05
1.16395e-05
1.15879e-05
1.15389e-05
1.1489e-05
1.14361e-05
1.13796e-05
1.13212e-05
1.12647e-05
1.12147e-05
1.11755e-05
1.11492e-05
1.11349e-05
1.11295e-05
1.11288e-05
1.22636e-05
1.22654e-05
1.22677e-05
1.22687e-05
1.2266e-05
1.22579e-05
1.22432e-05
1.22211e-05
1.21917e-05
1.21552e-05
1.21121e-05
1.20629e-05
1.20076e-05
1.19465e-05
1.18794e-05
1.18066e-05
1.17335e-05
1.16689e-05
1.16143e-05
1.15658e-05
1.15201e-05
1.14739e-05
1.14251e-05
1.13729e-05
1.13179e-05
1.12629e-05
1.12118e-05
1.11693e-05
1.11389e-05
1.11211e-05
1.11137e-05
1.11124e-05
1.22125e-05
1.22167e-05
1.22228e-05
1.22278e-05
1.22284e-05
1.22219e-05
1.22065e-05
1.21818e-05
1.21479e-05
1.21058e-05
1.20566e-05
1.20017e-05
1.19421e-05
1.18784e-05
1.18113e-05
1.1741e-05
1.16725e-05
1.16131e-05
1.15636e-05
1.15201e-05
1.14794e-05
1.14389e-05
1.13963e-05
1.13507e-05
1.13021e-05
1.1252e-05
1.12037e-05
1.11613e-05
1.11288e-05
1.11085e-05
1.10993e-05
1.10973e-05
1.21314e-05
1.21381e-05
1.21473e-05
1.21544e-05
1.21555e-05
1.21474e-05
1.21284e-05
1.20986e-05
1.20592e-05
1.20118e-05
1.19583e-05
1.19006e-05
1.18401e-05
1.17777e-05
1.17141e-05
1.16497e-05
1.15885e-05
1.15364e-05
1.14936e-05
1.14564e-05
1.14221e-05
1.13884e-05
1.13532e-05
1.13156e-05
1.12752e-05
1.12326e-05
1.11899e-05
1.11505e-05
1.11185e-05
1.10969e-05
1.10862e-05
1.10836e-05
1.20178e-05
1.20262e-05
1.20356e-05
1.20404e-05
1.20372e-05
1.20238e-05
1.19995e-05
1.19652e-05
1.19224e-05
1.18735e-05
1.18204e-05
1.1765e-05
1.17086e-05
1.16521e-05
1.15961e-05
1.15407e-05
1.14892e-05
1.14461e-05
1.14111e-05
1.13811e-05
1.13537e-05
1.13271e-05
1.12998e-05
1.12707e-05
1.12392e-05
1.12054e-05
1.11703e-05
1.11363e-05
1.11071e-05
1.1086e-05
1.10746e-05
1.10713e-05
1.18701e-05
1.18783e-05
1.18827e-05
1.18795e-05
1.18683e-05
1.18486e-05
1.18207e-05
1.17856e-05
1.17449e-05
1.17002e-05
1.16533e-05
1.16056e-05
1.15582e-05
1.15117e-05
1.14665e-05
1.14226e-05
1.13824e-05
1.13492e-05
1.13225e-05
1.12999e-05
1.12795e-05
1.126e-05
1.12401e-05
1.12191e-05
1.11963e-05
1.11716e-05
1.11453e-05
1.11186e-05
1.10941e-05
1.10752e-05
1.10641e-05
1.10604e-05
1.16861e-05
1.16899e-05
1.1684e-05
1.16709e-05
1.16531e-05
1.16309e-05
1.16046e-05
1.15746e-05
1.15416e-05
1.15067e-05
1.14709e-05
1.14353e-05
1.14003e-05
1.13666e-05
1.13342e-05
1.1303e-05
1.12749e-05
1.12519e-05
1.12335e-05
1.1218e-05
1.12042e-05
1.11912e-05
1.1178e-05
1.11643e-05
1.11494e-05
1.11332e-05
1.11156e-05
1.10971e-05
1.10791e-05
1.10642e-05
1.10546e-05
1.1051e-05
1.14595e-05
1.14548e-05
1.14404e-05
1.14242e-05
1.14075e-05
1.13901e-05
1.13716e-05
1.13518e-05
1.1331e-05
1.13094e-05
1.12877e-05
1.12662e-05
1.12453e-05
1.12254e-05
1.12063e-05
1.11882e-05
1.11719e-05
1.11587e-05
1.11482e-05
1.11394e-05
1.11316e-05
1.11243e-05
1.1117e-05
1.11095e-05
1.11014e-05
1.10925e-05
1.10828e-05
1.10724e-05
1.10618e-05
1.10523e-05
1.10456e-05
1.10428e-05
1.11821e-05
1.1178e-05
1.11703e-05
1.1163e-05
1.11562e-05
1.11496e-05
1.1143e-05
1.11362e-05
1.11292e-05
1.1122e-05
1.11148e-05
1.11078e-05
1.1101e-05
1.10945e-05
1.10883e-05
1.10824e-05
1.10772e-05
1.10729e-05
1.10696e-05
1.10668e-05
1.10643e-05
1.1062e-05
1.10597e-05
1.10573e-05
1.10548e-05
1.10521e-05
1.10491e-05
1.10458e-05
1.10424e-05
1.10393e-05
1.10368e-05
1.10357e-05
)
;

boundaryField
{
    movingWall
    {
        type            fixedValue;
        value           uniform 1.1032e-05;
    }
    fixedWalls
    {
        type            zeroGradient;
    }
    floor
    {
        type            zeroGradient;
    }
    frontAndBack
    {
        type            empty;
    }
}


// ************************************************************************* //
