/*--------------------------------*- C++ -*----------------------------------*\
| =========                 |                                                 |
| \\      /  F ield         | OpenFOAM: The Open Source CFD Toolbox           |
|  \\    /   O peration     | Version:  2212                                  |
|   \\  /    A nd           | Website:  www.openfoam.com                      |
|    \\/     M anipulation  |                                                 |
\*---------------------------------------------------------------------------*/
FoamFile
{
    version     2.0;
    format      ascii;
    arch        "LSB;label=64;scalar=64";
    class       volScalarField;
    location    "690";
    object      p_rgh;
}
// * * * * * * * * * * * * * * * * * * * * * * * * * * * * * * * * * * * * * //

dimensions      [0 2 -2 0 0 0 0];

internalField   nonuniform List<scalar> 
1024
(
0.0431959
0.0431904
0.0431857
0.0431857
0.0431923
0.0432074
0.0432352
0.0432824
0.0433572
0.0434639
0.0435883
0.0436862
0.0436972
0.0436321
0.0434812
0.0432961
0.0431287
0.0430112
0.0429373
0.0428925
0.0428669
0.0428539
0.0428487
0.0428477
0.0428484
0.0428492
0.0428494
0.0428494
0.0428501
0.042852
0.0428545
0.0428564
0.0432093
0.0432039
0.0432004
0.0432018
0.0432093
0.0432247
0.0432526
0.0432997
0.0433744
0.0434812
0.0436056
0.0437028
0.0437138
0.0436493
0.0434979
0.0433119
0.0431434
0.043025
0.0429502
0.0429047
0.0428785
0.042865
0.0428592
0.0428577
0.0428578
0.042858
0.0428577
0.0428573
0.0428574
0.0428586
0.0428607
0.0428626
0.0432308
0.0432247
0.0432227
0.0432272
0.0432377
0.0432558
0.0432857
0.0433349
0.0434119
0.0435212
0.0436472
0.0437445
0.0437562
0.0436913
0.0435382
0.0433492
0.0431775
0.0430565
0.0429796
0.0429322
0.0429043
0.0428892
0.042882
0.0428792
0.0428781
0.0428769
0.0428752
0.0428731
0.0428716
0.0428717
0.0428735
0.0428759
0.043251
0.0432448
0.0432454
0.0432553
0.0432723
0.0432965
0.0433319
0.0433859
0.0434673
0.0435789
0.0437056
0.0438025
0.0438174
0.0437544
0.0436017
0.0434107
0.0432351
0.0431102
0.0430296
0.0429788
0.0429479
0.04293
0.0429204
0.0429153
0.0429119
0.0429083
0.0429036
0.0428982
0.0428936
0.0428915
0.0428929
0.0428961
0.0432565
0.0432515
0.0432572
0.0432761
0.0433039
0.0433386
0.0433829
0.0434429
0.0435269
0.0436367
0.0437593
0.0438538
0.0438764
0.0438209
0.0436763
0.0434899
0.0433148
0.0431869
0.0431024
0.0430475
0.0430123
0.0429904
0.042977
0.0429683
0.0429614
0.0429538
0.0429442
0.0429331
0.0429232
0.0429173
0.0429176
0.0429215
0.0432337
0.0432316
0.0432448
0.0432763
0.0433198
0.0433694
0.0434245
0.0434891
0.0435702
0.0436723
0.0437868
0.0438784
0.0439115
0.0438683
0.0437404
0.0435693
0.0434052
0.04328
0.0431944
0.0431363
0.0430968
0.0430701
0.0430518
0.0430382
0.043026
0.0430121
0.0429949
0.0429752
0.0429568
0.0429448
0.0429424
0.0429465
0.0431762
0.0431777
0.0431993
0.0432455
0.043308
0.0433754
0.0434419
0.0435082
0.043581
0.0436724
0.0437797
0.043871
0.0439143
0.0438835
0.0437756
0.043628
0.0434852
0.0433734
0.0432936
0.0432364
0.0431948
0.0431639
0.0431402
0.0431202
0.0431005
0.0430776
0.0430493
0.0430168
0.0429859
0.0429645
0.0429576
0.042961
0.0430891
0.0430938
0.0431221
0.0431815
0.0432628
0.0433488
0.0434262
0.0434922
0.0435551
0.0436384
0.0437446
0.0438399
0.0438904
0.0438676
0.0437766
0.0436529
0.0435366
0.0434478
0.0433825
0.0433328
0.0432933
0.0432606
0.0432321
0.0432048
0.0431751
0.0431394
0.0430953
0.043045
0.042997
0.0429627
0.042949
0.0429507
0.0429898
0.0429966
0.0430275
0.0430936
0.0431879
0.0432893
0.043377
0.0434433
0.0434994
0.0435825
0.0436962
0.0437983
0.0438515
0.0438312
0.04375
0.0436447
0.0435526
0.04349
0.0434451
0.0434095
0.0433776
0.0433465
0.0433146
0.0432793
0.0432371
0.0431841
0.0431185
0.0430445
0.0429744
0.0429241
0.0429022
0.0429013
0.0429076
0.0429147
0.0429434
0.0430055
0.0430994
0.043208
0.0433046
0.0433735
0.0434306
0.0435256
0.0436521
0.0437609
0.0438108
0.0437858
0.0437065
0.0436119
0.0435377
0.043497
0.0434742
0.0434562
0.043436
0.0434099
0.0433762
0.0433323
0.0432746
0.0431993
0.043106
0.0430023
0.0429062
0.0428384
0.0428079
0.0428043
0.0428698
0.0428757
0.0428991
0.0429521
0.0430359
0.0431353
0.0432274
0.0433017
0.0433798
0.0434962
0.0436362
0.0437453
0.0437816
0.0437419
0.0436559
0.0435647
0.0435021
0.0434771
0.0434732
0.0434727
0.0434653
0.0434458
0.0434109
0.0433573
0.0432806
0.0431777
0.0430506
0.0429127
0.0427893
0.0427054
0.042668
0.0426619
0.0428953
0.0428985
0.042914
0.042954
0.0430225
0.0431089
0.0431957
0.0432786
0.0433879
0.0435342
0.0436798
0.0437705
0.0437757
0.0437078
0.0436062
0.0435123
0.0434566
0.0434435
0.0434545
0.0434684
0.0434719
0.0434575
0.0434197
0.0433533
0.0432531
0.0431168
0.0429512
0.0427782
0.0426317
0.0425377
0.0424972
0.0424895
0.0429953
0.0429947
0.0430008
0.0430258
0.0430775
0.0431526
0.0432425
0.0433519
0.0435052
0.043672
0.0437999
0.0438457
0.043798
0.0436888
0.0435641
0.0434624
0.0434108
0.0434096
0.0434343
0.0434582
0.043467
0.043452
0.0434052
0.0433185
0.0431877
0.0430134
0.0428102
0.0426104
0.0424541
0.0423628
0.0423252
0.0423176
0.0431779
0.0431738
0.0431719
0.0431843
0.0432233
0.0432962
0.0434072
0.0435719
0.0437565
0.0439101
0.0439845
0.0439583
0.0438407
0.0436841
0.0435342
0.0434217
0.0433697
0.0433808
0.0434202
0.0434437
0.0434456
0.0434184
0.0433509
0.0432281
0.0430591
0.0428546
0.0426401
0.0424486
0.0423091
0.0422306
0.0421992
0.0421923
0.0434572
0.0434528
0.0434502
0.0434619
0.0435049
0.043597
0.0437523
0.0439437
0.0441068
0.0441967
0.0441821
0.0440709
0.0438849
0.0436925
0.043523
0.0433919
0.043321
0.0433175
0.0433416
0.0433422
0.0433199
0.0432685
0.0431803
0.043051
0.0428866
0.0427001
0.0425164
0.0423619
0.0422552
0.0421981
0.0421765
0.0421717
0.0438525
0.0438525
0.0438598
0.0438874
0.0439529
0.0440703
0.0442284
0.0443649
0.0444426
0.0444317
0.0443154
0.0441371
0.0439357
0.0437288
0.0435286
0.0433471
0.0432046
0.0431166
0.0430719
0.0430506
0.0430291
0.0429973
0.0429456
0.0428668
0.0427606
0.0426367
0.042515
0.0424162
0.0423533
0.0423253
0.042319
0.0423195
0.044267
0.0442721
0.0442923
0.0443394
0.0444209
0.0445244
0.0446072
0.0446437
0.044617
0.0445271
0.0443944
0.044234
0.0440517
0.0438501
0.0436333
0.0434117
0.0432057
0.0430485
0.0429573
0.0429265
0.0429395
0.042969
0.0429959
0.0430023
0.0429785
0.0429284
0.0428696
0.0428249
0.0428099
0.0428229
0.0428468
0.0428631
0.0445755
0.0445818
0.0446093
0.0446688
0.0447579
0.0448526
0.0449161
0.0449267
0.0448914
0.0448301
0.0447534
0.0446651
0.0445676
0.0444641
0.04436
0.0442667
0.0442071
0.0441964
0.0442341
0.0443127
0.0444216
0.0445499
0.0446732
0.0447648
0.0448042
0.0447822
0.0447062
0.0445964
0.0444836
0.044401
0.0443654
0.0443621
0.0446142
0.0446195
0.0446443
0.0446997
0.0447853
0.044884
0.0449703
0.0450296
0.0450654
0.045088
0.045103
0.0451116
0.0451117
0.045102
0.0450839
0.0450652
0.0450632
0.0450929
0.0451554
0.0452506
0.0453757
0.0455233
0.045679
0.0458238
0.0459385
0.0460088
0.046031
0.0460097
0.0459554
0.0458829
0.0458131
0.0457701
0.0445851
0.0445896
0.0446099
0.044658
0.0447376
0.044838
0.0449386
0.0450236
0.0450905
0.045145
0.0451913
0.04523
0.0452605
0.0452826
0.045298
0.0453103
0.0453287
0.0453542
0.0453796
0.0454186
0.0454776
0.0455566
0.0456525
0.0457574
0.0458591
0.0459445
0.0460048
0.0460375
0.0460457
0.0460367
0.046019
0.0460032
0.0445532
0.0445562
0.0445717
0.0446115
0.044683
0.0447812
0.0448894
0.0449896
0.045075
0.0451461
0.0452069
0.0452579
0.0452997
0.0453322
0.045356
0.0453734
0.045392
0.0454143
0.045434
0.0454523
0.0454756
0.0455073
0.045552
0.0456115
0.0456833
0.0457587
0.0458262
0.045876
0.0459038
0.0459125
0.0459086
0.0458998
0.0445395
0.0445409
0.0445523
0.0445843
0.0446459
0.044738
0.0448492
0.0449591
0.0450561
0.0451382
0.0452074
0.0452653
0.0453129
0.0453502
0.0453764
0.0453921
0.0454033
0.0454204
0.045447
0.0454715
0.0454907
0.0455056
0.0455207
0.0455436
0.0455826
0.0456378
0.0457
0.0457556
0.0457935
0.0458106
0.0458107
0.0458027
0.0445458
0.0445461
0.044554
0.0445797
0.0446337
0.044719
0.0448271
0.0449406
0.0450454
0.0451346
0.045209
0.0452701
0.0453203
0.0453601
0.0453885
0.0454038
0.045409
0.0454171
0.0454398
0.0454697
0.0454995
0.0455245
0.0455385
0.045548
0.0455691
0.0456088
0.0456648
0.045725
0.0457729
0.0457985
0.0458021
0.0457942
0.0445652
0.0445639
0.0445688
0.0445904
0.0446397
0.0447204
0.0448254
0.0449386
0.0450455
0.0451362
0.0452106
0.0452704
0.0453191
0.0453582
0.0453871
0.0454026
0.0454048
0.0454062
0.0454226
0.0454515
0.0454854
0.0455208
0.0455533
0.0455845
0.0456209
0.0456603
0.0457195
0.0457909
0.0458554
0.0458947
0.0459043
0.045898
0.0445897
0.0445871
0.0445903
0.0446107
0.0446587
0.0447381
0.0448411
0.0449513
0.0450541
0.0451396
0.0452077
0.0452606
0.0453025
0.0453356
0.0453601
0.0453731
0.0453726
0.0453693
0.0453802
0.0454063
0.0454432
0.0454896
0.0455449
0.0456099
0.0456845
0.0457659
0.0458565
0.0459496
0.0460417
0.046106
0.0461282
0.0461271
0.0446123
0.0446089
0.0446123
0.0446349
0.0446868
0.0447686
0.0448705
0.0449745
0.045067
0.0451402
0.0451949
0.0452345
0.0452633
0.0452842
0.0452986
0.0453043
0.0452995
0.0452924
0.0453
0.0453249
0.0453675
0.0454278
0.045509
0.0456137
0.0457412
0.0458862
0.0460395
0.0461892
0.0463258
0.0464334
0.0464823
0.0464945
0.044626
0.0446223
0.0446298
0.0446612
0.0447205
0.044808
0.0449081
0.0450016
0.0450774
0.0451313
0.045166
0.0451861
0.0451963
0.0452
0.0451999
0.0451955
0.045185
0.0451754
0.0451825
0.0452101
0.0452609
0.0453384
0.0454483
0.0455958
0.0457816
0.0459998
0.0462373
0.0464741
0.0466879
0.0468697
0.0469711
0.0470119
0.0446166
0.0446165
0.0446359
0.0446846
0.0447577
0.0448501
0.0449452
0.0450231
0.0450761
0.045105
0.0451151
0.0451119
0.0451009
0.045086
0.0450709
0.0450564
0.0450417
0.045032
0.0450412
0.0450746
0.0451363
0.0452324
0.0453707
0.0455592
0.0458011
0.0460928
0.046422
0.0467668
0.0470984
0.0473853
0.047584
0.0476838
0.04456
0.0445759
0.0446231
0.0447008
0.0447921
0.0448886
0.0449723
0.0450286
0.0450553
0.0450574
0.045042
0.045016
0.0449855
0.0449548
0.0449282
0.0449072
0.0448914
0.0448843
0.0448981
0.0449391
0.0450124
0.0451255
0.0452882
0.0455106
0.0457991
0.0461542
0.0465689
0.0470271
0.0475031
0.0479549
0.0483079
0.0485368
0.0443982
0.0444767
0.044592
0.0447133
0.0448237
0.0449178
0.0449837
0.0450157
0.0450165
0.0449944
0.0449576
0.0449138
0.0448695
0.0448288
0.044796
0.0447732
0.0447594
0.0447565
0.0447759
0.0448244
0.0449076
0.0450336
0.0452134
0.0454593
0.0457797
0.0461795
0.0466594
0.0472167
0.0478444
0.048516
0.0491484
0.0497014
0.0439228
0.0443179
0.044577
0.0447457
0.0448622
0.0449443
0.044989
0.0449977
0.0449768
0.044936
0.0448844
0.0448298
0.0447779
0.0447328
0.0446984
0.0446767
0.0446659
0.0446671
0.0446912
0.0447452
0.0448345
0.0449677
0.0451567
0.0454144
0.0457506
0.0461732
0.0466894
0.0473116
0.0480627
0.0489783
0.0500902
0.051352
0.0429068
0.0441491
0.044631
0.0447986
0.0449037
0.044972
0.0449994
0.0449914
0.0449567
0.0449051
0.0448457
0.0447857
0.0447307
0.0446842
0.0446497
0.0446293
0.0446206
0.0446241
0.0446506
0.044707
0.0447986
0.0449341
0.0451258
0.0453863
0.0457263
0.0461546
0.0466824
0.0473335
0.0481602
0.0492709
0.050886
0.0531539
)
;

boundaryField
{
    movingWall
    {
        type            fixedFluxPressure;
        gradient        uniform 0;
        value           nonuniform List<scalar> 
32
(
0.0429068
0.0441491
0.044631
0.0447986
0.0449037
0.044972
0.0449994
0.0449914
0.0449567
0.0449051
0.0448457
0.0447857
0.0447307
0.0446842
0.0446497
0.0446293
0.0446206
0.0446241
0.0446506
0.044707
0.0447986
0.0449341
0.0451258
0.0453863
0.0457263
0.0461546
0.0466824
0.0473335
0.0481602
0.0492709
0.050886
0.0531539
)
;
    }
    fixedWalls
    {
        type            fixedFluxPressure;
        gradient        uniform 0;
        value           nonuniform List<scalar> 
64
(
0.0431959
0.0432093
0.0432308
0.043251
0.0432565
0.0432337
0.0431762
0.0430891
0.0429898
0.0429076
0.0428698
0.0428953
0.0429953
0.0431779
0.0434572
0.0438525
0.044267
0.0445755
0.0446142
0.0445851
0.0445532
0.0445395
0.0445458
0.0445652
0.0445897
0.0446123
0.044626
0.0446166
0.04456
0.0443982
0.0439228
0.0429068
0.0428564
0.0428626
0.0428759
0.0428961
0.0429215
0.0429465
0.042961
0.0429507
0.0429013
0.0428043
0.0426619
0.0424895
0.0423176
0.0421923
0.0421717
0.0423195
0.0428631
0.0443621
0.0457701
0.0460032
0.0458998
0.0458027
0.0457942
0.045898
0.0461271
0.0464945
0.0470119
0.0476838
0.0485368
0.0497014
0.051352
0.0531539
)
;
    }
    floor
    {
        type            fixedFluxPressure;
        gradient        uniform 0;
        value           nonuniform List<scalar> 
32
(
0.0431959
0.0431904
0.0431857
0.0431857
0.0431923
0.0432074
0.0432352
0.0432824
0.0433572
0.0434639
0.0435883
0.0436862
0.0436972
0.0436321
0.0434812
0.0432961
0.0431287
0.0430112
0.0429373
0.0428925
0.0428669
0.0428539
0.0428487
0.0428477
0.0428484
0.0428492
0.0428494
0.0428494
0.0428501
0.042852
0.0428545
0.0428564
)
;
    }
    frontAndBack
    {
        type            empty;
    }
}


// ************************************************************************* //
