/*--------------------------------*- C++ -*----------------------------------*\
| =========                 |                                                 |
| \\      /  F ield         | OpenFOAM: The Open Source CFD Toolbox           |
|  \\    /   O peration     | Version:  2212                                  |
|   \\  /    A nd           | Website:  www.openfoam.com                      |
|    \\/     M anipulation  |                                                 |
\*---------------------------------------------------------------------------*/
FoamFile
{
    version     2.0;
    format      ascii;
    arch        "LSB;label=64;scalar=64";
    class       volScalarField;
    location    "690";
    object      Saa;
}
// * * * * * * * * * * * * * * * * * * * * * * * * * * * * * * * * * * * * * //

dimensions      [1 -3 0 0 0 0 0];

internalField   nonuniform List<scalar> 
1024
(
0.00547236
0.00547237
0.00547242
0.00547249
0.0054726
0.00547275
0.00547293
0.00547314
0.00547334
0.00547354
0.00547373
0.00547389
0.005474
0.00547406
0.00547403
0.0054739
0.00547367
0.00547338
0.00547308
0.00547277
0.00547244
0.00547208
0.00547169
0.00547128
0.00547088
0.00547052
0.00547021
0.00546997
0.00546981
0.0054697
0.00546964
0.00546961
0.00547236
0.00547238
0.00547242
0.0054725
0.00547261
0.00547276
0.00547295
0.00547315
0.00547335
0.00547355
0.00547374
0.0054739
0.00547402
0.00547407
0.00547404
0.00547391
0.00547368
0.00547339
0.00547309
0.00547278
0.00547245
0.0054721
0.00547171
0.00547131
0.00547091
0.00547054
0.00547023
0.00546999
0.00546982
0.00546971
0.00546964
0.00546962
0.00547236
0.00547238
0.00547243
0.00547251
0.00547262
0.00547278
0.00547297
0.00547317
0.00547337
0.00547357
0.00547376
0.00547393
0.00547405
0.0054741
0.00547406
0.00547392
0.00547369
0.00547341
0.00547311
0.00547281
0.00547248
0.00547214
0.00547176
0.00547136
0.00547096
0.00547058
0.00547027
0.00547002
0.00546984
0.00546972
0.00546966
0.00546963
0.00547236
0.00547238
0.00547243
0.00547252
0.00547264
0.0054728
0.00547299
0.00547319
0.0054734
0.0054736
0.0054738
0.00547398
0.00547411
0.00547415
0.0054741
0.00547395
0.00547371
0.00547342
0.00547313
0.00547283
0.00547252
0.00547219
0.00547182
0.00547143
0.00547103
0.00547065
0.00547032
0.00547006
0.00546988
0.00546975
0.00546969
0.00546966
0.00547237
0.00547239
0.00547244
0.00547252
0.00547265
0.00547281
0.005473
0.0054732
0.00547341
0.00547363
0.00547385
0.00547406
0.00547419
0.00547423
0.00547415
0.00547398
0.00547372
0.00547343
0.00547314
0.00547285
0.00547255
0.00547224
0.00547189
0.00547151
0.00547112
0.00547074
0.0054704
0.00547012
0.00546993
0.0054698
0.00546972
0.00546969
0.00547236
0.00547238
0.00547243
0.00547252
0.00547264
0.0054728
0.00547299
0.0054732
0.00547342
0.00547366
0.00547391
0.00547415
0.00547431
0.00547433
0.00547422
0.00547399
0.0054737
0.0054734
0.00547311
0.00547283
0.00547256
0.00547227
0.00547195
0.00547159
0.00547121
0.00547083
0.00547048
0.0054702
0.00546999
0.00546985
0.00546977
0.00546974
0.00547235
0.00547237
0.00547242
0.0054725
0.00547262
0.00547277
0.00547296
0.00547317
0.0054734
0.00547367
0.00547397
0.00547427
0.00547445
0.00547445
0.00547428
0.00547398
0.00547364
0.00547331
0.00547303
0.00547277
0.00547251
0.00547225
0.00547197
0.00547164
0.00547128
0.00547091
0.00547056
0.00547027
0.00547005
0.0054699
0.00546982
0.00546979
0.00547232
0.00547234
0.00547239
0.00547246
0.00547257
0.00547271
0.00547289
0.0054731
0.00547336
0.00547367
0.00547403
0.00547439
0.00547461
0.00547458
0.00547431
0.00547392
0.0054735
0.00547314
0.00547286
0.00547261
0.00547239
0.00547217
0.00547192
0.00547164
0.00547131
0.00547096
0.00547062
0.00547032
0.0054701
0.00546995
0.00546987
0.00546984
0.00547227
0.00547229
0.00547233
0.0054724
0.0054725
0.00547263
0.00547279
0.00547301
0.00547328
0.00547364
0.00547409
0.00547453
0.00547477
0.00547468
0.00547429
0.00547375
0.00547324
0.00547284
0.00547256
0.00547234
0.00547216
0.00547199
0.00547179
0.00547155
0.00547127
0.00547095
0.00547063
0.00547035
0.00547013
0.00546999
0.00546991
0.00546988
0.00547219
0.00547221
0.00547225
0.00547231
0.00547239
0.00547251
0.00547266
0.00547288
0.00547319
0.00547362
0.00547418
0.0054747
0.00547494
0.00547474
0.00547417
0.00547345
0.00547281
0.00547238
0.0054721
0.00547192
0.00547179
0.00547168
0.00547155
0.00547138
0.00547114
0.00547087
0.00547059
0.00547033
0.00547014
0.00547
0.00546992
0.00546989
0.00547208
0.00547209
0.00547213
0.00547218
0.00547226
0.00547236
0.00547251
0.00547275
0.00547311
0.00547365
0.00547434
0.00547494
0.00547513
0.00547475
0.00547392
0.00547297
0.00547219
0.00547171
0.00547145
0.00547132
0.00547127
0.00547124
0.00547119
0.00547109
0.00547092
0.00547071
0.00547048
0.00547026
0.00547009
0.00546997
0.0054699
0.00546988
0.00547195
0.00547197
0.005472
0.00547204
0.00547212
0.00547222
0.0054724
0.00547268
0.00547315
0.00547383
0.00547465
0.00547528
0.00547535
0.00547469
0.00547354
0.0054723
0.00547136
0.00547085
0.00547062
0.00547056
0.0054706
0.00547066
0.00547071
0.0054707
0.00547061
0.00547047
0.0054703
0.00547013
0.00547
0.0054699
0.00546984
0.00546981
0.00547192
0.00547193
0.00547195
0.00547199
0.00547208
0.00547222
0.00547245
0.00547285
0.00547347
0.00547432
0.00547522
0.00547577
0.00547558
0.00547457
0.00547306
0.00547153
0.00547043
0.00546988
0.00546968
0.0054697
0.00546983
0.00546999
0.00547014
0.00547022
0.00547022
0.00547016
0.00547005
0.00546994
0.00546984
0.00546975
0.0054697
0.00546967
0.0054722
0.00547221
0.00547223
0.00547229
0.0054724
0.00547261
0.00547296
0.00547352
0.00547431
0.00547526
0.0054761
0.0054764
0.00547582
0.00547442
0.00547262
0.00547088
0.00546964
0.00546903
0.00546883
0.00546888
0.00546908
0.00546932
0.00546954
0.0054697
0.00546977
0.00546977
0.00546973
0.00546966
0.00546958
0.00546951
0.00546947
0.00546944
0.00547309
0.00547311
0.00547315
0.00547324
0.00547342
0.00547372
0.00547421
0.00547491
0.00547578
0.00547666
0.00547722
0.00547709
0.00547612
0.0054745
0.00547262
0.00547084
0.0054695
0.00546875
0.00546844
0.00546841
0.00546857
0.00546881
0.00546905
0.00546925
0.00546936
0.00546939
0.00546936
0.0054693
0.00546922
0.00546915
0.00546911
0.00546908
0.00547465
0.00547468
0.00547475
0.00547489
0.00547514
0.00547555
0.00547613
0.00547687
0.00547766
0.00547829
0.00547847
0.005478
0.00547693
0.00547549
0.00547391
0.00547232
0.00547095
0.00546995
0.0054693
0.0054689
0.00546866
0.00546852
0.00546846
0.00546844
0.00546845
0.00546846
0.00546849
0.00546854
0.0054686
0.00546867
0.00546872
0.00546875
0.0054764
0.00547643
0.00547653
0.00547672
0.00547704
0.00547752
0.00547816
0.00547889
0.00547957
0.00548001
0.00548008
0.00547978
0.00547921
0.00547848
0.00547764
0.00547672
0.00547576
0.00547492
0.0054742
0.00547359
0.00547305
0.00547258
0.00547219
0.00547188
0.00547169
0.00547161
0.00547165
0.00547179
0.005472
0.0054722
0.00547237
0.00547245
0.00547769
0.00547774
0.00547786
0.00547809
0.00547848
0.00547903
0.00547974
0.00548053
0.00548127
0.00548185
0.00548225
0.00548252
0.00548275
0.00548298
0.00548322
0.0054835
0.00548381
0.00548415
0.00548448
0.00548477
0.005485
0.00548513
0.00548516
0.00548508
0.00548489
0.00548462
0.0054843
0.00548397
0.00548369
0.0054835
0.0054834
0.00548336
0.00547833
0.00547837
0.00547849
0.00547872
0.00547909
0.00547963
0.00548033
0.00548115
0.00548201
0.00548282
0.00548357
0.0054843
0.00548508
0.00548596
0.00548697
0.00548814
0.00548944
0.00549073
0.00549191
0.00549297
0.00549388
0.00549461
0.00549515
0.00549547
0.00549556
0.00549543
0.00549509
0.00549461
0.00549409
0.00549363
0.00549331
0.00549317
0.0054786
0.00547865
0.00547875
0.00547896
0.00547929
0.00547979
0.00548044
0.00548123
0.0054821
0.00548299
0.00548388
0.00548478
0.00548575
0.00548686
0.00548816
0.00548966
0.00549127
0.00549277
0.00549403
0.00549508
0.00549595
0.00549666
0.00549724
0.0054977
0.00549803
0.00549823
0.00549829
0.00549822
0.00549805
0.00549783
0.00549764
0.00549754
0.00547868
0.00547872
0.00547881
0.005479
0.00547929
0.00547972
0.0054803
0.00548102
0.00548183
0.0054827
0.00548358
0.0054845
0.00548549
0.00548662
0.00548794
0.00548947
0.0054911
0.00549255
0.00549372
0.00549466
0.00549543
0.0054961
0.0054967
0.00549725
0.00549773
0.00549813
0.00549843
0.00549862
0.00549871
0.00549872
0.0054987
0.00549867
0.00547866
0.00547869
0.00547878
0.00547894
0.00547919
0.00547956
0.00548006
0.00548069
0.00548141
0.00548221
0.00548304
0.00548393
0.00548489
0.00548598
0.00548726
0.00548876
0.00549033
0.00549172
0.00549284
0.00549375
0.00549454
0.00549526
0.00549596
0.00549665
0.0054973
0.00549786
0.0054983
0.00549862
0.00549881
0.00549891
0.00549894
0.00549895
0.00547866
0.00547868
0.00547875
0.00547887
0.00547908
0.00547939
0.00547981
0.00548035
0.005481
0.00548173
0.00548252
0.00548339
0.00548434
0.00548544
0.0054867
0.00548816
0.00548968
0.00549103
0.00549214
0.00549306
0.00549387
0.00549464
0.0054954
0.00549618
0.00549694
0.00549762
0.00549819
0.00549861
0.00549888
0.00549902
0.00549908
0.0054991
0.00547881
0.00547882
0.00547884
0.00547892
0.00547906
0.00547931
0.00547967
0.00548015
0.00548075
0.00548145
0.00548225
0.00548314
0.00548415
0.00548528
0.00548656
0.00548799
0.00548947
0.00549078
0.00549186
0.00549278
0.00549359
0.00549437
0.00549514
0.00549594
0.00549672
0.00549747
0.00549811
0.00549861
0.00549894
0.00549913
0.00549921
0.00549923
0.00547927
0.00547924
0.00547921
0.00547921
0.00547929
0.00547947
0.00547979
0.00548025
0.00548086
0.00548159
0.00548245
0.00548342
0.00548449
0.00548567
0.00548697
0.00548838
0.00548979
0.00549103
0.00549206
0.00549293
0.00549371
0.00549444
0.00549518
0.00549593
0.00549669
0.00549743
0.00549809
0.00549863
0.00549901
0.00549924
0.00549934
0.00549937
0.00548015
0.00548008
0.00547998
0.00547991
0.00547993
0.00548008
0.0054804
0.00548089
0.00548155
0.00548236
0.0054833
0.00548434
0.00548547
0.00548668
0.00548795
0.00548929
0.0054906
0.00549173
0.00549266
0.00549345
0.00549416
0.00549482
0.00549548
0.00549615
0.00549683
0.00549751
0.00549814
0.00549868
0.00549909
0.00549934
0.00549946
0.00549949
0.00548154
0.00548143
0.00548128
0.00548117
0.00548117
0.00548134
0.00548171
0.00548227
0.00548301
0.00548389
0.00548488
0.00548595
0.00548708
0.00548824
0.00548943
0.00549064
0.0054918
0.00549278
0.00549359
0.00549426
0.00549487
0.00549543
0.00549598
0.00549655
0.00549712
0.00549771
0.00549828
0.00549878
0.00549918
0.00549944
0.00549957
0.00549961
0.00548348
0.00548334
0.00548318
0.00548311
0.00548318
0.00548343
0.00548388
0.00548451
0.00548528
0.00548617
0.00548714
0.00548815
0.00548918
0.00549022
0.00549125
0.00549229
0.00549325
0.00549406
0.00549472
0.00549527
0.00549575
0.0054962
0.00549664
0.00549708
0.00549754
0.00549801
0.00549848
0.00549892
0.00549928
0.00549953
0.00549967
0.00549971
0.00548598
0.00548584
0.00548577
0.00548583
0.00548604
0.00548639
0.00548688
0.00548751
0.00548824
0.00548903
0.00548988
0.00549074
0.0054916
0.00549244
0.00549327
0.00549408
0.00549483
0.00549546
0.00549596
0.00549637
0.00549674
0.00549707
0.00549739
0.00549772
0.00549805
0.0054984
0.00549876
0.0054991
0.0054994
0.00549963
0.00549975
0.0054998
0.00548908
0.00548902
0.00548912
0.00548934
0.00548965
0.00549004
0.0054905
0.00549103
0.00549161
0.00549223
0.00549286
0.0054935
0.00549413
0.00549474
0.00549533
0.00549591
0.00549643
0.00549686
0.00549721
0.00549749
0.00549774
0.00549796
0.00549818
0.0054984
0.00549862
0.00549885
0.00549909
0.00549933
0.00549955
0.00549972
0.00549983
0.00549987
0.00549288
0.00549296
0.0054932
0.00549348
0.00549376
0.00549406
0.00549438
0.00549472
0.00549509
0.00549547
0.00549586
0.00549624
0.00549661
0.00549697
0.00549732
0.00549765
0.00549796
0.0054982
0.0054984
0.00549856
0.0054987
0.00549883
0.00549895
0.00549907
0.00549919
0.00549932
0.00549945
0.00549959
0.00549972
0.00549983
0.0054999
0.00549993
0.00549751
0.00549758
0.00549771
0.00549783
0.00549794
0.00549806
0.00549817
0.00549829
0.00549841
0.00549854
0.00549866
0.00549879
0.00549891
0.00549903
0.00549914
0.00549925
0.00549935
0.00549943
0.00549949
0.00549954
0.00549959
0.00549963
0.00549966
0.0054997
0.00549974
0.00549978
0.00549982
0.00549986
0.0054999
0.00549994
0.00549997
0.00549998
)
;

boundaryField
{
    movingWall
    {
        type            fixedValue;
        value           uniform 0.0055;
    }
    fixedWalls
    {
        type            zeroGradient;
    }
    floor
    {
        type            zeroGradient;
    }
    frontAndBack
    {
        type            empty;
    }
}


// ************************************************************************* //
