/*--------------------------------*- C++ -*----------------------------------*\
| =========                 |                                                 |
| \\      /  F ield         | OpenFOAM: The Open Source CFD Toolbox           |
|  \\    /   O peration     | Version:  2212                                  |
|   \\  /    A nd           | Website:  www.openfoam.com                      |
|    \\/     M anipulation  |                                                 |
\*---------------------------------------------------------------------------*/
FoamFile
{
    version     2.0;
    format      ascii;
    arch        "LSB;label=64;scalar=64";
    class       volVectorField;
    location    "0.09";
    object      U;
}
// * * * * * * * * * * * * * * * * * * * * * * * * * * * * * * * * * * * * * //

dimensions      [0 1 -1 0 0 0 0];

internalField   nonuniform List<vector> 
32768
(
(-1.70548e-07 -1.00187e-05 0)
(4.52007e-05 -4.36831e-05 0)
(0.000125393 -5.76924e-05 0)
(0.000214798 -6.16875e-05 0)
(0.000305847 -6.24189e-05 0)
(0.000396541 -6.21506e-05 0)
(0.000486406 -6.14812e-05 0)
(0.000575168 -6.05679e-05 0)
(0.000662576 -5.94574e-05 0)
(0.000748401 -5.8169e-05 0)
(0.000832426 -5.67141e-05 0)
(0.000914442 -5.51012e-05 0)
(0.000994245 -5.33373e-05 0)
(0.00107164 -5.14287e-05 0)
(0.00114643 -4.93815e-05 0)
(0.00121843 -4.72017e-05 0)
(0.00128745 -4.48956e-05 0)
(0.00135334 -4.24695e-05 0)
(0.0014159 -3.99302e-05 0)
(0.00147499 -3.72849e-05 0)
(0.00153044 -3.45411e-05 0)
(0.00158211 -3.17064e-05 0)
(0.00162986 -2.87892e-05 0)
(0.00167357 -2.57981e-05 0)
(0.0017131 -2.27419e-05 0)
(0.00174834 -1.96302e-05 0)
(0.00177921 -1.64728e-05 0)
(0.00180559 -1.32805e-05 0)
(0.00182743 -1.00649e-05 0)
(0.00184465 -6.83926e-06 0)
(0.0018572 -3.61985e-06 0)
(0.00186505 -4.28552e-07 0)
(0.00186818 2.70577e-06 0)
(0.00186662 5.76882e-06 0)
(0.00186038 8.81076e-06 0)
(0.0018494 1.18513e-05 0)
(0.00183371 1.48898e-05 0)
(0.0018133 1.79118e-05 0)
(0.0017882 2.0901e-05 0)
(0.00175845 2.38429e-05 0)
(0.00172412 2.6725e-05 0)
(0.00168527 2.95364e-05 0)
(0.00164199 3.22682e-05 0)
(0.00159438 3.49121e-05 0)
(0.00154256 3.74609e-05 0)
(0.00148666 3.99083e-05 0)
(0.00142681 4.22484e-05 0)
(0.00136317 4.4476e-05 0)
(0.00129589 4.65866e-05 0)
(0.00122516 4.8576e-05 0)
(0.00115114 5.04408e-05 0)
(0.00107403 5.2178e-05 0)
(0.00099404 5.37851e-05 0)
(0.000911362 5.52599e-05 0)
(0.000826217 5.66007e-05 0)
(0.000738824 5.7806e-05 0)
(0.000649412 5.88746e-05 0)
(0.000558211 5.98051e-05 0)
(0.000465461 6.05963e-05 0)
(0.000371401 6.12461e-05 0)
(0.000276275 6.17533e-05 0)
(0.000180348 6.21175e-05 0)
(8.39793e-05 6.23205e-05 0)
(-1.28469e-05 6.23471e-05 0)
(-0.000110089 6.23812e-05 0)
(-0.000206629 6.2368e-05 0)
(-0.000303019 6.21208e-05 0)
(-0.000398874 6.17003e-05 0)
(-0.00049384 6.11224e-05 0)
(-0.000587651 6.03905e-05 0)
(-0.000680056 5.95092e-05 0)
(-0.000770809 5.84826e-05 0)
(-0.000859667 5.73137e-05 0)
(-0.000946395 5.6005e-05 0)
(-0.00103076 5.4559e-05 0)
(-0.00111255 5.29778e-05 0)
(-0.00119154 5.12642e-05 0)
(-0.00126752 4.9421e-05 0)
(-0.00134031 4.74515e-05 0)
(-0.0014097 4.53592e-05 0)
(-0.00147553 4.31484e-05 0)
(-0.00153762 4.08236e-05 0)
(-0.00159582 3.83899e-05 0)
(-0.00164997 3.58531e-05 0)
(-0.00169995 3.32194e-05 0)
(-0.00174563 3.04957e-05 0)
(-0.0017869 2.76897e-05 0)
(-0.00182368 2.48098e-05 0)
(-0.00185587 2.18659e-05 0)
(-0.00188341 1.88691e-05 0)
(-0.00190625 1.5833e-05 0)
(-0.00192436 1.27733e-05 0)
(-0.00193772 9.70736e-06 0)
(-0.00194632 6.6499e-06 0)
(-0.00195018 3.59463e-06 0)
(-0.0019494 4.92427e-07 0)
(-0.00194386 -2.67827e-06 0)
(-0.00193357 -5.9016e-06 0)
(-0.00191855 -9.1501e-06 0)
(-0.00189883 -1.24031e-05 0)
(-0.00187448 -1.56446e-05 0)
(-0.00184554 -1.88611e-05 0)
(-0.00181211 -2.20406e-05 0)
(-0.00177428 -2.51721e-05 0)
(-0.00173214 -2.82453e-05 0)
(-0.00168583 -3.12508e-05 0)
(-0.00163545 -3.41793e-05 0)
(-0.00158114 -3.70223e-05 0)
(-0.00152305 -3.97713e-05 0)
(-0.00146133 -4.24187e-05 0)
(-0.00139612 -4.49569e-05 0)
(-0.00132761 -4.73791e-05 0)
(-0.00125596 -4.96785e-05 0)
(-0.00118135 -5.18489e-05 0)
(-0.00110396 -5.38841e-05 0)
(-0.00102399 -5.57785e-05 0)
(-0.000941618 -5.75261e-05 0)
(-0.000857056 -5.91211e-05 0)
(-0.000770507 -6.05567e-05 0)
(-0.00068218 -6.18249e-05 0)
(-0.000592294 -6.29147e-05 0)
(-0.00050108 -6.38073e-05 0)
(-0.000408785 -6.44567e-05 0)
(-0.000315673 -6.4708e-05 0)
(-0.000222236 -6.39659e-05 0)
(-0.000130527 -5.99556e-05 0)
(-4.81016e-05 -4.58767e-05 0)
(-5.74458e-07 -1.17056e-05 0)
(1.92938e-06 -7.49689e-05 0)
(7.89308e-05 -0.000228679 0)
(0.000195453 -0.000291063 0)
(0.000323453 -0.000307764 0)
(0.00045334 -0.000309886 0)
(0.000582452 -0.000307947 0)
(0.00071021 -0.000304587 0)
(0.000836356 -0.000300365 0)
(0.00096063 -0.000295398 0)
(0.00108277 -0.000289719 0)
(0.0012025 -0.000283348 0)
(0.00131957 -0.000276299 0)
(0.00143371 -0.000268587 0)
(0.00154466 -0.000260228 0)
(0.00165217 -0.000251236 0)
(0.00175599 -0.000241628 0)
(0.00185585 -0.00023142 0)
(0.00195153 -0.000220632 0)
(0.00204279 -0.000209283 0)
(0.00212939 -0.000197394 0)
(0.00221112 -0.000184987 0)
(0.00228775 -0.000172086 0)
(0.00235908 -0.000158717 0)
(0.00242492 -0.000144908 0)
(0.00248506 -0.000130687 0)
(0.00253934 -0.000116084 0)
(0.00258758 -0.000101133 0)
(0.00262962 -8.58674e-05 0)
(0.00266532 -7.03242e-05 0)
(0.00269454 -5.45429e-05 0)
(0.00271715 -3.85667e-05 0)
(0.00273303 -2.24434e-05 0)
(0.00274208 -6.22624e-06 0)
(0.00274414 1.0038e-05 0)
(0.0027392 2.6342e-05 0)
(0.00272723 4.26804e-05 0)
(0.00270823 5.9018e-05 0)
(0.0026822 7.53046e-05 0)
(0.00264918 9.14871e-05 0)
(0.00260921 0.000107513 0)
(0.00256236 0.000123334 0)
(0.0025087 0.000138899 0)
(0.00244834 0.000154163 0)
(0.00238139 0.000169079 0)
(0.00230799 0.000183603 0)
(0.00222829 0.00019769 0)
(0.00214249 0.000211299 0)
(0.00205077 0.000224388 0)
(0.00195335 0.000236918 0)
(0.00185048 0.000248851 0)
(0.0017424 0.000260151 0)
(0.00162939 0.000270785 0)
(0.00151175 0.00028072 0)
(0.00138977 0.000289926 0)
(0.00126378 0.000298376 0)
(0.00113413 0.000306044 0)
(0.00100115 0.000312907 0)
(0.000865222 0.000318945 0)
(0.000726708 0.000324138 0)
(0.000585993 0.000328469 0)
(0.00044346 0.000331922 0)
(0.000299523 0.000334482 0)
(0.000154747 0.000336136 0)
(9.20152e-06 0.000336896 0)
(-0.000137328 0.000336848 0)
(-0.000282304 0.000335962 0)
(-0.000426904 0.000334121 0)
(-0.000570508 0.000331327 0)
(-0.00071259 0.000327607 0)
(-0.000852747 0.000322985 0)
(-0.000990595 0.000317482 0)
(-0.00112575 0.00031112 0)
(-0.00125784 0.000303923 0)
(-0.00138649 0.000295914 0)
(-0.00151136 0.00028712 0)
(-0.00163211 0.000277568 0)
(-0.00174842 0.00026729 0)
(-0.00185998 0.000256317 0)
(-0.0019665 0.000244684 0)
(-0.00206772 0.000232426 0)
(-0.00216337 0.000219582 0)
(-0.00225324 0.00020619 0)
(-0.0023371 0.000192293 0)
(-0.00241477 0.000177932 0)
(-0.00248606 0.000163152 0)
(-0.00255084 0.000147997 0)
(-0.00260896 0.000132514 0)
(-0.00266032 0.000116748 0)
(-0.00270482 0.00010075 0)
(-0.0027424 8.45681e-05 0)
(-0.00277299 6.82539e-05 0)
(-0.00279656 5.18608e-05 0)
(-0.00281308 3.54441e-05 0)
(-0.00282256 1.90511e-05 0)
(-0.00282502 2.706e-06 0)
(-0.00282039 -1.36081e-05 0)
(-0.00280881 -2.98826e-05 0)
(-0.0027904 -4.60657e-05 0)
(-0.00276526 -6.21015e-05 0)
(-0.00273352 -7.79406e-05 0)
(-0.00269529 -9.35382e-05 0)
(-0.00265072 -0.000108854 0)
(-0.00259994 -0.000123849 0)
(-0.00254312 -0.000138489 0)
(-0.00248044 -0.000152741 0)
(-0.00241207 -0.000166572 0)
(-0.0023382 -0.000179955 0)
(-0.00225904 -0.000192862 0)
(-0.00217479 -0.000205266 0)
(-0.00208568 -0.000217145 0)
(-0.00199192 -0.000228476 0)
(-0.00189375 -0.000239237 0)
(-0.00179141 -0.000249411 0)
(-0.00168514 -0.000258979 0)
(-0.00157519 -0.000267924 0)
(-0.00146182 -0.000276232 0)
(-0.00134527 -0.000283886 0)
(-0.00122582 -0.000290874 0)
(-0.00110372 -0.000297181 0)
(-0.000979234 -0.000302794 0)
(-0.000852635 -0.000307694 0)
(-0.000724183 -0.000311849 0)
(-0.000594135 -0.000315144 0)
(-0.000462741 -0.000317019 0)
(-0.000330591 -0.000314836 0)
(-0.000200412 -0.00029806 0)
(-8.17618e-05 -0.000235454 0)
(-2.57413e-06 -8.00464e-05 0)
(3.02054e-06 -0.000154642 0)
(8.57934e-05 -0.000432735 0)
(0.000207075 -0.000542012 0)
(0.000340265 -0.000570266 0)
(0.000475558 -0.000573193 0)
(0.000610167 -0.000569246 0)
(0.000743455 -0.00056295 0)
(0.00087512 -0.000555216 0)
(0.00100488 -0.000546207 0)
(0.00113244 -0.000535958 0)
(0.00125754 -0.000524484 0)
(0.00137989 -0.000511801 0)
(0.00149923 -0.000497928 0)
(0.00161528 -0.000482885 0)
(0.00172778 -0.000466693 0)
(0.00183646 -0.000449377 0)
(0.00194108 -0.000430965 0)
(0.00204138 -0.000411484 0)
(0.00213711 -0.000390966 0)
(0.00222803 -0.000369446 0)
(0.00231391 -0.000346959 0)
(0.00239451 -0.000323544 0)
(0.00246963 -0.000299244 0)
(0.00253905 -0.000274104 0)
(0.00260257 -0.00024817 0)
(0.00266 -0.000221494 0)
(0.00271115 -0.00019413 0)
(0.00275587 -0.000166132 0)
(0.00279397 -0.000137562 0)
(0.00282533 -0.000108479 0)
(0.00284981 -7.8948e-05 0)
(0.00286728 -4.90305e-05 0)
(0.00287765 -1.87878e-05 0)
(0.00288079 1.17114e-05 0)
(0.00287668 4.23549e-05 0)
(0.00286529 7.3075e-05 0)
(0.00284655 0.000103791 0)
(0.00282045 0.000134423 0)
(0.00278699 0.000164885 0)
(0.00274621 0.000195094 0)
(0.00269816 0.000224965 0)
(0.0026429 0.00025441 0)
(0.00258053 0.000283344 0)
(0.00251115 0.000311678 0)
(0.00243491 0.000339328 0)
(0.00235196 0.000366206 0)
(0.00226247 0.000392228 0)
(0.00216665 0.000417311 0)
(0.00206472 0.000441376 0)
(0.00195693 0.000464343 0)
(0.00184354 0.000486137 0)
(0.00172484 0.000506686 0)
(0.00160113 0.000525923 0)
(0.00147273 0.000543782 0)
(0.00134 0.000560203 0)
(0.00120329 0.000575132 0)
(0.00106297 0.000588517 0)
(0.000919444 0.000600312 0)
(0.000773101 0.000610478 0)
(0.000624359 0.00061898 0)
(0.000473632 0.00062579 0)
(0.000321368 0.000630885 0)
(0.000168185 0.000634248 0)
(1.42082e-05 0.000635849 0)
(-0.000140903 0.000635647 0)
(-0.000294303 0.000633654 0)
(-0.000447322 0.000629881 0)
(-0.000599252 0.000624337 0)
(-0.00074952 0.000617047 0)
(-0.000897694 0.000608038 0)
(-0.00104336 0.000597344 0)
(-0.0011861 0.000585005 0)
(-0.00132551 0.000571065 0)
(-0.00146121 0.000555575 0)
(-0.00159282 0.000538589 0)
(-0.00171997 0.000520167 0)
(-0.00184233 0.000500373 0)
(-0.00195958 0.000479276 0)
(-0.00207141 0.000456946 0)
(-0.00217754 0.00043346 0)
(-0.00227771 0.000408896 0)
(-0.00237167 0.000383334 0)
(-0.00245922 0.000356858 0)
(-0.00254016 0.000329552 0)
(-0.00261431 0.000301505 0)
(-0.00268152 0.000272802 0)
(-0.00274167 0.000243533 0)
(-0.00279464 0.000213786 0)
(-0.00284036 0.000183649 0)
(-0.00287877 0.000153209 0)
(-0.00290981 0.000122552 0)
(-0.00293348 9.17652e-05 0)
(-0.00294976 6.09304e-05 0)
(-0.00295869 3.01242e-05 0)
(-0.00296031 -5.84877e-07 0)
(-0.00295461 -3.11258e-05 0)
(-0.00294173 -6.14217e-05 0)
(-0.00292174 -9.14025e-05 0)
(-0.00289473 -0.000121 0)
(-0.00286084 -0.000150147 0)
(-0.0028202 -0.000178778 0)
(-0.00277296 -0.000206827 0)
(-0.00271927 -0.000234236 0)
(-0.00265931 -0.000260946 0)
(-0.00259326 -0.000286902 0)
(-0.00252131 -0.000312054 0)
(-0.00244368 -0.000336354 0)
(-0.00236057 -0.000359756 0)
(-0.0022722 -0.000382219 0)
(-0.0021788 -0.000403704 0)
(-0.00208061 -0.000424175 0)
(-0.00197786 -0.000443599 0)
(-0.00187082 -0.000461945 0)
(-0.00175972 -0.000479184 0)
(-0.00164483 -0.000495292 0)
(-0.00152642 -0.000510244 0)
(-0.00140474 -0.000524021 0)
(-0.00128006 -0.000536602 0)
(-0.00115267 -0.000547971 0)
(-0.00102283 -0.000558114 0)
(-0.000890815 -0.000567016 0)
(-0.000756915 -0.000574646 0)
(-0.000621412 -0.00058084 0)
(-0.000484595 -0.000584686 0)
(-0.000347117 -0.000581657 0)
(-0.000211825 -0.000553276 0)
(-8.84899e-05 -0.000443628 0)
(-3.64134e-06 -0.000162789 0)
(3.20708e-06 -0.000238563 0)
(8.8459e-05 -0.000644408 0)
(0.000212666 -0.000801899 0)
(0.00034909 -0.00084245 0)
(0.000487689 -0.000846602 0)
(0.000625622 -0.00084084 0)
(0.000762233 -0.000831658 0)
(0.000897212 -0.000820375 0)
(0.00103026 -0.000807232 0)
(0.00116109 -0.000792281 0)
(0.00128941 -0.000775545 0)
(0.00141495 -0.000757046 0)
(0.00153743 -0.000736808 0)
(0.00165657 -0.000714857 0)
(0.0017721 -0.000691223 0)
(0.00188375 -0.000665939 0)
(0.00199127 -0.000639042 0)
(0.00209439 -0.000610569 0)
(0.00219286 -0.000580565 0)
(0.00228643 -0.000549075 0)
(0.00237486 -0.000516149 0)
(0.00245792 -0.000481842 0)
(0.00253538 -0.000446212 0)
(0.00260703 -0.000409321 0)
(0.00267265 -0.000371234 0)
(0.00273204 -0.000332024 0)
(0.00278502 -0.000291765 0)
(0.0028314 -0.000250538 0)
(0.00287102 -0.000208425 0)
(0.00290374 -0.000165515 0)
(0.0029294 -0.000121899 0)
(0.00294788 -7.76736e-05 0)
(0.00295909 -3.29366e-05 0)
(0.00296286 1.22062e-05 0)
(0.00295922 5.76204e-05 0)
(0.00294811 0.00010321 0)
(0.00292945 0.000148853 0)
(0.00290322 0.000194428 0)
(0.00286942 0.00023981 0)
(0.00282806 0.000284869 0)
(0.00277919 0.000329476 0)
(0.00272288 0.000373502 0)
(0.00265921 0.000416813 0)
(0.0025883 0.000459279 0)
(0.00251027 0.000500767 0)
(0.00242528 0.000541145 0)
(0.00233353 0.000580283 0)
(0.00223519 0.000618054 0)
(0.00213052 0.000654332 0)
(0.00201975 0.000688994 0)
(0.00190315 0.000721922 0)
(0.00178103 0.000753003 0)
(0.00165369 0.000782128 0)
(0.00152148 0.000809195 0)
(0.00138474 0.000834108 0)
(0.00124385 0.000856777 0)
(0.0010992 0.000877121 0)
(0.000951193 0.000895066 0)
(0.000800252 0.000910548 0)
(0.000646804 0.00092351 0)
(0.000491285 0.000933907 0)
(0.000334164 0.0009417 0)
(0.000176094 0.000946861 0)
(1.72337e-05 0.000949333 0)
(-0.000142869 0.000949007 0)
(-0.000301161 0.000945918 0)
(-0.000459096 0.000940133 0)
(-0.000615908 0.000931676 0)
(-0.000770994 0.000920582 0)
(-0.000923898 0.000906892 0)
(-0.00107418 0.000890658 0)
(-0.00122142 0.000871944 0)
(-0.00136519 0.000850818 0)
(-0.00150508 0.00082736 0)
(-0.00164071 0.000801657 0)
(-0.0017717 0.000773805 0)
(-0.00189771 0.000743904 0)
(-0.00201839 0.000712062 0)
(-0.00213344 0.000678391 0)
(-0.00224256 0.000643011 0)
(-0.00234549 0.000606043 0)
(-0.00244198 0.000567614 0)
(-0.00253181 0.000527851 0)
(-0.00261479 0.000486888 0)
(-0.00269073 0.000444856 0)
(-0.00275949 0.000401889 0)
(-0.00282094 0.000358122 0)
(-0.00287498 0.000313688 0)
(-0.00292152 0.000268721 0)
(-0.00296051 0.000223352 0)
(-0.00299191 0.000177711 0)
(-0.00301571 0.000131928 0)
(-0.00303191 8.61274e-05 0)
(-0.00304056 4.04253e-05 0)
(-0.0030417 -5.08014e-06 0)
(-0.00303534 -5.03051e-05 0)
(-0.00302162 -9.51249e-05 0)
(-0.00300059 -0.000139434 0)
(-0.00297239 -0.000183129 0)
(-0.00293712 -0.000226113 0)
(-0.00289494 -0.00026829 0)
(-0.002846 -0.00030957 0)
(-0.00279047 -0.000349869 0)
(-0.00272852 -0.000389104 0)
(-0.00266036 -0.000427199 0)
(-0.00258619 -0.000464085 0)
(-0.0025062 -0.000499693 0)
(-0.00242064 -0.000533961 0)
(-0.00232971 -0.000566833 0)
(-0.00223367 -0.000598254 0)
(-0.00213275 -0.000628174 0)
(-0.0020272 -0.00065655 0)
(-0.00191727 -0.000683338 0)
(-0.00180324 -0.000708501 0)
(-0.00168535 -0.000732004 0)
(-0.00156387 -0.000753816 0)
(-0.00143909 -0.000773909 0)
(-0.00131127 -0.000792258 0)
(-0.0011807 -0.00080884 0)
(-0.00104764 -0.000823636 0)
(-0.00091239 -0.000836626 0)
(-0.000775235 -0.000847759 0)
(-0.000636469 -0.000856796 0)
(-0.000496393 -0.000862417 0)
(-0.000355676 -0.000858121 0)
(-0.000217223 -0.000817392 0)
(-9.10331e-05 -0.000659376 0)
(-3.80097e-06 -0.000249745 0)
(3.4073e-06 -0.000324988 0)
(9.14386e-05 -0.000861509 0)
(0.00021947 -0.00106822 0)
(0.000360095 -0.00112131 0)
(0.000502972 -0.00112672 0)
(0.000645183 -0.00111911 0)
(0.000786057 -0.001107 0)
(0.000925274 -0.00109211 0)
(0.00106253 -0.00107477 0)
(0.00119753 -0.00105505 0)
(0.00132998 -0.00103297 0)
(0.00145959 -0.00100857 0)
(0.00158609 -0.000981865 0)
(0.00170919 -0.000952898 0)
(0.00182861 -0.000921704 0)
(0.00194408 -0.000888323 0)
(0.00205532 -0.0008528 0)
(0.00216208 -0.000815184 0)
(0.00226408 -0.000775529 0)
(0.00236108 -0.000733892 0)
(0.00245283 -0.000690337 0)
(0.00253907 -0.000644933 0)
(0.00261958 -0.000597753 0)
(0.00269413 -0.000548876 0)
(0.00276249 -0.000498387 0)
(0.00282446 -0.000446377 0)
(0.00287983 -0.000392943 0)
(0.00292843 -0.000338188 0)
(0.00297006 -0.000282221 0)
(0.00300458 -0.000225156 0)
(0.00303182 -0.000167116 0)
(0.00305166 -0.000108227 0)
(0.00306398 -4.86226e-05 0)
(0.00306861 1.15561e-05 0)
(0.00306556 7.21406e-05 0)
(0.00305478 0.00013301 0)
(0.00303617 0.000194008 0)
(0.00300971 0.000254969 0)
(0.00297538 0.000315723 0)
(0.00293321 0.000376095 0)
(0.00288322 0.000435911 0)
(0.00282548 0.000494995 0)
(0.00276007 0.000553168 0)
(0.0026871 0.000610251 0)
(0.00260672 0.000666064 0)
(0.00251906 0.000720428 0)
(0.00242433 0.000773164 0)
(0.00232272 0.000824098 0)
(0.00221447 0.000873056 0)
(0.00209983 0.000919869 0)
(0.0019791 0.000964373 0)
(0.00185256 0.00100641 0)
(0.00172056 0.00104583 0)
(0.00158343 0.00108249 0)
(0.00144155 0.00111626 0)
(0.00129532 0.001147 0)
(0.00114512 0.00117462 0)
(0.000991404 0.00119899 0)
(0.000834596 0.00122003 0)
(0.000675151 0.00123766 0)
(0.000513526 0.00125181 0)
(0.000350215 0.00126243 0)
(0.000185907 0.00126947 0)
(2.07957e-05 0.00127286 0)
(-0.000145707 0.00127242 0)
(-0.000310242 0.00126821 0)
(-0.000474431 0.00126034 0)
(-0.00063745 0.00124884 0)
(-0.000798658 0.00123377 0)
(-0.000957573 0.00121519 0)
(-0.00111374 0.00119317 0)
(-0.0012667 0.0011678 0)
(-0.00141602 0.00113918 0)
(-0.00156127 0.00110742 0)
(-0.00170204 0.00107263 0)
(-0.00183795 0.00103496 0)
(-0.00196862 0.000994543 0)
(-0.00209371 0.000951527 0)
(-0.0022129 0.000906072 0)
(-0.00232588 0.00085834 0)
(-0.00243238 0.000808501 0)
(-0.00253214 0.000756727 0)
(-0.00262494 0.000703196 0)
(-0.00271058 0.000648087 0)
(-0.00278887 0.000591583 0)
(-0.00285967 0.000533865 0)
(-0.00292285 0.000475116 0)
(-0.0029783 0.000415517 0)
(-0.00302595 0.000355247 0)
(-0.00306575 0.000294485 0)
(-0.00309766 0.000233405 0)
(-0.00312167 0.000172182 0)
(-0.00313781 0.000110986 0)
(-0.00314612 4.99695e-05 0)
(-0.00314665 -1.07431e-05 0)
(-0.00313941 -7.10427e-05 0)
(-0.00312455 -0.000130762 0)
(-0.00310215 -0.000189757 0)
(-0.00307234 -0.000247893 0)
(-0.00303524 -0.00030504 0)
(-0.00299103 -0.000361074 0)
(-0.00293986 -0.000415877 0)
(-0.00288191 -0.000469341 0)
(-0.00281738 -0.000521361 0)
(-0.00274646 -0.000571839 0)
(-0.00266937 -0.000620684 0)
(-0.00258634 -0.000667812 0)
(-0.00249759 -0.000713143 0)
(-0.00240336 -0.000756605 0)
(-0.0023039 -0.00079813 0)
(-0.00219945 -0.000837655 0)
(-0.00209029 -0.000875125 0)
(-0.00197666 -0.000910486 0)
(-0.00185883 -0.000943692 0)
(-0.00173709 -0.0009747 0)
(-0.0016117 -0.00100347 0)
(-0.00148294 -0.00102997 0)
(-0.00135109 -0.00105417 0)
(-0.00121644 -0.00107603 0)
(-0.00107927 -0.00109555 0)
(-0.000939874 -0.00111268 0)
(-0.000798547 -0.00112736 0)
(-0.000655589 -0.00113928 0)
(-0.000511309 -0.0011467 0)
(-0.000366393 -0.0011411 0)
(-0.000223822 -0.00108777 0)
(-9.38891e-05 -0.000880373 0)
(-3.977e-06 -0.000339057 0)
(3.64406e-06 -0.000414717 0)
(9.51687e-05 -0.0010862 0)
(0.000228077 -0.00134372 0)
(0.000374063 -0.00140981 0)
(0.000522401 -0.00141655 0)
(0.000670073 -0.00140708 0)
(0.000816383 -0.00139199 0)
(0.000961004 -0.00137344 0)
(0.00110362 -0.00135183 0)
(0.00124394 -0.00132725 0)
(0.00138165 -0.00129973 0)
(0.00151647 -0.0012693 0)
(0.00164811 -0.00123601 0)
(0.00177626 -0.00119988 0)
(0.00190066 -0.00116097 0)
(0.00202101 -0.00111931 0)
(0.00213704 -0.00107497 0)
(0.00224847 -0.001028 0)
(0.00235503 -0.000978461 0)
(0.00245645 -0.000926426 0)
(0.00255247 -0.000871969 0)
(0.00264283 -0.000815173 0)
(0.00272729 -0.000756125 0)
(0.0028056 -0.000694922 0)
(0.00287754 -0.000631665 0)
(0.00294287 -0.000566466 0)
(0.00300139 -0.000499443 0)
(0.0030529 -0.000430721 0)
(0.00309719 -0.000360436 0)
(0.0031341 -0.000288728 0)
(0.00316346 -0.000215749 0)
(0.00318511 -0.000141658 0)
(0.00319894 -6.66215e-05 0)
(0.00320476 9.18472e-06 0)
(0.00320256 8.55564e-05 0)
(0.00319229 0.000162337 0)
(0.00317383 0.000239334 0)
(0.00314715 0.000316343 0)
(0.00311223 0.000393148 0)
(0.00306906 0.000469524 0)
(0.00301769 0.000545249 0)
(0.00295817 0.000620097 0)
(0.00289058 0.000693842 0)
(0.00281503 0.000766254 0)
(0.00273164 0.000837102 0)
(0.00264058 0.000906156 0)
(0.00254204 0.000973186 0)
(0.00243622 0.00103797 0)
(0.00232337 0.00110027 0)
(0.00220376 0.00115988 0)
(0.00207768 0.00121658 0)
(0.00194544 0.00127018 0)
(0.00180739 0.00132046 0)
(0.0016639 0.00136725 0)
(0.00151535 0.00141036 0)
(0.00136217 0.00144964 0)
(0.00120477 0.00148493 0)
(0.00104362 0.00151609 0)
(0.00087917 0.00154301 0)
(0.000711911 0.00156557 0)
(0.000542324 0.0015837 0)
(0.000370934 0.00159731 0)
(0.000198483 0.00160634 0)
(2.52051e-05 0.00161069 0)
(-0.000149664 0.00161015 0)
(-0.000322348 0.00160477 0)
(-0.000494692 0.0015947 0)
(-0.000665794 0.00158001 0)
(-0.000834967 0.00156075 0)
(-0.0010017 0.001537 0)
(-0.0011655 0.00150888 0)
(-0.0013259 0.00147648 0)
(-0.00148242 0.00143995 0)
(-0.00163461 0.00139942 0)
(-0.00178203 0.00135505 0)
(-0.00192429 0.00130703 0)
(-0.00206099 0.00125552 0)
(-0.00219177 0.00120073 0)
(-0.00231628 0.00114286 0)
(-0.00243421 0.00108213 0)
(-0.00254528 0.00101875 0)
(-0.00264923 0.000952945 0)
(-0.00274581 0.000884948 0)
(-0.00283482 0.000814989 0)
(-0.00291608 0.000743301 0)
(-0.00298944 0.000670119 0)
(-0.00305477 0.000595676 0)
(-0.00311197 0.000520203 0)
(-0.00316098 0.000443931 0)
(-0.00320173 0.000367084 0)
(-0.00323421 0.000289886 0)
(-0.00325841 0.000212561 0)
(-0.00327438 0.000135323 0)
(-0.00328217 5.83634e-05 0)
(-0.00328182 -1.81745e-05 0)
(-0.00327337 -9.41438e-05 0)
(-0.00325697 -0.000169328 0)
(-0.00323272 -0.00024355 0)
(-0.00320076 -0.000316639 0)
(-0.00316126 -0.000388435 0)
(-0.00311436 -0.000458786 0)
(-0.00306026 -0.000527548 0)
(-0.00299915 -0.000594585 0)
(-0.00293124 -0.000659772 0)
(-0.00285674 -0.00072299 0)
(-0.00277588 -0.000784128 0)
(-0.00268889 -0.000843084 0)
(-0.00259603 -0.000899763 0)
(-0.00249753 -0.000954078 0)
(-0.00239367 -0.00100595 0)
(-0.00228469 -0.0010553 0)
(-0.00217088 -0.00110207 0)
(-0.00205249 -0.00114618 0)
(-0.00192982 -0.0011876 0)
(-0.00180314 -0.00122626 0)
(-0.00167274 -0.00126212 0)
(-0.00153889 -0.00129515 0)
(-0.0014019 -0.0013253 0)
(-0.00126205 -0.00135254 0)
(-0.00111963 -0.00137685 0)
(-0.000974942 -0.00139818 0)
(-0.000828289 -0.00141647 0)
(-0.000679977 -0.00143131 0)
(-0.000530323 -0.00144053 0)
(-0.000380036 -0.00143354 0)
(-0.0002322 -0.00136715 0)
(-9.74841e-05 -0.00110877 0)
(-4.18764e-06 -0.000431521 0)
(3.94607e-06 -0.000508569 0)
(9.97403e-05 -0.00132037 0)
(0.000238597 -0.00163067 0)
(0.00039112 -0.00171031 0)
(0.000546124 -0.0017185 0)
(0.000700464 -0.00170715 0)
(0.000853416 -0.00168902 0)
(0.00100464 -0.00166672 0)
(0.00115381 -0.00164074 0)
(0.00130063 -0.00161119 0)
(0.00144478 -0.00157811 0)
(0.00158597 -0.00154152 0)
(0.0017239 -0.00150148 0)
(0.00185827 -0.00145802 0)
(0.00198877 -0.0014112 0)
(0.00211513 -0.00136106 0)
(0.00223705 -0.00130767 0)
(0.00235424 -0.00125109 0)
(0.00246641 -0.00119139 0)
(0.0025733 -0.00112865 0)
(0.00267461 -0.00106297 0)
(0.00277009 -0.000994424 0)
(0.00285946 -0.000923125 0)
(0.00294247 -0.000849182 0)
(0.00301888 -0.000772714 0)
(0.00308843 -0.000693852 0)
(0.00315091 -0.000612733 0)
(0.00320608 -0.000529506 0)
(0.00325374 -0.00044433 0)
(0.0032937 -0.000357375 0)
(0.00332576 -0.00026882 0)
(0.00334976 -0.000178854 0)
(0.00336555 -8.76795e-05 0)
(0.00337297 4.49292e-06 0)
(0.00337195 9.74111e-05 0)
(0.00336241 0.000190886 0)
(0.00334424 0.000284689 0)
(0.0033174 0.000378577 0)
(0.00328185 0.000472285 0)
(0.00323758 0.000565538 0)
(0.0031846 0.000658062 0)
(0.00312298 0.000749578 0)
(0.00305278 0.000839806 0)
(0.0029741 0.000928462 0)
(0.00288707 0.00101526 0)
(0.00279186 0.00109992 0)
(0.00268866 0.00118214 0)
(0.00257768 0.00126166 0)
(0.00245917 0.00133818 0)
(0.00233341 0.00141143 0)
(0.0022007 0.00148115 0)
(0.00206139 0.00154708 0)
(0.00191584 0.00160897 0)
(0.00176443 0.00166659 0)
(0.00160757 0.00171971 0)
(0.00144572 0.00176812 0)
(0.00127933 0.00181164 0)
(0.00110888 0.00185009 0)
(0.000934874 0.00188331 0)
(0.00075783 0.00191118 0)
(0.000578267 0.00193357 0)
(0.00039675 0.00195039 0)
(0.000214085 0.00196157 0)
(3.05659e-05 0.00196697 0)
(-0.00015481 0.00196632 0)
(-0.000337709 0.0019597 0)
(-0.000520272 0.00194728 0)
(-0.000701501 0.00192916 0)
(-0.000880645 0.00190541 0)
(-0.00105715 0.00187614 0)
(-0.00123051 0.00184147 0)
(-0.00140018 0.00180155 0)
(-0.00156567 0.00175654 0)
(-0.00172651 0.00170664 0)
(-0.00188221 0.00165202 0)
(-0.00203236 0.00159293 0)
(-0.00217653 0.00152958 0)
(-0.00231434 0.00146223 0)
(-0.00244543 0.00139113 0)
(-0.00256947 0.00131654 0)
(-0.00268615 0.00123875 0)
(-0.00279521 0.00115802 0)
(-0.0028964 0.00107465 0)
(-0.00298952 0.00098893 0)
(-0.00307436 0.000901143 0)
(-0.0031508 0.000811582 0)
(-0.00321869 0.000720535 0)
(-0.00327795 0.000628289 0)
(-0.00332852 0.000535125 0)
(-0.00337034 0.000441322 0)
(-0.0034034 0.000347156 0)
(-0.00342771 0.000252901 0)
(-0.00344335 0.000158815 0)
(-0.00345038 6.51251e-05 0)
(-0.00344885 -2.80029e-05 0)
(-0.00343877 -0.000120375 0)
(-0.00342036 -0.000211726 0)
(-0.00339374 -0.000301841 0)
(-0.00335905 -0.000390517 0)
(-0.00331646 -0.000477562 0)
(-0.00326618 -0.000562795 0)
(-0.00320839 -0.000646046 0)
(-0.00314331 -0.000727156 0)
(-0.00307116 -0.000805976 0)
(-0.00299219 -0.000882368 0)
(-0.00290662 -0.000956202 0)
(-0.00281473 -0.00102736 0)
(-0.00271676 -0.00109573 0)
(-0.00261299 -0.00116122 0)
(-0.00250368 -0.00122372 0)
(-0.00238911 -0.00128317 0)
(-0.00226957 -0.00133947 0)
(-0.00214534 -0.00139257 0)
(-0.0020167 -0.00144239 0)
(-0.00188396 -0.00148888 0)
(-0.00174741 -0.001532 0)
(-0.00160733 -0.00157169 0)
(-0.00146403 -0.00160792 0)
(-0.00131782 -0.00164065 0)
(-0.00116898 -0.00166985 0)
(-0.00101782 -0.00169548 0)
(-0.000864656 -0.00171745 0)
(-0.000709798 -0.00173526 0)
(-0.000553575 -0.0017463 0)
(-0.000396726 -0.0017378 0)
(-0.000242461 -0.00165777 0)
(-0.000101905 -0.00134643 0)
(-4.4606e-06 -0.000527943 0)
(4.32667e-06 -0.000607423 0)
(0.000105202 -0.00156594 0)
(0.000251099 -0.00193137 0)
(0.000411357 -0.00202524 0)
(0.000574251 -0.00203501 0)
(0.000736488 -0.00202175 0)
(0.000897306 -0.00200051 0)
(0.00105635 -0.00197437 0)
(0.0012133 -0.00194392 0)
(0.00136783 -0.00190928 0)
(0.00151963 -0.00187049 0)
(0.00166839 -0.00182759 0)
(0.00181381 -0.00178063 0)
(0.00195557 -0.00172965 0)
(0.00209336 -0.00167469 0)
(0.00222689 -0.00161584 0)
(0.00235585 -0.00155313 0)
(0.00247994 -0.00148665 0)
(0.00259885 -0.00141648 0)
(0.0027123 -0.0013427 0)
(0.00281999 -0.0012654 0)
(0.00292163 -0.0011847 0)
(0.00301695 -0.00110071 0)
(0.00310566 -0.00101354 0)
(0.0031875 -0.000923345 0)
(0.0032622 -0.000830261 0)
(0.00332951 -0.000734449 0)
(0.00338919 -0.000636079 0)
(0.003441 -0.000535334 0)
(0.00348473 -0.00043241 0)
(0.00352016 -0.000327513 0)
(0.00354712 -0.000220867 0)
(0.00356541 -0.000112704 0)
(0.00357489 -3.27211e-06 0)
(0.0035754 0.000107108 0)
(0.00356688 0.000218226 0)
(0.00354922 0.00032982 0)
(0.00352234 0.000441601 0)
(0.00348618 0.000553257 0)
(0.00344071 0.000664461 0)
(0.00338594 0.000774879 0)
(0.00332191 0.000884175 0)
(0.00324869 0.000992013 0)
(0.00316636 0.00109805 0)
(0.00307506 0.00120193 0)
(0.00297495 0.00130332 0)
(0.00286621 0.00140187 0)
(0.00274907 0.00149723 0)
(0.00262379 0.00158905 0)
(0.00249066 0.00167701 0)
(0.00235 0.00176078 0)
(0.00220217 0.00184003 0)
(0.00204755 0.00191448 0)
(0.00188656 0.00198381 0)
(0.00171965 0.00204776 0)
(0.00154729 0.00210608 0)
(0.00136998 0.00215853 0)
(0.00118824 0.00220488 0)
(0.00100261 0.00224496 0)
(0.000813658 0.00227858 0)
(0.000621947 0.00230562 0)
(0.00042809 0.00232595 0)
(0.000232979 0.00233947 0)
(3.69805e-05 0.00234602 0)
(-0.000161219 0.00234527 0)
(-0.000356561 0.00233729 0)
(-0.000551576 0.00232233 0)
(-0.000745136 0.00230048 0)
(-0.000936415 0.00227185 0)
(-0.00112481 0.00223658 0)
(-0.00130977 0.00219481 0)
(-0.0014907 0.00214674 0)
(-0.00166708 0.00209255 0)
(-0.00183838 0.00203249 0)
(-0.0020041 0.00196679 0)
(-0.00216378 0.00189574 0)
(-0.00231695 0.0018196 0)
(-0.00246323 0.00173869 0)
(-0.00260221 0.00165332 0)
(-0.00273355 0.00156381 0)
(-0.00285694 0.00147051 0)
(-0.00297209 0.00137375 0)
(-0.00307875 0.00127389 0)
(-0.0031767 0.00117127 0)
(-0.00326576 0.00106625 0)
(-0.00334577 0.000959174 0)
(-0.00341662 0.000850401 0)
(-0.00347822 0.000740271 0)
(-0.00353051 0.000629127 0)
(-0.00357347 0.000517302 0)
(-0.00360709 0.000405131 0)
(-0.00363139 0.000292937 0)
(-0.00364648 0.000181024 0)
(-0.00365245 6.96528e-05 0)
(-0.00364934 -4.09933e-05 0)
(-0.00363718 -0.000150656 0)
(-0.00361623 -0.000259016 0)
(-0.00358662 -0.000365824 0)
(-0.00354852 -0.000470842 0)
(-0.00350213 -0.00057385 0)
(-0.00344766 -0.000674637 0)
(-0.00338535 -0.000773006 0)
(-0.00331542 -0.000868777 0)
(-0.00323812 -0.000961777 0)
(-0.00315371 -0.00105185 0)
(-0.00306245 -0.00113885 0)
(-0.00296462 -0.00122264 0)
(-0.0028605 -0.00130311 0)
(-0.00275037 -0.00138013 0)
(-0.00263452 -0.0014536 0)
(-0.00251325 -0.00152344 0)
(-0.00238685 -0.00158956 0)
(-0.00225563 -0.00165188 0)
(-0.00211988 -0.00171034 0)
(-0.00197991 -0.00176487 0)
(-0.00183603 -0.00181542 0)
(-0.00168854 -0.00186195 0)
(-0.00153775 -0.0019044 0)
(-0.00138397 -0.00194274 0)
(-0.00122751 -0.00197695 0)
(-0.00106868 -0.00200696 0)
(-0.00090779 -0.00203269 0)
(-0.000745174 -0.00205353 0)
(-0.000581168 -0.00206641 0)
(-0.000416548 -0.00205625 0)
(-0.000254672 -0.00196189 0)
(-0.000107199 -0.00159525 0)
(-4.80858e-06 -0.000629182 0)
(4.79757e-06 -0.000712214 0)
(0.000111596 -0.00182486 0)
(0.000265651 -0.00224814 0)
(0.000434864 -0.00235703 0)
(0.000606894 -0.00236856 0)
(0.000778278 -0.00235337 0)
(0.000948214 -0.00232893 0)
(0.00111633 -0.00229885 0)
(0.0012823 -0.00226382 0)
(0.00144579 -0.00222395 0)
(0.00160648 -0.00217931 0)
(0.00176405 -0.00212994 0)
(0.00191819 -0.00207587 0)
(0.00206857 -0.00201715 0)
(0.00221488 -0.00195384 0)
(0.00235679 -0.001886 0)
(0.002494 -0.0018137 0)
(0.00262618 -0.00173701 0)
(0.00275302 -0.00165601 0)
(0.0028742 -0.0015708 0)
(0.00298942 -0.00148148 0)
(0.00309836 -0.00138816 0)
(0.00320072 -0.00129096 0)
(0.00329621 -0.00119003 0)