/*--------------------------------*- C++ -*----------------------------------*\
| =========                 |                                                 |
| \\      /  F ield         | OpenFOAM: The Open Source CFD Toolbox           |
|  \\    /   O peration     | Version:  2206                                  |
|   \\  /    A nd           | Website:  www.openfoam.com                      |
|    \\/     M anipulation  |                                                 |
\*---------------------------------------------------------------------------*/
FoamFile
{
    version     2.0;
    format      ascii;
    arch        "LSB;label=64;scalar=64";
    class       volScalarField;
    location    "2.9/water";
    object      p;
}
// * * * * * * * * * * * * * * * * * * * * * * * * * * * * * * * * * * * * * //

dimensions      [1 -1 -2 0 0 0 0];

internalField   nonuniform List<scalar> 
23300
(
100727.275801
100727.329723
100727.328045
100727.327366
100727.327509
100727.328878
100727.331807
100727.336703
100727.343703
100727.352988
100727.364492
100727.378229
100727.394022
100727.411815
100727.431414
100727.452768
100727.475719
100727.500251
100727.526253
100727.553745
100727.582654
100727.613025
100727.644811
100727.678075
100727.712792
100727.749043
100727.786822
100727.82623
100727.867277
100727.910077
100727.954652
100728.001117
100728.049493
100728.099885
100728.152297
100728.206809
100728.263398
100728.322109
100728.382882
100728.445723
100728.510531
100728.577269
100728.645799
100728.716044
100728.787818
100728.860981
100728.935297
100729.01062
100729.086706
100729.163376
100729.240357
100729.317442
100729.394339
100729.470824
100729.546592
100729.621408
100729.694965
100729.767025
100729.837285
100729.905516
100729.971428
100730.034805
100730.095377
100730.152956
100730.207298
100730.258244
100730.305586
100730.349201
100730.388919
100730.424661
100730.456299
100730.483799
100730.507081
100730.526166
100730.54103
100730.55176
100730.558406
100730.561144
100730.560127
100730.555661
100730.548045
100730.537759
100730.525288
100730.511293
100730.496354
100730.480938
100730.464941
100730.448479
100730.432117
100730.416505
100730.401703
100730.387317
100730.37277
100730.357627
100730.341497
100730.324178
100730.305511
100730.285498
100730.264156
100730.241623
100730.218031
100730.1936
100730.168526
100730.143067
100730.117443
100730.09192
100730.066722
100730.042098
100730.018255
100729.995417
100729.973762
100729.953476
100729.934701
100729.91758
100729.902208
100729.88868
100729.877044
100729.867346
100729.859594
100729.853787
100729.84989
100729.847856
100729.847604
100729.849042
100729.852048
100729.856495
100729.862228
100729.869101
100729.876964
100729.885699
100729.895233
100729.905585
100729.916875
100729.92933
100729.943193
100729.958534
100729.974906
100729.990904
100730.003769
100730.059894
100719.259931
100719.316621
100719.321432
100719.327785
100719.335681
100719.345138
100719.356153
100719.36881
100719.383079
100719.398977
100719.416404
100719.43531
100719.455558
100719.477079
100719.499739
100719.523481
100719.548196
100719.57385
100719.600357
100719.627702
100719.655822
100719.684719
100719.714356
100719.744761
100719.775927
100719.807918
100719.840764
100719.874563
100719.909379
100719.945337
100719.982519
100720.021057
100720.061033
100720.102567
100720.14572
100720.190584
100720.237184
100720.28557
100720.335725
100720.387653
100720.441291
100720.496598
100720.553466
100720.611813
100720.671486
100720.732355
100720.794229
100720.856954
100720.920323
100720.98416
100721.048237
100721.112363
100721.176301
100721.239848
100721.302764
100721.364846
100721.425857
100721.485601
100721.543855
100721.600438
100721.655147
100721.707826
100721.7583
100721.806445
100721.85212
100721.895241
100721.935707
100721.973475
100722.008489
100722.040752
100722.070252
100722.097036
100722.121135
100722.142636
100722.161606
100722.178167
100722.192413
100722.204487
100722.214496
100722.222586
100722.228844
100722.233363
100722.236117
100722.236989
100722.235574
100722.231166
100722.222744
100722.210037
100722.193622
100722.174626
100722.154271
100722.133367
100722.112339
100722.091442
100722.070779
100722.050433
100722.030424
100722.010797
100721.991563
100721.97277
100721.95444
100721.936635
100721.919395
100721.902791
100721.886881
100721.871747
100721.857457
100721.844101
100721.83175
100721.820496
100721.810409
100721.801571
100721.794044
100721.787895
100721.783165
100721.779891
100721.778082
100721.777746
100721.778868
100721.781421
100721.78535
100721.790587
100721.797034
100721.804576
100721.813067
100721.822346
100721.83222
100721.842487
100721.852927
100721.863337
100721.873548
100721.883477
100721.893176
100721.902871
100721.912944
100721.92381
100721.935643
100721.947955
100721.958869
100722.015396
100711.150646
100711.206357
100711.211848
100711.219211
100711.228447
100711.239602
100711.252657
100711.267644
100711.284503
100711.303203
100711.323617
100711.34565
100711.369134
100711.393953
100711.419937
100711.44698
100711.474937
100711.503729
100711.533238
100711.56341
100711.594156
100711.625448
100711.657228
100711.689499
100711.722241
100711.755499
100711.789294
100711.823711
100711.858811
100711.894711
100711.931495
100711.969296
100712.008202
100712.048339
100712.089782
100712.132634
100712.176938
100712.22276
100712.270107
100712.319002
100712.36941
100712.421314
100712.474636
100712.529321
100712.585251
100712.642315
100712.700349
100712.759233
100712.8188
100712.878907
100712.939372
100713.000037
100713.060708
100713.121224
100713.181386
100713.241032
100713.299967
100713.358035
100713.415053
100713.470876
100713.52534
100713.578318
100713.629667
100713.679287
100713.727062
100713.772918
100713.816768
100713.858568
100713.89826
100713.935827
100713.971237
100714.004494
100714.035583
100714.064524
100714.091304
100714.115944
100714.138422
100714.158737
100714.176835
100714.192668
100714.206113
100714.217026
100714.225146
100714.230141
100714.231499
100714.228616
100714.220849
100714.208158
100714.191128
100714.170541
100714.147275
100714.122243
100714.096122
100714.069446
100714.042599
100714.015898
100713.98957
100713.963819
100713.938785
100713.914609
100713.891382
100713.869206
100713.848144
100713.828271
100713.809633
100713.792291
100713.776279
100713.761647
100713.748422
100713.736644
100713.726333
100713.717519
100713.71021
100713.704421
100713.700145
100713.697368
100713.696055
100713.69617
100713.697656
100713.700451
100713.704462
100713.70959
100713.715706
100713.722668
100713.730311
100713.738454
100713.746903
100713.755461
100713.76394
100713.772193
100713.780147
100713.787854
100713.795541
100713.80364
100713.812756
100713.823526
100713.836342
100713.850909
100713.865665
100713.925035
100703.053424
100703.109189
100703.114537
100703.122055
100703.131706
100703.143541
100703.157536
100703.173707
100703.191972
100703.212276
100703.234465
100703.258421
100703.283948
100703.310899
100703.339074
100703.368335
100703.398505
100703.429468
100703.461081
100703.493258
100703.525888
100703.558917
100703.59227
100703.625933
100703.659873
100703.694119
100703.728684
100703.763645
100703.799054
100703.835021
100703.87163
100703.909008
100703.947245
100703.98647
100704.026761
100704.06823
100704.110929
100704.154939
100704.200279
100704.246993
100704.295063
100704.344495
100704.395237
100704.447257
100704.500471
100704.554786
100704.610057
100704.666193
100704.723059
100704.780543
100704.838493
100704.896785
100704.955256
100705.013773
100705.072168
100705.130308
100705.188025
100705.245188
100705.301636
100705.357245
100705.411868
100705.465392
100705.517685
100705.568651
100705.618176
100705.666184
100705.712576
100705.757294
100705.800257
100705.841421
100705.880716
100705.918105
100705.953519
100705.98692
100706.01823
100706.047392
100706.074304
100706.098879
100706.120971
100706.14044
100706.157077
100706.170663
100706.18089
100706.187429
100706.189858
100706.187777
100706.180842
100706.169011
100706.152878
100706.13309
100706.110112
100706.084707
100706.057528
100706.029168
100706.000108
100705.970778
100705.941522
100705.912652
100705.884411
100705.857024
100705.830658
100705.805474
100705.781582
100705.759092
100705.738075
100705.718601
100705.700711
100705.684448
100705.66983
100705.656879
100705.645594
100705.635979
100705.628016
100705.621691
100705.61697
100705.613806
100705.612131
100705.611884
100705.612983
100705.615339
100705.618841
100705.62337
100705.628785
100705.634933
100705.641646
100705.648747
100705.656053
100705.663392
100705.670615
100705.677631
100705.684437
100705.691174
100705.698168
100705.705954
100705.715251
100705.726825
100705.741229
100705.758405
100705.777179
100705.836455
100694.959313
100695.015846
100695.020907
100695.028311
100695.038017
100695.050074
100695.06446
100695.081187
100695.100168
100695.121336
100695.144529
100695.169615
100695.196383
100695.224668
100695.25425
100695.284967
100695.316618
100695.349065
100695.38214
100695.415736
100695.449721
100695.484028
100695.518564
100695.553304
100695.588203
100695.623285
100695.658551
100695.694072
100695.729893
100695.76612
100695.802829
100695.840144
100695.878152
100695.916982
100695.956711
100695.997454
100696.039269
100696.082244
100696.126408
100696.171816
100696.218467
100696.26638
100696.315521
100696.36588
100696.417401
100696.470007
100696.523561
100696.577996
100696.633197
100696.689078
100696.745511
100696.802394
100696.859589
100696.916983
100696.97443
100697.031813
100697.088983
100697.145822
100697.202183
100697.257951
100697.312984
100697.367176
100697.420392
100697.472535
100697.523481
100697.573143
100697.621408
100697.668198
100697.713407
100697.756962
100697.798762
100697.838732
100697.876765
100697.912778
100697.946649
100697.978275
100698.007508
100698.034215
100698.058211
100698.07932
100698.097311
100698.111958
100698.122972
100698.130076
100698.132951
100698.131341
100698.125052
100698.114092
100698.09883
100698.079957
100698.057909
100698.033117
100698.006164
100697.977617
100697.947964
100697.917672
100697.887131
100697.856709
100697.826705
100697.797402
100697.769022
100697.741772
100697.715808
100697.691276
100697.668276
100697.646904
100697.627217
100697.609271
100697.593088
100697.578691
100697.566077
100697.555243
100697.54616
100697.538804
100697.533125
100697.529063
100697.526528
100697.525444
100697.525717
100697.527246
100697.529911
100697.533585
100697.538122
100697.543371
100697.549166
100697.555342
100697.561731
100697.568188
100697.574599
100697.580915
100697.587189
100697.593624
100697.60061
100697.608757
100697.618862
100697.631789
100697.64822
100697.668243
100697.6908
100697.747707
100686.864016
100686.921671
100686.926404
100686.933592
100686.94319
100686.955245
100686.969731
100686.986663
100687.005952
100687.027532
100687.051239
100687.076937
100687.10441
100687.133485
100687.16393
100687.19557
100687.228188
100687.26163
100687.295712
100687.330314
100687.36529
100687.400561
100687.436025
100687.47165
100687.507384
100687.543243
100687.579225
100687.615393
100687.651786
100687.688505
100687.725617
100687.763244
100687.801465
100687.840405
100687.88014
100687.920781
100687.962387
100688.005049
100688.0488
100688.093703
100688.139763
100688.187011
100688.235425
100688.285007
100688.335714
100688.387497
100688.440235
100688.493851
100688.548252
100688.603369
100688.659091
100688.715335
100688.771976
100688.82892
100688.886032
100688.943208
100689.000308
100689.057224
100689.113815
100689.169968
100689.225544
100689.280433
100689.334498
100689.387634
100689.439707
100689.490617
100689.540236
100689.588466
100689.635181
100689.680286
100689.723652
100689.765179
100689.804732
100689.8422
100689.877434
100689.910306
100689.940643
100689.968293
100689.993058
100690.014757
100690.03316
100690.048056
100690.059194
100690.06635
100690.069283
100690.067833
100690.061893
100690.051526
100690.03691
100690.018613
100689.997242
100689.973141
100689.946678
100689.918376
100689.888703
100689.858122
100689.827034
100689.795825
100689.764823
100689.73434
100689.70463
100689.675933
100689.648435
100689.622313
100689.597693
100689.574695
100689.553396
100689.533867
100689.516145
100689.50026
100689.486216
100689.474012
100689.463622
100689.455018
100689.44815
100689.442948
100689.439315
100689.437169
100689.43641
100689.436936
100689.438622
100689.441343
100689.444954
100689.44931
100689.454254
100689.459633
100689.465299
100689.47113
100689.477044
100689.483029
100689.489183
100689.495754
100689.503183
100689.51213
100689.52344
100689.538035
100689.556641
100689.579332
100689.60486
100689.657999
100678.764984
100678.82389
100678.828289
100678.835217
100678.844627
100678.856558
100678.870984
100678.887917
100678.90727
100678.928982
100678.952892
100678.978865
100679.006689
100679.036187
100679.067126
100679.099324
100679.132558
100679.166664
100679.201451
100679.236789
100679.272525
100679.308575
100679.344833
100679.38126
100679.4178
100679.454467
100679.491251
100679.528213
100679.565383
100679.602857
100679.640693
100679.679005
100679.717864
100679.757388
100679.797645
100679.838743
100679.880735
100679.923711
100679.967703
100680.012776
100680.058937
100680.106224
100680.15462
100680.204138
100680.254735
100680.3064
100680.359021
100680.412502
100680.466761
100680.521745
100680.577355
100680.633521
100680.690129
100680.747096
100680.804295
100680.861632
100680.918973
100680.976214
100681.033214
100681.089866
100681.146025
100681.20158
100681.256388
100681.310334
100681.363277
100681.415103
100681.46567
100681.514867
100681.562549
100681.608603
100681.652884
100681.695271
100681.735612
100681.773778
100681.809605
100681.84295
100681.873634
100681.901497
100681.926341
100681.947991
100681.966233
100681.980881
100681.991719
100681.998571
100682.001261
100681.999689
100681.993806
100681.983695
100681.969532
100681.951623
100681.930556
100681.906896
100681.880885
100681.852903
100681.823383
100681.792774
100681.761466
100681.729851
100681.698262
100681.667024
100681.636409
100681.606675
100681.578031
100681.550672
100681.524747
100681.500392
100681.477705
100681.456771
100681.437641
100681.420359
100681.404937
100681.391381
100681.379673
100681.369789
100681.361682
100681.355284
100681.350493
100681.347225
100681.345384
100681.344867
100681.345555
100681.347327
100681.350044
100681.353569
100681.357756
100681.362469
100681.367577
100681.372982
100681.37863
100681.384543
100681.390852
100681.397844
100681.405991
100681.41598
100681.428673
100681.444993
100681.465624
100681.490492
100681.517975
100681.566753
100670.660299
100670.720425
100670.724509
100670.731171
100670.740363
100670.752118
100670.766403
100670.78323
100670.802513
100670.824196
100670.848124
100670.87417
100670.902125
100670.93182
100670.963024
100670.995556
100671.029192
100671.063767
100671.099087
100671.13502
100671.17141
100671.208171
100671.245194
100671.28244
100671.319849
100671.35743
100671.395172
100671.433126
100671.471316
100671.50983
100671.548714
100671.588074
100671.627968
100671.668504
100671.70974
100671.751775
100671.794655
100671.838463
100671.883226
100671.929007
100671.975813
100672.023683
100672.072602
100672.122585
100672.173597
100672.225666
100672.278675
100672.332507
100672.38709
100672.44238
100672.498287
100672.554751
100672.611668
100672.66896
100672.726511
100672.78423
100672.841988
100672.899682
100672.957175
100673.014357
100673.071083
100673.127236
100673.182667
100673.237256
100673.290852
100673.343331
100673.394539
100673.444354
100673.492617
100673.539203
100673.583952
100673.626733
100673.667379
100673.705754
100673.741684
100673.775021
100673.805584
100673.833215
100673.857722
100673.878943
100673.896683
100673.910781
100673.921055
100673.927373
100673.929605
100673.927698
100673.921639
100673.911527
100673.897528
100673.879922
100673.859034
100673.835461
100673.809685
100673.781954
100673.752599
100673.722033
100673.690638
100673.658795
100673.626837
100673.595093
100673.563841
100673.533349
100673.503839
100673.475519
100673.448551
100673.423089
100673.39924
100673.377108
100673.356753
100673.338232
100673.321567
100673.306774
100673.293841
100673.282754
100673.273471
100673.265932
100673.260031
100673.255688
100673.252809
100673.251299
100673.251044
100673.25193
100673.253828
100673.25661
100673.260144
100673.264308
100673.268991
100673.274116
100673.279653
100673.285654
100673.292276
100673.299828
100673.308802
100673.319886
100673.33393
100673.351808
100673.374099
100673.400505
100673.428961
100673.47328
100662.548363
100662.609544
100662.613346
100662.619764
100662.628745
100662.640317
100662.654439
100662.671121
100662.690278
100662.71186
100662.735718
100662.761736
100662.789714
100662.819493
100662.85085
100662.88361
100662.917554
100662.952523
100662.988322
100663.024824
100663.061871
100663.09938
100663.137239
100663.17541
100663.213829
100663.252503
100663.29141
100663.330599
100663.370081
100663.409933
100663.450189
100663.490941
100663.532234
100663.574162
100663.616769
100663.660143
100663.704318
100663.749369
100663.795317
100663.842217
100663.890074
100663.938925
100663.988753
100664.039577
100664.091359
100664.144173
100664.197903
100664.252409
100664.307617
100664.363491
100664.419949
100664.476938
100664.534362
100664.592151
100664.650192
100664.708401
100664.766651
100664.824844
100664.882841
100664.940531
100664.997769
100665.054433
100665.11037
100665.165454
100665.219525
100665.272454
100665.324076
100665.374257
100665.422834
100665.469667
100665.514589
100665.55746
100665.598106
100665.636385
100665.672118
100665.705159
100665.735326
100665.762469
100665.786405
100665.806985
100665.824035
100665.837419
100665.846986
100665.852639
100665.854283
100665.851902
100665.845508
100665.835214
100665.82118
100665.803662
100665.782957
100665.759439
100665.733608
100665.705947
100665.676697
100665.646186
100665.614754
100665.582774
100665.550572
100665.518477
100665.486768
100665.455718
100665.425554
100665.396493
100665.368707
100665.342359
100665.317567
100665.294445
100665.273065
100665.253492
100665.235758
100665.219888
100665.20588
100665.193724
100665.183389
100665.174823
100665.167924
100665.16261
100665.158793
100665.156387
100665.155284
100665.155379
100665.156552
100665.158687
100665.161664
100665.165376
100665.169731
100665.174669
100665.180184
100665.186345
100665.193331
100665.201463
100665.211235
100665.223318
100665.238521
100665.257639
100665.281111
100665.308384
100665.336974
100665.376978
100654.427762
100654.489723
100654.493286
100654.499496
100654.5083
100654.519716
100654.533694
100654.550243
100654.569277
100654.590752
100654.614527
100654.640497
100654.668477
100654.69832
100654.729813
100654.762797
100654.797059
100654.832449
100654.868778
100654.905922
100654.943729
100654.982115
100655.020968
100655.060249
100655.099889
100655.139889
100655.180221
100655.22092
100655.261987
100655.303483
100655.345428
100655.387897
100655.430918
100655.47457
100655.51888
100655.563922
100655.609718
100655.656331
100655.703772
100655.752092
100655.801287
100655.851394
100655.902395
100655.954308
100656.0071
100656.060821
100656.11543
100656.170815
100656.226826
100656.283437
100656.340578
100656.398204
100656.456224
100656.514577
100656.573156
100656.631881
100656.690629
100656.749304
100656.807769
100656.865913
100656.923587
100656.98067
100657.037003
100657.092456
100657.146863
100657.200087
100657.251958
100657.302334
100657.351043
100657.39794
100657.44285
100657.485626
100657.526091
100657.564099
100657.599472
100657.632062
100657.661694
100657.688223
100657.711478
100657.731326
100657.747609
100657.760216
100657.769022
100657.773958
100657.774962
100657.772041
100657.765229
100657.75465
100657.740458
100657.7229
100657.702246
100657.678837
100657.653034
100657.62525
100657.595961
100657.565479
100657.534047
100657.501992
100657.469632
100657.437301
100657.405274
100657.373823
100657.34318
100657.313564
100657.285154
100657.258119
100657.232587
100657.208676
100657.186468
100657.166036
100657.14742
100657.130652
100657.115736
100657.102673
100657.091435
100657.081987
100657.074229
100657.068076
100657.063447
100657.060262
100657.058422
100657.05783
100657.058377
100657.059956
100657.062461
100657.065797
100657.069887
100657.07469
100657.080213
100657.086542
100657.093867
100657.102511
100657.112956
100657.125844
100657.141922
100657.161889
100657.186027
100657.213536
100657.24159
100657.277515
100646.29721
100646.359574
100646.362947
100646.369002
100646.377679
100646.388989
100646.402874
100646.419337
100646.438294
100646.459706
100646.48344
100646.509407
100646.537436
100646.567395
100646.59909
100646.632375
100646.667051
100646.702978
100646.739975
100646.777925
100646.816678
100646.856151
100646.896231
100646.936875
100646.978007
100647.01962
100647.061672
100647.104187
100647.147148
100647.190599
100647.234542
100647.279033
100647.324081
100647.369745
100647.416036
100647.463013
100647.510681
100647.559094
100647.60825
100647.658195
100647.708917
100647.760452
100647.812779
100647.865918
100647.919841
100647.97456
100648.030132
100648.086471
100648.143348
100648.200748
100648.258608
100648.316891
100648.375515
100648.434426
100648.493524
100648.552733
100648.611936
100648.671038
100648.729906
100648.788429
100648.846458
100648.903868
100648.960501
100649.016219
100649.070855
100649.124265
100649.176274
100649.226734
100649.275466
100649.322321
100649.367116
100649.409703
100649.449901
100649.487561
100649.522505
100649.55459
100649.583643
100649.609529
100649.632088
100649.651198
100649.666721
100649.678566
100649.68663
100649.690869
100649.691244
100649.687785
100649.680543
100649.669646
100649.655251
100649.637594
100649.616929
100649.593578
100649.567859
100649.540162
100649.510756
100649.48022
100649.448837
100649.41672
100649.384291
100649.351828
100649.319607
100649.287897
100649.256928
100649.226924
100649.198066
100649.170527
100649.14444
100649.11993
100649.097084
100649.07598
100649.056665
100649.039177
100649.023527
100649.00972
100648.997735
100648.987556
100648.979087
100648.972235
100648.966925
100648.963084
100648.960621
100648.959447
100648.95946
100648.960566
100648.962668
100648.965684
100648.969548
100648.974233
100648.979758
100648.986219
100648.993809
100649.002845
100649.013787
100649.027236
100649.043867
100649.064272
100649.088579
100649.115771
100649.142774
100649.17488
100638.155516
100638.217815
100638.221049
100638.227005
100638.235621
100638.246893
100638.260756
100638.277208
100638.296165
100638.317591
100638.341369
100638.367422
100638.395598
100638.425786
100638.45781
100638.491542
100638.526799
100638.563454
100638.601334
100638.640327
100638.680287
100638.721128
100638.762734
100638.805054
100638.848
100638.891555
100638.935659
100638.980318
100639.025496
100639.071218
100639.117461
100639.164262
100639.211606
100639.259536
100639.308042
100639.357167
100639.4069
100639.457283
100639.508305
100639.560003
100639.612362
100639.665413
100639.719134
100639.773548
100639.828625
100639.884371
100639.940913
100639.998179
100640.055908
100640.114074
100640.17262
100640.231518
100640.290696
100640.350108
100640.409659
100640.469283
100640.528866
100640.588319
100640.64751
100640.706331
100640.764632
100640.82229
100640.879141
100640.935049
100640.98984
100641.043366
100641.095449
100641.145934
100641.194639
100641.241408
100641.286056
100641.328429
100641.368346
100641.405655
100641.440181
100641.471782
100641.50029
100641.525578
100641.547496
100641.565935
100641.580772
100641.591933
100641.599337
100641.602959
100641.602779
100641.598845
100641.59122
100641.58004
100641.565462
100641.547714
100641.527041
100641.503743
100641.478124
100641.450523
100641.42127
100641.390763
100641.35933
100641.327294
100641.294864
100641.262401
100641.230121
100641.198289
100641.167146
100641.136913
100641.107772
100641.079902
100641.053436
100641.028504
100641.005196
100640.983598
100640.963757
100640.94572
100640.929501
100640.915108
100640.902527
100640.891761
100640.882725
100640.875308
100640.869445
100640.865066
100640.862088
100640.860429
100640.859994
100640.860699
100640.862455
100640.86519
100640.868849
100640.873415
100640.878913
100640.885446
100640.893201
100640.902485
100640.913728
100640.92748
100640.94434
100640.964789
100640.988815
100641.015222
100641.040794
100641.069336
100630.001556
100630.063234
100630.066381
100630.072304
100630.080929
100630.092243
100630.10617
100630.122701
100630.141752
100630.163297
100630.187228
100630.213489
100630.241948
100630.272518
100630.305047
100630.339426
100630.375491
100630.413127
100630.452169
100630.492512
100630.534004
100630.576559
100630.620049
100630.664411
100630.709543
100630.755408
100630.801926
100630.849082
100630.896814
100630.945124
100630.993964
100631.043348
100631.093239
100631.143658
100631.194575
100631.246016
100631.297958
100631.350429
100631.403409
100631.45693
100631.510972
100631.565565
100631.620689
100631.676369
100631.732582
100631.789345
100631.846702
100631.904739
100631.963283
100632.02215
100632.081305
100632.140735
100632.200377
100632.260196
100632.320108
100632.380053
100632.439924
100632.499638
100632.559068
100632.618106
100632.676606
100632.734444
100632.791455
100632.847501
100632.902404
100632.956016
100633.00815
100633.058651
100633.107328
100633.154024
100633.198549
100633.240745
100633.280429
100633.31745
100633.351631
100633.382833
100633.410894
100633.435692
100633.457086
100633.47498
100633.489263
100633.499877
100633.506757
100633.509896
100633.509289
100633.504999
100633.497098
100633.48573
100633.471052
100633.453287
100633.43267
100633.409491
100633.384036
100633.356637
100633.327609
100633.297295
100633.266057
100633.23408
100633.201813
100633.169507
100633.137234
100633.105431
100633.074265
100633.043958
100633.014698
100632.98666
100632.959983
100632.934797
100632.911196
100632.889269
100632.869067
100632.85064
100632.834005
100632.819176
100632.806138
100632.794917
100632.785445
100632.777589
100632.771288
100632.76648
100632.763086
100632.761029
100632.760222
100632.760587
100632.762043
100632.764527
100632.767991
100632.772424
100632.777856
100632.784389
100632.792203
100632.801585
100632.812933
100632.826738
100632.843522
100632.86366
100632.887013
100632.912254
100632.936123
100632.961346
100621.834248
100621.894668
100621.897781
100621.903736
100621.912449
100621.923891
100621.937973
100621.954683
100621.973935
100621.995711
100622.01992
100622.046529
100622.07543
100622.106566
100622.139811
100622.175081
100622.212229
100622.251154
100622.291697
100622.333753
100622.377165
100622.421837
100622.467625
100622.514449
100622.562182
100622.610766
100622.660092
100622.710119
100622.760757
100622.81198
100622.863713
100622.915946
100622.968614
100623.02172
100623.075213
100623.129104
100623.183355
100623.237985
100623.292965
100623.348324
100623.404038
100623.46014
100623.516612
100623.573486
100623.630745
100623.688417
100623.746489
100623.805191
100623.864394
100623.923828
100623.983462
100624.043294
100624.103274
100624.163378
100624.223533
100624.283688
100624.343745
100624.403626
100624.463208
100624.522391
100624.581028
100624.638996
100624.696131
100624.752291
100624.807299
100624.861
100624.913205
100624.963754
100625.012453
100625.059138
100625.103616
100625.145727
100625.185283
100625.222133
100625.2561
100625.287046
100625.314814
100625.339286
100625.36033
100625.377858
100625.391773
100625.402027
100625.408571
100625.411411
100625.410557
100625.406081
100625.398065
100625.386658
100625.372018
100625.354364
100625.333923
100625.310976
100625.285798
100625.258705
100625.230001
100625.200016
100625.169043
100625.137405
100625.10545
100625.073344
100625.041391
100625.009785
100624.978725
100624.948516
100624.919302
100624.891262
100624.864539
100624.839262
100624.81553
100624.793432
100624.773023
100624.754356
100624.73745
100624.722322
100624.70896
100624.697401
100624.687601
100624.679416
100624.672784
100624.667644
100624.663921
100624.661544
100624.660431
100624.660509
100624.661704
100624.663959
100624.667231
100624.671512
100624.676835
100624.683296
100624.691064
100624.700402
100624.711669
100624.725298
100624.741733
100624.761249
100624.7836
100624.807376
100624.829362
100624.8515
100613.652527
100613.710973
100613.714106
100613.720162
100613.729042
100613.7407
100613.755033
100613.77202
100613.791577
100613.813699
100613.838313
100613.865415
100613.894929
100613.926833
100613.961032
100613.99747
100614.036019
100614.076589
100614.119025
100614.163217
100614.208996
100614.256248
100614.304805
100614.354562
100614.405362
100614.457113
100614.509676
100614.562976
100614.616889
100614.671361
100614.726285
100614.781623
100614.837289
100614.89326
100614.949469
100615.005911
100615.062535
100615.119355
100615.176334
100615.233499
100615.290828
100615.348358
100615.406076
100615.464021
100615.522187
100615.580609
100615.639266
100615.69844
100615.758084
100615.81793
100615.877886
100615.937966
100615.998136
100616.058384
100616.118649
100616.178893
100616.239026
100616.298979
100616.358636
100616.417898
100616.476624
100616.534692
100616.591937
100616.648218
100616.703352
100616.757184
100616.809519
100616.860192
100616.909005
100616.95579
100617.000348
100617.042515
100617.0821
100617.11895
100617.152887
100617.183774
100617.211455
100617.235819
100617.256737
100617.274131
100617.287913
100617.298046
100617.304491
100617.307266
100617.306392
100617.301951
100617.294031
100617.282785
100617.268371
100617.251007
100617.230913
100617.208362
100617.183619
100617.15699
100617.128765
100617.099261
100617.068772
100617.037609
100617.006047
100616.9744
100616.942872
100616.911666
100616.881024
100616.851062
100616.822043
100616.794175
100616.767569
100616.742363
100616.718656
100616.69654
100616.676073
100616.657308
100616.640269
100616.624976
100616.611423
100616.599605
100616.589548
100616.58115
100616.574287
100616.568904
100616.564931
100616.562301
100616.560939
100616.560775
100616.56174
100616.563782
100616.566861
100616.570971
100616.576143
100616.582464
100616.590088
100616.599253
100616.610273
100616.623525
100616.639373