/*--------------------------------*- C++ -*----------------------------------*\
| =========                 |                                                 |
| \\      /  F ield         | OpenFOAM: The Open Source CFD Toolbox           |
|  \\    /   O peration     | Version:  2206                                  |
|   \\  /    A nd           | Website:  www.openfoam.com                      |
|    \\/     M anipulation  |                                                 |
\*---------------------------------------------------------------------------*/
FoamFile
{
    version     2.0;
    format      ascii;
    arch        "LSB;label=64;scalar=64";
    class       volScalarField;
    location    "4";
    object      Gch4_0;
}
// * * * * * * * * * * * * * * * * * * * * * * * * * * * * * * * * * * * * * //

dimensions      [0 0 0 0 0 0 0];

internalField   nonuniform List<scalar> 
1024
(
2.1161e-18
2.44317e-18
3.46628e-18
5.54227e-18
9.27865e-18
1.56132e-17
2.58716e-17
4.17402e-17
6.50588e-17
9.73496e-17
1.39095e-16
1.88996e-16
2.43653e-16
2.97966e-16
3.45671e-16
3.77908e-16
3.79618e-16
3.51024e-16
3.07061e-16
2.55925e-16
2.03404e-16
1.54323e-16
1.12105e-16
7.83441e-17
5.29796e-17
3.48986e-17
2.25717e-17
1.45038e-17
9.4605e-18
6.52955e-18
5.09895e-18
4.80851e-18
3.07833e-18
3.54193e-18
4.9927e-18
7.92424e-18
1.31705e-17
2.20072e-17
3.62185e-17
5.80438e-17
8.98821e-17
1.33649e-16
1.89823e-16
2.565e-16
3.29051e-16
4.00726e-16
4.63397e-16
5.05652e-16
5.07949e-16
4.70515e-16
4.12698e-16
3.45105e-16
2.75287e-16
2.09661e-16
1.52894e-16
1.07258e-16
7.2804e-17
4.81348e-17
3.12492e-17
2.01596e-17
1.32076e-17
9.15788e-18
7.17645e-18
6.76759e-18
6.24986e-18
7.15461e-18
9.98899e-18
1.56807e-17
2.57793e-17
4.2622e-17
6.9424e-17
1.10138e-16
1.68875e-16
2.48727e-16
3.50093e-16
4.69132e-16
5.97358e-16
7.22913e-16
8.31936e-16
9.05192e-16
9.09346e-16
8.44593e-16
7.43849e-16
6.25128e-16
5.01422e-16
3.84104e-16
2.81749e-16
1.98799e-16
1.35711e-16
9.02345e-17
5.89184e-17
3.82437e-17
2.52256e-17
1.76143e-17
1.38751e-17
1.30836e-17
1.47886e-17
1.68435e-17
2.32906e-17
3.61556e-17
5.8782e-17
9.61405e-17
1.54951e-16
2.43295e-16
3.69312e-16
5.38693e-16
7.51309e-16
9.98281e-16
1.2616e-15
1.51712e-15
1.73745e-15
1.88502e-15
1.8938e-15
1.76377e-15
1.55989e-15
1.31763e-15
1.0629e-15
8.19089e-16
6.04461e-16
4.29067e-16
2.94642e-16
1.97062e-16
1.29446e-16
8.4563e-17
5.61715e-17
3.9507e-17
3.12838e-17
2.94979e-17
3.81342e-17
4.3214e-17
5.91829e-17
9.08508e-17
1.46064e-16
2.36316e-16
3.76874e-16
5.85681e-16
8.80178e-16
1.27156e-15
1.75735e-15
2.31552e-15
2.90457e-15
3.47108e-15
3.95628e-15
4.28034e-15
4.30071e-15
4.0164e-15
3.56712e-15
3.02876e-15
2.45742e-15
1.90532e-15
1.41481e-15
1.01049e-15
6.98126e-16
4.69742e-16
3.10468e-16
2.0415e-16
1.36576e-16
9.67525e-17
7.70148e-17
7.26305e-17
1.06363e-16
1.19911e-16
1.62609e-16
2.46756e-16
3.92178e-16
6.27479e-16
9.89941e-16
1.52231e-15
2.26451e-15
3.23944e-15
4.43558e-15
5.79439e-15
7.21316e-15
8.56504e-15
9.71503e-15
1.04812e-14
1.05324e-14
9.86421e-15
8.79957e-15
7.51255e-15
6.13304e-15
4.78627e-15
3.57771e-15
2.5721e-15
1.78852e-15
1.21113e-15
8.05686e-16
5.33419e-16
3.59493e-16
2.56556e-16
2.05314e-16
1.93718e-16
3.241e-16
3.63444e-16
4.87829e-16
7.31435e-16
1.14866e-15
1.81675e-15
2.83437e-15
4.31155e-15
6.3463e-15
8.98661e-15
1.21865e-14
1.57779e-14
1.94852e-14
2.29832e-14
2.5938e-14
2.79025e-14
2.80435e-14
2.63436e-14
2.36117e-14
2.02777e-14
1.66652e-14
1.30982e-14
9.86172e-15
7.14059e-15
5.00002e-15
3.40923e-15
2.28373e-15
1.523e-15
1.03436e-15
7.43845e-16
5.98606e-16
5.65251e-16
1.09448e-15
1.2206e-15
1.62093e-15
2.40004e-15
3.72223e-15
5.81686e-15
8.97046e-15
1.34927e-14
1.96438e-14
2.75231e-14
3.6948e-14
4.739e-14
5.80378e-14
6.79796e-14
7.6317e-14
8.18518e-14
8.22818e-14
7.75422e-14
6.98545e-14
6.03756e-14
4.99819e-14
3.959e-14
3.00438e-14
2.19242e-14
1.54692e-14
1.06266e-14
7.17192e-15
4.82016e-15
3.30049e-15
2.39255e-15
1.93668e-15
1.83084e-15
4.16006e-15
4.61296e-15
6.05787e-15
8.85219e-15
1.35499e-14
2.09101e-14
3.18584e-14
4.7359e-14
6.81642e-14
9.44516e-14
1.25458e-13
1.59334e-13
1.93425e-13
2.24901e-13
2.51102e-13
2.68479e-13
2.69952e-13
2.55268e-13
2.31213e-13
2.01223e-13
1.67908e-13
1.34132e-13
1.02675e-13
7.5571e-14
5.37681e-14
3.72388e-14
2.53381e-14
1.71726e-14
1.18614e-14
8.6713e-15
7.0627e-15
6.68642e-15
1.8078e-14
1.99271e-14
2.58639e-14
3.72721e-14
5.62654e-14
8.56834e-14
1.28893e-13
1.89253e-13
2.69138e-13
3.68605e-13
4.84169e-13
6.08526e-13
7.31894e-13
8.44445e-13
9.37426e-13
9.99068e-13
1.00481e-12
9.53569e-13
8.68736e-13
7.61703e-13
6.41093e-13
5.16917e-13
3.99481e-13
2.96818e-13
2.13137e-13
1.48948e-13
1.02257e-13
6.9939e-14
4.87641e-14
3.59716e-14
2.94926e-14
2.7971e-14
9.12099e-14
9.99149e-14
1.28088e-13
1.81876e-13
2.70526e-13
4.0619e-13
6.02831e-13
8.73656e-13
1.22674e-12
1.65948e-12
2.15405e-12
2.67751e-12
3.18882e-12
3.6494e-12
4.02698e-12
4.27739e-12
4.30313e-12
4.09915e-12
3.75754e-12
3.32101e-12
2.8214e-12
2.29819e-12
1.79484e-12
1.34761e-12
9.7762e-13
6.90043e-13
4.78444e-13
3.30538e-13
2.32837e-13
1.73433e-13
1.4321e-13
1.36107e-13
5.42178e-13
5.90054e-13
7.46568e-13
1.04343e-12
1.52757e-12
2.2592e-12
3.30496e-12
4.72363e-12
6.54352e-12
8.73583e-12
1.11966e-11
1.37544e-11
1.62115e-11
1.83955e-11
2.01723e-11
2.13522e-11
2.14865e-11
2.05484e-11
1.89584e-11
1.68991e-11
1.45023e-11
1.1945e-11
9.4375e-12
7.16866e-12
5.26007e-12
3.75437e-12
2.63201e-12
1.83877e-12
1.30997e-12
9.86125e-13
8.20577e-13
7.81777e-13
3.84883e-12
4.15999e-12
5.19041e-12
7.13206e-12
1.02643e-11
1.49353e-11
2.15133e-11
3.02927e-11
4.1358e-11
5.44375e-11
6.88312e-11
8.35023e-11
9.7347e-11
1.09485e-10
1.19288e-10
1.2581e-10
1.26631e-10
1.21591e-10
1.12939e-10
1.01577e-10
8.81169e-11
7.34605e-11
5.87844e-11
4.52319e-11
3.3615e-11
2.42949e-11
1.72448e-11
1.21991e-11
8.80042e-12
6.70215e-12
5.624e-12
5.37295e-12
3.30235e-11
3.54366e-11
4.35623e-11
5.87759e-11
8.30404e-11
1.18721e-10
1.68168e-10
2.33001e-10
3.13143e-10
4.05921e-10
5.05838e-10
6.05553e-10
6.97908e-10
7.77754e-10
8.41785e-10
8.84503e-10
8.90417e-10
8.58428e-10
8.02851e-10
7.28861e-10
6.39558e-10
5.40179e-10
4.38345e-10
3.42153e-10
2.57936e-10
1.89072e-10
1.36102e-10
9.76471e-11
7.14353e-11
5.51037e-11
4.66652e-11
4.47213e-11
3.45978e-10
3.68478e-10
4.45906e-10
5.89975e-10
8.17015e-10
1.14586e-09
1.59367e-09
2.16946e-09
2.86609e-09
3.65429e-09
4.4834e-09
5.29235e-09
6.02711e-09
6.65341e-09
7.15218e-09
7.48578e-09
7.53593e-09
7.29411e-09
6.86938e-09
6.29648e-09
5.59186e-09
4.78946e-09
3.94633e-09
3.12966e-09
2.39747e-09
1.78569e-09
1.30608e-09
9.52137e-10
7.07587e-10
5.53606e-10
4.73555e-10
4.55401e-10
4.46171e-09
4.7152e-09
5.61237e-09
7.27157e-09
9.85305e-09
1.35308e-08
1.84433e-08
2.46239e-08
3.1926e-08
3.99816e-08
4.82408e-08
5.61067e-08
6.31067e-08
6.89867e-08
7.3635e-08
7.67484e-08
7.72455e-08
7.50529e-08
7.1172e-08
6.58761e-08
5.92407e-08
5.15008e-08
4.31452e-08
3.4824e-08
2.71618e-08
2.06009e-08
1.53441e-08
1.13911e-08
8.61672e-09
6.84858e-09
5.92302e-09
5.71764e-09
6.66224e-08
6.98597e-08
8.17323e-08
1.03555e-07
1.37039e-07
1.83881e-07
2.45123e-07
3.20332e-07
4.06868e-07
4.99705e-07
5.92262e-07
6.7815e-07
7.52945e-07
8.14798e-07
8.63273e-07
8.95698e-07
9.0099e-07
8.78527e-07
8.38703e-07
7.83886e-07
7.1401e-07
6.30507e-07
5.3774e-07
4.4251e-07
3.52173e-07
2.72643e-07
2.07316e-07
1.57119e-07
1.21248e-07
9.8068e-08
8.58427e-08
8.32108e-08
9.06331e-07
9.43163e-07
1.08437e-06
1.34236e-06
1.73238e-06
2.26739e-06
2.95078e-06
3.76827e-06
4.6823e-06
5.63388e-06
6.55484e-06
7.38658e-06
8.0949e-06
8.67124e-06
9.11857e-06
9.41655e-06
9.46444e-06
9.25825e-06
8.89446e-06
8.39117e-06
7.74006e-06
6.94378e-06
6.03315e-06
5.06803e-06
4.12257e-06
3.26444e-06
2.53977e-06
1.96929e-06
1.55329e-06
1.28025e-06
1.13509e-06
1.10508e-06
9.40737e-06
9.71944e-06
1.09844e-05
1.3283e-05
1.67057e-05
2.13057e-05
2.70398e-05
3.3712e-05
4.09514e-05
4.82572e-05
5.51169e-05
6.11464e-05
6.61702e-05
7.01943e-05
7.32878e-05
7.53384e-05
7.56569e-05
7.4228e-05
7.17275e-05
6.82597e-05
6.37191e-05
5.80484e-05
5.13791e-05
4.40795e-05
3.66855e-05
2.97535e-05
2.37224e-05
1.88478e-05
1.52133e-05
1.27867e-05
1.14852e-05
1.12289e-05
7.52483e-05
7.7231e-05
8.58467e-05
0.000101432
0.000124286
0.000154358
0.000190903
0.000232216
0.000275661
0.000318122
0.000356786
0.000389873
0.000416865
0.000438166
0.00045439
0.000465089
0.000466669
0.000459109
0.000446016
0.000427854
0.000403852
0.000373325
0.000336468
0.000294831
0.000251196
0.00020888
0.000170876
0.000139275
0.000115137
9.8718e-05
8.98266e-05
8.81761e-05
0.000467579
0.00047706
0.000521993
0.000602988
0.000719954
0.000870571
0.00104884
0.00124442
0.00144355
0.00163189
0.00179821
0.00193688
0.00204777
0.00213407
0.00219925
0.00224202
0.00224795
0.00221716
0.00216443
0.00209137
0.00199419
0.0018687
0.00171357
0.00153296
0.00133717
0.00114062
0.000958127
0.000801721
0.000679106
0.000593985
0.000547402
0.000539344
0.00228112
0.0023154
0.00249649
0.00282219
0.00328551
0.00386921
0.00454163
0.00525686
0.00596131
0.00660592
0.00715825
0.00760746
0.00796013
0.00823118
0.00843439
0.00856715
0.00858428
0.00848663
0.00832126
0.00809267
0.00778721
0.00738802
0.00688442
0.00628169
0.00560681
0.00490558
0.00423204
0.00363619
0.00315592
0.00281507
0.00262637
0.00259635
0.00885605
0.00895027
0.00952081
0.0105464
0.0119845
0.0137569
0.0157433
0.0177902
0.0197397
0.0214659
0.0229027
0.0240447
0.0249266
0.0255972
0.0260968
0.0264221
0.026461
0.0262164
0.0258064
0.0252411
0.0244835
0.0234845
0.0222032
0.0206325
0.0188208
0.0168757
0.0149437
0.0131785
0.0117137
0.0106491
0.010052
0.0099658
0.027814
0.0280115
0.0294367
0.0320025
0.035553
0.0398349
0.0445013
0.0491579
0.053446
0.057124
0.0601035
0.0624235
0.0641902
0.0655215
0.0665084
0.0671493
0.0672203
0.0667279
0.06591
0.0647847
0.0632743
0.0612698
0.0586657
0.0554097
0.0515572
0.0472976
0.0429323
0.0388165
0.0352979
0.032675
0.0311813
0.0309885
0.0720265
0.0723414
0.0752096
0.0803979
0.0874922
0.0958659
0.104735
0.113304
0.120937
0.127291
0.132315
0.136158
0.139051
0.141216
0.142814
0.143851
0.143957
0.143145
0.141807
0.139969
0.137499
0.134206
0.129888
0.124406
0.117786
0.110287
0.102393
0.0947365
0.0880005
0.0828434
0.0798524
0.0795093
0.157063
0.157437
0.162175
0.170819
0.182512
0.196012
0.209897
0.222881
0.23409
0.24317
0.250199
0.255501
0.259455
0.262398
0.264565
0.265969
0.266104
0.264986
0.263152
0.260638
0.257257
0.252737
0.246768
0.239107
0.229714
0.21888
0.207248
0.195717
0.18532
0.177145
0.172296
0.171799
0.294903
0.295209
0.301773
0.313887
0.330082
0.348327
0.366525
0.38301
0.396836
0.407775
0.416101
0.42231
0.426911
0.430322
0.43283
0.434453
0.434601
0.433289
0.431148
0.428216
0.42427
0.418984
0.411971
0.402897
0.391654
0.378537
0.364296
0.350017
0.336945
0.326435
0.320033
0.319428
0.487608
0.487737
0.495554
0.510104
0.529216
0.550136
0.570348
0.588121
0.602661
0.613949
0.62243
0.628705
0.633332
0.636754
0.639267
0.640894
0.641037
0.639708
0.637546
0.634587
0.630605
0.625262
0.618149
0.608895
0.597345
0.583784
0.569019
0.554239
0.540733
0.529784
0.522942
0.522328
0.725551
0.725543
0.733734
0.748828
0.768078
0.788458
0.807549
0.823914
0.837042
0.847094
0.854578
0.860086
0.864135
0.867124
0.869318
0.870741
0.870865
0.869696
0.867797
0.8652
0.861706
0.857012
0.850751
0.84257
0.832305
0.820206
0.807063
0.794083
0.782514
0.773357
0.767627
0.767179
0.991017
0.991134
0.998681
1.01192
1.02809
1.04464
1.05975
1.07245
1.08251
1.09014
1.09579
1.09994
1.10298
1.10522
1.10687
1.10794
1.10803
1.10715
1.10572
1.10377
1.10114
1.0976
1.09289
1.0867
1.07891
1.06969
1.0597
1.05001
1.04174
1.03569
1.03222
1.03221
1.26398
1.26449
1.27007
1.27901
1.28946
1.29988
1.30923
1.317
1.32311
1.32772
1.33112
1.33361
1.33544
1.33679
1.33778
1.33842
1.33848
1.33795
1.33709
1.33591
1.33433
1.33221
1.32937
1.32564
1.32093
1.31533
1.30926
1.30343
1.29867
1.29558
1.29433
1.29486
1.52647
1.52681
1.52889
1.532
1.53554
1.53903
1.54213
1.54469
1.5467
1.54821
1.54933
1.55014
1.55074
1.55118
1.55151
1.55172
1.55174
1.55156
1.55128
1.5509
1.55038
1.54968
1.54875
1.54753
1.54598
1.54413
1.54212
1.54019
1.53864
1.53772
1.53751
1.53788
)
;

boundaryField
{
    movingWall
    {
        type            fixedValue;
        value           uniform 1.6535;
    }
    fixedWalls
    {
        type            zeroGradient;
    }
    frontAndBack
    {
        type            empty;
    }
}


// ************************************************************************* //
