/*--------------------------------*- C++ -*----------------------------------*\
| =========                 |                                                 |
| \\      /  F ield         | OpenFOAM: The Open Source CFD Toolbox           |
|  \\    /   O peration     | Version:  2206                                  |
|   \\  /    A nd           | Website:  www.openfoam.com                      |
|    \\/     M anipulation  |                                                 |
\*---------------------------------------------------------------------------*/
FoamFile
{
    version     2.0;
    format      ascii;
    arch        "LSB;label=64;scalar=64";
    class       surfaceScalarField;
    location    "4";
    object      phi_0;
}
// * * * * * * * * * * * * * * * * * * * * * * * * * * * * * * * * * * * * * //

dimensions      [0 3 -1 0 0 0 0];

oriented        oriented;

internalField   nonuniform List<scalar> 
1984
(
-3.09712e-12
3.08833e-12
-2.48121e-11
2.17146e-11
-6.68801e-11
4.20675e-11
-1.24557e-10
5.76766e-11
-1.94089e-10
6.95315e-11
-2.74396e-10
8.03054e-11
-3.65869e-10
9.14728e-11
-4.69136e-10
1.03266e-10
-5.84417e-10
1.1528e-10
-7.11097e-10
1.2668e-10
-8.47198e-10
1.361e-10
-9.88631e-10
1.41432e-10
-1.12819e-09
1.39556e-10
-1.25425e-09
1.26061e-10
-1.34935e-09
9.51002e-11
-1.38843e-09
3.90808e-11
-1.3504e-09
-3.80281e-11
-1.25604e-09
-9.43622e-11
-1.13039e-09
-1.25656e-10
-9.90963e-10
-1.39425e-10
-8.49462e-10
-1.41501e-10
-7.13168e-10
-1.36295e-10
-5.86226e-10
-1.26943e-10
-4.70657e-10
-1.15571e-10
-3.67101e-10
-1.03556e-10
-2.75355e-10
-9.17467e-11
-1.94801e-10
-8.05551e-11
-1.25047e-10
-6.97554e-11
-6.71743e-11
-5.78732e-11
-2.4947e-11
-4.2228e-11
-3.12623e-12
-2.18214e-11
-3.12646e-12
-2.17128e-11
2.48009e-11
-9.11936e-11
9.11949e-11
-2.09619e-10
1.60492e-10
-3.69068e-10
2.17124e-10
-5.62076e-10
2.62539e-10
-7.86097e-10
3.04325e-10
-1.04189e-09
3.47261e-10
-1.33088e-09
3.92261e-10
-1.65352e-09
4.37918e-10
-2.00796e-09
4.81122e-10
-2.38858e-09
5.16714e-10
-2.78384e-09
5.36686e-10
-3.17348e-09
5.29195e-10
-3.52497e-09
4.77557e-10
-3.78923e-09
3.59361e-10
-3.89719e-09
1.47031e-10
-3.7916e-09
-1.43616e-10
-3.529e-09
-3.56966e-10
-3.17842e-09
-4.76238e-10
-2.78907e-09
-5.2877e-10
-2.39367e-09
-5.36908e-10
-2.01262e-09
-5.17345e-10
-1.65759e-09
-4.81975e-10
-1.33431e-09
-4.38858e-10
-1.04466e-09
-3.93201e-10
-7.88264e-10
-3.48147e-10
-5.63689e-10
-3.05132e-10
-3.70186e-10
-2.63259e-10
-2.10308e-10
-2.17753e-10
-9.15312e-11
-1.61006e-10
-2.18089e-11
-9.15446e-11
-2.49355e-11
-4.21124e-11
6.69131e-11
-1.60722e-10
2.09805e-10
-3.51507e-10
3.51276e-10
-6.03922e-10
4.69539e-10
-9.0903e-10
5.67646e-10
-1.26387e-09
6.59165e-10
-1.66964e-09
7.53032e-10
-2.1284e-09
8.51018e-10
-2.64065e-09
9.50169e-10
-3.20335e-09
1.04382e-09
-3.80745e-09
1.12082e-09
-4.43457e-09
1.1638e-09
-5.05249e-09
1.14711e-09
-5.60955e-09
1.03461e-09
-6.02779e-09
7.77603e-10
-6.19822e-09
3.17463e-10
-6.03097e-09
-3.10868e-10
-5.61496e-09
-7.72979e-10
-5.05913e-09
-1.03206e-09
-4.44161e-09
-1.14629e-09
-3.81429e-09
-1.16423e-09
-3.20961e-09
-1.12203e-09
-2.64612e-09
-1.04546e-09
-2.133e-09
-9.51982e-10
-1.67337e-09
-8.5283e-10
-1.26678e-09
-7.54741e-10
-9.11189e-10
-6.6072e-10
-6.0542e-10
-5.6903e-10
-3.52434e-10
-4.70739e-10
-1.61187e-10
-3.52254e-10
-4.22507e-11
-2.10482e-10
-6.71864e-11
-5.79811e-11
1.24894e-10
-2.1842e-10
3.70243e-10
-4.72062e-10
6.04917e-10
-8.04446e-10
8.01922e-10
-1.20507e-09
9.68272e-10
-1.67102e-09
1.12512e-09
-2.20418e-09
1.28618e-09
-2.80721e-09
1.45405e-09
-3.48067e-09
1.62364e-09
-4.22048e-09
1.78362e-09
-5.01465e-09
1.91498e-09
-5.83895e-09
1.9881e-09
-6.651e-09
1.95917e-09
-7.38289e-09
1.7665e-09
-7.93233e-09
1.32704e-09
-8.15616e-09
5.41294e-10
-7.93613e-09
-5.30909e-10
-7.38934e-09
-1.31976e-09
-6.65892e-09
-1.76249e-09
-5.84733e-09
-1.95788e-09
-5.02279e-09
-1.98877e-09
-4.22792e-09
-1.9169e-09
-3.48717e-09
-1.78621e-09
-2.81266e-09
-1.62649e-09
-2.20859e-09
-1.4569e-09
-1.67446e-09
-1.28888e-09
-1.20761e-09
-1.12757e-09
-8.06189e-10
-9.70449e-10
-4.73131e-10
-8.03798e-10
-2.18951e-10
-6.06435e-10
-5.81376e-11
-3.71296e-10
-1.25324e-10
-7.05432e-11
1.95436e-10
-2.6664e-10
5.66339e-10
-5.76306e-10
9.14582e-10
-9.81004e-10
1.20662e-09
-1.46792e-09
1.45518e-09
-2.03387e-09
1.69107e-09
-2.68141e-09
1.93373e-09
-3.41391e-09
2.18654e-09
-4.23204e-09
2.44176e-09
-5.13076e-09
2.68235e-09
-6.09549e-09
2.8797e-09
-7.09675e-09
2.98936e-09
-8.08307e-09
2.94549e-09
-8.972e-09
2.65542e-09
-9.6396e-09
1.99464e-09
-9.91177e-09
8.13466e-10
-9.64404e-09
-7.98638e-10
-8.97954e-09
-1.98426e-09
-8.09233e-09
-2.64971e-09
-7.10655e-09
-2.94366e-09
-6.105e-09
-2.99032e-09
-5.13946e-09
-2.88244e-09
-4.23963e-09
-2.68605e-09
-3.42028e-09
-2.44585e-09
-2.68655e-09
-2.19063e-09
-2.03785e-09
-1.93759e-09
-1.47084e-09
-1.69458e-09
-9.82994e-10
-1.45829e-09
-5.77511e-10
-1.20928e-09
-2.67229e-10
-9.16718e-10
-7.07136e-11
-5.67812e-10
-1.96038e-10
-8.28415e-11
2.78277e-10
-3.14395e-10
7.97892e-10
-6.80899e-10
1.28109e-09
-1.15998e-09
1.6857e-09
-1.73606e-09
2.03126e-09
-2.40528e-09
2.36029e-09
-3.17078e-09
2.69922e-09
-4.0366e-09
3.05236e-09
-5.00358e-09
3.40875e-09
-6.06577e-09
3.74453e-09
-7.20586e-09
4.01979e-09
-8.389e-09
4.1725e-09
-9.55438e-09
4.11088e-09
-1.06047e-08
3.70571e-09
-1.13939e-08
2.78383e-09
-1.17159e-08
1.13553e-09
-1.13991e-08
-1.11543e-09
-1.06136e-08
-2.76977e-09
-9.56537e-09
-3.69797e-09
-8.40064e-09
-4.10839e-09
-7.21716e-09
-4.1738e-09
-6.0761e-09
-4.0235e-09
-5.01259e-09
-3.74955e-09
-4.04415e-09
-3.41429e-09
-3.17686e-09
-3.05791e-09
-2.40999e-09
-2.70447e-09
-1.7395e-09
-2.36507e-09
-1.16231e-09
-2.03548e-09
-6.82299e-10
-1.68929e-09
-3.15072e-10
-1.28395e-09
-8.30353e-11
-7.9985e-10
-2.79073e-10
-9.69576e-11
3.75234e-10
-3.68787e-10
1.06972e-09
-7.9983e-10
1.71213e-09
-1.3637e-09
2.24958e-09
-2.04175e-09
2.7093e-09
-2.82921e-09
3.14775e-09
-3.72969e-09
3.5997e-09
-4.74796e-09
4.07064e-09
-5.88501e-09
4.5458e-09
-7.13378e-09
4.99329e-09
-8.47385e-09
5.35986e-09
-9.86418e-09
5.56283e-09
-1.12333e-08
5.48001e-09
-1.2467e-08
4.93942e-09
-1.33943e-08
3.7111e-09
-1.3773e-08
1.51426e-09
-1.34007e-08
-1.48778e-09
-1.24779e-08
-3.69257e-09
-1.12466e-08
-4.92922e-09
-9.87831e-09
-5.47673e-09
-8.48757e-09
-5.56454e-09
-7.14632e-09
-5.36475e-09
-5.89596e-09
-4.99991e-09
-4.75713e-09
-4.55312e-09
-3.73708e-09
-4.07797e-09
-2.83491e-09
-3.60664e-09
-2.04591e-09
-3.15407e-09
-1.36652e-09
-2.71487e-09
-8.01519e-10
-2.2543e-09
-3.69601e-10
-1.71587e-09
-9.71897e-11
-1.07226e-09
-3.76263e-10
-1.14113e-10
4.89346e-10
-4.34512e-10
1.39012e-09
-9.43094e-10
2.22071e-09
-1.60878e-09
2.91526e-09
-2.40935e-09
3.50988e-09
-3.339e-09
4.0774e-09
-4.40181e-09
4.66251e-09
-5.60332e-09
5.27214e-09
-6.94457e-09
5.88706e-09
-8.4171e-09
6.46582e-09
-9.99664e-09
6.93941e-09
-1.16347e-08
7.20085e-09
-1.32469e-08
7.09223e-09
-1.4699e-08
6.39152e-09
-1.57902e-08
4.80236e-09
-1.62362e-08
1.96019e-09
-1.57982e-08
-1.92579e-09
-1.47124e-08
-4.77829e-09
-1.32634e-08
-6.37824e-09
-1.16522e-08
-7.08794e-09
-1.00137e-08
-7.20305e-09
-8.4327e-09
-6.94576e-09
-6.9582e-09
-6.47442e-09
-5.61474e-09
-5.89658e-09
-4.41102e-09
-5.28169e-09
-3.3461e-09
-4.67155e-09
-2.41454e-09
-4.08563e-09
-1.61229e-09
-3.51713e-09
-9.45201e-10
-2.92138e-09
-4.35528e-10
-2.22554e-09
-1.14402e-10
-1.39339e-09
-4.90666e-10
-1.35493e-10
6.24837e-10
-5.16237e-10
1.77086e-09
-1.12094e-09
2.82541e-09
-1.91267e-09
3.70699e-09
-2.86491e-09
4.46211e-09
-3.97053e-09
5.18302e-09
-5.2342e-09
5.92618e-09
-6.66227e-09
6.70021e-09
-8.25572e-09
7.48051e-09
-1.00041e-08
8.21425e-09
-1.18784e-08
8.81364e-09
-1.38204e-08
9.14289e-09
-1.57301e-08
9.00195e-09
-1.74487e-08
8.11005e-09
-1.87393e-08
6.09298e-09
-1.92667e-08
2.48761e-09
-1.87494e-08
-2.44314e-09
-1.74658e-08
-6.06183e-09
-1.57513e-08
-8.09282e-09
-1.38428e-08
-8.99635e-09
-1.19002e-08
-9.14569e-09
-1.00241e-08
-8.82183e-09
-8.27319e-09
-8.22538e-09
-6.67692e-09
-7.49284e-09
-5.24602e-09
-6.7126e-09
-3.97966e-09
-5.93791e-09
-2.87158e-09
-5.19371e-09
-1.91719e-09
-4.47152e-09
-1.12365e-09
-3.71492e-09
-5.17547e-10
-2.83164e-09
-1.35866e-10
-1.77507e-09
-6.26532e-10
-1.62796e-10
7.87632e-10
-6.20524e-10
2.22859e-09
-1.34771e-09
3.5526e-09
-2.29993e-09
4.65921e-09
-3.44512e-09
5.6073e-09
-4.77451e-09
6.5124e-09
-6.2934e-09
7.44507e-09
-8.00904e-09
8.41586e-09
-9.9221e-09
9.39356e-09
-1.20194e-08
1.03116e-08
-1.42653e-08
1.10595e-08
-1.65894e-08
1.1467e-08
-1.88715e-08
1.1284e-08
-2.0922e-08
1.01606e-08
-2.24599e-08
7.63089e-09
-2.30881e-08
3.11587e-09
-2.24731e-08
-3.05819e-09
-2.09445e-08
-7.59039e-09
-1.88993e-08
-1.01381e-08
-1.6619e-08
-1.12766e-08
-1.42942e-08
-1.14705e-08
-1.20459e-08
-1.10701e-08
-9.94529e-09
-1.0326e-08
-8.02852e-09
-9.40961e-09
-6.30912e-09
-8.432e-09
-4.78665e-09
-7.46038e-09
-3.45401e-09
-6.52635e-09
-2.30595e-09
-5.61958e-09
-1.35133e-09
-4.66955e-09
-6.22272e-10
-3.56071e-09
-1.63294e-10
-2.23405e-09
-7.89826e-10
-1.98681e-10
9.86312e-10
-7.57553e-10
2.78746e-09
-1.64558e-09
4.44063e-09
-2.8084e-09
5.82201e-09
-4.2066e-09
7.0055e-09
-5.82914e-09
8.13494e-09
-7.682e-09
9.29793e-09
-9.77335e-09
1.05072e-08
-1.2103e-08
1.17233e-08
-1.46539e-08
1.28624e-08
-1.73809e-08
1.37865e-08
-2.01973e-08
1.42835e-08
-2.29566e-08
1.40433e-08
-2.543e-08
1.2634e-08
-2.72811e-08
9.48195e-09
-2.80367e-08
3.87146e-09
-2.72991e-08
-3.79583e-09
-2.54608e-08
-9.42869e-09
-2.29947e-08
-1.26042e-08
-2.0238e-08
-1.40333e-08
-1.74206e-08
-1.42879e-08
-1.46904e-08
-1.38003e-08
-1.21351e-08
-1.28814e-08
-9.80028e-09
-1.17444e-08
-7.70377e-09
-1.05285e-08
-5.84597e-09
-9.31818e-09
-4.21893e-09
-8.1534e-09
-2.81676e-09
-7.02175e-09
-1.65061e-09
-5.83569e-09
-7.5998e-10
-4.45134e-09
-1.99373e-10
-2.79466e-09
-9.89199e-10
-2.4743e-10
1.23374e-09
-9.43682e-10
3.48371e-09
-2.05011e-09
5.54705e-09
-3.49869e-09
7.2706e-09
-5.23995e-09
8.74676e-09
-7.25949e-09
1.01545e-08
-9.56389e-09
1.16023e-08
-1.2162e-08
1.31053e-08
-1.5052e-08
1.46132e-08
-1.82101e-08
1.60205e-08
-2.15781e-08
1.71545e-08
-2.50461e-08
1.77515e-08
-2.84321e-08
1.74293e-08
-3.14562e-08
1.5658e-08
-3.37119e-08
1.17377e-08
-3.46315e-08
4.79105e-09
-3.37372e-08
-4.69008e-09
-3.14997e-08
-1.16662e-08
-2.84862e-08
-1.56177e-08
-2.51042e-08
-1.74153e-08
-2.16351e-08
-1.7757e-08
-1.82627e-08
-1.71726e-08
-1.50982e-08
-1.60458e-08
-1.2201e-08
-1.46416e-08
-9.59543e-09
-1.31341e-08
-7.28391e-09
-1.16297e-08
-5.25785e-09
-1.01795e-08
-3.51083e-09
-8.76876e-09
-2.05741e-09
-7.28912e-09
-9.47208e-10
-5.56154e-09
-2.48434e-10
-3.49343e-09
-1.23763e-09
-3.16153e-10
1.54989e-09
-1.20609e-09
4.37364e-09
-2.6203e-09
6.96126e-09
-4.47139e-09
9.12168e-09
-6.6953e-09
1.09707e-08
-9.27248e-09
1.27317e-08
-1.22097e-08
1.45395e-08
-1.55157e-08
1.64114e-08
-1.91847e-08
1.82822e-08
-2.31823e-08
2.00182e-08
-2.74296e-08
2.14017e-08
-3.17831e-08
2.2105e-08
-3.60113e-08
2.16575e-08
-3.97667e-08
1.94135e-08
-4.2554e-08
1.4525e-08
-4.3688e-08
5.92508e-09
-4.25913e-08
-5.78685e-09
-3.98311e-08
-1.44264e-08
-3.60918e-08
-1.9357e-08
-3.187e-08
-2.16371e-08
-2.75154e-08
-2.21116e-08
-2.32618e-08
-2.14262e-08
-1.92548e-08
-2.00529e-08
-1.55749e-08
-1.83215e-08
-1.22577e-08
-1.64513e-08
-9.30976e-09
-1.45777e-08
-6.72264e-09
-1.27666e-08
-4.48994e-09
-1.10015e-08
-2.63146e-09
-9.14761e-09
-1.21147e-09
-6.98153e-09
-3.17685e-10
-4.38722e-09
-1.55532e-09
-4.17181e-10
1.96707e-09
-1.59176e-09
5.54821e-09
-3.45815e-09
8.82766e-09
-5.90014e-09
1.15637e-08
-8.83167e-09
1.39022e-08
-1.22246e-08
1.61246e-08
-1.60843e-08
1.83992e-08
-2.04173e-08
2.07444e-08
-2.52091e-08
2.30741e-08
-3.04059e-08
2.5215e-08
-3.5895e-08
2.68907e-08
-4.14813e-08
2.76914e-08
-4.68626e-08
2.70388e-08
-5.16014e-08
2.41522e-08
-5.50917e-08
1.80153e-08
-5.65072e-08
7.34063e-09
-5.51487e-08
-7.14536e-09
-5.17006e-08
-1.78745e-08
-4.69878e-08
-2.40698e-08
-4.16177e-08
-2.70072e-08
-3.60307e-08
-2.76986e-08
-3.05327e-08
-2.69243e-08
-2.53215e-08
-2.5264e-08
-2.05126e-08
-2.31304e-08
-1.61618e-08
-2.08021e-08
-1.22849e-08
-1.84546e-08
-8.87594e-09
-1.61755e-08
-5.93019e-09
-1.39472e-08
-3.47621e-09
-1.16016e-08
-1.60046e-09
-8.85728e-09
-4.19655e-10
-5.56803e-09
-1.97497e-09
-5.73014e-10
2.54009e-09
-2.18719e-09
7.1624e-09
-4.75172e-09
1.13922e-08
-8.10465e-09
1.49166e-08
-1.21243e-08
1.79218e-08
-1.67667e-08
2.07671e-08
-2.20317e-08
2.36642e-08
-2.79175e-08
2.66301e-08
-3.43895e-08
2.95461e-08
-4.13563e-08
3.21817e-08
-4.86453e-08
3.41798e-08
-5.59789e-08
3.5025e-08
-6.29513e-08
3.40112e-08
-6.90077e-08
3.02086e-08
-7.34143e-08
2.24219e-08
-7.51921e-08
9.11844e-09
-7.35051e-08
-8.83238e-09
-6.91673e-08
-2.22123e-08
-6.31555e-08
-3.00816e-08
-5.62044e-08
-3.39583e-08
-4.88725e-08
-3.50305e-08
-4.15705e-08
-3.42263e-08
-3.45811e-08
-3.22534e-08
-2.80812e-08
-2.96303e-08
-2.21655e-08
-2.67177e-08
-1.6871e-08
-2.37491e-08
-1.2201e-08
-2.08456e-08
-8.15675e-09
-1.79914e-08
-4.78301e-09
-1.49753e-08
-2.20225e-09
-1.1438e-08
-5.77277e-10
-7.193e-09
-2.55225e-09
-8.28941e-10
3.36903e-09
-3.16338e-09
9.49684e-09
-6.86922e-09
1.5098e-08
-1.17077e-08
1.9755e-08
-1.74957e-08
2.37098e-08
-2.41584e-08
2.74298e-08
-3.16778e-08
3.11835e-08
-4.00255e-08
3.49778e-08
-4.91176e-08
3.86381e-08
-5.87819e-08
4.18461e-08
-6.87324e-08
4.41304e-08
-7.85512e-08
4.48437e-08
-8.76817e-08
4.31417e-08
-9.54311e-08
3.7958e-08
-1.00955e-07
2.79455e-08
-1.03163e-07
1.13263e-08
-1.01104e-07
-1.08909e-08
-9.56982e-08
-2.76181e-08
-8.80303e-08
-3.77495e-08
-7.89444e-08
-4.30442e-08
-6.91365e-08
-4.48384e-08
-5.91693e-08
-4.41935e-08
-4.94687e-08
-4.1954e-08
-4.03286e-08
-3.87704e-08
-3.19274e-08
-3.5119e-08
-2.4354e-08
-3.13225e-08
-1.76399e-08
-2.75596e-08
-1.18058e-08
-2.38256e-08
-6.92814e-09
-1.9853e-08
-3.19168e-09
-1.51745e-08
-8.36934e-10
-9.54775e-09
-3.38919e-09
-1.09951e-09
4.46854e-09
-4.18774e-09
1.25851e-08
-9.08057e-09
1.99909e-08
-1.54551e-08
2.61296e-08
-2.30568e-08
3.13115e-08
-3.1763e-08
3.6136e-08
-4.15109e-08
4.09314e-08
-5.22068e-08
4.56738e-08
-6.36678e-08
5.00991e-08
-7.55881e-08
5.37664e-08
-8.75266e-08
5.60688e-08
-9.89182e-08
5.62353e-08
-1.09113e-07
5.33362e-08
-1.17424e-07
4.62688e-08
-1.23136e-07
3.3658e-08
-1.25381e-07
1.35708e-08
-1.23349e-07
-1.29225e-08
-1.17814e-07
-3.31528e-08
-1.09639e-07
-4.59243e-08
-9.95324e-08
-5.31513e-08
-8.81776e-08
-5.61932e-08
-7.62293e-08
-5.61418e-08
-6.42619e-08
-5.39214e-08
-5.27282e-08
-5.03041e-08
-4.19455e-08
-4.59017e-08
-3.21062e-08
-4.11618e-08
-2.33112e-08
-3.63546e-08
-1.56285e-08
-3.15083e-08
-9.18468e-09
-2.62969e-08
-4.23769e-09
-2.01215e-08
-1.1136e-09
-1.26719e-08
-4.50279e-09
-1.30319e-09
5.77173e-09
-4.9544e-09
1.62363e-08
-1.07253e-08
2.57618e-08
-1.82189e-08
3.36232e-08
-2.7107e-08
4.01996e-08
-3.71983e-08
4.62273e-08
-4.83471e-08
5.20802e-08
-6.03465e-08
5.76732e-08
-7.28677e-08
6.26202e-08
-8.54435e-08
6.63423e-08
-9.74933e-08
6.81187e-08
-1.08389e-07
6.71313e-08
-1.17552e-07
6.24985e-08
-1.24537e-07
5.32542e-08
-1.2905e-07
3.81712e-08
-1.30771e-07
1.52919e-08
-1.29296e-07
-1.43981e-08
-1.25004e-07
-3.74448e-08
-1.1821e-07
-5.27183e-08
-1.09194e-07
-6.21671e-08
-9.83853e-08
-6.7002e-08
-8.63574e-08
-6.81696e-08
-7.37427e-08
-6.65361e-08
-6.11346e-08
-6.29122e-08
-4.90167e-08
-5.80196e-08
-3.7734e-08
-5.24444e-08
-2.75073e-08
-4.65813e-08
-1.84927e-08
-4.05229e-08
-1.08897e-08
-3.38999e-08
-5.03311e-09
-2.59782e-08
-1.32535e-09
-1.63797e-08
-5.82813e-09
-1.55646e-09
7.32819e-09
-5.91092e-09
2.05907e-08
-1.27746e-08
3.26254e-08
-2.16426e-08
4.24913e-08
-3.20709e-08
5.06279e-08
-4.37489e-08
5.79053e-08
-5.63878e-08
6.47191e-08
-6.96009e-08
7.08863e-08
-8.28563e-08
7.58756e-08
-9.5502e-08
7.89879e-08
-1.06852e-07
7.94685e-08
-1.16313e-07
7.65927e-08
-1.23524e-07
6.97094e-08
-1.28431e-07
5.81615e-08
-1.31253e-07
4.09933e-08
-1.32268e-07
1.6306e-08
-1.31508e-07
-1.51572e-08
-1.28937e-07
-4.0016e-08
-1.24278e-07
-5.73778e-08
-1.17291e-07
-6.91541e-08
-1.07999e-07
-7.62934e-08
-9.67404e-08
-7.94285e-08
-8.4096e-08
-7.91804e-08
-7.07585e-08
-7.62498e-08
-5.73988e-08
-7.13794e-08
-4.45737e-08
-6.52694e-08
-3.26948e-08
-5.84603e-08
-2.20718e-08
-5.11459e-08
-1.30326e-08
-4.29392e-08
-6.03402e-09
-3.29767e-08
-1.59086e-09
-2.08229e-08
-7.41899e-09
-1.88435e-09
9.21255e-09
-7.14379e-09
2.58502e-08
-1.54003e-08
4.0882e-08
-2.59888e-08
5.30797e-08
-3.82807e-08
6.29198e-08
-5.17652e-08
7.13898e-08
-6.59213e-08
7.88752e-08
-8.01028e-08
8.50679e-08
-9.35361e-08
8.93089e-08
-1.05418e-07
9.08695e-08
-1.15071e-07
8.91218e-08
-1.22116e-07
8.36376e-08
-1.26576e-07
7.41698e-08
-1.2888e-07
6.04656e-08
-1.29749e-07
4.18622e-08
-1.29977e-07
1.65334e-08
-1.29987e-07
-1.51469e-08
-1.29376e-07
-4.06266e-08
-1.27365e-07
-5.9389e-08
-1.23214e-07
-7.33052e-08
-1.16454e-07
-8.30539e-08
-1.0701e-07
-8.88717e-08
-9.52247e-08
-9.09661e-08
-8.17573e-08
-8.97172e-08
-6.74224e-08
-8.57142e-08
-5.30249e-08
-7.9667e-08
-3.92511e-08
-7.22341e-08
-2.66629e-08
-6.37342e-08
-1.58061e-08
-5.37959e-08
-7.33667e-09
-4.14462e-08
-1.93781e-09
-2.62217e-08
-9.3568e-09
-2.32409e-09
1.15366e-08
-8.78934e-09
3.23154e-08
-1.88767e-08
5.09694e-08
-3.16661e-08
6.58691e-08
-4.62243e-08
7.7478e-08
-6.17103e-08
8.68759e-08
-7.72545e-08
9.44194e-08
-9.18884e-08
9.97018e-08
-1.04629e-07
1.0205e-07
-1.14663e-07
1.00903e-07
-1.21545e-07
9.60044e-08
-1.25323e-07
8.74156e-08
-1.26527e-07
7.53732e-08
-1.26051e-07
5.99897e-08
-1.24989e-07
4.08006e-08
-1.24469e-07
1.60131e-08
-1.25186e-07
-1.44298e-08
-1.26487e-07
-3.93254e-08
-1.27277e-07
-5.85995e-08
-1.26458e-07
-7.41241e-08
-1.23097e-07
-8.64151e-08
-1.16595e-07
-9.5373e-08
-1.0683e-07
-1.00732e-07
-9.41831e-08
-1.02364e-07
-7.94461e-08
-1.00451e-07
-6.36235e-08
-9.54896e-08
-4.77391e-08
-8.81185e-08
-3.27347e-08
-7.87386e-08
-1.95232e-08
-6.70074e-08
-9.0953e-09
-5.1874e-08
-2.40799e-09
-3.2909e-08
-1.17648e-08
-2.93587e-09
1.44725e-08
-1.10622e-08
4.04417e-08
-2.36205e-08
6.35277e-08
-3.92608e-08
8.15094e-08
-5.65366e-08
9.47538e-08
-7.40854e-08
1.04425e-07
-9.05755e-08
1.1091e-07
-1.04739e-07
1.13865e-07
-1.15561e-07
1.12871e-07
-1.22507e-07
1.07849e-07
-1.2565e-07
9.91476e-08
-1.25629e-07
8.73945e-08
-1.23479e-07
7.32231e-08
-1.20419e-07
5.69295e-08
-1.17702e-07
3.80835e-08
-1.16565e-07
1.48766e-08
-1.17843e-07
-1.3152e-08
-1.20757e-07
-3.64111e-08
-1.24118e-07
-5.52382e-08
-1.26697e-07
-7.1546e-08
-1.27257e-07
-8.58547e-08
-1.24701e-07
-9.79292e-08
-1.18282e-07
-1.0715e-07
-1.07804e-07
-1.12842e-07
-9.37045e-08
-1.1455e-07
-7.69696e-08
-1.12225e-07
-5.89144e-08
-1.06174e-07
-4.09814e-08
-9.66715e-08
-2.46723e-08
-8.33165e-08
-1.15586e-08
-6.49877e-08
-3.07021e-09
-4.13973e-08
-1.4835e-08
-3.82363e-09
1.82961e-08
-1.43216e-08
5.09397e-08
-3.0294e-08
7.95001e-08
-4.96273e-08
1.00843e-07
-7.00138e-08
1.1514e-07
-8.93399e-08
1.23751e-07
-1.05799e-07
1.27369e-07
-1.18052e-07
1.26118e-07
-1.25442e-07
1.20262e-07
-1.28109e-07
1.10516e-07
-1.26873e-07
9.79118e-08
-1.22977e-07
8.34991e-08
-1.17801e-07
6.80469e-08
-1.12649e-07
5.1777e-08
-1.08704e-07
3.41389e-08
-1.07131e-07
1.33031e-08
-1.08785e-07
-1.14976e-08
-1.12869e-07
-3.23274e-08
-1.18277e-07
-4.98301e-08
-1.23876e-07
-6.59467e-08
-1.28388e-07
-8.13427e-08
-1.30409e-07
-9.59084e-08
-1.28595e-07
-1.08964e-07
-1.21948e-07
-1.19489e-07
-1.10126e-07
-1.26372e-07
-9.36284e-08
-1.28723e-07
-7.37616e-08
-1.2604e-07
-5.24534e-08
-1.1798e-07
-3.20597e-08
-1.0371e-07
-1.51568e-08
-8.18905e-08
-4.04631e-09
-5.25078e-08
-1.88813e-08
-5.18407e-09
2.34802e-08
-1.92088e-08
6.49645e-08
-3.99842e-08
1.00275e-07
-6.39945e-08
1.24853e-07
-8.75593e-08
1.38705e-07
-1.0768e-07
1.43871e-07
-1.22365e-07
1.42054e-07
-1.30764e-07
1.34516e-07
-1.33154e-07
1.22652e-07
-1.30683e-07
1.08045e-07
-1.24949e-07
9.21778e-08
-1.17592e-07
7.61417e-08
-1.10047e-07
6.05021e-08
-1.0345e-07
4.51797e-08
-9.87506e-08
2.94397e-08
-9.69248e-08
1.14773e-08
-9.87747e-08
-9.6477e-09
-1.03549e-07
-2.75533e-08
-1.10331e-07
-4.30478e-08
-1.18243e-07
-5.8035e-08
-1.2622e-07
-7.33653e-08
-1.32872e-07
-8.92563e-08
-1.36524e-07
-1.05312e-07
-1.35408e-07
-1.20605e-07
-1.28077e-07
-1.33704e-07
-1.13895e-07
-1.42905e-07
-9.34482e-08
-1.46487e-07
-6.87294e-08
-1.42699e-07
-4.30708e-08
-1.29369e-07
-2.06932e-08
-1.04268e-07
-5.57576e-09
-6.76253e-08
-2.44571e-08
-7.42515e-09
3.09054e-08
-2.69223e-08
8.44616e-08
-5.44645e-08
1.27818e-07
-8.39879e-08
1.54376e-07
-1.09911e-07
1.64628e-07
-1.2867e-07
1.62631e-07
-1.38952e-07
1.52336e-07
-1.41297e-07
1.36861e-07
-1.37439e-07
1.18794e-07
-1.29584e-07
1.0019e-07
-1.19821e-07
8.24146e-08
-1.09802e-07
6.61227e-08
-1.00709e-07
5.14091e-08
-9.33286e-08
3.77997e-08
-8.83048e-08
2.44159e-08
-8.63855e-08
9.55799e-09
-8.82798e-08
-7.75346e-09
-9.33156e-08
-2.25174e-08
-1.00796e-07
-3.55678e-08
-1.10155e-07
-4.86752e-08
-1.20712e-07
-6.2809e-08
-1.31404e-07
-7.8564e-08
-1.40671e-07
-9.60452e-08
-1.46362e-07
-1.14914e-07
-1.45986e-07
-1.34079e-07
-1.37259e-07
-1.51633e-07
-1.18968e-07
-1.64778e-07
-9.19844e-08
-1.69682e-07
-6.00768e-08
-1.61276e-07
-2.97485e-08
-1.34596e-07
-8.17983e-09
-8.91939e-08
-3.26369e-08
-1.14176e-08
4.2323e-08
-3.96122e-08
1.12656e-07
-7.62324e-08
1.64438e-07
-1.11004e-07
1.89148e-07
-1.36552e-07
1.90176e-07
-1.50138e-07
1.76216e-07
-1.52674e-07
1.54873e-07
-1.46986e-07
1.31172e-07
-1.3635e-07
1.08158e-07
-1.23599e-07
8.7439e-08
-1.10757e-07
6.95728e-08
-9.90643e-08
5.44297e-08
-8.92341e-08
4.15789e-08
-8.164e-08
3.02056e-08
-7.66265e-08
1.94024e-08
-7.47298e-08
7.66128e-09
-7.65552e-08
-5.92809e-09
-8.15178e-08
-1.75548e-08
-8.91165e-08
-2.7969e-08
-9.9076e-08
-3.87157e-08
-1.11133e-07
-5.07521e-08
-1.24745e-07
-6.49515e-08
-1.38905e-07
-8.18857e-08
-1.51733e-07
-1.02086e-07
-1.60343e-07
-1.25469e-07
-1.60931e-07
-1.51044e-07
-1.49586e-07
-1.76123e-07
-1.24061e-07
-1.95207e-07
-8.64815e-08
-1.98856e-07
-4.5257e-08
-1.75821e-07
-1.3014e-08
-1.21437e-07
-4.56509e-08
-1.87918e-08
6.11147e-08
-6.01271e-08
1.53992e-07
-1.06676e-07
2.10986e-07
-1.42895e-07
2.25367e-07
-1.6187e-07
2.09152e-07
-1.64591e-07
1.78937e-07
-1.55875e-07
1.46157e-07
-1.40978e-07
1.16276e-07
-1.2398e-07
9.11601e-08
-1.07446e-07
7.0905e-08
-9.27056e-08
5.48328e-08
-8.02965e-08
4.20206e-08
-7.03963e-08
3.16787e-08
-6.30016e-08
2.28109e-08
-5.8217e-08
1.46178e-08
-5.64084e-08
5.8526e-09
-5.80838e-08
-4.25265e-09
-6.27375e-08
-1.29011e-08
-7.0015e-08
-2.06914e-08
-7.9855e-08
-2.88758e-08
-9.23433e-08
-3.82637e-08
-1.07467e-07
-4.98277e-08
-1.25009e-07
-6.43441e-08
-1.43982e-07
-8.31127e-08
-1.62188e-07
-1.07264e-07
-1.75498e-07
-1.37734e-07
-1.77658e-07
-1.73962e-07
-1.61583e-07
-2.11282e-07
-1.23774e-07
-2.36665e-07
-7.09367e-08
-2.28658e-07
-2.2221e-08
-1.70153e-07
-6.78719e-08
-3.12679e-08
9.23827e-08
-8.81535e-08
2.10877e-07
-1.38303e-07
2.61136e-07
-1.64264e-07
2.51327e-07
-1.65678e-07
2.10566e-07
-1.50689e-07
1.63948e-07
-1.28177e-07
1.23645e-07
-1.04315e-07
9.24136e-08
-8.23411e-08
6.9186e-08
-6.35256e-08
5.20895e-08
-4.8075e-08
3.93822e-08
-3.57499e-08
2.96956e-08
-2.62677e-08
2.21965e-08
-1.9339e-08
1.58822e-08
-1.49043e-08
1.01831e-08
-1.32056e-08
4.15393e-09
-1.46694e-08
-2.78886e-09
-1.88524e-08
-8.71807e-09
-2.54908e-08
-1.40531e-08
-3.46452e-08
-1.97213e-08
-4.66258e-08
-2.62832e-08
-6.17937e-08
-3.46597e-08
-8.06841e-08
-4.54536e-08
-1.03437e-07
-6.03601e-08
-1.29494e-07
-8.12072e-08
-1.56348e-07
-1.1088e-07
-1.77909e-07
-1.52401e-07
-1.83373e-07
-2.05818e-07
-1.60197e-07
-2.59841e-07
-1.05008e-07
-2.83847e-07
-3.76659e-08
-2.37494e-07
-1.05538e-07
-4.67784e-08
1.39161e-07
-1.0941e-07
2.73509e-07
-1.3987e-07
2.91597e-07
-1.33122e-07
2.44579e-07
-1.03689e-07
1.81133e-07
-6.66091e-08
1.26868e-07
-3.11104e-08
8.81465e-08
-8.82883e-10
6.21861e-08
2.34863e-08
4.48168e-08
4.26852e-08
3.28906e-08
5.76124e-08
2.44549e-08
6.90232e-08
1.82848e-08
7.77075e-08
1.35123e-08
8.39266e-08
9.66298e-09
8.78969e-08
6.21282e-09
8.94618e-08
2.58903e-09
8.82641e-08
-1.59114e-09
8.46934e-08
-5.14742e-09
7.89673e-08
-8.327e-09
7.09325e-08
-1.16865e-08
6.0348e-08
-1.56987e-08
4.64081e-08
-2.07198e-08
2.85746e-08
-2.76201e-08
5.46838e-09
-3.72538e-08
-2.40362e-08
-5.17026e-08
-6.04635e-08
-7.44525e-08
-1.01657e-07
-1.11208e-07
-1.38946e-07
-1.68529e-07
-1.54049e-07
-2.44738e-07
-1.25565e-07
-3.12332e-07
-5.51973e-08
-3.07862e-07
-1.60735e-07
-5.62535e-08
1.95415e-07
-8.47295e-08
3.01985e-07
-5.16471e-08
2.58514e-07
1.05295e-08
1.82402e-07
7.43102e-08
1.17352e-07
1.27856e-07
7.33229e-08
1.6902e-07
4.69825e-08
1.99662e-07
3.15437e-08
2.2239e-07
2.20886e-08
2.39341e-07
1.59397e-08
2.52069e-07
1.17272e-08
2.61645e-07
8.709e-09
2.68747e-07
6.40969e-09
2.73834e-07
4.57598e-09
2.77097e-07
2.95055e-09
2.78432e-07
1.25326e-09
2.7755e-07
-7.09011e-10
2.74777e-07
-2.37374e-09
2.70302e-07
-3.85212e-09
2.64028e-07
-5.41299e-09
2.55613e-07
-7.28366e-09
2.44534e-07
-9.64085e-09
2.29833e-07
-1.29187e-08
2.10182e-07
-1.76032e-08
1.83415e-07
-2.49352e-08
1.46357e-07
-3.73953e-08
9.54278e-08
-6.02779e-08
2.97838e-08
-1.02885e-07
-4.04692e-08
-1.74485e-07
-8.43354e-08
-2.68465e-07
-6.133e-08
-3.30867e-07
-2.22065e-07
-2.9929e-08
2.25344e-07
5.71066e-08
2.14949e-07
1.84004e-07
1.31617e-07
2.90405e-07
7.60008e-08
3.65834e-07
4.19238e-08
4.16146e-07
2.30107e-08
4.49581e-07
1.3547e-08
4.72412e-07
8.7127e-09
4.88519e-07
5.98204e-09
5.00182e-07
4.27661e-09
5.0878e-07
3.12929e-09
5.15172e-07
2.31672e-09
5.19881e-07
1.70037e-09
5.23244e-07
1.21299e-09
5.25412e-07
7.82841e-10
5.2633e-07
3.35752e-10
5.25802e-07
-1.81106e-10
5.24047e-07
-6.19202e-10
5.21202e-07
-1.00736e-09
5.17206e-07
-1.41658e-09
5.11832e-07
-1.90963e-09
5.04721e-07
-2.53004e-09
4.95208e-07
-3.40532e-09
4.82274e-07
-4.66925e-09
4.64051e-07
-6.71244e-09
4.37053e-07
-1.03974e-08
3.94716e-07
-1.79408e-08
3.26303e-07
-3.44722e-08
2.20796e-07
-6.89782e-08
8.48269e-08
-1.32496e-07
-1.84071e-08
-2.27633e-07
-2.40472e-07
2.25344e-07
4.40293e-07
5.71909e-07
6.4791e-07
6.89834e-07
7.12845e-07
7.26392e-07
7.35104e-07
7.41086e-07
7.45363e-07
7.48492e-07
7.50809e-07
7.52509e-07
7.53722e-07
7.54505e-07
7.54841e-07
7.5466e-07
7.54041e-07
7.53033e-07
7.51617e-07
7.49707e-07
7.47177e-07
7.43772e-07
7.39102e-07
7.3239e-07
7.21993e-07
7.04052e-07
6.6958e-07
6.00601e-07
4.68105e-07
2.40472e-07
)
;

boundaryField
{
    movingWall
    {
        type            calculated;
        value           uniform 0;
    }
    fixedWalls
    {
        type            calculated;
        value           uniform 0;
    }
    frontAndBack
    {
        type            empty;
        value           nonuniform List<scalar> 0();
    }
}


// ************************************************************************* //
