/*--------------------------------*- C++ -*----------------------------------*\
| =========                 |                                                 |
| \\      /  F ield         | OpenFOAM: The Open Source CFD Toolbox           |
|  \\    /   O peration     | Version:  2206                                  |
|   \\  /    A nd           | Website:  www.openfoam.com                      |
|    \\/     M anipulation  |                                                 |
\*---------------------------------------------------------------------------*/
FoamFile
{
    version     2.0;
    format      ascii;
    arch        "LSB;label=64;scalar=64";
    class       volScalarField;
    location    "4";
    object      Sch4_0;
}
// * * * * * * * * * * * * * * * * * * * * * * * * * * * * * * * * * * * * * //

dimensions      [0 0 0 0 0 0 0];

internalField   nonuniform List<scalar> 
1024
(
7.10272e-20
8.20052e-20
1.16346e-19
1.86027e-19
3.11439e-19
5.24058e-19
8.68384e-19
1.40102e-18
2.18371e-18
3.26755e-18
4.66875e-18
6.34369e-18
8.17826e-18
1.00013e-17
1.16025e-17
1.26846e-17
1.27419e-17
1.17822e-17
1.03066e-17
8.59015e-18
6.82729e-18
5.17987e-18
3.76283e-18
2.62963e-18
1.77827e-18
1.17138e-18
7.57622e-19
4.86822e-19
3.17543e-19
2.19165e-19
1.71147e-19
1.61398e-19
1.03325e-19
1.18885e-19
1.67581e-19
2.65978e-19
4.42071e-19
7.38676e-19
1.21568e-18
1.94825e-18
3.01691e-18
4.48595e-18
6.37143e-18
8.60948e-18
1.10447e-17
1.34504e-17
1.5554e-17
1.69723e-17
1.70494e-17
1.57929e-17
1.38523e-17
1.15835e-17
9.24006e-18
7.03732e-18
5.13192e-18
3.60012e-18
2.44368e-18
1.61565e-18
1.04888e-18
6.76661e-19
4.43314e-19
3.07386e-19
2.40879e-19
2.27155e-19
2.09778e-19
2.40146e-19
3.35282e-19
5.26325e-19
8.65287e-19
1.43061e-18
2.33023e-18
3.6968e-18
5.66833e-18
8.34857e-18
1.17509e-17
1.57465e-17
2.00504e-17
2.42647e-17
2.79241e-17
3.03829e-17
3.05223e-17
2.83489e-17
2.49674e-17
2.09825e-17
1.68303e-17
1.28925e-17
9.45694e-18
6.67272e-18
4.55517e-18
3.02874e-18
1.97761e-18
1.28366e-18
8.467e-19
5.91229e-19
4.65719e-19
4.39153e-19
4.96383e-19
5.65354e-19
7.81753e-19
1.21357e-18
1.97303e-18
3.22697e-18
5.20095e-18
8.16625e-18
1.2396e-17
1.80813e-17
2.52178e-17
3.35075e-17
4.23458e-17
5.09223e-17
5.83177e-17
6.32709e-17
6.35658e-17
5.92012e-17
5.2358e-17
4.42266e-17
3.56766e-17
2.74928e-17
2.02888e-17
1.44017e-17
9.88969e-18
6.61442e-18
4.34488e-18
2.83837e-18
1.88541e-18
1.32606e-18
1.05004e-18
9.90101e-19
1.27998e-18
1.45049e-18
1.98648e-18
3.04942e-18
4.90266e-18
7.932e-18
1.26498e-17
1.96585e-17
2.95433e-17
4.26801e-17
5.89859e-17
7.7721e-17
9.74925e-17
1.16507e-16
1.32793e-16
1.4367e-16
1.44354e-16
1.34811e-16
1.19731e-16
1.01661e-16
8.24836e-17
6.39524e-17
4.74884e-17
3.39171e-17
2.34327e-17
1.5767e-17
1.04209e-17
6.85231e-18
4.58419e-18
3.24751e-18
2.58501e-18
2.43785e-18
3.57009e-18
4.02485e-18
5.45799e-18
8.2824e-18
1.31635e-17
2.10614e-17
3.32275e-17
5.10967e-17
7.60087e-17
1.08732e-16
1.48881e-16
1.9449e-16
2.42111e-16
2.87487e-16
3.26087e-16
3.51803e-16
3.53523e-16
3.31094e-16
2.95359e-16
2.5216e-16
2.05857e-16
1.60652e-16
1.20086e-16
8.63331e-17
6.0032e-17
4.06519e-17
2.7043e-17
1.79043e-17
1.20664e-17
8.61133e-18
6.89141e-18
6.50219e-18
1.08785e-17
1.21991e-17
1.63741e-17
2.45507e-17
3.8555e-17
6.09795e-17
9.51359e-17
1.44718e-16
2.13015e-16
3.01637e-16
4.09041e-16
5.29586e-16
6.54024e-16
7.71435e-16
8.70612e-16
9.36551e-16
9.41284e-16
8.84227e-16
7.92532e-16
6.80625e-16
5.5937e-16
4.39644e-16
3.3101e-16
2.39675e-16
1.67826e-16
1.14431e-16
7.66537e-17
5.11196e-17
3.47185e-17
2.49673e-17
2.00923e-17
1.89727e-17
3.67366e-17
4.09697e-17
5.44068e-17
8.05578e-17
1.24937e-16
1.95244e-16
3.01095e-16
4.52885e-16
6.59347e-16
9.23816e-16
1.24017e-15
1.59065e-15
1.94805e-15
2.28175e-15
2.56159e-15
2.74737e-15
2.7618e-15
2.60272e-15
2.34468e-15
2.02652e-15
1.67765e-15
1.32884e-15
1.00842e-15
7.3589e-16
5.19226e-16
3.56684e-16
2.40727e-16
1.61789e-16
1.10781e-16
8.03062e-17
6.50051e-17
6.14525e-17
1.39633e-16
1.54835e-16
2.03333e-16
2.97125e-16
4.54804e-16
7.01852e-16
1.06933e-15
1.58961e-15
2.28794e-15
3.17028e-15
4.21103e-15
5.34808e-15
6.49235e-15
7.54884e-15
8.42829e-15
9.01154e-15
9.06098e-15
8.56811e-15
7.7607e-15
6.75409e-15
5.63585e-15
4.50215e-15
3.4463e-15
2.53655e-15
1.80473e-15
1.24993e-15
8.50477e-16
5.76403e-16
3.98131e-16
2.91054e-16
2.37061e-16
2.24431e-16
6.06792e-16
6.68856e-16
8.68126e-16
1.25104e-15
1.88856e-15
2.87598e-15
4.32632e-15
6.35232e-15
9.03367e-15
1.23723e-14
1.62512e-14
2.04253e-14
2.45661e-14
2.83439e-14
3.14649e-14
3.35339e-14
3.37265e-14
3.20067e-14
2.91593e-14
2.55667e-14
2.15184e-14
1.73504e-14
1.34086e-14
9.96274e-15
7.15398e-15
4.99945e-15
3.43227e-15
2.34751e-15
1.63677e-15
1.20739e-15
9.89926e-16
9.38851e-16
3.06147e-15
3.35366e-15
4.2993e-15
6.10469e-15
9.08024e-15
1.36338e-14
2.02341e-14
2.93244e-14
4.11759e-14
5.57009e-14
7.23011e-14
8.98712e-14
1.07033e-13
1.22493e-13
1.35166e-13
1.43571e-13
1.44435e-13
1.37589e-13
1.26122e-13
1.1147e-13
9.47008e-14
7.71393e-14
6.02442e-14
4.52327e-14
3.2814e-14
2.31614e-14
1.6059e-14
1.10946e-14
7.81523e-15
5.8213e-15
4.80687e-15
4.56845e-15
1.81983e-14
1.98053e-14
2.50587e-14
3.50228e-14
5.12732e-14
7.58305e-14
1.10931e-13
1.58549e-13
2.19634e-13
2.9322e-13
3.75815e-13
4.6167e-13
5.44142e-13
6.17448e-13
6.77088e-13
7.1669e-13
7.21197e-13
6.89712e-13
6.36341e-13
5.67219e-13
4.86771e-13
4.00935e-13
3.16771e-13
2.40617e-13
1.76555e-13
1.26016e-13
8.83439e-14
6.17186e-14
4.39692e-14
3.30995e-14
2.75428e-14
2.62405e-14
1.29187e-13
1.39631e-13
1.74217e-13
2.39389e-13
3.44521e-13
5.01305e-13
7.22096e-13
1.01678e-12
1.38819e-12
1.8272e-12
2.31033e-12
2.80277e-12
3.26747e-12
3.67488e-12
4.00391e-12
4.22284e-12
4.25041e-12
4.08121e-12
3.7908e-12
3.40946e-12
2.95766e-12
2.46572e-12
1.97311e-12
1.51822e-12
1.12829e-12
8.15462e-13
5.78825e-13
4.09466e-13
2.95387e-13
2.24959e-13
1.8877e-13
1.80344e-13
1.10844e-12
1.18943e-12
1.46217e-12
1.97282e-12
2.78726e-12
3.98488e-12
5.64458e-12
7.82073e-12
1.05107e-11
1.36248e-11
1.69785e-11
2.03255e-11
2.34254e-11
2.61054e-11
2.82546e-11
2.96885e-11
2.9887e-11
2.88133e-11
2.69478e-11
2.44643e-11
2.14669e-11
1.81312e-11
1.47131e-11
1.14844e-11
8.65768e-12
6.34622e-12
4.5683e-12
3.27754e-12
2.39774e-12
1.84956e-12
1.56633e-12
1.50108e-12
1.16128e-11
1.2368e-11
1.49669e-11
1.98026e-11
2.74233e-11
3.84609e-11
5.3492e-11
7.28182e-11
9.62009e-11
1.22657e-10
1.50486e-10
1.77638e-10
2.02301e-10
2.23323e-10
2.40064e-10
2.51261e-10
2.52945e-10
2.44828e-10
2.30572e-10
2.11342e-10
1.87692e-10
1.60759e-10
1.32459e-10
1.05048e-10
8.04716e-11
5.9937e-11
4.38387e-11
3.19586e-11
2.37503e-11
1.85819e-11
1.58949e-11
1.52856e-11
1.49758e-10
1.58266e-10
1.8838e-10
2.44071e-10
3.30719e-10
4.54162e-10
6.19052e-10
8.26506e-10
1.0716e-09
1.34199e-09
1.61921e-09
1.88323e-09
2.11819e-09
2.31555e-09
2.47157e-09
2.57607e-09
2.59276e-09
2.51916e-09
2.3889e-09
2.21114e-09
1.98842e-09
1.72863e-09
1.44818e-09
1.16887e-09
9.11691e-10
6.91472e-10
5.15026e-10
3.82344e-10
2.89222e-10
2.29874e-10
1.98807e-10
1.91914e-10
2.23619e-09
2.34485e-09
2.74336e-09
3.47584e-09
4.59973e-09
6.17199e-09
8.22758e-09
1.0752e-08
1.36566e-08
1.67727e-08
1.98794e-08
2.27622e-08
2.52727e-08
2.73488e-08
2.89759e-08
3.00642e-08
3.02419e-08
2.94879e-08
2.81512e-08
2.63113e-08
2.39659e-08
2.11631e-08
1.80493e-08
1.48529e-08
1.18208e-08
9.15132e-09
6.95861e-09
5.27373e-09
4.06972e-09
3.29167e-09
2.88132e-09
2.79298e-09
3.04212e-08
3.16574e-08
3.63972e-08
4.50566e-08
5.81477e-08
7.61053e-08
9.90435e-08
1.26483e-07
1.57162e-07
1.89102e-07
2.20014e-07
2.47932e-07
2.71707e-07
2.91052e-07
3.06066e-07
3.16068e-07
3.17675e-07
3.10755e-07
2.98544e-07
2.81651e-07
2.59796e-07
2.33069e-07
2.02504e-07
1.70109e-07
1.38375e-07
1.09571e-07
8.52478e-08
6.60997e-08
5.21365e-08
4.29719e-08
3.80996e-08
3.70921e-08
3.1576e-07
3.26235e-07
3.68693e-07
4.45847e-07
5.60731e-07
7.15131e-07
9.07594e-07
1.13155e-06
1.37454e-06
1.61976e-06
1.85001e-06
2.05239e-06
2.22101e-06
2.35608e-06
2.45992e-06
2.52875e-06
2.53944e-06
2.49148e-06
2.40755e-06
2.29115e-06
2.13874e-06
1.9484e-06
1.72455e-06
1.47954e-06
1.23135e-06
9.98682e-07
7.96247e-07
6.32629e-07
5.10635e-07
4.29187e-07
3.85502e-07
3.769e-07
2.52572e-06
2.59227e-06
2.88146e-06
3.40458e-06
4.17167e-06
5.18106e-06
6.40767e-06
7.79436e-06
9.25262e-06
1.06778e-05
1.19756e-05
1.30861e-05
1.39922e-05
1.47071e-05
1.52517e-05
1.56108e-05
1.56638e-05
1.54101e-05
1.49706e-05
1.4361e-05
1.35553e-05
1.25307e-05
1.12936e-05
9.89606e-06
8.43143e-06
7.01109e-06
5.73549e-06
4.67478e-06
3.8646e-06
3.31349e-06
3.01504e-06
2.95965e-06
1.56944e-05
1.60126e-05
1.75208e-05
2.02394e-05
2.41654e-05
2.92209e-05
3.52046e-05
4.17692e-05
4.84531e-05
5.47747e-05
6.03573e-05
6.50118e-05
6.87338e-05
7.16305e-05
7.38182e-05
7.52538e-05
7.54528e-05
7.44192e-05
7.26493e-05
7.01973e-05
6.69354e-05
6.27233e-05
5.75164e-05
5.14541e-05
4.48824e-05
3.82849e-05
3.21597e-05
2.69099e-05
2.27943e-05
1.99372e-05
1.83736e-05
1.81032e-05
7.65662e-05
7.77169e-05
8.3795e-05
9.47271e-05
0.000110279
0.000129871
0.00015244
0.000176447
0.000200092
0.000221729
0.000240268
0.000255346
0.000267183
0.000276281
0.000283102
0.000287558
0.000288133
0.000284855
0.000279305
0.000271632
0.000261379
0.00024798
0.000231077
0.000210846
0.000188193
0.000164657
0.000142049
0.000122049
0.000105929
9.44884e-05
8.81545e-05
8.71468e-05
0.000297255
0.000300417
0.000319568
0.000353991
0.000402262
0.000461754
0.000528426
0.000597133
0.000662566
0.000720507
0.000768733
0.000807064
0.000836667
0.000859176
0.000875945
0.000886862
0.000888168
0.000879958
0.000866197
0.00084722
0.000821792
0.000788262
0.000745255
0.000692532
0.000631723
0.000566435
0.000501588
0.000442339
0.000393171
0.000357439
0.000337395
0.000334504
0.000933582
0.000940212
0.000988046
0.00107417
0.00119334
0.00133706
0.00149369
0.00164999
0.00179392
0.00191738
0.00201738
0.00209526
0.00215455
0.00219924
0.00223237
0.00225388
0.00225626
0.00223973
0.00221228
0.00217451
0.00212381
0.00205653
0.00196912
0.00185984
0.00173053
0.00158755
0.00144103
0.00130288
0.00118478
0.00109674
0.00104661
0.00104013
0.00241758
0.00242815
0.00252442
0.00269857
0.00293669
0.00321775
0.00351546
0.00380305
0.00405928
0.00427256
0.00444117
0.00457017
0.00466727
0.00473993
0.00479359
0.00482837
0.00483195
0.0048047
0.00475977
0.00469807
0.00461516
0.00450464
0.00435971
0.00417572
0.00395351
0.0037018
0.00343683
0.00317985
0.00295375
0.00278065
0.00268026
0.00266874
0.00527186
0.0052844
0.00544344
0.00573358
0.00612605
0.00657917
0.00704521
0.00748104
0.00785729
0.00816204
0.00839798
0.00857592
0.00870865
0.00880743
0.00888018
0.0089273
0.00893183
0.00889429
0.00883274
0.00874835
0.00863488
0.00848315
0.00828282
0.00802567
0.00771037
0.00734673
0.00695631
0.00656928
0.00622029
0.00594591
0.00578315
0.00576646
0.00989847
0.00990872
0.0101291
0.0105357
0.0110793
0.0116917
0.0123025
0.0128558
0.0133199
0.013687
0.0139665
0.0141749
0.0143293
0.0144438
0.014528
0.0145825
0.0145875
0.0145434
0.0144716
0.0143731
0.0142407
0.0140633
0.0138279
0.0135233
0.0131459
0.0127056
0.0122277
0.0117484
0.0113096
0.0109569
0.0107419
0.0107217
0.0163666
0.016371
0.0166334
0.0171217
0.0177632
0.0184654
0.0191438
0.0197404
0.0202284
0.0206073
0.020892
0.0211026
0.0212579
0.0213727
0.0214571
0.0215117
0.0215165
0.0214719
0.0213993
0.0213
0.0211664
0.020987
0.0207483
0.0204377
0.02005
0.0195948
0.0190992
0.0186031
0.0181498
0.0177823
0.0175526
0.017532
0.0243532
0.024353
0.0246279
0.0251345
0.0257807
0.0264647
0.0271055
0.0276548
0.0280955
0.0284329
0.0286841
0.0288689
0.0290048
0.0291052
0.0291788
0.0292266
0.0292307
0.0291915
0.0291277
0.0290406
0.0289233
0.0287658
0.0285556
0.028281
0.0279365
0.0275304
0.0270892
0.0266535
0.0262652
0.0259578
0.0257655
0.0257505
0.0332636
0.0332676
0.0335209
0.0339651
0.034508
0.0350635
0.0355706
0.0359971
0.0363347
0.0365908
0.0367804
0.0369195
0.0370216
0.0370969
0.0371522
0.0371881
0.0371912
0.0371617
0.0371137
0.0370481
0.0369598
0.0368413
0.0366829
0.0364753
0.0362137
0.0359044
0.0355691
0.0352436
0.0349662
0.034763
0.0346467
0.0346464
0.0424256
0.0424426
0.04263
0.0429302
0.043281
0.0436306
0.0439444
0.0442053
0.0444103
0.0445651
0.0446793
0.044763
0.0448243
0.0448695
0.0449027
0.0449243
0.0449262
0.0449085
0.0448796
0.0448401
0.0447871
0.0447158
0.0446205
0.0444953
0.0443371
0.0441493
0.0439456
0.04375
0.0435901
0.0434865
0.0434444
0.0434623
0.0512364
0.0512476
0.0513174
0.0514219
0.0515407
0.0516576
0.0517617
0.0518478
0.0519152
0.051966
0.0520034
0.0520308
0.0520509
0.0520657
0.0520766
0.0520837
0.0520843
0.0520785
0.052069
0.0520561
0.0520387
0.0520153
0.0519841
0.051943
0.051891
0.051829
0.0517616
0.0516968
0.0516447
0.0516138
0.0516068
0.0516191
)
;

boundaryField
{
    movingWall
    {
        type            fixedValue;
        value           uniform 0.0555;
    }
    fixedWalls
    {
        type            zeroGradient;
    }
    frontAndBack
    {
        type            empty;
    }
}


// ************************************************************************* //
