/*--------------------------------*- C++ -*----------------------------------*\
| =========                 |                                                 |
| \\      /  F ield         | OpenFOAM: The Open Source CFD Toolbox           |
|  \\    /   O peration     | Version:  2206                                  |
|   \\  /    A nd           | Website:  www.openfoam.com                      |
|    \\/     M anipulation  |                                                 |
\*---------------------------------------------------------------------------*/
FoamFile
{
    version     2.0;
    format      ascii;
    arch        "LSB;label=64;scalar=64";
    class       volScalarField;
    location    "4";
    object      Sch4;
}
// * * * * * * * * * * * * * * * * * * * * * * * * * * * * * * * * * * * * * //

dimensions      [0 0 0 0 0 0 0];

internalField   nonuniform List<scalar> 
1024
(
3.39912e-19
3.8672e-19
5.33527e-19
8.2721e-19
1.34594e-18
2.2074e-18
3.57317e-18
5.64158e-18
8.61857e-18
1.26586e-17
1.77808e-17
2.37912e-17
3.02622e-17
3.65958e-17
4.20947e-17
4.57946e-17
4.60258e-17
4.27874e-17
3.77191e-17
3.17251e-17
2.54681e-17
1.95295e-17
1.43459e-17
1.01421e-17
6.94109e-18
4.62969e-18
3.03445e-18
1.97848e-18
1.31177e-18
9.21149e-19
7.29246e-19
6.89488e-19
4.83034e-19
5.47927e-19
7.51635e-19
1.15767e-18
1.8712e-18
3.04922e-18
4.9051e-18
7.69743e-18
1.16898e-17
1.70721e-17
2.3852e-17
3.17581e-17
4.02206e-17
4.84616e-17
5.55892e-17
6.03775e-17
6.06865e-17
5.65067e-17
4.9935e-17
4.21256e-17
3.39304e-17
2.61105e-17
1.92488e-17
1.36569e-17
9.37955e-18
6.27813e-18
4.12967e-18
2.7029e-18
1.79966e-18
1.26927e-18
1.00807e-18
9.53088e-19
9.48167e-19
1.07075e-18
1.45624e-18
2.22036e-18
3.5527e-18
5.73249e-18
9.13328e-18
1.41987e-17
2.13677e-17
3.09349e-17
4.28667e-17
5.6647e-17
7.12651e-17
8.53897e-17
9.75337e-17
1.05672e-16
1.06226e-16
9.9154e-17
8.79518e-17
7.45382e-17
6.03457e-17
4.66893e-17
3.46095e-17
2.46902e-17
1.70498e-17
1.14745e-17
7.59009e-18
4.99766e-18
3.34957e-18
2.37832e-18
1.89803e-18
1.7944e-18
2.17228e-18
2.442e-18
3.29215e-18
4.96788e-18
7.86631e-18
1.25643e-17
1.98209e-17
3.05183e-17
4.55006e-17
6.52876e-17
8.97135e-17
1.17645e-16
1.47004e-16
1.75144e-16
1.99193e-16
2.15275e-16
2.16431e-16
2.02536e-16
1.80348e-16
1.53568e-16
1.24988e-16
9.72468e-17
7.24999e-17
5.20178e-17
3.61256e-17
2.44513e-17
1.62691e-17
1.078e-17
7.27489e-18
5.20133e-18
4.17134e-18
3.94352e-18
5.4304e-18
6.07709e-18
8.12103e-18
1.21277e-17
1.90027e-17
3.00436e-17
4.69291e-17
7.15669e-17
1.05717e-16
1.50353e-16
2.04894e-16
2.66649e-16
3.30961e-16
3.92118e-16
4.44078e-16
4.78759e-16
4.81404e-16
4.5164e-16
4.03728e-16
3.45432e-16
2.82668e-16
2.21195e-16
1.65876e-16
1.19715e-16
8.36258e-17
5.69327e-17
3.81095e-17
2.5414e-17
1.72701e-17
1.24332e-17
1.002e-17
9.47448e-18
1.46799e-17
1.63521e-17
2.16551e-17
3.19928e-17
4.95891e-17
7.75845e-17
1.1997e-16
1.81173e-16
2.6511e-16
3.7366e-16
5.04901e-16
6.51983e-16
8.03691e-16
9.46771e-16
1.06763e-15
1.14817e-15
1.15472e-15
1.08617e-15
9.74909e-16
8.38381e-16
6.90003e-16
5.43259e-16
4.09955e-16
2.97723e-16
2.09264e-16
1.4335e-16
9.65642e-17
6.48284e-17
4.43713e-17
3.21706e-17
2.60569e-17
2.46503e-17
4.33059e-17
4.80083e-17
6.2981e-17
9.20077e-17
1.41011e-16
2.18233e-16
3.33946e-16
4.99241e-16
7.23452e-16
1.01019e-15
1.35303e-15
1.73306e-15
2.12106e-15
2.48382e-15
2.7884e-15
2.99119e-15
3.00887e-15
2.83812e-15
2.5585e-15
2.21228e-15
1.83213e-15
1.45213e-15
1.1033e-15
8.06713e-16
5.70833e-16
3.93644e-16
2.66971e-16
1.8051e-16
1.24482e-16
9.09174e-17
7.40266e-17
7.00864e-17
1.41362e-16
1.55933e-16
2.02561e-16
2.92453e-16
4.42947e-16
6.77784e-16
1.02594e-15
1.51775e-15
2.1772e-15
3.01069e-15
3.99545e-15
5.07433e-15
6.16379e-15
7.17301e-15
8.01526e-15
8.57576e-15
8.62849e-15
8.16277e-15
7.39296e-15
6.43046e-15
5.36174e-15
4.28075e-15
3.27681e-15
2.41382e-15
1.72056e-15
1.19511e-15
8.1648e-16
5.56276e-16
3.86682e-16
2.846e-16
2.33011e-16
2.20854e-16
5.18364e-16
5.68842e-16
7.31353e-16
1.04291e-15
1.56005e-15
2.35888e-15
3.53013e-15
5.16539e-15
7.33156e-15
1.00354e-14
1.31896e-14
1.66019e-14
2.00071e-14
2.31307e-14
2.57215e-14
2.74457e-14
2.76216e-14
2.62121e-14
2.38588e-14
2.08857e-14
1.75438e-14
1.4119e-14
1.08968e-14
8.09282e-15
5.81503e-15
4.07125e-15
2.80368e-15
1.92596e-15
1.35024e-15
1.00191e-15
8.25123e-16
7.83184e-16
2.1682e-15
2.36652e-15
3.00975e-15
4.23601e-15
6.25347e-15
9.33716e-15
1.38064e-14
1.99698e-14
2.80299e-14
3.79571e-14
4.93798e-14
6.15696e-14
7.35797e-14
8.44816e-14
9.34666e-14
9.94501e-14
1.00115e-13
9.53177e-14
8.72236e-14
7.68823e-14
6.5102e-14
5.28533e-14
4.11612e-14
3.08466e-14
2.2362e-14
1.57936e-14
1.0972e-14
7.60515e-15
5.38113e-15
4.02785e-15
3.33806e-15
3.17386e-15
1.05013e-14
1.13972e-14
1.43295e-14
1.98879e-14
2.8949e-14
4.2647e-14
6.22594e-14
8.89572e-14
1.23395e-13
1.65202e-13
2.12595e-13
2.62421e-13
3.10837e-13
3.54297e-13
3.89886e-13
4.13615e-13
4.16492e-13
3.97902e-13
3.66177e-13
3.25161e-13
2.77752e-13
2.27665e-13
1.79077e-13
1.35551e-13
9.92397e-14
7.07739e-14
4.96475e-14
3.47554e-14
2.48404e-14
1.87694e-14
1.5661e-14
1.49207e-14
5.97387e-14
6.44515e-14
8.00507e-14
1.09451e-13
1.56922e-13
2.2786e-13
3.28132e-13
4.62751e-13
6.3384e-13
8.38304e-13
1.06632e-12
1.30216e-12
1.52792e-12
1.72819e-12
1.89113e-12
1.99996e-12
2.01437e-12
1.93136e-12
1.788e-12
1.60032e-12
1.37995e-12
1.14303e-12
9.09031e-13
6.95774e-13
5.15028e-13
3.71312e-13
2.63318e-13
1.86378e-13
1.34695e-13
1.02826e-13
8.64321e-14
8.25389e-14
4.04416e-13
4.33603e-13
5.31587e-13
7.15219e-13
1.00878e-12
1.44217e-12
2.04644e-12
2.84566e-12
3.84508e-12
5.01896e-12
6.3047e-12
7.61107e-12
8.84165e-12
9.91988e-12
1.07914e-11
1.13748e-11
1.1459e-11
1.10273e-11
1.02725e-11
9.27148e-12
8.07636e-12
6.76658e-12
5.44709e-12
4.22115e-12
3.16338e-12
2.30873e-12
1.65739e-12
1.1877e-12
8.69006e-13
6.70927e-13
5.6851e-13
5.44338e-13
3.29578e-12
3.51055e-12
4.2447e-12
5.613e-12
7.77788e-12
1.09329e-11
1.52676e-11
2.09075e-11
2.78355e-11
3.58186e-11
4.43908e-11
5.29334e-11
6.08433e-11
6.76848e-11
7.31785e-11
7.68647e-11
7.74418e-11
7.48024e-11
7.01316e-11
6.38556e-11
5.62303e-11
4.76991e-11
3.89146e-11
3.05752e-11
2.32335e-11
1.71926e-11
1.25144e-11
9.09389e-12
6.7461e-12
5.27368e-12
4.50812e-12
4.32921e-12
3.26443e-11
3.45351e-11
4.11496e-11
5.34126e-11
7.26042e-11
1.00187e-10
1.37475e-10
1.8512e-10
2.42497e-10
3.07224e-10
3.75227e-10
4.41583e-10
5.01907e-10
5.53382e-10
5.94433e-10
6.22032e-10
6.26666e-10
6.07555e-10
5.73364e-10
5.26839e-10
4.69281e-10
4.03448e-10
3.34017e-10
2.66503e-10
2.05701e-10
1.54624e-10
1.14337e-10
8.44111e-11
6.3596e-11
5.04061e-11
4.35057e-11
4.19159e-11
3.95868e-10
4.15869e-10
4.87925e-10
6.20829e-10
8.26408e-10
1.11739e-09
1.50377e-09
1.98758e-09
2.55741e-09
3.18521e-09
3.82904e-09
4.44302e-09
4.99028e-09
5.45057e-09
5.81486e-09
6.05993e-09
6.10321e-09
5.93845e-09
5.64133e-09
5.2324e-09
4.71729e-09
4.11427e-09
3.46147e-09
2.80954e-09
2.20714e-09
1.68902e-09
1.27164e-09
9.55883e-10
7.32868e-10
5.89852e-10
5.14512e-10
4.9749e-10
5.5254e-09
5.76374e-09
6.65449e-09
8.28891e-09
1.07849e-08
1.42586e-08
1.87792e-08
2.43124e-08
3.06686e-08
3.74883e-08
4.42974e-08
5.06289e-08
5.61528e-08
6.07257e-08
6.43116e-08
6.67182e-08
6.71504e-08
6.55585e-08
6.26831e-08
5.86916e-08
5.35773e-08
4.74464e-08
4.06215e-08
3.36021e-08
2.69265e-08
2.10283e-08
1.61607e-08
1.23998e-08
9.69613e-09
7.93839e-09
7.00533e-09
6.80021e-09
6.99098e-08
7.24273e-08
8.22695e-08
1.00235e-07
1.27297e-07
1.64271e-07
2.11343e-07
2.67542e-07
3.30357e-07
3.95837e-07
4.59355e-07
5.16857e-07
5.65907e-07
6.05838e-07
6.36821e-07
6.5751e-07
6.61161e-07
6.47483e-07
6.22903e-07
5.88607e-07
5.44009e-07
4.89304e-07
4.26643e-07
3.60155e-07
2.94913e-07
2.35532e-07
1.85186e-07
1.45354e-07
1.16143e-07
9.68584e-08
8.65377e-08
8.43498e-08
6.7261e-07
6.92351e-07
7.73929e-07
9.22144e-07
1.14228e-06
1.43731e-06
1.80431e-06
2.23106e-06
2.6945e-06
3.16323e-06
3.60457e-06
3.99344e-06
4.3178e-06
4.57756e-06
4.77702e-06
4.90942e-06
4.93202e-06
4.84381e-06
4.68665e-06
4.46681e-06
4.17739e-06
3.81481e-06
3.38779e-06
2.92011e-06
2.44594e-06
2.00052e-06
1.61171e-06
1.29604e-06
1.05944e-06
9.00575e-07
8.14793e-07
7.97388e-07
4.97349e-06
5.08931e-06
5.60157e-06
6.52857e-06
7.88586e-06
9.66895e-06
1.1834e-05
1.42829e-05
1.68633e-05
1.93928e-05
2.17032e-05
2.36845e-05
2.53015e-05
2.65761e-05
2.7545e-05
2.81843e-05
2.82883e-05
2.78563e-05
2.70947e-05
2.6029e-05
2.46125e-05
2.28048e-05
2.06191e-05
1.81492e-05
1.55602e-05
1.30464e-05
1.07829e-05
8.89339e-06
7.44314e-06
6.45123e-06
5.9104e-06
5.80626e-06
2.8515e-05
2.9026e-05
3.14812e-05
3.59105e-05
4.23037e-05
5.0533e-05
6.0278e-05
7.09885e-05
8.19271e-05
9.23112e-05
0.00010151
0.000109192
0.000115332
0.0001201
0.000123691
0.000126047
0.000126409
0.000124786
0.000121959
0.000118008
0.000112719
0.000105864
9.73755e-05
8.74932e-05
7.67848e-05
6.60303e-05
5.60273e-05
4.74261e-05
4.06534e-05
3.59273e-05
3.33229e-05
3.28513e-05
0.000128267
0.000129974
0.000139046
0.000155383
0.000178636
0.000207959
0.000241807
0.000277929
0.000313657
0.000346491
0.000374711
0.000397682
0.00041569
0.00042949
0.000439797
0.000446522
0.000447493
0.000442759
0.000434604
0.000423233
0.000407941
0.000387872
0.000362508
0.000332162
0.000298222
0.000262977
0.000229094
0.000199045
0.000174731
0.000157392
0.000147723
0.000146093
0.000459534
0.000463885
0.000490069
0.000537203
0.000603424
0.000685264
0.000777339
0.000872699
0.000964017
0.00104528
0.0011131
0.00116701
0.00120855
0.00124001
0.00126334
0.0012785
0.00128055
0.00126964
0.00125105
0.00122518
0.00119029
0.00114408
0.0010847
0.00101195
0.000928231
0.000838513
0.000749433
0.000667921
0.000600062
0.000550525
0.000522528
0.000518165
0.00133543
0.00134396
0.00140392
0.00151209
0.00166233
0.00184443
0.00204413
0.00224481
0.0024309
0.00259137
0.00272171
0.00282311
0.00290006
0.00295778
0.00300036
0.00302793
0.00303142
0.00301116
0.00297693
0.00292942
0.00286525
0.0027797
0.00266835
0.00252934
0.00236545
0.00218492
0.0020003
0.00182621
0.00167703
0.00156536
0.00150124
0.00149203
0.00321501
0.00322796
0.00333895
0.00354034
0.00381749
0.00414724
0.00449966
0.00484328
0.005152
0.00541049
0.00561529
0.00577171
0.00588894
0.00597621
0.0060403
0.0060817
0.00608663
0.00605561
0.00600359
0.00593155
0.00583414
0.0057037
0.00553239
0.00531547
0.00505496
0.00476172
0.00445454
0.00415717
0.00389518
0.00369377
0.00357582
0.00356013
0.00656193
0.00657698
0.00674666
0.0070579
0.00748306
0.00797955
0.00849634
0.00898522
0.00941137
0.00975872
0.0100281
0.0102307
0.0103811
0.0104924
0.0105739
0.0106265
0.0106324
0.0105924
0.0105256
0.0104333
0.0103084
0.0101407
0.00991902
0.00963558
0.00929087
0.00889726
0.00847834
0.00806513
0.00769258
0.00739833
0.00722161
0.00719926
0.0116294
0.0116423
0.011862
0.0122711
0.0128256
0.0134596
0.0141013
0.0146905
0.0151899
0.0155876
0.0158907
0.0161161
0.0162821
0.0164044
0.0164938
0.0165515
0.0165577
0.0165132
0.0164392
0.0163372
0.0161991
0.0160133
0.0157668
0.0154494
0.0150604
0.0146131
0.0141343
0.0136589
0.0132248
0.012874
0.0126566
0.0126291
0.018322
0.0183293
0.0185772
0.0190447
0.0196695
0.0203654
0.0210491
0.0216592
0.0221641
0.0225587
0.0228554
0.0230741
0.0232344
0.0233522
0.0234382
0.0234936
0.0234994
0.0234561
0.0233845
0.0232857
0.0231521
0.022972
0.0227324
0.0224225
0.0220409
0.0216012
0.0211322
0.0206708
0.0202525
0.0199115
0.0196931
0.0196642
0.0262275
0.0262306
0.026481
0.0269497
0.027559
0.0282163
0.0288431
0.029389
0.0298321
0.0301736
0.030428
0.0306145
0.0307508
0.0308507
0.0309236
0.0309707
0.0309755
0.0309386
0.0308775
0.0307933
0.0306795
0.030526
0.0303213
0.0300558
0.0297276
0.0293495
0.0289496
0.0285651
0.0282283
0.0279613
0.0277885
0.027765
0.0347713
0.0347781
0.0350046
0.0354074
0.035909
0.0364321
0.0369185
0.0373343
0.0376675
0.0379219
0.0381104
0.038248
0.0383484
0.038422
0.0384756
0.0385103
0.0385139
0.0384866
0.0384415
0.0383794
0.0382954
0.0381821
0.0380309
0.0378341
0.0375902
0.0373088
0.0370134
0.0367366
0.0365081
0.036343
0.0362453
0.0362373
0.0433764
0.0433946
0.0435613
0.0438308
0.0441512
0.0444765
0.044774
0.0450256
0.0452257
0.0453777
0.04549
0.0455719
0.0456315
0.0456752
0.0457071
0.0457277
0.0457299
0.0457136
0.0456868
0.0456498
0.0455999
0.0455325
0.0454425
0.0453252
0.0451794
0.0450107
0.044834
0.044671
0.0445438
0.0444652
0.0444343
0.0444463
0.0515581
0.0515695
0.0516316
0.0517249
0.0518329
0.051941
0.0520392
0.0521217
0.0521872
0.0522368
0.0522734
0.0523001
0.0523195
0.0523338
0.0523441
0.0523509
0.0523516
0.0523463
0.0523375
0.0523254
0.0523092
0.0522872
0.0522579
0.0522196
0.0521718
0.0521164
0.0520583
0.0520048
0.051964
0.0519415
0.051938
0.0519478
)
;

boundaryField
{
    movingWall
    {
        type            fixedValue;
        value           uniform 0.0555;
    }
    fixedWalls
    {
        type            zeroGradient;
    }
    frontAndBack
    {
        type            empty;
    }
}


// ************************************************************************* //
