/*--------------------------------*- C++ -*----------------------------------*\
| =========                 |                                                 |
| \\      /  F ield         | OpenFOAM: The Open Source CFD Toolbox           |
|  \\    /   O peration     | Version:  2212                                  |
|   \\  /    A nd           | Website:  www.openfoam.com                      |
|    \\/     M anipulation  |                                                 |
\*---------------------------------------------------------------------------*/
FoamFile
{
    version     2.0;
    format      ascii;
    arch        "LSB;label=64;scalar=64";
    class       volScalarField;
    location    "1290";
    object      Gh2;
}
// * * * * * * * * * * * * * * * * * * * * * * * * * * * * * * * * * * * * * //

dimensions      [1 -3 0 0 0 0 0];

internalField   nonuniform List<scalar> 
1024
(
1.27938e-05
1.27932e-05
1.27918e-05
1.27893e-05
1.27853e-05
1.27796e-05
1.27718e-05
1.27622e-05
1.2751e-05
1.27391e-05
1.27273e-05
1.27166e-05
1.27085e-05
1.27041e-05
1.27044e-05
1.27102e-05
1.27219e-05
1.27375e-05
1.27552e-05
1.27746e-05
1.27952e-05
1.28165e-05
1.28373e-05
1.28565e-05
1.28731e-05
1.28867e-05
1.28971e-05
1.29046e-05
1.29097e-05
1.29129e-05
1.29146e-05
1.29153e-05
1.27937e-05
1.27931e-05
1.27917e-05
1.27892e-05
1.27851e-05
1.27792e-05
1.27714e-05
1.27616e-05
1.27504e-05
1.27384e-05
1.27265e-05
1.27158e-05
1.27077e-05
1.27033e-05
1.27036e-05
1.27095e-05
1.27212e-05
1.27368e-05
1.27545e-05
1.27738e-05
1.27945e-05
1.28157e-05
1.28366e-05
1.28558e-05
1.28726e-05
1.28862e-05
1.28968e-05
1.29044e-05
1.29095e-05
1.29127e-05
1.29145e-05
1.29152e-05
1.27934e-05
1.27929e-05
1.27914e-05
1.27888e-05
1.27846e-05
1.27786e-05
1.27706e-05
1.27606e-05
1.27492e-05
1.27369e-05
1.27248e-05
1.27139e-05
1.27056e-05
1.27013e-05
1.27018e-05
1.27079e-05
1.27197e-05
1.27354e-05
1.2753e-05
1.27723e-05
1.27929e-05
1.28141e-05
1.2835e-05
1.28544e-05
1.28714e-05
1.28853e-05
1.28961e-05
1.29039e-05
1.29092e-05
1.29124e-05
1.29142e-05
1.2915e-05
1.2793e-05
1.27924e-05
1.27909e-05
1.27882e-05
1.27839e-05
1.27777e-05
1.27694e-05
1.27591e-05
1.27473e-05
1.27345e-05
1.27218e-05
1.27103e-05
1.27018e-05
1.26976e-05
1.26985e-05
1.27051e-05
1.27172e-05
1.2733e-05
1.27507e-05
1.27699e-05
1.27905e-05
1.28117e-05
1.28327e-05
1.28523e-05
1.28696e-05
1.28839e-05
1.2895e-05
1.29031e-05
1.29085e-05
1.29119e-05
1.29138e-05
1.29146e-05
1.27923e-05
1.27917e-05
1.27902e-05
1.27874e-05
1.2783e-05
1.27766e-05
1.27679e-05
1.27572e-05
1.27447e-05
1.27312e-05
1.27174e-05
1.27048e-05
1.26957e-05
1.26917e-05
1.26933e-05
1.27007e-05
1.27135e-05
1.27297e-05
1.27476e-05
1.27669e-05
1.27874e-05
1.28086e-05
1.28297e-05
1.28496e-05
1.28673e-05
1.2882e-05
1.28935e-05
1.29019e-05
1.29077e-05
1.29112e-05
1.29132e-05
1.2914e-05
1.27913e-05
1.27907e-05
1.27892e-05
1.27864e-05
1.27819e-05
1.27752e-05
1.27663e-05
1.27549e-05
1.27415e-05
1.27266e-05
1.2711e-05
1.26967e-05
1.26866e-05
1.26828e-05
1.26855e-05
1.26943e-05
1.27084e-05
1.27255e-05
1.27438e-05
1.27633e-05
1.27839e-05
1.28052e-05
1.28264e-05
1.28466e-05
1.28647e-05
1.28799e-05
1.28918e-05
1.29006e-05
1.29066e-05
1.29103e-05
1.29124e-05
1.29132e-05
1.27898e-05
1.27892e-05
1.27877e-05
1.2785e-05
1.27804e-05
1.27737e-05
1.27643e-05
1.27522e-05
1.27375e-05
1.27205e-05
1.27023e-05
1.26856e-05
1.2674e-05
1.26704e-05
1.26746e-05
1.26857e-05
1.27017e-05
1.27201e-05
1.27394e-05
1.27596e-05
1.27805e-05
1.28019e-05
1.28233e-05
1.28438e-05
1.28622e-05
1.28778e-05
1.28902e-05
1.28993e-05
1.29055e-05
1.29094e-05
1.29115e-05
1.29123e-05
1.27873e-05
1.27868e-05
1.27854e-05
1.27828e-05
1.27783e-05
1.27715e-05
1.27617e-05
1.27486e-05
1.27321e-05
1.27124e-05
1.26909e-05
1.26709e-05
1.26575e-05
1.26541e-05
1.26603e-05
1.26741e-05
1.26928e-05
1.27135e-05
1.27345e-05
1.27558e-05
1.27776e-05
1.27995e-05
1.28212e-05
1.28418e-05
1.28605e-05
1.28763e-05
1.28889e-05
1.28982e-05
1.29045e-05
1.29085e-05
1.29106e-05
1.29115e-05
1.27829e-05
1.27825e-05
1.27813e-05
1.27789e-05
1.27746e-05
1.27677e-05
1.27574e-05
1.27432e-05
1.27244e-05
1.27013e-05
1.26756e-05
1.26519e-05
1.26365e-05
1.26334e-05
1.2642e-05
1.26592e-05
1.26812e-05
1.27049e-05
1.27286e-05
1.27522e-05
1.27755e-05
1.27984e-05
1.28207e-05
1.28415e-05
1.28603e-05
1.28761e-05
1.28885e-05
1.28977e-05
1.2904e-05
1.29079e-05
1.291e-05
1.29109e-05
1.27748e-05
1.27745e-05
1.27735e-05
1.27713e-05
1.27672e-05
1.27602e-05
1.27493e-05
1.27336e-05
1.27121e-05
1.26851e-05
1.2655e-05
1.26276e-05
1.26103e-05
1.2608e-05
1.26191e-05
1.26395e-05
1.2665e-05
1.26926e-05
1.27203e-05
1.27475e-05
1.27737e-05
1.27987e-05
1.2822e-05
1.28433e-05
1.28619e-05
1.28773e-05
1.28893e-05
1.28981e-05
1.2904e-05
1.29076e-05
1.29096e-05
1.29103e-05
1.27595e-05
1.27593e-05
1.27584e-05
1.27564e-05
1.27523e-05
1.27451e-05
1.27333e-05
1.27158e-05
1.26913e-05
1.26604e-05
1.26263e-05
1.2596e-05
1.25778e-05
1.25764e-05
1.25895e-05
1.2612e-05
1.26403e-05
1.26722e-05
1.27055e-05
1.27384e-05
1.27697e-05
1.27983e-05
1.2824e-05
1.28462e-05
1.28648e-05
1.28796e-05
1.28907e-05
1.28986e-05
1.29037e-05
1.29067e-05
1.29082e-05
1.29088e-05
1.27321e-05
1.27319e-05
1.27311e-05
1.27289e-05
1.27246e-05
1.27166e-05
1.27036e-05
1.2684e-05
1.26568e-05
1.26228e-05
1.25861e-05
1.25545e-05
1.25365e-05
1.25356e-05
1.25482e-05
1.25695e-05
1.25976e-05
1.26329e-05
1.2673e-05
1.27143e-05
1.27538e-05
1.27895e-05
1.28201e-05
1.28451e-05
1.28646e-05
1.2879e-05
1.28891e-05
1.28955e-05
1.28991e-05
1.29009e-05
1.29015e-05
1.29016e-05
1.26879e-05
1.26875e-05
1.26863e-05
1.26836e-05
1.26783e-05
1.26692e-05
1.26545e-05
1.26329e-05
1.26035e-05
1.25678e-05
1.25304e-05
1.24993e-05
1.24813e-05
1.24778e-05
1.24842e-05
1.2497e-05
1.25182e-05
1.25519e-05
1.25965e-05
1.26471e-05
1.26985e-05
1.27462e-05
1.27872e-05
1.28196e-05
1.28435e-05
1.28595e-05
1.2869e-05
1.28735e-05
1.28748e-05
1.28742e-05
1.2873e-05
1.28722e-05
1.26259e-05
1.26252e-05
1.26233e-05
1.26195e-05
1.26127e-05
1.26017e-05
1.25848e-05
1.25608e-05
1.25295e-05
1.24927e-05
1.24553e-05
1.24239e-05
1.24019e-05
1.23878e-05
1.23772e-05
1.2369e-05
1.23697e-05
1.23883e-05
1.24255e-05
1.24766e-05
1.25356e-05
1.25963e-05
1.26533e-05
1.27011e-05
1.2738e-05
1.27629e-05
1.27767e-05
1.2782e-05
1.27818e-05
1.27792e-05
1.27762e-05
1.27743e-05
1.25535e-05
1.25525e-05
1.25497e-05
1.25443e-05
1.25351e-05
1.25204e-05
1.2499e-05
1.24701e-05
1.2434e-05
1.23936e-05
1.23528e-05
1.23147e-05
1.2279e-05
1.22426e-05
1.22024e-05
1.21591e-05
1.21216e-05
1.21036e-05
1.21085e-05
1.2134e-05
1.21764e-05
1.22307e-05
1.2291e-05
1.23511e-05
1.24065e-05
1.24521e-05
1.24853e-05
1.25061e-05
1.25165e-05
1.25199e-05
1.25196e-05
1.25186e-05
1.24847e-05
1.24835e-05
1.24802e-05
1.24735e-05
1.24618e-05
1.24434e-05
1.24169e-05
1.23818e-05
1.23387e-05
1.22896e-05
1.22367e-05
1.21809e-05
1.21212e-05
1.20555e-05
1.19823e-05
1.19027e-05
1.18255e-05
1.17647e-05
1.17236e-05
1.1701e-05
1.16965e-05
1.17093e-05
1.1738e-05
1.17796e-05
1.18297e-05
1.18828e-05
1.19332e-05
1.19759e-05
1.20075e-05
1.20274e-05
1.20375e-05
1.2041e-05
1.24327e-05
1.24315e-05
1.24281e-05
1.2421e-05
1.24083e-05
1.23882e-05
1.23588e-05
1.2319e-05
1.22693e-05
1.22109e-05
1.21459e-05
1.20758e-05
1.20009e-05
1.19213e-05
1.18383e-05
1.17542e-05
1.16768e-05
1.16121e-05
1.15562e-05
1.15062e-05
1.14632e-05
1.14297e-05
1.14083e-05
1.1401e-05
1.14078e-05
1.14272e-05
1.14556e-05
1.14873e-05
1.15168e-05
1.15395e-05
1.15536e-05
1.15596e-05
1.23988e-05
1.23977e-05
1.23944e-05
1.23876e-05
1.23753e-05
1.23557e-05
1.23265e-05
1.22866e-05
1.22356e-05
1.21747e-05
1.21064e-05
1.20331e-05
1.19574e-05
1.18821e-05
1.18108e-05
1.17481e-05
1.16999e-05
1.16617e-05
1.1621e-05
1.1573e-05
1.15194e-05
1.14647e-05
1.14139e-05
1.13714e-05
1.13399e-05
1.13207e-05
1.1313e-05
1.13148e-05
1.13223e-05
1.13313e-05
1.13386e-05
1.13424e-05
1.2378e-05
1.23769e-05
1.23739e-05
1.23677e-05
1.23566e-05
1.23387e-05
1.23119e-05
1.22747e-05
1.22266e-05
1.21685e-05
1.21027e-05
1.20328e-05
1.19624e-05
1.18958e-05
1.1838e-05
1.17941e-05
1.17678e-05
1.17486e-05
1.17197e-05
1.16746e-05
1.1615e-05
1.15466e-05
1.14769e-05
1.1413e-05
1.136e-05
1.13205e-05
1.12944e-05
1.12799e-05
1.12741e-05
1.12736e-05
1.12752e-05
1.12766e-05
1.23653e-05
1.23643e-05
1.23616e-05
1.23561e-05
1.23465e-05
1.23308e-05
1.23073e-05
1.22742e-05
1.22311e-05
1.21784e-05
1.21184e-05
1.20546e-05
1.19912e-05
1.19328e-05
1.18843e-05
1.18503e-05
1.18328e-05
1.18198e-05
1.17954e-05
1.17527e-05
1.16916e-05
1.16161e-05
1.15336e-05
1.14528e-05
1.13816e-05
1.13252e-05
1.12853e-05
1.12605e-05
1.12476e-05
1.12428e-05
1.12421e-05
1.12426e-05
1.23567e-05
1.23559e-05
1.23537e-05
1.23492e-05
1.2341e-05
1.23278e-05
1.23076e-05
1.22792e-05
1.22417e-05
1.21956e-05
1.21427e-05
1.20862e-05
1.20298e-05
1.19778e-05
1.19342e-05
1.19025e-05
1.18835e-05
1.18667e-05
1.18401e-05
1.17975e-05
1.17373e-05
1.16614e-05
1.15749e-05
1.14856e-05
1.14024e-05
1.13325e-05
1.12801e-05
1.12453e-05
1.12256e-05
1.12169e-05
1.12146e-05
1.12147e-05
1.2348e-05
1.23475e-05
1.23462e-05
1.23429e-05
1.23367e-05
1.23261e-05
1.23095e-05
1.22856e-05
1.22538e-05
1.22142e-05
1.21684e-05
1.21187e-05
1.20682e-05
1.20201e-05
1.19775e-05
1.19423e-05
1.19149e-05
1.18886e-05
1.18557e-05
1.18109e-05
1.17519e-05
1.16787e-05
1.15941e-05
1.15038e-05
1.14157e-05
1.13376e-05
1.12758e-05
1.12324e-05
1.12062e-05
1.11936e-05
1.11895e-05
1.11892e-05
1.23333e-05
1.23336e-05
1.23336e-05
1.23325e-05
1.2329e-05
1.23215e-05
1.23086e-05
1.2289e-05
1.22622e-05
1.22281e-05
1.21879e-05
1.21431e-05
1.20959e-05
1.20486e-05
1.20031e-05
1.19605e-05
1.19215e-05
1.18841e-05
1.18441e-05
1.17969e-05
1.17396e-05
1.16708e-05
1.15916e-05
1.15056e-05
1.14188e-05
1.13383e-05
1.12708e-05
1.12209e-05
1.1189e-05
1.11725e-05
1.11666e-05
1.11658e-05
1.23064e-05
1.23078e-05
1.231e-05
1.23119e-05
1.23118e-05
1.23081e-05
1.22988e-05
1.22828e-05
1.22594e-05
1.22285e-05
1.21909e-05
1.21477e-05
1.21005e-05
1.20509e-05
1.20002e-05
1.19488e-05
1.18987e-05
1.1852e-05
1.18067e-05
1.17587e-05
1.17046e-05
1.16419e-05
1.15704e-05
1.1492e-05
1.14109e-05
1.13328e-05
1.1264e-05
1.121e-05
1.11736e-05
1.11535e-05
1.11456e-05
1.11443e-05
1.22615e-05
1.22644e-05
1.22693e-05
1.22747e-05
1.22782e-05
1.22777e-05
1.22709e-05
1.22566e-05
1.2234e-05
1.22031e-05
1.21648e-05
1.21201e-05
1.20704e-05
1.20171e-05
1.19612e-05
1.19027e-05
1.1845e-05
1.1793e-05
1.17459e-05
1.16995e-05
1.16502e-05
1.15953e-05
1.15333e-05
1.14648e-05
1.13924e-05
1.13203e-05
1.1254e-05
1.1199e-05
1.11596e-05
1.11364e-05
1.11266e-05
1.11247e-05
1.21942e-05
1.21989e-05
1.22065e-05
1.22145e-05
1.222e-05
1.22205e-05
1.22136e-05
1.2198e-05
1.21732e-05
1.21398e-05
1.20987e-05
1.20514e-05
1.19991e-05
1.19432e-05
1.18846e-05
1.18234e-05
1.17634e-05
1.1711e-05
1.16656e-05
1.16232e-05
1.15803e-05
1.1534e-05
1.14825e-05
1.14254e-05
1.13638e-05
1.13005e-05
1.12398e-05
1.11868e-05
1.11464e-05
1.11211e-05
1.11095e-05
1.11069e-05
1.21021e-05
1.21085e-05
1.21176e-05
1.21256e-05
1.21294e-05
1.21268e-05
1.21163e-05
1.20966e-05
1.2068e-05
1.20315e-05
1.19884e-05
1.194e-05
1.18877e-05
1.18327e-05
1.17759e-05
1.1717e-05
1.16603e-05
1.16118e-05
1.15712e-05
1.15346e-05
1.14989e-05
1.14616e-05
1.14207e-05
1.13753e-05
1.13257e-05
1.12731e-05
1.12205e-05
1.11723e-05
1.11334e-05
1.11072e-05
1.10943e-05
1.10909e-05
1.19837e-05
1.19912e-05
1.19989e-05
1.20024e-05
1.19998e-05
1.19904e-05
1.19737e-05
1.19494e-05
1.19182e-05
1.1881e-05
1.18389e-05
1.17931e-05
1.17449e-05
1.16952e-05
1.16445e-05
1.15928e-05
1.15437e-05
1.15023e-05
1.14685e-05
1.14388e-05
1.14107e-05
1.1382e-05
1.13511e-05
1.1317e-05
1.12792e-05
1.12383e-05
1.11958e-05
1.11547e-05
1.11195e-05
1.10943e-05
1.10807e-05
1.10767e-05
1.18372e-05
1.1844e-05
1.1846e-05
1.18405e-05
1.18286e-05
1.18116e-05
1.17899e-05
1.17636e-05
1.17332e-05
1.16993e-05
1.16624e-05
1.16235e-05
1.15833e-05
1.15426e-05
1.15016e-05
1.14603e-05
1.14215e-05
1.13892e-05
1.13632e-05
1.13408e-05
1.132e-05
1.12993e-05
1.12773e-05
1.12533e-05
1.12265e-05
1.1197e-05
1.11654e-05
1.11334e-05
1.11042e-05
1.10818e-05
1.10686e-05
1.10642e-05
1.16589e-05
1.16616e-05
1.16538e-05
1.16386e-05
1.16199e-05
1.15993e-05
1.15773e-05
1.15538e-05
1.15288e-05
1.15022e-05
1.14742e-05
1.14454e-05
1.1416e-05
1.13865e-05
1.13572e-05
1.13279e-05
1.13007e-05
1.12781e-05
1.12601e-05
1.12448e-05
1.12309e-05
1.12172e-05
1.1203e-05
1.11875e-05
1.11702e-05
1.11511e-05
1.11301e-05
1.1108e-05
1.10867e-05
1.1069e-05
1.10577e-05
1.10534e-05
1.14414e-05
1.14362e-05
1.14211e-05
1.14039e-05
1.13867e-05
1.137e-05
1.13538e-05
1.13378e-05
1.13217e-05
1.13052e-05
1.12883e-05
1.1271e-05
1.12536e-05
1.12362e-05
1.12191e-05
1.12021e-05
1.11863e-05
1.11733e-05
1.1163e-05
1.11543e-05
1.11465e-05
1.11389e-05
1.11311e-05
1.11227e-05
1.11134e-05
1.1103e-05
1.10915e-05
1.10791e-05
1.10665e-05
1.10553e-05
1.10475e-05
1.10441e-05
1.11757e-05
1.11716e-05
1.11638e-05
1.11563e-05
1.11493e-05
1.11429e-05
1.1137e-05
1.11314e-05
1.11259e-05
1.11204e-05
1.11148e-05
1.11091e-05
1.11035e-05
1.10978e-05
1.10923e-05
1.10868e-05
1.10817e-05
1.10776e-05
1.10743e-05
1.10715e-05
1.1069e-05
1.10666e-05
1.10642e-05
1.10616e-05
1.10587e-05
1.10555e-05
1.10519e-05
1.10481e-05
1.1044e-05
1.10403e-05
1.10375e-05
1.10361e-05
)
;

boundaryField
{
    movingWall
    {
        type            fixedValue;
        value           uniform 1.1032e-05;
    }
    fixedWalls
    {
        type            zeroGradient;
    }
    floor
    {
        type            zeroGradient;
    }
    frontAndBack
    {
        type            empty;
    }
}


// ************************************************************************* //
