/*--------------------------------*- C++ -*----------------------------------*\
| =========                 |                                                 |
| \\      /  F ield         | OpenFOAM: The Open Source CFD Toolbox           |
|  \\    /   O peration     | Version:  2212                                  |
|   \\  /    A nd           | Website:  www.openfoam.com                      |
|    \\/     M anipulation  |                                                 |
\*---------------------------------------------------------------------------*/
FoamFile
{
    version     2.0;
    format      ascii;
    arch        "LSB;label=64;scalar=64";
    class       volScalarField;
    location    "1290";
    object      Sco2;
}
// * * * * * * * * * * * * * * * * * * * * * * * * * * * * * * * * * * * * * //

dimensions      [1 -3 0 0 0 0 0];

internalField   nonuniform List<scalar> 
1024
(
0.00556277
0.00556383
0.00556643
0.00557123
0.00557889
0.00559004
0.00560505
0.00562379
0.00564553
0.00566892
0.00569224
0.00571336
0.00572977
0.00573911
0.00573949
0.0057291
0.00570754
0.00567843
0.00564538
0.00560931
0.00557108
0.00553205
0.00549413
0.00545933
0.00542925
0.00540478
0.00538603
0.00537251
0.00536338
0.0053577
0.0053546
0.00535333
0.00556294
0.00556401
0.00556667
0.00557155
0.00557934
0.00559066
0.00560587
0.00562482
0.00564674
0.00567029
0.00569376
0.005715
0.00573145
0.00574074
0.00574102
0.00573052
0.00570891
0.00567979
0.00564677
0.00561074
0.00557254
0.0055335
0.0054955
0.00546054
0.00543025
0.00540556
0.00538661
0.00537293
0.00536369
0.00535795
0.0053548
0.00535352
0.00556336
0.00556447
0.00556721
0.00557224
0.00558026
0.0055919
0.00560748
0.00562684
0.0056492
0.00567321
0.00569719
0.00571893
0.00573561
0.00574478
0.00574472
0.00573387
0.005712
0.00568277
0.00564975
0.00561378
0.00557563
0.00553656
0.00549839
0.00546312
0.0054324
0.00540725
0.00538789
0.00537388
0.0053644
0.00535851
0.00535529
0.00535397
0.00556414
0.00556529
0.00556813
0.00557333
0.00558163
0.00559368
0.00560979
0.00562978
0.00565291
0.00567789
0.00570305
0.00572597
0.00574328
0.00575226
0.00575147
0.00573973
0.00571719
0.00568761
0.00565444
0.00561847
0.00558036
0.00554124
0.00550282
0.00546708
0.00543574
0.00540991
0.00538991
0.0053754
0.00536557
0.00535946
0.00535612
0.00535476
0.00556539
0.00556656
0.00556947
0.00557483
0.00558341
0.00559588
0.00561262
0.00563351
0.00565788
0.0056846
0.00571196
0.00573708
0.00575565
0.00576439
0.00576228
0.00574886
0.00572495
0.0056945
0.00566086
0.0056247
0.00558652
0.00554729
0.00550855
0.00547224
0.00544012
0.00541344
0.00539265
0.0053775
0.00536722
0.00536082
0.00535733
0.00535591
0.00556728
0.00556845
0.00557137
0.0055768
0.00558557
0.00559843
0.00561588
0.00563795
0.00566421
0.0056937
0.00572461
0.0057533
0.00577397
0.0057825
0.00577833
0.00576214
0.0057358
0.00570366
0.00566895
0.00563216
0.00559365
0.00555415
0.00551503
0.00547809
0.00544513
0.00541752
0.00539588
0.00538004
0.00536925
0.00536254
0.00535889
0.0053574
0.00557017
0.00557128
0.00557413
0.0055795
0.00558831
0.00560147
0.00561968
0.0056433
0.00567223
0.00570575
0.00574183
0.00577561
0.0057994
0.00580781
0.00580079
0.00578052
0.00575043
0.00571542
0.00567865
0.00564046
0.00560106
0.00556097
0.00552131
0.00548373
0.00545
0.00542157
0.00539916
0.00538268
0.00537146
0.00536447
0.00536067
0.00535913
0.00557488
0.00557588
0.00557852
0.00558367
0.00559236
0.00560571
0.00562475
0.0056503
0.00568279
0.00572176
0.0057647
0.00580509
0.00583292
0.0058413
0.00583067
0.00580508
0.00576978
0.00573038
0.00569011
0.00564926
0.005608
0.00556669
0.0055262
0.00548798
0.00545366
0.00542467
0.00540179
0.00538494
0.00537346
0.00536632
0.00536244
0.00536088
0.00558321
0.00558403
0.00558635
0.00559112
0.00559954
0.00561299
0.00563298
0.00566095
0.00569793
0.00574373
0.00579502
0.00584312
0.00587551
0.00588375
0.00586894
0.00583718
0.0057955
0.00575003
0.00570426
0.00565883
0.0056141
0.00557044
0.00552853
0.00548956
0.00545492
0.00542585
0.005403
0.00538625
0.00537487
0.00536782
0.005364
0.00536247
0.0055988
0.0055994
0.00560133
0.00560564
0.00561375
0.0056274
0.00564863
0.00567959
0.005722
0.00577568
0.00583606
0.00589203
0.00592863
0.00593627
0.00591719
0.00587948
0.00583113
0.00577803
0.0057242
0.00567129
0.00562049
0.0055725
0.00552801
0.00548789
0.00545311
0.00542451
0.00540238
0.00538638
0.00537565
0.00536908
0.00536558
0.00536419
0.00562814
0.00562856
0.00563017
0.00563417
0.00564223
0.00565649
0.00567957
0.00571424
0.00576267
0.00582434
0.00589318
0.00595566
0.00599495
0.00600152
0.00597943
0.00593819
0.0058849
0.00582348
0.00575854
0.00569393
0.00563282
0.00557697
0.00552743
0.00548488
0.00544966
0.00542188
0.00540119
0.00538677
0.00537748
0.00537208
0.00536937
0.00536837
0.00568069
0.0056811
0.00568278
0.00568703
0.00569576
0.0057115
0.00573728
0.00577626
0.00583056
0.00589896
0.00597375
0.00603964
0.00607958
0.00608611
0.00606564
0.00602768
0.00597529
0.00590758
0.0058294
0.00574791
0.00566989
0.00559967
0.00553968
0.00549097
0.00545332
0.00542576
0.00540691
0.00539511
0.00538858
0.00538563
0.00538472
0.00538467
0.00576595
0.00576671
0.00576913
0.00577461
0.0057852
0.00580358
0.00583297
0.00587645
0.00593568
0.00600846
0.00608564
0.0061518
0.00619261
0.0062051
0.00619766
0.00617741
0.00613989
0.00607605
0.00598926
0.00588933
0.00578733
0.00569254
0.00561112
0.00554681
0.00549978
0.00546855
0.00545039
0.00544204
0.00544017
0.00544178
0.00544438
0.00544618
0.00588615
0.00588757
0.00589142
0.00589919
0.00591298
0.0059355
0.00596986
0.00601878
0.00608304
0.00615924
0.00623757
0.00630531
0.00635473
0.0063886
0.00641546
0.0064378
0.00644239
0.00641004
0.00633918
0.00623907
0.00612198
0.00600061
0.00588656
0.00579061
0.00571669
0.00566704
0.00563972
0.00562954
0.00563016
0.00563582
0.00564205
0.0056459
0.00602731
0.00602948
0.00603518
0.00604636
0.00606556
0.00609578
0.00613997
0.00619998
0.00627477
0.00635929
0.00644519
0.0065261
0.00660248
0.00668067
0.00676683
0.00686018
0.00694273
0.00698628
0.00698254
0.00693579
0.00685348
0.00674583
0.00662499
0.00650368
0.00639173
0.00629918
0.00623179
0.00618973
0.0061686
0.00616175
0.00616219
0.00616425
0.00616192
0.0061645
0.00617152
0.00618559
0.00620997
0.00624812
0.00630294
0.00637564
0.00646474
0.00656632
0.00667583
0.00679119
0.00691463
0.00705083
0.00720297
0.00737008
0.00753463
0.00766774
0.00776122
0.00781639
0.00783322
0.00781272
0.00775802
0.00767511
0.00757356
0.00746484
0.00736102
0.0072729
0.0072075
0.00716621
0.00714518
0.00713791
0.00626246
0.00626505
0.00627234
0.00628726
0.00631351
0.00635512
0.00641566
0.00649709
0.00659888
0.00671795
0.00685022
0.00699278
0.00714505
0.00730723
0.0074777
0.00765271
0.00781811
0.00796175
0.0080902
0.00820792
0.00831097
0.00839265
0.00844661
0.00846871
0.00845841
0.00841955
0.00836049
0.00829325
0.00823058
0.00818211
0.00815198
0.00813905
0.00632612
0.00632862
0.00633562
0.00634996
0.00637527
0.00641572
0.00647526
0.00655657
0.0066599
0.00678268
0.00692016
0.00706704
0.00721851
0.00736953
0.00751321
0.00764155
0.00774441
0.0078321
0.00793048
0.00804828
0.00817987
0.00831386
0.00843786
0.00854142
0.0086177
0.00866415
0.00868259
0.00867878
0.0086615
0.00864048
0.00862363
0.008615
0.0063635
0.00636588
0.00637236
0.00638542
0.00640837
0.0064451
0.00649959
0.00657483
0.00667169
0.00678807
0.00691901
0.00705768
0.00719658
0.00732759
0.00744127
0.00752818
0.00758251
0.00762775
0.00769951
0.00781079
0.00795695
0.0081242
0.00829457
0.0084507
0.00857987
0.00867588
0.00873862
0.00877259
0.00878519
0.00878508
0.00878031
0.00877658
0.00638472
0.00638691
0.00639273
0.00640428
0.00642439
0.00645653
0.00650436
0.0065709
0.00665737
0.00676221
0.00688081
0.00700613
0.00712986
0.00724306
0.00733627
0.0074011
0.00743537
0.00746591
0.00752607
0.00763043
0.00777892
0.00796195
0.00816238
0.00835907
0.00853254
0.00867008
0.00876731
0.00882718
0.00885744
0.00886801
0.00886859
0.00886671
0.006398
0.00639979
0.00640462
0.0064143
0.00643127
0.00645857
0.00649941
0.00655658
0.00663137
0.0067227
0.00682671
0.00693711
0.00704632
0.0071463
0.00722923
0.00728918
0.00732661
0.00736477
0.00742855
0.007531
0.00767554
0.00785824
0.00806731
0.00828388
0.00848634
0.0086567
0.00878481
0.00886949
0.00891679
0.00893708
0.00894185
0.00894102
0.00641302
0.00641397
0.006417
0.00642381
0.00643674
0.00645859
0.00649225
0.00654015
0.00660349
0.00668159
0.00677152
0.0068684
0.00696627
0.00705901
0.00714113
0.00720958
0.00726571
0.00732437
0.00740114
0.00750696
0.0076472
0.00782215
0.00802548
0.00824356
0.00845755
0.00864768
0.00879895
0.00890504
0.00896857
0.00899875
0.00900792
0.00900811
0.00644231
0.00644168
0.0064415
0.00644367
0.00645078
0.00646585
0.0064918
0.00653092
0.00658436
0.00665177
0.00673121
0.00681931
0.00691193
0.0070049
0.00709485
0.00718102
0.00726336
0.00734637
0.0074381
0.00754806
0.00768298
0.00784633
0.0080359
0.00824289
0.00845306
0.00864904
0.00881386
0.00893628
0.00901422
0.00905418
0.00906808
0.00906945
0.00650013
0.00649697
0.0064919
0.00648733
0.00648667
0.00649372
0.00651196
0.00654395
0.00659094
0.00665285
0.00672837
0.0068151
0.00691011
0.00701045
0.00711402
0.00722124
0.00732907
0.00743272
0.00753545
0.0076463
0.00777284
0.00792066
0.00809098
0.00827916
0.00847509
0.00866495
0.00883302
0.00896532
0.00905481
0.00910391
0.00912277
0.00912551
0.00659977
0.00659317
0.00658188
0.00656951
0.00656079
0.00656069
0.00657362
0.00660263
0.00664902
0.00671247
0.00679153
0.00688391
0.0069869
0.00709795
0.00721539
0.00733991
0.00746543
0.00758092
0.00768735
0.00779381
0.00790827
0.00803728
0.0081843
0.00834813
0.00852268
0.00869764
0.00885963
0.00899447
0.00909151
0.00914841
0.00917225
0.00917657
0.00675116
0.00674049
0.00672308
0.00670467
0.00669149
0.00668932
0.006703
0.00673571
0.0067881
0.00685896
0.00694605
0.00704659
0.00715763
0.00727663
0.00740196
0.00753426
0.00766561
0.00778223
0.00788441
0.00798122
0.00808045
0.00818869
0.00831037
0.00844662
0.00859474
0.00874813
0.00889636
0.00902637
0.00912584
0.0091883
0.00921673
0.00922285
0.00696018
0.00694553
0.00692473
0.00690636
0.00689717
0.006902
0.00692459
0.00696723
0.00702924
0.00710842
0.00720197
0.00730674
0.00741978
0.00753867
0.00766192
0.00779011
0.00791498
0.00802291
0.00811422
0.00819738
0.00827952
0.00836652
0.00846283
0.00857076
0.00868997
0.00881714
0.00894528
0.00906361
0.00915973
0.00922442
0.00925648
0.00926448
0.00723027
0.00721314
0.00719541
0.00718729
0.00719294
0.0072136
0.00725055
0.00730439
0.00737345
0.00745559
0.00754819
0.0076485
0.00775397
0.00786265
0.00797334
0.00808661
0.00819509
0.00828709
0.00836306
0.00843032
0.00849484
0.00856143
0.00863397
0.008715
0.00880543
0.00890427
0.00900781
0.00910847
0.00919535
0.00925801
0.00929185
0.00930157
0.00756567
0.00755007
0.00754549
0.00755805
0.00758512
0.00762355
0.00767246
0.00773143
0.0077993
0.00787496
0.00795675
0.00804279
0.00813132
0.00822098
0.00831094
0.00840171
0.00848751
0.00855934
0.00861774
0.00866839
0.00871587
0.00876381
0.0088152
0.00887223
0.00893616
0.00900725
0.00908415
0.00916264
0.0092347
0.00929054
0.00932342
0.00933423
0.0079752
0.00796898
0.00798698
0.0080217
0.00806453
0.00811137
0.00816135
0.00821444
0.0082708
0.00833045
0.00839284
0.00845704
0.00852206
0.0085871
0.00865164
0.00871608
0.00877643
0.00882656
0.00886692
0.00890142
0.0089332
0.00896473
0.00899802
0.00903465
0.0090757
0.00912175
0.00917271
0.00922687
0.00927963
0.00932368
0.00935204
0.00936268
0.00847579
0.00848759
0.00852252
0.00856199
0.00860148
0.00863965
0.00867654
0.00871278
0.00874918
0.00878633
0.00882431
0.00886284
0.00890147
0.00893981
0.00897761
0.00901508
0.00904998
0.00907885
0.00910195
0.00912153
0.00913934
0.00915677
0.00917497
0.00919482
0.00921698
0.00924188
0.00926975
0.00930018
0.00933127
0.00935912
0.00937885
0.0093873
0.00908822
0.0090976
0.00911567
0.00913295
0.00914891
0.00916357
0.00917708
0.00918984
0.00920227
0.00921469
0.00922724
0.00923987
0.00925247
0.00926493
0.00927717
0.00928925
0.00930048
0.00930975
0.00931715
0.00932339
0.00932904
0.00933452
0.0093402
0.00934637
0.00935321
0.00936089
0.00936949
0.00937897
0.00938889
0.00939819
0.00940533
0.00940879
)
;

boundaryField
{
    movingWall
    {
        type            fixedValue;
        value           uniform 0.00942;
    }
    fixedWalls
    {
        type            zeroGradient;
    }
    floor
    {
        type            zeroGradient;
    }
    frontAndBack
    {
        type            empty;
    }
}


// ************************************************************************* //
