/*--------------------------------*- C++ -*----------------------------------*\
| =========                 |                                                 |
| \\      /  F ield         | OpenFOAM: The Open Source CFD Toolbox           |
|  \\    /   O peration     | Version:  2212                                  |
|   \\  /    A nd           | Website:  www.openfoam.com                      |
|    \\/     M anipulation  |                                                 |
\*---------------------------------------------------------------------------*/
FoamFile
{
    version     2.0;
    format      ascii;
    arch        "LSB;label=64;scalar=64";
    class       volScalarField;
    location    "1290";
    object      Xch;
}
// * * * * * * * * * * * * * * * * * * * * * * * * * * * * * * * * * * * * * //

dimensions      [1 -3 0 0 0 0 0];

internalField   nonuniform List<scalar> 
1024
(
0.0199118
0.019912
0.0199124
0.0199132
0.0199145
0.0199164
0.019919
0.0199222
0.0199259
0.0199299
0.0199338
0.0199373
0.01994
0.0199415
0.0199414
0.0199395
0.0199356
0.0199304
0.0199246
0.0199182
0.0199113
0.0199043
0.0198974
0.0198911
0.0198856
0.0198811
0.0198776
0.0198751
0.0198735
0.0198724
0.0198718
0.0198716
0.0199118
0.019912
0.0199124
0.0199133
0.0199146
0.0199165
0.0199191
0.0199224
0.0199261
0.0199301
0.019934
0.0199376
0.0199403
0.0199418
0.0199417
0.0199397
0.0199358
0.0199307
0.0199248
0.0199184
0.0199116
0.0199045
0.0198977
0.0198913
0.0198858
0.0198812
0.0198777
0.0198752
0.0198735
0.0198725
0.0198719
0.0198716
0.0199119
0.0199121
0.0199125
0.0199134
0.0199148
0.0199168
0.0199194
0.0199227
0.0199265
0.0199306
0.0199346
0.0199382
0.019941
0.0199424
0.0199423
0.0199403
0.0199363
0.0199312
0.0199253
0.0199189
0.0199121
0.0199051
0.0198982
0.0198917
0.0198861
0.0198815
0.019878
0.0198754
0.0198736
0.0198726
0.019872
0.0198717
0.019912
0.0199122
0.0199127
0.0199136
0.019915
0.0199171
0.0199198
0.0199232
0.0199271
0.0199314
0.0199356
0.0199394
0.0199422
0.0199436
0.0199434
0.0199412
0.0199372
0.0199319
0.0199261
0.0199197
0.0199129
0.0199059
0.0198989
0.0198924
0.0198867
0.019882
0.0198783
0.0198757
0.0198739
0.0198727
0.0198721
0.0198719
0.0199122
0.0199124
0.0199129
0.0199138
0.0199153
0.0199174
0.0199203
0.0199238
0.019928
0.0199325
0.0199371
0.0199413
0.0199443
0.0199456
0.0199451
0.0199427
0.0199384
0.019933
0.0199271
0.0199207
0.0199139
0.0199069
0.0198999
0.0198933
0.0198875
0.0198826
0.0198788
0.019876
0.0198741
0.019873
0.0198723
0.0198721
0.0199126
0.0199128
0.0199133
0.0199142
0.0199157
0.0199179
0.0199208
0.0199246
0.019929
0.019934
0.0199392
0.0199439
0.0199473
0.0199486
0.0199477
0.0199448
0.0199401
0.0199345
0.0199284
0.0199219
0.0199151
0.0199081
0.019901
0.0198943
0.0198884
0.0198833
0.0198794
0.0198765
0.0198745
0.0198733
0.0198726
0.0198723
0.0199131
0.0199132
0.0199137
0.0199146
0.0199161
0.0199184
0.0199215
0.0199255
0.0199304
0.019936
0.0199421
0.0199476
0.0199515
0.0199527
0.0199513
0.0199477
0.0199424
0.0199363
0.0199298
0.0199232
0.0199162
0.0199091
0.019902
0.0198953
0.0198892
0.019884
0.0198799
0.0198769
0.0198749
0.0198736
0.0198729
0.0198726
0.0199139
0.019914
0.0199145
0.0199154
0.0199168
0.0199191
0.0199224
0.0199267
0.0199322
0.0199387
0.0199459
0.0199525
0.019957
0.0199582
0.0199561
0.0199515
0.0199453
0.0199385
0.0199315
0.0199244
0.0199172
0.01991
0.0199028
0.0198959
0.0198898
0.0198845
0.0198803
0.0198773
0.0198752
0.0198739
0.0198732
0.0198729
0.0199153
0.0199154
0.0199158
0.0199167
0.0199181
0.0199204
0.0199238
0.0199285
0.0199347
0.0199424
0.019951
0.0199588
0.019964
0.019965
0.0199622
0.0199565
0.0199492
0.0199413
0.0199335
0.0199257
0.0199179
0.0199103
0.019903
0.019896
0.0198898
0.0198846
0.0198805
0.0198774
0.0198754
0.0198741
0.0198734
0.0198731
0.019918
0.0199181
0.0199184
0.0199192
0.0199205
0.0199229
0.0199265
0.0199317
0.0199388
0.0199478
0.0199578
0.0199669
0.0199727
0.0199735
0.0199698
0.0199631
0.0199546
0.0199455
0.0199363
0.0199272
0.0199185
0.0199103
0.0199025
0.0198955
0.0198893
0.0198842
0.0198802
0.0198773
0.0198754
0.0198742
0.0198735
0.0198733
0.0199231
0.0199232
0.0199234
0.0199241
0.0199255
0.0199279
0.0199318
0.0199376
0.0199457
0.019956
0.0199673
0.0199774
0.0199835
0.019984
0.0199797
0.0199723
0.0199629
0.0199523
0.0199412
0.0199303
0.0199199
0.0199104
0.0199019
0.0198945
0.0198884
0.0198835
0.0198798
0.0198772
0.0198755
0.0198745
0.019874
0.0198738
0.0199322
0.0199322
0.0199325
0.0199332
0.0199347
0.0199373
0.0199416
0.0199482
0.0199572
0.0199685
0.0199807
0.0199912
0.0199973
0.0199976
0.0199935
0.0199864
0.0199771
0.0199654
0.0199521
0.0199384
0.0199252
0.0199134
0.0199032
0.0198949
0.0198885
0.0198837
0.0198803
0.0198782
0.019877
0.0198764
0.0198762
0.0198762
0.0199468
0.019947
0.0199473
0.0199483
0.01995
0.0199531
0.0199579
0.0199651
0.0199749
0.0199868
0.0199992
0.0200096
0.0200156
0.0200168
0.0200148
0.0200106
0.0200036
0.0199924
0.0199776
0.0199608
0.0199437
0.0199278
0.0199142
0.0199034
0.0198955
0.0198902
0.019887
0.0198855
0.0198851
0.0198853
0.0198857
0.019886
0.0199674
0.0199676
0.0199683
0.0199695
0.0199718
0.0199755
0.0199811
0.0199891
0.0199995
0.0200118
0.0200242
0.0200347
0.0200421
0.0200468
0.0200504
0.0200531
0.020053
0.0200468
0.0200345
0.0200175
0.0199979
0.0199777
0.0199588
0.0199429
0.0199306
0.0199224
0.0199178
0.019916
0.0199161
0.019917
0.019918
0.0199186
0.0199914
0.0199918
0.0199927
0.0199945
0.0199976
0.0200025
0.0200096
0.0200192
0.0200312
0.0200447
0.0200583
0.020071
0.0200829
0.0200951
0.0201085
0.0201229
0.0201354
0.0201415
0.0201399
0.0201315
0.0201174
0.0200994
0.0200793
0.0200593
0.0200409
0.0200258
0.0200147
0.0200078
0.0200043
0.0200032
0.0200033
0.0200036
0.0200143
0.0200147
0.0200158
0.020018
0.0200219
0.020028
0.0200369
0.0200486
0.0200629
0.0200793
0.0200969
0.0201155
0.0201353
0.0201572
0.0201816
0.0202081
0.0202339
0.0202542
0.0202679
0.0202755
0.0202771
0.0202728
0.0202633
0.0202495
0.0202329
0.0202152
0.0201984
0.0201842
0.0201737
0.0201671
0.0201637
0.0201625
0.0200315
0.0200319
0.0200331
0.0200355
0.0200397
0.0200464
0.0200562
0.0200694
0.0200859
0.0201054
0.020127
0.0201503
0.0201752
0.0202017
0.0202293
0.0202573
0.0202831
0.0203048
0.0203235
0.0203402
0.0203547
0.020366
0.0203731
0.0203757
0.0203734
0.020367
0.0203575
0.0203469
0.0203371
0.0203295
0.0203248
0.0203228
0.0200428
0.0200431
0.0200442
0.0200465
0.0200506
0.0200571
0.0200668
0.0200801
0.0200971
0.0201173
0.0201401
0.0201644
0.0201896
0.0202146
0.0202383
0.0202592
0.0202752
0.020288
0.0203017
0.0203178
0.0203358
0.0203542
0.0203713
0.0203856
0.0203962
0.0204026
0.0204052
0.0204046
0.0204021
0.0203991
0.0203966
0.0203954
0.0200497
0.02005
0.020051
0.0200531
0.0200568
0.0200627
0.0200716
0.020084
0.0201
0.0201193
0.0201412
0.0201644
0.0201878
0.0202099
0.0202291
0.0202437
0.0202524
0.0202588
0.0202686
0.0202838
0.0203038
0.0203268
0.0203502
0.0203717
0.0203895
0.0204028
0.0204115
0.0204164
0.0204183
0.0204185
0.0204179
0.0204175
0.0200538
0.0200542
0.0200551
0.0200569
0.0200601
0.0200653
0.0200732
0.0200841
0.0200985
0.020116
0.0201359
0.0201571
0.0201781
0.0201975
0.0202136
0.0202249
0.0202307
0.020235
0.0202432
0.0202576
0.0202781
0.0203035
0.0203312
0.0203584
0.0203823
0.0204012
0.0204146
0.020423
0.0204273
0.0204289
0.0204291
0.0204289
0.0200566
0.0200569
0.0200577
0.0200592
0.0200619
0.0200663
0.020073
0.0200824
0.0200949
0.0201102
0.0201278
0.0201466
0.0201653
0.0201825
0.020197
0.0202074
0.0202138
0.0202194
0.0202283
0.0202426
0.0202628
0.0202883
0.0203174
0.0203474
0.0203753
0.0203988
0.0204164
0.0204281
0.0204347
0.0204376
0.0204384
0.0204384
0.0200595
0.0200597
0.0200601
0.0200612
0.0200633
0.0200668
0.0200724
0.0200803
0.0200909
0.020104
0.0201192
0.0201357
0.0201525
0.0201684
0.0201826
0.0201942
0.0202033
0.0202121
0.0202232
0.0202382
0.020258
0.0202825
0.020311
0.0203413
0.0203709
0.0203971
0.0204179
0.0204325
0.0204413
0.0204455
0.0204469
0.020447
0.0200644
0.0200643
0.0200643
0.0200647
0.0200659
0.0200683
0.0200726
0.0200791
0.0200881
0.0200994
0.0201127
0.0201276
0.0201433
0.020159
0.0201741
0.0201882
0.0202012
0.0202137
0.0202271
0.0202429
0.0202621
0.0202852
0.0203118
0.0203407
0.0203699
0.0203969
0.0204196
0.0204364
0.0204471
0.0204526
0.0204546
0.0204549
0.0200734
0.0200729
0.0200722
0.0200715
0.0200716
0.0200728
0.0200759
0.0200812
0.020089
0.0200993
0.0201118
0.0201261
0.0201418
0.0201583
0.0201752
0.0201923
0.020209
0.0202246
0.0202397
0.0202558
0.020274
0.020295
0.020319
0.0203453
0.0203725
0.0203988
0.0204219
0.02044
0.0204523
0.020459
0.0204617
0.0204621
0.0200884
0.0200874
0.0200858
0.020084
0.0200828
0.020083
0.0200852
0.02009
0.0200975
0.0201078
0.0201205
0.0201354
0.0201519
0.0201697
0.0201883
0.0202078
0.0202271
0.0202445
0.0202602
0.0202758
0.0202923
0.0203107
0.0203315
0.0203545
0.0203788
0.020403
0.0204253
0.0204438
0.020457
0.0204648
0.0204681
0.0204687
0.0201109
0.0201093
0.0201068
0.0201041
0.0201022
0.0201021
0.0201044
0.0201096
0.0201178
0.020129
0.0201427
0.0201585
0.0201759
0.0201945
0.020214
0.0202345
0.0202545
0.020272
0.0202872
0.0203014
0.0203158
0.0203313
0.0203486
0.0203677
0.0203884
0.0204097
0.0204301
0.0204479
0.0204614
0.02047
0.0204739
0.0204747
0.0201417
0.0201396
0.0201365
0.0201339
0.0201326
0.0201334
0.0201369
0.0201435
0.020153
0.0201652
0.0201796
0.0201958
0.0202132
0.0202316
0.0202505
0.0202702
0.0202891
0.0203053
0.0203189
0.0203312
0.0203431
0.0203556
0.0203693
0.0203846
0.0204012
0.0204189
0.0204365
0.0204528
0.0204658
0.0204746
0.020479
0.0204801
0.0201813
0.0201788
0.0201762
0.0201751
0.020176
0.0201791
0.0201846
0.0201928
0.0202032
0.0202156
0.0202297
0.020245
0.0202611
0.0202777
0.0202946
0.0203119
0.0203283
0.0203421
0.0203534
0.0203633
0.0203728
0.0203824
0.0203927
0.0204042
0.0204169
0.0204306
0.0204449
0.0204587
0.0204705
0.020479
0.0204836
0.0204849
0.0202304
0.0202281
0.0202274
0.0202293
0.0202333
0.0202389
0.0202462
0.020255
0.0202651
0.0202765
0.0202888
0.0203018
0.0203152
0.0203288
0.0203425
0.0203563
0.0203693
0.0203801
0.0203888
0.0203963
0.0204032
0.0204102
0.0204175
0.0204256
0.0204346
0.0204445
0.0204551
0.0204659
0.0204757
0.0204832
0.0204876
0.0204891
0.0202901
0.0202892
0.0202918
0.0202969
0.0203031
0.02031
0.0203174
0.0203252
0.0203336
0.0203425
0.0203518
0.0203615
0.0203713
0.0203812
0.020391
0.0204007
0.0204098
0.0204174
0.0204234
0.0204285
0.0204332
0.0204377
0.0204425
0.0204477
0.0204535
0.0204599
0.020467
0.0204744
0.0204816
0.0204875
0.0204913
0.0204928
0.0203629
0.0203646
0.0203697
0.0203755
0.0203812
0.0203868
0.0203922
0.0203976
0.020403
0.0204085
0.0204141
0.0204199
0.0204257
0.0204315
0.0204373
0.0204429
0.0204482
0.0204526
0.020456
0.0204589
0.0204615
0.0204641
0.0204667
0.0204695
0.0204726
0.0204761
0.02048
0.0204841
0.0204884
0.0204921
0.0204948
0.0204959
0.0204519
0.0204532
0.0204559
0.0204584
0.0204607
0.0204628
0.0204648
0.0204667
0.0204685
0.0204704
0.0204723
0.0204741
0.020476
0.0204779
0.0204798
0.0204816
0.0204833
0.0204847
0.0204858
0.0204867
0.0204876
0.0204884
0.0204892
0.0204901
0.020491
0.0204921
0.0204933
0.0204946
0.0204959
0.0204972
0.0204982
0.0204986
)
;

boundaryField
{
    movingWall
    {
        type            fixedValue;
        value           uniform 0.0205;
    }
    fixedWalls
    {
        type            zeroGradient;
    }
    floor
    {
        type            zeroGradient;
    }
    frontAndBack
    {
        type            empty;
    }
}


// ************************************************************************* //
