/*--------------------------------*- C++ -*----------------------------------*\
| =========                 |                                                 |
| \\      /  F ield         | OpenFOAM: The Open Source CFD Toolbox           |
|  \\    /   O peration     | Version:  2212                                  |
|   \\  /    A nd           | Website:  www.openfoam.com                      |
|    \\/     M anipulation  |                                                 |
\*---------------------------------------------------------------------------*/
FoamFile
{
    version     2.0;
    format      ascii;
    arch        "LSB;label=64;scalar=64";
    class       volScalarField::Internal;
    location    "1080";
    object      dGch4;
}
// * * * * * * * * * * * * * * * * * * * * * * * * * * * * * * * * * * * * * //

dimensions      [1 -3 -1 0 0 0 0];

value           nonuniform List<scalar> 
1024
(
0.000947046
0.000947221
0.000947646
0.000948409
0.000949599
0.000951279
0.000953454
0.00095605
0.000958918
0.000961868
0.000964726
0.000967312
0.0009694
0.000970728
0.000971032
0.000970034
0.000967615
0.000964228
0.000960311
0.000955919
0.000951038
0.000945728
0.000940203
0.000934802
0.000929878
0.0009257
0.000922394
0.000919953
0.000918278
0.000917225
0.000916645
0.000916409
0.000947052
0.000947229
0.000947661
0.000948438
0.000949648
0.000951353
0.000953551
0.000956162
0.000959038
0.000961989
0.000964849
0.00096744
0.000969528
0.000970847
0.000971135
0.000970124
0.000967703
0.000964325
0.000960429
0.000956066
0.000951218
0.000945936
0.000940425
0.000935019
0.000930073
0.000925861
0.000922519
0.000920048
0.000918349
0.000917282
0.000916695
0.000916455
0.000947061
0.000947243
0.000947688
0.000948488
0.000949732
0.000951475
0.000953709
0.000956347
0.00095924
0.000962209
0.0009651
0.000967733
0.000969846
0.000971145
0.000971385
0.000970321
0.000967873
0.000964507
0.000960651
0.00095635
0.000951575
0.000946359
0.000940885
0.000935476
0.000930488
0.000926209
0.000922795
0.000920259
0.000918513
0.000917415
0.000916812
0.000916565
0.000947065
0.000947253
0.000947713
0.000948537
0.000949815
0.000951598
0.00095387
0.000956541
0.000959468
0.000962494
0.000965481
0.000968238
0.000970427
0.000971699
0.00097183
0.000970636
0.000968107
0.000964733
0.00096093
0.000956725
0.000952069
0.000946967
0.000941567
0.000936168
0.000931127
0.000926755
0.000923234
0.000920603
0.000918784
0.00091764
0.000917011
0.000916755
0.000947049
0.000947242
0.00094771
0.000948551
0.00094985
0.000951657
0.000953956
0.000956663
0.000959657
0.000962809
0.000966001
0.000969006
0.000971354
0.00097259
0.000972518
0.000971068
0.000968357
0.00096493
0.000961175
0.000957093
0.000952605
0.000947671
0.000942394
0.000937037
0.000931952
0.000927476
0.000923827
0.000921076
0.000919166
0.000917962
0.000917301
0.000917033
0.000946991
0.000947184
0.000947651
0.000948487
0.00094978
0.000951583
0.000953891
0.000956641
0.000959749
0.00096313
0.00096668
0.000970094
0.000972702
0.000973887
0.000973482
0.000971591
0.000968543
0.000964978
0.000961245
0.000957299
0.000953018
0.000948311
0.000943218
0.000937956
0.000932863
0.000928298
0.000924523
0.000921647
0.000919638
0.000918368
0.000917672
0.000917391
0.000946874
0.00094706
0.00094751
0.000948315
0.000949567
0.000951329
0.000953624
0.000956432
0.000959724
0.000963469
0.000967566
0.000971566
0.000974528
0.000975617
0.000974702
0.000972128
0.000968533
0.000964705
0.000960942
0.000957127
0.000953082
0.000948655
0.000943814
0.000938719
0.000933682
0.000929081
0.000925216
0.000922239
0.000920145
0.000918817
0.000918089
0.000917795
0.000946712
0.000946883
0.000947297
0.000948043
0.000949218
0.000950909
0.000953179
0.000956075
0.000959645
0.000963922
0.00096877
0.000973517
0.00097687
0.000977751
0.000976081
0.000972525
0.000968128
0.000963881
0.000960014
0.000956309
0.000952517
0.000948412
0.000943891
0.000939049
0.000934164
0.00092962
0.000925745
0.000922728
0.000920589
0.000919228
0.00091848
0.000918178
0.000946621
0.000946765
0.000947124
0.000947788
0.000948864
0.00095047
0.000952729
0.000955776
0.000959758
0.000964763
0.000970549
0.000976118
0.00097977
0.000980196
0.000977432
0.000972545
0.000967071
0.000962237
0.000958181
0.000954554
0.000951017
0.000947268
0.000943131
0.000938637
0.000934025
0.000929666
0.000925904
0.000922946
0.000920835
0.000919482
0.000918735
0.000918431
0.000946969
0.000947074
0.000947359
0.000947926
0.000948903
0.000950451
0.000952768
0.000956091
0.000960668
0.000966587
0.000973394
0.000979671
0.0009833
0.000982822
0.00097851
0.000971918
0.000965115
0.00095954
0.000955204
0.000951606
0.000948308
0.000944934
0.000941237
0.000937189
0.000932985
0.00092897
0.000925473
0.000922703
0.000920711
0.000919423
0.000918701
0.000918402
0.000948646
0.000948708
0.000948916
0.000949395
0.000950315
0.000951897
0.000954419
0.000958205
0.000963549
0.00097043
0.000978074
0.000984603
0.000987553
0.000985501
0.000979128
0.000970531
0.000962247
0.000955815
0.000951081
0.000947401
0.000944262
0.000941228
0.000937997
0.000934483
0.000930826
0.000927319
0.00092425
0.000921803
0.000920025
0.000918854
0.000918183
0.000917896
0.000953326
0.000953368
0.000953548
0.000954018
0.000954996
0.000956768
0.000959676
0.000964069
0.000970156
0.000977682
0.000985487
0.00099131
0.000992577
0.000988202
0.000979441
0.000968863
0.000959204
0.000951861
0.000946501
0.000942435
0.000939168
0.000936271
0.000933415
0.000930453
0.000927441
0.000924577
0.000922072
0.000920058
0.00091857
0.000917566
0.000916974
0.000916713
0.000963198
0.000963285
0.000963563
0.000964197
0.000965425
0.00096755
0.000970903
0.000975748
0.000982086
0.000989352
0.000996054
0.000999814
0.000998375
0.000991362
0.000980643
0.000968913
0.00095852
0.000950329
0.000943897
0.000938722
0.000934533
0.000931084
0.000928122
0.000925453
0.000922997
0.00092079
0.000918908
0.000917411
0.000916313
0.000915585
0.000915166
0.000914988
0.000979543
0.000979739
0.000980235
0.00098118
0.00098277
0.000985234
0.00098878
0.000993487
0.000999118
0.00100485
0.00100909
0.0010098
0.00100561
0.000997137
0.000986545
0.000975933
0.000966475
0.000958063
0.000950185
0.00094278
0.000936078
0.000930349
0.000925695
0.000922085
0.000919393
0.000917475
0.000916213
0.000915505
0.000915232
0.000915243
0.000915373
0.000915482
0.00100063
0.00100093
0.00100161
0.00100278
0.00100457
0.0010071
0.0010104
0.00101437
0.00101859
0.00102217
0.00102385
0.00102256
0.00101825
0.00101222
0.00100616
0.00100108
0.000996631
0.000991286
0.000984118
0.000975311
0.000965538
0.000955851
0.000946942
0.000939553
0.000934147
0.000930862
0.000929522
0.000929685
0.000930738
0.00093207
0.000933198
0.000933821
0.0010218
0.00102211
0.00102282
0.00102405
0.0010259
0.00102844
0.00103165
0.0010353
0.00103892
0.00104197
0.00104411
0.00104557
0.00104727
0.00105035
0.00105568
0.00106356
0.00107259
0.00107952
0.00108229
0.00108105
0.00107613
0.00106845
0.00105876
0.00104818
0.00103784
0.00102878
0.00102175
0.00101714
0.00101476
0.00101402
0.00101414
0.00101444
0.00103805
0.00103836
0.00103915
0.0010406
0.00104295
0.00104634
0.00105084
0.00105631
0.00106248
0.00106922
0.00107678
0.00108588
0.00109749
0.00111256
0.00113174
0.0011554
0.00118151
0.00120518
0.00122358
0.00123724
0.00124594
0.00124981
0.00124898
0.00124389
0.00123522
0.00122404
0.00121174
0.00119994
0.00119016
0.00118332
0.00117948
0.001178
0.00104734
0.00104764
0.00104845
0.00105005
0.00105273
0.00105681
0.00106249
0.00106983
0.00107874
0.00108917
0.00110128
0.00111561
0.00113287
0.00115362
0.00117811
0.00120619
0.00123521
0.00126077
0.00128187
0.00130017
0.00131599
0.00132916
0.00133918
0.00134545
0.0013476
0.00134566
0.00134024
0.00133258
0.00132442
0.00131745
0.00131279
0.00131066
0.0010526
0.0010529
0.0010537
0.0010553
0.00105802
0.00106224
0.00106827
0.00107627
0.00108626
0.00109815
0.00111194
0.00112782
0.00114608
0.00116688
0.00118993
0.00121441
0.00123733
0.00125581
0.00127141
0.00128667
0.00130246
0.00131859
0.00133419
0.00134811
0.00135932
0.00136711
0.00137131
0.00137229
0.00137096
0.00136855
0.00136632
0.00136508
0.00105553
0.00105581
0.00105657
0.00105807
0.00106062
0.0010646
0.00107036
0.00107811
0.00108793
0.00109971
0.00111329
0.0011286
0.00114562
0.00116424
0.00118397
0.00120382
0.00122109
0.00123435
0.00124632
0.00125991
0.00127625
0.00129512
0.00131527
0.0013349
0.00135221
0.00136594
0.00137557
0.0013813
0.00138388
0.00138437
0.00138391
0.00138342
0.0010572
0.00105745
0.00105811
0.00105943
0.00106169
0.00106523
0.00107041
0.00107745
0.00108643
0.00109727
0.00110973
0.00112361
0.00113873
0.00115489
0.0011717
0.00118834
0.00120278
0.00121433
0.00122549
0.00123881
0.00125554
0.00127582
0.00129871
0.00132238
0.00134457
0.00136329
0.00137735
0.00138658
0.00139164
0.00139367
0.001394
0.0013938
0.0010588
0.00105896
0.00105943
0.00106044
0.00106227
0.00106525
0.00106969
0.00107583
0.00108375
0.00109338
0.00110451
0.00111691
0.00113038
0.00114476
0.0011598
0.0011751
0.00118921
0.00120153
0.00121369
0.0012276
0.00124449
0.00126485
0.00128829
0.00131348
0.00133832
0.0013605
0.0013782
0.00139063
0.00139803
0.00140149
0.00140247
0.00140243
0.00106194
0.00106191
0.001062
0.00106248
0.00106366
0.0010659
0.00106952
0.00107477
0.00108173
0.00109036
0.00110051
0.00111199
0.00112464
0.00113833
0.00115299
0.00116851
0.00118384
0.00119799
0.00121168
0.00122637
0.0012432
0.00126288
0.00128545
0.00131015
0.00133542
0.00135914
0.00137919
0.00139413
0.00140365
0.0014085
0.00141015
0.00141028
0.00106855
0.00106819
0.00106767
0.00106732
0.00106759
0.00106895
0.00107178
0.00107636
0.00108281
0.00109109
0.00110107
0.00111258
0.00112544
0.00113954
0.00115485
0.00117148
0.0011885
0.00120436
0.00121917
0.00123416
0.00125042
0.00126877
0.00128959
0.00131253
0.00133656
0.00136002
0.00138093
0.00139747
0.00140869
0.00141483
0.00141717
0.00141749
0.00108059
0.00107976
0.0010784
0.00107704
0.00107632
0.00107687
0.00107923
0.00108372
0.00109042
0.00109925
0.00111
0.00112242
0.00113625
0.00115135
0.00116765
0.00118537
0.00120353
0.00122023
0.00123526
0.00124978
0.00126481
0.00128123
0.0012996
0.00131993
0.00134162
0.0013635
0.0013839
0.00140097
0.00141331
0.00142055
0.00142357
0.0014241
0.00109962
0.00109822
0.00109599
0.00109376
0.00109243
0.00109278
0.00109542
0.00110065
0.00110844
0.00111854
0.00113058
0.0011442
0.00115906
0.00117493
0.00119174
0.00120973
0.00122789
0.00124422
0.00125848
0.00127174
0.00128497
0.00129903
0.00131451
0.00133166
0.00135027
0.0013696
0.00138839
0.00140496
0.00141769
0.0014257
0.00142935
0.00143012
0.00112664
0.00112466
0.00112189
0.00111954
0.00111862
0.00111986
0.00112377
0.00113048
0.00113974
0.00115113
0.00116418
0.00117845
0.00119356
0.00120929
0.00122555
0.00124258
0.00125944
0.00127427
0.0012869
0.00129832
0.0013094
0.00132087
0.00133331
0.00134706
0.00136217
0.00137829
0.0013946
0.00140973
0.00142207
0.0014304
0.00143453
0.00143556
0.00116223
0.00115987
0.00115739
0.00115626
0.00115716
0.00116041
0.00116619
0.0011744
0.00118465
0.00119649
0.00120949
0.00122321
0.00123735
0.00125171
0.00126622
0.00128109
0.00129555
0.00130805
0.00131849
0.00132773
0.0013365
0.00134538
0.00135487
0.0013653
0.00137685
0.00138943
0.00140264
0.00141554
0.00142671
0.00143479
0.00143916
0.00144041
0.00120693
0.00120474
0.00120396
0.00120548
0.00120913
0.00121461
0.00122184
0.00123059
0.00124057
0.00125149
0.00126302
0.00127485
0.00128677
0.00129863
0.00131041
0.00132227
0.00133362
0.00134331
0.0013513
0.00135826
0.00136474
0.00137119
0.00137797
0.00138538
0.00139359
0.00140268
0.00141251
0.00142257
0.00143185
0.00143905
0.00144331
0.0014447
0.00126182
0.0012609
0.00126314
0.00126763
0.00127333
0.0012798
0.00128695
0.00129467
0.0013029
0.00131151
0.00132033
0.00132921
0.001338
0.00134663
0.00135509
0.00136349
0.00137144
0.00137817
0.00138368
0.00138842
0.00139276
0.00139703
0.00140145
0.00140624
0.00141154
0.00141745
0.00142397
0.00143092
0.00143771
0.0014434
0.00144707
0.00144844
0.00132907
0.00133061
0.00133519
0.00134037
0.00134562
0.00135081
0.001356
0.0013612
0.00136648
0.00137184
0.00137723
0.00138258
0.00138782
0.00139292
0.00139788
0.00140277
0.00140736
0.00141122
0.00141436
0.00141705
0.00141949
0.00142186
0.00142429
0.00142689
0.00142976
0.00143297
0.00143654
0.00144044
0.00144444
0.00144804
0.00145059
0.00145169
0.00141141
0.00141266
0.00141505
0.00141733
0.00141945
0.00142143
0.00142331
0.00142513
0.00142693
0.00142872
0.0014305
0.00143226
0.00143398
0.00143564
0.00143724
0.00143882
0.00144029
0.00144153
0.00144254
0.0014434
0.00144417
0.00144491
0.00144567
0.00144649
0.00144737
0.00144836
0.00144946
0.00145068
0.00145196
0.00145316
0.00145408
0.00145453
)
;


// ************************************************************************* //
