/*--------------------------------*- C++ -*----------------------------------*\
| =========                 |                                                 |
| \\      /  F ield         | OpenFOAM: The Open Source CFD Toolbox           |
|  \\    /   O peration     | Version:  2212                                  |
|   \\  /    A nd           | Website:  www.openfoam.com                      |
|    \\/     M anipulation  |                                                 |
\*---------------------------------------------------------------------------*/
FoamFile
{
    version     2.0;
    format      ascii;
    arch        "LSB;label=64;scalar=64";
    class       volScalarField;
    location    "1080";
    object      Sch4;
}
// * * * * * * * * * * * * * * * * * * * * * * * * * * * * * * * * * * * * * //

dimensions      [1 -3 0 0 0 0 0];

internalField   nonuniform List<scalar> 
1024
(
0.0360948
0.0361014
0.0361175
0.0361465
0.0361917
0.0362554
0.036338
0.0364366
0.0365455
0.0366576
0.0367662
0.0368644
0.0369437
0.0369941
0.0370056
0.0369675
0.0368756
0.0367469
0.0365981
0.0364314
0.036246
0.0360443
0.0358345
0.0356293
0.0354422
0.0352835
0.0351579
0.0350651
0.0350015
0.0349615
0.0349394
0.0349304
0.036095
0.0361017
0.0361181
0.0361476
0.0361935
0.0362582
0.0363417
0.0364409
0.0365501
0.0366622
0.0367709
0.0368693
0.0369486
0.0369986
0.0370095
0.036971
0.0368789
0.0367506
0.0366026
0.0364369
0.0362528
0.0360522
0.0358429
0.0356375
0.0354496
0.0352896
0.0351626
0.0350687
0.0350042
0.0349636
0.0349413
0.0349322
0.0360953
0.0361022
0.0361191
0.0361495
0.0361967
0.0362629
0.0363477
0.0364479
0.0365578
0.0366706
0.0367804
0.0368805
0.0369607
0.03701
0.037019
0.0369785
0.0368854
0.0367575
0.036611
0.0364477
0.0362664
0.0360682
0.0358604
0.0356549
0.0354654
0.0353028
0.0351731
0.0350767
0.0350104
0.0349687
0.0349457
0.0349364
0.0360955
0.0361026
0.0361201
0.0361514
0.0361999
0.0362675
0.0363538
0.0364553
0.0365665
0.0366814
0.0367949
0.0368996
0.0369828
0.0370311
0.0370359
0.0369904
0.0368942
0.036766
0.0366216
0.0364619
0.0362851
0.0360913
0.0358862
0.0356811
0.0354896
0.0353235
0.0351898
0.0350898
0.0350207
0.0349772
0.0349533
0.0349436
0.0360949
0.0361022
0.03612
0.0361519
0.0362012
0.0362698
0.0363571
0.03646
0.0365737
0.0366934
0.0368147
0.0369288
0.037018
0.0370649
0.0370621
0.0370069
0.0369037
0.0367735
0.0366309
0.0364758
0.0363054
0.036118
0.0359176
0.0357141
0.0355209
0.0353509
0.0352122
0.0351077
0.0350352
0.0349894
0.0349643
0.0349541
0.0360927
0.0361
0.0361178
0.0361495
0.0361986
0.036267
0.0363547
0.0364591
0.0365772
0.0367056
0.0368405
0.0369702
0.0370693
0.0371143
0.0370988
0.0370268
0.0369108
0.0367753
0.0366335
0.0364836
0.036321
0.0361422
0.0359488
0.0357489
0.0355554
0.035382
0.0352386
0.0351294
0.0350531
0.0350048
0.0349784
0.0349677
0.0360883
0.0360954
0.0361124
0.036143
0.0361905
0.0362574
0.0363446
0.0364513
0.0365763
0.0367186
0.0368742
0.0370262
0.0371387
0.0371801
0.0371452
0.0370473
0.0369105
0.0367649
0.0366219
0.036477
0.0363233
0.0361552
0.0359713
0.0357778
0.0355865
0.0354117
0.0352649
0.0351518
0.0350723
0.0350218
0.0349942
0.034983
0.0360822
0.0360887
0.0361044
0.0361327
0.0361773
0.0362415
0.0363278
0.0364378
0.0365734
0.0367359
0.03692
0.0371004
0.0372279
0.0372614
0.0371978
0.0370625
0.0368952
0.0367337
0.0365866
0.0364459
0.0363018
0.0361458
0.0359741
0.0357902
0.0356047
0.0354321
0.0352849
0.0351703
0.0350891
0.0350374
0.035009
0.0349975
0.0360789
0.0360843
0.0360979
0.0361231
0.036164
0.036225
0.0363108
0.0364265
0.0365778
0.0367679
0.0369878
0.0371994
0.0373383
0.0373546
0.0372495
0.0370636
0.0368553
0.0366714
0.0365171
0.0363792
0.0362447
0.0361023
0.0359451
0.0357744
0.0355993
0.0354337
0.0352908
0.0351785
0.0350983
0.035047
0.0350186
0.035007
0.0360923
0.0360963
0.0361071
0.0361286
0.0361657
0.0362245
0.0363125
0.0364387
0.0366126
0.0368375
0.0370961
0.0373347
0.0374729
0.0374549
0.0372911
0.0370403
0.0367815
0.0365692
0.0364042
0.0362673
0.0361419
0.0360136
0.0358731
0.0357193
0.0355597
0.0354072
0.0352744
0.0351692
0.0350936
0.0350446
0.0350172
0.0350059
0.0361566
0.0361589
0.0361668
0.0361849
0.0362199
0.0362799
0.0363757
0.0365195
0.0367225
0.0369839
0.0372744
0.0375227
0.0376352
0.0375576
0.0373155
0.0369886
0.0366733
0.0364285
0.0362481
0.0361079
0.0359883
0.0358728
0.0357499
0.0356164
0.0354775
0.0353443
0.0352278
0.0351349
0.0350674
0.0350229
0.0349974
0.0349865
0.0363353
0.0363369
0.0363437
0.0363615
0.0363986
0.0364659
0.0365763
0.0367431
0.0369743
0.0372601
0.0375568
0.0377784
0.0378272
0.0376615
0.0373288
0.0369267
0.0365592
0.0362796
0.0360752
0.03592
0.0357952
0.0356847
0.035576
0.0354633
0.0353488
0.0352401
0.035145
0.0350685
0.035012
0.0349739
0.0349514
0.0349415
0.0367121
0.0367153
0.0367259
0.0367499
0.0367965
0.0368771
0.0370044
0.0371883
0.0374289
0.0377048
0.0379596
0.038103
0.0380491
0.0377834
0.0373766
0.036931
0.0365359
0.036224
0.0359785
0.0357807
0.0356204
0.0354885
0.0353754
0.0352736
0.0351801
0.0350962
0.0350248
0.0349679
0.0349263
0.0348987
0.0348828
0.0348761
0.0373353
0.0373427
0.0373616
0.0373975
0.0374578
0.0375513
0.0376858
0.0378643
0.0380779
0.0382955
0.0384567
0.0384844
0.0383263
0.0380055
0.0376041
0.0372018
0.0368429
0.036523
0.0362225
0.0359394
0.035683
0.0354636
0.0352854
0.0351473
0.0350445
0.0349713
0.0349233
0.0348965
0.0348863
0.0348869
0.034892
0.0348962
0.0381389
0.0381501
0.0381759
0.0382204
0.0382884
0.0383841
0.0385094
0.0386599
0.0388197
0.0389559
0.0390203
0.0389723
0.0388104
0.0385833
0.0383551
0.0381645
0.0379977
0.0377956
0.037523
0.0371871
0.0368136
0.0364434
0.0361027
0.03582
0.0356129
0.035487
0.0354355
0.0354415
0.0354816
0.0355324
0.0355754
0.0355992
0.0389447
0.0389565
0.0389836
0.0390301
0.0391002
0.0391967
0.0393184
0.0394569
0.039595
0.0397117
0.0397943
0.0398523
0.0399198
0.0400403
0.0402466
0.0405508
0.0408987
0.0411656
0.0412729
0.0412263
0.0410389
0.0407463
0.0403761
0.0399718
0.0395767
0.03923
0.038961
0.0387841
0.0386924
0.0386635
0.0386681
0.0386794
0.039563
0.0395749
0.0396048
0.0396601
0.0397491
0.0398783
0.0400495
0.0402577
0.0404932
0.040751
0.0410409
0.0413897
0.0418349
0.042412
0.0431457
0.0440502
0.0450479
0.0459516
0.0466535
0.0471748
0.047507
0.0476546
0.0476235
0.0474294
0.0470989
0.0466726
0.0462035
0.0457534
0.0453801
0.0451189
0.0449722
0.0449158
0.0399171
0.0399287
0.0399595
0.0400201
0.0401222
0.0402774
0.0404937
0.0407734
0.0411136
0.0415117
0.0419748
0.0425227
0.0431823
0.0439753
0.0449102
0.0459813
0.0470874
0.0480606
0.0488637
0.0495605
0.0501632
0.0506655
0.0510478
0.0512878
0.0513706
0.0512975
0.0510915
0.0508005
0.0504899
0.0502247
0.050047
0.0499661
0.0401179
0.0401292
0.0401599
0.0402205
0.0403242
0.040485
0.0407145
0.0410196
0.0414006
0.0418545
0.0423812
0.0429877
0.0436854
0.0444794
0.0453589
0.0462921
0.0471645
0.0478672
0.0484603
0.0490411
0.0496429
0.050258
0.050853
0.0513844
0.0518122
0.0521098
0.0522706
0.0523086
0.0522582
0.0521669
0.0520821
0.052035
0.0402297
0.0402406
0.0402696
0.0403264
0.0404236
0.0405753
0.0407946
0.0410904
0.0414649
0.0419144
0.0424331
0.0430177
0.0436677
0.0443784
0.0451312
0.0458872
0.0465444
0.0470482
0.0475032
0.0480204
0.0486431
0.0493628
0.0501316
0.0508805
0.0515412
0.0520649
0.0524323
0.0526512
0.0527498
0.0527686
0.0527511
0.0527325
0.0402938
0.0403033
0.0403287
0.0403787
0.0404647
0.0405999
0.040797
0.0410653
0.0414082
0.0418216
0.0422975
0.0428274
0.0434047
0.0440219
0.0446629
0.0452972
0.0458466
0.0462855
0.0467099
0.047217
0.0478543
0.0486276
0.0495007
0.0504035
0.0512499
0.0519637
0.0525002
0.0528524
0.0530453
0.0531229
0.0531357
0.0531279
0.0403555
0.0403615
0.0403794
0.0404177
0.0404874
0.0406008
0.04077
0.0410041
0.0413063
0.0416737
0.0420986
0.0425718
0.0430861
0.043635
0.0442091
0.044792
0.045329
0.0457979
0.0462604
0.0467905
0.0474342
0.0482102
0.0491039
0.0500645
0.0510118
0.0518575
0.0525328
0.0530067
0.0532892
0.053421
0.0534585
0.053457
0.0404755
0.0404742
0.0404778
0.0404957
0.0405406
0.040626
0.0407641
0.040964
0.0412294
0.0415587
0.0419461
0.0423843
0.0428668
0.0433895
0.0439485
0.0445402
0.0451243
0.0456632
0.0461843
0.0467441
0.0473856
0.0481356
0.0489961
0.0499381
0.0509015
0.051806
0.0525706
0.0531404
0.0535033
0.0536884
0.0537513
0.0537562
0.0407279
0.0407142
0.0406942
0.0406808
0.0406911
0.0407426
0.0408505
0.0410251
0.0412707
0.0415865
0.0419674
0.0424064
0.042897
0.043435
0.044019
0.044653
0.0453015
0.0459058
0.0464701
0.0470416
0.0476612
0.0483608
0.0491543
0.0500292
0.0509453
0.0518399
0.0526372
0.0532678
0.0536954
0.0539297
0.054019
0.0540311
0.0411871
0.0411555
0.0411038
0.0410518
0.0410241
0.0410451
0.0411349
0.0413058
0.0415611
0.0418977
0.0423077
0.0427811
0.0433088
0.0438844
0.0445063
0.0451819
0.0458743
0.0465107
0.0470838
0.0476371
0.0482101
0.0488361
0.0495363
0.0503113
0.0511385
0.0519726
0.0527503
0.0534013
0.0538715
0.0541475
0.0542627
0.0542831
0.041913
0.0418595
0.0417746
0.0416897
0.0416387
0.0416518
0.0417522
0.0419516
0.0422485
0.0426332
0.0430924
0.0436115
0.0441778
0.044783
0.0454242
0.0461099
0.0468026
0.0474252
0.0479687
0.0484742
0.0489789
0.0495147
0.0501049
0.0507588
0.0514683
0.0522054
0.0529216
0.0535533
0.0540387
0.0543441
0.0544831
0.0545125
0.0429436
0.042868
0.0427621
0.0426725
0.0426373
0.0426845
0.0428334
0.043089
0.0434418
0.0438758
0.0443732
0.044917
0.0454932
0.0460928
0.046713
0.0473623
0.0480051
0.0485708
0.0490524
0.0494877
0.0499101
0.0503474
0.0508217
0.0513461
0.0519221
0.0525367
0.0531583
0.0537352
0.0542058
0.0545234
0.0546808
0.0547198
0.0443004
0.0442103
0.0441158
0.0440726
0.0441071
0.0442307
0.044451
0.0447636
0.0451541
0.0456055
0.0461006
0.0466238
0.0471627
0.0477099
0.0482633
0.0488306
0.0493817
0.0498584
0.0502567
0.0506091
0.0509433
0.0512819
0.0516436
0.0520415
0.0524816
0.0529615
0.0534651
0.0539566
0.0543825
0.0546907
0.0548573
0.0549049
0.0460043
0.045921
0.045891
0.0459493
0.0460884
0.0462972
0.0465725
0.0469059
0.0472864
0.0477024
0.0481416
0.0485927
0.0490469
0.0494991
0.0499482
0.0504005
0.0508333
0.0512028
0.0515075
0.0517729
0.05202
0.0522658
0.0525245
0.0528069
0.05312
0.0534665
0.0538412
0.0542248
0.0545783
0.0548531
0.0550152
0.0550684
0.0480969
0.0480617
0.0481474
0.0483185
0.0485357
0.0487822
0.0490546
0.0493491
0.0496626
0.0499905
0.0503268
0.0506651
0.0510002
0.0513291
0.0516515
0.0519721
0.0522753
0.0525319
0.0527418
0.0529225
0.0530884
0.0532509
0.0534196
0.0536023
0.0538043
0.0540294
0.0542781
0.0545429
0.0548018
0.0550186
0.0551586
0.0552111
0.0506606
0.0507191
0.0508938
0.0510914
0.0512914
0.0514894
0.0516869
0.0518852
0.0520865
0.0522907
0.052496
0.0526998
0.0528997
0.0530941
0.0532832
0.0534695
0.0536445
0.0537919
0.0539118
0.0540142
0.0541073
0.0541975
0.0542901
0.0543895
0.054499
0.054621
0.0547572
0.0549059
0.0550584
0.0551956
0.0552931
0.0553348
0.0537993
0.0538468
0.0539381
0.0540251
0.0541058
0.0541814
0.054253
0.0543224
0.0543908
0.0544591
0.0545271
0.0545941
0.0546594
0.0547227
0.0547839
0.054844
0.0549003
0.0549476
0.0549859
0.0550186
0.0550481
0.0550765
0.0551055
0.0551364
0.0551703
0.0552079
0.05525
0.0552963
0.055345
0.0553908
0.055426
0.0554432
)
;

boundaryField
{
    movingWall
    {
        type            fixedValue;
        value           uniform 0.0555;
    }
    fixedWalls
    {
        type            zeroGradient;
    }
    floor
    {
        type            zeroGradient;
    }
    frontAndBack
    {
        type            empty;
    }
}


// ************************************************************************* //
