/*--------------------------------*- C++ -*----------------------------------*\
| =========                 |                                                 |
| \\      /  F ield         | OpenFOAM: The Open Source CFD Toolbox           |
|  \\    /   O peration     | Version:  2212                                  |
|   \\  /    A nd           | Website:  www.openfoam.com                      |
|    \\/     M anipulation  |                                                 |
\*---------------------------------------------------------------------------*/
FoamFile
{
    version     2.0;
    format      ascii;
    arch        "LSB;label=64;scalar=64";
    class       volScalarField;
    location    "1080";
    object      SIC;
}
// * * * * * * * * * * * * * * * * * * * * * * * * * * * * * * * * * * * * * //

dimensions      [1 -3 0 0 0 0 0];

internalField   nonuniform List<scalar> 
1024
(
0.0914461
0.0914473
0.0914503
0.0914557
0.0914642
0.0914762
0.0914918
0.0915103
0.0915309
0.091552
0.0915724
0.0915909
0.0916058
0.0916153
0.0916175
0.0916103
0.091593
0.0915688
0.0915408
0.0915094
0.0914745
0.0914365
0.091397
0.0913583
0.0913231
0.0912932
0.0912696
0.0912521
0.0912401
0.0912326
0.0912284
0.0912267
0.0914461
0.0914473
0.0914504
0.0914559
0.0914646
0.0914767
0.0914925
0.0915111
0.0915317
0.0915528
0.0915733
0.0915918
0.0916068
0.0916162
0.0916182
0.091611
0.0915936
0.0915695
0.0915416
0.0915104
0.0914757
0.091438
0.0913986
0.0913599
0.0913245
0.0912944
0.0912705
0.0912528
0.0912406
0.091233
0.0912288
0.0912271
0.0914461
0.0914474
0.0914505
0.0914563
0.0914651
0.0914776
0.0914936
0.0915125
0.0915332
0.0915544
0.0915751
0.0915939
0.091609
0.0916183
0.09162
0.0916124
0.0915949
0.0915708
0.0915432
0.0915124
0.0914783
0.091441
0.0914018
0.0913632
0.0913275
0.0912969
0.0912724
0.0912543
0.0912418
0.0912339
0.0912296
0.0912279
0.0914461
0.0914474
0.0914507
0.0914566
0.0914657
0.0914785
0.0914947
0.0915139
0.0915348
0.0915564
0.0915778
0.0915975
0.0916132
0.0916223
0.0916232
0.0916146
0.0915965
0.0915724
0.0915452
0.0915151
0.0914818
0.0914453
0.0914067
0.0913681
0.091332
0.0913008
0.0912756
0.0912567
0.0912437
0.0912355
0.0912311
0.0912292
0.091446
0.0914473
0.0914507
0.0914567
0.091466
0.0914789
0.0914954
0.0915147
0.0915362
0.0915587
0.0915815
0.091603
0.0916198
0.0916287
0.0916281
0.0916177
0.0915983
0.0915738
0.0915469
0.0915177
0.0914856
0.0914504
0.0914126
0.0913743
0.0913379
0.0913059
0.0912798
0.0912601
0.0912465
0.0912378
0.0912331
0.0912312
0.0914456
0.0914469
0.0914503
0.0914563
0.0914655
0.0914784
0.0914949
0.0915146
0.0915368
0.091561
0.0915864
0.0916108
0.0916295
0.091638
0.091635
0.0916215
0.0915996
0.0915741
0.0915474
0.0915192
0.0914886
0.0914549
0.0914185
0.0913809
0.0913444
0.0913118
0.0912848
0.0912642
0.0912498
0.0912408
0.0912358
0.0912338
0.0914447
0.0914461
0.0914493
0.091455
0.091464
0.0914766
0.091493
0.0915131
0.0915367
0.0915634
0.0915928
0.0916214
0.0916426
0.0916504
0.0916438
0.0916253
0.0915996
0.0915722
0.0915452
0.091518
0.091489
0.0914574
0.0914227
0.0913863
0.0913503
0.0913174
0.0912897
0.0912684
0.0912534
0.0912439
0.0912387
0.0912366
0.0914436
0.0914448
0.0914478
0.0914531
0.0914615
0.0914736
0.0914898
0.0915106
0.0915361
0.0915667
0.0916014
0.0916354
0.0916593
0.0916657
0.0916537
0.0916282
0.0915967
0.0915663
0.0915386
0.0915121
0.091485
0.0914556
0.0914233
0.0913886
0.0913537
0.0913212
0.0912935
0.0912719
0.0912566
0.0912469
0.0912415
0.0912394
0.091443
0.091444
0.0914466
0.0914513
0.091459
0.0914705
0.0914866
0.0915084
0.0915369
0.0915727
0.0916141
0.091654
0.0916801
0.0916832
0.0916634
0.0916284
0.0915892
0.0915546
0.0915255
0.0914995
0.0914742
0.0914474
0.0914178
0.0913857
0.0913527
0.0913215
0.0912946
0.0912735
0.0912584
0.0912487
0.0912433
0.0912412
0.0914455
0.0914463
0.0914483
0.0914523
0.0914593
0.0914704
0.091487
0.0915107
0.0915435
0.0915858
0.0916345
0.0916795
0.0917055
0.0917021
0.0916713
0.091624
0.0915753
0.0915353
0.0915043
0.0914785
0.0914549
0.0914307
0.0914042
0.0913753
0.0913452
0.0913165
0.0912915
0.0912717
0.0912575
0.0912482
0.0912431
0.0912409
0.0914576
0.0914581
0.0914595
0.091463
0.0914695
0.0914808
0.0914989
0.091526
0.0915642
0.0916134
0.0916681
0.0917149
0.0917361
0.0917214
0.0916758
0.0916143
0.0915549
0.0915088
0.0914749
0.0914484
0.0914259
0.0914042
0.0913811
0.0913559
0.0913298
0.0913047
0.0912827
0.0912652
0.0912525
0.0912442
0.0912394
0.0912373
0.0914913
0.0914916
0.0914929
0.0914962
0.0915032
0.0915159
0.0915367
0.0915681
0.0916116
0.0916654
0.0917213
0.091763
0.0917722
0.091741
0.0916783
0.0916026
0.0915334
0.0914808
0.0914423
0.0914131
0.0913896
0.0913688
0.0913483
0.0913271
0.0913055
0.091285
0.0912671
0.0912527
0.0912421
0.0912349
0.0912307
0.0912288
0.0915622
0.0915628
0.0915648
0.0915693
0.0915781
0.0915933
0.0916173
0.0916519
0.0916972
0.0917492
0.0917971
0.0918241
0.091814
0.091764
0.0916873
0.0916034
0.091529
0.0914703
0.0914241
0.0913868
0.0913567
0.0913318
0.0913105
0.0912914
0.0912738
0.091258
0.0912445
0.0912338
0.091226
0.0912208
0.0912178
0.0912165
0.0916796
0.091681
0.0916845
0.0916913
0.0917026
0.0917202
0.0917456
0.0917792
0.0918194
0.0918604
0.0918907
0.0918959
0.0918662
0.0918058
0.0917302
0.0916544
0.0915869
0.0915266
0.09147
0.0914167
0.0913684
0.0913271
0.0912936
0.0912676
0.0912482
0.0912344
0.0912254
0.0912204
0.0912184
0.0912185
0.0912195
0.0912203
0.0918309
0.091833
0.0918379
0.0918463
0.091859
0.0918771
0.0919007
0.091929
0.0919591
0.0919847
0.0919969
0.0919878
0.0919573
0.0919146
0.0918716
0.0918357
0.0918043
0.0917663
0.0917149
0.0916517
0.0915813
0.0915116
0.0914475
0.0913942
0.0913553
0.0913315
0.0913218
0.091323
0.0913305
0.0913401
0.0913482
0.0913527
0.0919826
0.0919848
0.0919899
0.0919987
0.0920119
0.0920301
0.092053
0.0920791
0.0921051
0.092127
0.0921426
0.0921535
0.0921662
0.0921889
0.0922278
0.0922851
0.0923506
0.0924008
0.092421
0.0924122
0.092377
0.0923219
0.0922522
0.092176
0.0921016
0.0920363
0.0919857
0.0919524
0.0919351
0.0919297
0.0919305
0.0919327
0.0920991
0.0921013
0.0921069
0.0921173
0.0921341
0.0921584
0.0921907
0.0922299
0.0922742
0.0923228
0.0923773
0.092443
0.0925269
0.0926355
0.0927737
0.092944
0.0931319
0.093302
0.0934342
0.0935324
0.0935949
0.0936227
0.0936169
0.0935803
0.0935181
0.0934378
0.0933495
0.0932647
0.0931944
0.0931452
0.0931176
0.093107
0.0921657
0.0921679
0.0921737
0.0921851
0.0922043
0.0922336
0.0922743
0.092327
0.092391
0.092466
0.0925532
0.0926564
0.0927806
0.0929299
0.0931059
0.0933076
0.0935159
0.0936992
0.0938504
0.0939816
0.0940951
0.0941897
0.0942616
0.0943068
0.0943224
0.0943087
0.0942699
0.0942151
0.0941566
0.0941067
0.0940732
0.094058
0.0922035
0.0922057
0.0922114
0.0922229
0.0922424
0.0922727
0.0923159
0.0923733
0.0924451
0.0925305
0.0926297
0.0927439
0.0928753
0.0930248
0.0931904
0.0933662
0.0935304
0.0936627
0.0937744
0.0938838
0.0939971
0.0941129
0.094225
0.094325
0.0944056
0.0944616
0.0944919
0.0944991
0.0944896
0.0944724
0.0944564
0.0944475
0.0922246
0.0922267
0.0922321
0.0922428
0.0922611
0.0922897
0.092331
0.0923867
0.0924572
0.0925418
0.0926395
0.0927496
0.092872
0.0930058
0.0931476
0.0932899
0.0934137
0.0935085
0.0935942
0.0936916
0.0938089
0.0939444
0.0940891
0.0942302
0.0943546
0.0944532
0.0945224
0.0945636
0.0945821
0.0945857
0.0945824
0.0945789
0.0922367
0.0922385
0.0922432
0.0922526
0.0922688
0.0922943
0.0923314
0.0923819
0.0924465
0.0925244
0.092614
0.0927137
0.0928225
0.0929387
0.0930594
0.0931788
0.0932823
0.0933649
0.0934448
0.0935403
0.0936603
0.0938059
0.0939703
0.0941403
0.0942997
0.0944341
0.0945351
0.0946015
0.0946378
0.0946524
0.0946548
0.0946533
0.0922483
0.0922494
0.0922528
0.09226
0.0922731
0.0922945
0.0923263
0.0923704
0.0924273
0.0924965
0.0925765
0.0926656
0.0927625
0.0928658
0.0929739
0.0930837
0.0931848
0.0932731
0.0933602
0.09346
0.0935812
0.0937273
0.0938956
0.0940765
0.0942549
0.0944141
0.0945413
0.0946305
0.0946837
0.0947085
0.0947156
0.0947153
0.0922709
0.0922706
0.0922713
0.0922747
0.0922831
0.0922992
0.0923252
0.0923629
0.0924128
0.0924748
0.0925478
0.0926303
0.0927212
0.0928196
0.0929249
0.0930363
0.0931463
0.0932477
0.0933458
0.0934513
0.0935721
0.0937133
0.0938753
0.0940527
0.0942341
0.0944044
0.0945484
0.0946557
0.094724
0.0947589
0.0947707
0.0947717
0.0923184
0.0923158
0.092312
0.0923095
0.0923115
0.0923212
0.0923415
0.0923744
0.0924206
0.0924801
0.0925518
0.0926345
0.0927269
0.0928282
0.0929381
0.0930575
0.0931796
0.0932934
0.0933997
0.0935073
0.093624
0.0937557
0.0939051
0.0940699
0.0942424
0.0944108
0.0945609
0.0946797
0.0947602
0.0948043
0.0948211
0.0948234
0.0924049
0.0923989
0.0923892
0.0923794
0.0923742
0.0923781
0.0923951
0.0924272
0.0924753
0.0925387
0.0926159
0.092705
0.0928044
0.0929128
0.0930299
0.0931571
0.0932875
0.0934073
0.0935152
0.0936194
0.0937273
0.0938452
0.093977
0.094123
0.0942787
0.0944358
0.0945822
0.0947048
0.0947933
0.0948453
0.094867
0.0948709
0.0925416
0.0925315
0.0925155
0.0924995
0.0924899
0.0924924
0.0925113
0.0925488
0.0926047
0.0926772
0.0927636
0.0928614
0.092968
0.093082
0.0932027
0.0933318
0.0934623
0.0935795
0.0936819
0.093777
0.0938721
0.093973
0.0940841
0.0942072
0.0943408
0.0944796
0.0946145
0.0947334
0.0948248
0.0948824
0.0949085
0.0949141
0.0927356
0.0927214
0.0927014
0.0926846
0.092678
0.0926868
0.0927149
0.092763
0.0928294
0.0929112
0.0930048
0.0931072
0.0932157
0.0933286
0.0934454
0.0935677
0.0936887
0.0937952
0.0938859
0.0939679
0.0940474
0.0941298
0.0942191
0.0943178
0.0944263
0.094542
0.0946591
0.0947677
0.0948563
0.0949161
0.0949457
0.0949531
0.0929911
0.0929741
0.0929564
0.0929482
0.0929547
0.092978
0.0930195
0.0930783
0.0931518
0.0932369
0.0933301
0.0934286
0.0935301
0.0936331
0.0937373
0.0938441
0.0939479
0.0940377
0.0941127
0.094179
0.094242
0.0943057
0.0943738
0.0944488
0.0945316
0.094622
0.0947168
0.0948094
0.0948896
0.0949476
0.094979
0.094988
0.0933119
0.0932963
0.0932906
0.0933016
0.0933278
0.0933671
0.0934189
0.0934817
0.0935534
0.0936317
0.0937144
0.0937994
0.0938849
0.09397
0.0940546
0.0941398
0.0942213
0.0942908
0.0943482
0.0943982
0.0944447
0.094491
0.0945397
0.0945929
0.0946519
0.0947171
0.0947877
0.0948599
0.0949264
0.0949782
0.0950087
0.0950187
0.093706
0.0936994
0.0937155
0.0937477
0.0937886
0.093835
0.0938863
0.0939418
0.0940008
0.0940626
0.0941259
0.0941896
0.0942527
0.0943146
0.0943753
0.0944357
0.0944928
0.0945411
0.0945806
0.0946147
0.0946459
0.0946765
0.0947083
0.0947427
0.0947807
0.0948231
0.0948699
0.0949198
0.0949685
0.0950094
0.0950357
0.0950456
0.0941887
0.0941997
0.0942327
0.0942699
0.0943075
0.0943448
0.094382
0.0944193
0.0944572
0.0944957
0.0945343
0.0945727
0.0946104
0.094647
0.0946826
0.0947177
0.0947506
0.0947784
0.0948009
0.0948202
0.0948378
0.0948547
0.0948722
0.0948909
0.0949115
0.0949345
0.0949601
0.0949881
0.0950169
0.0950427
0.095061
0.0950689
0.0947798
0.0947887
0.0948059
0.0948223
0.0948375
0.0948517
0.0948652
0.0948782
0.0948911
0.094904
0.0949168
0.0949294
0.0949417
0.0949536
0.0949652
0.0949765
0.0949871
0.094996
0.0950032
0.0950093
0.0950149
0.0950203
0.0950257
0.0950315
0.0950379
0.095045
0.0950529
0.0950617
0.0950708
0.0950794
0.0950861
0.0950893
)
;

boundaryField
{
    movingWall
    {
        type            fixedValue;
        value           uniform 0.0951;
    }
    fixedWalls
    {
        type            zeroGradient;
    }
    floor
    {
        type            zeroGradient;
    }
    frontAndBack
    {
        type            empty;
    }
}


// ************************************************************************* //
