/*--------------------------------*- C++ -*----------------------------------*\
| =========                 |                                                 |
| \\      /  F ield         | OpenFOAM: The Open Source CFD Toolbox           |
|  \\    /   O peration     | Version:  2212                                  |
|   \\  /    A nd           | Website:  www.openfoam.com                      |
|    \\/     M anipulation  |                                                 |
\*---------------------------------------------------------------------------*/
FoamFile
{
    version     2.0;
    format      ascii;
    arch        "LSB;label=64;scalar=64";
    class       volScalarField;
    location    "1080";
    object      T;
}
// * * * * * * * * * * * * * * * * * * * * * * * * * * * * * * * * * * * * * //

dimensions      [0 0 0 1 0 0 0];

internalField   nonuniform List<scalar> 
1024
(
309.995
309.995
309.995
309.994
309.993
309.992
309.991
309.99
309.988
309.987
309.985
309.984
309.984
309.985
309.987
309.988
309.99
309.991
309.991
309.992
309.993
309.993
309.994
309.994
309.995
309.995
309.996
309.996
309.996
309.997
309.997
309.997
309.985
309.985
309.984
309.982
309.979
309.976
309.972
309.968
309.963
309.958
309.953
309.949
309.949
309.953
309.958
309.963
309.967
309.97
309.973
309.975
309.977
309.979
309.981
309.982
309.984
309.985
309.987
309.988
309.989
309.989
309.99
309.99
309.974
309.973
309.972
309.969
309.964
309.958
309.951
309.944
309.936
309.927
309.919
309.913
309.913
309.919
309.926
309.935
309.942
309.948
309.952
309.956
309.959
309.962
309.965
309.968
309.971
309.974
309.976
309.979
309.98
309.981
309.982
309.982
309.962
309.961
309.959
309.955
309.948
309.939
309.929
309.919
309.908
309.897
309.887
309.879
309.879
309.885
309.894
309.905
309.915
309.923
309.929
309.935
309.94
309.944
309.948
309.953
309.957
309.961
309.965
309.968
309.971
309.972
309.973
309.973
309.951
309.95
309.947
309.941
309.932
309.921
309.908
309.895
309.882
309.87
309.86
309.852
309.851
309.856
309.864
309.875
309.887
309.896
309.904
309.912
309.918
309.924
309.93
309.935
309.941
309.947
309.952
309.957
309.961
309.963
309.964
309.964
309.939
309.938
309.935
309.928
309.918
309.905
309.891
309.876
309.863
309.852
309.842
309.835
309.833
309.835
309.841
309.85
309.861
309.871
309.88
309.888
309.896
309.903
309.91
309.917
309.924
309.932
309.939
309.945
309.95
309.953
309.954
309.954
309.929
309.928
309.925
309.918
309.907
309.893
309.878
309.864
309.851
309.842
309.833
309.826
309.823
309.823
309.826
309.831
309.839
309.848
309.857
309.866
309.874
309.882
309.89
309.899
309.907
309.916
309.925
309.933
309.938
309.942
309.944
309.944
309.919
309.919
309.916
309.91
309.9
309.887
309.872
309.859
309.847
309.838
309.83
309.823
309.819
309.817
309.818
309.82
309.825
309.831
309.839
309.846
309.855
309.863
309.872
309.881
309.891
309.901
309.911
309.92
309.928
309.932
309.934
309.935
309.911
309.91
309.909
309.904
309.896
309.884
309.871
309.859
309.849
309.839
309.83
309.823
309.818
309.816
309.815
309.815
309.817
309.82
309.825
309.832
309.839
309.847
309.856
309.866
309.876
309.888
309.899
309.909
309.918
309.923
309.925
309.925
309.902
309.902
309.901
309.898
309.892
309.883
309.873
309.862
309.852
309.841
309.831
309.822
309.818
309.816
309.815
309.814
309.814
309.815
309.817
309.822
309.828
309.835
309.844
309.853
309.865
309.877
309.889
309.9
309.909
309.914
309.916
309.917
309.893
309.893
309.893
309.891
309.887
309.881
309.873
309.864
309.853
309.84
309.829
309.821
309.817
309.816
309.816
309.815
309.814
309.813
309.814
309.816
309.821
309.827
309.835
309.845
309.857
309.87
309.882
309.894
309.902
309.907
309.909
309.909
309.882
309.882
309.882
309.881
309.879
309.874
309.868
309.858
309.847
309.835
309.825
309.819
309.817
309.817
309.818
309.817
309.815
309.814
309.813
309.815
309.818
309.824
309.832
309.842
309.854
309.867
309.879
309.89
309.897
309.901
309.902
309.902
309.867
309.867
309.867
309.866
309.864
309.86
309.853
309.843
309.834
309.825
309.819
309.816
309.817
309.819
309.82
309.819
309.818
309.816
309.816
309.817
309.821
309.827
309.835
309.845
309.856
309.868
309.879
309.887
309.892
309.895
309.896
309.896
309.844
309.844
309.843
309.841
309.838
309.834
309.829
309.823
309.819
309.815
309.814
309.815
309.818
309.821
309.822
309.822
309.822
309.823
309.824
309.827
309.831
309.837
309.844
309.853
309.862
309.871
309.879
309.885
309.888
309.89
309.89
309.89
309.818
309.818
309.817
309.815
309.814
309.812
309.81
309.809
309.809
309.81
309.813
309.816
309.82
309.822
309.824
309.826
309.828
309.831
309.834
309.838
309.842
309.848
309.853
309.86
309.866
309.872
309.877
309.881
309.882
309.883
309.883
309.883
309.801
309.801
309.801
309.801
309.801
309.801
309.802
309.804
309.807
309.809
309.811
309.812
309.813
309.813
309.813
309.813
309.812
309.812
309.811
309.812
309.815
309.82
309.827
309.835
309.843
309.851
309.858
309.862
309.864
309.864
309.864
309.863
309.789
309.789
309.789
309.789
309.789
309.789
309.789
309.79
309.79
309.79
309.789
309.788
309.785
309.782
309.777
309.772
309.767
309.762
309.76
309.759
309.759
309.76
309.761
309.763
309.766
309.771
309.776
309.784
309.792
309.798
309.802
309.803
309.785
309.785
309.785
309.785
309.784
309.784
309.783
309.782
309.781
309.779
309.777
309.773
309.769
309.764
309.759
309.753
309.748
309.744
309.743
309.743
309.744
309.745
309.746
309.747
309.748
309.75
309.751
309.752
309.753
309.755
309.756
309.757
309.782
309.782
309.782
309.782
309.782
309.781
309.78
309.778
309.776
309.774
309.77
309.766
309.762
309.756
309.751
309.745
309.741
309.738
309.737
309.738
309.739
309.741
309.743
309.745
309.746
309.747
309.748
309.749
309.749
309.749
309.749
309.749
309.781
309.781
309.781
309.781
309.78
309.779
309.778
309.776
309.774
309.771
309.767
309.763
309.758
309.753
309.748
309.743
309.738
309.736
309.735
309.735
309.737
309.739
309.741
309.743
309.746
309.748
309.749
309.75
309.75
309.75
309.749
309.749
309.779
309.779
309.779
309.779
309.779
309.778
309.777
309.775
309.772
309.769
309.766
309.762
309.757
309.753
309.748
309.743
309.739
309.736
309.735
309.734
309.735
309.737
309.74
309.742
309.745
309.748
309.749
309.75
309.751
309.751
309.751
309.75
309.778
309.778
309.778
309.778
309.778
309.777
309.776
309.774
309.772
309.769
309.765
309.761
309.757
309.753
309.749
309.744
309.741
309.738
309.737
309.736
309.736
309.737
309.739
309.742
309.745
309.747
309.75
309.751
309.752
309.752
309.752
309.751
309.777
309.777
309.777
309.777
309.777
309.776
309.775
309.773
309.771
309.768
309.765
309.762
309.758
309.754
309.75
309.746
309.743
309.741
309.739
309.739
309.738
309.739
309.74
309.742
309.745
309.748
309.75
309.751
309.752
309.753
309.753
309.752
309.776
309.776
309.776
309.776
309.776
309.776
309.775
309.773
309.771
309.768
309.765
309.762
309.759
309.755
309.752
309.749
309.746
309.744
309.742
309.741
309.741
309.741
309.742
309.744
309.746
309.748
309.75
309.752
309.753
309.753
309.753
309.753
309.775
309.775
309.775
309.776
309.775
309.775
309.774
309.773
309.771
309.768
309.766
309.763
309.76
309.757
309.754
309.751
309.748
309.747
309.745
309.744
309.744
309.744
309.744
309.746
309.747
309.749
309.751
309.752
309.753
309.754
309.754
309.754
309.774
309.774
309.775
309.775
309.775
309.774
309.773
309.772
309.77
309.768
309.766
309.764
309.761
309.758
309.756
309.753
309.751
309.749
309.748
309.747
309.747
309.747
309.747
309.748
309.749
309.75
309.751
309.753
309.754
309.754
309.754
309.754
309.774
309.774
309.774
309.774
309.774
309.774
309.773
309.772
309.77
309.768
309.766
309.764
309.762
309.76
309.758
309.756
309.754
309.752
309.751
309.751
309.75
309.75
309.75
309.75
309.751
309.752
309.752
309.753
309.754
309.755
309.755
309.755
309.773
309.773
309.774
309.774
309.774
309.773
309.772
309.771
309.77
309.769
309.767
309.765
309.764
309.762
309.76
309.758
309.757
309.755
309.754
309.754
309.753
309.753
309.753
309.753
309.753
309.753
309.754
309.754
309.755
309.755
309.755
309.755
309.773
309.773
309.773
309.773
309.773
309.773
309.772
309.771
309.77
309.769
309.768
309.767
309.765
309.764
309.762
309.761
309.759
309.758
309.757
309.756
309.756
309.755
309.755
309.755
309.755
309.755
309.755
309.755
309.755
309.755
309.755
309.755
309.773
309.773
309.773
309.773
309.773
309.772
309.772
309.771
309.771
309.77
309.769
309.768
309.767
309.766
309.764
309.763
309.761
309.76
309.759
309.759
309.758
309.757
309.757
309.756
309.756
309.756
309.756
309.756
309.756
309.756
309.756
309.756
309.773
309.773
309.773
309.773
309.772
309.772
309.772
309.772
309.771
309.771
309.77
309.769
309.768
309.767
309.766
309.764
309.763
309.762
309.761
309.76
309.759
309.759
309.758
309.758
309.757
309.757
309.757
309.756
309.756
309.756
309.756
309.756
309.772
309.772
309.772
309.772
309.772
309.772
309.772
309.772
309.771
309.771
309.77
309.77
309.769
309.768
309.767
309.765
309.764
309.763
309.762
309.761
309.76
309.759
309.759
309.758
309.758
309.757
309.757
309.757
309.757
309.756
309.756
309.756
)
;

boundaryField
{
    movingWall
    {
        type            zeroGradient;
    }
    fixedWalls
    {
        type            zeroGradient;
    }
    floor
    {
        type            fixedValue;
        value           uniform 310;
    }
    frontAndBack
    {
        type            empty;
    }
}


// ************************************************************************* //
