/*--------------------------------*- C++ -*----------------------------------*\
| =========                 |                                                 |
| \\      /  F ield         | OpenFOAM: The Open Source CFD Toolbox           |
|  \\    /   O peration     | Version:  2212                                  |
|   \\  /    A nd           | Website:  www.openfoam.com                      |
|    \\/     M anipulation  |                                                 |
\*---------------------------------------------------------------------------*/
FoamFile
{
    version     2.0;
    format      ascii;
    arch        "LSB;label=64;scalar=64";
    class       volScalarField;
    location    "1080";
    object      Xpr;
}
// * * * * * * * * * * * * * * * * * * * * * * * * * * * * * * * * * * * * * //

dimensions      [1 -3 0 0 0 0 0];

internalField   nonuniform List<scalar> 
1024
(
0.0818374
0.0818382
0.0818403
0.0818443
0.0818504
0.0818591
0.0818703
0.0818836
0.0818983
0.0819132
0.0819276
0.0819405
0.0819507
0.0819569
0.0819579
0.0819523
0.0819395
0.0819217
0.0819011
0.0818778
0.0818517
0.0818229
0.0817927
0.0817631
0.0817359
0.0817127
0.0816944
0.0816808
0.0816715
0.0816656
0.0816624
0.0816611
0.0818373
0.0818382
0.0818404
0.0818444
0.0818507
0.0818595
0.0818708
0.0818842
0.0818989
0.0819138
0.0819282
0.0819411
0.0819512
0.0819574
0.0819584
0.0819527
0.0819399
0.0819222
0.0819017
0.0818786
0.0818526
0.081824
0.0817939
0.0817642
0.0817369
0.0817136
0.0816951
0.0816813
0.0816719
0.081666
0.0816627
0.0816614
0.0818373
0.0818382
0.0818405
0.0818447
0.0818511
0.0818601
0.0818716
0.0818851
0.0818999
0.0819149
0.0819294
0.0819424
0.0819527
0.0819588
0.0819594
0.0819535
0.0819406
0.0819229
0.0819027
0.08188
0.0818544
0.0818262
0.0817964
0.0817667
0.0817392
0.0817155
0.0816966
0.0816825
0.0816728
0.0816667
0.0816633
0.081662
0.0818373
0.0818382
0.0818406
0.0818449
0.0818515
0.0818607
0.0818724
0.081886
0.0819009
0.0819162
0.0819312
0.0819447
0.0819553
0.0819612
0.0819613
0.0819547
0.0819414
0.0819238
0.0819039
0.0818817
0.0818569
0.0818294
0.0818
0.0817704
0.0817427
0.0817185
0.081699
0.0816844
0.0816743
0.0816679
0.0816644
0.081663
0.0818372
0.0818382
0.0818406
0.0818449
0.0818516
0.0818609
0.0818727
0.0818866
0.0819018
0.0819177
0.0819336
0.0819483
0.0819596
0.0819652
0.0819641
0.0819562
0.081942
0.0819242
0.0819047
0.0818833
0.0818595
0.081833
0.0818044
0.0817751
0.0817471
0.0817224
0.0817022
0.081687
0.0816764
0.0816697
0.081666
0.0816645
0.0818368
0.0818378
0.0818402
0.0818446
0.0818512
0.0818605
0.0818723
0.0818864
0.0819021
0.0819191
0.0819367
0.0819533
0.0819657
0.0819709
0.081968
0.0819578
0.081942
0.0819236
0.0819044
0.0818838
0.0818613
0.0818361
0.0818086
0.0817799
0.081752
0.0817269
0.081706
0.0816901
0.081679
0.0816719
0.081668
0.0816665
0.0818362
0.0818371
0.0818395
0.0818436
0.0818501
0.0818591
0.0818709
0.0818851
0.0819018
0.0819205
0.0819408
0.0819602
0.0819741
0.0819784
0.0819728
0.0819591
0.0819405
0.0819209
0.0819017
0.0818821
0.081861
0.0818375
0.0818115
0.0817839
0.0817563
0.0817311
0.0817097
0.0816933
0.0816817
0.0816743
0.0816703
0.0816687
0.0818353
0.0818362
0.0818383
0.0818421
0.0818482
0.0818569
0.0818684
0.0818832
0.0819012
0.0819225
0.0819464
0.0819694
0.0819848
0.0819877
0.0819778
0.081959
0.0819364
0.0819149
0.0818954
0.0818766
0.081857
0.0818355
0.0818114
0.0817853
0.0817587
0.0817338
0.0817125
0.0816959
0.0816841
0.0816765
0.0816724
0.0816707
0.0818348
0.0818355
0.0818374
0.0818408
0.0818463
0.0818545
0.081866
0.0818815
0.0819015
0.0819265
0.081955
0.0819818
0.0819982
0.0819981
0.0819822
0.0819563
0.0819283
0.081904
0.0818838
0.0818657
0.0818478
0.0818285
0.0818067
0.0817826
0.0817576
0.0817339
0.0817132
0.081697
0.0816853
0.0816778
0.0816737
0.081672
0.0818365
0.0818371
0.0818385
0.0818414
0.0818464
0.0818544
0.0818662
0.081883
0.0819061
0.0819356
0.081969
0.0819988
0.0820144
0.0820089
0.0819846
0.0819498
0.081915
0.0818871
0.0818658
0.0818482
0.0818319
0.0818148
0.0817956
0.0817741
0.0817515
0.0817297
0.0817106
0.0816954
0.0816845
0.0816774
0.0816734
0.0816717
0.0818453
0.0818456
0.0818467
0.0818491
0.0818538
0.0818619
0.0818747
0.0818939
0.0819207
0.0819549
0.0819921
0.0820225
0.0820338
0.0820195
0.0819841
0.0819388
0.0818964
0.0818644
0.0818414
0.0818237
0.0818086
0.0817936
0.0817771
0.0817587
0.0817392
0.0817203
0.0817036
0.0816902
0.0816805
0.081674
0.0816703
0.0816687
0.0818699
0.0818701
0.081871
0.0818734
0.0818783
0.0818873
0.081902
0.0819241
0.0819545
0.0819915
0.0820288
0.0820547
0.0820565
0.0820296
0.0819816
0.0819259
0.0818767
0.0818402
0.0818143
0.0817949
0.0817795
0.0817655
0.0817513
0.081736
0.0817201
0.0817048
0.0816912
0.0816803
0.0816721
0.0816666
0.0816633
0.0816618
0.0819217
0.0819221
0.0819235
0.0819266
0.0819327
0.0819433
0.08196
0.0819841
0.0820151
0.0820499
0.0820805
0.0820948
0.082082
0.0820413
0.0819832
0.0819218
0.081869
0.0818283
0.081797
0.0817722
0.0817522
0.0817357
0.0817212
0.0817078
0.0816951
0.0816834
0.0816732
0.0816651
0.081659
0.0816549
0.0816525
0.0816514
0.0820069
0.0820079
0.0820103
0.0820149
0.0820227
0.0820347
0.0820518
0.0820743
0.0821006
0.0821263
0.0821431
0.082141
0.0821139
0.082066
0.082009
0.0819536
0.0819056
0.0818637
0.0818249
0.0817886
0.0817558
0.0817278
0.0817049
0.081687
0.0816733
0.0816634
0.0816566
0.0816525
0.0816506
0.0816503
0.0816506
0.081651
0.0821159
0.0821173
0.0821205
0.082126
0.0821344
0.082146
0.082161
0.0821785
0.0821962
0.0822096
0.0822125
0.0822001
0.0821731
0.0821387
0.0821055
0.0820784
0.0820553
0.0820281
0.081992
0.081948
0.0818992
0.0818509
0.0818066
0.0817697
0.0817426
0.0817259
0.0817189
0.0817193
0.0817242
0.0817306
0.081736
0.081739
0.0822237
0.0822251
0.0822282
0.0822336
0.0822416
0.0822523
0.0822656
0.0822801
0.0822936
0.0823037
0.0823093
0.0823123
0.0823174
0.0823304
0.0823554
0.0823933
0.0824368
0.0824696
0.0824815
0.0824736
0.0824478
0.0824086
0.0823597
0.0823067
0.082255
0.0822099
0.0821748
0.0821518
0.0821399
0.0821361
0.0821366
0.0821381
0.0823058
0.0823071
0.0823104
0.0823166
0.0823266
0.0823411
0.0823604
0.0823839
0.0824107
0.0824405
0.0824751
0.0825181
0.0825744
0.0826485
0.082743
0.0828592
0.0829864
0.0831003
0.0831871
0.0832504
0.0832893
0.0833048
0.0832981
0.0832711
0.0832273
0.0831719
0.0831114
0.0830537
0.0830059
0.0829725
0.0829538
0.0829467
0.0823548
0.0823561
0.0823595
0.0823664
0.0823782
0.0823964
0.082422
0.0824556
0.082497
0.0825463
0.0826048
0.0826751
0.0827608
0.0828641
0.0829857
0.0831241
0.0832652
0.0833869
0.0834844
0.0835668
0.0836366
0.0836936
0.0837361
0.0837617
0.0837688
0.0837576
0.0837308
0.0836939
0.083655
0.083622
0.0835998
0.0835898
0.0823845
0.0823858
0.0823892
0.0823962
0.0824084
0.0824277
0.0824555
0.0824931
0.0825407
0.0825982
0.0826659
0.0827449
0.0828366
0.0829411
0.0830567
0.0831784
0.0832904
0.0833777
0.0834479
0.0835138
0.0835805
0.083648
0.0837131
0.0837712
0.0838182
0.083851
0.0838687
0.0838727
0.0838668
0.0838562
0.0838464
0.0838409
0.0824029
0.0824041
0.0824073
0.0824139
0.0824254
0.0824437
0.0824707
0.0825076
0.082555
0.0826125
0.0826799
0.0827567
0.0828428
0.0829373
0.0830373
0.0831371
0.0832225
0.0832854
0.0833389
0.0833971
0.083466
0.0835451
0.0836294
0.0837114
0.0837837
0.0838412
0.0838817
0.0839063
0.0839177
0.0839204
0.0839189
0.0839171
0.0824149
0.0824159
0.0824187
0.0824244
0.0824346
0.082451
0.0824754
0.0825091
0.0825528
0.0826062
0.0826684
0.0827384
0.0828153
0.0828979
0.0829837
0.083068
0.0831398
0.0831949
0.0832451
0.083303
0.0833744
0.0834603
0.0835568
0.0836563
0.0837493
0.0838276
0.0838864
0.0839252
0.0839468
0.0839559
0.0839578
0.0839573
0.0824259
0.0824265
0.0824284
0.0824328
0.082441
0.0824548
0.0824758
0.0825053
0.082544
0.0825916
0.0826473
0.0827099
0.0827785
0.0828519
0.0829285
0.0830057
0.0830753
0.0831339
0.0831891
0.0832504
0.0833235
0.0834106
0.0835102
0.0836165
0.083721
0.0838139
0.0838879
0.0839399
0.0839711
0.0839859
0.0839905
0.0839906
0.0824432
0.0824429
0.0824432
0.0824451
0.0824504
0.0824608
0.082478
0.0825033
0.0825373
0.0825799
0.0826306
0.0826882
0.0827519
0.082821
0.0828946
0.0829716
0.0830461
0.0831127
0.0831752
0.0832406
0.0833142
0.0833991
0.0834956
0.0836005
0.083707
0.0838066
0.0838904
0.0839528
0.0839926
0.0840131
0.0840204
0.0840212
0.0824754
0.0824737
0.0824712
0.0824695
0.0824707
0.082477
0.0824905
0.0825126
0.0825439
0.0825845
0.0826336
0.0826903
0.0827539
0.0828235
0.0828988
0.0829797
0.083061
0.0831351
0.0832027
0.0832699
0.0833415
0.0834213
0.0835108
0.0836086
0.0837102
0.0838089
0.0838964
0.0839654
0.0840121
0.0840378
0.0840479
0.0840495
0.0825314
0.0825276
0.0825214
0.0825151
0.0825119
0.0825146
0.0825259
0.0825473
0.0825794
0.0826218
0.0826735
0.0827334
0.0828002
0.0828731
0.0829516
0.0830362
0.0831219
0.0831993
0.0832681
0.0833334
0.0833999
0.0834717
0.083551
0.083638
0.08373
0.0838222
0.0839076
0.0839788
0.0840301
0.0840602
0.084073
0.0840754
0.082618
0.0826116
0.0826016
0.0825915
0.0825856
0.0825874
0.0825998
0.0826243
0.0826608
0.0827083
0.082765
0.0828293
0.0828996
0.0829749
0.0830545
0.0831393
0.0832241
0.0832996
0.0833647
0.0834245
0.0834834
0.0835451
0.0836122
0.0836858
0.083765
0.0838466
0.0839254
0.0839944
0.0840473
0.0840805
0.0840957
0.0840991
0.0827396
0.0827307
0.0827182
0.0827077
0.0827036
0.0827094
0.0827273
0.0827582
0.0828009
0.0828535
0.082914
0.0829803
0.0830508
0.0831244
0.0832005
0.08328
0.0833583
0.0834267
0.0834843
0.0835359
0.0835854
0.0836359
0.08369
0.0837492
0.0838136
0.0838818
0.0839503
0.0840134
0.0840646
0.084099
0.0841161
0.0841205
0.0828987
0.0828882
0.0828771
0.082872
0.082876
0.0828907
0.0829168
0.0829541
0.0830007
0.0830549
0.0831145
0.0831776
0.0832429
0.0833095
0.0833768
0.0834459
0.0835128
0.0835702
0.0836179
0.0836597
0.083699
0.0837382
0.0837796
0.0838247
0.083874
0.0839274
0.0839829
0.0840367
0.084083
0.0841163
0.0841343
0.0841396
0.0830977
0.0830879
0.0830844
0.0830912
0.0831074
0.0831319
0.0831643
0.0832037
0.0832489
0.0832984
0.0833509
0.083405
0.0834597
0.0835143
0.0835687
0.0836236
0.083676
0.0837205
0.083757
0.0837885
0.0838176
0.0838461
0.0838758
0.0839079
0.0839431
0.0839817
0.0840231
0.0840651
0.0841035
0.0841331
0.0841506
0.0841563
0.0833413
0.0833372
0.0833471
0.083367
0.0833923
0.0834211
0.083453
0.0834877
0.0835247
0.0835636
0.0836036
0.083644
0.0836842
0.0837238
0.0837627
0.0838015
0.0838382
0.0838691
0.0838942
0.0839157
0.0839353
0.0839542
0.0839736
0.0839944
0.0840172
0.0840423
0.0840698
0.0840988
0.0841269
0.0841503
0.0841653
0.0841709
0.0836391
0.0836459
0.0836662
0.0836891
0.0837124
0.0837354
0.0837585
0.0837818
0.0838055
0.0838296
0.083854
0.0838783
0.0839022
0.0839256
0.0839484
0.0839709
0.083992
0.0840098
0.0840242
0.0840364
0.0840474
0.0840579
0.0840686
0.0840799
0.0840923
0.0841059
0.084121
0.0841373
0.0841539
0.0841686
0.084179
0.0841835
0.0840031
0.0840086
0.0840192
0.0840293
0.0840386
0.0840474
0.0840558
0.0840639
0.084072
0.08408
0.0840881
0.0840961
0.0841039
0.0841115
0.0841189
0.0841261
0.0841329
0.0841386
0.0841432
0.0841471
0.0841506
0.0841539
0.0841573
0.0841608
0.0841646
0.0841688
0.0841735
0.0841786
0.0841839
0.0841888
0.0841926
0.0841944
)
;

boundaryField
{
    movingWall
    {
        type            fixedValue;
        value           uniform 0.0842;
    }
    fixedWalls
    {
        type            zeroGradient;
    }
    floor
    {
        type            zeroGradient;
    }
    frontAndBack
    {
        type            empty;
    }
}


// ************************************************************************* //
