/*--------------------------------*- C++ -*----------------------------------*\
| =========                 |                                                 |
| \\      /  F ield         | OpenFOAM: The Open Source CFD Toolbox           |
|  \\    /   O peration     | Version:  2206                                  |
|   \\  /    A nd           | Website:  www.openfoam.com                      |
|    \\/     M anipulation  |                                                 |
\*---------------------------------------------------------------------------*/
FoamFile
{
    version     2.0;
    format      ascii;
    arch        "LSB;label=64;scalar=64";
    class       volVectorField;
    location    "658800";
    object      U;
}
// * * * * * * * * * * * * * * * * * * * * * * * * * * * * * * * * * * * * * //

dimensions      [0 1 -1 0 0 0 0];

internalField   nonuniform List<vector> 
16
(
(3.76708e-08 -3.33969e-08 0)
(1.30795e-07 -2.4007e-08 0)
(1.2224e-07 1.12743e-08 0)
(3.91486e-08 4.3511e-08 0)
(1.19748e-08 -1.34883e-07 0)
(6.96908e-08 -6.32289e-08 0)
(5.22729e-08 8.1429e-08 0)
(9.44284e-10 1.18225e-07 0)
(-3.33183e-08 -1.11451e-07 0)
(-9.34802e-08 -6.48886e-08 0)
(-7.14747e-08 7.89307e-08 0)
(-2.40073e-08 9.65593e-08 0)
(-1.52146e-08 -1.25106e-08 0)
(-1.08882e-07 -2.41483e-08 0)
(-1.01561e-07 1.30111e-08 0)
(-1.74334e-08 2.3883e-08 0)
)
;

boundaryField
{
    movingWall
    {
        type            noSlip;
    }
    fixedWalls
    {
        type            noSlip;
    }
    frontAndBack
    {
        type            empty;
    }
}


// ************************************************************************* //
