/*--------------------------------*- C++ -*----------------------------------*\
| =========                 |                                                 |
| \\      /  F ield         | OpenFOAM: The Open Source CFD Toolbox           |
|  \\    /   O peration     | Version:  2212                                  |
|   \\  /    A nd           | Website:  www.openfoam.com                      |
|    \\/     M anipulation  |                                                 |
\*---------------------------------------------------------------------------*/
FoamFile
{
    version     2.0;
    format      ascii;
    arch        "LSB;label=64;scalar=64";
    class       volVectorField;
    location    "0.15";
    object      U;
}
// * * * * * * * * * * * * * * * * * * * * * * * * * * * * * * * * * * * * * //

dimensions      [0 1 -1 0 0 0 0];

internalField   nonuniform List<vector> 
32768
(
(-1.55327e-05 3.27797e-05 0)
(-3.68938e-05 2.98297e-05 0)
(-3.58794e-05 1.85502e-05 0)
(-2.16359e-05 1.19427e-05 0)
(-1.66209e-06 9.2212e-06 0)
(2.00714e-05 8.22579e-06 0)
(4.21298e-05 7.86185e-06 0)
(6.40468e-05 7.72506e-06 0)
(8.56317e-05 7.68353e-06 0)
(0.000106769 7.69404e-06 0)
(0.000127365 7.73936e-06 0)
(0.000147339 7.80993e-06 0)
(0.000166615 7.89897e-06 0)
(0.000185119 8.00088e-06 0)
(0.000202787 8.11072e-06 0)
(0.000219555 8.22381e-06 0)
(0.000235367 8.33562e-06 0)
(0.00025017 8.44163e-06 0)
(0.000263917 8.53732e-06 0)
(0.000276566 8.6181e-06 0)
(0.00028808 8.67939e-06 0)
(0.000298428 8.7165e-06 0)
(0.000307585 8.72477e-06 0)
(0.000315531 8.69936e-06 0)
(0.000322254 8.63538e-06 0)
(0.000327746 8.52754e-06 0)
(0.000332009 8.36997e-06 0)
(0.00033505 8.15553e-06 0)
(0.00033689 7.87479e-06 0)
(0.000337582 7.51149e-06 0)
(0.000337125 7.01811e-06 0)
(0.000335514 6.42251e-06 0)
(0.00033282 5.75625e-06 0)
(0.00032913 5.04186e-06 0)
(0.000324475 4.28863e-06 0)
(0.000318867 3.5074e-06 0)
(0.00031233 2.70168e-06 0)
(0.000304893 1.86942e-06 0)
(0.000296591 1.00727e-06 0)
(0.000287464 1.12626e-07 0)
(0.000277557 -8.15442e-07 0)
(0.000266919 -1.7763e-06 0)
(0.000255601 -2.76766e-06 0)
(0.000243656 -3.78609e-06 0)
(0.000231138 -4.82698e-06 0)
(0.0002181 -5.885e-06 0)
(0.000204595 -6.95397e-06 0)
(0.000190675 -8.0273e-06 0)
(0.00017639 -9.09777e-06 0)
(0.000161788 -1.01579e-05 0)
(0.000146916 -1.11999e-05 0)
(0.000131815 -1.22158e-05 0)
(0.000116525 -1.31975e-05 0)
(0.000101084 -1.41372e-05 0)
(8.55245e-05 -1.50269e-05 0)
(6.98762e-05 -1.58595e-05 0)
(5.41661e-05 -1.66279e-05 0)
(3.84178e-05 -1.73263e-05 0)
(2.26522e-05 -1.79495e-05 0)
(6.88296e-06 -1.84937e-05 0)
(-8.86827e-06 -1.89549e-05 0)
(-2.45607e-05 -1.93399e-05 0)
(-4.01788e-05 -1.96385e-05 0)
(-5.5817e-05 -1.97656e-05 0)
(-7.14875e-05 -1.96521e-05 0)
(-8.71236e-05 -1.93927e-05 0)
(-0.000102842 -1.9087e-05 0)
(-0.000118612 -1.87297e-05 0)
(-0.000134364 -1.83075e-05 0)
(-0.000150059 -1.78174e-05 0)
(-0.000165672 -1.72596e-05 0)
(-0.000181175 -1.66354e-05 0)
(-0.000196541 -1.59478e-05 0)
(-0.00021174 -1.52016e-05 0)
(-0.000226742 -1.44024e-05 0)
(-0.000241513 -1.35566e-05 0)
(-0.000256018 -1.26712e-05 0)
(-0.000270219 -1.17533e-05 0)
(-0.000284076 -1.08103e-05 0)
(-0.000297547 -9.84948e-06 0)
(-0.000310586 -8.87797e-06 0)
(-0.000323148 -7.90275e-06 0)
(-0.000335185 -6.93027e-06 0)
(-0.000346648 -5.96669e-06 0)
(-0.000357488 -5.01739e-06 0)
(-0.000367655 -4.0872e-06 0)
(-0.000377101 -3.17987e-06 0)
(-0.00038578 -2.29817e-06 0)
(-0.000393645 -1.44329e-06 0)
(-0.000400655 -6.14784e-07 0)
(-0.000406774 1.8987e-07 0)
(-0.000411971 9.75058e-07 0)
(-0.000416221 1.74626e-06 0)
(-0.000419502 2.5052e-06 0)
(-0.000421793 3.2415e-06 0)
(-0.000423079 3.93026e-06 0)
(-0.000423348 4.53892e-06 0)
(-0.000422487 5.03297e-06 0)
(-0.000420462 5.42218e-06 0)
(-0.000417234 5.72615e-06 0)
(-0.000412771 5.95901e-06 0)
(-0.000407053 6.13057e-06 0)
(-0.000400067 6.2486e-06 0)
(-0.000391809 6.31956e-06 0)
(-0.000382284 6.34927e-06 0)
(-0.000371501 6.34301e-06 0)
(-0.000359477 6.30594e-06 0)
(-0.000346234 6.24294e-06 0)
(-0.000331801 6.15889e-06 0)
(-0.000316213 6.05847e-06 0)
(-0.000299509 5.94639e-06 0)
(-0.000281736 5.82718e-06 0)
(-0.000262943 5.70538e-06 0)
(-0.000243187 5.58539e-06 0)
(-0.000222527 5.47168e-06 0)
(-0.000201028 5.36878e-06 0)
(-0.00017876 5.28149e-06 0)
(-0.000155798 5.21518e-06 0)
(-0.000132218 5.17644e-06 0)
(-0.000108107 5.17454e-06 0)
(-8.35585e-05 5.22654e-06 0)
(-5.86897e-05 5.37585e-06 0)
(-3.36925e-05 5.75508e-06 0)
(-9.03847e-06 6.77049e-06 0)
(1.38292e-05 9.52789e-06 0)
(3.08962e-05 1.62306e-05 0)
(3.45396e-05 2.78455e-05 0)
(1.52407e-05 3.18465e-05 0)
(-1.13948e-05 6.70486e-05 0)
(-1.28006e-05 1.22135e-05 0)
(2.30378e-05 -5.18093e-05 0)
(7.72287e-05 -8.46606e-05 0)
(0.000138575 -9.66531e-05 0)
(0.000201811 -9.97684e-05 0)
(0.000265029 -9.97428e-05 0)
(0.000327606 -9.85922e-05 0)
(0.000389282 -9.69107e-05 0)
(0.000449886 -9.48597e-05 0)
(0.000509265 -9.24874e-05 0)
(0.000567272 -8.98146e-05 0)
(0.000623761 -8.68565e-05 0)
(0.000678588 -8.3627e-05 0)
(0.000731613 -8.014e-05 0)
(0.0007827 -7.641e-05 0)
(0.000831716 -7.24518e-05 0)
(0.000878533 -6.8281e-05 0)
(0.000923029 -6.39137e-05 0)
(0.000965087 -5.9367e-05 0)
(0.0010046 -5.4658e-05 0)
(0.00104145 -4.98051e-05 0)
(0.00107555 -4.48268e-05 0)
(0.00110681 -3.97425e-05 0)
(0.00113514 -3.45721e-05 0)
(0.00116046 -2.93364e-05 0)
(0.0011827 -2.40572e-05 0)
(0.00120179 -1.87579e-05 0)
(0.00121767 -1.34637e-05 0)
(0.00123025 -8.20496e-06 0)
(0.00123952 -3.02678e-06 0)
(0.00124544 2.06725e-06 0)
(0.00124797 7.0792e-06 0)
(0.0012471 1.20061e-05 0)
(0.00124281 1.68576e-05 0)
(0.00123513 2.16318e-05 0)
(0.00122408 2.63178e-05 0)
(0.0012097 3.08975e-05 0)
(0.00119204 3.53517e-05 0)
(0.00117114 3.96616e-05 0)
(0.00114708 4.38118e-05 0)
(0.0011199 4.77887e-05 0)
(0.0010897 5.15821e-05 0)
(0.00105654 5.51833e-05 0)
(0.00102051 5.8586e-05 0)
(0.000981723 6.17856e-05 0)
(0.000940264 6.47792e-05 0)
(0.000896248 6.75652e-05 0)
(0.000849788 7.01439e-05 0)
(0.000801006 7.25163e-05 0)
(0.000750029 7.46851e-05 0)
(0.00069699 7.66536e-05 0)
(0.000642024 7.84262e-05 0)
(0.000585273 8.00079e-05 0)
(0.000526883 8.14043e-05 0)
(0.000467002 8.26209e-05 0)
(0.000405782 8.36636e-05 0)
(0.000343377 8.45371e-05 0)
(0.000279944 8.52464e-05 0)
(0.000215638 8.57939e-05 0)
(0.000150618 8.6181e-05 0)
(8.509e-05 8.6399e-05 0)
(1.92111e-05 8.64754e-05 0)
(-4.71634e-05 8.65279e-05 0)
(-0.000113479 8.6615e-05 0)
(-0.000179394 8.66193e-05 0)
(-0.000245045 8.64295e-05 0)
(-0.000310273 8.60181e-05 0)
(-0.000374849 8.5397e-05 0)
(-0.000438595 8.45788e-05 0)
(-0.000501355 8.35707e-05 0)
(-0.000562967 8.23756e-05 0)
(-0.000623272 8.09943e-05 0)
(-0.000682111 7.94254e-05 0)
(-0.00073933 7.76673e-05 0)
(-0.000794781 7.57171e-05 0)
(-0.000848318 7.35726e-05 0)
(-0.000899801 7.12311e-05 0)
(-0.000949094 6.86912e-05 0)
(-0.000996068 6.59513e-05 0)
(-0.0010406 6.30116e-05 0)
(-0.00108257 5.98726e-05 0)
(-0.00112187 5.65367e-05 0)
(-0.0011584 5.30069e-05 0)
(-0.00119205 4.92884e-05 0)
(-0.00122275 4.53874e-05 0)
(-0.00125041 4.13124e-05 0)
(-0.00127495 3.70735e-05 0)
(-0.00129631 3.26838e-05 0)
(-0.00131444 2.81586e-05 0)
(-0.00132927 2.35168e-05 0)
(-0.00134076 1.87791e-05 0)
(-0.00134889 1.39672e-05 0)
(-0.00135361 9.09528e-06 0)
(-0.0013549 4.15951e-06 0)
(-0.00135276 -8.70781e-07 0)
(-0.00134713 -6.01649e-06 0)
(-0.00133809 -1.12813e-05 0)
(-0.00132567 -1.66341e-05 0)
(-0.00130992 -2.20408e-05 0)
(-0.00129088 -2.74706e-05 0)
(-0.0012686 -3.28967e-05 0)
(-0.00124316 -3.8294e-05 0)
(-0.0012146 -4.36395e-05 0)
(-0.00118302 -4.8911e-05 0)
(-0.00114848 -5.40874e-05 0)
(-0.00111107 -5.91484e-05 0)
(-0.0010709 -6.40744e-05 0)
(-0.00102805 -6.88466e-05 0)
(-0.000982642 -7.34469e-05 0)
(-0.000934784 -7.78578e-05 0)
(-0.000884597 -8.20628e-05 0)
(-0.000832205 -8.60458e-05 0)
(-0.000777737 -8.97917e-05 0)
(-0.000721329 -9.3286e-05 0)
(-0.000663119 -9.6515e-05 0)
(-0.000603248 -9.94651e-05 0)
(-0.000541862 -0.000102123 0)
(-0.000479108 -0.000104475 0)
(-0.000415133 -0.000106501 0)
(-0.000350092 -0.000108153 0)
(-0.000284156 -0.00010927 0)
(-0.000217581 -0.000109255 0)
(-0.000150993 -0.00010608 0)
(-8.63062e-05 -9.39696e-05 0)
(-2.87988e-05 -6.07976e-05 0)
(1.01188e-05 4.34662e-06 0)
(1.12583e-05 6.33031e-05 0)
(-1.10601e-05 8.43267e-05 0)
(-5.91783e-06 -3.65109e-05 0)
(3.85499e-05 -0.000155574 0)
(0.000101391 -0.000214333 0)
(0.000171345 -0.000234992 0)
(0.000243213 -0.000239735 0)
(0.000315077 -0.000238902 0)
(0.00038628 -0.000236069 0)
(0.000456525 -0.000232268 0)
(0.000525611 -0.000227762 0)
(0.000593362 -0.000222619 0)
(0.000659611 -0.000216864 0)
(0.000724195 -0.000210517 0)
(0.000786954 -0.000203594 0)
(0.00084773 -0.000196116 0)
(0.000906373 -0.000188104 0)
(0.000962734 -0.000179582 0)
(0.00101667 -0.000170574 0)
(0.00106804 -0.000161107 0)
(0.00111672 -0.000151208 0)
(0.00116257 -0.000140905 0)
(0.00120548 -0.000130229 0)
(0.00124532 -0.00011921 0)
(0.001282 -0.000107881 0)
(0.0013154 -9.62737e-05 0)
(0.00134544 -8.44227e-05 0)
(0.00137203 -7.23616e-05 0)
(0.00139507 -6.01245e-05 0)
(0.00141451 -4.77448e-05 0)
(0.00143027 -3.52529e-05 0)
(0.0014423 -2.26641e-05 0)
(0.00145056 -1.00281e-05 0)
(0.00145495 2.61315e-06 0)
(0.00145547 1.52219e-05 0)
(0.00145211 2.77569e-05 0)
(0.00144486 4.01782e-05 0)
(0.00143373 5.2451e-05 0)
(0.00141874 6.45414e-05 0)
(0.00139991 7.64169e-05 0)
(0.00137729 8.80459e-05 0)
(0.00135093 9.93986e-05 0)
(0.00132087 0.000110446 0)
(0.00128719 0.000121162 0)
(0.00124996 0.000131519 0)
(0.00120927 0.000141495 0)
(0.00116521 0.000151066 0)
(0.0011179 0.000160211 0)
(0.00106744 0.000168912 0)
(0.00101397 0.000177152 0)
(0.000957606 0.000184916 0)
(0.000898505 0.000192189 0)
(0.000836814 0.000198961 0)
(0.000772692 0.000205222 0)
(0.000706305 0.000210964 0)
(0.000637828 0.000216179 0)
(0.00056744 0.000220862 0)
(0.000495328 0.00022501 0)
(0.000421682 0.000228619 0)
(0.000346699 0.000231688 0)
(0.000270574 0.000234215 0)
(0.000193506 0.0002362 0)
(0.000115749 0.00023764 0)
(3.75621e-05 0.000238533 0)
(-4.13288e-05 0.000238906 0)
(-0.000120128 0.000238791 0)
(-0.000198438 0.000238125 0)
(-0.000276396 0.000236867 0)
(-0.000353787 0.000235011 0)
(-0.00043033 0.000232566 0)
(-0.000505808 0.000229539 0)
(-0.000580025 0.000225938 0)
(-0.000652782 0.000221769 0)
(-0.000723879 0.000217042 0)
(-0.000793124 0.000211763 0)
(-0.000860331 0.000205943 0)
(-0.00092532 0.00019959 0)
(-0.000987916 0.000192716 0)
(-0.00104796 0.000185334 0)
(-0.00110528 0.000177458 0)
(-0.00115975 0.000169102 0)
(-0.00121121 0.000160284 0)
(-0.00125955 0.000151022 0)
(-0.00130463 0.000141336 0)
(-0.00134636 0.000131248 0)
(-0.00138462 0.000120781 0)
(-0.00141933 0.000109961 0)
(-0.00145041 9.88145e-05 0)
(-0.00147779 8.73686e-05 0)
(-0.00150142 7.5653e-05 0)
(-0.00152123 6.36981e-05 0)
(-0.00153719 5.15357e-05 0)
(-0.00154927 3.91976e-05 0)
(-0.00155744 2.67149e-05 0)
(-0.0015617 1.41146e-05 0)
(-0.00156206 1.4202e-06 0)
(-0.00155847 -1.13449e-05 0)
(-0.00155097 -2.41467e-05 0)
(-0.00153962 -3.69369e-05 0)
(-0.00152446 -4.96824e-05 0)
(-0.00150555 -6.23508e-05 0)
(-0.00148293 -7.49069e-05 0)
(-0.00145668 -8.73147e-05 0)
(-0.00142688 -9.95379e-05 0)
(-0.0013936 -0.000111541 0)
(-0.00135694 -0.000123287 0)
(-0.00131699 -0.000134743 0)
(-0.00127386 -0.000145876 0)
(-0.00122765 -0.000156652 0)
(-0.00117849 -0.00016704 0)
(-0.0011265 -0.000177012 0)
(-0.00107181 -0.000186537 0)
(-0.00101454 -0.00019559 0)
(-0.000954856 -0.000204144 0)
(-0.000892886 -0.000212176 0)
(-0.000828784 -0.000219662 0)
(-0.000762703 -0.000226583 0)
(-0.000694801 -0.00023292 0)
(-0.000625239 -0.000238654 0)
(-0.00055418 -0.000243771 0)
(-0.000481793 -0.000248245 0)
(-0.000408254 -0.00025201 0)
(-0.000333765 -0.000254802 0)
(-0.000258618 -0.000255585 0)
(-0.000183475 -0.000250764 0)
(-0.000110267 -0.000229936 0)
(-4.4231e-05 -0.000170682 0)
(3.23827e-06 -4.98358e-05 0)
(1.09241e-05 7.78373e-05 0)
(-1.13285e-05 0.000100879 0)
(-5.34236e-06 -8.91287e-05 0)
(4.11716e-05 -0.000264946 0)
(0.000106455 -0.000350448 0)
(0.000178976 -0.000380273 0)
(0.000253442 -0.000386949 0)
(0.000327904 -0.000385466 0)
(0.000401688 -0.000381001 0)
(0.000474491 -0.000375051 0)
(0.000546101 -0.000368008 0)
(0.000616336 -0.000359973 0)
(0.000685022 -0.000350986 0)
(0.00075199 -0.000341073 0)
(0.000817075 -0.00033026 0)
(0.000880115 -0.000318576 0)
(0.000940951 -0.000306051 0)
(0.000999432 -0.000292716 0)
(0.00105541 -0.000278607 0)
(0.00110874 -0.000263761 0)
(0.00115928 -0.000248215 0)
(0.00120691 -0.00023201 0)
(0.00125149 -0.000215188 0)
(0.00129291 -0.000197793 0)
(0.00133106 -0.00017987 0)
(0.00136582 -0.000161465 0)
(0.0013971 -0.000142627 0)
(0.0014248 -0.000123404 0)
(0.00144885 -0.000103845 0)
(0.00146917 -8.40015e-05 0)
(0.00148568 -6.3922e-05 0)
(0.00149834 -4.36561e-05 0)
(0.0015071 -2.32564e-05 0)
(0.00151191 -2.7801e-06 0)
(0.00151274 1.77213e-05 0)
(0.00150958 3.81752e-05 0)
(0.00150242 5.85226e-05 0)
(0.00149126 7.87093e-05 0)
(0.00147611 9.86821e-05 0)
(0.00145698 0.000118387 0)
(0.0014339 0.000137771 0)
(0.00140692 0.000156782 0)
(0.0013761 0.00017537 0)
(0.00134148 0.000193485 0)
(0.00130316 0.00021108 0)
(0.00126121 0.00022811 0)
(0.00121573 0.000244532 0)
(0.00116684 0.000260305 0)
(0.00111464 0.000275388 0)
(0.00105926 0.000289746 0)
(0.00100085 0.000303345 0)
(0.000939548 0.000316152 0)
(0.000875512 0.000328139 0)
(0.000808906 0.000339278 0)
(0.000739906 0.000349547 0)
(0.000668692 0.000358924 0)
(0.000595452 0.000367389 0)
(0.000520384 0.000374926 0)
(0.000443688 0.000381523 0)
(0.000365571 0.000387167 0)
(0.000286242 0.000391849 0)
(0.000205914 0.000395563 0)
(0.000124856 0.000398301 0)
(4.33521e-05 0.00040005 0)
(-3.88825e-05 0.000400795 0)
(-0.00012102 0.000400531 0)
(-0.000202674 0.000399223 0)
(-0.000283988 0.000396869 0)
(-0.000364716 0.000393479 0)
(-0.000444552 0.000389064 0)
(-0.000523264 0.000383637 0)
(-0.000600641 0.000377212 0)
(-0.000676473 0.000369803 0)
(-0.00075055 0.00036143 0)
(-0.000822669 0.000352112 0)
(-0.000892635 0.000341872 0)
(-0.000960258 0.000330734 0)
(-0.00102536 0.000318727 0)
(-0.00108777 0.000305881 0)
(-0.00114731 0.000292226 0)
(-0.00120385 0.000277797 0)
(-0.00125724 0.000262631 0)
(-0.00130734 0.000246766 0)
(-0.00135403 0.000230243 0)
(-0.00139719 0.000213105 0)
(-0.00143673 0.000195398 0)
(-0.00147256 0.000177166 0)
(-0.0015046 0.000158459 0)
(-0.00153277 0.000139327 0)
(-0.00155703 0.000119819 0)
(-0.00157732 9.99897e-05 0)
(-0.0015936 7.9891e-05 0)
(-0.00160586 5.95758e-05 0)
(-0.00161408 3.9093e-05 0)
(-0.00161826 1.84858e-05 0)
(-0.00161841 -2.20239e-06 0)
(-0.00161453 -2.2918e-05 0)
(-0.00160664 -4.36132e-05 0)
(-0.00159477 -6.4231e-05 0)
(-0.00157896 -8.4717e-05 0)
(-0.00155928 -0.000105017 0)
(-0.00153577 -0.000125078 0)
(-0.0015085 -0.000144844 0)
(-0.00147756 -0.000164265 0)
(-0.00144303 -0.000183287 0)
(-0.001405 -0.00020186 0)
(-0.00136358 -0.000219935 0)
(-0.00131887 -0.000237464 0)
(-0.00127099 -0.000254403 0)
(-0.00122007 -0.000270706 0)
(-0.00116622 -0.000286332 0)
(-0.00110959 -0.000301241 0)
(-0.00105031 -0.000315395 0)
(-0.000988526 -0.000328758 0)
(-0.000924394 -0.000341296 0)
(-0.000858066 -0.000352979 0)
(-0.0007897 -0.000363778 0)
(-0.000719459 -0.000373665 0)
(-0.00064751 -0.000382617 0)
(-0.000574023 -0.000390608 0)
(-0.000499171 -0.000397602 0)
(-0.000423138 -0.000403497 0)
(-0.000346135 -0.000407903 0)
(-0.000268464 -0.000409314 0)
(-0.000190802 -0.000402526 0)
(-0.000115109 -0.000372462 0)
(-4.67179e-05 -0.000286266 0)
(2.72407e-06 -0.000107949 0)
(1.12045e-05 9.16178e-05 0)
(-1.17265e-05 0.000118017 0)
(-5.52141e-06 -0.000143234 0)
(4.25616e-05 -0.000377279 0)
(0.000110014 -0.000490115 0)
(0.000184947 -0.000529267 0)
(0.000261898 -0.00053788 0)
(0.000338852 -0.000535702 0)
(0.000415109 -0.000529544 0)
(0.000490352 -0.000521381 0)
(0.000564364 -0.000511729 0)
(0.000636955 -0.000500726 0)
(0.000707948 -0.000488422 0)
(0.000777166 -0.000474853 0)
(0.00084444 -0.000460053 0)
(0.000909601 -0.000444057 0)
(0.000972488 -0.000426906 0)
(0.00103294 -0.000408641 0)
(0.00109081 -0.000389306 0)
(0.00114594 -0.000368949 0)
(0.0011982 -0.000347619 0)
(0.00124744 -0.000325369 0)
(0.00129355 -0.000302254 0)
(0.00133638 -0.000278329 0)
(0.00137583 -0.000253655 0)
(0.00141178 -0.000228291 0)
(0.00144414 -0.000202302 0)
(0.00147281 -0.000175752 0)
(0.0014977 -0.000148706 0)
(0.00151873 -0.000121232 0)
(0.00153584 -9.33999e-05 0)
(0.00154897 -6.52779e-05 0)
(0.00155807 -3.69373e-05 0)
(0.00156308 -8.45122e-06 0)
(0.00156399 2.00997e-05 0)
(0.0015608 4.86351e-05 0)
(0.00155349 7.7079e-05 0)
(0.00154204 0.000105358 0)
(0.00152646 0.000133398 0)
(0.00150678 0.000161121 0)
(0.00148303 0.00018845 0)
(0.00145524 0.000215311 0)
(0.00142348 0.000241629 0)
(0.0013878 0.000267334 0)
(0.00134829 0.000292357 0)
(0.00130504 0.00031663 0)
(0.00125814 0.000340089 0)
(0.0012077 0.00036267 0)
(0.00115385 0.000384315 0)
(0.00109671 0.000404966 0)
(0.00103644 0.000424569 0)
(0.000973177 0.000443074 0)
(0.000907089 0.000460433 0)
(0.000838344 0.000476602 0)
(0.000767124 0.00049154 0)
(0.000693615 0.000505212 0)
(0.000618011 0.000517583 0)
(0.000540517 0.000528624 0)
(0.000461339 0.00053831 0)
(0.000380693 0.000546618 0)
(0.000298794 0.000553531 0)
(0.000215863 0.000559032 0)
(0.000132175 0.000563104 0)
(4.80408e-05 0.000565721 0)
(-3.68513e-05 0.000566865 0)
(-0.000121667 0.000566476 0)
(-0.000205973 0.000564543 0)
(-0.000289952 0.000561083 0)
(-0.000373341 0.00055612 0)
(-0.000455815 0.000549677 0)
(-0.000537131 0.000541773 0)
(-0.000617073 0.000532433 0)
(-0.00069542 0.00052168 0)
(-0.000771955 0.000509546 0)
(-0.00084647 0.000496064 0)
(-0.00091876 0.00048127 0)
(-0.000988632 0.000465206 0)
(-0.0010559 0.000447915 0)
(-0.00112038 0.000429446 0)
(-0.00118191 0.000409849 0)
(-0.00124034 0.000389178 0)
(-0.0012955 0.00036749 0)
(-0.00134727 0.000344844 0)
(-0.00139552 0.000321302 0)
(-0.00144013 0.000296929 0)
(-0.001481 0.000271792 0)
(-0.00151803 0.000245959 0)
(-0.00155114 0.0002195 0)
(-0.00158026 0.000192489 0)
(-0.00160533 0.000164997 0)
(-0.0016263 0.0001371 0)
(-0.00164315 0.000108874 0)
(-0.00165583 8.03948e-05 0)
(-0.00166434 5.17318e-05 0)
(-0.00166868 2.29479e-05 0)
(-0.00166886 -5.8955e-06 0)
(-0.00166488 -3.47354e-05 0)
(-0.00165676 -6.35052e-05 0)
(-0.00164453 -9.21291e-05 0)
(-0.00162824 -0.000120531 0)
(-0.00160794 -0.000148636 0)
(-0.00158369 -0.000176371 0)
(-0.00155557 -0.000203664 0)
(-0.00152365 -0.000230446 0)
(-0.00148803 -0.000256647 0)
(-0.00144879 -0.000282202 0)
(-0.00140606 -0.000307047 0)
(-0.00135994 -0.000331119 0)
(-0.00131054 -0.00035436 0)
(-0.001258 -0.000376712 0)
(-0.00120245 -0.000398121 0)
(-0.00114403 -0.000418536 0)
(-0.00108288 -0.000437907 0)
(-0.00101915 -0.000456188 0)
(-0.000952998 -0.000473337 0)
(-0.000884583 -0.000489312 0)
(-0.000814069 -0.000504077 0)
(-0.000741623 -0.000517598 0)
(-0.000667418 -0.000529841 0)
(-0.000591629 -0.000540776 0)
(-0.000514436 -0.000550352 0)
(-0.000436027 -0.000558434 0)
(-0.000356621 -0.000564505 0)
(-0.000276533 -0.00056658 0)
(-0.000196463 -0.000557813 0)
(-0.00011844 -0.000518343 0)
(-4.79653e-05 -0.000404614 0)
(2.96286e-06 -0.000167389 0)
(1.16031e-05 0.000106079 0)
(-1.22024e-05 0.000135823 0)
(-5.72817e-06 -0.000199307 0)
(4.42844e-05 -0.000493715 0)
(0.000114454 -0.000634925 0)
(0.000192435 -0.000683795 0)
(0.000272542 -0.000694449 0)
(0.000352665 -0.000691566 0)
(0.000432067 -0.00068366 0)
(0.000510414 -0.000673208 0)
(0.00058748 -0.000660857 0)
(0.00066307 -0.000646781 0)
(0.000736997 -0.000631044 0)
(0.00080908 -0.00061369 0)
(0.000879141 -0.000594761 0)
(0.000947007 -0.000574302 0)
(0.00101251 -0.00055236 0)
(0.00107548 -0.000528988 0)
(0.00113577 -0.00050424 0)
(0.00119322 -0.000478174 0)
(0.00124767 -0.000450852 0)
(0.001299 -0.000422337 0)
(0.00134705 -0.000392698 0)
(0.00139171 -0.000362005 0)
(0.00143285 -0.000330332 0)
(0.00147036 -0.000297753 0)
(0.00150413 -0.000264349 0)
(0.00153406 -0.0002302 0)
(0.00156006 -0.000195389 0)
(0.00158204 -0.000160003 0)
(0.00159995 -0.000124127 0)
(0.00161371 -8.78521e-05 0)
(0.00162327 -5.12688e-05 0)
(0.00162858 -1.44706e-05 0)
(0.00162961 2.24447e-05 0)
(0.00162638 5.93719e-05 0)
(0.00161885 9.62173e-05 0)
(0.00160701 0.000132891 0)
(0.00159088 0.000169297 0)
(0.00157047 0.000205336 0)
(0.00154582 0.000240906 0)
(0.00151697 0.000275908 0)
(0.00148398 0.000310244 0)
(0.00144692 0.00034382 0)
(0.00140586 0.000376543 0)
(0.0013609 0.000408324 0)
(0.00131214 0.000439075 0)
(0.00125971 0.000468712 0)
(0.00120372 0.000497154 0)
(0.00114431 0.000524323 0)
(0.00108163 0.000550143 0)
(0.00101585 0.000574546 0)
(0.000947121 0.000597464 0)
(0.00087563 0.000618836 0)
(0.000801563 0.000638604 0)
(0.000725114 0.000656716 0)
(0.000646487 0.000673125 0)
(0.000565893 0.000687786 0)
(0.000483548 0.000700662 0)
(0.000399675 0.000711721 0)
(0.000314498 0.000720934 0)
(0.000228245 0.000728277 0)
(0.000141202 0.000733724 0)
(5.37193e-05 0.000737237 0)
(-3.45685e-05 0.000738783 0)
(-0.000122832 0.000738288 0)
(-0.000210515 0.000735739 0)
(-0.000297878 0.000731163 0)
(-0.00038464 0.000724596 0)
(-0.000470456 0.000716073 0)
(-0.000555073 0.000705623 0)
(-0.000638265 0.000693281 0)
(-0.000719801 0.000679081 0)
(-0.000799456 0.000663067 0)
(-0.000877013 0.000645286 0)
(-0.000952259 0.000625789 0)
(-0.00102499 0.000604634 0)
(-0.00109502 0.000581883 0)
(-0.00116215 0.0005576 0)
(-0.00122621 0.000531857 0)
(-0.00128704 0.000504727 0)
(-0.00134449 0.000476289 0)
(-0.0013984 0.000446622 0)
(-0.00144865 0.000415811 0)
(-0.00149511 0.000383944 0)
(-0.00153768 0.000351109 0)
(-0.00157625 0.000317398 0)
(-0.00161075 0.000282905 0)
(-0.00164109 0.000247724 0)
(-0.00166722 0.000211953 0)
(-0.00168908 0.000175691 0)
(-0.00170665 0.000139036 0)
(-0.00171988 0.000102088 0)
(-0.00172877 6.4936e-05 0)
(-0.00173332 2.76609e-05 0)
(-0.00173353 -9.65835e-06 0)
(-0.0017294 -4.69373e-05 0)
(-0.00172096 -8.4092e-05 0)
(-0.00170824 -0.000121024 0)
(-0.0016913 -0.000157637 0)
(-0.00167019 -0.000193836 0)
(-0.00164497 -0.000229527 0)
(-0.00161572 -0.000264621 0)
(-0.00158253 -0.000299031 0)
(-0.00154548 -0.00033267 0)
(-0.00150469 -0.000365457 0)
(-0.00146027 -0.000397311 0)
(-0.00141232 -0.000428157 0)
(-0.00136097 -0.00045792 0)
(-0.00130636 -0.000486531 0)
(-0.00124863 -0.000513922 0)
(-0.00118792 -0.000540031 0)
(-0.00112437 -0.000564796 0)
(-0.00105815 -0.000588161 0)
(-0.000989424 -0.000610074 0)
(-0.000918346 -0.000630485 0)
(-0.000845091 -0.000649347 0)
(-0.000769833 -0.000666619 0)
(-0.000692751 -0.00068226 0)
(-0.000614027 -0.000696231 0)
(-0.000533847 -0.00070847 0)
(-0.000452406 -0.000718806 0)
(-0.000369932 -0.000726588 0)
(-0.000286757 -0.000729327 0)
(-0.000203617 -0.00071847 0)
(-0.000122634 -0.0006692 0)
(-4.95279e-05 -0.000526903 0)
(3.26009e-06 -0.000228665 0)
(1.21025e-05 0.000121265 0)
(-1.27752e-05 0.000154382 0)
(-5.91258e-06 -0.000257902 0)
(4.65192e-05 -0.000615313 0)
(0.000120067 -0.000786191 0)
(0.000201832 -0.000845275 0)
(0.000285858 -0.000858102 0)
(0.000369921 -0.000854499 0)
(0.000453235 -0.000844773 0)
(0.000535445 -0.000831929 0)
(0.000616314 -0.000816759 0)
(0.000695637 -0.000799476 0)
(0.00077322 -0.000780158 0)
(0.000848875 -0.000758856 0)
(0.000922416 -0.000735621 0)
(0.000993661 -0.000710507 0)
(0.00106244 -0.000683571 0)
(0.00112857 -0.000654873 0)
(0.00119189 -0.00062448 0)
(0.00125224 -0.00059246 0)
(0.00130946 -0.000558888 0)
(0.00136341 -0.000523839 0)
(0.00141393 -0.000487395 0)
(0.00146091 -0.00044964 0)
(0.0015042 -0.000410663 0)
(0.00154369 -0.000370555 0)
(0.00157926 -0.000329411 0)
(0.00161081 -0.000287329 0)
(0.00163824 -0.00024441 0)
(0.00166147 -0.000200759 0)
(0.00168042 -0.000156481 0)
(0.00169502 -0.000111686 0)
(0.00170522 -6.64871e-05 0)
(0.00171096 -2.09979e-05 0)
(0.00171218 2.46636e-05 0)
(0.00170895 7.03681e-05 0)
(0.0017012 0.000116003 0)
(0.00168893 0.000161457 0)
(0.00167215 0.000206615 0)
(0.00165088 0.000251352 0)
(0.00162515 0.000295543 0)
(0.001595 0.000339062 0)
(0.00156051 0.000381787 0)
(0.00152173 0.000423598 0)
(0.00147876 0.000464379 0)
(0.00143168 0.000504015 0)
(0.00138061 0.000542397 0)
(0.00132567 0.000579417 0)
(0.001267 0.00061497 0)
(0.00120473 0.000648957 0)
(0.00113902 0.000681281 0)
(0.00107005 0.000711853 0)
(0.000997982 0.000740586 0)
(0.000923008 0.000767399 0)
(0.000845326 0.000792218 0)
(0.000765139 0.000814974 0)
(0.000682662 0.000835604 0)
(0.000598115 0.00085405 0)
(0.000511727 0.000870264 0)
(0.000423731 0.0008842 0)
(0.000334363 0.000895821 0)
(0.000243861 0.000905094 0)
(0.000152522 0.000911985 0)
(6.07191e-05 0.000916443 0)
(-3.19233e-05 0.000918408 0)
(-0.000124588 0.000917816 0)
(-0.000216599 0.000914638 0)
(-0.000308293 0.000908908 0)
(-0.000399363 0.000900675 0)
(-0.000489441 0.000889986 0)
(-0.000578262 0.000876883 0)
(-0.000665587 0.00086141 0)
(-0.000751174 0.000843613 0)
(-0.000834788 0.00082355 0)
(-0.000916199 0.00080128 0)
(-0.000995183 0.000776872 0)
(-0.00107153 0.000750401 0)
(-0.00114503 0.000721944 0)
(-0.0012155 0.000691588 0)
(-0.00128274 0.000659423 0)
(-0.00134659 0.000625545 0)
(-0.00140688 0.000590051 0)
(-0.00146346 0.000553047 0)
(-0.00151619 0.000514638 0)
(-0.00156495 0.000474936 0)
(-0.00160962 0.000434054 0)
(-0.00165009 0.000392106 0)
(-0.00168628 0.000349212 0)
(-0.00171811 0.000305491 0)
(-0.00174551 0.000261065 0)
(-0.00176844 0.000216057 0)
(-0.00178684 0.000170591 0)
(-0.00180071 0.000124789 0)
(-0.00181002 7.87602e-05 0)
(-0.00181476 3.26027e-05 0)
(-0.00181496 -1.35829e-05 0)
(-0.0018106 -5.96875e-05 0)
(-0.00180171 -0.000105607 0)
(-0.00178833 -0.00015122 0)
(-0.00177053 -0.000196408 0)
(-0.00174835 -0.000241055 0)
(-0.00172187 -0.000285051 0)
(-0.00169118 -0.000328284 0)
(-0.00165635 -0.00037065 0)
(-0.0016175 -0.000412045 0)
(-0.00157473 -0.00045237 0)
(-0.00152815 -0.00049153 0)
(-0.0014779 -0.000529433 0)
(-0.00142409 -0.000565991 0)
(-0.00136688 -0.00060112 0)
(-0.0013064 -0.000634741 0)
(-0.00124281 -0.000666778 0)
(-0.00117627 -0.000697158 0)
(-0.00110693 -0.000725815 0)
(-0.00103497 -0.000752686 0)
(-0.000960567 -0.000777711 0)
(-0.000883888 -0.000800837 0)
(-0.00080512 -0.000822013 0)
(-0.000724448 -0.000841191 0)
(-0.000642062 -0.000858323 0)
(-0.000558156 -0.000873334 0)
(-0.000472935 -0.000886015 0)
(-0.000386637 -0.000895572 0)
(-0.000299613 -0.000898982 0)
(-0.00021265 -0.000885895 0)
(-0.000127984 -0.000826326 0)
(-5.16032e-05 -0.000654174 0)
(3.50983e-06 -0.000292326 0)
(1.26757e-05 0.000137234 0)
(-1.34538e-05 0.000173699 0)
(-6.06621e-06 -0.000319687 0)
(4.9317e-05 -0.000743249 0)
(0.000126939 -0.000945347 0)
(0.000213261 -0.00101524 0)
(0.000302008 -0.00103041 0)
(0.000390817 -0.00102607 0)
(0.000478845 -0.00101444 0)
(0.000565713 -0.000999087 0)
(0.000651168 -0.000980957 0)
(0.000734997 -0.000960308 0)
(0.000816995 -0.000937231 0)
(0.000896965 -0.000911788 0)
(0.000974712 -0.000884038 0)
(0.00105005 -0.000854042 0)
(0.00112278 -0.000821867 0)
(0.00119274 -0.000787585 0)
(0.00125974 -0.000751271 0)
(0.00132362 -0.000713007 0)
(0.00138421 -0.000672877 0)
(0.00144136 -0.000630972 0)
(0.0014949 -0.000587385 0)
(0.00154471 -0.000542217 0)
(0.00159064 -0.000495571 0)
(0.00163256 -0.000447553 0)
(0.00167035 -0.000398276 0)
(0.00170391 -0.000347855 0)
(0.00173313 -0.000296411 0)
(0.00175791 -0.000244065 0)
(0.00177817 -0.000190946 0)
(0.00179385 -0.000137182 0)
(0.00180487 -8.29072e-05 0)
(0.00181117 -2.82585e-05 0)
(0.00181271 2.66239e-05 0)
(0.00180953 8.15814e-05 0)
(0.00180157 0.000136481 0)
(0.00178883 0.000191192 0)
(0.00177131 0.000245577 0)
(0.00174903 0.000299488 0)
(0.00172204 0.000352775 0)
(0.00169037 0.000405283 0)
(0.00165409 0.000456863 0)
(0.00161327 0.000507369 0)
(0.00156799 0.000556659 0)
(0.00151837 0.000604592 0)
(0.00146451 0.000651034 0)
(0.00140654 0.000695851 0)
(0.00134461 0.000738917 0)
(0.00127886 0.000780107 0)
(0.00120947 0.000819303 0)
(0.0011366 0.000856393 0)
(0.00106045 0.000891269 0)
(0.00098121 0.000923833 0)
(0.000899094 0.00095399 0)
(0.000814318 0.000981653 0)
(0.000727108 0.00100675 0)
(0.000637699 0.00102919 0)
(0.000546331 0.00104894 0)
(0.000453254 0.00106592 0)
(0.000358715 0.00108009 0)
(0.000262969 0.0010914 0)
(0.000166325 0.00109982 0)
(6.91752e-05 0.00110528 0)
(-2.88428e-05 0.00110774 0)
(-0.000126948 0.00110705 0)
(-0.000224304 0.0011032 0)
(-0.000321342 0.00109626 0)
(-0.000417726 0.00108627 0)
(-0.000513054 0.00107329 0)
(-0.000607048 0.00105739 0)
(-0.000699454 0.00103862 0)
(-0.000790017 0.00101703 0)
(-0.000878487 0.000992691 0)
(-0.000964619 0.000965686 0)
(-0.00104818 0.000936096 0)
(-0.00112894 0.000904015 0)
(-0.00120669 0.000869539 0)
(-0.00128121 0.000832775 0)
(-0.00135232 0.000793834 0)
(-0.00141983 0.000752834 0)
(-0.00148356 0.000709897 0)
(-0.00154337 0.000665151 0)
(-0.0015991 0.000618726 0)
(-0.00165061 0.000570759 0)
(-0.00169779 0.000521388 0)
(-0.00174053 0.000470754 0)
(-0.00177873 0.000419001 0)
(-0.00181231 0.000366274 0)
(-0.00184121 0.000312722 0)
(-0.00186537 0.000258496 0)
(-0.00188475 0.000203746 0)
(-0.00189932 0.000148614 0)
(-0.00190908 9.32291e-05 0)
(-0.00191401 3.77079e-05 0)
(-0.00191412 -1.78227e-05 0)
(-0.00190943 -7.32252e-05 0)
(-0.00189994 -0.000128373 0)
(-0.00188572 -0.000183121 0)
(-0.00186682 -0.000237329 0)
(-0.00184331 -0.000290861 0)
(-0.00181526 -0.000343582 0)
(-0.00178277 -0.000395365 0)
(-0.00174594 -0.000446084 0)
(-0.00170486 -0.00049562 0)
(-0.00165965 -0.000543854 0)
(-0.00161045 -0.000590676 0)
(-0.00155737 -0.000635978 0)
(-0.00150057 -0.000679658 0)
(-0.00144018 -0.000721617 0)
(-0.00137636 -0.000761763 0)
(-0.00130928 -0.000800008 0)
(-0.0012391 -0.000836267 0)
(-0.00116598 -0.000870464 0)
(-0.00109012 -0.000902524 0)
(-0.00101168 -0.00093238 0)
(-0.000930858 -0.000959968 0)
(-0.000847846 -0.000985229 0)
(-0.000762835 -0.00100811 0)
(-0.000676026 -0.00102855 0)
(-0.000587621 -0.00104647 0)
(-0.000497836 -0.0010616 0)
(-0.000406922 -0.00107301 0)
(-0.000315257 -0.00107709 0)
(-0.000223683 -0.00106159 0)
(-0.000134578 -0.000991116 0)
(-5.42496e-05 -0.000787551 0)
(3.66166e-06 -0.000358957 0)
(1.32997e-05 0.000154125 0)
(-1.41777e-05 0.000193886 0)
(-6.08652e-06 -0.000385317 0)
(5.27583e-05 -0.000878738 0)
(0.000135168 -0.00111388 0)
(0.000226847 -0.0011953 0)