/*--------------------------------*- C++ -*----------------------------------*\
| =========                 |                                                 |
| \\      /  F ield         | OpenFOAM: The Open Source CFD Toolbox           |
|  \\    /   O peration     | Version:  2206                                  |
|   \\  /    A nd           | Website:  www.openfoam.com                      |
|    \\/     M anipulation  |                                                 |
\*---------------------------------------------------------------------------*/
FoamFile
{
    version     2.0;
    format      ascii;
    arch        "LSB;label=64;scalar=64";
    class       volVectorField;
    location    "615600";
    object      U;
}
// * * * * * * * * * * * * * * * * * * * * * * * * * * * * * * * * * * * * * //

dimensions      [0 1 -1 0 0 0 0];

internalField   nonuniform List<vector> 
16
(
(2.05805e-07 -1.52586e-07 0)
(3.11837e-07 1.30947e-08 0)
(1.32543e-07 6.52184e-08 0)
(4.29887e-08 7.27572e-08 0)
(7.60395e-08 -3.70117e-07 0)
(8.53777e-08 7.21247e-08 0)
(-2.99362e-08 1.97016e-07 0)
(-2.24256e-08 1.02234e-07 0)
(-9.56396e-08 -3.13271e-07 0)
(-1.76119e-07 1.20753e-07 0)
(-8.3076e-08 1.69307e-07 0)
(-1.46984e-08 2.50083e-08 0)
(-1.87408e-07 -1.01848e-07 0)
(-2.19761e-07 5.50998e-08 0)
(-2.11894e-08 4.11172e-08 0)
(-5.16564e-09 1.98665e-09 0)
)
;

boundaryField
{
    movingWall
    {
        type            noSlip;
    }
    fixedWalls
    {
        type            noSlip;
    }
    frontAndBack
    {
        type            empty;
    }
}


// ************************************************************************* //
