/*--------------------------------*- C++ -*----------------------------------*\
| =========                 |                                                 |
| \\      /  F ield         | OpenFOAM: The Open Source CFD Toolbox           |
|  \\    /   O peration     | Version:  2206                                  |
|   \\  /    A nd           | Website:  www.openfoam.com                      |
|    \\/     M anipulation  |                                                 |
\*---------------------------------------------------------------------------*/
FoamFile
{
    version     2.0;
    format      ascii;
    arch        "LSB;label=64;scalar=64";
    class       volVectorField;
    location    "622800";
    object      U;
}
// * * * * * * * * * * * * * * * * * * * * * * * * * * * * * * * * * * * * * //

dimensions      [0 1 -1 0 0 0 0];

internalField   nonuniform List<vector> 
16
(
(1.72214e-07 -1.22599e-07 0)
(2.79804e-07 2.08445e-09 0)
(1.13936e-07 5.55756e-08 0)
(2.64282e-08 6.18703e-08 0)
(7.5222e-08 -3.34134e-07 0)
(9.76573e-08 5.64689e-08 0)
(-3.21237e-08 2.03265e-07 0)
(-3.24228e-08 7.51981e-08 0)
(-8.57574e-08 -2.89722e-07 0)
(-1.70637e-07 1.10739e-07 0)
(-7.65278e-08 1.8323e-07 0)
(-5.5445e-09 -1.05156e-09 0)
(-1.63171e-07 -8.52577e-08 0)
(-2.05966e-07 4.74777e-08 0)
(-7.69506e-09 3.92934e-08 0)
(1.50204e-08 -6.76519e-09 0)
)
;

boundaryField
{
    movingWall
    {
        type            noSlip;
    }
    fixedWalls
    {
        type            noSlip;
    }
    frontAndBack
    {
        type            empty;
    }
}


// ************************************************************************* //
