/*--------------------------------*- C++ -*----------------------------------*\
| =========                 |                                                 |
| \\      /  F ield         | OpenFOAM: The Open Source CFD Toolbox           |
|  \\    /   O peration     | Version:  2212                                  |
|   \\  /    A nd           | Website:  www.openfoam.com                      |
|    \\/     M anipulation  |                                                 |
\*---------------------------------------------------------------------------*/
FoamFile
{
    version     2.0;
    format      ascii;
    arch        "LSB;label=64;scalar=64";
    class       volScalarField;
    location    "350";
    object      Saa;
}
// * * * * * * * * * * * * * * * * * * * * * * * * * * * * * * * * * * * * * //

dimensions      [1 -3 0 0 0 0 0];

internalField   nonuniform List<scalar> 
1024
(
0.00548611
0.00548612
0.00548612
0.00548614
0.00548616
0.00548618
0.00548621
0.00548624
0.00548627
0.00548629
0.00548632
0.00548634
0.00548634
0.00548633
0.00548627
0.00548615
0.005486
0.00548586
0.00548574
0.00548564
0.00548556
0.00548551
0.00548547
0.00548544
0.00548542
0.0054854
0.00548539
0.00548538
0.00548537
0.00548536
0.00548536
0.00548536
0.00548612
0.00548612
0.00548613
0.00548614
0.00548616
0.00548618
0.00548621
0.00548624
0.00548627
0.0054863
0.00548632
0.00548634
0.00548635
0.00548633
0.00548627
0.00548616
0.005486
0.00548586
0.00548574
0.00548564
0.00548556
0.00548551
0.00548547
0.00548544
0.00548542
0.0054854
0.00548539
0.00548538
0.00548537
0.00548536
0.00548536
0.00548536
0.00548612
0.00548612
0.00548613
0.00548614
0.00548616
0.00548619
0.00548621
0.00548624
0.00548627
0.0054863
0.00548633
0.00548635
0.00548636
0.00548634
0.00548628
0.00548616
0.00548601
0.00548586
0.00548573
0.00548563
0.00548556
0.0054855
0.00548546
0.00548544
0.00548542
0.0054854
0.00548539
0.00548537
0.00548537
0.00548536
0.00548536
0.00548536
0.00548612
0.00548612
0.00548613
0.00548614
0.00548616
0.00548619
0.00548622
0.00548625
0.00548628
0.00548631
0.00548634
0.00548636
0.00548638
0.00548636
0.0054863
0.00548617
0.005486
0.00548585
0.00548572
0.00548562
0.00548554
0.00548549
0.00548545
0.00548542
0.00548541
0.00548539
0.00548538
0.00548537
0.00548536
0.00548536
0.00548536
0.00548535
0.00548612
0.00548612
0.00548613
0.00548615
0.00548617
0.0054862
0.00548623
0.00548626
0.00548629
0.00548632
0.00548635
0.00548638
0.0054864
0.0054864
0.00548633
0.00548618
0.005486
0.00548583
0.00548569
0.00548559
0.00548551
0.00548546
0.00548543
0.0054854
0.00548539
0.00548538
0.00548537
0.00548537
0.00548536
0.00548536
0.00548535
0.00548535
0.00548612
0.00548612
0.00548613
0.00548615
0.00548617
0.0054862
0.00548623
0.00548626
0.00548629
0.00548633
0.00548637
0.00548641
0.00548644
0.00548644
0.00548637
0.00548619
0.00548598
0.00548579
0.00548565
0.00548554
0.00548546
0.00548541
0.00548538
0.00548537
0.00548536
0.00548536
0.00548536
0.00548536
0.00548535
0.00548535
0.00548535
0.00548535
0.00548612
0.00548612
0.00548613
0.00548615
0.00548617
0.0054862
0.00548623
0.00548626
0.00548629
0.00548633
0.00548638
0.00548643
0.00548648
0.0054865
0.00548642
0.00548621
0.00548595
0.00548573
0.00548557
0.00548545
0.00548538
0.00548533
0.00548531
0.00548531
0.00548532
0.00548533
0.00548534
0.00548534
0.00548534
0.00548534
0.00548534
0.00548534
0.00548612
0.00548612
0.00548613
0.00548615
0.00548617
0.00548619
0.00548622
0.00548625
0.00548628
0.00548633
0.00548638
0.00548645
0.00548653
0.00548657
0.00548648
0.00548623
0.0054859
0.00548564
0.00548545
0.00548533
0.00548525
0.00548522
0.00548522
0.00548523
0.00548526
0.00548528
0.0054853
0.00548532
0.00548532
0.00548533
0.00548533
0.00548533
0.00548612
0.00548612
0.00548613
0.00548614
0.00548616
0.00548618
0.0054862
0.00548623
0.00548626
0.00548631
0.00548637
0.00548646
0.00548657
0.00548664
0.00548655
0.00548624
0.00548584
0.00548552
0.0054853
0.00548516
0.00548509
0.00548507
0.00548508
0.00548512
0.00548517
0.00548522
0.00548526
0.00548528
0.0054853
0.00548531
0.00548531
0.00548531
0.00548611
0.00548611
0.00548612
0.00548613
0.00548614
0.00548616
0.00548618
0.0054862
0.00548623
0.00548627
0.00548634
0.00548645
0.0054866
0.00548672
0.00548663
0.00548626
0.00548576
0.00548536
0.00548509
0.00548494
0.00548487
0.00548487
0.00548491
0.00548498
0.00548506
0.00548514
0.0054852
0.00548524
0.00548527
0.00548528
0.00548529
0.00548529
0.00548609
0.0054861
0.0054861
0.00548611
0.00548612
0.00548613
0.00548614
0.00548616
0.00548618
0.00548622
0.00548629
0.00548642
0.00548663
0.0054868
0.00548671
0.00548626
0.00548564
0.00548515
0.00548484
0.00548467
0.00548461
0.00548463
0.00548471
0.00548482
0.00548494
0.00548504
0.00548513
0.00548519
0.00548523
0.00548525
0.00548526
0.00548526
0.00548607
0.00548608
0.00548608
0.00548609
0.00548609
0.0054861
0.0054861
0.00548611
0.00548612
0.00548615
0.00548623
0.00548641
0.00548668
0.0054869
0.00548679
0.00548623
0.00548548
0.00548489
0.00548453
0.00548435
0.0054843
0.00548436
0.00548448
0.00548464
0.00548479
0.00548494
0.00548505
0.00548513
0.00548518
0.00548521
0.00548522
0.00548522
0.00548604
0.00548604
0.00548605
0.00548606
0.00548606
0.00548606
0.00548606
0.00548606
0.00548606
0.0054861
0.0054862
0.00548644
0.00548679
0.00548704
0.00548685
0.00548614
0.00548524
0.00548455
0.00548415
0.00548397
0.00548396
0.00548406
0.00548423
0.00548443
0.00548464
0.00548482
0.00548496
0.00548506
0.00548512
0.00548516
0.00548517
0.00548517
0.00548599
0.00548599
0.005486
0.005486
0.00548601
0.00548601
0.00548601
0.00548601
0.00548602
0.00548609
0.00548626
0.0054866
0.00548702
0.00548722
0.00548686
0.00548593
0.00548489
0.00548413
0.00548371
0.00548356
0.00548359
0.00548375
0.00548397
0.00548422
0.00548447
0.00548469
0.00548486
0.00548498
0.00548505
0.00548509
0.0054851
0.0054851
0.00548597
0.00548597
0.00548596
0.00548595
0.00548595
0.00548595
0.00548596
0.005486
0.00548609
0.00548627
0.00548659
0.00548704
0.00548744
0.00548741
0.00548672
0.00548553
0.00548438
0.00548362
0.00548325
0.00548315
0.00548324
0.00548345
0.00548373
0.00548403
0.00548432
0.00548457
0.00548476
0.0054849
0.00548497
0.00548501
0.00548503
0.00548503
0.00548644
0.00548644
0.00548642
0.00548641
0.0054864
0.00548642
0.00548649
0.00548662
0.00548683
0.00548715
0.00548754
0.0054879
0.00548795
0.0054874
0.00548626
0.00548489
0.00548377
0.00548313
0.00548287
0.00548286
0.00548302
0.00548327
0.00548358
0.00548391
0.00548421
0.00548446
0.00548466
0.00548478
0.00548486
0.0054849
0.00548491
0.00548492
0.00548793
0.00548794
0.00548795
0.00548798
0.00548802
0.00548809
0.00548819
0.00548834
0.00548853
0.00548871
0.00548879
0.00548859
0.00548794
0.00548685
0.00548554
0.00548431
0.00548344
0.005483
0.00548288
0.00548297
0.00548318
0.00548347
0.00548378
0.00548408
0.00548435
0.00548455
0.00548469
0.00548478
0.00548482
0.00548484
0.00548484
0.00548484
0.00548943
0.00548945
0.00548948
0.00548952
0.00548957
0.00548962
0.00548966
0.00548967
0.00548961
0.00548943
0.00548904
0.00548839
0.00548751
0.0054865
0.00548547
0.00548451
0.00548381
0.00548346
0.0054834
0.00548351
0.0054837
0.00548391
0.00548411
0.00548428
0.00548441
0.00548449
0.00548456
0.00548461
0.00548467
0.00548474
0.00548479
0.00548482
0.00549025
0.00549026
0.00549028
0.0054903
0.00549031
0.0054903
0.00549026
0.00549015
0.00548996
0.00548965
0.0054892
0.00548863
0.00548794
0.00548717
0.00548634
0.0054855
0.00548482
0.00548443
0.00548428
0.00548427
0.00548431
0.00548437
0.00548445
0.00548456
0.0054847
0.00548491
0.00548517
0.00548547
0.00548579
0.00548606
0.00548625
0.00548634
0.00549069
0.00549069
0.0054907
0.00549071
0.00549071
0.0054907
0.00549066
0.00549057
0.00549042
0.0054902
0.0054899
0.00548952
0.00548906
0.00548851
0.00548788
0.00548721
0.00548664
0.00548634
0.0054863
0.00548645
0.00548674
0.00548713
0.0054876
0.0054881
0.00548863
0.00548915
0.00548964
0.00549007
0.0054904
0.00549062
0.00549074
0.00549078
0.00549097
0.00549098
0.00549099
0.00549101
0.00549103
0.00549106
0.00549108
0.00549109
0.00549106
0.005491
0.00549089
0.00549072
0.00549049
0.00549017
0.00548979
0.00548939
0.00548911
0.00548915
0.00548954
0.00549023
0.00549112
0.00549213
0.00549314
0.00549408
0.00549486
0.00549546
0.00549586
0.00549605
0.00549606
0.00549597
0.00549585
0.00549578
0.00549119
0.0054912
0.00549122
0.00549125
0.0054913
0.00549138
0.00549148
0.00549159
0.00549169
0.00549179
0.00549186
0.00549189
0.00549186
0.00549177
0.00549161
0.00549145
0.00549145
0.00549182
0.00549257
0.00549362
0.00549483
0.00549603
0.00549709
0.00549793
0.00549853
0.00549891
0.00549911
0.00549914
0.00549906
0.00549892
0.00549877
0.00549868
0.0054914
0.0054914
0.00549142
0.00549146
0.00549153
0.00549164
0.00549179
0.00549198
0.0054922
0.00549242
0.00549265
0.00549285
0.005493
0.00549309
0.0054931
0.0054931
0.00549323
0.00549371
0.00549456
0.00549565
0.00549679
0.00549781
0.00549859
0.00549912
0.00549945
0.00549965
0.00549976
0.00549981
0.00549982
0.00549978
0.00549973
0.00549969
0.00549162
0.00549162
0.00549163
0.00549166
0.00549174
0.00549187
0.00549205
0.0054923
0.00549259
0.00549292
0.00549326
0.00549359
0.00549389
0.00549412
0.00549427
0.00549437
0.00549452
0.00549494
0.00549567
0.00549661
0.00549755
0.00549833
0.00549889
0.00549926
0.00549949
0.00549964
0.00549976
0.00549983
0.00549988
0.00549991
0.00549991
0.00549991
0.00549191
0.0054919
0.0054919
0.00549192
0.00549199
0.00549213
0.00549234
0.00549262
0.00549297
0.00549336
0.00549378
0.0054942
0.00549459
0.00549494
0.0054952
0.00549537
0.00549552
0.00549581
0.00549636
0.00549707
0.0054978
0.0054984
0.00549885
0.00549916
0.00549938
0.00549955
0.00549969
0.00549979
0.00549987
0.00549991
0.00549993
0.00549994
0.00549232
0.0054923
0.00549228
0.00549229
0.00549235
0.0054925
0.00549273
0.00549304
0.00549342
0.00549386
0.00549432
0.00549479
0.00549524
0.00549564
0.00549597
0.0054962
0.00549635
0.00549655
0.0054969
0.0054974
0.00549794
0.00549841
0.00549879
0.00549907
0.0054993
0.00549948
0.00549964
0.00549976
0.00549985
0.00549991
0.00549994
0.00549995
0.00549289
0.00549286
0.00549282
0.00549282
0.00549289
0.00549305
0.00549331
0.00549365
0.00549405
0.00549449
0.00549497
0.00549544
0.0054959
0.00549632
0.00549667
0.00549693
0.00549709
0.00549722
0.00549744
0.00549777
0.00549815
0.00549851
0.00549881
0.00549907
0.00549928
0.00549946
0.00549962
0.00549975
0.00549985
0.00549992
0.00549995
0.00549996
0.00549365
0.0054936
0.00549356
0.00549358
0.00549368
0.00549387
0.00549414
0.00549449
0.00549488
0.00549531
0.00549575
0.00549619
0.00549662
0.00549701
0.00549734
0.0054976
0.00549775
0.00549785
0.00549798
0.00549818
0.00549844
0.0054987
0.00549894
0.00549915
0.00549933
0.00549949
0.00549964
0.00549976
0.00549986
0.00549993
0.00549996
0.00549997
0.00549462
0.00549457
0.00549456
0.00549462
0.00549475
0.00549497
0.00549524
0.00549556
0.00549592
0.00549629
0.00549666
0.00549703
0.00549739
0.00549771
0.00549799
0.00549821
0.00549835
0.00549842
0.0054985
0.00549863
0.00549879
0.00549897
0.00549914
0.0054993
0.00549944
0.00549957
0.00549969
0.00549979
0.00549988
0.00549994
0.00549997
0.00549998
0.00549582
0.00549579
0.00549584
0.00549595
0.00549611
0.00549631
0.00549655
0.00549681
0.00549708
0.00549736
0.00549764
0.00549792
0.00549817
0.00549841
0.00549862
0.00549879
0.00549889
0.00549895
0.00549899
0.00549907
0.00549916
0.00549928
0.00549939
0.00549949
0.00549959
0.00549968
0.00549977
0.00549984
0.00549991
0.00549995
0.00549998
0.00549999
0.00549728
0.00549731
0.0054974
0.00549752
0.00549765
0.00549779
0.00549795
0.00549812
0.00549829
0.00549846
0.00549863
0.00549879
0.00549895
0.00549909
0.00549921
0.00549931
0.00549938
0.00549941
0.00549944
0.00549947
0.00549952
0.00549958
0.00549964
0.0054997
0.00549976
0.00549981
0.00549986
0.0054999
0.00549994
0.00549997
0.00549999
0.0055
0.00549905
0.00549907
0.00549912
0.00549917
0.00549922
0.00549928
0.00549933
0.00549939
0.00549945
0.0054995
0.00549956
0.00549961
0.00549966
0.00549971
0.00549975
0.00549978
0.0054998
0.00549981
0.00549982
0.00549983
0.00549985
0.00549987
0.00549989
0.00549991
0.00549992
0.00549994
0.00549995
0.00549997
0.00549998
0.00549999
0.0055
0.0055
)
;

boundaryField
{
    movingWall
    {
        type            fixedValue;
        value           uniform 0.0055;
    }
    fixedWalls
    {
        type            zeroGradient;
    }
    floor
    {
        type            zeroGradient;
    }
    frontAndBack
    {
        type            empty;
    }
}


// ************************************************************************* //
