/*--------------------------------*- C++ -*----------------------------------*\
| =========                 |                                                 |
| \\      /  F ield         | OpenFOAM: The Open Source CFD Toolbox           |
|  \\    /   O peration     | Version:  2212                                  |
|   \\  /    A nd           | Website:  www.openfoam.com                      |
|    \\/     M anipulation  |                                                 |
\*---------------------------------------------------------------------------*/
FoamFile
{
    version     2.0;
    format      ascii;
    arch        "LSB;label=64;scalar=64";
    class       volScalarField;
    location    "350";
    object      Sch4;
}
// * * * * * * * * * * * * * * * * * * * * * * * * * * * * * * * * * * * * * //

dimensions      [1 -3 0 0 0 0 0];

internalField   nonuniform List<scalar> 
1024
(
0.0394468
0.0394502
0.0394584
0.0394726
0.0394937
0.0395215
0.0395547
0.0395907
0.0396276
0.0396636
0.0396984
0.0397304
0.0397557
0.0397661
0.0397462
0.0396839
0.0395913
0.0394949
0.0394092
0.0393363
0.0392759
0.0392261
0.0391841
0.0391473
0.0391134
0.0390823
0.0390549
0.0390325
0.0390159
0.0390049
0.0389987
0.0389961
0.0394475
0.039451
0.0394594
0.0394742
0.039496
0.0395245
0.0395581
0.0395943
0.0396311
0.039667
0.0397017
0.0397339
0.0397596
0.0397705
0.0397505
0.0396874
0.039594
0.039497
0.0394109
0.0393377
0.0392771
0.0392272
0.0391854
0.0391488
0.0391151
0.039084
0.0390564
0.0390338
0.0390168
0.0390055
0.0389991
0.0389964
0.0394488
0.0394525
0.0394615
0.0394773
0.0395003
0.0395299
0.0395641
0.0396003
0.0396369
0.0396727
0.0397078
0.039741
0.0397685
0.0397812
0.0397612
0.0396954
0.0395992
0.0395002
0.0394128
0.0393389
0.039278
0.0392281
0.0391866
0.0391506
0.0391175
0.0390868
0.0390591
0.039036
0.0390184
0.0390066
0.0389998
0.038997
0.0394506
0.0394546
0.0394644
0.0394813
0.0395056
0.0395363
0.039571
0.039607
0.0396434
0.0396793
0.0397156
0.0397513
0.039783
0.0398001
0.0397804
0.0397089
0.0396061
0.0395026
0.0394127
0.0393375
0.0392761
0.0392264
0.0391857
0.039151
0.0391192
0.0390894
0.0390621
0.0390386
0.0390205
0.0390081
0.0390009
0.0389979
0.0394526
0.039457
0.0394674
0.0394852
0.0395106
0.0395419
0.0395765
0.0396121
0.0396481
0.0396847
0.0397234
0.0397641
0.0398035
0.0398285
0.0398098
0.0397285
0.0396137
0.0395018
0.039407
0.0393295
0.0392675
0.0392185
0.0391795
0.0391471
0.0391177
0.03909
0.0390638
0.0390407
0.0390223
0.0390095
0.0390021
0.0389989
0.0394543
0.0394588
0.0394695
0.0394877
0.0395133
0.0395444
0.0395783
0.0396129
0.0396486
0.0396863
0.0397288
0.0397773
0.0398288
0.0398665
0.0398501
0.0397547
0.0396206
0.0394946
0.0393916
0.0393102
0.0392473
0.0391998
0.0391637
0.0391352
0.0391099
0.0390858
0.0390623
0.0390407
0.0390229
0.0390102
0.0390027
0.0389995
0.0394548
0.0394592
0.0394698
0.0394876
0.0395122
0.0395419
0.039574
0.0396069
0.0396417
0.0396807
0.0397281
0.039787
0.0398554
0.0399118
0.0399007
0.0397871
0.0396249
0.0394774
0.0393618
0.0392744
0.0392104
0.0391651
0.0391338
0.0391114
0.0390925
0.0390743
0.0390554
0.0390369
0.039021
0.0390093
0.0390021
0.0389991
0.0394531
0.0394574
0.0394673
0.0394837
0.0395061
0.0395329
0.0395618
0.0395918
0.0396247
0.0396642
0.0397165
0.039788
0.0398786
0.039961
0.0399592
0.0398241
0.0396243
0.0394465
0.039313
0.0392171
0.0391515
0.0391098
0.0390856
0.0390721
0.0390626
0.039053
0.0390412
0.0390279
0.0390154
0.0390056
0.0389994
0.0389966
0.0394483
0.0394524
0.0394612
0.0394754
0.0394944
0.0395168
0.0395407
0.0395659
0.0395948
0.0396329
0.0396893
0.0397748
0.0398938
0.0400111
0.0400233
0.039863
0.0396151
0.0393976
0.0392404
0.0391337
0.0390668
0.0390306
0.0390162
0.0390151
0.0390184
0.0390205
0.0390185
0.0390127
0.0390052
0.0389984
0.0389935
0.038991
0.0394392
0.039443
0.0394506
0.0394621
0.0394767
0.0394932
0.0395104
0.0395285
0.0395509
0.039585
0.0396439
0.0397456
0.0399012
0.0400628
0.0400919
0.0398999
0.0395924
0.0393254
0.0391393
0.0390205
0.0389535
0.0389254
0.0389247
0.0389397
0.0389595
0.0389766
0.0389871
0.0389907
0.0389896
0.0389865
0.0389833
0.0389813
0.0394241
0.0394277
0.0394342
0.039443
0.0394529
0.0394628
0.0394719
0.0394809
0.0394946
0.0395227
0.0395838
0.0397066
0.0399096
0.0401236
0.0401661
0.0399296
0.0395485
0.0392225
0.0390039
0.0388734
0.0388095
0.038794
0.0388113
0.0388467
0.0388867
0.0389219
0.0389471
0.0389618
0.0389681
0.0389691
0.0389677
0.0389662
0.0394008
0.0394043
0.0394101
0.0394168
0.0394228
0.0394266
0.0394278
0.0394276
0.039432
0.0394544
0.0395217
0.039677
0.0399409
0.0402088
0.040248
0.0399428
0.039471
0.0390788
0.0388272
0.038689
0.0386338
0.0386366
0.0386773
0.0387375
0.0388011
0.038857
0.0388988
0.0389255
0.0389396
0.0389449
0.0389453
0.0389443
0.0393655
0.0393693
0.0393753
0.0393814
0.0393855
0.0393858
0.0393816
0.0393748
0.0393732
0.0393966
0.039485
0.0396946
0.0400333
0.0403403
0.040335
0.0399208
0.0393398
0.03888
0.0386018
0.0384646
0.0384267
0.0384554
0.038525
0.0386142
0.0387046
0.0387832
0.0388429
0.0388824
0.0389044
0.0389138
0.0389158
0.0389151
0.0393105
0.0393137
0.0393194
0.0393259
0.0393307
0.0393315
0.0393277
0.0393229
0.0393304
0.0393815
0.0395306
0.039832
0.0402479
0.0405397
0.0404068
0.039826
0.0391241
0.0386101
0.0383234
0.0382031
0.0381941
0.0382562
0.0383597
0.0384807
0.0385988
0.0386999
0.0387765
0.0388276
0.0388567
0.0388699
0.0388736
0.0388734
0.0392755
0.0392732
0.0392689
0.0392644
0.0392614
0.0392627
0.039273
0.0393035
0.0393764
0.0395314
0.0398136
0.0402326
0.0406596
0.0407913
0.0403955
0.0395944
0.0387914
0.0382656
0.038006
0.0379249
0.0379565
0.0380572
0.0381961
0.0383493
0.0384965
0.0386217
0.0387155
0.0387768
0.0388107
0.0388253
0.038829
0.0388285
0.0396437
0.0396383
0.0396282
0.0396179
0.0396161
0.0396354
0.0396918
0.0398037
0.0399928
0.0402799
0.0406594
0.0410475
0.0412257
0.0409375
0.0401579
0.0391696
0.0383614
0.0379055
0.0377205
0.0376995
0.0377767
0.0379116
0.038076
0.0382466
0.0384038
0.0385337
0.0386299
0.0386931
0.0387291
0.0387456
0.0387506
0.0387508
0.0408704
0.0408782
0.0408942
0.0409204
0.0409625
0.0410302
0.0411358
0.0412876
0.0414855
0.0417044
0.0418704
0.0418391
0.0414471
0.0406648
0.0396751
0.0387381
0.0380789
0.0377537
0.0376579
0.0376983
0.0378178
0.0379789
0.0381545
0.0383232
0.0384677
0.0385777
0.0386504
0.0386897
0.038705
0.0387076
0.0387061
0.0387047
0.0421632
0.0421813
0.0422166
0.0422669
0.0423293
0.0424013
0.0424785
0.0425487
0.0425839
0.042533
0.0423232
0.0418904
0.0412386
0.0404515
0.0396287
0.0388595
0.0382855
0.0379944
0.0379169
0.0379611
0.0380617
0.0381786
0.038287
0.0383731
0.0384323
0.0384686
0.0384943
0.038524
0.0385665
0.0386184
0.0386653
0.0386918
0.0429152
0.0429308
0.0429603
0.0430004
0.0430459
0.0430894
0.0431187
0.0431142
0.0430467
0.0428822
0.0425945
0.0421777
0.0416463
0.0410229
0.0403365
0.0396366
0.0390454
0.0386839
0.0385165
0.0384501
0.0384313
0.038438
0.0384681
0.038531
0.0386408
0.0388106
0.039045
0.0393303
0.0396277
0.0398879
0.0400691
0.0401545
0.0433257
0.0433384
0.0433642
0.0434027
0.0434515
0.0435044
0.0435488
0.0435656
0.0435322
0.0434284
0.043244
0.0429755
0.0426209
0.042179
0.041659
0.0410957
0.0405992
0.0403183
0.040267
0.0403852
0.0406394
0.0409969
0.0414313
0.0419172
0.0424277
0.0429344
0.0434082
0.0438209
0.044139
0.0443487
0.044461
0.0445032
0.0435882
0.0436009
0.0436306
0.0436814
0.0437555
0.0438495
0.0439528
0.0440481
0.0441163
0.0441418
0.0441155
0.0440293
0.0438728
0.0436387
0.0433376
0.0430183
0.0428097
0.0428827
0.0432766
0.0439495
0.0448391
0.0458469
0.0468728
0.0478292
0.0486393
0.0492667
0.0496787
0.049873
0.0498807
0.0497715
0.049639
0.0495599
0.0437792
0.0437918
0.0438245
0.043886
0.0439836
0.0441195
0.0442875
0.0444734
0.0446593
0.0448286
0.0449689
0.0450664
0.0451045
0.0450704
0.044974
0.0448782
0.044938
0.0453415
0.0461179
0.047191
0.0484342
0.0496885
0.0508209
0.0517505
0.0524417
0.0529081
0.0531625
0.05323
0.0531521
0.0529872
0.0528134
0.0527081
0.0439521
0.0439622
0.0439926
0.0440557
0.0441636
0.0443244
0.0445379
0.044795
0.0450801
0.0453758
0.0456663
0.0459324
0.0461505
0.0462971
0.0463667
0.0464093
0.0465786
0.0470836
0.0479611
0.0490911
0.0502946
0.0513971
0.0522944
0.0529641
0.0534448
0.0537826
0.0540076
0.0541344
0.0541717
0.0541354
0.0540608
0.0540012
0.0441625
0.0441662
0.0441867
0.0442412
0.0443469
0.0445174
0.044758
0.0450642
0.0454231
0.0458169
0.0462272
0.0466315
0.0470023
0.0473073
0.0475207
0.0476574
0.0478287
0.0482489
0.0490013
0.0499733
0.0509764
0.0518531
0.0525421
0.0530645
0.053474
0.0538091
0.0540818
0.054286
0.0544137
0.0544678
0.054467
0.0544467
0.0444761
0.0444676
0.0444696
0.0445063
0.0446018
0.044775
0.0450349
0.045379
0.0457944
0.0462624
0.0467617
0.047268
0.0477522
0.0481793
0.0485125
0.0487336
0.0488922
0.049173
0.0497086
0.050443
0.0512228
0.0519174
0.0524849
0.0529503
0.0533545
0.053722
0.0540512
0.0543221
0.0545142
0.0546216
0.0546586
0.054657
0.0449623
0.0449356
0.0449121
0.0449274
0.045014
0.0451946
0.0454782
0.0458592
0.0463211
0.0468422
0.047399
0.0479664
0.0485168
0.0490175
0.0494303
0.0497203
0.0498855
0.0500591
0.0503933
0.0508949
0.0514689
0.0520167
0.0524975
0.0529212
0.0533129
0.0536882
0.054043
0.0543541
0.0545921
0.0547397
0.0548032
0.0548124
0.0456817
0.0456333
0.0455859
0.0455895
0.0456826
0.0458866
0.0462039
0.0466204
0.047114
0.0476605
0.0482364
0.0488185
0.0493827
0.0499021
0.0503436
0.0506701
0.0508499
0.0509657
0.0511586
0.051476
0.0518764
0.0522937
0.0526882
0.053056
0.0534092
0.0537576
0.054099
0.0544142
0.0546723
0.0548463
0.0549309
0.0549493
0.0466775
0.0466108
0.0465582
0.0465791
0.0467064
0.0469504
0.0473012
0.0477362
0.0482308
0.0487624
0.0493107
0.0498569
0.0503826
0.0508677
0.0512873
0.0516094
0.0517927
0.0518822
0.0519918
0.052182
0.0524468
0.0527477
0.0530517
0.0533482
0.0536407
0.0539352
0.0542319
0.0545182
0.0547674
0.0549491
0.0550471
0.0550737
0.0479789
0.0479107
0.0478934
0.0479713
0.048153
0.0484319
0.0487895
0.0492032
0.0496526
0.0501205
0.0505925
0.0510556
0.0514976
0.0519049
0.0522605
0.0525406
0.0527067
0.0527805
0.0528447
0.0529545
0.0531206
0.0533239
0.0535407
0.0537597
0.0539801
0.0542053
0.0544372
0.0546699
0.0548847
0.0550535
0.0551539
0.0551861
0.0496172
0.0495834
0.0496478
0.0497968
0.0500123
0.0502833
0.0505956
0.050935
0.0512892
0.0516482
0.0520039
0.0523486
0.0526751
0.0529753
0.0532386
0.0534494
0.0535787
0.0536354
0.0536736
0.0537346
0.0538321
0.0539581
0.054098
0.0542429
0.0543907
0.0545431
0.0547022
0.0548671
0.055028
0.0551642
0.0552533
0.0552866
0.0516482
0.0516898
0.051823
0.0519834
0.0521626
0.0523597
0.0525702
0.0527888
0.0530106
0.0532313
0.0534472
0.0536546
0.05385
0.0540293
0.0541869
0.0543142
0.054394
0.0544293
0.05445
0.0544804
0.0545303
0.054597
0.0546729
0.0547527
0.0548347
0.0549195
0.0550085
0.0551027
0.0551985
0.0552857
0.0553487
0.0553759
0.0541451
0.0541813
0.0542515
0.0543208
0.0543903
0.0544621
0.0545358
0.0546105
0.0546852
0.0547587
0.0548301
0.0548983
0.0549623
0.055021
0.0550725
0.0551144
0.0551409
0.0551527
0.0551592
0.0551684
0.0551835
0.055204
0.0552276
0.0552526
0.0552783
0.0553048
0.0553326
0.0553621
0.0553928
0.055422
0.055445
0.0554563
)
;

boundaryField
{
    movingWall
    {
        type            fixedValue;
        value           uniform 0.0555;
    }
    fixedWalls
    {
        type            zeroGradient;
    }
    floor
    {
        type            zeroGradient;
    }
    frontAndBack
    {
        type            empty;
    }
}


// ************************************************************************* //
