/*--------------------------------*- C++ -*----------------------------------*\
| =========                 |                                                 |
| \\      /  F ield         | OpenFOAM: The Open Source CFD Toolbox           |
|  \\    /   O peration     | Version:  2212                                  |
|   \\  /    A nd           | Website:  www.openfoam.com                      |
|    \\/     M anipulation  |                                                 |
\*---------------------------------------------------------------------------*/
FoamFile
{
    version     2.0;
    format      ascii;
    arch        "LSB;label=64;scalar=64";
    class       volScalarField;
    location    "350";
    object      Sco2;
}
// * * * * * * * * * * * * * * * * * * * * * * * * * * * * * * * * * * * * * //

dimensions      [1 -3 0 0 0 0 0];

internalField   nonuniform List<scalar> 
1024
(
0.00639863
0.00639929
0.00640083
0.00640352
0.00640751
0.00641276
0.006419
0.0064258
0.00643274
0.00643952
0.00644607
0.0064521
0.00645689
0.00645886
0.00645511
0.0064434
0.00642601
0.0064079
0.0063918
0.00637811
0.00636677
0.00635742
0.00634953
0.00634259
0.00633618
0.00633027
0.00632505
0.00632079
0.00631762
0.00631552
0.00631433
0.00631384
0.00639877
0.00639943
0.00640104
0.00640382
0.00640794
0.00641331
0.00641964
0.00642646
0.00643339
0.00644015
0.0064467
0.00645276
0.00645763
0.00645969
0.00645594
0.00644407
0.00642652
0.00640829
0.00639212
0.00637837
0.006367
0.00635764
0.00634976
0.00634286
0.00633649
0.0063306
0.00632535
0.00632103
0.0063178
0.00631564
0.00631441
0.00631389
0.00639901
0.00639972
0.00640143
0.0064044
0.00640874
0.00641432
0.00642076
0.00642759
0.00643448
0.00644122
0.00644784
0.00645409
0.00645929
0.0064617
0.00645795
0.00644557
0.00642748
0.00640888
0.00639248
0.00637861
0.00636717
0.00635781
0.00634999
0.00634321
0.00633695
0.00633113
0.00632587
0.00632146
0.00631811
0.00631585
0.00631456
0.00631402
0.00639936
0.00640012
0.00640197
0.00640515
0.00640974
0.00641552
0.00642205
0.00642885
0.00643569
0.00644246
0.00644929
0.00645604
0.00646203
0.00646525
0.00646155
0.00644808
0.00642876
0.00640933
0.00639244
0.00637832
0.00636679
0.00635748
0.00634983
0.00634329
0.00633728
0.00633164
0.00632644
0.00632197
0.00631851
0.00631614
0.00631477
0.0063142
0.00639974
0.00640056
0.00640253
0.00640589
0.00641066
0.00641656
0.00642309
0.00642979
0.00643657
0.00644346
0.00645075
0.00645845
0.00646589
0.00647061
0.00646707
0.00645175
0.00643017
0.00640915
0.00639135
0.0063768
0.00636516
0.00635598
0.00634866
0.00634256
0.00633701
0.00633176
0.00632678
0.00632237
0.00631886
0.00631642
0.006315
0.0063144
0.00640005
0.0064009
0.00640292
0.00640635
0.00641117
0.00641702
0.0064234
0.00642992
0.00643663
0.00644374
0.00645175
0.00646091
0.00647064
0.00647775
0.00647465
0.00645665
0.00643143
0.00640775
0.00638841
0.00637314
0.00636135
0.00635245
0.00634569
0.00634033
0.00633556
0.006331
0.00632651
0.00632239
0.00631899
0.00631657
0.00631514
0.00631454
0.00640014
0.00640097
0.00640296
0.0064063
0.00641095
0.00641653
0.00642256
0.00642876
0.00643532
0.00644266
0.0064516
0.00646273
0.00647565
0.00648628
0.00648413
0.00646269
0.00643217
0.00640445
0.00638275
0.00636636
0.00635436
0.0063459
0.00634004
0.00633584
0.00633229
0.00632883
0.00632523
0.0063217
0.00631866
0.00631641
0.00631505
0.00631446
0.00639981
0.00640062
0.00640248
0.00640556
0.00640979
0.00641482
0.00642025
0.00642589
0.00643207
0.00643952
0.00644939
0.00646288
0.00648
0.00649555
0.00649511
0.00646958
0.00643194
0.00639854
0.00637347
0.00635551
0.00634324
0.00633546
0.00633094
0.00632844
0.00632665
0.00632483
0.00632256
0.00632002
0.00631762
0.00631574
0.00631455
0.00631401
0.00639889
0.00639966
0.00640132
0.00640398
0.00640756
0.00641176
0.00641625
0.00642097
0.00642641
0.00643359
0.00644422
0.00646038
0.00648288
0.00650499
0.00650714
0.00647679
0.00643008
0.0063892
0.0063597
0.00633972
0.00632723
0.00632049
0.00631786
0.00631769
0.00631833
0.00631872
0.00631831
0.00631716
0.00631571
0.00631439
0.00631344
0.00631298
0.00639716
0.00639787
0.00639931
0.00640146
0.00640421
0.00640731
0.00641051
0.00641389
0.0064181
0.00642454
0.00643566
0.0064549
0.00648431
0.00651475
0.00652
0.0064836
0.00642562
0.00637541
0.0063405
0.00631826
0.0063058
0.00630064
0.0063006
0.00630349
0.00630723
0.00631045
0.00631239
0.00631303
0.00631279
0.00631216
0.00631154
0.00631116
0.0063943
0.00639497
0.0063962
0.00639784
0.0063997
0.00640156
0.00640324
0.00640493
0.00640748
0.00641279
0.00642433
0.00644759
0.00648597
0.00652625
0.00653392
0.00648902
0.00641711
0.00635581
0.00631481
0.00629044
0.00627859
0.00627582
0.00627919
0.00628594
0.00629351
0.00630013
0.00630486
0.00630759
0.00630873
0.00630889
0.00630862
0.00630833
0.00638988
0.00639055
0.00639165
0.0063929
0.00639401
0.00639473
0.00639492
0.00639487
0.00639569
0.00639993
0.00641268
0.0064421
0.006492
0.00654236
0.00654926
0.00649128
0.00640224
0.00632847
0.00628131
0.00625554
0.00624537
0.00624611
0.00625391
0.00626535
0.00627738
0.0062879
0.00629575
0.00630075
0.00630337
0.00630434
0.00630442
0.00630422
0.00638321
0.00638392
0.00638505
0.00638621
0.00638698
0.00638702
0.00638622
0.00638492
0.00638463
0.00638907
0.00640586
0.00644559
0.00650955
0.00656717
0.00656549
0.00648682
0.00637719
0.00629074
0.00623862
0.0062131
0.00620626
0.00621189
0.00622518
0.0062421
0.00625917
0.00627399
0.00628522
0.00629263
0.00629675
0.00629851
0.00629887
0.00629873
0.00637281
0.00637343
0.0063745
0.00637572
0.00637662
0.00637678
0.00637605
0.00637515
0.0063766
0.00638633
0.00641461
0.00647169
0.00655012
0.00660462
0.00657868
0.00646856
0.0063362
0.00623962
0.006186
0.00616371
0.00616235
0.00617432
0.00619402
0.00621693
0.00623922
0.00625829
0.00627272
0.00628231
0.00628777
0.00629025
0.00629093
0.00629089
0.00636613
0.00636569
0.00636491
0.00636406
0.00636353
0.00636379
0.00636576
0.00637155
0.00638537
0.00641475
0.0064682
0.00654737
0.00662764
0.00665161
0.006576
0.00642449
0.00627325
0.00617458
0.00612612
0.00611126
0.00611757
0.0061368
0.00616317
0.00619218
0.00621993
0.00624354
0.00626121
0.00627274
0.00627911
0.00628185
0.00628254
0.00628243
0.00643513
0.00643412
0.00643226
0.00643036
0.00643009
0.00643382
0.00644455
0.00646577
0.00650161
0.00655593
0.00662764
0.00670069
0.00673365
0.0066783
0.0065306
0.0063442
0.00619226
0.00610684
0.00607245
0.00606888
0.00608373
0.00610938
0.00614053
0.0061728
0.00620248
0.00622696
0.00624507
0.00625698
0.00626374
0.00626683
0.00626776
0.0062678
0.00666556
0.00666703
0.00667008
0.00667508
0.00668311
0.00669602
0.00671611
0.00674494
0.00678247
0.00682389
0.00685513
0.00684886
0.0067743
0.00662628
0.0064396
0.00626328
0.00613948
0.00607863
0.00606094
0.00606885
0.0060916
0.00612211
0.00615531
0.00618718
0.00621444
0.00623518
0.00624889
0.00625629
0.00625917
0.00625965
0.00625935
0.00625908
0.00690888
0.0069123
0.00691899
0.00692852
0.00694039
0.00695412
0.00696888
0.00698232
0.00698915
0.00697964
0.00693997
0.00685813
0.00673501
0.00658652
0.00643146
0.00628664
0.00617874
0.00612421
0.0061099
0.00611849
0.00613768
0.00615986
0.00618041
0.00619671
0.00620791
0.00621474
0.00621955
0.00622507
0.00623302
0.00624273
0.00625151
0.00625649
0.00705067
0.00705363
0.00705924
0.00706687
0.00707558
0.00708395
0.00708968
0.00708902
0.00707647
0.0070455
0.00699121
0.00691251
0.00681218
0.00669455
0.00656509
0.00643315
0.00632183
0.00625387
0.00622248
0.00621011
0.00620669
0.00620802
0.00621373
0.00622557
0.00624624
0.00627815
0.00632223
0.00637591
0.00643188
0.00648087
0.00651497
0.00653105
0.00712813
0.00713055
0.00713546
0.00714281
0.00715215
0.0071623
0.00717088
0.00717422
0.00716805
0.00714853
0.00711372
0.007063
0.00699602
0.00691253
0.00681431
0.00670792
0.00661414
0.00656099
0.00655107
0.00657309
0.00662069
0.00668781
0.00676945
0.00686088
0.00695705
0.00705258
0.00714197
0.00721987
0.00727996
0.00731962
0.00734087
0.00734886
0.00717759
0.00718001
0.00718565
0.00719533
0.00720942
0.00722732
0.00724699
0.00726511
0.00727809
0.00728292
0.00727794
0.00726161
0.00723195
0.00718761
0.00713057
0.00707001
0.00703022
0.00704343
0.00711707
0.0072433
0.00741043
0.00759998
0.00779311
0.0079733
0.00812611
0.00824452
0.0083224
0.00835925
0.00836091
0.00834049
0.00831565
0.0083008
0.00721347
0.00721586
0.00722208
0.00723376
0.00725229
0.00727805
0.00730989
0.00734508
0.00738023
0.00741218
0.0074386
0.00745692
0.00746396
0.00745732
0.00743888
0.00742042
0.00743118
0.00750658
0.00765225
0.00785393
0.00808786
0.00832408
0.00853751
0.0087128
0.00884327
0.00893128
0.00897933
0.00899214
0.00897751
0.00894645
0.00891373
0.00889391
0.00724589
0.00724783
0.0072536
0.00726556
0.00728601
0.00731644
0.00735683
0.00740542
0.00745925
0.00751503
0.00756978
0.0076199
0.00766091
0.00768836
0.00770125
0.00770894
0.0077404
0.00783501
0.00799984
0.0082124
0.00843904
0.0086468
0.008816
0.00894232
0.00903297
0.00909664
0.00913902
0.00916288
0.00916986
0.009163
0.00914894
0.0091377
0.00728535
0.00728606
0.00728998
0.00730031
0.00732032
0.00735255
0.00739802
0.00745582
0.00752353
0.0075978
0.00767513
0.00775133
0.00782115
0.00787851
0.00791858
0.0079441
0.00797605
0.00805479
0.00819616
0.00837905
0.00856798
0.00873323
0.00886311
0.00896159
0.00903873
0.00910181
0.00915312
0.00919152
0.00921555
0.0092257
0.00922553
0.00922171
0.00734423
0.00734265
0.00734306
0.00735003
0.00736811
0.00740082
0.00744989
0.0075148
0.00759315
0.00768138
0.0077755
0.0078709
0.00796213
0.00804257
0.00810526
0.00814678
0.00817644
0.00822903
0.00832965
0.00846782
0.00861468
0.00874557
0.0088525
0.00894017
0.00901628
0.00908544
0.00914737
0.00919833
0.00923447
0.00925468
0.00926162
0.00926132
0.00743563
0.00743062
0.00742622
0.00742914
0.00744551
0.0074796
0.0075331
0.00760495
0.00769204
0.00779026
0.00789521
0.00800215
0.00810585
0.00820018
0.00827793
0.00833251
0.00836349
0.00839599
0.00845872
0.00855307
0.00866114
0.00876432
0.00885489
0.0089347
0.00900843
0.00907905
0.00914582
0.00920437
0.00924914
0.00927691
0.00928885
0.00929058
0.00757098
0.00756187
0.00755296
0.00755365
0.00757122
0.0076097
0.00766953
0.00774805
0.00784108
0.0079441
0.00805266
0.00816237
0.00826869
0.00836655
0.00844974
0.00851122
0.00854503
0.00856671
0.0086029
0.00866255
0.00873791
0.00881648
0.00889077
0.00896004
0.00902653
0.0090921
0.00915635
0.00921567
0.00926422
0.00929696
0.00931289
0.00931635
0.00775843
0.00774586
0.00773595
0.0077399
0.00776389
0.00780988
0.00787599
0.00795799
0.00805122
0.00815142
0.00825478
0.00835772
0.00845679
0.0085482
0.00862725
0.00868794
0.00872244
0.00873923
0.00875976
0.00879549
0.0088453
0.00890194
0.00895918
0.009015
0.00907007
0.00912551
0.00918135
0.00923522
0.00928212
0.00931631
0.00933476
0.00933975
0.00800348
0.00799062
0.00798736
0.00800203
0.00803624
0.0080888
0.00815619
0.00823416
0.00831885
0.00840704
0.00849601
0.0085833
0.0086666
0.00874336
0.00881036
0.00886314
0.00889443
0.00890829
0.00892029
0.00894092
0.00897214
0.00901039
0.00905121
0.00909244
0.00913393
0.00917633
0.00921997
0.00926377
0.0093042
0.00933596
0.00935485
0.00936091
0.008312
0.00830565
0.00831775
0.0083458
0.0083864
0.00843744
0.00849629
0.00856024
0.008627
0.00869468
0.00876172
0.00882669
0.00888822
0.00894479
0.00899441
0.00903414
0.00905848
0.00906915
0.0090763
0.00908774
0.00910606
0.00912977
0.0091561
0.00918338
0.00921121
0.00923989
0.00926985
0.00930089
0.00933115
0.00935679
0.00937357
0.00937982
0.00869453
0.00870236
0.00872745
0.00875763
0.0087914
0.00882852
0.00886818
0.00890938
0.00895118
0.00899278
0.00903346
0.00907256
0.00910938
0.00914317
0.00917286
0.00919686
0.00921188
0.00921854
0.00922241
0.0092281
0.00923748
0.00925003
0.00926432
0.00927934
0.00929477
0.00931073
0.00932749
0.00934521
0.00936325
0.00937966
0.00939152
0.00939664
0.00916481
0.00917163
0.00918485
0.00919789
0.00921098
0.0092245
0.00923839
0.00925247
0.00926654
0.0092804
0.00929385
0.00930671
0.00931878
0.00932983
0.00933955
0.00934743
0.00935242
0.00935465
0.00935588
0.00935758
0.00936043
0.00936429
0.00936873
0.00937343
0.00937826
0.00938325
0.00938848
0.00939405
0.00939983
0.00940532
0.00940964
0.00941177
)
;

boundaryField
{
    movingWall
    {
        type            fixedValue;
        value           uniform 0.00942;
    }
    fixedWalls
    {
        type            zeroGradient;
    }
    floor
    {
        type            zeroGradient;
    }
    frontAndBack
    {
        type            empty;
    }
}


// ************************************************************************* //
