/*--------------------------------*- C++ -*----------------------------------*\
| =========                 |                                                 |
| \\      /  F ield         | OpenFOAM: The Open Source CFD Toolbox           |
|  \\    /   O peration     | Version:  2212                                  |
|   \\  /    A nd           | Website:  www.openfoam.com                      |
|    \\/     M anipulation  |                                                 |
\*---------------------------------------------------------------------------*/
FoamFile
{
    version     2.0;
    format      ascii;
    arch        "LSB;label=64;scalar=64";
    class       volScalarField;
    location    "350";
    object      Xpr;
}
// * * * * * * * * * * * * * * * * * * * * * * * * * * * * * * * * * * * * * //

dimensions      [1 -3 0 0 0 0 0];

internalField   nonuniform List<scalar> 
1024
(
0.0824632
0.0824636
0.0824645
0.082466
0.0824683
0.0824713
0.0824749
0.0824788
0.0824827
0.0824866
0.0824902
0.0824935
0.082496
0.0824967
0.0824938
0.0824859
0.0824747
0.0824631
0.082453
0.0824445
0.0824375
0.0824319
0.0824273
0.0824234
0.0824199
0.0824167
0.0824139
0.0824116
0.0824099
0.0824088
0.0824081
0.0824079
0.0824633
0.0824637
0.0824646
0.0824662
0.0824686
0.0824716
0.0824753
0.0824792
0.0824831
0.0824869
0.0824906
0.0824939
0.0824964
0.0824972
0.0824942
0.0824863
0.082475
0.0824633
0.0824531
0.0824446
0.0824376
0.082432
0.0824274
0.0824235
0.08242
0.0824168
0.082414
0.0824117
0.08241
0.0824088
0.0824082
0.0824079
0.0824634
0.0824639
0.0824648
0.0824665
0.082469
0.0824722
0.0824759
0.0824798
0.0824838
0.0824876
0.0824913
0.0824947
0.0824974
0.0824983
0.0824954
0.0824872
0.0824755
0.0824636
0.0824533
0.0824446
0.0824376
0.082432
0.0824274
0.0824236
0.0824202
0.082417
0.0824142
0.0824119
0.0824101
0.0824089
0.0824082
0.0824079
0.0824636
0.0824641
0.0824651
0.082467
0.0824696
0.0824729
0.0824767
0.0824806
0.0824845
0.0824883
0.0824922
0.0824959
0.0824991
0.0825005
0.0824975
0.0824885
0.0824761
0.0824637
0.082453
0.0824442
0.0824372
0.0824316
0.0824271
0.0824235
0.0824202
0.0824172
0.0824144
0.0824121
0.0824103
0.082409
0.0824083
0.082408
0.0824639
0.0824643
0.0824655
0.0824674
0.0824701
0.0824735
0.0824773
0.0824811
0.082485
0.082489
0.0824932
0.0824975
0.0825015
0.0825037
0.0825008
0.0824906
0.0824766
0.0824633
0.082452
0.082443
0.0824359
0.0824304
0.0824261
0.0824227
0.0824198
0.082417
0.0824144
0.0824122
0.0824103
0.0824091
0.0824083
0.082408
0.082464
0.0824645
0.0824657
0.0824677
0.0824704
0.0824738
0.0824775
0.0824813
0.0824852
0.0824893
0.0824939
0.0824991
0.0825045
0.0825081
0.0825052
0.0824932
0.082477
0.0824619
0.0824498
0.0824403
0.0824331
0.0824278
0.0824239
0.082421
0.0824185
0.0824163
0.082414
0.082412
0.0824103
0.0824091
0.0824083
0.082408
0.0824641
0.0824646
0.0824657
0.0824676
0.0824703
0.0824736
0.0824771
0.0824807
0.0824845
0.0824888
0.082494
0.0825005
0.0825078
0.0825134
0.0825108
0.0824965
0.0824768
0.0824592
0.0824456
0.0824354
0.0824281
0.0824231
0.0824199
0.0824178
0.0824161
0.0824146
0.082413
0.0824114
0.0824099
0.0824088
0.0824081
0.0824078
0.0824639
0.0824644
0.0824655
0.0824672
0.0824697
0.0824726
0.0824758
0.0824791
0.0824828
0.0824872
0.082493
0.0825009
0.0825107
0.0825191
0.0825174
0.0825003
0.082476
0.0824547
0.082439
0.0824279
0.0824205
0.082416
0.0824136
0.0824127
0.0824122
0.0824118
0.0824111
0.0824101
0.0824091
0.0824082
0.0824077
0.0824074
0.0824634
0.0824638
0.0824648
0.0824663
0.0824684
0.0824709
0.0824736
0.0824764
0.0824796
0.082484
0.0824903
0.0824998
0.0825128
0.0825251
0.0825246
0.0825042
0.082474
0.082448
0.0824294
0.0824171
0.0824096
0.0824058
0.0824048
0.0824054
0.0824066
0.0824076
0.0824082
0.0824081
0.0824077
0.0824072
0.0824068
0.0824066
0.0824624
0.0824628
0.0824636
0.0824649
0.0824665
0.0824684
0.0824703
0.0824723
0.0824749
0.0824789
0.0824855
0.0824969
0.0825141
0.0825312
0.0825324
0.0825078
0.0824704
0.0824384
0.0824164
0.0824026
0.0823952
0.0823926
0.0823933
0.082396
0.0823992
0.0824021
0.0824042
0.0824053
0.0824057
0.0824057
0.0824055
0.0824053
0.0824608
0.0824611
0.0824619
0.0824628
0.0824639
0.0824651
0.0824661
0.0824672
0.0824688
0.0824721
0.0824791
0.0824929
0.0825154
0.0825383
0.0825407
0.0825106
0.0824643
0.0824252
0.0823993
0.0823841
0.0823772
0.0823761
0.0823791
0.0823844
0.0823902
0.0823954
0.0823993
0.0824017
0.082403
0.0824035
0.0824035
0.0824034
0.0824582
0.0824586
0.0824592
0.08246
0.0824606
0.0824611
0.0824613
0.0824613
0.0824619
0.0824646
0.0824723
0.0824898
0.0825192
0.082548
0.0825496
0.0825113
0.0824542
0.0824072
0.0823773
0.0823613
0.0823554
0.0823567
0.0823626
0.0823709
0.0823797
0.0823874
0.0823934
0.0823973
0.0823995
0.0824005
0.0824007
0.0824006
0.0824544
0.0824548
0.0824554
0.0824561
0.0824566
0.0824566
0.0824562
0.0824555
0.0824554
0.0824582
0.0824683
0.082492
0.0825297
0.0825627
0.0825588
0.0825076
0.0824377
0.0823827
0.0823497
0.0823338
0.08233
0.0823345
0.082344
0.0823559
0.0823679
0.0823785
0.0823866
0.082392
0.0823952
0.0823966
0.0823971
0.082397
0.0824483
0.0824487
0.0824493
0.08245
0.0824505
0.0824506
0.0824503
0.0824498
0.0824507
0.0824567
0.0824737
0.0825076
0.0825538
0.0825845
0.0825656
0.0824952
0.0824113
0.08235
0.082316
0.0823021
0.0823018
0.0823103
0.082324
0.0823397
0.0823552
0.0823684
0.0823786
0.0823854
0.0823894
0.0823913
0.0823919
0.0823919
0.0824447
0.0824444
0.0824439
0.0824434
0.082443
0.0824431
0.0824443
0.0824479
0.0824562
0.0824739
0.0825058
0.0825528
0.0825995
0.0826113
0.0825621
0.0824665
0.0823713
0.0823089
0.0822782
0.0822689
0.0822735
0.0822866
0.0823044
0.0823241
0.0823429
0.082359
0.0823712
0.0823793
0.0823838
0.0823858
0.0823864
0.0823864
0.0824874
0.0824867
0.0824856
0.0824843
0.0824841
0.0824863
0.0824926
0.0825053
0.0825267
0.082559
0.0826014
0.0826438
0.0826612
0.0826245
0.0825318
0.0824156
0.0823206
0.0822667
0.0822449
0.0822428
0.0822528
0.0822699
0.0822907
0.0823123
0.0823324
0.082349
0.0823613
0.0823695
0.0823742
0.0823764
0.0823771
0.0823772
0.0826279
0.0826287
0.0826305
0.0826334
0.082638
0.0826455
0.0826572
0.082674
0.0826956
0.0827192
0.082736
0.0827296
0.0826816
0.0825893
0.082474
0.0823652
0.0822884
0.0822504
0.0822394
0.0822447
0.0822596
0.0822797
0.0823016
0.0823226
0.0823407
0.0823546
0.0823639
0.082369
0.0823712
0.0823718
0.0823717
0.0823716
0.0827748
0.0827767
0.0827806
0.082786
0.0827927
0.0828003
0.0828081
0.0828148
0.082817
0.082809
0.0827826
0.0827308
0.0826544
0.0825633
0.0824685
0.08238
0.0823141
0.0822809
0.0822726
0.0822786
0.0822914
0.0823061
0.0823197
0.0823307
0.0823385
0.0823435
0.082347
0.0823508
0.0823558
0.0823617
0.082367
0.08237
0.0828592
0.0828609
0.082864
0.0828681
0.0828725
0.0828763
0.0828782
0.0828759
0.0828662
0.0828453
0.0828106
0.0827616
0.0827
0.0826283
0.0825497
0.0824698
0.0824027
0.0823622
0.082344
0.0823376
0.0823366
0.0823384
0.0823426
0.0823504
0.0823632
0.0823825
0.0824089
0.0824409
0.0824741
0.0825032
0.0825234
0.0825329
0.0829051
0.0829064
0.082909
0.0829127
0.0829173
0.0829219
0.0829253
0.0829253
0.0829195
0.0829059
0.0828834
0.0828517
0.0828105
0.0827596
0.0827001
0.0826359
0.0825796
0.082548
0.0825426
0.0825562
0.082585
0.0826252
0.0826738
0.082728
0.0827848
0.0828411
0.0828938
0.0829397
0.0829751
0.0829985
0.0830111
0.0830158
0.0829346
0.0829359
0.0829388
0.0829439
0.0829512
0.0829604
0.0829704
0.0829793
0.0829851
0.0829863
0.0829819
0.0829709
0.0829521
0.0829248
0.0828899
0.0828531
0.0828288
0.0828363
0.0828798
0.0829545
0.083053
0.0831645
0.0832778
0.0833832
0.0834724
0.0835414
0.0835866
0.0836081
0.083609
0.0835972
0.0835828
0.0835741
0.0829563
0.0829576
0.0829609
0.0829672
0.0829772
0.0829912
0.0830085
0.0830276
0.0830468
0.0830642
0.0830785
0.083088
0.0830911
0.0830861
0.0830743
0.0830626
0.0830682
0.0831121
0.0831976
0.083316
0.0834529
0.0835907
0.0837147
0.0838159
0.0838907
0.0839408
0.0839678
0.0839747
0.0839661
0.0839481
0.0839294
0.083918
0.0829759
0.082977
0.0829801
0.0829866
0.0829979
0.0830148
0.0830373
0.0830645
0.0830948
0.0831263
0.0831573
0.0831856
0.0832085
0.0832236
0.0832303
0.0832342
0.0832523
0.0833076
0.0834041
0.0835284
0.0836605
0.0837809
0.0838781
0.0839497
0.0840002
0.084035
0.0840578
0.0840705
0.084074
0.08407
0.0840622
0.0840559
0.0829994
0.0829998
0.0830019
0.0830075
0.0830187
0.0830368
0.0830625
0.0830952
0.0831337
0.0831761
0.0832202
0.0832636
0.0833033
0.0833358
0.0833583
0.0833727
0.0833913
0.0834377
0.0835206
0.0836275
0.0837373
0.0838326
0.0839065
0.0839614
0.0840035
0.0840373
0.0840645
0.0840848
0.0840976
0.084103
0.084103
0.0841011
0.0830337
0.0830328
0.0830329
0.0830367
0.0830469
0.0830654
0.0830932
0.0831302
0.0831749
0.0832253
0.083279
0.0833335
0.0833855
0.0834313
0.0834668
0.0834904
0.0835078
0.0835391
0.0835984
0.0836793
0.0837646
0.0838399
0.0839004
0.0839491
0.0839905
0.0840276
0.0840605
0.0840874
0.0841065
0.0841173
0.0841211
0.0841211
0.0830861
0.0830833
0.0830807
0.0830823
0.0830915
0.0831109
0.0831413
0.0831822
0.0832319
0.0832879
0.0833478
0.0834088
0.0834679
0.0835216
0.0835657
0.0835968
0.0836147
0.0836343
0.0836717
0.0837272
0.08379
0.0838493
0.0839005
0.0839449
0.0839851
0.0840232
0.0840588
0.0840899
0.0841135
0.0841282
0.0841346
0.0841356
0.0831631
0.0831579
0.0831528
0.0831532
0.0831631
0.083185
0.0832189
0.0832636
0.0833165
0.0833752
0.083437
0.0834995
0.08356
0.0836157
0.0836629
0.0836978
0.0837172
0.0837303
0.0837522
0.0837875
0.0838314
0.0838765
0.0839186
0.0839572
0.0839937
0.0840292
0.0840636
0.0840952
0.0841209
0.0841381
0.0841466
0.0841485
0.083269
0.0832619
0.0832563
0.0832585
0.0832721
0.0832981
0.0833355
0.083382
0.083435
0.0834919
0.0835506
0.0836091
0.0836655
0.0837174
0.0837623
0.0837967
0.0838164
0.0838265
0.083839
0.0838603
0.0838894
0.083922
0.0839545
0.0839857
0.084016
0.0840462
0.0840762
0.084105
0.0841298
0.0841478
0.0841575
0.0841602
0.0834069
0.0833997
0.0833978
0.0834061
0.0834254
0.083455
0.0834931
0.0835372
0.0835852
0.0836352
0.0836856
0.0837352
0.0837825
0.0838261
0.0838641
0.083894
0.0839118
0.08392
0.0839274
0.0839398
0.0839581
0.0839802
0.0840033
0.0840264
0.0840494
0.0840726
0.0840961
0.0841195
0.084141
0.0841576
0.0841675
0.0841707
0.0835801
0.0835765
0.0835833
0.083599
0.0836219
0.0836506
0.0836838
0.0837199
0.0837576
0.083796
0.0838339
0.0838708
0.0839057
0.0839378
0.0839659
0.0839885
0.0840023
0.0840085
0.0840129
0.0840199
0.0840307
0.0840443
0.0840593
0.0840746
0.0840901
0.0841058
0.084122
0.0841387
0.0841547
0.0841682
0.0841769
0.0841802
0.0837944
0.0837988
0.0838128
0.0838297
0.0838487
0.0838696
0.0838919
0.0839151
0.0839387
0.0839623
0.0839853
0.0840074
0.0840283
0.0840475
0.0840643
0.0840779
0.0840865
0.0840903
0.0840927
0.0840962
0.0841017
0.084109
0.0841171
0.0841256
0.0841342
0.0841429
0.084152
0.0841615
0.0841711
0.0841797
0.0841859
0.0841885
0.0840574
0.0840613
0.0840687
0.084076
0.0840833
0.0840909
0.0840987
0.0841066
0.0841146
0.0841224
0.08413
0.0841373
0.0841442
0.0841504
0.0841559
0.0841604
0.0841632
0.0841645
0.0841653
0.0841663
0.084168
0.0841702
0.0841728
0.0841754
0.0841781
0.0841809
0.0841837
0.0841867
0.0841898
0.0841926
0.0841949
0.084196
)
;

boundaryField
{
    movingWall
    {
        type            fixedValue;
        value           uniform 0.0842;
    }
    fixedWalls
    {
        type            zeroGradient;
    }
    floor
    {
        type            zeroGradient;
    }
    frontAndBack
    {
        type            empty;
    }
}


// ************************************************************************* //
