/*--------------------------------*- C++ -*----------------------------------*\
| =========                 |                                                 |
| \\      /  F ield         | OpenFOAM: The Open Source CFD Toolbox           |
|  \\    /   O peration     | Version:  2206                                  |
|   \\  /    A nd           | Website:  www.openfoam.com                      |
|    \\/     M anipulation  |                                                 |
\*---------------------------------------------------------------------------*/
FoamFile
{
    version     2.0;
    format      ascii;
    arch        "LSB;label=64;scalar=64";
    class       surfaceScalarField;
    location    "496800";
    object      phi;
}
// * * * * * * * * * * * * * * * * * * * * * * * * * * * * * * * * * * * * * //

dimensions      [0 3 -1 0 0 0 0];

oriented        oriented;

internalField   nonuniform List<scalar> 
24
(
9.50182e-11
-9.50182e-11
1.58818e-10
-6.37998e-11
3.50733e-10
-1.91915e-10
3.50733e-10
3.03303e-11
-1.25348e-10
3.01201e-11
-6.35896e-11
6.94981e-11
-2.31293e-10
4.20231e-10
-3.35731e-11
-9.17754e-11
-7.12108e-11
-2.59519e-11
-1.80489e-10
-1.22015e-10
2.39742e-10
-9.17754e-11
-1.17727e-10
-2.39742e-10
)
;

boundaryField
{
    movingWall
    {
        type            calculated;
        value           nonuniform List<scalar> 4(0 0 1.00974e-28 0);
    }
    fixedWalls
    {
        type            calculated;
        value           uniform 0;
    }
    frontAndBack
    {
        type            empty;
        value           nonuniform List<scalar> 0();
    }
}


// ************************************************************************* //
