/*--------------------------------*- C++ -*----------------------------------*\
| =========                 |                                                 |
| \\      /  F ield         | OpenFOAM: The Open Source CFD Toolbox           |
|  \\    /   O peration     | Version:  2212                                  |
|   \\  /    A nd           | Website:  www.openfoam.com                      |
|    \\/     M anipulation  |                                                 |
\*---------------------------------------------------------------------------*/
FoamFile
{
    version     2.0;
    format      ascii;
    arch        "LSB;label=64;scalar=64";
    class       volScalarField;
    location    "0.35";
    object      alpha.air;
}
// * * * * * * * * * * * * * * * * * * * * * * * * * * * * * * * * * * * * * //

dimensions      [0 0 0 0 0 0 0];

internalField   nonuniform List<scalar> 
32768
(
4.10641e-120
4.16282e-117
1.33179e-114
2.3704e-112
2.9324e-110
2.8019e-108
2.18033e-106
1.42076e-104
7.87557e-103
3.75024e-101
1.54419e-99
5.52267e-98
1.72041e-96
4.67453e-95
1.10776e-93
2.28617e-92
4.0966e-91
6.34456e-90
8.43934e-89
9.56089e-88
9.12346e-87
7.22807e-86
4.6669e-85
2.39621e-84
9.44921e-84
2.72222e-83
5.37748e-83
6.60622e-83
4.22128e-83
9.95573e-84
7.88972e-85
4.24956e-86
6.69576e-87
1.54918e-85
2.25335e-85
4.43055e-86
5.51252e-87
5.59336e-88
5.03597e-89
4.14021e-90
3.14131e-91
2.209e-92
1.44519e-93
8.78748e-95
4.97327e-96
2.62203e-97
1.28694e-98
5.87953e-100
2.49248e-101
9.77608e-103
3.54615e-104
1.18073e-105
3.59121e-107
9.90681e-109
2.45149e-110
5.3667e-112
1.02099e-113
1.65392e-115
2.21471e-117
2.35084e-119
1.85519e-121
9.74356e-124
2.65193e-126
1.04929e-128
3.64365e-126
8.51357e-124
1.32197e-121
1.52736e-119
1.39543e-117
1.04727e-115
6.61686e-114
3.61415e-112
1.72889e-110
7.31979e-109
2.78449e-107
9.58809e-106
3.02166e-104
8.73098e-103
2.34387e-101
5.85416e-100
1.37288e-98
3.03205e-97
6.34231e-96
1.25852e-94
2.37083e-93
4.24273e-92
7.23796e-91
1.18075e-89
1.86287e-88
2.87261e-87
4.29543e-86
5.78683e-85
5.95838e-84
3.3668e-83
6.00934e-84
2.22378e-85
4.17506e-84
6.44347e-83
3.60635e-82
7.58981e-82
7.95281e-82
4.94265e-82
2.02938e-82
5.96057e-83
1.3216e-83
2.29918e-84
3.22892e-85
3.73915e-86
3.6309e-87
2.99479e-88
2.11909e-89
1.2961e-90
6.88987e-92
3.19522e-93
1.29575e-94
4.59963e-96
1.42884e-97
3.87808e-99
9.16915e-101
1.87995e-102
3.32038e-104
5.00231e-106
6.32734e-108
6.53485e-110
5.22673e-112
2.91406e-114
9.06851e-117
8.93583e-120
1.2358e-116
1.21869e-113
3.78645e-111
6.56961e-109
8.02048e-107
7.71164e-105
6.18855e-103
4.27248e-101
2.57618e-99
1.36578e-97
6.38341e-96
2.63265e-94
9.57885e-93
3.07133e-91
8.66258e-90
2.14368e-88
4.63772e-87
8.73016e-86
1.4208e-84
1.98101e-83
2.34089e-82
2.31031e-81
1.8685e-80
1.21039e-79
6.09446e-79
2.27649e-78
5.92059e-78
9.86335e-78
9.35565e-78
4.36995e-78
8.52195e-79
7.56085e-80
5.14774e-81
9.8144e-81
2.20429e-81
2.46076e-82
2.19764e-83
1.78436e-84
1.36894e-85
9.9723e-87
6.88847e-88
4.49654e-89
2.77051e-90
1.60539e-91
8.74407e-93
4.47477e-94
2.14771e-95
9.6592e-97
4.05856e-98
1.58761e-99
5.77779e-101
1.94031e-102
5.98028e-104
1.68015e-105
4.25463e-107
9.5684e-109
1.8761e-110
3.14383e-112
4.37113e-114
4.84077e-116
4.01244e-118
2.24147e-120
6.69208e-123
2.22397e-125
6.79186e-123
1.56002e-120
2.37363e-118
2.68899e-116
2.41199e-114
1.77977e-112
1.10734e-110
5.9697e-109
2.82339e-107
1.18462e-105
4.47545e-104
1.53399e-102
4.82674e-101
1.39533e-99
3.76135e-98
9.4713e-97
2.24803e-95
5.05052e-94
1.08109e-92
2.21093e-91
4.32849e-90
8.13759e-89
1.47707e-87
2.6071e-86
4.54932e-85
7.99564e-84
1.41784e-82
2.39413e-81
3.40894e-80
3.44462e-79
1.70161e-78
9.89673e-79
8.56779e-78
4.75363e-77
1.24117e-76
1.6041e-76
1.16212e-76
5.30163e-77
1.65743e-77
3.77927e-78
6.58774e-79
9.09897e-80
1.02353e-80
9.5777e-82
7.57752e-83
5.13232e-84
3.00434e-85
1.53103e-86
6.8303e-88
2.67844e-89
9.25902e-91
2.82664e-92
7.6288e-94
1.8208e-95
3.84123e-97
7.15125e-99
1.17105e-100
1.67463e-102
2.05901e-104
2.11121e-106
1.70341e-108
9.664e-111
3.06003e-113
3.0481e-116
5.09256e-114
5.5384e-111
1.94554e-108
3.85726e-106
5.39021e-104
5.88553e-102
5.27679e-100
3.99957e-98
2.62193e-96
1.50861e-94
7.66827e-93
3.44944e-91
1.37129e-89
4.80821e-88
1.48377e-86
4.02191e-85
9.54492e-84
1.97316e-82
3.53145e-81
5.43052e-80
7.10313e-79
7.79999e-78
7.06699e-77
5.16708e-76
2.9594e-75
1.27531e-74
3.91475e-74
7.94196e-74
9.59706e-74
6.01112e-74
1.70325e-74
2.68279e-75
7.43878e-76
1.06933e-76
9.59956e-78
7.04929e-79
4.81814e-80
3.25132e-81
2.18094e-82
1.43393e-83
9.1482e-85
5.60469e-86
3.28121e-87
1.82467e-88
9.62368e-90
4.80632e-91
2.26673e-92
1.00813e-93
4.2175e-95
1.65246e-96
6.05716e-98
2.05956e-99
6.45342e-101
1.85204e-102
4.80946e-104
1.11304e-105
2.2529e-107
3.90995e-109
5.65033e-111
6.53641e-113
5.69885e-115
3.39352e-117
1.11198e-119
3.13953e-122
8.37103e-120
1.88398e-117
2.80136e-115
3.10496e-113
2.72919e-111
1.97616e-109
1.2096e-107
6.4262e-106
2.99918e-104
1.24492e-102
4.65978e-101
1.58569e-99
4.96583e-98
1.43098e-96
3.85621e-95
9.7398e-94
2.32505e-92
5.27668e-91
1.14623e-89
2.39271e-88
4.81619e-87
9.39695e-86
1.78895e-84
3.35848e-83
6.34457e-82
1.23699e-80
2.50416e-79
5.01484e-78
8.97516e-77
1.28088e-75
1.30376e-74
8.23658e-74
2.58874e-73
7.53973e-73
1.33855e-72
1.30791e-72
7.58672e-73
2.8703e-73
7.61997e-74
1.50269e-74
2.29931e-75
2.81779e-76
2.83525e-77
2.38968e-78
1.71159e-79
1.05414e-80
5.62897e-82
2.62287e-83
1.07161e-84
3.85278e-86
1.22166e-87
3.42497e-89
8.50317e-91
1.87015e-92
3.64367e-94
6.28754e-96
9.56751e-98
1.26626e-99
1.42158e-101
1.31011e-103
9.4085e-106
4.7445e-108
1.34483e-110
1.22461e-113
3.04035e-111
3.40912e-108
1.25157e-105
2.62014e-103
3.8933e-101
4.52559e-99
4.28753e-97
3.38604e-95
2.28622e-93
1.35017e-91
7.0391e-90
3.24813e-88
1.32588e-86
4.77188e-85
1.51221e-83
4.21139e-82
1.02706e-80
2.18653e-79
4.04135e-78
6.43939e-77
8.76698e-76
1.00805e-74
9.64868e-74
7.54258e-73
4.69073e-72
2.23879e-71
7.83048e-71
1.8887e-70
2.89243e-70
2.56574e-70
1.2396e-70
3.04247e-71
4.01324e-72
3.41006e-73
2.24689e-74
1.32234e-75
7.6725e-77
4.59498e-78
2.82085e-79
1.73363e-80
1.04862e-81
6.1568e-83
3.48386e-84
1.88689e-85
9.75732e-87
4.80748e-88
2.25063e-89
9.99278e-91
4.19789e-92
1.66078e-93
6.17431e-95
2.13981e-96
6.85383e-98
2.01903e-99
5.39627e-101
1.28947e-102
2.70353e-104
4.87391e-106
7.34182e-108
8.90076e-110
8.191e-112
5.22193e-114
1.88132e-116
4.65477e-119
1.00446e-116
2.25446e-114
3.29791e-112
3.5864e-110
3.09209e-108
2.19631e-106
1.31913e-104
6.8804e-103
3.15674e-101
1.29147e-99
4.76766e-98
1.60344e-96
4.96898e-95
1.4188e-93
3.79482e-92
9.53478e-91
2.26716e-89
5.13731e-88
1.1179e-86
2.3458e-85
4.77166e-84
9.47172e-83
1.84814e-81
3.58968e-80
7.10118e-79
1.4712e-77
3.22152e-76
7.11322e-75
1.43525e-73
2.37386e-72
2.92575e-71
2.42315e-70
1.18419e-69
2.96798e-69
3.76068e-69
2.76918e-69
1.34759e-69
4.49035e-70
1.08278e-70
1.97688e-71
2.83553e-72
3.28943e-73
3.15917e-74
2.55631e-75
1.7668e-76
1.05374e-77
5.46215e-79
2.4751e-80
9.85028e-82
3.45391e-83
1.06987e-84
2.93458e-86
7.13254e-88
1.53471e-89
2.92822e-91
4.94093e-93
7.30199e-95
9.28011e-97
9.86302e-99
8.55044e-101
5.79504e-103
2.78328e-105
7.60441e-108
6.77314e-111
1.70233e-108
1.89021e-105
6.92689e-103
1.45681e-100
2.18755e-98
2.58118e-96
2.48326e-94
1.97894e-92
1.33754e-90
7.87139e-89
4.08487e-87
1.87953e-85
7.65515e-84
2.75518e-82
8.75599e-81
2.45085e-79
6.03185e-78
1.30006e-76
2.44371e-75
3.97876e-74
5.56899e-73
6.62437e-72
6.605e-71
5.43034e-70
3.59875e-69
1.86321e-68
7.2287e-68
1.99536e-67
3.61259e-67
3.81279e-67
2.0454e-67
5.05498e-68
6.35976e-69
4.9942e-70
3.01405e-71
1.63097e-72
8.86822e-74
5.08046e-75
3.02204e-76
1.81466e-77
1.07817e-78
6.24245e-80
3.49737e-81
1.88316e-82
9.72733e-84
4.80862e-85
2.2694e-86
1.02039e-87
4.36167e-89
1.76366e-90
6.72004e-92
2.39668e-93
7.9111e-95
2.41011e-96
6.66951e-98
1.65521e-99
3.61801e-101
6.81846e-103
1.07774e-104
1.37963e-106
1.35153e-108
9.26475e-111
3.67485e-113
8.53605e-116
1.36488e-113
3.02383e-111
4.31457e-109
4.56957e-107
3.83875e-105
2.65739e-103
1.55871e-101
7.94446e-100
3.56506e-98
1.42988e-96
5.17541e-95
1.70917e-93
5.20461e-92
1.46052e-90
3.84069e-89
9.49685e-88
2.22059e-86
4.9502e-85
1.06046e-83
2.19262e-82
4.40503e-81
8.66399e-80
1.67969e-78
3.25205e-77
6.43338e-76
1.34104e-74
2.98977e-73
6.84129e-72
1.45279e-70
2.54079e-69
3.29511e-68
2.82644e-67
1.38356e-66
3.3484e-66
4.07515e-66
2.79502e-66
1.20641e-66
3.56987e-67
7.72661e-68
1.29843e-68
1.74952e-69
1.93564e-70
1.79105e-71
1.4067e-72
9.50462e-74
5.57156e-75
2.85081e-76
1.28029e-77
5.06285e-79
1.77016e-80
5.47896e-82
1.5048e-83
3.67066e-85
7.94587e-87
1.52673e-88
2.59546e-90
3.85853e-92
4.90562e-94
5.19207e-96
4.47867e-98
3.0251e-100
1.45308e-102
3.99102e-105
3.6008e-108
6.90522e-106
7.52996e-103
2.72213e-100
5.67094e-98
8.46953e-96
9.9768e-94
9.59422e-92
7.61362e-90
5.09406e-88
2.9568e-86
1.51265e-84
6.8727e-83
2.7716e-81
9.90702e-80
3.13591e-78
8.77246e-77
2.16524e-75
4.69837e-74
8.92408e-73
1.47647e-71
2.11243e-70
2.58654e-69
2.67651e-68
2.3026e-67
1.60855e-66
8.85588e-66
3.69033e-65
1.10113e-64
2.17845e-64
2.56759e-64
1.56551e-64
4.33716e-65
5.77672e-66
4.60034e-67
2.76458e-68
1.48404e-69
8.10011e-71
4.69877e-72
2.83654e-73
1.72877e-74
1.04119e-75
6.10753e-77
3.46971e-78
1.89765e-79
9.99006e-81
5.04596e-82
2.44083e-83
1.12805e-84
4.9706e-86
2.07796e-87
8.18966e-89
3.03044e-90
1.03786e-91
3.2906e-93
9.47485e-95
2.45433e-96
5.62462e-98
1.11421e-99
1.85747e-101
2.52263e-103
2.64066e-105
1.95693e-107
8.56617e-110
1.98979e-112
2.24492e-110
4.87978e-108
6.7482e-106
6.91509e-104
5.62217e-102
3.76608e-100
2.14217e-98
1.05931e-96
4.61481e-95
1.80103e-93
6.34302e-92
2.04076e-90
6.05402e-89
1.65546e-87
4.23757e-86
1.02019e-84
2.31672e-83
5.01106e-82
1.04014e-80
2.07976e-79
4.04027e-78
7.68171e-77
1.43945e-75
2.69137e-74
5.12919e-73
1.0294e-71
2.22621e-70
5.0268e-69
1.07144e-67
1.88582e-66
2.43129e-65
2.01979e-64
9.17205e-64
1.99629e-63
2.19369e-63
1.38073e-63
5.56208e-64
1.55922e-64
3.23623e-65
5.20867e-66
6.73138e-67
7.1705e-68
6.42012e-69
4.90259e-70
3.24084e-71
1.87029e-72
9.46923e-74
4.22662e-75
1.66831e-76
5.84072e-78
1.81571e-79
5.02054e-81
1.23586e-82
2.70383e-84
5.26315e-86
9.06399e-88
1.36108e-89
1.74522e-91
1.86381e-93
1.62522e-95
1.11283e-97
5.43358e-100
1.52146e-102
1.4045e-105
2.07731e-103
2.20652e-100
7.79624e-98
1.59272e-95
2.34081e-93
2.72441e-91
2.59863e-89
2.04636e-87
1.3555e-85
7.76048e-84
3.91294e-82
1.75371e-80
6.99289e-79
2.47739e-77
7.79246e-76
2.17367e-74
5.36393e-73
1.16726e-71
2.2307e-70
3.72633e-69
5.40202e-68
6.7341e-67
7.12994e-66
6.31262e-65
4.57803e-64
2.64472e-63
1.17166e-62
3.77748e-62
8.23878e-62
1.09681e-61
7.74131e-62
2.48995e-62
3.67023e-63
3.09872e-64
1.9421e-65
1.08479e-66
6.22165e-68
3.79981e-69
2.40914e-70
1.53495e-71
9.61398e-73
5.85155e-74
3.44739e-75
1.9577e-76
1.07184e-77
5.6344e-79
2.83995e-80
1.36894e-81
6.2941e-83
2.74868e-84
1.12984e-85
4.37066e-87
1.56378e-88
5.19431e-90
1.56551e-91
4.25963e-93
1.03029e-94
2.1593e-96
3.81843e-98
5.5279e-100
6.20374e-102
4.97305e-104
2.39874e-106
5.82239e-109
4.54524e-107
9.65196e-105
1.2872e-102
1.26879e-100
9.91391e-99
6.37765e-97
3.48904e-95
1.66021e-93
6.95807e-92
2.61678e-90
8.88406e-89
2.75791e-87
7.89049e-86
2.08228e-84
5.13409e-83
1.1902e-81
2.59471e-80
5.37708e-79
1.06627e-77
2.02967e-76
3.74458e-75
6.73902e-74
1.19233e-72
2.10004e-71
3.74935e-70
7.01211e-69
1.41799e-67
3.03888e-66
6.26419e-65
1.07209e-63
1.32709e-62
1.02967e-61
4.1818e-61
7.98202e-61
7.79126e-61
4.44463e-61
1.65326e-61
4.34737e-62
8.57629e-63
1.32669e-63
1.66354e-64
1.73314e-65
1.52826e-66
1.15723e-67
7.6026e-69
4.36682e-70
2.20587e-71
9.83643e-73
3.88582e-74
1.36304e-75
4.25908e-77
1.18752e-78
2.95549e-80
6.55214e-82
1.29427e-83
2.26116e-85
3.43702e-87
4.45059e-89
4.81545e-91
4.27493e-93
2.99144e-95
1.49691e-97
4.30613e-100
4.09466e-103
4.91105e-101
5.04242e-98
1.72809e-95
3.4354e-93
4.93106e-91
5.62841e-89
5.29224e-87
4.12727e-85
2.70266e-83
1.52566e-81
7.56834e-80
3.33243e-78
1.30773e-76
4.56834e-75
1.4198e-73
3.92276e-72
9.61527e-71
2.08672e-69
3.99353e-68
6.70955e-67
9.8349e-66
1.24667e-64
1.35118e-63
1.23357e-62
9.305e-62
5.64992e-61
2.66487e-60
9.2952e-60
2.23815e-59
3.37365e-59
2.77394e-59
1.05508e-59
1.7725e-60
1.63372e-61
1.10244e-62
6.63479e-64
4.13306e-65
2.73602e-66
1.87138e-67
1.27524e-68
8.49455e-70
5.48741e-71
3.43009e-72
2.06643e-73
1.19928e-74
6.67977e-76
3.56266e-77
1.81456e-78
8.80111e-80
4.05581e-81
1.75372e-82
7.14872e-84
2.69378e-85
9.44839e-87
3.00409e-88
8.65689e-90
2.22757e-91
4.97607e-93
9.39128e-95
1.45573e-96
1.75674e-98
1.52393e-100
8.08439e-103
2.10707e-105
1.1362e-103
2.34776e-101
3.00842e-99
2.83923e-97
2.11839e-95
1.29955e-93
6.77653e-92
3.07544e-90
1.22695e-88
4.39611e-87
1.42202e-85
4.20951e-84
1.14729e-82
2.88842e-81
6.77626e-80
1.49437e-78
3.08957e-77
6.06034e-76
1.13299e-74
2.02611e-73
3.49543e-72
5.8515e-71
9.58726e-70
1.5568e-68
2.54823e-67
4.33031e-66
7.94983e-65
1.56552e-63
3.0255e-62
4.90277e-61
5.68203e-60
4.01544e-59
1.42455e-58
2.35505e-58
2.02941e-58
1.04538e-58
3.58066e-59
8.81152e-60
1.64863e-60
2.44581e-61
2.96857e-62
3.01749e-63
2.61527e-64
1.9578e-65
1.27797e-66
7.32795e-68
3.70906e-69
1.66346e-70
6.63349e-72
2.35588e-73
7.46503e-75
2.1127e-76
5.33799e-78
1.20241e-79
2.40988e-81
4.27071e-83
6.57786e-85
8.63188e-87
9.4993e-89
8.6276e-91
6.20707e-93
3.2043e-95
9.5358e-98
9.40511e-101
9.51783e-99
9.38382e-96
3.09798e-93
5.95129e-91
8.28434e-89
9.21676e-87
8.50056e-85
6.54481e-83
4.22454e-81
2.32378e-79
1.12392e-77
4.84348e-76
1.86702e-74
6.42673e-73
1.97428e-71
5.40916e-70
1.319e-68
2.85776e-67
5.48218e-66
9.27135e-65
1.37473e-63
1.7725e-62
1.96658e-61
1.85126e-60
1.45214e-59
9.26337e-59
4.64863e-58
1.75271e-57
4.65473e-57
7.93992e-57
7.61943e-57
3.46452e-57
6.78969e-58
6.98384e-59
5.20108e-60
3.46743e-61
2.40744e-62
1.76956e-63
1.3336e-64
9.90967e-66
7.17757e-67
5.03479e-68
3.40991e-69
2.22267e-70
1.39061e-71
8.33716e-73
4.76927e-74
2.59858e-75
1.34466e-76
6.5976e-78
3.03374e-79
1.31475e-80
5.27484e-82
1.97314e-83
6.69076e-85
2.06199e-86
5.69304e-88
1.36567e-89
2.76769e-91
4.61322e-93
6.00597e-95
5.64392e-97
3.29218e-99
9.37575e-102
3.51158e-100
7.02077e-98
8.61736e-96
7.75627e-94
5.49281e-92
3.19535e-90
1.5746e-88
6.75125e-87
2.53984e-85
8.55343e-84
2.60513e-82
7.24792e-81
1.85514e-79
4.39376e-78
9.66993e-77
2.00012e-75
3.86954e-74
7.09143e-73
1.23312e-71
2.04522e-70
3.25599e-69
5.00159e-68
7.47091e-67
1.09828e-65
1.61756e-64
2.45012e-63
3.98337e-62
7.01125e-61
1.23606e-59
1.85447e-58
1.97165e-57
1.24396e-56
3.78989e-56
5.38974e-56
4.09141e-56
1.9019e-56
5.99828e-57
1.38154e-57
2.45186e-58
3.4886e-59
4.09879e-60
4.06658e-61
3.463e-62
2.56123e-63
1.66009e-64
9.49102e-66
4.80768e-67
2.16595e-68
8.70339e-70
3.12463e-71
1.00378e-72
2.88879e-74
7.44163e-76
1.71493e-77
3.5268e-79
6.38418e-81
9.96873e-83
1.32998e-84
1.49602e-86
1.39737e-88
1.03915e-90
5.56669e-93
1.72421e-95
1.77547e-98
1.55207e-96
1.46166e-93
4.62494e-91
8.5424e-89
1.14743e-86
1.23795e-84
1.1145e-82
8.44942e-81
5.28708e-79
2.82551e-77
1.33401e-75
5.63287e-74
2.13448e-72
7.24529e-71
2.20141e-69
5.98364e-68
1.45203e-66
3.14133e-65
6.0395e-64
1.02788e-62
1.54101e-61
2.01972e-60
2.29198e-59
2.22258e-58
1.81089e-57
1.21202e-56
6.46098e-56
2.62834e-55
7.68284e-55
1.4801e-54
1.65678e-54
9.06246e-55
2.11322e-55
2.46952e-56
2.07178e-57
1.56637e-58
1.23887e-59
1.03281e-60
8.72548e-62
7.21377e-63
5.80412e-64
4.51336e-65
3.3726e-66
2.41506e-67
1.65369e-68
1.08186e-69
6.72105e-71
3.9648e-72
2.21414e-73
1.17104e-74
5.79939e-76
2.70655e-77
1.17204e-78
4.72791e-80
1.73337e-81
5.77744e-83
1.72425e-84
4.47436e-86
9.80625e-88
1.76638e-89
2.49249e-91
2.54601e-93
1.63471e-95
5.15254e-98
1.35042e-96
2.59079e-94
3.02956e-92
2.58671e-90
1.72767e-88
9.4792e-87
4.37422e-85
1.75809e-83
6.17113e-82
1.9319e-80
5.46686e-79
1.41003e-77
3.33833e-76
7.32203e-75
1.48758e-73
2.84027e-72
5.06348e-71
8.53562e-70
1.36146e-68
2.06505e-67
2.99476e-66
4.17043e-65
5.6112e-64
7.36256e-63
9.60168e-62
1.2765e-60
1.80083e-59
2.76474e-58
4.33683e-57
5.90265e-56
5.65593e-55
3.13022e-54
8.0851e-54
9.85628e-54
6.59061e-54
2.76728e-54
8.04569e-55
1.73658e-55
2.92689e-56
3.99864e-57
4.55388e-58
4.41336e-59
3.69431e-60
2.70084e-61
1.73854e-62
9.91022e-64
5.02356e-65
2.27295e-66
9.19939e-68
3.33664e-69
1.08608e-70
3.17559e-72
8.33433e-74
1.96331e-75
4.14183e-77
7.72585e-79
1.23553e-80
1.68117e-82
1.94209e-84
1.8747e-86
1.4482e-88
8.08794e-91
2.61932e-93
2.82884e-96
2.16623e-94
1.94045e-91
5.86001e-89
1.03613e-86
1.33706e-84
1.39349e-82
1.21931e-80
9.03058e-79
5.45705e-77
2.83506e-75
1.30701e-73
5.40903e-72
2.0153e-70
6.74662e-69
2.02767e-67
5.46733e-66
1.32007e-64
2.85065e-63
5.48962e-62
9.39539e-61
1.42285e-59
1.89356e-58
2.19497e-57
2.18938e-56
1.84987e-55
1.29661e-54
7.3268e-54
3.20805e-53
1.02931e-52
2.23307e-52
2.90958e-52
1.92027e-52
5.419e-53
7.3036e-54
7.03004e-55
6.15907e-56
5.66231e-57
5.45838e-58
5.25669e-59
4.93137e-60
4.48704e-61
3.92468e-62
3.28498e-63
2.61994e-64
1.98957e-65
1.43574e-66
9.80676e-68
6.36144e-69
3.8906e-70
2.25163e-71
1.22252e-72
6.2468e-74
2.96736e-75
1.30722e-76
5.24841e-78
1.91257e-79
6.22533e-81
1.76074e-82
4.20986e-84
8.25211e-86
1.27065e-87
1.41826e-89
1.00682e-91
3.5476e-94
6.5759e-93
1.1934e-90
1.31989e-88
1.0598e-86
6.6137e-85
3.39058e-83
1.45321e-81
5.40823e-80
1.75436e-78
5.05203e-77
1.31205e-75
3.0978e-74
6.69622e-73
1.3385e-71
2.47169e-70
4.27517e-69
6.91351e-68
1.05381e-66
1.51788e-65
2.07585e-64
2.69865e-63
3.36203e-62
4.02954e-61
4.66816e-60
5.31968e-59
6.12887e-58
7.38726e-57
9.68539e-56
1.32037e-54
1.59885e-53
1.3582e-52
6.48501e-52
1.40651e-51
1.46787e-51
8.65671e-52
3.28934e-52
8.83386e-53
1.79025e-53
2.87074e-54
3.773e-55
4.17139e-56
3.95375e-57
3.25707e-58
2.35586e-59
1.507e-60
8.57053e-62
4.34983e-63
1.97696e-64
8.06022e-66
2.9539e-67
9.74062e-69
2.89317e-70
7.7355e-72
1.86228e-73
4.02875e-75
7.73949e-77
1.28143e-78
1.78097e-80
2.12214e-82
2.126e-84
1.71254e-86
1.00056e-88
3.40016e-91
3.86598e-94
2.62397e-92
2.22675e-89
6.39483e-87
1.07871e-84
1.33303e-82
1.33741e-80
1.13409e-78
8.13138e-77
4.74765e-75
2.39793e-73
1.07943e-71
4.37812e-70
1.60348e-68
5.2929e-67
1.57309e-65
4.20648e-64
1.01011e-62
2.1759e-61
4.19366e-60
7.20994e-59
1.10164e-57
1.48654e-56
1.75735e-55
1.79971e-54
1.57376e-53
1.15266e-52
6.88711e-52
3.23648e-51
1.13614e-50
2.76586e-50
4.18109e-50
3.33076e-50
1.15358e-50
1.81777e-51
2.04334e-52
2.11881e-53
2.30922e-54
2.61762e-55
2.91921e-56
3.15843e-57
3.29305e-58
3.27673e-59
3.1047e-60
2.79319e-61
2.38129e-62
1.92368e-63
1.46952e-64
1.06553e-65
7.28743e-67
4.72134e-68
2.86445e-69
1.62683e-70
8.6309e-72
4.20579e-73
1.87155e-74
7.53565e-76
2.70475e-77
8.4173e-79
2.22353e-80
4.7898e-82
8.1177e-84
9.98897e-86
7.88635e-88
3.12047e-90
4.17518e-89
7.05261e-87
7.29318e-85
5.42586e-83
3.1326e-81
1.47489e-79
5.79746e-78
1.96746e-76
5.81089e-75
1.52052e-73
3.57821e-72
7.63532e-71
1.48902e-69
2.67348e-68
4.4346e-67
6.83927e-66
9.88014e-65
1.33838e-63
1.71149e-62
2.07517e-61
2.38126e-60
2.61305e-59
2.74776e-58
2.78173e-57
2.74244e-56
2.70399e-55
2.7546e-54
3.02966e-53
3.51161e-52
3.71071e-51
2.75153e-50
1.11524e-49
2.0173e-49
1.803e-49
9.39899e-50
3.24026e-50
8.05863e-51
1.53709e-51
2.35068e-52
2.97843e-53
3.20263e-54
2.97349e-55
2.41414e-56
1.72958e-57
1.10061e-58
6.24989e-60
3.17831e-61
1.45176e-62
5.96529e-64
2.20944e-65
7.38268e-67
2.2281e-68
6.07045e-70
1.49378e-71
3.31434e-73
6.55755e-75
1.1247e-76
1.60829e-78
1.98381e-80
2.06817e-82
1.74169e-84
1.06786e-86
3.81971e-89
4.58807e-92
2.77444e-90
2.22572e-87
6.06536e-85
9.73884e-83
1.14921e-80
1.10627e-78
9.07564e-77
6.26365e-75
3.53332e-73
1.73449e-71
7.62151e-70
3.02906e-68
1.09022e-66
3.54715e-65
1.04214e-63
2.76211e-62
6.5928e-61
1.41557e-59
2.72774e-58
4.70555e-57
7.24334e-56
9.89403e-55
1.19061e-53
1.24925e-52
1.12802e-51
8.61166e-51
5.42547e-50
2.7277e-49
1.04382e-48
2.83972e-48
4.95955e-48
4.76053e-48
2.04537e-48
3.82047e-49
5.11008e-50
6.4056e-51
8.4297e-52
1.13794e-52
1.48871e-53
1.87771e-54
2.26385e-55
2.59136e-56
2.81501e-57
2.89032e-58
2.81892e-59
2.60007e-60
2.27821e-61
1.88912e-62
1.47986e-63
1.09118e-64
7.54898e-66
4.85499e-67
2.89737e-68
1.59433e-69
7.94769e-71
3.58047e-72
1.43509e-73
5.01949e-75
1.48394e-76
3.55768e-78
6.69162e-80
9.15947e-82
8.13182e-84
3.63297e-86
3.59276e-85
5.54089e-83
5.31394e-81
3.59872e-79
1.89094e-77
8.002e-76
2.83703e-74
8.63022e-73
2.26117e-71
5.27403e-70
1.10497e-68
2.09436e-67
3.6289e-66
5.78002e-65
8.49778e-64
1.15608e-62
1.47174e-61
1.74916e-60
1.95629e-59
2.06766e-58
2.06407e-57
1.96284e-56
1.78146e-55
1.55243e-54
1.31019e-53
1.09236e-52
9.31921e-52
8.47515e-51
8.18798e-50
7.40555e-49
4.72256e-48
1.59951e-47
2.40285e-47
1.8424e-47
8.51527e-48
2.67181e-48
6.17202e-49
1.11117e-49
1.62493e-50
1.98951e-51
2.08493e-52
1.89975e-53
1.52248e-54
1.08193e-55
6.85728e-57
3.89223e-58
1.98496e-59
9.1186e-61
3.77868e-62
1.41509e-63
4.79346e-65
1.4705e-66
4.08412e-68
1.02758e-69
2.33916e-71
4.76804e-73
8.4719e-75
1.25307e-76
1.6037e-78
1.74415e-80
1.53944e-82
9.92531e-85
3.74519e-87
4.76362e-90
2.57634e-88
1.94881e-85
5.0281e-83
7.66896e-81
8.62609e-79
7.95465e-77
6.30643e-75
4.17156e-73
2.27298e-71
1.08405e-69
4.64781e-68
1.80927e-66
6.3967e-65
2.05047e-63
5.9526e-62
1.56284e-60
3.70571e-59
7.92414e-58
1.525e-56
2.63642e-55
4.08206e-54
5.63416e-53
6.88676e-52
7.3862e-51
6.86948e-50
5.4513e-49
3.61019e-48
1.93507e-47
8.03998e-47
2.43306e-46
4.88487e-46
5.62963e-46
3.02207e-46
6.79848e-47
1.10492e-47
1.70873e-48
2.75472e-49
4.45755e-50
6.90662e-51
1.02416e-51
1.44254e-52
1.92798e-53
2.43903e-54
2.92619e-55
3.34473e-56
3.62368e-57
3.72451e-58
3.61008e-59
3.29454e-60
2.81559e-61
2.24792e-62
1.66735e-63
1.14506e-64
7.18173e-66
4.10584e-67
2.11556e-68
9.68906e-70
3.8499e-71
1.29181e-72
3.5197e-74
7.47274e-76
1.15251e-77
1.15823e-79
5.87429e-82
4.39622e-81
6.13964e-79
5.3426e-77
3.23407e-75
1.5157e-73
5.68351e-72
1.77173e-70
4.71024e-69
1.0715e-67
2.16897e-66
3.94014e-65
6.45617e-64
9.71849e-63
1.34519e-61
1.71589e-60
2.03893e-59
2.2566e-58
2.32867e-57
2.25052e-56
2.04725e-55
1.75744e-54
1.42948e-53
1.10232e-52
8.15005e-52
5.80158e-51
4.03845e-50
2.85133e-49
2.11674e-48
1.67471e-47
1.27172e-46
6.87654e-46
1.91767e-45
2.38815e-45
1.57549e-45
6.47997e-46
1.85726e-46
3.9987e-47
6.81689e-48
9.56011e-49
1.13399e-49
1.16084e-50
1.04018e-51
8.24324e-53
5.81941e-54
3.67837e-55
2.08945e-56
1.06956e-57
4.94559e-59
2.06828e-60
7.83562e-62
2.69203e-63
8.39804e-65
2.37879e-66
6.12218e-68
1.43039e-69
3.00489e-71
5.53213e-73
8.49111e-75
1.12986e-76
1.28445e-78
1.19038e-80
8.08434e-83
3.22343e-85
4.34928e-88
2.11245e-86
1.5047e-83
3.6704e-81
5.30852e-79
5.67761e-77
5.00012e-75
3.82153e-73
2.42021e-71
1.27346e-69
5.8984e-68
2.4665e-66
9.39976e-65
3.26309e-63
1.03006e-61
2.95333e-60
7.676e-59
1.80687e-57
3.84449e-56
7.38142e-55
1.27714e-53
1.98578e-52
2.76411e-51
3.42375e-50
3.744e-49
3.57667e-48
2.94143e-47
2.04089e-46
1.16186e-45
5.21848e-45
1.7478e-44
4.01086e-44
5.52139e-44
3.71556e-44
1.02693e-44
2.07561e-45
4.0317e-46
8.03943e-47
1.56722e-47
2.90383e-48
5.11793e-49
8.57661e-50
1.36033e-50
2.04813e-51
2.93954e-52
4.02057e-53
5.19645e-54
6.36642e-55
7.3608e-56
7.99165e-57
8.12282e-58
7.69552e-59
6.75367e-60
5.46181e-61
4.03967e-62
2.71022e-63
1.6317e-64
8.68775e-66
4.0088e-67
1.55957e-68
4.93225e-70
1.20904e-71
2.15078e-73
2.47205e-75
1.44622e-77
8.2838e-77
1.03381e-74
7.83694e-73
4.17944e-71
1.69398e-69
5.50843e-68
1.48181e-66
3.34837e-65
6.46468e-64
1.10708e-62
1.69787e-61
2.3317e-60
2.95809e-59
3.44388e-58
3.72787e-57
3.77236e-56
3.54744e-55
3.13428e-54
2.58694e-53
2.00138e-52
1.46052e-51
1.00643e-50
6.53816e-50
4.04736e-49
2.39729e-48
1.3746e-47
7.89583e-47
4.71522e-46
3.00206e-45
1.8762e-44
8.48526e-44
1.92326e-43
1.98632e-43
1.13196e-43
4.16131e-44
1.09402e-44
2.20373e-45
3.56991e-46
4.81622e-47
5.55018e-48
5.56365e-49
4.9132e-50
3.85746e-51
2.70968e-52
1.71063e-53
9.73578e-55
5.00732e-56
2.33242e-57
9.85058e-59
3.77747e-60
1.31692e-61
4.17948e-63
1.20794e-64
3.18141e-66
7.63194e-68
1.6529e-69
3.15351e-71
5.0349e-73
6.97233e-75
8.29412e-77
8.07928e-79
5.78831e-81
2.44263e-83
3.50348e-86
1.52878e-84
1.02376e-81
2.35829e-79
3.23147e-77
3.28525e-75
2.76149e-73
2.02847e-71
1.22993e-69
6.24783e-68
2.80938e-66
1.14537e-64
4.27133e-63
1.4553e-61
4.52183e-60
1.27973e-58
3.29107e-57
7.6842e-56
1.62545e-54
3.1103e-53
5.37871e-52
8.38461e-51
1.17453e-49
1.47059e-48
1.63525e-47
1.59985e-46
1.35909e-45
9.84418e-45
5.92807e-44
2.86483e-43
1.05609e-42
2.7524e-42
4.4964e-42
3.79133e-42
1.31796e-42
3.38889e-43
8.38418e-44
2.08504e-44
4.95461e-45
1.11764e-45
2.39232e-46
4.86325e-47
9.36346e-48
1.71697e-48
2.99779e-49
4.96642e-50
7.82885e-51
1.17213e-51
1.66112e-52
2.22386e-53
2.78101e-54
3.23246e-55
3.47315e-56
3.42688e-57
3.08036e-58
2.4985e-59
1.80766e-60
1.15018e-61
6.32308e-63
2.93532e-64
1.1156e-65
3.32065e-67
7.22383e-69
1.01628e-70
7.16454e-73
3.01137e-72
3.06267e-70
1.89407e-68
8.41574e-67
2.81931e-65
7.67483e-64
1.69736e-62
3.17854e-61
5.08784e-60
7.19054e-59
9.03006e-58
1.01899e-56
1.05821e-55
1.0138e-54
9.02534e-54
7.53059e-53
5.88314e-52
4.32711e-51
2.99018e-50
1.94077e-49
1.18549e-48
6.82983e-48
3.71023e-47
1.90452e-46
9.29683e-46
4.3401e-45
1.99197e-44
9.39795e-44
4.71684e-43
2.3711e-42
8.84331e-42
1.61277e-41
1.38487e-41
6.8514e-42
2.26253e-42
5.48138e-43
1.0374e-43
1.60293e-44
2.08739e-45
2.34399e-46
2.30698e-47
2.01244e-48
1.56846e-49
1.09816e-50
6.93391e-52
3.95882e-53
2.04781e-54
9.61636e-56
4.10437e-57
1.59407e-58
5.6416e-60
1.82219e-61
5.37597e-63
1.44954e-64
3.57185e-66
7.97808e-68
1.57779e-69
2.62574e-71
3.78771e-73
4.72015e-75
4.83955e-77
3.66093e-79
1.63633e-81
2.49648e-84
9.79499e-83
6.16427e-80
1.34036e-77
1.73888e-75
1.67827e-73
1.34384e-71
9.46761e-70
5.4967e-68
2.69522e-66
1.17617e-64
4.67369e-63
1.70477e-61
5.69825e-60
1.74198e-58
4.86338e-57
1.23701e-55
2.86281e-54
6.01493e-53
1.14609e-51
1.9781e-50
3.08644e-49
4.34086e-48
5.4803e-47
6.17888e-46
6.17135e-45
5.39673e-44
4.06493e-43
2.57805e-42
1.33376e-41
5.37958e-41
1.58106e-40
3.04114e-40
3.19992e-40
1.43071e-40
4.75281e-41
1.51001e-41
4.72423e-42
1.39149e-42
3.88719e-43
1.02964e-43
2.5755e-44
6.12757e-45
1.38995e-45
3.02009e-46
6.31138e-47
1.26676e-47
2.40504e-48
4.30441e-49
7.23731e-50
1.13804e-50
1.66435e-51
2.24899e-52
2.78657e-53
3.13831e-54
3.18043e-55
2.86637e-56
2.26532e-57
1.5429e-58
8.85697e-60
4.15846e-61
1.52972e-62
4.12369e-64
7.24266e-66
6.49252e-68
2.02851e-67
1.74383e-65
8.51424e-64
2.8346e-62
7.28345e-61
1.60267e-59
2.83068e-58
4.27076e-57
5.47029e-56
6.12788e-55
6.12112e-54
5.52923e-53
4.58397e-52
3.50903e-51
2.50093e-50
1.67238e-49
1.05139e-48
6.27301e-48
3.5369e-47
1.88292e-46
9.45441e-46
4.47291e-45
1.99877e-44
8.43383e-44
3.35561e-43
1.26591e-42
4.59158e-42
1.68232e-41
6.49761e-41
2.55811e-40
7.74436e-40
1.1293e-39
8.09906e-40
3.49931e-40
1.04393e-40
2.34257e-41
4.18465e-42
6.19253e-43
7.81196e-44
8.57499e-45
8.30908e-46
7.17687e-47
5.56363e-48
3.8893e-49
2.45975e-50
1.41048e-51
7.34527e-53
3.48017e-54
1.50204e-55
5.91113e-57
2.12461e-58
6.98672e-60
2.10486e-61
5.81242e-63
1.47164e-64
3.39076e-66
6.95187e-68
1.20741e-69
1.81485e-71
2.37125e-73
2.55823e-75
2.04223e-77
9.6653e-80
1.56873e-82
5.54614e-81
3.27891e-78
6.7291e-76
8.26626e-74
7.57332e-72
5.77408e-70
3.89577e-68
2.16626e-66
1.02524e-64
4.34137e-63
1.68109e-61
5.99508e-60
1.96513e-58
5.90844e-57
1.62631e-55
4.0893e-54
9.37452e-53
1.95484e-51
3.7053e-50
6.37477e-49
9.9392e-48
1.40021e-46
1.77796e-45
2.02655e-44
2.05944e-43
1.84699e-42
1.44073e-41
9.57857e-41
5.27646e-40
2.31364e-39
7.6089e-39
1.70769e-38
2.22571e-38
1.3001e-38
5.62298e-39
2.31304e-39
9.21793e-40
3.43001e-40
1.20749e-40
4.02047e-41
1.26964e-41
3.83871e-42
1.11974e-42
3.1727e-43
8.57454e-44
2.20329e-44
5.37468e-45
1.24046e-45
2.69497e-46
5.47579e-47
1.03281e-47
1.79367e-48
2.84347e-49
4.07685e-50
5.23326e-51
5.94579e-52
5.89866e-53
5.02525e-54
3.59827e-55
2.10348e-56
9.62872e-58
3.23431e-59
7.11442e-61
8.09599e-63
2.06113e-62
1.49714e-60
6.00143e-59
1.63427e-57
3.32567e-56
5.36835e-55
7.36786e-54
8.70305e-53
8.67508e-52
7.52867e-51
5.83766e-50
4.09403e-49
2.61777e-48
1.54592e-47
8.51913e-47
4.41393e-46
2.15827e-45
1.002e-44
4.43283e-44
1.87203e-43
7.51266e-43
2.85416e-42
1.02395e-41
3.47667e-41
1.1113e-40
3.34918e-40
9.55589e-40
2.68765e-39
7.8168e-39
2.34641e-38
5.66235e-38
6.59052e-38
3.97313e-38
1.50961e-38
4.09425e-39
8.55785e-40
1.45014e-40
2.06421e-41
2.53223e-42
2.72609e-43
2.60809e-44
2.23592e-45
1.72762e-46
1.20785e-47
7.66168e-49
4.41747e-50
2.31815e-51
1.10894e-52
4.84223e-54
1.9318e-55
7.05448e-57
2.36267e-58
7.27026e-60
2.05675e-61
5.35157e-63
1.27206e-64
2.70376e-66
4.90279e-68
7.68457e-70
1.05318e-71
1.19629e-73
1.00846e-75
5.05626e-78
8.73629e-81
2.77969e-79
1.54334e-76
2.98881e-74
3.47506e-72
3.02201e-70
2.19418e-68
1.41591e-66
7.54236e-65
3.44586e-63
1.4159e-61
5.34259e-60
1.86217e-58
5.98404e-57
1.76914e-55
4.799e-54
1.19221e-52
2.70526e-51
5.5948e-50
1.05401e-48
1.80546e-47
2.80726e-46
3.95336e-45
5.03611e-44
5.78563e-43
5.96143e-42
5.46162e-41
4.39267e-40
3.04624e-39
1.77647e-38
8.41034e-38
3.06918e-37
7.95578e-37
1.27109e-36
9.76857e-37
5.51928e-37
2.96748e-37
1.52284e-37
7.25689e-38
3.25866e-38
1.38402e-38
5.65226e-39
2.24876e-39
8.73574e-40
3.25314e-40
1.16295e-40
3.98446e-41
1.30202e-41
4.0279e-42
1.16923e-42
3.1554e-43
7.84549e-44
1.78173e-44
3.66489e-45
6.76927e-46
1.11239e-46
1.60921e-47
2.0235e-48
2.17699e-49
1.96291e-50
1.44213e-51
8.28932e-53
3.49875e-54
9.70396e-56
1.40393e-57
2.86838e-57
1.74633e-55
5.72325e-54
1.26712e-52
2.08732e-51
2.71196e-50
2.88891e-49
2.5922e-48
1.99864e-47
1.34476e-46
7.99734e-46
4.25142e-45
2.04133e-44
8.98265e-44
3.69262e-43
1.41476e-42
5.14488e-42
1.78547e-41
5.95129e-41
1.90544e-40
5.87443e-40
1.73967e-39
4.89624e-39
1.30565e-38
3.29335e-38
7.80399e-38
1.74036e-37
3.73684e-37
8.10853e-37
1.81669e-36
3.43202e-36
3.19818e-36
1.63416e-36
5.50356e-37
1.36656e-37
2.67704e-38
4.32627e-39
5.9512e-40
7.12782e-41
7.55167e-42
7.15339e-43
6.10224e-44
4.70887e-45
3.298e-46
2.10109e-47
1.21938e-48
6.45372e-50
3.11891e-51
1.3784e-52
5.57701e-54
2.06978e-55
7.06132e-57
2.21961e-58
6.43408e-60
1.72063e-61
4.21913e-63
9.2954e-65
1.7591e-66
2.87675e-68
4.13479e-70