/*--------------------------------*- C++ -*----------------------------------*\
| =========                 |                                                 |
| \\      /  F ield         | OpenFOAM: The Open Source CFD Toolbox           |
|  \\    /   O peration     | Version:  2206                                  |
|   \\  /    A nd           | Website:  www.openfoam.com                      |
|    \\/     M anipulation  |                                                 |
\*---------------------------------------------------------------------------*/
FoamFile
{
    version     2.0;
    format      ascii;
    arch        "LSB;label=64;scalar=64";
    class       volScalarField;
    location    "3.3/water";
    object      alphat.gas;
}
// * * * * * * * * * * * * * * * * * * * * * * * * * * * * * * * * * * * * * //

dimensions      [1 -1 -1 0 0 0 0];

internalField   nonuniform List<scalar> 
23300
(
7.77789933348e-05
7.63422920575e-05
7.423164932e-05
7.15707101288e-05
6.8520396809e-05
6.52090129797e-05
6.17398622654e-05
5.81981578581e-05
5.46549060484e-05
5.11692435411e-05
4.77893928859e-05
4.45536132889e-05
4.14906259252e-05
3.86205863074e-05
3.59557732762e-05
3.35018341042e-05
3.12587201106e-05
2.92220173133e-05
2.73838627932e-05
2.57341238696e-05
2.42610875854e-05
2.29523544122e-05
2.17952290323e-05
2.07773160781e-05
1.9886647726e-05
1.91120458618e-05
1.84430710767e-05
1.78702375214e-05
1.73848663831e-05
1.69792246792e-05
1.66463401203e-05
1.63801065207e-05
1.61750898208e-05
1.60266204408e-05
1.59306029858e-05
1.58836043801e-05
1.58826724949e-05
1.59254248314e-05
1.60098794622e-05
1.61345482684e-05
1.6298284287e-05
1.65003861787e-05
1.67404748125e-05
1.70186386282e-05
1.73352505636e-05
1.769023924e-05
1.80840351129e-05
1.8517510124e-05
1.89918092283e-05
1.9508418986e-05
2.00690677192e-05
2.06758107268e-05
2.13309560968e-05
2.2037146042e-05
2.27973023505e-05
2.36146971656e-05
2.44929175646e-05
2.54359205848e-05
2.64480161603e-05
2.75338996749e-05
2.86986505411e-05
2.99477319431e-05
3.12869986488e-05
3.27226472031e-05
3.42612202993e-05
3.59094814909e-05
3.76743932254e-05
3.95628778724e-05
4.15817319684e-05
4.37372195018e-05
4.60348669804e-05
4.84788161595e-05
5.1071417835e-05
5.38122452342e-05
5.66973634035e-05
5.9717843599e-05
6.2858485251e-05
6.60954885016e-05
6.93940675902e-05
7.2704325242e-05
7.5956101496e-05
7.90502666219e-05
8.18463904359e-05
8.41435546114e-05
8.56577423073e-05
8.60249180411e-05
8.50607384208e-05
8.30817481687e-05
8.04338305666e-05
7.73632692781e-05
7.40408715667e-05
7.05874625294e-05
6.70907970093e-05
6.3615456488e-05
6.02093666654e-05
5.69076975836e-05
5.37358310068e-05
5.0711258083e-05
4.78452680944e-05
4.51441087587e-05
4.26101191902e-05
4.02425417772e-05
3.80383264136e-05
3.59927109479e-05
3.4099780204e-05
3.23528659546e-05
3.07449142625e-05
2.92687499826e-05
2.79173030192e-05
2.66837832469e-05
2.5561817965e-05
2.45455837519e-05
2.36299153878e-05
2.28104635302e-05
2.20832090822e-05
2.14450667828e-05
2.08939183316e-05
2.04287195704e-05
2.0049599289e-05
1.97580300672e-05
1.95569900189e-05
1.94511907861e-05
1.94472807096e-05
1.95540722856e-05
1.97826737041e-05
2.01465182586e-05
2.06611157196e-05
2.13434427288e-05
2.22107542742e-05
2.32787242558e-05
2.45588261606e-05
2.60551339099e-05
2.77609499463e-05
2.96560176023e-05
3.1705168129e-05
3.38588047223e-05
3.60538939991e-05
3.82100193457e-05
4.02068361459e-05
4.18167496491e-05
6.61934433009e-05
6.54729733136e-05
6.41747508658e-05
6.24078177418e-05
6.02760587959e-05
5.78734369758e-05
5.52831054381e-05
5.25778957061e-05
4.98209533801e-05
4.70663092765e-05
4.43592529668e-05
4.17367551463e-05
3.92278779477e-05
3.68543817959e-05
3.46313863262e-05
3.25682099475e-05
3.06692042087e-05
2.89346704571e-05
2.73616827777e-05
2.5944906578e-05
2.46772667211e-05
2.3550569213e-05
2.25559605202e-05
2.16843389526e-05
2.092662293e-05
2.02739915985e-05
1.97180131017e-05
1.92507694941e-05
1.88648973267e-05
1.85536434132e-05
1.8310855903e-05
1.81310015297e-05
1.80091302655e-05
1.79408720381e-05
1.79223884213e-05
1.79503598991e-05
1.80219333492e-05
1.8134707625e-05
1.82866831643e-05
1.84762515451e-05
1.87021517052e-05
1.89634676095e-05
1.92595951152e-05
1.95902524006e-05
1.99553636464e-05
2.03545595177e-05
2.07878418629e-05
2.12555400276e-05
2.17582463982e-05
2.22968050113e-05
2.28722767321e-05
2.34859476392e-05
2.41393072136e-05
2.48340642179e-05
2.55721302103e-05
2.63556374363e-05
2.71869237912e-05
2.80685488391e-05
2.90032764664e-05
2.99940842627e-05
3.10441384507e-05
3.21567894057e-05
3.33355302905e-05
3.45839673951e-05
3.59057490958e-05
3.73044939234e-05
3.87836699123e-05
4.03464560395e-05
4.19955440756e-05
4.37329007259e-05
4.55594551972e-05
4.74747196987e-05
4.9476314653e-05
5.1559391008e-05
5.37159249946e-05
5.59338561782e-05
5.8196037302e-05
6.04789286831e-05
6.27509770606e-05
6.49705586445e-05
6.70834290682e-05
6.90197092638e-05
7.06910176041e-05
7.19896964388e-05
7.27953826193e-05
7.29997983833e-05
7.25623477849e-05
7.1546555295e-05
7.00610230537e-05
6.82165066122e-05
6.61105607907e-05
6.38243921675e-05
6.14240247188e-05
5.89625616066e-05
5.64824343762e-05
5.40173068039e-05
5.15936172317e-05
4.92318157914e-05
4.69473727182e-05
4.47516203595e-05
4.26524665195e-05
4.06550145223e-05
3.8762095806e-05
3.69747385368e-05
3.52925644164e-05
3.37141366266e-05
3.2237246776e-05
3.08591665344e-05
2.95768502155e-05
2.83871162352e-05
2.72867929039e-05
2.62728573902e-05
2.53425529482e-05
2.44935102694e-05
2.3723579291e-05
2.3031089916e-05
2.24149827297e-05
2.18749009265e-05
2.14112803773e-05
2.10254548868e-05
2.07197545303e-05
2.04976037341e-05
2.03635846408e-05
2.03234517173e-05
2.03840395583e-05
2.05530189552e-05
2.08384157833e-05
2.12478291512e-05
2.17872786775e-05
2.24596875054e-05
2.32630938265e-05
2.41888683716e-05
2.522041376e-05
2.63330685033e-05
2.7496139446e-05
2.86782059913e-05
2.98572786953e-05
3.10390668022e-05
3.22928479364e-05
3.38309829541e-05
5.80156345702e-05
5.75790371812e-05
5.67248165916e-05
5.55064340906e-05
5.39838503631e-05
5.22185123681e-05
5.02702412376e-05
4.81953085653e-05
4.60452145912e-05
4.38659171532e-05
4.16973671647e-05
3.95733196924e-05
3.75213734308e-05
3.55632315475e-05
3.37151261684e-05
3.19883790774e-05
3.03900302451e-05
2.89235042957e-05
2.75892580072e-05
2.63853945697e-05
2.53082094153e-05
2.43526721153e-05
2.35128278122e-05
2.27821349687e-05
2.21537331629e-05
2.16206617655e-05
2.11760261089e-05
2.08131305462e-05
2.05255740519e-05
2.03073245327e-05
2.01527659165e-05
2.00567316218e-05
2.00145177261e-05
2.0021888098e-05
2.00750647402e-05
2.01707149272e-05
2.03059283134e-05
2.04781949571e-05
2.06853769724e-05
2.09256839138e-05
2.11976436631e-05
2.15000777435e-05
2.18320711634e-05
2.21929441455e-05
2.25823380018e-05
2.29997794124e-05
2.3445032518e-05
2.39180909119e-05
2.44191563555e-05
2.49486219747e-05
2.55070537654e-05
2.60951808239e-05
2.67138834792e-05
2.73641885312e-05
2.80472603974e-05
2.8764397631e-05
2.95170235595e-05
3.03066805515e-05
3.1135016419e-05
3.20037721971e-05
3.29147593816e-05
3.38698352966e-05
3.48708640838e-05
3.59196711204e-05
3.70179776656e-05
3.81673224598e-05
3.93689564413e-05
4.06237162128e-05
4.19318621208e-05
4.32928857932e-05
4.47052733032e-05
4.61662285282e-05
4.76713439e-05
4.92142233772e-05
5.07860467127e-05
5.2375081184e-05
5.39661340082e-05
5.55399576685e-05
5.70726168061e-05
5.85348615264e-05
5.98915918879e-05
6.11016195358e-05
6.21181305661e-05
6.28906055496e-05
6.33693894022e-05
6.35145714374e-05
6.33085709754e-05
6.27636117108e-05
6.19136627671e-05
6.08030802095e-05
5.9478785346e-05
5.7985798815e-05
5.63651129082e-05
5.46529290027e-05
5.2880597789e-05
5.10748855361e-05
4.92583641348e-05
4.74498366556e-05
4.56647554431e-05
4.39156235242e-05
4.22123703258e-05
4.05627047644e-05
3.89724398379e-05
3.74457924166e-05
3.59856530024e-05
3.45938302404e-05
3.32712666374e-05
3.20182317071e-05
3.0834490545e-05
2.97194547942e-05
2.86723147123e-05
2.76921588104e-05
2.67780789463e-05
2.59292661174e-05
2.51451168843e-05
2.44252258412e-05
2.37695148082e-05
2.31783093635e-05
2.26524057019e-05
2.21931274572e-05
2.18023629003e-05
2.14825725345e-05
2.12367459458e-05
2.10682834361e-05
2.09807658951e-05
2.09775740438e-05
2.10613138018e-05
2.12330187938e-05
2.14911281488e-05
2.18302996045e-05
2.22402084428e-05
2.27046109542e-05
2.32010903119e-05
2.37020299365e-05
2.41774223236e-05
2.46000750353e-05
2.49535376991e-05
2.5242581826e-05
2.55076358023e-05
2.58007083085e-05
5.26437901269e-05
5.23163005617e-05
5.16756837505e-05
5.07510243046e-05
4.95801298085e-05
4.82054521863e-05
4.66710042686e-05
4.50201085375e-05
4.32937855222e-05
4.15296415835e-05
3.97611498818e-05
3.80172562463e-05
3.63222485337e-05
3.46958427744e-05
3.31534318434e-05
3.17064527519e-05
3.0362822617e-05
2.91274083994e-05
2.8002494142e-05
2.69882273872e-05
2.60830259333e-05
2.52839424062e-05
2.45869809244e-05
2.39873724488e-05
2.34798089025e-05
2.30586448619e-05
2.27180672563e-05
2.24522403559e-05
2.22554249319e-05
2.21220769754e-05
2.20469239506e-05
2.2025023314e-05
2.20518015621e-05
2.21230788873e-05
2.22350784068e-05
2.23844254546e-05
2.25681361866e-05
2.27836008985e-05
2.30285609314e-05
2.3301083974e-05
2.35995356548e-05
2.39225508369e-05
2.4268999646e-05
2.46379462147e-05
2.50288395883e-05
2.54412989963e-05
2.58749901425e-05
2.63297362609e-05
2.68055164831e-05
2.73024547867e-05
2.78208055315e-05
2.83609421879e-05
2.89233456793e-05
2.9508595979e-05
3.01173623345e-05
3.0750395578e-05
3.14085177098e-05
3.20926121986e-05
3.28036099933e-05
3.35424745455e-05
3.43101805428e-05
3.51076893559e-05
3.59359155014e-05
3.67956867015e-05
3.76876913928e-05
3.86124158031e-05
3.95700640758e-05
4.05604632323e-05
4.15829463733e-05
4.26362159644e-05
4.3718181082e-05
4.48257711698e-05
4.59547215177e-05
4.70993348288e-05
4.82522171554e-05
4.94039971863e-05
5.05430350581e-05
5.16551423544e-05
5.27233407191e-05
5.37277147953e-05
5.46454410889e-05
5.5451129022e-05
5.61176641003e-05
5.66178006473e-05
5.69267221215e-05
5.70255532999e-05
5.69050035992e-05
5.6567287915e-05
5.6025187963e-05
5.52984420577e-05
5.44105342566e-05
5.33862393352e-05
5.22499565646e-05
5.10247078903e-05
4.97316071432e-05
4.83896341491e-05
4.70155907236e-05
4.56241623319e-05
4.42280366883e-05
4.28380537437e-05
4.14633694858e-05
4.01116255844e-05
3.8789117198e-05
3.75009564854e-05
3.62512277614e-05
3.5043134206e-05
3.38791340002e-05
3.27610670665e-05
3.16902713607e-05
3.06676903745e-05
2.96939710823e-05
2.87695536155e-05
2.78947512335e-05
2.70698207637e-05
2.62952284122e-05
2.55714892294e-05
2.48992527276e-05
2.4279355291e-05
2.37128563988e-05
2.32010541089e-05
2.27454702998e-05
2.23477934753e-05
2.20097610463e-05
2.17329596218e-05
2.15185172023e-05
2.13666619661e-05
2.12761273158e-05
2.12434005156e-05
2.12618437234e-05
2.13207696945e-05
2.14046276878e-05
2.14925454117e-05
2.15585595392e-05
2.15729205057e-05
2.15048272606e-05
2.13267738175e-05
2.10202778116e-05
2.05821067547e-05
2.00345152988e-05
1.94017287022e-05
4.86473358368e-05
4.83931086261e-05
4.78947102619e-05
4.71713097435e-05
4.62488693869e-05
4.51578873178e-05
4.39312455581e-05
4.26023813255e-05
4.12038247997e-05
3.97660996758e-05
3.83169534213e-05
3.68808806268e-05
3.5478891091e-05
3.41284791259e-05
3.28437428848e-05
3.16356119117e-05
3.05121382723e-05
2.94788209791e-05
2.85389339861e-05
2.76938441057e-05
2.69433051691e-05
2.628572844e-05
2.57184258196e-05
2.52378320084e-05
2.48397049554e-05
2.45193105642e-05
2.42715894117e-05
2.40913089692e-05
2.39731971736e-05
2.39120594227e-05
2.39028747259e-05
2.39408736205e-05
2.40215949939e-05
2.41409259243e-05
2.42951232744e-05
2.44808223338e-05
2.46950320497e-05
2.49351224653e-05
2.51988038038e-05
2.54841024331e-05
2.57893324003e-05
2.61130668469e-05
2.645410686e-05
2.68114520514e-05
2.71842750404e-05
2.75725422404e-05
2.79758897165e-05
2.83940847294e-05
2.88270113974e-05
2.92746592712e-05
2.97371105132e-05
3.02145296333e-05
3.07071524359e-05
3.12152775806e-05
3.17392568214e-05
3.22794870804e-05
3.28364002404e-05
3.34104537453e-05
3.40021177829e-05
3.46118620371e-05
3.52401376307e-05
3.58873570691e-05
3.65538676075e-05
3.72399206141e-05
3.79456321545e-05
3.86709371398e-05
3.94155321638e-05
4.0178809293e-05
4.09597760987e-05
4.17569644756e-05
4.25683242073e-05
4.3391104738e-05
4.42217226397e-05
4.50556202787e-05
4.58871163452e-05
4.67092582055e-05
4.75136835798e-05
4.82905112606e-05
4.90282825252e-05
4.97139917794e-05
5.03332517831e-05
5.08706569501e-05
5.13104080731e-05
5.16372528383e-05
5.18377347201e-05
5.19016224274e-05
5.18231849991e-05
5.16018379983e-05
5.12421494016e-05
5.07529195527e-05
5.0145684446e-05
4.94335889917e-05
4.863045888e-05
4.77501144111e-05
4.68059021882e-05
4.58103999258e-05
4.47752461972e-05
4.37110580587e-05
4.26274068205e-05
4.1532833337e-05
4.04348880304e-05
3.93401876173e-05
3.82544811681e-05
3.71827223337e-05
3.61291438093e-05
3.50973330813e-05
3.40903071546e-05
3.3110586252e-05
3.21602648771e-05
3.12410804568e-05
3.03544780343e-05
2.95016708842e-05
2.86836950724e-05
2.79014574429e-05
2.71560712575e-05
2.6448626116e-05
2.57802214262e-05
2.51519921138e-05
2.45651145088e-05
2.40207863869e-05
2.35201711395e-05
2.30642941744e-05
2.26538757993e-05
2.22890835535e-05
2.19691857018e-05
2.1692091733e-05
2.14537743696e-05
2.12475870177e-05
2.10635209393e-05
2.08874928414e-05
2.07008132647e-05
2.04800566527e-05
2.01976204946e-05
1.98233029627e-05
1.93272115115e-05
1.86842003333e-05
1.78797690942e-05
1.69168810641e-05
1.58242000615e-05
1.46489307068e-05
4.56419628035e-05
4.54399290118e-05
4.50431589806e-05
4.44655216697e-05
4.37260838177e-05
4.28477409042e-05
4.18557384195e-05
4.07762918353e-05
3.96353948255e-05
3.84578651244e-05
3.7266636045e-05
3.60822858274e-05
3.49227741303e-05
3.38033529655e-05
3.27366077297e-05
3.17325921095e-05
3.07990170944e-05
2.99414690828e-05
2.91636324607e-05
2.84675080772e-05
2.78536181799e-05
2.73212011794e-05
2.68683946553e-05
2.64924134168e-05
2.61897210781e-05
2.5956199424e-05
2.57873106713e-05
2.56782534682e-05
2.56241055481e-05
2.56199528684e-05
2.56609987854e-05
2.57426546514e-05
2.58606077816e-05
2.60108706167e-05
2.61898093611e-05
2.63941576848e-05
2.66210149853e-05
2.68678353784e-05
2.71324069893e-05
2.74128273937e-05
2.77074740966e-05
2.80149749893e-05
2.83341764754e-05
2.86641130134e-05
2.90039744079e-05
2.93538477277e-05
2.97134631399e-05
3.00826352971e-05
3.04612537353e-05
3.08492754453e-05
3.12467153712e-05
3.16536386909e-05
3.2070151692e-05
3.24963948891e-05
3.29325346917e-05
3.33787569205e-05
3.38352582575e-05
3.43022388215e-05
3.47798918782e-05
3.5268393807e-05
3.57678902689e-05
3.62784815987e-05
3.68002032812e-05
3.73330044183e-05
3.78767199747e-05
3.84310396196e-05
3.89954689715e-05
3.95692861028e-05
4.01514893467e-05
4.07407395941e-05
4.13352937581e-05
4.19329334393e-05
4.25308867794e-05
4.3125749228e-05
4.37134036549e-05
4.4288948692e-05
4.4846640125e-05
4.53798597545e-05
4.58811235722e-05
4.63421513557e-05
4.67540168697e-05
4.71074043585e-05
4.73929857441e-05
4.76019230308e-05
4.77264649078e-05
4.77605673446e-05
4.77004158368e-05
4.75447163498e-05
4.7294677606e-05
4.69539583565e-05
4.65280557447e-05
4.60237074111e-05
4.5448436214e-05
4.4810165762e-05
4.41169168789e-05
4.33765829811e-05
4.25967706602e-05
4.17846931968e-05
4.09471030306e-05
4.00902542611e-05
3.92198860414e-05
3.83412222433e-05
3.74589820194e-05
3.65773993377e-05
3.57002482704e-05
3.48308734505e-05
3.39722235168e-05
3.31268874457e-05
3.22971319524e-05
3.14849398358e-05
3.06920473806e-05
2.99199802923e-05
2.91700858871e-05
2.84435608762e-05
2.77417950667e-05
2.70661345533e-05
2.64178601198e-05
2.57981880507e-05
2.52082492265e-05
2.46490401208e-05
2.41213358279e-05
2.3625554286e-05
2.31615583901e-05
2.27283831566e-05
2.23238759824e-05
2.1944244391e-05
2.15835161543e-05
2.12329367153e-05
2.0880357584e-05
2.05097111583e-05
2.01007196994e-05
1.96290490954e-05
1.90671830616e-05
1.83863499448e-05
1.75598580362e-05
1.65681496036e-05
1.54056966767e-05
1.40893774131e-05
1.26674528938e-05
1.12198792539e-05
4.33786759444e-05
4.32154300562e-05
4.28945170469e-05
4.24265798884e-05
4.18263372892e-05
4.11116512653e-05
4.03024531581e-05
3.94196912511e-05
3.8484380651e-05
3.75168134672e-05
3.65359517406e-05
3.55590092569e-05
3.46012021857e-05
3.36756445387e-05
3.27933502599e-05
3.19633113173e-05
3.11926171452e-05
3.04865957948e-05
2.98489573434e-05
2.9281936016e-05
2.87864257006e-05
2.83621154708e-05
2.80076252674e-05
2.77206491869e-05
2.74981040392e-05
2.73362860108e-05
2.72310282709e-05
2.71778582209e-05
2.7172144955e-05
2.7209235102e-05
2.72845689941e-05
2.73937777856e-05
2.7532756697e-05
2.76977181634e-05
2.78852229401e-05
2.80921950843e-05
2.83159203216e-05
2.85540344185e-05
2.88045012056e-05
2.90655865429e-05
2.93358272081e-05
2.96140000656e-05
2.98990892952e-05
3.01902556105e-05
3.04868036966e-05
3.07888625145e-05
3.10963184587e-05
3.14091002451e-05
3.1727171936e-05
3.20505294504e-05
3.23791949183e-05
3.27132122725e-05
3.30526409009e-05
3.33975511824e-05
3.37480184242e-05
3.41041186313e-05
3.4465922351e-05
3.48334898661e-05
3.52068639147e-05
3.55860631598e-05
3.59710725675e-05
3.63618338733e-05
3.67582322727e-05
3.71600824659e-05
3.75671101885e-05
3.79789323378e-05
3.83950318874e-05
3.88147307817e-05
3.92371572189e-05
3.96612108038e-05
4.00855224742e-05
4.05084133249e-05
4.09278501738e-05
4.13414031597e-05
4.17462048e-05
4.2138917685e-05
4.25157126292e-05
4.28722670919e-05
4.32037885917e-05
4.35050753152e-05
4.37706198938e-05
4.39947667951e-05
4.41719229617e-05
4.42968186443e-05
4.43647968995e-05
4.43721012844e-05
4.43161148747e-05
4.41955100061e-05
4.40102810316e-05
4.37616363991e-05
4.34520082631e-05
4.30847073183e-05
4.26636611897e-05
4.21932204478e-05
4.16779888043e-05
4.11226829163e-05
4.05320207264e-05
3.9910636497e-05
3.92630167429e-05
3.85934542684e-05
3.79060153801e-05
3.72045187345e-05
3.64925224238e-05
3.57733188329e-05
3.50499349268e-05
3.43251380413e-05
3.36014453441e-05
3.28811371254e-05
3.21662721918e-05
3.14587053008e-05
3.076010473e-05
3.00719694346e-05
2.93956434649e-05
2.87323269894e-05
2.80833845331e-05
2.74501555494e-05
2.68338724888e-05
2.62356406315e-05
2.56563953426e-05
2.50968306094e-05
2.45572896566e-05
2.40376082358e-05
2.35368997473e-05
2.30532731264e-05
2.25834767684e-05
2.21224695415e-05
2.16629314627e-05
2.11947467977e-05
2.07045198501e-05
2.01752226308e-05
1.95861219713e-05
1.89131937879e-05
1.81303001971e-05
1.72114774197e-05
1.61347411412e-05
1.48878217481e-05
1.34760941276e-05
1.19324222851e-05
1.03273330421e-05
8.77192643465e-06
4.16804856767e-05
4.15470860791e-05
4.12847326709e-05
4.09019419055e-05
4.04105067039e-05
3.98247976619e-05
3.91609322525e-05
3.84359442526e-05
3.76670190561e-05
3.68708488025e-05
3.60631303086e-05
3.52582157944e-05
3.44689007493e-05
3.37063291396e-05
3.29799819843e-05
3.22977233071e-05
3.16658735191e-05
3.10892958435e-05
3.05714812939e-05
3.01146334346e-05
2.97197513269e-05
2.93867201196e-05
2.91144108104e-05
2.89007970566e-05
2.87430858724e-05
2.86378638049e-05
2.85812495286e-05
2.85690499298e-05
2.85969084757e-05
2.86604429467e-05
2.87553634075e-05
2.88775706933e-05
2.9023230156e-05
2.9188824602e-05
2.93711843862e-05
2.95675009242e-05
2.97753231466e-05
2.99925438626e-05
3.02173756847e-05
3.04483230842e-05
3.06841495364e-05
3.09238453068e-05
3.11665935256e-05
3.14117382995e-05
3.1658750145e-05
3.19077334861e-05
3.2158775174e-05
3.24119605413e-05
3.26673723654e-05
3.29250919894e-05
3.31851978676e-05
3.34477648024e-05
3.37128607455e-05
3.39805451271e-05
3.42508654118e-05
3.45238554093e-05
3.47995317109e-05
3.50778915789e-05
3.5358908586e-05
3.5642529292e-05
3.59286672657e-05
3.62171977228e-05
3.65079491039e-05
3.68006948503e-05
3.70951417247e-05
3.73909179483e-05
3.76875575671e-05
3.79844844026e-05
3.82809921667e-05
3.85762243151e-05
3.88691505609e-05
3.91585440534e-05
3.9442956748e-05
3.97206976822e-05
3.99898126038e-05
4.02480706743e-05
4.04929578737e-05
4.07216839397e-05
4.09312035027e-05
4.1118258686e-05
4.12794434654e-05
4.14112949688e-05
4.15104079192e-05
4.15735704573e-05
4.1597908513e-05
4.15810268555e-05
4.15211266727e-05
4.14170869031e-05
4.12684974793e-05
4.10756459448e-05
4.08393961283e-05
4.05612469303e-05
4.02431580821e-05
3.98874156001e-05
3.94965454186e-05
3.90732358799e-05
3.86202690847e-05
3.81404649572e-05
3.76366348874e-05
3.71115449618e-05
3.65678859893e-05
3.60082505745e-05
3.54351150522e-05
3.48508268247e-05
3.42575953825e-05
3.36574876296e-05
3.30524259887e-05
3.24441897469e-05
3.1834418079e-05
3.12246148676e-05
3.06161535165e-05
3.0010281335e-05
2.94081212233e-05
2.88106701005e-05
2.82190392345e-05
2.76343625307e-05
2.70576454907e-05
2.64897287201e-05
2.59312286586e-05
2.53824499372e-05
2.48432611044e-05
2.43129259024e-05
2.3789881626e-05
2.32714588418e-05
2.27535400756e-05
2.22301637702e-05
2.16930918474e-05
2.11313792579e-05
2.05310102728e-05
1.98747030344e-05
1.91420294659e-05
1.83100557888e-05
1.73547787446e-05
1.62537158854e-05
1.49900943455e-05
1.35591360258e-05
1.19768429351e-05
1.02911226455e-05
8.5932812574e-06
7.02173635485e-06
4.04161383467e-05
4.03063701559e-05
4.00904851393e-05
3.97755084069e-05
3.93711528977e-05
3.88892550374e-05
3.83430948047e-05
3.7746715412e-05
3.71142965091e-05
3.64596274376e-05
3.57957001369e-05
3.51344303733e-05
3.44864912927e-05
3.3861241185e-05
3.32667136183e-05
3.270964747e-05
3.21955309842e-05
3.17286502217e-05
3.13121318915e-05
3.09479860439e-05
3.06371501552e-05
3.03795464029e-05
3.01741545977e-05
3.00191088952e-05
2.99118142831e-05
2.98490834482e-05
2.98272834439e-05
2.98424881242e-05
2.98906238944e-05
2.99676052812e-05
3.00694505542e-05
3.01923776581e-05
3.0332874997e-05
3.04877512751e-05
3.06541623201e-05
3.08296214711e-05
3.101199302e-05
3.11994759261e-05
3.13905773799e-05
3.15840829641e-05
3.17790222898e-05
3.19746358426e-05
3.21703407362e-05
3.23656994947e-05
3.2560387513e-05
3.27543862721e-05
3.29480439447e-05
3.31416161867e-05
3.3335327457e-05
3.3529371607e-05
3.37239130427e-05
3.39190892042e-05
3.41150105257e-05
3.43117616785e-05
3.45094008348e-05
3.47079605449e-05
3.49074466868e-05
3.51078388592e-05
3.53090886012e-05
3.55111187657e-05
3.5713820456e-05
3.59170508564e-05
3.61206283998e-05
3.63243286092e-05
3.65278770922e-05
3.67309430474e-05
3.6933129824e-05
3.71339659579e-05
3.73328933494e-05
3.75292561531e-05
3.77222872664e-05
3.79110962539e-05
3.80946559534e-05
3.82717920007e-05
3.84411730166e-05
3.86013061881e-05
3.87505365366e-05
3.88870550116e-05
3.90089140149e-05
3.9114055362e-05
3.92003487364e-05
3.92656441788e-05
3.9307834433e-05
3.93249272867e-05
3.93151198967e-05
3.92768712758e-05
3.92089626827e-05
3.91105423745e-05
3.89811487479e-05
3.88207141493e-05
3.86295479918e-05
3.84082216168e-05
3.81576112511e-05
3.78788693549e-05
3.75733262672e-05
3.72424482804e-05
3.68877978628e-05
3.6511000213e-05
3.6113713987e-05
3.56976068141e-05
3.52643337784e-05
3.48155199773e-05
3.43527454167e-05
3.38775332738e-05
3.33913400811e-05
3.28955487761e-05
3.23914632541e-05
3.18803051011e-05
3.13632110468e-05
3.08412314273e-05
3.03153279439e-05
2.97863704394e-05
2.92551304831e-05
2.87222713035e-05
2.8188494157e-05
2.76545918451e-05
2.71212173258e-05
2.65888356016e-05
2.60576530389e-05
2.55275192025e-05
2.49977940123e-05
2.44671740052e-05
2.39334714378e-05
2.33933434089e-05
2.28419721654e-05
2.22727069557e-05
2.16766899417e-05
2.10425082673e-05
2.03559394681e-05
1.95998920648e-05
1.87546860912e-05
1.77988742152e-05
1.6710874524e-05
1.54717776447e-05
1.40698023142e-05
1.25069821542e-05
1.08086598125e-05
9.03584973978e-06
7.29830293229e-06
5.75844288508e-06
3.94851064657e-05
3.93945179807e-05
3.92164042092e-05
3.89566885146e-05
3.86235324076e-05
3.82268520003e-05
3.77777360071e-05
3.7287869788e-05
3.67690114049e-05
3.62325604023e-05
3.56892331125e-05
3.51488497795e-05
3.462021552e-05
3.41110763686e-05
3.36281195287e-05
3.31769980015e-05
3.27623570199e-05
3.23878568688e-05
3.20561858786e-05
3.17690727395e-05
3.15273021327e-05
3.13307473445e-05
3.1178422877e-05
3.10685653192e-05
3.09987376808e-05
3.09659571071e-05
3.09668342553e-05
3.09977196877e-05
3.10548440268e-05
3.11344482245e-05
3.12328938276e-05
3.13467537133e-05
3.14728777352e-05
3.16084378077e-05
3.17509502934e-05
3.18982825408e-05
3.20486429472e-05
3.22005619336e-05
3.23528632381e-05
3.2504632375e-05
3.2655180983e-05
3.28040129496e-05
3.29507900978e-05
3.30953021798e-05
3.32374379868e-05
3.33771620473e-05
3.35149212918e-05
3.36511648848e-05
3.3786277635e-05
3.39205834544e-05
3.40543497802e-05
3.41877938198e-05
3.43210861509e-05
3.44543552034e-05
3.45876893718e-05
3.47211404473e-05
3.48547249436e-05
3.49884267419e-05
3.51221975185e-05
3.52559583125e-05
3.53895987231e-05
3.55229771004e-05
3.56559182637e-05
3.57882121273e-05
3.5919609805e-05
3.60498205959e-05
3.61785064748e-05
3.63052775361e-05
3.64296851001e-05
3.65512160247e-05
3.66692850692e-05
3.67832290077e-05
3.6892299547e-05
3.69956589519e-05
3.70923756982e-05
3.71814242722e-05
3.72616866833e-05
3.73319599168e-05
3.73909669503e-05
3.74373753174e-05
3.74698204213e-05
3.74869366552e-05
3.74873923588e-05
3.74699299533e-05
3.7433405615e-05
3.73768281394e-05
3.72993906634e-05
3.72004951868e-05
3.70797656687e-05
3.69370527117e-05
3.67724284343e-05
3.65861730504e-05
3.63787053235e-05
3.61504800782e-05
3.59021834326e-05
3.56345962847e-05
3.53485624735e-05
3.50449725712e-05
3.47247476206e-05
3.43888233124e-05
3.40381359066e-05
3.36736109189e-05
3.32961528425e-05
3.29066370181e-05
3.25059021979e-05
3.20947448925e-05
3.16739141705e-05
3.12441077136e-05
3.08059676888e-05
3.03600768468e-05
2.99069531733e-05
2.94470429332e-05
2.89807099112e-05
2.85082203464e-05
2.80297730585e-05
2.75457411658e-05
2.70563487249e-05
2.6561615556e-05
2.6061279736e-05
2.55546937044e-05
2.50406879402e-05
2.45173975362e-05
2.39820473623e-05
2.34306954485e-05
2.28579385673e-05
2.22565933983e-05
2.1617378588e-05
2.09286418453e-05
2.01761998255e-05
1.93433910398e-05
1.84114823279e-05
1.73606232154e-05
1.61716134694e-05
1.48288492743e-05
1.33249521554e-05
1.16677581999e-05
9.89045680224e-06
8.06526051353e-06
6.31834921708e-06
4.83369146527e-06
3.88084087809e-05
3.87337556755e-05
3.85870561157e-05
3.83733810155e-05
3.8099682186e-05
3.77743591162e-05
3.74067423952e-05
3.70065930358e-05
3.65836581543e-05
3.61473178144e-05
3.57063319263e-05
3.52686881385e-05
3.48415290092e-05
3.44311386821e-05
3.40429581119e-05
3.36816110004e-05
3.33509206132e-05
3.30539156807e-05
3.27928223704e-05
3.25690545575e-05
3.23832082884e-05
3.22350755738e-05
3.21236807897e-05
3.20473480747e-05
3.20037942433e-05
3.19902467679e-05
3.20035743225e-05
3.20404250549e-05
3.20973588649e-05
3.21709702e-05
3.22579910735e-05
3.23553751158e-05
3.2460357016e-05
3.25704921929e-05
3.26836744311e-05
3.27981385335e-05
3.29124471637e-05
3.30254693693e-05
3.31363499563e-05
3.32444765981e-05
3.33494431753e-05
3.345101526e-05
3.35490953525e-05
3.36436925326e-05
3.3734892406e-05
3.38228282543e-05
3.39078267138e-05
3.39905324132e-05
3.40714986372e-05
3.4151187819e-05
3.42299774703e-05
3.43081704991e-05
3.43860030468e-05
3.44636526255e-05
3.45412432782e-05
3.46188516016e-05
3.46965103508e-05
3.47742131455e-05
3.48519168147e-05
3.49295447795e-05
3.50069880237e-05
3.50841070478e-05
3.51607314108e-05
3.52366602654e-05
3.53116605324e-05
3.53854661348e-05
3.5457774981e-05
3.55282471435e-05
3.55965009839e-05
3.56621107223e-05
3.57246022899e-05
3.5783451043e-05
3.58380782974e-05
3.58878503575e-05
3.59320771348e-05
3.59700141087e-05
3.60008648265e-05
3.6023787678e-05
3.60379041198e-05
3.60423118409e-05
3.60360997615e-05
3.60183677562e-05
3.59882473648e-05
3.59449254531e-05
3.58876663407e-05
3.58158335713e-05
3.57289067038e-05
3.56264944994e-05
3.55083410512e-05
3.53743276106e-05
3.52244684787e-05
3.50589044657e-05
3.48778919533e-05
3.46818095441e-05
3.44708184478e-05
3.42453625968e-05
3.40058938248e-05
3.37528852495e-05
3.34868252694e-05
3.32082032396e-05
3.291749963e-05
3.26151786362e-05
3.23016815917e-05
3.19774220085e-05
3.16427806578e-05
3.12981018208e-05
3.09436893451e-05
3.05798033868e-05
3.02066563794e-05
2.98244087196e-05
2.94331625337e-05
2.903295353e-05
2.86237388521e-05
2.82053803091e-05
2.77775397054e-05
2.73401380435e-05
2.6892936053e-05
2.64354759163e-05
2.59670003469e-05
2.54863464846e-05
2.49918098627e-05
2.44809751211e-05
2.3950510779e-05
2.33959296538e-05
2.28113210481e-05
2.21890701894e-05
2.15195918901e-05
2.07911232776e-05
1.99896424878e-05
1.9099010619e-05
1.81014722652e-05
1.69787022519e-05
1.57136587936e-05
1.42936133866e-05
1.27148963743e-05
1.099014195e-05
9.15906529601e-06
7.3035401503e-06
5.56465171777e-06
4.14590084256e-06
3.83224593778e-05
3.82613714906e-05
3.81414317981e-05
3.79670219685e-05
3.77441090467e-05
3.74798431528e-05
3.71820869436e-05
3.6858971692e-05
3.65185167416e-05
3.61683432273e-05
3.58154847917e-05
3.54662916557e-05
3.51264027244e-05
3.48007637777e-05
3.44936604191e-05
3.42087495684e-05
3.39490718764e-05
3.37170465173e-05
3.35144479725e-05
3.3342379691e-05
3.32012519426e-05
3.30907802129e-05
3.30100075077e-05
3.29573591491e-05
3.29307240474e-05
3.29275619546e-05
3.2945023697e-05
3.29800797038e-05
3.30296428682e-05
3.30906826002e-05
3.31603196762e-05
3.32359030619e-05
3.33150629375e-05
3.33957450261e-05
3.34762237437e-05
3.3555101362e-05
3.36312920861e-05
3.37039985988e-05
3.37726799618e-05
3.38370177811e-05
3.38968788872e-05
3.39522804883e-05
3.40033553232e-05
3.40503218929e-05
3.40934567803e-05
3.41330741631e-05
3.41694615777e-05
3.42032854361e-05
3.42352749987e-05
3.42660357245e-05
3.42960557231e-05
3.43257217829e-05
3.43553324587e-05
3.43851104338e-05
3.4415211044e-05
3.44457310394e-05
3.44767144902e-05
3.45081594751e-05
3.45400221886e-05
3.45722219081e-05
3.46046434399e-05
3.46371404624e-05
3.4669536439e-05
3.47016265203e-05
3.47331771535e-05
3.47639268176e-05
3.47935846402e-05
3.48218303224e-05
3.48483121698e-05
3.48726466773e-05
3.48944165225e-05
3.49131704463e-05
3.49284219494e-05
3.49396503107e-05
3.49463009288e-05
3.49477884983e-05
3.49435000588e-05
3.49328013562e-05
3.49150435107e-05
3.4889573213e-05
3.4855743249e-05
3.4812926161e-05
3.47605274946e-05
3.46980008856e-05
3.46248611038e-05