/*--------------------------------*- C++ -*----------------------------------*\
| =========                 |                                                 |
| \\      /  F ield         | OpenFOAM: The Open Source CFD Toolbox           |
|  \\    /   O peration     | Version:  2206                                  |
|   \\  /    A nd           | Website:  www.openfoam.com                      |
|    \\/     M anipulation  |                                                 |
\*---------------------------------------------------------------------------*/
FoamFile
{
    version     2.0;
    format      ascii;
    arch        "LSB;label=64;scalar=64";
    class       volScalarField;
    location    "3.3/water";
    object      epsilonm;
}
// * * * * * * * * * * * * * * * * * * * * * * * * * * * * * * * * * * * * * //

dimensions      [0 2 -3 0 0 0 0];

internalField   nonuniform List<scalar> 
23300
(
0.000661029031639
0.000674075236989
0.000694465073876
0.000722169501424
0.000756934481909
0.00079881219163
0.000848075533186
0.000905136279737
0.000970493123423
0.00104467857077
0.00112822391752
0.00122160958876
0.00132523254296
0.00143935519311
0.00156407692681
0.00169928916667
0.00184466237258
0.00199961956919
0.00216335185671
0.00233481800005
0.00251279230094
0.00269588506507
0.00288261265122
0.00307142188666
0.00326076440592
0.00344910705112
0.003634996838
0.00381704887141
0.00399399902337
0.00416467162155
0.0043280246536
0.00448310442149
0.00462908910117
0.0047652365935
0.00489092946279
0.0050056193776
0.00510887360154
0.00520031743626
0.00527968092555
0.00534673982682
0.00540136038393
0.00544343802333
0.00547293480669
0.0054898065308
0.00549407475491
0.00548611384279
0.00546624460679
0.00543475832841
0.00539198470376
0.00533826472452
0.00527399015639
0.00519957208374
0.00511547097024
0.00502216920704
0.00492019492308
0.00481009984099
0.00469247733592
0.0045679453509
0.00443715890411
0.00430079735006
0.00415957158168
0.00401421475248
0.0038654844954
0.00371415619626
0.0035610206151
0.00340687879986
0.00325253565231
0.00309879565734
0.00294645321151
0.002796288667
0.00264905663687
0.00250548248208
0.00236625061589
0.00223200248876
0.00210332783289
0.00198076676824
0.0018648083531
0.00175590219334
0.00165447259864
0.00156095200818
0.0014758306453
0.00139974416026
0.00133361223139
0.00127886572922
0.00123777834563
0.00121364001489
0.00120789440892
0.00121613123909
0.00123422261198
0.00125955058581
0.00129044029356
0.00132573885058
0.00136457738741
0.00140623744375
0.00145007631618
0.00149548292501
0.00154185465326
0.00158858382358
0.0016350542842
0.00168064031267
0.00172471177818
0.00176663810979
0.00180579695879
0.00184157961778
0.00187340056738
0.00190070244898
0.00192296517088
0.00193970940055
0.00195050462411
0.00195497061337
0.00195278395642
0.00194367694505
0.00192744121146
0.00190392148692
0.00187308380554
0.00183496260822
0.00178967108518
0.00173740452306
0.00167845082822
0.0016131954408
0.00154213342702
0.00146587638109
0.00138516461955
0.00130087257199
0.00121401436024
0.00112573724841
0.00103730624077
0.000950068784992
0.000865402676757
0.0007846434835
0.000709001837137
0.000639479598316
0.000576802404579
0.000521380880922
0.000473310253864
0.000432410218232
0.000398308341484
0.000370584265909
0.000349034032857
0.000334195228554
0.000777461291184
0.000786695798819
0.000803993705167
0.000828893460349
0.000861166816652
0.000900785656838
0.000947873614186
0.0010026564283
0.00106541640076
0.00113644813346
0.00121601700118
0.00130431622252
0.00140142670816
0.00150727673703
0.00162160902136
0.00174395309101
0.00187361285292
0.00200966584904
0.0021509838892
0.00229626666381
0.00244409551863
0.00259299211294
0.00274148732901
0.00288818031315
0.00303179549758
0.00317121721007
0.00330551650475
0.00343395217429
0.00355596772964
0.00367116731273
0.0037792963702
0.00388020814292
0.00397384263085
0.00406019571965
0.00413930464154
0.00421122462069
0.00427602246454
0.00433376047255
0.00438449632878
0.00442827209101
0.00446511785866
0.00449504378337
0.00451804563621
0.00453409896769
0.00454318350148
0.00454535878439
0.00454065900415
0.00452909980496
0.00451069492119
0.0044854599151
0.00445342309295
0.00441462613001
0.00436913227871
0.00431702634961
0.00425842164746
0.00419346006407
0.00412231804769
0.00404520683791
0.00396237737101
0.00387412040159
0.00378077007797
0.00368270355539
0.00358034288817
0.00347415367005
0.00336464485662
0.00325236596219
0.00313790448532
0.00302188130322
0.00290494559977
0.00278776842962
0.00267103553866
0.00255543973346
0.00244167282527
0.00233041845042
0.00222234552695
0.00211810448136
0.0020183260877
0.00192362588009
0.00183461450952
0.0017519178632
0.00167620759111
0.00160824412661
0.001548925029
0.00149931634811
0.00146059638513
0.00143374740276
0.00141876548372
0.00141414121385
0.00141792820323
0.00142837917238
0.00144406745297
0.00146384664189
0.00148677930668
0.00151207411371
0.00153903848907
0.00156704604395
0.0015955153263
0.00162389716978
0.00165166801913
0.00167832736165
0.00170339786736
0.00172642697874
0.00174698946169
0.00176468994025
0.00177916556619
0.00179008789933
0.00179716461476
0.00180014003735
0.00179879549257
0.00179294834761
0.00178245103696
0.00176718884428
0.00174707802815
0.00172206336634
0.00169214132479
0.00165734557935
0.00161774457177
0.00157344473782
0.00152459640302
0.00147140122579
0.00141412275803
0.00135309864414
0.00128875510447
0.00122162114217
0.00115234122599
0.0010816820505
0.00101053006297
0.000939874676209
0.000870774793811
0.000804307839893
0.000741505662974
0.000683284957386
0.00063038275213
0.000583305416031
0.000542293847955
0.000507296766915
0.000477928838093
0.000453363008585
0.00043204216657
0.000410997910097
0.000890031077537
0.000897589984012
0.000912755454077
0.00093532774784
0.000965200288484
0.00100236050392
0.00104687160363
0.00109884511125
0.00115840905164
0.00122567321856
0.00130069350066
0.00138343543438
0.00147373960773
0.00157128998753
0.00167558948795
0.00178594466601
0.00190146456328
0.00202107433052
0.00214354681539
0.00226754857904
0.00239169957201
0.00251463774514
0.00263508502533
0.00275190365938
0.00286414112265
0.00297105511388
0.00307212258001
0.00316702884631
0.00325564621603
0.00333800045932
0.00341423643252
0.00348458015567
0.00354930743332
0.00360871370003
0.00366309327057
0.00371272057886
0.00375784036806
0.0037986585819
0.00383534050793
0.00386800807319
0.00389674284812
0.00392158740765
0.00394255183578
0.00395961921683
0.00397272643607
0.00398177283074
0.00398665074453
0.00398724352132
0.00398342958375
0.00397508553585
0.00396209156979
0.00394433481997
0.0039217143226
0.00389414426172
0.00386155857828
0.00382391424391
0.00378119561386
0.00373341770649
0.00368063022041
0.00362292062722
0.00356041762256
0.00349329370124
0.00342176768807
0.00334610635487
0.00326662558392
0.00318369051973
0.00309771488678
0.00300915919469
0.00291852783243
0.0028263650526
0.00273324979958
0.00263978969077
0.00254661418493
0.00245436757507
0.00236370199557
0.00227527136247
0.00218972656559
0.00210771294831
0.002029870282
0.00195683580014
0.00188924921347
0.00182775734746
0.0017730115234
0.00172564502012
0.00168620796459
0.00165502404711
0.00163198035549
0.00161645236411
0.00160746780935
0.001603976152
0.00160497367087
0.00160955197025
0.00161690535485
0.00162632081672
0.00163716306826
0.00164886043246
0.00166089364349
0.00167278791968
0.00168410786838
0.00169445451486
0.0017034638105
0.0017108059595
0.00171618520161
0.00171933958819
0.00172004066218
0.0017180927107
0.00171333169509
0.00170562360041
0.00169486245891
0.00168096784862
0.00166388226564
0.00164356827035
0.00162000601464
0.00159319120087
0.00156313343885
0.0015298611165
0.00149341813573
0.00145386603678
0.00141128847252
0.00136579799204
0.00131754559865
0.00126673273199
0.00121362546366
0.00115856956115
0.001102004766
0.00104447536081
0.000986633872488
0.000929234361752
0.000873112945545
0.000819154928905
0.0007682509216
0.000721246829348
0.000678894015961
0.000641804350255
0.000610409956779
0.000584919246
0.000565251315449
0.000550923101593
0.000540815116789
0.00053366336115
0.000986678378903
0.000993853014032
0.00100819789116
0.00102966693361
0.00105822471098
0.00109386209983
0.00113659307523
0.00118643955238
0.00124340918401
0.00130746848467
0.00137851401371
0.00145634300367
0.00154062644591
0.0016308864392
0.0017264816742
0.00182660293748
0.00193028230085
0.00203641607282
0.00214380285985
0.00225119285053
0.00235734610937
0.00246109195455
0.00256138540159
0.00265735187842
0.00274831858725
0.00283382688469
0.00291362936587
0.00298767025067
0.00305605703007
0.00311902370261
0.00317689442851
0.0032300466131
0.0032788806461
0.00332379287826
0.00336515712443
0.00340330953779
0.00343854102407
0.00347109146974
0.00350114961952
0.00352885311708
0.00355429258733
0.00357751497335
0.00359853033569
0.00361731864673
0.00363380762938
0.00364782112865
0.00365919040031
0.0036677418894
0.00367329804457
0.00367567880031
0.00367470497405
0.00367020089484
0.00366199812708
0.00364993844347
0.00363387760538
0.00361368857721
0.00358926532812
0.00356052622372
0.00352741777285
0.00348991804935
0.00344804020981
0.00340183569179
0.0033513972215
0.00329686142972
0.00323841096848
0.00317627609873
0.00311073546646
0.00304211618234
0.00297079282096
0.00289718559776
0.0028217573281
0.0027450095918
0.0026674777861
0.00258972566942
0.00251233919704
0.00243592036476
0.00236108088816
0.0022884363169
0.00221860011488
0.00215217765202
0.00208975857192
0.00203190571607
0.00197913669632
0.00193189362815
0.0018904961199
0.00185507806569
0.001825527297
0.00180150701466
0.00178246658315
0.00176773245475
0.00175660537221
0.00174840589972
0.00174249841825
0.00173830068468
0.0017352850974
0.00173297612453
0.00173094641342
0.00172881294064
0.00172623369238
0.00172290498141
0.00171855929529
0.00171296348062
0.0017059171199
0.00169725089532
0.00168682488776
0.00167452664551
0.00166026907385
0.00164398802521
0.00162563974216
0.00160519808612
0.00158265181197
0.00155800189775
0.00153125931711
0.00150244335091
0.00147156880392
0.00143865897084
0.00140374416747
0.00136686365072
0.00132806959361
0.00128743318499
0.00124505318422
0.00120106673589
0.00115566223572
0.00110909327419
0.00106169238438
0.00101388249979
0.000966183879791
0.000919214140073
0.000873679955605
0.000830360361241
0.000790083705389
0.00075370213997
0.000722068619149
0.000696020586228
0.000676371482596
0.000663905600561
0.000659364795681
0.000663406995241
0.000676332120299
0.000698727220737
0.00107768790247
0.00108460514749
0.00109842799178
0.00111913717271
0.00114671090417
0.00118112625563
0.00122235362935
0.00127034414893
0.00132501204688
0.001386213343
0.00145372345333
0.00152721516998
0.00160624012869
0.00169021540274
0.00177841864368
0.00186999285544
0.00196396341853
0.00205926634901
0.00215478811334
0.00224941260467
0.00234207293531
0.00243180090589
0.00251777112356
0.00259933277393
0.00267602868579
0.00274759776181
0.00281396485052
0.00287521745033
0.00293157638249
0.00298336082028
0.00303095502312
0.0030747757945
0.00311524642442
0.00315277409607
0.00318773486016
0.00322046181671
0.00325123970422
0.00328030116686
0.0033078276452
0.00333395041942
0.00335875478152
0.0033822834238
0.00340454211657
0.00342550430259
0.00344511699651
0.00346317202031
0.00347947930926
0.00349384372311
0.0035060669133
0.00351594832057
0.00352328749148
0.00352788591045
0.0035295498205
0.00352809258429
0.00352333775754
0.00351512180946
0.00350329735277
0.00348773613402
0.00346833234141
0.00344500574581
0.00341770495446
0.00338641051365
0.0033511378989
0.00331194030853
0.00326891109749
0.00322218591011
0.00317194418976
0.00311841023877
0.00306185339774
0.00300258761937
0.0029409699564
0.00287739834338
0.00281230820352
0.00274616836408
0.00267947585184
0.00261275010375
0.00254652614404
0.00248134715568
0.00241775579306
0.00235628429546
0.00229744230862
0.00224170194064
0.00218947868024
0.00214110800163
0.00209681815777
0.00205670345317
0.00202070654352
0.00198862172505
0.00196018377329
0.00193497461503
0.00191253451724
0.00189239417841
0.00187409643132
0.00185720974951
0.00184133552491
0.00182611126047
0.00181121124615
0.0017963458962
0.00178126039275
0.00176573303569
0.0017495734731
0.00173262086637
0.00171474202354
0.00169582943709
0.00167579925782
0.00165458911289
0.00163215584827
0.00160847311314
0.00158352893402
0.00155732322532
0.00152986545888
0.00150117248358
0.00147126679106
0.00144017523904
0.00140791218688
0.00137449529308
0.00133994607844
0.0013042920262
0.00126757043205
0.00122983406057
0.00119115889375
0.00115165382675
0.00111147218587
0.00107082436667
0.00102999074776
0.000989333498765
0.000949305964858
0.000910458398149
0.00087343975748
0.000838996575871
0.000807971878245
0.000781309088112
0.000760067738981
0.000745458946089
0.00073890880141
0.000742156038726
0.000757384210658
0.000787371768613
0.000835507139784
0.000906291353106
0.00116370256496
0.00117046404768
0.0011839690448
0.00120419288373
0.00123110021833
0.00126463951261
0.00130473466348
0.00135127263031
0.0014040884119
0.00146294804899
0.00152753208986
0.00159742066326
0.00167208306031
0.00175087287259
0.00183303142865
0.00191769962944
0.00200393982463
0.0020907658056
0.00217718065216
0.00226221797934
0.00234498467033
0.00242469907576
0.0025007229315
0.00257258168233
0.0026399739825
0.0027027676197
0.00276098601788
0.00281478489169
0.00286442523015
0.00291024261831
0.00295261893669
0.00299195521316
0.00302865031295
0.00306308265388
0.00309559833613
0.00312650189317
0.00315605236441
0.00318446066734
0.00321189077225
0.00323846090004
0.00326424725989
0.00328928701776
0.00331358309907
0.00333710810658
0.00335981002968
0.00338150967719
0.00340200634484
0.00342109690779
0.00343857671136
0.00345423981319
0.0034678804386
0.00347929414921
0.00348827995661
0.00349464213262
0.00349819268263
0.00349875356903
0.00349615939853
0.0034902599427
0.00348092295077
0.00346803685995
0.00345151362601
0.00343129147742
0.00340733760699
0.00337965076792
0.00334826360957
0.00331324485024
0.0032747009757
0.00323277766207
0.0031876604989
0.00313957529189
0.00308878744595
0.00303560077725
0.00298035521948
0.00292342383302
0.00286520857422
0.00280613526609
0.00274664721244
0.00268719786699
0.00262824194829
0.0025702253314
0.00251357309964
0.00245867615424
0.00240587614113
0.0023554497935
0.00230759374064
0.0022624125405
0.00221991278852
0.00218000650913
0.00214255200706
0.00210738660981
0.00207424072533
0.00204282629253
0.00201285155062
0.00198403262658
0.00195610141575
0.0019288106231
0.0019019365432
0.00187528029836
0.00184866800038
0.00182195022688
0.00179500104923
0.0017677167487
0.00174001434038
0.00171182991043
0.00168311685831
0.00165384399468
0.00162399360702
0.00159355943078
0.00156254467996
0.00153096008431
0.00149882213557
0.00146615151212
0.0014329719287
0.0013993093726
0.0013651746416
0.00133057909605
0.00129553736974
0.00126006974889
0.00122420604175
0.00118799096523
0.00115149130284
0.00111480473002
0.00107807027391
0.00104147994834
0.00100529111138
0.000969838789689
0.000935547484485
0.000902942288239
0.000872660264596
0.00084546455266
0.00082226607665
0.000804160743393
0.000792494140442
0.00078897130055
0.000795837259832
0.000816165543469
0.000854304740095
0.000916536560112
0.00101190603164
0.00115350801467
0.00124530374034
0.00125200330269
0.00126537345061
0.00128537203755
0.00131193723054
0.00134497948739
0.00138437215798
0.00142993978841
0.00148144558478
0.0015385784837
0.00160094220374
0.00166804700747
0.00173930665829
0.00181404087789
0.00189148525826
0.00197080778063
0.00205113279229
0.00213156992436
0.00221124749794
0.00228934629111
0.00236513248487
0.00243798500666
0.00250741675683
0.00257308581799
0.00263479822886
0.00269250029916
0.00274626441744
0.00279626778498
0.00284276926525
0.00288608386611
0.00292655978228
0.00296455651441
0.0030004279549
0.00303450779649
0.00306710020389
0.00309847241685
0.00312885171526
0.00315842327543
0.00318733118432
0.00321567934564
0.00324353452686
0.00327092866247
0.00329786272211
0.00332430981245
0.00335022000694
0.00337546632721
0.00339984391052
0.00342314759429
0.00344517207944
0.00346571170636
0.00348456134427
0.00350151707378
0.00351637776022
0.00352894641177
0.00353903216357
0.00354645207006
0.0035510333239
0.00355261534204
0.00355105211589
0.00354621448436
0.00353799251794
0.0035262978574
0.00351106600906
0.0034922585943
0.00346986539455
0.00344390631375
0.00341443296409
0.00338153009368
0.00334531645139
0.0033059453798
0.00326360464724
0.00321851586338
0.00317093293273
0.00312113993182
0.00306944783625
0.00301619051602
0.00296171942654
0.00290639744506
0.0028505913261
0.00279466329666
0.00273896142572
0.00268380950514
0.0026294964653
0.00257626648895
0.00252431037415
0.00247375961802
0.00242468386147
0.00237709268516
0.0023309417601
0.00228619423872
0.00224280571993
0.00220064152716
0.00215955667878
0.00211940306436
0.00208003574353
0.00204131767155
0.00200312298145
0.00196533902583
0.00192786744141
0.00189062449941
0.00185354093296
0.0018165613626
0.00177964345749
0.0017427568553
0.00170588196173
0.00166900859823
0.00163213463048
0.00159526452439
0.00155840798842
0.00152157864636
0.00148479293077
0.00144806915161
0.00141142695853
0.00137488713229
0.0013384554534
0.00130213616477
0.00126593732833
0.00122987347542
0.00119396953648
0.00115826605184
0.00112282589886
0.00108774247383
0.0010531493872
0.0010192314284
0.000986236687992
0.000954489614929
0.00092440524264
0.00089650536608
0.000871438839722
0.000850010125465
0.000833223509856
0.000822355257276
0.00081907389159
0.000825641990734
0.000845256225889
0.000882623791191
0.000944944241239
0.00104357133884
0.0011967008897
0.00143359942334
0.00132318301013
0.00132991151518
0.00134332509407
0.00136335796036
0.00138991464748
0.00142286149606
0.00146201773675
0.00150714537311
0.00155793960882
0.00161402020105
0.00167492600659
0.00174011299537
0.0018089577294
0.00188076579136
0.00195478636741
0.0020302313278
0.00210629909924
0.00218220053568
0.00225718645653
0.00233057330488
0.00240176660198
0.00247027861423
0.00253574077385
0.00259790805041
0.00265665735328
0.00271197833217
0.00276396015012
0.00281277336478
0.00285865118567
0.00290186914308
0.00294272719095
0.00298153254506
0.00301858656499
0.00305417318941
0.00308855158247
0.00312195003984
0.0031545634432
0.00318655122743
0.0032180380026
0.00324911395255
0.00327983709527
0.00331023481205
0.00334030672432
0.00337002677476
0.00339934679421
0.00342820356
0.00345639440443
0.00348371483283
0.00350996025743
0.00353492632192
0.00355840967004
0.00358020830727
0.00360012274076
0.00361795694911
0.00363351995566
0.0036466272505
0.00365710261348
0.00366477982307
0.00366950460463
0.00367113651059
0.00366955089765
0.00366464086939
0.00365631918006
0.00364452011579
0.00362920120201
0.00361034487453
0.00358795983812
0.00356208234507
0.00353277701403
0.00350013749232
0.00346428649927
0.00342537560414
0.00338358421618
0.00333911817785
0.00329220740702
0.00324310301597
0.00319207336345
0.00313939952347
0.00308536970336
0.00303027320049
0.00297439360011
0.00291800197678
0.00286135004257
0.0028046641514
0.00274814022093
0.0026919403419
0.00263619091243
0.00258098266591
0.00252637216506
0.00247238568786
0.00241909391801
0.00236657380898
0.0023148075408
0.00226376869717
0.00221342487066
0.00216374139647
0.0021146841546
0.00206622166575
0.00201832648532
0.00197097606732
0.00192415319494
0.00187784603971
0.00183204797212
0.00178675713016
0.00174197587293
0.00169771008365
0.00165396846244
0.00161076175194
0.0015681020557
0.00152600218619
0.00148447522415
0.00144353423281
0.00140319232906
0.00136346303143
0.00132434684545
0.00128584002029
0.00124794355372
0.00121066607396
0.00117402782612
0.00113806575031
0.00110283987942
0.00106844103819
0.00103499998766
0.00100269795652
0.000971778732632
0.000942562533795
0.000915462493041
0.000891005367804
0.000869859776448
0.000852877792873
0.000841160149962
0.000836162535072
0.000839873406848
0.000855117600059
0.00088608630167
0.000939286176543
0.00102528523401
0.00116198896051
0.00138075662043
0.00173739499825
0.00139811026413
0.00140495896029
0.00141859601001
0.0014389280509
0.00146582113968
0.00149909286688
0.00153850491846
0.00158375536661
0.00163447266031
0.00169021155589
0.00175045315927
0.00181460882115
0.00188202931759
0.0019520180285
0.0020238486316
0.00209678502853
0.00217010347818
0.00224311413198
0.00231518199235
0.00238574446862
0.00245432608663
0.00252054784608
0.00258413261313
0.00264490455108
0.0027027849178
0.00275778274989
0.00280998354386
0.00285953471248
0.00290663126643
0.00295150033282
0.00299438780887
0.00303554528998
0.00307522015369
0.00311364645106
0.00315103908311
0.00318758862522
0.00322345901815
0.00325878543763
0.00329367442471
0.00332820370257
0.00336242367195
0.003396358212
0.00343000668462
0.00346334498221
0.00349632722065
0.00352892636105
0.00356098572117
0.0035922982036
0.00362265714385
0.00365185743025
0.00367969594115
0.00370597142304
0.00373048514566
0.00375304147304
0.00377344905678
0.00379152192374
0.00380708095845
0.0038199552872
0.00382998388793
0.00383701713612
0.0038409184391
0.00384156583934
0.00383885358307
0.00383269367801
0.00382301730109
0.00380977619782
0.00379294381983
0.00377251643596
0.00374851386871
0.00372098016257
0.00368998376054
0.00365561754734
0.00361799828035
0.00357726580589
0.00353358155336
0.00348712674262
0.0034380998076
0.00338671352519
0.00333319141698
0.00327776399451
0.00322066453238
0.00316212502433
0.00310237211263
0.00304162363004
0.00298008550892
0.00291794948325
0.00285539117603
0.00279256878483
0.00272962206649
0.0026666719274
0.00260382161971
0.00254122511215
0.00247908651866
0.00241748614247
0.00235649255172
0.00229616437624
0.00223655247641
0.00217770134213
0.00211965033306
0.00206243473155
0.00200608652767
0.00195063494057
0.0018961067691
0.00184252654968
0.00178991664152
0.00173829718383
0.00168768606206
0.00163809881187
0.00158954861706
0.00154204632594
0.00149560066131
0.00145021855693
0.00140590581394
0.00136266798682
0.00132050108974
0.00127939257185
0.00123933555946
0.00120033191963
0.00116239628306
0.00112556100695
0.00108988230579
0.00105544757224
0.00102238410848
0.000990869363516
0.000961143082863
0.000933521945405
0.000908418013407
0.000886363300015
0.000868044763692
0.000854357169065
0.000846486902482
0.00084604970032
0.000855323923427
0.00087765761549
0.000918203370125
0.000985298195408
0.00109316795495
0.00126744246261
0.00155663582136
0.00205549322616
0.00147089721989
0.00147795936727
0.00149200432053
0.00151290803318
0.00154049402979
0.00157452682371
0.00161470672564
0.00166066521518
0.00171196301157
0.00176809094187
0.00182847552068
0.00189248841636
0.00195946066925
0.00202869959662
0.00209950833849
0.00217120531131
0.00224314343083
0.00231472650618
0.00238542333218
0.00245477744997
0.0025224139738
0.00258804191524
0.00265145403807
0.00271252281483
0.00277119487539
0.00282748246538
0.00288145452716
0.00293322581669
0.00298294679571
0.00303079255434
0.00307695348314
0.00312162571801
0.00316500392045
0.0032072741757
0.00324860936805
0.00328916465917
0.0033290752563
0.00336845406514
0.00340739128536
0.00344595361847
0.00348418503535
0.00352210693109
0.00355971955016
0.00359700287497
0.00363391923284
0.00367041711232
0.00370646080051
0.00374183036776
0.0037763126901
0.00380969890456
0.0038417835194
0.00387236362715
0.00390123905732
0.00392821254418
0.0039530905554
0.00397568406595
0.00399580973903
0.00401329102845
0.00402795950721
0.00403965613815
0.00404823263528
0.00405355279805
0.00405549382291
0.0040539476132
0.00404882196634
0.00404004177393
0.0040275500086
0.00401130872488
0.00399129976242
0.00396752544961
0.00394000892909
0.00390879445617
0.00387394724402
0.00383555324658
0.00379371842834
0.00374856794645
0.00370024479929
0.00364890840506
0.00359473270359
0.0035379042851
0.00347862019667
0.00341708593891
0.00335351332458
0.00328811862448
0.00322112060457
0.00315273870783
0.00308319093596
0.0030126916419
0.00294144897084
0.00286966242209
0.00279752061242
0.00272520083124
0.00265289411097
0.00258095300576
0.00250952913115
0.00243876537049
0.00236879090819
0.00229972118491
0.00223165851491
0.00216469318377
0.00209890441319
0.00203436116266
0.00197112286668
0.00190924005688
0.00184875498379
0.00178970215526
0.00173210891994
0.00167599600107
0.00162137812947
0.0015682646835
0.00151666050389
0.00146656680522
0.00141798237397
0.00137090496242
0.00132532791107
0.00128122924394
0.00123859340447
0.00119741443132
0.00115769999412
0.00111947625402
0.00108279377361
0.00104773453245
0.00101442033438
0.000983022827615
0.000953775731019
0.000926990123044
0.000903074511857
0.000882562561307
0.0008661536439
0.00085477510437
0.000849681980755
0.000852622453099
0.000866121910929
0.00089398896092
0.000942256210724
0.00102101885211
0.00114823373703
0.00135802001858
0.00171954427694
0.00237966718667
0.00154237096122
0.00154974253027
0.00156438527388
0.00158614153516
0.00161478826351
0.00165003227453
0.00169150784762
0.00173877576436
0.00179132598351
0.00184858375999
0.00190992087315
0.00197467048867
0.00204214588258
0.00211166028266
0.00218254728947
0.00225417886076
0.00232598078853
0.00239744344294
0.00246812892629
0.00253767343203
0.00260578698922
0.0026722498256
0.00273690785752
0.00279966626183
0.00286048344791
0.00291936384756
0.00297635163208
0.00303152342178
0.00308498210867
0.00313684975465
0.00318726181186
0.00323636061132
0.0032842904351
0.00333119207754
0.00337719917251
0.00342243413697
0.00346700590495
0.00351100728216
0.0035545139703
0.0035975831265
0.00364025336622
0.0036825441584
0.00372445637354
0.00376597211373
0.00380705556816
0.00384765349386
0.00388782668504
0.00392735791213
0.00396603019239
0.00400362920706
0.00403994422185
0.0040747676471
0.00410789495076
0.00413912446341
0.00416825784899
0.00419510056943
0.00421946278767
0.00424116021957
0.00426001522936
0.00427585787833
0.0042885270811
0.00429787174191
0.00430375189296
0.00430603984092
0.00430462122834
0.00429939612555
0.00429027996391
0.00427720451348
0.00426011863951
0.00423898910864
0.00421380112093
0.00418455888984
0.0041512859058
0.00411402524331
0.00407283952498
0.00402781093066
0.00397904086262
0.00392664967458
0.00387077608985
0.00381157672024
0.00374922532358
0.00368391217314
0.00361584315446
0.00354523885767
0.00347233322599
0.00339737191602
0.00332060996672
0.00324230897673
0.0031627336357
0.00308214798704
0.003000811578
0.00291897591363
0.00283688101857
0.00275474411388
0.0026730183544
0.00259193381484
0.00251169275764
0.00243247730824
0.0023544486818
0.00227774956164
0.00220250480328
0.00212882239618
0.00205679441966
0.00198649796832
0.00191799617571
0.0018513392173
0.00178656541023
0.00172370228667
0.00166276778071
0.00160377141527
0.00154671564835
0.00149159728192
0.001438409116
0.00138714176604
0.00133778862225
0.0012903180793
0.00124470532586
0.00120093557172
0.00115900811506
0.00111894114368
0.00108077747641
0.00104459133475
0.00101049649131
0.000978656119386
0.000949295086077
0.000922715766376
0.000899319407274
0.00087963637707
0.000864371192325
0.000854472459815
0.000851245865684
0.000856543385822
0.000873092307644
0.000905092051752
0.000959351974956
0.00104759092635
0.00119140389885
0.00143376066314
0.00186718668361
0.00270324610866
0.00161336556074
0.00162114573329
0.00163658240345
0.00165948124493
0.00168956824411
0.00172648717588
0.00176980052577
0.00181899271124
0.0018734778166
0.00193261138315
0.00199570747064
0.00206205883928
0.00213095986055
0.00220172870638
0.00227372790187
0.00234638008261
0.00241917909413
0.00249169472635
0.00256357291505
0.00263453105011
0.00270435128801
0.00277287179356
0.00283997875081
0.00290559834807
0.00296969088226
0.00303224524127
0.0030932753709
0.00315281646959
0.00321092248255
0.00326766261898
0.00332311874181
0.00337738152996
0.00343054752813
0.00348271510863
0.00353398156039
0.00358443935473
0.00363417375871
0.00368325983198
0.00373176085842
0.00377972625211
0.00382719083112
0.00387417353073
0.0039206772491
0.00396668790904
0.00401217400262
0.00405708407904
0.00410148975958
0.00414527975171
0.00418822387742
0.00423009523186
0.00427067266826
0.00430973981297
0.00434708421368
0.00438249653987
0.00441577059583
0.0044467034343
0.00447509597997
0.00450075364642
0.00452348723534
0.00454311380799
0.00455945769724
0.0045723515112
0.00458163717768
0.00458716700865
0.00458880472857
0.00458642654891
0.00457992214586
0.00456919570493
0.00455416682107
0.00453477148073
0.00451096286357
0.0044827122369
0.0044500096458
0.00441286470469
0.00437130717301
0.00432538764019
0.00427517799385
0.00422077200036
0.00416228566747
0.00409985769741
0.00403364968626
0.00396384631698
0.00389065516525
0.00381430626764
0.00373505104118
0.00365316064173
0.0035689234321
0.00348264173293
0.0033946277734
0.00330519919537
0.00321467424952
0.00312336706314
0.00303158323647
0.00293961562344
0.00284774693936
0.00275635868709
0.00266585632949
0.00257647956696
0.00248844187666
0.00240193614574
0.00231713145037
0.00223417456196
0.00215319072904
0.00207428476512
0.00199754234137
0.0019230313256
0.00185080327945
0.00178089495866
0.00171332995103
0.00164812031701
0.00158526838194
0.00152476854927
0.00146660927074
0.00141077505312
0.00135726053999
0.00130602718308
0.00125704062815
0.0012102763309
0.0011657238266
0.0011233915665
0.00108331254671
0.00104555088642
0.00101020976808
0.000977441150908
0.000947458117446
0.000920551103109
0.000897110281088
0.000877657806394
0.000862896406405
0.000853785520422
0.000851665203372
0.000858465350438
0.000877073635551
0.000912013422552
0.000970763832616
0.00106650401334
0.00122426530365
0.00149588905105
0.00199906163966
0.00302089272857
0.00168473171118
0.00169302352397
0.00170945770628
0.00173379988005
0.00176572003444
0.00180479260919
0.00185050114194
0.0019022461979
0.00195935872535
0.00202111793974
0.00208677454919
0.00215557639111
0.00222679536154
0.00229975157333
0.00237383347835
0.00244851077932
0.00252334061171
0.00259796592952
0.00267210868768
0.00274555832464
0.0028181591073
0.00288979686913
0.00296038819665
0.00302987141926
0.00309820129322
0.00316534544203
0.00323128365266
0.00329600747519
0.00335952119321
0.00342184169583
0.00348299875131
0.00354303356492