/*--------------------------------*- C++ -*----------------------------------*\
| =========                 |                                                 |
| \\      /  F ield         | OpenFOAM: The Open Source CFD Toolbox           |
|  \\    /   O peration     | Version:  2206                                  |
|   \\  /    A nd           | Website:  www.openfoam.com                      |
|    \\/     M anipulation  |                                                 |
\*---------------------------------------------------------------------------*/
FoamFile
{
    version     2.0;
    format      ascii;
    arch        "LSB;label=64;scalar=64";
    class       volScalarField;
    location    "3.3/water";
    object      k.gas;
}
// * * * * * * * * * * * * * * * * * * * * * * * * * * * * * * * * * * * * * //

dimensions      [0 2 -2 0 0 0 0];

internalField   nonuniform List<scalar> 
23300
(
0.0123522675098
0.0123578546853
0.0123688238404
0.0123851066746
0.0124067143123
0.0124336999953
0.0124661325712
0.012504074189
0.0125475650993
0.0125966084747
0.0126511608862
0.0127111224024
0.0127763343547
0.012846578442
0.012921586257
0.013001051056
0.013084650729
0.0131720702949
0.0132630324081
0.0133573200876
0.0134548012714
0.0135554366417
0.0136592848493
0.0137664860983
0.0138772455424
0.013991797447
0.0141103784433
0.0142331883249
0.0143603703673
0.014491983966
0.0146280024484
0.0147683024371
0.0149126781139
0.0150608422771
0.0152124490543
0.0153670983412
0.0155243588527
0.0156837698748
0.0158448599708
0.0160071436272
0.0161701340705
0.0163333344855
0.0164962440078
0.0166583413258
0.0168191010578
0.0169781043268
0.0171348963258
0.017289002349
0.0174399444265
0.017587239288
0.0177304050999
0.0178689566288
0.0180024097795
0.0181302778606
0.0182520759597
0.0183673192927
0.0184755280376
0.0185762279738
0.0186689560213
0.0187532631089
0.0188287204967
0.0188949246157
0.0189515040557
0.0189981258656
0.019034502797
0.0190604002222
0.0190756428601
0.0190801211223
0.019073796224
0.0190567045514
0.0190289599452
0.0189907547598
0.0189423583432
0.0188841139165
0.018816432879
0.0187397874356
0.0186547012432
0.0185617386867
0.01846149323
0.0183545747395
0.0182415964359
0.0181231593437
0.0179998329021
0.017872123548
0.0177404191794
0.0176048639647
0.017465058838
0.0173197861507
0.0171680353417
0.0170091880441
0.0168428844235
0.0166689329776
0.0164872620538
0.016297891866
0.0161009190125
0.0158965055547
0.0156848721519
0.0154662913937
0.0152410826284
0.0150096056912
0.0147722554178
0.0145294548447
0.0142816492222
0.0140292988592
0.0137728730432
0.0135128429946
0.0132496762295
0.0129838301878
0.0127157476832
0.0124458519247
0.012174543848
0.0119021993871
0.0116291695712
0.0113557810119
0.0110823867771
0.0108093333973
0.0105369744655
0.0102656864339
0.00999588941855
0.00972807062317
0.00946281243039
0.00920082153947
0.00894295895617
0.00869026487599
0.00844397492217
0.00820551933197
0.00797649980515
0.00775863758836
0.00755369331059
0.00736336376312
0.00718917038081
0.00703235821074
0.00689382533068
0.00677409446545
0.00667332651377
0.00659136153895
0.00652776414461
0.00648185004999
0.00645268462143
0.00643908847128
0.0123566219907
0.0123620392113
0.0123728517192
0.0123890573471
0.0124106748322
0.0124377289922
0.0124702339786
0.0125081753512
0.0125514948941
0.0126000750424
0.0126537280584
0.0127121870063
0.0127751050882
0.0128420600583
0.0129125703767
0.012986117932
0.0130621824706
0.0131402789563
0.013220000855
0.0133010569151
0.0133833041512
0.0134667635094
0.0135516245757
0.0136382281425
0.013727039522
0.013818604538
0.0139135064825
0.0140123160794
0.0141155540322
0.0142236545144
0.0143369473157
0.0144556422174
0.0145798313149
0.0147094898288
0.0148444907212
0.0149846130339
0.0151295600434
0.0152789679729
0.0154324221753
0.0155894627905
0.0157495970055
0.0159123013115
0.0160770306443
0.0162432198022
0.0164102829971
0.0165775520387
0.0167443702784
0.0169100836983
0.0170740417552
0.0172355939504
0.0173940918479
0.0175488869083
0.0176993329092
0.0178447851641
0.0179846036774
0.0181181540075
0.0182448114139
0.0183639634765
0.0184750153657
0.0185773941861
0.0186705553571
0.018753988467
0.0188272245471
0.0188898429675
0.0189414790902
0.0189818314054
0.0190106686897
0.0190278362288
0.0190332612845
0.0190269570125
0.0190090249181
0.0189796551198
0.0189391246891
0.0188877933226
0.0188260970278
0.018754538968
0.0186736786853
0.0185841185414
0.0184864889818
0.0183814305699
0.0182695738665
0.0181515125577
0.0180277681578
0.0178987372108
0.0177646184241
0.0176253211735
0.0174804754898
0.0173294871083
0.0171717025698
0.0170066186223
0.0168338899706
0.0166533075942
0.0164647774819
0.0162683024758
0.0160639703872
0.0158519441314
0.0156324553772
0.0154057979756
0.0151723229806
0.0149324323828
0.0146865736368
0.0144352326904
0.0141789276615
0.0139182011879
0.0136536135415
0.0133857347043
0.0131151374442
0.012842389722
0.0125680484522
0.0122926530803
0.012016721027
0.0117407436248
0.0114651847246
0.0111904810558
0.0109170613847
0.0106453378906
0.0103757109503
0.0101085800982
0.00984435916253
0.00958349426166
0.00932648570415
0.00907391160323
0.0088264526655
0.00858491423406
0.0083502427177
0.00812353068908
0.0079060066176
0.00769900475737
0.00750391506556
0.00732211629407
0.00715490163143
0.00700340917542
0.00686857063686
0.00675108663868
0.0066514290328
0.0065698601422
0.00650645004151
0.00646106534071
0.00643329328441
0.00642222806238
0.0123798630705
0.0123855029151
0.0123968143429
0.0124138203989
0.0124365380639
0.0124649680281
0.0124990809811
0.0125388014682
0.0125839933634
0.0126344459316
0.0126898647925
0.0127498668161
0.0128139839902
0.0128816745223
0.0129523457099
0.0130253843806
0.01310019748
0.013176254923
0.0132531351896
0.0133305628026
0.0134084383793
0.0134868504318
0.0135660736214
0.0136465458437
0.0137288349901
0.0138135911016
0.0139014990598
0.0139932275614
0.014089389664
0.0141905071745
0.0142969916298
0.0144091299813
0.0145270854818
0.0146508995584
0.0147805046058
0.0149157333242
0.0150563351061
0.0152019861049
0.0153523041373
0.0155068563179
0.0156651707755
0.0158267416537
0.0159910386883
0.0161575123062
0.0163255871524
0.0164945201705
0.0166635908429
0.016832090827
0.0169993206213
0.0171645848848
0.017327192091
0.0174864524937
0.0176416793424
0.0177921887322
0.0179373020095
0.0180763473124
0.0182086631293
0.0183336014836
0.01845053266
0.0185588499554
0.0186579755075
0.0187473664053
0.0188265213839
0.01889498787
0.018952369049
0.0189983311221
0.0190326099254
0.0190550173453
0.0190654463537
0.019063875273
0.0190503699204
0.0190250843724
0.0189882590099
0.0189402166875
0.0188813558441
0.0188121414414
0.0187330927573
0.0186447687934
0.0185477504002
0.0184426193723
0.0183299333054
0.0182101955721
0.0180838192284
0.0179510856414
0.0178121032816
0.0176667816164
0.0175148672471
0.0173561619098
0.0171902943127
0.0170169490772
0.0168358969144
0.0166470020539
0.0164502203505
0.0162455936404
0.0160332436942
0.0158133660655
0.0155862246103
0.0153521458258
0.0151115134418
0.0148647623926
0.0146123727744
0.0143548630514
0.0140927832804
0.0138267076755
0.0135572273851
0.0132849428167
0.0130104564704
0.0127343656291
0.0124572559602
0.0121796954025
0.0119022294862
0.0116253775077
0.01134963081
0.0110754526911
0.0108032833869
0.0105335427927
0.0102666332358
0.0100029479672
0.00974288307769
0.00948685200792
0.00923530315137
0.0089887390655
0.00874773663919
0.00851296542686
0.0082852018468
0.00806533521404
0.00785436266619
0.00765337011932
0.00746349950844
0.00728590528593
0.00712170757716
0.0069719517386
0.00683758476841
0.00671945542359
0.00661833833745
0.00653497276383
0.00647009479505
0.0064244252753
0.00639854920874
0.00639257733929
0.0124180834513
0.0124243616689
0.0124369396533
0.0124558300031
0.0124810231862
0.0125124764189
0.012550101421
0.012593749721
0.0126431998456
0.0126981460742
0.0127581932665
0.0128228569813
0.0128915735117
0.0129637176358
0.0130386315103
0.013115659774
0.0131941921908
0.0132737056877
0.013353805732
0.0134342571295
0.0135150054115
0.0135961800054
0.0136780846231
0.0137611693095
0.0138459947403
0.0139331856791
0.0140233869989
0.0141172184816
0.0142152410871
0.0143179276146
0.0144256479781
0.0145386586946
0.0146571049832
0.0147810235259
0.0149103539423
0.0150449472192
0.0151845796447
0.015328961495
0.0154777494834
0.0156305533321
0.0157869455131
0.0159464655541
0.016108627621
0.0162729237149
0.016438838692
0.0166056529693
0.016772653804
0.0169391397096
0.0171044185299
0.0172678032521
0.0174286110265
0.0175861612303
0.0177397762192
0.0178887813911
0.0180325072738
0.0181702912461
0.0183014807631
0.0184254365734
0.0185415369968
0.018649182506
0.0187478009473
0.0188368532736
0.0189158394787
0.018984305106
0.0190418474634
0.0190881222944
0.0191228495735
0.0191458194476
0.0191568966332
0.0191560244884
0.0191432268392
0.0191186089312
0.0190823554959
0.0190347274281
0.01897605509
0.0189067298218
0.0188271917708
0.0187379156236
0.0186393924796
0.0185321094095
0.0184165252565
0.0182930446386
0.018161990298
0.0180235784788
0.0178779023163
0.0177249323862
0.017564539521
0.0173967083508
0.017221388928
0.0170384540107
0.0168478279288
0.0166494962506
0.0164435103113
0.0162299884661
0.0160091148791
0.0157811369458
0.0155463616828
0.0153051514086
0.0150579188275
0.0148051215432
0.0145472561801
0.0142848520136
0.0140184644175
0.0137486679413
0.0134760494576
0.0132012011267
0.0129247137482
0.0126471702033
0.012369139675
0.0120911723143
0.0118137951342
0.0115375087653
0.0112627859042
0.0109900710299
0.0107197801867
0.0104523088318
0.010188034527
0.00992732429841
0.00967054477258
0.0094180744148
0.00917031814371
0.00892772309195
0.00869079487987
0.00846011218118
0.00823633777642
0.00802022313361
0.00781260458807
0.00761438957207
0.00742653403803
0.00725001465048
0.00708580299599
0.00693485124462
0.00679809971881
0.00667651476533
0.00657116078395
0.00648330240623
0.00641452060008
0.00636680496055
0.00634254725256
0.00634427606918
0.012477296109
0.012484554032
0.0124990626312
0.0125207984962
0.0125497025426
0.0125856662964
0.012628520352
0.0126780215911
0.0127338434932
0.0127955689568
0.0128626907004
0.0129346179199
0.013010693423
0.0130902179666
0.0131724842372
0.0132568143357
0.0133426013688
0.0134293466942
0.013516693139
0.013604445431
0.0136925804538
0.0137812405331
0.0138707165145
0.0139614165574
0.0140538311355
0.0141484913158
0.0142459320528
0.0143466561066
0.014451109058
0.0145596581213
0.0146725832164
0.0147900706473
0.0149122166899
0.015039030636
0.0151704445491
0.0153063197127
0.0154464574521
0.0155906052239
0.0157384659161
0.0158897021638
0.0160439435092
0.0162007890633
0.0163598131541
0.0165205676108
0.0166825878
0.0168452675866
0.0170079273051
0.0171698983085
0.017330520548
0.017489138643
0.0176451007842
0.017797757016
0.0179464598991
0.0180905647596
0.0182294316805
0.0183624272959
0.0184889278112
0.018608322093
0.0187200155531
0.0188234343504
0.0189180299894
0.019003284413
0.0190787150915
0.0191438806746
0.0191983862056
0.01924188883
0.0192741025717
0.0192948033831
0.0193038327008
0.0193011009158
0.019286588744
0.0192603480615
0.0192225000507
0.0191732323489
0.0191127930114
0.0190414830889
0.0189596457112
0.0188676535981
0.0187658931441
0.0186547472801
0.0185345759406
0.0184056972044
0.0182683695739
0.0181227802437
0.0179690416776
0.017807201024
0.0176372604812
0.0174592053623
0.0172733433177
0.0170797381354
0.0168784800752
0.0166696987938
0.0164535678834
0.0162303076624
0.0160001860963
0.01576351836
0.0155206649394
0.0152720287668
0.0150180513907
0.0147592084842
0.0144960047885
0.014228968602
0.0139586460211
0.0136855948978
0.0134103788462
0.0131335611644
0.0128556991288
0.012577338454
0.0122990084829
0.012021217835
0.0117444511482
0.0114691665801
0.0111957947224
0.0109247385083
0.0106563707619
0.010391045369
0.0101291002418
0.00987086411797
0.00961666558132
0.00936684365151
0.00912176009324
0.00888181230514
0.00864744619066
0.00841916712113
0.00819754758604
0.00798322931715
0.00777691879114
0.00757937558972
0.00739139564784
0.00721379374412
0.00704739308979
0.00689303246461
0.00675160375036
0.00662413381509
0.00651192565772
0.00641677438776
0.00634127330673
0.00628921724459
0.00626607511917
0.00627937370762
0.0125601574531
0.0125687066295
0.0125857577943
0.0126112308896
0.0126449923504
0.0126868403792
0.0127364950047
0.0127935882939
0.0128576592613
0.0129281525933
0.0130044263202
0.0130857663342
0.0131714114248
0.0132605841219
0.0133525287726
0.0134465495607
0.0135420485979
0.013638555723
0.0137357511659
0.0138334738772
0.0139317198675
0.0140306258172
0.0141304459494
0.0142315192261
0.0143342369828
0.0144390077986
0.0145462295639
0.014656263477
0.0147694184113
0.0148859379997
0.0150059974941
0.0151297013412
0.0152570880616
0.0153881332105
0.0155227572404
0.0156608296303
0.0158021764596
0.0159465835677
0.0160938025671
0.0162435525561
0.0163955245569
0.0165493822098
0.0167047653704
0.0168612909936
0.0170185575607
0.0171761008795
0.0173332888809
0.0174894984683
0.0176441133356
0.017796520489
0.0179461093071
0.0180922701364
0.0182343950225
0.0183718781541
0.0185041178363
0.018630518329
0.0187504927032
0.01886346576
0.0189688775429
0.0190661871087
0.0191548765101
0.0192344551878
0.0193044642068
0.019364480975
0.0194141234295
0.0194530546797
0.0194809867092
0.0194976844002
0.0195029681666
0.0194967166677
0.0194788676526
0.0194494185624
0.0194084247919
0.0193559973642
0.019292297869
0.0192175325473
0.0191319434593
0.019035798812
0.0189293807012
0.0188129727399
0.0186868465393
0.0185512502567
0.018406399248
0.0182524726136
0.0180896156151
0.0179179495358
0.0177375852228
0.0175486373108
0.017351348272
0.0171461950213
0.0169334251732
0.0167133159039
0.0164861726415
0.0162523302699
0.0160121533314
0.0157660360404
0.0155144012174
0.0152576984852
0.0149964015387
0.0147310047907
0.0144620194396
0.0141899690967
0.0139153851582
0.0136388019204
0.0133607517489
0.0130817601936
0.0128023414711
0.0125229941196
0.0122441973367
0.0119664077283
0.0116900570311
0.0114155504684
0.0111432663127
0.0108735562317
0.0106067410847
0.0103431249527
0.0100829986107
0.00982664594357
0.0095743520918
0.0093264126525
0.009083143996
0.00884489359835
0.00861204982569
0.00838504951188
0.00816438223563
0.00795058962771
0.00774425923346
0.00754601314562
0.00735649410057
0.00717635404459
0.00700625382294
0.00684688612212
0.00669903856078
0.00656372014516
0.00644238558982
0.00633731219425
0.00625221920268
0.00619327097054
0.00617064654881
0.00620074480963
0.0126681383045
0.0126782647916
0.0126984201385
0.0127284484833
0.0127681158444
0.0128170964184
0.0128749658058
0.0129411959758
0.0130151567734
0.0130961224684
0.0131832885313
0.0132757954362
0.0133727622058
0.0134733235943
0.0135766712249
0.0136820904744
0.0137889930598
0.0138969374874
0.0140056396968
0.014114968544
0.0142249322356
0.0143356529292
0.0144473384571
0.0145602490532
0.0146746685616
0.0147908764452
0.0149091287799
0.0150296420885
0.0151525866439
0.0152780812813
0.0154061956223
0.0155369511881
0.0156703274512
0.0158062646547
0.0159446699243
0.0160854191835
0.0162283617006
0.0163733204207
0.016520094859
0.0166684602307
0.0168181692431
0.0169689507536
0.0171205113126
0.0172725346089
0.0174246847306
0.0175766595654
0.0177278814328
0.0178777793767
0.0180257865737
0.0181713374429
0.0183138671002
0.0184528103535
0.0185876025583
0.0187176802253
0.0188424829763
0.0189614553879
0.0190740496839
0.0191797284643
0.0192779678594
0.0193682608741
0.0194501207901
0.0195230848888
0.0195867178917
0.0196406158027
0.0196844091402
0.0197177665853
0.0197403976888
0.0197520559346
0.0197525405229
0.0197416983769
0.0197194245258
0.0196856625277
0.0196404029443
0.0195836816638
0.0195155760357
0.0194362007497
0.0193457015117
0.0192442486544
0.019132029033
0.0190092386963
0.0188760752292
0.0187327326869
0.0185793985077
0.0184162551238
0.0182434848687
0.0180612787101
0.0178698449681
0.0176694167367
0.0174602563529
0.0172428470958
0.01701783263
0.0167856292639
0.0165466743777
0.0163014212562
0.0160503374362
0.0157939035547
0.0155326122482
0.0152669667233
0.0149974787569
0.0147246662941
0.0144490506067
0.0141711531007
0.0138914919289
0.0136105783907
0.0133289134146
0.013046984003
0.0127652600369
0.0124841912328
0.0122042047224
0.0119257029711
0.0116490625511
0.0113746334185
0.0111027392225
0.0108336782218
0.0105677170863
0.0103051071421
0.0100460890415
0.00979089881097
0.00953977518371
0.00929296750747
0.00905074422248
0.00881340083901
0.008581266884
0.00835471034182
0.00813413873283
0.00791999555743
0.00771275205307
0.00751289495072
0.00732091331405
0.00713728988189
0.00696250625465
0.00679707588602
0.00664162655638
0.00649706710756
0.00636489930037
0.00624778777417
0.00615060484813
0.00608235978128
0.00605971806905
0.00611297410228
0.0128013702067
0.0128133393153
0.0128371187481
0.012872457865
0.0129189957209
0.01297625014
0.0130436162523
0.0131203683285
0.0132056700002
0.0132985909198
0.0133981344686
0.0135032720786
0.0136129858335
0.0137263116479
0.0138423823792
0.0139604620353
0.0140799711697
0.0142004965602
0.0143217889132
0.0144437452352
0.0145663836699
0.0146898097866
0.0148141839516
0.0149396882217
0.0150665014219
0.0151947781695
0.0153246383322
0.0154561599959
0.015589380974
0.0157243006759
0.0158608872591
0.0159990820257
0.0161388066682
0.016279966086
0.0164224530582
0.0165661482443
0.0167109220707
0.0168566325024
0.0170031250989
0.0171502297114
0.0172977597695
0.0174455088485
0.0175932499079
0.0177407324355
0.0178876826282
0.0180339659469
0.0181790753902
0.0183224983692
0.0184637202119
0.0186022242919
0.0187374926738
0.0188690056175
0.0189962425081
0.0191186825285
0.01923580653
0.0193470988222
0.019452049678
0.0195501578572
0.0196409334176
0.0197239006645
0.0197986010291
0.0198645962002
0.0199214708752
0.01996883585
0.0200063304491
0.0200336253424
0.020050424442
0.0200564671914
0.0200515296915
0.0200354261857
0.0200080091635
0.0199691697653
0.0199188366311
0.0198569750072
0.0197835842146
0.0196986954252
0.0196023679236
0.0194946859729
0.0193757546889
0.0192456972699
0.0191046523194
0.018952773731
0.0187902319596
0.0186172185903
0.0184339521375
0.0182406852652
0.0180377099483
0.0178253600587
0.0176040091413
0.0173740678513
0.0171362125947
0.0168912632128
0.0166397797937
0.0163823326793
0.0161194934894
0.0158518332243
0.0155799199925
0.0153043173153
0.0150255822689
0.0147442636477
0.0144608999577
0.0141760172384
0.0138901268255
0.0136037229989
0.0133172807769
0.0130312537092
0.0127460720305
0.0124621409421
0.0121798394563
0.0118995194996
0.0116215057548
0.011346095883
0.0110735616222
0.0108041503341
0.0105380768263
0.0102755399287
0.0100167299416
0.00976183428949
0.00951104404894
0.00926456062079
0.00902260248683
0.00878541101773
0.00855325483681
0.00832643141908
0.00810526525122
0.00789010156584
0.00768129586297
0.00747920016726
0.00728414926011
0.00709645247576
0.00691640085663
0.00674430524315
0.00658059166561
0.00642600098095
0.00628198349119
0.00615147403943
0.00604044104888
0.00596104740214
0.00593811088702
0.0060215523763
0.01295895229
0.0129730148143
0.013000909
0.0130422705734
0.0130965848013
0.013163180298
0.0132412348878
0.0133297866976
0.0134277555814
0.0135339719937
0.0136472174503
0.0137662706037
0.0138899591973
0.0140172088315
0.0141470869793
0.0142788330993
0.0144118754197
0.01454582873
0.0146804785261
0.0148157501917
0.0149516725835
0.0150883365665
0.0152258585605
0.0153643478881
0.0155038856716
0.0156445104622
0.0157862155142
0.0159289501038
0.0160726285227
0.0162171384052
0.0163623524644
0.0165081360265
0.0166543555703
0.0168008817514
0.0169475929815
0.0170943738487
0.0172411147165
0.0173877072244
0.0175340417993
0.0176800021355
0.017825462232
0.0179702811357
0.0181143002724
0.0182573385599
0.018399188714
0.018539780362
0.0186788058041
0.0188158023342
0.0189503023882
0.0190818356335
0.0192099295037
0.0193341084019
0.0194538942989
0.0195688072428
0.01967836703
0.0197820948652
0.0198795156519
0.0199701603017
0.0200535682325
0.020129289967
0.0201968895713
0.0202559472982
0.0203060617875
0.0203468525666
0.0203779618754
0.0203990568668
0.0204098309365
0.0204100054866
0.0203993306607
0.0203775865568
0.0203445832992
0.020300161635
0.0202441923379
0.0201765762129
0.0200972429533
0.0200061507566
0.0199032850035
0.0197886580198
0.019662308367
0.0195243017752
0.0193747323039
0.0192137257492
0.0190414437429
0.0188580899066
0.0186639157597
0.0184592265354
0.0182443839256
0.0180198056684
0.0177859605392
0.0175433603871
0.0172925530466
0.0170343197202
0.0167696878064
0.0164993354828
0.0162239351699
0.0159441480624
0.0156606212757
0.0153739844089
0.0150848471228
0.0147937974644
0.0145014003251
0.0142081959851
0.0139146987901
0.0136213958557
0.01332874603
0.0130371789175
0.012747094292
0.012458861628
0.012172820148
0.0118892790593
0.0116085184279
0.011330790325
0.0110563207145
0.0107853116541
0.0105179321402
0.0102543308193
0.00999464918006
0.00973902678729
0.00948760702539
0.00924054260752
0.00899800075405
0.00876016704698
0.00852724750502
0.00829946769269
0.0080770683313
0.00786029663047
0.00764939370854
0.007444579165
0.00724603603349
0.00705390167452
0.00686827460071
0.00668925402804
0.00651704258082
0.00635217047822
0.00619596211971
0.00605151038815
0.00592576735808
0.00583417596433
0.00581106913944
0.00593183721222
0.0131392385464
0.0131556388625
0.0131881253633
0.013236201484
0.0132991719604
0.0133761430603
0.0134660381839
0.013567620626
0.0136795285141
0.013800318284
0.0139285196337
0.0140626943652
0.0142014980614
0.0143437339815
0.0144883969674
0.0146346981979
0.0147820721122
0.0149301613804
0.0150787869762
0.0152279041065
0.0153775547908
0.0155278190262
0.0156787748152
0.015830466057
0.0159828850706
0.0161359643687
0.0162895811275
0.0164435661716
0.0165977198527
0.0167518263682
0.0169056698309
0.0170590448628
0.0172117665367
0.0173636738089
0.0175146322953
0.0176645313915
0.0178132818752
0.0179608093554
0.0181070494365
0.0182519400973
0.018395416604
0.0185374046104
0.0186778162403
0.0188165454374
0.0189534679786
0.0190884457692
0.0192215214563
0.0193522635338
0.0194802466511
0.0196050446309
0.0197262282325
0.0198433635488
0.0199560122061
0.0200637316644
0.0201660766547
0.0202626006741
0.0203528580592
0.0204364060952
0.0205128072462
0.0205816314704
0.0206424583204
0.0206948792196
0.0207384992738
0.0207729393628
0.020797837577
0.0208128510372
0.0208176569199
0.0208119539636
0.0207954630942
0.0207679286317
0.020729118585
0.0206788256455
0.020616867308
0.0205430868416
0.0204573535146
0.0203595638815
0.0202496425619
0.0201275443758
0.0199932563266
0.0198468012756
0.0196882418098
0.019517685916
0.0193352927314
0.0191412793641
0.0189359265104
0.0187195830697
0.0184926672683
0.0182556645825
0.0180091211163
0.0177536343794
0.0174898418639
0.01721841262
0.0169401080423
0.0166562364017
0.0163675433881
0.0160747784761
0.0157786696427
0.0154799170834
0.015179189571
0.0148771227085
0.0145743175871
0.0142713397151
0.0139687182856
0.0136669456376
0.0133664771125
0.0130677310691
0.0127710893483
0.0124768978732
0.0121854677475
0.0118970764971
0.0116119698756
0.0113303638567
0.0110524472679
0.0107783846439
0.0105083088207
0.0102423220589
0.00998051988649
0.00972299587195
0.00946984663089
0.00922117629126
0.00897710028379
0.00873774750468
0.00850326044105
0.00827379219177
0.00804949996748
0.00783053443824
0.00761702538233
0.00740906472112
0.00720669005477
0.00700987408961
0.00681852992964
0.00663254980825
0.00645191088446
0.00627691627604
0.0061087204181
0.00595048491662
0.005810012272
0.00570600301248
0.00568328219968
0.00584810651562
0.0133401150926
0.0133591000251
0.013396661043
0.013452150672
0.0135246661079
0.0136130578481
0.0137159570772
0.013831812637
0.013958942129
0.0140955920979
0.014240009284
0.0143905134437
0.0145455690073
0.0147038437602
0.0148642517364
0.0150259714424
0.0151884417733
0.0153513332614
0.0155145035405
0.0156779398565
0.0158417007333
0.0160058599728
0.016170463318
0.0163354968862
0.016500873111
0.0166664282758
0.0168319336808
0.0169971117783
0.0171616584825
0.0173252631446
0.0174876287715
0.0176484856282
0.0178076026587
0.0179647914674
0.018119908488
0.0182728509895
0.0184235528586
0.0185719761186
0.0187181038231
0.0188619303146
0.0190034538808
0.0191426677973
0.0192795540873
0.0194140761417
0.0195461739181
0.0196757579838
0.0198030887136
0.0199278121964
0.0200495590979
0.020167949512
0.0202825954731
0.0203931011625
0.0204990634832
0.020600072329
0.0206957118213
0.0207855616386
0.020869198895
0.02094620008
0.0210161430925
0.0210786093534
0.0211331856879
0.0211794663691
0.0212170547114
0.0212455649371
0.0212646234452
0.0212738704758
0.0212729610863
0.0212615666499
0.021239375633
0.0212060950301
0.0211614511045
0.0211051909409
0.021037083398
0.020956921056
0.0208645217266
0.0207597311745
0.0206424256203
0.0205125156807
0.0203699503163
0.0202147223464
0.0200468740341
0.0198665040101
0.0196737737956
0.0194689146616
0.0192522327277
0.0190241125411
0.0187850170893
0.0185354846956
0.0182761217606
0.0180075927292
0.0177306076493
0.0174459091228
0.0171542579411
0.0168563981254
0.0165537729907
0.0162472535543
0.0159376508557
0.0156257395501
0.0153122514042
0.0149978767971
0.0146832623349
0.0143690099003
0.0140556761356
0.0137437722597
0.0134337644614
0.0131260745726
0.0128210812814
0.0125191215286
0.0122204924183
0.0119254532569
0.0116342281123
0.011347008503
0.0110639566488
0.0107852088862
0.0105108751896
0.0102410167633
0.00997568731378
0.00971493732945
0.00945881848527
0.00920738726315
0.00896070759913
0.00871885165694
0.00848189837509
0.00824992883145
0.00802301810766
0.00780122313432
0.0075845670132
0.00737302086915
0.00716648617661
0.00696478270004
0.00676765183451
0.00657479332271
0.0063859713071
0.00620126594045
0.00602164467437
0.0058502769543
0.00569568811397
0.00557971859519
0.00555829053947
0.00577307437567
0.0135592185078
0.0135810463935
0.013624186573
0.0136878217896
0.0137708141132
0.0138717235581
0.0139888497649
0.0141202856806
0.0142639872256
0.014417852778
0.0145798126202
0.0147479168991
0.0149204178467
0.0150958329898
0.0152729862087
0.0154510183269
0.0156293708365
0.0158077424514
0.0159860292698
0.0161642535239
0.0163424942298
0.0165208240741
0.0166992627666
0.0168777460016
0.0170561146741
0.0172341179211
0.0174114306569
0.0175876765172
0.0177624562961
0.0179353733483
0.0181060578202
0.0182741832096
0.0184394792867
0.0186017366899
0.0187608085752
0.018916605593
0.0190690899264
0.0192182649266
0.0193641657696
0.0195068476185
0.019646376082
0.0197828163555
0.0199162250634
0.020046641052
0.020174077897
0.0202985129018
0.020420225408
0.0205391532621
0.0206549676121
0.0207673239499
0.0208758678842
0.020980235217
0.0210800518334
0.0211749335023
0.0212644867654
0.0213483100595
0.021425995421
0.0214971303066
0.0215612995139
0.0216180871897
0.0216670786228
0.0217078621941
0.0217400309187
0.0217631842641
0.0217769294514
0.0217808831662
0.0217746727064
0.0217579376803
0.0217303311489
0.0216915214687
0.0216411936399
0.0215790515198
0.0215048196576
0.0214182461751
0.0213191054298
0.0212072019078
0.021082374071
0.0209444995703
0.0207935005146
0.0206293500695
0.0204520789692
0.0202617829207
0.020058629269
0.0198428634721
0.0196148135462
0.0193748927274
0.0191235986915
0.0188615098272
0.0185892777272
0.0183076171009
0.0180172931775
0.0177191081172
0.0174138872125
0.0171024649156
0.0167856890713
0.0164647015619
0.0161407686174
0.0158147249621
0.0154873608247
0.0151594272617
0.0148316240304
0.0145045999784
0.0141789515966
0.0138552228038
0.0135339055182
0.0132154406264
0.0129002196034
0.0125885863782
0.0122808397539
0.0119772359739
0.0116779917949
0.0113832876435
0.0110932712249
0.0108080611188
0.0105277586561
0.0102523940869
0.00998198479903
0.00971654210643
0.00945607547129
0.00920059555837
0.00895011600915
0.00870465313952
0.00846422328612
0.00822883694907
0.00799848949916
0.00777314801558
0.00755273476671
0.00733710832434
0.00712604506085
0.00691922587097
0.00671623761098
0.00651660733008
0.00631990684701
0.00612601028885
0.00593570032529
0.00575211891629
0.00558440651515
0.00545738076279
0.00543835957689
0.00570789861261
0.0137940820276
0.0138190315089
0.0138682953716
0.013940866949
0.0140353440284
0.0141499594283
0.0142826390035
0.0144310747422
0.0145928159684
0.0147653705331
0.0149463146886
0.0151333978752
0.0153246361388
0.0155183798471
0.0157133521785
0.0159086509091
0.0161037186342
0.0162982834191
0.0164922827157
0.0166857777527
0.0168788728543
0.0170716451296
0.0172640945112
0.0174561132732
0.0176474784835
0.0178378604707
0.0180268465744
0.0182139707345
0.0183987478812
0.0185807046288
0.0187594074071
0.0189344819147
0.0191056274961
0.0192726223314
0.0194353245491
0.0195936661544
0.0197476452916
0.0198973139561
0.0200427663626
0.02018412496
0.0203215286631
0.0204551201368
0.0205850360336
0.0207113971778
0.0208343026005
0.0209538269103
0.0210700296449
0.0211833925379
0.0212935936815
0.0214003142018
0.0215032274484
0.0216019945808
0.0216962633969
0.021785667867
0.0218698288302
0.0219483549903
0.0220208445283
0.0220868868764
0.0221460646291
0.0221979555518
0.0222421344161
0.0222781749859
0.0223056516651
0.0223241414141
0.0223332252562
0.022332490191
0.0223215306867
0.0222999507254
0.0222673654606
0.0222234035783
0.0221677093458
0.0220999455199
0.0220197960553
0.0219269698273
0.021821204289
0.0217022702729
0.0215699768356
0.0214241772923
0.0212647752885
0.0210917318982
0.0209050724847
0.0207048940447
0.0204913715974
0.0202647640112
0.0200254177272
0.0197737685961
0.019510340525
0.0192357413912
0.0189506556108
0.0186558343571
0.0183520835842
0.0180402512258
0.0177212140751
0.0173958662126
0.0170651080601
0.0167298387021
0.0163908496146
0.0160498057251
0.0157075300069
0.015364857109
0.0150225433053
0.014681294752
0.0143417592812
0.0140045266909
0.0136701290347
0.0133390416399
0.0130116848175
0.0126884258658
0.0123695816809
0.0120554215555
0.0117461705327
0.0114420129029
0.0111430962629
0.0108495357541
0.0105614190487
0.0102787810145
0.0100016064131
0.0097298713216
0.00946354644794
0.00920259943057
0.00894699584161
0.00869669806386
0.00845166178595
0.00821182933471
0.00797711967759
0.0077474147223
0.00752254242442
0.00730225761368
0.00708622308448
0.00687399547654
0.00666502507955
0.00645868752741
0.00625438596817