/*--------------------------------*- C++ -*----------------------------------*\
| =========                 |                                                 |
| \\      /  F ield         | OpenFOAM: The Open Source CFD Toolbox           |
|  \\    /   O peration     | Version:  2206                                  |
|   \\  /    A nd           | Website:  www.openfoam.com                      |
|    \\/     M anipulation  |                                                 |
\*---------------------------------------------------------------------------*/
FoamFile
{
    version     2.0;
    format      ascii;
    arch        "LSB;label=64;scalar=64";
    class       volScalarField;
    location    "3.3/water";
    object      Tf.gasAndLiquid;
}
// * * * * * * * * * * * * * * * * * * * * * * * * * * * * * * * * * * * * * //

dimensions      [0 0 0 1 0 0 0];

internalField   nonuniform List<scalar> 
23300
(
333.121727353
333.121802006
333.121953813
333.12218635
333.122504146
333.122912456
333.12341711
333.124024354
333.12474066
333.125572466
333.126525842
333.127606078
333.128817188
333.13016136
333.131638372
333.133245035
333.134974709
333.136816985
333.138757589
333.140778575
333.142858835
333.14497492
333.147102104
333.149215606
333.151291831
333.153309498
333.155250537
333.157100676
333.158849681
333.160491272
333.162022773
333.16344457
333.164759478
333.165972086
333.167088143
333.168114039
333.169056377
333.169921654
333.170716047
333.17144527
333.172114502
333.172728357
333.173290889
333.17380562
333.174275484
333.174702336
333.175087816
333.175433371
333.175740266
333.176009604
333.176242345
333.176439327
333.176601279
333.176728838
333.176822566
333.176882961
333.176910472
333.17690551
333.176868458
333.176799684
333.176699554
333.176568436
333.176406718
333.176214814
333.175993175
333.175742298
333.175462733
333.175155093
333.174820055
333.174458363
333.174070831
333.173658335
333.173221808
333.172762227
333.172280601
333.171777949
333.171255278
333.170713553
333.170153661
333.169576369
333.168982264
333.16837166
333.167744462
333.167099919
333.166436208
333.165749836
333.165036122
333.164290454
333.16350951
333.162691111
333.161833721
333.160936182
333.15999757
333.159017125
333.157994202
333.156928245
333.155818767
333.154665333
333.153467539
333.152225002
333.150937337
333.14960414
333.148224965
333.146799303
333.145326565
333.143806057
333.142236962
333.140618329
333.138949059
333.137227907
333.135453497
333.133624348
333.131738933
333.12979577
333.127793349
333.125730427
333.123606248
333.121420822
333.119175265
333.116872204
333.114516235
333.112114405
333.109676683
333.10721634
333.104750167
333.102298414
333.099884367
333.097533486
333.095272113
333.093125847
333.091119071
333.089272252
333.087600862
333.086115182
333.084820765
333.083719415
333.082810389
333.082091458
333.08155958
333.08121123
333.121926878
333.122007024
333.122169012
333.122416011
333.122752302
333.123183029
333.123713992
333.124351446
333.125101858
333.125971621
333.12696669
333.128092142
333.129351673
333.130747037
333.132277471
333.133939151
333.135724746
333.137623138
333.139619377
333.141694922
333.143828197
333.145995436
333.148171763
333.150332398
333.152453867
333.154515082
333.156498188
333.158389091
333.16017767
333.16185766
333.163426297
333.164883793
333.166232716
333.167477363
333.168623181
333.169676262
333.170642942
333.171529494
333.172341917
333.173085803
333.173766256
333.174387869
333.174954723
333.175470419
333.175938018
333.176359476
333.176736545
333.177070786
333.177363585
333.177616175
333.177829651
333.178004986
333.178143056
333.178244645
333.178310468
333.178341177
333.17833738
333.17829965
333.178228531
333.178124559
333.177988261
333.177820175
333.177620851
333.177390868
333.177130838
333.176841416
333.176523307
333.176177272
333.175804131
333.175404767
333.174980121
333.17453119
333.174059018
333.173564686
333.173049294
333.172513941
333.171959703
333.1713876
333.170798561
333.170193376
333.169572632
333.168936625
333.168285221
333.167617657
333.16693228
333.166226292
333.165496209
333.164738332
333.163949088
333.163125696
333.162266037
333.16136848
333.160431739
333.159454769
333.1584367
333.157376787
333.156274373
333.155128869
333.153939724
333.15270641
333.151428405
333.150105164
333.14873611
333.147320607
333.145857946
333.144347322
333.142787819
333.141178402
333.139517899
333.137805015
333.136038332
333.134216349
333.132337533
333.1304004
333.128403478
333.126345567
333.124225953
333.122044675
333.119802844
333.11750303
333.115149686
333.112749605
333.110312356
333.107850647
333.105380527
333.102921351
333.100495407
333.098127168
333.095842174
333.093665665
333.091621198
333.089729137
333.088005631
333.08646225
333.085106276
333.083941531
333.082969496
333.082190447
333.081604314
333.081210933
333.122193784
333.122280795
333.122456223
333.122722872
333.123084707
333.123546619
333.124114197
333.124793481
333.125590682
333.126511848
333.127562469
333.128747015
333.130068421
333.131527534
333.133122568
333.134848602
333.136697208
333.138656239
333.140709876
333.142838943
333.145021518
333.147233806
333.149451209
333.151649484
333.153805876
333.155900101
333.157915088
333.15983743
333.161657513
333.163369379
333.164970363
333.166460578
333.167842344
333.169119606
333.170297392
333.17138136
333.172377422
333.173291468
333.174129164
333.174895828
333.175596353
333.176235182
333.176816299
333.177343262
333.177819243
333.178246216
333.178625955
333.178960047
333.179249917
333.179496847
333.179701989
333.179866387
333.179990993
333.180076678
333.180124251
333.180134467
333.180108043
333.180045666
333.179948005
333.179815724
333.179649484
333.17944996
333.179217848
333.17895387
333.178658788
333.178333406
333.177978578
333.177595214
333.177184283
333.176746807
333.176283869
333.175796598
333.175286166
333.174753768
333.174200613
333.173627896
333.173036769
333.172428313
333.171803495
333.171163114
333.170507738
333.169837617
333.169152573
333.168451862
333.167734023
333.166996785
333.166237269
333.165453001
333.16464077
333.163797727
333.162921464
333.162009987
333.161061649
333.160075077
333.15904911
333.157982751
333.156875125
333.155725448
333.154533
333.153297103
333.152017101
333.150692335
333.149322132
333.147905779
333.14644251
333.144931486
333.143371782
333.141762377
333.140102146
333.138389859
333.136624202
333.134803795
333.132927249
333.130993236
333.129000469
333.126947931
333.124835082
333.122662098
333.12043016
333.118141794
333.115801254
333.11341492
333.110991682
333.108543258
333.106084373
333.103632735
333.101208728
333.09883479
333.096534483
333.094331324
333.092247531
333.090302844
333.088513668
333.086892737
333.085449331
333.084190022
333.083119756
333.08224298
333.081564436
333.081088505
333.122546433
333.122641367
333.122832498
333.123122359
333.123514596
333.124013761
333.124625074
333.12535415
333.126206686
333.127188092
333.128303069
333.129555137
333.13094612
333.132475621
333.134140522
333.135934557
333.137848022
333.139867665
333.141976826
333.144155828
333.146382642
333.148633763
333.150885244
333.153113776
333.15529771
333.157417918
333.159458415
333.161406709
333.163253867
333.164994346
333.16662563
333.168147751
333.169562763
333.17087421
333.172086649
333.173205231
333.174235374
333.175182503
333.176051874
333.176848453
333.177576845
333.178241264
333.178845522
333.179393044
333.179887033
333.180329515
333.18072221
333.181066659
333.181364257
333.181616265
333.181823836
333.181988023
333.182109798
333.182190065
333.182229675
333.182229434
333.18219012
333.18211249
333.181997291
333.18184527
333.181657184
333.181433806
333.181175937
333.180884414
333.180560111
333.180203954
333.179816921
333.179400044
333.178954417
333.178481189
333.177981564
333.177456794
333.176908164
333.176336983
333.175744561
333.175132183
333.174501085
333.173852408
333.173187161
333.172506165
333.171809992
333.171098883
333.170372669
333.169630678
333.168871654
333.168093731
333.16729449
333.166471983
333.16562395
333.164747736
333.163840936
333.162901422
333.161927339
333.160917081
333.15986925
333.158782624
333.157656123
333.156488782
333.155279721
333.154028129
333.152733236
333.1513943
333.150010584
333.148581341
333.147105795
333.145583131
333.144012474
333.142392885
333.140723354
333.139002802
333.137230092
333.135404058
333.133523544
333.13158747
333.12959482
333.127544839
333.125437233
333.123272374
333.121051556
333.118777281
333.116453586
333.114086382
333.111683771
333.109256309
333.106817152
333.104382034
333.101969017
333.09959799
333.09728991
333.095065864
333.092946048
333.090948828
333.089090062
333.087382845
333.085837761
333.084463639
333.083268733
333.082262079
333.081454737
333.080859697
333.122993382
333.123097061
333.123305529
333.123621064
333.124046965
333.124587356
333.125246948
333.126030743
333.126943696
333.12799033
333.129174301
333.130497922
333.131961672
333.133563712
333.135299453
333.13716121
333.13913801
333.141215586
333.1433766
333.145601106
333.147867235
333.150152058
333.152432557
333.154686602
333.156893851
333.15903648
333.161099687
333.163071949
333.164945037
333.166713816
333.168375907
333.169931239
333.171381575
333.172730038
333.173980685
333.175138139
333.176207291
333.177193074
333.178100298
333.178933539
333.179697074
333.180394846
333.181030456
333.181607173
333.182127964
333.182595166
333.183010348
333.183374941
333.183690251
333.183957474
333.18417771
333.184351978
333.184481225
333.184566345
333.184608185
333.184607563
333.184565274
333.184482101
333.184358828
333.184196246
333.183995161
333.183756407
333.183480849
333.183169392
333.182822987
333.182442639
333.182029408
333.181584413
333.181108834
333.180603909
333.180070929
333.179511233
333.178926194
333.178317202
333.177685646
333.177032885
333.176360219
333.175668849
333.174959832
333.174234033
333.173492061
333.172734212
333.171960397
333.171170084
333.17036226
333.169535418
333.168687622
333.167816626
333.166921505
333.165999951
333.16504973
333.16406876
333.163055146
333.162007181
333.160923338
333.159802255
333.158642714
333.157443622
333.15620399
333.154922913
333.153599553
333.152233123
333.150822864
333.149368038
333.147867905
333.146321714
333.144728687
333.143088015
333.141398849
333.139660306
333.137871479
333.136031457
333.134139365
333.132194421
333.130195922
333.128143409
333.126036864
333.123876879
333.121664876
333.119403347
333.117096118
333.114748631
333.11236819
333.109964173
333.10754814
333.105133801
333.10273681
333.100374356
333.098064556
333.095825708
333.093675475
333.091630152
333.089704135
333.087909763
333.086257625
333.084757437
333.0834195
333.082256749
333.081287273
333.080536443
333.123538908
333.123651787
333.123878497
333.124221036
333.124682312
333.125265939
333.125975995
333.126816714
333.127792139
333.128905722
333.130159893
333.131555603
333.133091869
333.134765345
333.136569965
333.138496693
333.140533417
333.142665044
333.144873788
333.147139679
333.149441247
333.15175635
333.15406306
333.156340535
333.158569792
333.160734311
333.162820439
333.164817568
333.166718103
333.168517264
333.17021276
333.171804382
333.173293582
333.174683052
333.175976345
333.177177554
333.178291042
333.179321245
333.180272517
333.18114903
333.18195471
333.182693201
333.183367855
333.183981736
333.18453764
333.185038152
333.185484676
333.1858785
333.186220808
333.186512694
333.186755173
333.186949192
333.187095643
333.187195371
333.187249191
333.187257895
333.187222262
333.187143068
333.187021096
333.186857143
333.186652032
333.186406615
333.186121781
333.185798465
333.185437654
333.185040388
333.184607767
333.184140954
333.183641171
333.183109699
333.182547877
333.181957085
333.181338742
333.18069428
333.180025131
333.179332695
333.178618312
333.177883224
333.17712853
333.176355143
333.175563735
333.174754684
333.173928026
333.173083409
333.17222007
333.171336835
333.17043215
333.169504156
333.168551328
333.16757295
333.166567032
333.16553166
333.164465031
333.163365468
333.162231439
333.161061547
333.159854531
333.158609251
333.157324677
333.155999876
333.154633999
333.153226262
333.151775938
333.150282337
333.1487448
333.147162677
333.145535327
333.143862102
333.142142347
333.140375402
333.138560613
333.136697348
333.134785033
333.132823198
333.130811471
333.128749697
333.126638128
333.12447758
333.122269604
333.120016682
333.117722446
333.115391892
333.113031573
333.110649758
333.108256497
333.105863582
333.103484365
333.101133413
333.098826014
333.09657757
333.09440294
333.092315844
333.090328438
333.088451209
333.086693326
333.085063626
333.083572476
333.082234852
333.081075136
333.080133507
333.124181895
333.124304097
333.124549286
333.124919154
333.125416168
333.126043364
333.126804096
333.127701723
333.128739256
333.129918967
333.131241969
333.132707796
333.134313988
333.136055736
333.137925601
333.139913345
333.142005921
333.144187632
333.146440477
333.148744673
333.151079325
333.153423199
333.155755516
333.158056719
333.16030913
333.162497443
333.164609042
333.16663412
333.168565619
333.170399028
333.172132085
333.17376441
333.175297128
333.176732498
333.17807358
333.179323945
333.180487446
333.181568025
333.182569586
333.183495894
333.184350516
333.185136785
333.185857783
333.186516342
333.187115067
333.187656833
333.18814286
333.188574275
333.188952117
333.189277353
333.189550887
333.18977357
333.189946209
333.19006958
333.190144437
333.19017152
333.190151564
333.190085312
333.189973515
333.18981695
333.18961642
333.189372763
333.18908686
333.18875964
333.188392083
333.187985229
333.187540178
333.18705809
333.186540189
333.185987757
333.185402129
333.184784688
333.184136849
333.183460047
333.182755712
333.18202525
333.181270007
333.180491239
333.179690072
333.178867458
333.178024134
333.177160575
333.176276954
333.175373115
333.17444855
333.173502401
333.172533486
333.171540343
333.170521303
333.16947547
333.168402403
333.167300432
333.166167952
333.165003436
333.16380546
333.162572705
333.161303969
333.159998158
333.158654287
333.157271472
333.155848917
333.154385909
333.152881802
333.15133601
333.149747991
333.148117242
333.146443287
333.144725668
333.142963949
333.14115771
333.139306563
333.137410162
333.135468237
333.133480628
333.1314473
333.129368383
333.12724439
333.125076341
333.122865903
333.12061555
333.118328729
333.116010028
333.113665317
333.111301855
333.108928325
333.106554781
333.104192469
333.101853534
333.099550596
333.097296239
333.095102455
333.092980129
333.090938659
333.088985843
333.087128197
333.085371965
333.083725305
333.082202528
333.080831966
333.079669193
333.124916845
333.125048215
333.12531156
333.125708249
333.126240272
333.126910042
333.127720131
333.128672964
333.129770466
333.131013692
333.132402428
333.133934817
333.135606997
333.137412817
333.139343623
333.141388179
333.143532717
333.145761157
333.148055475
333.150396236
333.152763222
333.155136146
333.157495357
333.159822506
333.1621011
333.164316908
333.166458207
333.168515854
333.170483212
333.172355955
333.174131791
333.175810136
333.177391777
333.178878546
333.180273022
333.181578277
333.182797663
333.183934653
333.184992707
333.185975191
333.186885313
333.187726089
333.18850032
333.189210588
333.189859257
333.1904495
333.190982414
333.191458966
333.191880039
333.192246449
333.192558969
333.192818331
333.193025241
333.193180385
333.193284435
333.19333806
333.193341932
333.193296736
333.193203173
333.193061971
333.19287389
333.192639727
333.192360325
333.192036574
333.19166942
333.191259865
333.190808972
333.190317865
333.189787727
333.189219801
333.188615381
333.187975807
333.187302454
333.186596712
333.185859976
333.185093617
333.184298955
333.183477234
333.18262958
333.181756972
333.180860199
333.179939828
333.17899617
333.178029255
333.177038822
333.176024312
333.174984891
333.173919474
333.172826772
333.171705351
333.170554804
333.169375139
333.168165021
333.166923171
333.165648373
333.164339491
333.162995478
333.161615387
333.160198365
333.158743657
333.157250601
333.155718617
333.154147206
333.152535933
333.150884429
333.149192373
333.147459487
333.145685536
333.143870317
333.14201367
333.140115476
333.138175678
333.136194305
333.134171499
333.132107558
333.130002877
333.127858203
333.125674739
333.123454251
333.121199196
333.118912849
333.116599425
333.114264179
333.111913475
333.109554783
333.107196612
333.104848341
333.102519942
333.100221607
333.097963293
333.095754224
333.093602408
333.091514247
333.089494345
333.087545696
333.085670565
333.083872761
333.08216285
333.08056955
333.079162532
333.12573516
333.125875324
333.126156075
333.126578447
333.127143941
333.127854326
333.128711374
333.129716564
333.130870741
333.132173764
333.133624152
333.135218745
333.136952412
333.138817819
333.140805294
333.142902807
333.145096075
333.147368817
333.149703142
333.152080058
333.154480064
333.156883797
333.159272658
333.161629384
333.163938519
333.166186746
333.168363076
333.170458894
333.17246787
333.174385779
333.176210245
333.177940452
333.179576841
333.181120822
333.18257451
333.183940493
333.18522165
333.186420994
333.187541562
333.188586329
333.189558152
333.190459736
333.191293608
333.192062109
333.192767377
333.193412281
333.193998504
333.194526789
333.194997813
333.195412217
333.195770619
333.196073618
333.196321802
333.196515752
333.196656045
333.196743265
333.196778006
333.19676088
333.196692518
333.196573585
333.196404775
333.196186825
333.195920516
333.195606676
333.195246189
333.194839992
333.194389082
333.193894515
333.193357403
333.192778915
333.192160271
333.191502735
333.190807603
333.190076193
333.189309828
333.188509812
333.187677414
333.186813834
333.18592018
333.184997435
333.184046426
333.183067796
333.182061978
333.181029174
333.179969345
333.17888221
333.177767256
333.176623755
333.175450797
333.174247328
333.173012196
333.171745195
333.170447103
333.169116959
333.167753829
333.166356844
333.164925205
333.163458196
333.161955185
333.160415629
333.158839072
333.15722514
333.155573541
333.153884055
333.152156529
333.150390868
333.148587033
333.146745036
333.144864933
333.142946834
333.140990901
333.138997366
333.136966549
333.134898883
333.132795001
333.130655539
333.128481454
333.126274105
333.124035338
333.121767584
333.119473956
333.11715833
333.114825412
333.112480771
333.110130817
333.107782708
333.105444184
333.103123306
333.100828106
333.098566167
333.096344147
333.094167292
333.092038995
333.08996047
333.087930707
333.085947042
333.084007201
333.082115042
333.080295479
333.078629587
333.126626426
333.126774858
333.12707197
333.127518463
333.128115355
333.128863778
333.129764724
333.130818754
333.132025681
333.133384245
333.134891797
333.136544011
333.138334642
333.140255359
333.142295668
333.144442935
333.146682543
333.148998156
333.151372116
333.153785921
333.156220782
333.158658195
333.161080503
333.163471386
333.165816265
333.168102571
333.170319899
333.172460027
333.174516826
333.176486095
333.178365324
333.180153437
333.181850524
333.183457576
333.184976258
333.186408694
333.187757305
333.189024665
333.190213398
333.191326101
333.192365289
333.193333357
333.194232565
333.195065029
333.195832733
333.196537573
333.197182565
333.197768129
333.19829471
333.198762759
333.199172731
333.19952508
333.199820268
333.20005876
333.200241033
333.200367577
333.200438896
333.200455521
333.200418004
333.200326931
333.200182921
333.199986634
333.199738773
333.199440088
333.199091379
333.1986935
333.198247358
333.197753918
333.197214198
333.196629269
333.196000249
333.1953283
333.194614618
333.193860419
333.193066929
333.192235365
333.191366918
333.190462727
333.189523859
333.188551284
333.187545847
333.186508248
333.185439019
333.184338512
333.183206885
333.182044103
333.180849945
333.179624013
333.17836576
333.177074512
333.175749501
333.174389918
333.17299529
333.171567727
333.170106561
333.168611247
333.167081312
333.165516349
333.163916025
333.16228008
333.160608336
333.158900691
333.157157123
333.15537768
333.153562479
333.151711696
333.14982557
333.147904388
333.145948495
333.143958286
333.141934216
333.139876811
333.137786677
333.13566453
333.133511349
333.13132799
333.129115598
333.126875664
333.124610102
333.12232131
333.120012242
333.117686468
333.115348206
333.113002324
333.110654302
333.108310125
333.105976109
333.103658649
333.101363886
333.099097297
333.096863226
333.09466437
333.092501252
333.090371722
333.0882706
333.086189765
333.084119629
333.082054825
333.080012289
333.078081181
333.127579526
333.127735612
333.128047866
333.128516676
333.129142598
333.129926161
333.130867621
333.131966684
333.133222214
333.134631938
333.13619217
333.13789757
333.139740955
333.14171318
333.143803109
333.14599768
333.148282081
333.150640033
333.153054169
333.15550649
333.157978874
333.160453591
333.162913798
333.16534397
333.167730244
333.170060642
333.172325197
333.174515958
333.176626901
333.178653775
333.18059389
333.182445886
333.184209489
333.185885277
333.187474472
333.188978752
333.190400094
333.191740646
333.193002635
333.194188287
333.195299776
333.196339189
333.197308504
333.19820957
333.199044102
333.199813674
333.200521871
333.201169044
333.201755487
333.20228148
333.202747313
333.203153296
333.203499757
333.203787047
333.204015536
333.204185617
333.204297707
333.204352247
333.204349708
333.204290594
333.204175441
333.204004825
333.203779361
333.20349971
333.203166579
333.202780723
333.202342947
333.201854109
333.201315115
333.200726921
333.200090528
333.199406978
333.198677346
333.197902733
333.19708425
333.19622301
333.19532011
333.194376612
333.193393526
333.19237179
333.191312251
333.190215645
333.189082582
333.187913536
333.186708832
333.18546865
333.184193024
333.182881856
333.18153493
333.180151931
333.178732468
333.177276101
333.175782359
333.174250611
333.172683827
333.171082046
333.169445192
333.167773235
333.166066193
333.16432415
333.162547265
333.160735765
333.158889952
333.157010197
333.155096933
333.153150656
333.151171916
333.149161317
333.147119515
333.145047216
333.142945186
333.140814248
333.138655306
333.13646935
333.134257723
333.132021491
333.129761972
333.127480782
333.125179886
333.122861645
333.120528871
333.118184852
333.115833368
333.113478674
333.111125437
333.108778623
333.106443314
333.104124463
333.101826565
333.099553255
333.097306826
333.095087677
333.092893683
333.090719494
333.088555809
333.086388853
333.08420097
333.08197565
333.079718179
333.077522681
333.12858351
333.128746597
333.129072705
333.129561933
333.130214414
333.131030125
333.13200865
333.133148925
333.13444897
333.135905622
333.137514305
333.139268827
333.141161235
333.143181745
333.145318742
333.14755888
333.149887268
333.152287758
333.154743304
333.157236392
333.159749503
333.16226558
333.164768468
333.167243287
333.169676736
333.172057284
333.174375268
333.176622893
333.178794152
333.180884677
333.182891554
333.18481311
333.186648697
333.188398479
333.190063242
333.191644225
333.193142974
333.194561226
333.195900819
333.197163617
333.198351466
333.199466153
333.200509384
333.201482766
333.202387789
333.2032258
333.203999836
333.204711364
333.205360446
333.205947148
333.206471579
333.206933895
333.207334295
333.207673013
333.20795032
333.208166515
333.20832193
333.208416924
333.20845189
333.208427249
333.208343458
333.208201008
333.208000426
333.207742281
333.20742718
333.207055774
333.20662876
333.20614688
333.205610919
333.205021708
333.204380121
333.203687069
333.202943497
333.202150375
333.201308692
333.200419444
333.199483623
333.198502201
333.197476119
333.196406269
333.195293481
333.194138509
333.192942017
333.191704574
333.190426642
333.189108581
333.187750647
333.186353003
333.184915728
333.183438833
333.18192228
333.180365995
333.178769887
333.177133864
333.175457919
333.173743682
333.171993525
333.170207778
333.1683868
333.166531063
333.1646411
333.162717518
333.160760988
333.158772247
333.156752091
333.154701372
333.152620994
333.150511911
333.148375122
333.146211674
333.14402266
333.141809228
333.139572583
333.137313999
333.135035158
333.132737389
333.130422184
333.128091272
333.125746666
333.123390694
333.121026034
333.118655724
333.116283158
333.113912048
333.111546353
333.109190153
333.106847464
333.104521991
333.102216805
333.099933935
333.097673877
333.095434983
333.093212731
333.0909988
333.088779945
333.086536762
333.084243161
333.081870182
333.079408588
333.076955165
333.129628243
333.129797675
333.130136351
333.130644112
333.131320715
333.132165645
333.133177896
333.13435573
333.135696435
333.137196094
333.138849388
333.140649428
333.142587658
333.144653807
333.146835928
333.149120507
333.151492663
333.153936424
333.156435075
333.158971552
333.161528865
333.164090525
333.166640934
333.169165723
333.171652008
333.174088569
333.176465924
333.178776335
333.181013723
333.183173544
333.185252614
333.18724892
333.189161424
333.19098987
333.192734611
333.194396452
333.195976516
333.197476137
333.198896775
333.200239943
333.201507166
333.202699942
333.203819717
333.204867876
333.205845739
333.206754574
333.207595667
333.208372854
333.209085818
333.209734397
333.210318526
333.210838217
333.211293544
333.21168464
333.212011684
333.212274896
333.212474535
333.212610891
333.212684288
333.212695077
333.212643643
333.2125304
333.212355792
333.212120299
333.211824432
333.211468739
333.211053807
333.210580258
333.210048755
333.20946
333.208814731
333.208113723
333.207357783
333.206547746
333.205684468
333.204768821
333.203801681
333.202783922
333.201716401
333.200599952
333.199435372
333.198223412
333.196964769
333.195660077
333.194309908
333.192914765
333.191475091
333.18999127
333.18846364
333.186892501
333.185278133
333.183620809
333.181920812
333.180178456
333.178394118
333.176568258
333.174700859
333.172796939
333.170857076
333.168882266
333.166873429
333.164831585
333.162757812
333.160653249
333.158519088
333.156356573
333.154166998
333.151951698
333.149712049
333.147449467
333.145165407
333.142861366
333.140538893
333.138199599
333.135845189
333.133477633
333.131098552
333.128709778
333.126313367
333.123911623
333.121507106
333.119102636
333.116701266
333.114306236
333.111920887
333.109548531
333.107192259
333.1048547
333.102537689
333.100241863
333.09796614
333.095707067
333.093457965
333.091207788
333.088939579
333.086628472
333.084239857
333.08173157
333.079077865
333.076377076
333.13070486
333.13088001
333.131230019
333.131754511
333.132452918
333.133324302
333.134367151
333.135579152
333.136956984
333.138496105
333.140190596
333.142033024
333.144014373
333.146124029
333.14834983
333.150678192
333.15309431
333.155582417
333.158126117
333.160708752
333.163313785
333.165925191
333.168527809
333.171107646
333.173652108
333.176150161
333.178592394
333.180971026
333.183279834
333.185514031
333.187670123
333.189745725
333.19173939
333.193650434
333.195478771
333.197224774
333.198889149
333.200472834
333.201976917
333.20340257
333.204751004
333.206023434
333.20722105
333.208345001
333.209396375
333.210376171
333.21128526
333.212128104
333.212904627
333.213614619
333.214257892
333.214834337
333.215343925
333.215786702
333.216162777
333.216472313
333.216715513
333.216892619
333.217003905
333.217049672
333.217030246
333.216945977
333.216797242
333.216584438
333.216307989
333.215968345
333.215565985
333.215101415
333.214575174
333.213987831
333.213339988
333.212632278
333.211865365
333.211039941
333.210156723
333.209216448
333.208219869
333.207167748
333.206060848
333.204899929
333.203685736
333.202418999
333.20110042
333.199730676
333.198310414
333.196840249
333.19532077
333.193752547
333.192136132
333.190472075
333.188760934
333.187003285
333.185199737
333.183350948
333.181457633
333.179520567
333.177540582
333.175518762
333.173456864
333.171359802
333.169228369
333.167064101
333.164868494
333.162643111
333.16038957
333.158109533
333.155804709
333.153476846
333.151127726
333.148759163
333.146372999
333.143971107
333.141555387
333.139127777
333.136690253
333.134245255
333.131794585
333.129340203
333.12688423
333.124428964
333.121976875
333.119530596
333.11709289
333.114666589
333.112254497
333.109859261
333.107483173
333.105127926
333.102794286
333.100481676
333.098187632
333.095907102
333.093631471
333.091347205
333.089033883
333.086661409
333.084186771
333.081554289
333.078720608
333.075785761
333.131806141
333.131986417
333.132346599
333.132886136
333.133604187
333.134499463
333.135570028
333.136813101
333.138224861
333.139800274
333.141532953
333.143415058
333.145437247
333.14758868
333.149857087
333.152228889
333.154689402
333.157223083
333.159813836
333.162445355
333.165101481
333.167766554
333.170425737
333.173065292
333.175672799
333.178237291
333.180749329
333.183201
333.185585858
333.187898822
333.190136035
333.192294711
333.194372973
333.19636969
333.198284334
333.200116844
333.201867509
333.203536876
333.20512567
333.20663473
333.208064969
333.209417333
333.210692781
333.211892269
333.213016733
333.214067087
333.215044206
333.215949969
333.216787786
333.21755703
333.218257284
333.218888293
333.219449933
333.219942188
333.220365122
333.220718867
333.221003602
333.221219548
333.221366954
333.221446094
333.221457257
333.221400751
333.221276897
333.221086025
333.220828483
333.220504629
333.22011484
333.219659508
333.219139047
333.218553894
333.217904509
333.217191378
333.216415015
333.215575961
333.214674783
333.213712074
333.212688449
333.211604546
333.210461016
333.209258528
333.207997757
333.206679385
333.205304099
333.203872586
333.202385536
333.200843643
333.199247606
333.197598135
333.195895962
333.19414184
333.192336562
333.190480965
333.188575944
333.186622461
333.184621555
333.182574354
333.180482087
333.178346105
333.176167872
333.173948705
333.171692615
333.169403644
333.167083394
333.164733913
333.162357245
333.159955497
333.157530812
333.155085375
333.152621398
333.150141121
333.147646802
333.145140714
333.142625141
333.140102375
333.137574717
333.135045104
333.132515558
333.129988191
333.127465218
333.124948957
333.122441819
333.119946291
333.117464894
333.115000109
333.112554283
333.110129488
333.107727324
333.105348673
333.102993371
333.100659776
333.098344211
333.096040198
333.093737379
333.091419946
333.089064253