/*--------------------------------*- C++ -*----------------------------------*\
| =========                 |                                                 |
| \\      /  F ield         | OpenFOAM: The Open Source CFD Toolbox           |
|  \\    /   O peration     | Version:  2206                                  |
|   \\  /    A nd           | Website:  www.openfoam.com                      |
|    \\/     M anipulation  |                                                 |
\*---------------------------------------------------------------------------*/
FoamFile
{
    version     2.0;
    format      ascii;
    arch        "LSB;label=64;scalar=64";
    class       volVectorField;
    location    "3.3/water";
    object      U.gas;
}
// * * * * * * * * * * * * * * * * * * * * * * * * * * * * * * * * * * * * * //

dimensions      [0 1 -1 0 0 0 0];

internalField   nonuniform List<vector> 
23300
(
(-0.0025279041425 0.135943569775 0)
(-0.00273138073157 0.135927250459 0)
(-0.00059873482635 0.135877235072 0)
(-0.000984455282256 0.135819002983 0)
(-0.00139921392495 0.135753971036 0)
(-0.0018673440186 0.135685600446 0)
(-0.00240053364922 0.135615539824 0)
(-0.00300073352903 0.135548117603 0)
(-0.00366772745964 0.135484259407 0)
(-0.00439822852036 0.135427906547 0)
(-0.0051880581605 0.135379082621 0)
(-0.00603173838134 0.135341034502 0)
(-0.00692321077722 0.13531294901 0)
(-0.00785616905409 0.135297176429 0)
(-0.00882420551882 0.135292027537 0)
(-0.00982125759371 0.135298982643 0)
(-0.0108415601927 0.135315613089 0)
(-0.011879890013 0.135342726236 0)
(-0.0129314949272 0.135377427378 0)
(-0.0139920321094 0.135420167102 0)
(-0.0150575911047 0.135467905232 0)
(-0.0161243647604 0.135521063607 0)
(-0.0171888233577 0.135576721486 0)
(-0.018247221986 0.135635513258 0)
(-0.0192959558043 0.13569478705 0)
(-0.0203309896105 0.135755514563 0)
(-0.0213483645946 0.13581534793 0)
(-0.0223436202273 0.135875619371 0)
(-0.0233124105258 0.135934244126 0)
(-0.0242499541298 0.135992881724 0)
(-0.0251516856688 0.136049635309 0)
(-0.0260127630889 0.136106430798 0)
(-0.0268286944495 0.136161477536 0)
(-0.0275949123334 0.136216904045 0)
(-0.0283073082054 0.136270952165 0)
(-0.0289618922693 0.136325891349 0)
(-0.0295552006845 0.136379936965 0)
(-0.0300840504822 0.136435450501 0)
(-0.0305457880227 0.136490579548 0)
(-0.0309381577708 0.136547739199 0)
(-0.0312593932039 0.136604986204 0)
(-0.0315081913208 0.136664768102 0)
(-0.0316834950802 0.136725040111 0)
(-0.031784029307 0.136788240921 0)
(-0.0318090045936 0.136852102408 0)
(-0.0317595144554 0.136918971932 0)
(-0.031636675029 0.136986572456 0)
(-0.0314413186931 0.137057339786 0)
(-0.0311743722762 0.137128866788 0)
(-0.0308373088785 0.137203524212 0)
(-0.0304316717447 0.137278758939 0)
(-0.0299595257867 0.137356888164 0)
(-0.0294229556617 0.137435224958 0)
(-0.0288245402124 0.137516038836 0)
(-0.028166849887 0.137596510664 0)
(-0.0274529145579 0.137678861448 0)
(-0.0266857507892 0.137760135339 0)
(-0.0258687895804 0.13784250536 0)
(-0.0250054471752 0.137922870693 0)
(-0.0240994947625 0.138003354115 0)
(-0.0231546944746 0.138080699114 0)
(-0.0221750927065 0.138156979058 0)
(-0.0211647238411 0.138228771077 0)
(-0.0201278261696 0.138298099412 0)
(-0.0190686244848 0.138361367188 0)
(-0.0179914689222 0.138420557856 0)
(-0.0169006898384 0.138471903072 0)
(-0.0158006778263 0.138517363888 0)
(-0.0146958138294 0.138553023681 0)
(-0.0135905094835 0.138580866727 0)
(-0.0124891972065 0.13859688996 0)
(-0.0113963622819 0.138603187011 0)
(-0.0103165847552 0.138595790765 0)
(-0.00925458627604 0.138577059264 0)
(-0.00821529152378 0.138543273299 0)
(-0.00720390925149 0.138497304295 0)
(-0.00622596973984 0.138436018451 0)
(-0.00528741389392 0.138363194036 0)
(-0.00439448215517 0.138276811057 0)
(-0.00355364426483 0.138182186534 0)
(-0.00277087533665 0.138079281783 0)
(-0.00205036102567 0.137976021671 0)
(-0.00139029995206 0.137875684004 0)
(-0.000774436136196 0.137789778202 0)
(-0.000177249439479 0.13772334922 0)
(0.000406102265263 0.137684435402 0)
(0.000953956113688 0.137670681712 0)
(0.00146053575269 0.137683617964 0)
(0.00195681735439 0.13771425178 0)
(0.00247424059604 0.137756097059 0)
(0.00302282836565 0.137798023104 0)
(0.00359908952288 0.137836901007 0)
(0.00419561000884 0.137866034281 0)
(0.0048036709745 0.137885687305 0)
(0.00541519529069 0.137892009114 0)
(0.00602235935353 0.137887127057 0)
(0.00661849921464 0.137868837483 0)
(0.0071972891526 0.137840216013 0)
(0.00775352522986 0.13780000159 0)
(0.00828222103346 0.137751662315 0)
(0.00877938755946 0.137694426406 0)
(0.00924111559902 0.13763179232 0)
(0.00966437645841 0.137563174857 0)
(0.0100461138713 0.137491870497 0)
(0.0103840671503 0.13741729146 0)
(0.0106758842459 0.137342402328 0)
(0.0109199655499 0.13726651047 0)
(0.0111145973177 0.137192191336 0)
(0.01125880725 0.137118605937 0)
(0.0113515176733 0.137047931654 0)
(0.0113924086878 0.136979177413 0)
(0.0113810831925 0.136914137767 0)
(0.0113178748702 0.136851685779 0)
(0.0112029830745 0.136793301718 0)
(0.0110372771002 0.136737800783 0)
(0.0108214488322 0.136686355606 0)
(0.0105569261727 0.136637705538 0)
(0.0102450980841 0.136592789921 0)
(0.00988814444204 0.136550346567 0)
(0.00948820426954 0.136511133505 0)
(0.00904818420141 0.136473940097 0)
(0.00857090282614 0.136439413163 0)
(0.008059863384 0.136406475822 0)
(0.00751834101647 0.136375768994 0)
(0.00695010502013 0.136346476963 0)
(0.0063584344516 0.136319385086 0)
(0.00574684621609 0.136294106034 0)
(0.00511816483146 0.136271728704 0)
(0.00447553746542 0.136252415017 0)
(0.00382200409604 0.136237563541 0)
(0.00316234145612 0.136227703461 0)
(0.00250361703283 0.136224069084 0)
(0.00185800470919 0.136226753487 0)
(0.00124387153584 0.136235710096 0)
(0.000688525080031 0.136249339764 0)
(0.000228817204072 0.136265188789 0)
(-8.6722963342e-05 0.136279312062 0)
(-0.000203519492656 0.136287116468 0)
(-0.00250576696062 0.136280276159 0)
(-0.00240311021574 0.136267128892 0)
(-0.0015189236459 0.247649831574 0)
(-0.0019317944868 0.247663274288 0)
(-0.00102982682948 0.24763480239 0)
(-0.00144782647271 0.247603401893 0)
(-0.00188927450136 0.247571360005 0)
(-0.00235846379359 0.247541537045 0)
(-0.00286170313227 0.247514750209 0)
(-0.00340268382924 0.247495048078 0)
(-0.00398375734424 0.24748235238 0)
(-0.00460584313693 0.247480066091 0)
(-0.00526911150894 0.247486914142 0)
(-0.00597294930271 0.247505323972 0)
(-0.00671625340684 0.247532924811 0)
(-0.00749746386121 0.247571069859 0)
(-0.00831459454274 0.247616402315 0)
(-0.00916532156311 0.247669352221 0)
(-0.0100469428122 0.247725880309 0)
(-0.0109564116006 0.247785860258 0)
(-0.0118903246895 0.247845027111 0)
(-0.0128448848919 0.247903191087 0)
(-0.0138159645321 0.24795633962 0)
(-0.0147990192961 0.248004676118 0)
(-0.0157892347148 0.248044787727 0)
(-0.0167814136798 0.248077556249 0)
(-0.0177702002194 0.248100302191 0)
(-0.0187499561168 0.248114663007 0)
(-0.0197150318452 0.248118631267 0)
(-0.0206596382455 0.24811451655 0)
(-0.0215781404179 0.248100803724 0)
(-0.0224649308543 0.248080311964 0)
(-0.0233147118352 0.248051802568 0)
(-0.024122371298 0.248018427024 0)
(-0.0248832327269 0.247979023454 0)
(-0.0255929383177 0.247936922121 0)
(-0.0262476410264 0.247890880982 0)
(-0.0268438989082 0.247844291425 0)
(-0.0273788037114 0.247795721368 0)
(-0.0278498970911 0.247748544667 0)
(-0.0282552285778 0.247701074588 0)
(-0.0285933015276 0.247656621538 0)
(-0.0288630701749 0.247613215619 0)
(-0.0290639314879 0.247574085959 0)
(-0.0291956504852 0.247536974588 0)
(-0.0292581909013 0.247505003505 0)
(-0.029251820542 0.24747563723 0)
(-0.0291775549852 0.247451931768 0)
(-0.0290366179091 0.247431095817 0)
(-0.0288303945113 0.247416143717 0)
(-0.0285604604889 0.2474040676 0)
(-0.0282286918305 0.247397821417 0)
(-0.0278370854668 0.24739417847 0)
(-0.0273879226094 0.24739605138 0)
(-0.026883584525 0.247400018867 0)
(-0.0263267209475 0.247408971275 0)
(-0.025720065305 0.247419308576 0)
(-0.0250665969028 0.247433911559 0)
(-0.0243693688177 0.247449008005 0)
(-0.0236316550718 0.247467480007 0)
(-0.0228567928418 0.247485384471 0)
(-0.0220483052012 0.247505612234 0)
(-0.0212097659559 0.247524045715 0)
(-0.0203448935963 0.247543593351 0)
(-0.0194574359968 0.247559960448 0)
(-0.0185512314915 0.247576082917 0)
(-0.0176301177247 0.247587489596 0)
(-0.0166979613549 0.247597162181 0)
(-0.0157585850833 0.247600467213 0)
(-0.0148157683311 0.247600463364 0)
(-0.0138731940337 0.247592391524 0)
(-0.0129344284839 0.247579446104 0)
(-0.0120028800129 0.247556821759 0)
(-0.0110817651117 0.247527949825 0)
(-0.0101740767983 0.247488120541 0)
(-0.00928254506612 0.247441170591 0)
(-0.00840959631354 0.247382719645 0)
(-0.00755730068393 0.247317268537 0)
(-0.00672728821101 0.247241117231 0)
(-0.0059206378272 0.247159808517 0)
(-0.00513763869737 0.247070815744 0)
(-0.00437746292737 0.246981231479 0)
(-0.00363750251748 0.246890316936 0)
(-0.00291248264521 0.246807236105 0)
(-0.00219317195912 0.246733352996 0)
(-0.00146672664322 0.246679040283 0)
(-0.000726475760951 0.246643824624 0)
(1.27899127027e-05 0.246632681405 0)
(0.000722787687338 0.246640057444 0)
(0.00138485935649 0.246671538503 0)
(0.00199888675248 0.246723031099 0)
(0.00257740773897 0.246792409771 0)
(0.00313403327833 0.246868738369 0)
(0.00367671108187 0.246949780817 0)
(0.00420941376619 0.247027193589 0)
(0.00473344550045 0.247101344617 0)
(0.00524869705781 0.247166607427 0)
(0.00575398754943 0.247225231171 0)
(0.00624768848378 0.247273475529 0)
(0.006727667223 0.247314695986 0)
(0.00719168915562 0.247346363511 0)
(0.00763722596162 0.24737236542 0)
(0.00806178917594 0.247390889224 0)
(0.00846269724252 0.247405947538 0)
(0.00883739524927 0.247416093725 0)
(0.00918321208347 0.247425191024 0)
(0.00949767708096 0.247431923424 0)
(0.00977827252618 0.247439834788 0)
(0.0100227493349 0.247447594348 0)
(0.0102288759581 0.247458332962 0)
(0.0103947495774 0.24747062396 0)
(0.0105185407781 0.247487144199 0)
(0.010598802213 0.247506332714 0)
(0.0106342170384 0.247530404075 0)
(0.0106239511438 0.247557653387 0)
(0.0105673459166 0.247589879945 0)
(0.010464073415 0.247625298006 0)
(0.0103139721465 0.247665275115 0)
(0.010117459426 0.247707869281 0)
(0.00987523467665 0.247754044586 0)
(0.00958858966631 0.24780173726 0)
(0.0092591613471 0.247851512641 0)
(0.00888924241822 0.247901179513 0)
(0.00848152122249 0.247950906977 0)
(0.00803936608765 0.247998380392 0)
(0.00756651183504 0.248043399014 0)
(0.00706727094889 0.24808358361 0)
(0.0065461103094 0.248118479231 0)
(0.00600775802317 0.248145839725 0)
(0.00545668098401 0.248165245698 0)
(0.00489719267121 0.248174972402 0)
(0.00433306909571 0.248175060438 0)
(0.00376801923793 0.248164685405 0)
(0.00320586733286 0.248144521243 0)
(0.00265173112715 0.248114500394 0)
(0.00211285058331 0.248075398153 0)
(0.00160017476184 0.248027126084 0)
(0.00112930003261 0.247969853461 0)
(0.000722293208526 0.247903352254 0)
(0.000412760214024 0.247828481174 0)
(-0.00112132068253 0.247742561774 0)
(-0.00126510613773 0.247667133877 0)
(-0.0016227580618 0.227714523714 0)
(-0.00209502689178 0.227762069501 0)
(-0.00117382610492 0.227810898372 0)
(-0.0016421186654 0.227871830605 0)
(-0.0021347176195 0.227947693322 0)
(-0.00265617125196 0.228037797342 0)
(-0.00321144457515 0.228141007861 0)
(-0.00380415327049 0.228256473332 0)
(-0.00443666539639 0.228382736734 0)
(-0.0051096891767 0.228518369441 0)
(-0.00582301977574 0.228661078551 0)
(-0.00657552852483 0.228808607162 0)
(-0.00736538560363 0.228957904493 0)
(-0.00819025383974 0.229105981643 0)
(-0.00904737276004 0.229249241683 0)
(-0.0099336953543 0.229384291702 0)
(-0.0108459281278 0.229507405762 0)
(-0.0117805865838 0.229615274646 0)
(-0.0127340269587 0.229704582516 0)
(-0.0137024124526 0.229772644394 0)
(-0.014681774949 0.229817059215 0)
(-0.0156679092382 0.229836195388 0)
(-0.0166564839288 0.229828879341 0)
(-0.0176429019547 0.229794722478 0)
(-0.0186224742336 0.229733815523 0)
(-0.0195902717024 0.229646937658 0)
(-0.0205413494195 0.229535239837 0)
(-0.0214706106637 0.229400402148 0)
(-0.0223730644515 0.229244291073 0)
(-0.0232437024397 0.229069141818 0)
(-0.0240777558902 0.228877167741 0)
(-0.0248705871146 0.228670831144 0)
(-0.0256179210226 0.228452373647 0)
(-0.0263157445605 0.228224228609 0)
(-0.026960486052 0.227988436383 0)
(-0.0275489286287 0.227747233264 0)
(-0.0280783300545 0.227502315431 0)
(-0.028546353017 0.227255633263 0)
(-0.028951119286 0.227008472198 0)
(-0.0292911694448 0.226762468823 0)
(-0.0295654612787 0.226518482661 0)
(-0.0297733684634 0.226277849367 0)
(-0.0299146338866 0.22604102973 0)
(-0.0299888761596 0.225809059297 0)
(-0.0299959792856 0.225582189647 0)
(-0.0299371106461 0.225361435046 0)
(-0.0298136256045 0.22514660667 0)
(-0.0296267532237 0.224938462679 0)
(-0.0293779090997 0.224736609564 0)
(-0.029068798083 0.224541761597 0)
(-0.0287012440131 0.224353373817 0)
(-0.0282773357039 0.224172155115 0)
(-0.027799259996 0.223997442919 0)
(-0.0272694499476 0.223829974371 0)
(-0.0266904199835 0.223669000853 0)
(-0.0260649087956 0.223515313647 0)
(-0.0253957275608 0.223368098446 0)
(-0.0246858845789 0.223228218386 0)
(-0.0239384482213 0.223094808036 0)
(-0.0231566488815 0.22296881236 0)
(-0.0223437637861 0.222849320279 0)
(-0.0215031876168 0.22273736397 0)
(-0.0206383369881 0.222631991092 0)
(-0.0197526901945 0.222534323273 0)
(-0.018849715008 0.222443367163 0)
(-0.0179328744208 0.222360335877 0)
(-0.0170055727776 0.222284198915 0)
(-0.0160711340051 0.222216263127 0)
(-0.0151327674777 0.2221554644 0)
(-0.0141935215069 0.222103207321 0)
(-0.0132562618779 0.222058404418 0)
(-0.0123236110278 0.222022563045 0)
(-0.0113979361095 0.221994583734 0)
(-0.0104812759904 0.221976080479 0)
(-0.00957532144498 0.221965954858 0)
(-0.00868133023613 0.221965918363 0)
(-0.00780007281279 0.221974861517 0)
(-0.00693171066974 0.22199453141 0)
(-0.00607564623939 0.222023701666 0)
(-0.00523032145915 0.222063907279 0)
(-0.00439291492515 0.222113366224 0)
(-0.00355914882125 0.222172563169 0)
(-0.00272340828611 0.222237740011 0)
(-0.00188063553345 0.222306018591 0)
(-0.00103164790165 0.222369130394 0)
(-0.000194041349286 0.222422521029 0)
(0.000609756721638 0.22246279411 0)
(0.00137072975019 0.222495294309 0)
(0.00208453746338 0.222527258146 0)
(0.00275203848985 0.222567101942 0)
(0.00338135264565 0.222616616387 0)
(0.00397923565953 0.222678177565 0)
(0.0045506892811 0.222750589626 0)
(0.0050988244205 0.222834559544 0)
(0.005625544016 0.222928225276 0)
(0.00613163739096 0.223031959931 0)
(0.00661730774065 0.223143966324 0)
(0.007082096153 0.223264654378 0)
(0.0075252784577 0.22339246058 0)
(0.0079456955334 0.223527892841 0)
(0.00834208764474 0.223669619099 0)
(0.00871288879281 0.223818218633 0)
(0.00905653883099 0.223972544171 0)
(0.0093712658166 0.224133198372 0)
(0.0096553890686 0.224299160163 0)
(0.00990709889924 0.224471002896 0)
(0.0101247552392 0.224647772311 0)
(0.0103066644262 0.224829960164 0)
(0.0104513721925 0.225016620836 0)
(0.0105574388709 0.225208115758 0)
(0.0106237286158 0.225403456489 0)
(0.0106491834388 0.225602832564 0)
(0.0106331687865 0.225805167076 0)
(0.0105752181433 0.226010452732 0)
(0.0104751066087 0.226217516589 0)
(0.0103327268851 0.226426077316 0)
(0.0101485139841 0.22663470354 0)
(0.00992313972566 0.226842742179 0)
(0.00965778735967 0.227048432216 0)
(0.00935391367145 0.227250646981 0)
(0.00901350533627 0.227447175644 0)
(0.00863880944107 0.227636291847 0)
(0.00823254235568 0.227815207649 0)
(0.00779754864658 0.227981494446 0)
(0.00733692655908 0.228131739567 0)
(0.00685358571993 0.228262870407 0)
(0.00635030315288 0.228371072516 0)
(0.00582925404237 0.228453076475 0)
(0.00529217755294 0.228505382311 0)
(0.00474018221458 0.228525502901 0)
(0.00417441477348 0.2285114303 0)
(0.00359655393032 0.228462688404 0)
(0.0030102656184 0.228379866347 0)
(0.00242237439503 0.228265320245 0)
(0.00184471003638 0.228122752068 0)
(0.00129530528022 0.227957720083 0)
(0.000800635752 0.227777669695 0)
(0.000398583834351 0.227592802405 0)
(-0.00133690064804 0.227412725932 0)
(-0.00145004517116 0.227294258754 0)
(-0.00160504928871 0.231620635319 0)
(-0.00210849337838 0.231654699352 0)
(-0.00126093724577 0.231717459834 0)
(-0.0017770457523 0.231799804305 0)
(-0.00231558009869 0.231904666275 0)
(-0.00288284375347 0.232031428374 0)
(-0.00348380019841 0.232179094288 0)
(-0.00412165875352 0.232346162767 0)
(-0.00479846690246 0.232531040375 0)
(-0.00551491567393 0.232731319864 0)
(-0.00627056323316 0.232944398684 0)
(-0.00706391639486 0.233166651817 0)
(-0.00789275793215 0.233394306165 0)
(-0.00875424111704 0.23362257999 0)
(-0.00964505667194 0.233846759998 0)
(-0.0105615952125 0.234061336558 0)
(-0.0115000417774 0.234261242624 0)
(-0.0124564675849 0.234440968709 0)
(-0.0134269057142 0.234595901616 0)
(-0.014407336571 0.23472136111 0)
(-0.0153937661482 0.234813970329 0)
(-0.016382120515 0.234870553953 0)
(-0.0173683465191 0.234889485099 0)
(-0.0183482542454 0.234869414563 0)
(-0.019317660792 0.234810575913 0)
(-0.0202722217975 0.234713367405 0)
(-0.0212076225365 0.234579626549 0)
(-0.0221194242878 0.234411118112 0)
(-0.0230032912231 0.234210804131 0)
(-0.0238548603703 0.233981304341 0)
(-0.0246699756345 0.23372617621 0)
(-0.0254445772866 0.23344839967 0)
(-0.0261749143842 0.233151666952 0)
(-0.0268574494815 0.232838930563 0)
(-0.0274890246343 0.232513684869 0)
(-0.0280667809489 0.232178598176 0)
(-0.0285882675356 0.231836762948 0)
(-0.0290513820817 0.231490428418 0)
(-0.0294544191331 0.231142192011 0)
(-0.0297960385776 0.230793840191 0)
(-0.0300752592314 0.230447459088 0)
(-0.0302914555603 0.230104393491 0)
(-0.0304444111615 0.229766257499 0)
(-0.0305335667889 0.229434020628 0)
(-0.0305584268826 0.229108873147 0)
(-0.0305200509249 0.22879147925 0)
(-0.0304198126168 0.228482845171 0)
(-0.030258824723 0.228183397635 0)
(-0.0300382831653 0.227893772841 0)
(-0.0297596417488 0.227614285377 0)
(-0.029424457312 0.227345422047 0)
(-0.0290345295692 0.227087442079 0)
(-0.0285917404525 0.226840730538 0)
(-0.0280981968574 0.226605534465 0)
(-0.0275560751542 0.226382173249 0)
(-0.0269677552646 0.226170907872 0)
(-0.0263356781376 0.225972010182 0)
(-0.0256624622853 0.225785767402 0)
(-0.0249507781034 0.225612409916 0)
(-0.0242034392198 0.225452248276 0)
(-0.0234232982567 0.225305462493 0)
(-0.0226133086531 0.225172373944 0)
(-0.0217764421152 0.22505309587 0)
(-0.0209157182424 0.224947937601 0)
(-0.0200341449747 0.22485691873 0)
(-0.0191347171724 0.224780308712 0)
(-0.0182203777275 0.224718003606 0)
(-0.0172939883023 0.224670199149 0)
(-0.0163583102472 0.224636632066 0)
(-0.0154159544313 0.22461739002 0)
(-0.014469377478 0.224612016852 0)
(-0.0135208180793 0.224620456336 0)
(-0.0125723039294 0.22464202426 0)
(-0.0116255826164 0.22467648508 0)
(-0.0106821273086 0.224722890781 0)
(-0.00974306617942 0.2247807784 0)
(-0.00880916948904 0.224848876555 0)
(-0.00788077817115 0.224926406191 0)
(-0.00695774829064 0.225011647766 0)
(-0.00603939297875 0.225103305372 0)
(-0.00512442370967 0.225198923828 0)
(-0.00421112363253 0.225296263142 0)
(-0.00329783627052 0.225391600105 0)
(-0.0023844797236 0.225481243759 0)
(-0.00147449335604 0.225560421615 0)
(-0.000581270519051 0.225626170145 0)
(0.000277820625139 0.225679839199 0)
(0.00109772490607 0.225722878873 0)
(0.00187888030721 0.225758338475 0)
(0.00261768958158 0.225793957699 0)
(0.00331429698099 0.225833400448 0)
(0.00397244108553 0.225880027855 0)
(0.00459543803537 0.22593561583 0)
(0.00518579777313 0.226001806121 0)
(0.00574549710057 0.226079233549 0)
(0.00627580055337 0.226168697059 0)
(0.0067776221869 0.226270285868 0)
(0.0072513472154 0.226384377414 0)
(0.00769716356514 0.226510795986 0)
(0.00811485410012 0.226649683861 0)
(0.00850410196415 0.226800715795 0)
(0.00886427000516 0.226963874248 0)
(0.0091946952903 0.22713872662 0)
(0.00949446723809 0.227325121046 0)
(0.00976271737774 0.227522525913 0)
(0.00999839917179 0.227730657727 0)
(0.0102005748211 0.2279488781 0)
(0.0103681965902 0.228176760235 0)
(0.0105003894766 0.22841353913 0)
(0.0105962326525 0.22865862342 0)
(0.0106550376547 0.228911093949 0)
(0.0106761289694 0.229170165113 0)
(0.0106592141069 0.229434729291 0)
(0.0106041463975 0.229703800135 0)
(0.0105108763109 0.229976101403 0)
(0.0103793693451 0.230250341005 0)
(0.0102100969183 0.230524847623 0)
(0.0100036863109 0.230797899492 0)
(0.00976116618935 0.231067364292 0)
(0.00948372412219 0.231330981653 0)
(0.00917293339563 0.231586035984 0)
(0.00883047153718 0.231829616204 0)
(0.00845829651852 0.232058337824 0)
(0.00805829740313 0.232268612636 0)
(0.00763240056952 0.23245645855 0)
(0.00718214548582 0.23261783203 0)
(0.00670876179777 0.232748575992 0)
(0.00621276729283 0.232844857239 0)
(0.00569420227819 0.232903259958 0)
(0.0051525312886 0.232921283538 0)
(0.00458737663368 0.232897467572 0)
(0.00399906291671 0.232831777536 0)
(0.00339006934087 0.232725578473 0)
(0.00276618299599 0.232581790084 0)
(0.00213828247118 0.232404768132 0)
(0.00152340148838 0.23220053345 0)
(0.000946296662765 0.231977157776 0)
(0.000440094825454 0.231745690791 0)
(-0.00131349815556 0.231518073737 0)
(-0.00141819837424 0.231403880573 0)
(-0.00162991167422 0.231710119606 0)
(-0.00216495956877 0.231744345908 0)
(-0.00134690932101 0.231822927747 0)
(-0.00190837685274 0.231931422375 0)
(-0.00249226501476 0.232071607274 0)
(-0.0031052032221 0.232242389132 0)
(-0.00375201418445 0.232442023602 0)
(-0.00443579366362 0.232668218208 0)
(-0.00515840320156 0.232918260412 0)
(-0.0059200963525 0.233188660378 0)
(-0.00672009203188 0.233475417002 0)
(-0.00755655256328 0.233773584316 0)
(-0.00842674061325 0.234077786375 0)
(-0.00932727428943 0.234381738031 0)
(-0.0102542826609 0.234679008407 0)
(-0.0112035987345 0.234962545147 0)
(-0.0121709142022 0.23522561417 0)
(-0.0131518886752 0.23546131413 0)
(-0.0141422772472 0.235663606733 0)
(-0.0151379222411 0.23582675984 0)
(-0.0161348555617 0.235946377229 0)
(-0.0171291798616 0.236018703688 0)
(-0.0181171658511 0.236041587922 0)
(-0.0190950663146 0.236013615827 0)
(-0.0200592390597 0.235934988277 0)
(-0.0210059447826 0.235806501059 0)
(-0.0219315135445 0.235630364126 0)
(-0.0228321636166 0.235409082969 0)
(-0.0237042078693 0.235146265769 0)
(-0.0245439055224 0.234845470509 0)
(-0.02534768253 0.234511038116 0)
(-0.0261120129187 0.234146953385 0)
(-0.0268336224383 0.233757720667 0)
(-0.0275093915111 0.233347266627 0)
(-0.0281365159115 0.232919854575 0)
(-0.0287124300394 0.232479038648 0)
(-0.0292349120142 0.2320286016 0)
(-0.0297020304844 0.231571562775 0)
(-0.0301121904342 0.23111112033 0)
(-0.0304641103364 0.23064971035 0)
(-0.0307568135616 0.230189936414 0)
(-0.0309896407074 0.229733678167 0)
(-0.0311621931366 0.22928299114 0)
(-0.0312739214897 0.228839312488 0)
(-0.0313242111604 0.228404117228 0)
(-0.0313134027196 0.227978388675 0)
(-0.0312427293089 0.227563586737 0)
(-0.0311134602484 0.227160389095 0)
(-0.0309265070915 0.226769757295 0)
(-0.0306830305625 0.226392216082 0)
(-0.0303842787676 0.226028580448 0)
(-0.0300317262671 0.225679281922 0)
(-0.0296269152317 0.225345045036 0)
(-0.0291715968846 0.225026256814 0)
(-0.0286675803313 0.224723589984 0)
(-0.028116864338 0.224437414715 0)
(-0.0275215003669 0.224168368457 0)
(-0.0268837050599 0.223916812496 0)
(-0.0262057417583 0.2236833474 0)
(-0.025490007603 0.223468315176 0)
(-0.0247389375431 0.223272259583 0)
(-0.023955061354 0.223095478132 0)
(-0.023140930854 0.22293842479 0)
(-0.022299145953 0.222801314384 0)
(-0.0214323058275 0.222684464884 0)
(-0.0205430049856 0.222587960721 0)
(-0.0196338063616 0.222511929871 0)
(-0.0187072124249 0.222456271166 0)
(-0.0177656586904 0.222420861433 0)
(-0.0168114662773 0.22240535583 0)
(-0.0158468515842 0.222409319103 0)
(-0.0148738695165 0.222432105567 0)
(-0.0138944343255 0.222472909147 0)
(-0.0129102618831 0.222530731236 0)
(-0.0119228918738 0.222604343313 0)
(-0.0109336380396 0.22269234454 0)
(-0.00994359992449 0.222793031508 0)
(-0.00895363102997 0.222904543232 0)
(-0.00796433377127 0.223024633388 0)
(-0.00697608460393 0.223150888334 0)
(-0.00598907739873 0.223280408783 0)
(-0.00500360001671 0.223410095537 0)
(-0.00402046085088 0.223536330464 0)
(-0.00304196228287 0.223655493351 0)
(-0.0020729187314 0.223764089538 0)
(-0.00112096870978 0.223859873836 0)
(-0.000201465934946 0.223944134188 0)
(0.000675747450885 0.224019764191 0)
(0.00151616273016 0.224087280385 0)
(0.00231846994484 0.224150584376 0)
(0.0030775991676 0.22421548909 0)
(0.0037945678284 0.224285340003 0)
(0.00447106023963 0.224363025756 0)
(0.00510863892929 0.224450833712 0)
(0.00570882931996 0.224550532642 0)
(0.00627280014217 0.224663472418 0)
(0.00680162948273 0.224790665856 0)
(0.0072960491889 0.224932813663 0)
(0.00775672803827 0.225090400127 0)
(0.00818401969783 0.225263664285 0)
(0.00857824312803 0.225452702264 0)
(0.00893943504488 0.225657405302 0)
(0.00926763036492 0.225877567591 0)
(0.00956262117961 0.226112803491 0)
(0.00982423765904 0.226362657753 0)
(0.0100521138002 0.226626510316 0)
(0.0102459682775 0.226903685306 0)
(0.0104053749663 0.227193348119 0)
(0.0105300417184 0.227494610505 0)
(0.0106195836524 0.227806423872 0)
(0.0106737980641 0.22812767861 0)
(0.0106924386107 0.228457095768 0)
(0.0106756228098 0.22879332099 0)
(0.0106236083962 0.229134841039 0)
(0.0105365967029 0.229480094503 0)
(0.0104146647641 0.2298272516 0)
(0.0102583735194 0.230174292207 0)
(0.0100683666999 0.230518906149 0)
(0.00984558696808 0.230858549659 0)
(0.00959101976512 0.231190334066 0)
(0.00930590678749 0.231511078676 0)
(0.00899144886663 0.231817221282 0)
(0.0086489701295 0.232104887757 0)
(0.00827955906875 0.232369857282 0)
(0.00788417611719 0.23260768567 0)
(0.00746323956529 0.232813772144 0)
(0.00701672908097 0.232983575844 0)
(0.00654381759724 0.233112812994 0)
(0.00604314749891 0.233197758832 0)
(0.00551275868198 0.233235522956 0)
(0.0049508299572 0.233224325491 0)
(0.00435619772218 0.233163701355 0)
(0.00372976432231 0.233054606404 0)
(0.00307562313134 0.232899492401 0)
(0.00240288935716 0.232702384822 0)
(0.00172687020546 0.232469261865 0)
(0.00107045695022 0.232208952904 0)
(0.000464664184838 0.231934978409 0)
(-0.00126916646304 0.231665799159 0)
(-0.00135858240117 0.231543589964 0)
(-0.0016568734423 0.23258165043 0)
(-0.00222153645689 0.232621451757 0)
(-0.00142661896172 0.232716054431 0)
(-0.00202931310085 0.232849261406 0)
(-0.00265473206281 0.233022645692 0)
(-0.00330940018045 0.233234701535 0)
(-0.00399839867513 0.233482934138 0)
(-0.00472462699805 0.233764375572 0)
(-0.0054896012314 0.23407516669 0)
(-0.00629350176528 0.234410781412 0)
(-0.00713519952997 0.234765808106 0)
(-0.00801239971956 0.235134009425 0)
(-0.0089219559363 0.235508387896 0)
(-0.00985999381048 0.235881230179 0)
(-0.0108221452019 0.236244424362 0)
(-0.0118037657166 0.23658951109 0)
(-0.0128001277263 0.236908196559 0)
(-0.0138065578477 0.237192378362 0)
(-0.0148185975345 0.237434754112 0)
(-0.0158320019457 0.237628753103 0)
(-0.0168428579538 0.237769134221 0)
(-0.0178474507439 0.237851754566 0)
(-0.0188423571688 0.23787408176 0)
(-0.0198242307163 0.23783476907 0)
(-0.0207899077717 0.237734064169 0)
(-0.0217361741449 0.237573215277 0)
(-0.0226599128713 0.237354810307 0)
(-0.0235578975925 0.237082077074 0)
(-0.0244269838398 0.236759210402 0)
(-0.0252639454079 0.236390636157 0)
(-0.0260656850583 0.235981374584 0)
(-0.0268291089516 0.235536318419 0)
(-0.0275513238741 0.235060656254 0)
(-0.0282295402287 0.234559189495 0)
(-0.0288612283426 0.234036815786 0)
(-0.029444045711 0.23349788937 0)
(-0.0299759379557 0.232946751839 0)
(-0.0304550927753 0.2323871312 0)
(-0.0308799818957 0.23182270271 0)
(-0.0312493463809 0.23125651846 0)
(-0.0315621843441 0.23069158334 0)
(-0.0318177725214 0.230130307875 0)
(-0.0320156040106 0.229575088337 0)
(-0.0321552429238 0.229027764189 0)
(-0.0322357817291 0.228490010057 0)
(-0.0322567043114 0.227963296454 0)
(-0.0322191780132 0.227449310688 0)
(-0.032124667559 0.226949054002 0)
(-0.0319738145163 0.22646369109 0)
(-0.031767492947 0.225994033006 0)
(-0.031506648514 0.225541083833 0)
(-0.0311924361422 0.225105532397 0)
(-0.0308260642633 0.224688287238 0)
(-0.0304089363115 0.224289969681 0)
(-0.0299425043986 0.223911433059 0)
(-0.0294283989729 0.223553259059 0)
(-0.0288682979221 0.223216260206 0)
(-0.0282640361563 0.222900982957 0)
(-0.0276174947694 0.222608190768 0)
(-0.0269306844256 0.222338377667 0)
(-0.0262056578207 0.222092228865 0)
(-0.0254445636294 0.22187015115 0)
(-0.0246495831999 0.221672705856 0)
(-0.0238229544048 0.22150016272 0)
(-0.0229669324853 0.221352899209 0)
(-0.0220837862665 0.221230987361 0)
(-0.0211757812883 0.221134551442 0)
(-0.0202451533352 0.221063397694 0)
(-0.0192941113031 0.221017322179 0)
(-0.018324795612 0.220995796074 0)
(-0.0173392965215 0.220998214649 0)
(-0.01633960612 0.221023650071 0)
(-0.0153276464001 0.221071033576 0)
(-0.0143052245278 0.221138988012 0)
(-0.0132740622649 0.221225935746 0)
(-0.0122357645238 0.221330018459 0)
(-0.011191841781 0.221449126617 0)
(-0.0101437075061 0.221580909181 0)
(-0.00909269603773 0.221722726463 0)
(-0.00804013180237 0.221871745518 0)
(-0.00698740084599 0.222024839254 0)
(-0.005936224525 0.222178778913 0)
(-0.00488894571919 0.222330176253 0)
(-0.00384913858293 0.222475879417 0)
(-0.00282189461484 0.222613192974 0)
(-0.00181384501566 0.222740640284 0)
(-0.00083455154051 0.222857868096 0)
(0.00010394885512 0.222968903698 0)
(0.000999621280806 0.223075744852 0)
(0.00185785387882 0.223177824836 0)
(0.00267586696372 0.223279561896 0)
(0.00344935284913 0.223385524115 0)
(0.0041788881671 0.223498569711 0)
(0.00486519606148 0.223621240133 0)
(0.00550926003605 0.223755736151 0)
(0.00611196224197 0.223903772773 0)
(0.00667429250436 0.224066802679 0)
(0.0071970593387 0.224245852272 0)
(0.00768113738821 0.224441765871 0)
(0.00812718705174 0.224655008488 0)
(0.00853591454213 0.22488592492 0)
(0.00890780399609 0.225134519549 0)
(0.00924338453685 0.225400720732 0)
(0.0095429726867 0.225684149631 0)
(0.00980694321652 0.225984381409 0)
(0.0100354806583 0.226300710625 0)
(0.0102288524238 0.226632403024 0)
(0.0103871674298 0.226978462391 0)
(0.0105106490308 0.227337868864 0)