/*--------------------------------*- C++ -*----------------------------------*\
| =========                 |                                                 |
| \\      /  F ield         | OpenFOAM: The Open Source CFD Toolbox           |
|  \\    /   O peration     | Version:  2212                                  |
|   \\  /    A nd           | Website:  www.openfoam.com                      |
|    \\/     M anipulation  |                                                 |
\*---------------------------------------------------------------------------*/
FoamFile
{
    version     2.0;
    format      ascii;
    arch        "LSB;label=64;scalar=64";
    class       surfaceScalarField;
    location    "1230";
    object      phi;
}
// * * * * * * * * * * * * * * * * * * * * * * * * * * * * * * * * * * * * * //

dimensions      [0 3 -1 0 0 0 0];

oriented        oriented;

internalField   nonuniform List<scalar> 
1984
(
-1.62095e-09
1.62082e-09
-1.43267e-08
1.27058e-08
-3.94491e-08
2.51225e-08
-7.28466e-08
3.33975e-08
-1.09399e-07
3.65525e-08
-1.44348e-07
3.49487e-08
-1.72085e-07
2.77374e-08
-1.8376e-07
1.16745e-08
-1.64059e-07
-1.97007e-08
-9.75617e-08
-6.64973e-08
1.62888e-08
-1.1385e-07
1.3167e-07
-1.15381e-07
2.19534e-07
-8.78642e-08
2.7379e-07
-5.42562e-08
2.98297e-07
-2.45066e-08
2.964e-07
1.89665e-09
2.72168e-07
2.42316e-08
2.36454e-07
3.57141e-08
1.97284e-07
3.91703e-08
1.60058e-07
3.72255e-08
1.27282e-07
3.27763e-08
9.97937e-08
2.74883e-08
7.7559e-08
2.22348e-08
5.99087e-08
1.76502e-08
4.56393e-08
1.42695e-08
3.33289e-08
1.23103e-08
2.2049e-08
1.12799e-08
1.19765e-08
1.00726e-08
4.25869e-09
7.71783e-09
3.25329e-11
4.22625e-09
-8.37391e-10
8.69919e-10
-8.37401e-10
-1.39792e-08
1.56001e-08
-5.91836e-08
5.79103e-08
-1.34895e-07
1.00834e-07
-2.31745e-07
1.30247e-07
-3.3581e-07
1.40618e-07
-4.31621e-07
1.3076e-07
-5.00994e-07
9.71103e-08
-5.19186e-07
2.9866e-08
-4.49539e-07
-8.93477e-08
-2.55906e-07
-2.6013e-07
6.3227e-08
-4.32983e-07
3.94029e-07
-4.46183e-07
6.54554e-07
-3.48389e-07
8.3141e-07
-2.31112e-07
9.26421e-07
-1.19518e-07
9.429e-07
-1.4582e-08
8.88015e-07
7.91164e-08
7.91875e-07
1.31855e-07
6.78197e-07
1.52848e-07
5.64182e-07
1.5124e-07
4.59285e-07
1.37673e-07
3.67783e-07
1.1899e-07
2.90824e-07
9.91939e-08
2.27284e-07
8.11903e-08
1.7431e-07
6.72439e-08
1.28456e-07
5.81648e-08
8.7585e-08
5.21505e-08
5.22269e-08
4.54307e-08
2.49579e-08
3.49868e-08
7.97235e-09
2.12118e-08
9.33176e-10
7.90907e-09
9.5844e-11
-3.08911e-08
4.64912e-08
-1.15396e-07
1.42415e-07
-2.45622e-07
2.31059e-07
-4.05566e-07
2.90192e-07
-5.72639e-07
3.0769e-07
-7.20167e-07
2.78289e-07
-8.16956e-07
1.93899e-07
-8.23771e-07
3.66806e-08
-6.89926e-07
-2.23193e-07
-3.694e-07
-5.80656e-07
1.34052e-07
-9.36436e-07
6.61731e-07
-9.73863e-07
1.09722e-06
-7.83877e-07
1.41865e-06
-5.52542e-07
1.61741e-06
-3.18276e-07
1.68642e-06
-8.35958e-08
1.62674e-06
1.38801e-07
1.48573e-06
2.72857e-07
1.30341e-06
3.35168e-07
1.10982e-06
3.44832e-07
9.23415e-07
3.2408e-07
7.54117e-07
2.88288e-07
6.06135e-07
2.47176e-07
4.79428e-07
2.07898e-07
3.70844e-07
1.75827e-07
2.76065e-07
1.52944e-07
1.9236e-07
1.35856e-07
1.20469e-07
1.17321e-07
6.38393e-08
9.16167e-08
2.55414e-08
5.95097e-08
5.44795e-09
2.80025e-08
5.54381e-09
-4.60574e-08
9.25486e-08
-1.66936e-07
2.63293e-07
-3.46804e-07
4.10927e-07
-5.61616e-07
5.05004e-07
-7.79861e-07
5.25935e-07
-9.64237e-07
4.62664e-07
-1.07185e-06
3.01509e-07
-1.05113e-06
1.59653e-08
-8.45493e-07
-4.28831e-07
-4.10011e-07
-1.01614e-06
2.3124e-07
-1.57769e-06
9.0657e-07
-1.64919e-06
1.49875e-06
-1.37605e-06
1.97179e-06
-1.02558e-06
2.30323e-06
-6.49721e-07
2.46665e-06
-2.47012e-07
2.44171e-06
1.63742e-07
2.28551e-06
4.29061e-07
2.05493e-06
5.65739e-07
1.79241e-06
6.07356e-07
1.52597e-06
5.90524e-07
1.27262e-06
5.41632e-07
1.04149e-06
4.7831e-07
8.35634e-07
4.13752e-07
6.53717e-07
3.57744e-07
4.92379e-07
3.14283e-07
3.49305e-07
2.78929e-07
2.25606e-07
2.4102e-07
1.25644e-07
1.91579e-07
5.41809e-08
1.30973e-07
1.30545e-08
6.91288e-08
1.85984e-08
-5.38477e-08
1.46396e-07
-1.9585e-07
4.05295e-07
-4.07167e-07
6.22245e-07
-6.58197e-07
7.56034e-07
-9.09468e-07
7.77207e-07
-1.11381e-06
6.67003e-07
-1.2178e-06
4.05507e-07
-1.1618e-06
-4.00343e-08
-8.88453e-07
-7.02183e-07
-3.63242e-07
-1.54135e-06
3.53561e-07
-2.29449e-06
1.11099e-06
-2.40662e-06
1.81952e-06
-2.08459e-06
2.42747e-06
-1.63354e-06
2.90161e-06
-1.12386e-06
3.19607e-06
-5.41465e-07
3.25228e-06
1.07533e-07
3.12075e-06
5.60587e-07
2.87532e-06
8.11167e-07
2.56908e-06
9.13601e-07
2.23852e-06
9.21076e-07
1.90771e-06
8.72441e-07
1.59154e-06
7.94485e-07
1.29779e-06
7.07498e-07
1.02905e-06
6.26486e-07
7.8505e-07
5.58285e-07
5.65507e-07
4.98472e-07
3.72918e-07
4.3361e-07
2.13547e-07
3.50949e-07
9.53598e-08
2.49161e-07
2.40413e-08
1.40447e-07
4.26397e-08
-5.01694e-08
1.96566e-07
-1.88091e-07
5.43217e-07
-4.00502e-07
8.34655e-07
-6.59088e-07
1.01462e-06
-9.20211e-07
1.03833e-06
-1.12837e-06
8.75167e-07
-1.22071e-06
4.97839e-07
-1.13263e-06
-1.28116e-07
-8.08719e-07
-1.02609e-06
-2.30757e-07
-2.11931e-06
4.98209e-07
-3.02346e-06
1.27445e-06
-3.18286e-06
2.04269e-06
-2.85283e-06
2.74342e-06
-2.33426e-06
3.34046e-06
-1.7209e-06
3.77924e-06
-9.80247e-07
3.95497e-06
-6.81919e-08
3.88917e-06
6.26385e-07
3.66838e-06
1.03196e-06
3.35364e-06
1.22834e-06
2.9876e-06
1.28711e-06
2.59982e-06
1.26023e-06
2.21048e-06
1.18382e-06
1.83257e-06
1.08541e-06
1.47379e-06
9.85268e-07
1.13859e-06
8.93486e-07
8.30604e-07
8.06454e-07
5.55626e-07
7.08587e-07
3.236e-07
5.82976e-07
1.47384e-07
4.25377e-07
3.80652e-08
2.49766e-07
8.07049e-08
-3.4724e-08
2.3129e-07
-1.4021e-07
6.48704e-07
-3.16739e-07
1.01118e-06
-5.46689e-07
1.24457e-06
-7.89857e-07
1.2815e-06
-9.86658e-07
1.07197e-06
-1.06619e-06
5.77373e-07
-9.57569e-07
-2.36739e-07
-6.06719e-07
-1.37694e-06
-2.15596e-08
-2.70447e-06
6.60834e-07
-3.70585e-06
1.40189e-06
-3.92392e-06
2.16611e-06
-3.61705e-06
2.89976e-06
-3.06791e-06
3.57224e-06
-2.39339e-06
4.13258e-06
-1.54059e-06
4.44149e-06
-3.77098e-07
4.4742e-06
5.93671e-07
4.31377e-06
1.1924e-06
4.02714e-06
1.51497e-06
3.66022e-06
1.65403e-06
3.24552e-06
1.67492e-06
2.80694e-06
1.6224e-06
2.36197e-06
1.53037e-06
1.92343e-06
1.42381e-06
1.50121e-06
1.31571e-06
1.10447e-06
1.20319e-06
7.44549e-07
1.06851e-06
4.37112e-07
8.90412e-07
2.00947e-07
6.61542e-07
5.25362e-08
3.98177e-07
1.33241e-07
-1.18833e-08
2.43173e-07
-6.26688e-08
6.99489e-07
-1.68257e-07
1.11677e-06
-3.29962e-07
1.40628e-06
-5.21431e-07
1.47297e-06
-6.8767e-07
1.23821e-06
-7.52796e-07
6.42499e-07
-6.35823e-07
-3.53712e-07
-2.81137e-07
-1.73163e-06
2.46309e-07
-3.23191e-06
8.30304e-07
-4.28984e-06
1.48562e-06
-4.57924e-06
2.17885e-06
-4.31027e-06
2.87669e-06
-3.76575e-06
3.56115e-06
-3.07785e-06
4.19438e-06
-2.17382e-06
4.62305e-06
-8.0577e-07
4.76557e-06
4.51152e-07
4.68634e-06
1.27163e-06
4.45658e-06
1.74473e-06
4.12142e-06
1.98919e-06
3.71284e-06
2.0835e-06
3.25601e-06
2.07924e-06
2.77132e-06
2.01506e-06
2.27591e-06
1.91922e-06
1.78523e-06
1.80639e-06
1.31534e-06
1.67308e-06
8.85294e-07
1.49856e-06
5.18007e-07
1.2577e-06
2.37353e-07
9.42196e-07
6.19526e-08
5.73577e-07
1.95194e-07
1.09819e-08
2.32191e-07
2.15614e-08
6.8891e-07
6.8006e-09
1.13153e-06
-5.18983e-08
1.46498e-06
-1.51651e-07
1.57272e-06
-2.55776e-07
1.34233e-06
-2.91717e-07
6.78441e-07
-1.66833e-07
-4.78597e-07
1.42834e-07
-2.04129e-06
5.4803e-07
-3.63711e-06
9.91276e-07
-4.73309e-06
1.49236e-06
-5.08032e-06
2.03883e-06
-4.85675e-06
2.62551e-06
-4.35244e-06
3.25057e-06
-3.70291e-06
3.89606e-06
-2.81931e-06
4.41331e-06
-1.32302e-06
4.65549e-06
2.0897e-07
4.66e-06
1.26713e-06
4.50501e-06
1.89971e-06
4.22878e-06
2.26542e-06
3.85863e-06
2.45365e-06
3.41795e-06
2.51992e-06
2.92796e-06
2.50504e-06
2.40905e-06
2.43814e-06
1.88256e-06
2.33287e-06
1.37307e-06
2.18257e-06
9.09278e-07
1.96235e-06
5.21202e-07
1.64578e-06
2.33576e-07
1.22982e-06
5.96159e-08
7.47537e-07
2.5481e-07
2.75129e-08
2.04678e-07
8.93451e-08
6.27077e-07
1.61507e-07
1.05937e-06
2.17437e-07
1.40905e-06
2.40085e-07
1.55007e-06
2.40978e-07
1.34144e-06
2.69208e-07
6.5021e-07
3.90011e-07
-5.994e-07
6.01545e-07
-2.25283e-06
8.41647e-07
-3.87721e-06
1.08392e-06
-4.97536e-06
1.34622e-06
-5.34262e-06
1.65772e-06
-5.16824e-06
2.04915e-06
-4.74387e-06
2.53448e-06
-4.18824e-06
3.11979e-06
-3.40461e-06
3.67554e-06
-1.87877e-06
3.99552e-06
-1.11008e-07
4.08581e-06
1.17683e-06
4.02324e-06
1.96228e-06
3.83288e-06
2.45579e-06
3.53538e-06
2.75115e-06
3.14979e-06
2.90551e-06
2.69621e-06
2.95862e-06
2.19798e-06
2.93637e-06
1.68381e-06
2.84705e-06
1.18923e-06
2.67715e-06
7.53409e-07
2.39817e-06
4.09137e-07
1.99005e-06
1.72667e-07
1.46629e-06
4.12059e-08
8.78998e-07
2.96016e-07
3.46021e-08
1.70076e-07
1.25618e-07
5.36061e-07
2.56452e-07
9.28536e-07
4.02023e-07
1.26347e-06
5.38845e-07
1.41325e-06
6.59148e-07
1.22114e-06
7.75028e-07
5.3433e-07
8.96681e-07
-7.21053e-07
9.9755e-07
-2.3537e-06
1.03039e-06
-3.91006e-06
9.82486e-07
-4.92745e-06
9.07311e-07
-5.26745e-06
8.883e-07
-5.14923e-06
9.93178e-07
-4.84875e-06
1.24474e-06
-4.4398e-06
1.6725e-06
-3.83237e-06
2.19312e-06
-2.39939e-06
2.59237e-06
-5.10262e-07
2.78335e-06
9.85857e-07
2.83767e-06
1.90796e-06
2.76706e-06
2.5264e-06
2.58557e-06
2.93264e-06
2.30435e-06
3.18673e-06
1.94147e-06
3.32149e-06
1.52507e-06
3.35277e-06
1.09482e-06
3.27729e-06
6.99409e-07
3.07256e-06
3.84753e-07
2.71283e-06
1.72679e-07
2.20212e-06
5.60486e-08
1.58292e-06
8.6287e-09
9.26418e-07
3.04644e-07
3.14446e-08
1.38632e-07
1.22535e-07
4.4497e-07
2.67638e-07
7.83433e-07
4.5028e-07
1.08083e-06
6.49129e-07
1.2144e-06
8.4702e-07
1.02324e-06
1.02916e-06
3.52193e-07
1.15042e-06
-8.42315e-07
1.12615e-06
-2.32943e-06
8.90817e-07
-3.67472e-06
4.5016e-07
-4.4868e-06
-6.11305e-08
-4.75616e-06
-4.85846e-07
-4.72451e-06
-7.54863e-07
-4.57973e-06
-8.42619e-07
-4.35204e-06
-7.06142e-07
-3.96885e-06
-3.64816e-07
-2.74072e-06
1.31555e-07
-1.00663e-06
5.08586e-07
6.08826e-07
7.07981e-07
1.70857e-06
8.18646e-07
2.41573e-06
8.23507e-07
2.92778e-06
7.21997e-07
3.28824e-06
5.34941e-07
3.50855e-06
3.02929e-07
3.58478e-06
7.9948e-08
3.50027e-06
-8.31187e-08
3.23563e-06
-1.56806e-07
2.78652e-06
-1.48033e-07
2.19335e-06
-9.14104e-08
1.5263e-06
-3.00127e-08
8.6502e-07
2.74632e-07
2.02411e-08
1.18391e-07
8.35155e-08
3.81696e-07
1.93018e-07
6.73931e-07
3.44411e-07
9.2944e-07
5.25908e-07
1.0329e-06
7.1851e-07
8.30642e-07
8.80681e-07
1.90022e-07
9.14145e-07
-8.75779e-07
6.69518e-07
-2.0848e-06
3.18155e-08
-3.03702e-06
-8.82205e-07
-3.57278e-06
-1.86306e-06
-3.7753e-06
-2.74973e-06
-3.83785e-06
-3.48162e-06
-3.84784e-06
-4.01467e-06
-3.81899e-06
-4.2806e-06
-3.70292e-06
-4.16577e-06
-2.85555e-06
-3.75664e-06
-1.41576e-06
-3.21792e-06
7.01108e-08
-2.72497e-06
1.21561e-06
-2.29837e-06
1.98913e-06
-1.96509e-06
2.5945e-06
-1.72509e-06
3.04824e-06
-1.55353e-06
3.33698e-06
-1.40848e-06
3.43973e-06
-1.24264e-06
3.33444e-06
-1.02528e-06
3.01827e-06
-7.61008e-07
2.52224e-06
-4.81898e-07
1.91424e-06
-2.34911e-07
1.27931e-06
-6.46188e-08
6.94728e-07
2.10013e-07
1.78758e-09
1.16603e-07
1.19557e-08
3.71528e-07
3.73873e-08
6.48499e-07
8.45887e-08
8.82239e-07
1.5338e-07
9.64113e-07
2.1909e-07
7.64932e-07
1.96381e-07
2.12731e-07
-8.76197e-08
-5.91779e-07
-7.94818e-07
-1.3776e-06
-1.94073e-06
-1.89111e-06
-3.35254e-06
-2.16097e-06
-4.81697e-06
-2.31087e-06
-6.22176e-06
-2.43306e-06
-7.50094e-06
-2.56866e-06
-8.58903e-06
-2.7309e-06
-9.38551e-06
-2.90643e-06
-9.65926e-06
-2.5818e-06
-9.36682e-06
-1.7082e-06
-8.58478e-06
-7.11929e-07
-7.63634e-06
2.67171e-07
-6.67747e-06
1.03026e-06
-5.75733e-06
1.67436e-06
-4.88505e-06
2.17596e-06
-4.0563e-06
2.50823e-06
-3.27792e-06
2.66136e-06
-2.54703e-06
2.60354e-06
-1.86447e-06
2.33572e-06
-1.24583e-06
1.9036e-06
-7.20962e-07
1.38937e-06
-3.25017e-07
8.83367e-07
-8.2913e-08
4.52624e-07
1.271e-07
-2.45804e-08
1.41183e-07
-1.01825e-07
4.48772e-07
-2.29466e-07
7.7614e-07
-3.96865e-07
1.04964e-06
-6.04629e-07
1.17188e-06
-9.01029e-07
1.06133e-06
-1.41558e-06
7.27281e-07
-2.31768e-06
3.10327e-07
-3.68231e-06
-1.29811e-08
-5.35822e-06
-2.15195e-07
-7.20998e-06
-3.09208e-07
-9.11845e-06
-4.02394e-07
-1.10088e-05
-5.42675e-07
-1.28185e-05
-7.59038e-07
-1.44703e-05
-1.0791e-06
-1.58416e-05
-1.53504e-06
-1.65792e-05
-1.84422e-06
-1.65037e-05
-1.78373e-06
-1.56466e-05
-1.56907e-06
-1.41368e-05
-1.24255e-06
-1.2285e-05
-8.21554e-07
-1.02773e-05
-3.33318e-07
-8.2576e-06
1.56224e-07
-6.31953e-06
5.70156e-07
-4.57964e-06
9.21476e-07
-3.11988e-06
1.14377e-06
-1.97957e-06
1.19541e-06
-1.14845e-06
1.07249e-06
-5.80968e-07
8.21887e-07
-2.29788e-07
5.32187e-07
-5.10614e-08
2.73898e-07
7.60384e-08
-7.77257e-08
2.18909e-07
-3.03647e-07
6.74693e-07
-6.82733e-07
1.15523e-06
-1.21849e-06
1.58539e-06
-1.92756e-06
1.88095e-06
-2.86314e-06
1.99691e-06
-4.10856e-06
1.9727e-06
-5.70565e-06
1.90741e-06
-7.58371e-06
1.86509e-06
-9.63526e-06
1.83636e-06
-1.17495e-05
1.80503e-06
-1.38854e-05
1.73354e-06
-1.60117e-05
1.58356e-06
-1.80841e-05
1.31337e-06
-2.00309e-05
8.67672e-07
-2.17103e-05
1.44433e-07
-2.27573e-05
-7.9727e-07
-2.29564e-05
-1.58462e-06
-2.23352e-05
-2.19028e-06
-2.09364e-05
-2.64137e-06
-1.88335e-05
-2.92438e-06
-1.61503e-05
-3.01658e-06
-1.31003e-05
-2.89376e-06
-9.97615e-06
-2.55399e-06
-7.01452e-06
-2.04016e-06
-4.4509e-06
-1.41984e-06
-2.46567e-06
-7.8982e-07
-1.13267e-06
-2.60512e-07
-3.91875e-07
8.10916e-08
-7.71789e-08
2.17491e-07
4.3098e-09
1.92409e-07
8.03482e-08
-6.52488e-08
2.84158e-07
-2.67072e-07
8.76516e-07
-6.24492e-07
1.51265e-06
-1.15436e-06
2.11526e-06
-1.87231e-06
2.59891e-06
-2.79104e-06
2.91564e-06
-3.91074e-06
3.0924e-06
-5.21324e-06
3.20991e-06
-6.68097e-06
3.33282e-06
-8.314e-06
3.46938e-06
-1.00973e-05
3.58835e-06
-1.20071e-05
3.64334e-06
-1.40076e-05
3.58409e-06
-1.60458e-05
3.3515e-06
-1.8043e-05
2.8649e-06
-1.98976e-05
1.99908e-06
-2.11385e-05
4.43585e-07
-2.16464e-05
-1.07675e-06
-2.15478e-05
-2.2888e-06
-2.08647e-05
-3.32452e-06
-1.9602e-05
-4.18703e-06
-1.77853e-05
-4.83334e-06
-1.54777e-05
-5.20139e-06
-1.27945e-05
-5.23715e-06
-9.91797e-06
-4.91669e-06
-7.07857e-06
-4.25924e-06
-4.53128e-06
-3.33711e-06
-2.50774e-06
-2.28405e-06
-1.1392e-06
-1.28744e-06
-3.82643e-07
-5.39067e-07
-6.59973e-08
-1.24236e-07
1.43509e-08
-2.68554e-08
3.11013e-07
-1.22436e-07
9.72097e-07
-3.15038e-07
1.70525e-06
-6.34672e-07
2.43489e-06
-1.104e-06
3.06823e-06
-1.72727e-06
3.53891e-06
-2.4855e-06
3.85062e-06
-3.34699e-06
4.07141e-06
-4.28764e-06
4.27347e-06
-5.29949e-06
4.48123e-06
-6.38085e-06
4.66972e-06
-7.52601e-06
4.7885e-06
-8.72154e-06
4.77962e-06
-9.94886e-06
4.57882e-06
-1.11918e-05
4.10785e-06
-1.24482e-05
3.25549e-06
-1.35573e-05
1.55268e-06
-1.4266e-05
-3.68046e-07
-1.46608e-05
-1.89402e-06
-1.47789e-05
-3.20641e-06
-1.45754e-05
-4.39059e-06
-1.39865e-05
-5.42223e-06
-1.29645e-05
-6.2233e-06
-1.15085e-05
-6.69322e-06
-9.67992e-06
-6.74525e-06
-7.60189e-06
-6.33727e-06
-5.4528e-06
-5.48621e-06
-3.45109e-06
-4.28576e-06
-1.81986e-06
-2.91868e-06
-7.17837e-07
-1.64109e-06
-1.52652e-07
-6.89422e-07
-1.38301e-07
2.9344e-09
3.08079e-07
-7.0172e-09
9.82048e-07
-5.86856e-08
1.75692e-06
-1.88077e-07
2.56428e-06
-4.28491e-07
3.30864e-06
-7.93026e-07
3.90345e-06
-1.2606e-06
4.3182e-06
-1.79046e-06
4.60126e-06
-2.34588e-06
4.82889e-06
-2.90787e-06
5.04322e-06
-3.47194e-06
5.23379e-06
-4.03763e-06
5.35418e-06
-4.60137e-06
5.34336e-06
-5.15537e-06
5.13281e-06
-5.69299e-06
4.64548e-06
-6.22776e-06
3.79026e-06
-6.77665e-06
2.10157e-06
-7.3475e-06
2.02799e-07
-7.91568e-06
-1.32584e-06
-8.49392e-06
-2.62817e-06
-9.00065e-06
-3.88385e-06
-9.32768e-06
-5.0952e-06
-9.34727e-06
-6.20371e-06
-8.95866e-06
-7.08183e-06
-8.12359e-06
-7.58032e-06
-6.87194e-06
-7.58892e-06
-5.31192e-06
-7.04622e-06
-3.62852e-06
-5.96917e-06
-2.06634e-06
-4.48085e-06
-8.75728e-07
-2.8317e-06
-1.9916e-07
-1.36599e-06
-3.37461e-07
1.95125e-08
2.88566e-07
6.17819e-08
9.39779e-07
1.03631e-07
1.71507e-06
1.11237e-07
2.55668e-06
4.78752e-08
3.37201e-06
-1.09499e-07
4.06082e-06
-3.5208e-07
4.56078e-06
-6.39703e-07
4.88889e-06
-9.23735e-07
5.11292e-06
-1.17241e-06
5.2919e-06
-1.37691e-06
5.43829e-06
-1.54199e-06
5.51926e-06
-1.67579e-06
5.47717e-06
-1.78448e-06
5.24149e-06
-1.86902e-06
4.73002e-06
-1.9189e-06
3.84013e-06
-1.98974e-06
2.17242e-06
-2.25407e-06
4.67127e-07
-2.73747e-06
-8.42436e-07
-3.39123e-06
-1.97441e-06
-4.16078e-06
-3.1143e-06
-4.96634e-06
-4.28965e-06
-5.65172e-06
-5.51833e-06
-6.0437e-06
-6.68985e-06
-6.0326e-06
-7.59142e-06
-5.56063e-06
-8.06089e-06
-4.65456e-06
-7.95229e-06
-3.43417e-06
-7.18956e-06
-2.10937e-06
-5.80566e-06
-9.58538e-07
-3.98253e-06
-2.31383e-07
-2.09315e-06
-5.68843e-07
2.60567e-08
2.6251e-07
9.30392e-08
8.72796e-07
1.84479e-07
1.62363e-06
2.73111e-07
2.46805e-06
3.2697e-07
3.31815e-06
3.21426e-07
4.06637e-06
2.5346e-07
4.62875e-06
1.53054e-07
4.98929e-06
6.85778e-08
5.1974e-06
3.96042e-08
5.32087e-06
8.12676e-08
5.39663e-06
1.87102e-07
5.41342e-06
3.38365e-07
5.3259e-06
5.12042e-07
5.06781e-06
6.86408e-07
4.55565e-06
8.44011e-07
3.68253e-06
8.97186e-07
2.11924e-06
7.66121e-07
5.98192e-07
4.4832e-07
-5.24635e-07
-5.76827e-08
-1.46841e-06
-7.50047e-07
-2.42194e-06
-1.60782e-06
-3.43188e-06
-2.53959e-06
-4.58655e-06
-3.3616e-06
-5.86785e-06
-3.91885e-06
-7.03417e-06
-4.07155e-06
-7.90819e-06
-3.76228e-06
-8.26155e-06
-3.03095e-06
-7.92089e-06
-2.02129e-06
-6.81532e-06
-9.90859e-07
-5.01296e-06
-2.54234e-07
-2.82977e-06
-8.23078e-07
2.53633e-08
2.37146e-07
9.58921e-08
8.02268e-07
2.02871e-07
1.51665e-06
3.27826e-07
2.34309e-06
4.46919e-07
3.19905e-06
5.40362e-07
3.97293e-06
6.0355e-07
4.56556e-06
6.55729e-07
4.93711e-06
7.33734e-07
5.11939e-06
8.72787e-07
5.18182e-06
1.08912e-06
5.18029e-06
1.37522e-06
5.12732e-06
1.70655e-06
4.99458e-06
2.04897e-06
4.72539e-06
2.36229e-06
4.24234e-06
2.5982e-06
3.44661e-06
2.6541e-06
2.06335e-06
2.50904e-06
7.43254e-07
2.22179e-06
-2.37392e-07
1.82635e-06
-1.07297e-06
1.28843e-06
-1.88402e-06
6.01703e-07
-2.74515e-06
-2.40271e-07
-3.74458e-06
-1.17312e-06
-4.935e-06
-2.02582e-06
-6.18147e-06
-2.61464e-06
-7.31938e-06
-2.7948e-06
-8.08139e-06
-2.52185e-06
-8.19384e-06
-1.85432e-06
-7.48285e-06
-9.93659e-07
-5.87362e-06
-2.74548e-07
-3.54888e-06
-1.09763e-06
1.93648e-08
2.17782e-07
7.6915e-08
7.44717e-07
1.72099e-07
1.42147e-06
2.98124e-07
2.21707e-06
4.43431e-07
3.05375e-06
5.97633e-07
3.81872e-06
7.58388e-07
4.40481e-06
9.36209e-07
4.75929e-06
1.15169e-06
4.90392e-06
1.42572e-06
4.90779e-06
1.76781e-06
4.8382e-06
2.16944e-06
4.72569e-06
2.60559e-06
4.55842e-06
3.03897e-06
4.29201e-06
3.42136e-06
3.85995e-06
3.69053e-06
3.17744e-06
3.75462e-06
1.99926e-06
3.62026e-06
8.77614e-07
3.34197e-06
4.08991e-08
2.9598e-06
-6.90793e-07
2.48095e-06
-1.40517e-06
1.92269e-06
-2.18689e-06
1.27098e-06
-3.09286e-06
4.71842e-07
-4.13586e-06
-4.11935e-07
-5.29769e-06
-1.25652e-06
-6.47479e-06
-1.81108e-06
-7.52683e-06
-1.94937e-06
-8.05555e-06
-1.63071e-06
-7.80152e-06
-9.75949e-07
-6.52838e-06
-2.98057e-07
-4.22677e-06
-1.39568e-06
7.83968e-09
2.09942e-07
3.62971e-08
7.1626e-07
9.61397e-08
1.36162e-06
1.97105e-07
2.1161e-06
3.43235e-07
2.90762e-06
5.34886e-07
3.62707e-06
7.72333e-07
4.16736e-06
1.05669e-06
4.47494e-06
1.38952e-06
4.57109e-06
1.77307e-06
4.52423e-06
2.20647e-06
4.4048e-06
2.67981e-06
4.25235e-06
3.17132e-06
4.06691e-06
3.64733e-06
3.81601e-06
4.06141e-06
3.44587e-06
4.35354e-06
2.88531e-06
4.44772e-06
1.90508e-06
4.36678e-06
9.58559e-07
4.14483e-06
2.62842e-07
3.80814e-06
-3.54094e-07
3.385e-06
-9.82039e-07
2.88635e-06
-1.68824e-06
2.30955e-06
-2.51606e-06
1.64514e-06
-3.47145e-06
8.7104e-07
-4.52359e-06
6.13266e-09
-5.60988e-06
-8.15608e-07
-6.70509e-06
-1.31596e-06
-7.5552e-06
-1.34886e-06
-7.76862e-06
-9.34927e-07
-6.9423e-06
-3.28103e-07
-4.8336e-06
-1.72379e-06
-1.14695e-08
2.21411e-07
-3.11468e-08
7.35937e-07
-2.88496e-08
1.35933e-06
3.11586e-08
2.05609e-06
1.70141e-07
2.76863e-06
3.91887e-07
3.40533e-06
6.96709e-07
3.86254e-06
1.07405e-06
4.0976e-06
1.50515e-06
4.13999e-06
1.9747e-06
4.05468e-06
2.47284e-06
3.90666e-06
2.98956e-06
3.73563e-06
3.50881e-06
3.54766e-06
4.00481e-06
3.32001e-06
4.43954e-06
3.01114e-06
4.76341e-06
2.56144e-06
4.91077e-06
1.75772e-06
4.89912e-06
9.70202e-07
4.76085e-06
4.01111e-07
4.51635e-06
-1.09593e-07
4.18315e-06
-6.48835e-07
3.76237e-06
-1.26746e-06
3.24734e-06
-2.00103e-06
2.62972e-06
-2.85383e-06
1.90631e-06
-3.80018e-06
1.09317e-06
-4.79675e-06
1.92109e-07
-5.80402e-06
-6.0172e-07
-6.76137e-06
-9.9215e-07
-7.37819e-06
-8.58305e-07
-7.07615e-06
-3.6324e-07
-5.32866e-06
-2.08703e-06
-4.43144e-08
2.65725e-07
-1.33868e-07
8.2549e-07
-2.03561e-07
1.42902e-06
-1.87915e-07
2.04045e-06
-4.95175e-08
2.63024e-06
2.09599e-07
3.14621e-06
5.82061e-07
3.49007e-06
1.04216e-06
3.63751e-06
1.55306e-06
3.62908e-06
2.08799e-06
3.51975e-06
2.63284e-06
3.36181e-06
3.17982e-06
3.18866e-06
3.71962e-06
3.00786e-06
4.23557e-06
2.80405e-06
4.70014e-06
2.54657e-06
5.07499e-06
2.18659e-06
5.29624e-06
1.53647e-06
5.37065e-06
8.95791e-07
5.33175e-06
4.40012e-07
5.19354e-06
2.86165e-08
4.96158e-06
-4.16873e-07
4.62885e-06
-9.3473e-07
4.18054e-06
-1.55272e-06
3.60309e-06
-2.27639e-06
2.89337e-06
-3.09046e-06
2.0651e-06
-3.96848e-06
1.14663e-06
-4.88555e-06
1.9816e-07
-5.8129e-06
-5.34993e-07
-6.64504e-06
-7.24845e-07
-6.8863e-06
-3.94381e-07
-5.65913e-06
-2.48141e-06
-1.01771e-07
3.67496e-07
-2.82413e-07
1.00613e-06
-4.20075e-07
1.56668e-06
-4.29223e-07
2.04959e-06
-2.74002e-07
2.47501e-06
4.0015e-08
2.83219e-06
4.88162e-07
3.04193e-06
1.02377e-06
3.1019e-06
1.60053e-06
3.05232e-06
2.18894e-06
2.93134e-06
2.77557e-06
2.77518e-06
3.35592e-06
2.60831e-06
3.92611e-06
2.43767e-06
4.47638e-06
2.25378e-06
4.98737e-06
2.03559e-06
5.4279e-06
1.74606e-06
5.72885e-06
1.23552e-06
5.88713e-06
7.37514e-07
5.94029e-06
3.86851e-07
5.89707e-06
7.18318e-08
5.75423e-06
-2.74032e-07
5.50063e-06
-6.81129e-07
5.11553e-06
-1.16762e-06
4.5796e-06
-1.74046e-06
3.88384e-06
-2.3947e-06
3.03656e-06
-3.1212e-06
2.06651e-06
-3.9155e-06
1.03224e-06
-4.77863e-06
6.27472e-08
-5.67554e-06
-5.00448e-07
-6.3231e-06
-4.02e-07
-5.75757e-06
-2.88341e-06
-1.9497e-07
5.62466e-07
-4.73643e-07
1.28481e-06
-6.44634e-07
1.73767e-06
-6.30244e-07
2.0352e-06
-4.1795e-07
2.26272e-06
-2.2706e-08
2.43695e-06
5.12246e-07
2.50697e-06
1.12104e-06
2.49311e-06
1.75968e-06
2.41368e-06
2.40256e-06
2.28846e-06
3.03843e-06
2.13931e-06
3.66413e-06
1.98261e-06
4.27737e-06
1.82443e-06
4.87094e-06
1.66021e-06
5.42938e-06
1.47714e-06
5.92474e-06
1.25071e-06
6.28303e-06
8.7723e-07
6.49778e-06
5.22763e-07
6.60889e-06
2.75739e-07
6.62773e-06
5.29919e-08
6.54732e-06
-1.93622e-07
6.35143e-06
-4.85241e-07
6.01839e-06
-8.34572e-07
5.52609e-06
-1.24816e-06
4.85903e-06
-1.72764e-06
4.01512e-06
-2.27728e-06
3.01165e-06
-2.91203e-06
1.89353e-06
-3.66051e-06
7.60134e-07
-4.54215e-06
-1.36653e-07
-5.42632e-06
-3.56126e-07
-5.5381e-06
-3.23953e-06
-3.18703e-07
8.8117e-07
-6.58327e-07
1.62443e-06
-7.70538e-07
1.84988e-06
-6.43717e-07
1.90838e-06
-3.07243e-07
1.92625e-06
2.07433e-07
1.92227e-06
8.36656e-07
1.87775e-06
1.51891e-06
1.81086e-06
2.22062e-06
1.71196e-06
2.91992e-06
1.58917e-06
3.60523e-06
1.454e-06
4.27125e-06
1.31659e-06
4.91374e-06
1.18194e-06
5.52526e-06
1.04868e-06
6.09254e-06
9.09864e-07
6.59138e-06
7.51872e-07
6.95298e-06
5.15623e-07
7.17581e-06
2.99938e-07
7.30111e-06
1.50432e-07
7.34075e-06
1.33513e-08
7.28715e-06
-1.40017e-07
7.12409e-06
-3.22186e-07
6.83184e-06
-5.42312e-07
6.38846e-06
-8.0479e-07
5.77414e-06
-1.11332e-06
4.97521e-06
-1.47835e-06
3.98935e-06
-1.92617e-06
2.83574e-06
-2.5069e-06
1.58045e-06
-3.28686e-06
4.07798e-07
-4.25367e-06
-2.15599e-07
-4.9147e-06
-3.45513e-06
-4.44383e-07
1.32555e-06
-6.76449e-07
1.8565e-06
-5.32082e-07
1.70552e-06
-1.46363e-07
1.52266e-06
3.97115e-07
1.38277e-06
1.04863e-06
1.27076e-06
1.75911e-06
1.16728e-06
2.4976e-06
1.07237e-06
3.23595e-06
9.73604e-07
3.95419e-06
8.70929e-07
4.63964e-06
7.6855e-07
5.28505e-06
6.71176e-07
5.88563e-06
5.81354e-07
6.43609e-06
4.98228e-07
6.92816e-06
4.17792e-07
7.3463e-06
3.33732e-07
7.64086e-06
2.21063e-07
7.81858e-06
1.22226e-07
7.91638e-06
5.26237e-08
7.94244e-06
-1.27067e-08
7.88982e-06
-8.73919e-08
7.74602e-06
-1.78386e-07
7.49393e-06
-2.90223e-07
7.114e-06
-4.24864e-07
6.58587e-06
-5.85189e-07
5.88837e-06
-7.80842e-07
4.9993e-06
-1.03711e-06
3.89914e-06
-1.40673e-06
2.59173e-06
-1.97945e-06
1.18907e-06
-2.85101e-06
1.16149e-07
-3.84178e-06
-3.33898e-06
-3.81058e-07
1.70661e-06
9.7313e-09
1.46571e-06
7.22848e-07
9.92399e-07
1.45182e-06
7.93694e-07
2.18226e-06
6.52326e-07
2.91606e-06
5.36956e-07
3.63628e-06
4.4706e-07
4.33142e-06
3.77226e-07
4.98725e-06
3.17775e-07
5.59256e-06
2.6562e-07
6.14083e-06
2.20281e-07
6.63016e-06
1.81841e-07
7.06167e-06
1.49845e-07
7.43702e-06
1.22877e-07
7.75607e-06
9.87392e-08
8.01443e-06
7.53719e-08
8.18821e-06
4.7286e-08
8.28715e-06
2.32834e-08
8.33444e-06
5.33326e-09
8.33405e-06
-1.23148e-08
8.28028e-06
-3.36185e-08
8.16304e-06
-6.11502e-08
7.96878e-06
-9.59577e-08
7.68237e-06
-1.38455e-07
7.28702e-06
-1.89838e-07
6.76114e-06
-2.54964e-07
6.07186e-06
-3.47839e-07
5.16652e-06
-5.0139e-07
3.96884e-06
-7.81768e-07
2.41868e-06
-1.30086e-06
7.46242e-07
-2.16934e-06
-2.59274e-06
1.70661e-06
3.17232e-06
4.16472e-06
4.95841e-06
5.61074e-06
6.14769e-06
6.59475e-06
6.97198e-06
7.28975e-06
7.55537e-06
7.77565e-06
7.9575e-06
8.10734e-06
8.23022e-06
8.32896e-06
8.40433e-06
8.45162e-06
8.4749e-06
8.48023e-06
8.46792e-06
8.4343e-06
8.37315e-06
8.27719e-06
8.13874e-06
7.9489e-06
7.69393e-06
7.3461e-06
6.84471e-06
6.06294e-06
4.76208e-06
2.59274e-06
)
;

boundaryField
{
    movingWall
    {
        type            calculated;
        value           uniform 0;
    }
    fixedWalls
    {
        type            calculated;
        value           uniform 0;
    }
    floor
    {
        type            calculated;
        value           uniform 0;
    }
    frontAndBack
    {
        type            empty;
        value           nonuniform List<scalar> 0();
    }
}


// ************************************************************************* //
