/*--------------------------------*- C++ -*----------------------------------*\
| =========                 |                                                 |
| \\      /  F ield         | OpenFOAM: The Open Source CFD Toolbox           |
|  \\    /   O peration     | Version:  2212                                  |
|   \\  /    A nd           | Website:  www.openfoam.com                      |
|    \\/     M anipulation  |                                                 |
\*---------------------------------------------------------------------------*/
FoamFile
{
    version     2.0;
    format      ascii;
    arch        "LSB;label=64;scalar=64";
    class       volScalarField;
    location    "1230";
    object      Sco2;
}
// * * * * * * * * * * * * * * * * * * * * * * * * * * * * * * * * * * * * * //

dimensions      [1 -3 0 0 0 0 0];

internalField   nonuniform List<scalar> 
1024
(
0.00566211
0.00566445
0.00567018
0.00568053
0.00569674
0.00571976
0.00574981
0.00578603
0.00582644
0.00586819
0.00590783
0.00594178
0.00596729
0.00598223
0.00598443
0.00597138
0.00594187
0.00590088
0.00585403
0.00580252
0.00574679
0.00568794
0.00562848
0.00557193
0.00552171
0.00548002
0.00544763
0.00542402
0.00540797
0.00539793
0.00539243
0.00539018
0.00566257
0.00566496
0.0056708
0.00568136
0.00569789
0.00572133
0.00575184
0.0057885
0.00582931
0.00587141
0.00591135
0.00594542
0.00597087
0.00598565
0.00598762
0.00597433
0.00594462
0.00590351
0.00585664
0.0058052
0.00574957
0.00569076
0.00563121
0.00557441
0.0055238
0.00548169
0.00544889
0.00542496
0.00540868
0.0053985
0.00539292
0.00539065
0.00566367
0.00566613
0.00567217
0.0056831
0.00570021
0.00572443
0.00575585
0.00579352
0.00583542
0.0058787
0.0059198
0.0059545
0.00597993
0.00599419
0.00599536
0.0059812
0.00595072
0.00590915
0.00586213
0.00581078
0.00575537
0.00569672
0.00563705
0.00557978
0.00552841
0.0054854
0.00545174
0.00542712
0.00541034
0.00539985
0.00539411
0.00539178
0.00566554
0.00566809
0.00567436
0.00568575
0.00570361
0.0057289
0.00576171
0.0058011
0.00584517
0.00589108
0.00593485
0.00597123
0.00599681
0.00601
0.00600936
0.00599311
0.00596078
0.00591801
0.00587047
0.00581914
0.00576407
0.00570573
0.00564603
0.00558816
0.0055357
0.00549136
0.0054564
0.00543069
0.00541313
0.00540216
0.00539616
0.00539372
0.00566831
0.00567093
0.00567742
0.00568926
0.00570794
0.0057345
0.0057692
0.00581128
0.00585901
0.00590959
0.00595822
0.00599783
0.00602401
0.00603543
0.0060315
0.00601128
0.00597531
0.00593006
0.00588127
0.00582966
0.00577494
0.00571711
0.00565754
0.00559912
0.00554543
0.00549946
0.00546284
0.00543572
0.00541713
0.00540549
0.00539914
0.00539657
0.00567216
0.0056748
0.00568142
0.00569364
0.00571309
0.00574109
0.00577821
0.0058241
0.00587739
0.00593513
0.00599121
0.00603604
0.00606358
0.00607251
0.0060634
0.00603669
0.00599452
0.00594485
0.00589361
0.0058411
0.00578656
0.00572935
0.00567017
0.00561145
0.00555664
0.00550901
0.00547059
0.0054419
0.00542212
0.00540973
0.00540297
0.00540024
0.00567743
0.00568004
0.00568667
0.0056991
0.00571923
0.00574877
0.00578886
0.00583979
0.00590066
0.0059682
0.00603436
0.00608653
0.00611632
0.00612206
0.00610569
0.00606944
0.00601786
0.00596123
0.00590588
0.00585152
0.00579671
0.00574011
0.0056816
0.00562298
0.00556749
0.00551855
0.00547857
0.00544843
0.00542755
0.00541443
0.00540727
0.00540438
0.00568492
0.00568742
0.00569394
0.00570641
0.00572707
0.00575821
0.00580178
0.00585894
0.00592931
0.00600902
0.00608746
0.00614865
0.00618129
0.00618298
0.0061571
0.00610803
0.00604343
0.00597692
0.0059155
0.00585809
0.00580241
0.00574624
0.00568865
0.0056307
0.00557528
0.00552582
0.005485
0.00545398
0.00543236
0.00541873
0.00541129
0.00540829
0.00569629
0.00569864
0.00570492
0.0057173
0.00573841
0.00577125
0.00581877
0.0058832
0.0059647
0.00605828
0.0061502
0.00622084
0.00625583
0.00625196
0.00621407
0.00614885
0.00606757
0.00598815
0.00591867
0.00585699
0.00579981
0.00574392
0.00568752
0.00563098
0.00557672
0.00552801
0.00548757
0.00545668
0.00543506
0.00542138
0.00541387
0.00541082
0.00571477
0.00571694
0.00572297
0.00573526
0.00575693
0.00579176
0.00584383
0.00591654
0.0060103
0.00611832
0.00622321
0.00630163
0.00633657
0.00632443
0.00627158
0.00618694
0.00608546
0.00599018
0.00591074
0.00584371
0.0057845
0.00572887
0.00567414
0.00562001
0.00556839
0.00552215
0.00548378
0.00545444
0.00543385
0.00542073
0.00541345
0.00541045
0.00574591
0.00574794
0.00575388
0.0057664
0.00578918
0.00582681
0.00588443
0.00596634
0.00607258
0.00619377
0.00630863
0.00639052
0.00642086
0.00639659
0.00632582
0.00621907
0.00609433
0.00598024
0.00588867
0.00581486
0.0057529
0.00569746
0.00564504
0.00559466
0.00554752
0.00550584
0.00547152
0.00544536
0.00542695
0.00541512
0.00540848
0.00540569
0.00579763
0.00579973
0.00580599
0.00581949
0.00584448
0.00588635
0.00595096
0.0060427
0.00616012
0.00629069
0.00640959
0.00648825
0.00650838
0.00646874
0.00637911
0.00625016
0.00610101
0.00596513
0.00585778
0.00577396
0.00570679
0.00565022
0.00560006
0.00555444
0.00551354
0.00547845
0.00545013
0.00542881
0.00541392
0.00540441
0.00539911
0.0053969
0.00587821
0.00588067
0.00588792
0.00590347
0.00593214
0.00597988
0.00605268
0.00615388
0.00627937
0.00641316
0.00652828
0.00659671
0.00660323
0.00654983
0.00644707
0.00630335
0.00613538
0.00597741
0.00584859
0.00574742
0.00566795
0.00560426
0.00555225
0.00550937
0.00547436
0.0054467
0.00542604
0.00541177
0.00540291
0.00539816
0.00539611
0.00539552
0.00599136
0.00599445
0.0060033
0.00602186
0.00605539
0.00611
0.00619104
0.00629983
0.00642897
0.00655941
0.00666438
0.0067202
0.00671795
0.00666356
0.00656661
0.00643086
0.006266
0.00610003
0.00595312
0.00582847
0.00572512
0.00564003
0.00557224
0.00552068
0.00548395
0.0054605
0.00544829
0.00544476
0.00544694
0.00545178
0.00545657
0.00545944
0.00613045
0.00613427
0.006145
0.00616704
0.00620593
0.00626753
0.00635589
0.0064697
0.00659853
0.0067222
0.00681741
0.00686906
0.00687664
0.00684941
0.00679497
0.00671312
0.00660452
0.00648235
0.00635989
0.00624135
0.00612906
0.00602433
0.00593144
0.00585428
0.00579512
0.00575605
0.00573661
0.00573337
0.00574064
0.00575202
0.00576224
0.00576803
0.00627496
0.00627949
0.00629201
0.00631725
0.00636088
0.00642816
0.00652159
0.00663761
0.00676452
0.00688452
0.00698123
0.00704868
0.00709314
0.00712595
0.00715496
0.0071821
0.00720265
0.00721002
0.00720142
0.00717621
0.00713391
0.00707568
0.00700453
0.00692474
0.00684175
0.00676336
0.00669708
0.00664817
0.0066179
0.0066032
0.00659863
0.00659853
0.00638079
0.00638524
0.00639739
0.00642163
0.00646309
0.00652646
0.00661398
0.00672313
0.00684535
0.00696759
0.00707772
0.00717138
0.00725471
0.00733979
0.00743789
0.00755719
0.00769368
0.00782864
0.00794774
0.00804676
0.00812118
0.00816723
0.00818243
0.00816665
0.00812301
0.00805798
0.00798128
0.00790466
0.0078392
0.00779213
0.00776491
0.00775409
0.00643926
0.00644338
0.00645438
0.00647594
0.00651246
0.00656819
0.00664555
0.00674336
0.00685553
0.00697182
0.0070815
0.00717885
0.00726657
0.00735425
0.00745361
0.00757608
0.00772242
0.00787613
0.00802488
0.00816651
0.00829765
0.00841378
0.00850948
0.00857965
0.00862097
0.00863312
0.00861968
0.00858826
0.00854939
0.00851381
0.00848901
0.00847741
0.00646595
0.00646978
0.00647963
0.00649848
0.00652995
0.00657771
0.00664423
0.00672922
0.00682836
0.0069334
0.00703448
0.00712432
0.0072019
0.00727296
0.00734754
0.00743796
0.00755067
0.00767889
0.00781649
0.00796319
0.00811579
0.00826852
0.00841268
0.00853905
0.00864026
0.0087124
0.00875561
0.00877383
0.00877402
0.00876483
0.00875443
0.00874825
0.00647398
0.00647753
0.00648637
0.00650285
0.00652985
0.0065704
0.00662679
0.00669922
0.00678468
0.0068766
0.00696633
0.00704614
0.00711266
0.00716852
0.00722172
0.00728455
0.00736794
0.0074729
0.00759723
0.00774289
0.00790865
0.00808924
0.00827323
0.00844614
0.00859476
0.00871042
0.00879065
0.00883852
0.00886094
0.00886676
0.0088648
0.00886194
0.00647228
0.00647544
0.0064832
0.00649745
0.00652049
0.00655478
0.00660223
0.00666326
0.00673576
0.00681473
0.00689312
0.006964
0.00702337
0.00707214
0.00711667
0.00716864
0.00724054
0.00733581
0.00745248
0.00759334
0.00775977
0.00794957
0.00815351
0.00835644
0.0085415
0.00869454
0.00880805
0.00888196
0.00892231
0.0089387
0.00894169
0.00894031
0.00647001
0.0064724
0.00647847
0.00648991
0.00650879
0.00653718
0.0065767
0.00662776
0.00668896
0.00675675
0.00682598
0.00689138
0.00694953
0.00700074
0.00705009
0.00710789
0.00718479
0.00728199
0.0073968
0.00753264
0.00769274
0.00787772
0.00808235
0.00829495
0.0084991
0.00867766
0.00881813
0.0089157
0.00897348
0.00900039
0.00900809
0.00900787
0.00647931
0.00648016
0.00648315
0.00649017
0.00650352
0.0065254
0.00655743
0.00660019
0.00665291
0.0067134
0.00677838
0.0068443
0.00690866
0.00697141
0.00703624
0.00711134
0.007203
0.00730779
0.00742283
0.00755294
0.00770293
0.00787546
0.00806845
0.00827429
0.00848012
0.00866975
0.00882774
0.00894421
0.00901788
0.00905529
0.00906801
0.00906906
0.00651541
0.00651361
0.00651154
0.00651176
0.00651744
0.00653167
0.00655673
0.00659375
0.00664266
0.00670229
0.00677051
0.00684469
0.00692256
0.00700338
0.00708913
0.00718554
0.00729374
0.00740587
0.00751958
0.00764138
0.00777752
0.00793241
0.0081066
0.0082956
0.00849011
0.00867706
0.00884156
0.00897037
0.00905708
0.00910441
0.00912242
0.00912491
0.00659415
0.00658852
0.00657951
0.00657101
0.00656782
0.00657459
0.00659494
0.00663082
0.00668257
0.00674915
0.00682826
0.00691694
0.00701226
0.00711244
0.00721785
0.007332
0.00745181
0.00756669
0.00767535
0.00778568
0.00790486
0.00803839
0.00818878
0.00835438
0.00852916
0.0087032
0.00886373
0.00899695
0.00909251
0.00914838
0.00917169
0.00917585
0.00672849
0.00671814
0.00670166
0.0066852
0.0066755
0.00667874
0.00669982
0.0067411
0.00680238
0.00688155
0.00697514
0.00707907
0.00718955
0.00730395
0.00742155
0.00754437
0.0076669
0.00777784
0.00787712
0.00797324
0.00807364
0.0081841
0.00830819
0.00844635
0.00859558
0.00874927
0.00889729
0.00902685
0.00912582
0.00918786
0.00921606
0.0092221
0.00692658
0.00691148
0.00688991
0.00687101
0.00686249
0.0068705
0.00689986
0.00695207
0.00702555
0.00711684
0.00722133
0.00733422
0.00745132
0.0075698
0.00768852
0.00780876
0.00792428
0.00802467
0.00811085
0.00819104
0.00827221
0.00835976
0.00845747
0.00856699
0.00868753
0.00881559
0.00894422
0.00906279
0.00915901
0.00922373
0.00925578
0.00926377
0.00719252
0.00717427
0.00715434
0.00714359
0.00714756
0.00716941
0.00721205
0.00727527
0.00735664
0.00745234
0.00755774
0.00766827
0.00778014
0.00789089
0.00799945
0.00810674
0.00820705
0.00829176
0.00836234
0.00842597
0.00848859
0.00855476
0.00862789
0.00871001
0.00880162
0.00890146
0.00900576
0.00910698
0.00919427
0.00925722
0.0092912
0.00930097
0.00752978
0.00751278
0.00750551
0.00751471
0.00753917
0.00757767
0.00763087
0.00769777
0.0077767
0.00786486
0.00795871
0.00805475
0.00815009
0.00824287
0.00833231
0.00841909
0.00849867
0.0085646
0.0086184
0.00866576
0.00871126
0.00875841
0.00880989
0.00886755
0.00893233
0.00900427
0.00908191
0.00916101
0.00923357
0.00928978
0.00932288
0.00933377
0.00794575
0.00793843
0.00795447
0.00798662
0.00802729
0.00807381
0.00812652
0.00818522
0.00824978
0.00831897
0.00839078
0.008463
0.00853374
0.00860179
0.00866662
0.00872872
0.00878493
0.00883094
0.00886798
0.00890003
0.00893024
0.00896099
0.00899415
0.0090311
0.00907267
0.0091193
0.00917082
0.00922548
0.00927867
0.00932305
0.00935164
0.00936236
0.00845617
0.00846767
0.00850192
0.00854019
0.0085785
0.00861634
0.00865458
0.0086939
0.00873504
0.00877789
0.00882163
0.00886517
0.00890748
0.0089479
0.00898613
0.00902246
0.00905509
0.00908161
0.00910279
0.00912091
0.00913775
0.00915467
0.00917273
0.0091927
0.00921512
0.00924035
0.00926855
0.00929928
0.00933063
0.00935872
0.0093786
0.00938712
0.0090813
0.00909074
0.00910877
0.00912578
0.00914138
0.0091559
0.00916978
0.00918347
0.0091974
0.00921167
0.00922612
0.00924043
0.00925428
0.00926746
0.00927988
0.00929163
0.00930215
0.00931067
0.00931746
0.00932323
0.00932855
0.00933386
0.00933949
0.00934568
0.0093526
0.00936038
0.00936909
0.00937866
0.00938867
0.00939805
0.00940524
0.00940873
)
;

boundaryField
{
    movingWall
    {
        type            fixedValue;
        value           uniform 0.00942;
    }
    fixedWalls
    {
        type            zeroGradient;
    }
    floor
    {
        type            zeroGradient;
    }
    frontAndBack
    {
        type            empty;
    }
}


// ************************************************************************* //
