/*--------------------------------*- C++ -*----------------------------------*\
| =========                 |                                                 |
| \\      /  F ield         | OpenFOAM: The Open Source CFD Toolbox           |
|  \\    /   O peration     | Version:  2212                                  |
|   \\  /    A nd           | Website:  www.openfoam.com                      |
|    \\/     M anipulation  |                                                 |
\*---------------------------------------------------------------------------*/
FoamFile
{
    version     2.0;
    format      ascii;
    arch        "LSB;label=64;scalar=64";
    class       volScalarField;
    location    "1230";
    object      Xch;
}
// * * * * * * * * * * * * * * * * * * * * * * * * * * * * * * * * * * * * * //

dimensions      [1 -3 0 0 0 0 0];

internalField   nonuniform List<scalar> 
1024
(
0.019927
0.0199274
0.0199284
0.0199303
0.0199331
0.0199371
0.0199424
0.0199487
0.0199557
0.019963
0.0199699
0.0199757
0.01998
0.0199825
0.0199827
0.0199801
0.0199747
0.0199673
0.0199589
0.0199497
0.0199398
0.0199292
0.0199185
0.0199083
0.0198992
0.0198916
0.0198857
0.0198814
0.0198785
0.0198766
0.0198756
0.0198752
0.0199271
0.0199275
0.0199285
0.0199304
0.0199333
0.0199374
0.0199427
0.0199491
0.0199562
0.0199635
0.0199705
0.0199763
0.0199806
0.0199831
0.0199832
0.0199806
0.0199752
0.0199678
0.0199594
0.0199502
0.0199402
0.0199297
0.019919
0.0199087
0.0198995
0.0198919
0.0198859
0.0198816
0.0198786
0.0198767
0.0198757
0.0198753
0.0199273
0.0199277
0.0199288
0.0199307
0.0199337
0.0199379
0.0199434
0.01995
0.0199573
0.0199648
0.0199719
0.0199778
0.0199822
0.0199845
0.0199845
0.0199818
0.0199762
0.0199687
0.0199603
0.0199511
0.0199412
0.0199307
0.01992
0.0199097
0.0199004
0.0198925
0.0198864
0.0198819
0.0198789
0.019877
0.0198759
0.0198755
0.0199276
0.0199281
0.0199292
0.0199312
0.0199343
0.0199387
0.0199444
0.0199513
0.019959
0.0199669
0.0199745
0.0199807
0.019985
0.0199871
0.0199868
0.0199837
0.0199778
0.0199702
0.0199617
0.0199526
0.0199427
0.0199323
0.0199216
0.0199112
0.0199017
0.0198936
0.0198873
0.0198826
0.0198794
0.0198774
0.0198763
0.0198759
0.0199281
0.0199286
0.0199297
0.0199318
0.019935
0.0199397
0.0199457
0.019953
0.0199613
0.0199701
0.0199784
0.0199852
0.0199896
0.0199914
0.0199905
0.0199867
0.0199802
0.0199721
0.0199635
0.0199543
0.0199446
0.0199343
0.0199236
0.0199131
0.0199034
0.0198951
0.0198884
0.0198835
0.0198801
0.019878
0.0198768
0.0198764
0.0199288
0.0199292
0.0199304
0.0199325
0.0199359
0.0199408
0.0199473
0.0199552
0.0199645
0.0199744
0.019984
0.0199917
0.0199962
0.0199976
0.0199957
0.0199908
0.0199833
0.0199744
0.0199654
0.0199562
0.0199465
0.0199364
0.0199258
0.0199153
0.0199054
0.0198968
0.0198898
0.0198846
0.019881
0.0198788
0.0198775
0.019877
0.0199297
0.0199301
0.0199313
0.0199335
0.019937
0.0199421
0.0199491
0.0199579
0.0199684
0.01998
0.0199913
0.0200002
0.0200051
0.0200058
0.0200026
0.019996
0.0199869
0.0199769
0.0199672
0.0199577
0.0199481
0.0199381
0.0199277
0.0199173
0.0199073
0.0198984
0.0198912
0.0198858
0.019882
0.0198796
0.0198783
0.0198778
0.019931
0.0199314
0.0199326
0.0199347
0.0199383
0.0199437
0.0199513
0.0199612
0.0199733
0.019987
0.0200003
0.0200106
0.0200159
0.0200158
0.0200109
0.0200021
0.0199907
0.0199791
0.0199685
0.0199585
0.0199489
0.019939
0.0199289
0.0199185
0.0199086
0.0198997
0.0198923
0.0198867
0.0198828
0.0198803
0.019879
0.0198784
0.019933
0.0199334
0.0199345
0.0199366
0.0199403
0.019946
0.0199542
0.0199653
0.0199793
0.0199953
0.0200109
0.0200227
0.0200282
0.020027
0.0200199
0.0200082
0.019994
0.0199803
0.0199684
0.0199579
0.019948
0.0199384
0.0199285
0.0199184
0.0199088
0.0199
0.0198927
0.0198872
0.0198833
0.0198808
0.0198794
0.0198789
0.0199362
0.0199366
0.0199376
0.0199397
0.0199435
0.0199495
0.0199585
0.019971
0.0199871
0.0200055
0.0200232
0.0200361
0.0200414
0.0200386
0.0200288
0.0200137
0.019996
0.0199797
0.0199663
0.0199549
0.0199449
0.0199353
0.0199258
0.0199163
0.0199071
0.0198989
0.019892
0.0198867
0.019883
0.0198806
0.0198793
0.0198787
0.0199417
0.019942
0.019943
0.0199452
0.0199491
0.0199556
0.0199655
0.0199796
0.0199978
0.0200183
0.0200375
0.0200508
0.020055
0.0200498
0.0200368
0.0200178
0.0199962
0.0199768
0.0199615
0.0199492
0.0199388
0.0199294
0.0199203
0.0199115
0.0199032
0.0198958
0.0198897
0.019885
0.0198816
0.0198795
0.0198783
0.0198778
0.0199507
0.0199511
0.0199522
0.0199545
0.0199588
0.019966
0.0199771
0.0199928
0.0200127
0.0200347
0.0200544
0.0200668
0.0200689
0.0200608
0.0200444
0.0200215
0.0199958
0.0199729
0.019955
0.0199412
0.01993
0.0199205
0.019912
0.0199041
0.0198969
0.0198907
0.0198856
0.0198818
0.0198791
0.0198774
0.0198764
0.019876
0.0199649
0.0199653
0.0199665
0.0199692
0.0199741
0.0199822
0.0199947
0.0200119
0.0200331
0.0200553
0.020074
0.0200843
0.0200839
0.0200732
0.0200543
0.0200289
0.02
0.0199734
0.019952
0.0199353
0.0199222
0.0199116
0.0199029
0.0198956
0.0198895
0.0198846
0.0198809
0.0198783
0.0198767
0.0198758
0.0198753
0.0198752
0.0199847
0.0199852
0.0199867
0.0199899
0.0199956
0.0200048
0.0200186
0.0200369
0.0200585
0.0200799
0.0200965
0.0201043
0.020102
0.020091
0.020073
0.0200488
0.0200204
0.0199924
0.0199679
0.0199473
0.0199301
0.019916
0.0199048
0.0198961
0.0198899
0.0198858
0.0198837
0.0198829
0.0198831
0.0198838
0.0198845
0.019885
0.020009
0.0200097
0.0200115
0.0200152
0.0200218
0.0200321
0.020047
0.0200659
0.0200871
0.0201071
0.0201217
0.0201286
0.0201279
0.0201213
0.0201104
0.0200951
0.0200758
0.0200548
0.020034
0.0200142
0.0199955
0.0199781
0.0199627
0.0199499
0.0199401
0.0199336
0.0199303
0.0199297
0.0199308
0.0199326
0.0199343
0.0199352
0.0200344
0.0200351
0.0200372
0.0200414
0.0200487
0.0200599
0.0200755
0.0200947
0.0201154
0.0201345
0.0201493
0.0201589
0.0201645
0.020168
0.020171
0.0201736
0.0201752
0.020175
0.0201725
0.0201675
0.02016
0.02015
0.020138
0.0201248
0.0201111
0.0200983
0.0200875
0.0200795
0.0200746
0.0200722
0.0200715
0.0200715
0.0200532
0.0200539
0.0200559
0.0200599
0.0200668
0.0200774
0.020092
0.02011
0.0201301
0.0201499
0.0201672
0.0201815
0.0201939
0.0202063
0.0202208
0.0202385
0.0202587
0.0202787
0.0202962
0.0203106
0.0203212
0.0203275
0.020329
0.0203259
0.0203185
0.0203078
0.0202955
0.0202832
0.0202728
0.0202653
0.020261
0.0202593
0.0200639
0.0200646
0.0200664
0.02007
0.0200761
0.0200854
0.0200983
0.0201147
0.0201333
0.0201524
0.0201702
0.0201857
0.0201993
0.0202127
0.0202277
0.0202461
0.0202679
0.0202905
0.020312
0.0203323
0.0203509
0.0203673
0.0203807
0.0203904
0.020396
0.0203974
0.0203951
0.0203902
0.0203842
0.0203788
0.020375
0.0203732
0.0200692
0.0200698
0.0200715
0.0200746
0.0200798
0.0200879
0.0200991
0.0201134
0.0201301
0.0201477
0.0201644
0.0201791
0.0201916
0.0202028
0.0202143
0.0202279
0.0202445
0.020263
0.0202826
0.0203033
0.0203246
0.0203459
0.0203659
0.0203834
0.0203975
0.0204076
0.0204137
0.0204163
0.0204164
0.0204152
0.0204138
0.020413
0.0200713
0.0200718
0.0200733
0.020076
0.0200806
0.0200874
0.020097
0.0201093
0.0201238
0.0201394
0.0201546
0.0201681
0.0201791
0.0201882
0.0201966
0.020206
0.0202182
0.0202332
0.0202509
0.0202714
0.0202947
0.02032
0.0203456
0.0203697
0.0203903
0.0204063
0.0204175
0.0204242
0.0204275
0.0204285
0.0204283
0.020428
0.0200716
0.0200721
0.0200734
0.0200757
0.0200796
0.0200854
0.0200935
0.0201039
0.0201164
0.02013
0.0201435
0.0201557
0.0201658
0.0201739
0.020181
0.0201889
0.0201993
0.0202129
0.0202295
0.0202495
0.020273
0.0202997
0.0203283
0.0203566
0.0203823
0.0204035
0.0204192
0.0204295
0.0204352
0.0204376
0.0204382
0.020438
0.0200715
0.0200719
0.0200729
0.0200749
0.0200781
0.0200829
0.0200897
0.0200985
0.0201091
0.0201209
0.0201329
0.0201442
0.0201541
0.0201626
0.0201705
0.0201792
0.0201904
0.0202044
0.0202208
0.0202401
0.0202629
0.020289
0.0203178
0.0203476
0.020376
0.0204007
0.0204202
0.0204337
0.0204417
0.0204455
0.0204467
0.0204467
0.0200731
0.0200732
0.0200738
0.020075
0.0200774
0.0200812
0.0200867
0.0200941
0.0201032
0.0201137
0.0201249
0.0201361
0.0201469
0.0201571
0.0201673
0.0201786
0.020192
0.0202071
0.0202237
0.0202423
0.0202637
0.0202882
0.0203154
0.0203443
0.020373
0.0203993
0.0204211
0.0204372
0.0204474
0.0204526
0.0204544
0.0204546
0.0200784
0.0200782
0.020078
0.0200782
0.0200794
0.020082
0.0200864
0.0200928
0.0201011
0.0201112
0.0201226
0.0201348
0.0201475
0.0201603
0.0201735
0.020188
0.0202039
0.0202202
0.0202366
0.0202542
0.0202736
0.0202957
0.0203203
0.0203469
0.020374
0.0204
0.0204227
0.0204405
0.0204524
0.0204589
0.0204615
0.0204619
0.02009
0.0200892
0.020088
0.0200869
0.0200867
0.0200882
0.0200918
0.0200978
0.0201064
0.0201172
0.02013
0.0201441
0.0201591
0.0201746
0.0201907
0.0202078
0.0202255
0.0202423
0.020258
0.020274
0.0202911
0.0203101
0.0203314
0.0203547
0.0203791
0.0204033
0.0204255
0.0204438
0.020457
0.0204646
0.0204679
0.0204685
0.0201096
0.0201082
0.0201058
0.0201036
0.0201024
0.0201033
0.0201069
0.0201136
0.0201233
0.0201357
0.0201503
0.0201665
0.0201835
0.020201
0.0202188
0.0202372
0.0202553
0.0202715
0.020286
0.0202999
0.0203143
0.0203301
0.0203477
0.0203672
0.0203881
0.0204094
0.0204299
0.0204477
0.0204613
0.0204698
0.0204737
0.0204745
0.0201385
0.0201364
0.0201333
0.0201307
0.0201297
0.0201311
0.0201358
0.0201439
0.0201553
0.0201693
0.0201852
0.0202025
0.0202203
0.0202382
0.0202561
0.020274
0.0202911
0.0203059
0.0203184
0.0203301
0.0203418
0.0203543
0.0203682
0.0203836
0.0204005
0.0204184
0.0204361
0.0204525
0.0204656
0.0204744
0.0204788
0.0204799
0.0201773
0.0201746
0.0201718
0.0201704
0.0201711
0.0201745
0.020181
0.0201906
0.0202029
0.0202174
0.0202333
0.02025
0.0202668
0.0202835
0.0202998
0.0203158
0.0203306
0.0203431
0.0203534
0.0203627
0.0203717
0.0203812
0.0203916
0.0204032
0.020416
0.02043
0.0204444
0.0204583
0.0204702
0.0204788
0.0204834
0.0204848
0.0202263
0.0202239
0.0202228
0.0202243
0.0202279
0.0202337
0.0202417
0.0202517
0.0202635
0.0202766
0.0202907
0.0203051
0.0203194
0.0203333
0.0203467
0.0203596
0.0203714
0.0203811
0.020389
0.0203959
0.0204025
0.0204093
0.0204166
0.0204247
0.0204338
0.0204439
0.0204546
0.0204655
0.0204754
0.0204831
0.0204875
0.020489
0.0202867
0.0202856
0.020288
0.0202927
0.0202987
0.0203055
0.0203133
0.020322
0.0203316
0.0203419
0.0203526
0.0203634
0.020374
0.0203842
0.0203939
0.0204031
0.0204114
0.0204182
0.0204237
0.0204283
0.0204327
0.0204371
0.0204419
0.0204471
0.0204529
0.0204595
0.0204666
0.0204741
0.0204814
0.0204874
0.0204912
0.0204927
0.0203606
0.0203623
0.0203673
0.0203728
0.0203784
0.020384
0.0203896
0.0203954
0.0204015
0.0204079
0.0204144
0.0204209
0.0204272
0.0204332
0.0204389
0.0204443
0.0204492
0.0204531
0.0204562
0.0204588
0.0204613
0.0204637
0.0204663
0.0204691
0.0204723
0.0204758
0.0204797
0.020484
0.0204882
0.0204921
0.0204947
0.0204959
0.0204511
0.0204524
0.020455
0.0204575
0.0204598
0.0204619
0.0204639
0.020466
0.020468
0.0204701
0.0204723
0.0204744
0.0204765
0.0204785
0.0204803
0.0204821
0.0204836
0.0204849
0.0204859
0.0204867
0.0204875
0.0204883
0.0204891
0.0204899
0.0204909
0.020492
0.0204932
0.0204945
0.0204959
0.0204972
0.0204981
0.0204986
)
;

boundaryField
{
    movingWall
    {
        type            fixedValue;
        value           uniform 0.0205;
    }
    fixedWalls
    {
        type            zeroGradient;
    }
    floor
    {
        type            zeroGradient;
    }
    frontAndBack
    {
        type            empty;
    }
}


// ************************************************************************* //
