/*--------------------------------*- C++ -*----------------------------------*\
| =========                 |                                                 |
| \\      /  F ield         | OpenFOAM: The Open Source CFD Toolbox           |
|  \\    /   O peration     | Version:  2206                                  |
|   \\  /    A nd           | Website:  www.openfoam.com                      |
|    \\/     M anipulation  |                                                 |
\*---------------------------------------------------------------------------*/
FoamFile
{
    version     2.0;
    format      ascii;
    arch        "LSB;label=64;scalar=64";
    class       surfaceScalarField;
    location    "277200";
    object      phi;
}
// * * * * * * * * * * * * * * * * * * * * * * * * * * * * * * * * * * * * * //

dimensions      [0 3 -1 0 0 0 0];

oriented        oriented;

internalField   nonuniform List<scalar> 
24
(
3.82238e-10
-3.82238e-10
2.33985e-10
1.48253e-10
7.5564e-11
1.58421e-10
7.5564e-11
-7.38524e-11
-3.08386e-10
-5.64321e-11
1.30833e-10
-2.18336e-11
1.23823e-10
5.37305e-11
-1.51954e-10
-1.56432e-10
-7.68556e-11
5.57344e-11
-3.97864e-11
8.67536e-11
1.3944e-11
-1.56432e-10
-1.00698e-10
-1.3944e-11
)
;

boundaryField
{
    movingWall
    {
        type            calculated;
        value           uniform 0;
    }
    fixedWalls
    {
        type            calculated;
        value           uniform 0;
    }
    frontAndBack
    {
        type            empty;
        value           nonuniform List<scalar> 0();
    }
}


// ************************************************************************* //
