/*--------------------------------*- C++ -*----------------------------------*\
| =========                 |                                                 |
| \\      /  F ield         | OpenFOAM: The Open Source CFD Toolbox           |
|  \\    /   O peration     | Version:  2206                                  |
|   \\  /    A nd           | Website:  www.openfoam.com                      |
|    \\/     M anipulation  |                                                 |
\*---------------------------------------------------------------------------*/
FoamFile
{
    version     2.0;
    format      ascii;
    arch        "LSB;label=64;scalar=64";
    class       volVectorField;
    location    "277200";
    object      U;
}
// * * * * * * * * * * * * * * * * * * * * * * * * * * * * * * * * * * * * * //

dimensions      [0 1 -1 0 0 0 0];

internalField   nonuniform List<vector> 
16
(
(1.46533e-07 -1.32722e-07 0)
(1.55104e-07 4.34574e-08 0)
(3.31678e-08 5.97198e-08 0)
(2.84376e-08 2.58292e-08 0)
(-2.25594e-08 -1.68868e-07 0)
(-3.52072e-08 7.3673e-08 0)
(-1.13048e-08 6.54612e-08 0)
(-5.41535e-09 3.36873e-08 0)
(-6.47724e-08 -8.01524e-08 0)
(-5.51816e-08 3.21473e-08 0)
(-6.9169e-09 3.40503e-08 0)
(-2.51711e-08 9.98789e-09 0)
(-5.67645e-08 -4.39549e-08 0)
(-6.81207e-08 1.2135e-08 0)
(-1.05173e-08 3.4428e-08 0)
(-1.40157e-09 1.31779e-09 0)
)
;

boundaryField
{
    movingWall
    {
        type            noSlip;
    }
    fixedWalls
    {
        type            noSlip;
    }
    frontAndBack
    {
        type            empty;
    }
}


// ************************************************************************* //
