/*--------------------------------*- C++ -*----------------------------------*\
| =========                 |                                                 |
| \\      /  F ield         | OpenFOAM: The Open Source CFD Toolbox           |
|  \\    /   O peration     | Version:  2212                                  |
|   \\  /    A nd           | Website:  www.openfoam.com                      |
|    \\/     M anipulation  |                                                 |
\*---------------------------------------------------------------------------*/
FoamFile
{
    version     2.0;
    format      ascii;
    arch        "LSB;label=64;scalar=64";
    class       volScalarField;
    location    "1440";
    object      SIC;
}
// * * * * * * * * * * * * * * * * * * * * * * * * * * * * * * * * * * * * * //

dimensions      [1 -3 0 0 0 0 0];

internalField   nonuniform List<scalar> 
1024
(
0.0912733
0.0912753
0.0912797
0.0912878
0.0913005
0.091319
0.0913436
0.0913743
0.0914097
0.0914476
0.091485
0.0915187
0.0915463
0.091566
0.0915765
0.0915762
0.0915626
0.0915361
0.0914998
0.0914553
0.0914044
0.0913498
0.0912952
0.0912444
0.0912004
0.0911645
0.0911371
0.0911174
0.0911041
0.0910958
0.0910913
0.0910895
0.091274
0.0912759
0.0912804
0.0912886
0.0913015
0.0913202
0.0913452
0.0913762
0.091412
0.0914502
0.0914878
0.0915216
0.0915491
0.0915686
0.0915789
0.0915785
0.0915648
0.0915382
0.0915019
0.0914574
0.0914066
0.091352
0.0912973
0.0912462
0.0912018
0.0911656
0.0911379
0.091118
0.0911046
0.0910962
0.0910916
0.0910898
0.0912754
0.0912773
0.0912819
0.0912903
0.0913036
0.0913229
0.0913486
0.0913804
0.0914171
0.0914562
0.0914946
0.0915287
0.0915561
0.0915753
0.091585
0.0915841
0.09157
0.0915431
0.0915066
0.0914621
0.0914113
0.0913566
0.0913016
0.0912501
0.091205
0.0911681
0.0911398
0.0911194
0.0911056
0.0910971
0.0910924
0.0910905
0.0912778
0.0912797
0.0912845
0.0912932
0.091307
0.0913271
0.0913539
0.0913872
0.0914255
0.0914666
0.0915068
0.091542
0.0915694
0.0915878
0.0915964
0.0915942
0.091579
0.0915512
0.0915142
0.0914694
0.0914185
0.0913637
0.0913083
0.091256
0.0912099
0.0911721
0.0911428
0.0911217
0.0911074
0.0910986
0.0910938
0.0910918
0.0912816
0.0912836
0.0912884
0.0912975
0.0913119
0.091333
0.0913614
0.0913968
0.0914381
0.0914826
0.0915262
0.0915635
0.0915912
0.0916084
0.0916149
0.0916105
0.0915931
0.0915634
0.0915249
0.0914794
0.0914281
0.0913729
0.091317
0.0912638
0.0912165
0.0911773
0.091147
0.0911249
0.09111
0.0911008
0.0910957
0.0910937
0.0912872
0.0912892
0.0912942
0.0913035
0.0913186
0.091341
0.0913714
0.09141
0.0914557
0.0915056
0.0915545
0.0915953
0.0916238
0.0916394
0.0916429
0.0916347
0.0916134
0.0915801
0.0915389
0.0914915
0.0914392
0.0913834
0.0913268
0.0912726
0.091224
0.0911835
0.0911519
0.0911288
0.0911132
0.0911035
0.0910983
0.0910961
0.0912954
0.0912974
0.0913024
0.091312
0.0913278
0.0913516
0.0913847
0.0914275
0.0914793
0.0915368
0.0915931
0.0916392
0.0916692
0.0916828
0.0916821
0.0916685
0.0916413
0.0916022
0.0915561
0.0915053
0.0914508
0.0913938
0.0913361
0.091281
0.0912313
0.0911896
0.0911569
0.091133
0.0911168
0.0911067
0.0911013
0.0910991
0.0913075
0.0913094
0.0913144
0.0913242
0.0913407
0.0913662
0.0914025
0.0914507
0.0915103
0.0915773
0.0916431
0.0916959
0.0917283
0.0917399
0.091734
0.0917133
0.0916777
0.0916299
0.0915762
0.0915196
0.0914614
0.091402
0.0913431
0.091287
0.0912366
0.0911942
0.0911609
0.0911366
0.0911202
0.09111
0.0911045
0.0911023
0.0913257
0.0913275
0.0913325
0.0913424
0.0913597
0.0913871
0.0914272
0.0914818
0.0915506
0.0916287
0.0917052
0.0917657
0.0918011
0.0918107
0.091799
0.0917698
0.0917234
0.0916637
0.091599
0.0915338
0.0914695
0.0914064
0.0913454
0.0912885
0.091238
0.0911959
0.091163
0.0911391
0.091123
0.0911131
0.0911078
0.0911057
0.0913535
0.0913552
0.0913602
0.0913704
0.0913887
0.0914183
0.0914628
0.0915246
0.0916035
0.0916934
0.0917807
0.0918488
0.091887
0.0918945
0.0918772
0.091839
0.0917801
0.0917056
0.0916262
0.0915486
0.0914753
0.0914064
0.0913425
0.0912848
0.0912349
0.0911941
0.0911629
0.0911405
0.0911257
0.0911168
0.0911121
0.0911103
0.0913959
0.0913977
0.0914028
0.0914136
0.0914333
0.0914658
0.0915153
0.091585
0.0916741
0.0917749
0.0918717
0.0919458
0.0919859
0.0919919
0.0919703
0.0919249
0.0918541
0.0917633
0.091666
0.0915719
0.0914855
0.0914077
0.0913388
0.0912796
0.0912306
0.0911922
0.0911639
0.0911445
0.0911323
0.0911254
0.0911221
0.0911209
0.0914587
0.0914607
0.0914663
0.0914784
0.0915003
0.0915367
0.0915921
0.0916697
0.0917682
0.0918779
0.0919811
0.0920588
0.0921003
0.0921069
0.0920859
0.0920398
0.0919638
0.0918612
0.0917466
0.0916324
0.0915273
0.0914347
0.0913558
0.0912913
0.0912414
0.091205
0.0911805
0.0911655
0.0911577
0.0911545
0.0911538
0.0911539
0.0915464
0.0915487
0.0915554
0.0915693
0.0915945
0.0916358
0.091698
0.0917837
0.0918902
0.0920059
0.0921125
0.0921921
0.0922369
0.092251
0.0922421
0.0922108
0.0921483
0.0920519
0.0919329
0.0918045
0.0916785
0.0915634
0.0914639
0.0913838
0.0913248
0.0912851
0.0912618
0.091251
0.0912486
0.0912505
0.0912536
0.0912558
0.0916579
0.0916607
0.0916688
0.0916855
0.0917151
0.0917627
0.0918329
0.091927
0.0920405
0.0921602
0.0922686
0.0923521
0.0924079
0.0924435
0.0924667
0.0924773
0.0924634
0.0924127
0.0923274
0.0922166
0.0920911
0.0919616
0.0918376
0.0917281
0.0916416
0.0915796
0.0915417
0.091524
0.0915199
0.0915229
0.0915278
0.0915312
0.0917824
0.0917859
0.0917955
0.0918153
0.09185
0.0919046
0.0919831
0.0920852
0.0922045
0.0923281
0.0924418
0.0925376
0.092618
0.0926921
0.0927678
0.0928465
0.0929166
0.0929573
0.0929601
0.0929263
0.0928597
0.0927663
0.0926549
0.092536
0.0924213
0.09232
0.0922402
0.0921854
0.0921534
0.0921385
0.092134
0.0921339
0.0918979
0.0919016
0.0919118
0.0919326
0.0919687
0.0920253
0.0921058
0.0922101
0.0923326
0.0924631
0.0925903
0.0927083
0.0928197
0.0929328
0.0930552
0.0931908
0.0933314
0.0934577
0.0935592
0.0936325
0.0936737
0.0936803
0.0936521
0.0935926
0.093509
0.0934125
0.0933155
0.09323
0.0931641
0.0931208
0.0930976
0.093089
0.0919815
0.091985
0.0919947
0.0920141
0.0920478
0.0921006
0.0921761
0.0922754
0.0923947
0.0925259
0.092659
0.0927867
0.0929079
0.0930265
0.0931471
0.0932735
0.093404
0.0935352
0.0936676
0.0937988
0.0939205
0.0940239
0.0941012
0.0941473
0.0941609
0.0941448
0.0941063
0.0940561
0.094006
0.0939657
0.0939399
0.0939285
0.0920289
0.0920322
0.0920409
0.0920582
0.0920878
0.0921342
0.0922011
0.0922901
0.0923992
0.092522
0.0926491
0.0927714
0.0928833
0.0929833
0.093072
0.0931518
0.0932272
0.0933141
0.0934276
0.093568
0.0937245
0.0938826
0.094028
0.0941498
0.0942412
0.0943005
0.0943302
0.0943364
0.0943276
0.0943131
0.0943004
0.0942936
0.0920507
0.0920538
0.0920617
0.0920769
0.0921026
0.0921425
0.0922
0.0922772
0.0923732
0.0924832
0.0925987
0.0927098
0.0928084
0.0928894
0.0929507
0.0929941
0.093029
0.0930819
0.0931749
0.0933138
0.0934899
0.0936864
0.0938826
0.0940601
0.0942055
0.094313
0.0943833
0.0944222
0.094438
0.09444
0.0944365
0.0944333
0.0920574
0.0920603
0.0920674
0.0920808
0.092103
0.092137
0.092186
0.0922518
0.0923344
0.09243
0.0925318
0.0926303
0.0927168
0.0927847
0.0928309
0.0928574
0.092877
0.0929176
0.0929996
0.0931312
0.0933093
0.0935215
0.0937483
0.0939673
0.0941583
0.0943086
0.0944144
0.0944795
0.0945127
0.0945246
0.0945258
0.094524
0.0920576
0.09206
0.0920661
0.0920775
0.0920963
0.0921251
0.0921664
0.092222
0.092292
0.0923736
0.0924615
0.092548
0.0926249
0.0926862
0.0927291
0.0927567
0.0927822
0.0928292
0.0929122
0.0930392
0.0932108
0.0934207
0.0936552
0.0938939
0.094114
0.0942975
0.0944345
0.0945247
0.0945752
0.0945969
0.0946022
0.0946015
0.0920614
0.092063
0.0920672
0.0920756
0.0920903
0.0921135
0.0921476
0.0921939
0.0922527
0.0923221
0.0923981
0.092475
0.0925467
0.0926085
0.0926587
0.0927012
0.0927473
0.0928119
0.0929034
0.0930291
0.0931922
0.093391
0.0936172
0.0938559
0.0940869
0.0942902
0.0944507
0.0945627
0.0946297
0.0946615
0.0946713
0.0946716
0.0920819
0.0920818
0.0920826
0.0920862
0.092095
0.0921114
0.0921379
0.0921759
0.0922257
0.0922863
0.092355
0.092428
0.0925011
0.0925711
0.0926372
0.0927036
0.0927772
0.0928626
0.0929638
0.093088
0.0932405
0.0934233
0.0936325
0.0938578
0.0940838
0.0942926
0.0944669
0.0945957
0.0946775
0.0947194
0.094734
0.0947355
0.0921335
0.0921308
0.0921266
0.0921232
0.0921239
0.0921323
0.0921512
0.0921828
0.0922278
0.0922854
0.092354
0.0924308
0.0925127
0.0925973
0.0926841
0.0927765
0.0928761
0.0929789
0.0930861
0.0932057
0.0933444
0.0935069
0.0936932
0.093897
0.0941072
0.0943091
0.0944867
0.0946259
0.0947197
0.0947712
0.094791
0.0947939
0.0922297
0.0922234
0.0922128
0.0922013
0.0921938
0.0921949
0.0922088
0.0922384
0.0922846
0.0923466
0.0924225
0.0925097
0.092605
0.0927061
0.0928121
0.0929254
0.0930429
0.0931551
0.0932621
0.0933728
0.0934947
0.093634
0.0937931
0.0939698
0.0941566
0.0943427
0.0945139
0.0946559
0.0947578
0.0948174
0.0948424
0.094847
0.0923803
0.0923698
0.0923528
0.0923351
0.092323
0.092322
0.0923371
0.0923714
0.0924253
0.0924973
0.0925844
0.0926834
0.0927908
0.0929038
0.0930214
0.0931451
0.0932688
0.0933807
0.0934811
0.093579
0.0936821
0.0937969
0.0939272
0.0940733
0.0942316
0.0943947
0.0945516
0.0946886
0.0947932
0.0948588
0.0948887
0.0948952
0.092591
0.0925764
0.0925559
0.0925381
0.0925299
0.0925361
0.0925605
0.0926055
0.0926703
0.0927524
0.0928481
0.0929537
0.0930656
0.0931812
0.0932992
0.0934207
0.0935388
0.0936417
0.0937301
0.0938125
0.0938961
0.0939869
0.0940889
0.0942041
0.0943312
0.0944664
0.0946022
0.094727
0.0948283
0.0948963
0.09493
0.0949385
0.092865
0.0928478
0.0928303
0.0928229
0.0928297
0.0928519
0.092891
0.0929476
0.09302
0.0931057
0.0932014
0.0933037
0.0934095
0.0935166
0.0936238
0.0937321
0.093835
0.0939224
0.0939953
0.094061
0.0941257
0.0941942
0.0942703
0.0943563
0.0944525
0.0945575
0.0946673
0.0947736
0.0948652
0.0949312
0.0949668
0.094977
0.0932066
0.0931908
0.0931866
0.0932001
0.0932286
0.0932687
0.0933197
0.0933814
0.0934524
0.0935315
0.0936164
0.0937047
0.0937942
0.0938832
0.0939711
0.0940583
0.0941399
0.0942081
0.0942639
0.0943129
0.09436
0.0944088
0.0944622
0.0945223
0.0945902
0.0946657
0.0947472
0.0948302
0.0949062
0.094965
0.0949996
0.095011
0.0936244
0.0936181
0.0936368
0.0936727
0.093717
0.0937655
0.0938172
0.0938725
0.0939313
0.0939937
0.0940585
0.0941247
0.0941907
0.0942557
0.094319
0.0943812
0.0944388
0.0944863
0.0945248
0.094558
0.0945893
0.094621
0.0946554
0.0946938
0.0947373
0.0947861
0.0948402
0.0948975
0.0949531
0.0949995
0.0950294
0.0950406
0.0941355
0.0941476
0.0941835
0.094224
0.0942647
0.094304
0.0943421
0.0943797
0.0944176
0.0944564
0.0944959
0.0945357
0.094575
0.0946135
0.0946507
0.094687
0.0947203
0.0947477
0.0947697
0.0947885
0.0948059
0.0948234
0.0948421
0.0948628
0.0948862
0.0949126
0.0949422
0.0949744
0.0950072
0.0950365
0.0950573
0.0950661
0.0947611
0.0947707
0.0947892
0.0948069
0.0948233
0.0948384
0.0948523
0.0948655
0.0948785
0.0948914
0.0949045
0.0949176
0.0949304
0.0949429
0.094955
0.0949667
0.0949774
0.0949862
0.0949933
0.0949993
0.0950048
0.0950103
0.0950161
0.0950225
0.0950297
0.0950379
0.095047
0.095057
0.0950675
0.0950773
0.0950848
0.0950884
)
;

boundaryField
{
    movingWall
    {
        type            fixedValue;
        value           uniform 0.0951;
    }
    fixedWalls
    {
        type            zeroGradient;
    }
    floor
    {
        type            zeroGradient;
    }
    frontAndBack
    {
        type            empty;
    }
}


// ************************************************************************* //
