/*--------------------------------*- C++ -*----------------------------------*\
| =========                 |                                                 |
| \\      /  F ield         | OpenFOAM: The Open Source CFD Toolbox           |
|  \\    /   O peration     | Version:  2212                                  |
|   \\  /    A nd           | Website:  www.openfoam.com                      |
|    \\/     M anipulation  |                                                 |
\*---------------------------------------------------------------------------*/
FoamFile
{
    version     2.0;
    format      ascii;
    arch        "LSB;label=64;scalar=64";
    class       volScalarField;
    location    "1440";
    object      Xli;
}
// * * * * * * * * * * * * * * * * * * * * * * * * * * * * * * * * * * * * * //

dimensions      [1 -3 0 0 0 0 0];

internalField   nonuniform List<scalar> 
1024
(
0.0423312
0.042332
0.0423337
0.0423368
0.0423417
0.0423488
0.0423583
0.0423701
0.0423836
0.0423981
0.0424123
0.042425
0.0424353
0.0424424
0.0424459
0.0424451
0.0424391
0.0424281
0.0424136
0.0423959
0.0423758
0.0423542
0.0423325
0.0423123
0.0422947
0.0422803
0.0422694
0.0422615
0.0422561
0.0422528
0.042251
0.0422503
0.0423315
0.0423322
0.042334
0.0423371
0.0423421
0.0423493
0.0423589
0.0423708
0.0423845
0.042399
0.0424133
0.042426
0.0424363
0.0424434
0.0424468
0.0424459
0.0424399
0.0424289
0.0424144
0.0423967
0.0423766
0.042355
0.0423333
0.042313
0.0422952
0.0422808
0.0422697
0.0422617
0.0422563
0.042253
0.0422511
0.0422504
0.0423321
0.0423328
0.0423346
0.0423378
0.0423429
0.0423503
0.0423602
0.0423724
0.0423864
0.0424013
0.0424158
0.0424287
0.0424389
0.0424458
0.042449
0.042448
0.0424417
0.0424307
0.0424161
0.0423985
0.0423784
0.0423568
0.042335
0.0423145
0.0422965
0.0422817
0.0422704
0.0422622
0.0422567
0.0422533
0.0422514
0.0422507
0.042333
0.0423337
0.0423356
0.0423389
0.0423442
0.0423519
0.0423622
0.0423749
0.0423896
0.0424052
0.0424204
0.0424336
0.0424438
0.0424504
0.0424532
0.0424516
0.0424449
0.0424336
0.0424188
0.0424012
0.0423811
0.0423595
0.0423375
0.0423168
0.0422984
0.0422833
0.0422716
0.0422631
0.0422574
0.0422539
0.0422519
0.0422511
0.0423344
0.0423352
0.0423371
0.0423405
0.0423461
0.0423542
0.0423651
0.0423786
0.0423943
0.0424112
0.0424276
0.0424416
0.0424518
0.0424579
0.0424599
0.0424574
0.0424499
0.0424379
0.0424226
0.0424047
0.0423846
0.0423629
0.0423408
0.0423197
0.0423009
0.0422853
0.0422732
0.0422644
0.0422584
0.0422547
0.0422527
0.0422518
0.0423366
0.0423374
0.0423393
0.0423429
0.0423487
0.0423572
0.0423689
0.0423836
0.0424009
0.0424198
0.0424382
0.0424534
0.0424638
0.0424692
0.0424699
0.042466
0.042457
0.0424437
0.0424275
0.042409
0.0423886
0.0423668
0.0423445
0.042323
0.0423038
0.0422877
0.042275
0.0422658
0.0422596
0.0422557
0.0422536
0.0422528
0.0423398
0.0423405
0.0423424
0.0423461
0.0423522
0.0423613
0.0423739
0.0423902
0.0424098
0.0424315
0.0424526
0.0424696
0.0424805
0.042485
0.042484
0.0424779
0.0424666
0.0424511
0.0424333
0.0424136
0.0423926
0.0423704
0.0423478
0.0423261
0.0423065
0.0422899
0.0422769
0.0422674
0.0422609
0.0422569
0.0422547
0.0422538
0.0423444
0.0423451
0.0423471
0.0423508
0.0423571
0.0423668
0.0423806
0.0423989
0.0424214
0.0424466
0.0424711
0.0424905
0.0425021
0.0425056
0.0425024
0.0424935
0.042479
0.0424603
0.0424397
0.0424182
0.0423959
0.042373
0.04235
0.0423281
0.0423083
0.0422915
0.0422783
0.0422687
0.0422621
0.042258
0.0422558
0.0422549
0.0423514
0.0423521
0.042354
0.0423578
0.0423644
0.0423748
0.04239
0.0424106
0.0424365
0.0424658
0.0424941
0.0425161
0.0425285
0.0425309
0.0425252
0.0425129
0.0424943
0.0424712
0.0424468
0.0424222
0.0423978
0.0423737
0.0423503
0.0423282
0.0423084
0.0422918
0.0422788
0.0422694
0.042263
0.042259
0.0422569
0.042256
0.0423621
0.0423628
0.0423647
0.0423685
0.0423755
0.0423867
0.0424035
0.0424268
0.0424564
0.0424898
0.0425219
0.0425464
0.0425594
0.0425606
0.0425524
0.0425364
0.042513
0.0424845
0.0424548
0.0424259
0.0423984
0.0423725
0.0423481
0.0423259
0.0423065
0.0422906
0.0422783
0.0422695
0.0422636
0.04226
0.0422581
0.0422574
0.0423785
0.0423791
0.042381
0.0423851
0.0423926
0.0424048
0.0424235
0.0424496
0.0424828
0.04252
0.0425552
0.0425815
0.0425947
0.0425948
0.0425845
0.0425655
0.0425375
0.042503
0.0424668
0.0424321
0.0424001
0.042371
0.0423451
0.0423226
0.0423038
0.0422889
0.0422779
0.0422703
0.0422654
0.0422626
0.0422612
0.0422607
0.0424026
0.0424033
0.0424055
0.0424099
0.0424182
0.0424318
0.0424525
0.0424814
0.0425178
0.042558
0.0425951
0.0426221
0.0426351
0.0426349
0.0426244
0.0426046
0.0425745
0.0425355
0.042493
0.0424511
0.0424125
0.0423784
0.0423491
0.042325
0.0423062
0.0422923
0.0422828
0.0422769
0.0422737
0.0422723
0.0422719
0.0422719
0.0424362
0.0424371
0.0424396
0.0424447
0.0424541
0.0424694
0.0424925
0.0425241
0.0425631
0.0426049
0.0426427
0.0426697
0.0426833
0.0426853
0.0426788
0.0426642
0.0426387
0.0426017
0.0425574
0.0425102
0.0424641
0.0424221
0.0423857
0.0423562
0.0423344
0.0423196
0.0423108
0.0423066
0.0423055
0.042306
0.042307
0.0423077
0.0424789
0.0424799
0.0424829
0.042489
0.0424999
0.0425174
0.0425431
0.0425775
0.0426185
0.0426612
0.042699
0.0427268
0.042744
0.0427536
0.0427587
0.0427591
0.0427508
0.0427299
0.0426973
0.0426561
0.04261
0.0425629
0.0425178
0.0424782
0.0424468
0.0424243
0.0424105
0.0424039
0.0424023
0.0424033
0.0424051
0.0424063
0.0425264
0.0425276
0.0425311
0.0425383
0.0425509
0.0425708
0.0425992
0.0426361
0.0426788
0.0427224
0.0427617
0.0427939
0.0428201
0.0428438
0.0428679
0.0428929
0.0429145
0.0429257
0.0429238
0.0429095
0.042884
0.0428494
0.0428089
0.042766
0.0427249
0.0426887
0.0426602
0.0426407
0.0426293
0.042624
0.0426224
0.0426224
0.0425706
0.0425719
0.0425755
0.042583
0.042596
0.0426165
0.0426455
0.042683
0.0427268
0.0427729
0.0428173
0.0428579
0.0428957
0.042934
0.0429753
0.0430207
0.0430672
0.0431079
0.0431398
0.043162
0.0431734
0.0431732
0.0431615
0.0431395
0.0431094
0.0430753
0.0430412
0.0430112
0.0429882
0.0429731
0.0429651
0.0429621
0.0426032
0.0426044
0.0426078
0.0426147
0.0426268
0.0426459
0.0426732
0.0427089
0.0427518
0.0427986
0.0428458
0.0428906
0.0429328
0.0429739
0.0430154
0.0430582
0.0431011
0.0431429
0.0431841
0.0432245
0.0432617
0.0432931
0.0433163
0.0433297
0.0433329
0.0433266
0.0433132
0.0432961
0.0432792
0.0432657
0.043257
0.0432532
0.0426225
0.0426236
0.0426267
0.0426328
0.0426435
0.0426602
0.0426844
0.0427166
0.0427561
0.0428005
0.0428462
0.0428899
0.0429298
0.0429652
0.0429965
0.0430239
0.0430484
0.0430751
0.0431094
0.0431518
0.043199
0.0432467
0.0432907
0.0433275
0.0433554
0.0433736
0.0433828
0.0433849
0.0433823
0.0433779
0.0433741
0.043372
0.0426323
0.0426334
0.0426361
0.0426415
0.0426507
0.0426651
0.042686
0.0427141
0.0427491
0.0427893
0.0428313
0.0428718
0.0429077
0.0429372
0.0429595
0.042975
0.0429863
0.0430021
0.0430299
0.0430719
0.0431253
0.0431849
0.0432444
0.043298
0.0433419
0.0433745
0.043396
0.0434081
0.0434133
0.0434143
0.0434135
0.0434127
0.0426364
0.0426374
0.0426399
0.0426446
0.0426525
0.0426648
0.0426826
0.0427067
0.042737
0.0427723
0.0428098
0.0428462
0.0428783
0.0429036
0.0429211
0.0429311
0.0429375
0.0429495
0.0429741
0.0430141
0.0430684
0.0431331
0.0432021
0.0432685
0.0433262
0.0433716
0.0434036
0.0434234
0.0434337
0.0434376
0.0434383
0.0434379
0.0426378
0.0426386
0.0426407
0.0426448
0.0426515
0.0426619
0.042677
0.0426974
0.0427233
0.0427536
0.0427863
0.0428186
0.0428475
0.0428707
0.0428871
0.0428975
0.0429058
0.04292
0.0429452
0.0429841
0.0430367
0.043101
0.0431726
0.0432451
0.0433117
0.043367
0.0434083
0.0434356
0.0434509
0.0434577
0.0434596
0.0434595
0.0426399
0.0426404
0.0426419
0.042645
0.0426503
0.0426588
0.0426713
0.0426884
0.0427102
0.0427361
0.0427645
0.0427934
0.0428203
0.0428435
0.0428622
0.0428773
0.0428924
0.0429124
0.0429406
0.0429793
0.0430296
0.0430907
0.04316
0.0432326
0.0433026
0.0433639
0.0434122
0.0434459
0.0434661
0.0434758
0.043479
0.0434793
0.042647
0.042647
0.0426475
0.0426489
0.0426523
0.0426584
0.0426683
0.0426824
0.042701
0.0427235
0.042749
0.0427761
0.0428031
0.0428286
0.0428522
0.042875
0.0428989
0.0429258
0.0429573
0.0429959
0.0430431
0.0430994
0.0431636
0.0432324
0.0433009
0.0433639
0.0434163
0.0434549
0.0434795
0.0434921
0.0434967
0.0434973
0.0426639
0.0426631
0.0426619
0.0426611
0.0426618
0.0426653
0.0426726
0.0426843
0.0427009
0.042722
0.0427469
0.0427746
0.0428038
0.0428337
0.0428636
0.0428946
0.042927
0.0429596
0.0429933
0.0430306
0.0430737
0.0431239
0.0431812
0.0432435
0.0433073
0.0433682
0.0434216
0.0434633
0.0434913
0.0435068
0.0435128
0.0435139
0.0426948
0.0426928
0.0426896
0.0426862
0.0426843
0.0426853
0.0426908
0.0427017
0.0427182
0.0427401
0.0427668
0.0427972
0.0428303
0.0428649
0.0429007
0.0429382
0.0429763
0.0430121
0.0430459
0.0430806
0.0431186
0.0431617
0.0432107
0.0432647
0.0433215
0.0433777
0.0434292
0.0434717
0.043502
0.0435199
0.0435274
0.0435289
0.0427428
0.0427395
0.0427343
0.0427289
0.0427254
0.0427257
0.0427314
0.0427435
0.0427621
0.0427867
0.0428164
0.04285
0.0428863
0.0429243
0.0429635
0.0430041
0.0430442
0.04308
0.0431118
0.0431426
0.0431748
0.0432104
0.0432506
0.0432953
0.0433435
0.0433928
0.04344
0.0434809
0.0435121
0.0435316
0.0435405
0.0435426
0.0428097
0.0428052
0.0427988
0.0427933
0.0427911
0.0427936
0.042802
0.0428172
0.0428389
0.0428663
0.0428982
0.0429334
0.0429706
0.043009
0.0430479
0.0430877
0.0431259
0.0431589
0.0431869
0.0432129
0.0432391
0.0432674
0.0432989
0.0433342
0.0433729
0.0434138
0.0434546
0.0434919
0.043522
0.0435422
0.0435522
0.0435548
0.0428965
0.0428911
0.0428857
0.0428835
0.0428859
0.0428933
0.0429062
0.0429248
0.0429486
0.0429768
0.0430083
0.043042
0.0430768
0.043112
0.0431473
0.0431826
0.0432159
0.0432439
0.0432671
0.0432879
0.0433082
0.0433295
0.043353
0.0433794
0.0434088
0.0434406
0.0434736
0.0435054
0.0435326
0.0435521
0.0435626
0.0435657
0.0430044
0.0429995
0.0429982
0.0430026
0.0430118
0.0430247
0.0430412
0.0430612
0.0430843
0.04311
0.0431377
0.0431666
0.0431959
0.043225
0.0432538
0.0432822
0.0433086
0.0433305
0.0433483
0.0433638
0.0433786
0.0433938
0.0434103
0.0434288
0.0434495
0.0434724
0.043497
0.0435218
0.0435444
0.0435617
0.0435719
0.0435753
0.0431362
0.0431342
0.0431401
0.0431515
0.0431656
0.0431811
0.0431977
0.0432154
0.0432344
0.0432546
0.0432756
0.0432971
0.0433187
0.0433399
0.0433606
0.0433808
0.0433994
0.0434147
0.043427
0.0434375
0.0434474
0.0434573
0.043468
0.0434798
0.0434931
0.0435079
0.0435242
0.0435413
0.0435579
0.0435716
0.0435803
0.0435836
0.043297
0.0433009
0.0433122
0.043325
0.0433378
0.0433503
0.0433625
0.0433745
0.0433867
0.0433992
0.043412
0.0434249
0.0434377
0.0434502
0.0434624
0.0434742
0.043485
0.0434938
0.0435008
0.0435068
0.0435123
0.0435178
0.0435236
0.0435299
0.0435371
0.0435451
0.043554
0.0435637
0.0435734
0.0435821
0.0435881
0.0435907
0.0434936
0.0434967
0.0435025
0.0435081
0.0435132
0.043518
0.0435225
0.0435267
0.0435308
0.043535
0.0435392
0.0435435
0.0435476
0.0435517
0.0435557
0.0435595
0.0435629
0.0435658
0.043568
0.0435699
0.0435717
0.0435734
0.0435752
0.0435772
0.0435794
0.0435819
0.0435846
0.0435876
0.0435907
0.0435936
0.0435958
0.0435969
)
;

boundaryField
{
    movingWall
    {
        type            fixedValue;
        value           uniform 0.0436;
    }
    fixedWalls
    {
        type            zeroGradient;
    }
    floor
    {
        type            zeroGradient;
    }
    frontAndBack
    {
        type            empty;
    }
}


// ************************************************************************* //
