/*--------------------------------*- C++ -*----------------------------------*\
| =========                 |                                                 |
| \\      /  F ield         | OpenFOAM: The Open Source CFD Toolbox           |
|  \\    /   O peration     | Version:  2212                                  |
|   \\  /    A nd           | Website:  www.openfoam.com                      |
|    \\/     M anipulation  |                                                 |
\*---------------------------------------------------------------------------*/
FoamFile
{
    version     2.0;
    format      ascii;
    arch        "LSB;label=64;scalar=64";
    class       volScalarField;
    location    "1750";
    object      Gch4;
}
// * * * * * * * * * * * * * * * * * * * * * * * * * * * * * * * * * * * * * //

dimensions      [1 -3 0 0 0 0 0];

internalField   nonuniform List<scalar> 
1024
(
1.89694
1.89677
1.89635
1.89558
1.89434
1.89248
1.88986
1.88636
1.88193
1.87661
1.87058
1.86413
1.8576
1.8514
1.84586
1.84133
1.83853
1.83791
1.83917
1.84191
1.84572
1.85025
1.85512
1.85989
1.86421
1.86782
1.87063
1.87267
1.87405
1.87492
1.87539
1.87558
1.89689
1.89671
1.89629
1.89551
1.89426
1.89238
1.88973
1.8862
1.88174
1.8764
1.87035
1.86387
1.85735
1.85114
1.84561
1.84108
1.83827
1.83763
1.8389
1.84163
1.84545
1.84999
1.85488
1.85968
1.86403
1.86767
1.87052
1.87258
1.87398
1.87486
1.87533
1.87553
1.89675
1.89658
1.89615
1.89535
1.89407
1.89215
1.88944
1.88585
1.88132
1.87591
1.86981
1.8633
1.85677
1.85056
1.84502
1.84047
1.83763
1.83697
1.83822
1.84099
1.84485
1.84945
1.85438
1.85924
1.86366
1.86737
1.87028
1.87239
1.87383
1.87472
1.8752
1.8754
1.89652
1.89633
1.89589
1.89507
1.89374
1.89175
1.88896
1.88525
1.88061
1.87509
1.8689
1.86234
1.85578
1.84955
1.84399
1.8394
1.83648
1.83574
1.83701
1.83986
1.84386
1.84858
1.85363
1.85859
1.86311
1.86692
1.86991
1.87209
1.87356
1.87448
1.87497
1.87517
1.89614
1.89595
1.89548
1.89463
1.89323
1.89115
1.88823
1.88437
1.87955
1.87388
1.86756
1.86091
1.8543
1.84803
1.84241
1.8377
1.83463
1.83378
1.83507
1.83811
1.84238
1.84737
1.85262
1.85775
1.86241
1.86634
1.86941
1.87166
1.87317
1.8741
1.87461
1.87481
1.89559
1.89539
1.8949
1.894
1.89252
1.89032
1.88723
1.88316
1.87812
1.87223
1.86573
1.85895
1.85224
1.84589
1.84013
1.83522
1.83188
1.83085
1.8322
1.83556
1.84028
1.84573
1.85135
1.85675
1.86158
1.86564
1.86879
1.87108
1.87262
1.87356
1.87406
1.87426
1.89484
1.89463
1.89412
1.89315
1.89158
1.88922
1.88592
1.8816
1.87627
1.8701
1.86336
1.85639
1.84952
1.84301
1.83702
1.83178
1.82804
1.82675
1.82819
1.83199
1.83738
1.84353
1.84972
1.85551
1.8606
1.86479
1.86801
1.87031
1.87184
1.87276
1.87323
1.87342
1.89386
1.89364
1.8931
1.89207
1.89038
1.88785
1.8843
1.87967
1.874
1.86748
1.86042
1.85318
1.84607
1.83929
1.83296
1.82723
1.82295
1.82133
1.82283
1.82714
1.83337
1.84045
1.84747
1.85385
1.85927
1.86362
1.86689
1.86917
1.87064
1.8715
1.87193
1.87209
1.89263
1.8924
1.89183
1.89073
1.88892
1.88619
1.88237
1.87738
1.8713
1.86436
1.8569
1.8493
1.84184
1.83468
1.82788
1.82154
1.81658
1.81448
1.81591
1.82061
1.82768
1.83586
1.84394
1.85115
1.85708
1.86166
1.86498
1.86721
1.86859
1.86935
1.86971
1.86982
1.89114
1.8909
1.8903
1.88913
1.8872
1.88426
1.88014
1.87476
1.86822
1.86078
1.85283
1.84477
1.83688
1.82925
1.82188
1.81485
1.80909
1.80627
1.80725
1.81189
1.81942
1.82853
1.83779
1.84608
1.85278
1.85779
1.86126
1.86348
1.86477
1.86541
1.86567
1.86573
1.88938
1.88914
1.88851
1.88728
1.88522
1.88207
1.87764
1.87185
1.8648
1.85681
1.84832
1.83974
1.83137
1.82325
1.81534
1.80763
1.80098
1.79705
1.79684
1.80048
1.80751
1.81679
1.82684
1.83622
1.844
1.84978
1.85369
1.8561
1.8574
1.85799
1.85818
1.8582
1.88739
1.88714
1.88648
1.8852
1.88302
1.87968
1.87495
1.86876
1.86121
1.85267
1.84362
1.83456
1.82577
1.81731
1.80904
1.80083
1.79329
1.78779
1.78543
1.78668
1.79154
1.79934
1.80883
1.81857
1.82729
1.83418
1.83902
1.84206
1.84373
1.8445
1.84476
1.84479
1.88518
1.88493
1.88426
1.88293
1.88067
1.87718
1.87222
1.86568
1.85772
1.84872
1.83924
1.82985
1.8209
1.81243
1.80427
1.79604
1.78788
1.78061
1.7753
1.77278
1.77358
1.77765
1.78432
1.79247
1.80085
1.80837
1.8143
1.81843
1.82097
1.82231
1.82289
1.82305
1.88287
1.88262
1.88194
1.8806
1.87831
1.87476
1.86968
1.86298
1.85479
1.84556
1.83593
1.82655
1.81787
1.80999
1.80268
1.79533
1.78736
1.77876
1.77049
1.76368
1.75933
1.75798
1.75958
1.76365
1.76931
1.77555
1.78139
1.78614
1.78951
1.79158
1.79263
1.79302
1.88063
1.88038
1.87971
1.87841
1.87617
1.8727
1.86771
1.86111
1.85304
1.84396
1.83458
1.82568
1.81784
1.81129
1.80579
1.80049
1.79403
1.78529
1.77498
1.7645
1.7553
1.74836
1.74417
1.74273
1.74367
1.74634
1.7499
1.75353
1.75659
1.75875
1.76001
1.76053
1.87873
1.87849
1.87786
1.87664
1.87458
1.87137
1.86676
1.86063
1.85312
1.84466
1.83601
1.82805
1.82152
1.81685
1.81387
1.81164
1.80802
1.80061
1.78957
1.77649
1.76328
1.75146
1.74201
1.73531
1.73132
1.72967
1.72977
1.73092
1.73243
1.73379
1.73471
1.73514
1.87764
1.87741
1.87683
1.87574
1.87392
1.87112
1.86711
1.86176
1.85517
1.84772
1.84013
1.83329
1.8281
1.82516
1.8245
1.82528
1.82497
1.82004
1.80977
1.79544
1.77912
1.76298
1.74871
1.73727
1.72899
1.72366
1.72078
1.71967
1.71963
1.72005
1.72051
1.72077
1.87751
1.8773
1.87677
1.87579
1.87421
1.87181
1.86841
1.86389
1.85829
1.85192
1.8454
1.83957
1.83533
1.83339
1.83395
1.83637
1.83818
1.83554
1.82707
1.81323
1.79559
1.77641
1.75803
1.74219
1.72983
1.72112
1.71567
1.71276
1.71158
1.71137
1.71153
1.7117
1.8781
1.87789
1.8774
1.87652
1.87512
1.87306
1.87018
1.86637
1.86165
1.85628
1.85073
1.84573
1.84211
1.84056
1.84139
1.84409
1.84638
1.84472
1.83762
1.82497
1.80766
1.78746
1.76669
1.7476
1.73178
1.71992
1.71196
1.70728
1.70501
1.70423
1.70417
1.70429
1.8791
1.87891
1.87845
1.87765
1.87641
1.87461
1.87215
1.86893
1.86497
1.86046
1.85578
1.85151
1.84833
1.84685
1.84732
1.84931
1.8508
1.84885
1.84219
1.83051
1.81418
1.79436
1.77291
1.75207
1.73382
1.71939
1.70915
1.70273
1.69932
1.69793
1.69762
1.69769
1.88012
1.87996
1.87957
1.87888
1.87781
1.87626
1.87414
1.87142
1.8681
1.86433
1.86041
1.85675
1.85386
1.85217
1.85182
1.85233
1.85205
1.84887
1.84191
1.83077
1.8155
1.79679
1.77593
1.75477
1.73528
1.71905
1.70692
1.69888
1.69433
1.69228
1.6917
1.6917
1.88051
1.88042
1.88017
1.87969
1.87888
1.87765
1.87592
1.87365
1.87088
1.86772
1.86436
1.86109
1.8582
1.8559
1.8542
1.8526
1.84992
1.84502
1.8374
1.82661
1.81245
1.79517
1.77566
1.75529
1.73571
1.71857
1.70507
1.69564
1.68997
1.68722
1.68633
1.68626
1.87935
1.87939
1.87941
1.87931
1.87896
1.87821
1.87696
1.87517
1.87285
1.87009
1.86698
1.86365
1.86022
1.85677
1.85319
1.84907
1.8438
1.83714
1.82887
1.81849
1.80558
1.79004
1.77234
1.75348
1.73476
1.71762
1.70337
1.69285
1.68616
1.68271
1.68147
1.68132
1.8756
1.87585
1.87627
1.87674
1.87705
1.87696
1.87631
1.87497
1.87292
1.87019
1.86679
1.86278
1.8582
1.85307
1.84734
1.84072
1.83317
1.82513
1.81653
1.80678
1.7953
1.78175
1.76626
1.74941
1.73221
1.71584
1.70153
1.69036
1.68283
1.6787
1.67708
1.67682
1.86833
1.86884
1.86977
1.8709
1.87192
1.8725
1.87235
1.87125
1.8691
1.86589
1.86164
1.85641
1.85028
1.84335
1.83567
1.82709
1.818
1.80925
1.80079
1.79192
1.78202
1.77062
1.75755
1.74311
1.72794
1.71295
1.69926
1.68796
1.67987
1.67513
1.67313
1.67274
1.85687
1.8577
1.85911
1.86075
1.8622
1.86306
1.86298
1.86164
1.85892
1.85482
1.84942
1.84287
1.83534
1.82705
1.81812
1.80852
1.79887
1.79016
1.78229
1.77456
1.76631
1.75704
1.74646
1.73461
1.72183
1.70875
1.69625
1.68538
1.67712
1.67195
1.66958
1.66906
1.84091
1.84204
1.8437
1.84533
1.8465
1.84689
1.8462
1.84412
1.84054
1.83551
1.82919
1.82179
1.81357
1.80478
1.7956
1.78605
1.7768
1.76879
1.76191
1.75546
1.74884
1.74159
1.73338
1.72411
1.71389
1.70307
1.69228
1.68239
1.67442
1.66908
1.66642
1.66575
1.82027
1.82157
1.82297
1.82377
1.82376
1.82289
1.82106
1.81804
1.81376
1.80828
1.80174
1.79437
1.78642
1.77814
1.7697
1.76113
1.75305
1.74624
1.74058
1.73546
1.73039
1.72496
1.71889
1.712
1.7043
1.69591
1.68719
1.67878
1.67158
1.66641
1.66362
1.6628
1.79468
1.79585
1.7962
1.79536
1.79361
1.79124
1.78832
1.78472
1.78035
1.77518
1.7693
1.76287
1.75609
1.74915
1.74221
1.73529
1.72886
1.72355
1.71922
1.71542
1.71174
1.7079
1.70366
1.69887
1.69345
1.68743
1.68096
1.6744
1.66842
1.66382
1.66111
1.66022
1.76348
1.76393
1.76254
1.75994
1.75686
1.75367
1.75042
1.74701
1.7433
1.73919
1.73469
1.72987
1.72486
1.7198
1.71479
1.70985
1.70531
1.7016
1.69862
1.69605
1.69361
1.69112
1.68841
1.68535
1.68189
1.678
1.67371
1.66918
1.6648
1.66117
1.65885
1.65797
1.72537
1.72445
1.72176
1.71877
1.71585
1.71313
1.71063
1.70824
1.70581
1.70325
1.70052
1.69763
1.69465
1.69167
1.68872
1.68584
1.68321
1.68107
1.67937
1.67791
1.67656
1.67519
1.67372
1.67207
1.67021
1.66811
1.66576
1.66322
1.66064
1.65834
1.65673
1.65604
1.67875
1.67803
1.67664
1.67532
1.67413
1.67307
1.67214
1.67128
1.67045
1.66959
1.66869
1.66775
1.66678
1.66581
1.66486
1.66393
1.66308
1.66239
1.66185
1.66138
1.66095
1.66052
1.66007
1.65956
1.65898
1.65834
1.65761
1.65682
1.65599
1.65523
1.65464
1.65436
)
;

boundaryField
{
    movingWall
    {
        type            fixedValue;
        value           uniform 1.6535;
    }
    fixedWalls
    {
        type            zeroGradient;
    }
    floor
    {
        type            zeroGradient;
    }
    frontAndBack
    {
        type            empty;
    }
}


// ************************************************************************* //
