/*--------------------------------*- C++ -*----------------------------------*\
| =========                 |                                                 |
| \\      /  F ield         | OpenFOAM: The Open Source CFD Toolbox           |
|  \\    /   O peration     | Version:  2212                                  |
|   \\  /    A nd           | Website:  www.openfoam.com                      |
|    \\/     M anipulation  |                                                 |
\*---------------------------------------------------------------------------*/
FoamFile
{
    version     2.0;
    format      ascii;
    arch        "LSB;label=64;scalar=64";
    class       volScalarField;
    location    "1750";
    object      Saa;
}
// * * * * * * * * * * * * * * * * * * * * * * * * * * * * * * * * * * * * * //

dimensions      [1 -3 0 0 0 0 0];

internalField   nonuniform List<scalar> 
1024
(
0.00547388
0.00547392
0.005474
0.00547414
0.00547438
0.00547474
0.00547523
0.00547589
0.00547672
0.00547769
0.00547877
0.00547988
0.00548095
0.0054819
0.00548267
0.00548321
0.00548345
0.00548338
0.00548306
0.00548254
0.00548188
0.00548112
0.00548031
0.00547951
0.00547878
0.00547816
0.00547768
0.00547733
0.00547709
0.00547694
0.00547686
0.00547683
0.00547389
0.00547393
0.00547401
0.00547416
0.0054744
0.00547476
0.00547526
0.00547592
0.00547675
0.00547773
0.00547881
0.00547992
0.00548099
0.00548194
0.00548271
0.00548325
0.00548349
0.00548341
0.00548309
0.00548258
0.00548192
0.00548116
0.00548034
0.00547954
0.0054788
0.00547818
0.0054777
0.00547734
0.0054771
0.00547695
0.00547687
0.00547684
0.00547392
0.00547395
0.00547403
0.00547419
0.00547443
0.0054748
0.00547531
0.00547599
0.00547683
0.00547781
0.0054789
0.00548002
0.00548108
0.00548203
0.00548279
0.00548333
0.00548357
0.0054835
0.00548317
0.00548266
0.005482
0.00548123
0.00548041
0.0054796
0.00547886
0.00547823
0.00547773
0.00547737
0.00547713
0.00547697
0.00547689
0.00547685
0.00547396
0.005474
0.00547408
0.00547424
0.00547449
0.00547487
0.0054754
0.00547609
0.00547695
0.00547796
0.00547905
0.00548017
0.00548124
0.00548217
0.00548293
0.00548347
0.00548372
0.00548365
0.00548333
0.0054828
0.00548212
0.00548134
0.00548052
0.00547969
0.00547894
0.0054783
0.00547779
0.00547742
0.00547716
0.00547701
0.00547692
0.00547689
0.00547404
0.00547407
0.00547416
0.00547432
0.00547459
0.00547498
0.00547553
0.00547625
0.00547714
0.00547817
0.00547928
0.00548041
0.00548147
0.0054824
0.00548315
0.00548369
0.00548396
0.0054839
0.00548357
0.00548301
0.0054823
0.00548149
0.00548064
0.0054798
0.00547903
0.00547838
0.00547786
0.00547748
0.00547722
0.00547706
0.00547697
0.00547694
0.00547414
0.00547418
0.00547427
0.00547444
0.00547472
0.00547514
0.00547572
0.00547647
0.0054774
0.00547845
0.00547959
0.00548072
0.00548178
0.00548271
0.00548347
0.00548403
0.00548431
0.00548427
0.00548392
0.00548332
0.00548255
0.00548168
0.00548079
0.00547993
0.00547914
0.00547847
0.00547794
0.00547756
0.0054773
0.00547714
0.00547705
0.00547702
0.00547428
0.00547432
0.00547442
0.0054746
0.0054749
0.00547534
0.00547596
0.00547675
0.00547772
0.00547882
0.00547998
0.00548113
0.0054822
0.00548313
0.0054839
0.00548449
0.00548481
0.00548479
0.00548442
0.00548375
0.00548289
0.00548194
0.00548097
0.00548006
0.00547925
0.00547857
0.00547804
0.00547766
0.0054774
0.00547725
0.00547716
0.00547713
0.00547447
0.00547451
0.00547461
0.00547481
0.00547512
0.00547559
0.00547625
0.0054771
0.00547812
0.00547927
0.00548047
0.00548164
0.00548272
0.00548367
0.00548446
0.0054851
0.00548547
0.00548548
0.00548508
0.00548434
0.00548336
0.00548229
0.00548122
0.00548025
0.0054794
0.00547871
0.00547818
0.00547781
0.00547756
0.00547742
0.00547734
0.00547732
0.0054747
0.00547475
0.00547485
0.00547506
0.00547539
0.0054759
0.0054766
0.0054775
0.00547859
0.00547979
0.00548104
0.00548225
0.00548336
0.00548434
0.00548517
0.00548586
0.00548631
0.00548635
0.00548595
0.00548515
0.00548406
0.00548284
0.00548164
0.00548056
0.00547966
0.00547894
0.00547842
0.00547806
0.00547784
0.00547771
0.00547765
0.00547763
0.00547499
0.00547503
0.00547514
0.00547536
0.00547571
0.00547625
0.005477
0.00547797
0.00547912
0.0054804
0.00548171
0.00548296
0.00548411
0.00548512
0.00548601
0.00548676
0.00548729
0.00548741
0.00548706
0.00548626
0.0054851
0.00548376
0.00548241
0.0054812
0.0054802
0.00547945
0.00547892
0.00547857
0.00547837
0.00547826
0.00547822
0.00547821
0.00547532
0.00547536
0.00547548
0.0054757
0.00547608
0.00547665
0.00547745
0.00547848
0.00547971
0.00548106
0.00548244
0.00548375
0.00548494
0.00548599
0.00548692
0.00548774
0.00548836
0.00548861
0.0054884
0.00548773
0.00548664
0.00548529
0.00548385
0.0054825
0.00548138
0.00548054
0.00547996
0.0054796
0.00547941
0.00547931
0.00547928
0.00547928
0.0054757
0.00547574
0.00547586
0.00547609
0.00547649
0.00547709
0.00547793
0.00547902
0.00548032
0.00548175
0.0054832
0.00548457
0.00548579
0.00548687
0.00548782
0.00548868
0.00548939
0.00548982
0.00548988
0.00548951
0.00548872
0.00548758
0.00548624
0.00548488
0.00548366
0.00548269
0.00548201
0.00548158
0.00548134
0.00548123
0.00548119
0.00548118
0.00547611
0.00547616
0.00547628
0.00547652
0.00547692
0.00547754
0.00547842
0.00547956
0.00548093
0.00548242
0.00548393
0.00548533
0.00548656
0.00548761
0.00548853
0.00548937
0.00549013
0.00549076
0.00549117
0.00549128
0.00549102
0.00549038
0.00548945
0.00548834
0.00548721
0.0054862
0.0054854
0.00548484
0.0054845
0.00548432
0.00548424
0.00548422
0.00547656
0.0054766
0.00547672
0.00547696
0.00547736
0.00547799
0.00547889
0.00548005
0.00548145
0.00548298
0.0054845
0.0054859
0.00548709
0.00548806
0.00548885
0.00548955
0.00549026
0.00549102
0.00549176
0.00549237
0.00549273
0.00549277
0.00549251
0.00549197
0.00549125
0.00549046
0.00548973
0.00548913
0.00548871
0.00548845
0.00548832
0.00548827
0.00547699
0.00547704
0.00547715
0.00547738
0.00547778
0.00547839
0.00547927
0.00548042
0.0054818
0.00548331
0.00548481
0.00548616
0.00548724
0.00548804
0.00548859
0.00548902
0.00548951
0.00549025
0.00549118
0.00549217
0.00549305
0.00549372
0.00549412
0.00549426
0.00549416
0.00549387
0.00549349
0.00549309
0.00549276
0.00549252
0.00549238
0.00549233
0.00547738
0.00547743
0.00547753
0.00547775
0.00547811
0.00547868
0.00547949
0.00548057
0.00548187
0.0054833
0.00548472
0.00548597
0.00548692
0.0054875
0.00548775
0.0054878
0.00548793
0.00548848
0.00548946
0.00549068
0.00549194
0.00549308
0.00549401
0.00549468
0.00549511
0.00549533
0.00549538
0.00549532
0.00549521
0.00549511
0.00549504
0.005495
0.00547765
0.00547769
0.00547779
0.00547798
0.0054783
0.00547879
0.00547951
0.00548046
0.00548163
0.00548293
0.00548423
0.00548537
0.00548619
0.0054866
0.0054866
0.00548631
0.00548607
0.00548633
0.00548721
0.00548855
0.00549011
0.00549165
0.00549301
0.00549411
0.00549492
0.00549547
0.0054958
0.00549598
0.00549605
0.00549606
0.00549606
0.00549605
0.00547774
0.00547778
0.00547787
0.00547804
0.00547832
0.00547875
0.00547936
0.00548018
0.00548119
0.00548234
0.00548351
0.00548455
0.0054853
0.00548564
0.00548555
0.0054851
0.00548463
0.00548464
0.00548532
0.00548661
0.00548831
0.00549016
0.00549192
0.00549342
0.00549458
0.00549541
0.00549595
0.00549627
0.00549644
0.00549651
0.00549653
0.00549653
0.00547771
0.00547774
0.00547783
0.00547798
0.00547823
0.0054786
0.00547912
0.00547982
0.0054807
0.0054817
0.00548274
0.00548368
0.00548438
0.00548472
0.00548464
0.00548421
0.0054837
0.00548361
0.00548415
0.00548531
0.00548698
0.00548894
0.00549094
0.00549274
0.00549422
0.00549532
0.00549607
0.00549653
0.00549678
0.00549689
0.00549694
0.00549694
0.00547758
0.00547762
0.0054777
0.00547784
0.00547806
0.00547838
0.00547884
0.00547944
0.00548018
0.00548105
0.00548195
0.0054828
0.00548345
0.00548381
0.00548381
0.0054835
0.00548311
0.00548307
0.00548357
0.00548465
0.00548623
0.00548816
0.00549023
0.0054922
0.0054939
0.00549522
0.00549616
0.00549676
0.0054971
0.00549726
0.00549732
0.00549733
0.00547743
0.00547746
0.00547753
0.00547765
0.00547785
0.00547814
0.00547853
0.00547905
0.00547968
0.00548042
0.0054812
0.00548194
0.00548255
0.00548294
0.00548306
0.00548295
0.0054828
0.00548293
0.00548348
0.00548451
0.00548599
0.00548783
0.00548985
0.00549186
0.00549367
0.00549514
0.00549623
0.00549696
0.00549738
0.00549759
0.00549767
0.00549769
0.00547732
0.00547735
0.0054774
0.0054775
0.00547766
0.00547791
0.00547824
0.00547868
0.00547922
0.00547984
0.00548051
0.00548117
0.00548175
0.0054822
0.00548248
0.00548263
0.00548279
0.00548314
0.0054838
0.00548481
0.0054862
0.0054879
0.00548979
0.00549173
0.00549354
0.00549509
0.0054963
0.00549713
0.00549764
0.0054979
0.005498
0.00549803
0.00547738
0.00547739
0.00547742
0.00547747
0.00547758
0.00547776
0.00547803
0.00547839
0.00547885
0.00547938
0.00547998
0.00548059
0.00548119
0.00548175
0.00548223
0.00548268
0.00548316
0.00548375
0.00548451
0.00548551
0.00548678
0.00548831
0.00549003
0.00549182
0.00549356
0.00549511
0.00549636
0.00549728
0.00549786
0.00549818
0.00549831
0.00549834
0.00547772
0.00547771
0.00547769
0.00547768
0.00547771
0.00547781
0.005478
0.00547829
0.00547869
0.00547918
0.00547975
0.00548039
0.00548108
0.00548178
0.00548249
0.00548323
0.00548399
0.00548477
0.00548559
0.00548654
0.00548768
0.00548902
0.00549052
0.00549213
0.00549372
0.0054952
0.00549646
0.00549742
0.00549807
0.00549843
0.00549858
0.00549862
0.00547844
0.00547839
0.00547832
0.00547824
0.00547819
0.00547821
0.00547833
0.00547857
0.00547894
0.00547944
0.00548006
0.00548079
0.0054816
0.00548247
0.00548338
0.00548433
0.00548528
0.00548616
0.005487
0.00548788
0.00548886
0.00548999
0.00549126
0.00549263
0.00549404
0.00549539
0.00549659
0.00549756
0.00549825
0.00549865
0.00549883
0.00549887
0.0054796
0.00547952
0.00547939
0.00547926
0.00547915
0.00547913
0.00547922
0.00547947
0.00547987
0.00548043
0.00548113
0.00548195
0.00548287
0.00548386
0.00548488
0.00548595
0.00548697
0.00548787
0.00548866
0.00548944
0.00549026
0.00549118
0.00549221
0.00549334
0.00549452
0.0054957
0.0054968
0.00549773
0.00549842
0.00549885
0.00549905
0.0054991
0.00548123
0.00548112
0.00548096
0.00548082
0.00548074
0.00548075
0.00548089
0.00548118
0.00548165
0.00548227
0.00548303
0.0054839
0.00548486
0.00548588
0.00548691
0.00548797
0.00548896
0.00548979
0.0054905
0.00549115
0.00549181
0.00549253
0.00549333
0.00549421
0.00549516
0.00549614
0.00549709
0.00549793
0.00549859
0.00549903
0.00549925
0.00549931
0.00548333
0.0054832
0.00548307
0.005483
0.00548303
0.00548316
0.0054834
0.00548377
0.00548428
0.00548492
0.00548567
0.00548651
0.00548742
0.00548835
0.0054893
0.00549024
0.00549111
0.00549182
0.00549241
0.00549293
0.00549344
0.00549398
0.00549457
0.00549523
0.00549594
0.0054967
0.00549747
0.00549818
0.00549878
0.00549919
0.00549942
0.00549949
0.00548592
0.0054858
0.00548577
0.00548587
0.00548607
0.00548634
0.00548667
0.00548708
0.00548757
0.00548816
0.00548882
0.00548954
0.0054903
0.00549107
0.00549184
0.0054926
0.00549329
0.00549386
0.00549431
0.0054947
0.00549507
0.00549545
0.00549586
0.00549632
0.00549683
0.00549737
0.00549794
0.0054985
0.00549899
0.00549936
0.00549957
0.00549964
0.00548906
0.00548901
0.00548916
0.00548943
0.00548975
0.00549009
0.00549044
0.00549082
0.00549122
0.00549168
0.00549218
0.00549271
0.00549327
0.00549383
0.00549438
0.00549492
0.00549541
0.00549581
0.00549612
0.00549638
0.00549663
0.00549688
0.00549715
0.00549744
0.00549776
0.00549812
0.00549849
0.00549888
0.00549924
0.00549953
0.0054997
0.00549977
0.00549287
0.00549296
0.00549323
0.00549354
0.00549384
0.00549412
0.00549438
0.00549464
0.0054949
0.00549518
0.00549548
0.0054958
0.00549613
0.00549646
0.00549679
0.0054971
0.00549739
0.00549762
0.00549779
0.00549794
0.00549808
0.00549822
0.00549836
0.00549852
0.0054987
0.00549889
0.0054991
0.00549931
0.00549953
0.00549971
0.00549983
0.00549988
0.0054975
0.00549758
0.00549771
0.00549785
0.00549797
0.00549808
0.00549818
0.00549827
0.00549836
0.00549845
0.00549855
0.00549865
0.00549876
0.00549887
0.00549897
0.00549907
0.00549917
0.00549924
0.0054993
0.00549934
0.00549939
0.00549943
0.00549948
0.00549953
0.00549958
0.00549964
0.0054997
0.00549977
0.00549984
0.0054999
0.00549994
0.00549996
)
;

boundaryField
{
    movingWall
    {
        type            fixedValue;
        value           uniform 0.0055;
    }
    fixedWalls
    {
        type            zeroGradient;
    }
    floor
    {
        type            zeroGradient;
    }
    frontAndBack
    {
        type            empty;
    }
}


// ************************************************************************* //
