/*--------------------------------*- C++ -*----------------------------------*\
| =========                 |                                                 |
| \\      /  F ield         | OpenFOAM: The Open Source CFD Toolbox           |
|  \\    /   O peration     | Version:  2212                                  |
|   \\  /    A nd           | Website:  www.openfoam.com                      |
|    \\/     M anipulation  |                                                 |
\*---------------------------------------------------------------------------*/
FoamFile
{
    version     2.0;
    format      ascii;
    arch        "LSB;label=64;scalar=64";
    class       volScalarField;
    location    "1750";
    object      Xli;
}
// * * * * * * * * * * * * * * * * * * * * * * * * * * * * * * * * * * * * * //

dimensions      [1 -3 0 0 0 0 0];

internalField   nonuniform List<scalar> 
1024
(
0.0425129
0.0425137
0.0425159
0.0425198
0.0425262
0.0425357
0.042549
0.0425668
0.0425893
0.0426161
0.0426464
0.0426785
0.0427105
0.0427404
0.0427665
0.0427872
0.0427993
0.042801
0.0427939
0.04278
0.0427611
0.0427387
0.0427148
0.0426912
0.0426699
0.042652
0.0426381
0.042628
0.0426211
0.0426168
0.0426145
0.0426135
0.0425131
0.042514
0.0425162
0.0425202
0.0425266
0.0425362
0.0425497
0.0425676
0.0425902
0.0426172
0.0426476
0.0426797
0.0427117
0.0427416
0.0427677
0.0427884
0.0428005
0.0428022
0.0427952
0.0427813
0.0427623
0.0427399
0.0427159
0.0426922
0.0426708
0.0426527
0.0426386
0.0426284
0.0426214
0.0426171
0.0426147
0.0426138
0.0425138
0.0425147
0.0425169
0.042521
0.0425276
0.0425374
0.0425511
0.0425694
0.0425924
0.0426196
0.0426502
0.0426825
0.0427145
0.0427444
0.0427704
0.0427912
0.0428034
0.0428053
0.0427983
0.0427842
0.0427651
0.0427425
0.0427183
0.0426943
0.0426725
0.0426542
0.0426398
0.0426293
0.0426222
0.0426178
0.0426154
0.0426144
0.042515
0.042516
0.0425182
0.0425224
0.0425292
0.0425394
0.0425536
0.0425724
0.0425959
0.0426237
0.0426547
0.0426872
0.0427193
0.0427492
0.0427753
0.0427962
0.0428088
0.0428109
0.0428039
0.0427894
0.0427697
0.0427465
0.0427218
0.0426974
0.0426751
0.0426563
0.0426416
0.0426308
0.0426235
0.0426189
0.0426165
0.0426155
0.042517
0.0425179
0.0425203
0.0425247
0.0425318
0.0425424
0.0425573
0.0425769
0.0426012
0.0426298
0.0426613
0.0426942
0.0427264
0.0427564
0.0427827
0.0428041
0.0428173
0.04282
0.0428128
0.0427974
0.0427764
0.0427521
0.0427264
0.0427013
0.0426784
0.0426591
0.0426439
0.0426328
0.0426253
0.0426207
0.0426182
0.0426172
0.0425198
0.0425208
0.0425233
0.0425279
0.0425354
0.0425466
0.0425623
0.0425829
0.0426084
0.042638
0.0426704
0.0427038
0.0427364
0.0427666
0.0427935
0.0428157
0.0428301
0.0428335
0.0428259
0.0428091
0.042786
0.0427595
0.0427322
0.0427059
0.0426822
0.0426623
0.0426468
0.0426355
0.0426279
0.0426232
0.0426208
0.0426198
0.0425236
0.0425246
0.0425273
0.0425322
0.0425402
0.0425522
0.0425689
0.0425908
0.0426176
0.0426485
0.042682
0.0427162
0.0427495
0.0427804
0.0428081
0.0428318
0.0428479
0.0428524
0.0428444
0.0428254
0.0427992
0.0427695
0.0427395
0.0427114
0.0426867
0.0426662
0.0426504
0.0426391
0.0426316
0.042627
0.0426246
0.0426237
0.0425286
0.0425297
0.0425325
0.0425377
0.0425463
0.0425591
0.0425771
0.0426005
0.042629
0.0426615
0.0426964
0.0427318
0.0427661
0.0427981
0.0428273
0.042853
0.0428715
0.0428775
0.042869
0.0428476
0.0428174
0.0427834
0.0427497
0.0427189
0.0426926
0.0426715
0.0426556
0.0426444
0.0426372
0.0426329
0.0426308
0.04263
0.0425349
0.042536
0.0425389
0.0425445
0.0425537
0.0425675
0.0425868
0.0426119
0.0426424
0.0426769
0.0427137
0.0427507
0.0427864
0.04282
0.0428512
0.0428796
0.0429011
0.0429092
0.0429009
0.0428776
0.0428435
0.0428043
0.0427657
0.0427312
0.0427026
0.0426805
0.0426644
0.0426535
0.0426468
0.042643
0.0426413
0.0426407
0.0425425
0.0425436
0.0425467
0.0425526
0.0425624
0.0425772
0.042598
0.042625
0.0426577
0.0426946
0.0427336
0.0427726
0.0428102
0.0428458
0.0428795
0.0429109
0.042936
0.0429472
0.042941
0.0429179
0.0428816
0.0428381
0.042794
0.0427545
0.0427225
0.0426985
0.0426817
0.042671
0.0426648
0.0426616
0.0426603
0.04266
0.0425514
0.0425526
0.0425558
0.042562
0.0425724
0.0425883
0.0426105
0.0426395
0.0426746
0.0427141
0.0427557
0.042797
0.0428367
0.0428743
0.0429103
0.0429448
0.0429738
0.04299
0.0429892
0.0429707
0.0429368
0.0428926
0.042845
0.0428005
0.0427636
0.042736
0.0427173
0.0427058
0.0426996
0.0426967
0.0426958
0.0426957
0.0425616
0.0425628
0.0425661
0.0425726
0.0425835
0.0426003
0.042624
0.042655
0.0426924
0.0427345
0.0427786
0.0428222
0.0428636
0.0429027
0.0429401
0.0429767
0.0430096
0.043033
0.043042
0.0430347
0.043011
0.0429738
0.0429289
0.042883
0.0428419
0.0428094
0.0427865
0.0427721
0.0427642
0.0427605
0.0427593
0.0427591
0.0425728
0.0425741
0.0425774
0.0425841
0.0425954
0.0426129
0.0426378
0.0426703
0.0427098
0.0427541
0.0428001
0.0428451
0.0428872
0.0429262
0.042963
0.0429994
0.043035
0.0430663
0.0430889
0.0430989
0.043094
0.0430743
0.0430429
0.0430047
0.0429655
0.0429303
0.0429026
0.0428833
0.0428714
0.0428651
0.0428624
0.0428617
0.0425846
0.0425859
0.0425892
0.0425959
0.0426074
0.0426252
0.0426506
0.0426839
0.0427245
0.0427698
0.0428166
0.0428615
0.0429023
0.0429384
0.0429711
0.0430033
0.0430378
0.043075
0.0431109
0.0431404
0.043159
0.0431643
0.0431564
0.0431375
0.0431113
0.0430826
0.0430557
0.0430338
0.0430183
0.0430088
0.0430039
0.0430022
0.0425961
0.0425974
0.0426007
0.0426072
0.0426184
0.0426358
0.0426606
0.0426935
0.0427335
0.0427782
0.0428239
0.0428666
0.0429035
0.0429335
0.0429578
0.0429804
0.0430077
0.0430452
0.04309
0.0431358
0.0431761
0.0432065
0.0432249
0.0432313
0.043227
0.0432151
0.0431992
0.043183
0.0431693
0.0431596
0.0431539
0.0431516
0.042606
0.0426072
0.0426103
0.0426164
0.0426267
0.0426428
0.0426658
0.0426964
0.0427337
0.0427755
0.0428179
0.0428565
0.0428875
0.042909
0.0429218
0.0429303
0.0429444
0.0429757
0.0430235
0.0430806
0.0431384
0.0431903
0.0432318
0.0432615
0.0432793
0.043287
0.043287
0.0432824
0.0432761
0.0432704
0.0432665
0.0432646
0.042612
0.0426131
0.042616
0.0426214
0.0426305
0.0426446
0.0426646
0.0426914
0.0427244
0.0427615
0.0427991
0.0428327
0.0428579
0.0428718
0.0428741
0.0428691
0.0428683
0.0428883
0.0429325
0.0429951
0.0430665
0.0431373
0.0431998
0.0432499
0.0432863
0.0433099
0.043323
0.0433284
0.0433291
0.0433277
0.043326
0.043325
0.0426132
0.0426142
0.0426169
0.0426217
0.0426296
0.0426417
0.0426587
0.0426815
0.0427097
0.0427417
0.0427744
0.0428035
0.0428247
0.0428344
0.0428315
0.0428193
0.0428091
0.0428187
0.0428549
0.0429153
0.0429927
0.0430768
0.0431573
0.0432266
0.0432806
0.0433187
0.0433427
0.0433558
0.0433614
0.0433627
0.0433623
0.0433617
0.0426107
0.0426118
0.0426142
0.0426186
0.0426256
0.0426359
0.0426505
0.0426697
0.0426936
0.0427208
0.042749
0.0427744
0.0427929
0.0428011
0.0427975
0.0427842
0.042772
0.0427773
0.0428074
0.0428624
0.0429384
0.0430272
0.0431182
0.0432016
0.0432706
0.0433223
0.0433571
0.0433777
0.0433879
0.0433916
0.0433921
0.0433918
0.0426061
0.0426071
0.0426094
0.0426134
0.0426196
0.0426286
0.0426411
0.0426574
0.0426775
0.0427006
0.0427246
0.0427465
0.0427631
0.0427712
0.0427695
0.0427597
0.0427514
0.0427582
0.0427863
0.0428372
0.0429089
0.042996
0.0430901
0.0431812
0.0432607
0.0433235
0.043368
0.043396
0.043411
0.0434173
0.0434189
0.0434188
0.0426012
0.042602
0.042604
0.0426075
0.0426129
0.0426207
0.0426315
0.0426453
0.0426623
0.0426816
0.0427019
0.0427209
0.042736
0.0427452
0.0427473
0.0427445
0.0427444
0.042757
0.0427866
0.0428351
0.0429022
0.0429846
0.0430761
0.0431687
0.0432536
0.0433241
0.0433766
0.0434115
0.0434314
0.0434405
0.0434432
0.0434433
0.042599
0.0425995
0.0426008
0.0426033
0.0426075
0.0426139
0.0426228
0.0426344
0.0426486
0.0426649
0.0426822
0.0426991
0.0427141
0.0427259
0.0427342
0.0427411
0.0427521
0.0427727
0.0428055
0.0428526
0.0429149
0.042991
0.0430767
0.0431658
0.0432511
0.0433254
0.0433839
0.0434246
0.0434492
0.0434612
0.0434652
0.0434657
0.0426037
0.0426036
0.0426037
0.0426045
0.0426066
0.0426107
0.0426173
0.0426266
0.0426385
0.0426527
0.0426686
0.0426854
0.0427025
0.0427193
0.042736
0.0427545
0.0427773
0.0428061
0.0428421
0.0428876
0.0429444
0.0430128
0.0430906
0.0431731
0.0432546
0.043329
0.0433906
0.0434359
0.0434648
0.0434798
0.0434853
0.0434861
0.0426199
0.0426189
0.0426172
0.0426155
0.0426146
0.0426156
0.0426195
0.0426266
0.0426371
0.0426508
0.0426675
0.042687
0.042709
0.042733
0.0427594
0.0427891
0.0428225
0.0428577
0.0428954
0.0429383
0.0429888
0.0430485
0.0431165
0.0431902
0.0432652
0.0433362
0.043398
0.043446
0.0434784
0.0434963
0.0435033
0.0435046
0.0426519
0.0426497
0.0426458
0.042641
0.0426369
0.0426349
0.0426364
0.0426423
0.042653
0.0426685
0.0426887
0.0427133
0.0427418
0.0427737
0.0428087
0.0428472
0.0428876
0.0429263
0.0429636
0.0430026
0.0430463
0.0430965
0.0431539
0.0432171
0.0432832
0.0433482
0.0434073
0.0434559
0.0434906
0.0435109
0.0435196
0.0435214
0.0427026
0.042699
0.0426928
0.0426858
0.0426798
0.0426764
0.0426774
0.0426841
0.0426971
0.0427164
0.0427414
0.0427716
0.042806
0.0428438
0.0428842
0.0429273
0.0429704
0.043009
0.0430437
0.0430779
0.0431143
0.0431551
0.0432016
0.0432534
0.0433091
0.0433659
0.0434198
0.0434665
0.0435019
0.043524
0.0435342
0.0435366
0.0427732
0.0427683
0.042761
0.042754
0.0427491
0.0427478
0.0427513
0.0427612
0.0427778
0.0428008
0.0428297
0.0428634
0.0429007
0.0429405
0.0429819
0.0430247
0.043066
0.0431016
0.0431321
0.0431607
0.0431899
0.0432218
0.0432579
0.0432984
0.043343
0.0433899
0.0434365
0.0434789
0.0435131
0.0435359
0.0435472
0.0435502
0.0428645
0.0428588
0.0428527
0.0428493
0.0428496
0.0428537
0.0428622
0.0428761
0.0428955
0.0429204
0.04295
0.0429833
0.0430192
0.0430566
0.0430945
0.043133
0.0431691
0.0431994
0.0432245
0.0432472
0.0432696
0.0432935
0.0433202
0.0433503
0.0433839
0.0434203
0.0434579
0.043494
0.0435248
0.0435469
0.0435588
0.0435622
0.0429776
0.0429725
0.042971
0.0429748
0.0429827
0.0429934
0.0430066
0.0430228
0.0430425
0.0430658
0.0430923
0.0431213
0.0431518
0.043183
0.0432142
0.0432453
0.043274
0.0432977
0.0433169
0.0433338
0.04335
0.0433669
0.0433856
0.0434065
0.0434302
0.0434563
0.0434842
0.0435124
0.043538
0.0435576
0.043569
0.0435728
0.0431154
0.0431134
0.0431196
0.0431312
0.0431448
0.0431591
0.0431736
0.0431889
0.0432055
0.043224
0.0432442
0.0432659
0.0432884
0.0433111
0.0433336
0.0433558
0.0433761
0.0433926
0.0434059
0.0434173
0.043428
0.043439
0.043451
0.0434643
0.0434794
0.0434963
0.0435149
0.0435343
0.043553
0.0435685
0.0435783
0.043582
0.0432835
0.0432875
0.0432994
0.0433127
0.0433256
0.0433377
0.0433488
0.0433595
0.0433703
0.0433818
0.0433941
0.043407
0.0434204
0.0434338
0.043447
0.04346
0.0434717
0.0434813
0.0434888
0.0434953
0.0435013
0.0435073
0.0435138
0.043521
0.0435291
0.0435383
0.0435484
0.0435594
0.0435704
0.0435801
0.0435869
0.0435898
0.0434889
0.0434921
0.0434982
0.043504
0.0435093
0.043514
0.0435181
0.0435219
0.0435257
0.0435295
0.0435335
0.0435378
0.0435421
0.0435465
0.0435507
0.0435549
0.0435587
0.0435618
0.0435642
0.0435663
0.0435682
0.0435701
0.0435721
0.0435743
0.0435768
0.0435796
0.0435828
0.0435862
0.0435897
0.0435929
0.0435954
0.0435966
)
;

boundaryField
{
    movingWall
    {
        type            fixedValue;
        value           uniform 0.0436;
    }
    fixedWalls
    {
        type            zeroGradient;
    }
    floor
    {
        type            zeroGradient;
    }
    frontAndBack
    {
        type            empty;
    }
}


// ************************************************************************* //
