/*--------------------------------*- C++ -*----------------------------------*\
| =========                 |                                                 |
| \\      /  F ield         | OpenFOAM: The Open Source CFD Toolbox           |
|  \\    /   O peration     | Version:  2212                                  |
|   \\  /    A nd           | Website:  www.openfoam.com                      |
|    \\/     M anipulation  |                                                 |
\*---------------------------------------------------------------------------*/
FoamFile
{
    version     2.0;
    format      ascii;
    arch        "LSB;label=64;scalar=64";
    class       surfaceScalarField;
    location    "0.58";
    object      phi;
}
// * * * * * * * * * * * * * * * * * * * * * * * * * * * * * * * * * * * * * //

dimensions      [0 3 -1 0 0 0 0];

oriented        oriented;

internalField   nonuniform List<scalar> 
65152
(
-1.47535e-13
1.47516e-13
-8.36955e-13
6.894e-13
-1.96417e-12
1.1272e-12
-3.29472e-12
1.33052e-12
-4.62825e-12
1.33351e-12
-5.8586e-12
1.23034e-12
-6.96147e-12
1.10284e-12
-7.95692e-12
9.95431e-13
-8.87727e-12
9.20332e-13
-9.74982e-12
8.72524e-13
-1.05918e-11
8.41993e-13
-1.14119e-11
8.20023e-13
-1.22128e-11
8.00951e-13
-1.29946e-11
7.81754e-13
-1.37557e-11
7.61092e-13
-1.44943e-11
7.38504e-13
-1.52082e-11
7.13915e-13
-1.58956e-11
6.87387e-13
-1.65546e-11
6.59016e-13
-1.71836e-11
6.28887e-13
-1.77806e-11
5.97072e-13
-1.83443e-11
5.6363e-13
-1.88729e-11
5.28607e-13
-1.9365e-11
4.92041e-13
-1.9819e-11
4.53966e-13
-2.02334e-11
4.1441e-13
-2.06068e-11
3.73404e-13
-2.09378e-11
3.30978e-13
-2.1225e-11
2.87167e-13
-2.1467e-11
2.42018e-13
-2.16627e-11
1.95596e-13
-2.18107e-11
1.48e-13
-2.19101e-11
9.9381e-14
-2.19602e-11
5.00681e-14
-2.19595e-11
-7.16892e-16
-2.19083e-11
-5.12237e-14
-2.18058e-11
-1.02536e-13
-2.16516e-11
-1.54216e-13
-2.14455e-11
-2.06124e-13
-2.11873e-11
-2.58149e-13
-2.08772e-11
-3.10176e-13
-2.05151e-11
-3.62082e-13
-2.01014e-11
-4.13727e-13
-1.96365e-11
-4.64955e-13
-1.91209e-11
-5.15598e-13
-1.85555e-11
-5.65478e-13
-1.79411e-11
-6.14408e-13
-1.72789e-11
-6.62194e-13
-1.65703e-11
-7.0864e-13
-1.58168e-11
-7.53543e-13
-1.50201e-11
-7.96702e-13
-1.41822e-11
-8.37916e-13
-1.33053e-11
-8.76987e-13
-1.23916e-11
-9.13722e-13
-1.14436e-11
-9.47939e-13
-1.04642e-11
-9.79464e-13
-9.4561e-12
-1.00813e-12
-8.42233e-12
-1.03379e-12
-7.36606e-12
-1.05629e-12
-6.29062e-12
-1.07547e-12
-5.19948e-12
-1.09116e-12
-4.0963e-12
-1.1032e-12
-2.9849e-12
-1.11143e-12
-1.86919e-12
-1.11574e-12
-7.53121e-13
-1.11609e-12
3.59403e-13
-1.11255e-12
1.46473e-12
-1.10535e-12
2.55954e-12
-1.09483e-12
3.64069e-12
-1.08118e-12
4.7052e-12
-1.06453e-12
5.75017e-12
-1.04499e-12
6.77275e-12
-1.0226e-12
7.77018e-12
-9.97447e-13
8.73976e-12
-9.69606e-13
9.67893e-12
-9.39189e-13
1.05852e-11
-9.06324e-13
1.14564e-11
-8.7115e-13
1.22902e-11
-8.3382e-13
1.30846e-11
-7.94492e-13
1.3838e-11
-7.53337e-13
1.45485e-11
-7.10525e-13
1.52147e-11
-6.6623e-13
1.58353e-11
-6.20626e-13
1.64092e-11
-5.7388e-13
1.69353e-11
-5.26155e-13
1.74129e-11
-4.77604e-13
1.78413e-11
-4.28368e-13
1.82198e-11
-3.78577e-13
1.85482e-11
-3.28352e-13
1.8826e-11
-2.77808e-13
1.90531e-11
-2.27062e-13
1.92293e-11
-1.76243e-13
1.93548e-11
-1.25502e-13
1.94298e-11
-7.50345e-14
1.94549e-11
-2.51132e-14
1.94304e-11
2.45215e-14
1.93579e-11
7.25338e-14
1.92382e-11
1.1969e-13
1.90726e-11
1.65587e-13
1.88625e-11
2.10141e-13
1.86091e-11
2.53312e-13
1.83141e-11
2.95084e-13
1.79786e-11
3.35449e-13
1.76042e-11
3.74398e-13
1.71923e-11
4.11919e-13
1.67443e-11
4.47994e-13
1.62617e-11
4.82594e-13
1.5746e-11
5.15683e-13
1.51988e-11
5.47214e-13
1.46217e-11
5.77127e-13
1.40164e-11
6.05348e-13
1.33846e-11
6.31782e-13
1.27283e-11
6.5633e-13
1.20494e-11
6.7892e-13
1.13497e-11
6.99619e-13
1.06309e-11
7.18886e-13
9.89281e-12
7.38075e-13
9.13256e-12
7.60257e-13
8.34138e-12
7.91198e-13
7.50158e-12
8.39812e-13
6.58519e-12
9.16401e-13
5.55888e-12
1.02633e-12
4.40125e-12
1.15764e-12
3.13517e-12
1.26609e-12
1.86509e-12
1.2701e-12
7.88583e-13
1.07651e-12
1.34932e-13
6.53663e-13
1.34934e-13
-5.72493e-13
7.19985e-13
-2.12522e-12
2.24211e-12
-4.29356e-12
3.29551e-12
-6.66541e-12
3.70235e-12
-8.9312e-12
3.59927e-12
-1.09409e-11
3.24003e-12
-1.26749e-11
2.83682e-12
-1.41823e-11
2.50278e-12
-1.55291e-11
2.26714e-12
-1.67709e-11
2.11424e-12
-1.79444e-11
2.01545e-12
-1.90702e-11
1.94585e-12
-2.01581e-11
1.88883e-12
-2.12115e-11
1.83512e-12
-2.22307e-11
1.78024e-12
-2.32145e-11
1.72229e-12
-2.41612e-11
1.6606e-12
-2.50689e-11
1.59504e-12
-2.59355e-11
1.52564e-12
-2.67592e-11
1.45248e-12
-2.75378e-11
1.37567e-12
-2.82694e-11
1.29527e-12
-2.89522e-11
1.21138e-12
-2.95843e-11
1.12405e-12
-3.01637e-11
1.03334e-12
-3.06886e-11
9.39313e-13
-3.11573e-11
8.42036e-13
-3.15679e-11
7.41572e-13
-3.19187e-11
6.37991e-13
-3.22081e-11
5.31378e-13
-3.24344e-11
4.21834e-13
-3.25959e-11
3.09495e-13
-3.26911e-11
1.94554e-13
-3.27183e-11
7.72806e-14
-3.26771e-11
-4.19815e-14
-3.25658e-11
-1.62573e-13
-3.23842e-11
-2.84128e-13
-3.2132e-11
-4.06449e-13
-3.18088e-11
-5.29363e-13
-3.14143e-11
-6.5267e-13
-3.09484e-11
-7.76124e-13
-3.04111e-11
-8.99435e-13
-2.98025e-11
-1.02227e-12
-2.91233e-11
-1.14425e-12
-2.83739e-11
-1.26497e-12
-2.75555e-11
-1.38399e-12
-2.6669e-11
-1.50086e-12
-2.57161e-11
-1.61511e-12
-2.46986e-11
-1.72624e-12
-2.36184e-11
-1.83376e-12
-2.24779e-11
-1.93719e-12
-2.12799e-11
-2.03601e-12
-2.00272e-11
-2.12974e-12
-1.8723e-11
-2.21791e-12
-1.73709e-11
-2.30004e-12
-1.59747e-11
-2.37571e-12
-1.45384e-11
-2.44451e-12
-1.30662e-11
-2.50604e-12
-1.15625e-11
-2.55994e-12
-1.00322e-11
-2.60585e-12
-8.47996e-12
-2.64344e-12
-6.91082e-12
-2.67237e-12
-5.32986e-12
-2.69241e-12
-3.74219e-12
-2.70344e-12
-2.15281e-12
-2.7055e-12
-5.666e-13
-2.69879e-12
1.01152e-12
-2.6835e-12
2.57677e-12
-2.6601e-12
4.12477e-12
-2.62921e-12
5.65144e-12
-2.59123e-12
7.15283e-12
-2.5464e-12
8.62501e-12
-2.49482e-12
1.00642e-11
-2.43664e-12
1.14666e-11
-2.37209e-12
1.28289e-11
-2.30143e-12
1.41475e-11
-2.22495e-12
1.54193e-11
-2.14297e-12
1.66413e-11
-2.05586e-12
1.78108e-11
-1.96399e-12
1.89252e-11
-1.86775e-12
1.99822e-11
-1.76754e-12
2.09797e-11
-1.66376e-12
2.19158e-11
-1.55681e-12
2.2789e-11
-1.44709e-12
2.35978e-11
-1.33497e-12
2.4341e-11
-1.22082e-12
2.50176e-11
-1.10498e-12
2.56268e-11
-9.87768e-13
2.6168e-11
-8.69493e-13
2.66406e-11
-7.50447e-13
2.70444e-11
-6.30925e-13
2.73794e-11
-5.11229e-13
2.76456e-11
-3.91677e-13
2.78432e-11
-2.72612e-13
2.79724e-11
-1.54392e-13
2.80344e-11
-3.74708e-14
2.80296e-11
7.73146e-14
2.796e-11
1.89381e-13
2.78271e-11
2.984e-13
2.7633e-11
4.04286e-13
2.73793e-11
5.06998e-13
2.70679e-11
6.06534e-13
2.67004e-11
7.02894e-13
2.62787e-11
7.96075e-13
2.58046e-11
8.86064e-13
2.52798e-11
9.72833e-13
2.4706e-11
1.05634e-12
2.40852e-11
1.13652e-12
2.34191e-11
1.21332e-12
2.27096e-11
1.28664e-12
2.19585e-11
1.35639e-12
2.11679e-11
1.42246e-12
2.03394e-11
1.48478e-12
1.94749e-11
1.54349e-12
1.85753e-11
1.59922e-12
1.76403e-11
1.65388e-12
1.66664e-11
1.71199e-12
1.56437e-11
1.78297e-12
1.45512e-11
1.88371e-12
1.33513e-11
2.0397e-12
1.19874e-11
2.28032e-12
1.03916e-11
2.62216e-12
8.51262e-12
3.03665e-12
6.36778e-12
3.41095e-12
4.10454e-12
3.53334e-12
2.02853e-12
3.15254e-12
5.43823e-13
2.13838e-12
6.7876e-13
-5.92332e-13
1.31229e-12
-2.13337e-12
3.78312e-12
-4.19875e-12
5.36086e-12
-6.35846e-12
5.86203e-12
-8.31358e-12
5.55437e-12
-9.93528e-12
4.8617e-12
-1.12255e-11
4.12706e-12
-1.22518e-11
3.52905e-12
-1.30946e-11
3.10983e-12
-1.38197e-11
2.83935e-12
-1.44717e-11
2.66744e-12
-1.50766e-11
2.55073e-12
-1.5648e-11
2.46021e-12
-1.61923e-11
2.37939e-12
-1.67121e-11
2.29997e-12
-1.72081e-11
2.21825e-12
-1.76802e-11
2.13272e-12
-1.81281e-11
2.04288e-12
-1.85511e-11
1.94861e-12
-1.89485e-11
1.84991e-12
-1.93197e-11
1.74685e-12
-1.9664e-11
1.63949e-12
-1.99805e-11
1.5279e-12
-2.02687e-11
1.41215e-12
-2.05277e-11
1.29232e-12
-2.07569e-11
1.16849e-12
-2.09556e-11
1.04074e-12
-2.11233e-11
9.09194e-13
-2.12593e-11
7.73964e-13
-2.13631e-11
6.35187e-13
-2.14343e-11
4.93017e-13
-2.14724e-11
3.4762e-13
-2.14771e-11
1.99203e-13
-2.1448e-11
4.81036e-14
-2.13845e-11
-1.05519e-13
-2.1286e-11
-2.61034e-13
-2.1152e-11
-4.18212e-13
-2.09816e-11
-5.76851e-13
-2.07743e-11
-7.36705e-13
-2.05295e-11
-8.97469e-13
-2.02469e-11
-1.05879e-12
-1.99261e-11
-1.22026e-12
-1.95669e-11
-1.38142e-12
-1.91695e-11
-1.54176e-12
-1.87338e-11
-1.70071e-12
-1.82601e-11
-1.85771e-12
-1.77489e-11
-2.01212e-12
-1.72007e-11
-2.1633e-12
-1.66164e-11
-2.31059e-12
-1.59969e-11
-2.45332e-12
-1.53433e-11
-2.59079e-12
-1.4657e-11
-2.72232e-12
-1.39396e-11
-2.84723e-12
-1.31927e-11
-2.96483e-12
-1.24183e-11
-3.07447e-12
-1.16185e-11
-3.17553e-12
-1.07956e-11
-3.26743e-12
-9.95207e-12
-3.34962e-12
-9.09044e-12
-3.4216e-12
-8.21337e-12
-3.48295e-12
-7.32354e-12
-3.5333e-12
-6.42357e-12
-3.57237e-12
-5.516e-12
-3.60001e-12
-4.60324e-12
-3.61624e-12
-3.68756e-12
-3.62121e-12
-2.77113e-12
-3.61524e-12
-1.85595e-12
-3.59871e-12
-9.4401e-13
-3.57208e-12
-3.74621e-14
-3.53578e-12
8.61373e-13
-3.49009e-12
1.75021e-12
-3.43527e-12
2.62693e-12
-3.37156e-12
3.48948e-12
-3.29922e-12
4.33588e-12
-3.21852e-12
5.16423e-12
-3.1298e-12
5.9727e-12
-3.03344e-12
6.75956e-12
-2.92985e-12
7.52316e-12
-2.81949e-12
8.26198e-12
-2.70284e-12
8.97458e-12
-2.58037e-12
9.65962e-12
-2.4526e-12
1.03159e-11
-2.32003e-12
1.09422e-11
-2.18319e-12
1.15377e-11
-2.04257e-12
1.21014e-11
-1.89864e-12
1.26324e-11
-1.75188e-12
1.31302e-11
-1.60273e-12
1.3594e-11
-1.45164e-12
1.40235e-11
-1.29903e-12
1.44184e-11
-1.14534e-12
1.47785e-11
-9.91006e-13
1.51038e-11
-8.3651e-13
1.53944e-11
-6.82344e-13
1.56508e-11
-5.2901e-13
1.58734e-11
-3.77007e-13
1.60628e-11
-2.26805e-13
1.62189e-11
-7.87936e-14
1.63418e-11
6.65019e-14
1.64316e-11
2.08579e-13
1.64888e-11
3.47007e-13
1.65141e-11
4.81744e-13
1.65079e-11
6.12765e-13
1.64707e-11
7.40041e-13
1.64032e-11
8.63549e-13
1.6306e-11
9.83267e-13
1.61797e-11
1.09916e-12
1.60249e-11
1.21118e-12
1.58421e-11
1.31929e-12
1.56321e-11
1.4234e-12
1.53953e-11
1.52344e-12
1.51323e-11
1.61934e-12
1.48437e-11
1.71106e-12
1.45298e-11
1.79868e-12
1.41907e-11
1.88268e-12
1.38254e-11
1.96451e-12
1.34314e-11
2.0479e-12
1.30022e-11
2.14121e-12
1.2524e-11
2.26119e-12
1.19703e-11
2.43736e-12
1.1296e-11
2.714e-12
1.04338e-11
3.14256e-12
9.30143e-12
3.75458e-12
7.82909e-12
4.509e-12
6.0124e-12
5.22765e-12
3.9775e-12
5.56826e-12
2.01899e-12
5.11106e-12
5.57778e-13
3.59961e-12
1.23654e-12
-5.08621e-13
1.82089e-12
-1.85031e-12
5.12478e-12
-3.62467e-12
7.13519e-12
-5.41931e-12
7.65665e-12
-6.95602e-12
7.09106e-12
-8.12621e-12
6.03187e-12
-8.94771e-12
4.94854e-12
-9.49851e-12
4.07982e-12
-9.86528e-12
3.47658e-12
-1.01176e-11
3.09166e-12
-1.03022e-11
2.85194e-12
-1.04464e-11
2.69499e-12
-1.05654e-11
2.57912e-12
-1.06665e-11
2.48052e-12
-1.07537e-11
2.3871e-12
-1.08287e-11
2.29329e-12
-1.08928e-11
2.19676e-12
-1.09465e-11
2.0966e-12
-1.09904e-11
1.99249e-12
-1.10249e-11
1.88434e-12
-1.10502e-11
1.77216e-12
-1.10667e-11
1.65596e-12
-1.10746e-11
1.5358e-12
-1.10742e-11
1.41171e-12
-1.10657e-11
1.28375e-12
-1.10492e-11
1.152e-12
-1.1025e-11
1.01655e-12
-1.09934e-11
8.77521e-13
-1.09545e-11
7.35051e-13
-1.09086e-11
5.89296e-13
-1.08561e-11
4.40424e-13
-1.07971e-11
2.88623e-13
-1.0732e-11
1.34111e-13
-1.0661e-11
-2.2955e-14
-1.0584e-11
-1.82504e-13
-1.05009e-11
-3.44234e-13
-1.0411e-11
-5.08076e-13
-1.03141e-11
-6.73793e-13
-1.02098e-11
-8.41087e-13
-1.00976e-11
-1.00963e-12
-9.97741e-12
-1.17903e-12
-9.84885e-12
-1.34885e-12
-9.7117e-12
-1.51861e-12
-9.56571e-12
-1.68777e-12
-9.41069e-12
-1.85577e-12
-9.24646e-12
-2.02197e-12
-9.07289e-12
-2.18571e-12
-8.88993e-12
-2.3463e-12
-8.69753e-12
-2.50302e-12
-8.49575e-12
-2.65513e-12
-8.28471e-12
-2.80186e-12
-8.06462e-12
-2.94245e-12
-7.83574e-12
-3.07614e-12
-7.59845e-12
-3.20215e-12
-7.35321e-12
-3.31974e-12
-7.10058e-12
-3.4282e-12
-6.84118e-12
-3.52686e-12
-6.57571e-12
-3.61512e-12
-6.30488e-12
-3.69247e-12
-6.02936e-12
-3.7585e-12
-5.74971e-12
-3.81298e-12
-5.46634e-12
-3.85578e-12
-5.1794e-12
-3.88699e-12
-4.88886e-12
-3.90681e-12
-4.59453e-12
-3.91557e-12
-4.29614e-12
-3.91367e-12
-3.99343e-12
-3.90145e-12
-3.68629e-12
-3.87925e-12
-3.37479e-12
-3.84731e-12
-3.05913e-12
-3.80579e-12
-2.73959e-12
-3.75483e-12
-2.41656e-12
-3.69462e-12
-2.09045e-12
-3.62536e-12
-1.76166e-12
-3.54734e-12
-1.43062e-12
-3.46087e-12
-1.09776e-12
-3.36632e-12
-7.63544e-13
-3.2641e-12
-4.28413e-13
-3.15465e-12
-9.28348e-14
-3.03843e-12
2.42707e-13
-2.91593e-12
5.77725e-13
-2.78763e-12
9.11706e-13
-2.65403e-12
1.24412e-12
-2.51562e-12
1.57444e-12
-2.3729e-12
1.90212e-12
-2.22634e-12
2.22663e-12
-2.0764e-12
2.54744e-12
-1.92355e-12
2.86403e-12
-1.76824e-12
3.17591e-12
-1.61092e-12
3.48265e-12
-1.45209e-12
3.78389e-12
-1.29225e-12
4.07935e-12
-1.13198e-12
4.36886e-12
-9.71862e-13
4.65235e-12
-8.12505e-13
4.92981e-12
-6.54475e-13
5.20127e-12
-4.98264e-13
5.46676e-12
-3.44292e-13
5.72605e-12
-1.92787e-13
5.97841e-12
-4.37837e-14
6.22341e-12
1.02005e-13
6.46049e-12
2.44657e-13
6.68926e-12
3.84001e-13
6.90934e-12
5.19952e-13
7.1204e-12
6.52492e-13
7.32207e-12
7.81593e-13
7.514e-12
9.0723e-13
7.69582e-12
1.02937e-12
7.86713e-12
1.14797e-12
8.02753e-12
1.263e-12
8.17658e-12
1.3744e-12
8.3138e-12
1.48214e-12
8.4386e-12
1.58627e-12
8.55026e-12
1.68704e-12
8.64765e-12
1.7853e-12
8.72882e-12
1.88335e-12
8.78997e-12
1.98676e-12
8.82346e-12
2.10773e-12
8.81425e-12
2.27041e-12
8.73443e-12
2.5172e-12
8.5367e-12
2.91174e-12
8.1503e-12
3.52896e-12
7.48689e-12
4.41801e-12
6.46637e-12
5.52953e-12
5.06867e-12
6.62537e-12
3.39981e-12
7.23713e-12
1.73366e-12
6.77722e-12
4.73211e-13
4.86006e-12
1.70975e-12
-4.75556e-13
2.29643e-12
-1.73251e-12
6.38171e-12
-3.3778e-12
8.78047e-12
-5.00594e-12
9.28476e-12
-6.3478e-12
8.4329e-12
-7.30505e-12
6.9891e-12
-7.90453e-12
5.548e-12
-8.23059e-12
4.40586e-12
-8.37369e-12
3.61966e-12
-8.4054e-12
3.12335e-12
-8.37326e-12
2.81978e-12
-8.3053e-12
2.62701e-12
-8.21676e-12
2.49056e-12
-8.11555e-12
2.37928e-12
-8.00581e-12
2.27733e-12
-7.88988e-12
2.17735e-12
-7.76929e-12
2.07615e-12
-7.64517e-12
1.97246e-12
-7.51849e-12
1.86578e-12
-7.39008e-12
1.75592e-12
-7.26075e-12
1.6428e-12
-7.1312e-12
1.5264e-12
-7.00213e-12
1.4067e-12
-6.87417e-12
1.28372e-12
-6.74791e-12
1.15747e-12
-6.62392e-12
1.02798e-12
-6.50272e-12
8.95329e-13
-6.3848e-12
7.5958e-13
-6.27062e-12
6.20844e-13
-6.16059e-12
4.79245e-13
-6.05512e-12
3.34925e-13
-5.95453e-12
1.88019e-13
-5.85913e-12
3.86885e-14
-5.76907e-12
-1.13042e-13
-5.68454e-12
-2.67054e-13
-5.60548e-12
-4.23325e-13
-5.53187e-12
-5.8171e-13
-5.46369e-12
-7.41992e-13
-5.4009e-12
-9.03905e-13
-5.34342e-12
-1.06713e-12
-5.29114e-12
-1.23134e-12
-5.24388e-12
-1.39614e-12
-5.20143e-12
-1.56108e-12
-5.16354e-12
-1.72569e-12
-5.12992e-12
-1.88942e-12
-5.10024e-12
-2.05167e-12
-5.07417e-12
-2.21181e-12
-5.05136e-12
-2.36914e-12
-5.03146e-12
-2.52295e-12
-5.01413e-12
-2.67249e-12
-4.99904e-12
-2.81698e-12
-4.98588e-12
-2.95564e-12
-4.97438e-12
-3.08767e-12
-4.96429e-12
-3.21227e-12
-4.9554e-12
-3.32867e-12
-4.94753e-12
-3.4361e-12
-4.94055e-12
-3.53388e-12
-4.9343e-12
-3.6214e-12
-4.92861e-12
-3.69819e-12
-4.92322e-12
-3.76392e-12
-4.91772e-12
-3.81852e-12
-4.91145e-12
-3.86208e-12
-4.90354e-12
-3.89493e-12
-4.89286e-12
-3.91751e-12
-4.87815e-12
-3.93032e-12
-4.85805e-12
-3.93379e-12
-4.83129e-12
-3.92824e-12
-4.79674e-12
-3.91383e-12
-4.75345e-12
-3.89063e-12
-4.70063e-12
-3.85863e-12
-4.63767e-12
-3.81782e-12
-4.56406e-12
-3.76826e-12
-4.47939e-12
-3.71006e-12
-4.38335e-12
-3.64341e-12
-4.27568e-12
-3.56856e-12
-4.15618e-12
-3.48583e-12
-4.02474e-12
-3.39556e-12
-3.8813e-12
-3.29811e-12
-3.72586e-12
-3.19389e-12
-3.5585e-12
-3.08331e-12
-3.37936e-12
-2.96679e-12
-3.18867e-12
-2.84475e-12
-2.98668e-12
-2.71763e-12
-2.77374e-12
-2.58585e-12
-2.55026e-12
-2.44983e-12
-2.31668e-12
-2.30999e-12
-2.07352e-12
-2.16673e-12
-1.8213e-12
-2.02047e-12
-1.56059e-12
-1.87164e-12
-1.29196e-12
-1.72073e-12
-1.01595e-12
-1.56826e-12
-7.33098e-13
-1.41484e-12
-4.43879e-13
-1.26109e-12
-1.48733e-13
-1.10766e-12
1.51946e-13
-9.55158e-13
4.57787e-13
-8.0411e-13
7.68412e-13
-6.54921e-13
1.08347e-12
-5.07849e-13
1.40278e-12
-3.63095e-13
1.7256e-12
-2.20818e-13
2.05128e-12
-8.10295e-14
2.37909e-12
5.61909e-14
2.70828e-12
1.9076e-13
3.03811e-12
3.22664e-13
3.36783e-12
4.51872e-13
3.69666e-12
5.78391e-13
4.02381e-12
7.02223e-13
4.34843e-12
8.23357e-13
4.66966e-12
9.41774e-13
4.98659e-12
1.05747e-12
5.29828e-12
1.17046e-12
5.60369e-12
1.28086e-12
5.90162e-12
1.38911e-12
6.19053e-12
1.49639e-12
6.46806e-12
1.60583e-12
6.73004e-12
1.72478e-12
6.96855e-12
1.86924e-12
7.16824e-12
2.07073e-12
7.30082e-12
2.38463e-12
7.31818e-12
2.89439e-12
7.14779e-12
3.69937e-12
6.69773e-12
4.86808e-12
5.88186e-12
6.34541e-12
4.67142e-12
7.83582e-12
3.16255e-12
8.74601e-12
1.62039e-12
8.31939e-12
4.41366e-13
6.03909e-12
2.15112e-12
-4.83417e-13
2.77982e-12
-1.75418e-12
7.65245e-12
-3.40618e-12
1.04325e-11
-5.02431e-12
1.09029e-11
-6.33626e-12
9.74483e-12
-7.24612e-12
7.89894e-12
-7.78583e-12
6.08769e-12
-8.045e-12
4.66501e-12
-8.11811e-12
3.69275e-12
-8.0793e-12
3.08452e-12
-7.97755e-12
2.71801e-12
-7.84161e-12
2.49105e-12
-7.68702e-12
2.33595e-12
-7.52183e-12
2.21408e-12
-7.3503e-12
2.10578e-12
-7.17484e-12
2.00187e-12
-6.9971e-12
1.89838e-12
-6.81831e-12
1.79365e-12
-6.63957e-12
1.68701e-12
-6.46184e-12
1.57817e-12
-6.28604e-12
1.46698e-12
-6.11302e-12
1.35335e-12
-5.94356e-12
1.23722e-12
-5.77839e-12
1.11853e-12
-5.61819e-12
9.97252e-13
-5.46359e-12
8.73359e-13
-5.31514e-12
7.46859e-13
-5.17334e-12
6.17761e-13
-5.03864e-12
4.86115e-13
-4.91138e-12
3.51967e-13
-4.79188e-12
2.15402e-13
-4.68036e-12
7.64778e-14
-4.57696e-12
-6.47371e-14
-4.48183e-12
-2.08195e-13
-4.39503e-12
-3.5387e-13
-4.31669e-12
-5.0169e-13
-4.2469e-12
-6.51522e-13
-4.18574e-12
-8.0318e-13
-4.13323e-12
-9.56438e-13
-4.08934e-12
-1.11104e-12
-4.054e-12
-1.26671e-12
-4.02704e-12
-1.42312e-12
-4.00824e-12
-1.57991e-12
-3.99732e-12
-1.73664e-12
-3.99392e-12
-1.89284e-12
-3.99767e-12
-2.04795e-12
-4.00813e-12
-2.20137e-12
-4.02487e-12
-2.35243e-12
-4.04742e-12
-2.50043e-12
-4.07532e-12
-2.64462e-12
-4.10812e-12
-2.78422e-12
-4.14537e-12
-2.91843e-12
-4.18664e-12
-3.04643e-12
-4.23154e-12
-3.1674e-12
-4.2797e-12
-3.28054e-12
-4.33076e-12
-3.38507e-12
-4.3844e-12
-3.48027e-12
-4.44028e-12
-3.56556e-12
-4.49801e-12
-3.64049e-12
-4.55713e-12
-3.70484e-12
-4.617e-12
-3.75868e-12
-4.67679e-12
-3.80232e-12
-4.73542e-12
-3.83634e-12
-4.79156e-12
-3.8614e-12
-4.84376e-12
-3.87816e-12
-4.89044e-12
-3.88714e-12
-4.9301e-12
-3.8886e-12
-4.96136e-12
-3.88261e-12
-4.98298e-12
-3.86904e-12
-4.99392e-12
-3.84771e-12
-4.99334e-12
-3.81844e-12
-4.98049e-12
-3.78114e-12
-4.95477e-12
-3.7358e-12
-4.91568e-12
-3.68252e-12
-4.8628e-12
-3.62147e-12
-4.7958e-12
-3.55286e-12
-4.71442e-12
-3.47696e-12
-4.61849e-12
-3.39407e-12
-4.50791e-12
-3.3045e-12
-4.38264e-12
-3.2086e-12
-4.24273e-12
-3.10671e-12
-4.08831e-12
-2.99918e-12
-3.91958e-12
-2.88638e-12
-3.73678e-12
-2.76866e-12
-3.54027e-12
-2.64636e-12
-3.33044e-12
-2.51983e-12
-3.10775e-12
-2.38943e-12
-2.8727e-12
-2.25552e-12
-2.62584e-12
-2.11851e-12
-2.36772e-12
-1.97885e-12
-2.0989e-12
-1.83709e-12
-1.81992e-12
-1.69382e-12
-1.5313e-12
-1.54971e-12
-1.23354e-12
-1.40542e-12
-9.27113e-13
-1.26159e-12
-6.12481e-13
-1.11875e-12
-2.90113e-13
-9.77293e-13
3.95687e-14
-8.37535e-13
3.76096e-13
-6.99625e-13
7.18903e-13
-5.63628e-13
1.06744e-12
-4.29565e-13
1.42103e-12
-2.97406e-13
1.77891e-12
-1.67123e-13
2.14024e-12
-3.86721e-14
2.50419e-12
8.79274e-14
2.86983e-12
2.12753e-13
3.23621e-12
3.35838e-13
3.6024e-12
4.57175e-13
3.96738e-12
5.76794e-13
4.33013e-12
6.94726e-13
4.68955e-12
8.11037e-13
5.0445e-12
9.25924e-13
5.39366e-12
1.03996e-12
5.73538e-12
1.15467e-12
6.06725e-12
1.27398e-12
6.38502e-12
1.40702e-12
6.68063e-12
1.57363e-12
6.93849e-12
1.81288e-12
7.12967e-12
2.19347e-12
7.20475e-12
2.81933e-12
7.08879e-12
3.81534e-12
6.68611e-12
5.27077e-12
5.90568e-12
7.12586e-12
4.71406e-12
9.02744e-12
3.20549e-12
1.02546e-11
1.64893e-12
9.87596e-12
4.51055e-13
7.23697e-12
2.60218e-12
-5.07771e-13
3.28758e-12
-1.83686e-12
8.98152e-12
-3.55891e-12
1.21545e-11
-5.23937e-12
1.25833e-11
-6.59515e-12
1.11006e-11
-7.52822e-12
8.832e-12
-8.0739e-12
6.63335e-12
-8.32707e-12
4.91816e-12
-8.38712e-12
3.75279e-12
-8.3318e-12
3.02918e-12
-8.21233e-12
2.59853e-12
-8.05868e-12
2.33738e-12
-7.88697e-12
2.16423e-12
-7.70554e-12
2.03262e-12
-7.51868e-12
1.9189e-12
-7.32887e-12
1.81204e-12
-7.13772e-12
1.70721e-12
-6.9465e-12
1.60241e-12
-6.75629e-12
1.49679e-12
-6.56809e-12
1.38994e-12
-6.3828e-12
1.28167e-12
-6.20128e-12
1.17181e-12
-6.02432e-12
1.06024e-12
-5.85266e-12
9.46841e-13
-5.68693e-12
8.3151e-13
-5.52776e-12
7.14165e-13
-5.37565e-12
5.9473e-13
-5.23106e-12
4.73149e-13
-5.09435e-12
3.49386e-13
-4.96583e-12
2.23421e-13
-4.84568e-12
9.52369e-14
-4.73405e-12
-3.51743e-14
-4.63101e-12
-1.67797e-13
-4.53659e-12
-3.02637e-13
-4.45081e-12
-4.39672e-13
-4.37369e-12
-5.78835e-13
-4.30521e-12
-7.20024e-13
-4.24534e-12
-8.63073e-13
-4.194e-12
-1.00779e-12
-4.15109e-12
-1.15399e-12
-4.11641e-12
-1.30142e-12
-4.08972e-12
-1.44983e-12
-4.07071e-12
-1.59894e-12
-4.05901e-12
-1.74837e-12
-4.05419e-12
-1.89769e-12
-4.05576e-12
-2.04641e-12
-4.06322e-12
-2.19394e-12
-4.07606e-12
-2.33962e-12
-4.09376e-12
-2.48276e-12
-4.11581e-12
-2.6226e-12
-4.14172e-12
-2.75834e-12
-4.17104e-12
-2.88915e-12
-4.20334e-12
-3.01416e-12
-4.23824e-12
-3.13253e-12
-4.27542e-12
-3.2434e-12
-4.31458e-12
-3.34594e-12
-4.35548e-12
-3.43941e-12
-4.39787e-12
-3.5232e-12
-4.44148e-12
-3.59691e-12
-4.48595e-12
-3.6604e-12
-4.53078e-12
-3.71388e-12
-4.57526e-12
-3.75788e-12
-4.61844e-12
-3.79319e-12
-4.65915e-12
-3.82072e-12
-4.69604e-12
-3.84131e-12
-4.72766e-12
-3.85555e-12
-4.75257e-12
-3.86372e-12
-4.76947e-12
-3.86575e-12
-4.77718e-12
-3.86137e-12
-4.77471e-12
-3.8502e-12
-4.76128e-12
-3.8319e-12
-4.73622e-12
-3.80623e-12
-4.69899e-12
-3.77305e-12
-4.64918e-12
-3.73236e-12
-4.58641e-12
-3.68425e-12
-4.51043e-12
-3.62886e-12
-4.42102e-12
-3.5664e-12
-4.31802e-12
-3.49708e-12
-4.20135e-12
-3.42119e-12
-4.07098e-12
-3.33899e-12
-3.92694e-12
-3.25076e-12
-3.76933e-12
-3.15682e-12
-3.59828e-12
-3.05744e-12
-3.41402e-12
-2.95293e-12
-3.21681e-12
-2.84359e-12
-3.00696e-12
-2.72969e-12
-2.78485e-12
-2.61155e-12
-2.55089e-12
-2.4895e-12
-2.30551e-12
-2.3639e-12
-2.04914e-12
-2.23523e-12
-1.78222e-12
-2.10402e-12
-1.50516e-12
-1.97089e-12
-1.21834e-12
-1.83653e-12
-9.22171e-13
-1.7016e-12
-6.17035e-13
-1.56673e-12
-3.03328e-13
-1.43246e-12
1.85533e-14
-1.29918e-12
3.48104e-13
-1.16709e-12
6.84814e-13
-1.03634e-12
1.02814e-12
-9.06953e-13
1.37745e-12
-7.78879e-13
1.73208e-12
-6.52042e-13
2.0913e-12
-5.26341e-13
2.45431e-12
-4.01682e-13
2.82021e-12
-2.77978e-13
3.18812e-12
-1.55155e-13
3.55708e-12
-3.31223e-14
3.92616e-12
8.8098e-14
4.29431e-12
2.08652e-13
4.66046e-12
3.28577e-13
5.02354e-12
4.47966e-13
5.38237e-12
5.67094e-13
5.73567e-12
6.86667e-13
6.08179e-12
8.08563e-13
6.41829e-12
9.37493e-13
6.74086e-12
1.08446e-12
7.04123e-12
1.27327e-12
7.30328e-12
1.55085e-12
7.49691e-12
1.99984e-12
7.57063e-12
2.74563e-12
7.4461e-12
3.93989e-12
7.023e-12
5.69388e-12
6.2054e-12
7.94348e-12
4.95701e-12
1.02758e-11
3.37483e-12
1.18368e-11
1.73933e-12
1.15115e-11
4.77402e-13
8.49891e-12
3.07958e-12
-5.38255e-13
3.82582e-12
-1.94445e-12
1.03877e-11
-3.76389e-12
1.39739e-11
-5.53719e-12
1.43566e-11
-6.96613e-12
1.25295e-11
-7.94818e-12
9.81404e-12
-8.52136e-12
7.20653e-12
-8.7863e-12
5.18308e-12
-8.84814e-12
3.81463e-12
-8.78912e-12
2.97015e-12
-8.66338e-12
2.47277e-12
-8.50258e-12
2.17657e-12
-8.32374e-12
1.98537e-12
-8.13558e-12
1.84445e-12
-7.9426e-12
1.72591e-12
-7.74733e-12
1.61675e-12
-7.55139e-12
1.51126e-12
-7.35604e-12
1.40705e-12
-7.16235e-12
1.30309e-12
-6.9713e-12
1.19888e-12
-6.7838e-12
1.09415e-12
-6.60067e-12
9.88666e-13
-6.42268e-12
8.82234e-13
-6.25053e-12
7.74681e-13
-6.08487e-12
6.65835e-13
-5.92626e-12
5.55531e-13
-5.77516e-12
4.43616e-13
-5.632e-12
3.29965e-13
-5.49706e-12
2.14435e-13
-5.37059e-12
9.69297e-14
-5.25271e-12
-2.2662e-14
-5.14349e-12
-1.44413e-13
-5.04292e-12
-2.68389e-13
-4.95093e-12
-3.94649e-13
-4.8674e-12
-5.23221e-13
-4.79217e-12
-6.54085e-13
-4.72506e-12
-7.87159e-13
-4.66584e-12
-9.2232e-13
-4.61424e-12
-1.05941e-12
-4.56999e-12
-1.19826e-12
-4.53275e-12
-1.33868e-12
-4.50212e-12
-1.48049e-12
-4.47766e-12
-1.62343e-12
-4.45886e-12
-1.7672e-12
-4.44514e-12
-1.91144e-12
-4.43594e-12
-2.05564e-12
-4.43064e-12
-2.19927e-12
-4.42863e-12
-2.34166e-12
-4.42932e-12
-2.4821e-12
-4.43215e-12
-2.6198e-12
-4.43663e-12
-2.7539e-12
-4.44229e-12
-2.88352e-12
-4.44874e-12
-3.00774e-12
-4.4557e-12
-3.12561e-12
-4.46292e-12
-3.23621e-12
-4.47026e-12
-3.33863e-12
-4.47764e-12
-3.43207e-12
-4.485e-12
-3.51587e-12
-4.49229e-12
-3.58965e-12
-4.49939e-12
-3.65334e-12
-4.50603e-12
-3.70728e-12
-4.51175e-12
-3.7522e-12
-4.51582e-12
-3.78914e-12
-4.5173e-12
-3.81927e-12
-4.51502e-12
-3.84362e-12
-4.5077e-12
-3.8629e-12
-4.49409e-12
-3.87736e-12
-4.47302e-12
-3.88685e-12
-4.4435e-12
-3.89091e-12
-4.40474e-12
-3.88899e-12
-4.35612e-12
-3.88056e-12
-4.29715e-12
-3.86522e-12
-4.22751e-12
-3.84272e-12
-4.1469e-12
-3.81299e-12
-4.05515e-12
-3.77603e-12
-3.95208e-12
-3.73195e-12
-3.8376e-12
-3.6809e-12
-3.71163e-12
-3.62308e-12
-3.57413e-12
-3.55871e-12
-3.4251e-12
-3.48804e-12
-3.26457e-12
-3.41131e-12
-3.09261e-12
-3.32879e-12
-2.90932e-12
-3.24074e-12
-2.71485e-12
-3.14742e-12
-2.50938e-12
-3.04907e-12
-2.29313e-12
-2.94596e-12
-2.06635e-12
-2.83834e-12
-1.82931e-12
-2.72654e-12
-1.58229e-12
-2.61093e-12
-1.32554e-12
-2.49198e-12
-1.05932e-12
-2.37024e-12
-7.83839e-13
-2.24638e-12
-4.99298e-13
-2.12108e-12
-2.05885e-13
-1.99502e-12
9.61267e-14
-1.86875e-12
4.06428e-13
-1.74277e-12
7.24635e-13
-1.61739e-12
1.05034e-12
-1.4928e-12
1.38305e-12
-1.36905e-12
1.72219e-12
-1.24609e-12
2.06712e-12
-1.12381e-12
2.41714e-12
-1.00207e-12
2.77152e-12
-8.80722e-13
3.12946e-12
-7.59619e-13
3.4901e-12
-6.38621e-13
3.85256e-12
-5.17606e-13
4.2159e-12
-3.96469e-13
4.57912e-12
-2.7511e-13
4.94121e-12
-1.53441e-13
5.30115e-12
-3.13521e-14
5.65791e-12
9.12071e-14
6.01031e-12
2.14701e-13
6.35705e-12
3.39938e-13
6.69651e-12
4.69112e-13
7.02621e-12
6.0781e-13
7.34169e-12
7.68994e-13
7.63431e-12
9.8066e-13
7.88712e-12
1.29806e-12
8.06844e-12
1.81853e-12
8.12397e-12
2.69011e-12
7.97113e-12
4.09274e-12
7.50417e-12
6.16085e-12
6.62186e-12
8.8258e-12
5.28579e-12
1.16119e-11
3.59815e-12
1.35244e-11
1.85538e-12
1.32542e-11
5.10039e-13
9.84426e-12
3.58962e-12
-5.72813e-13
4.39863e-12
-2.06812e-12
1.1883e-11
-4.00154e-12
1.59073e-11
-5.88479e-12
1.62398e-11
-7.40156e-12
1.40463e-11
-8.44351e-12
1.0856e-11
-9.05133e-12
7.81434e-12
-9.33197e-12
5.46371e-12
-9.39724e-12
3.87989e-12
-9.33461e-12
2.90751e-12
-9.20175e-12
2.33989e-12
-9.0324e-12
2.00722e-12
-8.84474e-12
1.7977e-12
-8.64803e-12
1.64774e-12
-8.44706e-12
1.52493e-12
-8.24443e-12
1.41411e-12
-8.04183e-12
1.30865e-12
-7.84053e-12
1.20573e-12
-7.64159e-12
1.10414e-12
-7.44601e-12
1.00329e-12
-7.25468e-12
9.02802e-13
-7.06842e-12
8.02396e-13
-6.88802e-12
7.01813e-13
-6.71414e-12
6.00792e-13
-6.54741e-12
4.99088e-13
-6.38836e-12
3.96462e-13
-6.23742e-12
2.92664e-13
-6.09494e-12
1.87473e-13
-5.96124e-12
8.07139e-14
-5.83641e-12
-2.79179e-14
-5.72057e-12
-1.3852e-13
-5.61372e-12
-2.51283e-13
-5.51574e-12
-3.66387e-13
-5.42643e-12
-4.83974e-13
-5.34552e-12
-6.04151e-13
-5.27266e-12
-7.26969e-13
-5.20744e-12
-8.52401e-13
-5.14941e-12
-9.80366e-13
-5.09811e-12
-1.11074e-12
-5.05302e-12
-1.24337e-12
-5.01363e-12
-1.3781e-12
-4.97934e-12
-1.51479e-12
-4.94954e-12
-1.65325e-12
-4.92354e-12
-1.79323e-12
-4.90063e-12
-1.93437e-12
-4.88006e-12
-2.07624e-12
-4.86109e-12
-2.21827e-12
-4.84299e-12
-2.35979e-12
-4.82507e-12
-2.50005e-12
-4.80671e-12
-2.63819e-12
-4.78735e-12
-2.77329e-12
-4.76653e-12
-2.90438e-12
-4.7439e-12
-3.0304e-12
-4.71924e-12
-3.15031e-12
-4.69244e-12
-3.26304e-12
-4.66352e-12
-3.36759e-12
-4.63258e-12
-3.46303e-12
-4.59984e-12
-3.54865e-12
-4.56551e-12
-3.62402e-12
-4.52975e-12
-3.68914e-12
-4.49257e-12
-3.74449e-12
-4.45378e-12
-3.79102e-12
-4.4129e-12
-3.83006e-12
-4.36918e-12
-3.86302e-12
-4.32166e-12
-3.89118e-12
-4.26926e-12
-3.91534e-12
-4.21087e-12
-3.93578e-12
-4.14554e-12
-3.95221e-12
-4.07248e-12
-3.964e-12
-3.99114e-12
-3.97036e-12
-3.90112e-12
-3.9706e-12
-3.80223e-12
-3.96414e-12
-3.69433e-12
-3.95065e-12
-3.57737e-12
-3.92997e-12
-3.45135e-12
-3.90208e-12
-3.31628e-12
-3.86705e-12
-3.17216e-12
-3.82504e-12
-3.01902e-12
-3.77624e-12
-2.85688e-12
-3.72087e-12
-2.68577e-12
-3.65917e-12
-2.50571e-12
-3.59139e-12
-2.31675e-12
-3.51777e-12
-2.11892e-12
-3.43858e-12
-1.91231e-12
-3.35405e-12
-1.69698e-12
-3.26441e-12
-1.47305e-12
-3.1699e-12
-1.24062e-12
-3.07078e-12
-9.99785e-13
-2.96738e-12
-7.50651e-13
-2.86008e-12
-4.93247e-13
-2.7494e-12
-2.27553e-13
-2.63594e-12
4.64283e-14
-2.52037e-12
3.28697e-13
-2.40335e-12
6.19208e-13
-2.28553e-12
9.17895e-13
-2.16744e-12
1.22455e-12
-2.04943e-12
1.53889e-12
-1.93173e-12
1.86052e-12
-1.81443e-12
2.18895e-12
-1.69749e-12
2.52363e-12
-1.58077e-12
2.86393e-12
-1.46411e-12
3.20915e-12
-1.34729e-12
3.55854e-12
-1.23012e-12
3.9113e-12
-1.11238e-12
4.26658e-12
-9.93899e-13
4.62349e-12
-8.74513e-13
4.9811e-12
-7.54075e-13
5.33845e-12
-6.32457e-13
5.69455e-12
-5.09537e-13
6.04839e-12
-3.85184e-13
6.39881e-12
-2.59211e-13
6.74469e-12
-1.31167e-13
7.08474e-12
-9.99963e-17
7.41744e-12
1.36417e-13
7.74011e-12
2.85154e-13
8.0481e-12
4.61017e-13
8.33223e-12
6.96546e-13
8.57447e-12
1.05583e-12
8.74118e-12
1.65184e-12
8.77469e-12
2.65661e-12
8.58748e-12
4.27997e-12
8.06752e-12
6.68083e-12
7.1077e-12
9.78562e-12
5.6676e-12
1.3052e-11
3.856e-12
1.5336e-11
1.98833e-12
1.51219e-11
5.46941e-13
1.12857e-11
4.13656e-12
-6.11674e-13
5.0103e-12
-2.20761e-12
1.34789e-11
-4.26988e-12
1.79696e-11
-6.27734e-12
1.82473e-11
-7.89307e-12
1.5662e-11
-9.00197e-12
1.19649e-11
-9.64764e-12
8.46e-12
-9.94424e-12
5.7603e-12
-1.00111e-11
3.94675e-12
-9.94166e-12
2.83806e-12
-9.79768e-12
2.19591e-12
-9.61539e-12
1.82492e-12
-9.4143e-12
1.59661e-12
-9.2044e-12
1.43783e-12
-8.99079e-12
1.31131e-12
-8.77627e-12
1.19958e-12