/*--------------------------------*- C++ -*----------------------------------*\
| =========                 |                                                 |
| \\      /  F ield         | OpenFOAM: The Open Source CFD Toolbox           |
|  \\    /   O peration     | Version:  2206                                  |
|   \\  /    A nd           | Website:  www.openfoam.com                      |
|    \\/     M anipulation  |                                                 |
\*---------------------------------------------------------------------------*/
FoamFile
{
    version     2.0;
    format      ascii;
    arch        "LSB;label=64;scalar=64";
    class       surfaceScalarField;
    location    "331200";
    object      phi;
}
// * * * * * * * * * * * * * * * * * * * * * * * * * * * * * * * * * * * * * //

dimensions      [0 3 -1 0 0 0 0];

oriented        oriented;

internalField   nonuniform List<scalar> 
24
(
4.72737e-10
-4.72737e-10
5.19927e-10
-4.71901e-11
3.8945e-10
1.30477e-10
3.8945e-10
9.75825e-11
-5.70319e-10
1.2601e-10
-7.56178e-11
5.02291e-12
2.51465e-10
3.94472e-10
-2.58476e-10
-3.11843e-10
-2.71352e-10
-6.27424e-11
-2.08294e-10
1.88407e-10
1.86179e-10
-3.11843e-10
-3.74585e-10
-1.86179e-10
)
;

boundaryField
{
    movingWall
    {
        type            calculated;
        value           uniform 0;
    }
    fixedWalls
    {
        type            calculated;
        value           uniform 0;
    }
    frontAndBack
    {
        type            empty;
        value           nonuniform List<scalar> 0();
    }
}


// ************************************************************************* //
