/*--------------------------------*- C++ -*----------------------------------*\
| =========                 |                                                 |
| \\      /  F ield         | OpenFOAM: The Open Source CFD Toolbox           |
|  \\    /   O peration     | Version:  2206                                  |
|   \\  /    A nd           | Website:  www.openfoam.com                      |
|    \\/     M anipulation  |                                                 |
\*---------------------------------------------------------------------------*/
FoamFile
{
    version     2.0;
    format      ascii;
    arch        "LSB;label=64;scalar=64";
    class       volScalarField;
    location    "0.7/solid";
    object      T;
}
// * * * * * * * * * * * * * * * * * * * * * * * * * * * * * * * * * * * * * //

dimensions      [0 0 0 1 0 0 0];

internalField   nonuniform List<scalar> 
500
(
1114.51237403
1114.33349469
1113.97328955
1113.42755811
1112.68891827
1111.74828723
1110.59189741
1109.21005899
1107.66839834
1106.11418481
1115.22342654
1115.05049861
1114.70380187
1114.18197833
1113.48381059
1112.60973622
1111.56394368
1110.35776085
1109.01960176
1107.61220589
1115.86400092
1115.69881226
1115.36846441
1114.87328922
1114.21446784
1113.39492014
1112.42034842
1111.29997388
1110.04818815
1108.6975617
1116.4266021
1116.26857662
1115.95286071
1115.48028428
1114.852452
1114.07212049
1113.14344683
1112.07163429
1110.86314887
1109.53886387
1116.90963518
1116.75740542
1116.45327784
1115.99799487
1115.39282752
1114.63971805
1113.74125442
1112.69998189
1111.51799902
1110.20943729
1117.31542213
1117.16766264
1116.87237038
1116.43003854
1115.84147714
1115.10788375
1114.23077566
1113.2111938
1112.04861246
1110.75224362
1117.64957569
1117.50528595
1117.21682494
1116.7844555
1116.20861584
1115.4899857
1114.62945527
1113.62727926
1112.48115261
1111.19527866
1117.92016556
1117.77868641
1117.49576696
1117.07150756
1116.50609933
1115.79990529
1114.95348915
1113.9667513
1112.83609438
1111.56101394
1118.13657598
1117.99751626
1117.71938723
1117.30219238
1116.74597965
1116.05094001
1115.21750509
1114.24550388
1113.13035397
1111.86613597
1118.30845998
1118.17161222
1117.89788333
1117.48722935
1116.93962787
1116.25518863
1115.4343216
1114.47696549
1113.37781755
1112.12557259
1118.44494741
1118.31021844
1118.0407205
1117.63639583
1117.09719942
1116.42321551
1115.61489909
1114.67244719
1113.5901348
1112.35056006
1118.55413258
1118.42149294
1118.15617792
1117.75813724
1117.22733248
1116.56385313
1115.76823082
1114.84103174
1113.77644171
1112.55094538
1118.64281345
1118.51226317
1118.25113756
1117.85940613
1117.33705344
1116.68418743
1115.90141729
1114.98973882
1113.94361414
1112.7329724
1118.7164295
1118.58797659
1118.33105979
1117.9456749
1117.4318377
1116.78967774
1116.01986572
1115.12385571
1114.09679889
1112.90237899
1118.77913824
1118.65278608
1118.40008646
1118.02106462
1117.51577159
1116.88435773
1116.12753185
1115.24721038
1114.23969944
1113.06232494
1118.83397503
1118.70971544
1118.46121746
1118.08853752
1117.59176476
1116.9710708
1116.2271807
1115.36245863
1114.37488715
1113.21583498
1118.88305158
1118.76086118
1118.51651846
1118.1501119
1117.66177061
1117.05168713
1116.32057672
1115.47120187
1114.50380667
1113.36486801
1118.92776119
1118.80760015
1118.56733325
1118.20708161
1117.7270159
1117.12735061
1116.40876607
1115.5743327
1114.62705929
1113.51398961
1118.96896874
1118.8507812
1118.61447859
1118.26021516
1117.78820488
1117.19868634
1116.49228116
1115.6722323
1114.74449762
1113.6621375
1119.00717292
1118.89088849
1118.65840962
1118.30992436
1117.84569192
1117.2659788
1116.57132947
1115.76500715
1114.8558996
1113.8065553
1119.04263579
1118.92817181
1118.69935178
1118.35639836
1117.89961854
1117.32931383
1116.64594766
1115.85265955
1114.96108711
1113.94626832
1119.07547963
1118.96274404
1118.73739927
1118.39970373
1117.95001493
1117.38867723
1116.71607481
1115.9350747
1115.05969636
1114.08173192
1119.10575461
1118.99464874
1118.77258268
1118.43985216
1117.99686852
1117.44402826
1116.78164782
1116.01218495
1115.15131736
1114.21377751
1119.13348248
1119.02390363
1118.80491192
1118.47684244
1118.04016425
1117.49533664
1116.84262967
1116.0839902
1115.23549027
1114.34344041
1119.15868242
1119.050526
1118.83440073
1118.51068353
1118.07990544
1117.54259892
1116.89901238
1116.15054217
1115.31197633
1114.44890412
1119.18138332
1119.07454439
1118.86107715
1118.54140317
1118.11612017
1117.58584514
1116.95083652
1116.21198622
1115.38229601
1114.52622794
1119.20162502
1119.09599929
1118.88498295
1118.56904514
1118.14885513
1117.62512571
1116.99815708
1116.26839349
1115.44701527
1114.59603011
1119.21944919
1119.11493361
1118.90616336
1118.59365779
1118.1781622
1117.6604959
1117.04103205
1116.31982299
1115.5062138
1114.65984141
1119.23487692
1119.13137014
1118.92464422
1118.61527047
1118.2040735
1117.69198868
1117.07949572
1116.36633004
1115.56003984
1114.71711351
1119.24786746
1119.14527049
1118.94039098
1118.63385241
1118.22655893
1117.71956595
1117.11348381
1116.40779176
1115.60825805
1114.76858173
1119.25825004
1119.15646706
1118.95324154
1118.64924721
1118.24546418
1117.74306471
1117.14280115
1116.44393835
1115.65046042
1114.81254095
1119.26561791
1119.16455756
1118.96280157
1118.66107015
1118.2604125
1117.76210884
1117.16705762
1116.47435379
1115.68622417
1114.84977891
1119.26917232
1119.16874924
1118.96828971
1118.66855545
1118.27065609
1117.77596761
1117.18553165
1116.49830434
1115.71474425
1114.87818503
1119.26750188
1119.16763842
1118.96831747
1118.67033702
1118.27485843
1117.78334137
1117.19696864
1116.51459225
1115.7348887
1114.8977984
1119.25828333
1119.15891077
1118.96058856
1118.66414608
1118.27078844
1117.78204813
1117.19925053
1116.52119585
1115.74477649
1114.90578136
1119.23789377
1119.1389526
1118.94150801
1118.64641686
1118.2549215
1117.7686179
1117.1889768
1116.51480669
1115.74121852
1114.89983452
1119.20093384
1119.10237272
1118.9057015
1118.61180146
1118.22194706
1117.73778957
1117.16094817
1116.49030864
1115.71922268
1114.87423204
1119.13967593
1119.04144976
1118.84546055
1118.55261182
1118.16420619
1117.68194256
1117.10759051
1116.44019258
1115.67139785
1114.82235261
1119.04347252
1118.94553985
1118.75014902
1118.4582246
1118.07109477
1117.59049938
1117.01835841
1116.35395408
1115.58730947
1114.73282371
1118.89818561
1118.80050545
1118.60563074
1118.3145069
1117.92848674
1117.44934599
1116.87915446
1116.21752666
1115.45300559
1114.59251307
1118.68572598
1118.58825389
1118.39380674
1118.10335156
1117.71826658
1117.24036031
1116.67185077
1116.01278444
1115.25043234
1114.38256585
1118.38381367
1118.28649695
1118.0923727
1117.80243164
1117.41808053
1116.94116081
1116.37403748
1115.71729376
1114.95723546
1114.08084828
1117.96608172
1117.86885271
1117.67491716
1117.38529251
1117.0014194
1116.52517622
1115.95907493
1115.30434496
1114.54677348
1113.66034163
1117.4026345
1117.30540184
1117.11147307
1116.82189504
1116.4381486
1115.9621565
1115.39657984
1114.7434066
1113.98852097
1113.09024107
1116.6611354
1116.56377396
1116.36960035
1116.07968986
1115.6955667
1115.2192071
1114.65343195
1114.00112422
1113.24918753
1112.33639711
1115.70843408
1115.61077693
1115.41601775
1115.12524809
1114.74002351
1114.2623694
1113.69527109
1113.04264162
1112.29377235
1111.36344707
1114.5126537
1114.41449351
1114.21872099
1113.92641306
1113.53911176
1113.05884536
1112.48872083
1111.83370621
1111.08712741
1110.14529152
1113.04555459
1112.94665629
1112.74940359
1112.45482591
1112.06437781
1111.57998298
1111.00471038
1110.34423333
1109.59623491
1108.65897942
1111.28499994
1111.1850697
1110.98590088
1110.6885237
1110.29428195
1109.80487866
1109.22296078
1108.55344558
1107.7943989
1106.85171812
1109.21797635
1109.11635121
1108.91484984
1108.61461267
1108.21700632
1107.72361948
1107.13642946
1106.45700392
1105.67466949
1104.69355009
)
;

boundaryField
{
    symmetric
    {
        type            symmetry;
    }
    emptyPatch
    {
        type            empty;
    }
    solid_to_water
    {
        type            compressible::turbulentTemperatureTwoPhaseRadCoupledMixed;
        refValue        nonuniform List<scalar> 
70
(
404.169254518
402.666285817
400.506418118
397.471676277
391.07406885
380.091705685
363.824703628
348.299854773
340.756688649
336.943495201
338.893301735
345.741089255
347.47038114
349.457819921
348.429889622
350.076623845
348.738208024
350.19287022
348.856949358
350.181861024
348.9525152
350.047374606
348.939827511
349.702986096
348.797818833
348.424284493
345.119870747
341.047382519
338.532371001
336.873002819
335.861746946
335.692761031
336.753235777
342.930414974
389.999882369
412.047389716
412.527052893
428.482300783
421.001792618
434.186741174
424.317051067
435.692837791
425.655140057
434.792651366
425.811576533
433.633594346
425.917815644
432.610948059
426.050330937
430.899100673
426.333810159
429.729335857
426.686713899
428.336327733
423.872076229
404.845045099
359.570006309
344.235126908
339.752635929
334.173589988
334.225069088
334.263102825
334.307829738
334.359434711
334.416880023
334.457333753
334.550369667
334.62999564
337.734860279
334.681711595
)
;
        refGradient     uniform 0;
        valueFraction   nonuniform List<scalar> 
70
(
0.000613828267734
0.000613073678385
0.00061654729716
0.000625217031606
0.000654230407991
0.000721713230851
0.000876990784551
0.00115338663376
0.00138621773817
0.00154158673812
0.000991638432834
0.000903151780347
0.000898598732852
0.000872308232656
0.000899049928304
0.000870327630298
0.00089824048674
0.000871730807417
0.00089853144342
0.000874396924286
0.000898779462747
0.00087896936721
0.000900669688041
0.000886675038995
0.000902118333921
0.000899749807277
0.000938564217999
0.000988582319395
0.000995187974403
0.000980792037781
0.000966050544902
0.000964633909401
0.000979560666197
0.000970881001282
0.000535344844053
0.000500172045988
0.000534930766013
0.000496188100201
0.000534074802256
0.000496349142085
0.000533833785662
0.000498976151195
0.000533842618637
0.000504519080021
0.000534989609179
0.000509309916924
0.000535450864858
0.000513195506674
0.000535413608353
0.000519429744599
0.000536202302958
0.000525895984834
0.000537770872548
0.000531874354082
0.00053893966681
0.000576107100966
0.000828975418034
0.000978443731814
0.000990835125119
0.00153064507221
0.00153340996067
0.001535124345
0.00153710073619
0.00153917635908
0.00154120728667
0.00154208472669
0.00154684072164
0.00154868140924
0.000978249155562
0.00154776338536
)
;
        source          uniform 0;
        value           nonuniform List<scalar> 
70
(
1114.07861785
1113.89946705
1113.53569802
1112.98226562
1112.21926759
1111.22298323
1109.94032683
1108.3360942
1106.60813441
1104.93119926
1105.3561384
1106.92527345
1108.0145482
1108.87645588
1109.5255921
1110.09082151
1110.51148032
1110.89801801
1111.18172877
1111.4602176
1111.66578529
1111.88188871
1112.04666688
1112.22721866
1112.37481245
1112.52980083
1112.64671129
1112.75429602
1112.89514127
1113.04908791
1113.19927267
1113.33587795
1113.45780019
1113.60035245
1114.06033911
1114.17343113
1114.21954014
1114.31781306
1114.34566558
1114.42923669
1114.44299408
1114.509413
1114.50931876
1114.55327423
1114.53620207
1114.55152144
1114.50439956
1114.47095729
1114.36315586
1114.23619401
1114.01271501
1113.71987437
1113.29002549
1112.72506353
1111.96449826
1110.95616986
1109.52691144
1107.91748873
1106.09838913
1108.03370059
1107.93015809
1107.72768366
1107.42642968
1107.02788704
1106.53374974
1105.94681357
1105.26499234
1104.48340436
1103.94901894
1103.50749622
)
;
        kappaMethod     solidThermo;
        Tnbr            T.liquid;
        region          solid;
        otherPhase      gas;
    }
}


// ************************************************************************* //
