/*--------------------------------*- C++ -*----------------------------------*\
| =========                 |                                                 |
| \\      /  F ield         | OpenFOAM: The Open Source CFD Toolbox           |
|  \\    /   O peration     | Version:  2212                                  |
|   \\  /    A nd           | Website:  www.openfoam.com                      |
|    \\/     M anipulation  |                                                 |
\*---------------------------------------------------------------------------*/
FoamFile
{
    version     2.0;
    format      ascii;
    arch        "LSB;label=64;scalar=64";
    class       volScalarField::Internal;
    location    "1350";
    object      dGco2;
}
// * * * * * * * * * * * * * * * * * * * * * * * * * * * * * * * * * * * * * //

dimensions      [1 -3 -1 0 0 0 0];

value           nonuniform List<scalar> 
1024
(
0.000142267
0.00014232
0.00014245
0.000142685
0.000143057
0.000143593
0.000144308
0.000145191
0.000146207
0.000147288
0.000148345
0.000149276
0.000149984
0.000150405
0.000150514
0.000150293
0.000149707
0.000148781
0.000147606
0.000146239
0.000144749
0.000143218
0.000141739
0.000140396
0.000139251
0.000138331
0.000137634
0.000137135
0.0001368
0.000136592
0.000136479
0.000136432
0.000142281
0.000142335
0.000142467
0.000142706
0.000143085
0.000143631
0.000144357
0.000145252
0.000146278
0.000147368
0.000148432
0.000149367
0.000150074
0.000150491
0.000150597
0.000150374
0.000149788
0.000148861
0.000147685
0.000146316
0.000144824
0.000143289
0.000141803
0.00014045
0.000139295
0.000138364
0.000137658
0.000137153
0.000136813
0.000136603
0.000136488
0.000136442
0.000142314
0.000142369
0.000142506
0.000142754
0.000143147
0.000143712
0.000144461
0.000145383
0.000146437
0.000147554
0.000148641
0.000149591
0.000150297
0.000150706
0.0001508
0.000150569
0.000149976
0.000149042
0.000147859
0.000146483
0.000144983
0.000143438
0.000141937
0.000140566
0.000139389
0.000138437
0.000137713
0.000137194
0.000136845
0.000136629
0.000136511
0.000136463
0.000142371
0.000142429
0.000142571
0.000142832
0.000143245
0.000143839
0.000144627
0.000145595
0.000146702
0.000147876
0.000149017
0.000150002
0.000150713
0.000151104
0.000151174
0.000150921
0.000150308
0.000149351
0.000148144
0.000146748
0.000145231
0.000143669
0.000142145
0.000140745
0.000139536
0.000138553
0.000137801
0.000137261
0.000136898
0.000136673
0.000136551
0.000136501
0.000142458
0.000142518
0.000142669
0.000142945
0.000143384
0.000144018
0.000144861
0.000145901
0.000147095
0.000148369
0.000149607
0.000150661
0.000151388
0.000151752
0.00015178
0.000151484
0.000150827
0.000149817
0.000148556
0.000147116
0.000145565
0.000143973
0.000142418
0.00014098
0.00013973
0.000138707
0.000137921
0.000137355
0.000136974
0.000136738
0.00013661
0.000136558
0.000142581
0.000142644
0.000142803
0.000143097
0.000143567
0.000144252
0.00014517
0.000146313
0.000147642
0.000149073
0.000150466
0.000151631
0.000152393
0.000152725
0.00015269
0.000152323
0.000151585
0.000150477
0.000149114
0.000147588
0.000145973
0.000144332
0.000142733
0.000141251
0.000139956
0.000138889
0.000138066
0.000137471
0.000137071
0.000136823
0.00013669
0.000136636
0.000142748
0.000142814
0.000142981
0.000143294
0.000143801
0.000144548
0.000145565
0.000146852
0.000148371
0.000150026
0.00015164
0.000152967
0.000153791
0.000154092
0.000153976
0.000153509
0.000152644
0.000151372
0.000149836
0.00014816
0.000146434
0.000144714
0.000143056
0.000141525
0.000140183
0.000139076
0.00013822
0.0001376
0.000137183
0.000136927
0.000136788
0.000136733
0.000142971
0.000143039
0.000143215
0.000143548
0.000144098
0.000144922
0.000146064
0.00014754
0.000149313
0.000151266
0.000153168
0.000154707
0.000155626
0.000155909
0.000155707
0.000155115
0.00015407
0.00015255
0.000150745
0.000148832
0.000146927
0.000145085
0.000143345
0.000141757
0.000140375
0.000139238
0.000138361
0.000137728
0.000137304
0.000137045
0.000136906
0.000136851
0.000143269
0.000143339
0.000143525
0.000143883
0.000144483
0.0001454
0.000146699
0.000148413
0.000150506
0.000152829
0.000155081
0.000156876
0.000157923
0.000158214
0.000157941
0.000157218
0.000155945
0.000154082
0.000151888
0.00014962
0.000147445
0.000145417
0.000143563
0.00014191
0.000140497
0.00013935
0.000138474
0.000137848
0.000137434
0.000137184
0.000137052
0.000137
0.000143674
0.000143748
0.000143945
0.000144333
0.000144995
0.000146027
0.00014752
0.000149525
0.000152005
0.000154763
0.000157414
0.000159498
0.000160704
0.000161045
0.000160749
0.000159922
0.000158397
0.000156103
0.000153392
0.000150626
0.000148053
0.000145752
0.000143731
0.000141996
0.000140558
0.000139422
0.000138576
0.000137987
0.000137608
0.000137387
0.000137275
0.000137233
0.000144238
0.000144317
0.00014453
0.000144957
0.000145699
0.000146875
0.000148605
0.00015096
0.000153891
0.000157138
0.000160223
0.000162616
0.000164014
0.000164476
0.000164256
0.000163421
0.000161694
0.000158951
0.000155627
0.000152207
0.000149065
0.000146349
0.000144061
0.000142188
0.000140709
0.000139596
0.000138807
0.00013829
0.000137981
0.000137819
0.000137749
0.00013773
0.000145038
0.000145124
0.00014536
0.00014584
0.000146687
0.000148048
0.000150069
0.000152838
0.00015628
0.000160054
0.000163587
0.000166308
0.000167957
0.000168668
0.000168713
0.000168093
0.000166397
0.000163402
0.000159549
0.000155412
0.000151503
0.000148124
0.000145348
0.000143166
0.000141539
0.000140403
0.000139673
0.000139257
0.000139063
0.000139005
0.000139014
0.000139035
0.000146179
0.000146274
0.000146542
0.000147096
0.000148084
0.000149681
0.00015206
0.000155309
0.000159308
0.000163627
0.000167608
0.000170687
0.000172701
0.000173883
0.000174517
0.000174538
0.00017343
0.000170811
0.00016698
0.000162475
0.000157868
0.000153613
0.00014998
0.000147089
0.000144974
0.000143581
0.000142778
0.000142416
0.000142342
0.000142416
0.000142528
0.000142605
0.000147787
0.000147896
0.000148209
0.000148864
0.000150038
0.000151937
0.000154748
0.000158536
0.000163107
0.000167942
0.000172347
0.000175834
0.000178389
0.000180341
0.000181973
0.000183222
0.000183572
0.000182474
0.000179933
0.000176279
0.000171943
0.000167376
0.000162992
0.000159102
0.000155956
0.00015368
0.000152235
0.000151494
0.000151252
0.000151286
0.000151414
0.000151512
0.000149948
0.000150073
0.000150438
0.000151206
0.000152582
0.000154792
0.000158012
0.000162261
0.000167278
0.000172511
0.000177316
0.000181316
0.000184595
0.000187509
0.000190337
0.00019311
0.000195472
0.000196871
0.000197044
0.000196025
0.000193926
0.000190947
0.00018736
0.000183506
0.000179744
0.000176397
0.000173705
0.000171797
0.000170638
0.000170061
0.000169853
0.000169822
0.000152471
0.000152603
0.00015299
0.000153804
0.000155261
0.000157585
0.000160937
0.000165318
0.000170472
0.00017591
0.000181072
0.000185604
0.000189523
0.000193094
0.000196564
0.000200075
0.000203542
0.000206759
0.000209508
0.000211631
0.000212942
0.00021331
0.000212696
0.00021117
0.000208914
0.000206225
0.000203471
0.000200997
0.000199059
0.000197761
0.000197052
0.000196783
0.000154774
0.000154896
0.000155254
0.000156007
0.000157357
0.000159514
0.00016264
0.000166754
0.000171669
0.000176985
0.000182193
0.000186884
0.000190899
0.000194305
0.000197236
0.000199849
0.000202347
0.000205165
0.000208448
0.000212017
0.000215533
0.000218655
0.000221113
0.000222739
0.000223469
0.000223364
0.000222598
0.000221446
0.000220223
0.000219201
0.000218531
0.000218229
0.000156442
0.000156548
0.000156852
0.00015749
0.000158637
0.000160484
0.000163193
0.000166816
0.000171236
0.000176142
0.000181087
0.000185624
0.000189445
0.000192423
0.000194555
0.000195943
0.000196955
0.000198525
0.000201191
0.000204885
0.00020923
0.000213733
0.00021793
0.000221484
0.000224201
0.00022603
0.000227039
0.000227388
0.0002273
0.000227016
0.000226737
0.00022658
0.000157544
0.000157632
0.000157881
0.0001584
0.000159334
0.000160851
0.000163105
0.000166176
0.000170005
0.000174366
0.000178887
0.000183137
0.000186741
0.000189457
0.00019118
0.000191968
0.00019224
0.000193065
0.00019516
0.00019866
0.000203334
0.000208694
0.000214131
0.00021909
0.000223177
0.000226217
0.00022823
0.000229369
0.000229864
0.000229969
0.000229907
0.000229836
0.000158278
0.000158349
0.000158547
0.000158959
0.000159702
0.000160919
0.000162749
0.000165283
0.000168506
0.000172266
0.000176271
0.000180145
0.00018352
0.000186113
0.000187772
0.000188528
0.000188791
0.000189522
0.000191384
0.00019462
0.000199184
0.000204767
0.000210831
0.000216752
0.000221958
0.000226083
0.000229007
0.000230822
0.00023176
0.000232113
0.000232162
0.000232123
0.00015883
0.00015888
0.000159025
0.000159336
0.00015991
0.000160866
0.000162327
0.000164381
0.000167038
0.000170198
0.000173647
0.000177091
0.000180218
0.000182769
0.000184592
0.000185715
0.000186485
0.000187627
0.00018964
0.00019279
0.000197147
0.000202575
0.000208717
0.000215033
0.000220909
0.000225838
0.000229543
0.000231998
0.000233379
0.000233983
0.000234138
0.000234124
0.000159435
0.000159453
0.000159528
0.000159721
0.000160122
0.000160838
0.000161974
0.00016361
0.000165767
0.000168383
0.000171312
0.000174351
0.000177272
0.000179878
0.000182047
0.000183815
0.000185407
0.000187235
0.000189625
0.000192834
0.000197005
0.000202129
0.000208008
0.000214251
0.000220336
0.000225723
0.00023
0.000233
0.000234802
0.000235665
0.000235934
0.000235946
0.000160427
0.000160392
0.000160355
0.000160382
0.000160568
0.000161023
0.000161849
0.000163121
0.000164866
0.000167053
0.000169599
0.000172378
0.000175247
0.000178068
0.000180749
0.000183321
0.000185842
0.000188406
0.0001912
0.00019448
0.000198439
0.00020317
0.000208598
0.000214466
0.000220378
0.000225863
0.000230465
0.00023388
0.000236056
0.000237176
0.000237571
0.000237614
0.000162215
0.000162097
0.000161895
0.000161687
0.000161589
0.000161738
0.000162255
0.000163225
0.000164686
0.000166636
0.000169033
0.000171805
0.00017485
0.000178058
0.000181344
0.000184716
0.000188062
0.000191219
0.000194292
0.00019755
0.000201219
0.000205459
0.000210298
0.0002156
0.000221081
0.000226365
0.000231026
0.00023469
0.000237168
0.000238531
0.000239057
0.000239137
0.000165197
0.000164968
0.000164556
0.000164065
0.000163651
0.000163491
0.000163747
0.00016453
0.000165897
0.000167858
0.000170379
0.000173389
0.000176783
0.000180443
0.000184272
0.00018825
0.000192139
0.00019562
0.000198765
0.000201861
0.000205149
0.000208821
0.000212973
0.000217569
0.000222436
0.000227292
0.000231772
0.000235494
0.000238171
0.000239741
0.000240402
0.000240524
0.000169676
0.00016932
0.000168698
0.000167967
0.000167324
0.000166979
0.000167131
0.000167924
0.000169415
0.000171597
0.00017441
0.000177748
0.000181476
0.00018546
0.000189591
0.000193834
0.000197893
0.000201385
0.000204384
0.000207182
0.000210016
0.00021308
0.000216502
0.000220313
0.000224436
0.000228688
0.000232784
0.000236368
0.000239107
0.000240826
0.000241611
0.000241781
0.000175829
0.000175351
0.000174607
0.000173825
0.000173214
0.000172962
0.000173269
0.000174276
0.000176021
0.000178467
0.000181519
0.00018504
0.000188876
0.000192887
0.000196968
0.000201085
0.00020494
0.000208166
0.000210838
0.000213235
0.000215574
0.000218029
0.000220731
0.000223745
0.000227061
0.000230584
0.000234124
0.000237385
0.00024003
0.000241808
0.00024269
0.000242912
0.00018374
0.000183193
0.000182536
0.000182038
0.000181826
0.00018199
0.000182667
0.000183966
0.000185905
0.00018844
0.000191469
0.000194854
0.000198448
0.000202127
0.000205801
0.000209446
0.000212799
0.000215552
0.000217776
0.000219715
0.00022155
0.000223428
0.000225461
0.000227723
0.000230237
0.000232976
0.000235836
0.00023861
0.000241
0.000242722
0.000243651
0.000243919
0.000193515
0.000193025
0.000192773
0.000192909
0.000193357
0.000194074
0.000195124
0.00019658
0.000198477
0.000200793
0.000203454
0.000206351
0.000209368
0.000212406
0.000215398
0.000218326
0.000220986
0.000223142
0.000224855
0.000226317
0.00022767
0.000229022
0.000230463
0.000232054
0.000233832
0.000235802
0.000237928
0.000240091
0.000242074
0.000243607
0.000244509
0.000244807
0.000205395
0.000205193
0.000205636
0.000206482
0.000207478
0.000208541
0.000209704
0.000211034
0.000212592
0.000214394
0.000216403
0.000218552
0.000220761
0.000222965
0.000225115
0.0002272
0.000229078
0.000230588
0.000231775
0.000232773
0.00023368
0.00023457
0.000235504
0.000236527
0.000237669
0.000238946
0.000240355
0.000241848
0.0002433
0.000244509
0.000245287
0.000245579
0.000219872
0.000220205
0.000221177
0.000222235
0.000223242
0.000224177
0.000225072
0.000225985
0.000226979
0.000228085
0.000229294
0.000230575
0.000231884
0.000233182
0.000234443
0.000235659
0.000236748
0.00023762
0.000238301
0.000238869
0.000239378
0.000239871
0.000240382
0.000240936
0.000241553
0.000242244
0.000243015
0.000243854
0.00024471
0.000245474
0.000246015
0.000246246
0.000237556
0.000237826
0.000238339
0.000238814
0.000239235
0.000239605
0.000239939
0.000240261
0.000240597
0.000240963
0.000241359
0.000241777
0.000242203
0.000242625
0.000243034
0.000243426
0.000243778
0.000244058
0.000244277
0.000244458
0.000244619
0.000244774
0.000244934
0.000245106
0.000245297
0.00024551
0.000245748
0.000246009
0.000246282
0.000246538
0.000246733
0.000246828
)
;


// ************************************************************************* //
