/*--------------------------------*- C++ -*----------------------------------*\
| =========                 |                                                 |
| \\      /  F ield         | OpenFOAM: The Open Source CFD Toolbox           |
|  \\    /   O peration     | Version:  2212                                  |
|   \\  /    A nd           | Website:  www.openfoam.com                      |
|    \\/     M anipulation  |                                                 |
\*---------------------------------------------------------------------------*/
FoamFile
{
    version     2.0;
    format      ascii;
    arch        "LSB;label=64;scalar=64";
    class       volScalarField;
    location    "1350";
    object      Gch4;
}
// * * * * * * * * * * * * * * * * * * * * * * * * * * * * * * * * * * * * * //

dimensions      [1 -3 0 0 0 0 0];

internalField   nonuniform List<scalar> 
1024
(
1.94025
1.9401
1.93974
1.93908
1.93804
1.93653
1.93453
1.93206
1.92921
1.92619
1.92323
1.92063
1.91866
1.91749
1.9172
1.91784
1.9195
1.92212
1.92543
1.92927
1.93347
1.93778
1.94194
1.94573
1.94896
1.95155
1.95352
1.95493
1.95588
1.95646
1.95678
1.95691
1.94021
1.94006
1.93969
1.93902
1.93796
1.93643
1.9344
1.93189
1.92901
1.92596
1.92299
1.92038
1.91841
1.91725
1.91697
1.91762
1.91928
1.9219
1.92521
1.92906
1.93326
1.93758
1.94176
1.94558
1.94884
1.95146
1.95345
1.95488
1.95584
1.95643
1.95676
1.95689
1.94012
1.93996
1.93958
1.93889
1.93779
1.9362
1.9341
1.93152
1.92857
1.92544
1.9224
1.91975
1.91779
1.91665
1.91641
1.91707
1.91876
1.92139
1.92473
1.92859
1.93281
1.93716
1.94139
1.94525
1.94857
1.95126
1.9533
1.95477
1.95575
1.95636
1.95669
1.95683
1.93996
1.9398
1.9394
1.93867
1.93751
1.93584
1.93364
1.93093
1.92783
1.92455
1.92136
1.91861
1.91663
1.91555
1.91537
1.9161
1.91784
1.92054
1.92393
1.92786
1.93212
1.93652
1.9408
1.94475
1.94816
1.95093
1.95305
1.95458
1.9556
1.95624
1.95658
1.95672
1.93971
1.93955
1.93912
1.93835
1.93712
1.93534
1.93298
1.93007
1.92673
1.92317
1.91971
1.91677
1.91475
1.91374
1.91368
1.91453
1.9164
1.91925
1.92279
1.92683
1.93119
1.93567
1.94004
1.94409
1.94761
1.9505
1.95272
1.95431
1.95539
1.95606
1.95642
1.95656
1.93937
1.93919
1.93875
1.93792
1.93661
1.93469
1.93212
1.92892
1.9252
1.9212
1.91731
1.91407
1.91195
1.91104
1.91116
1.91221
1.9143
1.91742
1.92125
1.92553
1.93006
1.93467
1.93917
1.94333
1.94698
1.94999
1.95231
1.95399
1.95512
1.95582
1.9562
1.95635
1.9389
1.93872
1.93825
1.93737
1.93595
1.93386
1.93101
1.92741
1.92316
1.91854
1.91404
1.91034
1.90806
1.90724
1.90759
1.90892
1.91137
1.91495
1.91926
1.92395
1.92879
1.93361
1.93827
1.94258
1.94635
1.94947
1.95188
1.95363
1.95481
1.95553
1.95592
1.95608
1.93827
1.93808
1.93759
1.93666
1.93512
1.93281
1.92961
1.92549
1.92053
1.91508
1.90978
1.9055
1.90296
1.90219
1.90279
1.90448
1.90743
1.9117
1.91676
1.92211
1.92743
1.9326
1.93748
1.94194
1.94582
1.94902
1.95149
1.95328
1.95447
1.9552
1.9556
1.95575
1.93744
1.93724
1.93672
1.93572
1.93404
1.93147
1.92783
1.92304
1.91719
1.91071
1.90444
1.89946
1.89657
1.8958
1.8966
1.89867
1.90226
1.90749
1.91362
1.91995
1.92603
1.9317
1.93689
1.94153
1.9455
1.94872
1.95119
1.95295
1.95412
1.95482
1.95519
1.95534
1.9363
1.93609
1.93554
1.93445
1.9326
1.92971
1.92553
1.91993
1.913
1.90531
1.89794
1.89216
1.88885
1.88795
1.88883
1.8912
1.8955
1.90193
1.9095
1.91721
1.92438
1.93081
1.93646
1.94132
1.94535
1.94854
1.95091
1.95257
1.95364
1.95426
1.95458
1.9547
1.93471
1.93449
1.93389
1.9327
1.93062
1.92733
1.92249
1.91591
1.90773
1.89869
1.89011
1.88349
1.87966
1.87844
1.87913
1.88153
1.88641
1.89409
1.90337
1.91289
1.92164
1.92921
1.93559
1.94082
1.94496
1.94808
1.95029
1.95175
1.95262
1.95308
1.95327
1.95333
1.93246
1.93222
1.93156
1.93022
1.92785
1.92404
1.91839
1.91066
1.90106
1.89055
1.88075
1.87323
1.86872
1.86683
1.86679
1.86861
1.87342
1.88181
1.89255
1.90407
1.91494
1.92434
1.93207
1.93816
1.94269
1.94587
1.94792
1.94908
1.94963
1.9498
1.94978
1.94972
1.92926
1.92899
1.92824
1.92669
1.92393
1.91946
1.91281
1.90375
1.8926
1.88059
1.86956
1.86106
1.85556
1.85237
1.85072
1.85077
1.85396
1.86132
1.87201
1.88455
1.89736
1.90918
1.91928
1.92732
1.9332
1.93708
1.93932
1.94033
1.94055
1.94035
1.94004
1.93982
1.92474
1.92444
1.92356
1.92173
1.91845
1.91314
1.90529
1.89473
1.882
1.86857
1.85637
1.84676
1.83976
1.83445
1.83003
1.82669
1.82585
1.82901
1.83614
1.84633
1.85839
1.87108
1.88325
1.89404
1.90277
1.90909
1.9131
1.91516
1.91583
1.91574
1.91539
1.91512
1.91869
1.91834
1.91732
1.91518
1.91133
1.90516
1.89617
1.88433
1.87037
1.85585
1.84255
1.83151
1.8225
1.81451
1.80678
1.79922
1.79282
1.78909
1.78875
1.79167
1.79756
1.80585
1.81581
1.82649
1.83691
1.84618
1.85363
1.85891
1.86212
1.86371
1.86429
1.86437
1.91164
1.91127
1.91019
1.90791
1.90384
1.89736
1.888
1.8758
1.86145
1.84634
1.83204
1.81951
1.80871
1.79888
1.78936
1.77976
1.77032
1.76161
1.7542
1.7485
1.74502
1.74411
1.74588
1.75013
1.75638
1.76381
1.77141
1.77822
1.78356
1.78714
1.78909
1.78983
1.9052
1.90486
1.90386
1.90175
1.89798
1.89196
1.88323
1.87176
1.85807
1.84328
1.82881
1.81581
1.80471
1.79531
1.78724
1.7801
1.77332
1.76573
1.75689
1.74729
1.73782
1.72942
1.72281
1.71844
1.71649
1.71681
1.71891
1.72207
1.72542
1.72821
1.73004
1.73086
1.90053
1.90023
1.89938
1.8976
1.89439
1.88923
1.88167
1.87155
1.85922
1.84555
1.83179
1.81918
1.80857
1.80031
1.79441
1.7906
1.78787
1.78368
1.77654
1.76662
1.75494
1.74284
1.73155
1.72198
1.71466
1.70973
1.707
1.70604
1.70627
1.70703
1.70778
1.7082
1.89743
1.89719
1.89649
1.89504
1.89243
1.88819
1.88189
1.87331
1.86262
1.85044
1.83784
1.82599
1.81595
1.80839
1.80358
1.80139
1.80066
1.79848
1.79287
1.78347
1.77089
1.75647
1.74184
1.7285
1.7175
1.70932
1.7039
1.70082
1.69947
1.69917
1.69933
1.69951
1.89536
1.89516
1.89461
1.89346
1.89139
1.88798
1.88287
1.87578
1.86677
1.85626
1.84507
1.83425
1.82483
1.81758
1.81293
1.8108
1.81008
1.80813
1.80314
1.79443
1.78214
1.7671
1.75078
1.73484
1.72084
1.70974
1.70187
1.69699
1.69445
1.69349
1.69335
1.69344
1.8938
1.89366
1.89326
1.89239
1.89078
1.88811
1.88402
1.87828
1.87084
1.862
1.85236
1.84273
1.83398
1.82684
1.82173
1.81858
1.81646
1.81337
1.80794
1.79945
1.7877
1.77307
1.75652
1.73951
1.7237
1.71044
1.70048
1.69388
1.69016
1.68852
1.68809
1.68813
1.8921
1.89205
1.89184
1.8913
1.89018
1.88818
1.885
1.88042
1.87438
1.86706
1.85886
1.85035
1.84218
1.8349
1.82884
1.82392
1.81954
1.81456
1.80809
1.79942
1.78815
1.77433
1.75848
1.74166
1.72528
1.71079
1.69929
1.69122
1.68638
1.68405
1.68332
1.68328
1.88936
1.88945
1.88955
1.88947
1.88894
1.88766
1.88534
1.88178
1.87689
1.87077
1.86365
1.85589
1.84788
1.84003
1.83257
1.82546
1.81854
1.81154
1.80395
1.79507
1.78436
1.77158
1.75694
1.74112
1.7252
1.71044
1.69807
1.68889
1.68304
1.68003
1.67896
1.67884
1.88446
1.88478
1.88533
1.88589
1.88613
1.8857
1.88424
1.88152
1.87743
1.87199
1.86531
1.8576
1.84914
1.84025
1.83116
1.82186
1.81269
1.80406
1.7957
1.78686
1.77693
1.76546
1.7524
1.73811
1.72334
1.70912
1.69659
1.68674
1.68008
1.67642
1.675
1.67478
1.87631
1.87693
1.87806
1.87939
1.8805
1.88091
1.88018
1.87798
1.87418
1.86873
1.86175
1.85342
1.84404
1.83394
1.82338
1.81245
1.80179
1.79228
1.78371
1.7753
1.76639
1.75645
1.74524
1.73284
1.71972
1.70665
1.69461
1.6846
1.67741
1.67319
1.67142
1.67108
1.8641
1.86507
1.86676
1.86875
1.87049
1.87142
1.87097
1.86877
1.86464
1.85862
1.85087
1.84167
1.83141
1.82045
1.80909
1.79744
1.78633
1.77679
1.76861
1.76101
1.75332
1.74502
1.73577
1.72548
1.71437
1.70292
1.69191
1.68228
1.67492
1.6703
1.6682
1.66773
1.84734
1.84864
1.85067
1.8528
1.85446
1.85513
1.85428
1.8515
1.8467
1.83998
1.8316
1.82193
1.8114
1.80039
1.78919
1.7779
1.76735
1.75854
1.75125
1.74473
1.73837
1.73172
1.72441
1.71627
1.70734
1.69785
1.68832
1.67956
1.67246
1.66769
1.66532
1.66472
1.82581
1.8273
1.82909
1.83045
1.83102
1.83057
1.82872
1.82516
1.81985
1.8129
1.8046
1.79533
1.78548
1.77539
1.76532
1.75534
1.74616
1.73864
1.73257
1.72729
1.7223
1.71721
1.71171
1.7056
1.69882
1.69144
1.68374
1.67629
1.66987
1.66525
1.66276
1.66204
1.79922
1.80056
1.80124
1.80088
1.79966
1.79771
1.79484
1.79087
1.78568
1.77935
1.77207
1.76414
1.75588
1.74756
1.73936
1.73134
1.72407
1.71817
1.7135
1.70951
1.70584
1.70217
1.69827
1.69397
1.68917
1.68386
1.67814
1.67233
1.667
1.66289
1.66047
1.65967
1.76692
1.76747
1.76626
1.76397
1.76126
1.75837
1.75521
1.75158
1.74733
1.74241
1.73691
1.73104
1.72499
1.71896
1.71307
1.70736
1.70222
1.6981
1.69486
1.69213
1.68967
1.68725
1.68472
1.68196
1.67888
1.67543
1.67164
1.66763
1.66373
1.66049
1.6584
1.65762
1.72757
1.72666
1.72402
1.72115
1.71841
1.71587
1.71344
1.71095
1.70824
1.70522
1.70191
1.69841
1.69483
1.69128
1.68783
1.6845
1.68152
1.67913
1.67727
1.67573
1.67434
1.673
1.67162
1.67012
1.66845
1.66659
1.66452
1.66226
1.65996
1.65791
1.65646
1.65585
1.67951
1.67878
1.67739
1.67609
1.67495
1.67394
1.67304
1.67216
1.67124
1.67024
1.66916
1.66802
1.66685
1.6657
1.66458
1.66351
1.66255
1.66178
1.66118
1.66069
1.66025
1.65983
1.65939
1.65893
1.65841
1.65784
1.6572
1.6565
1.65576
1.65508
1.65455
1.6543
)
;

boundaryField
{
    movingWall
    {
        type            fixedValue;
        value           uniform 1.6535;
    }
    fixedWalls
    {
        type            zeroGradient;
    }
    floor
    {
        type            zeroGradient;
    }
    frontAndBack
    {
        type            empty;
    }
}


// ************************************************************************* //
