/*--------------------------------*- C++ -*----------------------------------*\
| =========                 |                                                 |
| \\      /  F ield         | OpenFOAM: The Open Source CFD Toolbox           |
|  \\    /   O peration     | Version:  2212                                  |
|   \\  /    A nd           | Website:  www.openfoam.com                      |
|    \\/     M anipulation  |                                                 |
\*---------------------------------------------------------------------------*/
FoamFile
{
    version     2.0;
    format      ascii;
    arch        "LSB;label=64;scalar=64";
    class       volScalarField;
    location    "1350";
    object      p_rgh;
}
// * * * * * * * * * * * * * * * * * * * * * * * * * * * * * * * * * * * * * //

dimensions      [0 2 -2 0 0 0 0];

internalField   nonuniform List<scalar> 
1024
(
0.0431945
0.0431927
0.0431909
0.0431906
0.0431931
0.0431995
0.0432106
0.0432273
0.0432495
0.0432737
0.0432901
0.0432895
0.0432652
0.0432215
0.0431663
0.0431035
0.0430342
0.042966
0.042911
0.0428737
0.0428514
0.0428391
0.0428327
0.0428294
0.0428276
0.0428267
0.0428263
0.0428265
0.0428274
0.0428288
0.0428301
0.0428309
0.0431978
0.043196
0.0431945
0.0431947
0.0431974
0.0432037
0.0432145
0.0432308
0.0432525
0.0432764
0.0432924
0.0432919
0.0432681
0.0432247
0.0431696
0.0431066
0.0430373
0.0429691
0.0429142
0.0428771
0.0428548
0.0428424
0.0428358
0.0428324
0.0428305
0.0428294
0.0428289
0.042829
0.0428296
0.0428307
0.0428318
0.0428326
0.0432032
0.0432011
0.0431998
0.0432005
0.0432039
0.0432106
0.0432217
0.0432383
0.0432606
0.0432848
0.043301
0.0433006
0.0432771
0.0432336
0.0431783
0.0431149
0.0430452
0.0429765
0.0429212
0.0428838
0.0428613
0.0428487
0.0428418
0.042838
0.0428358
0.0428343
0.0428334
0.0428331
0.0428333
0.042834
0.0428351
0.0428362
0.043209
0.0432066
0.0432054
0.0432069
0.0432114
0.0432195
0.0432322
0.0432505
0.0432746
0.0433004
0.0433173
0.043317
0.0432933
0.0432495
0.0431938
0.0431298
0.0430593
0.0429896
0.0429331
0.0428948
0.0428716
0.0428584
0.042851
0.0428466
0.0428437
0.0428416
0.0428399
0.0428388
0.0428384
0.0428388
0.0428401
0.0428415
0.043213
0.0432105
0.0432098
0.0432126
0.0432192
0.0432299
0.0432456
0.0432671
0.0432942
0.043322
0.0433397
0.0433394
0.0433156
0.0432718
0.0432161
0.0431519
0.0430805
0.0430092
0.0429505
0.0429106
0.0428863
0.0428722
0.0428639
0.0428586
0.0428546
0.0428513
0.0428483
0.042846
0.0428447
0.0428447
0.0428461
0.0428479
0.0432124
0.0432103
0.0432107
0.0432155
0.0432252
0.04324
0.0432604
0.0432865
0.0433171
0.0433466
0.0433646
0.0433638
0.0433402
0.0432974
0.043243
0.0431795
0.0431078
0.0430349
0.0429733
0.0429311
0.0429052
0.0428899
0.0428803
0.0428735
0.042868
0.0428628
0.0428579
0.0428539
0.0428513
0.0428506
0.0428519
0.042854
0.043205
0.0432037
0.0432057
0.0432132
0.0432271
0.0432476
0.0432741
0.0433058
0.0433399
0.0433704
0.0433878
0.0433859
0.0433628
0.043322
0.0432701
0.0432088
0.0431379
0.0430637
0.0429993
0.0429544
0.0429268
0.0429099
0.0428987
0.0428899
0.0428821
0.0428743
0.0428667
0.0428603
0.0428559
0.0428542
0.0428552
0.0428573
0.0431897
0.0431896
0.0431935
0.0432043
0.0432233
0.0432504
0.0432842
0.0433222
0.0433598
0.043391
0.0434073
0.0434034
0.0433803
0.0433417
0.0432931
0.0432348
0.0431653
0.0430906
0.0430243
0.0429765
0.0429475
0.0429293
0.0429161
0.0429047
0.0428937
0.0428824
0.0428713
0.0428619
0.0428554
0.0428523
0.0428526
0.0428544
0.0431676
0.0431685
0.0431744
0.0431887
0.0432132
0.0432476
0.0432894
0.0433344
0.0433766
0.0434092
0.043424
0.0434173
0.043393
0.0433557
0.0433097
0.043254
0.0431856
0.04311
0.043042
0.0429921
0.0429623
0.0429434
0.0429281
0.0429136
0.0428986
0.042883
0.042868
0.0428553
0.0428465
0.0428421
0.0428415
0.0428426
0.0431406
0.0431425
0.0431502
0.0431678
0.0431978
0.0432398
0.0432905
0.0433439
0.0433931
0.0434286
0.0434418
0.0434311
0.0434035
0.0433656
0.0433208
0.0432667
0.0431981
0.0431195
0.0430481
0.042997
0.0429663
0.0429476
0.0429305
0.0429126
0.0428933
0.0428732
0.0428543
0.0428389
0.0428286
0.0428233
0.0428218
0.0428221
0.0431109
0.0431135
0.0431228
0.0431435
0.043179
0.0432292
0.0432902
0.0433549
0.043414
0.0434539
0.0434649
0.0434491
0.0434166
0.043376
0.0433301
0.0432757
0.0432065
0.043126
0.0430491
0.0429906
0.0429574
0.0429398
0.0429213
0.0429005
0.0428776
0.0428542
0.0428329
0.0428165
0.042806
0.0428007
0.0427987
0.0427983
0.0430791
0.0430822
0.0430931
0.0431172
0.0431588
0.0432188
0.0432931
0.0433728
0.0434439
0.0434881
0.0434957
0.0434742
0.0434369
0.0433931
0.0433456
0.0432912
0.0432234
0.0431431
0.0430617
0.0429931
0.0429501
0.0429264
0.042906
0.0428837
0.0428594
0.0428357
0.0428151
0.0427999
0.0427905
0.0427858
0.0427838
0.042783
0.0430443
0.0430478
0.0430606
0.0430892
0.0431391
0.0432126
0.0433052
0.0434034
0.0434845
0.0435302
0.0435337
0.043508
0.0434688
0.0434249
0.0433792
0.0433296
0.0432717
0.0432041
0.043133
0.0430647
0.0430032
0.0429509
0.0429169
0.0428904
0.0428638
0.0428399
0.04282
0.042806
0.0427982
0.042795
0.0427941
0.0427938
0.0430058
0.0430098
0.0430255
0.0430613
0.043125
0.0432201
0.04334
0.0434621
0.0435529
0.0435914
0.0435891
0.0435632
0.0435268
0.0434866
0.043447
0.0434103
0.0433742
0.0433387
0.0433049
0.0432728
0.043237
0.043188
0.0431175
0.0430384
0.0429733
0.0429324
0.0429001
0.0428786
0.0428687
0.0428667
0.0428682
0.0428697
0.0429574
0.042962
0.0429813
0.0430266
0.0431083
0.0432297
0.0433779
0.0435206
0.0436213
0.0436672
0.043672
0.0436548
0.0436272
0.0435945
0.0435591
0.043526
0.0435101
0.0435089
0.0435215
0.0435461
0.0435755
0.0435984
0.0436008
0.0435683
0.0434901
0.0433732
0.0432566
0.0431673
0.0431243
0.0431077
0.0431046
0.0431059
0.0428762
0.0428808
0.0429015
0.0429524
0.0430459
0.0431844
0.0433506
0.0435081
0.043623
0.0436854
0.043708
0.0437071
0.0436931
0.0436704
0.0436416
0.043611
0.0435903
0.0435952
0.0436224
0.0436687
0.0437286
0.0437941
0.0438548
0.0439002
0.043922
0.0439149
0.0438773
0.0438129
0.0437305
0.0436644
0.0436272
0.0436145
0.0427657
0.0427686
0.042786
0.0428336
0.0429264
0.043069
0.0432449
0.0434175
0.0435518
0.0436352
0.0436767
0.0436913
0.0436892
0.0436744
0.0436495
0.0436195
0.0435951
0.0435904
0.0436053
0.0436372
0.0436836
0.0437413
0.0438041
0.0438644
0.0439147
0.0439494
0.043967
0.0439693
0.0439606
0.0439461
0.0439315
0.0439214
0.0426779
0.0426778
0.0426883
0.042725
0.0428052
0.0429395
0.0431155
0.0432996
0.0434545
0.0435603
0.043621
0.0436502
0.0436588
0.0436527
0.0436356
0.0436145
0.0436015
0.043593
0.0435935
0.0436024
0.0436201
0.043648
0.0436863
0.0437314
0.043777
0.0438161
0.043844
0.0438596
0.0438655
0.043865
0.0438609
0.0438564
0.0426472
0.0426439
0.0426464
0.0426698
0.0427316
0.0428443
0.0430039
0.0431872
0.0433619
0.04349
0.0435703
0.043614
0.0436329
0.043635
0.0436263
0.0436148
0.0436157
0.0436153
0.0436137
0.043612
0.0436092
0.0436091
0.0436171
0.0436361
0.0436642
0.043695
0.0437216
0.0437397
0.0437488
0.0437511
0.0437488
0.0437446
0.0426702
0.0426637
0.0426581
0.0426678
0.0427104
0.0427997
0.0429372
0.0431071
0.0432811
0.043425
0.0435247
0.0435836
0.0436122
0.0436201
0.0436152
0.0436073
0.0436108
0.043622
0.0436314
0.0436355
0.0436308
0.0436198
0.0436076
0.0436034
0.0436118
0.0436302
0.0436517
0.0436692
0.0436793
0.0436824
0.0436801
0.0436754
0.0427316
0.042722
0.0427088
0.0427056
0.0427298
0.0427964
0.0429105
0.0430615
0.0432257
0.0433729
0.0434834
0.0435535
0.0435896
0.043601
0.0435967
0.0435875
0.043588
0.0436031
0.0436226
0.0436403
0.0436508
0.0436508
0.0436353
0.0436195
0.0436143
0.0436231
0.0436406
0.0436581
0.0436697
0.0436738
0.0436713
0.0436658
0.0428148
0.0428027
0.0427832
0.042769
0.042777
0.0428234
0.0429158
0.0430468
0.0431959
0.0433366
0.0434478
0.0435217
0.043561
0.043573
0.0435671
0.043555
0.0435521
0.0435686
0.0435956
0.0436253
0.0436512
0.0436677
0.0436714
0.0436666
0.043658
0.0436647
0.0436841
0.0437065
0.0437229
0.0437297
0.0437276
0.043721
0.0429057
0.0428917
0.0428676
0.0428449
0.0428403
0.042871
0.0429456
0.0430586
0.0431909
0.0433182
0.0434208
0.0434898
0.0435258
0.043535
0.0435259
0.0435104
0.043505
0.0435217
0.043555
0.0435946
0.0436344
0.0436694
0.0436962
0.0437154
0.04373
0.0437471
0.0437763
0.0438119
0.0438403
0.0438542
0.0438539
0.0438464
0.0429926
0.0429774
0.0429505
0.0429226
0.0429102
0.042931
0.0429937
0.0430923
0.0432077
0.0433174
0.0434039
0.0434602
0.0434867
0.0434887
0.0434745
0.0434554
0.0434481
0.0434651
0.0435027
0.0435501
0.0436026
0.043656
0.0437081
0.0437589
0.0438094
0.0438609
0.0439149
0.0439731
0.0440243
0.0440533
0.0440583
0.0440512
0.0430662
0.0430501
0.0430224
0.0429938
0.04298
0.0429977
0.0430546
0.043143
0.0432422
0.0433312
0.0433967
0.0434342
0.0434461
0.0434373
0.0434155
0.0433918
0.0433824
0.0433995
0.0434394
0.0434933
0.043557
0.0436286
0.0437074
0.0437945
0.0438898
0.0439914
0.0440936
0.0441906
0.0442773
0.0443348
0.0443525
0.0443496
0.0431213
0.043104
0.0430774
0.0430539
0.0430463
0.0430679
0.0431246
0.0432056
0.0432887
0.0433554
0.0433966
0.0434119
0.0434054
0.0433825
0.0433508
0.043321
0.0433089
0.0433256
0.0433662
0.043426
0.0435001
0.0435891
0.0436952
0.0438208
0.0439668
0.0441292
0.044298
0.0444589
0.0445988
0.044705
0.0447506
0.0447603
0.0431534
0.0431352
0.043113
0.043101
0.0431084
0.0431398
0.0431999
0.0432749
0.043341
0.043384
0.0433995
0.0433906
0.0433634
0.0433245
0.0432812
0.0432443
0.0432292
0.0432454
0.0432879
0.0433523
0.043436
0.0435413
0.0436732
0.0438369
0.0440348
0.0442638
0.0445116
0.0447584
0.0449811
0.0451618
0.0452631
0.045302
0.0431526
0.0431372
0.0431267
0.0431356
0.0431655
0.043212
0.0432764
0.0433442
0.0433921
0.0434104
0.0433998
0.0433663
0.0433183
0.043263
0.043208
0.0431643
0.0431469
0.0431634
0.0432083
0.0432775
0.0433701
0.04349
0.0436448
0.0438425
0.0440885
0.0443823
0.0447136
0.0450622
0.0453991
0.0456896
0.0458888
0.0459871
0.043095
0.0430955
0.0431145
0.0431585
0.0432174
0.0432815
0.0433496
0.0434073
0.0434351
0.043429
0.0433936
0.0433374
0.0432703
0.0432003
0.0431355
0.0430867
0.0430686
0.0430864
0.0431343
0.0432085
0.043309
0.0434408
0.0436138
0.0438384
0.0441233
0.0444721
0.0448808
0.0453356
0.0458116
0.0462653
0.046619
0.0468473
0.0429264
0.042991
0.0430821
0.0431789
0.0432677
0.0433482
0.0434162
0.04346
0.0434677
0.0434393
0.0433823
0.043307
0.0432245
0.0431433
0.0430716
0.04302
0.0430025
0.0430224
0.0430735
0.0431521
0.0432586
0.0433989
0.0435842
0.043827
0.0441381
0.0445255
0.0449931
0.0455409
0.0461631
0.0468327
0.0474647
0.0480172
0.0424464
0.0428311
0.0430698
0.0432216
0.0433306
0.0434163
0.0434768
0.0435049
0.0434941
0.043447
0.0433728
0.0432833
0.0431899
0.0431013
0.0430254
0.0429727
0.0429564
0.0429782
0.0430318
0.0431133
0.0432232
0.043368
0.0435596
0.0438112
0.0441351
0.0445421
0.0450427
0.0456516
0.0463934
0.0473036
0.0484126
0.0496729
0.0414323
0.0426656
0.0431311
0.0432872
0.0433928
0.0434742
0.0435242
0.0435393
0.0435152
0.0434558
0.0433711
0.0432732
0.0431735
0.0430809
0.043003
0.0429498
0.0429341
0.0429569
0.0430115
0.0430942
0.0432052
0.0433513
0.0435444
0.043798
0.0441246
0.0445364
0.0450477
0.0456844
0.0465003
0.0476038
0.0492142
0.0514791
)
;

boundaryField
{
    movingWall
    {
        type            fixedFluxPressure;
        gradient        uniform 0;
        value           nonuniform List<scalar> 
32
(
0.0414323
0.0426656
0.0431311
0.0432872
0.0433928
0.0434742
0.0435242
0.0435393
0.0435152
0.0434558
0.0433711
0.0432732
0.0431735
0.0430809
0.043003
0.0429498
0.0429341
0.0429569
0.0430115
0.0430942
0.0432052
0.0433513
0.0435444
0.043798
0.0441246
0.0445364
0.0450477
0.0456844
0.0465003
0.0476038
0.0492142
0.0514791
)
;
    }
    fixedWalls
    {
        type            fixedFluxPressure;
        gradient        uniform 0;
        value           nonuniform List<scalar> 
64
(
0.0431945
0.0431978
0.0432032
0.043209
0.043213
0.0432124
0.043205
0.0431897
0.0431676
0.0431406
0.0431109
0.0430791
0.0430443
0.0430058
0.0429574
0.0428762
0.0427657
0.0426779
0.0426472
0.0426702
0.0427316
0.0428148
0.0429057
0.0429926
0.0430662
0.0431213
0.0431534
0.0431526
0.043095
0.0429264
0.0424464
0.0414323
0.0428309
0.0428326
0.0428362
0.0428415
0.0428479
0.042854
0.0428573
0.0428544
0.0428426
0.0428221
0.0427983
0.042783
0.0427938
0.0428697
0.0431059
0.0436145
0.0439214
0.0438564
0.0437446
0.0436754
0.0436658
0.043721
0.0438464
0.0440512
0.0443496
0.0447603
0.045302
0.0459871
0.0468473
0.0480172
0.0496729
0.0514791
)
;
    }
    floor
    {
        type            fixedFluxPressure;
        gradient        uniform 0;
        value           nonuniform List<scalar> 
32
(
0.0431945
0.0431927
0.0431909
0.0431906
0.0431931
0.0431995
0.0432106
0.0432273
0.0432495
0.0432737
0.0432901
0.0432895
0.0432652
0.0432215
0.0431663
0.0431035
0.0430342
0.042966
0.042911
0.0428737
0.0428514
0.0428391
0.0428327
0.0428294
0.0428276
0.0428267
0.0428263
0.0428265
0.0428274
0.0428288
0.0428301
0.0428309
)
;
    }
    frontAndBack
    {
        type            empty;
    }
}


// ************************************************************************* //
