/*--------------------------------*- C++ -*----------------------------------*\
| =========                 |                                                 |
| \\      /  F ield         | OpenFOAM: The Open Source CFD Toolbox           |
|  \\    /   O peration     | Version:  2212                                  |
|   \\  /    A nd           | Website:  www.openfoam.com                      |
|    \\/     M anipulation  |                                                 |
\*---------------------------------------------------------------------------*/
FoamFile
{
    version     2.0;
    format      ascii;
    arch        "LSB;label=64;scalar=64";
    class       volScalarField;
    location    "1350";
    object      Saa;
}
// * * * * * * * * * * * * * * * * * * * * * * * * * * * * * * * * * * * * * //

dimensions      [1 -3 0 0 0 0 0];

internalField   nonuniform List<scalar> 
1024
(
0.0054616
0.00546164
0.00546171
0.00546185
0.00546206
0.00546236
0.00546277
0.00546327
0.00546385
0.00546445
0.00546504
0.00546554
0.00546591
0.00546611
0.00546611
0.00546591
0.0054655
0.0054649
0.00546418
0.00546335
0.00546245
0.00546152
0.00546062
0.00545979
0.00545907
0.0054585
0.00545806
0.00545775
0.00545753
0.0054574
0.00545733
0.0054573
0.00546161
0.00546164
0.00546172
0.00546186
0.00546207
0.00546239
0.0054628
0.00546331
0.00546389
0.00546449
0.00546508
0.00546559
0.00546596
0.00546615
0.00546616
0.00546596
0.00546554
0.00546494
0.00546422
0.00546339
0.00546249
0.00546156
0.00546065
0.00545982
0.0054591
0.00545852
0.00545807
0.00545776
0.00545754
0.00545741
0.00545734
0.00545731
0.00546163
0.00546166
0.00546174
0.00546188
0.00546211
0.00546243
0.00546286
0.00546338
0.00546397
0.0054646
0.00546519
0.00546571
0.00546608
0.00546626
0.00546626
0.00546605
0.00546563
0.00546503
0.00546431
0.00546348
0.00546258
0.00546165
0.00546073
0.00545989
0.00545915
0.00545856
0.00545811
0.00545778
0.00545756
0.00545742
0.00545735
0.00545732
0.00546166
0.0054617
0.00546178
0.00546193
0.00546216
0.0054625
0.00546295
0.0054635
0.00546412
0.00546477
0.0054654
0.00546593
0.00546629
0.00546647
0.00546645
0.00546623
0.0054658
0.00546518
0.00546445
0.00546362
0.00546271
0.00546177
0.00546085
0.00545999
0.00545924
0.00545863
0.00545816
0.00545782
0.00545759
0.00545745
0.00545737
0.00545734
0.00546171
0.00546175
0.00546183
0.00546199
0.00546224
0.0054626
0.00546308
0.00546366
0.00546433
0.00546504
0.00546571
0.00546627
0.00546664
0.0054668
0.00546675
0.0054665
0.00546604
0.00546541
0.00546465
0.0054638
0.00546288
0.00546193
0.005461
0.00546012
0.00545935
0.00545872
0.00545823
0.00545787
0.00545763
0.00545748
0.0054574
0.00545737
0.00546178
0.00546182
0.00546191
0.00546208
0.00546234
0.00546273
0.00546325
0.00546389
0.00546463
0.00546541
0.00546617
0.00546678
0.00546716
0.00546729
0.0054672
0.0054669
0.0054664
0.00546571
0.0054649
0.00546402
0.00546308
0.00546211
0.00546116
0.00546027
0.00545947
0.00545882
0.00545831
0.00545794
0.00545768
0.00545753
0.00545745
0.00545741
0.00546188
0.00546191
0.00546201
0.00546219
0.00546247
0.00546289
0.00546346
0.00546418
0.00546502
0.00546593
0.00546679
0.00546748
0.00546788
0.00546798
0.00546783
0.00546746
0.00546688
0.0054661
0.00546522
0.00546427
0.00546329
0.00546229
0.00546132
0.0054604
0.00545959
0.00545891
0.00545839
0.005458
0.00545774
0.00545758
0.0054575
0.00545746
0.005462
0.00546204
0.00546214
0.00546233
0.00546264
0.0054631
0.00546374
0.00546456
0.00546553
0.00546659
0.0054676
0.00546839
0.00546882
0.00546888
0.00546866
0.00546821
0.00546751
0.00546661
0.00546559
0.00546454
0.00546348
0.00546244
0.00546143
0.0054605
0.00545967
0.00545899
0.00545845
0.00545806
0.0054578
0.00545764
0.00545755
0.00545752
0.00546217
0.00546221
0.00546231
0.00546251
0.00546285
0.00546336
0.00546408
0.00546503
0.00546617
0.00546742
0.0054686
0.00546951
0.00546998
0.00547001
0.00546972
0.00546916
0.00546833
0.00546724
0.00546604
0.00546482
0.00546365
0.00546253
0.00546148
0.00546053
0.0054597
0.00545902
0.00545849
0.00545811
0.00545785
0.0054577
0.00545761
0.00545758
0.0054624
0.00546244
0.00546255
0.00546276
0.00546313
0.00546371
0.00546453
0.00546563
0.00546697
0.00546844
0.00546982
0.00547084
0.00547136
0.00547137
0.00547102
0.00547038
0.00546939
0.00546807
0.00546661
0.00546516
0.00546381
0.00546258
0.00546147
0.00546049
0.00545967
0.005459
0.0054585
0.00545815
0.00545791
0.00545777
0.0054577
0.00545767
0.00546271
0.00546276
0.00546288
0.00546311
0.00546352
0.00546417
0.00546512
0.0054664
0.00546798
0.00546969
0.00547127
0.00547242
0.00547298
0.00547301
0.00547264
0.00547195
0.00547082
0.00546926
0.00546749
0.00546573
0.00546412
0.0054627
0.00546149
0.00546047
0.00545965
0.00545901
0.00545855
0.00545825
0.00545805
0.00545795
0.0054579
0.00545788
0.00546316
0.00546321
0.00546334
0.00546361
0.00546407
0.00546482
0.00546592
0.00546741
0.00546925
0.00547121
0.00547299
0.00547426
0.0054749
0.00547499
0.00547471
0.00547407
0.00547292
0.00547121
0.00546917
0.00546705
0.00546508
0.00546336
0.00546194
0.0054608
0.00545993
0.00545931
0.0054589
0.00545865
0.00545853
0.00545848
0.00545847
0.00545848
0.00546381
0.00546386
0.005464
0.00546431
0.00546485
0.00546571
0.005467
0.00546874
0.00547085
0.00547307
0.00547503
0.00547643
0.0054772
0.00547749
0.00547746
0.00547709
0.00547619
0.00547461
0.00547255
0.00547024
0.00546792
0.0054658
0.00546399
0.00546254
0.00546147
0.00546075
0.00546033
0.00546013
0.00546007
0.0054601
0.00546014
0.00546018
0.00546471
0.00546477
0.00546494
0.00546529
0.00546593
0.00546695
0.00546846
0.00547047
0.00547285
0.00547531
0.00547744
0.00547901
0.00548001
0.00548065
0.0054811
0.00548131
0.00548106
0.00548016
0.00547865
0.0054767
0.00547449
0.00547222
0.00547008
0.00546818
0.00546665
0.00546555
0.00546484
0.00546448
0.00546435
0.00546437
0.00546443
0.00546447
0.00546593
0.00546599
0.00546619
0.0054666
0.00546734
0.00546852
0.00547023
0.00547247
0.00547507
0.00547771
0.00548003
0.00548184
0.00548321
0.00548434
0.00548538
0.00548631
0.00548697
0.00548716
0.00548683
0.00548601
0.00548478
0.00548322
0.00548144
0.00547958
0.00547781
0.00547624
0.00547499
0.00547411
0.00547358
0.00547332
0.00547322
0.00547321
0.00546736
0.00546743
0.00546763
0.00546806
0.00546884
0.00547008
0.00547186
0.00547417
0.00547685
0.00547961
0.00548215
0.00548428
0.00548603
0.00548755
0.00548895
0.00549026
0.0054914
0.00549232
0.00549299
0.00549341
0.00549355
0.00549336
0.00549284
0.00549201
0.00549092
0.0054897
0.00548849
0.00548741
0.00548658
0.00548602
0.00548572
0.00548561
0.0054687
0.00546877
0.00546895
0.00546935
0.00547007
0.00547122
0.00547289
0.00547508
0.00547766
0.00548042
0.00548307
0.00548539
0.00548731
0.00548888
0.00549016
0.00549117
0.00549193
0.00549262
0.00549337
0.00549417
0.00549497
0.00549567
0.00549622
0.00549655
0.00549665
0.00549651
0.00549617
0.00549573
0.00549527
0.00549489
0.00549465
0.00549454
0.00546973
0.00546978
0.00546994
0.00547027
0.00547088
0.00547187
0.00547332
0.00547528
0.00547765
0.00548026
0.00548286
0.00548521
0.00548717
0.00548868
0.00548974
0.00549036
0.00549063
0.00549088
0.00549138
0.00549214
0.00549307
0.00549405
0.00549498
0.00549578
0.00549641
0.00549686
0.00549713
0.00549725
0.00549726
0.00549721
0.00549716
0.00549712
0.00547046
0.0054705
0.00547062
0.00547089
0.00547138
0.00547219
0.00547342
0.00547509
0.00547717
0.00547955
0.005482
0.00548429
0.00548625
0.00548774
0.00548872
0.00548919
0.00548926
0.00548932
0.00548969
0.00549042
0.00549146
0.00549267
0.00549389
0.005495
0.00549592
0.00549661
0.00549708
0.00549738
0.00549754
0.00549761
0.00549764
0.00549764
0.00547099
0.00547102
0.00547112
0.00547132
0.00547171
0.00547236
0.00547335
0.00547475
0.00547653
0.00547861
0.00548083
0.00548299
0.00548489
0.00548638
0.00548739
0.00548791
0.00548803
0.00548813
0.00548848
0.0054892
0.00549025
0.00549155
0.00549295
0.0054943
0.00549547
0.0054964
0.00549706
0.00549749
0.00549773
0.00549785
0.0054979
0.00549791
0.00547142
0.00547144
0.00547151
0.00547166
0.00547195
0.00547246
0.00547325
0.00547438
0.00547587
0.00547764
0.00547959
0.00548155
0.00548334
0.00548483
0.00548593
0.00548661
0.00548696
0.00548726
0.00548772
0.00548848
0.00548953
0.00549084
0.0054923
0.00549376
0.0054951
0.0054962
0.00549703
0.00549759
0.00549791
0.00549808
0.00549815
0.00549816
0.00547183
0.00547183
0.00547187
0.00547196
0.00547217
0.00547255
0.00547317
0.00547408
0.00547529
0.00547677
0.00547844
0.00548017
0.00548184
0.00548332
0.00548454
0.00548547
0.00548614
0.00548672
0.00548737
0.00548821
0.00548927
0.00549055
0.00549198
0.00549345
0.00549485
0.00549607
0.00549702
0.00549768
0.00549809
0.0054983
0.00549839
0.00549841
0.00547233
0.00547232
0.00547231
0.00547234
0.00547245
0.00547271
0.00547317
0.00547388
0.00547486
0.00547609
0.00547752
0.00547907
0.00548064
0.00548214
0.0054835
0.0054847
0.00548571
0.00548658
0.00548742
0.00548834
0.0054894
0.00549062
0.00549197
0.00549338
0.00549476
0.00549601
0.00549703
0.00549777
0.00549825
0.00549851
0.00549862
0.00549865
0.00547306
0.00547302
0.00547296
0.0054729
0.00547291
0.00547304
0.00547336
0.00547391
0.00547471
0.00547576
0.00547703
0.00547847
0.00548
0.00548156
0.00548308
0.00548453
0.00548582
0.00548692
0.0054879
0.00548886
0.00548988
0.005491
0.00549224
0.00549353
0.00549483
0.00549603
0.00549707
0.00549787
0.00549841
0.00549871
0.00549884
0.00549887
0.00547415
0.00547407
0.00547394
0.00547379
0.00547368
0.0054737
0.0054739
0.00547433
0.00547504
0.00547601
0.00547721
0.00547862
0.00548017
0.00548179
0.00548343
0.00548504
0.00548652
0.00548774
0.00548877
0.00548972
0.00549066
0.00549166
0.00549274
0.00549388
0.00549505
0.00549617
0.00549717
0.00549797
0.00549855
0.00549889
0.00549904
0.00549908
0.00547568
0.00547557
0.00547537
0.00547514
0.00547495
0.00547489
0.00547504
0.00547544
0.00547612
0.00547708
0.00547829
0.00547971
0.00548127
0.00548291
0.00548458
0.00548624
0.00548775
0.00548898
0.00548998
0.00549086
0.0054917
0.00549255
0.00549346
0.00549442
0.00549542
0.00549641
0.00549732
0.0054981
0.00549869
0.00549905
0.00549922
0.00549927
0.00547771
0.00547756
0.00547732
0.00547708
0.0054769
0.00547686
0.00547703
0.00547746
0.00547818
0.00547915
0.00548036
0.00548175
0.00548326
0.00548483
0.00548642
0.00548798
0.0054894
0.00549054
0.00549144
0.00549221
0.00549292
0.00549362
0.00549435
0.00549512
0.00549593
0.00549676
0.00549756
0.00549827
0.00549883
0.00549919
0.00549938
0.00549943
0.00548027
0.00548009
0.00547989
0.00547973
0.00547968
0.00547976
0.00548003
0.00548052
0.00548125
0.0054822
0.00548333
0.0054846
0.00548596
0.00548735
0.00548874
0.00549011
0.00549133
0.0054923
0.00549306
0.00549369
0.00549426
0.00549481
0.00549536
0.00549595
0.00549657
0.00549722
0.00549787
0.00549848
0.00549898
0.00549933
0.00549952
0.00549958
0.00548337
0.00548322
0.00548314
0.00548318
0.00548333
0.00548358
0.00548395
0.00548447
0.00548514
0.00548597
0.00548693
0.00548799
0.0054891
0.00549022
0.00549133
0.00549242
0.00549338
0.00549415
0.00549474
0.00549522
0.00549564
0.00549604
0.00549644
0.00549686
0.00549731
0.00549778
0.00549827
0.00549874
0.00549916
0.00549947
0.00549965
0.00549971
0.0054871
0.00548704
0.00548717
0.00548744
0.00548776
0.0054881
0.00548849
0.00548895
0.00548948
0.00549011
0.00549082
0.00549159
0.00549239
0.0054932
0.00549399
0.00549476
0.00549544
0.00549597
0.00549639
0.00549672
0.00549701
0.00549727
0.00549754
0.00549781
0.0054981
0.00549841
0.00549873
0.00549906
0.00549937
0.00549961
0.00549976
0.00549981
0.0054916
0.0054917
0.00549201
0.00549234
0.00549265
0.00549295
0.00549324
0.00549355
0.00549389
0.00549427
0.00549469
0.00549514
0.00549561
0.00549608
0.00549655
0.00549699
0.00549739
0.0054977
0.00549794
0.00549813
0.00549829
0.00549844
0.00549858
0.00549873
0.00549889
0.00549906
0.00549924
0.00549942
0.0054996
0.00549976
0.00549986
0.0054999
0.00549706
0.00549714
0.0054973
0.00549745
0.00549758
0.0054977
0.00549781
0.00549791
0.00549803
0.00549815
0.00549829
0.00549844
0.00549859
0.00549874
0.00549889
0.00549904
0.00549916
0.00549926
0.00549934
0.0054994
0.00549945
0.0054995
0.00549955
0.00549959
0.00549964
0.00549969
0.00549975
0.00549981
0.00549987
0.00549992
0.00549995
0.00549997
)
;

boundaryField
{
    movingWall
    {
        type            fixedValue;
        value           uniform 0.0055;
    }
    fixedWalls
    {
        type            zeroGradient;
    }
    floor
    {
        type            zeroGradient;
    }
    frontAndBack
    {
        type            empty;
    }
}


// ************************************************************************* //
