/*--------------------------------*- C++ -*----------------------------------*\
| =========                 |                                                 |
| \\      /  F ield         | OpenFOAM: The Open Source CFD Toolbox           |
|  \\    /   O peration     | Version:  2212                                  |
|   \\  /    A nd           | Website:  www.openfoam.com                      |
|    \\/     M anipulation  |                                                 |
\*---------------------------------------------------------------------------*/
FoamFile
{
    version     2.0;
    format      ascii;
    arch        "LSB;label=64;scalar=64";
    class       volScalarField;
    location    "1350";
    object      Sch4;
}
// * * * * * * * * * * * * * * * * * * * * * * * * * * * * * * * * * * * * * //

dimensions      [1 -3 0 0 0 0 0];

internalField   nonuniform List<scalar> 
1024
(
0.0342742
0.034285
0.0343112
0.0343588
0.0344341
0.0345427
0.0346874
0.0348664
0.0350721
0.0352909
0.035505
0.0356937
0.035837
0.0359223
0.0359446
0.0359001
0.0357817
0.0355942
0.0353563
0.0350794
0.0347774
0.0344672
0.0341674
0.0338953
0.0336631
0.0334766
0.0333352
0.0332341
0.0331662
0.0331241
0.0331011
0.0330917
0.034277
0.0342879
0.0343146
0.0343631
0.0344399
0.0345503
0.0346973
0.0348787
0.0350865
0.0353072
0.0355227
0.035712
0.0358551
0.0359398
0.0359614
0.0359165
0.035798
0.0356104
0.0353722
0.035095
0.0347926
0.0344815
0.0341803
0.0339062
0.033672
0.0334834
0.0333403
0.0332378
0.0331689
0.0331263
0.033103
0.0330936
0.0342836
0.0342948
0.0343225
0.0343727
0.0344523
0.0345667
0.0347185
0.0349053
0.0351187
0.0353449
0.0355651
0.0357573
0.0359004
0.0359832
0.0360026
0.035956
0.0358362
0.0356471
0.0354074
0.0351288
0.0348249
0.0345118
0.0342076
0.0339297
0.033691
0.0334982
0.0333513
0.0332461
0.0331753
0.0331315
0.0331077
0.033098
0.0342952
0.0343069
0.0343358
0.0343886
0.0344723
0.0345926
0.0347521
0.0349483
0.0351724
0.03541
0.0356411
0.0358405
0.0359846
0.0360638
0.0360783
0.0360272
0.0359034
0.0357096
0.0354651
0.0351824
0.0348752
0.0345585
0.0342497
0.033966
0.0337208
0.0335215
0.0333692
0.0332597
0.033186
0.0331405
0.0331157
0.0331057
0.0343129
0.0343251
0.0343556
0.0344115
0.0345005
0.0346288
0.0347995
0.0350101
0.0352521
0.03551
0.0357607
0.035974
0.0361212
0.0361951
0.036201
0.0361412
0.0360084
0.0358041
0.0355487
0.035257
0.0349428
0.0346201
0.0343049
0.0340136
0.0337602
0.0335529
0.0333935
0.0332787
0.0332014
0.0331536
0.0331277
0.0331172
0.0343379
0.0343507
0.0343828
0.0344423
0.0345376
0.0346763
0.0348622
0.0350938
0.0353629
0.0356526
0.0359347
0.0361705
0.0363247
0.036392
0.0363851
0.0363111
0.036162
0.0359377
0.0356617
0.0353525
0.0350253
0.0346928
0.0343688
0.0340685
0.0338059
0.0335897
0.0334229
0.0333023
0.033221
0.0331709
0.0331438
0.0331329
0.0343719
0.0343852
0.034419
0.0344823
0.0345851
0.0347365
0.0349423
0.035203
0.0355107
0.0358458
0.0361726
0.0364411
0.0366077
0.0366688
0.0366455
0.0365512
0.0363764
0.0361189
0.0358078
0.0354684
0.0351187
0.0347703
0.0344342
0.0341238
0.033852
0.0336276
0.033454
0.0333284
0.0332438
0.0331918
0.0331638
0.0331526
0.0344172
0.034431
0.0344665
0.0345341
0.0346455
0.0348124
0.0350438
0.0353427
0.0357017
0.0360971
0.0364821
0.0367935
0.0369793
0.0370366
0.0369959
0.0368764
0.0366653
0.0363576
0.0359919
0.0356044
0.0352185
0.0348452
0.0344926
0.0341708
0.0338907
0.0336604
0.0334826
0.0333543
0.0332683
0.0332157
0.0331876
0.0331765
0.0344778
0.0344921
0.0345296
0.0346021
0.0347238
0.0349096
0.0351728
0.0355199
0.0359438
0.036414
0.0368697
0.0372327
0.0374444
0.0375033
0.0374484
0.0373023
0.0370449
0.0366677
0.0362233
0.0357639
0.0353232
0.0349124
0.0345366
0.0342018
0.0339154
0.0336829
0.0335053
0.0333785
0.0332945
0.0332438
0.0332171
0.0332067
0.0345603
0.0345753
0.0346152
0.0346938
0.034828
0.0350372
0.0353395
0.0357457
0.036248
0.0368062
0.0373426
0.0377638
0.0380074
0.0380766
0.0380168
0.0378499
0.0375414
0.037077
0.0365278
0.0359675
0.0354462
0.03498
0.0345705
0.0342189
0.0339276
0.0336975
0.0335261
0.0334067
0.0333298
0.0332849
0.0332623
0.0332539
0.0346751
0.0346911
0.0347343
0.0348208
0.0349711
0.0352096
0.0355601
0.0360372
0.0366308
0.0372879
0.0379117
0.0383954
0.0386778
0.0387714
0.038727
0.0385585
0.0382092
0.0376537
0.0369803
0.0362876
0.035651
0.0351007
0.0346373
0.0342577
0.033958
0.0337325
0.0335728
0.0334679
0.0334053
0.0333725
0.0333584
0.0333544
0.0348378
0.0348552
0.0349031
0.0350004
0.0351722
0.035448
0.0358577
0.0364187
0.0371155
0.0378791
0.0385933
0.0391432
0.0394762
0.0396201
0.0396296
0.0395045
0.0391616
0.0385551
0.0377749
0.0369368
0.0361448
0.0354604
0.0348979
0.0344558
0.0341263
0.0338961
0.0337481
0.0336638
0.0336245
0.0336129
0.0336146
0.0336189
0.0350697
0.035089
0.0351435
0.0352558
0.0354561
0.03578
0.0362621
0.0369202
0.0377297
0.0386033
0.0394079
0.04003
0.0404368
0.0406762
0.0408048
0.0408096
0.0405857
0.0400556
0.0392799
0.0383676
0.0374344
0.0365723
0.0358365
0.0352508
0.0348223
0.0345399
0.0343773
0.034304
0.0342888
0.0343038
0.0343266
0.0343422
0.0353962
0.0354183
0.0354819
0.0356147
0.0358529
0.0362381
0.0368077
0.0375748
0.0384999
0.0394776
0.0403676
0.0410722
0.0415885
0.0419836
0.0423143
0.0425675
0.0426387
0.042417
0.0419026
0.0411629
0.040285
0.0393602
0.0384722
0.0376843
0.0370469
0.0365858
0.036293
0.0361428
0.0360938
0.0361006
0.0361264
0.0361463
0.0358341
0.0358594
0.0359335
0.0360893
0.0363684
0.0368163
0.0374688
0.0383291
0.0393441
0.040402
0.041373
0.0421814
0.0428444
0.0434341
0.0440065
0.044568
0.0450462
0.0453299
0.0453652
0.0451594
0.0447347
0.0441317
0.0434057
0.0426254
0.0418636
0.0411858
0.0406406
0.0402541
0.0400194
0.0399024
0.0398604
0.039854
0.0363442
0.036371
0.0364495
0.0366147
0.0369101
0.0373811
0.0380603
0.0389471
0.0399899
0.0410897
0.042133
0.0430489
0.0438412
0.0445632
0.0452648
0.0459749
0.0466765
0.0473277
0.0478845
0.0483147
0.0485805
0.0486555
0.0485317
0.0482232
0.0477668
0.0472226
0.0466652
0.0461646
0.0457723
0.0455095
0.0453659
0.0453115
0.0368088
0.0368337
0.0369065
0.0370593
0.037333
0.0377704
0.0384036
0.0392367
0.0402313
0.0413065
0.0423595
0.0433075
0.0441186
0.0448067
0.0453988
0.0459265
0.0464315
0.0470018
0.0476667
0.0483896
0.0491018
0.0497342
0.0502323
0.0505617
0.05071
0.050689
0.0505344
0.0503014
0.050054
0.0498473
0.0497117
0.0496507
0.0371447
0.0371662
0.0372281
0.0373577
0.0375904
0.037965
0.038514
0.0392479
0.0401425
0.0411349
0.0421349
0.0430519
0.0438236
0.0444249
0.0448549
0.0451346
0.0453387
0.0456567
0.0461966
0.0469451
0.0478253
0.0487372
0.0495873
0.0503071
0.0508574
0.051228
0.0514324
0.0515032
0.0514855
0.051428
0.0513715
0.0513398
0.0373659
0.0373838
0.0374345
0.0375401
0.0377297
0.0380375
0.0384945
0.0391166
0.0398918
0.0407743
0.0416886
0.0425477
0.0432757
0.0438238
0.0441711
0.0443294
0.0443841
0.0445512
0.0449758
0.0456849
0.0466315
0.0477172
0.0488184
0.0498225
0.0506501
0.0512659
0.0516734
0.051904
0.0520044
0.0520257
0.0520131
0.0519988
0.0375129
0.0375273
0.0375677
0.0376514
0.0378024
0.0380494
0.0384206
0.0389341
0.0395869
0.040348
0.0411579
0.041941
0.0426229
0.0431465
0.043481
0.0436331
0.0436859
0.0438342
0.0442115
0.0448673
0.0457917
0.0469223
0.0481504
0.0493492
0.0504034
0.0512387
0.0518307
0.0521982
0.0523882
0.0524597
0.0524696
0.0524617
0.0376231
0.0376333
0.037663
0.0377263
0.037843
0.0380372
0.0383336
0.0387498
0.0392879
0.0399277
0.0406254
0.0413217
0.0419536
0.0424688
0.0428368
0.0430635
0.0432194
0.0434508
0.0438588
0.044497
0.0453794
0.0464788
0.0477225
0.0490014
0.050191
0.0511892
0.0519393
0.0524362
0.0527159
0.0528383
0.0528696
0.0528667
0.0377442
0.037748
0.0377633
0.0378028
0.0378845
0.0380299
0.0382604
0.0385921
0.039029
0.0395586
0.0401514
0.0407658
0.0413563
0.0418829
0.0423213
0.0426789
0.0430012
0.0433717
0.0438559
0.0445061
0.045351
0.0463887
0.0475789
0.048843
0.0500751
0.0511657
0.0520318
0.0526392
0.053004
0.0531787
0.0532333
0.0532357
0.0379439
0.0379369
0.0379296
0.0379354
0.0379735
0.0380659
0.0382336
0.0384917
0.0388452
0.039288
0.039803
0.0403652
0.0409454
0.0415158
0.0420583
0.0425789
0.0430895
0.0436091
0.0441751
0.0448395
0.0456414
0.0465993
0.0476985
0.0488865
0.0500836
0.0511942
0.0521258
0.0528173
0.0532579
0.0534847
0.0535646
0.0535733
0.0383049
0.0382811
0.0382403
0.0381983
0.038179
0.0382095
0.0383146
0.0385112
0.0388072
0.039202
0.0396871
0.040248
0.0408641
0.0415133
0.0421786
0.0428614
0.0435391
0.0441788
0.0448014
0.0454613
0.0462043
0.0470628
0.0480427
0.0491161
0.050226
0.0512957
0.0522394
0.0529812
0.0534831
0.0537589
0.0538656
0.0538817
0.0389079
0.0388617
0.0387782
0.0386789
0.0385953
0.0385631
0.038615
0.0387739
0.0390509
0.0394478
0.0399582
0.0405675
0.0412547
0.0419957
0.0427712
0.0435769
0.0443648
0.04507
0.0457071
0.0463341
0.047
0.0477435
0.0485843
0.0495148
0.0505003
0.0514834
0.0523905
0.0531441
0.053686
0.054004
0.0541377
0.0541625
0.0398145
0.0397423
0.0396162
0.0394681
0.0393379
0.039268
0.039299
0.0394596
0.0397615
0.0402034
0.040773
0.041449
0.0422043
0.0430112
0.043848
0.0447077
0.0455299
0.0462374
0.0468448
0.0474114
0.0479853
0.0486058
0.0492988
0.0500705
0.0509053
0.0517662
0.0525954
0.053321
0.0538755
0.0542237
0.0543824
0.054417
0.04106
0.0409632
0.0408124
0.0406539
0.0405299
0.0404786
0.0405406
0.0407446
0.041098
0.0415935
0.0422117
0.042925
0.0437022
0.0445148
0.0453416
0.0461758
0.0469568
0.0476102
0.0481515
0.048637
0.0491106
0.0496079
0.0501551
0.0507654
0.0514366
0.05215
0.0528667
0.053527
0.0540624
0.0544225
0.0546011
0.0546459
0.0426621
0.0425513
0.042418
0.0423169
0.0422736
0.0423062
0.0424431
0.042706
0.0430989
0.0436125
0.0442261
0.044912
0.0456403
0.0463857
0.0471303
0.0478687
0.0485482
0.0491057
0.0495563
0.049949
0.0503208
0.050701
0.0511127
0.0515706
0.0520796
0.0526342
0.0532133
0.053775
0.0542589
0.0546075
0.0547956
0.0548499
0.0446416
0.0445423
0.0444911
0.0445183
0.0446087
0.0447536
0.0449659
0.0452606
0.0456447
0.046114
0.0466533
0.0472403
0.0478516
0.0484673
0.0490737
0.049667
0.050206
0.0506426
0.0509897
0.0512859
0.0515598
0.0518336
0.0521253
0.0524475
0.0528075
0.0532064
0.0536368
0.0540749
0.0544762
0.0547866
0.0549693
0.0550295
0.0470477
0.0470067
0.0470964
0.0472673
0.0474688
0.0476837
0.047919
0.0481881
0.0485037
0.0488687
0.0492758
0.0497113
0.0501591
0.0506057
0.0510416
0.051464
0.0518445
0.0521503
0.0523908
0.052593
0.0527767
0.052957
0.0531461
0.0533531
0.0535843
0.0538429
0.0541282
0.0544306
0.0547245
0.0549693
0.0551267
0.0551858
0.0499796
0.0500469
0.0502438
0.0504578
0.0506616
0.0508508
0.0510318
0.0512167
0.051418
0.051642
0.051887
0.0521465
0.0524118
0.052675
0.0529306
0.0531769
0.0533977
0.0535743
0.0537123
0.0538272
0.0539303
0.0540302
0.0541336
0.0542459
0.0543707
0.0545106
0.0546668
0.0548367
0.0550099
0.0551647
0.0552741
0.055321
0.053561
0.0536156
0.0537194
0.0538157
0.0539008
0.0539758
0.0540433
0.0541085
0.0541766
0.0542507
0.054331
0.0544157
0.0545021
0.0545875
0.0546703
0.0547499
0.0548211
0.0548779
0.0549221
0.0549588
0.0549915
0.0550229
0.0550553
0.0550901
0.0551287
0.0551719
0.0552201
0.055273
0.0553283
0.05538
0.0554196
0.0554388
)
;

boundaryField
{
    movingWall
    {
        type            fixedValue;
        value           uniform 0.0555;
    }
    fixedWalls
    {
        type            zeroGradient;
    }
    floor
    {
        type            zeroGradient;
    }
    frontAndBack
    {
        type            empty;
    }
}


// ************************************************************************* //
