/*--------------------------------*- C++ -*----------------------------------*\
| =========                 |                                                 |
| \\      /  F ield         | OpenFOAM: The Open Source CFD Toolbox           |
|  \\    /   O peration     | Version:  2212                                  |
|   \\  /    A nd           | Website:  www.openfoam.com                      |
|    \\/     M anipulation  |                                                 |
\*---------------------------------------------------------------------------*/
FoamFile
{
    version     2.0;
    format      ascii;
    arch        "LSB;label=64;scalar=64";
    class       volScalarField;
    location    "1350";
    object      Xpr;
}
// * * * * * * * * * * * * * * * * * * * * * * * * * * * * * * * * * * * * * //

dimensions      [1 -3 0 0 0 0 0];

internalField   nonuniform List<scalar> 
1024
(
0.081568
0.0815696
0.0815733
0.0815801
0.0815907
0.0816061
0.0816266
0.0816519
0.0816809
0.0817117
0.0817416
0.0817679
0.0817876
0.081799
0.0818011
0.0817936
0.0817754
0.0817477
0.0817132
0.0816732
0.0816296
0.0815848
0.0815413
0.0815017
0.0814679
0.0814406
0.0814199
0.0814051
0.0813951
0.081389
0.0813856
0.0813842
0.0815684
0.08157
0.0815738
0.0815807
0.0815915
0.0816072
0.081628
0.0816536
0.0816829
0.0817139
0.0817441
0.0817704
0.0817901
0.0818013
0.0818034
0.0817958
0.0817776
0.0817499
0.0817153
0.0816754
0.0816317
0.0815868
0.0815431
0.0815033
0.0814691
0.0814416
0.0814206
0.0814056
0.0813955
0.0813893
0.0813859
0.0813845
0.0815694
0.081571
0.0815749
0.081582
0.0815933
0.0816095
0.0816309
0.0816573
0.0816874
0.0817192
0.08175
0.0817767
0.0817963
0.0818073
0.081809
0.0818012
0.0817828
0.0817549
0.0817201
0.08168
0.0816362
0.0815911
0.081547
0.0815066
0.0814718
0.0814437
0.0814222
0.0814068
0.0813964
0.08139
0.0813865
0.0813851
0.081571
0.0815727
0.0815768
0.0815842
0.0815961
0.0816131
0.0816357
0.0816633
0.0816949
0.0817282
0.0817605
0.0817882
0.0818079
0.0818183
0.0818193
0.0818108
0.0817919
0.0817633
0.0817279
0.0816873
0.0816432
0.0815976
0.0815529
0.0815118
0.0814761
0.081447
0.0814248
0.0814087
0.081398
0.0813913
0.0813876
0.0813862
0.0815735
0.0815752
0.0815796
0.0815875
0.0816
0.0816182
0.0816423
0.081672
0.081706
0.0817421
0.0817771
0.0818066
0.0818267
0.0818362
0.0818359
0.0818261
0.0818059
0.0817759
0.0817391
0.0816974
0.0816524
0.0816061
0.0815606
0.0815184
0.0814816
0.0814514
0.0814282
0.0814114
0.0814001
0.0813931
0.0813893
0.0813878
0.081577
0.0815788
0.0815834
0.0815918
0.0816053
0.0816248
0.081651
0.0816836
0.0817214
0.0817619
0.0818011
0.0818337
0.0818545
0.081863
0.0818608
0.0818488
0.0818263
0.0817935
0.081754
0.0817101
0.0816635
0.0816159
0.0815694
0.0815261
0.081488
0.0814566
0.0814323
0.0814147
0.0814028
0.0813955
0.0813915
0.0813899
0.0815818
0.0815837
0.0815885
0.0815974
0.0816119
0.0816333
0.0816622
0.0816988
0.0817419
0.0817887
0.081834
0.0818709
0.0818933
0.0819006
0.0818958
0.0818808
0.0818545
0.0818172
0.081773
0.0817251
0.0816757
0.0816262
0.0815782
0.0815336
0.0814943
0.0814618
0.0814366
0.0814183
0.081406
0.0813984
0.0813943
0.0813926
0.0815882
0.0815901
0.0815951
0.0816047
0.0816204
0.0816439
0.0816764
0.0817183
0.0817684
0.0818234
0.0818767
0.0819192
0.0819439
0.0819503
0.0819427
0.0819239
0.0818923
0.0818481
0.0817966
0.0817424
0.0816883
0.0816357
0.0815856
0.0815396
0.0814994
0.0814661
0.0814404
0.0814217
0.0814092
0.0814016
0.0813974
0.0813958
0.0815967
0.0815987
0.081604
0.0816142
0.0816313
0.0816574
0.0816943
0.0817429
0.081802
0.0818672
0.08193
0.0819794
0.0820071
0.0820132
0.082003
0.08198
0.0819417
0.0818879
0.0818258
0.0817621
0.0817009
0.0816435
0.0815906
0.081543
0.0815021
0.0814687
0.0814431
0.0814248
0.0814126
0.0814052
0.0814013
0.0813997
0.0816083
0.0816104
0.081616
0.081627
0.0816459
0.0816752
0.0817175
0.0817742
0.0818441
0.0819213
0.0819949
0.0820518
0.0820833
0.08209
0.0820784
0.0820518
0.082006
0.0819402
0.081864
0.0817869
0.0817152
0.0816506
0.0815934
0.081544
0.0815027
0.0814699
0.0814453
0.0814281
0.0814169
0.0814103
0.081407
0.0814057
0.0816244
0.0816267
0.0816327
0.0816449
0.0816659
0.0816993
0.0817482
0.0818147
0.081897
0.0819876
0.0820728
0.0821376
0.0821736
0.0821827
0.0821724
0.0821447
0.0820928
0.0820143
0.0819212
0.0818265
0.0817395
0.081664
0.0816
0.0815472
0.0815051
0.0814733
0.0814505
0.0814355
0.0814264
0.0814215
0.0814194
0.0814187
0.0816473
0.0816497
0.0816564
0.08167
0.081694
0.0817325
0.0817896
0.0818675
0.0819639
0.0820688
0.0821658
0.0822389
0.0822808
0.0822958
0.0822919
0.0822693
0.0822175
0.0821316
0.0820239
0.0819096
0.081802
0.0817088
0.081632
0.0815713
0.0815257
0.0814936
0.0814728
0.0814607
0.0814549
0.081453
0.081453
0.0814535
0.0816799
0.0816826
0.0816902
0.0817059
0.0817338
0.0817789
0.0818459
0.081937
0.0820486
0.0821681
0.0822768
0.0823588
0.0824098
0.082437
0.0824484
0.0824426
0.0824061
0.0823298
0.0822221
0.0820975
0.0819709
0.0818542
0.0817547
0.0816752
0.0816169
0.0815783
0.0815559
0.0815456
0.0815433
0.0815451
0.081548
0.08155
0.0817259
0.0817289
0.0817378
0.0817562
0.0817893
0.0818428
0.0819217
0.0820277
0.0821548
0.082288
0.0824075
0.0825
0.0825653
0.0826131
0.0826514
0.0826785
0.0826808
0.0826447
0.0825709
0.0824685
0.0823489
0.0822239
0.0821044
0.0819986
0.081913
0.0818511
0.0818117
0.0817915
0.0817848
0.0817856
0.0817891
0.0817917
0.0817875
0.081791
0.0818013
0.0818228
0.0818615
0.0819236
0.0820137
0.0821323
0.0822714
0.0824152
0.0825455
0.0826519
0.0827371
0.0828114
0.0828824
0.0829506
0.0830064
0.083036
0.0830335
0.0830003
0.0829396
0.0828566
0.0827585
0.0826541
0.0825527
0.0824628
0.0823906
0.0823395
0.0823085
0.0822931
0.0822876
0.0822868
0.0818596
0.0818633
0.0818741
0.0818969
0.0819378
0.0820029
0.0820968
0.082219
0.0823621
0.0825119
0.0826527
0.0827745
0.0828783
0.0829715
0.0830608
0.0831493
0.0832341
0.0833103
0.0833736
0.0834209
0.0834479
0.0834516
0.0834311
0.0833881
0.0833271
0.0832555
0.0831828
0.0831177
0.0830669
0.0830329
0.0830144
0.0830074
0.081926
0.0819294
0.0819393
0.0819604
0.0819982
0.0820587
0.0821464
0.0822615
0.0823986
0.0825461
0.0826896
0.0828177
0.0829261
0.083017
0.083094
0.0831604
0.0832204
0.0832852
0.0833598
0.0834408
0.0835206
0.0835915
0.0836471
0.0836835
0.0836988
0.0836945
0.0836744
0.0836451
0.0836143
0.0835886
0.0835718
0.0835643
0.0819749
0.0819778
0.0819862
0.082004
0.0820361
0.082088
0.0821641
0.082266
0.08239
0.0825272
0.082665
0.0827908
0.0828962
0.0829781
0.0830362
0.0830728
0.0830963
0.0831302
0.0831889
0.0832715
0.0833692
0.0834708
0.0835657
0.0836463
0.0837083
0.0837505
0.0837741
0.0837828
0.0837813
0.0837752
0.083769
0.0837655
0.082008
0.0820104
0.0820172
0.0820316
0.0820577
0.0821004
0.0821639
0.0822505
0.0823586
0.0824815
0.0826087
0.082728
0.0828293
0.0829059
0.082955
0.0829777
0.0829839
0.0830005
0.0830462
0.0831247
0.0832305
0.0833522
0.0834755
0.0835879
0.0836804
0.0837495
0.0837955
0.083822
0.0838341
0.0838374
0.0838366
0.0838353
0.0820309
0.0820328
0.0820381
0.0820495
0.0820702
0.0821043
0.082156
0.0822277
0.082319
0.0824256
0.0825392
0.0826492
0.0827452
0.0828196
0.082868
0.0828909
0.0828979
0.0829134
0.0829545
0.0830276
0.0831316
0.0832591
0.0833972
0.0835318
0.0836498
0.0837432
0.0838096
0.0838511
0.0838729
0.0838816
0.0838833
0.0838828
0.0820484
0.0820497
0.0820536
0.0820621
0.0820781
0.0821048
0.0821461
0.0822043
0.0822798
0.0823699
0.0824683
0.0825667
0.0826564
0.0827299
0.0827829
0.0828157
0.0828361
0.0828627
0.0829086
0.0829808
0.0830809
0.0832056
0.0833461
0.0834901
0.0836236
0.0837352
0.0838191
0.0838747
0.0839064
0.0839206
0.0839246
0.0839247
0.0820667
0.0820672
0.0820692
0.0820745
0.0820857
0.0821058
0.0821378
0.0821843
0.0822458
0.0823205
0.0824044
0.0824913
0.082575
0.0826494
0.0827111
0.0827602
0.0828016
0.082846
0.0829022
0.082977
0.0830737
0.0831921
0.0833273
0.0834701
0.0836086
0.0837307
0.0838274
0.0838952
0.0839361
0.083956
0.0839625
0.0839631
0.0820939
0.082093
0.0820922
0.0820933
0.0820988
0.0821118
0.0821354
0.0821716
0.0822214
0.0822837
0.0823562
0.0824351
0.082516
0.0825949
0.0826688
0.0827377
0.0828025
0.0828657
0.0829327
0.0830102
0.0831029
0.0832129
0.0833382
0.0834729
0.0836077
0.0837322
0.0838362
0.0839132
0.0839624
0.0839879
0.0839972
0.0839985
0.08214
0.0821371
0.0821322
0.0821274
0.0821257
0.0821308
0.0821461
0.0821738
0.0822152
0.08227
0.082337
0.0824138
0.0824974
0.0825845
0.0826725
0.0827609
0.0828461
0.0829244
0.082999
0.0830768
0.0831634
0.0832625
0.0833747
0.0834967
0.083622
0.0837421
0.0838475
0.08393
0.0839858
0.0840166
0.0840288
0.0840308
0.0822147
0.0822091
0.0821991
0.0821873
0.0821777
0.082175
0.0821832
0.0822056
0.0822434
0.082297
0.0823652
0.082446
0.0825365
0.0826333
0.0827335
0.0828362
0.0829347
0.0830212
0.0830981
0.0831726
0.0832507
0.083337
0.0834337
0.0835397
0.0836512
0.0837617
0.0838631
0.0839469
0.084007
0.0840424
0.0840574
0.0840604
0.0823253
0.0823166
0.0823015
0.0822838
0.0822685
0.082261
0.0822663
0.0822882
0.082328
0.0823856
0.0824593
0.0825465
0.0826435
0.0827468
0.0828533
0.0829616
0.083064
0.0831509
0.0832245
0.0832923
0.08336
0.0834323
0.0835123
0.0836005
0.0836951
0.083792
0.0838848
0.0839655
0.084027
0.0840655
0.0840832
0.0840872
0.0824759
0.0824643
0.0824462
0.0824273
0.0824128
0.0824073
0.082416
0.0824424
0.0824875
0.0825503
0.0826286
0.0827187
0.0828169
0.0829194
0.0830235
0.083128
0.0832249
0.0833052
0.083371
0.0834293
0.0834855
0.0835437
0.083607
0.083677
0.0837533
0.0838337
0.083914
0.0839874
0.0840467
0.0840864
0.0841062
0.0841113
0.0826686
0.0826554
0.0826394
0.0826274
0.0826224
0.0826269
0.0826442
0.0826771
0.0827261
0.0827902
0.0828667
0.0829523
0.0830432
0.0831365
0.0832295
0.0833216
0.0834058
0.0834743
0.0835292
0.0835765
0.0836208
0.0836655
0.0837133
0.083766
0.0838239
0.0838866
0.0839515
0.084014
0.0840676
0.0841059
0.0841266
0.0841327
0.0829058
0.082894
0.0828878
0.0828911
0.0829021
0.0829199
0.0829459
0.0829821
0.0830295
0.0830873
0.083154
0.0832266
0.0833025
0.083379
0.0834545
0.0835283
0.083595
0.0836487
0.083691
0.0837268
0.0837596
0.0837919
0.0838259
0.083863
0.0839041
0.0839492
0.0839976
0.0840464
0.0840907
0.0841248
0.0841448
0.0841515
0.0831934
0.0831885
0.0831992
0.0832196
0.0832438
0.0832697
0.0832982
0.083331
0.0833696
0.0834143
0.0834644
0.083518
0.0835734
0.0836287
0.0836828
0.0837353
0.0837824
0.08382
0.0838494
0.0838739
0.0838959
0.0839172
0.0839393
0.0839633
0.0839897
0.084019
0.0840511
0.0840848
0.0841173
0.0841441
0.0841613
0.0841678
0.083543
0.0835511
0.0835745
0.0836001
0.0836244
0.0836471
0.083669
0.0836914
0.0837159
0.0837432
0.0837733
0.0838052
0.0838379
0.0838704
0.0839021
0.0839327
0.08396
0.0839818
0.0839987
0.0840126
0.084025
0.0840368
0.0840489
0.0840619
0.0840762
0.0840921
0.0841097
0.0841287
0.0841478
0.0841648
0.0841767
0.0841818
0.0839694
0.0839759
0.0839883
0.0839998
0.08401
0.0840189
0.0840271
0.0840349
0.0840432
0.0840523
0.0840621
0.0840725
0.0840831
0.0840937
0.084104
0.0841138
0.0841226
0.0841296
0.0841351
0.0841395
0.0841434
0.0841472
0.084151
0.084155
0.0841594
0.0841643
0.0841698
0.0841757
0.0841818
0.0841875
0.0841918
0.0841938
)
;

boundaryField
{
    movingWall
    {
        type            fixedValue;
        value           uniform 0.0842;
    }
    fixedWalls
    {
        type            zeroGradient;
    }
    floor
    {
        type            zeroGradient;
    }
    frontAndBack
    {
        type            empty;
    }
}


// ************************************************************************* //
