/*--------------------------------*- C++ -*----------------------------------*\
| =========                 |                                                 |
| \\      /  F ield         | OpenFOAM: The Open Source CFD Toolbox           |
|  \\    /   O peration     | Version:  2212                                  |
|   \\  /    A nd           | Website:  www.openfoam.com                      |
|    \\/     M anipulation  |                                                 |
\*---------------------------------------------------------------------------*/
FoamFile
{
    version     2.0;
    format      ascii;
    arch        "LSB;label=64;scalar=64";
    class       volScalarField;
    location    "530";
    object      Gch4;
}
// * * * * * * * * * * * * * * * * * * * * * * * * * * * * * * * * * * * * * //

dimensions      [1 -3 0 0 0 0 0];

internalField   nonuniform List<scalar> 
1024
(
1.90353
1.90348
1.90336
1.90314
1.90281
1.90236
1.90179
1.90113
1.90041
1.89966
1.8989
1.89814
1.89742
1.89684
1.8966
1.89698
1.89805
1.89945
1.90088
1.90222
1.90341
1.90445
1.90535
1.90613
1.9068
1.90736
1.90781
1.90816
1.9084
1.90855
1.90864
1.90867
1.90352
1.90347
1.90334
1.90312
1.90278
1.90232
1.90174
1.90107
1.90035
1.8996
1.89884
1.89807
1.89735
1.89676
1.89651
1.89689
1.89797
1.89938
1.90081
1.90215
1.90335
1.9044
1.90531
1.90609
1.90676
1.90733
1.90779
1.90814
1.90839
1.90855
1.90863
1.90867
1.9035
1.90345
1.90332
1.90308
1.90273
1.90224
1.90165
1.90097
1.90025
1.8995
1.89873
1.89795
1.89719
1.89657
1.89628
1.89666
1.89777
1.89921
1.90067
1.90203
1.90324
1.9043
1.90521
1.906
1.90668
1.90726
1.90774
1.9081
1.90836
1.90853
1.90862
1.90866
1.90348
1.90342
1.90328
1.90303
1.90265
1.90215
1.90154
1.90086
1.90013
1.89938
1.89859
1.89777
1.89695
1.89624
1.89589
1.89627
1.89743
1.89893
1.90044
1.90184
1.90308
1.90416
1.90509
1.90589
1.90658
1.90718
1.90767
1.90805
1.90832
1.9085
1.9086
1.90864
1.90346
1.90339
1.90324
1.90298
1.90258
1.90206
1.90145
1.90076
1.90004
1.89928
1.89846
1.89757
1.89662
1.89575
1.89527
1.89565
1.89691
1.89853
1.90013
1.9016
1.90289
1.90401
1.90496
1.90577
1.90648
1.90709
1.90759
1.90799
1.90828
1.90847
1.90858
1.90862
1.90344
1.90337
1.90322
1.90294
1.90254
1.90202
1.90141
1.90074
1.90003
1.89925
1.89838
1.89737
1.89622
1.8951
1.89441
1.89476
1.89618
1.89798
1.89974
1.90133
1.90271
1.90388
1.90486
1.90569
1.9064
1.90702
1.90753
1.90794
1.90825
1.90844
1.90856
1.9086
1.90344
1.90338
1.90322
1.90295
1.90256
1.90206
1.90147
1.90083
1.90013
1.89935
1.8984
1.89722
1.89579
1.8943
1.89331
1.8936
1.89522
1.89729
1.89928
1.90105
1.90256
1.90381
1.90484
1.90568
1.90639
1.907
1.90751
1.90792
1.90823
1.90843
1.90854
1.90859
1.90349
1.90342
1.90328
1.90303
1.90267
1.90221
1.90167
1.90107
1.9004
1.8996
1.89857
1.89717
1.89535
1.89338
1.89199
1.89218
1.89403
1.89646
1.89878
1.90081
1.9025
1.90386
1.90494
1.90579
1.90649
1.90707
1.90756
1.90795
1.90824
1.90844
1.90855
1.90859
1.90359
1.90353
1.9034
1.90318
1.90287
1.90248
1.90202
1.90149
1.90087
1.90006
1.8989
1.89722
1.89491
1.89232
1.89047
1.89054
1.89267
1.89555
1.89829
1.90065
1.90257
1.90407
1.9052
1.90606
1.90672
1.90725
1.90768
1.90803
1.9083
1.90848
1.90858
1.90863
1.90378
1.90372
1.90361
1.90343
1.90318
1.90287
1.90251
1.90207
1.9015
1.90067
1.89934
1.89724
1.89429
1.891
1.88869
1.88874
1.89125
1.89468
1.89791
1.90065
1.90283
1.90448
1.90566
1.9065
1.9071
1.90755
1.90791
1.9082
1.90842
1.90857
1.90867
1.90871
1.90408
1.90403
1.90394
1.90379
1.90361
1.90339
1.90312
1.90276
1.9022
1.90125
1.89958
1.89686
1.89309
1.88911
1.88653
1.88683
1.88995
1.89404
1.89782
1.90096
1.90339
1.90516
1.90636
1.90714
1.90764
1.90798
1.90824
1.90845
1.90861
1.90874
1.90882
1.90886
1.9044
1.90438
1.90433
1.90425
1.90413
1.90397
1.90373
1.90334
1.90263
1.90128
1.89891
1.89524
1.89058
1.88614
1.88381
1.88496
1.88908
1.89399
1.89833
1.9018
1.9044
1.90621
1.90735
1.90801
1.90836
1.90855
1.90868
1.90879
1.90889
1.90898
1.90904
1.90908
1.90388
1.90394
1.90403
1.90411
1.90411
1.90397
1.90361
1.90287
1.90152
1.89921
1.89566
1.8909
1.88567
1.88161
1.8806
1.88355
1.88921
1.89506
1.89987
1.90351
1.90608
1.90775
1.9087
1.90914
1.90927
1.90927
1.90924
1.90924
1.90928
1.90933
1.90938
1.90941
1.89915
1.89927
1.89947
1.89967
1.89972
1.89944
1.89866
1.89717
1.89477
1.89131
1.88685
1.8819
1.87765
1.87584
1.87787
1.88372
1.8913
1.89799
1.90294
1.90639
1.90861
1.90988
1.91044
1.91052
1.91034
1.91009
1.90987
1.90975
1.90972
1.90975
1.9098
1.90983
1.88505
1.88502
1.88495
1.88474
1.88431
1.88349
1.88215
1.88019
1.87759
1.87452
1.87139
1.86905
1.86873
1.87165
1.8782
1.8873
1.89638
1.90322
1.90765
1.91035
1.91181
1.91239
1.9124
1.91208
1.91164
1.91121
1.91087
1.91066
1.91056
1.91054
1.91056
1.91058
1.86391
1.86367
1.86319
1.86249
1.86162
1.86061
1.85952
1.85846
1.85763
1.85738
1.85823
1.86091
1.8661
1.87401
1.884
1.8946
1.9035
1.90929
1.9125
1.91404
1.91447
1.91416
1.91343
1.91254
1.91173
1.91116
1.91085
1.91076
1.91081
1.9109
1.91097
1.911
1.84894
1.84872
1.84832
1.84782
1.84736
1.84709
1.84718
1.84785
1.84937
1.85208
1.85632
1.86236
1.87019
1.87939
1.88918
1.89858
1.90602
1.91055
1.91295
1.9142
1.91482
1.91508
1.91513
1.91507
1.91493
1.91471
1.91435
1.91381
1.9131
1.91233
1.9117
1.91135
1.84242
1.84229
1.84208
1.84187
1.84177
1.84192
1.8425
1.84375
1.8459
1.84918
1.8537
1.85942
1.86616
1.87361
1.88131
1.88863
1.89426
1.89757
1.89935
1.90043
1.9012
1.90179
1.90209
1.90192
1.90111
1.89956
1.89728
1.89443
1.89138
1.88863
1.88666
1.88569
1.83837
1.83825
1.83803
1.83773
1.83741
1.83719
1.83723
1.83773
1.83889
1.84084
1.84358
1.84702
1.85095
1.85507
1.85889
1.86156
1.86177
1.85891
1.85379
1.84752
1.84098
1.83482
1.8294
1.82482
1.82113
1.81833
1.81634
1.81503
1.81424
1.81378
1.81349
1.81334
1.83532
1.83517
1.83484
1.83428
1.83348
1.83251
1.83146
1.83054
1.82993
1.82973
1.82995
1.83046
1.83101
1.83117
1.8302
1.82684
1.81954
1.80799
1.79371
1.77851
1.76391
1.75098
1.74049
1.73243
1.72703
1.72425
1.72392
1.72564
1.72868
1.73198
1.73453
1.73578
1.83303
1.83288
1.83247
1.83173
1.83055
1.82891
1.82687
1.82457
1.8222
1.81994
1.81785
1.81585
1.81369
1.81087
1.80648
1.79901
1.78699
1.77088
1.75315
1.73596
1.72084
1.70845
1.69897
1.6919
1.68702
1.68413
1.68311
1.68379
1.68578
1.68839
1.69072
1.69201
1.83104
1.8309
1.83049
1.82969
1.82834
1.82633
1.82364
1.82035
1.81664
1.81274
1.80882
1.80492
1.80093
1.7964
1.79043
1.78153
1.76839
1.75203
1.73537
1.72051
1.70849
1.6993
1.69228
1.68671
1.68217
1.67855
1.67594
1.67443
1.67402
1.67448
1.67533
1.67597
1.82875
1.82866
1.82833
1.82758
1.8262
1.82403
1.82095
1.817
1.81231
1.80714
1.80177
1.79641
1.79111
1.78563
1.77926
1.77066
1.75868
1.74428
1.73016
1.71806
1.70855
1.70117
1.69507
1.68957
1.6844
1.67967
1.6757
1.67279
1.67105
1.67035
1.67034
1.67055
1.82543
1.82544
1.82529
1.8247
1.82342
1.82119
1.81784
1.81335
1.80786
1.80165
1.79508
1.78851
1.78216
1.77602
1.76964
1.76198
1.75201
1.74029
1.72881
1.71887
1.71082
1.7042
1.69828
1.69254
1.68676
1.68112
1.67608
1.67208
1.66941
1.66802
1.66758
1.66762
1.82021
1.82041
1.82053
1.82022
1.81908
1.81678
1.81313
1.8081
1.80185
1.79472
1.78716
1.77962
1.77244
1.76578
1.75944
1.7527
1.74472
1.73559
1.72649
1.71827
1.71122
1.70508
1.69935
1.69363
1.68775
1.6818
1.6762
1.67148
1.66807
1.6661
1.66533
1.66525
1.81224
1.8127
1.81317
1.81313
1.81205
1.80956
1.80545
1.79978
1.79282
1.78497
1.77673
1.76858
1.76091
1.75397
1.74772
1.74171
1.73534
1.72836
1.7213
1.71461
1.70854
1.70302
1.69773
1.69241
1.68689
1.6812
1.67562
1.67064
1.66679
1.66438
1.66331
1.66312
1.80081
1.80156
1.80233
1.80238
1.8011
1.79814
1.79341
1.78713
1.77966
1.77147
1.76303
1.7548
1.74714
1.74029
1.73432
1.72896
1.72382
1.71855
1.7132
1.70793
1.70294
1.69824
1.69368
1.68907
1.68426
1.67923
1.67415
1.66938
1.66545
1.66278
1.66147
1.66117
1.78542
1.78641
1.78718
1.78686
1.78497
1.78132
1.77603
1.76943
1.76196
1.75402
1.74603
1.73835
1.73126
1.72498
1.71958
1.71495
1.71084
1.70691
1.70297
1.699
1.69513
1.6914
1.68773
1.68402
1.68014
1.67604
1.67178
1.6676
1.66393
1.66126
1.65981
1.65941
1.76568
1.76666
1.76685
1.76562
1.76284
1.75863
1.75323
1.74697
1.7402
1.73324
1.72638
1.71986
1.71389
1.70862
1.70414
1.70038
1.69723
1.69439
1.69161
1.68879
1.68599
1.68324
1.68052
1.67777
1.67489
1.67184
1.66859
1.66526
1.66217
1.65974
1.65829
1.65783
1.74111
1.74157
1.74053
1.73821
1.73493
1.73084
1.72612
1.72101
1.71569
1.71036
1.70518
1.70031
1.69588
1.69198
1.68868
1.68595
1.68374
1.68183
1.68002
1.67818
1.67633
1.6745
1.67269
1.67085
1.66894
1.66691
1.66472
1.66239
1.66011
1.65817
1.6569
1.65643
1.71081
1.71016
1.70812
1.70567
1.70294
1.69997
1.6968
1.69351
1.69019
1.68691
1.68376
1.68082
1.67815
1.67581
1.67383
1.67221
1.67092
1.66985
1.66884
1.66782
1.6668
1.66578
1.66478
1.66376
1.6627
1.66158
1.66037
1.65905
1.6577
1.65647
1.65558
1.65519
1.67364
1.6731
1.67203
1.67098
1.66993
1.66885
1.66774
1.66661
1.6655
1.6644
1.66336
1.66239
1.66151
1.66074
1.66009
1.65956
1.65915
1.6588
1.65849
1.65817
1.65784
1.65752
1.65721
1.65689
1.65656
1.65621
1.65583
1.65542
1.65499
1.65457
1.65425
1.65409
)
;

boundaryField
{
    movingWall
    {
        type            fixedValue;
        value           uniform 1.6535;
    }
    fixedWalls
    {
        type            zeroGradient;
    }
    floor
    {
        type            zeroGradient;
    }
    frontAndBack
    {
        type            empty;
    }
}


// ************************************************************************* //
