/*--------------------------------*- C++ -*----------------------------------*\
| =========                 |                                                 |
| \\      /  F ield         | OpenFOAM: The Open Source CFD Toolbox           |
|  \\    /   O peration     | Version:  2212                                  |
|   \\  /    A nd           | Website:  www.openfoam.com                      |
|    \\/     M anipulation  |                                                 |
\*---------------------------------------------------------------------------*/
FoamFile
{
    version     2.0;
    format      ascii;
    arch        "LSB;label=64;scalar=64";
    class       volScalarField;
    location    "530";
    object      p_rgh;
}
// * * * * * * * * * * * * * * * * * * * * * * * * * * * * * * * * * * * * * //

dimensions      [0 2 -2 0 0 0 0];

internalField   nonuniform List<scalar> 
1024
(
0.0431962
0.0431913
0.0431858
0.0431822
0.043181
0.0431819
0.0431863
0.0431984
0.0432254
0.0432776
0.0433686
0.0435102
0.0436994
0.0439021
0.0440532
0.0440983
0.0440771
0.0440214
0.0439667
0.0439198
0.0438795
0.0438447
0.043815
0.0437902
0.04377
0.0437539
0.0437415
0.0437326
0.0437278
0.0437273
0.0437303
0.0437339
0.0432097
0.0432048
0.0432005
0.0431986
0.0431988
0.0432008
0.0432061
0.0432189
0.0432465
0.0432992
0.0433906
0.0435329
0.0437226
0.0439257
0.0440766
0.0441207
0.0440983
0.0440413
0.0439855
0.0439376
0.0438964
0.0438608
0.0438306
0.0438052
0.0437845
0.043768
0.0437552
0.0437458
0.0437402
0.0437386
0.0437409
0.0437445
0.0432352
0.0432295
0.0432266
0.0432282
0.0432321
0.0432373
0.0432451
0.0432602
0.0432899
0.0433449
0.043439
0.0435847
0.0437774
0.0439826
0.0441342
0.044176
0.0441501
0.0440898
0.0440312
0.0439809
0.0439375
0.0438998
0.0438676
0.0438403
0.0438176
0.0437989
0.0437836
0.0437714
0.0437627
0.0437586
0.0437597
0.0437639
0.0432669
0.0432604
0.0432601
0.0432676
0.0432784
0.0432897
0.0433026
0.043322
0.0433561
0.0434156
0.0435143
0.0436652
0.0438615
0.0440689
0.0442221
0.0442647
0.0442363
0.0441726
0.0441105
0.0440569
0.0440102
0.0439689
0.0439329
0.0439015
0.0438742
0.0438504
0.0438291
0.0438101
0.0437946
0.0437852
0.0437841
0.0437888
0.0432915
0.0432855
0.0432905
0.0433077
0.0433298
0.0433514
0.0433728
0.0433994
0.0434395
0.043504
0.0436064
0.0437589
0.0439554
0.0441629
0.0443188
0.0443715
0.0443489
0.0442862
0.0442232
0.0441678
0.0441183
0.0440727
0.0440314
0.0439934
0.0439582
0.0439249
0.0438924
0.0438609
0.0438331
0.043814
0.0438081
0.0438122
0.0432893
0.0432858
0.0432995
0.0433315
0.0433707
0.0434082
0.0434424
0.0434786
0.0435247
0.0435913
0.0436923
0.0438376
0.0440291
0.0442346
0.044396
0.0444707
0.044466
0.044414
0.0443572
0.0443051
0.0442565
0.0442086
0.0441618
0.0441153
0.0440684
0.0440202
0.0439697
0.043918
0.0438704
0.0438357
0.0438213
0.0438233
0.0432415
0.0432422
0.0432675
0.043319
0.0433818
0.0434416
0.0434933
0.0435402
0.0435896
0.0436516
0.0437417
0.0438743
0.0440593
0.0442644
0.044436
0.0445393
0.0445611
0.0445301
0.0444889
0.0444482
0.0444073
0.0443628
0.0443134
0.0442583
0.0441968
0.0441281
0.0440518
0.0439709
0.0438947
0.0438375
0.0438104
0.0438086
0.0431406
0.0431459
0.043183
0.0432561
0.0433476
0.0434357
0.043509
0.0435671
0.0436161
0.0436664
0.0437386
0.0438592
0.0440423
0.0442535
0.04444
0.0445683
0.0446171
0.0446124
0.0445937
0.0445719
0.0445463
0.0445128
0.0444664
0.0444054
0.0443286
0.0442351
0.0441254
0.0440059
0.0438921
0.043806
0.0437632
0.0437563
0.0429977
0.0430066
0.0430516
0.0431426
0.0432628
0.0433829
0.0434814
0.043552
0.0435987
0.0436341
0.0436865
0.0438007
0.0439921
0.0442184
0.0444193
0.0445645
0.0446337
0.0446533
0.0446586
0.0446591
0.0446533
0.0446367
0.0445996
0.0445376
0.0444472
0.0443264
0.0441773
0.0440109
0.0438522
0.043733
0.0436728
0.0436606
0.0428452
0.0428554
0.0429003
0.0429972
0.0431368
0.0432849
0.0434099
0.0434962
0.0435438
0.0435667
0.0436006
0.0437202
0.043934
0.0441752
0.0443884
0.0445419
0.0446228
0.0446602
0.0446856
0.0447067
0.044721
0.0447225
0.0446989
0.0446408
0.0445398
0.0443912
0.0441981
0.043979
0.043771
0.0436175
0.0435408
0.0435236
0.0427337
0.0427435
0.0427831
0.04287
0.0430019
0.0431545
0.0432958
0.0433997
0.0434533
0.0434666
0.043506
0.0436552
0.043889
0.0441448
0.0443623
0.0445141
0.0445981
0.0446463
0.0446861
0.0447232
0.0447546
0.0447718
0.0447619
0.0447099
0.0446003
0.0444234
0.0441836
0.0439086
0.0436507
0.0434654
0.0433751
0.0433541
0.0427126
0.0427199
0.0427491
0.0428166
0.0429246
0.0430552
0.0431802
0.0432739
0.0433241
0.0433523
0.0434494
0.0436459
0.0439025
0.0441562
0.0443575
0.0444922
0.0445703
0.0446237
0.044673
0.0447212
0.0447644
0.0447935
0.0447942
0.0447462
0.0446269
0.0444201
0.0441315
0.0438003
0.0434962
0.0432851
0.0431855
0.0431621
0.0428311
0.0428317
0.0428439
0.0428839
0.0429571
0.0430514
0.0431436
0.0432144
0.0432665
0.0433623
0.0435455
0.0437855
0.0440327
0.0442421
0.0443906
0.0444844
0.0445458
0.0446001
0.0446562
0.0447128
0.0447636
0.0447992
0.0448039
0.0447533
0.0446178
0.0443761
0.044036
0.0436514
0.0433098
0.0430831
0.0429799
0.0429553
0.0432136
0.0432004
0.0431851
0.0431875
0.0432203
0.0432795
0.0433514
0.0434364
0.0435964
0.0437959
0.0440019
0.0441862
0.0443269
0.0444159
0.0444618
0.0444892
0.0445261
0.0445814
0.0446459
0.0447098
0.0447639
0.0447984
0.0447963
0.0447296
0.0445633
0.0442736
0.0438777
0.0434487
0.0430882
0.0428654
0.0427677
0.0427439
0.0442917
0.0442858
0.0442783
0.0442845
0.0443244
0.0444103
0.0445391
0.0446854
0.0447698
0.0448033
0.0447955
0.0447523
0.04468
0.0445939
0.0445178
0.0444803
0.0445047
0.0445753
0.0446548
0.0447212
0.0447674
0.0447839
0.0447522
0.0446413
0.0444127
0.0440437
0.0436024
0.0431844
0.0428601
0.0426653
0.0425799
0.0425578
0.045703
0.0457178
0.0457376
0.0457515
0.0457494
0.0457233
0.0456681
0.0455822
0.0454659
0.0453218
0.0451528
0.0449639
0.0447659
0.0445896
0.0444665
0.0444232
0.0444787
0.0445935
0.0446717
0.0447028
0.0446944
0.0446365
0.0445133
0.0443107
0.0440245
0.0436686
0.0432898
0.0429501
0.0426979
0.042549
0.0424827
0.0424632
0.0460528
0.0460489
0.0460328
0.0459976
0.0459375
0.0458499
0.0457348
0.0455948
0.0454319
0.0452487
0.0450481
0.0448359
0.0446213
0.0444598
0.0443718
0.0443597
0.0443904
0.044391
0.0443749
0.0443299
0.0442581
0.0441586
0.0440263
0.0438534
0.0436366
0.0433846
0.0431255
0.0428981
0.0427333
0.0426383
0.0425963
0.042583
0.0462107
0.0461962
0.0461599
0.0460938
0.045994
0.0458632
0.0457086
0.0455375
0.0453541
0.0451614
0.0449621
0.0447614
0.0445688
0.0443936
0.0442425
0.0441192
0.0440229
0.0439483
0.0438722
0.0438014
0.0437438
0.0437002
0.0436623
0.0436151
0.0435429
0.0434392
0.0433175
0.0432073
0.0431369
0.0431143
0.0431225
0.0431343
0.0463789
0.0463562
0.046304
0.0462166
0.0460965
0.0459539
0.0457998
0.0456399
0.0454746
0.0453012
0.045119
0.0449279
0.0447306
0.0445331
0.0443469
0.0441945
0.0440662
0.0439759
0.0439307
0.0439403
0.0440141
0.044152
0.0443406
0.0445611
0.0447957
0.0449547
0.0450345
0.0450558
0.0450471
0.045036
0.0450399
0.0450531
0.0465344
0.0465057
0.0464468
0.0463596
0.0462531
0.0461402
0.0460286
0.0459196
0.0458107
0.0456958
0.0455747
0.0454484
0.0453214
0.0452025
0.0450928
0.0449913
0.0449599
0.0450405
0.0452409
0.0455593
0.0459804
0.0464695
0.0469619
0.0473545
0.0475925
0.0477427
0.0478078
0.0477967
0.0477263
0.0476196
0.0475119
0.0474441
0.0467206
0.0467022
0.0466671
0.046618
0.0465615
0.0465042
0.0464474
0.0463871
0.0463194
0.0462445
0.0461641
0.0460801
0.0459939
0.0459059
0.0458312
0.045795
0.0458399
0.0459986
0.0462514
0.0465621
0.0468778
0.0471482
0.0473396
0.0475166
0.0476827
0.0478242
0.0479274
0.0479868
0.0480071
0.0479986
0.0479735
0.0479492
0.046801
0.0467845
0.0467559
0.0467204
0.0466854
0.0466572
0.046637
0.0466201
0.0466007
0.0465742
0.0465384
0.046493
0.0464408
0.0463892
0.0463523
0.04635
0.0464127
0.0465551
0.0467387
0.0469177
0.0470531
0.0471384
0.0472143
0.0473157
0.0474411
0.047575
0.0476985
0.0477942
0.0478536
0.0478789
0.0478798
0.0478697
0.0468292
0.0468136
0.0467881
0.0467598
0.0467375
0.0467287
0.0467346
0.04675
0.0467668
0.0467775
0.0467775
0.0467644
0.0467403
0.0467117
0.0466902
0.0466913
0.0467368
0.0468337
0.0469446
0.0470319
0.0470782
0.0470929
0.047118
0.0471746
0.0472661
0.0473843
0.0475132
0.0476298
0.0477147
0.0477596
0.04777
0.0477627
0.046849
0.046834
0.0468101
0.0467856
0.0467707
0.0467736
0.0467962
0.046833
0.0468739
0.0469117
0.0469388
0.0469512
0.0469481
0.046933
0.0469137
0.0469006
0.0469123
0.0469584
0.0470128
0.0470509
0.0470692
0.0470703
0.0470854
0.0471299
0.0472088
0.0473182
0.0474496
0.0475817
0.0476907
0.0477563
0.0477764
0.0477718
0.0468661
0.0468513
0.0468288
0.0468082
0.0467997
0.0468112
0.0468439
0.0468932
0.0469482
0.0470022
0.0470465
0.0470763
0.0470891
0.0470847
0.0470661
0.0470371
0.0470163
0.047015
0.0470123
0.0470022
0.0469997
0.0470162
0.0470591
0.0471318
0.0472363
0.0473661
0.0475098
0.0476622
0.0478008
0.047895
0.0479307
0.0479328
0.0468799
0.0468648
0.0468443
0.0468299
0.04683
0.0468495
0.046889
0.0469439
0.0470037
0.0470623
0.0471129
0.0471504
0.0471722
0.0471765
0.0471627
0.0471286
0.0470818
0.047029
0.0469722
0.0469241
0.0469098
0.0469428
0.0470192
0.047136
0.0472902
0.0474725
0.0476678
0.0478639
0.0480416
0.0481789
0.0482428
0.0482595
0.0468828
0.0468681
0.0468535
0.0468502
0.0468627
0.0468917
0.0469362
0.0469913
0.0470474
0.0470995
0.0471446
0.0471796
0.0472026
0.0472114
0.047203
0.0471696
0.0471064
0.0470154
0.0469183
0.0468438
0.0468226
0.0468672
0.0469719
0.0471323
0.0473436
0.0475961
0.0478703
0.048143
0.0483908
0.0485952
0.0487111
0.048757
0.046864
0.0468544
0.0468531
0.0468692
0.0468991
0.0469387
0.0469858
0.0470332
0.0470771
0.0471149
0.0471469
0.047172
0.0471897
0.047198
0.0471922
0.0471615
0.0470906
0.0469778
0.0468565
0.0467667
0.0467427
0.0467968
0.0469244
0.0471224
0.0473867
0.0477092
0.048071
0.0484464
0.0488037
0.0491096
0.049319
0.0494229
0.0468024
0.0468105
0.0468397
0.046888
0.0469401
0.0469897
0.0470329
0.0470668
0.0470927
0.0471115
0.0471262
0.0471378
0.0471466
0.047151
0.0471455
0.0471174
0.0470448
0.0469227
0.0467906
0.0466946
0.0466717
0.0467347
0.04688
0.0471067
0.047413
0.0477943
0.0482369
0.0487212
0.0492179
0.0496835
0.0500439
0.0502756
0.0466443
0.0467177
0.0468192
0.0469148
0.0469894
0.0470436
0.0470762
0.047092
0.0470974
0.0470964
0.0470936
0.0470916
0.0470912
0.0470909
0.0470849
0.0470591
0.046988
0.0468641
0.0467295
0.0466332
0.0466137
0.0466836
0.0468407
0.0470861
0.0474198
0.0478411
0.0483443
0.0489229
0.0495667
0.0502481
0.0508852
0.0514402
0.0461798
0.0465731
0.0468241
0.0469706
0.047055
0.0471022
0.0471189
0.0471152
0.0471003
0.0470816
0.047064
0.0470508
0.0470431
0.0470393
0.0470329
0.0470093
0.0469406
0.046818
0.0466843
0.0465897
0.0465729
0.0466464
0.046809
0.0470629
0.047409
0.0478495
0.0483853
0.0490247
0.0497883
0.0507109
0.0518259
0.0530887
0.0451741
0.0464181
0.0468959
0.0470446
0.0471198
0.0471558
0.0471568
0.0471369
0.0471076
0.0470766
0.0470494
0.0470295
0.0470176
0.0470118
0.0470052
0.0469829
0.0469158
0.0467947
0.046662
0.0465685
0.0465524
0.0466264
0.0467899
0.0470449
0.047393
0.0478372
0.0483827
0.049049
0.0498863
0.0510026
0.0526198
0.0548884
)
;

boundaryField
{
    movingWall
    {
        type            fixedFluxPressure;
        gradient        uniform 0;
        value           nonuniform List<scalar> 
32
(
0.0451741
0.0464181
0.0468959
0.0470446
0.0471198
0.0471558
0.0471568
0.0471369
0.0471076
0.0470766
0.0470494
0.0470295
0.0470176
0.0470118
0.0470052
0.0469829
0.0469158
0.0467947
0.046662
0.0465685
0.0465524
0.0466264
0.0467899
0.0470449
0.047393
0.0478372
0.0483827
0.049049
0.0498863
0.0510026
0.0526198
0.0548884
)
;
    }
    fixedWalls
    {
        type            fixedFluxPressure;
        gradient        uniform 0;
        value           nonuniform List<scalar> 
64
(
0.0431962
0.0432097
0.0432352
0.0432669
0.0432915
0.0432893
0.0432415
0.0431406
0.0429977
0.0428452
0.0427337
0.0427126
0.0428311
0.0432136
0.0442917
0.045703
0.0460528
0.0462107
0.0463789
0.0465344
0.0467206
0.046801
0.0468292
0.046849
0.0468661
0.0468799
0.0468828
0.046864
0.0468024
0.0466443
0.0461798
0.0451741
0.0437339
0.0437445
0.0437639
0.0437888
0.0438122
0.0438233
0.0438086
0.0437563
0.0436606
0.0435236
0.0433541
0.0431621
0.0429553
0.0427439
0.0425578
0.0424632
0.042583
0.0431343
0.0450531
0.0474441
0.0479492
0.0478697
0.0477627
0.0477718
0.0479328
0.0482595
0.048757
0.0494229
0.0502756
0.0514402
0.0530887
0.0548884
)
;
    }
    floor
    {
        type            fixedFluxPressure;
        gradient        uniform 0;
        value           nonuniform List<scalar> 
32
(
0.0431962
0.0431913
0.0431858
0.0431822
0.043181
0.0431819
0.0431863
0.0431984
0.0432254
0.0432776
0.0433686
0.0435102
0.0436994
0.0439021
0.0440532
0.0440983
0.0440771
0.0440214
0.0439667
0.0439198
0.0438795
0.0438447
0.043815
0.0437902
0.04377
0.0437539
0.0437415
0.0437326
0.0437278
0.0437273
0.0437303
0.0437339
)
;
    }
    frontAndBack
    {
        type            empty;
    }
}


// ************************************************************************* //
