/*--------------------------------*- C++ -*----------------------------------*\
| =========                 |                                                 |
| \\      /  F ield         | OpenFOAM: The Open Source CFD Toolbox           |
|  \\    /   O peration     | Version:  2212                                  |
|   \\  /    A nd           | Website:  www.openfoam.com                      |
|    \\/     M anipulation  |                                                 |
\*---------------------------------------------------------------------------*/
FoamFile
{
    version     2.0;
    format      ascii;
    arch        "LSB;label=64;scalar=64";
    class       volScalarField;
    location    "530";
    object      Sco2;
}
// * * * * * * * * * * * * * * * * * * * * * * * * * * * * * * * * * * * * * //

dimensions      [1 -3 0 0 0 0 0];

internalField   nonuniform List<scalar> 
1024
(
0.00589512
0.00589585
0.00589758
0.00590061
0.00590523
0.00591156
0.00591951
0.0059287
0.00593871
0.0059491
0.00595973
0.00597037
0.00598043
0.00598857
0.00599214
0.0059871
0.00597248
0.00595324
0.00593365
0.0059153
0.00589888
0.00588451
0.00587206
0.00586129
0.00585199
0.00584415
0.00583781
0.005833
0.00582961
0.00582745
0.00582624
0.00582575
0.00589526
0.005896
0.00589777
0.00590089
0.00590564
0.00591212
0.0059202
0.00592948
0.00593952
0.00594993
0.00596057
0.00597127
0.00598143
0.00598972
0.00599341
0.00598836
0.00597363
0.00595429
0.00593461
0.00591617
0.00589967
0.00588524
0.00587273
0.00586191
0.00585254
0.00584462
0.00583818
0.00583327
0.00582979
0.00582756
0.00582633
0.00582581
0.00589552
0.00589628
0.00589815
0.00590144
0.00590643
0.00591317
0.00592146
0.00593085
0.00594093
0.00595135
0.00596208
0.005973
0.00598356
0.00599237
0.00599649
0.00599142
0.00597633
0.00595662
0.00593664
0.00591795
0.00590125
0.00588666
0.00587403
0.0058631
0.0058536
0.00584552
0.0058389
0.00583379
0.00583016
0.00582781
0.0058265
0.00582595
0.00589586
0.00589668
0.00589867
0.00590218
0.00590746
0.00591448
0.00592297
0.00593244
0.00594253
0.005953
0.00596394
0.00597539
0.00598688
0.00599691
0.00600201
0.00599692
0.00598102
0.00596048
0.00593981
0.00592059
0.00590348
0.0058886
0.00587576
0.00586466
0.00585501
0.00584673
0.00583987
0.00583453
0.00583067
0.00582817
0.00582676
0.00582619
0.00589622
0.00589709
0.0058992
0.00590292
0.00590843
0.00591566
0.00592425
0.00593371
0.00594376
0.00595432
0.00596571
0.00597817
0.0059914
0.00600364
0.00601054
0.00600553
0.0059882
0.00596609
0.00594413
0.00592392
0.0059061
0.00589073
0.00587758
0.00586629
0.00585647
0.00584802
0.00584093
0.00583534
0.00583126
0.0058286
0.0058271
0.00582649
0.00589648
0.00589738
0.00589956
0.00590337
0.00590897
0.00591622
0.00592472
0.00593402
0.00594395
0.00595467
0.00596679
0.00598088
0.00599688
0.00601265
0.00602242
0.00601776
0.00599834
0.00597367
0.00594954
0.00592768
0.00590869
0.00589257
0.00587899
0.00586749
0.00585757
0.00584902
0.0058418
0.00583604
0.0058318
0.00582901
0.00582744
0.00582679
0.00589643
0.00589734
0.0058995
0.00590324
0.00590868
0.00591567
0.00592381
0.00593272
0.00594242
0.00595334
0.00596647
0.00598289
0.00600285
0.0060237
0.00603765
0.00603382
0.0060117
0.00598329
0.00595588
0.00593151
0.00591074
0.00589351
0.00587936
0.00586766
0.00585776
0.00584929
0.00584214
0.00583638
0.00583211
0.00582927
0.00582766
0.005827
0.00589584
0.00589672
0.00589876
0.00590223
0.00590722
0.00591361
0.00592105
0.0059293
0.00593857
0.00594965
0.00596406
0.00598353
0.00600881
0.00603644
0.00605591
0.00605351
0.00602816
0.00599476
0.00596282
0.00593491
0.00591167
0.00589291
0.00587804
0.00586622
0.00585653
0.0058484
0.00584158
0.00583608
0.00583196
0.0058292
0.00582761
0.00582695
0.00589439
0.00589522
0.00589707
0.00590009
0.00590438
0.00590982
0.00591621
0.00592347
0.00593207
0.00594328
0.00595928
0.00598275
0.00601494
0.00605102
0.00607705
0.00607627
0.00604703
0.00600738
0.00596965
0.0059372
0.00591079
0.00589015
0.00587447
0.00586265
0.00585344
0.005846
0.00583986
0.0058349
0.00583116
0.00582861
0.00582713
0.00582649
0.00589173
0.0058925
0.00589411
0.0058966
0.00590001
0.00590428
0.00590934
0.00591537
0.00592322
0.00593477
0.00595319
0.0059823
0.00602345
0.00606932
0.00610175
0.00610137
0.00606681
0.00601957
0.00597498
0.00593723
0.00590722
0.00588454
0.00586815
0.00585659
0.00584824
0.00584188
0.00583678
0.00583268
0.00582953
0.00582733
0.00582599
0.00582539
0.00588756
0.00588822
0.00588955
0.00589151
0.00589404
0.00589713
0.00590087
0.00590583
0.00591345
0.0059266
0.00594978
0.00598764
0.00604013
0.00609574
0.00613192
0.00612798
0.00608497
0.00602848
0.00597629
0.00593305
0.00589957
0.00587521
0.00585857
0.00584777
0.00584077
0.00583595
0.00583227
0.00582929
0.00582691
0.00582514
0.00582399
0.00582343
0.00588309
0.00588335
0.005884
0.00588514
0.0058868
0.00588907
0.00589232
0.00589766
0.00590754
0.00592621
0.00595917
0.00601016
0.00607521
0.00613718
0.00616988
0.0061542
0.00609722
0.00602933
0.00596943
0.00592149
0.00588568
0.00586081
0.00584498
0.00583584
0.00583089
0.00582813
0.00582624
0.00582463
0.00582314
0.00582186
0.0058209
0.00582038
0.00589019
0.00588934
0.00588804
0.005887
0.005887
0.00588893
0.00589398
0.0059042
0.00592294
0.00595503
0.00600437
0.00607064
0.00614354
0.0062004
0.00621472
0.00617406
0.0060957
0.00601464
0.00594826
0.00589805
0.00586254
0.00583953
0.00582642
0.00582034
0.0058184
0.00581827
0.00581847
0.00581834
0.0058178
0.00581703
0.00581629
0.00581582
0.00595574
0.00595405
0.00595119
0.00594846
0.00594783
0.0059517
0.00596265
0.00598341
0.00601677
0.00606493
0.00612699
0.00619603
0.00625547
0.00628113
0.00625328
0.0061722
0.00606705
0.00597433
0.00590586
0.00585835
0.00582767
0.00581015
0.00580243
0.00580126
0.00580359
0.00580698
0.00580979
0.00581134
0.00581169
0.00581127
0.0058106
0.0058101
0.00615146
0.0061518
0.00615294
0.00615581
0.00616195
0.00617335
0.00619204
0.00621948
0.00625573
0.00629867
0.00634246
0.0063755
0.00638043
0.00634018
0.00624956
0.00612316
0.00599706
0.0059023
0.00584099
0.00580371
0.00578358
0.00577552
0.00577539
0.0057797
0.00578568
0.00579143
0.00579592
0.00579877
0.00580011
0.00580037
0.00580009
0.00579978
0.00644565
0.00644901
0.00645576
0.00646557
0.00647788
0.00649208
0.00650741
0.0065225
0.00653438
0.0065383
0.00652689
0.00649017
0.00641849
0.00630873
0.00616989
0.00602253
0.00589883
0.00581849
0.00577401
0.00575268
0.00574674
0.00575099
0.00576115
0.00577335
0.00578437
0.00579224
0.00579641
0.00579751
0.0057968
0.00579552
0.00579448
0.00579397
0.0066549
0.00665801
0.00666368
0.0066707
0.00667734
0.00668147
0.00668059
0.00667168
0.00665098
0.00661387
0.00655541
0.00647181
0.00636306
0.00623508
0.00609878
0.00596784
0.00586426
0.00580119
0.00576769
0.00575023
0.00574156
0.00573785
0.00573699
0.00573778
0.00573956
0.00574249
0.00574736
0.00575483
0.00576473
0.00577542
0.00578432
0.0057892
0.00674635
0.00674817
0.00675118
0.00675432
0.00675607
0.00675443
0.00674683
0.00673008
0.0067007
0.00665561
0.00659322
0.00651394
0.00642027
0.00631659
0.00620917
0.00610714
0.00602836
0.00598198
0.0059569
0.00594159
0.00593056
0.0059222
0.00591784
0.00592016
0.00593164
0.00595329
0.0059853
0.00602533
0.00606813
0.00610661
0.00613429
0.00614785
0.00680304
0.00680476
0.00680804
0.00681247
0.00681719
0.00682074
0.00682084
0.00681457
0.00679913
0.00677262
0.00673494
0.00668752
0.00663307
0.00657583
0.00652266
0.00648546
0.00648241
0.00652222
0.00659356
0.00668118
0.00677265
0.00685899
0.00693506
0.0069994
0.00705129
0.00709076
0.00711891
0.00713746
0.00714869
0.00715531
0.00715944
0.00716161
0.00684559
0.0068477
0.0068525
0.00686056
0.00687201
0.0068862
0.00690139
0.00691495
0.00692429
0.00692767
0.00692522
0.00691868
0.00691156
0.00690981
0.00692366
0.00697102
0.00707328
0.00723506
0.00743507
0.0076483
0.00785343
0.00803516
0.008183
0.00829654
0.0083728
0.00841233
0.00841718
0.00839306
0.00835046
0.00830405
0.00826822
0.00825071
0.00687721
0.00687948
0.00688525
0.00689589
0.00691265
0.00693599
0.00696515
0.00699801
0.00703179
0.00706405
0.0070939
0.00712241
0.00715312
0.00719311
0.00725501
0.00735995
0.00752861
0.00775462
0.00800364
0.00824524
0.00845818
0.00863297
0.00876708
0.00886748
0.00893688
0.00897808
0.00899276
0.00898341
0.00895545
0.00891861
0.00888568
0.00886746
0.00690477
0.00690686
0.00691262
0.00692406
0.00694322
0.00697167
0.00700979
0.00705637
0.00710884
0.00716405
0.00721959
0.00727464
0.00733111
0.00739507
0.00747895
0.00760399
0.00778847
0.00801815
0.00825228
0.00846152
0.00863108
0.00876127
0.00886109
0.00894074
0.00900577
0.00905767
0.00909523
0.0091169
0.00912281
0.00911625
0.00910409
0.00909502
0.00693662
0.00693798
0.00694269
0.00695333
0.00697276
0.00700349
0.00704694
0.00710283
0.00716902
0.00724194
0.00731774
0.0073934
0.0074682
0.00754552
0.00763514
0.00775583
0.00792407
0.00812626
0.00832473
0.00849522
0.00862957
0.00873423
0.00882121
0.00889996
0.00897419
0.00904215
0.00909913
0.00914088
0.00916585
0.00917589
0.00917593
0.00917288
0.00698317
0.00698299
0.00698525
0.00699349
0.0070116
0.00704311
0.00709033
0.00715364
0.00723112
0.00731875
0.00741143
0.00750419
0.00759378
0.00768044
0.00777023
0.00787776
0.0080176
0.00818222
0.00834357
0.0084836
0.00859731
0.00869132
0.00877568
0.0088579
0.00894074
0.00902159
0.00909405
0.00915139
0.00918976
0.00920973
0.00921589
0.00921538
0.00705666
0.00705387
0.00705215
0.00705661
0.00707269
0.00710503
0.00715652
0.00722757
0.00731576
0.0074163
0.00752299
0.00762948
0.00773081
0.00782481
0.00791409
0.00800879
0.00812074
0.00824893
0.00837682
0.00849264
0.00859222
0.00867942
0.008761
0.00884266
0.00892695
0.00901216
0.00909258
0.0091604
0.00920932
0.00923757
0.00924857
0.00924971
0.00716923
0.0071628
0.00715608
0.00715665
0.00717179
0.00720698
0.00726493
0.00734498
0.00744332
0.00755415
0.00767054
0.00778566
0.00789395
0.00799202
0.00808011
0.00816458
0.0082541
0.00835193
0.00845115
0.00854545
0.00863115
0.00870954
0.00878468
0.0088606
0.00893959
0.00902111
0.00910114
0.00917259
0.00922785
0.00926253
0.00927787
0.00928059
0.00733097
0.00732033
0.00730939
0.00730873
0.00732677
0.00736856
0.00743527
0.00752409
0.00762959
0.00774536
0.00786459
0.00798094
0.00808925
0.00818603
0.0082703
0.00834569
0.00841789
0.00849191
0.00856711
0.00864134
0.00871178
0.00877833
0.00884314
0.00890892
0.00897763
0.00904959
0.0091225
0.00919091
0.00924735
0.00928566
0.00930447
0.00930877
0.00754898
0.00753497
0.00752397
0.0075284
0.00755519
0.00760675
0.00768158
0.00777484
0.00788053
0.00799273
0.0081057
0.00821437
0.0083146
0.00840346
0.0084796
0.0085449
0.00860268
0.00865794
0.0087133
0.00876918
0.00882383
0.00887668
0.00892871
0.00898163
0.00903701
0.00909563
0.0091567
0.00921668
0.00926929
0.00930777
0.00932861
0.00933433
0.00782873
0.00781478
0.00781207
0.00782957
0.00786877
0.00792833
0.00800487
0.00809344
0.00818917
0.00828763
0.00838474
0.00847696
0.0085614
0.00863587
0.00869918
0.00875217
0.00879654
0.00883645
0.00887547
0.0089152
0.00895481
0.00899368
0.00903222
0.00907144
0.00911244
0.00915613
0.00920266
0.00925032
0.00929474
0.00932972
0.00935053
0.00935724
0.00817717
0.00817062
0.00818537
0.00821812
0.00826468
0.00832259
0.00838932
0.00846176
0.00853701
0.00861247
0.00868573
0.00875462
0.00881734
0.00887247
0.00891914
0.00895768
0.00898882
0.00901555
0.00904103
0.00906698
0.00909309
0.00911894
0.00914464
0.00917075
0.00919799
0.00922705
0.00925843
0.00929172
0.00932456
0.00935247
0.00937072
0.00937753
0.00860692
0.0086161
0.00864505
0.0086798
0.00871841
0.00876049
0.00880539
0.00885195
0.008899
0.00894539
0.00898995
0.00903159
0.00906935
0.00910246
0.00913042
0.00915334
0.00917148
0.0091866
0.00920072
0.00921505
0.00922952
0.00924387
0.00925816
0.00927264
0.00928767
0.00930367
0.00932103
0.00933986
0.00935931
0.00937706
0.00938989
0.00939542
0.00913415
0.00914192
0.009157
0.00917192
0.00918687
0.00920219
0.0092179
0.0092338
0.00924963
0.00926509
0.00927986
0.00929359
0.00930601
0.00931689
0.00932606
0.00933355
0.00933942
0.00934425
0.00934871
0.00935322
0.00935778
0.0093623
0.0093668
0.00937134
0.00937604
0.00938101
0.0093864
0.00939229
0.0093985
0.00940443
0.00940909
0.00941138
)
;

boundaryField
{
    movingWall
    {
        type            fixedValue;
        value           uniform 0.00942;
    }
    fixedWalls
    {
        type            zeroGradient;
    }
    floor
    {
        type            zeroGradient;
    }
    frontAndBack
    {
        type            empty;
    }
}


// ************************************************************************* //
