/*--------------------------------*- C++ -*----------------------------------*\
| =========                 |                                                 |
| \\      /  F ield         | OpenFOAM: The Open Source CFD Toolbox           |
|  \\    /   O peration     | Version:  2212                                  |
|   \\  /    A nd           | Website:  www.openfoam.com                      |
|    \\/     M anipulation  |                                                 |
\*---------------------------------------------------------------------------*/
FoamFile
{
    version     2.0;
    format      ascii;
    arch        "LSB;label=64;scalar=64";
    class       volScalarField;
    location    "300";
    object      Saa;
}
// * * * * * * * * * * * * * * * * * * * * * * * * * * * * * * * * * * * * * //

dimensions      [1 -3 0 0 0 0 0];

internalField   nonuniform List<scalar> 
1024
(
0.00548884
0.00548885
0.00548889
0.00548895
0.00548904
0.00548914
0.00548926
0.00548938
0.0054895
0.0054896
0.00548968
0.00548974
0.00548976
0.00548974
0.00548968
0.00548957
0.0054894
0.0054892
0.005489
0.00548881
0.00548862
0.00548842
0.00548821
0.00548799
0.00548776
0.00548755
0.00548735
0.0054872
0.00548708
0.00548701
0.00548697
0.00548695
0.00548884
0.00548885
0.00548889
0.00548896
0.00548905
0.00548916
0.00548928
0.0054894
0.00548951
0.00548962
0.0054897
0.00548976
0.00548978
0.00548976
0.0054897
0.00548958
0.00548941
0.00548921
0.00548902
0.00548882
0.00548863
0.00548843
0.00548823
0.00548801
0.00548778
0.00548757
0.00548737
0.00548721
0.00548709
0.00548702
0.00548697
0.00548695
0.00548884
0.00548886
0.0054889
0.00548897
0.00548906
0.00548918
0.0054893
0.00548942
0.00548955
0.00548966
0.00548975
0.0054898
0.00548982
0.0054898
0.00548973
0.00548961
0.00548943
0.00548924
0.00548904
0.00548885
0.00548866
0.00548847
0.00548826
0.00548805
0.00548783
0.00548761
0.00548741
0.00548724
0.00548712
0.00548703
0.00548699
0.00548697
0.00548885
0.00548887
0.00548891
0.00548898
0.00548908
0.0054892
0.00548933
0.00548946
0.00548959
0.00548972
0.00548982
0.00548988
0.0054899
0.00548986
0.00548979
0.00548965
0.00548947
0.00548927
0.00548907
0.00548888
0.0054887
0.00548851
0.00548831
0.00548811
0.00548789
0.00548767
0.00548746
0.00548729
0.00548715
0.00548706
0.00548701
0.00548699
0.00548886
0.00548887
0.00548892
0.00548899
0.0054891
0.00548922
0.00548936
0.0054895
0.00548966
0.00548981
0.00548993
0.00549
0.00549001
0.00548997
0.00548986
0.0054897
0.0054895
0.00548929
0.00548909
0.00548891
0.00548873
0.00548855
0.00548837
0.00548817
0.00548796
0.00548774
0.00548753
0.00548734
0.0054872
0.0054871
0.00548704
0.00548702
0.00548886
0.00548888
0.00548892
0.005489
0.0054891
0.00548923
0.00548939
0.00548955
0.00548973
0.00548991
0.00549007
0.00549016
0.00549017
0.0054901
0.00548996
0.00548976
0.00548953
0.0054893
0.00548909
0.00548891
0.00548874
0.00548857
0.00548841
0.00548823
0.00548803
0.00548781
0.0054876
0.0054874
0.00548725
0.00548714
0.00548708
0.00548705
0.00548886
0.00548888
0.00548892
0.005489
0.0054891
0.00548924
0.00548941
0.00548959
0.00548981
0.00549003
0.00549023
0.00549035
0.00549036
0.00549027
0.00549008
0.00548982
0.00548954
0.00548928
0.00548906
0.00548888
0.00548872
0.00548857
0.00548842
0.00548826
0.00548808
0.00548787
0.00548766
0.00548746
0.0054873
0.00548719
0.00548712
0.00548709
0.00548885
0.00548887
0.00548891
0.00548899
0.00548909
0.00548924
0.00548941
0.00548963
0.00548987
0.00549015
0.0054904
0.00549055
0.00549057
0.00549045
0.0054902
0.00548987
0.00548951
0.00548921
0.00548897
0.00548879
0.00548864
0.00548851
0.00548838
0.00548825
0.00548809
0.0054879
0.0054877
0.00548751
0.00548734
0.00548722
0.00548716
0.00548713
0.00548884
0.00548886
0.0054889
0.00548897
0.00548908
0.00548922
0.00548941
0.00548964
0.00548992
0.00549025
0.00549056
0.00549077
0.00549079
0.00549063
0.00549031
0.00548988
0.00548943
0.00548907
0.00548882
0.00548863
0.0054885
0.00548839
0.00548829
0.00548818
0.00548805
0.00548789
0.00548771
0.00548752
0.00548737
0.00548725
0.00548719
0.00548716
0.00548882
0.00548884
0.00548888
0.00548894
0.00548904
0.00548918
0.00548938
0.00548963
0.00548995
0.00549034
0.00549073
0.00549098
0.00549102
0.00549081
0.0054904
0.00548984
0.00548927
0.00548885
0.00548857
0.00548839
0.00548828
0.0054882
0.00548813
0.00548806
0.00548796
0.00548783
0.00548767
0.00548751
0.00548737
0.00548726
0.0054872
0.00548718
0.00548878
0.0054888
0.00548884
0.0054889
0.00548899
0.00548913
0.00548932
0.00548959
0.00548997
0.00549043
0.0054909
0.00549122
0.00549125
0.00549099
0.00549045
0.00548974
0.00548904
0.00548853
0.00548823
0.00548806
0.00548797
0.00548793
0.00548791
0.00548788
0.00548782
0.00548773
0.0054876
0.00548746
0.00548734
0.00548726
0.0054872
0.00548718
0.00548872
0.00548874
0.00548877
0.00548883
0.00548892
0.00548905
0.00548925
0.00548955
0.00548999
0.00549055
0.00549111
0.00549147
0.0054915
0.00549115
0.00549048
0.00548959
0.00548872
0.00548812
0.00548779
0.00548764
0.00548758
0.00548759
0.00548762
0.00548764
0.00548763
0.00548758
0.00548749
0.00548739
0.0054873
0.00548723
0.00548718
0.00548716
0.00548864
0.00548866
0.00548869
0.00548875
0.00548883
0.00548897
0.00548919
0.00548954
0.00549007
0.00549074
0.00549138
0.00549177
0.00549176
0.00549132
0.00549048
0.00548938
0.00548833
0.00548764
0.00548729
0.00548715
0.00548714
0.0054872
0.00548728
0.00548736
0.0054874
0.00548739
0.00548735
0.00548728
0.00548721
0.00548716
0.00548712
0.0054871
0.00548857
0.00548859
0.00548862
0.00548868
0.00548878
0.00548894
0.00548922
0.00548966
0.0054903
0.00549105
0.00549173
0.00549211
0.00549204
0.00549148
0.00549047
0.00548914
0.00548789
0.00548711
0.00548675
0.00548663
0.00548666
0.00548677
0.00548691
0.00548704
0.00548714
0.00548719
0.0054872
0.00548717
0.00548713
0.00548708
0.00548705
0.00548703
0.0054886
0.00548861
0.00548865
0.00548872
0.00548885
0.00548908
0.00548945
0.00549001
0.00549074
0.00549153
0.00549218
0.00549249
0.00549233
0.00549165
0.00549047
0.00548893
0.00548747
0.00548659
0.00548622
0.00548614
0.0054862
0.00548635
0.00548653
0.0054867
0.00548684
0.00548693
0.00548697
0.00548697
0.00548695
0.00548692
0.00548689
0.00548688
0.00548884
0.00548885
0.0054889
0.00548899
0.00548918
0.00548949
0.00548996
0.00549061
0.00549137
0.00549211
0.00549267
0.0054929
0.00549268
0.00549193
0.00549063
0.0054889
0.00548724
0.00548623
0.00548584
0.0054858
0.00548592
0.00548612
0.00548633
0.00548653
0.00548668
0.00548678
0.00548683
0.00548684
0.00548682
0.00548678
0.00548675
0.00548673
0.00548929
0.00548931
0.00548937
0.00548949
0.00548972
0.00549009
0.00549062
0.00549128
0.00549199
0.00549264
0.00549312
0.00549333
0.00549316
0.00549249
0.00549124
0.00548947
0.00548763
0.00548641
0.00548587
0.00548575
0.00548586
0.00548606
0.00548626
0.00548641
0.00548651
0.00548654
0.00548653
0.00548648
0.00548644
0.0054864
0.00548638
0.00548637
0.00548973
0.00548976
0.00548982
0.00548996
0.00549021
0.00549059
0.0054911
0.00549171
0.00549234
0.00549292
0.00549339
0.00549371
0.00549377
0.00549344
0.00549255
0.00549105
0.00548923
0.00548774
0.0054868
0.00548628
0.00548602
0.0054859
0.00548588
0.00548589
0.00548594
0.00548603
0.00548615
0.00548632
0.00548651
0.00548669
0.00548683
0.00548689
0.00549003
0.00549005
0.00549012
0.00549025
0.00549049
0.00549083
0.00549128
0.0054918
0.00549235
0.00549287
0.00549337
0.00549382
0.00549418
0.00549431
0.00549405
0.00549324
0.00549196
0.00549069
0.00548972
0.00548906
0.00548865
0.00548844
0.00548837
0.00548844
0.00548861
0.00548887
0.00548919
0.00548955
0.00548989
0.00549018
0.00549036
0.00549045
0.00549019
0.00549021
0.00549027
0.00549039
0.00549059
0.00549087
0.00549124
0.00549166
0.00549211
0.00549257
0.00549304
0.00549355
0.0054941
0.00549461
0.00549494
0.00549494
0.00549455
0.00549403
0.00549364
0.00549344
0.00549342
0.00549356
0.00549381
0.00549411
0.00549443
0.00549473
0.00549497
0.00549513
0.00549521
0.00549523
0.00549522
0.00549521
0.00549026
0.00549028
0.00549033
0.00549043
0.00549059
0.00549082
0.00549111
0.00549144
0.0054918
0.00549217
0.00549259
0.00549308
0.00549367
0.00549435
0.00549502
0.00549557
0.00549587
0.00549601
0.00549618
0.00549644
0.00549679
0.0054972
0.00549762
0.005498
0.00549831
0.00549852
0.00549862
0.00549861
0.00549853
0.00549841
0.0054983
0.00549824
0.00549027
0.00549029
0.00549033
0.00549041
0.00549054
0.00549072
0.00549095
0.00549121
0.00549149
0.00549181
0.00549217
0.00549262
0.0054932
0.00549392
0.00549472
0.00549551
0.00549617
0.00549666
0.0054971
0.00549754
0.00549797
0.00549839
0.00549875
0.00549905
0.00549927
0.00549943
0.00549953
0.00549956
0.00549955
0.00549951
0.00549945
0.00549942
0.00549026
0.00549028
0.00549031
0.00549037
0.00549047
0.00549062
0.00549079
0.005491
0.00549124
0.00549151
0.00549185
0.00549229
0.00549286
0.00549358
0.00549441
0.00549528
0.00549607
0.0054967
0.00549722
0.00549769
0.00549811
0.00549848
0.00549879
0.00549905
0.00549926
0.00549943
0.00549957
0.00549966
0.00549971
0.00549973
0.00549973
0.00549973
0.00549027
0.00549028
0.0054903
0.00549034
0.00549042
0.00549053
0.00549067
0.00549085
0.00549106
0.00549134
0.00549169
0.00549216
0.00549274
0.00549346
0.00549428
0.00549515
0.00549596
0.00549661
0.00549714
0.00549759
0.00549798
0.00549832
0.00549862
0.00549888
0.00549912
0.00549933
0.0054995
0.00549964
0.00549973
0.00549978
0.0054998
0.0054998
0.00549037
0.00549036
0.00549036
0.00549037
0.00549041
0.00549049
0.00549061
0.00549079
0.00549103
0.00549134
0.00549175
0.00549226
0.00549289
0.00549361
0.0054944
0.00549524
0.00549601
0.00549664
0.00549713
0.00549754
0.00549789
0.00549821
0.00549849
0.00549875
0.00549901
0.00549924
0.00549945
0.00549962
0.00549973
0.0054998
0.00549983
0.00549984
0.00549065
0.00549062
0.00549056
0.00549053
0.00549053
0.00549059
0.00549072
0.00549092
0.00549122
0.0054916
0.00549209
0.00549266
0.00549331
0.00549403
0.00549478
0.00549556
0.00549626
0.00549683
0.00549726
0.00549763
0.00549794
0.00549822
0.00549848
0.00549873
0.00549897
0.00549921
0.00549943
0.00549961
0.00549974
0.00549983
0.00549987
0.00549988
0.00549119
0.00549112
0.00549102
0.00549094
0.00549091
0.00549097
0.00549112
0.00549138
0.00549175
0.00549221
0.00549276
0.00549337
0.00549402
0.0054947
0.00549538
0.00549607
0.00549669
0.00549717
0.00549755
0.00549785
0.00549812
0.00549836
0.00549859
0.0054988
0.00549902
0.00549924
0.00549944
0.00549962
0.00549976
0.00549985
0.00549989
0.00549991
0.00549203
0.00549194
0.00549182
0.00549172
0.00549169
0.00549177
0.00549197
0.00549229
0.00549271
0.00549321
0.00549377
0.00549436
0.00549496
0.00549556
0.00549615
0.00549673
0.00549724
0.00549764
0.00549795
0.00549819
0.00549841
0.0054986
0.00549878
0.00549896
0.00549914
0.00549932
0.00549949
0.00549965
0.00549978
0.00549987
0.00549992
0.00549993
0.0054932
0.00549311
0.00549301
0.00549296
0.00549297
0.0054931
0.00549333
0.00549366
0.00549407
0.00549454
0.00549504
0.00549555
0.00549606
0.00549655
0.00549702
0.00549747
0.00549787
0.00549818
0.00549841
0.0054986
0.00549876
0.0054989
0.00549904
0.00549917
0.00549931
0.00549944
0.00549958
0.00549971
0.00549982
0.0054999
0.00549994
0.00549996
0.00549469
0.00549464
0.00549463
0.00549467
0.00549475
0.00549489
0.0054951
0.00549539
0.00549573
0.0054961
0.00549648
0.00549686
0.00549723
0.00549759
0.00549792
0.00549824
0.00549852
0.00549873
0.0054989
0.00549902
0.00549913
0.00549923
0.00549932
0.00549941
0.0054995
0.00549959
0.00549969
0.00549978
0.00549986
0.00549992
0.00549996
0.00549998
0.00549654
0.00549657
0.00549665
0.00549674
0.00549683
0.00549694
0.00549709
0.00549727
0.00549748
0.00549771
0.00549795
0.00549818
0.0054984
0.00549861
0.0054988
0.00549899
0.00549915
0.00549927
0.00549937
0.00549944
0.0054995
0.00549956
0.00549961
0.00549966
0.00549971
0.00549976
0.00549981
0.00549987
0.00549991
0.00549995
0.00549998
0.00549999
0.00549879
0.00549882
0.00549887
0.00549892
0.00549896
0.005499
0.00549905
0.00549911
0.00549918
0.00549926
0.00549934
0.00549941
0.00549949
0.00549955
0.00549962
0.00549968
0.00549973
0.00549977
0.0054998
0.00549982
0.00549984
0.00549986
0.00549988
0.00549989
0.00549991
0.00549992
0.00549994
0.00549996
0.00549997
0.00549999
0.00549999
0.0055
)
;

boundaryField
{
    movingWall
    {
        type            fixedValue;
        value           uniform 0.0055;
    }
    fixedWalls
    {
        type            zeroGradient;
    }
    floor
    {
        type            zeroGradient;
    }
    frontAndBack
    {
        type            empty;
    }
}


// ************************************************************************* //
