/*--------------------------------*- C++ -*----------------------------------*\
| =========                 |                                                 |
| \\      /  F ield         | OpenFOAM: The Open Source CFD Toolbox           |
|  \\    /   O peration     | Version:  2212                                  |
|   \\  /    A nd           | Website:  www.openfoam.com                      |
|    \\/     M anipulation  |                                                 |
\*---------------------------------------------------------------------------*/
FoamFile
{
    version     2.0;
    format      ascii;
    arch        "LSB;label=64;scalar=64";
    class       volScalarField;
    location    "300";
    object      Sco2;
}
// * * * * * * * * * * * * * * * * * * * * * * * * * * * * * * * * * * * * * //

dimensions      [1 -3 0 0 0 0 0];

internalField   nonuniform List<scalar> 
1024
(
0.00657545
0.00657798
0.00658398
0.00659416
0.00660856
0.00662636
0.0066461
0.00666625
0.00668565
0.00670328
0.0067178
0.00672735
0.00673189
0.00673059
0.00672227
0.00670517
0.00667941
0.00664953
0.00661923
0.00658915
0.00655918
0.00652875
0.00649721
0.0064644
0.00643126
0.00639965
0.00637172
0.00634911
0.00633247
0.00632153
0.00631536
0.00631282
0.00657584
0.00657849
0.00658477
0.00659538
0.00661025
0.00662843
0.00664841
0.00666874
0.00668835
0.00670628
0.00672108
0.00673064
0.00673507
0.0067336
0.00672506
0.00670774
0.00668182
0.00665188
0.00662159
0.00659159
0.00656177
0.00653154
0.00650023
0.00646759
0.00643444
0.00640259
0.00637421
0.00635105
0.00633392
0.00632262
0.00631625
0.00631363
0.00657661
0.00657944
0.00658615
0.0065974
0.006613
0.00663184
0.00665241
0.00667339
0.00669391
0.00671304
0.00672895
0.00673875
0.00674288
0.00674076
0.00673137
0.00671318
0.0066866
0.00665633
0.00662601
0.00659617
0.00656669
0.00653694
0.00650619
0.00647401
0.00644098
0.00640874
0.00637951
0.00635527
0.00633714
0.0063251
0.00631831
0.00631552
0.00657764
0.00658063
0.00658773
0.00659962
0.00661601
0.00663575
0.0066574
0.00667985
0.00670244
0.0067242
0.00674255
0.00675321
0.0067569
0.00675337
0.00674202
0.00672172
0.00669345
0.00666227
0.00663168
0.00660204
0.00657309
0.00654414
0.00651436
0.00648307
0.00645045
0.00641787
0.00638756
0.00636184
0.00634225
0.00632912
0.0063217
0.00631867
0.00657867
0.00658176
0.00658911
0.00660146
0.00661859
0.00663943
0.00666274
0.00668767
0.00671373
0.00673979
0.00676227
0.00677496
0.00677833
0.00677258
0.00675775
0.00673344
0.00670181
0.00666867
0.00663732
0.00660776
0.00657947
0.00655164
0.00652325
0.00649333
0.00646162
0.00642903
0.00639771
0.00637035
0.00634905
0.0063346
0.00632641
0.0063231
0.00657944
0.00658254
0.00658995
0.00660252
0.00662022
0.00664229
0.00666777
0.0066961
0.0067269
0.00675886
0.00678726
0.0068037
0.00680738
0.00679878
0.00677874
0.00674803
0.00671073
0.00667407
0.00664117
0.00661139
0.00658382
0.00655735
0.00653075
0.00650273
0.0064725
0.00644046
0.00640857
0.00637981
0.00635689
0.00634111
0.00633215
0.00632856
0.00657969
0.00658274
0.00659004
0.00660256
0.00662061
0.00664385
0.00667174
0.006704
0.00674043
0.00677955
0.00681557
0.00683779
0.00684293
0.00683114
0.00680419
0.00676438
0.00671865
0.00667654
0.00664102
0.00661062
0.00658377
0.00655892
0.00653449
0.00650886
0.00648072
0.00644995
0.00641823
0.00638873
0.00636467
0.0063479
0.00633835
0.00633454
0.00657914
0.00658213
0.0065892
0.00660145
0.00661954
0.00664365
0.00667375
0.00670997
0.00675244
0.00679973
0.00684497
0.00687496
0.00688282
0.00686767
0.00683212
0.00678038
0.00672319
0.0066735
0.00663426
0.00660287
0.00657682
0.00655393
0.00653216
0.00650945
0.00648405
0.00645533
0.00642471
0.00639546
0.00637115
0.00635402
0.00634422
0.00634033
0.00657751
0.00658041
0.00658718
0.00659895
0.00661669
0.00664112
0.00667285
0.00671268
0.00676142
0.00681798
0.00687416
0.00691357
0.00692505
0.00690604
0.00685989
0.00679309
0.00672124
0.00666187
0.00661799
0.00658546
0.00656055
0.00654022
0.0065218
0.00650271
0.00648075
0.00645493
0.00642648
0.00639866
0.0063752
0.00635854
0.00634896
0.00634513
0.00657429
0.00657711
0.00658354
0.0065946
0.00661153
0.00663558
0.00666819
0.00671127
0.00676683
0.00683434
0.00690344
0.00695354
0.0069688
0.00694471
0.00688526
0.00679963
0.00670952
0.00663852
0.00658943
0.00655601
0.00653298
0.00651616
0.00650206
0.0064875
0.00646983
0.00644786
0.0064227
0.00639755
0.0063761
0.00636072
0.00635179
0.00634815
0.0065687
0.00657144
0.00657747
0.00658765
0.00660331
0.00662631
0.00665928
0.00670578
0.00676964
0.00685059
0.00693473
0.00699623
0.00701467
0.00698349
0.00690724
0.00679816
0.00668558
0.00660105
0.00654661
0.00651306
0.00649302
0.00648095
0.00647239
0.00646344
0.00645109
0.00643399
0.00641323
0.00639187
0.00637337
0.00635994
0.00635199
0.00634864
0.00655978
0.00656242
0.00656807
0.00657741
0.00659177
0.00661363
0.00664719
0.00669842
0.00677347
0.0068709
0.00697147
0.00704388
0.00706387
0.00702297
0.00692599
0.00678831
0.00664861
0.00654875
0.00648925
0.00645667
0.00644096
0.006435
0.0064332
0.00643099
0.00642504
0.00641396
0.00639877
0.00638223
0.00636739
0.00635625
0.00634935
0.00634624
0.00654772
0.00655019
0.00655555
0.00656453
0.00657866
0.00660116
0.00663789
0.0066975
0.00678751
0.00690303
0.00701872
0.00709911
0.00711751
0.00706375
0.00694209
0.00677082
0.00659956
0.00648309
0.00641932
0.00638892
0.00637874
0.00637991
0.0063858
0.00639111
0.00639219
0.00638759
0.00637827
0.00636678
0.00635582
0.00634717
0.00634149
0.00633875
0.00653733
0.00653951
0.00654474
0.00655431
0.00657056
0.00659794
0.00664391
0.00671819
0.00682617
0.00695744
0.00708232
0.00716433
0.00717645
0.0071066
0.00695698
0.00674793
0.00654139
0.00640773
0.00634108
0.00631405
0.00631004
0.00631875
0.00633292
0.0063469
0.00635666
0.00636024
0.00635794
0.00635185
0.00634443
0.00633757
0.00633245
0.00632971
0.00654249
0.00654448
0.0065501
0.00656181
0.0065835
0.00662114
0.00668285
0.00677625
0.00690072
0.0070402
0.00716441
0.00724022
0.00724219
0.0071553
0.00697719
0.00672841
0.00648318
0.00633044
0.00626192
0.00623958
0.00624182
0.0062568
0.00627689
0.00629654
0.00631187
0.00632088
0.00632374
0.00632219
0.00631826
0.00631364
0.00630965
0.00630731
0.00658125
0.00658352
0.00659062
0.00660644
0.00663642
0.00668738
0.00676607
0.00687495
0.0070069
0.00714361
0.00725867
0.00732531
0.00732027
0.00722349
0.00702482
0.00674129
0.00645487
0.00627502
0.00619991
0.00618318
0.00619522
0.00621955
0.00624652
0.0062707
0.00628924
0.00630111
0.00630646
0.00630636
0.00630256
0.00629718
0.00629229
0.00628945
0.00665158
0.00665458
0.00666394
0.00668446
0.00672218
0.0067833
0.00687166
0.00698489
0.00711274
0.00723917
0.00734546
0.00741285
0.00741961
0.00733911
0.00714978
0.00685576
0.00653239
0.00630626
0.00619965
0.00616817
0.00617668
0.00620157
0.00622854
0.00624945
0.00626093
0.00626309
0.00625841
0.00625069
0.00624351
0.0062389
0.00623687
0.00623632
0.00671852
0.00672224
0.00673331
0.00675659
0.00679761
0.00686096
0.0069479
0.00705418
0.00717075
0.0072872
0.00739425
0.00748151
0.00753042
0.00751095
0.00738976
0.00714861
0.00683046
0.0065538
0.00637241
0.00626437
0.00620551
0.00617526
0.00616231
0.00616021
0.00616668
0.00618199
0.00620712
0.00624157
0.00628143
0.00631935
0.00634741
0.00636114
0.00676129
0.00676528
0.00677655
0.00679931
0.00683795
0.00689548
0.00697182
0.00706331
0.00716426
0.00727011
0.00737899
0.00748885
0.00758915
0.00765523
0.00765143
0.00754423
0.00733774
0.00711291
0.00693469
0.00680743
0.00672636
0.00668141
0.00666697
0.00667785
0.0067105
0.00676128
0.00682568
0.00689679
0.00696537
0.00702157
0.00705854
0.00707507
0.00678231
0.00678617
0.00679644
0.00681636
0.00684914
0.00689663
0.00695834
0.0070317
0.00711391
0.0072043
0.00730547
0.00742173
0.00755197
0.00768311
0.00778877
0.00783702
0.0078094
0.0077436
0.00769065
0.00766587
0.00767309
0.00770855
0.0077646
0.00783066
0.00789914
0.00796135
0.00801033
0.00804162
0.00805508
0.00805576
0.00805161
0.00804862
0.00678897
0.00679251
0.00680142
0.00681799
0.00684445
0.006882
0.00693011
0.00698705
0.00705154
0.00712493
0.00721227
0.00732116
0.00745618
0.00761326
0.00777684
0.00792399
0.00802939
0.00810033
0.00816807
0.00824727
0.00834046
0.00844402
0.00854909
0.00864419
0.00872205
0.00877612
0.00880305
0.00880364
0.0087837
0.00875405
0.00872753
0.00871336
0.00678738
0.00679051
0.00679805
0.00681155
0.0068325
0.0068617
0.00689882
0.00694294
0.006994
0.00705463
0.00713091
0.00723138
0.0073628
0.00752481
0.00770748
0.00789455
0.00806033
0.00819578
0.00831794
0.00843843
0.00855837
0.00867399
0.0087801
0.00887201
0.00894711
0.0090035
0.00904008
0.00905691
0.00905617
0.00904327
0.00902684
0.00901606
0.00678347
0.0067858
0.00679159
0.00680211
0.00681845
0.00684114
0.00687013
0.00690547
0.00694851
0.00700321
0.00707608
0.00717498
0.00730587
0.00746882
0.00765571
0.00785295
0.00803562
0.0081885
0.00832187
0.00844637
0.008564
0.00867366
0.00877448
0.00886637
0.00894889
0.00901994
0.00907623
0.00911507
0.00913605
0.00914188
0.0091384
0.00913342
0.0067868
0.00678721
0.00678963
0.00679591
0.00680745
0.00682493
0.00684878
0.00688019
0.00692216
0.00697979
0.0070592
0.00716602
0.00730312
0.00746877
0.00765566
0.007852
0.0080337
0.00818358
0.00830973
0.00842396
0.00853068
0.0086316
0.00872848
0.00882304
0.00891523
0.00900159
0.0090762
0.00913334
0.00917027
0.00918839
0.00919283
0.00919127
0.00681416
0.00681055
0.00680621
0.0068049
0.00680971
0.00682248
0.00684463
0.00687861
0.00692851
0.00699934
0.00709511
0.00721769
0.00736601
0.00753588
0.00772025
0.00790972
0.00808248
0.00822163
0.00833471
0.00843477
0.00852828
0.00861865
0.00870868
0.00880056
0.00889472
0.008988
0.0090738
0.00914431
0.00919396
0.00922189
0.0092322
0.00923278
0.00688817
0.00687804
0.00686292
0.00684998
0.00684584
0.00685496
0.00688033
0.00692497
0.00699222
0.00708455
0.00720201
0.00734218
0.00750063
0.0076718
0.00784949
0.00802689
0.00818555
0.0083105
0.008409
0.00849422
0.00857374
0.00865178
0.00873131
0.00881449
0.00890219
0.00899238
0.00907971
0.0091563
0.0092144
0.00925019
0.00926566
0.00926815
0.00703054
0.00701245
0.00698519
0.00696033
0.00694887
0.00695858
0.00699354
0.00705554
0.00714475
0.00725928
0.0073949
0.00754597
0.00770656
0.00787132
0.00803561
0.00819513
0.00833525
0.00844362
0.008527
0.00859754
0.00866281
0.00872717
0.0087935
0.00886384
0.00893928
0.00901899
0.0090994
0.00917407
0.00923486
0.00927553
0.00929523
0.00929961
0.00725523
0.00723058
0.00719676
0.00716833
0.00715834
0.007176
0.00722466
0.00730348
0.00740891
0.00753536
0.00767602
0.00782424
0.00797445
0.00812253
0.00826559
0.0084014
0.00851895
0.00860871
0.00867651
0.00873268
0.00878394
0.00883429
0.00888625
0.00894167
0.00900171
0.00906643
0.0091341
0.00920022
0.00925769
0.00929931
0.00932163
0.00932772
0.00756747
0.00754221
0.00751606
0.00750025
0.00750362
0.00753358
0.00759206
0.00767673
0.00778245
0.00790258
0.00803026
0.00815968
0.00828656
0.00840825
0.00852322
0.00863057
0.0087225
0.00879209
0.00884399
0.00888623
0.00892417
0.00896104
0.00899893
0.00903931
0.00908321
0.00913117
0.00918278
0.00923562
0.00928454
0.00932279
0.00934539
0.00935267
0.00796976
0.00795496
0.00795338
0.00796193
0.00798186
0.00801855
0.00807432
0.00814775
0.00823484
0.00833032
0.008429
0.00852669
0.00862056
0.00870905
0.00879149
0.00886762
0.00893235
0.00898109
0.00901713
0.00904607
0.00907167
0.00909625
0.00912128
0.00914785
0.00917668
0.00920837
0.00924314
0.00928015
0.0093165
0.00934719
0.00936716
0.00937461
0.00847094
0.00847782
0.00850086
0.00852389
0.00854798
0.00857794
0.00861674
0.00866457
0.00871954
0.00877871
0.00883901
0.00889801
0.00895412
0.00900653
0.00905497
0.00909941
0.00913704
0.0091653
0.00918608
0.00920262
0.00921707
0.0092308
0.00924465
0.00925926
0.00927504
0.00929238
0.00931159
0.00933254
0.00935411
0.0093737
0.00938777
0.00939383
0.00908654
0.00909464
0.00910915
0.00912118
0.00913182
0.00914322
0.00915682
0.00917303
0.00919142
0.00921106
0.00923098
0.00925037
0.00926872
0.0092858
0.00930152
0.0093159
0.00932806
0.00933717
0.00934386
0.00934916
0.00935376
0.0093581
0.00936245
0.00936701
0.00937192
0.0093773
0.00938325
0.0093898
0.00939669
0.00940325
0.00940837
0.00941088
)
;

boundaryField
{
    movingWall
    {
        type            fixedValue;
        value           uniform 0.00942;
    }
    fixedWalls
    {
        type            zeroGradient;
    }
    floor
    {
        type            zeroGradient;
    }
    frontAndBack
    {
        type            empty;
    }
}


// ************************************************************************* //
