/*--------------------------------*- C++ -*----------------------------------*\
| =========                 |                                                 |
| \\      /  F ield         | OpenFOAM: The Open Source CFD Toolbox           |
|  \\    /   O peration     | Version:  2212                                  |
|   \\  /    A nd           | Website:  www.openfoam.com                      |
|    \\/     M anipulation  |                                                 |
\*---------------------------------------------------------------------------*/
FoamFile
{
    version     2.0;
    format      ascii;
    arch        "LSB;label=64;scalar=64";
    class       volVectorField;
    location    "300";
    object      U;
}
// * * * * * * * * * * * * * * * * * * * * * * * * * * * * * * * * * * * * * //

dimensions      [0 1 -1 0 0 0 0];

internalField   nonuniform List<vector> 
1024
(
(-3.17822e-05 2.37516e-05 0)
(-0.000627442 0.000158441 0)
(-0.00174044 0.000211883 0)
(-0.00303135 0.000193628 0)
(-0.00422134 0.00016034 0)
(-0.00519139 0.000124502 0)
(-0.00582737 8.16347e-05 0)
(-0.00592958 1.94066e-05 0)
(-0.00515711 -7.29985e-05 0)
(-0.00324423 -0.000158363 0)
(0.000163055 -0.000197625 0)
(0.00336388 -0.000108129 0)
(0.00561539 -6.47042e-05 0)
(0.00719119 -2.55137e-05 0)
(0.00802946 -4.3308e-07 0)
(0.00817458 1.50587e-05 0)
(0.00775189 2.50841e-05 0)
(0.0070146 3.01311e-05 0)
(0.00617892 3.30051e-05 0)
(0.00533554 3.45041e-05 0)
(0.00452506 3.54426e-05 0)
(0.00376726 3.55268e-05 0)
(0.00307825 3.4251e-05 0)
(0.00247489 3.08811e-05 0)
(0.00197144 2.53419e-05 0)
(0.00156852 1.91395e-05 0)
(0.00123943 1.65946e-05 0)
(0.000931166 2.26609e-05 0)
(0.00060266 3.43531e-05 0)
(0.000279579 3.59103e-05 0)
(5.19651e-05 1.19181e-05 0)
(-1.63815e-05 -1.69976e-05 0)
(-0.000237845 0.000693265 0)
(-0.00206867 0.00172326 0)
(-0.00489544 0.00202299 0)
(-0.00797013 0.00177947 0)
(-0.0106738 0.00134556 0)
(-0.0126947 0.00087163 0)
(-0.0137658 0.000368252 0)
(-0.0135258 -0.000218958 0)
(-0.0114004 -0.00090287 0)
(-0.00707225 -0.00156229 0)
(0.0005119 -0.00180934 0)
(0.0078655 -0.00121607 0)
(0.0134389 -0.000774362 0)
(0.017686 -0.000421632 0)
(0.0203578 -0.000155378 0)
(0.0213744 3.57093e-05 0)
(0.0208854 0.000163831 0)
(0.0194539 0.000245072 0)
(0.0175926 0.000302173 0)
(0.0155707 0.000343809 0)
(0.0135275 0.000376884 0)
(0.0115405 0.000401407 0)
(0.00966711 0.000413723 0)
(0.00795995 0.000408712 0)
(0.00646121 0.000386353 0)
(0.00518123 0.000359824 0)
(0.00407406 0.000359341 0)
(0.00304501 0.00041031 0)
(0.00202352 0.000481523 0)
(0.00106323 0.000470049 0)
(0.000350557 0.000294242 0)
(1.70993e-05 5.10195e-05 0)
(-0.00042136 0.00237773 0)
(-0.00320916 0.00494122 0)
(-0.00715649 0.00539454 0)
(-0.0112522 0.00456769 0)
(-0.0146987 0.00328632 0)
(-0.0170783 0.00192155 0)
(-0.0180602 0.000544331 0)
(-0.0172395 -0.000925174 0)
(-0.014181 -0.00249109 0)
(-0.00870371 -0.00399709 0)
(0.00054274 -0.0046051 0)
(0.0100015 -0.00330425 0)
(0.0177511 -0.00222593 0)
(0.0241622 -0.001342 0)
(0.0287665 -0.000629325 0)
(0.0312728 -7.08587e-05 0)
(0.0314612 0.000317473 0)
(0.0301116 0.000575913 0)
(0.0279172 0.000769719 0)
(0.0252932 0.000921826 0)
(0.0224775 0.00104951 0)
(0.0196127 0.00115493 0)
(0.0168022 0.00123027 0)
(0.0141341 0.00126426 0)
(0.0116776 0.00125689 0)
(0.00946227 0.0012375 0)
(0.0074576 0.00127 0)
(0.00558273 0.00140438 0)
(0.00377436 0.00156994 0)
(0.002095 0.00153831 0)
(0.000789968 0.00110115 0)
(7.15904e-05 0.000365782 0)
(-0.000465558 0.0048886 0)
(-0.00358565 0.00951919 0)
(-0.00795041 0.0100389 0)
(-0.0123925 0.0082927 0)
(-0.0160124 0.00575166 0)
(-0.0183471 0.00309555 0)
(-0.0190762 0.000509938 0)
(-0.0178463 -0.00206404 0)
(-0.0144867 -0.00464281 0)
(-0.00885002 -0.00708998 0)
(0.000221553 -0.00815519 0)
(0.0101302 -0.00620242 0)
(0.0188727 -0.00439841 0)
(0.0266303 -0.00286356 0)
(0.0328086 -0.00155836 0)
(0.0369657 -0.000456082 0)
(0.0384271 0.00035651 0)
(0.0378188 0.000913999 0)
(0.0359605 0.00134553 0)
(0.0333645 0.00170052 0)
(0.0303403 0.0020112 0)
(0.0270813 0.00228463 0)
(0.0237269 0.00250972 0)
(0.0203918 0.00266957 0)
(0.0171662 0.00276424 0)
(0.0141029 0.0028372 0)
(0.0112075 0.00298074 0)
(0.00844652 0.00326601 0)
(0.00579066 0.00358329 0)
(0.0033142 0.00355028 0)
(0.00132165 0.00272588 0)
(0.000137631 0.0010783 0)
(-0.000367448 0.00770957 0)
(-0.00320219 0.0147864 0)
(-0.00736763 0.0154505 0)
(-0.011665 0.0126112 0)
(-0.0151401 0.00853175 0)
(-0.0173119 0.00431857 0)
(-0.0179079 0.000340221 0)
(-0.0166756 -0.0034044 0)
(-0.0135404 -0.00702608 0)
(-0.00829144 -0.0104111 0)
(-0.000176348 -0.0119643 0)
(0.00919161 -0.00957272 0)
(0.0179938 -0.00708614 0)
(0.0262045 -0.00488945 0)
(0.0332173 -0.00294942 0)
(0.0385871 -0.00122036 0)
(0.0414213 0.000143798 0)
(0.0418724 0.0011133 0)
(0.0407869 0.00187926 0)
(0.0387106 0.00253146 0)
(0.0359832 0.00312302 0)
(0.0328179 0.00366994 0)
(0.0293668 0.00416098 0)
(0.0257538 0.00457636 0)
(0.0220787 0.00491694 0)
(0.0184135 0.00523442 0)
(0.0148012 0.00563548 0)
(0.0112618 0.00619999 0)
(0.00781354 0.00677785 0)
(0.00456051 0.00680467 0)
(0.00187651 0.00546671 0)
(0.000209737 0.00235654 0)
(-0.000205136 0.0102784 0)
(-0.00237216 0.0200187 0)
(-0.00592905 0.0211285 0)
(-0.0097884 0.0172644 0)
(-0.0129951 0.0115543 0)
(-0.0150578 0.00566868 0)
(-0.0157388 0.000229652 0)
(-0.0148391 -0.00471365 0)
(-0.0121702 -0.00944714 0)
(-0.00747543 -0.0137992 0)
(-0.000397261 -0.0158231 0)
(0.00800735 -0.0132002 0)
(0.0163216 -0.0101098 0)
(0.024324 -0.00727315 0)
(0.0314404 -0.0047047 0)
(0.0372951 -0.00233884 0)
(0.0409864 -0.000386585 0)
(0.0424028 0.00107278 0)
(0.0421744 0.0022461 0)
(0.0408285 0.00327205 0)
(0.0386928 0.00423196 0)
(0.0359657 0.00515689 0)
(0.0327837 0.00604063 0)
(0.0292576 0.00686445 0)
(0.0254832 0.00763062 0)
(0.0215425 0.00839302 0)
(0.0175062 0.00925889 0)
(0.0134368 0.0102999 0)
(0.00939984 0.0113082 0)
(0.00554298 0.0114925 0)
(0.00231355 0.00951546 0)
(0.000266699 0.00431671 0)
(-5.8842e-05 0.0121943 0)
(-0.00144529 0.0245851 0)
(-0.00419543 0.0266072 0)
(-0.00747775 0.0220484 0)
(-0.0103972 0.0148278 0)
(-0.0124451 0.00729421 0)
(-0.0133622 0.000382801 0)
(-0.012896 -0.00584472 0)
(-0.0106973 -0.0118404 0)
(-0.00652873 -0.0172442 0)
(-0.00035789 -0.0196824 0)
(0.00696858 -0.0169669 0)
(0.0145398 -0.0133506 0)
(0.0219768 -0.00989349 0)
(0.0287402 -0.00670227 0)
(0.0344986 -0.00370336 0)
(0.0383834 -0.00116732 0)
(0.0403229 0.000791903 0)
(0.0406978 0.00240119 0)
(0.0399835 0.00384047 0)
(0.0384659 0.00522548 0)
(0.0363008 0.00661041 0)
(0.0335832 0.00800106 0)
(0.0303906 0.00938394 0)
(0.0267995 0.0107624 0)
(0.0228898 0.0121865 0)
(0.0187462 0.0137528 0)
(0.0144589 0.0155052 0)
(0.0101339 0.0171421 0)
(0.00596852 0.0175741 0)
(0.00247707 0.0148024 0)
(0.000279961 0.00690741 0)
(3.57605e-05 0.0132988 0)
(-0.000642714 0.0280439 0)
(-0.00253351 0.0314874 0)
(-0.00517881 0.0267889 0)
(-0.0078104 0.0183776 0)
(-0.00988432 0.00932175 0)
(-0.0110577 0.000920673 0)
(-0.0109567 -0.00675351 0)
(-0.00912539 -0.0142141 0)
(-0.00541863 -0.0207585 0)
(-6.67675e-05 -0.0235178 0)
(0.00616792 -0.0207835 0)
(0.0128685 -0.0167192 0)
(0.0195645 -0.0126671 0)
(0.0257626 -0.00885424 0)
(0.0311352 -0.00521109 0)
(0.0348197 -0.00208332 0)
(0.0367873 0.00036087 0)
(0.0373601 0.00239826 0)
(0.03698 0.00424829 0)
(0.0358977 0.00607161 0)
(0.03422 0.0079577 0)
(0.0319883 0.00993435 0)
(0.0292331 0.0119982 0)
(0.0259986 0.0141528 0)
(0.0223488 0.0164386 0)
(0.0183671 0.0189306 0)
(0.0141577 0.0216208 0)
(0.00985905 0.024057 0)
(0.0057198 0.0247539 0)
(0.00230441 0.0209508 0)
(0.000238852 0.00986149 0)
(7.9756e-05 0.0136021 0)
(-3.52875e-05 0.0301202 0)
(-0.00106693 0.0354106 0)
(-0.00301303 0.0312931 0)
(-0.00531947 0.0221848 0)
(-0.00739042 0.011793 0)
(-0.00875318 0.00185325 0)
(-0.00889618 -0.007474 0)
(-0.00732457 -0.0166111 0)
(-0.00405834 -0.0243211 0)
(0.000464954 -0.0272712 0)
(0.00560309 -0.0245483 0)
(0.0113301 -0.0201173 0)
(0.0171634 -0.0155208 0)
(0.0226841 -0.0111053 0)
(0.0275633 -0.00680544 0)
(0.0309224 -0.00304343 0)
(0.0326002 -0.000100024 0)
(0.0330701 0.00235422 0)
(0.0327233 0.00458774 0)
(0.0318262 0.00682332 0)
(0.0304626 0.00920405 0)
(0.0286294 0.0117947 0)
(0.0263093 0.0146102 0)
(0.0235063 0.0176549 0)
(0.0202563 0.020956 0)
(0.0166277 0.0245552 0)
(0.0127263 0.0283582 0)
(0.00871706 0.031683 0)
(0.00489893 0.0325317 0)
(0.0018603 0.0273567 0)
(0.000160444 0.0127706 0)
(0.000109452 0.0132131 0)
(0.000419764 0.0305875 0)
(0.000235022 0.0378816 0)
(-0.000862601 0.0352236 0)
(-0.00271575 0.0261043 0)
(-0.00470144 0.0146471 0)
(-0.00617227 0.00311875 0)
(-0.00648536 -0.00807345 0)
(-0.00511395 -0.0190579 0)
(-0.00234267 -0.0278281 0)
(0.00124681 -0.0308119 0)
(0.00526539 -0.0281152 0)
(0.0099035 -0.0234071 0)
(0.0147517 -0.0183559 0)
(0.0194919 -0.0133991 0)
(0.0238172 -0.00845856 0)
(0.0268481 -0.00400676 0)
(0.0282319 -0.000494784 0)
(0.0284486 0.00238981 0)
(0.0279388 0.00498248 0)
(0.0270284 0.00758308 0)
(0.0258129 0.0104104 0)
(0.0242661 0.0135872 0)
(0.0223316 0.0171614 0)
(0.0199718 0.0211451 0)
(0.0171862 0.0255513 0)
(0.0140182 0.0303743 0)
(0.0105682 0.0353855 0)
(0.00702645 0.0395672 0)
(0.0037397 0.0402942 0)
(0.00128356 0.0333335 0)
(7.47926e-05 0.0152275 0)
(0.000132415 0.0120752 0)
(0.000764264 0.0293135 0)
(0.00129 0.0381661 0)
(0.00120186 0.037782 0)
(0.000259272 0.0300487 0)
(-0.00133365 0.0178682 0)
(-0.002877 0.00466615 0)
(-0.00344117 -0.00849322 0)
(-0.00229744 -0.0214164 0)
(-0.000174835 -0.0309924 0)
(0.00228417 -0.0338766 0)
(0.00513163 -0.0312528 0)
(0.00854476 -0.026383 0)
(0.0122771 -0.0210231 0)
(0.0161228 -0.0156488 0)
(0.0198224 -0.0101418 0)
(0.0225415 -0.00497225 0)
(0.0237261 -0.000797657 0)
(0.0237038 0.00257605 0)
(0.0230012 0.00552561 0)
(0.0220184 0.0084405 0)
(0.0208829 0.0116386 0)
(0.0195625 0.0153264 0)
(0.0179736 0.019608 0)
(0.0160414 0.0245183 0)
(0.0137286 0.0300598 0)
(0.0110525 0.0361584 0)
(0.0081111 0.0423802 0)
(0.00512691 0.047241 0)
(0.00248896 0.0474139 0)
(0.000711505 0.0382624 0)
(5.26778e-06 0.0169484 0)
(0.000129867 0.0102546 0)
(0.000926458 0.0262147 0)
(0.00194658 0.0359017 0)
(0.00270588 0.0376046 0)
(0.00280903 0.0320453 0)
(0.00217476 0.0213945 0)
(0.0011562 0.00787529 0)
(0.000515442 -0.00797832 0)
(0.00118857 -0.0231616 0)
(0.00233672 -0.0331368 0)
(0.00355604 -0.036085 0)
(0.00509183 -0.0336086 0)
(0.0071372 -0.0287532 0)
(0.0096286 -0.0233103 0)
(0.0124687 -0.017724 0)
(0.0154593 -0.0118083 0)
(0.0178808 -0.00594934 0)
(0.0189689 -0.00101918 0)
(0.018816 0.00291862 0)
(0.0180222 0.00622662 0)
(0.0170569 0.0094012 0)
(0.0160613 0.0128801 0)
(0.0149906 0.0169798 0)
(0.01374 0.0218873 0)
(0.0122075 0.027682 0)
(0.010329 0.0343583 0)
(0.0081087 0.0417359 0)
(0.00566105 0.0490701 0)
(0.00325706 0.0542656 0)
(0.00131575 0.0533216 0)
(0.000229474 0.0416894 0)
(-3.85842e-05 0.0178161 0)
(9.69234e-05 0.00810765 0)
(0.000838203 0.0218382 0)
(0.00199791 0.0314733 0)
(0.00319104 0.0347305 0)
(0.00400623 0.0312244 0)
(0.0042747 0.0221398 0)
(0.00425577 0.00898393 0)
(0.00431873 -0.00737127 0)
(0.00455598 -0.023389 0)
(0.00474666 -0.0338282 0)
(0.0047218 -0.0369699 0)
(0.00481669 -0.0347288 0)
(0.00540279 -0.0301581 0)
(0.0065758 -0.024956 0)
(0.00833035 -0.0194536 0)
(0.010534 -0.0133896 0)
(0.0126744 -0.00696045 0)
(0.0138245 -0.00119329 0)
(0.0137402 0.00334587 0)
(0.0130498 0.0069688 0)
(0.0123004 0.0103306 0)
(0.0115908 0.0140049 0)
(0.0108372 0.0184364 0)
(0.00991711 0.0239163 0)
(0.00871735 0.030585 0)
(0.0071694 0.038413 0)
(0.00530005 0.0470327 0)
(0.00328331 0.0552452 0)
(0.00147171 0.0602127 0)
(0.000278128 0.057473 0)
(-0.000136561 0.0432468 0)
(-5.92311e-05 0.0178404 0)
(5.30052e-05 0.006194 0)
(0.000569686 0.0173748 0)
(0.00151848 0.0261684 0)
(0.00268006 0.0302132 0)
(0.0037322 0.0282654 0)
(0.00452235 0.0205338 0)
(0.0052411 0.00792603 0)
(0.00598961 -0.00831439 0)
(0.00638346 -0.0236297 0)
(0.00601057 -0.0332995 0)
(0.00489791 -0.03614 0)
(0.0036257 -0.034188 0)
(0.00282462 -0.0302504 0)
(0.00272107 -0.0256938 0)
(0.00337666 -0.0206481 0)
(0.00473675 -0.0148072 0)
(0.00658513 -0.00809058 0)
(0.00800668 -0.00140367 0)
(0.00847206 0.00370703 0)
(0.00818729 0.00751726 0)
(0.00789487 0.0109782 0)
(0.00758898 0.0148037 0)
(0.0071491 0.0195544 0)
(0.00645555 0.0256238 0)
(0.00539464 0.0332274 0)
(0.00392186 0.0422875 0)
(0.00221887 0.0520773 0)
(0.000627686 0.0606591 0)
(-0.000410141 0.0643608 0)
(-0.00068847 0.0590232 0)
(-0.00045878 0.0428054 0)
(-8.38455e-05 0.0170281 0)
(1.71719e-05 0.00495735 0)
(0.000262651 0.014087 0)
(0.000804562 0.0216817 0)
(0.00159562 0.0256932 0)
(0.00248199 0.0244225 0)
(0.00340526 0.0172919 0)
(0.00452592 0.00486488 0)
(0.00556503 -0.0105833 0)
(0.00590866 -0.0237282 0)
(0.0049763 -0.0313856 0)
(0.00294983 -0.03334 0)
(0.000598101 -0.0317458 0)
(-0.00131467 -0.0287901 0)
(-0.00248953 -0.0252925 0)
(-0.00285984 -0.0211187 0)
(-0.00237095 -0.016 0)
(-0.000926879 -0.00963842 0)
(0.000735351 -0.00257681 0)
(0.00266307 0.00335292 0)
(0.00316699 0.00726778 0)
(0.00343236 0.0107462 0)
(0.00336467 0.0147793 0)
(0.00286109 0.0200803 0)
(0.00191034 0.0271753 0)
(0.000603746 0.0363666 0)
(-0.000857352 0.0470994 0)
(-0.0020328 0.0570015 0)
(-0.00263044 0.06397 0)
(-0.00249073 0.0648709 0)
(-0.00175372 0.0569277 0)
(-0.000827574 0.0396128 0)
(-0.000115833 0.0150872 0)
(-6.17562e-06 0.00454355 0)
(6.23828e-06 0.0126701 0)
(0.000127364 0.0192877 0)
(0.000429224 0.0226705 0)
(0.000930803 0.0210429 0)
(0.00166944 0.0134938 0)
(0.00270029 0.000907359 0)
(0.00334052 -0.0125567 0)
(0.00296525 -0.0224255 0)
(0.00109249 -0.0274452 0)
(-0.00191047 -0.0284059 0)
(-0.00494803 -0.0275365 0)
(-0.007637 -0.0259439 0)
(-0.00973276 -0.0237046 0)
(-0.0110525 -0.0206524 0)
(-0.011401 -0.016537 0)
(-0.010589 -0.0110761 0)
(-0.00889279 -0.00501132 0)
(-0.00648649 0.000655581 0)
(-0.0053417 0.00547454 0)
(-0.0050841 0.00998729 0)
(-0.00530943 0.0153901 0)
(-0.00599989 0.0223174 0)
(-0.00689507 0.0308744 0)
(-0.00765035 0.040596 0)
(-0.00794957 0.0502858 0)
(-0.00758162 0.0580084 0)
(-0.00649996 0.0617147 0)
(-0.00483039 0.0592016 0)
(-0.00290827 0.0491472 0)
(-0.00121581 0.0323095 0)
(-0.000149535 0.0115244 0)
(-2.61864e-05 0.00495797 0)
(-0.000196999 0.0132969 0)
(-0.000423735 0.019464 0)
(-0.000585763 0.0219612 0)
(-0.000565603 0.0193615 0)
(-0.000333113 0.0110779 0)
(-0.000161021 -0.00121027 0)
(-0.000773212 -0.0118075 0)
(-0.0027164 -0.0179817 0)
(-0.00573799 -0.0206745 0)
(-0.0092884 -0.0216885 0)
(-0.0129063 -0.0219626 0)
(-0.0163307 -0.0217007 0)
(-0.0193632 -0.0208144 0)
(-0.0217786 -0.0190913 0)
(-0.0232939 -0.0162395 0)
(-0.023609 -0.011851 0)
(-0.0227832 -0.0062547 0)
(-0.0215793 -0.000447925 0)
(-0.0204071 0.00511081 0)
(-0.0199536 0.0106866 0)
(-0.0196117 0.0169533 0)
(-0.019228 0.0241834 0)
(-0.0185379 0.0321709 0)
(-0.0173209 0.0402147 0)
(-0.0154552 0.0471189 0)
(-0.0129523 0.0513346 0)
(-0.00995991 0.0513241 0)
(-0.00675759 0.0459294 0)
(-0.00375398 0.0351864 0)
(-0.00143975 0.0210109 0)
(-0.00015214 0.00660283 0)
(-4.03755e-05 0.00594163 0)
(-0.00033537 0.015381 0)
(-0.000820655 0.021726 0)
(-0.00138763 0.0236171 0)
(-0.00191602 0.0201685 0)
(-0.00251959 0.011867 0)
(-0.00381562 0.0017516 0)
(-0.00595692 -0.00620953 0)
(-0.00908622 -0.0105273 0)
(-0.0126653 -0.0129791 0)
(-0.0165201 -0.0146149 0)
(-0.0205278 -0.0158105 0)
(-0.024579 -0.0165899 0)
(-0.0285436 -0.0168183 0)
(-0.0322238 -0.0162723 0)
(-0.0352873 -0.0146455 0)
(-0.0372992 -0.0114821 0)
(-0.0379135 -0.00687843 0)
(-0.0375575 -0.00165861 0)
(-0.0365011 0.00382595 0)
(-0.0353064 0.00935266 0)
(-0.0336689 0.015099 0)
(-0.0314267 0.0211205 0)
(-0.0284675 0.0271239 0)
(-0.0247956 0.0324537 0)
(-0.0205456 0.0361348 0)
(-0.0159623 0.0370366 0)
(-0.0113609 0.0342183 0)
(-0.00710017 0.02745 0)
(-0.00358138 0.0179122 0)
(-0.00120364 0.00836512 0)
(-9.57955e-05 0.00165456 0)
(-3.51678e-05 0.00705024 0)
(-0.000328484 0.0179195 0)
(-0.000879473 0.0249792 0)
(-0.00165901 0.0270318 0)
(-0.00262769 0.0237217 0)
(-0.00395712 0.0163965 0)
(-0.00607676 0.00823968 0)
(-0.00905728 0.00170403 0)
(-0.0124705 -0.00309619 0)
(-0.01612 -0.00608691 0)
(-0.0199231 -0.00821659 0)
(-0.023958 -0.00996032 0)
(-0.0282862 -0.0113403 0)
(-0.0328934 -0.0122401 0)
(-0.037671 -0.0124582 0)
(-0.042299 -0.0116997 0)
(-0.0462273 -0.00953365 0)
(-0.0485951 -0.00598051 0)
(-0.0492912 -0.00177441 0)
(-0.0485244 0.00265719 0)
(-0.0466991 0.00699379 0)
(-0.0438649 0.0111052 0)
(-0.0398609 0.0149092 0)
(-0.0346948 0.0181809 0)
(-0.028573 0.0205054 0)
(-0.021915 0.0213222 0)
(-0.015298 0.0200461 0)
(-0.00934449 0.0163312 0)
(-0.00463644 0.0105728 0)
(-0.0016177 0.00445859 0)
(-0.000272912 0.000329983 0)
(2.28927e-05 -0.000768729 0)
(-8.21994e-06 0.00776102 0)
(-0.000155342 0.0197661 0)
(-0.000528955 0.0277657 0)
(-0.0012075 0.0305726 0)
(-0.00224294 0.0279907 0)
(-0.0037503 0.0215951 0)
(-0.00585814 0.0143363 0)
(-0.00849715 0.00832847 0)
(-0.0115558 0.00380878 0)
(-0.0149689 0.000132222 0)
(-0.0185406 -0.00277333 0)
(-0.0221464 -0.00487927 0)
(-0.0261174 -0.00651834 0)
(-0.0306081 -0.00771432 0)
(-0.0356725 -0.00835243 0)
(-0.0410915 -0.008213 0)
(-0.0463062 -0.00698609 0)
(-0.0501344 -0.00472154 0)
(-0.0520142 -0.00200338 0)
(-0.0520573 0.000742327 0)
(-0.0504153 0.00309967 0)
(-0.0472633 0.00465169 0)
(-0.0425221 0.00514493 0)
(-0.0363436 0.00442973 0)
(-0.0291983 0.00262566 0)
(-0.0216938 0.000176285 0)
(-0.014511 -0.00225168 0)
(-0.00831467 -0.0037677 0)
(-0.00365442 -0.00362457 0)
(-0.000896149 -0.00206517 0)
(9.29288e-05 -0.000502729 0)
(8.92467e-05 0.000114441 0)
(2.29158e-05 0.00785567 0)
(8.84239e-05 0.0203344 0)
(4.88851e-05 0.0291532 0)
(-0.000264153 0.0330228 0)
(-0.00102187 0.0314766 0)
(-0.0023421 0.0259013 0)
(-0.00418857 0.0190376 0)
(-0.00635163 0.0129837 0)
(-0.00867242 0.00824088 0)
(-0.0111433 0.00453602 0)
(-0.0138546 0.00150736 0)
(-0.0169594 -0.00106576 0)
(-0.0200716 -0.00286369 0)
(-0.0236014 -0.00404651 0)
(-0.0278087 -0.0046915 0)
(-0.0326387 -0.00469609 0)
(-0.0376421 -0.00388477 0)
(-0.0416736 -0.00241982 0)
(-0.0440617 -0.000851915 0)
(-0.0448835 0.000321729 0)
(-0.0442835 0.00061524 0)
(-0.0421024 -0.000424783 0)
(-0.0386303 -0.00296305 0)
(-0.0341994 -0.0066375 0)
(-0.029004 -0.0109221 0)
(-0.0233767 -0.0150587 0)
(-0.017684 -0.0179873 0)
(-0.0122455 -0.0185575 0)
(-0.00736858 -0.0159264 0)
(-0.0034419 -0.010369 0)
(-0.000956332 -0.00412853 0)
(-2.66415e-05 -0.000285379 0)
(5.1545e-05 0.00743479 0)
(0.000334657 0.0197392 0)
(0.000669758 0.0289854 0)
(0.000854298 0.0338047 0)
(0.000644008 0.0335669 0)
(-0.000171852 0.0290249 0)
(-0.00159669 0.0224238 0)
(-0.00333082 0.0161846 0)
(-0.00510473 0.011112 0)
(-0.00684237 0.00713967 0)
(-0.00864262 0.00398947 0)
(-0.010656 0.00147355 0)
(-0.0131766 -0.000510675 0)
(-0.0158079 -0.00175581 0)
(-0.0187771 -0.00232378 0)
(-0.0222178 -0.00229402 0)
(-0.0258534 -0.00165511 0)
(-0.0288718 -0.000641518 0)
(-0.0308038 0.000337058 0)
(-0.0320846 0.000797385 0)
(-0.0323691 0.000155915 0)
(-0.0316332 -0.00200723 0)
(-0.0302475 -0.00574135 0)
(-0.0282725 -0.0108865 0)
(-0.0257402 -0.0169973 0)
(-0.022642 -0.0232229 0)
(-0.018964 -0.0283565 0)
(-0.0147315 -0.0309531 0)
(-0.0101253 -0.0295098 0)
(-0.00560139 -0.023152 0)
(-0.00199417 -0.0129976 0)
(-0.000146969 -0.00322629 0)
(6.91274e-05 0.00666016 0)
(0.000528108 0.0182598 0)
(0.00120371 0.0275682 0)
(0.00188065 0.0330779 0)
(0.00228062 0.0339419 0)
(0.00216443 0.0305866 0)
(0.00145462 0.024738 0)
(0.000345354 0.0184883 0)
(-0.000880929 0.0129256 0)
(-0.00201254 0.00865274 0)
(-0.00312299 0.00538563 0)
(-0.0043528 0.00289827 0)
(-0.00590793 0.00105599 0)
(-0.00813348 -0.000257994 0)
(-0.0104997 -0.00092732 0)
(-0.0128597 -0.000937209 0)
(-0.0150138 -0.000391728 0)
(-0.0165146 0.000488562 0)
(-0.0178756 0.00125456 0)
(-0.0187151 0.00142145 0)
(-0.0191149 0.000349112 0)
(-0.0192861 -0.00222223 0)
(-0.0192809 -0.00636443 0)
(-0.0192232 -0.0120946 0)
(-0.0189704 -0.0191492 0)
(-0.0182803 -0.0268515 0)
(-0.0168598 -0.0341018 0)
(-0.0144362 -0.0393726 0)
(-0.0109654 -0.0405372 0)
(-0.00679149 -0.0354396 0)
(-0.00279648 -0.0231714 0)
(-0.000271838 -0.0071895 0)
(7.24324e-05 0.00575564 0)
(0.000627 0.0163327 0)
(0.00154411 0.025387 0)
(0.00262698 0.0312953 0)
(0.00359868 0.032989 0)
(0.00422202 0.0306013 0)
(0.00437699 0.025496 0)
(0.00414473 0.0195359 0)
(0.00371084 0.0140004 0)
(0.00322337 0.00954063 0)
(0.00270265 0.0061698 0)
(0.00204951 0.00370774 0)
(0.00111991 0.00198836 0)
(-0.000234988 0.000827109 0)
(-0.00222512 9.01511e-05 0)
(-0.00432357 -0.000131972 0)
(-0.00578781 0.000153416 0)
(-0.00674411 0.000835839 0)
(-0.0071626 0.00153225 0)
(-0.00713936 0.00164229 0)
(-0.00695223 0.000664753 0)
(-0.00711906 -0.00167217 0)
(-0.00768282 -0.00554077 0)
(-0.0087162 -0.0110449 0)
(-0.0100515 -0.0181945 0)
(-0.0113829 -0.0265991 0)
(-0.0122361 -0.0354071 0)
(-0.0120235 -0.043305 0)
(-0.0103436 -0.0477275 0)
(-0.00725618 -0.045451 0)
(-0.00348125 -0.0332115 0)
(-0.00042262 -0.0118729 0)
(5.91444e-05 0.0049151 0)
(0.000595914 0.0143819 0)
(0.00160027 0.0229425 0)
(0.00294938 0.0289298 0)
(0.00441684 0.0311105 0)
(0.00579048 0.0294101 0)
(0.00690975 0.0249586 0)
(0.0077217 0.0194277 0)
(0.00825507 0.0141189 0)
(0.00855376 0.00974186 0)
(0.00863287 0.0064387 0)
(0.00844548 0.00408029 0)
(0.00792434 0.00248159 0)
(0.00704145 0.00145572 0)
(0.00577202 0.000825614 0)
(0.00426796 0.000500013 0)
(0.00302375 0.000547756 0)
(0.00240044 0.000964616 0)
(0.00247026 0.00140864 0)
(0.00295029 0.00138354 0)
(0.00347929 0.000502659 0)
(0.00360126 -0.0014229 0)
(0.00303013 -0.0045934 0)
(0.0017471 -0.00919064 0)
(-0.000311839 -0.0156864 0)
(-0.002978 -0.0239043 0)
(-0.00571659 -0.0332617 0)
(-0.007811 -0.0431347 0)
(-0.00837803 -0.0507423 0)
(-0.00701274 -0.0522277 0)
(-0.00405733 -0.0420242 0)
(-0.000625034 -0.0170248 0)
(1.62746e-05 0.00431586 0)
(0.000357244 0.0128015 0)
(0.00124072 0.0206823 0)
(0.00269957 0.0263739 0)
(0.00460623 0.0286185 0)
(0.00676893 0.0272668 0)
(0.00895243 0.0233324 0)
(0.0109324 0.0183206 0)
(0.0125536 0.0134448 0)
(0.0137436 0.00938511 0)
(0.0144933 0.00632267 0)
(0.0148146 0.00416002 0)
(0.014736 0.0027103 0)
(0.0143221 0.00178121 0)
(0.0136509 0.00120013 0)
(0.012839 0.000859165 0)
(0.0121858 0.000792355 0)
(0.0119956 0.000985495 0)
(0.0123388 0.00118602 0)
(0.0129658 0.00104531 0)
(0.0135269 0.000256911 0)
(0.0136502 -0.00137478 0)
(0.0130316 -0.00402903 0)
(0.0116099 -0.00788061 0)
(0.00931177 -0.0131447 0)
(0.00611446 -0.0199927 0)
(0.00227029 -0.0285937 0)
(-0.00191566 -0.0395127 0)
(-0.0049837 -0.0496955 0)
(-0.00592961 -0.0553246 0)
(-0.00445611 -0.0488577 0)
(-0.000904055 -0.0224738 0)
(-9.07664e-05 0.00419571 0)
(-0.000270883 0.0119655 0)
(0.00023687 0.0189567 0)
(0.00172301 0.0238745 0)
(0.00412628 0.0256907 0)
(0.00719774 0.0243445 0)
(0.0105689 0.0208102 0)
(0.0138084 0.0163935 0)
(0.0165876 0.0121194 0)
(0.0187483 0.00855821 0)
(0.0202813 0.0058706 0)
(0.0212641 0.00397364 0)
(0.0218132 0.00269505 0)
(0.0220599 0.00185897 0)
(0.0221232 0.00131604 0)
(0.0221126 0.000970037 0)
(0.0221778 0.000833973 0)
(0.0224887 0.000891927 0)
(0.0230997 0.000956503 0)
(0.0238229 0.000775669 0)
(0.024379 0.0001101 0)
(0.0244204 -0.00120263 0)
(0.0236602 -0.00331831 0)
(0.0219678 -0.00642077 0)
(0.0192483 -0.0107253 0)
(0.015497 -0.0164311 0)
(0.0108763 -0.0237935 0)
(0.00557915 -0.0332379 0)
(0.000101988 -0.0448108 0)
(-0.00365494 -0.0544858 0)
(-0.00444976 -0.0530959 0)
(-0.00124823 -0.0279872 0)
(-0.000340689 0.00501133 0)
(-0.00150905 0.0124395 0)
(-0.00156241 0.017867 0)
(-2.46122e-05 0.0213607 0)
(0.00316083 0.022313 0)
(0.00737638 0.0207322 0)
(0.0120899 0.0175652 0)
(0.0166747 0.0138268 0)
(0.0206916 0.0102748 0)
(0.023952 0.00732448 0)
(0.0264698 0.00508928 0)
(0.0283712 0.00349821 0)
(0.0298166 0.00240939 0)
(0.0309546 0.00168065 0)
(0.0318975 0.00119428 0)
(0.0327341 0.000871648 0)
(0.0334965 0.000714757 0)
(0.0342714 0.000705611 0)
(0.0351304 0.000704914 0)
(0.0359417 0.000528837 0)
(0.0365081 1.7858e-06 0)
(0.036438 -0.000992382 0)
(0.0355061 -0.00257643 0)
(0.0335375 -0.004907 0)
(0.030399 -0.00817431 0)
(0.0260399 -0.0126141 0)
(0.0205333 -0.0185849 0)
(0.0140596 -0.0266473 0)
(0.00699809 -0.0373001 0)
(0.000409311 -0.0494954 0)
(-0.00359759 -0.0541549 0)
(-0.00155913 -0.0332736 0)
(-0.000844389 0.00740946 0)
(-0.00349467 0.014296 0)
(-0.00387176 0.0172555 0)
(-0.00191119 0.0185385 0)
(0.00261908 0.0182867 0)
(0.00831033 0.0164449 0)
(0.014556 0.0137219 0)
(0.020621 0.0107472 0)
(0.0260359 0.00798697 0)
(0.0306118 0.00570151 0)
(0.0343647 0.00396059 0)
(0.037416 0.00271101 0)
(0.0399136 0.00184888 0)
(0.0419877 0.00126902 0)
(0.0437377 0.000882831 0)
(0.0452479 0.00062813 0)
(0.0464967 0.000497779 0)
(0.0475615 0.00047104 0)
(0.0485528 0.000449619 0)
(0.0493835 0.000306592 0)
(0.0498864 -6.9643e-05 0)
(0.0496879 -0.000755013 0)
(0.0485902 -0.00183651 0)
(0.0464033 -0.00342714 0)
(0.0429634 -0.00567503 0)
(0.0381557 -0.00880111 0)
(0.0319374 -0.0131862 0)
(0.0243679 -0.0194873 0)
(0.0157254 -0.0286374 0)
(0.00680391 -0.0409728 0)
(-0.00114073 -0.0512904 0)
(-0.00156238 -0.0377951 0)
(-0.00170886 0.0123967 0)
(-0.00553052 0.0168504 0)
(-0.00482565 0.0160679 0)
(-0.00102435 0.0148241 0)
(0.00550502 0.0133723 0)
(0.0129669 0.0115035 0)
(0.0208806 0.00937074 0)
(0.0285105 0.00723007 0)
(0.0353862 0.00530028 0)
(0.0412924 0.00371808 0)
(0.046202 0.0025212 0)
(0.0501998 0.00167257 0)
(0.05342 0.00109955 0)
(0.0560058 0.000726219 0)
(0.0580891 0.000487407 0)
(0.0597933 0.00033689 0)
(0.061123 0.000262663 0)
(0.0621865 0.000246236 0)
(0.0631112 0.000228433 0)
(0.0638295 0.000134072 0)
(0.0641686 -9.4601e-05 0)
(0.0638212 -0.000499261 0)
(0.0626047 -0.00113279 0)
(0.0603365 -0.00206275 0)
(0.0568452 -0.00338442 0)
(0.0519695 -0.0052613 0)
(0.045546 -0.00801502 0)
(0.0374162 -0.01228 0)
(0.0275384 -0.0191886 0)
(0.0162463 -0.0301316 0)
(0.00419814 -0.0434478 0)
(-0.000214642 -0.0395215 0)
(-0.00138814 0.0178826 0)
(-0.00346404 0.0176769 0)
(0.0029042 0.0125787 0)
(0.0108123 0.00980056 0)
(0.0194668 0.00790037 0)
(0.0284491 0.00630978 0)
(0.0374239 0.0048768 0)
(0.0458115 0.00359757 0)
(0.0531802 0.00251238 0)
(0.0593157 0.00166167 0)
(0.0641996 0.00105002 0)
(0.0679575 0.000644372 0)
(0.0707907 0.000392672 0)
(0.0729163 0.000243824 0)
(0.0745275 0.000157333 0)
(0.0757831 0.000107499 0)
(0.0767362 8.63934e-05 0)
(0.0774954 8.46955e-05 0)
(0.0781476 7.72012e-05 0)
(0.0786192 3.13685e-05 0)
(0.0787374 -7.30888e-05 0)
(0.0782847 -0.000253007 0)
(0.077108 -0.000532208 0)
(0.0750556 -0.0009402 0)
(0.0719792 -0.00152157 0)
(0.0677132 -0.00236423 0)
(0.0620226 -0.00366831 0)
(0.0545265 -0.00589023 0)
(0.0446347 -0.00999695 0)
(0.0316067 -0.0176787 0)
(0.0154595 -0.0297993 0)
(0.00629846 -0.0334509 0)
(0.0207009 0.0112069 0)
(0.0268123 0.0090675 0)
(0.039654 0.00527361 0)
(0.0503798 0.00323587 0)
(0.0589365 0.00209061 0)
(0.0662742 0.00136212 0)
(0.0726821 0.000871413 0)
(0.0780715 0.000533907 0)
(0.0823495 0.000304039 0)
(0.0855399 0.000157061 0)
(0.087789 7.27164e-05 0)
(0.089315 3.05203e-05 0)
(0.0903409 1.25168e-05 0)
(0.0910476 6.19591e-06 0)
(0.0915598 4.30794e-06 0)
(0.0919572 3.86324e-06 0)
(0.0922727 4.91972e-06 0)
(0.092548 6.88872e-06 0)
(0.0927944 6.34334e-06 0)
(0.0929486 -1.65045e-06 0)
(0.0929022 -1.84754e-05 0)
(0.0925554 -4.6252e-05 0)
(0.0918255 -8.88321e-05 0)
(0.0906304 -0.000150478 0)
(0.0888875 -0.000238161 0)
(0.0864898 -0.000368113 0)
(0.0832391 -0.000583578 0)
(0.0787053 -0.000996978 0)
(0.0719373 -0.00188777 0)
(0.0609314 -0.00400133 0)
(0.0433017 -0.00920542 0)
(0.0285956 -0.0145377 0)
)
;

boundaryField
{
    movingWall
    {
        type            fixedValue;
        value           uniform (0.1 0 0);
    }
    fixedWalls
    {
        type            noSlip;
    }
    floor
    {
        type            noSlip;
    }
    frontAndBack
    {
        type            empty;
    }
}


// ************************************************************************* //
