/*--------------------------------*- C++ -*----------------------------------*\
| =========                 |                                                 |
| \\      /  F ield         | OpenFOAM: The Open Source CFD Toolbox           |
|  \\    /   O peration     | Version:  2212                                  |
|   \\  /    A nd           | Website:  www.openfoam.com                      |
|    \\/     M anipulation  |                                                 |
\*---------------------------------------------------------------------------*/
FoamFile
{
    version     2.0;
    format      ascii;
    arch        "LSB;label=64;scalar=64";
    class       volScalarField;
    location    "300";
    object      Xli;
}
// * * * * * * * * * * * * * * * * * * * * * * * * * * * * * * * * * * * * * //

dimensions      [1 -3 0 0 0 0 0];

internalField   nonuniform List<scalar> 
1024
(
0.0427862
0.0427869
0.0427888
0.0427919
0.0427963
0.0428017
0.0428077
0.0428139
0.0428198
0.0428252
0.0428296
0.0428325
0.0428338
0.0428333
0.0428307
0.0428253
0.0428173
0.0428081
0.0427987
0.0427894
0.0427801
0.0427707
0.0427609
0.0427506
0.0427403
0.0427304
0.0427216
0.0427146
0.0427093
0.0427059
0.042704
0.0427032
0.0427863
0.0427871
0.042789
0.0427923
0.0427968
0.0428023
0.0428084
0.0428146
0.0428206
0.0428261
0.0428306
0.0428335
0.0428348
0.0428342
0.0428315
0.0428261
0.042818
0.0428088
0.0427994
0.0427901
0.0427809
0.0427715
0.0427618
0.0427516
0.0427413
0.0427313
0.0427224
0.0427152
0.0427098
0.0427063
0.0427043
0.0427034
0.0427865
0.0427874
0.0427894
0.0427929
0.0427976
0.0428034
0.0428097
0.0428161
0.0428223
0.0428281
0.0428329
0.0428359
0.0428371
0.0428364
0.0428334
0.0428277
0.0428195
0.0428101
0.0428007
0.0427915
0.0427824
0.0427732
0.0427636
0.0427536
0.0427433
0.0427332
0.0427241
0.0427165
0.0427108
0.042707
0.0427049
0.042704
0.0427868
0.0427877
0.0427899
0.0427935
0.0427985
0.0428046
0.0428112
0.042818
0.0428249
0.0428315
0.0428371
0.0428403
0.0428413
0.0428402
0.0428366
0.0428303
0.0428215
0.0428118
0.0428024
0.0427932
0.0427843
0.0427754
0.0427661
0.0427564
0.0427462
0.0427361
0.0427266
0.0427185
0.0427124
0.0427083
0.042706
0.042705
0.0427871
0.0427881
0.0427903
0.0427941
0.0427993
0.0428057
0.0428128
0.0428204
0.0428283
0.0428362
0.042843
0.0428469
0.0428478
0.0428459
0.0428413
0.0428337
0.0428239
0.0428137
0.042804
0.0427949
0.0427862
0.0427776
0.0427688
0.0427596
0.0427497
0.0427395
0.0427297
0.0427212
0.0427145
0.04271
0.0427074
0.0427064
0.0427874
0.0427883
0.0427906
0.0427944
0.0427998
0.0428065
0.0428143
0.0428229
0.0428323
0.042842
0.0428506
0.0428555
0.0428566
0.0428538
0.0428475
0.042838
0.0428264
0.0428151
0.042805
0.0427959
0.0427874
0.0427793
0.0427711
0.0427624
0.042753
0.0427431
0.0427331
0.0427241
0.042717
0.042712
0.0427092
0.0427081
0.0427874
0.0427884
0.0427906
0.0427944
0.0427999
0.042807
0.0428155
0.0428253
0.0428363
0.0428482
0.0428591
0.0428658
0.0428672
0.0428635
0.042855
0.0428427
0.0428285
0.0428156
0.0428047
0.0427954
0.0427872
0.0427796
0.0427721
0.0427642
0.0427555
0.042746
0.0427361
0.0427269
0.0427194
0.0427141
0.0427111
0.0427099
0.0427873
0.0427882
0.0427903
0.0427941
0.0427996
0.0428069
0.0428161
0.0428271
0.04284
0.0428543
0.042868
0.042877
0.0428792
0.0428743
0.0428632
0.0428471
0.0428295
0.0428142
0.0428022
0.0427927
0.0427848
0.0427778
0.0427712
0.0427643
0.0427565
0.0427476
0.0427381
0.042729
0.0427214
0.042716
0.042713
0.0427117
0.0427867
0.0427876
0.0427897
0.0427933
0.0427987
0.0428061
0.0428158
0.0428279
0.0428426
0.0428598
0.0428768
0.0428886
0.0428919
0.0428857
0.0428712
0.0428505
0.0428283
0.0428101
0.0427968
0.0427869
0.0427794
0.0427733
0.0427678
0.042762
0.0427553
0.0427474
0.0427386
0.0427299
0.0427226
0.0427174
0.0427144
0.0427132
0.0427857
0.0427866
0.0427886
0.0427919
0.0427971
0.0428044
0.0428143
0.0428274
0.0428442
0.0428647
0.0428856
0.0429006
0.0429049
0.0428971
0.0428784
0.0428518
0.042824
0.0428023
0.0427874
0.0427773
0.0427705
0.0427655
0.0427614
0.0427571
0.0427518
0.0427451
0.0427373
0.0427295
0.0427229
0.0427181
0.0427153
0.0427141
0.042784
0.0427848
0.0427867
0.0427898
0.0427945
0.0428015
0.0428115
0.0428256
0.042845
0.0428696
0.042895
0.0429134
0.0429185
0.0429084
0.0428844
0.0428506
0.0428159
0.0427901
0.0427736
0.0427635
0.0427577
0.0427543
0.0427519
0.0427494
0.0427458
0.0427406
0.0427343
0.0427277
0.042722
0.0427178
0.0427153
0.0427143
0.0427812
0.042782
0.0427838
0.0427866
0.042791
0.0427976
0.0428078
0.0428233
0.0428461
0.0428756
0.0429061
0.0429277
0.0429331
0.0429198
0.0428893
0.0428466
0.0428037
0.0427732
0.0427552
0.0427456
0.0427411
0.0427397
0.0427395
0.0427391
0.0427375
0.0427343
0.0427297
0.0427246
0.04272
0.0427166
0.0427144
0.0427135
0.0427775
0.0427782
0.0427799
0.0427826
0.0427869
0.0427937
0.0428049
0.0428229
0.0428503
0.0428853
0.0429203
0.0429442
0.0429488
0.0429313
0.0428932
0.0428402
0.0427877
0.0427523
0.0427331
0.0427241
0.0427215
0.0427223
0.0427245
0.0427265
0.0427271
0.0427259
0.0427232
0.0427197
0.0427164
0.0427137
0.0427119
0.0427111
0.0427742
0.0427748
0.0427764
0.0427794
0.0427843
0.0427926
0.0428066
0.0428291
0.042862
0.0429018
0.0429394
0.0429635
0.042966
0.0429433
0.0428965
0.042832
0.0427689
0.0427284
0.0427084
0.0427006
0.0426999
0.042703
0.0427078
0.0427126
0.0427159
0.0427173
0.0427167
0.042715
0.0427127
0.0427106
0.042709
0.0427082
0.0427756
0.0427762
0.0427779
0.0427815
0.0427881
0.0427996
0.0428184
0.0428468
0.0428847
0.0429269
0.0429641
0.042986
0.042985
0.0429568
0.0429011
0.0428246
0.04275
0.042704
0.0426837
0.0426773
0.0426785
0.0426836
0.0426903
0.0426968
0.042702
0.042705
0.0427061
0.0427057
0.0427046
0.0427031
0.0427019
0.0427012
0.0427875
0.0427882
0.0427903
0.0427952
0.0428043
0.0428199
0.0428439
0.0428771
0.0429172
0.0429583
0.0429923
0.043011
0.0430074
0.0429759
0.0429139
0.042827
0.0427403
0.0426866
0.0426645
0.04266
0.0426642
0.0426721
0.0426808
0.0426886
0.0426947
0.0426986
0.0427004
0.0427005
0.0426994
0.0426977
0.0426962
0.0426953
0.0428093
0.0428102
0.042813
0.0428193
0.0428308
0.0428495
0.0428765
0.042911
0.0429496
0.0429873
0.0430183
0.0430369
0.0430366
0.0430097
0.0429503
0.0428602
0.0427627
0.0426955
0.0426644
0.0426558
0.0426591
0.0426672
0.0426759
0.0426826
0.0426863
0.0426872
0.0426859
0.0426835
0.0426813
0.0426798
0.042679
0.0426788
0.0428301
0.0428312
0.0428346
0.0428417
0.0428543
0.0428737
0.0429002
0.0429325
0.0429676
0.0430022
0.0430333
0.0430578
0.0430701
0.0430615
0.0430222
0.0429476
0.0428513
0.0427688
0.0427153
0.0426839
0.0426671
0.0426588
0.0426554
0.0426551
0.0426572
0.0426618
0.0426691
0.0426791
0.0426908
0.0427018
0.04271
0.0427141
0.0428436
0.0428448
0.0428482
0.0428552
0.0428671
0.0428847
0.042908
0.0429359
0.0429663
0.0429977
0.0430296
0.0430612
0.0430892
0.0431063
0.0431021
0.0430669
0.043003
0.0429349
0.0428816
0.0428438
0.0428199
0.0428068
0.0428027
0.042806
0.0428158
0.042831
0.0428501
0.0428713
0.0428917
0.0429084
0.0429194
0.0429243
0.0428504
0.0428515
0.0428547
0.0428608
0.0428708
0.0428854
0.0429044
0.0429267
0.0429516
0.0429786
0.0430084
0.0430423
0.0430798
0.0431169
0.0431457
0.0431569
0.0431456
0.0431239
0.0431068
0.0430986
0.0431002
0.0431103
0.0431267
0.0431461
0.0431663
0.0431848
0.0431994
0.0432089
0.0432132
0.0432136
0.0432126
0.0432118
0.0428527
0.0428537
0.0428565
0.0428615
0.0428697
0.0428813
0.042896
0.0429135
0.042933
0.042955
0.0429809
0.0430129
0.0430522
0.0430976
0.0431444
0.0431856
0.0432141
0.0432327
0.043251
0.043273
0.0432994
0.0433292
0.0433594
0.0433868
0.0434092
0.0434248
0.0434325
0.0434327
0.0434269
0.0434184
0.0434108
0.0434067
0.0428524
0.0428533
0.0428556
0.0428598
0.0428662
0.0428753
0.0428867
0.0429002
0.0429157
0.0429339
0.0429565
0.0429861
0.0430245
0.0430717
0.0431246
0.0431784
0.0432255
0.0432636
0.043298
0.043332
0.043366
0.0433988
0.0434287
0.0434545
0.0434754
0.0434909
0.0435009
0.0435054
0.043505
0.0435014
0.0434967
0.0434937
0.0428513
0.042852
0.0428538
0.0428571
0.0428621
0.0428691
0.042878
0.0428889
0.0429019
0.0429183
0.0429398
0.0429688
0.043007
0.0430545
0.0431088
0.0431661
0.0432188
0.0432626
0.0433006
0.043336
0.0433693
0.0434001
0.0434281
0.0434534
0.0434759
0.0434952
0.0435104
0.0435209
0.0435266
0.0435283
0.0435274
0.043526
0.0428522
0.0428524
0.0428532
0.0428552
0.0428588
0.0428642
0.0428715
0.0428811
0.0428937
0.0429107
0.042934
0.0429651
0.043005
0.0430531
0.0431075
0.0431647
0.0432174
0.0432608
0.0432971
0.0433297
0.04336
0.0433883
0.0434151
0.0434411
0.0434662
0.0434897
0.0435099
0.0435253
0.0435353
0.0435403
0.0435416
0.0435412
0.04286
0.042859
0.0428578
0.0428576
0.0428592
0.0428632
0.04287
0.0428801
0.0428949
0.0429156
0.0429434
0.0429789
0.0430219
0.0430711
0.0431246
0.0431797
0.04323
0.0432705
0.0433032
0.0433319
0.0433585
0.043384
0.043409
0.0434343
0.0434601
0.0434855
0.0435088
0.0435278
0.0435413
0.0435488
0.0435517
0.0435519
0.042881
0.0428782
0.0428739
0.0428704
0.0428694
0.0428723
0.0428798
0.0428929
0.0429125
0.0429393
0.0429732
0.0430136
0.0430593
0.0431088
0.0431602
0.0432118
0.0432579
0.0432943
0.0433229
0.0433475
0.0433703
0.0433923
0.0434145
0.0434375
0.0434616
0.0434863
0.04351
0.0435307
0.0435464
0.0435561
0.0435603
0.0435611
0.0429215
0.0429164
0.0429087
0.0429017
0.0428986
0.0429016
0.0429119
0.0429298
0.0429556
0.0429885
0.0430275
0.043071
0.0431172
0.0431646
0.0432121
0.0432584
0.0432991
0.0433307
0.0433549
0.0433753
0.0433941
0.0434123
0.0434309
0.0434505
0.0434713
0.0434931
0.043515
0.0435353
0.0435517
0.0435626
0.0435679
0.0435692
0.0429855
0.0429785
0.0429689
0.0429609
0.0429582
0.0429634
0.0429775
0.0430001
0.0430304
0.0430667
0.043107
0.0431495
0.0431927
0.0432352
0.0432765
0.0433158
0.0433499
0.0433761
0.0433958
0.0434121
0.0434269
0.0434412
0.0434558
0.0434713
0.0434879
0.0435057
0.0435241
0.0435421
0.0435576
0.0435688
0.0435748
0.0435764
0.0430743
0.0430671
0.0430597
0.0430553
0.0430563
0.043065
0.0430818
0.043106
0.0431363
0.0431707
0.0432073
0.0432443
0.0432807
0.0433156
0.0433488
0.0433798
0.0434064
0.0434267
0.0434418
0.0434541
0.043465
0.0434756
0.0434863
0.0434975
0.0435097
0.0435229
0.043537
0.0435514
0.0435646
0.0435748
0.0435809
0.0435828
0.0431886
0.0431844
0.043184
0.0431864
0.0431922
0.0432027
0.0432186
0.0432396
0.0432645
0.0432918
0.0433201
0.043348
0.0433749
0.0434003
0.043424
0.043446
0.0434647
0.0434789
0.0434894
0.0434978
0.0435052
0.0435123
0.0435194
0.0435268
0.0435348
0.0435436
0.0435531
0.0435631
0.0435729
0.0435812
0.0435865
0.0435885
0.0433309
0.0433328
0.0433394
0.0433459
0.0433528
0.0433614
0.0433725
0.0433861
0.0434018
0.0434187
0.043436
0.0434529
0.0434689
0.0434839
0.0434979
0.0435107
0.0435216
0.0435298
0.0435359
0.0435407
0.0435449
0.0435488
0.0435527
0.0435568
0.0435612
0.043566
0.0435713
0.043577
0.0435828
0.043588
0.0435918
0.0435934
0.0435055
0.0435078
0.0435119
0.0435153
0.0435184
0.0435216
0.0435255
0.0435301
0.0435354
0.043541
0.0435467
0.0435522
0.0435575
0.0435624
0.0435669
0.0435711
0.0435746
0.0435772
0.0435792
0.0435807
0.043582
0.0435833
0.0435845
0.0435858
0.0435872
0.0435887
0.0435903
0.0435921
0.0435939
0.0435957
0.0435971
0.0435977
)
;

boundaryField
{
    movingWall
    {
        type            fixedValue;
        value           uniform 0.0436;
    }
    fixedWalls
    {
        type            zeroGradient;
    }
    floor
    {
        type            zeroGradient;
    }
    frontAndBack
    {
        type            empty;
    }
}


// ************************************************************************* //
