/*--------------------------------*- C++ -*----------------------------------*\
| =========                 |                                                 |
| \\      /  F ield         | OpenFOAM: The Open Source CFD Toolbox           |
|  \\    /   O peration     | Version:  2212                                  |
|   \\  /    A nd           | Website:  www.openfoam.com                      |
|    \\/     M anipulation  |                                                 |
\*---------------------------------------------------------------------------*/
FoamFile
{
    version     2.0;
    format      ascii;
    arch        "LSB;label=64;scalar=64";
    class       volScalarField;
    location    "300";
    object      Xpr;
}
// * * * * * * * * * * * * * * * * * * * * * * * * * * * * * * * * * * * * * //

dimensions      [1 -3 0 0 0 0 0];

internalField   nonuniform List<scalar> 
1024
(
0.0825989
0.0826005
0.0826041
0.0826102
0.0826188
0.0826295
0.0826414
0.0826535
0.0826651
0.0826757
0.0826843
0.08269
0.0826926
0.0826917
0.0826865
0.082676
0.0826602
0.082642
0.0826236
0.0826052
0.082587
0.0825684
0.0825491
0.082529
0.0825087
0.0824892
0.082472
0.0824581
0.0824478
0.0824411
0.0824372
0.0824357
0.0825992
0.0826008
0.0826045
0.0826109
0.0826199
0.0826308
0.0826428
0.082655
0.0826667
0.0826774
0.0826863
0.082692
0.0826945
0.0826935
0.0826882
0.0826775
0.0826617
0.0826434
0.082625
0.0826067
0.0825885
0.0825701
0.082551
0.082531
0.0825106
0.082491
0.0824735
0.0824593
0.0824487
0.0824417
0.0824378
0.0824362
0.0825996
0.0826013
0.0826054
0.0826121
0.0826215
0.0826328
0.0826452
0.0826577
0.08267
0.0826815
0.082691
0.0826968
0.0826992
0.0826977
0.0826919
0.0826807
0.0826645
0.082646
0.0826276
0.0826094
0.0825915
0.0825734
0.0825546
0.0825349
0.0825146
0.0824948
0.0824768
0.0824619
0.0824507
0.0824432
0.0824391
0.0824373
0.0826002
0.082602
0.0826063
0.0826135
0.0826233
0.0826352
0.0826481
0.0826616
0.0826751
0.0826881
0.0826991
0.0827054
0.0827075
0.0827052
0.0826982
0.0826857
0.0826684
0.0826495
0.0826309
0.0826129
0.0825953
0.0825777
0.0825595
0.0825404
0.0825204
0.0825004
0.0824817
0.0824659
0.0824538
0.0824457
0.0824411
0.0824393
0.0826009
0.0826027
0.0826071
0.0826146
0.0826248
0.0826373
0.0826513
0.0826662
0.0826818
0.0826974
0.0827108
0.0827183
0.0827202
0.0827166
0.0827074
0.0826925
0.0826732
0.0826531
0.0826341
0.0826161
0.082599
0.0825821
0.0825648
0.0825466
0.0825272
0.0825072
0.0824879
0.0824711
0.082458
0.0824491
0.082444
0.082442
0.0826013
0.0826032
0.0826076
0.0826152
0.0826258
0.082639
0.0826543
0.0826712
0.0826896
0.0827087
0.0827257
0.0827354
0.0827374
0.082732
0.0827196
0.0827009
0.0826782
0.0826559
0.082636
0.082618
0.0826014
0.0825854
0.0825692
0.0825522
0.0825338
0.0825141
0.0824946
0.0824769
0.0824628
0.0824531
0.0824475
0.0824453
0.0826014
0.0826033
0.0826077
0.0826152
0.082626
0.0826399
0.0826566
0.0826759
0.0826977
0.082721
0.0827425
0.0827556
0.0827584
0.082751
0.0827344
0.0827101
0.0826823
0.0826568
0.0826354
0.0826171
0.0826009
0.082586
0.0825713
0.0825558
0.0825387
0.0825199
0.0825004
0.0824823
0.0824675
0.0824572
0.0824513
0.082449
0.0826011
0.0826029
0.0826071
0.0826145
0.0826253
0.0826398
0.0826578
0.0826794
0.0827048
0.082733
0.0827599
0.0827777
0.082782
0.0827724
0.0827505
0.0827189
0.0826842
0.0826542
0.0826306
0.0826118
0.0825962
0.0825825
0.0825695
0.0825559
0.0825405
0.082523
0.0825043
0.0824864
0.0824715
0.082461
0.0824549
0.0824525
0.0826001
0.0826018
0.0826059
0.0826129
0.0826236
0.0826382
0.0826572
0.082681
0.08271
0.0827438
0.0827772
0.0828005
0.0828069
0.0827947
0.0827662
0.0827255
0.0826819
0.0826461
0.0826198
0.0826004
0.0825856
0.0825736
0.0825627
0.0825514
0.0825382
0.0825226
0.0825053
0.0824883
0.0824739
0.0824637
0.0824578
0.0824554
0.0825981
0.0825998
0.0826037
0.0826103
0.0826204
0.0826348
0.0826543
0.08268
0.0827132
0.0827534
0.0827946
0.0828241
0.0828325
0.0828171
0.0827804
0.0827281
0.0826735
0.0826307
0.0826013
0.0825815
0.082568
0.0825583
0.0825502
0.0825417
0.0825313
0.0825181
0.0825028
0.0824875
0.0824744
0.082465
0.0824595
0.0824573
0.0825947
0.0825963
0.0825999
0.082606
0.0826154
0.0826292
0.0826489
0.0826766
0.0827147
0.082763
0.0828131
0.0828493
0.0828594
0.0828394
0.0827922
0.0827257
0.0826575
0.0826066
0.0825741
0.0825544
0.0825429
0.0825362
0.0825315
0.0825266
0.0825195
0.0825093
0.0824969
0.0824839
0.0824726
0.0824644
0.0824596
0.0824575
0.0825892
0.0825908
0.0825942
0.0825998
0.0826084
0.0826214
0.0826415
0.082672
0.0827168
0.082775
0.0828348
0.0828774
0.082888
0.0828618
0.0828019
0.0827179
0.0826334
0.0825735
0.0825381
0.0825191
0.0825103
0.0825074
0.0825071
0.0825063
0.0825032
0.0824968
0.0824878
0.0824778
0.0824688
0.0824621
0.0824578
0.0824559
0.0825818
0.0825833
0.0825865
0.0825919
0.0826004
0.0826138
0.0826357
0.0826713
0.082725
0.082794
0.0828628
0.0829098
0.082919
0.0828845
0.0828095
0.0827053
0.082602
0.0825323
0.0824945
0.0824769
0.0824716
0.0824732
0.0824776
0.0824816
0.0824828
0.0824805
0.0824751
0.0824683
0.0824617
0.0824564
0.0824529
0.0824512
0.0825753
0.0825767
0.0825798
0.0825855
0.0825953
0.0826116
0.0826391
0.0826835
0.0827481
0.0828264
0.0829004
0.0829479
0.0829527
0.0829081
0.0828159
0.082689
0.0825649
0.0824853
0.082446
0.0824306
0.0824291
0.0824354
0.0824448
0.0824541
0.0824607
0.0824634
0.0824624
0.0824589
0.0824544
0.0824503
0.0824472
0.0824455
0.0825782
0.0825794
0.0825828
0.0825898
0.0826028
0.0826253
0.0826623
0.0827183
0.0827928
0.0828759
0.082949
0.082992
0.08299
0.0829345
0.082825
0.0826745
0.0825278
0.0824373
0.0823973
0.0823848
0.0823872
0.0823972
0.0824104
0.0824232
0.0824333
0.0824393
0.0824414
0.0824407
0.0824384
0.0824356
0.0824332
0.0824317
0.0826015
0.0826029
0.0826072
0.0826167
0.0826347
0.0826653
0.0827125
0.0827778
0.0828567
0.0829376
0.0830045
0.0830413
0.0830343
0.0829723
0.0828502
0.0826792
0.0825087
0.082403
0.0823596
0.0823507
0.0823589
0.0823745
0.0823916
0.082407
0.0824189
0.0824266
0.0824302
0.0824304
0.0824282
0.082425
0.082422
0.0824202
0.0826444
0.0826461
0.0826518
0.0826641
0.0826868
0.0827236
0.0827766
0.0828444
0.0829205
0.0829947
0.0830556
0.0830921
0.0830916
0.0830387
0.0829218
0.0827446
0.0825528
0.0824206
0.0823594
0.0823425
0.082349
0.0823649
0.0823819
0.0823951
0.0824026
0.0824042
0.0824016
0.082397
0.0823926
0.0823896
0.0823882
0.0823877
0.0826854
0.0826876
0.0826943
0.0827083
0.082733
0.0827711
0.0828233
0.0828869
0.0829559
0.0830239
0.0830851
0.0831333
0.0831576
0.0831406
0.0830634
0.0829165
0.082727
0.0825647
0.0824596
0.0823978
0.0823648
0.0823483
0.0823417
0.0823411
0.0823452
0.0823542
0.0823686
0.0823884
0.0824113
0.0824331
0.0824492
0.0824571
0.0827119
0.0827143
0.0827211
0.0827348
0.0827581
0.0827928
0.0828387
0.0828934
0.0829533
0.0830152
0.0830779
0.0831399
0.0831951
0.0832288
0.0832204
0.0831512
0.0830255
0.0828916
0.0827866
0.0827123
0.0826653
0.0826394
0.0826314
0.082638
0.0826573
0.0826871
0.0827248
0.0827664
0.0828065
0.0828394
0.082861
0.0828707
0.0827252
0.0827275
0.0827337
0.0827457
0.0827655
0.0827942
0.0828315
0.0828755
0.0829244
0.0829775
0.0830362
0.0831028
0.0831766
0.0832496
0.0833063
0.0833283
0.0833061
0.0832633
0.0832297
0.0832135
0.0832167
0.0832366
0.0832688
0.083307
0.0833468
0.0833831
0.0834119
0.0834306
0.083439
0.0834399
0.0834378
0.0834362
0.0827298
0.0827319
0.0827372
0.0827472
0.0827633
0.082786
0.0828151
0.0828494
0.0828879
0.0829312
0.0829821
0.0830449
0.0831223
0.0832116
0.0833036
0.0833848
0.0834408
0.0834775
0.0835133
0.0835567
0.0836087
0.0836672
0.0837267
0.0837806
0.0838247
0.0838553
0.0838705
0.0838708
0.0838595
0.0838427
0.0838277
0.0838197
0.0827292
0.0827311
0.0827356
0.0827438
0.0827565
0.0827742
0.0827967
0.0828233
0.0828539
0.0828897
0.0829341
0.0829922
0.0830678
0.0831606
0.0832647
0.0833706
0.0834632
0.0835382
0.0836058
0.0836728
0.0837397
0.0838042
0.0838631
0.0839138
0.0839548
0.0839853
0.084005
0.0840139
0.0840132
0.084006
0.0839968
0.0839908
0.0827271
0.0827285
0.082732
0.0827384
0.0827483
0.0827621
0.0827797
0.082801
0.0828267
0.0828588
0.0829012
0.0829582
0.0830333
0.0831267
0.0832337
0.0833463
0.08345
0.0835362
0.083611
0.0836806
0.0837461
0.0838067
0.0838619
0.0839116
0.0839559
0.0839938
0.0840238
0.0840444
0.0840557
0.0840589
0.0840571
0.0840545
0.0827289
0.0827292
0.0827308
0.0827347
0.0827418
0.0827524
0.0827668
0.0827856
0.0828104
0.082844
0.0828897
0.082951
0.0830294
0.0831242
0.0832312
0.0833436
0.0834474
0.0835326
0.083604
0.0836682
0.0837278
0.0837835
0.0838363
0.0838874
0.0839369
0.083983
0.0840227
0.0840531
0.0840728
0.0840825
0.0840851
0.0840844
0.0827442
0.0827422
0.08274
0.0827395
0.0827427
0.0827505
0.0827638
0.0827838
0.0828128
0.0828535
0.0829083
0.0829781
0.0830626
0.0831595
0.0832648
0.0833732
0.0834722
0.0835517
0.0836161
0.0836727
0.083725
0.083775
0.0838243
0.0838741
0.0839248
0.0839747
0.0840205
0.0840581
0.0840845
0.0840994
0.084105
0.0841054
0.0827856
0.0827799
0.0827716
0.0827646
0.0827627
0.0827683
0.0827832
0.082809
0.0828475
0.0829001
0.0829669
0.0830464
0.0831363
0.0832336
0.0833349
0.0834362
0.0835271
0.0835986
0.0836549
0.0837033
0.083748
0.0837914
0.0838351
0.0838804
0.0839278
0.0839763
0.084023
0.0840638
0.0840946
0.0841136
0.0841219
0.0841234
0.0828653
0.0828552
0.08284
0.0828263
0.0828202
0.0828261
0.0828462
0.0828816
0.0829322
0.0829971
0.0830738
0.0831592
0.0832501
0.0833435
0.0834369
0.0835279
0.083608
0.0836701
0.0837179
0.083758
0.0837949
0.0838308
0.0838674
0.0839058
0.0839468
0.0839897
0.0840328
0.0840726
0.0841049
0.0841265
0.0841369
0.0841393
0.0829911
0.0829773
0.0829585
0.0829427
0.0829374
0.0829476
0.0829753
0.0830199
0.0830794
0.0831508
0.0832302
0.0833138
0.0833986
0.0834824
0.0835636
0.0836409
0.083708
0.0837595
0.0837983
0.0838304
0.0838594
0.0838876
0.0839164
0.0839468
0.0839794
0.0840144
0.0840507
0.084086
0.0841165
0.0841385
0.0841503
0.0841536
0.0831658
0.0831517
0.0831371
0.0831283
0.0831304
0.0831475
0.0831805
0.0832282
0.0832878
0.0833554
0.0834273
0.0835003
0.0835718
0.0836406
0.0837057
0.0837667
0.0838192
0.083859
0.0838888
0.0839129
0.0839345
0.0839552
0.0839762
0.0839984
0.0840224
0.0840484
0.0840761
0.0841043
0.0841303
0.0841505
0.0841624
0.0841663
0.0833907
0.0833824
0.0833815
0.0833864
0.0833977
0.0834183
0.0834498
0.0834911
0.0835401
0.0835938
0.0836493
0.0837043
0.0837572
0.0838071
0.0838538
0.083897
0.0839339
0.0839618
0.0839825
0.083999
0.0840136
0.0840274
0.0840414
0.084056
0.0840718
0.084089
0.0841077
0.0841275
0.0841468
0.084163
0.0841734
0.0841773
0.0836706
0.0836744
0.0836873
0.0837002
0.0837137
0.0837306
0.0837524
0.0837793
0.0838102
0.0838434
0.0838773
0.0839105
0.0839421
0.0839717
0.0839991
0.0840243
0.0840458
0.0840619
0.0840738
0.0840833
0.0840915
0.0840993
0.084107
0.0841151
0.0841237
0.0841331
0.0841435
0.0841547
0.0841662
0.0841765
0.0841838
0.084187
0.0840141
0.0840186
0.0840267
0.0840334
0.0840394
0.0840458
0.0840534
0.0840626
0.0840729
0.0840839
0.0840951
0.084106
0.0841164
0.084126
0.0841349
0.084143
0.08415
0.0841552
0.084159
0.084162
0.0841647
0.0841671
0.0841695
0.0841721
0.0841748
0.0841777
0.0841809
0.0841844
0.0841881
0.0841915
0.0841942
0.0841955
)
;

boundaryField
{
    movingWall
    {
        type            fixedValue;
        value           uniform 0.0842;
    }
    fixedWalls
    {
        type            zeroGradient;
    }
    floor
    {
        type            zeroGradient;
    }
    frontAndBack
    {
        type            empty;
    }
}


// ************************************************************************* //
