/*--------------------------------*- C++ -*----------------------------------*\
| =========                 |                                                 |
| \\      /  F ield         | OpenFOAM: The Open Source CFD Toolbox           |
|  \\    /   O peration     | Version:  2212                                  |
|   \\  /    A nd           | Website:  www.openfoam.com                      |
|    \\/     M anipulation  |                                                 |
\*---------------------------------------------------------------------------*/
FoamFile
{
    version     2.0;
    format      ascii;
    arch        "LSB;label=64;scalar=64";
    class       volScalarField;
    location    "1000";
    object      nut;
}
// * * * * * * * * * * * * * * * * * * * * * * * * * * * * * * * * * * * * * //

dimensions      [0 2 -1 0 0 0 0];

internalField   nonuniform List<scalar> 
125000
(
0.0579610649704
0.0580132510688
0.0579610686886
0.337877765466
0.058078094282
0.0580132408291
0.344026426532
0.0579610684729
0.337877658621
0.669210355667
0.0581308365428
0.0580780891415
0.347310717861
0.0580132409984
0.344026364848
0.662908949397
0.0579610689025
0.33787766328
0.669210368866
0.968859268758
0.0581838015429
0.058130833685
0.349458375374
0.0580780893415
0.347310702011
0.655982072988
0.0580132408007
0.344026368364
0.662908963761
0.966793391959
0.0579610649628
0.337877649985
0.669210371264
0.968859053284
1.29176860989
0.0582313656061
0.0581837996147
0.351094361209
0.0581308338654
0.349458361756
0.650591134472
0.0580780888511
0.347310703836
0.655982052624
0.961739228069
0.0580132510426
0.344026367205
0.662908968568
0.966793381641
1.29222852631
0.33787776507
0.669210382327
0.968859052061
1.29176849479
1.6393658783
0.0582735922806
0.0582313638326
0.352323517343
0.0581837997304
0.351094350528
0.646669989249
0.0581308336303
0.349458362723
0.650591125563
0.955986340937
0.0580780941859
0.347310705174
0.65598205342
0.961739243293
1.29023570265
0.344026426719
0.662908976981
0.966793385444
1.29222840231
1.64071957421
0.669210354028
0.968859288132
1.29176849849
1.63937382928
2.0134743607
0.0583088406991
0.0582735909643
0.353218732355
0.058231363936
0.352323506561
0.643809653357
0.0581837995996
0.351094351326
0.646669988559
0.950493506575
0.0581308364677
0.349458363343
0.650591127385
0.95598636143
1.2868068333
0.34731071847
0.655982054717
0.961739244604
1.29023567816
1.64067389807
0.662908948108
0.966793434381
1.29222840572
1.64071876493
2.01514683335
0.968859267239
1.29176862091
1.63937384772
2.01355562771
2.41622832926
0.0583352465062
0.0583088394336
0.353835028062
0.0582735910603
0.353218721224
0.641714787245
0.0582313638332
0.352323507046
0.643809649709
0.945619880465
0.0581838014722
0.35109435105
0.646669989753
0.950493530112
1.28246109662
0.34945837594
0.650591125436
0.955986363818
1.2868068552
1.63956487246
0.655982071814
0.9617392446
1.29023567912
1.64067356021
2.0159654998
0.96679339002
1.29222859605
1.64071877342
2.01511700756
2.41788571863
1.29176860809
1.63936590437
2.01355563994
2.41632716639
2.84977962536
0.0583506943074
0.0583352452398
0.354241985798
0.058308839506
0.353835017415
0.640109768693
0.0582735909674
0.353218721487
0.641714783223
0.941524515331
0.0582313655595
0.352323506765
0.643809650364
0.945619899329
1.27789321294
0.351094361558
0.64666998843
0.950493531925
1.28246113354
1.63715007316
0.65059113368
0.955986357837
1.28680685764
1.63956482144
2.01626081503
0.961739226403
1.29023574278
1.64067356302
2.01596162724
2.41902376325
1.29222852314
1.64071964973
2.01511702183
2.41784943043
2.8512322628
1.63936585252
2.01347443575
2.41632716433
2.84979631333
3.31631852035
0.0583608337314
0.0583506930883
0.354482815851
0.0583352453048
0.35424197525
0.638852451121
0.0583088394347
0.353835017557
0.640109763805
0.938059969758
0.0582735922502
0.353218721302
0.64171478379
0.941524531872
1.27356030226
0.352323517581
0.643809649754
0.945619900654
1.27789324994
1.63423948314
0.646669988798
0.950493528385
1.28246113541
1.63715009409
2.01557992903
0.955986339937
1.28680686905
1.63956482455
2.01626032884
2.41998725351
1.2902357008
1.64067394467
2.01596163396
2.41901893312
2.85245873851
1.6407195723
2.0151468765
2.41784943348
2.85123162807
3.31759621268
2.01347419244
2.41622838884
2.84979631309
3.31632233088
3.81827883396
0.0583652041386
0.0583608325395
0.354606340844
0.058350693132
0.354482806617
0.637812579136
0.0583352452381
0.354241975293
0.6388524463
0.93516107763
0.0583088406825
0.353835017477
0.640109764169
0.938059983013
1.26943368672
0.353218732504
0.641714783262
0.941524533047
1.27356033776
1.63094627359
0.643809653255
0.945619898843
1.27789325184
1.63423952404
2.01421559563
0.950493506314
1.28246113549
1.63715009626
2.01557989351
2.42045299435
1.28680683295
1.63956491356
2.01626033343
2.41998663572
2.85369592125
1.64067390082
2.01596553984
2.41901893566
2.85245811931
3.31880360648
2.01514687774
2.41788575562
2.8512316283
3.31759576158
3.81949162961
2.41622814693
2.84977963662
3.31632232939
3.81827963729
4.35838352236
0.0583637386398
0.0583652029732
0.354648003293
0.0583608325825
0.354606331462
0.636951176189
0.0583506930867
0.354482806504
0.637812574476
0.932669707934
0.0583352464963
0.354241975285
0.638852446373
0.935161091062
1.26567231834
0.353835028201
0.640109763853
0.938059983893
1.26943372014
1.6274130886
0.64171478736
0.941524531752
1.27356033954
1.63094631672
2.01242996253
0.945619880747
1.27789325016
1.63423952626
2.01421562831
2.4202563982
1.28246109757
1.63715011338
2.01557989627
2.42045294593
2.85472011719
1.63956487659
2.01626085493
2.4199866384
2.85369580605
3.32010962094
2.01596552352
2.41902380323
2.85245811895
3.31880430169
3.82065086433
2.41788576206
2.85123230549
3.31759576136
3.8194916867
4.35957354556
2.84977957333
3.31631852306
3.81827963636
4.35838368556
4.93954801797
0.0583599997625
0.0583637375116
0.354631305407
0.0583652030032
0.35464799565
0.636222613365
0.0583608325375
0.354606331306
0.636951170481
0.93058565136
0.058350694308
0.354482806647
0.637812574331
0.932669717463
1.26225970233
0.354241985939
0.638852446325
0.935161091461
1.26567235038
1.62389029706
0.640109768993
0.93805998303
1.26943372141
1.6274131325
2.01011787453
0.941524515938
1.27356033761
1.6309463187
2.01243000561
2.41967144868
1.27789321456
1.63423952787
2.01421563064
2.42025642725
2.8554027885
1.63715007803
2.01557996808
2.42045294796
2.85472013409
3.32137760157
2.01626083014
2.41998729436
2.85369580641
3.32010972561
3.82192943727
2.41902379057
2.85245878143
3.31880430028
3.82065098746
4.36069585912
2.85123225658
3.31759625268
3.81949168638
4.35957359051
4.94072675858
3.31631849805
3.81827883868
4.35838368521
4.93954805739
5.56490028573
0.0583544195431
0.0583599986688
0.354593105672
0.0583637375317
0.354631298038
0.635585502983
0.0583652029721
0.354647995349
0.636222609646
0.92879261342
0.0583608337346
0.354606331476
0.636951170192
0.930585659234
1.25921115422
0.35448281603
0.637812574497
0.932669717677
1.26225973171
1.62046316433
0.638852451557
0.935161091095
1.26567235129
1.62389034102
2.00753527127
0.938059970642
1.26943372021
1.62741313412
2.01011792107
2.41868188389
1.27356030419
1.63094631751
2.01243000755
2.41967149255
2.85562192348
1.63423948815
2.0142156396
2.42025642874
2.85540282402
3.32249056001
2.01557994074
2.42045303688
2.85472013453
3.32137765337
3.82326521719
2.41998727206
2.85369596407
3.32010972457
3.8219294986
4.3619243378
2.85245874616
3.31880364455
3.82065098617
4.36069590615
4.94182741484
3.3175962123
3.81949166024
4.35957359022
4.94072678786
5.56606899302
3.8182788252
4.3583835308
4.9395480574
5.56490030412
6.23780183644
0.0583478107492
0.0583544184912
0.354530413236
0.0583599986795
0.354593098964
0.635050827981
0.0583637375102
0.354631297691
0.635585498677
0.927227853725
0.0583652041495
0.354647995656
0.636222609078
0.928792622058
1.25649231164
0.354606341044
0.63695117049
0.930585659167
1.25921118082
1.61720059908
0.637812579662
0.932669717499
1.26225973232
1.6204632076
2.00480177553
0.935161078701
1.26567235044
1.62389034227
2.00753531967
2.41722594269
1.26943368902
1.62741313274
2.01011792266
2.41868193082
2.85554421991
1.63094627843
2.01243000783
2.41967149399
2.85562197216
3.32334493519
2.01421560552
2.42025644119
2.85540282458
3.3224906081
3.82456586468
2.42045300921
2.85472016334
3.32137765258
3.8232652673
4.36324414005
2.85369593141
3.32010966292
3.82192949716
4.36192438335
4.94301162736
3.31880360364
3.82065090226
4.36069590507
4.94182744906
5.56715748921
3.81949162754
4.35957357268
4.94072678759
5.56606901899
6.23895915512
4.35838351859
4.93954802934
5.56490030433
6.2378018518
6.96186809103
0.0583407781296
0.0583478097421
0.354459313374
0.0583544184929
0.354530407353
0.634580231303
0.0583599986676
0.354593098549
0.635050823893
0.925876660047
0.0583637386537
0.354631298037
0.635585497975
0.927227861422
1.2540561208
0.354648003521
0.636222609649
0.928792621615
1.25649233706
1.61413932149
0.636951176759
0.930585659255
1.25921118114
1.61720064076
2.00200999272
0.932669709074
1.26225973177
1.62046320852
2.00480182515
2.41548387076
1.2656723207
1.62389034116
2.00753532094
2.41722599221
2.85517472289
1.62741309333
2.01011792163
2.41868193199
2.85554426645
3.32389062286
2.01242997116
2.41967149494
2.85562197248
3.32334498605
3.82575682979
2.42025641068
2.85540283417
3.32249060752
3.82456591504
4.36459816655
2.85472012823
3.32137764862
3.82326526593
4.36324418685
4.94428709657
3.32010962322
3.82192947903
4.36192438189
4.94301166922
5.56830898348
3.82065086256
4.36069589478
4.94182744814
5.56715752004
6.24004018513
4.35957354378
4.94072678472
5.56606901872
6.23895918125
6.96301241303
4.93954801587
5.56490029895
6.23780185213
6.96186810567
7.74098882007
0.0583337412425
0.0583407771662
0.354386679839
0.0583478097347
0.354459308204
0.63416925868
0.0583544184901
0.354530406869
0.634580228438
0.924697295856
0.0583599997793
0.354593098957
0.63505082304
0.925876666925
1.25188099002
0.35463130565
0.635585498671
0.927227860724
1.25405614493
1.61128357839
0.636222613966
0.928792622064
1.25649233702
1.61413936201
1.99923365785
0.930585652539
1.25921118087
1.6172006414
2.00201004263
2.41353261007
1.26225970469
1.62046320771
2.00480182614
2.41548392231
2.85440164633
1.62389030154
2.00753531992
2.41722599316
2.85517477366
3.32419319529
2.0101178823
2.41868193168
2.85554426693
3.32389067562
3.82675139262
2.41967145967
2.85562197236
3.32334498562
3.82575688308
4.36593436789
2.85540279892
3.32249060876
3.82456591378
4.36459821643
4.94562845572
3.32137760675
3.82326526379
4.36324418531
4.9442871416
5.56953884096
3.821929437
4.36192437911
4.94301166789
5.56830902466
6.24116805805
4.36069585776
4.94182744837
5.56715751923
6.24004021387
6.96408801168
4.94072675727
5.56606901917
6.23895918102
6.96301243976
7.74211882901
5.56490028425
6.23780185053
6.96186810607
7.74098883379
8.57934943326
0.0583269757243
0.0583337403208
0.354316718683
0.0583407771503
0.354386675288
0.633811316656
0.0583478097411
0.354459307655
0.634169256236
0.923662537939
0.0583544195618
0.354530407342
0.634580227409
0.92469730271
1.2499360976
0.354593105927
0.635050823878
0.925876665994
1.25188101276
1.60863776489
0.635585503589
0.927227861404
1.25405614457
1.61128361783
1.99651653795
0.928792614638
1.25649233708
1.61413936235
1.99923370784
2.41144765879
1.25921115652
1.61720064084
2.0020100434
2.41353266315
2.85335734883
1.62046316857
2.00480182533
2.41548392308
2.85440169893
3.32428573248
2.00753527831
2.41722599257
2.85517477406
3.32419324841
3.82756316393
2.41868189374
2.85554426925
3.32389067525
3.82675144726
4.36717934686
2.85562193382
3.32334498623
3.82575688208
4.36593442209
4.94700013328
3.32249056644
3.82456591459
4.3645982149
4.94562850456
5.5708422621
3.82326521874
4.3632441856
4.94428714009
5.56953888513
6.24236009615
4.36192433691
4.94301166851
5.56830902351
6.24116809894
6.96519795857
4.94182741383
5.56715752073
6.24004021316
6.96408803824
7.74318967852
5.56606899204
6.23895918163
6.96301243961
7.74211885615
8.58046415278
6.23780183527
6.96186810517
7.74098883423
8.57934944562
9.48145358861
0.0583206459856
0.0583269748417
0.354251797654
0.0583337402966
0.354316714678
0.633498905158
0.0583407771657
0.354386674681
0.633811314667
0.922751558029
0.0583478107691
0.354459308192
0.634169255074
0.923662544759
1.24819398776
0.354530413493
0.634580228412
0.92469730154
1.24993611939
1.60619530253
0.63505082858
0.925876666889
1.25188101211
1.6086378031
1.99389205394
0.927227854917
1.25405614492
1.61128361788
1.99651658786
2.40928503798
1.25649231387
1.61413936206
1.99923370838
2.41144771318
2.85210236374
1.61720060305
2.00201004278
2.41353266379
2.85335740332
3.32403395777
2.00480178197
2.41548392256
2.8544016993
3.32428578688
3.82811485605
2.41722595161
2.85517477425
3.32419324826
3.82756322221
4.36830686957
2.85554422961
3.32389067617
3.82675144637
4.36717940274
4.94835787188
3.32334494244
3.82575688308
4.36593442085
4.94700018718
5.57219554756
3.82456586761
4.36459821613
4.94562850303
5.57084230995
6.24362134082
4.36324414002
4.94428714118
5.56953888373
6.24236013974
6.96636045546
4.9430116265
5.56830902465
6.24116809803
6.96519799873
7.74428511997
5.56715748848
6.24004021446
6.96408803762
7.74318970267
8.58153017129
6.23895915433
6.96301243995
7.74211885613
8.58046417998
9.48255235302
6.96186809011
7.74098883353
8.57934944608
9.48145359931
10.4521474083
0.0583148388552
0.0583206451396
0.354193023111
0.0583269748097
0.354251794122
0.633225718035
0.0583337403207
0.354316714018
0.633498903622
0.921946804653
0.05834077815
0.354386675278
0.633811313386
0.922751564866
1.24663056148
0.354459313627
0.634169256209
0.923662543371
1.24819400881
1.6039464228
0.634580231879
0.924697302656
1.24993611847
1.60619533964
1.99137864633
0.925876661205
1.25188101271
1.60863780287
1.99389210351
2.40709139046
1.25405612294
1.61128361784
1.9965165882
2.40928509338
2.85068378389
1.61413932522
1.99923370795
2.41144771369
2.85210242015
3.32356049573
2.00200999862
2.41353266336
2.85335740367
3.32403401429
3.82854427045
2.41548387891
2.85440169923
3.32428578686
3.82811491288
4.36927678384
2.85517473201
3.32419324872
3.82756322165
4.36830692961
4.94965325727
3.32389063046
3.82675144742
4.36717940162
4.94835792807
5.57358033852
3.82575683382
4.36593442205
4.94700018595
5.57219560056
6.24493642738
4.36459816742
4.94562850438
5.57084230857
6.24362138774
6.96758361769
4.94428709608
5.56953888495
6.24236013853
6.96636049835
7.74542424356
5.56830898282
6.24116809902
6.9651979981
7.7442851587
8.58261329247
6.24004018459
6.96408803858
7.74318970217
8.58153019299
9.48361295951
6.96301241237
7.7421188562
8.58046418013
9.48255237988
10.4532298465
7.74098881936
8.57934944549
9.48145359975
10.4521474172
11.4966455073
0.0583095843667
0.0583148380432
0.354140699333
0.0583206451002
0.354193019996
0.632986304573
0.0583269748422
0.354251793417
0.633225716915
0.921233600172
0.058333741263
0.354316714671
0.633498902235
0.921946811575
1.24522478269
0.354386680082
0.633811314643
0.922751563285
1.24663058192
1.60187786869
0.634169259229
0.923662544698
1.24819400762
1.60394645894
1.98898980215
0.924697296963
1.24993611932
1.60619533916
1.99137869541
2.40489893731
1.25188099206
1.60863780307
1.99389210364
2.40709144655
2.84914403819
1.61128358188
1.99651658792
2.40928509381
2.8506838418
3.32288910602
1.9992336633
2.41144771334
2.85210242048
3.32356055415
3.82873235426
2.41353261754
2.85335740358
3.32403401432
3.82854432867
4.370066017
2.85440165488
3.32428578714
3.82811491249
4.3692768436
4.95087357105
3.32419320289
3.8275632224
4.36830692891
4.94965331779
5.57494547505
3.82675139742
4.3671794028
4.94835792697
5.57358039425
6.2463027477
4.36593436964
4.94700018713
5.57219559951
6.24493647923
6.96885799825
4.94562845569
5.57084230983
6.24362138661
6.96758366352
7.74661518397
5.56953884045
6.24236013963
6.96636049741
7.7454242854
8.58373314533
6.24116805757
6.96519799879
7.7442851584
8.58261332903
9.48468523342
6.96408801126
7.74318970285
8.58153019261
9.48361297891
10.4542841352
7.74211882844
8.58046417998
9.48255238023
10.4532298726
11.4977115309
8.57934943273
9.48145359923
10.4521474176
11.4966455144
12.6205590029
0.0583048777643
0.0583095835866
0.35409462022
0.0583148379971
0.354140696581
0.632775959466
0.0583206451405
0.35419301925
0.632986303844
0.920599466091
0.0583269757445
0.35425179412
0.633225715437
0.921233607206
1.24395821877
0.354316718913
0.633498903604
0.921946809821
1.24522480266
1.59997662942
0.633811317171
0.922751564808
1.24663058049
1.60187790395
1.98672853749
0.923662538991
1.24819400873
1.6039464582
1.98898985069
2.40273833037
1.24993609953
1.60619533957
1.99137869537
2.4048989938
2.84751780186
1.60863776815
1.99389210352
2.40709144688
2.84914409742
3.32204852794
1.99651654298
2.40928509349
2.85068384219
3.32288916566
3.82870458498
2.41144766569
2.85210242036
3.32356055431
3.82873241547
4.37072321993
2.85335735685
3.32403401455
3.82854432855
4.37006608023
4.95195497547
3.32428573999
3.82811491308
4.36927684309
4.95087363244
5.57629206
3.8275631693
4.36830692971
4.94965331719
5.57494553502
6.24767822583
4.36717934935
4.94835792808
5.57358039337
6.24630280248
6.97018737558
4.9470001338
5.5721956005
6.24493647848
6.96885804873
7.7478528675
5.5708422618
6.24362138764
6.96758366271
7.74661522838
8.58489702595
6.24236009575
6.96636049826
7.7454242848
8.58373318566
9.48578853021
6.96519795823
7.74428515871
8.58261332908
9.48468526719
10.4553465126
7.74318967816
8.58153019306
9.48361297868
10.4542841526
11.4987584292
8.5804641523
9.48255237984
10.4532298732
11.4977115558
12.6216087792
9.48145358822
10.4521474171
11.4966455147
12.6205590083
13.82992566
0.0583006928324
0.0583048770135
0.354054324328
0.0583095835341
0.354094617786
0.632590605716
0.0583148380446
0.354140695801
0.63277595909
0.920033862049
0.0583206460053
0.354193019998
0.632986302291
0.920599473274
1.24281443753
0.354251797868
0.633225716905
0.921233605304
1.24395823835
1.59822926667
0.633498905639
0.921946811525
1.24522480101
1.5999766639
1.98459745104
0.922751559022
1.24663058183
1.60187790298
1.9867285854
2.40062399693
1.24819398958
1.60394645885
1.98898985046
2.4027383871
2.84584154716
1.60619530558
1.99137869536
2.40489899409
2.84751786217
3.3210731346
1.99389205861
2.4070914466
2.84914409782
3.32204858898
3.82849398906
2.40928504435
2.85068384196
3.32288916599
3.82870464648
4.37125097497
2.85210237129
3.32356055438
3.82873241558
4.3707232819
4.95295177031
3.32403396514
3.82854432888
4.37006608027
4.95195504028
5.57755080379
3.82811486165
4.36927684373
4.95087363208
5.57629212169
6.24906845695
4.36830687274
4.94965331784
5.57494553471
6.24767828456
6.97154215522
4.94835787291
5.57358039423
6.24630280197
6.97018742904
7.74914188352
5.57219554756
6.24493647917
6.96885804837
7.74785291629
8.5861031198
6.2436213405
6.96758366343
7.74661522795
8.58489706851
9.48692935003
6.96636045516
7.74542428532
8.58373318544
9.48578856856
10.4564351199
7.74428511971
8.58261332901
9.48468526758
10.4553465432
11.4998114187
8.58153017098
9.48361297892
10.4542841525
11.4987584451
12.6226471903
9.48255235262
10.4532298725
11.4977115566
12.6216088026
13.8309595657
10.452147408
11.4966455144
12.6205590085
13.829925664
15.1312423317
0.0582969892808
0.0583006921098
0.354019211428
0.0583048769553
0.354054322173
0.632426759913
0.0583095835882
0.354094616978
0.632590605665
0.919527786732
0.0583148388742
0.354140696586
0.632775957476
0.920033869384
1.24177923818
0.354193023309
0.632986303842
0.920599471245
1.24281445682
1.59662231277
0.633225718479
0.92123360717
1.24395823651
1.59822930044
1.9825933028
0.921946805584
1.24522480258
1.59997666272
1.98459749835
2.39857533452
1.24663056318
1.60187790385
1.98672858503
2.40062405365
2.84413307726
1.60394642565
1.98898985062
2.4027383873
2.84584160837
3.31999281887
1.99137865065
2.4048989938
2.84751786268
3.32107319697
3.82813898597
2.40709139639
2.84914409752
3.32204858945
3.828494052
4.37155345953
2.85068379095
3.32288916585
3.82870464686
4.37125103809
4.9537676863
3.3235605029
3.82873241568
4.3707232821
4.95295183461
5.57876299504
3.82854427623
4.37006608038
4.95195504058
5.57755086893
6.25041649263
4.36927678744
4.95087363252
5.57629212169
6.2490685179
6.97292764611
4.94965325885
5.57494553504
6.24767828466
6.97154221223
7.75046341959
5.5735803388
6.24630280245
6.97018742901
7.74914193528
8.58735476795
6.24493642722
6.96885804867
7.74785291636
8.58610316649
9.48810817587
6.96758361743
7.7466152283
8.58489706849
9.48692939034
10.4575558937
7.74542424334
8.58373318558
9.48578856876
10.4564351558
11.5008866499
8.58261329226
9.48468526715
10.4553465439
11.4998114459
12.6236909348
9.48361295924
10.4542841526
11.4987584452
12.622647205
13.8319884808
10.4532298462
11.4977115557
12.6216088036
13.8309595873
15.1322608926
11.4966455071
12.6205590082
13.8299256642
15.1312423344
16.531499863
0.0582937259598
0.0582969885836
0.353988642733
0.0583006920462
0.354019209522
0.632281405949
0.0583048770153
0.354054321342
0.632426760154
0.919073575581
0.0583095843849
0.354094617793
0.632590604004
0.919527794236
1.24084009725
0.354140699514
0.632775959095
0.920033867252
1.24177925724
1.59514367265
0.632986304981
0.920599473251
1.24281445482
1.59662234593
1.98071148076
0.921233601042
1.2439582383
1.59822929907
1.98259334947
2.39659591513
1.24522478429
1.59997666381
1.98459749781
2.39857539116
2.84242419219
1.60187787135
1.98672858533
2.40062405384
2.84413313907
3.31882686411
1.98898980619
2.40273838707
2.84584160892
3.31999288239
3.82765075709
2.4048989428
2.84751786222
3.3210731977
3.82813905015
4.37173332557
2.84914404485
3.32204858912
3.82849405266
4.37155352506
4.9545155389
3.3228891129
3.82870464667
4.3712510387
4.95376775374
5.57984357857
3.82873236021
4.37072328208
4.95295183513
5.57876306048
6.25174717968
4.37006602104
4.95195504037
5.57755086968
6.25041655693
6.97430432416
4.95087357305
5.57629212173
6.24906851841
6.97292770556
7.75182068923
5.57494547569
6.24767828456
6.97154221284
7.7504634745
8.58864065346
6.24630274767
6.97018742901
7.74914193577
8.58735481756
9.48932703526
6.96885799807
7.74785291623
8.58610316704
9.48810822002
10.458710762
7.74661518378
8.58489706843
9.48692939076
10.4575559314
11.5019896511
8.58373314516
9.48578856849
10.4564351564
11.5008866832
12.6247536974
9.48468523323
10.4553465431
11.4998114469
12.6236909587
13.8330228515
10.4542841349
11.498758445
12.6226472053
13.8319884947
15.1332794669
11.4977115306
12.6216088026
13.8309595884
15.132260912
16.5325036931
12.6205590028
13.829925664
15.1312423346
16.5314998649
18.0382206476
0.0582908529272
0.0582937252879
0.353962026494
0.0582969885152
0.353988641041
0.632151982663
0.0583006921116
0.354019208673
0.632281406461
0.918664626778
0.0583048777815
0.354054322181
0.632426758458
0.91907358324
1.23998610703
0.354094620384
0.632590605674
0.919527792022
1.24084011613
1.59378163722
0.63277595984
0.920033869375
1.24177925509
1.59514370524
1.97894757336
0.920599466899
1.24281445678
1.5966223444
1.98071152681
2.39469412921
1.24395822026
1.59822930038
1.98259334881
2.39659597152
2.84071403892
1.5999766319
1.98459749828
2.39857539127
2.8424242545
3.31760392131
1.98672854124
2.40062405361
2.84413313977
3.31882692853
3.82705153241
2.40273833552
2.84584160839
3.3199928833
3.82765082222
4.37176625156
2.84751780809
3.32107319706
3.8281390512
4.37173339189
4.95513652386
3.32204853457
3.82849405215
4.37155352612
4.95451560481
5.58087225052
3.82870459088
4.37125103827
4.9537677551
5.57984364695
6.25299608062
4.3707232242
4.95295183472
5.57876306153
6.25174724497
6.97568398831
4.95195497792
5.57755086898
6.25041655825
6.97430438673
7.7531895005
5.57629206095
6.24906851791
6.97292770669
7.75182074661
8.58996172358
6.24767822602
6.97154221222
7.75046347567
8.58864070588
9.49057922374
6.97018737547
7.74914193524
8.58735481862
9.4893270823
10.4599010186
7.74785286735
8.58610316643
9.48810822105
10.4587108033
11.5031231065
8.5848970258
9.48692939026
10.4575559323
11.5019896861
12.6258406302
9.48578853007
10.4564351557
11.5008866842
12.6247537277
13.8340737339
10.4553465125
11.4998114458
12.6236909599
13.8330228724
15.1343041617
11.498758429
12.622647205
13.8319884952
15.1332794802
16.5335112858
12.621608779
13.8309595872
15.1322609133
16.5325037103
18.039210396
13.82992566
15.1312423344
16.531499865
18.0382206489
19.6594990359
0.0582883349011
0.0582908522773
0.353938762122
0.0582937252151
0.353962025004
0.632036308448
0.0582969885854
0.353988640179
0.63215198341
0.918295288641
0.0583006928487
0.354019209531
0.632281404741
0.918664634601
1.23920764252
0.354054324476
0.632426760166
0.919073580966
1.23998612575
1.59252552556
0.632590606056
0.919527794236
1.24084011388
1.59378166932
1.97729465895
0.920033862798
1.24177925722
1.59514370357
1.97894761879
2.39287497306
1.24281443892
1.59662234589
1.98071152604
2.39469418529
2.83903399098
1.59822926899
1.98259334942
2.39659597165
2.8407141014
3.31633420424
1.98459745455
2.39857539113
2.84242425523
3.31760398654
3.82635979421
2.4006240017
2.84413313907
3.31882692972
3.8270515984
4.3716865404
2.84584155306
3.31999288245
3.82765082357
4.37176631828
4.95558925313
3.32107314091
3.82813905025
4.37173339346
4.95513659211
5.58174280248
3.82849399493
4.3715535252
4.95451560632
5.58087231786
6.25420821815
4.37125097944
4.95376775387
5.57984364895
6.25299614867
6.97702371139
4.95295177306
5.57876306054
6.25174724672
6.97568405233
7.75457360179
5.57755080511
6.25041655695
6.9743043887
7.75318956068
8.59130442354
6.24906845732
6.97292770556
7.75182074841
8.58996177839
9.49186400617
6.97154215522
7.75046347448
8.58864070765
9.49057927329
10.4611226589
7.74914188341
8.58735481752
9.48932708391
10.4599010627
11.5042880952
8.58610311969
9.48810821997
10.4587108048
11.5031231447
12.6269546831
9.48692934992
10.4575559314
11.5019896874
12.6258406622
13.8351458516
10.4564351197
11.5008866831
12.6247537292
13.8340737611
15.1353435033
11.4998114185
12.6236909586
13.8330228737
15.1343041798
16.534525919
12.6226471901
13.8319884947
15.1332794809
16.5335112985
18.0402065784
13.8309595656
15.132260912
16.5325037115
18.0392104108
19.6604753482
15.1312423316
16.5314998649
18.0382206489
19.6594990369
21.4040448156
0.0582861203418
0.0582883342748
0.353918424489
0.0582908522005
0.353938760793
0.631932508739
0.0582937252896
0.353962024134
0.632036309422
0.917960705137
0.0582969892961
0.353988641049
0.632151981677
0.9182952966
1.23849634329
0.354019211562
0.632281406474
0.918664632286
1.23920766114
1.59136541663
0.632426760221
0.919073583248
1.23998612342
1.5925255572
1.97574610602
0.919527787424
1.24084011612
1.59378166755
1.9772947038
2.39113635879
1.24177923948
1.59514370523
1.97894761794
2.39287502874
2.83738862186
1.59662231494
1.98071152679
2.39469418539
2.83903405363
3.31503725985
1.98259330607
2.39659597151
2.84071410236
3.31633427002
3.82559091704
2.39857533902
2.84242425451
3.31760398791
3.82635986097
4.37149725414
2.84413308276
3.31882692857
3.82705160014
4.37168660775
4.95595212974
3.31999282494
3.8276508223
4.37176632024
4.95558932121
5.58257110112
3.82813899172
4.37173339199
4.95513659442
5.58174287307
6.25531496658
4.37155346419
4.95451560494
5.58087232008
6.25420828595
6.978342267
4.9537676894
5.57984364701
6.25299615142
6.97702377792
7.75594753206
5.57876299662
6.251747245
6.97568405487
7.75457366367
8.5926684863
6.25041649325
6.97430438674
7.75318956334
8.59130448084
9.49317402092
6.97292764621
7.7518207466
8.58996178087
9.49186405797
10.4623740354
7.75046341953
8.58864070585
9.49057927564
10.4611227053
11.5054822177
8.58735476785
9.48932708226
10.4599010648
11.504288136
12.6280969879
9.48810817577
10.4587108033
11.5031231466
12.626954718
13.8362421101
10.4575558936
11.501989686
12.6258406639
13.8351458807
15.1364017012
11.5008866498
12.6247537276
13.8340737629
15.1353435274
16.5355538744
12.6236909347
13.8330228723
15.1343041812
16.5345259347
18.041210756
13.8319884806
15.1332794802
16.5335112993
18.0402065902
19.6614598892
15.1322608924
16.5325037102
18.039210412
19.6604753606
21.4050083106
16.531499863
18.0382206489
19.6594990369
21.4040448162
23.2812299971
0.0582841895188
0.0582861197337
0.353900470518
0.0582883341944
0.353918423331
0.631839047291
0.0582908522789
0.353938759918
0.631932509898
0.917656670862
0.0582937259741
0.353962025012
0.632036307685
0.917960713246
1.23784483924
0.353988642852
0.632151983424
0.918295294262
1.2384963618
1.5902924566
0.632281406229
0.918664634615
1.23920765876
1.59136544788
1.97429500499
0.919073576219
1.23998612576
1.59252555536
1.97574615028
2.3894784318
1.24084009846
1.59378166933
1.97729470289
2.39113641405
2.83577640172
1.59514367467
1.97894761881
2.39287502887
2.83738868449
3.31372870231
1.98071148383
2.3946941853
2.8390340546
3.31503732606
3.82475909318
2.39659591932
2.84071410143
3.3163342717
3.82559098441
4.37121657561
2.84242419745
3.31760398658
3.82635986306
4.37149732201
4.95619609222
3.31882686986
3.82705159845
4.37168661021
4.95595219847
5.58330051635
3.82765076273
4.37176631836
4.95558932393
5.58257116973
6.25637347537
4.37173333028
4.95513659219
5.58174287653
6.25531503682
6.97960031709
4.95451554218
5.58087231792
6.25420828907
6.97834233398
7.75731488233
5.57984358048
6.2529961487
6.97702378147
7.75594759616
8.5940402666
6.25174718049
6.97568405234
7.75457366703
8.59266854536
9.49450741746
6.97430432441
7.75318956068
8.5913044842
9.49317407493
10.463650919
7.75182068923
8.58996177838
9.49186406111
10.4623740839
11.5067035554
8.5886406534
9.49057927326
10.4611227082
11.5054822606
12.6292661561
9.48932703518
10.4599010626
11.5042881386
12.6280970253
13.8373637564
10.458710762
11.5031231446
12.6269547203
13.8362421417
15.1374814416
11.501989651
12.6258406622
13.8351458828
15.1364017274
16.5365987706
12.6247536973
13.8340737611
15.1353435295
16.5355538954
18.0422273534
13.8330228514
15.1343041797
16.5345259362
18.0412107696
19.6624532649
15.1332794668
16.5335112984
18.0402065912
19.6614599
21.4059811477
16.532503693
18.0392104107
19.6604753618
21.4050083207
23.2821812575
18.0382206476
19.6594990369
21.4040448162
23.2812299976
25.3011391586
0.0582824889757
0.0582841889339
0.353884714906
0.0582861196502
0.353900469473
0.631754518171
0.0582883342762
0.353918422456
0.631839048642