/*--------------------------------*- C++ -*----------------------------------*\
| =========                 |                                                 |
| \\      /  F ield         | OpenFOAM: The Open Source CFD Toolbox           |
|  \\    /   O peration     | Version:  2212                                  |
|   \\  /    A nd           | Website:  www.openfoam.com                      |
|    \\/     M anipulation  |                                                 |
\*---------------------------------------------------------------------------*/
FoamFile
{
    version     2.0;
    format      ascii;
    arch        "LSB;label=64;scalar=64";
    class       volVectorField;
    location    "0.41";
    object      U;
}
// * * * * * * * * * * * * * * * * * * * * * * * * * * * * * * * * * * * * * //

dimensions      [0 1 -1 0 0 0 0];

internalField   nonuniform List<vector> 
32768
(
(-7.81264e-07 3.24423e-06 0)
(-1.22674e-05 1.03136e-05 0)
(-3.25039e-05 1.40419e-05 0)
(-5.47367e-05 1.48641e-05 0)
(-7.54778e-05 1.42903e-05 0)
(-9.38287e-05 1.3446e-05 0)
(-0.000110216 1.27923e-05 0)
(-0.000125346 1.23795e-05 0)
(-0.000139751 1.21176e-05 0)
(-0.000153719 1.19141e-05 0)
(-0.000167366 1.17124e-05 0)
(-0.000180718 1.14871e-05 0)
(-0.000193763 1.12299e-05 0)
(-0.000206474 1.09403e-05 0)
(-0.000218821 1.062e-05 0)
(-0.000230774 1.02711e-05 0)
(-0.000242305 9.89533e-06 0)
(-0.000253386 9.4942e-06 0)
(-0.000263992 9.06884e-06 0)
(-0.000274096 8.62024e-06 0)
(-0.000283674 8.14927e-06 0)
(-0.000292701 7.65671e-06 0)
(-0.000301153 7.14331e-06 0)
(-0.000309007 6.60978e-06 0)
(-0.00031624 6.0567e-06 0)
(-0.00032283 5.48461e-06 0)
(-0.000328753 4.894e-06 0)
(-0.000333989 4.28543e-06 0)
(-0.000338515 3.65954e-06 0)
(-0.000342312 3.01703e-06 0)
(-0.000345357 2.35884e-06 0)
(-0.000347634 1.68628e-06 0)
(-0.000349123 1.00164e-06 0)
(-0.00034981 3.08257e-07 0)
(-0.000349677 -3.91565e-07 0)
(-0.000348719 -1.09629e-06 0)
(-0.000346932 -1.80116e-06 0)
(-0.000344314 -2.50338e-06 0)
(-0.000340863 -3.20167e-06 0)
(-0.000336579 -3.89506e-06 0)
(-0.000331465 -4.58218e-06 0)
(-0.000325524 -5.26165e-06 0)
(-0.000318762 -5.93201e-06 0)
(-0.000311187 -6.59164e-06 0)
(-0.000302809 -7.2386e-06 0)
(-0.000293642 -7.87098e-06 0)
(-0.0002837 -8.48678e-06 0)
(-0.000273002 -9.08392e-06 0)
(-0.00026157 -9.66036e-06 0)
(-0.000249429 -1.02142e-05 0)
(-0.000236605 -1.07434e-05 0)
(-0.000223128 -1.12458e-05 0)
(-0.000209032 -1.17195e-05 0)
(-0.000194353 -1.21626e-05 0)
(-0.00017913 -1.25734e-05 0)
(-0.000163403 -1.29502e-05 0)
(-0.000147215 -1.32916e-05 0)
(-0.000130614 -1.35963e-05 0)
(-0.000113646 -1.38632e-05 0)
(-9.63606e-05 -1.4091e-05 0)
(-7.88092e-05 -1.42784e-05 0)
(-6.10465e-05 -1.44231e-05 0)
(-4.31314e-05 -1.45211e-05 0)
(-2.51257e-05 -1.45682e-05 0)
(-7.08791e-06 -1.45625e-05 0)
(1.09156e-05 -1.45062e-05 0)
(2.88103e-05 -1.44049e-05 0)
(4.65589e-05 -1.42641e-05 0)
(6.41092e-05 -1.40856e-05 0)
(8.1413e-05 -1.387e-05 0)
(9.84239e-05 -1.36176e-05 0)
(0.000115096 -1.33288e-05 0)
(0.000131385 -1.30043e-05 0)
(0.000147246 -1.26451e-05 0)
(0.000162638 -1.22526e-05 0)
(0.000177521 -1.18283e-05 0)
(0.000191857 -1.13737e-05 0)
(0.00020561 -1.08904e-05 0)
(0.000218746 -1.03799e-05 0)
(0.000231236 -9.84439e-06 0)
(0.00024305 -9.28589e-06 0)
(0.000254164 -8.70633e-06 0)
(0.000264555 -8.10774e-06 0)
(0.000274202 -7.49201e-06 0)
(0.000283089 -6.86122e-06 0)
(0.0002912 -6.21741e-06 0)
(0.000298522 -5.56214e-06 0)
(0.000305046 -4.89655e-06 0)
(0.000310762 -4.22187e-06 0)
(0.000315663 -3.53928e-06 0)
(0.000319744 -2.85005e-06 0)
(0.000323 -2.15511e-06 0)
(0.00032543 -1.45554e-06 0)
(0.000327033 -7.5373e-07 0)
(0.000327814 -5.46961e-08 0)
(0.000327774 6.35286e-07 0)
(0.00032693 1.31422e-06 0)
(0.000325302 1.97953e-06 0)
(0.000322909 2.62934e-06 0)
(0.000319772 3.26278e-06 0)
(0.000315912 3.87914e-06 0)
(0.000311349 4.47787e-06 0)
(0.000306106 5.05878e-06 0)
(0.000300203 5.62175e-06 0)
(0.000293663 6.16655e-06 0)
(0.000286506 6.69263e-06 0)
(0.000278755 7.19921e-06 0)
(0.000270433 7.68536e-06 0)
(0.000261563 8.15034e-06 0)
(0.000252168 8.5934e-06 0)
(0.000242273 9.01364e-06 0)
(0.000231902 9.41014e-06 0)
(0.000221081 9.78178e-06 0)
(0.000209837 1.0127e-05 0)
(0.000198198 1.04439e-05 0)
(0.000186192 1.07304e-05 0)
(0.00017385 1.09847e-05 0)
(0.000161198 1.12073e-05 0)
(0.000148249 1.14065e-05 0)
(0.000134976 1.16081e-05 0)
(0.00012126 1.18695e-05 0)
(0.000106809 1.22853e-05 0)
(9.10802e-05 1.29492e-05 0)
(7.33463e-05 1.38135e-05 0)
(5.31585e-05 1.44116e-05 0)
(3.14112e-05 1.35959e-05 0)
(1.16281e-05 9.8468e-06 0)
(6.11468e-07 2.8643e-06 0)
(-1.46663e-06 2.18767e-05 0)
(-1.9511e-05 5.79228e-05 0)
(-4.6972e-05 7.37373e-05 0)
(-7.50257e-05 7.32903e-05 0)
(-9.90812e-05 6.57314e-05 0)
(-0.000118404 5.77024e-05 0)
(-0.000134079 5.18308e-05 0)
(-0.000147457 4.82162e-05 0)
(-0.000159533 4.6095e-05 0)
(-0.000170874 4.47294e-05 0)
(-0.000181751 4.36519e-05 0)
(-0.000192273 4.26274e-05 0)
(-0.000202474 4.15573e-05 0)
(-0.000212354 4.04072e-05 0)
(-0.000221902 3.91685e-05 0)
(-0.000231104 3.78412e-05 0)
(-0.000239944 3.64274e-05 0)
(-0.000248404 3.49299e-05 0)
(-0.000256468 3.33506e-05 0)
(-0.000264119 3.16912e-05 0)
(-0.000271341 2.9953e-05 0)
(-0.000278118 2.81375e-05 0)
(-0.000284431 2.62461e-05 0)
(-0.000290265 2.42801e-05 0)
(-0.000295602 2.22404e-05 0)
(-0.000300427 2.01277e-05 0)
(-0.000304725 1.79432e-05 0)
(-0.000308479 1.56881e-05 0)
(-0.000311673 1.33632e-05 0)
(-0.000314294 1.097e-05 0)
(-0.000316326 8.51063e-06 0)
(-0.000317754 5.98792e-06 0)
(-0.000318564 3.40667e-06 0)
(-0.000318744 7.75296e-07 0)
(-0.000318272 -1.89172e-06 0)
(-0.000317155 -4.58155e-06 0)
(-0.000315378 -7.28527e-06 0)
(-0.000312936 -9.99762e-06 0)
(-0.000309821 -1.27148e-05 0)
(-0.000306026 -1.54321e-05 0)
(-0.000301546 -1.81434e-05 0)
(-0.000296379 -2.0843e-05 0)
(-0.000290525 -2.35245e-05 0)
(-0.000283985 -2.61799e-05 0)
(-0.000276762 -2.88e-05 0)
(-0.000268862 -3.13757e-05 0)
(-0.000260293 -3.38982e-05 0)
(-0.000251069 -3.63575e-05 0)
(-0.000241204 -3.87433e-05 0)
(-0.000230715 -4.1046e-05 0)
(-0.000219624 -4.32559e-05 0)
(-0.000207954 -4.53626e-05 0)
(-0.000195731 -4.73564e-05 0)
(-0.000182986 -4.92277e-05 0)
(-0.000169751 -5.09678e-05 0)
(-0.000156062 -5.25684e-05 0)
(-0.000141958 -5.40211e-05 0)
(-0.000127478 -5.53191e-05 0)
(-0.000112667 -5.64559e-05 0)
(-9.75686e-05 -5.74248e-05 0)
(-8.2231e-05 -5.82177e-05 0)
(-6.67035e-05 -5.8824e-05 0)
(-5.10384e-05 -5.92311e-05 0)
(-3.52886e-05 -5.94282e-05 0)
(-1.95063e-05 -5.94119e-05 0)
(-3.73739e-06 -5.919e-05 0)
(1.19649e-05 -5.87811e-05 0)
(2.75483e-05 -5.82034e-05 0)
(4.29764e-05 -5.74663e-05 0)
(5.82055e-05 -5.65741e-05 0)
(7.31945e-05 -5.55292e-05 0)
(8.79031e-05 -5.43346e-05 0)
(0.000102292 -5.29939e-05 0)
(0.000116325 -5.15126e-05 0)
(0.000129966 -4.98965e-05 0)
(0.000143181 -4.81522e-05 0)
(0.000155936 -4.6287e-05 0)
(0.000168201 -4.43094e-05 0)
(0.000179952 -4.22274e-05 0)
(0.000191162 -4.00499e-05 0)
(0.000201809 -3.77856e-05 0)
(0.000211872 -3.54434e-05 0)
(0.000221333 -3.3033e-05 0)
(0.000230178 -3.05629e-05 0)
(0.000238393 -2.80416e-05 0)
(0.000245967 -2.54771e-05 0)
(0.000252892 -2.28771e-05 0)
(0.00025916 -2.02476e-05 0)
(0.000264766 -1.75945e-05 0)
(0.000269708 -1.49231e-05 0)
(0.000273986 -1.22395e-05 0)
(0.0002776 -9.54879e-06 0)
(0.000280553 -6.85646e-06 0)
(0.000282849 -4.17039e-06 0)
(0.000284494 -1.50235e-06 0)
(0.000285499 1.13202e-06 0)
(0.000285854 3.71532e-06 0)
(0.000285585 6.23317e-06 0)
(0.000284711 8.68099e-06 0)
(0.000283246 1.10585e-05 0)
(0.000281204 1.33653e-05 0)
(0.000278601 1.56015e-05 0)
(0.000275452 1.77678e-05 0)
(0.000271774 1.98643e-05 0)
(0.000267582 2.18906e-05 0)
(0.000262891 2.38459e-05 0)
(0.000257716 2.57293e-05 0)
(0.000252074 2.75394e-05 0)
(0.00024598 2.9275e-05 0)
(0.00023945 3.09351e-05 0)
(0.000232499 3.25173e-05 0)
(0.000225144 3.40202e-05 0)
(0.000217399 3.54417e-05 0)
(0.000209281 3.67788e-05 0)
(0.000200806 3.80288e-05 0)
(0.000191988 3.91914e-05 0)
(0.000182838 4.02747e-05 0)
(0.000173355 4.1313e-05 0)
(0.000163505 4.24057e-05 0)
(0.00015318 4.3791e-05 0)
(0.000142104 4.59438e-05 0)
(0.000129701 4.96186e-05 0)
(0.00011496 5.56049e-05 0)
(9.64951e-05 6.38269e-05 0)
(7.31829e-05 7.16339e-05 0)
(4.5738e-05 7.22611e-05 0)
(1.8794e-05 5.6446e-05 0)
(1.3036e-06 2.06925e-05 0)
(-1.33263e-06 4.08189e-05 0)
(-1.75594e-05 0.000101074 0)
(-4.07256e-05 0.000123224 0)
(-6.27404e-05 0.000116901 0)
(-7.96421e-05 9.91679e-05 0)
(-9.11883e-05 8.19211e-05 0)
(-9.87701e-05 6.96338e-05 0)
(-0.000103917 6.21903e-05 0)
(-0.000107725 5.79617e-05 0)
(-0.000110826 5.54342e-05 0)
(-0.000113536 5.36474e-05 0)
(-0.000115997 5.21078e-05 0)
(-0.000118268 5.05977e-05 0)
(-0.000120374 4.9033e-05 0)
(-0.000122325 4.7385e-05 0)
(-0.000124128 4.56459e-05 0)
(-0.000125783 4.38147e-05 0)
(-0.000127293 4.18924e-05 0)
(-0.000128659 3.98805e-05 0)
(-0.000129882 3.77795e-05 0)
(-0.000130962 3.55905e-05 0)
(-0.0001319 3.3314e-05 0)
(-0.000132695 3.09513e-05 0)
(-0.000133347 2.85045e-05 0)
(-0.000133856 2.59743e-05 0)
(-0.000134222 2.33615e-05 0)
(-0.000134445 2.0668e-05 0)
(-0.000134524 1.78954e-05 0)
(-0.000134461 1.50458e-05 0)
(-0.000134256 1.21221e-05 0)
(-0.000133911 9.12781e-06 0)
(-0.000133429 6.06649e-06 0)
(-0.000132813 2.94186e-06 0)
(-0.000132061 -2.38485e-07 0)
(-0.000131191 -3.46354e-06 0)
(-0.000130185 -6.72658e-06 0)
(-0.000129034 -1.00213e-05 0)
(-0.000127734 -1.3345e-05 0)
(-0.000126277 -1.66941e-05 0)
(-0.000124653 -2.00587e-05 0)
(-0.000122858 -2.34324e-05 0)
(-0.000120892 -2.68071e-05 0)
(-0.000118749 -3.01726e-05 0)
(-0.000116423 -3.35177e-05 0)
(-0.000113912 -3.68306e-05 0)
(-0.000111216 -4.0099e-05 0)
(-0.000108335 -4.33105e-05 0)
(-0.000105267 -4.64517e-05 0)
(-0.000102014 -4.95086e-05 0)
(-9.85803e-05 -5.24679e-05 0)
(-9.4968e-05 -5.53155e-05 0)
(-9.11815e-05 -5.80373e-05 0)
(-8.7227e-05 -6.06194e-05 0)
(-8.31124e-05 -6.30482e-05 0)
(-7.88469e-05 -6.53107e-05 0)
(-7.44385e-05 -6.73944e-05 0)
(-6.98986e-05 -6.92875e-05 0)
(-6.52415e-05 -7.09797e-05 0)
(-6.04814e-05 -7.24607e-05 0)
(-5.56327e-05 -7.37211e-05 0)
(-5.07105e-05 -7.47511e-05 0)
(-4.57298e-05 -7.55399e-05 0)
(-4.07036e-05 -7.60773e-05 0)
(-3.56426e-05 -7.63566e-05 0)
(-3.0554e-05 -7.63795e-05 0)
(-2.54439e-05 -7.61562e-05 0)
(-2.03193e-05 -7.57018e-05 0)
(-1.51888e-05 -7.50319e-05 0)
(-1.00627e-05 -7.41568e-05 0)
(-4.95199e-06 -7.30821e-05 0)
(1.31657e-07 -7.18113e-05 0)
(5.17624e-06 -7.0349e-05 0)
(1.01698e-05 -6.87009e-05 0)
(1.5103e-05 -6.6874e-05 0)
(1.99687e-05 -6.48766e-05 0)
(2.47573e-05 -6.27182e-05 0)
(2.94578e-05 -6.04084e-05 0)
(3.40625e-05 -5.79574e-05 0)
(3.85662e-05 -5.53762e-05 0)
(4.29618e-05 -5.26763e-05 0)
(4.72429e-05 -4.98694e-05 0)
(5.14009e-05 -4.69669e-05 0)
(5.54306e-05 -4.39803e-05 0)
(5.93296e-05 -4.09207e-05 0)
(6.30927e-05 -3.77991e-05 0)
(6.67149e-05 -3.46261e-05 0)
(7.0193e-05 -3.14116e-05 0)
(7.3524e-05 -2.81646e-05 0)
(7.67063e-05 -2.48932e-05 0)
(7.97357e-05 -2.16061e-05 0)
(8.26114e-05 -1.83121e-05 0)
(8.53374e-05 -1.50199e-05 0)
(8.7915e-05 -1.17391e-05 0)
(9.03468e-05 -8.47953e-06 0)
(9.26387e-05 -5.2511e-06 0)
(9.47971e-05 -2.05977e-06 0)
(9.68354e-05 1.07952e-06 0)
(9.87271e-05 4.1522e-06 0)
(0.000100472 7.15097e-06 0)
(0.000102069 1.00734e-05 0)
(0.000103514 1.29191e-05 0)
(0.000104809 1.5687e-05 0)
(0.000105952 1.83776e-05 0)
(0.000106943 2.09895e-05 0)
(0.000107781 2.35218e-05 0)
(0.000108465 2.59745e-05 0)
(0.000108995 2.83471e-05 0)
(0.00010937 3.06378e-05 0)
(0.00010959 3.28458e-05 0)
(0.000109653 3.49704e-05 0)
(0.000109557 3.70103e-05 0)
(0.000109303 3.89642e-05 0)
(0.000108887 4.08306e-05 0)
(0.000108308 4.26075e-05 0)
(0.000107563 4.4295e-05 0)
(0.000106647 4.59004e-05 0)
(0.00010555 4.74517e-05 0)
(0.000104246 4.90335e-05 0)
(0.000102678 5.08652e-05 0)
(0.000100701 5.34464e-05 0)
(9.79961e-05 5.77528e-05 0)
(9.3924e-05 6.53301e-05 0)
(8.73708e-05 7.7858e-05 0)
(7.67753e-05 9.54993e-05 0)
(6.07061e-05 0.000113746 0)
(3.93819e-05 0.000120484 0)
(1.67964e-05 9.84379e-05 0)
(1.16375e-06 3.87679e-05 0)
(-1.2048e-06 5.74946e-05 0)
(-1.60577e-05 0.000138439 0)
(-3.66444e-05 0.000164362 0)
(-5.52512e-05 0.000150609 0)
(-6.82889e-05 0.00012197 0)
(-7.57822e-05 9.52735e-05 0)
(-7.92686e-05 7.65729e-05 0)
(-8.0342e-05 6.53908e-05 0)
(-8.01204e-05 5.9174e-05 0)
(-7.92434e-05 5.56176e-05 0)
(-7.80315e-05 5.32696e-05 0)
(-7.66317e-05 5.13817e-05 0)
(-7.5111e-05 4.96197e-05 0)
(-7.35028e-05 4.78499e-05 0)
(-7.18266e-05 4.60251e-05 0)
(-7.00962e-05 4.41295e-05 0)
(-6.83227e-05 4.21584e-05 0)
(-6.65154e-05 4.01107e-05 0)
(-6.46843e-05 3.79864e-05 0)
(-6.28397e-05 3.57858e-05 0)
(-6.09909e-05 3.35091e-05 0)
(-5.91463e-05 3.1157e-05 0)
(-5.73097e-05 2.87305e-05 0)
(-5.54895e-05 2.62301e-05 0)
(-5.36967e-05 2.36563e-05 0)
(-5.19374e-05 2.10101e-05 0)
(-5.02185e-05 1.82939e-05 0)
(-4.8547e-05 1.55092e-05 0)
(-4.69281e-05 1.26592e-05 0)
(-4.53677e-05 9.74714e-06 0)
(-4.38731e-05 6.77485e-06 0)
(-4.24531e-05 3.7507e-06 0)
(-4.11123e-05 6.77181e-07 0)
(-3.98567e-05 -2.44166e-06 0)
(-3.86914e-05 -5.60538e-06 0)
(-3.76092e-05 -8.81353e-06 0)
(-3.66107e-05 -1.20631e-05 0)
(-3.57053e-05 -1.53492e-05 0)
(-3.48827e-05 -1.86651e-05 0)
(-3.4139e-05 -2.20059e-05 0)
(-3.34812e-05 -2.53607e-05 0)
(-3.29065e-05 -2.87218e-05 0)
(-3.24108e-05 -3.20789e-05 0)
(-3.1991e-05 -3.54211e-05 0)
(-3.16445e-05 -3.87379e-05 0)
(-3.13688e-05 -4.20162e-05 0)
(-3.11601e-05 -4.52424e-05 0)
(-3.10134e-05 -4.84036e-05 0)
(-3.09252e-05 -5.14862e-05 0)
(-3.08925e-05 -5.44757e-05 0)
(-3.09106e-05 -5.73575e-05 0)
(-3.09751e-05 -6.01158e-05 0)
(-3.10821e-05 -6.27363e-05 0)
(-3.12275e-05 -6.52047e-05 0)
(-3.14084e-05 -6.7506e-05 0)
(-3.16213e-05 -6.96264e-05 0)
(-3.1863e-05 -7.15534e-05 0)
(-3.21306e-05 -7.32744e-05 0)
(-3.24218e-05 -7.47783e-05 0)
(-3.27342e-05 -7.60561e-05 0)
(-3.30644e-05 -7.71002e-05 0)
(-3.34078e-05 -7.79049e-05 0)
(-3.37561e-05 -7.84669e-05 0)
(-3.40972e-05 -7.87864e-05 0)
(-3.44152e-05 -7.88693e-05 0)
(-3.46939e-05 -7.87255e-05 0)
(-3.49193e-05 -7.83659e-05 0)
(-3.50795e-05 -7.77992e-05 0)
(-3.51654e-05 -7.70311e-05 0)
(-3.51695e-05 -7.6065e-05 0)
(-3.50859e-05 -7.49046e-05 0)
(-3.4909e-05 -7.35537e-05 0)
(-3.46337e-05 -7.2018e-05 0)
(-3.42552e-05 -7.03035e-05 0)
(-3.37686e-05 -6.84188e-05 0)
(-3.31703e-05 -6.6373e-05 0)
(-3.24572e-05 -6.41759e-05 0)
(-3.16267e-05 -6.18365e-05 0)
(-3.06765e-05 -5.93655e-05 0)
(-2.96052e-05 -5.67739e-05 0)
(-2.84123e-05 -5.40727e-05 0)
(-2.7098e-05 -5.12728e-05 0)
(-2.56628e-05 -4.83839e-05 0)
(-2.41075e-05 -4.54169e-05 0)
(-2.24342e-05 -4.23823e-05 0)
(-2.06458e-05 -3.92899e-05 0)
(-1.87453e-05 -3.61491e-05 0)
(-1.67362e-05 -3.2969e-05 0)
(-1.46223e-05 -2.97584e-05 0)
(-1.24083e-05 -2.65269e-05 0)
(-1.00986e-05 -2.32826e-05 0)
(-7.69654e-06 -2.00363e-05 0)
(-5.20617e-06 -1.67998e-05 0)
(-2.63085e-06 -1.35849e-05 0)
(3.31733e-08 -1.04025e-05 0)
(2.77692e-06 -7.26094e-06 0)
(5.58732e-06 -4.16522e-06 0)
(8.47155e-06 -1.11826e-06 0)
(1.14271e-05 1.87343e-06 0)
(1.44418e-05 4.80389e-06 0)
(1.75039e-05 7.67082e-06 0)
(2.06082e-05 1.0473e-05 0)
(2.37472e-05 1.32094e-05 0)
(2.69104e-05 1.58789e-05 0)
(3.00931e-05 1.84804e-05 0)
(3.32878e-05 2.10142e-05 0)
(3.64827e-05 2.34807e-05 0)
(3.96686e-05 2.58776e-05 0)
(4.28398e-05 2.82055e-05 0)
(4.59869e-05 3.0463e-05 0)
(4.91004e-05 3.26507e-05 0)
(5.21703e-05 3.4767e-05 0)
(5.51851e-05 3.68114e-05 0)
(5.81344e-05 3.87832e-05 0)
(6.10081e-05 4.06857e-05 0)
(6.37925e-05 4.25337e-05 0)
(6.64687e-05 4.43747e-05 0)
(6.90037e-05 4.63419e-05 0)
(7.13303e-05 4.87723e-05 0)
(7.33005e-05 5.24232e-05 0)
(7.45914e-05 5.87693e-05 0)
(7.4556e-05 7.01613e-05 0)
(7.2061e-05 8.92263e-05 0)
(6.54844e-05 0.000116512 0)
(5.3251e-05 0.000145917 0)
(3.5315e-05 0.000160309 0)
(1.52976e-05 0.000134596 0)
(1.03563e-06 5.45424e-05 0)
(-1.24878e-06 7.35406e-05 0)
(-1.61385e-05 0.000173997 0)
(-3.64797e-05 0.000202602 0)
(-5.4488e-05 0.000180605 0)
(-6.66383e-05 0.000140598 0)
(-7.30672e-05 0.000104266 0)
(-7.54076e-05 7.9124e-05 0)
(-7.53114e-05 6.4244e-05 0)
(-7.39253e-05 5.61024e-05 0)
(-7.19008e-05 5.15872e-05 0)
(-6.95621e-05 4.8751e-05 0)
(-6.70585e-05 4.65918e-05 0)
(-6.4459e-05 4.46606e-05 0)
(-6.17965e-05 4.27765e-05 0)
(-5.90914e-05 4.08731e-05 0)
(-5.63616e-05 3.89276e-05 0)
(-5.36204e-05 3.69325e-05 0)
(-5.0879e-05 3.48851e-05 0)
(-4.81496e-05 3.2784e-05 0)
(-4.54443e-05 3.06283e-05 0)
(-4.27738e-05 2.84176e-05 0)
(-4.01477e-05 2.61513e-05 0)
(-3.75759e-05 2.38314e-05 0)
(-3.50701e-05 2.14559e-05 0)
(-3.26403e-05 1.90246e-05 0)
(-3.02929e-05 1.65375e-05 0)
(-2.80368e-05 1.39973e-05 0)
(-2.58811e-05 1.14043e-05 0)
(-2.38317e-05 8.7617e-06 0)
(-2.19e-05 6.07129e-06 0)
(-2.00842e-05 3.33551e-06 0)
(-1.83897e-05 5.5764e-07 0)
(-1.68301e-05 -2.26077e-06 0)
(-1.54043e-05 -5.11556e-06 0)
(-1.41132e-05 -8.01134e-06 0)
(-1.29602e-05 -1.0945e-05 0)
(-1.19498e-05 -1.39154e-05 0)
(-1.1086e-05 -1.6918e-05 0)
(-1.03751e-05 -1.99469e-05 0)
(-9.80932e-06 -2.29976e-05 0)
(-9.38891e-06 -2.60637e-05 0)
(-9.12262e-06 -2.91392e-05 0)
(-9.00637e-06 -3.22128e-05 0)
(-9.03798e-06 -3.52778e-05 0)
(-9.213e-06 -3.83213e-05 0)
(-9.52784e-06 -4.13334e-05 0)
(-9.9805e-06 -4.43024e-05 0)
(-1.05663e-05 -4.72166e-05 0)
(-1.12794e-05 -5.00619e-05 0)
(-1.21152e-05 -5.28252e-05 0)
(-1.30652e-05 -5.54926e-05 0)
(-1.41233e-05 -5.80493e-05 0)
(-1.52857e-05 -6.0481e-05 0)
(-1.65437e-05 -6.27742e-05 0)
(-1.78907e-05 -6.49136e-05 0)
(-1.93198e-05 -6.68867e-05 0)
(-2.08228e-05 -6.86802e-05 0)
(-2.23928e-05 -7.02808e-05 0)
(-2.40237e-05 -7.16786e-05 0)
(-2.57076e-05 -7.28658e-05 0)
(-2.74351e-05 -7.38379e-05 0)
(-2.91951e-05 -7.45945e-05 0)
(-3.0974e-05 -7.51393e-05 0)
(-3.27544e-05 -7.54798e-05 0)
(-3.45154e-05 -7.56253e-05 0)
(-3.62355e-05 -7.55855e-05 0)
(-3.78948e-05 -7.53676e-05 0)
(-3.94756e-05 -7.49747e-05 0)
(-4.09618e-05 -7.44075e-05 0)
(-4.23394e-05 -7.36658e-05 0)
(-4.35966e-05 -7.27504e-05 0)
(-4.47224e-05 -7.16639e-05 0)
(-4.57067e-05 -7.04107e-05 0)
(-4.65407e-05 -6.89959e-05 0)
(-4.72166e-05 -6.7426e-05 0)
(-4.77269e-05 -6.5708e-05 0)
(-4.80646e-05 -6.38497e-05 0)
(-4.82248e-05 -6.18589e-05 0)
(-4.82031e-05 -5.97444e-05 0)
(-4.79958e-05 -5.75149e-05 0)
(-4.76001e-05 -5.51792e-05 0)
(-4.7015e-05 -5.27461e-05 0)
(-4.62401e-05 -5.02243e-05 0)
(-4.52757e-05 -4.76223e-05 0)
(-4.41234e-05 -4.49488e-05 0)
(-4.27857e-05 -4.22118e-05 0)
(-4.12659e-05 -3.94191e-05 0)
(-3.95681e-05 -3.65781e-05 0)
(-3.76971e-05 -3.36963e-05 0)
(-3.56583e-05 -3.07818e-05 0)
(-3.34574e-05 -2.78433e-05 0)
(-3.11006e-05 -2.48909e-05 0)
(-2.8594e-05 -2.1936e-05 0)
(-2.59437e-05 -1.89906e-05 0)
(-2.31554e-05 -1.60661e-05 0)
(-2.02356e-05 -1.31752e-05 0)
(-1.71915e-05 -1.03215e-05 0)
(-1.4027e-05 -7.50698e-06 0)
(-1.07458e-05 -4.73426e-06 0)
(-7.3527e-06 -2.00564e-06 0)
(-3.85666e-06 6.76829e-07 0)
(-2.67077e-07 3.31294e-06 0)
(3.40651e-06 5.90137e-06 0)
(7.15248e-06 8.44351e-06 0)
(1.09635e-05 1.09376e-05 0)
(1.48328e-05 1.33837e-05 0)
(1.87439e-05 1.57825e-05 0)
(2.26863e-05 1.8134e-05 0)
(2.66523e-05 2.04386e-05 0)
(3.06285e-05 2.26963e-05 0)
(3.46037e-05 2.49065e-05 0)
(3.85658e-05 2.70689e-05 0)
(4.25008e-05 2.91842e-05 0)
(4.63956e-05 3.12532e-05 0)
(5.02396e-05 3.32818e-05 0)
(5.40161e-05 3.52919e-05 0)
(5.77037e-05 3.73489e-05 0)
(6.12688e-05 3.96333e-05 0)
(6.46435e-05 4.25978e-05 0)
(6.76787e-05 4.72563e-05 0)
(7.00483e-05 5.55849e-05 0)
(7.10952e-05 7.07543e-05 0)
(6.96586e-05 9.63825e-05 0)
(6.40601e-05 0.000133488 0)
(5.26335e-05 0.000174497 0)
(3.52274e-05 0.000197332 0)
(1.54053e-05 0.000169007 0)
(1.08061e-06 6.9707e-05 0)
(-1.31665e-06 9.01551e-05 0)
(-1.68309e-05 0.000210548 0)
(-3.79158e-05 0.000241624 0)
(-5.64892e-05 0.000210903 0)
(-6.89234e-05 0.00015907 0)
(-7.53958e-05 0.00011279 0)
(-7.76252e-05 8.10394e-05 0)
(-7.73375e-05 6.23934e-05 0)
(-7.57262e-05 5.23126e-05 0)
(-7.34671e-05 4.68479e-05 0)
(-7.08956e-05 4.35411e-05 0)
(-6.81653e-05 4.11301e-05 0)
(-6.53464e-05 3.90498e-05 0)
(-6.24732e-05 3.70718e-05 0)
(-5.95653e-05 3.51107e-05 0)
(-5.66394e-05 3.31376e-05 0)
(-5.3709e-05 3.11421e-05 0)
(-5.0787e-05 2.91201e-05 0)
(-4.78871e-05 2.70686e-05 0)
(-4.50221e-05 2.49862e-05 0)
(-4.22038e-05 2.28718e-05 0)
(-3.94384e-05 2.07239e-05 0)
(-3.67364e-05 1.85408e-05 0)
(-3.4113e-05 1.6321e-05 0)
(-3.15782e-05 1.40641e-05 0)
(-2.91358e-05 1.17701e-05 0)
(-2.67954e-05 9.43801e-06 0)
(-2.4566e-05 7.06876e-06 0)
(-2.24524e-05 4.66173e-06 0)
(-2.04632e-05 2.21752e-06 0)
(-1.86014e-05 -2.56961e-07 0)
(-1.68749e-05 -2.76778e-06 0)
(-1.52799e-05 -5.31206e-06 0)
(-1.38221e-05 -7.88724e-06 0)
(-1.25104e-05 -1.04969e-05 0)
(-1.13398e-05 -1.31378e-05 0)
(-1.03167e-05 -1.58077e-05 0)
(-9.44829e-06 -1.85039e-05 0)
(-8.73052e-06 -2.12233e-05 0)
(-8.16361e-06 -2.3958e-05 0)
(-7.75641e-06 -2.67085e-05 0)
(-7.50139e-06 -2.94682e-05 0)
(-7.39825e-06 -3.22298e-05 0)
(-7.44466e-06 -3.4986e-05 0)
(-7.63548e-06 -3.77284e-05 0)
(-7.97331e-06 -4.04474e-05 0)
(-8.45241e-06 -4.31323e-05 0)
(-9.06462e-06 -4.57719e-05 0)
(-9.80375e-06 -4.83563e-05 0)
(-1.0667e-05 -5.08675e-05 0)
(-1.16456e-05 -5.32944e-05 0)
(-1.27326e-05 -5.56271e-05 0)
(-1.3924e-05 -5.78494e-05 0)
(-1.52102e-05 -5.99456e-05 0)
(-1.65855e-05 -6.19035e-05 0)
(-1.80448e-05 -6.37098e-05 0)
(-1.95758e-05 -6.53511e-05 0)
(-2.11723e-05 -6.68164e-05 0)
(-2.28295e-05 -6.80956e-05 0)
(-2.45384e-05 -6.91826e-05 0)
(-2.62893e-05 -7.00754e-05 0)
(-2.80714e-05 -7.07782e-05 0)
(-2.9872e-05 -7.13006e-05 0)
(-3.16749e-05 -7.1656e-05 0)
(-3.34609e-05 -7.18575e-05 0)
(-3.52098e-05 -7.19154e-05 0)
(-3.6902e-05 -7.18346e-05 0)
(-3.85187e-05 -7.16149e-05 0)
(-4.00426e-05 -7.12527e-05 0)
(-4.1459e-05 -7.07443e-05 0)
(-4.2756e-05 -7.00873e-05 0)
(-4.39228e-05 -6.92818e-05 0)
(-4.49487e-05 -6.83298e-05 0)
(-4.5824e-05 -6.72348e-05 0)
(-4.65405e-05 -6.60011e-05 0)
(-4.70908e-05 -6.46336e-05 0)
(-4.74685e-05 -6.31381e-05 0)
(-4.76684e-05 -6.15207e-05 0)
(-4.76859e-05 -5.97879e-05 0)
(-4.75174e-05 -5.79463e-05 0)
(-4.716e-05 -5.60024e-05 0)
(-4.66121e-05 -5.39631e-05 0)
(-4.58727e-05 -5.18354e-05 0)
(-4.4942e-05 -4.96258e-05 0)
(-4.38215e-05 -4.73412e-05 0)
(-4.25129e-05 -4.49875e-05 0)
(-4.10187e-05 -4.25708e-05 0)
(-3.93428e-05 -4.00969e-05 0)
(-3.74898e-05 -3.75717e-05 0)
(-3.54647e-05 -3.50021e-05 0)
(-3.32731e-05 -3.23962e-05 0)
(-3.09205e-05 -2.9764e-05 0)
(-2.84123e-05 -2.71168e-05 0)
(-2.57541e-05 -2.44669e-05 0)
(-2.29514e-05 -2.18259e-05 0)
(-2.00099e-05 -1.92038e-05 0)
(-1.69351e-05 -1.66071e-05 0)
(-1.37325e-05 -1.40397e-05 0)
(-1.04079e-05 -1.15032e-05 0)
(-6.96743e-06 -8.99906e-06 0)
(-3.41806e-06 -6.52558e-06 0)
(2.33924e-07 -4.08093e-06 0)
(3.98016e-06 -1.66661e-06 0)
(7.80443e-06 7.19249e-07 0)
(1.16959e-05 3.07919e-06 0)
(1.56506e-05 5.41276e-06 0)
(1.96555e-05 7.7206e-06 0)
(2.36983e-05 1.00068e-05 0)
(2.77706e-05 1.22696e-05 0)
(3.18584e-05 1.45091e-05 0)
(3.59487e-05 1.6726e-05 0)
(4.00305e-05 1.89209e-05 0)
(4.40885e-05 2.10938e-05 0)
(4.81089e-05 2.32484e-05 0)
(5.20804e-05 2.53931e-05 0)
(5.59872e-05 2.75553e-05 0)
(5.98076e-05 2.9818e-05 0)
(6.3508e-05 3.24097e-05 0)
(6.70202e-05 3.58997e-05 0)
(7.01912e-05 4.15639e-05 0)
(7.26827e-05 5.18948e-05 0)
(7.38135e-05 7.09118e-05 0)
(7.23788e-05 0.000103268 0)
(6.66305e-05 0.000150497 0)
(5.48206e-05 0.000203548 0)
(3.67626e-05 0.000235275 0)
(1.61316e-05 0.000204504 0)
(1.14927e-06 8.54709e-05 0)
(-1.39187e-06 0.000107637 0)
(-1.77434e-05 0.000248908 0)
(-3.99405e-05 0.000282508 0)
(-5.94899e-05 0.000242606 0)
(-7.2585e-05 0.00017838 0)
(-7.94165e-05 0.000121695 0)
(-8.1793e-05 8.30427e-05 0)
(-8.15301e-05 6.04734e-05 0)
(-7.98825e-05 4.83829e-05 0)
(-7.7561e-05 4.19447e-05 0)
(-7.49193e-05 3.81645e-05 0)
(-7.2119e-05 3.55073e-05 0)
(-6.92338e-05 3.32859e-05 0)
(-6.62997e-05 3.12237e-05 0)
(-6.3335e-05 2.92172e-05 0)
(-6.03555e-05 2.72289e-05 0)
(-5.73765e-05 2.52452e-05 0)
(-5.44113e-05 2.32594e-05 0)
(-5.1473e-05 2.12677e-05 0)
(-4.85728e-05 1.92677e-05 0)
(-4.57221e-05 1.72589e-05 0)
(-4.29321e-05 1.52383e-05 0)
(-4.02136e-05 1.32008e-05 0)
(-3.75768e-05 1.11456e-05 0)
(-3.50296e-05 9.07236e-06 0)
(-3.25799e-05 6.97893e-06 0)
(-3.02362e-05 4.8628e-06 0)
(-2.80078e-05 2.72407e-06 0)
(-2.59016e-05 5.60052e-07 0)
(-2.39138e-05 -1.62978e-06 0)
(-2.20557e-05 -3.84501e-06 0)
(-2.03376e-05 -6.08691e-06 0)
(-1.8751e-05 -8.35368e-06 0)
(-1.7306e-05 -1.06508e-05 0)
(-1.60034e-05 -1.29756e-05 0)
(-1.48376e-05 -1.53253e-05 0)
(-1.38161e-05 -1.77036e-05 0)
(-1.29423e-05 -2.01036e-05 0)
(-1.22128e-05 -2.25213e-05 0)
(-1.16276e-05 -2.49587e-05 0)
(-1.11903e-05 -2.74102e-05 0)
(-1.08959e-05 -2.98707e-05 0)
(-1.07424e-05 -3.23393e-05 0)
(-1.07288e-05 -3.48071e-05 0)
(-1.08487e-05 -3.72705e-05 0)
(-1.10965e-05 -3.97212e-05 0)
(-1.14697e-05 -4.21456e-05 0)
(-1.19668e-05 -4.4536e-05 0)
(-1.25696e-05 -4.68813e-05 0)
(-1.32732e-05 -4.91685e-05 0)
(-1.40857e-05 -5.13848e-05 0)
(-1.49921e-05 -5.35194e-05 0)
(-1.59777e-05 -5.55555e-05 0)
(-1.70423e-05 -5.74802e-05 0)
(-1.81831e-05 -5.9281e-05 0)
(-1.93903e-05 -6.09432e-05 0)
(-2.06577e-05 -6.24541e-05 0)
(-2.19799e-05 -6.38037e-05 0)
(-2.33514e-05 -6.49809e-05 0)
(-2.47661e-05 -6.5981e-05 0)
(-2.62155e-05 -6.68054e-05 0)
(-2.76905e-05 -6.74618e-05 0)
(-2.91802e-05 -6.7965e-05 0)
(-3.06709e-05 -6.83341e-05 0)
(-3.21453e-05 -6.8587e-05 0)
(-3.35855e-05 -6.87352e-05 0)
(-3.49739e-05 -6.87823e-05 0)
(-3.62932e-05 -6.87247e-05 0)
(-3.75271e-05 -6.85552e-05 0)
(-3.86613e-05 -6.82661e-05 0)
(-3.96843e-05 -6.78522e-05 0)
(-4.05862e-05 -6.73103e-05 0)
(-4.13581e-05 -6.66401e-05 0)
(-4.19916e-05 -6.58433e-05 0)
(-4.24797e-05 -6.49225e-05 0)
(-4.2816e-05 -6.38815e-05 0)
(-4.2995e-05 -6.2724e-05 0)
(-4.3012e-05 -6.14542e-05 0)
(-4.28625e-05 -6.00768e-05 0)
(-4.25427e-05 -5.85965e-05 0)
(-4.205e-05 -5.70183e-05 0)
(-4.13831e-05 -5.53474e-05 0)
(-4.0541e-05 -5.35889e-05 0)
(-3.95233e-05 -5.17479e-05 0)
(-3.83304e-05 -4.9829e-05 0)
(-3.69631e-05 -4.78369e-05 0)
(-3.54235e-05 -4.5776e-05 0)
(-3.37144e-05 -4.36507e-05 0)
(-3.18392e-05 -4.14659e-05 0)
(-2.9802e-05 -3.92274e-05 0)
(-2.76066e-05 -3.69426e-05 0)
(-2.52572e-05 -3.46216e-05 0)
(-2.27576e-05 -3.22758e-05 0)
(-2.01117e-05 -2.99176e-05 0)
(-1.73237e-05 -2.75584e-05 0)
(-1.43978e-05 -2.52078e-05 0)
(-1.13391e-05 -2.28717e-05 0)
(-8.15272e-06 -2.05541e-05 0)
(-4.84559e-06 -1.82524e-05 0)
(-1.4216e-06 -1.59709e-05 0)
(2.11439e-06 -1.37041e-05 0)
(5.74468e-06 -1.14516e-05 0)
(9.46021e-06 -9.20997e-06 0)
(1.32598e-05 -6.97891e-06 0)
(1.71316e-05 -4.75388e-06 0)
(2.10644e-05 -2.53351e-06 0)
(2.50498e-05 -3.15999e-07 0)
(2.9073e-05 1.90177e-06 0)
(3.31183e-05 4.12019e-06 0)
(3.71777e-05 6.3416e-06 0)
(4.12401e-05 8.5654e-06 0)
(4.52909e-05 1.07934e-05 0)
(4.93183e-05 1.3027e-05 0)
(5.33094e-05 1.52689e-05 0)
(5.72494e-05 1.75309e-05 0)
(6.11213e-05 1.98471e-05 0)
(6.49056e-05 2.23182e-05 0)
(6.85686e-05 2.5222e-05 0)
(7.20378e-05 2.92504e-05 0)
(7.51529e-05 3.59542e-05 0)
(7.756e-05 4.83658e-05 0)
(7.85436e-05 7.13924e-05 0)
(7.68387e-05 0.000110769 0)
(7.06109e-05 0.00016857 0)
(5.80278e-05 0.000234211 0)
(3.88963e-05 0.000275248 0)
(1.70805e-05 0.000241918 0)
(1.22495e-06 0.000102137 0)
(-1.47469e-06 0.000126126 0)
(-1.88013e-05 0.000289459 0)
(-4.23207e-05 0.000325733 0)
(-6.30482e-05 0.000276157 0)
(-7.69575e-05 0.000198874 0)
(-8.42466e-05 0.000131223 0)
(-8.68231e-05 8.52953e-05 0)
(-8.66052e-05 5.85911e-05 0)
(-8.49222e-05 4.43883e-05 0)
(-8.25293e-05 3.69352e-05 0)
(-7.98029e-05 3.26705e-05 0)
(-7.69148e-05 2.97693e-05 0)
(-7.3941e-05 2.7415e-05 0)
(-7.09185e-05 2.52771e-05 0)
(-6.7871e-05 2.3232e-05 0)
(-6.48164e-05 2.12343e-05 0)
(-6.17691e-05 1.92678e-05 0)
(-5.87417e-05 1.73242e-05 0)
(-5.57466e-05 1.54002e-05 0)
(-5.2793e-05 1.34919e-05 0)
(-4.98942e-05 1.15955e-05 0)
(-4.70652e-05 9.70907e-06 0)
(-4.43126e-05 7.82849e-06 0)
(-4.16427e-05 5.95011e-06 0)
(-3.90682e-05 4.07109e-06 0)
(-3.65977e-05 2.18784e-06 0)
(-3.42365e-05 2.96296e-07 0)
(-3.19946e-05 -1.60618e-06 0)
(-2.98791e-05 -3.52304e-06 0)
(-2.78921e-05 -5.45612e-06 0)
(-2.60373e-05 -7.40891e-06 0)
(-2.4319e-05 -9.38086e-06 0)
(-2.27409e-05 -1.13748e-05 0)
(-2.13061e-05 -1.33932e-05 0)
(-2.00062e-05 -1.5435e-05 0)
(-1.88497e-05 -1.7503e-05 0)
(-1.78356e-05 -1.95977e-05 0)
(-1.69543e-05 -2.17142e-05 0)
(-1.62172e-05 -2.38506e-05 0)
(-1.56194e-05 -2.60069e-05 0)
(-1.51537e-05 -2.81828e-05 0)
(-1.4822e-05 -3.03714e-05 0)
(-1.4619e-05 -3.25732e-05 0)
(-1.45401e-05 -3.47849e-05 0)
(-1.45847e-05 -3.7002e-05 0)
(-1.47376e-05 -3.92142e-05 0)
(-1.49969e-05 -4.14145e-05 0)
(-1.53617e-05 -4.3593e-05 0)
(-1.58167e-05 -4.57372e-05 0)
(-1.63577e-05 -4.784e-05 0)
(-1.69818e-05 -4.98852e-05 0)
(-1.7676e-05 -5.18582e-05 0)
(-1.84332e-05 -5.37472e-05 0)
(-1.92537e-05 -5.55402e-05 0)
(-2.01296e-05 -5.7219e-05 0)
(-2.10551e-05 -5.87709e-05 0)
(-2.20259e-05 -6.01838e-05 0)
(-2.30344e-05 -6.14439e-05 0)
(-2.40776e-05 -6.2542e-05 0)
(-2.51547e-05 -6.34746e-05 0)
(-2.62584e-05 -6.4245e-05 0)
(-2.73809e-05 -6.48652e-05 0)
(-2.85147e-05 -6.53552e-05 0)
(-2.96491e-05 -6.57396e-05 0)
(-3.07682e-05 -6.60407e-05 0)
(-3.18542e-05 -6.62726e-05 0)
(-3.28908e-05 -6.64384e-05 0)
(-3.38625e-05 -6.65314e-05 0)
(-3.47547e-05 -6.65396e-05 0)
(-3.5555e-05 -6.64512e-05 0)
(-3.62533e-05 -6.62578e-05 0)
(-3.68409e-05 -6.59539e-05 0)
(-3.73114e-05 -6.55374e-05 0)
(-3.76582e-05 -6.50083e-05 0)
(-3.78756e-05 -6.43679e-05 0)
(-3.79581e-05 -6.36181e-05 0)
(-3.79002e-05 -6.27616e-05 0)
(-3.76982e-05 -6.18013e-05 0)
(-3.73485e-05 -6.07406e-05 0)
(-3.68479e-05 -5.95831e-05 0)
(-3.61939e-05 -5.83329e-05 0)
(-3.53848e-05 -5.69935e-05 0)
(-3.4419e-05 -5.55685e-05 0)
(-3.32951e-05 -5.40612e-05 0)
(-3.2013e-05 -5.2475e-05 0)
(-3.05734e-05 -5.08131e-05 0)
(-2.89774e-05 -4.90786e-05 0)
(-2.72264e-05 -4.72746e-05 0)
(-2.53221e-05 -4.54049e-05 0)
(-2.32668e-05 -4.34751e-05 0)
(-2.10633e-05 -4.14927e-05 0)
(-1.87137e-05 -3.9468e-05 0)
(-1.62201e-05 -3.74125e-05 0)
(-1.35842e-05 -3.53384e-05 0)
(-1.08085e-05 -3.32562e-05 0)
(-7.89584e-06 -3.11743e-05 0)
(-4.85198e-06 -2.90929e-05 0)
(-1.67572e-06 -2.70224e-05 0)
(1.61807e-06 -2.49567e-05 0)
(5.02229e-06 -2.28954e-05 0)
(8.53731e-06 -2.08351e-05 0)
(1.2152e-05 -1.87716e-05 0)
(1.58572e-05 -1.66998e-05 0)
(1.96399e-05 -1.46171e-05 0)
(2.34911e-05 -1.252e-05 0)
(2.74018e-05 -1.04054e-05 0)
(3.13639e-05 -8.27274e-06 0)